{
	 "smiles": "CC1=CC(C(=O)CCl)=C(C)N1C1=CC=C(C=C1)S(N)(=O)=O", 
	 "Tm": 515.15, 
	 "num_atms": 36, 
	 "gaussian": { 
		 "optdone": 1, 
		 "sigma_profile": "yes", 
		 "theory": "DFT", 
		 "functional": "B3LYP", 
		 "basiset": "6-31G**", 
		 "properties": { 
			 "R2extent": 11979.2749, 
			 "electric_dipole_moment_norm": 5.19931860343, 
			 "electric_quadrupole_moment_norm": 58.4278135408, 
			 "total_energy": -1736.01229843, 
			 "HOMO_LUMO_gap": 0.15666, 
			 "cosmo_polarized_energy": -31.77, 
			 "cosmo_cavitation_energy": 43.36, 
			 "cosmo_dispersion_energy": -30.56, 
			 "cosmo_repulsion_energy": 2.32, 
			 "cosmo_total_nonelectrostatic_energy": 15.12, 
			 "SMD_solvation_energy": 7.29 
		},
		"coords": [
			{
				"x": -1.4639285783,
				"y": 0.8772002575,
				"z": -2.5273231733,
				"element": "C" 
			},
			{
				"x": -0.2077861126,
				"y": 1.2942588349,
				"z": -1.8317108833,
				"element": "C" 
			},
			{
				"x": 0.5689525065,
				"y": 2.4058510902,
				"z": -1.998243012,
				"element": "C" 
			},
			{
				"x": 1.6919583114,
				"y": 2.3142464568,
				"z": -1.1143398356,
				"element": "C" 
			},
			{
				"x": 2.7161538144,
				"y": 3.3735990439,
				"z": -1.0753187314,
				"element": "C" 
			},
			{
				"x": 2.6292928116,
				"y": 4.3592681163,
				"z": -1.7876096645,
				"element": "O" 
			},
			{
				"x": 3.8947059936,
				"y": 3.1907487121,
				"z": -0.1076543022,
				"element": "C" 
			},
			{
				"x": 5.1248742346,
				"y": 4.4873883617,
				"z": -0.2363380239,
				"element": "Cl" 
			},
			{
				"x": 1.5746600136,
				"y": 1.1138861701,
				"z": -0.4103536413,
				"element": "C" 
			},
			{
				"x": 2.4185256899,
				"y": 0.490444424,
				"z": 0.6615933508,
				"element": "C" 
			},
			{
				"x": 0.414155132,
				"y": 0.5006097186,
				"z": -0.8562809358,
				"element": "N" 
			},
			{
				"x": -0.0846687489,
				"y": -0.7643173997,
				"z": -0.418573875,
				"element": "C" 
			},
			{
				"x": 0.5709407663,
				"y": -1.9432046574,
				"z": -0.7932227104,
				"element": "C" 
			},
			{
				"x": 0.0817838162,
				"y": -3.177910318,
				"z": -0.370528035,
				"element": "C" 
			},
			{
				"x": -1.0736189631,
				"y": -3.2230516514,
				"z": 0.4126834945,
				"element": "C" 
			},
			{
				"x": -1.7315507438,
				"y": -2.0529729981,
				"z": 0.7985073075,
				"element": "C" 
			},
			{
				"x": -1.2320119777,
				"y": -0.8206327757,
				"z": 0.3814620152,
				"element": "C" 
			},
			{
				"x": -1.7223007278,
				"y": -4.8199511809,
				"z": 0.9422501026,
				"element": "S" 
			},
			{
				"x": -2.7983053471,
				"y": -5.3261719193,
				"z": -0.239157551,
				"element": "N" 
			},
			{
				"x": -0.6115508587,
				"y": -5.7677741158,
				"z": 0.8987950466,
				"element": "O" 
			},
			{
				"x": -2.5292219589,
				"y": -4.5789255454,
				"z": 2.1358665465,
				"element": "O" 
			},
			{
				"x": -1.3606812588,
				"y": -0.09779016,
				"z": -3.0186307674,
				"element": "H" 
			},
			{
				"x": -2.3236367473,
				"y": 0.8095503158,
				"z": -1.8503728421,
				"element": "H" 
			},
			{
				"x": -1.7050411103,
				"y": 1.6147160375,
				"z": -3.2959367825,
				"element": "H" 
			},
			{
				"x": 0.3909317708,
				"y": 3.2231805137,
				"z": -2.6810650325,
				"element": "H" 
			},
			{
				"x": 3.5323856677,
				"y": 3.1875132274,
				"z": 0.9236488567,
				"element": "H" 
			},
			{
				"x": 4.3984978596,
				"y": 2.2397312525,
				"z": -0.2934302931,
				"element": "H" 
			},
			{
				"x": 1.9083483191,
				"y": -0.3571855937,
				"z": 1.1226535619,
				"element": "H" 
			},
			{
				"x": 3.3760077443,
				"y": 0.121823101,
				"z": 0.2737320194,
				"element": "H" 
			},
			{
				"x": 2.6448773436,
				"y": 1.2044591802,
				"z": 1.4584358382,
				"element": "H" 
			},
			{
				"x": 1.4613781803,
				"y": -1.8844046498,
				"z": -1.4106712203,
				"element": "H" 
			},
			{
				"x": 0.5955905801,
				"y": -4.0978075872,
				"z": -0.6282477613,
				"element": "H" 
			},
			{
				"x": -2.6018069008,
				"y": -2.1110231244,
				"z": 1.4434455859,
				"element": "H" 
			},
			{
				"x": -1.7134213231,
				"y": 0.1022615412,
				"z": 0.687820325,
				"element": "H" 
			},
			{
				"x": -3.6278865605,
				"y": -4.7469282828,
				"z": -0.3117762296,
				"element": "H" 
			},
			{
				"x": -2.3597026384,
				"y": -5.5331843956,
				"z": -1.1301087474,
				"element": "H" 
			}
		],
		 "valence_orbital": [ 
			{
				"type": "occ",
				"energy": -0.292,
				"method": "rhf"
			},
			{
				"type": "occ",
				"energy": -0.29095,
				"method": "rhf"
			},
			{
				"type": "occ",
				"energy": -0.25534,
				"method": "rhf"
			},
			{
				"type": "occ",
				"energy": -0.25058,
				"method": "rhf"
			},
			{
				"type": "occ",
				"energy": -0.22336,
				"method": "rhf"
			},
			{
				"type": "unocc",
				"energy": -0.0667,
				"method": "rhf"
			},
			{
				"type": "unocc",
				"energy": -0.04997,
				"method": "rhf"
			},
			{
				"type": "unocc",
				"energy": -0.03416,
				"method": "rhf"
			},
			{
				"type": "unocc",
				"energy": 0.02383,
				"method": "rhf"
			},
			{
				"type": "unocc",
				"energy": 0.03091,
				"method": "rhf"
			}
		],
		"cosmo_sigma_profile": { 
			"-0.025": 0.0,
			"-0.024": 0.0,
			"-0.023": 0.0,
			"-0.022": 0.0,
			"-0.021": 0.0,
			"-0.02": 0.0,
			"-0.019": 0.0,
			"-0.018": 0.0,
			"-0.017": 0.0,
			"-0.016": 0.390749196178,
			"-0.015": 2.60606569564,
			"-0.014": 2.91310212682,
			"-0.013": 2.01937674488,
			"-0.012": 3.46125107726,
			"-0.011": 3.03855088556,
			"-0.01": 2.13091987118,
			"-0.009": 5.84126315015,
			"-0.008": 11.7540129204,
			"-0.007": 13.8458923855,
			"-0.006": 16.553566073,
			"-0.005": 19.5851128179,
			"-0.004": 23.2682652831,
			"-0.003": 23.3451251689,
			"-0.002": 24.210256012,
			"-0.001": 25.1840431951,
			"0.0": 21.081280641,
			"0.001": 19.5013828246,
			"0.002": 13.271109352,
			"0.003": 11.3399065215,
			"0.004": 11.658340586,
			"0.005": 14.6062391775,
			"0.006": 16.128989772,
			"0.007": 9.18246399693,
			"0.008": 7.55596341928,
			"0.009": 6.58384987061,
			"0.01": 9.99879967588,
			"0.011": 13.572310848,
			"0.012": 7.87474455101,
			"0.013": 3.2151438384,
			"0.014": 1.29267081016,
			"0.015": 0.0687620016172,
			"0.016": 0.0,
			"0.017": 0.0,
			"0.018": 0.0,
			"0.019": 0.0,
			"0.02": 0.0,
			"0.021": 0.0,
			"0.022": 0.0,
			"0.023": 0.0,
			"0.024": 0.0,
			"0.025": 0.0
		}
	}
}
