{
	 "smiles": "CSC1=C(C(Cl)=C(S1)C(O)=O)S(=O)(=O)C(C)C", 
	 "Tm": 501.15, 
	 "num_atms": 28, 
	 "gaussian": { 
		 "optdone": 1, 
		 "sigma_profile": "yes", 
		 "theory": "DFT", 
		 "functional": "B3LYP", 
		 "basiset": "6-31G**", 
		 "properties": { 
			 "R2extent": 6070.831, 
			 "electric_dipole_moment_norm": 3.05743711137, 
			 "electric_quadrupole_moment_norm": 18.7652042725, 
			 "total_energy": -2305.16513335, 
			 "HOMO_LUMO_gap": 0.15833, 
			 "cosmo_polarized_energy": -17.64, 
			 "cosmo_cavitation_energy": 37.25, 
			 "cosmo_dispersion_energy": -26.93, 
			 "cosmo_repulsion_energy": 1.97, 
			 "cosmo_total_nonelectrostatic_energy": 12.29, 
			 "SMD_solvation_energy": 6.8 
		},
		"coords": [
			{
				"x": 1.3764497463,
				"y": -3.7560803239,
				"z": -1.9081005873,
				"element": "C" 
			},
			{
				"x": 2.4353921592,
				"y": -2.3505464615,
				"z": -1.3873843932,
				"element": "S" 
			},
			{
				"x": 1.3528808731,
				"y": -0.9549795079,
				"z": -1.5297604584,
				"element": "C" 
			},
			{
				"x": 0.2554349776,
				"y": -0.5065411987,
				"z": -0.8044871924,
				"element": "C" 
			},
			{
				"x": -0.218693586,
				"y": 0.7668876749,
				"z": -1.269766627,
				"element": "C" 
			},
			{
				"x": -1.5586240003,
				"y": 1.6088842426,
				"z": -0.5667165098,
				"element": "Cl" 
			},
			{
				"x": 0.5137729549,
				"y": 1.278308875,
				"z": -2.3232579152,
				"element": "C" 
			},
			{
				"x": 1.7794498478,
				"y": 0.1750866991,
				"z": -2.774645495,
				"element": "S" 
			},
			{
				"x": 0.3367797523,
				"y": 2.5563724801,
				"z": -3.0360967796,
				"element": "C" 
			},
			{
				"x": 1.2674498938,
				"y": 2.6922605889,
				"z": -4.0171255604,
				"element": "O" 
			},
			{
				"x": -0.5078467533,
				"y": 3.3941596693,
				"z": -2.8091041953,
				"element": "O" 
			},
			{
				"x": -0.5286476753,
				"y": -1.4162661591,
				"z": 0.5606018852,
				"element": "S" 
			},
			{
				"x": -1.9786020178,
				"y": -1.3991915968,
				"z": 0.3250565742,
				"element": "O" 
			},
			{
				"x": 0.1690872145,
				"y": -2.7050531634,
				"z": 0.7046210931,
				"element": "O" 
			},
			{
				"x": -0.1507303307,
				"y": -0.4106905108,
				"z": 2.0557498367,
				"element": "C" 
			},
			{
				"x": 1.354139783,
				"y": -0.386569569,
				"z": 2.3188796017,
				"element": "C" 
			},
			{
				"x": -0.9629944557,
				"y": -0.9994596925,
				"z": 3.2142201469,
				"element": "C" 
			},
			{
				"x": 0.5962406248,
				"y": -3.9240026768,
				"z": -1.1680248019,
				"element": "H" 
			},
			{
				"x": 0.9635214615,
				"y": -3.5740856833,
				"z": -2.9015841242,
				"element": "H" 
			},
			{
				"x": 2.0500342778,
				"y": -4.6155904939,
				"z": -1.9488417089,
				"element": "H" 
			},
			{
				"x": 1.0929695022,
				"y": 3.5474145655,
				"z": -4.4432552759,
				"element": "H" 
			},
			{
				"x": -0.523802792,
				"y": 0.5875697049,
				"z": 1.8076988704,
				"element": "H" 
			},
			{
				"x": 1.9122296866,
				"y": 0.0413601831,
				"z": 1.4815277554,
				"element": "H" 
			},
			{
				"x": 1.5514375064,
				"y": 0.2292191768,
				"z": 3.202038509,
				"element": "H" 
			},
			{
				"x": 1.730837897,
				"y": -1.3952124875,
				"z": 2.5053347422,
				"element": "H" 
			},
			{
				"x": -0.6371108905,
				"y": -2.0191157749,
				"z": 3.4383082802,
				"element": "H" 
			},
			{
				"x": -2.0304010792,
				"y": -1.0136606608,
				"z": 2.9846014734,
				"element": "H" 
			},
			{
				"x": -0.804854578,
				"y": -0.3836778994,
				"z": 4.1048128561,
				"element": "H" 
			}
		],
		 "valence_orbital": [ 
			{
				"type": "occ",
				"energy": -0.29188,
				"method": "rhf"
			},
			{
				"type": "occ",
				"energy": -0.28984,
				"method": "rhf"
			},
			{
				"type": "occ",
				"energy": -0.28367,
				"method": "rhf"
			},
			{
				"type": "occ",
				"energy": -0.26865,
				"method": "rhf"
			},
			{
				"type": "occ",
				"energy": -0.24285,
				"method": "rhf"
			},
			{
				"type": "unocc",
				"energy": -0.08452,
				"method": "rhf"
			},
			{
				"type": "unocc",
				"energy": -0.03118,
				"method": "rhf"
			},
			{
				"type": "unocc",
				"energy": -0.00999,
				"method": "rhf"
			},
			{
				"type": "unocc",
				"energy": 0.0058,
				"method": "rhf"
			},
			{
				"type": "unocc",
				"energy": 0.03898,
				"method": "rhf"
			}
		],
		"cosmo_sigma_profile": { 
			"-0.025": 0.0,
			"-0.024": 0.0,
			"-0.023": 0.0,
			"-0.022": 0.0,
			"-0.021": 0.0,
			"-0.02": 0.0,
			"-0.019": 0.668559438083,
			"-0.018": 0.920397235655,
			"-0.017": 1.03509634711,
			"-0.016": 0.869296920789,
			"-0.015": 0.707650242227,
			"-0.014": 0.550340039215,
			"-0.013": 0.395269951037,
			"-0.012": 1.07216586444,
			"-0.011": 1.13661152478,
			"-0.01": 0.23120533697,
			"-0.009": 0.227292626636,
			"-0.008": 2.08159455145,
			"-0.007": 4.85199410457,
			"-0.006": 9.8284773967,
			"-0.005": 17.6440938937,
			"-0.004": 25.630278272,
			"-0.003": 32.0952970999,
			"-0.002": 35.6551495243,
			"-0.001": 33.9868677337,
			"0.0": 22.4568638865,
			"0.001": 14.7236593998,
			"0.002": 12.7185830223,
			"0.003": 12.2449274411,
			"0.004": 9.67297995246,
			"0.005": 9.03137584138,
			"0.006": 8.58308417277,
			"0.007": 5.43790408226,
			"0.008": 6.32154366769,
			"0.009": 6.49166464897,
			"0.01": 10.6289148268,
			"0.011": 11.7326932469,
			"0.012": 2.1186424968,
			"0.013": 0.0,
			"0.014": 0.0,
			"0.015": 0.0,
			"0.016": 0.0,
			"0.017": 0.0,
			"0.018": 0.0,
			"0.019": 0.0,
			"0.02": 0.0,
			"0.021": 0.0,
			"0.022": 0.0,
			"0.023": 0.0,
			"0.024": 0.0,
			"0.025": 0.0
		}
	}
}
