{
	 "smiles": "[O-][N+](=O)C1=C(C=CC(Cl)=C1)S(Cl)(=O)=O", 
	 "Tm": 348.15, 
	 "num_atms": 17, 
	 "gaussian": { 
		 "optdone": 1, 
		 "sigma_profile": "yes", 
		 "theory": "DFT", 
		 "functional": "B3LYP", 
		 "basiset": "6-31G**", 
		 "properties": { 
			 "R2extent": 4771.0362, 
			 "electric_dipole_moment_norm": 5.50848716255, 
			 "electric_quadrupole_moment_norm": 8.94028366328, 
			 "total_energy": -1904.46954965, 
			 "HOMO_LUMO_gap": 0.17959, 
			 "cosmo_polarized_energy": -12.74, 
			 "cosmo_cavitation_energy": 27.7, 
			 "cosmo_dispersion_energy": -20.9, 
			 "cosmo_repulsion_energy": 1.59, 
			 "cosmo_total_nonelectrostatic_energy": 8.39, 
			 "SMD_solvation_energy": 5.36 
		},
		"coords": [
			{
				"x": 1.6458973557,
				"y": 3.2229891717,
				"z": 0.0239285721,
				"element": "O" 
			},
			{
				"x": 2.3000112035,
				"y": 2.3600749547,
				"z": -0.5466602188,
				"element": "N" 
			},
			{
				"x": 3.3475398756,
				"y": 2.5330191806,
				"z": -1.1615109772,
				"element": "O" 
			},
			{
				"x": 1.7478505476,
				"y": 0.9879353111,
				"z": -0.5447301059,
				"element": "C" 
			},
			{
				"x": 1.009831111,
				"y": 0.4526645437,
				"z": 0.5223266129,
				"element": "C" 
			},
			{
				"x": 0.4784644305,
				"y": -0.8326364093,
				"z": 0.3966918997,
				"element": "C" 
			},
			{
				"x": 0.6573287889,
				"y": -1.568611468,
				"z": -0.7730804383,
				"element": "C" 
			},
			{
				"x": 1.4034610343,
				"y": -1.0218227309,
				"z": -1.8158763477,
				"element": "C" 
			},
			{
				"x": 1.650792666,
				"y": -1.9343986695,
				"z": -3.278805401,
				"element": "Cl" 
			},
			{
				"x": 1.9613507335,
				"y": 0.2517977285,
				"z": -1.7042552835,
				"element": "C" 
			},
			{
				"x": 0.8263611209,
				"y": 1.1993496376,
				"z": 2.1638464822,
				"element": "S" 
			},
			{
				"x": -0.784420245,
				"y": 2.52753925,
				"z": 1.9019918231,
				"element": "Cl" 
			},
			{
				"x": 0.321051769,
				"y": 0.1514124928,
				"z": 3.0428402262,
				"element": "O" 
			},
			{
				"x": 2.0203362847,
				"y": 1.9585146916,
				"z": 2.4962151361,
				"element": "O" 
			},
			{
				"x": -0.0642714764,
				"y": -1.2590024165,
				"z": 1.2318319172,
				"element": "H" 
			},
			{
				"x": 0.2332028069,
				"y": -2.561654674,
				"z": -0.8658992545,
				"element": "H" 
			},
			{
				"x": 2.5533119936,
				"y": 0.6832294058,
				"z": -2.5012546426,
				"element": "H" 
			}
		],
		 "valence_orbital": [ 
			{
				"type": "occ",
				"energy": -0.33447,
				"method": "rhf"
			},
			{
				"type": "occ",
				"energy": -0.32886,
				"method": "rhf"
			},
			{
				"type": "occ",
				"energy": -0.32311,
				"method": "rhf"
			},
			{
				"type": "occ",
				"energy": -0.30965,
				"method": "rhf"
			},
			{
				"type": "occ",
				"energy": -0.30181,
				"method": "rhf"
			},
			{
				"type": "unocc",
				"energy": -0.12222,
				"method": "rhf"
			},
			{
				"type": "unocc",
				"energy": -0.09569,
				"method": "rhf"
			},
			{
				"type": "unocc",
				"energy": -0.07302,
				"method": "rhf"
			},
			{
				"type": "unocc",
				"energy": -0.04984,
				"method": "rhf"
			},
			{
				"type": "unocc",
				"energy": -0.00978,
				"method": "rhf"
			}
		],
		"cosmo_sigma_profile": { 
			"-0.025": 0.0,
			"-0.024": 0.0,
			"-0.023": 0.0,
			"-0.022": 0.0,
			"-0.021": 0.0,
			"-0.02": 0.0,
			"-0.019": 0.0,
			"-0.018": 0.0,
			"-0.017": 0.0,
			"-0.016": 0.0,
			"-0.015": 0.0,
			"-0.014": 0.0,
			"-0.013": 0.0,
			"-0.012": 0.0,
			"-0.011": 0.131776237041,
			"-0.01": 4.61465162939,
			"-0.009": 6.63625515249,
			"-0.008": 5.72182010402,
			"-0.007": 6.72593753118,
			"-0.006": 8.64095540659,
			"-0.005": 8.45759259567,
			"-0.004": 15.2662670061,
			"-0.003": 21.4408259797,
			"-0.002": 18.0994121382,
			"-0.001": 12.8064828514,
			"0.0": 11.6451318137,
			"0.001": 14.4154601701,
			"0.002": 20.8815601884,
			"0.003": 16.6467578608,
			"0.004": 7.70038748702,
			"0.005": 8.17344868096,
			"0.006": 12.8791989962,
			"0.007": 14.186799507,
			"0.008": 11.6655215213,
			"0.009": 2.00507292377,
			"0.01": 0.0,
			"0.011": 0.0,
			"0.012": 0.0,
			"0.013": 0.0,
			"0.014": 0.0,
			"0.015": 0.0,
			"0.016": 0.0,
			"0.017": 0.0,
			"0.018": 0.0,
			"0.019": 0.0,
			"0.02": 0.0,
			"0.021": 0.0,
			"0.022": 0.0,
			"0.023": 0.0,
			"0.024": 0.0,
			"0.025": 0.0
		}
	}
}
