{
	 "smiles": "CCC1=NN(C)C(Cl)=C1C=O", 
	 "Tm": 312.15, 
	 "num_atms": 20, 
	 "gaussian": { 
		 "optdone": 1, 
		 "sigma_profile": "yes", 
		 "theory": "DFT", 
		 "functional": "B3LYP", 
		 "basiset": "6-31G**", 
		 "properties": { 
			 "R2extent": 3331.6003, 
			 "electric_dipole_moment_norm": 3.39137572233, 
			 "electric_quadrupole_moment_norm": 19.1071140238, 
			 "total_energy": -917.062415797, 
			 "HOMO_LUMO_gap": 0.20011, 
			 "cosmo_polarized_energy": -10.38, 
			 "cosmo_cavitation_energy": 26.03, 
			 "cosmo_dispersion_energy": -18.57, 
			 "cosmo_repulsion_energy": 1.51, 
			 "cosmo_total_nonelectrostatic_energy": 8.97, 
			 "SMD_solvation_energy": 4.44 
		},
		"coords": [
			{
				"x": -2.0738115478,
				"y": -0.5179110636,
				"z": 1.6225788023,
				"element": "C" 
			},
			{
				"x": -0.6440222899,
				"y": -0.6006930291,
				"z": 1.0579957173,
				"element": "C" 
			},
			{
				"x": -0.2465032249,
				"y": 0.6140235589,
				"z": 0.2671972609,
				"element": "C" 
			},
			{
				"x": -0.2806186703,
				"y": 0.580878253,
				"z": -1.0609836157,
				"element": "N" 
			},
			{
				"x": 0.0961260999,
				"y": 1.8274276967,
				"z": -1.4713041087,
				"element": "N" 
			},
			{
				"x": 0.1746799634,
				"y": 2.129957024,
				"z": -2.8906903319,
				"element": "C" 
			},
			{
				"x": 0.364212481,
				"y": 2.6335427401,
				"z": -0.4237524605,
				"element": "C" 
			},
			{
				"x": 0.8730239909,
				"y": 4.2579634571,
				"z": -0.6467412561,
				"element": "Cl" 
			},
			{
				"x": 0.1584523053,
				"y": 1.898390503,
				"z": 0.7454081957,
				"element": "C" 
			},
			{
				"x": 0.3323453008,
				"y": 2.3276584747,
				"z": 2.1284342155,
				"element": "C" 
			},
			{
				"x": 0.6713839624,
				"y": 3.4436699587,
				"z": 2.4846547532,
				"element": "O" 
			},
			{
				"x": -2.3235034452,
				"y": -1.4303981402,
				"z": 2.1729624838,
				"element": "H" 
			},
			{
				"x": -2.8018138886,
				"y": -0.3962367031,
				"z": 0.8149779126,
				"element": "H" 
			},
			{
				"x": -2.1868051801,
				"y": 0.3295305902,
				"z": 2.3062194491,
				"element": "H" 
			},
			{
				"x": 0.06744269,
				"y": -0.7567318203,
				"z": 1.8774036357,
				"element": "H" 
			},
			{
				"x": -0.5595925957,
				"y": -1.4665460034,
				"z": 0.3939500565,
				"element": "H" 
			},
			{
				"x": 1.1934663543,
				"y": 2.4117720553,
				"z": -3.1697674801,
				"element": "H" 
			},
			{
				"x": -0.1163459701,
				"y": 1.2236292969,
				"z": -3.4189912157,
				"element": "H" 
			},
			{
				"x": -0.5056996116,
				"y": 2.9455890158,
				"z": -3.1494163247,
				"element": "H" 
			},
			{
				"x": 0.128883276,
				"y": 1.5321841353,
				"z": 2.8783643106,
				"element": "H" 
			}
		],
		 "valence_orbital": [ 
			{
				"type": "occ",
				"energy": -0.34621,
				"method": "rhf"
			},
			{
				"type": "occ",
				"energy": -0.30123,
				"method": "rhf"
			},
			{
				"type": "occ",
				"energy": -0.26145,
				"method": "rhf"
			},
			{
				"type": "occ",
				"energy": -0.2536,
				"method": "rhf"
			},
			{
				"type": "occ",
				"energy": -0.24696,
				"method": "rhf"
			},
			{
				"type": "unocc",
				"energy": -0.04685,
				"method": "rhf"
			},
			{
				"type": "unocc",
				"energy": 0.0069,
				"method": "rhf"
			},
			{
				"type": "unocc",
				"energy": 0.02557,
				"method": "rhf"
			},
			{
				"type": "unocc",
				"energy": 0.08256,
				"method": "rhf"
			},
			{
				"type": "unocc",
				"energy": 0.09931,
				"method": "rhf"
			}
		],
		"cosmo_sigma_profile": { 
			"-0.025": 0.0,
			"-0.024": 0.0,
			"-0.023": 0.0,
			"-0.022": 0.0,
			"-0.021": 0.0,
			"-0.02": 0.0,
			"-0.019": 0.0,
			"-0.018": 0.0,
			"-0.017": 0.0,
			"-0.016": 0.0,
			"-0.015": 0.0,
			"-0.014": 0.0,
			"-0.013": 0.0,
			"-0.012": 0.0,
			"-0.011": 0.0,
			"-0.01": 0.0,
			"-0.009": 0.0,
			"-0.008": 0.23101590145,
			"-0.007": 5.98300909415,
			"-0.006": 11.6335589151,
			"-0.005": 14.6387411872,
			"-0.004": 20.2230034569,
			"-0.003": 19.4637241766,
			"-0.002": 18.4407505634,
			"-0.001": 22.9551802905,
			"0.0": 21.6833160883,
			"0.001": 19.8101196237,
			"0.002": 9.34495035982,
			"0.003": 7.2178170396,
			"0.004": 3.88395415384,
			"0.005": 3.4944617115,
			"0.006": 3.18117652827,
			"0.007": 2.85476762278,
			"0.008": 3.12281309135,
			"0.009": 3.64428353508,
			"0.01": 3.29230851351,
			"0.011": 5.0224658234,
			"0.012": 4.9549622321,
			"0.013": 2.77538543622,
			"0.014": 0.77939064232,
			"0.015": 0.0512051678331,
			"0.016": 0.0,
			"0.017": 0.0,
			"0.018": 0.0,
			"0.019": 0.0,
			"0.02": 0.0,
			"0.021": 0.0,
			"0.022": 0.0,
			"0.023": 0.0,
			"0.024": 0.0,
			"0.025": 0.0
		}
	}
}
