{
	 "smiles": "O=C(CC1=CC=CC=C1)NC1CCNCC1", 
	 "Tm": 413.15, 
	 "num_atms": 34, 
	 "gaussian": { 
		 "optdone": 1, 
		 "sigma_profile": "yes", 
		 "theory": "DFT", 
		 "functional": "B3LYP", 
		 "basiset": "6-31G**", 
		 "properties": { 
			 "R2extent": 5178.9083, 
			 "electric_dipole_moment_norm": 3.48638333807, 
			 "electric_quadrupole_moment_norm": 10.3114162204, 
			 "total_energy": -690.974022374, 
			 "HOMO_LUMO_gap": 0.20337, 
			 "cosmo_polarized_energy": -14.11, 
			 "cosmo_cavitation_energy": 35.83, 
			 "cosmo_dispersion_energy": -24.79, 
			 "cosmo_repulsion_energy": 1.97, 
			 "cosmo_total_nonelectrostatic_energy": 13.01, 
			 "SMD_solvation_energy": 3.04 
		},
		"coords": [
			{
				"x": 2.212477578,
				"y": 1.798666268,
				"z": 1.7668249818,
				"element": "O" 
			},
			{
				"x": 1.6346550036,
				"y": 0.72231636,
				"z": 1.6652597556,
				"element": "C" 
			},
			{
				"x": 2.3034095916,
				"y": -0.5641807823,
				"z": 2.1923208864,
				"element": "C" 
			},
			{
				"x": 1.5862369698,
				"y": -1.8747675646,
				"z": 1.9661278717,
				"element": "C" 
			},
			{
				"x": 1.803524364,
				"y": -2.6204962331,
				"z": 0.7972764486,
				"element": "C" 
			},
			{
				"x": 1.1261582259,
				"y": -3.8202348491,
				"z": 0.5754737529,
				"element": "C" 
			},
			{
				"x": 0.2150600724,
				"y": -4.295950495,
				"z": 1.5207990733,
				"element": "C" 
			},
			{
				"x": -0.0127197822,
				"y": -3.5642410248,
				"z": 2.6879039591,
				"element": "C" 
			},
			{
				"x": 0.666915215,
				"y": -2.3647836128,
				"z": 2.9065006003,
				"element": "C" 
			},
			{
				"x": 0.395031437,
				"y": 0.5795496726,
				"z": 1.1177580445,
				"element": "N" 
			},
			{
				"x": -0.3616692608,
				"y": 1.6964571295,
				"z": 0.5678374561,
				"element": "C" 
			},
			{
				"x": -0.4358788146,
				"y": 1.6661056851,
				"z": -0.9666962219,
				"element": "C" 
			},
			{
				"x": -1.1124358175,
				"y": 2.9631992931,
				"z": -1.4956598098,
				"element": "C" 
			},
			{
				"x": -2.0299696948,
				"y": 3.6045789607,
				"z": -0.5406646098,
				"element": "N" 
			},
			{
				"x": -2.7278364943,
				"y": 2.622674669,
				"z": 0.2888488485,
				"element": "C" 
			},
			{
				"x": -1.7843977661,
				"y": 1.7497313363,
				"z": 1.1655988393,
				"element": "C" 
			},
			{
				"x": 3.298735101,
				"y": -0.5823380441,
				"z": 1.7366898689,
				"element": "H" 
			},
			{
				"x": 2.465405344,
				"y": -0.392316681,
				"z": 3.2621297023,
				"element": "H" 
			},
			{
				"x": 2.515063597,
				"y": -2.2578836545,
				"z": 0.0593170179,
				"element": "H" 
			},
			{
				"x": 1.3133165668,
				"y": -4.3853929825,
				"z": -0.3332395556,
				"element": "H" 
			},
			{
				"x": -0.3101313973,
				"y": -5.2313625611,
				"z": 1.3510455202,
				"element": "H" 
			},
			{
				"x": -0.7156718751,
				"y": -3.9292487461,
				"z": 3.4314355624,
				"element": "H" 
			},
			{
				"x": 0.48943383,
				"y": -1.8026874808,
				"z": 3.8202755629,
				"element": "H" 
			},
			{
				"x": 0.0060246534,
				"y": -0.3504322027,
				"z": 1.0485717471,
				"element": "H" 
			},
			{
				"x": 0.2001686032,
				"y": 2.5850931569,
				"z": 0.8698745084,
				"element": "H" 
			},
			{
				"x": 0.5685080434,
				"y": 1.5565429673,
				"z": -1.3883853742,
				"element": "H" 
			},
			{
				"x": -1.0082477887,
				"y": 0.781671319,
				"z": -1.2788884737,
				"element": "H" 
			},
			{
				"x": -1.6668624479,
				"y": 2.7340607143,
				"z": -2.4152581215,
				"element": "H" 
			},
			{
				"x": -0.3497836046,
				"y": 3.7004978442,
				"z": -1.7666692561,
				"element": "H" 
			},
			{
				"x": -1.5070594315,
				"y": 4.2371980549,
				"z": 0.0592739231,
				"element": "H" 
			},
			{
				"x": -3.305389917,
				"y": 1.980793228,
				"z": -0.3882361952,
				"element": "H" 
			},
			{
				"x": -3.458826151,
				"y": 3.1436314294,
				"z": 0.9158551953,
				"element": "H" 
			},
			{
				"x": -1.7282973064,
				"y": 2.1351314031,
				"z": 2.1901006579,
				"element": "H" 
			},
			{
				"x": -2.1884466465,
				"y": 0.7304174232,
				"z": 1.2386978334,
				"element": "H" 
			}
		],
		 "valence_orbital": [ 
			{
				"type": "occ",
				"energy": -0.26394,
				"method": "rhf"
			},
			{
				"type": "occ",
				"energy": -0.26035,
				"method": "rhf"
			},
			{
				"type": "occ",
				"energy": -0.24269,
				"method": "rhf"
			},
			{
				"type": "occ",
				"energy": -0.2331,
				"method": "rhf"
			},
			{
				"type": "occ",
				"energy": -0.21635,
				"method": "rhf"
			},
			{
				"type": "unocc",
				"energy": -0.01298,
				"method": "rhf"
			},
			{
				"type": "unocc",
				"energy": -0.01155,
				"method": "rhf"
			},
			{
				"type": "unocc",
				"energy": 0.03787,
				"method": "rhf"
			},
			{
				"type": "unocc",
				"energy": 0.07182,
				"method": "rhf"
			},
			{
				"type": "unocc",
				"energy": 0.08444,
				"method": "rhf"
			}
		],
		"cosmo_sigma_profile": { 
			"-0.025": 0.0,
			"-0.024": 0.0,
			"-0.023": 0.0,
			"-0.022": 0.0,
			"-0.021": 0.0,
			"-0.02": 0.0,
			"-0.019": 0.0,
			"-0.018": 0.0,
			"-0.017": 0.0,
			"-0.016": 0.0,
			"-0.015": 0.0,
			"-0.014": 0.0,
			"-0.013": 0.0,
			"-0.012": 0.0,
			"-0.011": 0.0404455516346,
			"-0.01": 1.26574680237,
			"-0.009": 2.15311675285,
			"-0.008": 2.80857613651,
			"-0.007": 3.67270237626,
			"-0.006": 11.118833822,
			"-0.005": 20.740713789,
			"-0.004": 22.6110901308,
			"-0.003": 34.3269184527,
			"-0.002": 35.5780443538,
			"-0.001": 27.274571505,
			"0.0": 21.5186044558,
			"0.001": 19.0363558626,
			"0.002": 12.7202448416,
			"0.003": 11.8855235905,
			"0.004": 10.940307884,
			"0.005": 9.36354183245,
			"0.006": 5.82899150633,
			"0.007": 1.86560177429,
			"0.008": 2.4533765038,
			"0.009": 2.0699416525,
			"0.01": 2.15829383039,
			"0.011": 2.04455726613,
			"0.012": 1.84449253508,
			"0.013": 3.01125973926,
			"0.014": 6.37382124779,
			"0.015": 3.45522424809,
			"0.016": 0.76808376557,
			"0.017": 0.698205734233,
			"0.018": 0.528431179544,
			"0.019": 0.226508956244,
			"0.02": 0.0,
			"0.021": 0.0,
			"0.022": 0.0,
			"0.023": 0.0,
			"0.024": 0.0,
			"0.025": 0.0
		}
	}
}
