{
	 "smiles": "ClC1=NC=CC2=CC=CC=C12", 
	 "Tm": 307.15, 
	 "num_atms": 17, 
	 "gaussian": { 
		 "optdone": 1, 
		 "sigma_profile": "yes", 
		 "theory": "DFT", 
		 "functional": "B3LYP", 
		 "basiset": "6-31G**", 
		 "properties": { 
			 "R2extent": 1947.8811, 
			 "electric_dipole_moment_norm": 3.80537013443, 
			 "electric_quadrupole_moment_norm": 5.88109199469, 
			 "total_energy": -861.524130541, 
			 "HOMO_LUMO_gap": 0.17382, 
			 "cosmo_polarized_energy": -7.01, 
			 "cosmo_cavitation_energy": 22.64, 
			 "cosmo_dispersion_energy": -17.32, 
			 "cosmo_repulsion_energy": 1.36, 
			 "cosmo_total_nonelectrostatic_energy": 6.67, 
			 "SMD_solvation_energy": 2.1 
		},
		"coords": [
			{
				"x": -1.8931565926,
				"y": 1.6873911125,
				"z": -0.4556886321,
				"element": "Cl" 
			},
			{
				"x": -0.6969909322,
				"y": 0.5219881759,
				"z": 0.1347107586,
				"element": "C" 
			},
			{
				"x": -1.0457019671,
				"y": -0.1688187245,
				"z": 1.1781578053,
				"element": "N" 
			},
			{
				"x": -0.1589313012,
				"y": -1.0784649634,
				"z": 1.6697887372,
				"element": "C" 
			},
			{
				"x": 1.0776401664,
				"y": -1.2973307918,
				"z": 1.1172509894,
				"element": "C" 
			},
			{
				"x": 1.4708211168,
				"y": -0.5487849524,
				"z": -0.0234378536,
				"element": "C" 
			},
			{
				"x": 2.7315495576,
				"y": -0.7135617444,
				"z": -0.6556052357,
				"element": "C" 
			},
			{
				"x": 3.0638936955,
				"y": 0.0378951285,
				"z": -1.7597749658,
				"element": "C" 
			},
			{
				"x": 2.1522470311,
				"y": 0.9873111612,
				"z": -2.2818986197,
				"element": "C" 
			},
			{
				"x": 0.9208471058,
				"y": 1.172726883,
				"z": -1.6933391517,
				"element": "C" 
			},
			{
				"x": 0.5517464493,
				"y": 0.4125051844,
				"z": -0.554735221,
				"element": "C" 
			},
			{
				"x": -0.4943775036,
				"y": -1.6319402766,
				"z": 2.5425378391,
				"element": "H" 
			},
			{
				"x": 1.7527127609,
				"y": -2.0335328856,
				"z": 1.5430565221,
				"element": "H" 
			},
			{
				"x": 3.4273959641,
				"y": -1.4433471906,
				"z": -0.2510399731,
				"element": "H" 
			},
			{
				"x": 4.0305429158,
				"y": -0.0949867613,
				"z": -2.2367473906,
				"element": "H" 
			},
			{
				"x": 2.4287981108,
				"y": 1.57261257,
				"z": -3.1535049953,
				"element": "H" 
			},
			{
				"x": 0.2215634224,
				"y": 1.8986380753,
				"z": -2.0911306129,
				"element": "H" 
			}
		],
		 "valence_orbital": [ 
			{
				"type": "occ",
				"energy": -0.31276,
				"method": "rhf"
			},
			{
				"type": "occ",
				"energy": -0.2911,
				"method": "rhf"
			},
			{
				"type": "occ",
				"energy": -0.27386,
				"method": "rhf"
			},
			{
				"type": "occ",
				"energy": -0.27247,
				"method": "rhf"
			},
			{
				"type": "occ",
				"energy": -0.23547,
				"method": "rhf"
			},
			{
				"type": "unocc",
				"energy": -0.06165,
				"method": "rhf"
			},
			{
				"type": "unocc",
				"energy": -0.03387,
				"method": "rhf"
			},
			{
				"type": "unocc",
				"energy": 0.01599,
				"method": "rhf"
			},
			{
				"type": "unocc",
				"energy": 0.03619,
				"method": "rhf"
			},
			{
				"type": "unocc",
				"energy": 0.07633,
				"method": "rhf"
			}
		],
		"cosmo_sigma_profile": { 
			"-0.025": 0.0,
			"-0.024": 0.0,
			"-0.023": 0.0,
			"-0.022": 0.0,
			"-0.021": 0.0,
			"-0.02": 0.0,
			"-0.019": 0.0,
			"-0.018": 0.0,
			"-0.017": 0.0,
			"-0.016": 0.0,
			"-0.015": 0.0,
			"-0.014": 0.0,
			"-0.013": 0.0,
			"-0.012": 0.0,
			"-0.011": 0.0,
			"-0.01": 0.0,
			"-0.009": 0.0,
			"-0.008": 0.834014186162,
			"-0.007": 9.45678973561,
			"-0.006": 11.9835983613,
			"-0.005": 13.1266721522,
			"-0.004": 10.0019010235,
			"-0.003": 7.2666341179,
			"-0.002": 10.1041914075,
			"-0.001": 13.7244845033,
			"0.0": 18.1890885264,
			"0.001": 21.4667104051,
			"0.002": 23.3056424788,
			"0.003": 17.279908848,
			"0.004": 10.1206301269,
			"0.005": 5.78148365943,
			"0.006": 2.4505010347,
			"0.007": 1.67873272572,
			"0.008": 2.0972674661,
			"0.009": 0.844983368012,
			"0.01": 1.45939496142,
			"0.011": 0.783200970631,
			"0.012": 1.22716157085,
			"0.013": 0.953375368662,
			"0.014": 0.714638474174,
			"0.015": 0.30046867356,
			"0.016": 0.0,
			"0.017": 0.0,
			"0.018": 0.0,
			"0.019": 0.0,
			"0.02": 0.0,
			"0.021": 0.0,
			"0.022": 0.0,
			"0.023": 0.0,
			"0.024": 0.0,
			"0.025": 0.0
		}
	}
}
