{
	 "smiles": "CC(C)(C)OC(=O)C(C)(C)ON=C(C(O)=O)C1=CSC(N)=N1", 
	 "Tm": 453.15, 
	 "num_atms": 41, 
	 "gaussian": { 
		 "optdone": 1, 
		 "sigma_profile": "yes", 
		 "theory": "DFT", 
		 "functional": "B3LYP", 
		 "basiset": "6-31G**", 
		 "properties": { 
			 "R2extent": 8260.0697, 
			 "electric_dipole_moment_norm": 4.01649344329, 
			 "electric_quadrupole_moment_norm": 31.7758502497, 
			 "total_energy": -1445.37098261, 
			 "HOMO_LUMO_gap": 0.14897, 
			 "cosmo_polarized_energy": -20.23, 
			 "cosmo_cavitation_energy": 46.39, 
			 "cosmo_dispersion_energy": -29.74, 
			 "cosmo_repulsion_energy": 2.25, 
			 "cosmo_total_nonelectrostatic_energy": 18.9, 
			 "SMD_solvation_energy": 9.05 
		},
		"coords": [
			{
				"x": 1.6492777107,
				"y": 0.5300415395,
				"z": 2.2499647109,
				"element": "C" 
			},
			{
				"x": 1.179636013,
				"y": -0.8486575463,
				"z": 1.7818756108,
				"element": "C" 
			},
			{
				"x": 2.2118093867,
				"y": -1.9276941902,
				"z": 2.1202522619,
				"element": "C" 
			},
			{
				"x": -0.2137152193,
				"y": -1.1699837262,
				"z": 2.3327651779,
				"element": "C" 
			},
			{
				"x": 1.1021190569,
				"y": -0.6774451085,
				"z": 0.312037143,
				"element": "O" 
			},
			{
				"x": 0.6334028032,
				"y": -1.6444395665,
				"z": -0.4840534305,
				"element": "C" 
			},
			{
				"x": 0.3591773994,
				"y": -2.7804702351,
				"z": -0.1582569577,
				"element": "O" 
			},
			{
				"x": 0.5457950523,
				"y": -1.163332721,
				"z": -1.9501724645,
				"element": "C" 
			},
			{
				"x": 1.9324159326,
				"y": -1.2649292737,
				"z": -2.5937687726,
				"element": "C" 
			},
			{
				"x": -0.5120786815,
				"y": -1.9534483721,
				"z": -2.7153506916,
				"element": "C" 
			},
			{
				"x": 0.2351780855,
				"y": 0.2576056303,
				"z": -1.994187293,
				"element": "O" 
			},
			{
				"x": -0.9457061377,
				"y": 0.5139049731,
				"z": -1.2904288829,
				"element": "N" 
			},
			{
				"x": -1.2085962374,
				"y": 1.768980166,
				"z": -1.1260054911,
				"element": "C" 
			},
			{
				"x": -0.3652704623,
				"y": 2.9419318587,
				"z": -1.624847853,
				"element": "C" 
			},
			{
				"x": 0.9349934194,
				"y": 2.7010668267,
				"z": -1.8276315237,
				"element": "O" 
			},
			{
				"x": -0.8308209609,
				"y": 4.0469895159,
				"z": -1.7915758289,
				"element": "O" 
			},
			{
				"x": -2.4392959171,
				"y": 2.0558445048,
				"z": -0.3611134489,
				"element": "C" 
			},
			{
				"x": -3.0863872021,
				"y": 3.2612646132,
				"z": -0.3010011955,
				"element": "C" 
			},
			{
				"x": -4.5061244941,
				"y": 3.1311352981,
				"z": 0.695820449,
				"element": "S" 
			},
			{
				"x": -4.0875969443,
				"y": 1.4303284337,
				"z": 0.9786412335,
				"element": "C" 
			},
			{
				"x": -4.904526889,
				"y": 0.6166294031,
				"z": 1.7266736823,
				"element": "N" 
			},
			{
				"x": -3.0107143309,
				"y": 1.0269523653,
				"z": 0.3771872962,
				"element": "N" 
			},
			{
				"x": 0.923107486,
				"y": 1.2997764782,
				"z": 1.9743549062,
				"element": "H" 
			},
			{
				"x": 2.6123721261,
				"y": 0.7856005586,
				"z": 1.798472582,
				"element": "H" 
			},
			{
				"x": 1.7654176187,
				"y": 0.5362210132,
				"z": 3.3377763207,
				"element": "H" 
			},
			{
				"x": 3.1820050342,
				"y": -1.6828497045,
				"z": 1.6763799139,
				"element": "H" 
			},
			{
				"x": 1.8911189146,
				"y": -2.9046957381,
				"z": 1.7573453137,
				"element": "H" 
			},
			{
				"x": 2.3408795795,
				"y": -1.9811207849,
				"z": 3.2061907474,
				"element": "H" 
			},
			{
				"x": -0.9478503618,
				"y": -0.4543514366,
				"z": 1.949794002,
				"element": "H" 
			},
			{
				"x": -0.1935641758,
				"y": -1.1013101432,
				"z": 3.42547285,
				"element": "H" 
			},
			{
				"x": -0.5273126221,
				"y": -2.1759961406,
				"z": 2.0516781929,
				"element": "H" 
			},
			{
				"x": 2.669430625,
				"y": -0.6919137922,
				"z": -2.0248314911,
				"element": "H" 
			},
			{
				"x": 1.8966761463,
				"y": -0.8829489293,
				"z": -3.6177580457,
				"element": "H" 
			},
			{
				"x": 2.2479730311,
				"y": -2.3109059517,
				"z": -2.6212420623,
				"element": "H" 
			},
			{
				"x": -1.4992568357,
				"y": -1.7803398544,
				"z": -2.2836316559,
				"element": "H" 
			},
			{
				"x": -0.2904595439,
				"y": -3.0202031321,
				"z": -2.6566873166,
				"element": "H" 
			},
			{
				"x": -0.5188811107,
				"y": -1.6397776759,
				"z": -3.762860535,
				"element": "H" 
			},
			{
				"x": 1.0925208172,
				"y": 1.7355870795,
				"z": -1.7796059709,
				"element": "H" 
			},
			{
				"x": -2.8137389193,
				"y": 4.1841822712,
				"z": -0.784862781,
				"element": "H" 
			},
			{
				"x": -5.4101869831,
				"y": 1.0436459474,
				"z": 2.4892026603,
				"element": "H" 
			},
			{
				"x": -4.4792222094,
				"y": -0.2723744531,
				"z": 1.955188638,
				"element": "H" 
			}
		],
		 "valence_orbital": [ 
			{
				"type": "occ",
				"energy": -0.27985,
				"method": "rhf"
			},
			{
				"type": "occ",
				"energy": -0.27503,
				"method": "rhf"
			},
			{
				"type": "occ",
				"energy": -0.26452,
				"method": "rhf"
			},
			{
				"type": "occ",
				"energy": -0.26075,
				"method": "rhf"
			},
			{
				"type": "occ",
				"energy": -0.21553,
				"method": "rhf"
			},
			{
				"type": "unocc",
				"energy": -0.06656,
				"method": "rhf"
			},
			{
				"type": "unocc",
				"energy": -0.00791,
				"method": "rhf"
			},
			{
				"type": "unocc",
				"energy": 0.00074,
				"method": "rhf"
			},
			{
				"type": "unocc",
				"energy": 0.00575,
				"method": "rhf"
			},
			{
				"type": "unocc",
				"energy": 0.039,
				"method": "rhf"
			}
		],
		"cosmo_sigma_profile": { 
			"-0.025": 0.0,
			"-0.024": 0.0,
			"-0.023": 0.0,
			"-0.022": 0.0,
			"-0.021": 0.0,
			"-0.02": 0.0,
			"-0.019": 0.0,
			"-0.018": 0.0,
			"-0.017": 0.0,
			"-0.016": 0.0,
			"-0.015": 0.991384118861,
			"-0.014": 2.05122033569,
			"-0.013": 3.10175098339,
			"-0.012": 2.06814786156,
			"-0.011": 2.94411231866,
			"-0.01": 2.4554573902,
			"-0.009": 2.91232617242,
			"-0.008": 2.70743869617,
			"-0.007": 4.5843184343,
			"-0.006": 7.02516663139,
			"-0.005": 16.689963746,
			"-0.004": 28.5125602154,
			"-0.003": 30.4378846079,
			"-0.002": 35.4049736112,
			"-0.001": 36.1476212176,
			"0.0": 42.5265998706,
			"0.001": 30.3169238447,
			"0.002": 25.0223631911,
			"0.003": 19.7908293348,
			"0.004": 13.975140412,
			"0.005": 9.25478865167,
			"0.006": 7.34219203782,
			"0.007": 6.96803357039,
			"0.008": 6.23369302098,
			"0.009": 6.75769837851,
			"0.01": 8.3322239838,
			"0.011": 6.77078815386,
			"0.012": 4.24924061832,
			"0.013": 0.475589236545,
			"0.014": 0.758434286305,
			"0.015": 0.652753446884,
			"0.016": 0.183679167964,
			"0.017": 0.0,
			"0.018": 0.0,
			"0.019": 0.0,
			"0.02": 0.0,
			"0.021": 0.0,
			"0.022": 0.0,
			"0.023": 0.0,
			"0.024": 0.0,
			"0.025": 0.0
		}
	}
}
