{
	 "smiles": "NC(=O)CNS(=O)(=O)C1=CNC(=C1)C(O)=O", 
	 "Tm": 513.15, 
	 "num_atms": 25, 
	 "gaussian": { 
		 "optdone": 1, 
		 "sigma_profile": "yes", 
		 "theory": "DFT", 
		 "functional": "B3LYP", 
		 "basiset": "6-31G**", 
		 "properties": { 
			 "R2extent": 5125.1617, 
			 "electric_dipole_moment_norm": 4.63678319635, 
			 "electric_quadrupole_moment_norm": 21.2962003393, 
			 "total_energy": -1210.67854428, 
			 "HOMO_LUMO_gap": 0.19341, 
			 "cosmo_polarized_energy": -29.67, 
			 "cosmo_cavitation_energy": 32.18, 
			 "cosmo_dispersion_energy": -22.98, 
			 "cosmo_repulsion_energy": 1.79, 
			 "cosmo_total_nonelectrostatic_energy": 10.99, 
			 "SMD_solvation_energy": 6.5 
		},
		"coords": [
			{
				"x": 1.9373361842,
				"y": 0.6762328607,
				"z": 2.9529463464,
				"element": "N" 
			},
			{
				"x": 2.7002420576,
				"y": -0.3058059296,
				"z": 2.394778317,
				"element": "C" 
			},
			{
				"x": 3.6211105257,
				"y": -0.0945762712,
				"z": 1.6214455742,
				"element": "O" 
			},
			{
				"x": 2.331261236,
				"y": -1.7289480618,
				"z": 2.8498056528,
				"element": "C" 
			},
			{
				"x": 1.2199393137,
				"y": -2.3057776131,
				"z": 2.0647580201,
				"element": "N" 
			},
			{
				"x": -0.3728293372,
				"y": -1.9155064701,
				"z": 2.4709661144,
				"element": "S" 
			},
			{
				"x": -0.3775076508,
				"y": -1.0919384021,
				"z": 3.6955995143,
				"element": "O" 
			},
			{
				"x": -1.1178036902,
				"y": -3.1747077596,
				"z": 2.4071367513,
				"element": "O" 
			},
			{
				"x": -0.9002267815,
				"y": -0.8602168026,
				"z": 1.1642550341,
				"element": "C" 
			},
			{
				"x": -1.5553868116,
				"y": 0.3469887188,
				"z": 1.3724336996,
				"element": "C" 
			},
			{
				"x": -1.8868382064,
				"y": 0.8384274557,
				"z": 0.1533573675,
				"element": "N" 
			},
			{
				"x": -1.4606434219,
				"y": -0.0282895255,
				"z": -0.838360817,
				"element": "C" 
			},
			{
				"x": -0.8437941701,
				"y": -1.1050960107,
				"z": -0.2292244181,
				"element": "C" 
			},
			{
				"x": -1.6679245703,
				"y": 0.235995887,
				"z": -2.260277176,
				"element": "C" 
			},
			{
				"x": -2.3161164324,
				"y": 1.4209308399,
				"z": -2.4555635241,
				"element": "O" 
			},
			{
				"x": -1.32049283,
				"y": -0.4872995443,
				"z": -3.1686945099,
				"element": "O" 
			},
			{
				"x": 1.1157247691,
				"y": 0.4484836936,
				"z": 3.4974212253,
				"element": "H" 
			},
			{
				"x": 2.0871288102,
				"y": 1.6223681516,
				"z": 2.6361317829,
				"element": "H" 
			},
			{
				"x": 2.1222898356,
				"y": -1.7491529691,
				"z": 3.9259236254,
				"element": "H" 
			},
			{
				"x": 3.2040422205,
				"y": -2.3485301035,
				"z": 2.6415910923,
				"element": "H" 
			},
			{
				"x": 1.265321707,
				"y": -3.3183572339,
				"z": 1.9932603935,
				"element": "H" 
			},
			{
				"x": -1.7950645644,
				"y": 0.8529100045,
				"z": 2.2946170783,
				"element": "H" 
			},
			{
				"x": -2.3685287827,
				"y": 1.7053483957,
				"z": -0.0343341102,
				"element": "H" 
			},
			{
				"x": -0.400375729,
				"y": -1.9474044359,
				"z": -0.7374271766,
				"element": "H" 
			},
			{
				"x": -2.4148636812,
				"y": 1.5204211254,
				"z": -3.4165458574,
				"element": "H" 
			}
		],
		 "valence_orbital": [ 
			{
				"type": "occ",
				"energy": -0.29431,
				"method": "rhf"
			},
			{
				"type": "occ",
				"energy": -0.2797,
				"method": "rhf"
			},
			{
				"type": "occ",
				"energy": -0.26906,
				"method": "rhf"
			},
			{
				"type": "occ",
				"energy": -0.25748,
				"method": "rhf"
			},
			{
				"type": "occ",
				"energy": -0.24465,
				"method": "rhf"
			},
			{
				"type": "unocc",
				"energy": -0.05124,
				"method": "rhf"
			},
			{
				"type": "unocc",
				"energy": -0.00634,
				"method": "rhf"
			},
			{
				"type": "unocc",
				"energy": 0.01427,
				"method": "rhf"
			},
			{
				"type": "unocc",
				"energy": 0.04432,
				"method": "rhf"
			},
			{
				"type": "unocc",
				"energy": 0.05469,
				"method": "rhf"
			}
		],
		"cosmo_sigma_profile": { 
			"-0.025": 0.0,
			"-0.024": 0.0,
			"-0.023": 0.0,
			"-0.022": 0.0,
			"-0.021": 0.0,
			"-0.02": 0.0,
			"-0.019": 0.384311585841,
			"-0.018": 0.875167216996,
			"-0.017": 1.94039973661,
			"-0.016": 2.1165528458,
			"-0.015": 2.67039698178,
			"-0.014": 3.71100273483,
			"-0.013": 3.65633071158,
			"-0.012": 3.41329596237,
			"-0.011": 4.94490240793,
			"-0.01": 6.01842870796,
			"-0.009": 6.27706951708,
			"-0.008": 7.40448348343,
			"-0.007": 7.72829910844,
			"-0.006": 12.0582014838,
			"-0.005": 11.6097972005,
			"-0.004": 12.1591914514,
			"-0.003": 11.5324913192,
			"-0.002": 13.4753359733,
			"-0.001": 11.6674272583,
			"0.0": 11.6507589259,
			"0.001": 13.9351466771,
			"0.002": 12.9982600709,
			"0.003": 10.0887217792,
			"0.004": 8.62489249729,
			"0.005": 8.26896973223,
			"0.006": 7.80168496119,
			"0.007": 4.90963077244,
			"0.008": 7.32625921182,
			"0.009": 5.74072688304,
			"0.01": 10.6138208727,
			"0.011": 13.9818569204,
			"0.012": 6.49963281618,
			"0.013": 5.14153230606,
			"0.014": 4.27005285124,
			"0.015": 0.443905939171,
			"0.016": 0.0,
			"0.017": 0.0,
			"0.018": 0.0,
			"0.019": 0.0,
			"0.02": 0.0,
			"0.021": 0.0,
			"0.022": 0.0,
			"0.023": 0.0,
			"0.024": 0.0,
			"0.025": 0.0
		}
	}
}
