{
	 "smiles": "CCN1N=CC2=C1N=C(C=C2C(O)=O)C1=CC=CC=C1", 
	 "Tm": 510.15, 
	 "num_atms": 33, 
	 "gaussian": { 
		 "optdone": 1, 
		 "sigma_profile": "yes", 
		 "theory": "DFT", 
		 "functional": "B3LYP", 
		 "basiset": "6-31G**", 
		 "properties": { 
			 "R2extent": 7184.6858, 
			 "electric_dipole_moment_norm": 0.869211631307, 
			 "electric_quadrupole_moment_norm": 9.90435338374, 
			 "total_energy": -894.153545632, 
			 "HOMO_LUMO_gap": 0.14867, 
			 "cosmo_polarized_energy": -12.64, 
			 "cosmo_cavitation_energy": 37.78, 
			 "cosmo_dispersion_energy": -27.01, 
			 "cosmo_repulsion_energy": 2.05, 
			 "cosmo_total_nonelectrostatic_energy": 12.83, 
			 "SMD_solvation_energy": 5.68 
		},
		"coords": [
			{
				"x": -0.6553839696,
				"y": 3.3567945374,
				"z": -1.1520112397,
				"element": "C" 
			},
			{
				"x": -1.1795558545,
				"y": 1.9533647515,
				"z": -1.4593992489,
				"element": "C" 
			},
			{
				"x": -0.1256842259,
				"y": 1.0443254133,
				"z": -1.8894797857,
				"element": "N" 
			},
			{
				"x": 0.4486710908,
				"y": 1.1747250651,
				"z": -3.1132118711,
				"element": "N" 
			},
			{
				"x": 1.3870171783,
				"y": 0.2432180227,
				"z": -3.2054286433,
				"element": "C" 
			},
			{
				"x": 1.4530753908,
				"y": -0.5341166695,
				"z": -2.0155348047,
				"element": "C" 
			},
			{
				"x": 0.4487996839,
				"y": 0.0264950709,
				"z": -1.179455554,
				"element": "C" 
			},
			{
				"x": 0.1123922838,
				"y": -0.359315952,
				"z": 0.0511968529,
				"element": "N" 
			},
			{
				"x": 0.804893911,
				"y": -1.3943307964,
				"z": 0.5491196289,
				"element": "C" 
			},
			{
				"x": 1.8437508229,
				"y": -2.0274138254,
				"z": -0.1857504558,
				"element": "C" 
			},
			{
				"x": 2.1773341267,
				"y": -1.612794249,
				"z": -1.4684758853,
				"element": "C" 
			},
			{
				"x": 3.2815036345,
				"y": -2.3254643653,
				"z": -2.1713550769,
				"element": "C" 
			},
			{
				"x": 3.5168699909,
				"y": -1.8321019373,
				"z": -3.4104508399,
				"element": "O" 
			},
			{
				"x": 3.9157745862,
				"y": -3.2505475971,
				"z": -1.7071151208,
				"element": "O" 
			},
			{
				"x": 0.4489040401,
				"y": -1.8414971699,
				"z": 1.9211193988,
				"element": "C" 
			},
			{
				"x": -0.2477047142,
				"y": -0.971928782,
				"z": 2.7777712974,
				"element": "C" 
			},
			{
				"x": -0.5879204863,
				"y": -1.3661444625,
				"z": 4.0689402413,
				"element": "C" 
			},
			{
				"x": -0.2451133046,
				"y": -2.6397231695,
				"z": 4.5300730322,
				"element": "C" 
			},
			{
				"x": 0.4377571964,
				"y": -3.5163862073,
				"z": 3.6856680198,
				"element": "C" 
			},
			{
				"x": 0.7821350413,
				"y": -3.122014861,
				"z": 2.3935282762,
				"element": "C" 
			},
			{
				"x": -0.1694397511,
				"y": 3.7844291796,
				"z": -2.0328764676,
				"element": "H" 
			},
			{
				"x": 0.0691064895,
				"y": 3.3324243598,
				"z": -0.3325764231,
				"element": "H" 
			},
			{
				"x": -1.4833526071,
				"y": 4.0107478181,
				"z": -0.8604683815,
				"element": "H" 
			},
			{
				"x": -1.6314970165,
				"y": 1.4967306032,
				"z": -0.575718389,
				"element": "H" 
			},
			{
				"x": -1.9318466944,
				"y": 1.986486507,
				"z": -2.2532155159,
				"element": "H" 
			},
			{
				"x": 1.9779974963,
				"y": 0.1508799949,
				"z": -4.1039807297,
				"element": "H" 
			},
			{
				"x": 2.415967794,
				"y": -2.8366084077,
				"z": 0.2491627802,
				"element": "H" 
			},
			{
				"x": 4.2451526949,
				"y": -2.3614209633,
				"z": -3.7761532752,
				"element": "H" 
			},
			{
				"x": -0.5124605467,
				"y": 0.0137246734,
				"z": 2.4122894328,
				"element": "H" 
			},
			{
				"x": -1.1199493467,
				"y": -0.6772240055,
				"z": 4.7189630674,
				"element": "H" 
			},
			{
				"x": -0.5108948147,
				"y": -2.947117011,
				"z": 5.5373837943,
				"element": "H" 
			},
			{
				"x": 0.6986591363,
				"y": -4.5130422008,
				"z": 4.0296814501,
				"element": "H" 
			},
			{
				"x": 1.2914407438,
				"y": -3.8281533645,
				"z": 1.7458604358,
				"element": "H" 
			}
		],
		 "valence_orbital": [ 
			{
				"type": "occ",
				"energy": -0.27802,
				"method": "rhf"
			},
			{
				"type": "occ",
				"energy": -0.2741,
				"method": "rhf"
			},
			{
				"type": "occ",
				"energy": -0.25307,
				"method": "rhf"
			},
			{
				"type": "occ",
				"energy": -0.23757,
				"method": "rhf"
			},
			{
				"type": "occ",
				"energy": -0.22803,
				"method": "rhf"
			},
			{
				"type": "unocc",
				"energy": -0.07936,
				"method": "rhf"
			},
			{
				"type": "unocc",
				"energy": -0.03253,
				"method": "rhf"
			},
			{
				"type": "unocc",
				"energy": -0.00266,
				"method": "rhf"
			},
			{
				"type": "unocc",
				"energy": 0.02184,
				"method": "rhf"
			},
			{
				"type": "unocc",
				"energy": 0.03856,
				"method": "rhf"
			}
		],
		"cosmo_sigma_profile": { 
			"-0.025": 0.0,
			"-0.024": 0.0,
			"-0.023": 0.0,
			"-0.022": 0.0,
			"-0.021": 0.0,
			"-0.02": 0.0,
			"-0.019": 0.293698037075,
			"-0.018": 0.850726036024,
			"-0.017": 1.11819762892,
			"-0.016": 0.901490723391,
			"-0.015": 0.536117939257,
			"-0.014": 0.867367376295,
			"-0.013": 0.774035051403,
			"-0.012": 0.592013079267,
			"-0.011": 0.856589658257,
			"-0.01": 0.583959779211,
			"-0.009": 0.704204369783,
			"-0.008": 2.01704017834,
			"-0.007": 3.77099853829,
			"-0.006": 9.91838631149,
			"-0.005": 15.7517456314,
			"-0.004": 24.1347772121,
			"-0.003": 26.9353445665,
			"-0.002": 22.1522596154,
			"-0.001": 26.5845152184,
			"0.0": 34.661968479,
			"0.001": 25.7863728464,
			"0.002": 21.3943453788,
			"0.003": 17.4247268042,
			"0.004": 17.4448302885,
			"0.005": 16.203245343,
			"0.006": 6.47667272081,
			"0.007": 4.25254071552,
			"0.008": 3.31784332873,
			"0.009": 3.55942575612,
			"0.01": 3.28653985628,
			"0.011": 5.7757959594,
			"0.012": 2.11706530749,
			"0.013": 0.935449338808,
			"0.014": 0.541667797517,
			"0.015": 0.231950764601,
			"0.016": 0.0,
			"0.017": 0.0,
			"0.018": 0.0,
			"0.019": 0.0,
			"0.02": 0.0,
			"0.021": 0.0,
			"0.022": 0.0,
			"0.023": 0.0,
			"0.024": 0.0,
			"0.025": 0.0
		}
	}
}
