{
	 "smiles": "SC1=NC=C(N1C1=CC=CC=C1)C1=CC=C(Cl)C=C1", 
	 "Tm": 557.15, 
	 "num_atms": 30, 
	 "gaussian": { 
		 "optdone": 1, 
		 "sigma_profile": "yes", 
		 "theory": "DFT", 
		 "functional": "B3LYP", 
		 "basiset": "6-31G**", 
		 "properties": { 
			 "R2extent": 7864.6716, 
			 "electric_dipole_moment_norm": 4.20139664159, 
			 "electric_quadrupole_moment_norm": 19.1045945971, 
			 "total_energy": -1546.10081345, 
			 "HOMO_LUMO_gap": 0.16702, 
			 "cosmo_polarized_energy": -12.63, 
			 "cosmo_cavitation_energy": 37.93, 
			 "cosmo_dispersion_energy": -26.65, 
			 "cosmo_repulsion_energy": 2.02, 
			 "cosmo_total_nonelectrostatic_energy": 13.3, 
			 "SMD_solvation_energy": 3.7 
		},
		"coords": [
			{
				"x": 2.9811679622,
				"y": 0.1555666136,
				"z": 1.4256954332,
				"element": "S" 
			},
			{
				"x": 2.1279790375,
				"y": 0.949213505,
				"z": 0.0915258673,
				"element": "C" 
			},
			{
				"x": 2.6664614402,
				"y": 1.9351550865,
				"z": -0.5878976738,
				"element": "N" 
			},
			{
				"x": 1.711812374,
				"y": 2.3102002691,
				"z": -1.4977934536,
				"element": "C" 
			},
			{
				"x": 0.5729665104,
				"y": 1.5431383081,
				"z": -1.3879428345,
				"element": "C" 
			},
			{
				"x": 0.8392856929,
				"y": 0.6634231789,
				"z": -0.3246789446,
				"element": "N" 
			},
			{
				"x": 0.0209171502,
				"y": -0.418758164,
				"z": 0.1314119295,
				"element": "C" 
			},
			{
				"x": -0.2400084873,
				"y": -1.4996458067,
				"z": -0.7169332696,
				"element": "C" 
			},
			{
				"x": -1.0410024935,
				"y": -2.5499696878,
				"z": -0.2683822825,
				"element": "C" 
			},
			{
				"x": -1.5699542677,
				"y": -2.5284696854,
				"z": 1.0239593973,
				"element": "C" 
			},
			{
				"x": -1.3008737331,
				"y": -1.4500782536,
				"z": 1.869775987,
				"element": "C" 
			},
			{
				"x": -0.509865417,
				"y": -0.3898503585,
				"z": 1.425770246,
				"element": "C" 
			},
			{
				"x": -0.6735777342,
				"y": 1.6097834478,
				"z": -2.1571158627,
				"element": "C" 
			},
			{
				"x": -1.9432536859,
				"y": 1.4343599166,
				"z": -1.5773268276,
				"element": "C" 
			},
			{
				"x": -3.1045440237,
				"y": 1.5546529347,
				"z": -2.3370559527,
				"element": "C" 
			},
			{
				"x": -3.0078201531,
				"y": 1.866086894,
				"z": -3.6926871485,
				"element": "C" 
			},
			{
				"x": -4.4711105041,
				"y": 2.0198858614,
				"z": -4.654265498,
				"element": "Cl" 
			},
			{
				"x": -1.7645134201,
				"y": 2.0542307035,
				"z": -4.2954102974,
				"element": "C" 
			},
			{
				"x": -0.6101943465,
				"y": 1.9174111365,
				"z": -3.5290303439,
				"element": "C" 
			},
			{
				"x": 2.3576873847,
				"y": -1.0351239986,
				"z": 1.3232297708,
				"element": "H" 
			},
			{
				"x": 1.8768447994,
				"y": 3.1368050997,
				"z": -2.1752550104,
				"element": "H" 
			},
			{
				"x": 0.1807881716,
				"y": -1.5068668829,
				"z": -1.7169721706,
				"element": "H" 
			},
			{
				"x": -1.2472853929,
				"y": -3.3868827423,
				"z": -0.9285534015,
				"element": "H" 
			},
			{
				"x": -2.1901577528,
				"y": -3.3494366318,
				"z": 1.3708434981,
				"element": "H" 
			},
			{
				"x": -1.7112166031,
				"y": -1.4288454126,
				"z": 2.8747918323,
				"element": "H" 
			},
			{
				"x": -0.2989271342,
				"y": 0.4574562703,
				"z": 2.0698828186,
				"element": "H" 
			},
			{
				"x": -2.0309595906,
				"y": 1.2166558792,
				"z": -0.5189445114,
				"element": "H" 
			},
			{
				"x": -4.0780887132,
				"y": 1.4196731294,
				"z": -1.8788217923,
				"element": "H" 
			},
			{
				"x": -1.7013306284,
				"y": 2.2901203261,
				"z": -5.3519594377,
				"element": "H" 
			},
			{
				"x": 0.3595735583,
				"y": 2.036209064,
				"z": -4.001860067,
				"element": "H" 
			}
		],
		 "valence_orbital": [ 
			{
				"type": "occ",
				"energy": -0.27486,
				"method": "rhf"
			},
			{
				"type": "occ",
				"energy": -0.26788,
				"method": "rhf"
			},
			{
				"type": "occ",
				"energy": -0.26281,
				"method": "rhf"
			},
			{
				"type": "occ",
				"energy": -0.2532,
				"method": "rhf"
			},
			{
				"type": "occ",
				"energy": -0.20517,
				"method": "rhf"
			},
			{
				"type": "unocc",
				"energy": -0.03815,
				"method": "rhf"
			},
			{
				"type": "unocc",
				"energy": -0.03024,
				"method": "rhf"
			},
			{
				"type": "unocc",
				"energy": -0.02781,
				"method": "rhf"
			},
			{
				"type": "unocc",
				"energy": -0.01561,
				"method": "rhf"
			},
			{
				"type": "unocc",
				"energy": 0.01954,
				"method": "rhf"
			}
		],
		"cosmo_sigma_profile": { 
			"-0.025": 0.0,
			"-0.024": 0.0,
			"-0.023": 0.0,
			"-0.022": 0.0,
			"-0.021": 0.0,
			"-0.02": 0.0,
			"-0.019": 0.0,
			"-0.018": 0.0,
			"-0.017": 0.0,
			"-0.016": 0.0,
			"-0.015": 0.0,
			"-0.014": 0.0,
			"-0.013": 0.0,
			"-0.012": 0.0453138432765,
			"-0.011": 0.7495454409,
			"-0.01": 1.07770324157,
			"-0.009": 1.26205977582,
			"-0.008": 2.19668112694,
			"-0.007": 11.0656144945,
			"-0.006": 20.0964939824,
			"-0.005": 23.9711702349,
			"-0.004": 22.1038222817,
			"-0.003": 18.2051946043,
			"-0.002": 19.0901066178,
			"-0.001": 17.8782985808,
			"0.0": 21.2041455323,
			"0.001": 25.2440681094,
			"0.002": 31.1456424623,
			"0.003": 34.5678839297,
			"0.004": 26.5841974693,
			"0.005": 11.8347029208,
			"0.006": 3.97109952078,
			"0.007": 4.46141586821,
			"0.008": 3.45401874441,
			"0.009": 1.47597104635,
			"0.01": 1.03029892004,
			"0.011": 1.71435482939,
			"0.012": 1.10614117664,
			"0.013": 0.983682684631,
			"0.014": 1.13856260705,
			"0.015": 1.10304791725,
			"0.016": 0.985154030819,
			"0.017": 0.375855819598,
			"0.018": 0.0,
			"0.019": 0.0,
			"0.02": 0.0,
			"0.021": 0.0,
			"0.022": 0.0,
			"0.023": 0.0,
			"0.024": 0.0,
			"0.025": 0.0
		}
	}
}
