{
	 "smiles": "OC(=O)C1=C(Cl)C(=CC(Cl)=C1)[N+]([O-])=O", 
	 "Tm": 493.15, 
	 "num_atms": 17, 
	 "gaussian": { 
		 "optdone": 1, 
		 "sigma_profile": "yes", 
		 "theory": "DFT", 
		 "functional": "B3LYP", 
		 "basiset": "6-31G**", 
		 "properties": { 
			 "R2extent": 3976.7299, 
			 "electric_dipole_moment_norm": 2.58571215335, 
			 "electric_quadrupole_moment_norm": 13.9680122032, 
			 "total_energy": -1544.47262208, 
			 "HOMO_LUMO_gap": 0.17303, 
			 "cosmo_polarized_energy": -12.33, 
			 "cosmo_cavitation_energy": 26.92, 
			 "cosmo_dispersion_energy": -19.87, 
			 "cosmo_repulsion_energy": 1.57, 
			 "cosmo_total_nonelectrostatic_energy": 8.62, 
			 "SMD_solvation_energy": 7.76 
		},
		"coords": [
			{
				"x": 2.0818057002,
				"y": 1.860853513,
				"z": -2.3337783715,
				"element": "O" 
			},
			{
				"x": 2.6481565071,
				"y": 0.8063545701,
				"z": -1.7259415199,
				"element": "C" 
			},
			{
				"x": 3.8389125884,
				"y": 0.5774004719,
				"z": -1.7822897285,
				"element": "O" 
			},
			{
				"x": 1.6849671122,
				"y": -0.1120717377,
				"z": -1.0217205618,
				"element": "C" 
			},
			{
				"x": 0.397996342,
				"y": 0.2157028655,
				"z": -0.5431456409,
				"element": "C" 
			},
			{
				"x": -0.2160583246,
				"y": 1.8386184027,
				"z": -0.5890560076,
				"element": "Cl" 
			},
			{
				"x": -0.3466260663,
				"y": -0.799257651,
				"z": 0.0821217777,
				"element": "C" 
			},
			{
				"x": 0.1528283262,
				"y": -2.0853686938,
				"z": 0.2650420422,
				"element": "C" 
			},
			{
				"x": 1.421616014,
				"y": -2.3881396244,
				"z": -0.2138018773,
				"element": "C" 
			},
			{
				"x": 2.0629447582,
				"y": -3.9993434551,
				"z": -0.0099918034,
				"element": "Cl" 
			},
			{
				"x": 2.1807225197,
				"y": -1.4119558164,
				"z": -0.8459712788,
				"element": "C" 
			},
			{
				"x": -1.7186611055,
				"y": -0.5824321422,
				"z": 0.5917872432,
				"element": "N" 
			},
			{
				"x": -2.4930672184,
				"y": 0.0602863804,
				"z": -0.1053845398,
				"element": "O" 
			},
			{
				"x": -1.9896926479,
				"y": -1.1111115131,
				"z": 1.6682238979,
				"element": "O" 
			},
			{
				"x": 2.8087893295,
				"y": 2.3474826753,
				"z": -2.759081147,
				"element": "H" 
			},
			{
				"x": -0.4526762156,
				"y": -2.8204279039,
				"z": 0.7800461891,
				"element": "H" 
			},
			{
				"x": 3.1782423807,
				"y": -1.6281903413,
				"z": -1.2085586735,
				"element": "H" 
			}
		],
		 "valence_orbital": [ 
			{
				"type": "occ",
				"energy": -0.32485,
				"method": "rhf"
			},
			{
				"type": "occ",
				"energy": -0.3149,
				"method": "rhf"
			},
			{
				"type": "occ",
				"energy": -0.30802,
				"method": "rhf"
			},
			{
				"type": "occ",
				"energy": -0.29342,
				"method": "rhf"
			},
			{
				"type": "occ",
				"energy": -0.27595,
				"method": "rhf"
			},
			{
				"type": "unocc",
				"energy": -0.10292,
				"method": "rhf"
			},
			{
				"type": "unocc",
				"energy": -0.08528,
				"method": "rhf"
			},
			{
				"type": "unocc",
				"energy": -0.04206,
				"method": "rhf"
			},
			{
				"type": "unocc",
				"energy": -0.00649,
				"method": "rhf"
			},
			{
				"type": "unocc",
				"energy": 0.01226,
				"method": "rhf"
			}
		],
		"cosmo_sigma_profile": { 
			"-0.025": 0.0,
			"-0.024": 0.0,
			"-0.023": 0.0,
			"-0.022": 0.0,
			"-0.021": 0.0,
			"-0.02": 0.00735589001533,
			"-0.019": 0.795891649731,
			"-0.018": 1.05637584641,
			"-0.017": 0.813995723128,
			"-0.016": 0.992412478971,
			"-0.015": 0.6377192536,
			"-0.014": 0.484823545699,
			"-0.013": 0.757412578946,
			"-0.012": 0.832490829588,
			"-0.011": 0.672159248918,
			"-0.01": 1.96649016548,
			"-0.009": 3.75656320171,
			"-0.008": 4.55635242208,
			"-0.007": 3.7583897611,
			"-0.006": 6.14069032766,
			"-0.005": 9.16740072609,
			"-0.004": 14.5045460206,
			"-0.003": 21.2928872947,
			"-0.002": 20.1831176512,
			"-0.001": 14.1502919598,
			"0.0": 12.8131824214,
			"0.001": 12.1786537031,
			"0.002": 14.4977445829,
			"0.003": 18.2569290476,
			"0.004": 9.45033955875,
			"0.005": 6.09439810673,
			"0.006": 11.8023118343,
			"0.007": 12.525673613,
			"0.008": 6.90659129283,
			"0.009": 3.53598941694,
			"0.01": 3.50568927544,
			"0.011": 3.30997664989,
			"0.012": 0.055715434565,
			"0.013": 0.0,
			"0.014": 0.0,
			"0.015": 0.0,
			"0.016": 0.0,
			"0.017": 0.0,
			"0.018": 0.0,
			"0.019": 0.0,
			"0.02": 0.0,
			"0.021": 0.0,
			"0.022": 0.0,
			"0.023": 0.0,
			"0.024": 0.0,
			"0.025": 0.0
		}
	}
}
