{
	 "smiles": "O=CC(C=O)C1=NC2=CC=CC=C2C=C1", 
	 "Tm": 473.15, 
	 "num_atms": 24, 
	 "gaussian": { 
		 "optdone": 1, 
		 "sigma_profile": "yes", 
		 "theory": "DFT", 
		 "functional": "B3LYP", 
		 "basiset": "6-31G**", 
		 "properties": { 
			 "R2extent": 3895.7889, 
			 "electric_dipole_moment_norm": 5.51882560061, 
			 "electric_quadrupole_moment_norm": 12.715909253, 
			 "total_energy": -667.875943525, 
			 "HOMO_LUMO_gap": 0.174, 
			 "cosmo_polarized_energy": -12.76, 
			 "cosmo_cavitation_energy": 29.49, 
			 "cosmo_dispersion_energy": -20.77, 
			 "cosmo_repulsion_energy": 1.63, 
			 "cosmo_total_nonelectrostatic_energy": 10.35, 
			 "SMD_solvation_energy": 5.72 
		},
		"coords": [
			{
				"x": 0.1589644189,
				"y": -0.903827944,
				"z": -3.8222665605,
				"element": "O" 
			},
			{
				"x": 0.1084512921,
				"y": -1.495525889,
				"z": -2.7707167686,
				"element": "C" 
			},
			{
				"x": -0.8299345492,
				"y": -1.1033723896,
				"z": -1.6225514376,
				"element": "C" 
			},
			{
				"x": -1.6182135699,
				"y": -2.3244490613,
				"z": -1.1509773794,
				"element": "C" 
			},
			{
				"x": -1.7306498076,
				"y": -3.3319871456,
				"z": -1.8110888791,
				"element": "O" 
			},
			{
				"x": -0.0213992439,
				"y": -0.5083967967,
				"z": -0.48534014,
				"element": "C" 
			},
			{
				"x": 0.4405450561,
				"y": -1.3747131759,
				"z": 0.3995033647,
				"element": "N" 
			},
			{
				"x": 1.204312889,
				"y": -0.9106203582,
				"z": 1.4317782584,
				"element": "C" 
			},
			{
				"x": 1.6957115333,
				"y": -1.8390018928,
				"z": 2.3862994134,
				"element": "C" 
			},
			{
				"x": 2.4696669399,
				"y": -1.4065626199,
				"z": 3.4401354571,
				"element": "C" 
			},
			{
				"x": 2.7863700571,
				"y": -0.0328403655,
				"z": 3.5875840079,
				"element": "C" 
			},
			{
				"x": 2.3234124346,
				"y": 0.8904664482,
				"z": 2.6766361697,
				"element": "C" 
			},
			{
				"x": 1.5237265554,
				"y": 0.476811258,
				"z": 1.5796792869,
				"element": "C" 
			},
			{
				"x": 1.0139448568,
				"y": 1.3709581507,
				"z": 0.6028948547,
				"element": "C" 
			},
			{
				"x": 0.2445779428,
				"y": 0.8873171749,
				"z": -0.427078682,
				"element": "C" 
			},
			{
				"x": 0.7686251796,
				"y": -2.3558960776,
				"z": -2.5420862109,
				"element": "H" 
			},
			{
				"x": -1.5376896801,
				"y": -0.3642737138,
				"z": -2.0196667579,
				"element": "H" 
			},
			{
				"x": -2.1053778705,
				"y": -2.214896314,
				"z": -0.1611255952,
				"element": "H" 
			},
			{
				"x": 1.4408301726,
				"y": -2.8851585432,
				"z": 2.2526189506,
				"element": "H" 
			},
			{
				"x": 2.8434697108,
				"y": -2.1212628054,
				"z": 4.1673985664,
				"element": "H" 
			},
			{
				"x": 3.3983737335,
				"y": 0.2888885808,
				"z": 4.4248920547,
				"element": "H" 
			},
			{
				"x": 2.5639552223,
				"y": 1.9449068206,
				"z": 2.7849013714,
				"element": "H" 
			},
			{
				"x": 1.2378477304,
				"y": 2.4318754281,
				"z": 0.6805019228,
				"element": "H" 
			},
			{
				"x": -0.155321004,
				"y": 1.5462612311,
				"z": -1.1910252673,
				"element": "H" 
			}
		],
		 "valence_orbital": [ 
			{
				"type": "occ",
				"energy": -0.28339,
				"method": "rhf"
			},
			{
				"type": "occ",
				"energy": -0.27056,
				"method": "rhf"
			},
			{
				"type": "occ",
				"energy": -0.2633,
				"method": "rhf"
			},
			{
				"type": "occ",
				"energy": -0.24926,
				"method": "rhf"
			},
			{
				"type": "occ",
				"energy": -0.24435,
				"method": "rhf"
			},
			{
				"type": "unocc",
				"energy": -0.07035,
				"method": "rhf"
			},
			{
				"type": "unocc",
				"energy": -0.04057,
				"method": "rhf"
			},
			{
				"type": "unocc",
				"energy": -0.03004,
				"method": "rhf"
			},
			{
				"type": "unocc",
				"energy": -0.01657,
				"method": "rhf"
			},
			{
				"type": "unocc",
				"energy": 0.00761,
				"method": "rhf"
			}
		],
		"cosmo_sigma_profile": { 
			"-0.025": 0.0,
			"-0.024": 0.0,
			"-0.023": 0.0,
			"-0.022": 0.0,
			"-0.021": 0.0,
			"-0.02": 0.0,
			"-0.019": 0.0,
			"-0.018": 0.0,
			"-0.017": 0.0,
			"-0.016": 0.0,
			"-0.015": 0.0,
			"-0.014": 0.0,
			"-0.013": 0.0,
			"-0.012": 0.0,
			"-0.011": 0.0,
			"-0.01": 0.0,
			"-0.009": 1.96269913819,
			"-0.008": 7.66737297992,
			"-0.007": 14.6124206072,
			"-0.006": 17.798898477,
			"-0.005": 16.2679832312,
			"-0.004": 16.6480964804,
			"-0.003": 12.32907092,
			"-0.002": 12.9563247967,
			"-0.001": 13.0102157406,
			"0.0": 13.5713030292,
			"0.001": 17.1195989057,
			"0.002": 19.9153312953,
			"0.003": 19.0548613203,
			"0.004": 13.004665859,
			"0.005": 4.38604460752,
			"0.006": 4.62306906452,
			"0.007": 5.60384903858,
			"0.008": 3.75094098809,
			"0.009": 6.68824221817,
			"0.01": 8.40637314156,
			"0.011": 6.23396743651,
			"0.012": 1.14257223435,
			"0.013": 0.0,
			"0.014": 0.0,
			"0.015": 0.0,
			"0.016": 0.0,
			"0.017": 0.0,
			"0.018": 0.0,
			"0.019": 0.0,
			"0.02": 0.0,
			"0.021": 0.0,
			"0.022": 0.0,
			"0.023": 0.0,
			"0.024": 0.0,
			"0.025": 0.0
		}
	}
}
