{
	 "smiles": "CC(C)C12CC1C(C)C(C2)=NNC(N)=O", 
	 "Tm": 447.15, 
	 "num_atms": 34, 
	 "gaussian": { 
		 "optdone": 1, 
		 "sigma_profile": "yes", 
		 "theory": "DFT", 
		 "functional": "B3LYP", 
		 "basiset": "6-31G**", 
		 "properties": { 
			 "R2extent": 4804.2429, 
			 "electric_dipole_moment_norm": 4.23204437831, 
			 "electric_quadrupole_moment_norm": 18.3513681397, 
			 "total_energy": -670.085761394, 
			 "HOMO_LUMO_gap": 0.21852, 
			 "cosmo_polarized_energy": -13.78, 
			 "cosmo_cavitation_energy": 35.08, 
			 "cosmo_dispersion_energy": -24.66, 
			 "cosmo_repulsion_energy": 1.97, 
			 "cosmo_total_nonelectrostatic_energy": 12.39, 
			 "SMD_solvation_energy": 6.23 
		},
		"coords": [
			{
				"x": -3.665457498,
				"y": -1.7735852359,
				"z": 2.0213388048,
				"element": "C" 
			},
			{
				"x": -2.5114635712,
				"y": -0.7769533167,
				"z": 2.2024757324,
				"element": "C" 
			},
			{
				"x": -1.5418413217,
				"y": -1.2740733322,
				"z": 3.2902894277,
				"element": "C" 
			},
			{
				"x": -1.7569405336,
				"y": -0.4448222713,
				"z": 0.9135486893,
				"element": "C" 
			},
			{
				"x": -1.3505155898,
				"y": -1.5119861611,
				"z": -0.0796780056,
				"element": "C" 
			},
			{
				"x": -2.3601755662,
				"y": -0.460205186,
				"z": -0.4820096026,
				"element": "C" 
			},
			{
				"x": -1.8583060749,
				"y": 0.7320318276,
				"z": -1.2897833007,
				"element": "C" 
			},
			{
				"x": -1.5204681383,
				"y": 0.4404918967,
				"z": -2.7546909636,
				"element": "C" 
			},
			{
				"x": -0.6902051713,
				"y": 1.2463636279,
				"z": -0.456795642,
				"element": "C" 
			},
			{
				"x": -0.7841209418,
				"y": 0.7384548219,
				"z": 0.9717241682,
				"element": "C" 
			},
			{
				"x": 0.2103207924,
				"y": 1.9994458871,
				"z": -0.9687698308,
				"element": "N" 
			},
			{
				"x": 1.2146325863,
				"y": 2.4665799809,
				"z": -0.1769786104,
				"element": "N" 
			},
			{
				"x": 2.2646861564,
				"y": 3.2283013813,
				"z": -0.6905578778,
				"element": "C" 
			},
			{
				"x": 2.130203872,
				"y": 3.560956884,
				"z": -2.0080720389,
				"element": "N" 
			},
			{
				"x": 3.1901997681,
				"y": 3.5693431479,
				"z": 0.0337034157,
				"element": "O" 
			},
			{
				"x": -3.3071238792,
				"y": -2.7557695042,
				"z": 1.6932095193,
				"element": "H" 
			},
			{
				"x": -4.4032548466,
				"y": -1.4201701217,
				"z": 1.2948034972,
				"element": "H" 
			},
			{
				"x": -4.1857855362,
				"y": -1.9217144743,
				"z": 2.9730898163,
				"element": "H" 
			},
			{
				"x": -2.9530539093,
				"y": 0.1676091643,
				"z": 2.5567563997,
				"element": "H" 
			},
			{
				"x": -1.062576545,
				"y": -2.2105388807,
				"z": 2.9826959073,
				"element": "H" 
			},
			{
				"x": -0.7499882047,
				"y": -0.5464846772,
				"z": 3.4953332766,
				"element": "H" 
			},
			{
				"x": -2.0708935533,
				"y": -1.4606156598,
				"z": 4.2308688651,
				"element": "H" 
			},
			{
				"x": -1.7223063534,
				"y": -2.5202553043,
				"z": 0.0732779872,
				"element": "H" 
			},
			{
				"x": -0.3499160929,
				"y": -1.4743214544,
				"z": -0.5062271352,
				"element": "H" 
			},
			{
				"x": -3.3853120028,
				"y": -0.7807215642,
				"z": -0.6410573035,
				"element": "H" 
			},
			{
				"x": -2.6456428206,
				"y": 1.5032132977,
				"z": -1.2664060363,
				"element": "H" 
			},
			{
				"x": -2.4134649053,
				"y": 0.1200797061,
				"z": -3.3009338869,
				"element": "H" 
			},
			{
				"x": -1.1202126761,
				"y": 1.3325410493,
				"z": -3.2438670331,
				"element": "H" 
			},
			{
				"x": -0.7705959287,
				"y": -0.3529538081,
				"z": -2.8317639455,
				"element": "H" 
			},
			{
				"x": 0.1998957554,
				"y": 0.4531389698,
				"z": 1.3689365629,
				"element": "H" 
			},
			{
				"x": -1.1774148333,
				"y": 1.5261931229,
				"z": 1.6329570663,
				"element": "H" 
			},
			{
				"x": 1.2992043345,
				"y": 2.2233753555,
				"z": 0.8034610047,
				"element": "H" 
			},
			{
				"x": 1.420867853,
				"y": 3.1026708331,
				"z": -2.5590563577,
				"element": "H" 
			},
			{
				"x": 2.9401253761,
				"y": 3.960479998,
				"z": -2.45132257,
				"element": "H" 
			}
		],
		 "valence_orbital": [ 
			{
				"type": "occ",
				"energy": -0.27932,
				"method": "rhf"
			},
			{
				"type": "occ",
				"energy": -0.2707,
				"method": "rhf"
			},
			{
				"type": "occ",
				"energy": -0.25828,
				"method": "rhf"
			},
			{
				"type": "occ",
				"energy": -0.25129,
				"method": "rhf"
			},
			{
				"type": "occ",
				"energy": -0.22495,
				"method": "rhf"
			},
			{
				"type": "unocc",
				"energy": -0.00643,
				"method": "rhf"
			},
			{
				"type": "unocc",
				"energy": 0.07152,
				"method": "rhf"
			},
			{
				"type": "unocc",
				"energy": 0.08429,
				"method": "rhf"
			},
			{
				"type": "unocc",
				"energy": 0.08936,
				"method": "rhf"
			},
			{
				"type": "unocc",
				"energy": 0.09423,
				"method": "rhf"
			}
		],
		"cosmo_sigma_profile": { 
			"-0.025": 0.0,
			"-0.024": 0.0,
			"-0.023": 0.0,
			"-0.022": 0.0,
			"-0.021": 0.0,
			"-0.02": 0.0,
			"-0.019": 0.0,
			"-0.018": 0.0,
			"-0.017": 0.0,
			"-0.016": 0.0,
			"-0.015": 0.0,
			"-0.014": 0.666913549948,
			"-0.013": 1.65921485751,
			"-0.012": 2.02677480184,
			"-0.011": 3.1130382064,
			"-0.01": 2.41424860777,
			"-0.009": 2.47759914508,
			"-0.008": 3.37365867038,
			"-0.007": 2.95418412689,
			"-0.006": 2.82261237531,
			"-0.005": 5.93678822822,
			"-0.004": 14.4089489953,
			"-0.003": 26.6247361207,
			"-0.002": 36.212424777,
			"-0.001": 31.9891200936,
			"0.0": 28.5233138434,
			"0.001": 33.0720393829,
			"0.002": 21.6441869337,
			"0.003": 9.94266387542,
			"0.004": 8.21221268535,
			"0.005": 5.93577907816,
			"0.006": 4.73213482603,
			"0.007": 3.21540177422,
			"0.008": 2.38046368732,
			"0.009": 1.80952111305,
			"0.01": 1.34096955004,
			"0.011": 0.979957151648,
			"0.012": 1.6237337274,
			"0.013": 1.96382549709,
			"0.014": 6.4944544352,
			"0.015": 3.72052336573,
			"0.016": 0.058760730408,
			"0.017": 0.0,
			"0.018": 0.0,
			"0.019": 0.0,
			"0.02": 0.0,
			"0.021": 0.0,
			"0.022": 0.0,
			"0.023": 0.0,
			"0.024": 0.0,
			"0.025": 0.0
		}
	}
}
