{
	 "smiles": "CC(Cl)C(=O)NC1=C(OC2=C1C=CC=C2)C(C)=O", 
	 "Tm": 379.15, 
	 "num_atms": 30, 
	 "gaussian": { 
		 "optdone": 1, 
		 "sigma_profile": "yes", 
		 "theory": "DFT", 
		 "functional": "B3LYP", 
		 "basiset": "6-31G**", 
		 "properties": { 
			 "R2extent": 5497.398, 
			 "electric_dipole_moment_norm": 5.8953346894, 
			 "electric_quadrupole_moment_norm": 11.0941679638, 
			 "total_energy": -1243.24359751, 
			 "HOMO_LUMO_gap": 0.15016, 
			 "cosmo_polarized_energy": -13.79, 
			 "cosmo_cavitation_energy": 35.64, 
			 "cosmo_dispersion_energy": -25.24, 
			 "cosmo_repulsion_energy": 1.95, 
			 "cosmo_total_nonelectrostatic_energy": 12.35, 
			 "SMD_solvation_energy": 7.13 
		},
		"coords": [
			{
				"x": -2.6643587273,
				"y": 1.8539723316,
				"z": -2.9801068982,
				"element": "C" 
			},
			{
				"x": -1.475738674,
				"y": 1.877946907,
				"z": -2.0272590663,
				"element": "C" 
			},
			{
				"x": -0.3724637192,
				"y": 3.2763691229,
				"z": -2.450921659,
				"element": "Cl" 
			},
			{
				"x": -1.9654015315,
				"y": 2.0678243588,
				"z": -0.5864042529,
				"element": "C" 
			},
			{
				"x": -2.7412870463,
				"y": 2.9618114236,
				"z": -0.3029600994,
				"element": "O" 
			},
			{
				"x": -1.5917682848,
				"y": 1.1477258493,
				"z": 0.3844088173,
				"element": "N" 
			},
			{
				"x": -0.7978949252,
				"y": 0.005906935,
				"z": 0.3572427238,
				"element": "C" 
			},
			{
				"x": -1.1162469296,
				"y": -1.121896064,
				"z": 1.0928252701,
				"element": "C" 
			},
			{
				"x": -0.1474779417,
				"y": -2.0989871034,
				"z": 0.9569379045,
				"element": "O" 
			},
			{
				"x": 0.8082812924,
				"y": -1.578594722,
				"z": 0.1406307216,
				"element": "C" 
			},
			{
				"x": 0.4846515466,
				"y": -0.2636393448,
				"z": -0.2576733739,
				"element": "C" 
			},
			{
				"x": 1.415434247,
				"y": 0.4539613938,
				"z": -1.0339893956,
				"element": "C" 
			},
			{
				"x": 2.5926234434,
				"y": -0.1805871892,
				"z": -1.4088745973,
				"element": "C" 
			},
			{
				"x": 2.8684991775,
				"y": -1.5081987195,
				"z": -1.0238729595,
				"element": "C" 
			},
			{
				"x": 1.9804531291,
				"y": -2.2294453663,
				"z": -0.2328598865,
				"element": "C" 
			},
			{
				"x": -2.2457256952,
				"y": -1.352168555,
				"z": 1.9820923414,
				"element": "C" 
			},
			{
				"x": -2.3925145543,
				"y": -2.7173091215,
				"z": 2.6158016767,
				"element": "C" 
			},
			{
				"x": -3.0428794473,
				"y": -0.4360301095,
				"z": 2.2011295236,
				"element": "O" 
			},
			{
				"x": -2.3234666445,
				"y": 1.7824496095,
				"z": -4.0151272013,
				"element": "H" 
			},
			{
				"x": -3.2640179442,
				"y": 2.7559613915,
				"z": -2.8489970922,
				"element": "H" 
			},
			{
				"x": -3.2915783701,
				"y": 0.9831950587,
				"z": -2.7572639771,
				"element": "H" 
			},
			{
				"x": -0.8625082139,
				"y": 0.9861963138,
				"z": -2.1427689878,
				"element": "H" 
			},
			{
				"x": -2.2332555389,
				"y": 1.1555091369,
				"z": 1.1793655588,
				"element": "H" 
			},
			{
				"x": 1.234857213,
				"y": 1.4828775322,
				"z": -1.3222552948,
				"element": "H" 
			},
			{
				"x": 3.320035662,
				"y": 0.3607696182,
				"z": -2.0054266359,
				"element": "H" 
			},
			{
				"x": 3.7978716128,
				"y": -1.9723882217,
				"z": -1.3392073107,
				"element": "H" 
			},
			{
				"x": 2.1838638679,
				"y": -3.2432858868,
				"z": 0.0932849634,
				"element": "H" 
			},
			{
				"x": -1.5119934597,
				"y": -2.9536682351,
				"z": 3.2228159536,
				"element": "H" 
			},
			{
				"x": -2.4659712921,
				"y": -3.4943777108,
				"z": 1.8475082921,
				"element": "H" 
			},
			{
				"x": -3.2864222519,
				"y": -2.7238006333,
				"z": 3.2400249412,
				"element": "H" 
			}
		],
		 "valence_orbital": [ 
			{
				"type": "occ",
				"energy": -0.28281,
				"method": "rhf"
			},
			{
				"type": "occ",
				"energy": -0.27126,
				"method": "rhf"
			},
			{
				"type": "occ",
				"energy": -0.26477,
				"method": "rhf"
			},
			{
				"type": "occ",
				"energy": -0.25947,
				"method": "rhf"
			},
			{
				"type": "occ",
				"energy": -0.23027,
				"method": "rhf"
			},
			{
				"type": "unocc",
				"energy": -0.08011,
				"method": "rhf"
			},
			{
				"type": "unocc",
				"energy": -0.02715,
				"method": "rhf"
			},
			{
				"type": "unocc",
				"energy": -0.01454,
				"method": "rhf"
			},
			{
				"type": "unocc",
				"energy": 0.00161,
				"method": "rhf"
			},
			{
				"type": "unocc",
				"energy": 0.04158,
				"method": "rhf"
			}
		],
		"cosmo_sigma_profile": { 
			"-0.025": 0.0,
			"-0.024": 0.0,
			"-0.023": 0.0,
			"-0.022": 0.0,
			"-0.021": 0.0,
			"-0.02": 0.0,
			"-0.019": 0.0,
			"-0.018": 0.0,
			"-0.017": 0.0,
			"-0.016": 0.0,
			"-0.015": 0.0,
			"-0.014": 0.0,
			"-0.013": 0.0,
			"-0.012": 0.0,
			"-0.011": 0.0,
			"-0.01": 0.0288550437687,
			"-0.009": 0.193993165895,
			"-0.008": 3.08009305394,
			"-0.007": 9.20065970829,
			"-0.006": 16.5406449357,
			"-0.005": 21.9847754425,
			"-0.004": 21.0926959822,
			"-0.003": 22.4613094407,
			"-0.002": 28.4664038854,
			"-0.001": 29.0172293773,
			"0.0": 21.5978327713,
			"0.001": 18.7344032068,
			"0.002": 17.8801879155,
			"0.003": 17.6779617398,
			"0.004": 14.6026113661,
			"0.005": 9.85556309,
			"0.006": 7.23434816694,
			"0.007": 3.07647972642,
			"0.008": 4.00118454989,
			"0.009": 3.0722432109,
			"0.01": 3.75833982564,
			"0.011": 5.00397675056,
			"0.012": 6.71140412098,
			"0.013": 1.79099653568,
			"0.014": 0.00916357973311,
			"0.015": 0.0,
			"0.016": 0.0,
			"0.017": 0.0,
			"0.018": 0.0,
			"0.019": 0.0,
			"0.02": 0.0,
			"0.021": 0.0,
			"0.022": 0.0,
			"0.023": 0.0,
			"0.024": 0.0,
			"0.025": 0.0
		}
	}
}
