{
	 "smiles": "CSCC1=NC2=C(C=CC=C2)N1CC(O)=O", 
	 "Tm": 496.15, 
	 "num_atms": 28, 
	 "gaussian": { 
		 "optdone": 1, 
		 "sigma_profile": "yes", 
		 "theory": "DFT", 
		 "functional": "B3LYP", 
		 "basiset": "6-31G**", 
		 "properties": { 
			 "R2extent": 4292.949, 
			 "electric_dipole_moment_norm": 5.39737070989, 
			 "electric_quadrupole_moment_norm": 9.32336451556, 
			 "total_energy": -1084.56116361, 
			 "HOMO_LUMO_gap": 0.19373, 
			 "cosmo_polarized_energy": -21.86, 
			 "cosmo_cavitation_energy": 33.6, 
			 "cosmo_dispersion_energy": -23.78, 
			 "cosmo_repulsion_energy": 1.82, 
			 "cosmo_total_nonelectrostatic_energy": 11.65, 
			 "SMD_solvation_energy": 4.48 
		},
		"coords": [
			{
				"x": -2.2717396247,
				"y": -3.2700893223,
				"z": 0.0750001185,
				"element": "C" 
			},
			{
				"x": -3.415825027,
				"y": -2.006493058,
				"z": -0.5753024844,
				"element": "S" 
			},
			{
				"x": -2.2426641951,
				"y": -0.7174291186,
				"z": -1.1868323539,
				"element": "C" 
			},
			{
				"x": -1.4637665013,
				"y": -0.0004977382,
				"z": -0.1311783999,
				"element": "C" 
			},
			{
				"x": -1.9460643529,
				"y": 0.9790760684,
				"z": 0.5919519827,
				"element": "N" 
			},
			{
				"x": -0.9156410526,
				"y": 1.3622644235,
				"z": 1.4336560485,
				"element": "C" 
			},
			{
				"x": 0.2330314051,
				"y": 0.5738217942,
				"z": 1.194347441,
				"element": "C" 
			},
			{
				"x": 1.4273219722,
				"y": 0.7576878764,
				"z": 1.8935813715,
				"element": "C" 
			},
			{
				"x": 1.4400665922,
				"y": 1.761356694,
				"z": 2.8604590174,
				"element": "C" 
			},
			{
				"x": 0.3022114248,
				"y": 2.5519140362,
				"z": 3.1163142465,
				"element": "C" 
			},
			{
				"x": -0.8823574112,
				"y": 2.3645761584,
				"z": 2.4111619442,
				"element": "C" 
			},
			{
				"x": -0.1461104923,
				"y": -0.3203936422,
				"z": 0.1975890791,
				"element": "N" 
			},
			{
				"x": 0.7508571571,
				"y": -1.2177702626,
				"z": -0.4855207935,
				"element": "C" 
			},
			{
				"x": 1.3254471111,
				"y": -0.6304193354,
				"z": -1.7739752014,
				"element": "C" 
			},
			{
				"x": 2.397054691,
				"y": -1.3475482375,
				"z": -2.1773086638,
				"element": "O" 
			},
			{
				"x": 0.8742531776,
				"y": 0.310655307,
				"z": -2.3796513467,
				"element": "O" 
			},
			{
				"x": -1.6488235616,
				"y": -2.8715153395,
				"z": 0.8800080009,
				"element": "H" 
			},
			{
				"x": -1.6467790756,
				"y": -3.6985456364,
				"z": -0.7148753583,
				"element": "H" 
			},
			{
				"x": -2.8965423381,
				"y": -4.0661202451,
				"z": 0.4865166062,
				"element": "H" 
			},
			{
				"x": -1.5959770865,
				"y": -1.1412848845,
				"z": -1.9588289243,
				"element": "H" 
			},
			{
				"x": -2.8943456661,
				"y": 0.0136677474,
				"z": -1.6691582724,
				"element": "H" 
			},
			{
				"x": 2.3129685667,
				"y": 0.1588874347,
				"z": 1.7015418229,
				"element": "H" 
			},
			{
				"x": 2.3493021351,
				"y": 1.9386688277,
				"z": 3.427158026,
				"element": "H" 
			},
			{
				"x": 0.356195376,
				"y": 3.3232145824,
				"z": 3.8788437901,
				"element": "H" 
			},
			{
				"x": -1.7625748667,
				"y": 2.9703975818,
				"z": 2.5998416878,
				"element": "H" 
			},
			{
				"x": 0.2420492607,
				"y": -2.1511453221,
				"z": -0.7463813264,
				"element": "H" 
			},
			{
				"x": 1.5704385453,
				"y": -1.4945204738,
				"z": 0.1819951154,
				"element": "H" 
			},
			{
				"x": 2.6933138369,
				"y": -0.9596159161,
				"z": -3.0183531737,
				"element": "H" 
			}
		],
		 "valence_orbital": [ 
			{
				"type": "occ",
				"energy": -0.2937,
				"method": "rhf"
			},
			{
				"type": "occ",
				"energy": -0.26768,
				"method": "rhf"
			},
			{
				"type": "occ",
				"energy": -0.23049,
				"method": "rhf"
			},
			{
				"type": "occ",
				"energy": -0.22648,
				"method": "rhf"
			},
			{
				"type": "occ",
				"energy": -0.2168,
				"method": "rhf"
			},
			{
				"type": "unocc",
				"energy": -0.02307,
				"method": "rhf"
			},
			{
				"type": "unocc",
				"energy": -0.01551,
				"method": "rhf"
			},
			{
				"type": "unocc",
				"energy": 0.01825,
				"method": "rhf"
			},
			{
				"type": "unocc",
				"energy": 0.03184,
				"method": "rhf"
			},
			{
				"type": "unocc",
				"energy": 0.05166,
				"method": "rhf"
			}
		],
		"cosmo_sigma_profile": { 
			"-0.025": 0.0,
			"-0.024": 0.0,
			"-0.023": 0.0,
			"-0.022": 0.0,
			"-0.021": 0.0,
			"-0.02": 0.00908775508542,
			"-0.019": 0.626057484986,
			"-0.018": 0.914662208593,
			"-0.017": 1.10155496256,
			"-0.016": 0.731569320373,
			"-0.015": 0.627950788016,
			"-0.014": 0.330065747184,
			"-0.013": 0.672610809633,
			"-0.012": 1.10464479231,
			"-0.011": 2.26653451113,
			"-0.01": 3.18443019542,
			"-0.009": 5.96400844869,
			"-0.008": 6.43208201084,
			"-0.007": 10.5647319782,
			"-0.006": 15.1785409764,
			"-0.005": 18.6988371616,
			"-0.004": 19.0634437359,
			"-0.003": 18.8671359444,
			"-0.002": 15.4679677189,
			"-0.001": 13.239008124,
			"0.0": 12.2058181359,
			"0.001": 11.0453280624,
			"0.002": 11.48863784,
			"0.003": 13.8483208688,
			"0.004": 15.7924986754,
			"0.005": 18.260950534,
			"0.006": 12.962294253,
			"0.007": 6.59632864772,
			"0.008": 6.5841200765,
			"0.009": 6.39266385017,
			"0.01": 6.6195468524,
			"0.011": 6.2848733154,
			"0.012": 1.62639311831,
			"0.013": 0.798218114392,
			"0.014": 1.09915374602,
			"0.015": 1.14166885948,
			"0.016": 0.730434552129,
			"0.017": 0.765182970239,
			"0.018": 0.0788490206282,
			"0.019": 0.0,
			"0.02": 0.0,
			"0.021": 0.0,
			"0.022": 0.0,
			"0.023": 0.0,
			"0.024": 0.0,
			"0.025": 0.0
		}
	}
}
