{
	 "smiles": "COC1=CC2=C(NC(C)=C2)C=C1", 
	 "Tm": 360.15, 
	 "num_atms": 23, 
	 "gaussian": { 
		 "optdone": 1, 
		 "sigma_profile": "yes", 
		 "theory": "DFT", 
		 "functional": "B3LYP", 
		 "basiset": "6-31G**", 
		 "properties": { 
			 "R2extent": 3083.8049, 
			 "electric_dipole_moment_norm": 2.21666555213, 
			 "electric_quadrupole_moment_norm": 12.7364041601, 
			 "total_energy": -517.667045131, 
			 "HOMO_LUMO_gap": 0.18934, 
			 "cosmo_polarized_energy": -10.31, 
			 "cosmo_cavitation_energy": 26.29, 
			 "cosmo_dispersion_energy": -19.72, 
			 "cosmo_repulsion_energy": 1.57, 
			 "cosmo_total_nonelectrostatic_energy": 8.15, 
			 "SMD_solvation_energy": 4.97 
		},
		"coords": [
			{
				"x": 0.9871822384,
				"y": 1.640589081,
				"z": 2.6901037543,
				"element": "C" 
			},
			{
				"x": 1.4535365139,
				"y": 0.9679561146,
				"z": 1.5365067898,
				"element": "O" 
			},
			{
				"x": 0.6052631625,
				"y": 0.0763466439,
				"z": 0.92662889,
				"element": "C" 
			},
			{
				"x": -0.6837057643,
				"y": -0.2117184185,
				"z": 1.365396432,
				"element": "C" 
			},
			{
				"x": -1.4471092571,
				"y": -1.1504151174,
				"z": 0.6420817101,
				"element": "C" 
			},
			{
				"x": -0.8869947683,
				"y": -1.7717503482,
				"z": -0.5041617662,
				"element": "C" 
			},
			{
				"x": -1.8429711816,
				"y": -2.6355825735,
				"z": -1.0109882728,
				"element": "N" 
			},
			{
				"x": -2.9832701019,
				"y": -2.5808462433,
				"z": -0.2264682814,
				"element": "C" 
			},
			{
				"x": -4.1809559834,
				"y": -3.4160105203,
				"z": -0.5451215845,
				"element": "C" 
			},
			{
				"x": -2.7722635642,
				"y": -1.6815485047,
				"z": 0.7924389508,
				"element": "C" 
			},
			{
				"x": 0.4087438484,
				"y": -1.479953989,
				"z": -0.9423806862,
				"element": "C" 
			},
			{
				"x": 1.1454660613,
				"y": -0.5544631184,
				"z": -0.219244282,
				"element": "C" 
			},
			{
				"x": 1.801434956,
				"y": 2.2917700613,
				"z": 3.0137105866,
				"element": "H" 
			},
			{
				"x": 0.1006267085,
				"y": 2.2529700084,
				"z": 2.4752006276,
				"element": "H" 
			},
			{
				"x": 0.7431792045,
				"y": 0.9399624489,
				"z": 3.5005110147,
				"element": "H" 
			},
			{
				"x": -1.1046981755,
				"y": 0.2668744004,
				"z": 2.2417540744,
				"element": "H" 
			},
			{
				"x": -1.7301585362,
				"y": -3.216794647,
				"z": -1.8254937107,
				"element": "H" 
			},
			{
				"x": -4.5851132548,
				"y": -3.1880575633,
				"z": -1.5396720489,
				"element": "H" 
			},
			{
				"x": -3.9485239019,
				"y": -4.4883798197,
				"z": -0.5242869994,
				"element": "H" 
			},
			{
				"x": -4.971434281,
				"y": -3.232294658,
				"z": 0.1857433811,
				"element": "H" 
			},
			{
				"x": -3.489483206,
				"y": -1.4313519488,
				"z": 1.5620935614,
				"element": "H" 
			},
			{
				"x": 0.8332017199,
				"y": -1.9584710681,
				"z": -1.8207695112,
				"element": "H" 
			},
			{
				"x": 2.1554475627,
				"y": -0.2905302203,
				"z": -0.5140826292,
				"element": "H" 
			}
		],
		 "valence_orbital": [ 
			{
				"type": "occ",
				"energy": -0.31222,
				"method": "rhf"
			},
			{
				"type": "occ",
				"energy": -0.28216,
				"method": "rhf"
			},
			{
				"type": "occ",
				"energy": -0.26598,
				"method": "rhf"
			},
			{
				"type": "occ",
				"energy": -0.19311,
				"method": "rhf"
			},
			{
				"type": "occ",
				"energy": -0.18858,
				"method": "rhf"
			},
			{
				"type": "unocc",
				"energy": 0.00076,
				"method": "rhf"
			},
			{
				"type": "unocc",
				"energy": 0.04744,
				"method": "rhf"
			},
			{
				"type": "unocc",
				"energy": 0.07776,
				"method": "rhf"
			},
			{
				"type": "unocc",
				"energy": 0.08243,
				"method": "rhf"
			},
			{
				"type": "unocc",
				"energy": 0.10849,
				"method": "rhf"
			}
		],
		"cosmo_sigma_profile": { 
			"-0.025": 0.0,
			"-0.024": 0.0,
			"-0.023": 0.0,
			"-0.022": 0.0,
			"-0.021": 0.0,
			"-0.02": 0.0,
			"-0.019": 0.0,
			"-0.018": 0.0,
			"-0.017": 0.0,
			"-0.016": 0.0,
			"-0.015": 0.705949711741,
			"-0.014": 1.64545515062,
			"-0.013": 0.71657145931,
			"-0.012": 1.39000181648,
			"-0.011": 1.08824827732,
			"-0.01": 1.1217549254,
			"-0.009": 1.53007634547,
			"-0.008": 1.66115639772,
			"-0.007": 1.12051330062,
			"-0.006": 4.83163556562,
			"-0.005": 15.7755581197,
			"-0.004": 22.7291246067,
			"-0.003": 21.3650298271,
			"-0.002": 18.7939700254,
			"-0.001": 15.2713511289,
			"0.0": 12.2241054322,
			"0.001": 8.79214898681,
			"0.002": 6.75647437083,
			"0.003": 9.03442435563,
			"0.004": 9.56148649076,
			"0.005": 13.3180317501,
			"0.006": 16.2393801059,
			"0.007": 14.9192953097,
			"0.008": 3.05733392993,
			"0.009": 1.68943584089,
			"0.01": 1.39552374793,
			"0.011": 1.73190370236,
			"0.012": 0.228671285931,
			"0.013": 0.0,
			"0.014": 0.0,
			"0.015": 0.0,
			"0.016": 0.0,
			"0.017": 0.0,
			"0.018": 0.0,
			"0.019": 0.0,
			"0.02": 0.0,
			"0.021": 0.0,
			"0.022": 0.0,
			"0.023": 0.0,
			"0.024": 0.0,
			"0.025": 0.0
		}
	}
}
