{
	 "smiles": "COC(=O)C1=CC2=C(N1)C=CC=C2OC(F)F", 
	 "Tm": 418.15, 
	 "num_atms": 26, 
	 "gaussian": { 
		 "optdone": 1, 
		 "sigma_profile": "yes", 
		 "theory": "DFT", 
		 "functional": "B3LYP", 
		 "basiset": "6-31G**", 
		 "properties": { 
			 "R2extent": 5531.8805, 
			 "electric_dipole_moment_norm": 0.789771137735, 
			 "electric_quadrupole_moment_norm": 11.9104188407, 
			 "total_energy": -904.708812601, 
			 "HOMO_LUMO_gap": 0.16587, 
			 "cosmo_polarized_energy": -11.43, 
			 "cosmo_cavitation_energy": 32.09, 
			 "cosmo_dispersion_energy": -23.02, 
			 "cosmo_repulsion_energy": 1.76, 
			 "cosmo_total_nonelectrostatic_energy": 10.83, 
			 "SMD_solvation_energy": 7.89 
		},
		"coords": [
			{
				"x": -1.9340348627,
				"y": -4.4613850971,
				"z": 1.7684809162,
				"element": "C" 
			},
			{
				"x": -1.2499575782,
				"y": -3.3765038866,
				"z": 1.1213101811,
				"element": "O" 
			},
			{
				"x": -0.0585050056,
				"y": -3.6938713727,
				"z": 0.5777414933,
				"element": "C" 
			},
			{
				"x": 0.4359473684,
				"y": -4.8091820876,
				"z": 0.6094579683,
				"element": "O" 
			},
			{
				"x": 0.5893730498,
				"y": -2.547549241,
				"z": -0.0638327673,
				"element": "C" 
			},
			{
				"x": 0.2195046197,
				"y": -1.2275485043,
				"z": -0.2092993342,
				"element": "C" 
			},
			{
				"x": 1.2721830602,
				"y": -0.5880489174,
				"z": -0.928643289,
				"element": "C" 
			},
			{
				"x": 2.2695269259,
				"y": -1.574033108,
				"z": -1.1969628014,
				"element": "C" 
			},
			{
				"x": 1.8221597228,
				"y": -2.7527435016,
				"z": -0.6586427958,
				"element": "N" 
			},
			{
				"x": 3.450927695,
				"y": -1.2763461947,
				"z": -1.8916521227,
				"element": "C" 
			},
			{
				"x": 3.6256437798,
				"y": 0.0306608574,
				"z": -2.3220620221,
				"element": "C" 
			},
			{
				"x": 2.6566745025,
				"y": 1.0295250107,
				"z": -2.0783229482,
				"element": "C" 
			},
			{
				"x": 1.4968711625,
				"y": 0.7207360605,
				"z": -1.3933177117,
				"element": "C" 
			},
			{
				"x": 0.4958022259,
				"y": 1.6884988227,
				"z": -1.2315711879,
				"element": "O" 
			},
			{
				"x": 0.5497749012,
				"y": 2.4702420948,
				"z": -0.1110556878,
				"element": "C" 
			},
			{
				"x": 0.4623050943,
				"y": 1.723264332,
				"z": 1.0245390634,
				"element": "F" 
			},
			{
				"x": 1.721827999,
				"y": 3.1556087089,
				"z": -0.032228509,
				"element": "F" 
			},
			{
				"x": -1.3327132097,
				"y": -4.861177147,
				"z": 2.5888555756,
				"element": "H" 
			},
			{
				"x": -2.1402057515,
				"y": -5.2655426738,
				"z": 1.0576384614,
				"element": "H" 
			},
			{
				"x": -2.8635820427,
				"y": -4.0367123023,
				"z": 2.1466440401,
				"element": "H" 
			},
			{
				"x": -0.6859780037,
				"y": -0.7764911657,
				"z": 0.1640436061,
				"element": "H" 
			},
			{
				"x": 2.2796740141,
				"y": -3.6518827735,
				"z": -0.66047667,
				"element": "H" 
			},
			{
				"x": 4.1984783353,
				"y": -2.0386504164,
				"z": -2.0871576876,
				"element": "H" 
			},
			{
				"x": 4.5280092732,
				"y": 0.2981567673,
				"z": -2.8630545155,
				"element": "H" 
			},
			{
				"x": 2.8073002771,
				"y": 2.0432419172,
				"z": -2.4308794652,
				"element": "H" 
			},
			{
				"x": -0.2860075524,
				"y": 3.1728338185,
				"z": -0.1527517902,
				"element": "H" 
			}
		],
		 "valence_orbital": [ 
			{
				"type": "occ",
				"energy": -0.30624,
				"method": "rhf"
			},
			{
				"type": "occ",
				"energy": -0.2859,
				"method": "rhf"
			},
			{
				"type": "occ",
				"energy": -0.28296,
				"method": "rhf"
			},
			{
				"type": "occ",
				"energy": -0.23394,
				"method": "rhf"
			},
			{
				"type": "occ",
				"energy": -0.21636,
				"method": "rhf"
			},
			{
				"type": "unocc",
				"energy": -0.05049,
				"method": "rhf"
			},
			{
				"type": "unocc",
				"energy": 0.01142,
				"method": "rhf"
			},
			{
				"type": "unocc",
				"energy": 0.02283,
				"method": "rhf"
			},
			{
				"type": "unocc",
				"energy": 0.09298,
				"method": "rhf"
			},
			{
				"type": "unocc",
				"energy": 0.09561,
				"method": "rhf"
			}
		],
		"cosmo_sigma_profile": { 
			"-0.025": 0.0,
			"-0.024": 0.0,
			"-0.023": 0.0,
			"-0.022": 0.0,
			"-0.021": 0.0,
			"-0.02": 0.0,
			"-0.019": 0.0,
			"-0.018": 0.0,
			"-0.017": 0.0,
			"-0.016": 0.16515946941,
			"-0.015": 0.798056396701,
			"-0.014": 1.2327951322,
			"-0.013": 0.678917714276,
			"-0.012": 0.961929504399,
			"-0.011": 1.42505446701,
			"-0.01": 3.71669844842,
			"-0.009": 3.23856986823,
			"-0.008": 2.75161408903,
			"-0.007": 6.98831115009,
			"-0.006": 12.6782932835,
			"-0.005": 14.9907244218,
			"-0.004": 17.1998617249,
			"-0.003": 16.4594247644,
			"-0.002": 14.3485706281,
			"-0.001": 14.6323486488,
			"0.0": 14.1667801545,
			"0.001": 14.5070012113,
			"0.002": 21.6168724078,
			"0.003": 28.0729790437,
			"0.004": 32.5478933304,
			"0.005": 12.1366942386,
			"0.006": 5.11439219693,
			"0.007": 3.36678265359,
			"0.008": 2.93778360205,
			"0.009": 2.08583807116,
			"0.01": 1.63727405407,
			"0.011": 3.52697820973,
			"0.012": 2.82429982364,
			"0.013": 0.0312073891994,
			"0.014": 0.0,
			"0.015": 0.0,
			"0.016": 0.0,
			"0.017": 0.0,
			"0.018": 0.0,
			"0.019": 0.0,
			"0.02": 0.0,
			"0.021": 0.0,
			"0.022": 0.0,
			"0.023": 0.0,
			"0.024": 0.0,
			"0.025": 0.0
		}
	}
}
