{
	 "smiles": "NC1=C(SC(=S)N1CC=C)C#N", 
	 "Tm": 448.15, 
	 "num_atms": 19, 
	 "gaussian": { 
		 "optdone": 1, 
		 "sigma_profile": "yes", 
		 "theory": "DFT", 
		 "functional": "B3LYP", 
		 "basiset": "6-31G**", 
		 "properties": { 
			 "R2extent": 2816.9254, 
			 "electric_dipole_moment_norm": 5.90103706902, 
			 "electric_quadrupole_moment_norm": 13.2252117503, 
			 "total_energy": -1231.54533228, 
			 "HOMO_LUMO_gap": 0.15325, 
			 "cosmo_polarized_energy": -19.52, 
			 "cosmo_cavitation_energy": 27.77, 
			 "cosmo_dispersion_energy": -19.96, 
			 "cosmo_repulsion_energy": 1.5, 
			 "cosmo_total_nonelectrostatic_energy": 9.31, 
			 "SMD_solvation_energy": 5.34 
		},
		"coords": [
			{
				"x": 0.6790723373,
				"y": 1.2102666301,
				"z": 1.6567359005,
				"element": "N" 
			},
			{
				"x": 0.3016492451,
				"y": 0.9409003091,
				"z": 0.359658935,
				"element": "C" 
			},
			{
				"x": 0.6189318526,
				"y": 1.6806110149,
				"z": -0.7533986748,
				"element": "C" 
			},
			{
				"x": -0.2023441349,
				"y": 1.0293605438,
				"z": -2.1800339786,
				"element": "S" 
			},
			{
				"x": -0.9329755801,
				"y": -0.2621599071,
				"z": -1.2348340202,
				"element": "C" 
			},
			{
				"x": -1.9405003286,
				"y": -1.4180939214,
				"z": -1.8629475289,
				"element": "S" 
			},
			{
				"x": -0.5472849536,
				"y": -0.1194849715,
				"z": 0.0920707617,
				"element": "N" 
			},
			{
				"x": -1.0390334486,
				"y": -1.0307576848,
				"z": 1.1440693179,
				"element": "C" 
			},
			{
				"x": -0.0952691342,
				"y": -2.1748333914,
				"z": 1.4171052823,
				"element": "C" 
			},
			{
				"x": -0.4234545022,
				"y": -3.4547152484,
				"z": 1.2509871073,
				"element": "C" 
			},
			{
				"x": 1.4911284255,
				"y": 2.7821933559,
				"z": -0.7604223692,
				"element": "C" 
			},
			{
				"x": 2.2233259603,
				"y": 3.6912996077,
				"z": -0.7263764925,
				"element": "N" 
			},
			{
				"x": 0.9584326803,
				"y": 0.4182659296,
				"z": 2.2209878574,
				"element": "H" 
			},
			{
				"x": 1.3258756985,
				"y": 1.9858928098,
				"z": 1.7340596143,
				"element": "H" 
			},
			{
				"x": -2.00340558,
				"y": -1.4070772383,
				"z": 0.7988526189,
				"element": "H" 
			},
			{
				"x": -1.2019402892,
				"y": -0.4174369699,
				"z": 2.0369866939,
				"element": "H" 
			},
			{
				"x": 0.9037038878,
				"y": -1.9192588282,
				"z": 1.7728427511,
				"element": "H" 
			},
			{
				"x": -1.4013902234,
				"y": -3.7456982937,
				"z": 0.8781942649,
				"element": "H" 
			},
			{
				"x": 0.2766780874,
				"y": -4.2535737463,
				"z": 1.4752619589,
				"element": "H" 
			}
		],
		 "valence_orbital": [ 
			{
				"type": "occ",
				"energy": -0.30524,
				"method": "rhf"
			},
			{
				"type": "occ",
				"energy": -0.2907,
				"method": "rhf"
			},
			{
				"type": "occ",
				"energy": -0.27908,
				"method": "rhf"
			},
			{
				"type": "occ",
				"energy": -0.23012,
				"method": "rhf"
			},
			{
				"type": "occ",
				"energy": -0.21357,
				"method": "rhf"
			},
			{
				"type": "unocc",
				"energy": -0.06032,
				"method": "rhf"
			},
			{
				"type": "unocc",
				"energy": -0.02174,
				"method": "rhf"
			},
			{
				"type": "unocc",
				"energy": -0.01636,
				"method": "rhf"
			},
			{
				"type": "unocc",
				"energy": -0.01227,
				"method": "rhf"
			},
			{
				"type": "unocc",
				"energy": 0.00549,
				"method": "rhf"
			}
		],
		"cosmo_sigma_profile": { 
			"-0.025": 0.0,
			"-0.024": 0.0,
			"-0.023": 0.0,
			"-0.022": 0.0,
			"-0.021": 0.0,
			"-0.02": 0.0,
			"-0.019": 0.0,
			"-0.018": 0.0,
			"-0.017": 0.0,
			"-0.016": 0.0613823845509,
			"-0.015": 1.85093500001,
			"-0.014": 3.46850306093,
			"-0.013": 3.57260749708,
			"-0.012": 2.78176565557,
			"-0.011": 2.23569874311,
			"-0.01": 2.66400732831,
			"-0.009": 3.11526777232,
			"-0.008": 2.98870280477,
			"-0.007": 5.13438078753,
			"-0.006": 9.29630838103,
			"-0.005": 13.632230691,
			"-0.004": 15.7103137355,
			"-0.003": 11.8412653903,
			"-0.002": 11.8978212751,
			"-0.001": 16.9280287137,
			"0.0": 16.2146812135,
			"0.001": 13.2137489369,
			"0.002": 14.9554359623,
			"0.003": 9.42343291932,
			"0.004": 9.45130731889,
			"0.005": 9.88678144474,
			"0.006": 10.2639465357,
			"0.007": 10.274230504,
			"0.008": 9.84954546767,
			"0.009": 5.80595487301,
			"0.01": 4.63969654741,
			"0.011": 3.05223660457,
			"0.012": 2.46396466447,
			"0.013": 1.67080862763,
			"0.014": 0.0563233031102,
			"0.015": 0.0,
			"0.016": 0.0,
			"0.017": 0.0,
			"0.018": 0.0,
			"0.019": 0.0,
			"0.02": 0.0,
			"0.021": 0.0,
			"0.022": 0.0,
			"0.023": 0.0,
			"0.024": 0.0,
			"0.025": 0.0
		}
	}
}
