{
	 "smiles": "NS(=O)(=O)C1=CC=C(Br)S1", 
	 "Tm": 413.15, 
	 "num_atms": 14, 
	 "gaussian": { 
		 "optdone": 1, 
		 "sigma_profile": "yes", 
		 "theory": "DFT", 
		 "functional": "B3LYP", 
		 "basiset": "6-31G**", 
		 "properties": { 
			 "R2extent": 4426.9581, 
			 "electric_dipole_moment_norm": 3.26306714304, 
			 "electric_quadrupole_moment_norm": 15.1732930842, 
			 "total_energy": -3727.71481759, 
			 "HOMO_LUMO_gap": 0.19285, 
			 "cosmo_polarized_energy": -13.72, 
			 "cosmo_cavitation_energy": 24.14, 
			 "cosmo_dispersion_energy": -19.33, 
			 "cosmo_repulsion_energy": 1.49, 
			 "cosmo_total_nonelectrostatic_energy": 6.29, 
			 "SMD_solvation_energy": 2.39 
		},
		"coords": [
			{
				"x": 0.6281618055,
				"y": 3.2736158073,
				"z": -0.4258577332,
				"element": "N" 
			},
			{
				"x": -0.9029650952,
				"y": 2.5589796522,
				"z": -0.4548170108,
				"element": "S" 
			},
			{
				"x": -1.7644365959,
				"y": 3.4616373674,
				"z": 0.3083264016,
				"element": "O" 
			},
			{
				"x": -1.2268920499,
				"y": 2.1320962874,
				"z": -1.8179941284,
				"element": "O" 
			},
			{
				"x": -0.6580228123,
				"y": 1.0735587839,
				"z": 0.475624157,
				"element": "C" 
			},
			{
				"x": -0.7073475285,
				"y": -0.1926594527,
				"z": -0.0471131599,
				"element": "C" 
			},
			{
				"x": -0.5107069188,
				"y": -1.2000925742,
				"z": 0.9390953067,
				"element": "C" 
			},
			{
				"x": -0.3218094515,
				"y": -0.6620556732,
				"z": 2.1847398355,
				"element": "C" 
			},
			{
				"x": -0.0295347345,
				"y": -1.6100165751,
				"z": 3.7849384335,
				"element": "Br" 
			},
			{
				"x": -0.3843401787,
				"y": 1.0745833981,
				"z": 2.196891426,
				"element": "S" 
			},
			{
				"x": 0.5156021455,
				"y": 4.2748855769,
				"z": -0.2868541243,
				"element": "H" 
			},
			{
				"x": 1.1373284634,
				"y": 3.0704585219,
				"z": -1.2823530181,
				"element": "H" 
			},
			{
				"x": -0.8854696687,
				"y": -0.3813764682,
				"z": -1.0985869101,
				"element": "H" 
			},
			{
				"x": -0.5112673805,
				"y": -2.2643146516,
				"z": 0.7417605244,
				"element": "H" 
			}
		],
		 "valence_orbital": [ 
			{
				"type": "occ",
				"energy": -0.3173,
				"method": "rhf"
			},
			{
				"type": "occ",
				"energy": -0.30903,
				"method": "rhf"
			},
			{
				"type": "occ",
				"energy": -0.30132,
				"method": "rhf"
			},
			{
				"type": "occ",
				"energy": -0.28078,
				"method": "rhf"
			},
			{
				"type": "occ",
				"energy": -0.25117,
				"method": "rhf"
			},
			{
				"type": "unocc",
				"energy": -0.05832,
				"method": "rhf"
			},
			{
				"type": "unocc",
				"energy": -0.02193,
				"method": "rhf"
			},
			{
				"type": "unocc",
				"energy": 0.00156,
				"method": "rhf"
			},
			{
				"type": "unocc",
				"energy": 0.02815,
				"method": "rhf"
			},
			{
				"type": "unocc",
				"energy": 0.0541,
				"method": "rhf"
			}
		],
		"cosmo_sigma_profile": { 
			"-0.025": 0.0,
			"-0.024": 0.0,
			"-0.023": 0.0,
			"-0.022": 0.0,
			"-0.021": 0.0,
			"-0.02": 0.0,
			"-0.019": 0.0,
			"-0.018": 0.0,
			"-0.017": 0.0,
			"-0.016": 0.167270402755,
			"-0.015": 2.02829639679,
			"-0.014": 2.32288429074,
			"-0.013": 2.65914914998,
			"-0.012": 2.95363143156,
			"-0.011": 2.5624472972,
			"-0.01": 1.55962660861,
			"-0.009": 3.39630528828,
			"-0.008": 4.81799173772,
			"-0.007": 5.14801029495,
			"-0.006": 6.74898235344,
			"-0.005": 5.30684472833,
			"-0.004": 7.21482714762,
			"-0.003": 8.67050453275,
			"-0.002": 12.8174999516,
			"-0.001": 14.9332903779,
			"0.0": 21.3581488878,
			"0.001": 22.3868361289,
			"0.002": 17.6754454871,
			"0.003": 12.3765895872,
			"0.004": 4.23938752975,
			"0.005": 3.46045396082,
			"0.006": 3.98327026392,
			"0.007": 3.49320522332,
			"0.008": 3.71993601718,
			"0.009": 4.4805465015,
			"0.01": 10.3055569762,
			"0.011": 7.9819541861,
			"0.012": 0.466661163102,
			"0.013": 0.0,
			"0.014": 0.0,
			"0.015": 0.0,
			"0.016": 0.0,
			"0.017": 0.0,
			"0.018": 0.0,
			"0.019": 0.0,
			"0.02": 0.0,
			"0.021": 0.0,
			"0.022": 0.0,
			"0.023": 0.0,
			"0.024": 0.0,
			"0.025": 0.0
		}
	}
}
