{
	 "smiles": "CC1=NN(CC(O)=O)C(C)=C1[N+]([O-])=O", 
	 "Tm": 453.15, 
	 "num_atms": 23, 
	 "gaussian": { 
		 "optdone": 1, 
		 "sigma_profile": "yes", 
		 "theory": "DFT", 
		 "functional": "B3LYP", 
		 "basiset": "6-31G**", 
		 "properties": { 
			 "R2extent": 3303.6575, 
			 "electric_dipole_moment_norm": 2.39857980063, 
			 "electric_quadrupole_moment_norm": 28.9579718988, 
			 "total_energy": -737.222344989, 
			 "HOMO_LUMO_gap": 0.18448, 
			 "cosmo_polarized_energy": -17.42, 
			 "cosmo_cavitation_energy": 27.7, 
			 "cosmo_dispersion_energy": -20.13, 
			 "cosmo_repulsion_energy": 1.6, 
			 "cosmo_total_nonelectrostatic_energy": 9.16, 
			 "SMD_solvation_energy": 7.55 
		},
		"coords": [
			{
				"x": -0.5742650932,
				"y": -1.3604298735,
				"z": -1.8849976511,
				"element": "C" 
			},
			{
				"x": -0.4560976897,
				"y": -0.5459839683,
				"z": -0.6389849272,
				"element": "C" 
			},
			{
				"x": 0.5588044571,
				"y": 0.2921806857,
				"z": -0.4675546819,
				"element": "N" 
			},
			{
				"x": 0.3700973825,
				"y": 0.8912299672,
				"z": 0.7475562559,
				"element": "N" 
			},
			{
				"x": 1.3753408875,
				"y": 1.8412800124,
				"z": 1.2129762725,
				"element": "C" 
			},
			{
				"x": 1.7781426046,
				"y": 2.9343032023,
				"z": 0.1964993158,
				"element": "C" 
			},
			{
				"x": 1.7703719978,
				"y": 2.5952228814,
				"z": -1.0922993699,
				"element": "O" 
			},
			{
				"x": 2.1419941308,
				"y": 4.0122685103,
				"z": 0.5993723925,
				"element": "O" 
			},
			{
				"x": -0.7399496358,
				"y": 0.4554398975,
				"z": 1.3837962964,
				"element": "C" 
			},
			{
				"x": -1.1566434448,
				"y": 0.9468014821,
				"z": 2.7319195642,
				"element": "C" 
			},
			{
				"x": -1.2978633781,
				"y": -0.482803192,
				"z": 0.5052808598,
				"element": "C" 
			},
			{
				"x": -2.493735142,
				"y": -1.2443277747,
				"z": 0.7028733955,
				"element": "N" 
			},
			{
				"x": -3.1361882646,
				"y": -1.0813162003,
				"z": 1.7458007602,
				"element": "O" 
			},
			{
				"x": -2.8150110021,
				"y": -2.0297059871,
				"z": -0.1933464717,
				"element": "O" 
			},
			{
				"x": -0.58137589,
				"y": -2.4282775506,
				"z": -1.6517312381,
				"element": "H" 
			},
			{
				"x": 0.265040394,
				"y": -1.1367684097,
				"z": -2.5465168233,
				"element": "H" 
			},
			{
				"x": -1.5143859822,
				"y": -1.1482874361,
				"z": -2.4008514009,
				"element": "H" 
			},
			{
				"x": 2.2859972351,
				"y": 1.2939694233,
				"z": 1.4862190271,
				"element": "H" 
			},
			{
				"x": 1.0027404685,
				"y": 2.3475164137,
				"z": 2.1007111414,
				"element": "H" 
			},
			{
				"x": 1.4354866866,
				"y": 1.6692497098,
				"z": -1.1937575672,
				"element": "H" 
			},
			{
				"x": -2.0793851135,
				"y": 0.450629032,
				"z": 3.0229547998,
				"element": "H" 
			},
			{
				"x": -1.3257072702,
				"y": 2.0290748256,
				"z": 2.7198422017,
				"element": "H" 
			},
			{
				"x": -0.388008338,
				"y": 0.7340343488,
				"z": 3.4829378487,
				"element": "H" 
			}
		],
		 "valence_orbital": [ 
			{
				"type": "occ",
				"energy": -0.31458,
				"method": "rhf"
			},
			{
				"type": "occ",
				"energy": -0.30204,
				"method": "rhf"
			},
			{
				"type": "occ",
				"energy": -0.29739,
				"method": "rhf"
			},
			{
				"type": "occ",
				"energy": -0.29107,
				"method": "rhf"
			},
			{
				"type": "occ",
				"energy": -0.27361,
				"method": "rhf"
			},
			{
				"type": "unocc",
				"energy": -0.08913,
				"method": "rhf"
			},
			{
				"type": "unocc",
				"energy": -0.02957,
				"method": "rhf"
			},
			{
				"type": "unocc",
				"energy": -0.00167,
				"method": "rhf"
			},
			{
				"type": "unocc",
				"energy": 0.04752,
				"method": "rhf"
			},
			{
				"type": "unocc",
				"energy": 0.06872,
				"method": "rhf"
			}
		],
		"cosmo_sigma_profile": { 
			"-0.025": 0.0,
			"-0.024": 0.0,
			"-0.023": 0.0,
			"-0.022": 0.0,
			"-0.021": 0.0,
			"-0.02": 0.0,
			"-0.019": 0.0,
			"-0.018": 0.0,
			"-0.017": 0.0,
			"-0.016": 0.0,
			"-0.015": 0.0,
			"-0.014": 0.0,
			"-0.013": 0.0,
			"-0.012": 0.0,
			"-0.011": 0.0954413771427,
			"-0.01": 3.43575303768,
			"-0.009": 6.27391209205,
			"-0.008": 8.52130137555,
			"-0.007": 10.2222436559,
			"-0.006": 10.0654209766,
			"-0.005": 15.4975466071,
			"-0.004": 15.9611364518,
			"-0.003": 21.5380404409,
			"-0.002": 22.072108668,
			"-0.001": 17.9964856821,
			"0.0": 7.29398009233,
			"0.001": 5.89387131412,
			"0.002": 6.47008029784,
			"0.003": 5.32867381492,
			"0.004": 5.35094827867,
			"0.005": 5.93778494357,
			"0.006": 5.8163524127,
			"0.007": 7.29333120955,
			"0.008": 9.25872200818,
			"0.009": 8.50722719815,
			"0.01": 9.26545102624,
			"0.011": 6.68748577826,
			"0.012": 4.54730394418,
			"0.013": 1.17378900442,
			"0.014": 0.0,
			"0.015": 0.0,
			"0.016": 0.0,
			"0.017": 0.0,
			"0.018": 0.0,
			"0.019": 0.0,
			"0.02": 0.0,
			"0.021": 0.0,
			"0.022": 0.0,
			"0.023": 0.0,
			"0.024": 0.0,
			"0.025": 0.0
		}
	}
}
