{
	 "smiles": "[O-][N+](=O)C1=CC=C(C=C1)C1=CSC(CC#N)=N1", 
	 "Tm": 421.15, 
	 "num_atms": 24, 
	 "gaussian": { 
		 "optdone": 1, 
		 "sigma_profile": "yes", 
		 "theory": "DFT", 
		 "functional": "B3LYP", 
		 "basiset": "6-31G**", 
		 "properties": { 
			 "R2extent": 7144.6242, 
			 "electric_dipole_moment_norm": 2.96786440054, 
			 "electric_quadrupole_moment_norm": 52.1927434212, 
			 "total_energy": -1136.15544354, 
			 "HOMO_LUMO_gap": 0.15356, 
			 "cosmo_polarized_energy": -16.82, 
			 "cosmo_cavitation_energy": 32.8, 
			 "cosmo_dispersion_energy": -23.88, 
			 "cosmo_repulsion_energy": 1.79, 
			 "cosmo_total_nonelectrostatic_energy": 10.71, 
			 "SMD_solvation_energy": 7.83 
		},
		"coords": [
			{
				"x": -5.3344110972,
				"y": -0.9445765217,
				"z": -0.285397218,
				"element": "O" 
			},
			{
				"x": -4.6890704412,
				"y": -0.7712827896,
				"z": -1.3192361723,
				"element": "N" 
			},
			{
				"x": -5.1247246761,
				"y": -0.9517468681,
				"z": -2.4567220786,
				"element": "O" 
			},
			{
				"x": -3.2988445721,
				"y": -0.316224671,
				"z": -1.1866119909,
				"element": "C" 
			},
			{
				"x": -2.7717380333,
				"y": -0.1012557552,
				"z": 0.0851767568,
				"element": "C" 
			},
			{
				"x": -1.4556001572,
				"y": 0.3297463496,
				"z": 0.2026331061,
				"element": "C" 
			},
			{
				"x": -0.6627146854,
				"y": 0.5470213318,
				"z": -0.9388371084,
				"element": "C" 
			},
			{
				"x": -1.2275497272,
				"y": 0.3217278044,
				"z": -2.2079643053,
				"element": "C" 
			},
			{
				"x": -2.5409786202,
				"y": -0.1093053732,
				"z": -2.3389133553,
				"element": "C" 
			},
			{
				"x": 0.7301195791,
				"y": 1.0030171825,
				"z": -0.7809435082,
				"element": "C" 
			},
			{
				"x": 1.6467507477,
				"y": 1.2157945022,
				"z": -1.7836207767,
				"element": "C" 
			},
			{
				"x": 3.1595362435,
				"y": 1.734898096,
				"z": -1.1354348667,
				"element": "S" 
			},
			{
				"x": 2.4546706723,
				"y": 1.6367640358,
				"z": 0.4690493514,
				"element": "C" 
			},
			{
				"x": 3.1967695036,
				"y": 2.0303276617,
				"z": 1.7264333883,
				"element": "C" 
			},
			{
				"x": 4.6486855263,
				"y": 1.8529921884,
				"z": 1.6471633065,
				"element": "C" 
			},
			{
				"x": 5.7995513118,
				"y": 1.7241975276,
				"z": 1.5794031023,
				"element": "N" 
			},
			{
				"x": 1.2174549691,
				"y": 1.2489918351,
				"z": 0.4916306014,
				"element": "N" 
			},
			{
				"x": -3.393390957,
				"y": -0.2732088952,
				"z": 0.9548982221,
				"element": "H" 
			},
			{
				"x": -1.0222556896,
				"y": 0.5041497178,
				"z": 1.1800760332,
				"element": "H" 
			},
			{
				"x": -0.6410391511,
				"y": 0.4862137108,
				"z": -3.1057330206,
				"element": "H" 
			},
			{
				"x": -2.9883736407,
				"y": -0.2861495625,
				"z": -3.3088014688,
				"element": "H" 
			},
			{
				"x": 1.5299777202,
				"y": 1.0810017057,
				"z": -2.8487401468,
				"element": "H" 
			},
			{
				"x": 2.7981098751,
				"y": 1.4326087159,
				"z": 2.5525386564,
				"element": "H" 
			},
			{
				"x": 2.9896652997,
				"y": 3.0818980712,
				"z": 1.9656534923,
				"element": "H" 
			}
		],
		 "valence_orbital": [ 
			{
				"type": "occ",
				"energy": -0.30596,
				"method": "rhf"
			},
			{
				"type": "occ",
				"energy": -0.30524,
				"method": "rhf"
			},
			{
				"type": "occ",
				"energy": -0.29148,
				"method": "rhf"
			},
			{
				"type": "occ",
				"energy": -0.28259,
				"method": "rhf"
			},
			{
				"type": "occ",
				"energy": -0.25049,
				"method": "rhf"
			},
			{
				"type": "unocc",
				"energy": -0.09693,
				"method": "rhf"
			},
			{
				"type": "unocc",
				"energy": -0.05737,
				"method": "rhf"
			},
			{
				"type": "unocc",
				"energy": -0.02919,
				"method": "rhf"
			},
			{
				"type": "unocc",
				"energy": -0.02292,
				"method": "rhf"
			},
			{
				"type": "unocc",
				"energy": -0.01591,
				"method": "rhf"
			}
		],
		"cosmo_sigma_profile": { 
			"-0.025": 0.0,
			"-0.024": 0.0,
			"-0.023": 0.0,
			"-0.022": 0.0,
			"-0.021": 0.0,
			"-0.02": 0.0,
			"-0.019": 0.0,
			"-0.018": 0.0,
			"-0.017": 0.0,
			"-0.016": 0.0,
			"-0.015": 0.0,
			"-0.014": 0.0,
			"-0.013": 0.0,
			"-0.012": 0.0,
			"-0.011": 3.01506377507,
			"-0.01": 8.16879259751,
			"-0.009": 6.87489615874,
			"-0.008": 7.89215392679,
			"-0.007": 11.2638446428,
			"-0.006": 11.6024192005,
			"-0.005": 11.2442069689,
			"-0.004": 11.5823925957,
			"-0.003": 12.2565309372,
			"-0.002": 14.632768317,
			"-0.001": 20.6486440713,
			"0.0": 26.2894646983,
			"0.001": 31.4693239145,
			"0.002": 19.6673450395,
			"0.003": 7.36464765005,
			"0.004": 5.63669952741,
			"0.005": 7.39146698232,
			"0.006": 7.00055988603,
			"0.007": 11.220058928,
			"0.008": 12.8357553232,
			"0.009": 8.54853267411,
			"0.01": 5.8438058524,
			"0.011": 2.90599033667,
			"0.012": 2.19788305689,
			"0.013": 0.431146613122,
			"0.014": 0.0,
			"0.015": 0.0,
			"0.016": 0.0,
			"0.017": 0.0,
			"0.018": 0.0,
			"0.019": 0.0,
			"0.02": 0.0,
			"0.021": 0.0,
			"0.022": 0.0,
			"0.023": 0.0,
			"0.024": 0.0,
			"0.025": 0.0
		}
	}
}
