{
	 "smiles": "CCOC(=O)CC1=CSC(NC(=O)CC2=CC=CC=C2)=N1", 
	 "Tm": 366.15, 
	 "num_atms": 37, 
	 "gaussian": { 
		 "optdone": 1, 
		 "sigma_profile": "yes", 
		 "theory": "DFT", 
		 "functional": "B3LYP", 
		 "basiset": "6-31G**", 
		 "properties": { 
			 "R2extent": 12392.9431, 
			 "electric_dipole_moment_norm": 2.23566791139, 
			 "electric_quadrupole_moment_norm": 25.043979871, 
			 "total_energy": -1314.62397289, 
			 "HOMO_LUMO_gap": 0.18922, 
			 "cosmo_polarized_energy": -19.59, 
			 "cosmo_cavitation_energy": 44.14, 
			 "cosmo_dispersion_energy": -31.44, 
			 "cosmo_repulsion_energy": 2.43, 
			 "cosmo_total_nonelectrostatic_energy": 15.13, 
			 "SMD_solvation_energy": 7.5 
		},
		"coords": [
			{
				"x": 2.8709916884,
				"y": 4.7886951532,
				"z": -6.7066746127,
				"element": "C" 
			},
			{
				"x": 2.9386884042,
				"y": 4.7763350882,
				"z": -5.1914166448,
				"element": "C" 
			},
			{
				"x": 2.1893796485,
				"y": 3.6265548099,
				"z": -4.7331799584,
				"element": "O" 
			},
			{
				"x": 2.1366214936,
				"y": 3.4481188977,
				"z": -3.3961490011,
				"element": "C" 
			},
			{
				"x": 2.6774431142,
				"y": 4.1932213069,
				"z": -2.6051947686,
				"element": "O" 
			},
			{
				"x": 1.3206702063,
				"y": 2.2101364561,
				"z": -3.0817847143,
				"element": "C" 
			},
			{
				"x": 1.1422971885,
				"y": 1.844045689,
				"z": -1.6331370351,
				"element": "C" 
			},
			{
				"x": 1.6168752161,
				"y": 2.4884182671,
				"z": -0.5291417476,
				"element": "C" 
			},
			{
				"x": 1.1144157669,
				"y": 1.6520349751,
				"z": 0.9138299393,
				"element": "S" 
			},
			{
				"x": 0.3018943365,
				"y": 0.4665248534,
				"z": -0.1242185858,
				"element": "C" 
			},
			{
				"x": -0.3643023838,
				"y": -0.595810418,
				"z": 0.4737848643,
				"element": "N" 
			},
			{
				"x": -1.2930638807,
				"y": -1.4458423044,
				"z": -0.1190874361,
				"element": "C" 
			},
			{
				"x": -1.6641277603,
				"y": -1.3656077389,
				"z": -1.2704674823,
				"element": "O" 
			},
			{
				"x": -1.8002543876,
				"y": -2.5682728865,
				"z": 0.8112651677,
				"element": "C" 
			},
			{
				"x": -1.6888719387,
				"y": -2.3415152597,
				"z": 2.3020388006,
				"element": "C" 
			},
			{
				"x": -0.5973855127,
				"y": -2.8402787289,
				"z": 3.0294764104,
				"element": "C" 
			},
			{
				"x": -0.48339808,
				"y": -2.6055544019,
				"z": 4.4019035711,
				"element": "C" 
			},
			{
				"x": -1.4623781414,
				"y": -1.8682507079,
				"z": 5.0687338454,
				"element": "C" 
			},
			{
				"x": -2.5550754885,
				"y": -1.3671187944,
				"z": 4.3565417357,
				"element": "C" 
			},
			{
				"x": -2.6654467011,
				"y": -1.600471201,
				"z": 2.986233945,
				"element": "C" 
			},
			{
				"x": 0.4034532653,
				"y": 0.6963138011,
				"z": -1.3940730093,
				"element": "N" 
			},
			{
				"x": 1.8358458555,
				"y": 4.8648665567,
				"z": -7.0515200674,
				"element": "H" 
			},
			{
				"x": 3.3069425987,
				"y": 3.8771497436,
				"z": -7.1253733092,
				"element": "H" 
			},
			{
				"x": 3.4277240748,
				"y": 5.6469536295,
				"z": -7.0956168244,
				"element": "H" 
			},
			{
				"x": 2.5033016531,
				"y": 5.6794341723,
				"z": -4.752106198,
				"element": "H" 
			},
			{
				"x": 3.9671994935,
				"y": 4.6962734812,
				"z": -4.825459466,
				"element": "H" 
			},
			{
				"x": 0.3353507422,
				"y": 2.330949677,
				"z": -3.5494589054,
				"element": "H" 
			},
			{
				"x": 1.773406507,
				"y": 1.3662148875,
				"z": -3.6174661493,
				"element": "H" 
			},
			{
				"x": 2.22016834,
				"y": 3.3805461283,
				"z": -0.4886642907,
				"element": "H" 
			},
			{
				"x": -0.2087864522,
				"y": -0.7304198349,
				"z": 1.4641017511,
				"element": "H" 
			},
			{
				"x": -2.8385274019,
				"y": -2.7365355262,
				"z": 0.5129982688,
				"element": "H" 
			},
			{
				"x": -1.2465230153,
				"y": -3.469838688,
				"z": 0.5219382082,
				"element": "H" 
			},
			{
				"x": 0.1625934429,
				"y": -3.4264099156,
				"z": 2.5179029729,
				"element": "H" 
			},
			{
				"x": 0.3662247599,
				"y": -3.0046646252,
				"z": 4.9484139669,
				"element": "H" 
			},
			{
				"x": -1.3774717354,
				"y": -1.687562519,
				"z": 6.1362067628,
				"element": "H" 
			},
			{
				"x": -3.3230925946,
				"y": -0.7954176505,
				"z": 4.86950991,
				"element": "H" 
			},
			{
				"x": -3.518682322,
				"y": -1.2087163727,
				"z": 2.4380100864,
				"element": "H" 
			}
		],
		 "valence_orbital": [ 
			{
				"type": "occ",
				"energy": -0.2734,
				"method": "rhf"
			},
			{
				"type": "occ",
				"energy": -0.26568,
				"method": "rhf"
			},
			{
				"type": "occ",
				"energy": -0.26452,
				"method": "rhf"
			},
			{
				"type": "occ",
				"energy": -0.23849,
				"method": "rhf"
			},
			{
				"type": "occ",
				"energy": -0.21549,
				"method": "rhf"
			},
			{
				"type": "unocc",
				"energy": -0.02627,
				"method": "rhf"
			},
			{
				"type": "unocc",
				"energy": -0.01932,
				"method": "rhf"
			},
			{
				"type": "unocc",
				"energy": -0.0127,
				"method": "rhf"
			},
			{
				"type": "unocc",
				"energy": 0.00877,
				"method": "rhf"
			},
			{
				"type": "unocc",
				"energy": 0.01148,
				"method": "rhf"
			}
		],
		"cosmo_sigma_profile": { 
			"-0.025": 0.0,
			"-0.024": 0.0,
			"-0.023": 0.0,
			"-0.022": 0.0,
			"-0.021": 0.0,
			"-0.02": 0.0,
			"-0.019": 0.0,
			"-0.018": 0.0,
			"-0.017": 0.0,
			"-0.016": 0.0,
			"-0.015": 0.0,
			"-0.014": 0.0100177292053,
			"-0.013": 0.708704214433,
			"-0.012": 0.934469073196,
			"-0.011": 0.905885151929,
			"-0.01": 1.05420522044,
			"-0.009": 1.15368904032,
			"-0.008": 1.59844304138,
			"-0.007": 10.6244194725,
			"-0.006": 21.9993091847,
			"-0.005": 27.18079078,
			"-0.004": 33.8655890841,
			"-0.003": 33.5690663579,
			"-0.002": 28.3134883582,
			"-0.001": 24.6585667902,
			"0.0": 24.9269176078,
			"0.001": 23.0018086453,
			"0.002": 22.3480234672,
			"0.003": 21.6553360392,
			"0.004": 18.4274046155,
			"0.005": 12.5962140828,
			"0.006": 6.3477958647,
			"0.007": 4.73046921337,
			"0.008": 3.71115674612,
			"0.009": 4.3419502995,
			"0.01": 4.56903695882,
			"0.011": 4.34988879128,
			"0.012": 5.43573637382,
			"0.013": 4.39118473512,
			"0.014": 1.40083400282,
			"0.015": 1.61140797665,
			"0.016": 1.09275108349,
			"0.017": 1.1764510684,
			"0.018": 0.745814047586,
			"0.019": 0.125414907015,
			"0.02": 0.0,
			"0.021": 0.0,
			"0.022": 0.0,
			"0.023": 0.0,
			"0.024": 0.0,
			"0.025": 0.0
		}
	}
}
