{
	 "smiles": "CC1(CCOCC1)C(O)=O", 
	 "Tm": 336.15, 
	 "num_atms": 22, 
	 "gaussian": { 
		 "optdone": 1, 
		 "sigma_profile": "yes", 
		 "theory": "DFT", 
		 "functional": "B3LYP", 
		 "basiset": "6-31G**", 
		 "properties": { 
			 "R2extent": 1322.9291, 
			 "electric_dipole_moment_norm": 2.3450286075, 
			 "electric_quadrupole_moment_norm": 6.129454262, 
			 "total_energy": -499.653759689, 
			 "HOMO_LUMO_gap": 0.26649, 
			 "cosmo_polarized_energy": -10.35, 
			 "cosmo_cavitation_energy": 23.2, 
			 "cosmo_dispersion_energy": -17.12, 
			 "cosmo_repulsion_energy": 1.38, 
			 "cosmo_total_nonelectrostatic_energy": 7.47, 
			 "SMD_solvation_energy": 4.83 
		},
		"coords": [
			{
				"x": -1.6849360778,
				"y": -1.6376365773,
				"z": 1.0421969152,
				"element": "C" 
			},
			{
				"x": -0.6791395118,
				"y": -0.7685658555,
				"z": 0.2555919425,
				"element": "C" 
			},
			{
				"x": -1.2757960775,
				"y": 0.6283167899,
				"z": -0.0350358315,
				"element": "C" 
			},
			{
				"x": -0.4890331532,
				"y": 1.328382287,
				"z": -1.1712208334,
				"element": "C" 
			},
			{
				"x": 0.8007181158,
				"y": 0.75111584,
				"z": -1.3346018412,
				"element": "O" 
			},
			{
				"x": 0.7225490475,
				"y": -0.5733161557,
				"z": -1.852888018,
				"element": "C" 
			},
			{
				"x": -0.3126869736,
				"y": -1.431783707,
				"z": -1.0878998106,
				"element": "C" 
			},
			{
				"x": 0.5420425336,
				"y": -0.5983096573,
				"z": 1.1666234221,
				"element": "C" 
			},
			{
				"x": 1.4794075386,
				"y": -1.5623325689,
				"z": 0.9760339756,
				"element": "O" 
			},
			{
				"x": 0.6579282384,
				"y": 0.2399880924,
				"z": 2.0337542045,
				"element": "O" 
			},
			{
				"x": -1.9837662863,
				"y": -1.1402358809,
				"z": 1.9699309495,
				"element": "H" 
			},
			{
				"x": -1.2520012145,
				"y": -2.6105790394,
				"z": 1.2963327532,
				"element": "H" 
			},
			{
				"x": -2.5825154703,
				"y": -1.8112350886,
				"z": 0.4399695901,
				"element": "H" 
			},
			{
				"x": -2.3276750357,
				"y": 0.5152506878,
				"z": -0.3223881978,
				"element": "H" 
			},
			{
				"x": -1.2433518759,
				"y": 1.2186614334,
				"z": 0.8835892381,
				"element": "H" 
			},
			{
				"x": -1.0438547002,
				"y": 1.2736064785,
				"z": -2.1222595062,
				"element": "H" 
			},
			{
				"x": -0.3224911285,
				"y": 2.3846706582,
				"z": -0.9461344295,
				"element": "H" 
			},
			{
				"x": 1.7276418856,
				"y": -0.9861248834,
				"z": -1.7406121481,
				"element": "H" 
			},
			{
				"x": 0.4794765864,
				"y": -0.5437587794,
				"z": -2.9273957212,
				"element": "H" 
			},
			{
				"x": 0.0734235335,
				"y": -2.4428053494,
				"z": -0.93312316,
				"element": "H" 
			},
			{
				"x": -1.2392723337,
				"y": -1.5278015103,
				"z": -1.6671368228,
				"element": "H" 
			},
			{
				"x": 2.1764323594,
				"y": -1.3817072142,
				"z": 1.6290733297,
				"element": "H" 
			}
		],
		 "valence_orbital": [ 
			{
				"type": "occ",
				"energy": -0.32064,
				"method": "rhf"
			},
			{
				"type": "occ",
				"energy": -0.31191,
				"method": "rhf"
			},
			{
				"type": "occ",
				"energy": -0.30005,
				"method": "rhf"
			},
			{
				"type": "occ",
				"energy": -0.26624,
				"method": "rhf"
			},
			{
				"type": "occ",
				"energy": -0.25,
				"method": "rhf"
			},
			{
				"type": "unocc",
				"energy": 0.01649,
				"method": "rhf"
			},
			{
				"type": "unocc",
				"energy": 0.06832,
				"method": "rhf"
			},
			{
				"type": "unocc",
				"energy": 0.0872,
				"method": "rhf"
			},
			{
				"type": "unocc",
				"energy": 0.11436,
				"method": "rhf"
			},
			{
				"type": "unocc",
				"energy": 0.11665,
				"method": "rhf"
			}
		],
		"cosmo_sigma_profile": { 
			"-0.025": 0.0,
			"-0.024": 0.0,
			"-0.023": 0.0,
			"-0.022": 0.0,
			"-0.021": 0.0,
			"-0.02": 0.0,
			"-0.019": 0.0,
			"-0.018": 0.427859167804,
			"-0.017": 0.98343943816,
			"-0.016": 0.720188585023,
			"-0.015": 0.778234204086,
			"-0.014": 1.14307283924,
			"-0.013": 0.425734051272,
			"-0.012": 0.524339027125,
			"-0.011": 0.561977605419,
			"-0.01": 0.678645209541,
			"-0.009": 0.607251804288,
			"-0.008": 0.452149493579,
			"-0.007": 1.05365031387,
			"-0.006": 1.03820063106,
			"-0.005": 2.2262979853,
			"-0.004": 18.7426120433,
			"-0.003": 30.6938463905,
			"-0.002": 25.3221303196,
			"-0.001": 21.1396660455,
			"0.0": 16.3486622796,
			"0.001": 7.08690944172,
			"0.002": 4.01759380279,
			"0.003": 5.18036854283,
			"0.004": 4.55887826289,
			"0.005": 3.68444859623,
			"0.006": 3.84618896015,
			"0.007": 3.95656892972,
			"0.008": 4.47670129052,
			"0.009": 2.60885473677,
			"0.01": 3.5015292987,
			"0.011": 3.57964364181,
			"0.012": 6.40655124166,
			"0.013": 2.2651601668,
			"0.014": 0.337723531139,
			"0.015": 0.0,
			"0.016": 0.0,
			"0.017": 0.0,
			"0.018": 0.0,
			"0.019": 0.0,
			"0.02": 0.0,
			"0.021": 0.0,
			"0.022": 0.0,
			"0.023": 0.0,
			"0.024": 0.0,
			"0.025": 0.0
		}
	}
}
