{
	 "smiles": "CC1=C(C=C(N1C1=CC=CC=C1)C1=CC=CC=C1)C(O)=O", 
	 "Tm": 499.15, 
	 "num_atms": 36, 
	 "gaussian": { 
		 "optdone": 1, 
		 "sigma_profile": "yes", 
		 "theory": "DFT", 
		 "functional": "B3LYP", 
		 "basiset": "6-31G**", 
		 "properties": { 
			 "R2extent": 6962.2184, 
			 "electric_dipole_moment_norm": 6.50753480359, 
			 "electric_quadrupole_moment_norm": 31.0193829903, 
			 "total_energy": -900.171606639, 
			 "HOMO_LUMO_gap": 0.17571, 
			 "cosmo_polarized_energy": -16.89, 
			 "cosmo_cavitation_energy": 39.79, 
			 "cosmo_dispersion_energy": -27.26, 
			 "cosmo_repulsion_energy": 2.09, 
			 "cosmo_total_nonelectrostatic_energy": 14.62, 
			 "SMD_solvation_energy": 7.64 
		},
		"coords": [
			{
				"x": 0.6585997008,
				"y": 4.0754048731,
				"z": -0.5114743872,
				"element": "C" 
			},
			{
				"x": 1.003600063,
				"y": 2.6951172061,
				"z": -0.969220128,
				"element": "C" 
			},
			{
				"x": 1.7509021768,
				"y": 2.2818997475,
				"z": -2.0695901546,
				"element": "C" 
			},
			{
				"x": 1.7102129391,
				"y": 0.8536347974,
				"z": -2.0994692955,
				"element": "C" 
			},
			{
				"x": 0.9540645951,
				"y": 0.4169025327,
				"z": -1.0344557591,
				"element": "C" 
			},
			{
				"x": 0.5265939384,
				"y": 1.5595709639,
				"z": -0.3430520842,
				"element": "N" 
			},
			{
				"x": -0.4030194347,
				"y": 1.5801504618,
				"z": 0.748278006,
				"element": "C" 
			},
			{
				"x": 0.0014066595,
				"y": 2.0556607224,
				"z": 1.9993756902,
				"element": "C" 
			},
			{
				"x": -0.9109556857,
				"y": 2.089588658,
				"z": 3.0545599418,
				"element": "C" 
			},
			{
				"x": -2.219663478,
				"y": 1.6410909853,
				"z": 2.8657706855,
				"element": "C" 
			},
			{
				"x": -2.617042656,
				"y": 1.161230904,
				"z": 1.6159884916,
				"element": "C" 
			},
			{
				"x": -1.7136259017,
				"y": 1.1342807742,
				"z": 0.5536513677,
				"element": "C" 
			},
			{
				"x": 0.6769086678,
				"y": -0.9694771287,
				"z": -0.6285870071,
				"element": "C" 
			},
			{
				"x": 0.4195553816,
				"y": -1.9305510718,
				"z": -1.6236028198,
				"element": "C" 
			},
			{
				"x": 0.2134086232,
				"y": -3.2681537818,
				"z": -1.2917577422,
				"element": "C" 
			},
			{
				"x": 0.2460983761,
				"y": -3.6736124919,
				"z": 0.0438680037,
				"element": "C" 
			},
			{
				"x": 0.4953255563,
				"y": -2.7294503321,
				"z": 1.0419575347,
				"element": "C" 
			},
			{
				"x": 0.7138780858,
				"y": -1.3929322112,
				"z": 0.7123344818,
				"element": "C" 
			},
			{
				"x": 2.4392068454,
				"y": 3.1835470906,
				"z": -3.0111631685,
				"element": "C" 
			},
			{
				"x": 2.8866339988,
				"y": 2.605081227,
				"z": -4.1643134829,
				"element": "O" 
			},
			{
				"x": 2.63026809,
				"y": 4.3694885927,
				"z": -2.8370024548,
				"element": "O" 
			},
			{
				"x": -0.4220505545,
				"y": 4.1943319848,
				"z": -0.3764011341,
				"element": "H" 
			},
			{
				"x": 1.1341033005,
				"y": 4.3194869342,
				"z": 0.4452715188,
				"element": "H" 
			},
			{
				"x": 1.0194055643,
				"y": 4.7880000986,
				"z": -1.2519724767,
				"element": "H" 
			},
			{
				"x": 2.2527903485,
				"y": 0.1912066845,
				"z": -2.7616578618,
				"element": "H" 
			},
			{
				"x": 1.0256878729,
				"y": 2.3855035922,
				"z": 2.1402906756,
				"element": "H" 
			},
			{
				"x": -0.5954261031,
				"y": 2.4603923213,
				"z": 4.0251327933,
				"element": "H" 
			},
			{
				"x": -2.9268083882,
				"y": 1.6645700336,
				"z": 3.6894328528,
				"element": "H" 
			},
			{
				"x": -3.6338641109,
				"y": 0.8119974161,
				"z": 1.4639773649,
				"element": "H" 
			},
			{
				"x": -2.0134566615,
				"y": 0.7692080829,
				"z": -0.422996181,
				"element": "H" 
			},
			{
				"x": 0.3677189977,
				"y": -1.614659224,
				"z": -2.661293383,
				"element": "H" 
			},
			{
				"x": 0.0154043899,
				"y": -3.992180275,
				"z": -2.0770827523,
				"element": "H" 
			},
			{
				"x": 0.0786294713,
				"y": -4.7145057872,
				"z": 0.3045944663,
				"element": "H" 
			},
			{
				"x": 0.5310546802,
				"y": -3.0356147215,
				"z": 2.0836491387,
				"element": "H" 
			},
			{
				"x": 0.929254688,
				"y": -0.6772709626,
				"z": 1.4979993682,
				"element": "H" 
			},
			{
				"x": 2.5650999632,
				"y": 1.6950613027,
				"z": -4.2207401088,
				"element": "H" 
			}
		],
		 "valence_orbital": [ 
			{
				"type": "occ",
				"energy": -0.26682,
				"method": "rhf"
			},
			{
				"type": "occ",
				"energy": -0.25689,
				"method": "rhf"
			},
			{
				"type": "occ",
				"energy": -0.25478,
				"method": "rhf"
			},
			{
				"type": "occ",
				"energy": -0.24759,
				"method": "rhf"
			},
			{
				"type": "occ",
				"energy": -0.20748,
				"method": "rhf"
			},
			{
				"type": "unocc",
				"energy": -0.03177,
				"method": "rhf"
			},
			{
				"type": "unocc",
				"energy": -0.02537,
				"method": "rhf"
			},
			{
				"type": "unocc",
				"energy": -0.01982,
				"method": "rhf"
			},
			{
				"type": "unocc",
				"energy": -0.00754,
				"method": "rhf"
			},
			{
				"type": "unocc",
				"energy": -0.00419,
				"method": "rhf"
			}
		],
		"cosmo_sigma_profile": { 
			"-0.025": 0.0,
			"-0.024": 0.0,
			"-0.023": 0.0,
			"-0.022": 0.0,
			"-0.021": 0.0,
			"-0.02": 0.0,
			"-0.019": 0.0,
			"-0.018": 0.167446398286,
			"-0.017": 0.715990687641,
			"-0.016": 1.00557702244,
			"-0.015": 0.875640189398,
			"-0.014": 0.969713528837,
			"-0.013": 0.790427831141,
			"-0.012": 1.07950584204,
			"-0.011": 0.967209292584,
			"-0.01": 1.38791523657,
			"-0.009": 0.949921162456,
			"-0.008": 1.12566364722,
			"-0.007": 4.37118551226,
			"-0.006": 16.7959695847,
			"-0.005": 25.8085552619,
			"-0.004": 27.3454472883,
			"-0.003": 25.048042053,
			"-0.002": 22.9831684903,
			"-0.001": 24.5186736996,
			"0.0": 23.7056592849,
			"0.001": 19.4725543814,
			"0.002": 20.1220624673,
			"0.003": 22.093438241,
			"0.004": 24.664007823,
			"0.005": 18.1165940545,
			"0.006": 6.90688277885,
			"0.007": 3.0069648549,
			"0.008": 2.55259409824,
			"0.009": 2.59138116042,
			"0.01": 3.67788290866,
			"0.011": 4.50330608064,
			"0.012": 5.17579504829,
			"0.013": 3.42095775404,
			"0.014": 1.54578814913,
			"0.015": 0.0253875090768,
			"0.016": 0.0,
			"0.017": 0.0,
			"0.018": 0.0,
			"0.019": 0.0,
			"0.02": 0.0,
			"0.021": 0.0,
			"0.022": 0.0,
			"0.023": 0.0,
			"0.024": 0.0,
			"0.025": 0.0
		}
	}
}
