{
	 "smiles": "C=CCNC(=S)N1CCOCC1", 
	 "Tm": 335.15, 
	 "num_atms": 26, 
	 "gaussian": { 
		 "optdone": 1, 
		 "sigma_profile": "yes", 
		 "theory": "DFT", 
		 "functional": "B3LYP", 
		 "basiset": "6-31G**", 
		 "properties": { 
			 "R2extent": 2788.2753, 
			 "electric_dipole_moment_norm": 4.5276210928, 
			 "electric_quadrupole_moment_norm": 13.6523312046, 
			 "total_energy": -896.164892177, 
			 "HOMO_LUMO_gap": 0.18317, 
			 "cosmo_polarized_energy": -14.8, 
			 "cosmo_cavitation_energy": 29.33, 
			 "cosmo_dispersion_energy": -21.16, 
			 "cosmo_repulsion_energy": 1.65, 
			 "cosmo_total_nonelectrostatic_energy": 9.82, 
			 "SMD_solvation_energy": 3.55 
		},
		"coords": [
			{
				"x": -2.0581368256,
				"y": 0.2163157429,
				"z": 3.0973399382,
				"element": "C" 
			},
			{
				"x": -1.178329275,
				"y": -0.7719150791,
				"z": 2.9343356864,
				"element": "C" 
			},
			{
				"x": 0.2424943598,
				"y": -0.5842671381,
				"z": 2.4637589704,
				"element": "C" 
			},
			{
				"x": 0.6478249779,
				"y": -1.5583820191,
				"z": 1.4338334853,
				"element": "N" 
			},
			{
				"x": 1.2761544304,
				"y": -1.2273832785,
				"z": 0.2517494709,
				"element": "C" 
			},
			{
				"x": 2.5570695174,
				"y": -2.1668353074,
				"z": -0.3041769306,
				"element": "S" 
			},
			{
				"x": 0.7830476712,
				"y": -0.1261644785,
				"z": -0.4062155999,
				"element": "N" 
			},
			{
				"x": -0.6685082604,
				"y": 0.1229874801,
				"z": -0.5009289576,
				"element": "C" 
			},
			{
				"x": -0.9274570299,
				"y": 1.6135005033,
				"z": -0.7067460133,
				"element": "C" 
			},
			{
				"x": -0.2443437973,
				"y": 2.1054416877,
				"z": -1.8478576366,
				"element": "O" 
			},
			{
				"x": 1.1564728897,
				"y": 1.8860427633,
				"z": -1.7353260852,
				"element": "C" 
			},
			{
				"x": 1.4943589629,
				"y": 0.404609386,
				"z": -1.5741274142,
				"element": "C" 
			},
			{
				"x": -3.0603543425,
				"y": 0.0325616838,
				"z": 3.472265471,
				"element": "H" 
			},
			{
				"x": -1.8048116235,
				"y": 1.2502185619,
				"z": 2.8724815166,
				"element": "H" 
			},
			{
				"x": -1.4641234224,
				"y": -1.7960156977,
				"z": 3.1733578336,
				"element": "H" 
			},
			{
				"x": 0.9246517945,
				"y": -0.6985766474,
				"z": 3.3193542943,
				"element": "H" 
			},
			{
				"x": 0.3942373408,
				"y": 0.4254381905,
				"z": 2.0750358283,
				"element": "H" 
			},
			{
				"x": 1.0491947144,
				"y": -2.4097886028,
				"z": 1.8048169113,
				"element": "H" 
			},
			{
				"x": -1.1823849598,
				"y": -0.235994813,
				"z": 0.3887131439,
				"element": "H" 
			},
			{
				"x": -1.0616986871,
				"y": -0.4305651077,
				"z": -1.3675179462,
				"element": "H" 
			},
			{
				"x": -0.6203479719,
				"y": 2.1728685914,
				"z": 0.1937125355,
				"element": "H" 
			},
			{
				"x": -1.9936324818,
				"y": 1.7893944269,
				"z": -0.8771860016,
				"element": "H" 
			},
			{
				"x": 1.5604335515,
				"y": 2.4508047842,
				"z": -0.8787695931,
				"element": "H" 
			},
			{
				"x": 1.607615892,
				"y": 2.2755160498,
				"z": -2.6521025126,
				"element": "H" 
			},
			{
				"x": 1.2056077087,
				"y": -0.1504629745,
				"z": -2.4781443247,
				"element": "H" 
			},
			{
				"x": 2.5661648658,
				"y": 0.264751292,
				"z": -1.4286560701,
				"element": "H" 
			}
		],
		 "valence_orbital": [ 
			{
				"type": "occ",
				"energy": -0.28173,
				"method": "rhf"
			},
			{
				"type": "occ",
				"energy": -0.27068,
				"method": "rhf"
			},
			{
				"type": "occ",
				"energy": -0.24709,
				"method": "rhf"
			},
			{
				"type": "occ",
				"energy": -0.21881,
				"method": "rhf"
			},
			{
				"type": "occ",
				"energy": -0.2001,
				"method": "rhf"
			},
			{
				"type": "unocc",
				"energy": -0.01693,
				"method": "rhf"
			},
			{
				"type": "unocc",
				"energy": -0.00471,
				"method": "rhf"
			},
			{
				"type": "unocc",
				"energy": 0.07311,
				"method": "rhf"
			},
			{
				"type": "unocc",
				"energy": 0.07601,
				"method": "rhf"
			},
			{
				"type": "unocc",
				"energy": 0.10134,
				"method": "rhf"
			}
		],
		"cosmo_sigma_profile": { 
			"-0.025": 0.0,
			"-0.024": 0.0,
			"-0.023": 0.0,
			"-0.022": 0.0,
			"-0.021": 0.0,
			"-0.02": 0.0,
			"-0.019": 0.0,
			"-0.018": 0.0,
			"-0.017": 0.0,
			"-0.016": 0.0,
			"-0.015": 0.0,
			"-0.014": 0.0423003728748,
			"-0.013": 1.03159893409,
			"-0.012": 0.80450413742,
			"-0.011": 1.12008702226,
			"-0.01": 1.05477401545,
			"-0.009": 1.0266702991,
			"-0.008": 1.22549339788,
			"-0.007": 1.75168029833,
			"-0.006": 10.4555929232,
			"-0.005": 26.3639886436,
			"-0.004": 30.5145816707,
			"-0.003": 26.0086522377,
			"-0.002": 19.9760090109,
			"-0.001": 14.5390327212,
			"0.0": 10.4200979846,
			"0.001": 10.8084496819,
			"0.002": 8.58988583282,
			"0.003": 7.55342672497,
			"0.004": 8.75113517091,
			"0.005": 6.59684166713,
			"0.006": 6.42133101555,
			"0.007": 4.87519810894,
			"0.008": 4.73449527451,
			"0.009": 6.72420745002,
			"0.01": 7.58697295817,
			"0.011": 6.4809089396,
			"0.012": 5.03210695449,
			"0.013": 2.23978874011,
			"0.014": 0.0326773856195,
			"0.015": 0.0,
			"0.016": 0.0,
			"0.017": 0.0,
			"0.018": 0.0,
			"0.019": 0.0,
			"0.02": 0.0,
			"0.021": 0.0,
			"0.022": 0.0,
			"0.023": 0.0,
			"0.024": 0.0,
			"0.025": 0.0
		}
	}
}
