{
	 "smiles": "CCCCCCCCCCCI", 
	 "Tm": 275.15, 
	 "num_atms": 35, 
	 "gaussian": { 
		 "optdone": 1, 
		 "sigma_profile": "no", 
		 "theory": "DFT", 
		 "functional": "B3LYP", 
		 "basiset": "6-31G**", 
		 "properties": { 
			 "R2extent": 4375.3704, 
			 "electric_dipole_moment_norm": 2.49446981341, 
			 "electric_quadrupole_moment_norm": 9.11788049768, 
			 "total_energy": -444.457787659, 
			 "HOMO_LUMO_gap": 0.21409, 
			 "cosmo_polarized_energy": -108841.01, 
			 "cosmo_cavitation_energy": 38.04, 
			 "cosmo_dispersion_energy": -26.89, 
			 "cosmo_repulsion_energy": 2.21, 
			 "cosmo_total_nonelectrostatic_energy": 13.36, 
			 "SMD_solvation_energy": 4.22 
		},
		"coords": [
			{
				"x": 1.6060086115,
				"y": -2.8731215745,
				"z": -3.0088204469,
				"element": "C" 
			},
			{
				"x": 2.4793610546,
				"y": -2.5327798464,
				"z": -1.7965663451,
				"element": "C" 
			},
			{
				"x": 1.6632019689,
				"y": -2.0569192135,
				"z": -0.5865627137,
				"element": "C" 
			},
			{
				"x": 2.4888277473,
				"y": -1.7889878323,
				"z": 0.6840176243,
				"element": "C" 
			},
			{
				"x": 3.5419074931,
				"y": -0.6692036085,
				"z": 0.5793371885,
				"element": "C" 
			},
			{
				"x": 3.0007275774,
				"y": 0.7331768555,
				"z": 0.2481073698,
				"element": "C" 
			},
			{
				"x": 2.0521001341,
				"y": 1.3117505331,
				"z": 1.3090067791,
				"element": "C" 
			},
			{
				"x": 1.6703362367,
				"y": 2.7856329068,
				"z": 1.0828708249,
				"element": "C" 
			},
			{
				"x": 0.8980018251,
				"y": 3.088941625,
				"z": -0.215198073,
				"element": "C" 
			},
			{
				"x": -0.4532895623,
				"y": 2.3620820736,
				"z": -0.3864457787,
				"element": "C" 
			},
			{
				"x": -1.4665071335,
				"y": 2.7638008938,
				"z": 0.6777835017,
				"element": "C" 
			},
			{
				"x": -3.4144638612,
				"y": 1.8031347475,
				"z": 0.3853066844,
				"element": "I" 
			},
			{
				"x": 2.2104382259,
				"y": -3.2100538294,
				"z": -3.8574578696,
				"element": "H" 
			},
			{
				"x": 1.0279855089,
				"y": -2.0018506634,
				"z": -3.3380022767,
				"element": "H" 
			},
			{
				"x": 0.8917876543,
				"y": -3.6698650569,
				"z": -2.7714559812,
				"element": "H" 
			},
			{
				"x": 3.0674315185,
				"y": -3.4154032912,
				"z": -1.5087695557,
				"element": "H" 
			},
			{
				"x": 3.2082636805,
				"y": -1.7637835168,
				"z": -2.082525993,
				"element": "H" 
			},
			{
				"x": 0.9063353481,
				"y": -2.8177372301,
				"z": -0.3519527608,
				"element": "H" 
			},
			{
				"x": 1.0981866935,
				"y": -1.1565171318,
				"z": -0.8657680308,
				"element": "H" 
			},
			{
				"x": 1.8012826281,
				"y": -1.5656258986,
				"z": 1.5096189498,
				"element": "H" 
			},
			{
				"x": 3.0032956675,
				"y": -2.7165605851,
				"z": 0.9701868862,
				"element": "H" 
			},
			{
				"x": 4.2897525164,
				"y": -0.9430323509,
				"z": -0.1753592906,
				"element": "H" 
			},
			{
				"x": 4.0860844193,
				"y": -0.6189775965,
				"z": 1.5324825169,
				"element": "H" 
			},
			{
				"x": 3.8554201357,
				"y": 1.414364076,
				"z": 0.1330563982,
				"element": "H" 
			},
			{
				"x": 2.5027304345,
				"y": 0.7134467779,
				"z": -0.7296266217,
				"element": "H" 
			},
			{
				"x": 2.5336510833,
				"y": 1.2306515337,
				"z": 2.2931545882,
				"element": "H" 
			},
			{
				"x": 1.1440476296,
				"y": 0.6987064081,
				"z": 1.3731775484,
				"element": "H" 
			},
			{
				"x": 2.5870807577,
				"y": 3.3904781432,
				"z": 1.0795894352,
				"element": "H" 
			},
			{
				"x": 1.0895471934,
				"y": 3.1368709014,
				"z": 1.9457441312,
				"element": "H" 
			},
			{
				"x": 0.7282257958,
				"y": 4.1722305816,
				"z": -0.2766226729,
				"element": "H" 
			},
			{
				"x": 1.5228000497,
				"y": 2.8364529184,
				"z": -1.080464714,
				"element": "H" 
			},
			{
				"x": -0.3081340507,
				"y": 1.2767572748,
				"z": -0.3636621691,
				"element": "H" 
			},
			{
				"x": -0.8577631498,
				"y": 2.5988379933,
				"z": -1.3762894385,
				"element": "H" 
			},
			{
				"x": -1.6847341413,
				"y": 3.8319533693,
				"z": 0.6639996706,
				"element": "H" 
			},
			{
				"x": -1.1737276907,
				"y": 2.467949613,
				"z": 1.6839106349,
				"element": "H" 
			}
		],
		 "valence_orbital": [ 
			{
				"type": "occ",
				"energy": -0.31023,
				"method": "rhf"
			},
			{
				"type": "occ",
				"energy": -0.30801,
				"method": "rhf"
			},
			{
				"type": "occ",
				"energy": -0.30197,
				"method": "rhf"
			},
			{
				"type": "occ",
				"energy": -0.25495,
				"method": "rhf"
			},
			{
				"type": "occ",
				"energy": -0.25446,
				"method": "rhf"
			},
			{
				"type": "unocc",
				"energy": -0.04037,
				"method": "rhf"
			},
			{
				"type": "unocc",
				"energy": 0.0378,
				"method": "rhf"
			},
			{
				"type": "unocc",
				"energy": 0.04109,
				"method": "rhf"
			},
			{
				"type": "unocc",
				"energy": 0.05612,
				"method": "rhf"
			},
			{
				"type": "unocc",
				"energy": 0.07862,
				"method": "rhf"
			}
		],
		"cosmo_sigma_profile": { 
			"0.0": 0.0,
			"0.0": 0.0,
			"0.0": 0.0,
			"0.0": 0.0,
			"0.0": 0.0,
			"0.0": 0.0,
			"0.0": 0.0,
			"0.0": 0.0,
			"0.0": 0.0,
			"0.0": 0.0,
			"0.0": 0.0,
			"0.0": 0.0,
			"0.0": 0.0,
			"0.0": 0.0,
			"0.0": 0.0,
			"0.0": 0.0,
			"0.0": 0.0,
			"0.0": 0.0,
			"0.0": 0.0,
			"0.0": 0.0,
			"0.0": 0.0,
			"0.0": 0.0,
			"0.0": 0.0,
			"0.0": 0.0,
			"0.0": 0.0,
			"0.0": 0.0,
			"0.0": 0.0,
			"0.0": 0.0,
			"0.0": 0.0,
			"0.0": 0.0,
			"0.0": 0.0,
			"0.0": 0.0,
			"0.0": 0.0,
			"0.0": 0.0,
			"0.0": 0.0,
			"0.0": 0.0,
			"0.0": 0.0,
			"0.0": 0.0,
			"0.0": 0.0,
			"0.0": 0.0,
			"0.0": 0.0,
			"0.0": 0.0,
			"0.0": 0.0,
			"0.0": 0.0,
			"0.0": 0.0,
			"0.0": 0.0,
			"0.0": 0.0,
			"0.0": 0.0,
			"0.0": 0.0,
			"0.0": 0.0,
			"0.0": 0.0
		}
	}
}
