{
	 "smiles": "NCCCN1CCCC(C1)C(N)=O", 
	 "Tm": 345.15, 
	 "num_atms": 32, 
	 "gaussian": { 
		 "optdone": 1, 
		 "sigma_profile": "yes", 
		 "theory": "DFT", 
		 "functional": "B3LYP", 
		 "basiset": "6-31G**", 
		 "properties": { 
			 "R2extent": 3732.6334, 
			 "electric_dipole_moment_norm": 3.71976711368, 
			 "electric_quadrupole_moment_norm": 18.489616039, 
			 "total_energy": -593.89154626, 
			 "HOMO_LUMO_gap": 0.22967, 
			 "cosmo_polarized_energy": -17.36, 
			 "cosmo_cavitation_energy": 32.49, 
			 "cosmo_dispersion_energy": -23.11, 
			 "cosmo_repulsion_energy": 1.89, 
			 "cosmo_total_nonelectrostatic_energy": 11.28, 
			 "SMD_solvation_energy": 2.81 
		},
		"coords": [
			{
				"x": -2.8712683951,
				"y": 4.243068294,
				"z": 0.6078549007,
				"element": "N" 
			},
			{
				"x": -2.2434969873,
				"y": 2.9216194112,
				"z": 0.7173301708,
				"element": "C" 
			},
			{
				"x": -0.7192002958,
				"y": 3.0493100994,
				"z": 0.6828005497,
				"element": "C" 
			},
			{
				"x": 0.0080980019,
				"y": 1.6989587742,
				"z": 0.7342679957,
				"element": "C" 
			},
			{
				"x": -0.3480279583,
				"y": 0.8136045466,
				"z": -0.3734269834,
				"element": "N" 
			},
			{
				"x": 0.1165430204,
				"y": 1.328845693,
				"z": -1.6726421706,
				"element": "C" 
			},
			{
				"x": 0.2328764709,
				"y": 0.2052587685,
				"z": -2.7040591438,
				"element": "C" 
			},
			{
				"x": 1.2979269518,
				"y": -0.8320563319,
				"z": -2.289772662,
				"element": "C" 
			},
			{
				"x": 1.3529792319,
				"y": -1.0120692006,
				"z": -0.752489869,
				"element": "C" 
			},
			{
				"x": -0.0178113171,
				"y": -0.5989326017,
				"z": -0.1513051968,
				"element": "C" 
			},
			{
				"x": 1.6547710443,
				"y": -2.458889097,
				"z": -0.3662566147,
				"element": "C" 
			},
			{
				"x": 2.4754052705,
				"y": -2.6186396099,
				"z": 0.7176642872,
				"element": "N" 
			},
			{
				"x": 1.148442598,
				"y": -3.4140818592,
				"z": -0.9409813624,
				"element": "O" 
			},
			{
				"x": -2.6799296341,
				"y": 4.7861168481,
				"z": 1.4475440164,
				"element": "H" 
			},
			{
				"x": -3.8824016656,
				"y": 4.1438776957,
				"z": 0.5621483351,
				"element": "H" 
			},
			{
				"x": -2.5664234756,
				"y": 2.315154662,
				"z": -0.1348778239,
				"element": "H" 
			},
			{
				"x": -2.5337133125,
				"y": 2.357772888,
				"z": 1.6238713586,
				"element": "H" 
			},
			{
				"x": -0.378749084,
				"y": 3.6464899584,
				"z": 1.5406989928,
				"element": "H" 
			},
			{
				"x": -0.4344142381,
				"y": 3.615282596,
				"z": -0.2109298588,
				"element": "H" 
			},
			{
				"x": 1.1005402558,
				"y": 1.890526826,
				"z": 0.7794829693,
				"element": "H" 
			},
			{
				"x": -0.2633217219,
				"y": 1.1919189316,
				"z": 1.6682925691,
				"element": "H" 
			},
			{
				"x": -0.5757484596,
				"y": 2.1018166517,
				"z": -2.0267851192,
				"element": "H" 
			},
			{
				"x": 1.1060087998,
				"y": 1.8189475582,
				"z": -1.5705284284,
				"element": "H" 
			},
			{
				"x": -0.7458566106,
				"y": -0.2758869428,
				"z": -2.8142242972,
				"element": "H" 
			},
			{
				"x": 0.4796082378,
				"y": 0.63237931,
				"z": -3.6816347437,
				"element": "H" 
			},
			{
				"x": 2.2843714845,
				"y": -0.5226576148,
				"z": -2.6547300577,
				"element": "H" 
			},
			{
				"x": 1.0727375133,
				"y": -1.8026160149,
				"z": -2.7407148461,
				"element": "H" 
			},
			{
				"x": 2.1189637617,
				"y": -0.3524901676,
				"z": -0.3232937998,
				"element": "H" 
			},
			{
				"x": -0.0392370171,
				"y": -0.7940664424,
				"z": 0.9252025927,
				"element": "H" 
			},
			{
				"x": -0.7838173624,
				"y": -1.2430327534,
				"z": -0.6004294516,
				"element": "H" 
			},
			{
				"x": 2.9734449551,
				"y": -1.8495620086,
				"z": 1.1343834058,
				"element": "H" 
			},
			{
				"x": 2.6993999374,
				"y": -3.5588688677,
				"z": 1.0069402852,
				"element": "H" 
			}
		],
		 "valence_orbital": [ 
			{
				"type": "occ",
				"energy": -0.30986,
				"method": "rhf"
			},
			{
				"type": "occ",
				"energy": -0.26522,
				"method": "rhf"
			},
			{
				"type": "occ",
				"energy": -0.24676,
				"method": "rhf"
			},
			{
				"type": "occ",
				"energy": -0.22715,
				"method": "rhf"
			},
			{
				"type": "occ",
				"energy": -0.20006,
				"method": "rhf"
			},
			{
				"type": "unocc",
				"energy": 0.02961,
				"method": "rhf"
			},
			{
				"type": "unocc",
				"energy": 0.06457,
				"method": "rhf"
			},
			{
				"type": "unocc",
				"energy": 0.08584,
				"method": "rhf"
			},
			{
				"type": "unocc",
				"energy": 0.09335,
				"method": "rhf"
			},
			{
				"type": "unocc",
				"energy": 0.10666,
				"method": "rhf"
			}
		],
		"cosmo_sigma_profile": { 
			"-0.025": 0.0,
			"-0.024": 0.0,
			"-0.023": 0.0,
			"-0.022": 0.0,
			"-0.021": 0.0,
			"-0.02": 0.0,
			"-0.019": 0.0,
			"-0.018": 0.0,
			"-0.017": 0.0,
			"-0.016": 0.0,
			"-0.015": 0.0,
			"-0.014": 1.04355833226,
			"-0.013": 2.62219320771,
			"-0.012": 2.28304186786,
			"-0.011": 2.68498285397,
			"-0.01": 2.35685906462,
			"-0.009": 4.85696337113,
			"-0.008": 4.8931614709,
			"-0.007": 4.43835649397,
			"-0.006": 4.87026563137,
			"-0.005": 5.95038146733,
			"-0.004": 8.54389141901,
			"-0.003": 21.1038230885,
			"-0.002": 33.5463909252,
			"-0.001": 42.3063682189,
			"0.0": 30.428609808,
			"0.001": 17.0067792401,
			"0.002": 7.30482131091,
			"0.003": 6.585783789,
			"0.004": 4.86506550483,
			"0.005": 4.21779289756,
			"0.006": 4.49562294671,
			"0.007": 2.95926446432,
			"0.008": 3.68530058184,
			"0.009": 3.09884490559,
			"0.01": 1.98591696393,
			"0.011": 3.06273852355,
			"0.012": 3.23772783132,
			"0.013": 2.63273266132,
			"0.014": 6.19996831422,
			"0.015": 2.98809665493,
			"0.016": 0.730558547109,
			"0.017": 0.559096850562,
			"0.018": 0.6848849072,
			"0.019": 0.524536806718,
			"0.02": 0.369154397572,
			"0.021": 0.101196548007,
			"0.022": 0.0,
			"0.023": 0.0,
			"0.024": 0.0,
			"0.025": 0.0
		}
	}
}
