{
	 "smiles": "C1=CC=C(C=C1)N=NC1=CC=C(C=C1)N=NC1=CC=C(C=C1)N=NC1=CC=CC=C1", 
	 "Tm": 506.15, 
	 "num_atms": 48, 
	 "gaussian": { 
		 "optdone": 1, 
		 "sigma_profile": "yes", 
		 "theory": "DFT", 
		 "functional": "B3LYP", 
		 "basiset": "6-31G**", 
		 "properties": { 
			 "R2extent": 22228.8651, 
			 "electric_dipole_moment_norm": 3.58277178453, 
			 "electric_quadrupole_moment_norm": 20.9543309134, 
			 "total_energy": -1253.7653453, 
			 "HOMO_LUMO_gap": 0.10817, 
			 "cosmo_polarized_energy": -13.83, 
			 "cosmo_cavitation_energy": 55.71, 
			 "cosmo_dispersion_energy": -39.22, 
			 "cosmo_repulsion_energy": 2.93, 
			 "cosmo_total_nonelectrostatic_energy": 19.42, 
			 "SMD_solvation_energy": 4.81 
		},
		"coords": [
			{
				"x": 2.4436751261,
				"y": -6.1453046923,
				"z": -4.8697997665,
				"element": "C" 
			},
			{
				"x": 2.4134883307,
				"y": -4.7794231935,
				"z": -5.1570935712,
				"element": "C" 
			},
			{
				"x": 2.4526443817,
				"y": -3.851621096,
				"z": -4.1178138315,
				"element": "C" 
			},
			{
				"x": 2.5219323338,
				"y": -4.2856238077,
				"z": -2.7865093586,
				"element": "C" 
			},
			{
				"x": 2.5522581957,
				"y": -5.6620417935,
				"z": -2.4987040137,
				"element": "C" 
			},
			{
				"x": 2.5131324731,
				"y": -6.5815274741,
				"z": -3.5398629761,
				"element": "C" 
			},
			{
				"x": 2.556765237,
				"y": -3.2566740844,
				"z": -1.8142760065,
				"element": "N" 
			},
			{
				"x": 2.6184569614,
				"y": -3.6567929957,
				"z": -0.6187747757,
				"element": "N" 
			},
			{
				"x": 2.6474456182,
				"y": -2.6262726659,
				"z": 0.3492844373,
				"element": "C" 
			},
			{
				"x": 2.5945456477,
				"y": -1.2493613018,
				"z": 0.0595435571,
				"element": "C" 
			},
			{
				"x": 2.6111932314,
				"y": -0.3209231892,
				"z": 1.0876543424,
				"element": "C" 
			},
			{
				"x": 2.6973868879,
				"y": -0.7517883397,
				"z": 2.4267666351,
				"element": "C" 
			},
			{
				"x": 2.8073958979,
				"y": -2.1200121368,
				"z": 2.7136734721,
				"element": "C" 
			},
			{
				"x": 2.7505485921,
				"y": -3.0497184849,
				"z": 1.6827846198,
				"element": "C" 
			},
			{
				"x": 2.8788801868,
				"y": 0.1468779618,
				"z": 3.5220398122,
				"element": "N" 
			},
			{
				"x": 2.2082958292,
				"y": 1.1872684719,
				"z": 3.6967919223,
				"element": "N" 
			},
			{
				"x": 1.0173127093,
				"y": 1.5075855322,
				"z": 2.9771895755,
				"element": "C" 
			},
			{
				"x": 0.8512697145,
				"y": 2.8563398421,
				"z": 2.6101245131,
				"element": "C" 
			},
			{
				"x": -0.3223920418,
				"y": 3.2804369325,
				"z": 2.008979476,
				"element": "C" 
			},
			{
				"x": -1.379964951,
				"y": 2.3704178025,
				"z": 1.8198644862,
				"element": "C" 
			},
			{
				"x": -1.2320815249,
				"y": 1.0398279622,
				"z": 2.2396096123,
				"element": "C" 
			},
			{
				"x": -0.0418069441,
				"y": 0.601711326,
				"z": 2.8072973718,
				"element": "C" 
			},
			{
				"x": -2.6297158892,
				"y": 2.6922091976,
				"z": 1.2415798916,
				"element": "N" 
			},
			{
				"x": -2.742123396,
				"y": 3.8903311444,
				"z": 0.8608128533,
				"element": "N" 
			},
			{
				"x": -3.9921956557,
				"y": 4.2168504287,
				"z": 0.281195604,
				"element": "C" 
			},
			{
				"x": -5.0604586661,
				"y": 3.3164172328,
				"z": 0.1190568948,
				"element": "C" 
			},
			{
				"x": -6.2430301036,
				"y": 3.7532428295,
				"z": -0.4655116945,
				"element": "C" 
			},
			{
				"x": -6.3754929129,
				"y": 5.0814480516,
				"z": -0.8923074085,
				"element": "C" 
			},
			{
				"x": -5.3160835671,
				"y": 5.9764517878,
				"z": -0.7319514739,
				"element": "C" 
			},
			{
				"x": -4.1270850345,
				"y": 5.5451488694,
				"z": -0.1465324938,
				"element": "C" 
			},
			{
				"x": 2.4135189272,
				"y": -6.8715439081,
				"z": -5.6769845986,
				"element": "H" 
			},
			{
				"x": 2.3598154774,
				"y": -4.4389625111,
				"z": -6.1868511561,
				"element": "H" 
			},
			{
				"x": 2.4308184541,
				"y": -2.7832850377,
				"z": -4.3082221762,
				"element": "H" 
			},
			{
				"x": 2.6062525929,
				"y": -5.9781618695,
				"z": -1.4633778821,
				"element": "H" 
			},
			{
				"x": 2.5366629741,
				"y": -7.6453652466,
				"z": -3.3209930944,
				"element": "H" 
			},
			{
				"x": 2.5366616676,
				"y": -0.9374225788,
				"z": -0.9768220873,
				"element": "H" 
			},
			{
				"x": 2.5730767279,
				"y": 0.73998136,
				"z": 0.865372093,
				"element": "H" 
			},
			{
				"x": 2.9266120576,
				"y": -2.4312122012,
				"z": 3.7464690485,
				"element": "H" 
			},
			{
				"x": 2.8050960687,
				"y": -4.1152802041,
				"z": 1.8807864631,
				"element": "H" 
			},
			{
				"x": 1.6644648105,
				"y": 3.5496842274,
				"z": 2.8017000297,
				"element": "H" 
			},
			{
				"x": -0.456636993,
				"y": 4.3093821469,
				"z": 1.6964374409,
				"element": "H" 
			},
			{
				"x": -2.0700752974,
				"y": 0.3637479204,
				"z": 2.1036164395,
				"element": "H" 
			},
			{
				"x": 0.0659013485,
				"y": -0.4274347743,
				"z": 3.1308756542,
				"element": "H" 
			},
			{
				"x": -4.9373135347,
				"y": 2.2936720333,
				"z": 0.4560633471,
				"element": "H" 
			},
			{
				"x": -7.0700465994,
				"y": 3.0602695539,
				"z": -0.5921419445,
				"element": "H" 
			},
			{
				"x": -7.3038131315,
				"y": 5.4137560039,
				"z": -1.3480179697,
				"element": "H" 
			},
			{
				"x": -5.4163916094,
				"y": 7.0062122204,
				"z": -1.0616981712,
				"element": "H" 
			},
			{
				"x": -3.2855006085,
				"y": 6.2163827475,
				"z": -0.0077231421,
				"element": "H" 
			}
		],
		 "valence_orbital": [ 
			{
				"type": "occ",
				"energy": -0.24524,
				"method": "rhf"
			},
			{
				"type": "occ",
				"energy": -0.23529,
				"method": "rhf"
			},
			{
				"type": "occ",
				"energy": -0.23047,
				"method": "rhf"
			},
			{
				"type": "occ",
				"energy": -0.23032,
				"method": "rhf"
			},
			{
				"type": "occ",
				"energy": -0.21021,
				"method": "rhf"
			},
			{
				"type": "unocc",
				"energy": -0.10204,
				"method": "rhf"
			},
			{
				"type": "unocc",
				"energy": -0.08372,
				"method": "rhf"
			},
			{
				"type": "unocc",
				"energy": -0.05679,
				"method": "rhf"
			},
			{
				"type": "unocc",
				"energy": -0.01959,
				"method": "rhf"
			},
			{
				"type": "unocc",
				"energy": -0.01042,
				"method": "rhf"
			}
		],
		"cosmo_sigma_profile": { 
			"-0.025": 0.0,
			"-0.024": 0.0,
			"-0.023": 0.0,
			"-0.022": 0.0,
			"-0.021": 0.0,
			"-0.02": 0.0,
			"-0.019": 0.0,
			"-0.018": 0.0,
			"-0.017": 0.0,
			"-0.016": 0.0,
			"-0.015": 0.0,
			"-0.014": 0.0,
			"-0.013": 0.0,
			"-0.012": 0.0,
			"-0.011": 0.0,
			"-0.01": 0.0,
			"-0.009": 0.0,
			"-0.008": 0.261485420731,
			"-0.007": 11.0689309718,
			"-0.006": 30.4276680913,
			"-0.005": 37.4603935583,
			"-0.004": 34.1245857112,
			"-0.003": 26.514351671,
			"-0.002": 25.0566752393,
			"-0.001": 22.6311327818,
			"0.0": 27.0375095442,
			"0.001": 53.0313804561,
			"0.002": 65.2288612294,
			"0.003": 43.6713046381,
			"0.004": 31.8948776955,
			"0.005": 11.2895525745,
			"0.006": 8.34610217005,
			"0.007": 8.10244536857,
			"0.008": 3.38131319622,
			"0.009": 2.10352727228,
			"0.01": 2.60115585028,
			"0.011": 1.86222471936,
			"0.012": 2.30292230401,
			"0.013": 1.27129287188,
			"0.014": 0.141505518089,
			"0.015": 0.0,
			"0.016": 0.0,
			"0.017": 0.0,
			"0.018": 0.0,
			"0.019": 0.0,
			"0.02": 0.0,
			"0.021": 0.0,
			"0.022": 0.0,
			"0.023": 0.0,
			"0.024": 0.0,
			"0.025": 0.0
		}
	}
}
