{
	 "smiles": "NNC1=C2C=CC=CC2=NC=C1", 
	 "Tm": 429.15, 
	 "num_atms": 21, 
	 "gaussian": { 
		 "optdone": 1, 
		 "sigma_profile": "yes", 
		 "theory": "DFT", 
		 "functional": "B3LYP", 
		 "basiset": "6-31G**", 
		 "properties": { 
			 "R2extent": 2067.8435, 
			 "electric_dipole_moment_norm": 2.43301888402, 
			 "electric_quadrupole_moment_norm": 9.81948352359, 
			 "total_energy": -512.60938692, 
			 "HOMO_LUMO_gap": 0.17112, 
			 "cosmo_polarized_energy": -13.42, 
			 "cosmo_cavitation_energy": 24.4, 
			 "cosmo_dispersion_energy": -18.53, 
			 "cosmo_repulsion_energy": 1.45, 
			 "cosmo_total_nonelectrostatic_energy": 7.31, 
			 "SMD_solvation_energy": 2.83 
		},
		"coords": [
			{
				"x": 2.5867362661,
				"y": -2.6499824918,
				"z": 0.3277746116,
				"element": "N" 
			},
			{
				"x": 1.6364008181,
				"y": -1.8030800145,
				"z": 0.926997007,
				"element": "N" 
			},
			{
				"x": 0.9001530598,
				"y": -0.887391591,
				"z": 0.1980581443,
				"element": "C" 
			},
			{
				"x": -0.2322759557,
				"y": -0.2326108339,
				"z": 0.8016409679,
				"element": "C" 
			},
			{
				"x": -0.6485152613,
				"y": -0.4523822366,
				"z": 2.1400045888,
				"element": "C" 
			},
			{
				"x": -1.755203804,
				"y": 0.1917099599,
				"z": 2.6529024637,
				"element": "C" 
			},
			{
				"x": -2.4930989892,
				"y": 1.0887672262,
				"z": 1.8479809962,
				"element": "C" 
			},
			{
				"x": -2.102970864,
				"y": 1.3346155581,
				"z": 0.5503675285,
				"element": "C" 
			},
			{
				"x": -0.9659305678,
				"y": 0.6925246428,
				"z": -0.007185198,
				"element": "C" 
			},
			{
				"x": -0.6312887842,
				"y": 1.0030577871,
				"z": -1.2970225407,
				"element": "N" 
			},
			{
				"x": 0.4326850166,
				"y": 0.4032355596,
				"z": -1.7904993133,
				"element": "C" 
			},
			{
				"x": 1.2276135556,
				"y": -0.5396588627,
				"z": -1.1053347604,
				"element": "C" 
			},
			{
				"x": 2.2351215937,
				"y": -3.0028335201,
				"z": -0.5640852644,
				"element": "H" 
			},
			{
				"x": 3.4298417568,
				"y": -2.1133788745,
				"z": 0.1374527987,
				"element": "H" 
			},
			{
				"x": 1.1625773731,
				"y": -2.2611119257,
				"z": 1.6905461203,
				"element": "H" 
			},
			{
				"x": -0.0815311749,
				"y": -1.1121567099,
				"z": 2.7904083553,
				"element": "H" 
			},
			{
				"x": -2.0559101401,
				"y": 0.0141967187,
				"z": 3.6811894048,
				"element": "H" 
			},
			{
				"x": -3.3642475778,
				"y": 1.5899991739,
				"z": 2.2599960381,
				"element": "H" 
			},
			{
				"x": -2.6415444481,
				"y": 2.0265253794,
				"z": -0.0888876899,
				"element": "H" 
			},
			{
				"x": 0.6997258348,
				"y": 0.6613748922,
				"z": -2.8155817932,
				"element": "H" 
			},
			{
				"x": 2.0813622925,
				"y": -0.9820198372,
				"z": -1.6050224652,
				"element": "H" 
			}
		],
		 "valence_orbital": [ 
			{
				"type": "occ",
				"energy": -0.27958,
				"method": "rhf"
			},
			{
				"type": "occ",
				"energy": -0.25668,
				"method": "rhf"
			},
			{
				"type": "occ",
				"energy": -0.24722,
				"method": "rhf"
			},
			{
				"type": "occ",
				"energy": -0.24599,
				"method": "rhf"
			},
			{
				"type": "occ",
				"energy": -0.21039,
				"method": "rhf"
			},
			{
				"type": "unocc",
				"energy": -0.03927,
				"method": "rhf"
			},
			{
				"type": "unocc",
				"energy": -0.01098,
				"method": "rhf"
			},
			{
				"type": "unocc",
				"energy": 0.03227,
				"method": "rhf"
			},
			{
				"type": "unocc",
				"energy": 0.06752,
				"method": "rhf"
			},
			{
				"type": "unocc",
				"energy": 0.07841,
				"method": "rhf"
			}
		],
		"cosmo_sigma_profile": { 
			"-0.025": 0.0,
			"-0.024": 0.0,
			"-0.023": 0.0,
			"-0.022": 0.0,
			"-0.021": 0.0,
			"-0.02": 0.0,
			"-0.019": 0.0,
			"-0.018": 0.0,
			"-0.017": 0.0,
			"-0.016": 0.0,
			"-0.015": 0.0,
			"-0.014": 0.67991951502,
			"-0.013": 1.10335606983,
			"-0.012": 1.19052987517,
			"-0.011": 3.74422829723,
			"-0.01": 4.69053751693,
			"-0.009": 5.68634560118,
			"-0.008": 4.1494915017,
			"-0.007": 4.43248324003,
			"-0.006": 8.7449562275,
			"-0.005": 13.4487334594,
			"-0.004": 13.3415792432,
			"-0.003": 11.6362533528,
			"-0.002": 9.37948037021,
			"-0.001": 7.34511286318,
			"0.0": 8.39765647762,
			"0.001": 10.5695820959,
			"0.002": 12.7911328678,
			"0.003": 19.1428313163,
			"0.004": 19.0075557063,
			"0.005": 11.8269094199,
			"0.006": 4.15602136981,
			"0.007": 2.25519667294,
			"0.008": 2.66142855853,
			"0.009": 2.56568043575,
			"0.01": 1.55787373103,
			"0.011": 2.11520607063,
			"0.012": 1.35586832295,
			"0.013": 1.26836487075,
			"0.014": 1.59084560399,
			"0.015": 1.40134028632,
			"0.016": 1.4659690907,
			"0.017": 0.850432665982,
			"0.018": 0.272270883352,
			"0.019": 0.0,
			"0.02": 0.0,
			"0.021": 0.0,
			"0.022": 0.0,
			"0.023": 0.0,
			"0.024": 0.0,
			"0.025": 0.0
		}
	}
}
