{
	 "smiles": "CC1CC2=CC(=O)CCC2(C)C2CCC3(C)C(CCC3(C)O)C12", 
	 "Tm": 437.15, 
	 "num_atms": 55, 
	 "gaussian": { 
		 "optdone": 1, 
		 "sigma_profile": "yes", 
		 "theory": "DFT", 
		 "functional": "B3LYP", 
		 "basiset": "6-31G**", 
		 "properties": { 
			 "R2extent": 8004.3125, 
			 "electric_dipole_moment_norm": 5.2658058633, 
			 "electric_quadrupole_moment_norm": 21.7743534735, 
			 "total_energy": -969.963494693, 
			 "HOMO_LUMO_gap": 0.18555, 
			 "cosmo_polarized_energy": -14.6, 
			 "cosmo_cavitation_energy": 45.47, 
			 "cosmo_dispersion_energy": -32.2, 
			 "cosmo_repulsion_energy": 2.33, 
			 "cosmo_total_nonelectrostatic_energy": 15.6, 
			 "SMD_solvation_energy": 7.2 
		},
		"coords": [
			{
				"x": 1.9272105432,
				"y": -1.2156745606,
				"z": 1.406936011,
				"element": "C" 
			},
			{
				"x": 0.5075244654,
				"y": -1.7467457813,
				"z": 1.1510435469,
				"element": "C" 
			},
			{
				"x": 0.5134348987,
				"y": -2.6865430247,
				"z": -0.0793244472,
				"element": "C" 
			},
			{
				"x": 0.543127114,
				"y": -1.9725665222,
				"z": -1.408350753,
				"element": "C" 
			},
			{
				"x": 1.4239200747,
				"y": -2.333029527,
				"z": -2.3663631363,
				"element": "C" 
			},
			{
				"x": 1.3895974409,
				"y": -1.8313299041,
				"z": -3.75256121,
				"element": "C" 
			},
			{
				"x": 2.2222564705,
				"y": -2.1705799895,
				"z": -4.5828831742,
				"element": "O" 
			},
			{
				"x": 0.2146315255,
				"y": -0.9287116574,
				"z": -4.1010218709,
				"element": "C" 
			},
			{
				"x": -0.2015177626,
				"y": -0.0732137043,
				"z": -2.8989185967,
				"element": "C" 
			},
			{
				"x": -0.5243602076,
				"y": -0.9028243513,
				"z": -1.6288529104,
				"element": "C" 
			},
			{
				"x": -1.892081363,
				"y": -1.6116975718,
				"z": -1.8431832683,
				"element": "C" 
			},
			{
				"x": -0.636386048,
				"y": 0.0337759648,
				"z": -0.362225537,
				"element": "C" 
			},
			{
				"x": 0.3949892224,
				"y": 1.1921659538,
				"z": -0.321376067,
				"element": "C" 
			},
			{
				"x": 0.5970647625,
				"y": 1.8274860029,
				"z": 1.0746040484,
				"element": "C" 
			},
			{
				"x": -0.6485961074,
				"y": 1.7352620453,
				"z": 1.9801894317,
				"element": "C" 
			},
			{
				"x": -1.7710150419,
				"y": 2.6025329466,
				"z": 1.3738003647,
				"element": "C" 
			},
			{
				"x": -1.0646792927,
				"y": 0.2233876096,
				"z": 2.1570126047,
				"element": "C" 
			},
			{
				"x": -0.5757884216,
				"y": -0.1976581098,
				"z": 3.5824554711,
				"element": "C" 
			},
			{
				"x": 0.3018170212,
				"y": 0.9514468167,
				"z": 4.0977663111,
				"element": "C" 
			},
			{
				"x": -0.292182136,
				"y": 2.2083491088,
				"z": 3.4510001488,
				"element": "C" 
			},
			{
				"x": -1.5103421572,
				"y": 2.6916272582,
				"z": 4.2564869319,
				"element": "C" 
			},
			{
				"x": 0.7086983304,
				"y": 3.2287552561,
				"z": 3.4823528052,
				"element": "O" 
			},
			{
				"x": -0.6789974397,
				"y": -0.7488023943,
				"z": 0.976334267,
				"element": "C" 
			},
			{
				"x": 1.9857455882,
				"y": -0.5956582559,
				"z": 2.3029495915,
				"element": "H" 
			},
			{
				"x": 2.3196266131,
				"y": -0.639897665,
				"z": 0.5649580692,
				"element": "H" 
			},
			{
				"x": 2.6052321253,
				"y": -2.0634949894,
				"z": 1.557904605,
				"element": "H" 
			},
			{
				"x": 0.2560235897,
				"y": -2.3827263698,
				"z": 2.0091409549,
				"element": "H" 
			},
			{
				"x": 1.3530964079,
				"y": -3.3869097592,
				"z": -0.0161511581,
				"element": "H" 
			},
			{
				"x": -0.399826752,
				"y": -3.2987686783,
				"z": -0.0495144979,
				"element": "H" 
			},
			{
				"x": 2.1816387312,
				"y": -3.0878097114,
				"z": -2.166534736,
				"element": "H" 
			},
			{
				"x": -0.6081324085,
				"y": -1.5754143151,
				"z": -4.4355292369,
				"element": "H" 
			},
			{
				"x": 0.4949158216,
				"y": -0.3109782642,
				"z": -4.9590170874,
				"element": "H" 
			},
			{
				"x": -1.0663096615,
				"y": 0.5519658317,
				"z": -3.1534821947,
				"element": "H" 
			},
			{
				"x": 0.6248517392,
				"y": 0.6099831684,
				"z": -2.6891150551,
				"element": "H" 
			},
			{
				"x": -2.1982925262,
				"y": -2.2024161156,
				"z": -0.9767864958,
				"element": "H" 
			},
			{
				"x": -1.8586506134,
				"y": -2.2891923991,
				"z": -2.7010676719,
				"element": "H" 
			},
			{
				"x": -2.6733363642,
				"y": -0.8668822558,
				"z": -2.0298727644,
				"element": "H" 
			},
			{
				"x": -1.6250963174,
				"y": 0.5008016796,
				"z": -0.4583575925,
				"element": "H" 
			},
			{
				"x": 1.3691391163,
				"y": 0.8505594398,
				"z": -0.6881934293,
				"element": "H" 
			},
			{
				"x": 0.0718663237,
				"y": 1.9667110528,
				"z": -1.0247839627,
				"element": "H" 
			},
			{
				"x": 0.8910798349,
				"y": 2.8750905699,
				"z": 0.9568164328,
				"element": "H" 
			},
			{
				"x": 1.4400927936,
				"y": 1.3514219353,
				"z": 1.5769266688,
				"element": "H" 
			},
			{
				"x": -2.7248218178,
				"y": 2.4691545484,
				"z": 1.8924894494,
				"element": "H" 
			},
			{
				"x": -1.5087711196,
				"y": 3.6674321599,
				"z": 1.4262600439,
				"element": "H" 
			},
			{
				"x": -1.9424896091,
				"y": 2.3781836508,
				"z": 0.3185898744,
				"element": "H" 
			},
			{
				"x": -2.1607020639,
				"y": 0.2061044778,
				"z": 2.1713347848,
				"element": "H" 
			},
			{
				"x": -1.4397418416,
				"y": -0.3311390847,
				"z": 4.2424683854,
				"element": "H" 
			},
			{
				"x": -0.0423398937,
				"y": -1.1497885175,
				"z": 3.5926023131,
				"element": "H" 
			},
			{
				"x": 1.3392197381,
				"y": 0.847869035,
				"z": 3.7647586815,
				"element": "H" 
			},
			{
				"x": 0.3233654803,
				"y": 1.0220285758,
				"z": 5.1897609362,
				"element": "H" 
			},
			{
				"x": -2.3086263113,
				"y": 1.9438308768,
				"z": 4.2971498667,
				"element": "H" 
			},
			{
				"x": -1.9398039029,
				"y": 3.6061816346,
				"z": 3.8341005948,
				"element": "H" 
			},
			{
				"x": -1.1939906395,
				"y": 2.9119854319,
				"z": 5.280205122,
				"element": "H" 
			},
			{
				"x": 0.3049566198,
				"y": 4.0532629985,
				"z": 3.1795822272,
				"element": "H" 
			},
			{
				"x": -1.5397445723,
				"y": -1.4259025503,
				"z": 0.9037863095,
				"element": "H" 
			}
		],
		 "valence_orbital": [ 
			{
				"type": "occ",
				"energy": -0.28789,
				"method": "rhf"
			},
			{
				"type": "occ",
				"energy": -0.27838,
				"method": "rhf"
			},
			{
				"type": "occ",
				"energy": -0.25853,
				"method": "rhf"
			},
			{
				"type": "occ",
				"energy": -0.25109,
				"method": "rhf"
			},
			{
				"type": "occ",
				"energy": -0.22792,
				"method": "rhf"
			},
			{
				"type": "unocc",
				"energy": -0.04237,
				"method": "rhf"
			},
			{
				"type": "unocc",
				"energy": 0.04614,
				"method": "rhf"
			},
			{
				"type": "unocc",
				"energy": 0.06125,
				"method": "rhf"
			},
			{
				"type": "unocc",
				"energy": 0.07634,
				"method": "rhf"
			},
			{
				"type": "unocc",
				"energy": 0.08246,
				"method": "rhf"
			}
		],
		"cosmo_sigma_profile": { 
			"-0.025": 0.0,
			"-0.024": 0.0,
			"-0.023": 0.0,
			"-0.022": 0.0,
			"-0.021": 0.0,
			"-0.02": 0.0,
			"-0.019": 0.0,
			"-0.018": 0.0,
			"-0.017": 0.0,
			"-0.016": 0.0,
			"-0.015": 0.0,
			"-0.014": 0.467528487005,
			"-0.013": 0.538131101079,
			"-0.012": 0.69190112389,
			"-0.011": 1.12426608147,
			"-0.01": 1.22858597077,
			"-0.009": 1.27953822495,
			"-0.008": 1.26915984048,
			"-0.007": 1.51755182217,
			"-0.006": 1.88839838224,
			"-0.005": 7.85625343136,
			"-0.004": 17.2337262218,
			"-0.003": 40.6846122327,
			"-0.002": 62.554094532,
			"-0.001": 59.1258504203,
			"0.0": 44.8577245045,
			"0.001": 37.5384348785,
			"0.002": 20.28652853,
			"0.003": 7.32245571612,
			"0.004": 3.66130282384,
			"0.005": 3.06924741409,
			"0.006": 2.66698912983,
			"0.007": 3.04407306381,
			"0.008": 3.25719385147,
			"0.009": 2.50749996095,
			"0.01": 2.81539420109,
			"0.011": 3.31742449661,
			"0.012": 3.72563799049,
			"0.013": 6.50306871261,
			"0.014": 4.8716172566,
			"0.015": 1.82546901619,
			"0.016": 0.0,
			"0.017": 0.0,
			"0.018": 0.0,
			"0.019": 0.0,
			"0.02": 0.0,
			"0.021": 0.0,
			"0.022": 0.0,
			"0.023": 0.0,
			"0.024": 0.0,
			"0.025": 0.0
		}
	}
}
