{
	 "smiles": "NN1C(=O)CSC1=S", 
	 "Tm": 375.15, 
	 "num_atms": 12, 
	 "gaussian": { 
		 "optdone": 1, 
		 "sigma_profile": "yes", 
		 "theory": "DFT", 
		 "functional": "B3LYP", 
		 "basiset": "6-31G**", 
		 "properties": { 
			 "R2extent": 1391.501, 
			 "electric_dipole_moment_norm": 2.63847915474, 
			 "electric_quadrupole_moment_norm": 11.5354330257, 
			 "total_energy": -1097.80850348, 
			 "HOMO_LUMO_gap": 0.16505, 
			 "cosmo_polarized_energy": -13.24, 
			 "cosmo_cavitation_energy": 19.43, 
			 "cosmo_dispersion_energy": -15.79, 
			 "cosmo_repulsion_energy": 1.22, 
			 "cosmo_total_nonelectrostatic_energy": 4.85, 
			 "SMD_solvation_energy": 3.15 
		},
		"coords": [
			{
				"x": 2.7096500165,
				"y": 0.1821751439,
				"z": -0.3547792129,
				"element": "N" 
			},
			{
				"x": 1.3186418874,
				"y": 0.1739752647,
				"z": -0.1560458823,
				"element": "N" 
			},
			{
				"x": 0.5189278388,
				"y": 0.8970546687,
				"z": -1.0361756657,
				"element": "C" 
			},
			{
				"x": 0.954968195,
				"y": 1.4228769322,
				"z": -2.0406290751,
				"element": "O" 
			},
			{
				"x": -0.9218774745,
				"y": 0.9098859269,
				"z": -0.5599933606,
				"element": "C" 
			},
			{
				"x": -0.9984977776,
				"y": -0.1191252499,
				"z": 0.9542420399,
				"element": "S" 
			},
			{
				"x": 0.7427301212,
				"y": -0.4596036344,
				"z": 0.9165460363,
				"element": "C" 
			},
			{
				"x": 1.5388408416,
				"y": -1.4170692217,
				"z": 1.994158779,
				"element": "S" 
			},
			{
				"x": 2.8417042563,
				"y": 0.3136310666,
				"z": -1.3574580317,
				"element": "H" 
			},
			{
				"x": 3.0542001695,
				"y": -0.7307254395,
				"z": -0.0567141785,
				"element": "H" 
			},
			{
				"x": -1.5692855347,
				"y": 0.5058068054,
				"z": -1.3416828982,
				"element": "H" 
			},
			{
				"x": -1.2262025397,
				"y": 1.9386177371,
				"z": -0.3500685502,
				"element": "H" 
			}
		],
		 "valence_orbital": [ 
			{
				"type": "occ",
				"energy": -0.3335,
				"method": "rhf"
			},
			{
				"type": "occ",
				"energy": -0.30523,
				"method": "rhf"
			},
			{
				"type": "occ",
				"energy": -0.25973,
				"method": "rhf"
			},
			{
				"type": "occ",
				"energy": -0.24678,
				"method": "rhf"
			},
			{
				"type": "occ",
				"energy": -0.24106,
				"method": "rhf"
			},
			{
				"type": "unocc",
				"energy": -0.07601,
				"method": "rhf"
			},
			{
				"type": "unocc",
				"energy": -0.01245,
				"method": "rhf"
			},
			{
				"type": "unocc",
				"energy": 0.00215,
				"method": "rhf"
			},
			{
				"type": "unocc",
				"energy": 0.03826,
				"method": "rhf"
			},
			{
				"type": "unocc",
				"energy": 0.0766,
				"method": "rhf"
			}
		],
		"cosmo_sigma_profile": { 
			"-0.025": 0.0,
			"-0.024": 0.0,
			"-0.023": 0.0,
			"-0.022": 0.0,
			"-0.021": 0.0,
			"-0.02": 0.0,
			"-0.019": 0.0,
			"-0.018": 0.0,
			"-0.017": 0.0,
			"-0.016": 0.0,
			"-0.015": 0.0,
			"-0.014": 0.0840872533813,
			"-0.013": 1.08597042657,
			"-0.012": 2.56161060279,
			"-0.011": 2.90471827185,
			"-0.01": 7.02088538619,
			"-0.009": 8.02325181999,
			"-0.008": 7.92912198146,
			"-0.007": 8.97563598647,
			"-0.006": 7.06728797843,
			"-0.005": 4.25814772376,
			"-0.004": 4.31169318637,
			"-0.003": 4.76069146564,
			"-0.002": 3.38213868764,
			"-0.001": 4.70205167216,
			"0.0": 7.48752766574,
			"0.001": 8.91149311911,
			"0.002": 10.6103331227,
			"0.003": 9.88535539897,
			"0.004": 9.13044749503,
			"0.005": 9.53249673496,
			"0.006": 11.4083881029,
			"0.007": 6.61876805935,
			"0.008": 5.18583449747,
			"0.009": 5.17017814863,
			"0.01": 4.14465475199,
			"0.011": 3.14336387674,
			"0.012": 0.921413737774,
			"0.013": 0.589429849123,
			"0.014": 0.485087992932,
			"0.015": 0.104839596791,
			"0.016": 0.0,
			"0.017": 0.0,
			"0.018": 0.0,
			"0.019": 0.0,
			"0.02": 0.0,
			"0.021": 0.0,
			"0.022": 0.0,
			"0.023": 0.0,
			"0.024": 0.0,
			"0.025": 0.0
		}
	}
}
