{
	 "smiles": "CCOC(=O)C(CO)(CO)C(=O)OCC", 
	 "Tm": 323.15, 
	 "num_atms": 31, 
	 "gaussian": { 
		 "optdone": 1, 
		 "sigma_profile": "yes", 
		 "theory": "DFT", 
		 "functional": "B3LYP", 
		 "basiset": "6-31G**", 
		 "properties": { 
			 "R2extent": 3636.8023, 
			 "electric_dipole_moment_norm": 2.59833339277, 
			 "electric_quadrupole_moment_norm": 17.0861801606, 
			 "total_energy": -803.955159655, 
			 "HOMO_LUMO_gap": 0.24813, 
			 "cosmo_polarized_energy": -15.02, 
			 "cosmo_cavitation_energy": 33.7, 
			 "cosmo_dispersion_energy": -22.85, 
			 "cosmo_repulsion_energy": 1.85, 
			 "cosmo_total_nonelectrostatic_energy": 12.7, 
			 "SMD_solvation_energy": 7.52 
		},
		"coords": [
			{
				"x": 2.0303909195,
				"y": 1.6770571045,
				"z": -3.9277768824,
				"element": "C" 
			},
			{
				"x": 1.2283199962,
				"y": 2.1930539518,
				"z": -2.7446118932,
				"element": "C" 
			},
			{
				"x": 1.0191468067,
				"y": 1.1481370623,
				"z": -1.7514264195,
				"element": "O" 
			},
			{
				"x": -0.0479130133,
				"y": 0.3429486887,
				"z": -1.9213684481,
				"element": "C" 
			},
			{
				"x": -0.7806572421,
				"y": 0.4119711821,
				"z": -2.8900928904,
				"element": "O" 
			},
			{
				"x": -0.2128949059,
				"y": -0.6701328098,
				"z": -0.7821903768,
				"element": "C" 
			},
			{
				"x": -1.0823635267,
				"y": -1.8542510573,
				"z": -1.2870253262,
				"element": "C" 
			},
			{
				"x": -2.3903360919,
				"y": -1.4693277527,
				"z": -1.6362182558,
				"element": "O" 
			},
			{
				"x": 1.1555886925,
				"y": -1.1983608337,
				"z": -0.2683343647,
				"element": "C" 
			},
			{
				"x": 1.8825676626,
				"y": -0.2559982574,
				"z": 0.4889668983,
				"element": "O" 
			},
			{
				"x": -0.9346508226,
				"y": 0.0549716621,
				"z": 0.3630467035,
				"element": "C" 
			},
			{
				"x": -1.2428367619,
				"y": 1.2270751868,
				"z": 0.342001931,
				"element": "O" 
			},
			{
				"x": -1.1709401706,
				"y": -0.7863345795,
				"z": 1.3805656609,
				"element": "O" 
			},
			{
				"x": -1.8156376759,
				"y": -0.225081973,
				"z": 2.5534973269,
				"element": "C" 
			},
			{
				"x": -0.7915036552,
				"y": 0.3906299093,
				"z": 3.4935174807,
				"element": "C" 
			},
			{
				"x": 2.9868290866,
				"y": 1.2579929677,
				"z": -3.6012971989,
				"element": "H" 
			},
			{
				"x": 1.4715137197,
				"y": 0.9101413157,
				"z": -4.469126171,
				"element": "H" 
			},
			{
				"x": 2.2368950251,
				"y": 2.5015838047,
				"z": -4.6179487052,
				"element": "H" 
			},
			{
				"x": 0.2515030704,
				"y": 2.5694880825,
				"z": -3.0529182835,
				"element": "H" 
			},
			{
				"x": 1.763730018,
				"y": 2.9728971603,
				"z": -2.199350199,
				"element": "H" 
			},
			{
				"x": -0.5551414185,
				"y": -2.340091558,
				"z": -2.1238909521,
				"element": "H" 
			},
			{
				"x": -1.1706483396,
				"y": -2.5816289067,
				"z": -0.4764792144,
				"element": "H" 
			},
			{
				"x": -2.2903820978,
				"y": -0.8155102656,
				"z": -2.346882501,
				"element": "H" 
			},
			{
				"x": 0.9599403357,
				"y": -2.0417747705,
				"z": 0.3985776757,
				"element": "H" 
			},
			{
				"x": 1.7345652772,
				"y": -1.5755865863,
				"z": -1.1262979474,
				"element": "H" 
			},
			{
				"x": 2.0129469477,
				"y": 0.5144710613,
				"z": -0.08238154,
				"element": "H" 
			},
			{
				"x": -2.5532287725,
				"y": 0.5108465831,
				"z": 2.2262318635,
				"element": "H" 
			},
			{
				"x": -2.3273971104,
				"y": -1.0745868288,
				"z": 3.0111467633,
				"element": "H" 
			},
			{
				"x": -1.2901621273,
				"y": 0.7464006244,
				"z": 4.401358659,
				"element": "H" 
			},
			{
				"x": -0.2941453191,
				"y": 1.2388149109,
				"z": 3.0175071863,
				"element": "H" 
			},
			{
				"x": -0.0333985065,
				"y": -0.343815079,
				"z": 3.7792994205,
				"element": "H" 
			}
		],
		 "valence_orbital": [ 
			{
				"type": "occ",
				"energy": -0.29967,
				"method": "rhf"
			},
			{
				"type": "occ",
				"energy": -0.29333,
				"method": "rhf"
			},
			{
				"type": "occ",
				"energy": -0.28643,
				"method": "rhf"
			},
			{
				"type": "occ",
				"energy": -0.26952,
				"method": "rhf"
			},
			{
				"type": "occ",
				"energy": -0.25905,
				"method": "rhf"
			},
			{
				"type": "unocc",
				"energy": -0.01092,
				"method": "rhf"
			},
			{
				"type": "unocc",
				"energy": 0.00893,
				"method": "rhf"
			},
			{
				"type": "unocc",
				"energy": 0.08096,
				"method": "rhf"
			},
			{
				"type": "unocc",
				"energy": 0.09761,
				"method": "rhf"
			},
			{
				"type": "unocc",
				"energy": 0.10358,
				"method": "rhf"
			}
		],
		"cosmo_sigma_profile": { 
			"-0.025": 0.0,
			"-0.024": 0.0,
			"-0.023": 0.0,
			"-0.022": 0.0,
			"-0.021": 0.0,
			"-0.02": 0.0,
			"-0.019": 0.0,
			"-0.018": 0.0,
			"-0.017": 0.0,
			"-0.016": 0.0,
			"-0.015": 0.0,
			"-0.014": 0.0,
			"-0.013": 0.0,
			"-0.012": 0.0,
			"-0.011": 0.156392514382,
			"-0.01": 0.730682745996,
			"-0.009": 1.53823562848,
			"-0.008": 2.57257178364,
			"-0.007": 4.11456684655,
			"-0.006": 13.9942854052,
			"-0.005": 24.3156464792,
			"-0.004": 32.1431009436,
			"-0.003": 27.9480841761,
			"-0.002": 22.1326244569,
			"-0.001": 23.0583535536,
			"0.0": 19.6153800367,
			"0.001": 9.48392811618,
			"0.002": 8.64532644019,
			"0.003": 8.12228691975,
			"0.004": 9.80103681816,
			"0.005": 9.08613559267,
			"0.006": 5.81195461256,
			"0.007": 6.33251176121,
			"0.008": 5.72567863015,
			"0.009": 6.07274411408,
			"0.01": 6.10898840268,
			"0.011": 5.85439275874,
			"0.012": 3.76172961169,
			"0.013": 2.9989426067,
			"0.014": 2.56624385792,
			"0.015": 0.0517538710147,
			"0.016": 0.0,
			"0.017": 0.0,
			"0.018": 0.0,
			"0.019": 0.0,
			"0.02": 0.0,
			"0.021": 0.0,
			"0.022": 0.0,
			"0.023": 0.0,
			"0.024": 0.0,
			"0.025": 0.0
		}
	}
}
