{
	 "smiles": "ClC1=C(Br)C=C(C=N1)S(Cl)(=O)=O", 
	 "Tm": 341.15, 
	 "num_atms": 14, 
	 "gaussian": { 
		 "optdone": 1, 
		 "sigma_profile": "yes", 
		 "theory": "DFT", 
		 "functional": "B3LYP", 
		 "basiset": "6-31G**", 
		 "properties": { 
			 "R2extent": 6506.077, 
			 "electric_dipole_moment_norm": 2.40131601835, 
			 "electric_quadrupole_moment_norm": 10.4875197182, 
			 "total_energy": -4286.82291602, 
			 "HOMO_LUMO_gap": 0.17803, 
			 "cosmo_polarized_energy": -8.84, 
			 "cosmo_cavitation_energy": 26.93, 
			 "cosmo_dispersion_energy": -20.8, 
			 "cosmo_repulsion_energy": 1.62, 
			 "cosmo_total_nonelectrostatic_energy": 7.75, 
			 "SMD_solvation_energy": 0.66 
		},
		"coords": [
			{
				"x": -2.4278548288,
				"y": -1.622694186,
				"z": -1.3014729235,
				"element": "Cl" 
			},
			{
				"x": -1.2428847162,
				"y": -0.4060387148,
				"z": -1.6759092623,
				"element": "C" 
			},
			{
				"x": 0.0483592951,
				"y": -0.4606955451,
				"z": -1.1103795125,
				"element": "C" 
			},
			{
				"x": 0.5863134941,
				"y": -1.8199934829,
				"z": 0.0881117372,
				"element": "Br" 
			},
			{
				"x": 0.9528200637,
				"y": 0.5376840855,
				"z": -1.4565030721,
				"element": "C" 
			},
			{
				"x": 0.5270186203,
				"y": 1.5289618998,
				"z": -2.3388360817,
				"element": "C" 
			},
			{
				"x": -0.7723890315,
				"y": 1.5124066119,
				"z": -2.843617888,
				"element": "C" 
			},
			{
				"x": -1.6320151551,
				"y": 0.5496328385,
				"z": -2.5062707981,
				"element": "N" 
			},
			{
				"x": 1.6471999243,
				"y": 2.8454964364,
				"z": -2.7919848703,
				"element": "S" 
			},
			{
				"x": 2.6012418094,
				"y": 2.0018912596,
				"z": -4.4907943332,
				"element": "Cl" 
			},
			{
				"x": 2.6685654296,
				"y": 2.9674814372,
				"z": -1.7610603584,
				"element": "O" 
			},
			{
				"x": 0.8672998478,
				"y": 3.9774897143,
				"z": -3.2711390894,
				"element": "O" 
			},
			{
				"x": 1.9552077114,
				"y": 0.5490873924,
				"z": -1.0447127782,
				"element": "H" 
			},
			{
				"x": -1.1272824642,
				"y": 2.2856902532,
				"z": -3.5179307694,
				"element": "H" 
			}
		],
		 "valence_orbital": [ 
			{
				"type": "occ",
				"energy": -0.33075,
				"method": "rhf"
			},
			{
				"type": "occ",
				"energy": -0.32639,
				"method": "rhf"
			},
			{
				"type": "occ",
				"energy": -0.32072,
				"method": "rhf"
			},
			{
				"type": "occ",
				"energy": -0.3063,
				"method": "rhf"
			},
			{
				"type": "occ",
				"energy": -0.28832,
				"method": "rhf"
			},
			{
				"type": "unocc",
				"energy": -0.11029,
				"method": "rhf"
			},
			{
				"type": "unocc",
				"energy": -0.08086,
				"method": "rhf"
			},
			{
				"type": "unocc",
				"energy": -0.07153,
				"method": "rhf"
			},
			{
				"type": "unocc",
				"energy": -0.0376,
				"method": "rhf"
			},
			{
				"type": "unocc",
				"energy": 0.02037,
				"method": "rhf"
			}
		],
		"cosmo_sigma_profile": { 
			"-0.025": 0.0,
			"-0.024": 0.0,
			"-0.023": 0.0,
			"-0.022": 0.0,
			"-0.021": 0.0,
			"-0.02": 0.0,
			"-0.019": 0.0,
			"-0.018": 0.0,
			"-0.017": 0.0,
			"-0.016": 0.0,
			"-0.015": 0.0,
			"-0.014": 0.0,
			"-0.013": 0.0,
			"-0.012": 0.0,
			"-0.011": 0.429924380031,
			"-0.01": 2.49270986182,
			"-0.009": 3.42391852011,
			"-0.008": 5.08508535796,
			"-0.007": 4.46026680234,
			"-0.006": 8.2649436184,
			"-0.005": 12.792230588,
			"-0.004": 18.0951286716,
			"-0.003": 15.5012592915,
			"-0.002": 15.5309503025,
			"-0.001": 13.4477901523,
			"0.0": 15.7366834691,
			"0.001": 17.0398919403,
			"0.002": 29.672857556,
			"0.003": 25.6194785865,
			"0.004": 6.29864718127,
			"0.005": 5.12924457631,
			"0.006": 5.35459266553,
			"0.007": 10.114925618,
			"0.008": 7.97623563211,
			"0.009": 1.74406778914,
			"0.01": 0.837474743476,
			"0.011": 0.864437577032,
			"0.012": 0.25732359378,
			"0.013": 0.0,
			"0.014": 0.0,
			"0.015": 0.0,
			"0.016": 0.0,
			"0.017": 0.0,
			"0.018": 0.0,
			"0.019": 0.0,
			"0.02": 0.0,
			"0.021": 0.0,
			"0.022": 0.0,
			"0.023": 0.0,
			"0.024": 0.0,
			"0.025": 0.0
		}
	}
}
