{
	 "smiles": "COC1=CC=C2SC3=CC=CC=C3N(CCCN(C)C)C2=C1", 
	 "Tm": 319.15, 
	 "num_atms": 44, 
	 "gaussian": { 
		 "optdone": 1, 
		 "sigma_profile": "yes", 
		 "theory": "DFT", 
		 "functional": "B3LYP", 
		 "basiset": "6-31G**", 
		 "properties": { 
			 "R2extent": 8982.7172, 
			 "electric_dipole_moment_norm": 3.83445903095, 
			 "electric_quadrupole_moment_norm": 6.02593369695, 
			 "total_energy": -1282.06658361, 
			 "HOMO_LUMO_gap": 0.17229, 
			 "cosmo_polarized_energy": -10.84, 
			 "cosmo_cavitation_energy": 46.17, 
			 "cosmo_dispersion_energy": -32.06, 
			 "cosmo_repulsion_energy": 2.43, 
			 "cosmo_total_nonelectrostatic_energy": 16.53, 
			 "SMD_solvation_energy": 6.14 
		},
		"coords": [
			{
				"x": 0.8036216614,
				"y": -1.5116325907,
				"z": 3.9918893131,
				"element": "C" 
			},
			{
				"x": -0.5714483162,
				"y": -1.2482307716,
				"z": 4.2125489663,
				"element": "O" 
			},
			{
				"x": -1.330757398,
				"y": -0.8173508766,
				"z": 3.1615815783,
				"element": "C" 
			},
			{
				"x": -2.6788339708,
				"y": -0.5682252156,
				"z": 3.4485494975,
				"element": "C" 
			},
			{
				"x": -3.5238100247,
				"y": -0.1473488892,
				"z": 2.4291317126,
				"element": "C" 
			},
			{
				"x": -3.0375258279,
				"y": 0.0720648164,
				"z": 1.1377161411,
				"element": "C" 
			},
			{
				"x": -4.0944954829,
				"y": 0.7307320908,
				"z": -0.13806986,
				"element": "S" 
			},
			{
				"x": -3.4178217465,
				"y": -0.1847505271,
				"z": -1.5094167498,
				"element": "C" 
			},
			{
				"x": -4.2404749298,
				"y": -0.6250342235,
				"z": -2.546691437,
				"element": "C" 
			},
			{
				"x": -3.6915602199,
				"y": -1.2576137066,
				"z": -3.6634604293,
				"element": "C" 
			},
			{
				"x": -2.3163326697,
				"y": -1.4785850013,
				"z": -3.715689325,
				"element": "C" 
			},
			{
				"x": -1.4928984661,
				"y": -1.0730006402,
				"z": -2.6639695621,
				"element": "C" 
			},
			{
				"x": -2.0262098846,
				"y": -0.4045313735,
				"z": -1.5509447192,
				"element": "C" 
			},
			{
				"x": -1.2156587897,
				"y": 0.0413475089,
				"z": -0.476785299,
				"element": "N" 
			},
			{
				"x": 0.2103999321,
				"y": 0.2788087872,
				"z": -0.703900656,
				"element": "C" 
			},
			{
				"x": 0.4727502714,
				"y": 1.3898407975,
				"z": -1.7306139216,
				"element": "C" 
			},
			{
				"x": 1.9702160267,
				"y": 1.6849896224,
				"z": -1.8844175237,
				"element": "C" 
			},
			{
				"x": 2.6285068005,
				"y": 2.0690202079,
				"z": -0.6322268397,
				"element": "N" 
			},
			{
				"x": 2.2251414222,
				"y": 3.3937170818,
				"z": -0.1725241715,
				"element": "C" 
			},
			{
				"x": 4.0791863593,
				"y": 1.9833602358,
				"z": -0.7466686553,
				"element": "C" 
			},
			{
				"x": -1.6858126844,
				"y": -0.1724208591,
				"z": 0.8424929113,
				"element": "C" 
			},
			{
				"x": -0.8403485684,
				"y": -0.6446215642,
				"z": 1.8624822464,
				"element": "C" 
			},
			{
				"x": 1.3368327388,
				"y": -0.6198473266,
				"z": 3.6372757256,
				"element": "H" 
			},
			{
				"x": 1.2118554224,
				"y": -1.8126225758,
				"z": 4.958112254,
				"element": "H" 
			},
			{
				"x": 0.95162974,
				"y": -2.3265895688,
				"z": 3.2709279894,
				"element": "H" 
			},
			{
				"x": -3.0393074377,
				"y": -0.7187478212,
				"z": 4.4599542424,
				"element": "H" 
			},
			{
				"x": -4.5741576886,
				"y": 0.0334840376,
				"z": 2.6367503995,
				"element": "H" 
			},
			{
				"x": -5.3111550508,
				"y": -0.4566690685,
				"z": -2.4790927973,
				"element": "H" 
			},
			{
				"x": -4.3343424887,
				"y": -1.5783315422,
				"z": -4.4773495269,
				"element": "H" 
			},
			{
				"x": -1.8753125792,
				"y": -1.9813524121,
				"z": -4.571531229,
				"element": "H" 
			},
			{
				"x": -0.429431145,
				"y": -1.2777651581,
				"z": -2.713246796,
				"element": "H" 
			},
			{
				"x": 0.648583917,
				"y": 0.5985548358,
				"z": 0.2406183016,
				"element": "H" 
			},
			{
				"x": 0.7426789772,
				"y": -0.6415675323,
				"z": -0.9951013393,
				"element": "H" 
			},
			{
				"x": -0.0775707962,
				"y": 2.2850433496,
				"z": -1.421674314,
				"element": "H" 
			},
			{
				"x": 0.0773597215,
				"y": 1.1155609835,
				"z": -2.7136853295,
				"element": "H" 
			},
			{
				"x": 2.1091679581,
				"y": 2.4542054753,
				"z": -2.6699400666,
				"element": "H" 
			},
			{
				"x": 2.4700147919,
				"y": 0.7785102154,
				"z": -2.249306476,
				"element": "H" 
			},
			{
				"x": 2.488859503,
				"y": 4.1972491553,
				"z": -0.8876474566,
				"element": "H" 
			},
			{
				"x": 1.1458445515,
				"y": 3.4322894663,
				"z": -0.0047872296,
				"element": "H" 
			},
			{
				"x": 2.7157861731,
				"y": 3.6153411886,
				"z": 0.7803808931,
				"element": "H" 
			},
			{
				"x": 4.5402333386,
				"y": 2.214859135,
				"z": 0.2190537894,
				"element": "H" 
			},
			{
				"x": 4.372444712,
				"y": 0.9663788407,
				"z": -1.0265201712,
				"element": "H" 
			},
			{
				"x": 4.501924042,
				"y": 2.6788710414,
				"z": -1.4976895641,
				"element": "H" 
			},
			{
				"x": 0.1872281053,
				"y": -0.8891896282,
				"z": 1.6324854833,
				"element": "H" 
			}
		],
		 "valence_orbital": [ 
			{
				"type": "occ",
				"energy": -0.24953,
				"method": "rhf"
			},
			{
				"type": "occ",
				"energy": -0.23104,
				"method": "rhf"
			},
			{
				"type": "occ",
				"energy": -0.2178,
				"method": "rhf"
			},
			{
				"type": "occ",
				"energy": -0.21424,
				"method": "rhf"
			},
			{
				"type": "occ",
				"energy": -0.17841,
				"method": "rhf"
			},
			{
				"type": "unocc",
				"energy": -0.00612,
				"method": "rhf"
			},
			{
				"type": "unocc",
				"energy": -0.0,
				"method": "rhf"
			},
			{
				"type": "unocc",
				"energy": 0.00567,
				"method": "rhf"
			},
			{
				"type": "unocc",
				"energy": 0.01903,
				"method": "rhf"
			},
			{
				"type": "unocc",
				"energy": 0.04677,
				"method": "rhf"
			}
		],
		"cosmo_sigma_profile": { 
			"-0.025": 0.0,
			"-0.024": 0.0,
			"-0.023": 0.0,
			"-0.022": 0.0,
			"-0.021": 0.0,
			"-0.02": 0.0,
			"-0.019": 0.0,
			"-0.018": 0.0,
			"-0.017": 0.0,
			"-0.016": 0.0,
			"-0.015": 0.0,
			"-0.014": 0.0,
			"-0.013": 0.0,
			"-0.012": 0.0,
			"-0.011": 0.0,
			"-0.01": 0.0,
			"-0.009": 0.0,
			"-0.008": 0.0,
			"-0.007": 1.94927078731,
			"-0.006": 14.5388367716,
			"-0.005": 22.9297388617,
			"-0.004": 33.6747854648,
			"-0.003": 37.899663575,
			"-0.002": 34.7778951991,
			"-0.001": 40.7921782596,
			"0.0": 38.3359340186,
			"0.001": 21.0143746109,
			"0.002": 18.5503735862,
			"0.003": 20.8700682745,
			"0.004": 28.2828752099,
			"0.005": 23.5090224664,
			"0.006": 11.4418347973,
			"0.007": 5.19105463975,
			"0.008": 5.22653339334,
			"0.009": 3.08483582353,
			"0.01": 2.37670159298,
			"0.011": 1.02938806093,
			"0.012": 0.658157443403,
			"0.013": 0.148934238261,
			"0.014": 0.0,
			"0.015": 0.0,
			"0.016": 0.0,
			"0.017": 0.0,
			"0.018": 0.0,
			"0.019": 0.0,
			"0.02": 0.0,
			"0.021": 0.0,
			"0.022": 0.0,
			"0.023": 0.0,
			"0.024": 0.0,
			"0.025": 0.0
		}
	}
}
