{
	 "smiles": "ClCC1=C(Br)C=C2OCCCOC2=C1", 
	 "Tm": 349.15, 
	 "num_atms": 24, 
	 "gaussian": { 
		 "optdone": 1, 
		 "sigma_profile": "yes", 
		 "theory": "DFT", 
		 "functional": "B3LYP", 
		 "basiset": "6-31G**", 
		 "properties": { 
			 "R2extent": 5137.3881, 
			 "electric_dipole_moment_norm": 4.78252991209, 
			 "electric_quadrupole_moment_norm": 9.22363799973, 
			 "total_energy": -3569.116455, 
			 "HOMO_LUMO_gap": 0.19306, 
			 "cosmo_polarized_energy": -9.2, 
			 "cosmo_cavitation_energy": 30.64, 
			 "cosmo_dispersion_energy": -23.19, 
			 "cosmo_repulsion_energy": 1.84, 
			 "cosmo_total_nonelectrostatic_energy": 9.29, 
			 "SMD_solvation_energy": 3.83 
		},
		"coords": [
			{
				"x": -2.9040488033,
				"y": 1.8962057451,
				"z": 2.5619458499,
				"element": "Cl" 
			},
			{
				"x": -2.989540218,
				"y": 0.3008053162,
				"z": 1.6518189638,
				"element": "C" 
			},
			{
				"x": -1.8231305663,
				"y": 0.098444083,
				"z": 0.7372930003,
				"element": "C" 
			},
			{
				"x": -0.627383208,
				"y": -0.5188620667,
				"z": 1.134014252,
				"element": "C" 
			},
			{
				"x": -0.397827266,
				"y": -1.1727962797,
				"z": 2.9178818318,
				"element": "Br" 
			},
			{
				"x": 0.4240150215,
				"y": -0.698874448,
				"z": 0.2420935576,
				"element": "C" 
			},
			{
				"x": 0.324535098,
				"y": -0.2491625041,
				"z": -1.0765779053,
				"element": "C" 
			},
			{
				"x": 1.4071181709,
				"y": -0.4725461358,
				"z": -1.8859804085,
				"element": "O" 
			},
			{
				"x": 1.1273457147,
				"y": -0.7744274705,
				"z": -3.2634608237,
				"element": "C" 
			},
			{
				"x": 0.965712435,
				"y": 0.4925222309,
				"z": -4.104123263,
				"element": "C" 
			},
			{
				"x": 0.0970325315,
				"y": 1.520563085,
				"z": -3.3762420153,
				"element": "C" 
			},
			{
				"x": -1.0455663976,
				"y": 0.9081473367,
				"z": -2.7566831324,
				"element": "O" 
			},
			{
				"x": -0.8521054939,
				"y": 0.4107836046,
				"z": -1.491302846,
				"element": "C" 
			},
			{
				"x": -1.8980727926,
				"y": 0.558761763,
				"z": -0.5830674199,
				"element": "C" 
			},
			{
				"x": -3.0458663894,
				"y": -0.4661976568,
				"z": 2.4217760249,
				"element": "H" 
			},
			{
				"x": -3.9255746955,
				"y": 0.3385195232,
				"z": 1.0957838642,
				"element": "H" 
			},
			{
				"x": 1.3333103135,
				"y": -1.2037632902,
				"z": 0.5444531756,
				"element": "H" 
			},
			{
				"x": 0.2256236754,
				"y": -1.3940032158,
				"z": -3.321625949,
				"element": "H" 
			},
			{
				"x": 1.9744221734,
				"y": -1.3722438544,
				"z": -3.6097707662,
				"element": "H" 
			},
			{
				"x": 0.5173398554,
				"y": 0.2154295939,
				"z": -5.0654497399,
				"element": "H" 
			},
			{
				"x": 1.941217466,
				"y": 0.9453978734,
				"z": -4.3161554566,
				"element": "H" 
			},
			{
				"x": 0.680637854,
				"y": 2.0507292527,
				"z": -2.6153143772,
				"element": "H" 
			},
			{
				"x": -0.3052411428,
				"y": 2.2609666748,
				"z": -4.0727354391,
				"element": "H" 
			},
			{
				"x": -2.7897533359,
				"y": 1.0734008397,
				"z": -0.927770978,
				"element": "H" 
			}
		],
		 "valence_orbital": [ 
			{
				"type": "occ",
				"energy": -0.29048,
				"method": "rhf"
			},
			{
				"type": "occ",
				"energy": -0.28603,
				"method": "rhf"
			},
			{
				"type": "occ",
				"energy": -0.28236,
				"method": "rhf"
			},
			{
				"type": "occ",
				"energy": -0.24746,
				"method": "rhf"
			},
			{
				"type": "occ",
				"energy": -0.22263,
				"method": "rhf"
			},
			{
				"type": "unocc",
				"energy": -0.02957,
				"method": "rhf"
			},
			{
				"type": "unocc",
				"energy": -0.01357,
				"method": "rhf"
			},
			{
				"type": "unocc",
				"energy": 0.00511,
				"method": "rhf"
			},
			{
				"type": "unocc",
				"energy": 0.04604,
				"method": "rhf"
			},
			{
				"type": "unocc",
				"energy": 0.06795,
				"method": "rhf"
			}
		],
		"cosmo_sigma_profile": { 
			"-0.025": 0.0,
			"-0.024": 0.0,
			"-0.023": 0.0,
			"-0.022": 0.0,
			"-0.021": 0.0,
			"-0.02": 0.0,
			"-0.019": 0.0,
			"-0.018": 0.0,
			"-0.017": 0.0,
			"-0.016": 0.0,
			"-0.015": 0.0,
			"-0.014": 0.0,
			"-0.013": 0.0,
			"-0.012": 0.0,
			"-0.011": 0.0,
			"-0.01": 0.0,
			"-0.009": 0.193163229343,
			"-0.008": 3.56709184307,
			"-0.007": 5.74940979869,
			"-0.006": 11.6199734628,
			"-0.005": 19.9577834612,
			"-0.004": 27.3933414082,
			"-0.003": 20.8542894893,
			"-0.002": 15.0054504682,
			"-0.001": 12.8311435022,
			"0.0": 13.7906252844,
			"0.001": 16.0528150763,
			"0.002": 25.5980207956,
			"0.003": 19.0372070647,
			"0.004": 16.0732973093,
			"0.005": 13.5331143005,
			"0.006": 11.7830147382,
			"0.007": 7.98978950334,
			"0.008": 2.07776549766,
			"0.009": 2.18727424345,
			"0.01": 2.39464884658,
			"0.011": 0.880608124862,
			"0.012": 0.0,
			"0.013": 0.0,
			"0.014": 0.0,
			"0.015": 0.0,
			"0.016": 0.0,
			"0.017": 0.0,
			"0.018": 0.0,
			"0.019": 0.0,
			"0.02": 0.0,
			"0.021": 0.0,
			"0.022": 0.0,
			"0.023": 0.0,
			"0.024": 0.0,
			"0.025": 0.0
		}
	}
}
