{
	 "smiles": "CC1=CC=CC=C1Br", 
	 "Tm": 245.65, 
	 "num_atms": 15, 
	 "gaussian": { 
		 "optdone": 1, 
		 "sigma_profile": "yes", 
		 "theory": "DFT", 
		 "functional": "B3LYP", 
		 "basiset": "6-31G**", 
		 "properties": { 
			 "R2extent": 1614.808, 
			 "electric_dipole_moment_norm": 1.59582197942, 
			 "electric_quadrupole_moment_norm": 5.79576166522, 
			 "total_energy": -2842.37560359, 
			 "HOMO_LUMO_gap": 0.22738, 
			 "cosmo_polarized_energy": -3.47, 
			 "cosmo_cavitation_energy": 20.51, 
			 "cosmo_dispersion_energy": -15.71, 
			 "cosmo_repulsion_energy": 1.29, 
			 "cosmo_total_nonelectrostatic_energy": 6.09, 
			 "SMD_solvation_energy": 2.54 
		},
		"coords": [
			{
				"x": 1.3153860212,
				"y": -1.297647367,
				"z": -1.0918084327,
				"element": "C" 
			},
			{
				"x": 0.8285040049,
				"y": 0.1114970885,
				"z": -1.3104961239,
				"element": "C" 
			},
			{
				"x": 0.9869433348,
				"y": 0.7407231023,
				"z": -2.5541616107,
				"element": "C" 
			},
			{
				"x": 0.5459020126,
				"y": 2.0434121125,
				"z": -2.7840118237,
				"element": "C" 
			},
			{
				"x": -0.0733914138,
				"y": 2.757359133,
				"z": -1.7586500251,
				"element": "C" 
			},
			{
				"x": -0.2471872022,
				"y": 2.1621739509,
				"z": -0.5092512914,
				"element": "C" 
			},
			{
				"x": 0.2015687805,
				"y": 0.8590962758,
				"z": -0.3024828559,
				"element": "C" 
			},
			{
				"x": -0.062307566,
				"y": 0.0875174909,
				"z": 1.4351222325,
				"element": "Br" 
			},
			{
				"x": 0.4945984426,
				"y": -1.9612132749,
				"z": -0.7993314293,
				"element": "H" 
			},
			{
				"x": 1.7711948169,
				"y": -1.6946315054,
				"z": -2.0022530253,
				"element": "H" 
			},
			{
				"x": 2.0570643588,
				"y": -1.3418829526,
				"z": -0.2871230741,
				"element": "H" 
			},
			{
				"x": 1.4692712818,
				"y": 0.1868572755,
				"z": -3.3553562206,
				"element": "H" 
			},
			{
				"x": 0.6861476588,
				"y": 2.4973955935,
				"z": -3.7604016987,
				"element": "H" 
			},
			{
				"x": -0.4218818905,
				"y": 3.7725436678,
				"z": -1.9231382414,
				"element": "H" 
			},
			{
				"x": -0.7262126403,
				"y": 2.7005994093,
				"z": 0.3006436204,
				"element": "H" 
			}
		],
		 "valence_orbital": [ 
			{
				"type": "occ",
				"energy": -0.34527,
				"method": "rhf"
			},
			{
				"type": "occ",
				"energy": -0.3096,
				"method": "rhf"
			},
			{
				"type": "occ",
				"energy": -0.28331,
				"method": "rhf"
			},
			{
				"type": "occ",
				"energy": -0.25299,
				"method": "rhf"
			},
			{
				"type": "occ",
				"energy": -0.23846,
				"method": "rhf"
			},
			{
				"type": "unocc",
				"energy": -0.01108,
				"method": "rhf"
			},
			{
				"type": "unocc",
				"energy": -0.00744,
				"method": "rhf"
			},
			{
				"type": "unocc",
				"energy": 0.01117,
				"method": "rhf"
			},
			{
				"type": "unocc",
				"energy": 0.10285,
				"method": "rhf"
			},
			{
				"type": "unocc",
				"energy": 0.12128,
				"method": "rhf"
			}
		],
		"cosmo_sigma_profile": { 
			"-0.025": 0.0,
			"-0.024": 0.0,
			"-0.023": 0.0,
			"-0.022": 0.0,
			"-0.021": 0.0,
			"-0.02": 0.0,
			"-0.019": 0.0,
			"-0.018": 0.0,
			"-0.017": 0.0,
			"-0.016": 0.0,
			"-0.015": 0.0,
			"-0.014": 0.0,
			"-0.013": 0.0,
			"-0.012": 0.0,
			"-0.011": 0.0,
			"-0.01": 0.0,
			"-0.009": 0.0,
			"-0.008": 0.0,
			"-0.007": 0.989432858521,
			"-0.006": 7.86955010652,
			"-0.005": 10.3888539182,
			"-0.004": 14.388143611,
			"-0.003": 12.8464253888,
			"-0.002": 12.2722424413,
			"-0.001": 14.4027473819,
			"0.0": 16.6972586998,
			"0.001": 12.2952923769,
			"0.002": 14.5561938948,
			"0.003": 16.1434969322,
			"0.004": 19.3781017326,
			"0.005": 13.9894077169,
			"0.006": 0.475915990531,
			"0.007": 0.0,
			"0.008": 0.0,
			"0.009": 0.0,
			"0.01": 0.0,
			"0.011": 0.0,
			"0.012": 0.0,
			"0.013": 0.0,
			"0.014": 0.0,
			"0.015": 0.0,
			"0.016": 0.0,
			"0.017": 0.0,
			"0.018": 0.0,
			"0.019": 0.0,
			"0.02": 0.0,
			"0.021": 0.0,
			"0.022": 0.0,
			"0.023": 0.0,
			"0.024": 0.0,
			"0.025": 0.0
		}
	}
}
