{
	 "smiles": "CC1=C(C=CC=C1)C(=O)NC1CCN(CC1)C(=O)CCl", 
	 "Tm": 400.15, 
	 "num_atms": 39, 
	 "gaussian": { 
		 "optdone": 1, 
		 "sigma_profile": "yes", 
		 "theory": "DFT", 
		 "functional": "B3LYP", 
		 "basiset": "6-31G**", 
		 "properties": { 
			 "R2extent": 10701.3424, 
			 "electric_dipole_moment_norm": 8.56668943875, 
			 "electric_quadrupole_moment_norm": 23.9100912382, 
			 "total_energy": -1303.2211327, 
			 "HOMO_LUMO_gap": 0.19773, 
			 "cosmo_polarized_energy": -24.16, 
			 "cosmo_cavitation_energy": 41.83, 
			 "cosmo_dispersion_energy": -30.14, 
			 "cosmo_repulsion_energy": 2.31, 
			 "cosmo_total_nonelectrostatic_energy": 14.0, 
			 "SMD_solvation_energy": 6.32 
		},
		"coords": [
			{
				"x": 2.1189250314,
				"y": 0.2972165926,
				"z": -4.2185703296,
				"element": "C" 
			},
			{
				"x": 0.9622736321,
				"y": -0.6788759787,
				"z": -4.3074197415,
				"element": "C" 
			},
			{
				"x": 0.1211544186,
				"y": -1.0149003116,
				"z": -3.2219095578,
				"element": "C" 
			},
			{
				"x": -0.8800183943,
				"y": -1.9847866487,
				"z": -3.3916742347,
				"element": "C" 
			},
			{
				"x": -1.0959156266,
				"y": -2.5937103209,
				"z": -4.6226866496,
				"element": "C" 
			},
			{
				"x": -0.2829196096,
				"y": -2.2531462145,
				"z": -5.7044483104,
				"element": "C" 
			},
			{
				"x": 0.7361229353,
				"y": -1.3185916394,
				"z": -5.5356417188,
				"element": "C" 
			},
			{
				"x": 0.2126802928,
				"y": -0.4512413045,
				"z": -1.824601782,
				"element": "C" 
			},
			{
				"x": -0.0517907678,
				"y": -1.1450887582,
				"z": -0.8418364848,
				"element": "O" 
			},
			{
				"x": 0.5546103174,
				"y": 0.8673066674,
				"z": -1.7029424014,
				"element": "N" 
			},
			{
				"x": 0.6059687555,
				"y": 1.5748850022,
				"z": -0.4170432811,
				"element": "C" 
			},
			{
				"x": 1.7453504451,
				"y": 1.0356102242,
				"z": 0.4703530862,
				"element": "C" 
			},
			{
				"x": 1.7097301784,
				"y": 1.6583878687,
				"z": 1.8688468106,
				"element": "C" 
			},
			{
				"x": 0.4201072509,
				"y": 1.4001680106,
				"z": 2.5237160379,
				"element": "N" 
			},
			{
				"x": -0.6653064512,
				"y": 0.8473419413,
				"z": 1.6966247081,
				"element": "C" 
			},
			{
				"x": -0.7495948361,
				"y": 1.5807514118,
				"z": 0.356486243,
				"element": "C" 
			},
			{
				"x": 0.152302267,
				"y": 1.7227693431,
				"z": 3.8309964937,
				"element": "C" 
			},
			{
				"x": -0.9340569599,
				"y": 1.5433109631,
				"z": 4.3591218519,
				"element": "O" 
			},
			{
				"x": 1.3489339127,
				"y": 2.3242096701,
				"z": 4.5916580303,
				"element": "C" 
			},
			{
				"x": 0.920326424,
				"y": 2.8302586106,
				"z": 6.2541478237,
				"element": "Cl" 
			},
			{
				"x": 1.7987651928,
				"y": 1.3373029237,
				"z": -4.3730356507,
				"element": "H" 
			},
			{
				"x": 2.8515563025,
				"y": 0.0824092925,
				"z": -5.0010972621,
				"element": "H" 
			},
			{
				"x": 2.6291738115,
				"y": 0.2521277286,
				"z": -3.2539326594,
				"element": "H" 
			},
			{
				"x": -1.4786347624,
				"y": -2.2501762088,
				"z": -2.5269653866,
				"element": "H" 
			},
			{
				"x": -1.8836580873,
				"y": -3.3325206107,
				"z": -4.7350048049,
				"element": "H" 
			},
			{
				"x": -0.4295899825,
				"y": -2.7237947089,
				"z": -6.6724416717,
				"element": "H" 
			},
			{
				"x": 1.3867161944,
				"y": -1.0816660161,
				"z": -6.3737867145,
				"element": "H" 
			},
			{
				"x": 0.6082406291,
				"y": 1.4221108499,
				"z": -2.5421295404,
				"element": "H" 
			},
			{
				"x": 0.8519303519,
				"y": 2.6092028329,
				"z": -0.6817648468,
				"element": "H" 
			},
			{
				"x": 1.6559743743,
				"y": -0.0504456681,
				"z": 0.5434418145,
				"element": "H" 
			},
			{
				"x": 2.7129749001,
				"y": 1.2575850814,
				"z": 0.0083830773,
				"element": "H" 
			},
			{
				"x": 1.8928852525,
				"y": 2.7420992224,
				"z": 1.7887255048,
				"element": "H" 
			},
			{
				"x": 2.5315913739,
				"y": 1.240577563,
				"z": 2.4625064195,
				"element": "H" 
			},
			{
				"x": -1.5847113545,
				"y": 0.9626741317,
				"z": 2.2701669895,
				"element": "H" 
			},
			{
				"x": -0.5025411507,
				"y": -0.2204491031,
				"z": 1.5197059992,
				"element": "H" 
			},
			{
				"x": -1.5269927581,
				"y": 1.114556094,
				"z": -0.2535391685,
				"element": "H" 
			},
			{
				"x": -1.0562816549,
				"y": 2.6174962568,
				"z": 0.5359964665,
				"element": "H" 
			},
			{
				"x": 2.1551088292,
				"y": 1.5907853939,
				"z": 4.6734728684,
				"element": "H" 
			},
			{
				"x": 1.7420093226,
				"y": 3.2029498157,
				"z": 4.0758219721,
				"element": "H" 
			}
		],
		 "valence_orbital": [ 
			{
				"type": "occ",
				"energy": -0.2618,
				"method": "rhf"
			},
			{
				"type": "occ",
				"energy": -0.25459,
				"method": "rhf"
			},
			{
				"type": "occ",
				"energy": -0.25089,
				"method": "rhf"
			},
			{
				"type": "occ",
				"energy": -0.24859,
				"method": "rhf"
			},
			{
				"type": "occ",
				"energy": -0.23523,
				"method": "rhf"
			},
			{
				"type": "unocc",
				"energy": -0.0375,
				"method": "rhf"
			},
			{
				"type": "unocc",
				"energy": -0.01119,
				"method": "rhf"
			},
			{
				"type": "unocc",
				"energy": 0.02594,
				"method": "rhf"
			},
			{
				"type": "unocc",
				"energy": 0.03363,
				"method": "rhf"
			},
			{
				"type": "unocc",
				"energy": 0.04124,
				"method": "rhf"
			}
		],
		"cosmo_sigma_profile": { 
			"-0.025": 0.0,
			"-0.024": 0.0,
			"-0.023": 0.0,
			"-0.022": 0.0,
			"-0.021": 0.0,
			"-0.02": 0.0,
			"-0.019": 0.0,
			"-0.018": 0.0,
			"-0.017": 0.0,
			"-0.016": 0.0,
			"-0.015": 0.0,
			"-0.014": 0.255517557049,
			"-0.013": 0.945529637276,
			"-0.012": 1.47045110891,
			"-0.011": 1.62442402807,
			"-0.01": 1.53302443107,
			"-0.009": 4.43604578359,
			"-0.008": 7.99118056857,
			"-0.007": 7.29329811901,
			"-0.006": 13.7094294423,
			"-0.005": 23.9846331305,
			"-0.004": 29.1706630306,
			"-0.003": 28.9267317626,
			"-0.002": 28.7607667286,
			"-0.001": 31.1489779123,
			"0.0": 23.2697050168,
			"0.001": 17.3460413716,
			"0.002": 12.8284895437,
			"0.003": 14.2705278289,
			"0.004": 15.3307031645,
			"0.005": 18.2387777667,
			"0.006": 12.4043471545,
			"0.007": 4.68333641547,
			"0.008": 4.52676208094,
			"0.009": 3.07480805105,
			"0.01": 3.09250767425,
			"0.011": 3.49807692722,
			"0.012": 3.98968158693,
			"0.013": 5.54025042333,
			"0.014": 6.03575112128,
			"0.015": 2.14632529958,
			"0.016": 0.0406768178052,
			"0.017": 0.0,
			"0.018": 0.0,
			"0.019": 0.0,
			"0.02": 0.0,
			"0.021": 0.0,
			"0.022": 0.0,
			"0.023": 0.0,
			"0.024": 0.0,
			"0.025": 0.0
		}
	}
}
