{
	 "smiles": "CCCCC(Br)C(=O)NC1=NOC(C)=C1", 
	 "Tm": 358.15, 
	 "num_atms": 30, 
	 "gaussian": { 
		 "optdone": 1, 
		 "sigma_profile": "yes", 
		 "theory": "DFT", 
		 "functional": "B3LYP", 
		 "basiset": "6-31G**", 
		 "properties": { 
			 "R2extent": 6060.3149, 
			 "electric_dipole_moment_norm": 1.94347809095, 
			 "electric_quadrupole_moment_norm": 16.5768730263, 
			 "total_energy": -3221.44580911, 
			 "HOMO_LUMO_gap": 0.22369, 
			 "cosmo_polarized_energy": -10.53, 
			 "cosmo_cavitation_energy": 34.62, 
			 "cosmo_dispersion_energy": -24.72, 
			 "cosmo_repulsion_energy": 1.97, 
			 "cosmo_total_nonelectrostatic_energy": 11.87, 
			 "SMD_solvation_energy": 5.02 
		},
		"coords": [
			{
				"x": -2.7931876926,
				"y": 1.4129457107,
				"z": -0.3406467942,
				"element": "C" 
			},
			{
				"x": -1.807577265,
				"y": 1.5597234907,
				"z": -1.5059623447,
				"element": "C" 
			},
			{
				"x": -0.5976633042,
				"y": 2.4639810155,
				"z": -1.2138747772,
				"element": "C" 
			},
			{
				"x": 0.3610644873,
				"y": 2.0209251546,
				"z": -0.0961603975,
				"element": "C" 
			},
			{
				"x": 1.1819340525,
				"y": 0.7413989847,
				"z": -0.3154649525,
				"element": "C" 
			},
			{
				"x": 2.2848319974,
				"y": 0.8633805401,
				"z": -1.984447785,
				"element": "Br" 
			},
			{
				"x": 0.357485534,
				"y": -0.5502571137,
				"z": -0.1846349823,
				"element": "C" 
			},
			{
				"x": -0.3114406847,
				"y": -0.686278121,
				"z": 0.8324784656,
				"element": "O" 
			},
			{
				"x": 0.4483762449,
				"y": -1.482657297,
				"z": -1.1759008499,
				"element": "N" 
			},
			{
				"x": -0.1967258897,
				"y": -2.7179587485,
				"z": -1.1847588412,
				"element": "C" 
			},
			{
				"x": 0.0032418042,
				"y": -3.5040953605,
				"z": -2.2237449034,
				"element": "N" 
			},
			{
				"x": -0.7561559918,
				"y": -4.6451424719,
				"z": -1.9546887341,
				"element": "O" 
			},
			{
				"x": -1.3831807592,
				"y": -4.5021992671,
				"z": -0.7657670499,
				"element": "C" 
			},
			{
				"x": -2.2423542553,
				"y": -5.6339944063,
				"z": -0.3203953463,
				"element": "C" 
			},
			{
				"x": -1.0708439663,
				"y": -3.2936401357,
				"z": -0.217832485,
				"element": "C" 
			},
			{
				"x": -3.6745161797,
				"y": 0.8402326434,
				"z": -0.6476979331,
				"element": "H" 
			},
			{
				"x": -2.3422119342,
				"y": 0.890270195,
				"z": 0.5075262477,
				"element": "H" 
			},
			{
				"x": -3.14090431,
				"y": 2.3934161571,
				"z": 0.0062452429,
				"element": "H" 
			},
			{
				"x": -1.4689712251,
				"y": 0.5682573637,
				"z": -1.8315698879,
				"element": "H" 
			},
			{
				"x": -2.3338524804,
				"y": 1.9848209353,
				"z": -2.3701163638,
				"element": "H" 
			},
			{
				"x": -0.9680326638,
				"y": 3.4597681944,
				"z": -0.936195932,
				"element": "H" 
			},
			{
				"x": -0.0201254727,
				"y": 2.6020930527,
				"z": -2.1350522307,
				"element": "H" 
			},
			{
				"x": -0.1854393898,
				"y": 1.8543456075,
				"z": 0.8389606616,
				"element": "H" 
			},
			{
				"x": 1.0729493908,
				"y": 2.8307295994,
				"z": 0.0938753796,
				"element": "H" 
			},
			{
				"x": 1.9438523466,
				"y": 0.6761388681,
				"z": 0.463314705,
				"element": "H" 
			},
			{
				"x": 1.036224084,
				"y": -1.2798374926,
				"z": -1.9766820117,
				"element": "H" 
			},
			{
				"x": -2.6903329608,
				"y": -5.4059027503,
				"z": 0.6484981115,
				"element": "H" 
			},
			{
				"x": -3.0446219369,
				"y": -5.8223909553,
				"z": -1.041480637,
				"element": "H" 
			},
			{
				"x": -1.6575312009,
				"y": -6.5550889994,
				"z": -0.2277877396,
				"element": "H" 
			},
			{
				"x": -1.3918903786,
				"y": -2.8603843935,
				"z": 0.7129641653,
				"element": "H" 
			}
		],
		 "valence_orbital": [ 
			{
				"type": "occ",
				"energy": -0.30458,
				"method": "rhf"
			},
			{
				"type": "occ",
				"energy": -0.28821,
				"method": "rhf"
			},
			{
				"type": "occ",
				"energy": -0.27086,
				"method": "rhf"
			},
			{
				"type": "occ",
				"energy": -0.26358,
				"method": "rhf"
			},
			{
				"type": "occ",
				"energy": -0.24827,
				"method": "rhf"
			},
			{
				"type": "unocc",
				"energy": -0.02458,
				"method": "rhf"
			},
			{
				"type": "unocc",
				"energy": -0.01735,
				"method": "rhf"
			},
			{
				"type": "unocc",
				"energy": 0.00854,
				"method": "rhf"
			},
			{
				"type": "unocc",
				"energy": 0.07527,
				"method": "rhf"
			},
			{
				"type": "unocc",
				"energy": 0.08536,
				"method": "rhf"
			}
		],
		"cosmo_sigma_profile": { 
			"-0.025": 0.0,
			"-0.024": 0.0,
			"-0.023": 0.0,
			"-0.022": 0.0,
			"-0.021": 0.0,
			"-0.02": 0.0,
			"-0.019": 0.0,
			"-0.018": 0.0,
			"-0.017": 0.0,
			"-0.016": 0.0,
			"-0.015": 0.0,
			"-0.014": 0.0,
			"-0.013": 0.0,
			"-0.012": 0.0,
			"-0.011": 0.384804329365,
			"-0.01": 0.854960731796,
			"-0.009": 3.17876470406,
			"-0.008": 3.3389718792,
			"-0.007": 4.45043333186,
			"-0.006": 11.8192236263,
			"-0.005": 12.8874826128,
			"-0.004": 14.1956109149,
			"-0.003": 22.1945683333,
			"-0.002": 34.222486819,
			"-0.001": 31.2009142357,
			"0.0": 30.161096502,
			"0.001": 26.7134833382,
			"0.002": 19.0733950014,
			"0.003": 11.5374466616,
			"0.004": 11.0473359008,
			"0.005": 8.5533933382,
			"0.006": 4.14296044981,
			"0.007": 4.23039798367,
			"0.008": 6.98715011165,
			"0.009": 3.56573758052,
			"0.01": 2.5571254616,
			"0.011": 3.25214796302,
			"0.012": 2.99792990291,
			"0.013": 1.32998072824,
			"0.014": 0.818910408754,
			"0.015": 0.00492709737462,
			"0.016": 0.0,
			"0.017": 0.0,
			"0.018": 0.0,
			"0.019": 0.0,
			"0.02": 0.0,
			"0.021": 0.0,
			"0.022": 0.0,
			"0.023": 0.0,
			"0.024": 0.0,
			"0.025": 0.0
		}
	}
}
