{
	 "smiles": "CN1CC(=O)N(CC2=C(N)C=C(C=C2)C(N)=O)C1=O", 
	 "Tm": 461.15, 
	 "num_atms": 33, 
	 "gaussian": { 
		 "optdone": 1, 
		 "sigma_profile": "yes", 
		 "theory": "DFT", 
		 "functional": "B3LYP", 
		 "basiset": "6-31G**", 
		 "properties": { 
			 "R2extent": 7138.0047, 
			 "electric_dipole_moment_norm": 7.29676785844, 
			 "electric_quadrupole_moment_norm": 22.0978468981, 
			 "total_energy": -910.462972343, 
			 "HOMO_LUMO_gap": 0.17039, 
			 "cosmo_polarized_energy": -24.83, 
			 "cosmo_cavitation_energy": 36.82, 
			 "cosmo_dispersion_energy": -26.45, 
			 "cosmo_repulsion_energy": 2.03, 
			 "cosmo_total_nonelectrostatic_energy": 12.41, 
			 "SMD_solvation_energy": 7.59 
		},
		"coords": [
			{
				"x": -3.5579867656,
				"y": -1.584354084,
				"z": -0.6513463786,
				"element": "C" 
			},
			{
				"x": -2.1482848427,
				"y": -1.2813954813,
				"z": -0.7729891227,
				"element": "N" 
			},
			{
				"x": -1.5001855532,
				"y": -0.847632648,
				"z": -1.9946768959,
				"element": "C" 
			},
			{
				"x": -0.0425981873,
				"y": -0.6644947796,
				"z": -1.5639198916,
				"element": "C" 
			},
			{
				"x": 0.8920493049,
				"y": -0.3166528648,
				"z": -2.2560531307,
				"element": "O" 
			},
			{
				"x": -0.0026066497,
				"y": -0.9892197452,
				"z": -0.2215675654,
				"element": "N" 
			},
			{
				"x": 1.2209922747,
				"y": -0.9601964001,
				"z": 0.5935919667,
				"element": "C" 
			},
			{
				"x": 1.481375967,
				"y": 0.3565588479,
				"z": 1.2944436169,
				"element": "C" 
			},
			{
				"x": 1.0474284783,
				"y": 0.5785927093,
				"z": 2.6248092655,
				"element": "C" 
			},
			{
				"x": 0.3755392226,
				"y": -0.4085119749,
				"z": 3.3380809644,
				"element": "N" 
			},
			{
				"x": 1.3772684028,
				"y": 1.8012071091,
				"z": 3.2389391406,
				"element": "C" 
			},
			{
				"x": 2.1032363953,
				"y": 2.7859285384,
				"z": 2.5638521119,
				"element": "C" 
			},
			{
				"x": 2.5245775102,
				"y": 2.5597169746,
				"z": 1.2478971215,
				"element": "C" 
			},
			{
				"x": 2.2064172901,
				"y": 1.3543453909,
				"z": 0.632307432,
				"element": "C" 
			},
			{
				"x": 2.4688809973,
				"y": 4.1002017105,
				"z": 3.1941907234,
				"element": "C" 
			},
			{
				"x": 1.7290355773,
				"y": 4.4749879717,
				"z": 4.294614854,
				"element": "N" 
			},
			{
				"x": 3.3833359671,
				"y": 4.7957232115,
				"z": 2.7701148432,
				"element": "O" 
			},
			{
				"x": -1.2674182502,
				"y": -1.3621415824,
				"z": 0.268555106,
				"element": "C" 
			},
			{
				"x": -1.5095942018,
				"y": -1.6993410982,
				"z": 1.4214412776,
				"element": "O" 
			},
			{
				"x": -4.1713772708,
				"y": -0.7099460007,
				"z": -0.8995067949,
				"element": "H" 
			},
			{
				"x": -3.842053289,
				"y": -2.4113708143,
				"z": -1.3128477138,
				"element": "H" 
			},
			{
				"x": -3.7492102503,
				"y": -1.8733452758,
				"z": 0.3827745758,
				"element": "H" 
			},
			{
				"x": -1.5652016807,
				"y": -1.5929972325,
				"z": -2.797622972,
				"element": "H" 
			},
			{
				"x": -1.9040813352,
				"y": 0.0996088858,
				"z": -2.3746184187,
				"element": "H" 
			},
			{
				"x": 2.0374527874,
				"y": -1.1762637623,
				"z": -0.098874085,
				"element": "H" 
			},
			{
				"x": 1.1476880877,
				"y": -1.7804824226,
				"z": 1.3115185635,
				"element": "H" 
			},
			{
				"x": -0.0099828066,
				"y": -0.0968506373,
				"z": 4.2186454487,
				"element": "H" 
			},
			{
				"x": -0.285569249,
				"y": -0.9729664476,
				"z": 2.8088200198,
				"element": "H" 
			},
			{
				"x": 1.0882109429,
				"y": 1.9505113485,
				"z": 4.2764923908,
				"element": "H" 
			},
			{
				"x": 3.0981032946,
				"y": 3.3264881826,
				"z": 0.7406127267,
				"element": "H" 
			},
			{
				"x": 2.5244878846,
				"y": 1.1670552806,
				"z": -0.3900063744,
				"element": "H" 
			},
			{
				"x": 0.7964131911,
				"y": 4.1131170433,
				"z": 4.419324759,
				"element": "H" 
			},
			{
				"x": 1.8993567561,
				"y": 5.4152200471,
				"z": 4.6220024357,
				"element": "H" 
			}
		],
		 "valence_orbital": [ 
			{
				"type": "occ",
				"energy": -0.26564,
				"method": "rhf"
			},
			{
				"type": "occ",
				"energy": -0.26314,
				"method": "rhf"
			},
			{
				"type": "occ",
				"energy": -0.24863,
				"method": "rhf"
			},
			{
				"type": "occ",
				"energy": -0.24172,
				"method": "rhf"
			},
			{
				"type": "occ",
				"energy": -0.2013,
				"method": "rhf"
			},
			{
				"type": "unocc",
				"energy": -0.03091,
				"method": "rhf"
			},
			{
				"type": "unocc",
				"energy": -0.01963,
				"method": "rhf"
			},
			{
				"type": "unocc",
				"energy": 0.01303,
				"method": "rhf"
			},
			{
				"type": "unocc",
				"energy": 0.04739,
				"method": "rhf"
			},
			{
				"type": "unocc",
				"energy": 0.06333,
				"method": "rhf"
			}
		],
		"cosmo_sigma_profile": { 
			"-0.025": 0.0,
			"-0.024": 0.0,
			"-0.023": 0.0,
			"-0.022": 0.0,
			"-0.021": 0.0,
			"-0.02": 0.0,
			"-0.019": 0.0,
			"-0.018": 0.0,
			"-0.017": 0.0,
			"-0.016": 0.0,
			"-0.015": 0.0,
			"-0.014": 0.891541013512,
			"-0.013": 2.18676357223,
			"-0.012": 4.33336085136,
			"-0.011": 3.29756786424,
			"-0.01": 3.84892920673,
			"-0.009": 5.30671444581,
			"-0.008": 9.08237652247,
			"-0.007": 11.7753380166,
			"-0.006": 15.0443248811,
			"-0.005": 20.8437274731,
			"-0.004": 21.0613878695,
			"-0.003": 23.0355564714,
			"-0.002": 18.3112463359,
			"-0.001": 13.969326948,
			"0.0": 13.3343001052,
			"0.001": 14.6744422355,
			"0.002": 14.278276939,
			"0.003": 12.7291878995,
			"0.004": 13.8313794005,
			"0.005": 15.0456770797,
			"0.006": 7.20269919157,
			"0.007": 5.51139885856,
			"0.008": 4.90207230615,
			"0.009": 6.122138846,
			"0.01": 5.56341093513,
			"0.011": 6.60098377206,
			"0.012": 7.74551241414,
			"0.013": 6.59744772594,
			"0.014": 4.6491462108,
			"0.015": 0.40574910743,
			"0.016": 0.0,
			"0.017": 0.0,
			"0.018": 0.0,
			"0.019": 0.0,
			"0.02": 0.0,
			"0.021": 0.0,
			"0.022": 0.0,
			"0.023": 0.0,
			"0.024": 0.0,
			"0.025": 0.0
		}
	}
}
