{
	 "smiles": "OC(CCl)C(O)CCl", 
	 "Tm": 399.15, 
	 "num_atms": 16, 
	 "gaussian": { 
		 "optdone": 1, 
		 "sigma_profile": "yes", 
		 "theory": "DFT", 
		 "functional": "B3LYP", 
		 "basiset": "6-31G**", 
		 "properties": { 
			 "R2extent": 1943.3299, 
			 "electric_dipole_moment_norm": 2.07510673942, 
			 "electric_quadrupole_moment_norm": 8.64496469108, 
			 "total_energy": -1228.07009103, 
			 "HOMO_LUMO_gap": 0.27656, 
			 "cosmo_polarized_energy": -12.69, 
			 "cosmo_cavitation_energy": 21.94, 
			 "cosmo_dispersion_energy": -16.49, 
			 "cosmo_repulsion_energy": 1.39, 
			 "cosmo_total_nonelectrostatic_energy": 6.84, 
			 "SMD_solvation_energy": 2.96 
		},
		"coords": [
			{
				"x": 2.5137925373,
				"y": 0.1336508598,
				"z": 0.1496041037,
				"element": "O" 
			},
			{
				"x": 1.3289218081,
				"y": 0.8609885389,
				"z": -0.0655661853,
				"element": "C" 
			},
			{
				"x": 0.4687650381,
				"y": 0.2383321076,
				"z": -1.1729709828,
				"element": "C" 
			},
			{
				"x": -0.2029556422,
				"y": -1.402409778,
				"z": -0.7913946829,
				"element": "Cl" 
			},
			{
				"x": 0.6476868233,
				"y": 1.1437047362,
				"z": 1.2978406212,
				"element": "C" 
			},
			{
				"x": 0.633009509,
				"y": -0.0808648714,
				"z": 2.0121920353,
				"element": "O" 
			},
			{
				"x": -0.7513874161,
				"y": 1.733827158,
				"z": 1.1620173846,
				"element": "C" 
			},
			{
				"x": -1.3993937483,
				"y": 2.2036178738,
				"z": 2.7986854606,
				"element": "Cl" 
			},
			{
				"x": 2.2864565902,
				"y": -0.5562056511,
				"z": 0.7932449036,
				"element": "H" 
			},
			{
				"x": 1.6288353621,
				"y": 1.8365207873,
				"z": -0.4768116603,
				"element": "H" 
			},
			{
				"x": -0.3812028583,
				"y": 0.8743552251,
				"z": -1.4308746102,
				"element": "H" 
			},
			{
				"x": 1.0958235311,
				"y": 0.1075751785,
				"z": -2.0554329847,
				"element": "H" 
			},
			{
				"x": 1.2872981566,
				"y": 1.8747422942,
				"z": 1.8141100225,
				"element": "H" 
			},
			{
				"x": 0.3521916137,
				"y": 0.1024015315,
				"z": 2.9188708274,
				"element": "H" 
			},
			{
				"x": -1.4512587397,
				"y": 1.0024874797,
				"z": 0.7578058469,
				"element": "H" 
			},
			{
				"x": -0.7556825649,
				"y": 2.64307653,
				"z": 0.5576799005,
				"element": "H" 
			}
		],
		 "valence_orbital": [ 
			{
				"type": "occ",
				"energy": -0.31271,
				"method": "rhf"
			},
			{
				"type": "occ",
				"energy": -0.31004,
				"method": "rhf"
			},
			{
				"type": "occ",
				"energy": -0.29862,
				"method": "rhf"
			},
			{
				"type": "occ",
				"energy": -0.29262,
				"method": "rhf"
			},
			{
				"type": "occ",
				"energy": -0.27396,
				"method": "rhf"
			},
			{
				"type": "unocc",
				"energy": 0.0026,
				"method": "rhf"
			},
			{
				"type": "unocc",
				"energy": 0.02596,
				"method": "rhf"
			},
			{
				"type": "unocc",
				"energy": 0.05674,
				"method": "rhf"
			},
			{
				"type": "unocc",
				"energy": 0.08891,
				"method": "rhf"
			},
			{
				"type": "unocc",
				"energy": 0.10776,
				"method": "rhf"
			}
		],
		"cosmo_sigma_profile": { 
			"-0.025": 0.0,
			"-0.024": 0.0,
			"-0.023": 0.0,
			"-0.022": 0.0,
			"-0.021": 0.0,
			"-0.02": 0.0,
			"-0.019": 0.0,
			"-0.018": 0.0,
			"-0.017": 0.0,
			"-0.016": 0.0,
			"-0.015": 0.386614793067,
			"-0.014": 0.616274531554,
			"-0.013": 0.676551277161,
			"-0.012": 0.706875377651,
			"-0.011": 1.8236543855,
			"-0.01": 1.66448333565,
			"-0.009": 4.03322873362,
			"-0.008": 9.53356705928,
			"-0.007": 11.8690869056,
			"-0.006": 11.8800897838,
			"-0.005": 9.54139103483,
			"-0.004": 9.23617192614,
			"-0.003": 6.72914982782,
			"-0.002": 4.91779779216,
			"-0.001": 6.44733156265,
			"0.0": 7.73265811181,
			"0.001": 7.85647919341,
			"0.002": 9.37163512378,
			"0.003": 10.1795648967,
			"0.004": 11.1241475912,
			"0.005": 13.7262082917,
			"0.006": 16.5173613486,
			"0.007": 5.55928812559,
			"0.008": 1.21483595656,
			"0.009": 2.15318123841,
			"0.01": 2.79422754682,
			"0.011": 2.22202027405,
			"0.012": 1.79367720968,
			"0.013": 2.77961533633,
			"0.014": 0.562663660953,
			"0.015": 0.0,
			"0.016": 0.0,
			"0.017": 0.0,
			"0.018": 0.0,
			"0.019": 0.0,
			"0.02": 0.0,
			"0.021": 0.0,
			"0.022": 0.0,
			"0.023": 0.0,
			"0.024": 0.0,
			"0.025": 0.0
		}
	}
}
