{
	 "smiles": "OC(=O)C1CCN(CC1)S(=O)(=O)CC1=CC=CC=C1", 
	 "Tm": 465.15, 
	 "num_atms": 36, 
	 "gaussian": { 
		 "optdone": 1, 
		 "sigma_profile": "yes", 
		 "theory": "DFT", 
		 "functional": "B3LYP", 
		 "basiset": "6-31G**", 
		 "properties": { 
			 "R2extent": 5911.3667, 
			 "electric_dipole_moment_norm": 3.90337067674, 
			 "electric_quadrupole_moment_norm": 26.3450127244, 
			 "total_energy": -1259.40585878, 
			 "HOMO_LUMO_gap": 0.218, 
			 "cosmo_polarized_energy": -23.61, 
			 "cosmo_cavitation_energy": 38.49, 
			 "cosmo_dispersion_energy": -26.13, 
			 "cosmo_repulsion_energy": 1.93, 
			 "cosmo_total_nonelectrostatic_energy": 14.29, 
			 "SMD_solvation_energy": 5.69 
		},
		"coords": [
			{
				"x": 3.0565964696,
				"y": -2.1827442703,
				"z": 0.7883140012,
				"element": "O" 
			},
			{
				"x": 3.2773338911,
				"y": -0.9951482401,
				"z": 1.419012334,
				"element": "C" 
			},
			{
				"x": 4.3875359498,
				"y": -0.7034192003,
				"z": 1.7884999558,
				"element": "O" 
			},
			{
				"x": 2.0368118373,
				"y": -0.1349319044,
				"z": 1.6088632299,
				"element": "C" 
			},
			{
				"x": 1.0031108844,
				"y": -0.8444063652,
				"z": 2.5326279981,
				"element": "C" 
			},
			{
				"x": 0.0552926192,
				"y": 0.1924323925,
				"z": 3.1712667699,
				"element": "C" 
			},
			{
				"x": -0.0996788969,
				"y": 1.3393502123,
				"z": 2.2720538665,
				"element": "N" 
			},
			{
				"x": 1.1042777411,
				"y": 2.1614300755,
				"z": 2.0449134257,
				"element": "C" 
			},
			{
				"x": 2.355406594,
				"y": 1.2639715261,
				"z": 2.1465865453,
				"element": "C" 
			},
			{
				"x": -1.5977937647,
				"y": 1.9385617961,
				"z": 1.8657749048,
				"element": "S" 
			},
			{
				"x": -2.5956666432,
				"y": 1.1993278225,
				"z": 2.6501801098,
				"element": "O" 
			},
			{
				"x": -1.5396138312,
				"y": 3.4033952631,
				"z": 1.8842008844,
				"element": "O" 
			},
			{
				"x": -1.8490869877,
				"y": 1.4750290036,
				"z": 0.1031705059,
				"element": "C" 
			},
			{
				"x": -1.6028856035,
				"y": 0.0234386791,
				"z": -0.2097613894,
				"element": "C" 
			},
			{
				"x": -0.5569653282,
				"y": -0.3388274687,
				"z": -1.0700351159,
				"element": "C" 
			},
			{
				"x": -0.3057547211,
				"y": -1.6809840244,
				"z": -1.3675777976,
				"element": "C" 
			},
			{
				"x": -1.1001353534,
				"y": -2.6808889994,
				"z": -0.8011585978,
				"element": "C" 
			},
			{
				"x": -2.1510724958,
				"y": -2.3285182857,
				"z": 0.0507257627,
				"element": "C" 
			},
			{
				"x": -2.4055035087,
				"y": -0.9878692058,
				"z": 0.3410255348,
				"element": "C" 
			},
			{
				"x": 2.1254469843,
				"y": -2.255698935,
				"z": 0.529965898,
				"element": "H" 
			},
			{
				"x": 1.5697174536,
				"y": -0.0220366777,
				"z": 0.6215595945,
				"element": "H" 
			},
			{
				"x": 1.5186258084,
				"y": -1.3920653716,
				"z": 3.3301841334,
				"element": "H" 
			},
			{
				"x": 0.4223902271,
				"y": -1.573453099,
				"z": 1.9575988987,
				"element": "H" 
			},
			{
				"x": -0.9283778787,
				"y": -0.2301005995,
				"z": 3.3712423557,
				"element": "H" 
			},
			{
				"x": 0.4575014161,
				"y": 0.5397225667,
				"z": 4.1324448556,
				"element": "H" 
			},
			{
				"x": 1.156768699,
				"y": 2.9920944777,
				"z": 2.7594028195,
				"element": "H" 
			},
			{
				"x": 1.0421196896,
				"y": 2.6006777273,
				"z": 1.0438367779,
				"element": "H" 
			},
			{
				"x": 3.1791429191,
				"y": 1.7167712352,
				"z": 1.589120509,
				"element": "H" 
			},
			{
				"x": 2.6974903921,
				"y": 1.1856132316,
				"z": 3.183727033,
				"element": "H" 
			},
			{
				"x": -1.1938397451,
				"y": 2.1332627972,
				"z": -0.4717653857,
				"element": "H" 
			},
			{
				"x": -2.8840095749,
				"y": 1.7788356174,
				"z": -0.0835968964,
				"element": "H" 
			},
			{
				"x": 0.0570226607,
				"y": 0.436120459,
				"z": -1.5225448713,
				"element": "H" 
			},
			{
				"x": 0.4969841333,
				"y": -1.9414128729,
				"z": -2.0522087785,
				"element": "H" 
			},
			{
				"x": -0.9129698582,
				"y": -3.7250851627,
				"z": -1.0343814362,
				"element": "H" 
			},
			{
				"x": -2.7794586968,
				"y": -3.1002437028,
				"z": 0.4856154,
				"element": "H" 
			},
			{
				"x": -3.2157634814,
				"y": -0.7186004973,
				"z": 1.0109161648,
				"element": "H" 
			}
		],
		 "valence_orbital": [ 
			{
				"type": "occ",
				"energy": -0.30419,
				"method": "rhf"
			},
			{
				"type": "occ",
				"energy": -0.27627,
				"method": "rhf"
			},
			{
				"type": "occ",
				"energy": -0.27224,
				"method": "rhf"
			},
			{
				"type": "occ",
				"energy": -0.26626,
				"method": "rhf"
			},
			{
				"type": "occ",
				"energy": -0.2545,
				"method": "rhf"
			},
			{
				"type": "unocc",
				"energy": -0.0365,
				"method": "rhf"
			},
			{
				"type": "unocc",
				"energy": -0.02996,
				"method": "rhf"
			},
			{
				"type": "unocc",
				"energy": 0.00735,
				"method": "rhf"
			},
			{
				"type": "unocc",
				"energy": 0.0421,
				"method": "rhf"
			},
			{
				"type": "unocc",
				"energy": 0.05729,
				"method": "rhf"
			}
		],
		"cosmo_sigma_profile": { 
			"-0.025": 0.0,
			"-0.024": 0.0,
			"-0.023": 0.0,
			"-0.022": 0.0,
			"-0.021": 0.0,
			"-0.02": 0.0,
			"-0.019": 0.0,
			"-0.018": 0.0,
			"-0.017": 0.0,
			"-0.016": 0.0,
			"-0.015": 0.0,
			"-0.014": 0.0,
			"-0.013": 0.0,
			"-0.012": 0.24517424717,
			"-0.011": 0.882653812618,
			"-0.01": 0.968675512205,
			"-0.009": 2.80840980165,
			"-0.008": 7.35008581498,
			"-0.007": 10.0153582953,
			"-0.006": 18.1636527817,
			"-0.005": 33.3749566546,
			"-0.004": 38.4292876575,
			"-0.003": 27.2722370174,
			"-0.002": 19.039926379,
			"-0.001": 15.4562492651,
			"0.0": 15.65742804,
			"0.001": 15.0123468419,
			"0.002": 11.240019471,
			"0.003": 8.45958236981,
			"0.004": 9.57386744699,
			"0.005": 9.64525098475,
			"0.006": 4.60859295923,
			"0.007": 4.50657101521,
			"0.008": 5.52846305188,
			"0.009": 6.87986740011,
			"0.01": 9.35875144144,
			"0.011": 13.7706146829,
			"0.012": 12.4327051744,
			"0.013": 2.21875281957,
			"0.014": 0.0402031035453,
			"0.015": 0.0,
			"0.016": 0.0,
			"0.017": 0.0,
			"0.018": 0.0,
			"0.019": 0.0,
			"0.02": 0.0,
			"0.021": 0.0,
			"0.022": 0.0,
			"0.023": 0.0,
			"0.024": 0.0,
			"0.025": 0.0
		}
	}
}
