{
	 "smiles": "CN1N=C(C)C2=C1N=CC(=C2)S(Cl)(=O)=O", 
	 "Tm": 408.15, 
	 "num_atms": 23, 
	 "gaussian": { 
		 "optdone": 1, 
		 "sigma_profile": "yes", 
		 "theory": "DFT", 
		 "functional": "B3LYP", 
		 "basiset": "6-31G**", 
		 "properties": { 
			 "R2extent": 5526.2615, 
			 "electric_dipole_moment_norm": 5.15520979011, 
			 "electric_quadrupole_moment_norm": 15.1858770919, 
			 "total_energy": -1482.6803697, 
			 "HOMO_LUMO_gap": 0.16366, 
			 "cosmo_polarized_energy": -11.33, 
			 "cosmo_cavitation_energy": 31.17, 
			 "cosmo_dispersion_energy": -23.17, 
			 "cosmo_repulsion_energy": 1.78, 
			 "cosmo_total_nonelectrostatic_energy": 9.78, 
			 "SMD_solvation_energy": 1.88 
		},
		"coords": [
			{
				"x": 3.3406700756,
				"y": -0.5189158139,
				"z": 2.1426802701,
				"element": "C" 
			},
			{
				"x": 2.0788624041,
				"y": -0.8609995065,
				"z": 1.5153905296,
				"element": "N" 
			},
			{
				"x": 1.9274202225,
				"y": -2.0480860319,
				"z": 0.8538783816,
				"element": "N" 
			},
			{
				"x": 0.6915999238,
				"y": -2.0911420755,
				"z": 0.3835175409,
				"element": "C" 
			},
			{
				"x": 0.1973780458,
				"y": -3.2670736697,
				"z": -0.396514836,
				"element": "C" 
			},
			{
				"x": -0.0105839793,
				"y": -0.8936554635,
				"z": 0.7447105937,
				"element": "C" 
			},
			{
				"x": 0.9391318085,
				"y": -0.1272351,
				"z": 1.4788749367,
				"element": "C" 
			},
			{
				"x": 0.7518507365,
				"y": 1.0844727094,
				"z": 2.0244416508,
				"element": "N" 
			},
			{
				"x": -0.461422935,
				"y": 1.5893665434,
				"z": 1.8445484111,
				"element": "C" 
			},
			{
				"x": -1.4823872683,
				"y": 0.9107858477,
				"z": 1.132688128,
				"element": "C" 
			},
			{
				"x": -1.2802602411,
				"y": -0.3460942057,
				"z": 0.5676708759,
				"element": "C" 
			},
			{
				"x": -3.0639747454,
				"y": 1.6924165726,
				"z": 0.9464285841,
				"element": "S" 
			},
			{
				"x": -4.0772005029,
				"y": 1.0554451582,
				"z": 2.7185994435,
				"element": "Cl" 
			},
			{
				"x": -3.7775702737,
				"y": 1.0755394571,
				"z": -0.1654382758,
				"element": "O" 
			},
			{
				"x": -2.9089062595,
				"y": 3.1361380196,
				"z": 1.0723062881,
				"element": "O" 
			},
			{
				"x": 4.1359601727,
				"y": -0.4862492192,
				"z": 1.3936185368,
				"element": "H" 
			},
			{
				"x": 3.2263916238,
				"y": 0.4621488049,
				"z": 2.6044888129,
				"element": "H" 
			},
			{
				"x": 3.5946071989,
				"y": -1.2605427477,
				"z": 2.9042885135,
				"element": "H" 
			},
			{
				"x": -0.1258885432,
				"y": -2.9709109693,
				"z": -1.4006478421,
				"element": "H" 
			},
			{
				"x": -0.6582380375,
				"y": -3.7409133132,
				"z": 0.0974354643,
				"element": "H" 
			},
			{
				"x": 0.9951052173,
				"y": -4.005988608,
				"z": -0.4925452273,
				"element": "H" 
			},
			{
				"x": -0.6593151431,
				"y": 2.5735532567,
				"z": 2.2594536264,
				"element": "H" 
			},
			{
				"x": -2.0729295006,
				"y": -0.8460596455,
				"z": 0.0209255933,
				"element": "H" 
			}
		],
		 "valence_orbital": [ 
			{
				"type": "occ",
				"energy": -0.31651,
				"method": "rhf"
			},
			{
				"type": "occ",
				"energy": -0.31387,
				"method": "rhf"
			},
			{
				"type": "occ",
				"energy": -0.29616,
				"method": "rhf"
			},
			{
				"type": "occ",
				"energy": -0.28059,
				"method": "rhf"
			},
			{
				"type": "occ",
				"energy": -0.25534,
				"method": "rhf"
			},
			{
				"type": "unocc",
				"energy": -0.09168,
				"method": "rhf"
			},
			{
				"type": "unocc",
				"energy": -0.07277,
				"method": "rhf"
			},
			{
				"type": "unocc",
				"energy": -0.03255,
				"method": "rhf"
			},
			{
				"type": "unocc",
				"energy": 0.02002,
				"method": "rhf"
			},
			{
				"type": "unocc",
				"energy": 0.05845,
				"method": "rhf"
			}
		],
		"cosmo_sigma_profile": { 
			"-0.025": 0.0,
			"-0.024": 0.0,
			"-0.023": 0.0,
			"-0.022": 0.0,
			"-0.021": 0.0,
			"-0.02": 0.0,
			"-0.019": 0.0,
			"-0.018": 0.0,
			"-0.017": 0.0,
			"-0.016": 0.0,
			"-0.015": 0.0,
			"-0.014": 0.0,
			"-0.013": 0.0,
			"-0.012": 0.0,
			"-0.011": 0.0,
			"-0.01": 0.201462217278,
			"-0.009": 1.84220390094,
			"-0.008": 3.31174304742,
			"-0.007": 5.72011711006,
			"-0.006": 12.7722752467,
			"-0.005": 17.9767756887,
			"-0.004": 19.19531184,
			"-0.003": 24.632569513,
			"-0.002": 28.1257307735,
			"-0.001": 25.1995576294,
			"0.0": 15.0581625644,
			"0.001": 11.9073186472,
			"0.002": 13.3217553739,
			"0.003": 16.4515715495,
			"0.004": 12.7212978553,
			"0.005": 6.33283466487,
			"0.006": 6.41531383066,
			"0.007": 7.87282155167,
			"0.008": 11.1576577126,
			"0.009": 6.42949590708,
			"0.01": 1.81010192811,
			"0.011": 1.90591242839,
			"0.012": 1.16271182765,
			"0.013": 0.572157185635,
			"0.014": 0.656304495196,
			"0.015": 0.0459082939892,
			"0.016": 0.0,
			"0.017": 0.0,
			"0.018": 0.0,
			"0.019": 0.0,
			"0.02": 0.0,
			"0.021": 0.0,
			"0.022": 0.0,
			"0.023": 0.0,
			"0.024": 0.0,
			"0.025": 0.0
		}
	}
}
