{
	 "smiles": "ClCC(=O)C1=CN(CCC#N)C2=C1C=CC=C2", 
	 "Tm": 412.15, 
	 "num_atms": 28, 
	 "gaussian": { 
		 "optdone": 1, 
		 "sigma_profile": "yes", 
		 "theory": "DFT", 
		 "functional": "B3LYP", 
		 "basiset": "6-31G**", 
		 "properties": { 
			 "R2extent": 5570.8657, 
			 "electric_dipole_moment_norm": 1.84017076653, 
			 "electric_quadrupole_moment_norm": 23.3015368768, 
			 "total_energy": -1146.92129473, 
			 "HOMO_LUMO_gap": 0.16555, 
			 "cosmo_polarized_energy": -20.61, 
			 "cosmo_cavitation_energy": 35.18, 
			 "cosmo_dispersion_energy": -24.14, 
			 "cosmo_repulsion_energy": 1.88, 
			 "cosmo_total_nonelectrostatic_energy": 12.92, 
			 "SMD_solvation_energy": 7.27 
		},
		"coords": [
			{
				"x": -3.4696819213,
				"y": 0.4635091785,
				"z": 0.1320605865,
				"element": "Cl" 
			},
			{
				"x": -2.8965260736,
				"y": -1.2594810798,
				"z": 0.0148975804,
				"element": "C" 
			},
			{
				"x": -1.7811821706,
				"y": -1.4670242938,
				"z": -1.0195409048,
				"element": "C" 
			},
			{
				"x": -2.0004654139,
				"y": -2.2394052816,
				"z": -1.9459925937,
				"element": "O" 
			},
			{
				"x": -0.4944954501,
				"y": -0.8046581354,
				"z": -0.8411664834,
				"element": "C" 
			},
			{
				"x": -0.1217546933,
				"y": 0.0645465391,
				"z": 0.1696460241,
				"element": "C" 
			},
			{
				"x": 1.1836182814,
				"y": 0.4469513158,
				"z": 0.0116053135,
				"element": "N" 
			},
			{
				"x": 1.8764790718,
				"y": 1.4276057718,
				"z": 0.8248954613,
				"element": "C" 
			},
			{
				"x": 1.8489737132,
				"y": 2.8350370951,
				"z": 0.1783118598,
				"element": "C" 
			},
			{
				"x": 2.5756448626,
				"y": 3.8133117573,
				"z": 0.9887292971,
				"element": "C" 
			},
			{
				"x": 3.1593054661,
				"y": 4.5646812491,
				"z": 1.6531702853,
				"element": "N" 
			},
			{
				"x": 1.6963190245,
				"y": -0.1660245163,
				"z": -1.135042031,
				"element": "C" 
			},
			{
				"x": 0.6674206535,
				"y": -0.9631662941,
				"z": -1.6930922035,
				"element": "C" 
			},
			{
				"x": 0.9285921132,
				"y": -1.7043641013,
				"z": -2.8558115508,
				"element": "C" 
			},
			{
				"x": 2.1950879049,
				"y": -1.6231463257,
				"z": -3.4243787578,
				"element": "C" 
			},
			{
				"x": 3.2048771768,
				"y": -0.8234900077,
				"z": -2.8549645507,
				"element": "C" 
			},
			{
				"x": 2.9723502886,
				"y": -0.0816953471,
				"z": -1.7006208771,
				"element": "C" 
			},
			{
				"x": -3.7505995698,
				"y": -1.8602796261,
				"z": -0.2915178923,
				"element": "H" 
			},
			{
				"x": -2.5710292563,
				"y": -1.5477183332,
				"z": 1.0171089825,
				"element": "H" 
			},
			{
				"x": -0.7043421953,
				"y": 0.4530436829,
				"z": 0.9929310095,
				"element": "H" 
			},
			{
				"x": 2.9107230541,
				"y": 1.1037227923,
				"z": 0.9714865984,
				"element": "H" 
			},
			{
				"x": 1.4020340818,
				"y": 1.4599790092,
				"z": 1.8085431292,
				"element": "H" 
			},
			{
				"x": 0.8121529401,
				"y": 3.1670904615,
				"z": 0.0566724451,
				"element": "H" 
			},
			{
				"x": 2.2944550504,
				"y": 2.7946663466,
				"z": -0.821389341,
				"element": "H" 
			},
			{
				"x": 0.147283334,
				"y": -2.3193081114,
				"z": -3.285497287,
				"element": "H" 
			},
			{
				"x": 2.4133130029,
				"y": -2.1879398445,
				"z": -4.3257812418,
				"element": "H" 
			},
			{
				"x": 4.1837524028,
				"y": -0.7840239081,
				"z": -3.3231732021,
				"element": "H" 
			},
			{
				"x": 3.7569943213,
				"y": 0.5284800068,
				"z": -1.2633896556,
				"element": "H" 
			}
		],
		 "valence_orbital": [ 
			{
				"type": "occ",
				"energy": -0.30972,
				"method": "rhf"
			},
			{
				"type": "occ",
				"energy": -0.2896,
				"method": "rhf"
			},
			{
				"type": "occ",
				"energy": -0.25708,
				"method": "rhf"
			},
			{
				"type": "occ",
				"energy": -0.24346,
				"method": "rhf"
			},
			{
				"type": "occ",
				"energy": -0.22779,
				"method": "rhf"
			},
			{
				"type": "unocc",
				"energy": -0.06224,
				"method": "rhf"
			},
			{
				"type": "unocc",
				"energy": -0.02266,
				"method": "rhf"
			},
			{
				"type": "unocc",
				"energy": 0.0027,
				"method": "rhf"
			},
			{
				"type": "unocc",
				"energy": 0.01565,
				"method": "rhf"
			},
			{
				"type": "unocc",
				"energy": 0.02016,
				"method": "rhf"
			}
		],
		"cosmo_sigma_profile": { 
			"-0.025": 0.0,
			"-0.024": 0.0,
			"-0.023": 0.0,
			"-0.022": 0.0,
			"-0.021": 0.0,
			"-0.02": 0.0,
			"-0.019": 0.0,
			"-0.018": 0.0,
			"-0.017": 0.0,
			"-0.016": 0.0,
			"-0.015": 0.0,
			"-0.014": 0.0,
			"-0.013": 0.0,
			"-0.012": 0.0,
			"-0.011": 0.644993241289,
			"-0.01": 2.441938975,
			"-0.009": 11.6454682945,
			"-0.008": 17.6955794887,
			"-0.007": 15.2669410805,
			"-0.006": 15.4401592587,
			"-0.005": 18.0462048366,
			"-0.004": 15.8037618012,
			"-0.003": 13.456704731,
			"-0.002": 10.2545660402,
			"-0.001": 12.4378486249,
			"0.0": 14.4522911213,
			"0.001": 12.8577540823,
			"0.002": 17.2206641588,
			"0.003": 17.9320315395,
			"0.004": 19.9669851535,
			"0.005": 20.6712797604,
			"0.006": 14.859100672,
			"0.007": 4.2640404243,
			"0.008": 4.81183726928,
			"0.009": 5.33140419009,
			"0.01": 5.93394207837,
			"0.011": 4.91435935164,
			"0.012": 5.23714719417,
			"0.013": 2.60722223783,
			"0.014": 0.117829627843,
			"0.015": 0.0,
			"0.016": 0.0,
			"0.017": 0.0,
			"0.018": 0.0,
			"0.019": 0.0,
			"0.02": 0.0,
			"0.021": 0.0,
			"0.022": 0.0,
			"0.023": 0.0,
			"0.024": 0.0,
			"0.025": 0.0
		}
	}
}
