{
	 "smiles": "OC(=O)CCCNC(=O)C1=CN=CC=C1", 
	 "Tm": 485.15, 
	 "num_atms": 27, 
	 "gaussian": { 
		 "optdone": 1, 
		 "sigma_profile": "yes", 
		 "theory": "DFT", 
		 "functional": "B3LYP", 
		 "basiset": "6-31G**", 
		 "properties": { 
			 "R2extent": 4907.3857, 
			 "electric_dipole_moment_norm": 6.76520829539, 
			 "electric_quadrupole_moment_norm": 18.3844645399, 
			 "total_energy": -723.496230183, 
			 "HOMO_LUMO_gap": 0.20332, 
			 "cosmo_polarized_energy": -19.53, 
			 "cosmo_cavitation_energy": 31.23, 
			 "cosmo_dispersion_energy": -22.12, 
			 "cosmo_repulsion_energy": 1.74, 
			 "cosmo_total_nonelectrostatic_energy": 10.85, 
			 "SMD_solvation_energy": 4.99 
		},
		"coords": [
			{
				"x": -3.6030624197,
				"y": -1.7460873697,
				"z": -0.304409237,
				"element": "O" 
			},
			{
				"x": -3.0695861638,
				"y": -0.6769927722,
				"z": 0.3267946432,
				"element": "C" 
			},
			{
				"x": -2.1843130951,
				"y": -0.7820706445,
				"z": 1.1507140158,
				"element": "O" 
			},
			{
				"x": -3.7286647231,
				"y": 0.6153175434,
				"z": -0.110927155,
				"element": "C" 
			},
			{
				"x": -3.0396231073,
				"y": 1.8614374835,
				"z": 0.450220161,
				"element": "C" 
			},
			{
				"x": -1.6876588124,
				"y": 2.1542650621,
				"z": -0.2180883585,
				"element": "C" 
			},
			{
				"x": -1.0226830614,
				"y": 3.3043867969,
				"z": 0.3808035889,
				"element": "N" 
			},
			{
				"x": 0.2759376865,
				"y": 3.4465388842,
				"z": 0.8164006785,
				"element": "C" 
			},
			{
				"x": 0.7659655431,
				"y": 4.5660985605,
				"z": 0.936499981,
				"element": "O" 
			},
			{
				"x": 1.0804194103,
				"y": 2.2278324641,
				"z": 1.1696723157,
				"element": "C" 
			},
			{
				"x": 2.4657872032,
				"y": 2.2949118076,
				"z": 0.9457436656,
				"element": "C" 
			},
			{
				"x": 3.3229099701,
				"y": 1.3180823925,
				"z": 1.2512520482,
				"element": "N" 
			},
			{
				"x": 2.8178213333,
				"y": 0.2193087056,
				"z": 1.8308251927,
				"element": "C" 
			},
			{
				"x": 1.4645996472,
				"y": 0.0545806841,
				"z": 2.1226080694,
				"element": "C" 
			},
			{
				"x": 0.577335337,
				"y": 1.0761857765,
				"z": 1.7859025683,
				"element": "C" 
			},
			{
				"x": -3.1438198412,
				"y": -2.5293871942,
				"z": 0.043294614,
				"element": "H" 
			},
			{
				"x": -4.7738464245,
				"y": 0.5654914619,
				"z": 0.218577021,
				"element": "H" 
			},
			{
				"x": -3.7685189506,
				"y": 0.6255094847,
				"z": -1.2070572634,
				"element": "H" 
			},
			{
				"x": -2.8886268295,
				"y": 1.7413891644,
				"z": 1.5273198385,
				"element": "H" 
			},
			{
				"x": -3.701747832,
				"y": 2.7250360301,
				"z": 0.3154795151,
				"element": "H" 
			},
			{
				"x": -1.8434413903,
				"y": 2.336106696,
				"z": -1.2921256209,
				"element": "H" 
			},
			{
				"x": -1.0316984473,
				"y": 1.2878872158,
				"z": -0.1375537143,
				"element": "H" 
			},
			{
				"x": -1.4302517535,
				"y": 4.2112885309,
				"z": 0.1843394358,
				"element": "H" 
			},
			{
				"x": 2.8812204166,
				"y": 3.1940693606,
				"z": 0.4978015416,
				"element": "H" 
			},
			{
				"x": 3.5336385704,
				"y": -0.5630997095,
				"z": 2.0779513775,
				"element": "H" 
			},
			{
				"x": 1.1090440584,
				"y": -0.8509217964,
				"z": 2.6035410214,
				"element": "H" 
			},
			{
				"x": -0.4778363245,
				"y": 0.963735381,
				"z": 2.0089200558,
				"element": "H" 
			}
		],
		 "valence_orbital": [ 
			{
				"type": "occ",
				"energy": -0.28442,
				"method": "rhf"
			},
			{
				"type": "occ",
				"energy": -0.26749,
				"method": "rhf"
			},
			{
				"type": "occ",
				"energy": -0.25629,
				"method": "rhf"
			},
			{
				"type": "occ",
				"energy": -0.25003,
				"method": "rhf"
			},
			{
				"type": "occ",
				"energy": -0.24009,
				"method": "rhf"
			},
			{
				"type": "unocc",
				"energy": -0.03677,
				"method": "rhf"
			},
			{
				"type": "unocc",
				"energy": -0.01813,
				"method": "rhf"
			},
			{
				"type": "unocc",
				"energy": -0.00878,
				"method": "rhf"
			},
			{
				"type": "unocc",
				"energy": 0.04998,
				"method": "rhf"
			},
			{
				"type": "unocc",
				"energy": 0.06357,
				"method": "rhf"
			}
		],
		"cosmo_sigma_profile": { 
			"-0.025": 0.0,
			"-0.024": 0.0,
			"-0.023": 0.0,
			"-0.022": 0.0,
			"-0.021": 0.0,
			"-0.02": 0.0,
			"-0.019": 0.0118132738392,
			"-0.018": 0.725710272428,
			"-0.017": 0.912839570273,
			"-0.016": 0.755136615723,
			"-0.015": 0.842988503672,
			"-0.014": 1.03204185661,
			"-0.013": 1.57515083993,
			"-0.012": 1.63789231463,
			"-0.011": 1.84250170876,
			"-0.01": 1.58446513755,
			"-0.009": 1.80042582242,
			"-0.008": 2.21931050064,
			"-0.007": 6.4368540155,
			"-0.006": 13.2280546441,
			"-0.005": 19.8780089642,
			"-0.004": 20.5244448961,
			"-0.003": 22.6213423465,
			"-0.002": 18.8689939602,
			"-0.001": 14.7330872488,
			"0.0": 13.7836647536,
			"0.001": 17.2117181667,
			"0.002": 15.4177778982,
			"0.003": 8.82994932825,
			"0.004": 8.79999395501,
			"0.005": 6.16267149138,
			"0.006": 4.94201930829,
			"0.007": 5.79522914835,
			"0.008": 5.04049465505,
			"0.009": 5.68570819662,
			"0.01": 4.73266920012,
			"0.011": 3.81882824115,
			"0.012": 4.02413153886,
			"0.013": 5.00564952975,
			"0.014": 4.93277732637,
			"0.015": 1.15865901109,
			"0.016": 0.73048061544,
			"0.017": 0.0393900297513,
			"0.018": 0.0,
			"0.019": 0.0,
			"0.02": 0.0,
			"0.021": 0.0,
			"0.022": 0.0,
			"0.023": 0.0,
			"0.024": 0.0,
			"0.025": 0.0
		}
	}
}
