{
	 "smiles": "CC#CC1=NC(NC2=CC=CC=C2)=NC(C)=C1", 
	 "Tm": 406.15, 
	 "num_atms": 30, 
	 "gaussian": { 
		 "optdone": 1, 
		 "sigma_profile": "yes", 
		 "theory": "DFT", 
		 "functional": "B3LYP", 
		 "basiset": "6-31G**", 
		 "properties": { 
			 "R2extent": 6035.7865, 
			 "electric_dipole_moment_norm": 2.5774537571, 
			 "electric_quadrupole_moment_norm": 14.2465744451, 
			 "total_energy": -705.544482391, 
			 "HOMO_LUMO_gap": 0.15204, 
			 "cosmo_polarized_energy": -10.87, 
			 "cosmo_cavitation_energy": 35.6, 
			 "cosmo_dispersion_energy": -25.75, 
			 "cosmo_repulsion_energy": 2.02, 
			 "cosmo_total_nonelectrostatic_energy": 11.87, 
			 "SMD_solvation_energy": 4.37 
		},
		"coords": [
			{
				"x": 5.1132021173,
				"y": -3.3325341573,
				"z": 2.8979267226,
				"element": "C" 
			},
			{
				"x": 4.0998208803,
				"y": -2.7045344627,
				"z": 2.0593524351,
				"element": "C" 
			},
			{
				"x": 3.2492208305,
				"y": -2.1793408226,
				"z": 1.3752445344,
				"element": "C" 
			},
			{
				"x": 2.2593594663,
				"y": -1.5687504489,
				"z": 0.5378420051,
				"element": "C" 
			},
			{
				"x": 1.2416816128,
				"y": -0.9332255646,
				"z": 1.1373757353,
				"element": "N" 
			},
			{
				"x": 0.3300949531,
				"y": -0.3709639013,
				"z": 0.318505036,
				"element": "C" 
			},
			{
				"x": -0.6847991377,
				"y": 0.2632974622,
				"z": 0.99471109,
				"element": "N" 
			},
			{
				"x": -1.8214414976,
				"y": 0.9677369161,
				"z": 0.5701260467,
				"element": "C" 
			},
			{
				"x": -2.1718140721,
				"y": 1.1782088314,
				"z": -0.7739438837,
				"element": "C" 
			},
			{
				"x": -3.3289082116,
				"y": 1.8960264533,
				"z": -1.0785974762,
				"element": "C" 
			},
			{
				"x": -4.1507729924,
				"y": 2.4125729019,
				"z": -0.0767730303,
				"element": "C" 
			},
			{
				"x": -3.8008055137,
				"y": 2.2022837732,
				"z": 1.2590497959,
				"element": "C" 
			},
			{
				"x": -2.6510528514,
				"y": 1.4891274648,
				"z": 1.580913911,
				"element": "C" 
			},
			{
				"x": 0.3412910082,
				"y": -0.3848206082,
				"z": -1.025886873,
				"element": "N" 
			},
			{
				"x": 1.3653027175,
				"y": -1.0242023298,
				"z": -1.6099604968,
				"element": "C" 
			},
			{
				"x": 1.3886483528,
				"y": -1.0464673689,
				"z": -3.1169627474,
				"element": "C" 
			},
			{
				"x": 2.3669425551,
				"y": -1.6428827216,
				"z": -0.8603702726,
				"element": "C" 
			},
			{
				"x": 6.0595946736,
				"y": -3.4503367198,
				"z": 2.3589074857,
				"element": "H" 
			},
			{
				"x": 4.7887553513,
				"y": -4.3271332764,
				"z": 3.2247431784,
				"element": "H" 
			},
			{
				"x": 5.3069768163,
				"y": -2.7347968105,
				"z": 3.7953451577,
				"element": "H" 
			},
			{
				"x": -0.5589872811,
				"y": 0.1903815372,
				"z": 1.9950100872,
				"element": "H" 
			},
			{
				"x": -1.5384290234,
				"y": 0.7800871298,
				"z": -1.5530299441,
				"element": "H" 
			},
			{
				"x": -3.5868316966,
				"y": 2.0506675917,
				"z": -2.1229262819,
				"element": "H" 
			},
			{
				"x": -5.0478769491,
				"y": 2.969015882,
				"z": -0.3301949905,
				"element": "H" 
			},
			{
				"x": -4.4244924945,
				"y": 2.594478513,
				"z": 2.0574701903,
				"element": "H" 
			},
			{
				"x": -2.3863456585,
				"y": 1.3302682936,
				"z": 2.6240958675,
				"element": "H" 
			},
			{
				"x": 2.3023882044,
				"y": -0.5783217594,
				"z": -3.4992742779,
				"element": "H" 
			},
			{
				"x": 0.5247559108,
				"y": -0.5114152268,
				"z": -3.513424334,
				"element": "H" 
			},
			{
				"x": 1.371359841,
				"y": -2.0758432831,
				"z": -3.4915743317,
				"element": "H" 
			},
			{
				"x": 3.1955620888,
				"y": -2.1603832883,
				"z": -1.3283003385,
				"element": "H" 
			}
		],
		 "valence_orbital": [ 
			{
				"type": "occ",
				"energy": -0.26682,
				"method": "rhf"
			},
			{
				"type": "occ",
				"energy": -0.24747,
				"method": "rhf"
			},
			{
				"type": "occ",
				"energy": -0.2466,
				"method": "rhf"
			},
			{
				"type": "occ",
				"energy": -0.24159,
				"method": "rhf"
			},
			{
				"type": "occ",
				"energy": -0.19768,
				"method": "rhf"
			},
			{
				"type": "unocc",
				"energy": -0.04564,
				"method": "rhf"
			},
			{
				"type": "unocc",
				"energy": -0.01644,
				"method": "rhf"
			},
			{
				"type": "unocc",
				"energy": 0.00805,
				"method": "rhf"
			},
			{
				"type": "unocc",
				"energy": 0.02991,
				"method": "rhf"
			},
			{
				"type": "unocc",
				"energy": 0.04991,
				"method": "rhf"
			}
		],
		"cosmo_sigma_profile": { 
			"-0.025": 0.0,
			"-0.024": 0.0,
			"-0.023": 0.0,
			"-0.022": 0.0,
			"-0.021": 0.0,
			"-0.02": 0.0,
			"-0.019": 0.0,
			"-0.018": 0.0,
			"-0.017": 0.0,
			"-0.016": 0.0,
			"-0.015": 0.0,
			"-0.014": 0.369668762429,
			"-0.013": 1.01639872946,
			"-0.012": 0.894503530989,
			"-0.011": 1.19139962064,
			"-0.01": 1.33679033172,
			"-0.009": 1.1250196251,
			"-0.008": 0.937652921332,
			"-0.007": 4.41539451623,
			"-0.006": 11.7973427497,
			"-0.005": 19.8693166644,
			"-0.004": 23.1754793886,
			"-0.003": 26.2500886922,
			"-0.002": 22.4727464943,
			"-0.001": 21.8168693357,
			"0.0": 19.977986426,
			"0.001": 21.7518100883,
			"0.002": 21.8010848031,
			"0.003": 17.6772418846,
			"0.004": 17.5332401345,
			"0.005": 20.7934889059,
			"0.006": 14.8209976597,
			"0.007": 5.93936128359,
			"0.008": 2.83267268936,
			"0.009": 1.89756753983,
			"0.01": 0.889688463556,
			"0.011": 0.907466765739,
			"0.012": 1.24043027327,
			"0.013": 0.710344570076,
			"0.014": 0.414696600574,
			"0.015": 0.0,
			"0.016": 0.0,
			"0.017": 0.0,
			"0.018": 0.0,
			"0.019": 0.0,
			"0.02": 0.0,
			"0.021": 0.0,
			"0.022": 0.0,
			"0.023": 0.0,
			"0.024": 0.0,
			"0.025": 0.0
		}
	}
}
