{
	 "smiles": "NC1=C(C=CC(=C1)S(=O)(=O)NC1=CC=C(Cl)C=C1)N1CCOCC1", 
	 "Tm": 329.65, 
	 "num_atms": 42, 
	 "gaussian": { 
		 "optdone": 1, 
		 "sigma_profile": "yes", 
		 "theory": "DFT", 
		 "functional": "B3LYP", 
		 "basiset": "6-31G**", 
		 "properties": { 
			 "R2extent": 13855.3773, 
			 "electric_dipole_moment_norm": 5.40447380047, 
			 "electric_quadrupole_moment_norm": 30.541859585, 
			 "total_energy": -1868.77498078, 
			 "HOMO_LUMO_gap": 0.17696, 
			 "cosmo_polarized_energy": -22.17, 
			 "cosmo_cavitation_energy": 47.51, 
			 "cosmo_dispersion_energy": -33.62, 
			 "cosmo_repulsion_energy": 2.54, 
			 "cosmo_total_nonelectrostatic_energy": 16.43, 
			 "SMD_solvation_energy": 5.96 
		},
		"coords": [
			{
				"x": -0.639991439,
				"y": -2.7623409337,
				"z": -0.4046251596,
				"element": "N" 
			},
			{
				"x": -0.8732581129,
				"y": -1.6356824941,
				"z": 0.382325756,
				"element": "C" 
			},
			{
				"x": 0.234467982,
				"y": -0.9439338291,
				"z": 0.9485520348,
				"element": "C" 
			},
			{
				"x": 0.0002291884,
				"y": 0.165407536,
				"z": 1.7673188895,
				"element": "C" 
			},
			{
				"x": -1.2923498678,
				"y": 0.6286099802,
				"z": 2.0191554884,
				"element": "C" 
			},
			{
				"x": -2.3610501519,
				"y": -0.0368409877,
				"z": 1.4221222056,
				"element": "C" 
			},
			{
				"x": -2.1666784005,
				"y": -1.1598922711,
				"z": 0.6145028154,
				"element": "C" 
			},
			{
				"x": -4.0296464547,
				"y": 0.5593536519,
				"z": 1.6714320091,
				"element": "S" 
			},
			{
				"x": -4.9602121474,
				"y": -0.5181949591,
				"z": 1.3317825749,
				"element": "O" 
			},
			{
				"x": -4.0723475119,
				"y": 1.2611921929,
				"z": 2.9536434861,
				"element": "O" 
			},
			{
				"x": -4.3177138602,
				"y": 1.7274323749,
				"z": 0.460143862,
				"element": "N" 
			},
			{
				"x": -3.5629233927,
				"y": 2.9232732249,
				"z": 0.3359735692,
				"element": "C" 
			},
			{
				"x": -3.4696384264,
				"y": 3.826868896,
				"z": 1.4049200315,
				"element": "C" 
			},
			{
				"x": -2.7560069193,
				"y": 5.0136283925,
				"z": 1.2549539239,
				"element": "C" 
			},
			{
				"x": -2.1612744329,
				"y": 5.3149696261,
				"z": 0.0295020859,
				"element": "C" 
			},
			{
				"x": -1.2784391882,
				"y": 6.8234360281,
				"z": -0.1611007031,
				"element": "Cl" 
			},
			{
				"x": -2.2625383623,
				"y": 4.4368662679,
				"z": -1.0478661429,
				"element": "C" 
			},
			{
				"x": -2.9516078323,
				"y": 3.2366084367,
				"z": -0.8854423181,
				"element": "C" 
			},
			{
				"x": 1.5314402799,
				"y": -1.4654008413,
				"z": 0.6873200551,
				"element": "N" 
			},
			{
				"x": 2.0320479074,
				"y": -1.2178511635,
				"z": -0.681954784,
				"element": "C" 
			},
			{
				"x": 3.2874263346,
				"y": -2.0525529264,
				"z": -0.9224671697,
				"element": "C" 
			},
			{
				"x": 4.2873087079,
				"y": -1.7849711945,
				"z": 0.0501722468,
				"element": "O" 
			},
			{
				"x": 3.8027991502,
				"y": -2.036304801,
				"z": 1.3611853629,
				"element": "C" 
			},
			{
				"x": 2.5768590575,
				"y": -1.1790172298,
				"z": 1.673585567,
				"element": "C" 
			},
			{
				"x": 0.2072391372,
				"y": -3.2496294847,
				"z": -0.1314045132,
				"element": "H" 
			},
			{
				"x": -1.43343363,
				"y": -3.3834624331,
				"z": -0.4934574766,
				"element": "H" 
			},
			{
				"x": 0.8397482575,
				"y": 0.6823353357,
				"z": 2.2187700939,
				"element": "H" 
			},
			{
				"x": -1.4649082049,
				"y": 1.4788029668,
				"z": 2.6674334413,
				"element": "H" 
			},
			{
				"x": -3.0258151009,
				"y": -1.6885835018,
				"z": 0.2135990042,
				"element": "H" 
			},
			{
				"x": -4.5145943109,
				"y": 1.2535052211,
				"z": -0.4157223673,
				"element": "H" 
			},
			{
				"x": -3.9571010045,
				"y": 3.5930822606,
				"z": 2.3433802231,
				"element": "H" 
			},
			{
				"x": -2.6796781344,
				"y": 5.7120673749,
				"z": 2.0809482012,
				"element": "H" 
			},
			{
				"x": -1.7978186582,
				"y": 4.6804342804,
				"z": -1.9967285338,
				"element": "H" 
			},
			{
				"x": -3.0151317067,
				"y": 2.5392555429,
				"z": -1.7166631949,
				"element": "H" 
			},
			{
				"x": 2.2701822804,
				"y": -0.1494523677,
				"z": -0.8169870534,
				"element": "H" 
			},
			{
				"x": 1.2570678806,
				"y": -1.4908198775,
				"z": -1.4029186565,
				"element": "H" 
			},
			{
				"x": 3.0250773377,
				"y": -3.1241241228,
				"z": -0.9121062063,
				"element": "H" 
			},
			{
				"x": 3.7247609355,
				"y": -1.8120365424,
				"z": -1.8957784516,
				"element": "H" 
			},
			{
				"x": 3.5427738529,
				"y": -3.1014867764,
				"z": 1.476040484,
				"element": "H" 
			},
			{
				"x": 4.620180996,
				"y": -1.798720881,
				"z": 2.0480505521,
				"element": "H" 
			},
			{
				"x": 2.8804049289,
				"y": -0.1177671215,
				"z": 1.6594871721,
				"element": "H" 
			},
			{
				"x": 2.1991430365,
				"y": -1.4132628504,
				"z": 2.6741215948,
				"element": "H" 
			}
		],
		 "valence_orbital": [ 
			{
				"type": "occ",
				"energy": -0.26875,
				"method": "rhf"
			},
			{
				"type": "occ",
				"energy": -0.26601,
				"method": "rhf"
			},
			{
				"type": "occ",
				"energy": -0.24359,
				"method": "rhf"
			},
			{
				"type": "occ",
				"energy": -0.23031,
				"method": "rhf"
			},
			{
				"type": "occ",
				"energy": -0.21468,
				"method": "rhf"
			},
			{
				"type": "unocc",
				"energy": -0.03772,
				"method": "rhf"
			},
			{
				"type": "unocc",
				"energy": -0.01992,
				"method": "rhf"
			},
			{
				"type": "unocc",
				"energy": -0.01672,
				"method": "rhf"
			},
			{
				"type": "unocc",
				"energy": -0.0055,
				"method": "rhf"
			},
			{
				"type": "unocc",
				"energy": 0.02745,
				"method": "rhf"
			}
		],
		"cosmo_sigma_profile": { 
			"-0.025": 0.0,
			"-0.024": 0.0,
			"-0.023": 0.0,
			"-0.022": 0.0,
			"-0.021": 0.0,
			"-0.02": 0.0,
			"-0.019": 0.0,
			"-0.018": 0.0,
			"-0.017": 0.0,
			"-0.016": 0.319782850935,
			"-0.015": 1.09837455554,
			"-0.014": 1.17429453586,
			"-0.013": 2.22932542822,
			"-0.012": 2.49034614302,
			"-0.011": 3.8715847264,
			"-0.01": 3.74842401942,
			"-0.009": 3.22498816756,
			"-0.008": 5.60286292424,
			"-0.007": 9.30068458608,
			"-0.006": 14.0936789595,
			"-0.005": 23.9728346538,
			"-0.004": 28.0491671368,
			"-0.003": 33.9506726468,
			"-0.002": 26.9987486651,
			"-0.001": 21.5483604786,
			"0.0": 21.6893217788,
			"0.001": 22.2961580218,
			"0.002": 30.2135300183,
			"0.003": 34.6915961879,
			"0.004": 24.7459615526,
			"0.005": 15.7845441566,
			"0.006": 6.3711974346,
			"0.007": 5.49607147492,
			"0.008": 6.16951196497,
			"0.009": 6.14274127572,
			"0.01": 8.35758470235,
			"0.011": 9.47481855207,
			"0.012": 3.45132282215,
			"0.013": 2.1333486092,
			"0.014": 0.268568440313,
			"0.015": 0.0,
			"0.016": 0.0,
			"0.017": 0.0,
			"0.018": 0.0,
			"0.019": 0.0,
			"0.02": 0.0,
			"0.021": 0.0,
			"0.022": 0.0,
			"0.023": 0.0,
			"0.024": 0.0,
			"0.025": 0.0
		}
	}
}
