{
	 "smiles": "[O-][N+](=O)C1=CC=C(Cl)C=C1", 
	 "Tm": 356.95, 
	 "num_atms": 14, 
	 "gaussian": { 
		 "optdone": 1, 
		 "sigma_profile": "yes", 
		 "theory": "DFT", 
		 "functional": "B3LYP", 
		 "basiset": "6-31G**", 
		 "properties": { 
			 "R2extent": 2403.5627, 
			 "electric_dipole_moment_norm": 2.9070135655, 
			 "electric_quadrupole_moment_norm": 9.74719680831, 
			 "total_energy": -896.339135059, 
			 "HOMO_LUMO_gap": 0.18005, 
			 "cosmo_polarized_energy": -7.35, 
			 "cosmo_cavitation_energy": 21.09, 
			 "cosmo_dispersion_energy": -15.84, 
			 "cosmo_repulsion_energy": 1.28, 
			 "cosmo_total_nonelectrostatic_energy": 6.53, 
			 "SMD_solvation_energy": 5.71 
		},
		"coords": [
			{
				"x": 0.787049032,
				"y": 2.3779377825,
				"z": 0.8081139085,
				"element": "O" 
			},
			{
				"x": 1.3478275097,
				"y": 1.4027476078,
				"z": 0.3098213923,
				"element": "N" 
			},
			{
				"x": 2.3721368763,
				"y": 1.4512374875,
				"z": -0.370027937,
				"element": "O" 
			},
			{
				"x": 0.7489638432,
				"y": 0.0802483221,
				"z": 0.544359528,
				"element": "C" 
			},
			{
				"x": -0.4118091881,
				"y": -0.0088327907,
				"z": 1.3105084337,
				"element": "C" 
			},
			{
				"x": -0.9784993465,
				"y": -1.26027612,
				"z": 1.5324681989,
				"element": "C" 
			},
			{
				"x": -0.3708144882,
				"y": -2.3925103874,
				"z": 0.9829714442,
				"element": "C" 
			},
			{
				"x": -1.0832775601,
				"y": -3.9657635524,
				"z": 1.2620119277,
				"element": "Cl" 
			},
			{
				"x": 0.7932273721,
				"y": -2.2961812755,
				"z": 0.2155674487,
				"element": "C" 
			},
			{
				"x": 1.3599563772,
				"y": -1.044758699,
				"z": -0.0064329553,
				"element": "C" 
			},
			{
				"x": -0.8518288064,
				"y": 0.892367184,
				"z": 1.7186567982,
				"element": "H" 
			},
			{
				"x": -1.8809861893,
				"y": -1.360829627,
				"z": 2.1241876721,
				"element": "H" 
			},
			{
				"x": 1.245853981,
				"y": -3.1890508331,
				"z": -0.1999316999,
				"element": "H" 
			},
			{
				"x": 2.2611005871,
				"y": -0.9277350988,
				"z": -0.5951741601,
				"element": "H" 
			}
		],
		 "valence_orbital": [ 
			{
				"type": "occ",
				"energy": -0.3169,
				"method": "rhf"
			},
			{
				"type": "occ",
				"energy": -0.31454,
				"method": "rhf"
			},
			{
				"type": "occ",
				"energy": -0.29795,
				"method": "rhf"
			},
			{
				"type": "occ",
				"energy": -0.29318,
				"method": "rhf"
			},
			{
				"type": "occ",
				"energy": -0.27776,
				"method": "rhf"
			},
			{
				"type": "unocc",
				"energy": -0.09771,
				"method": "rhf"
			},
			{
				"type": "unocc",
				"energy": -0.04201,
				"method": "rhf"
			},
			{
				"type": "unocc",
				"energy": -0.01207,
				"method": "rhf"
			},
			{
				"type": "unocc",
				"energy": 0.00951,
				"method": "rhf"
			},
			{
				"type": "unocc",
				"energy": 0.08948,
				"method": "rhf"
			}
		],
		"cosmo_sigma_profile": { 
			"-0.025": 0.0,
			"-0.024": 0.0,
			"-0.023": 0.0,
			"-0.022": 0.0,
			"-0.021": 0.0,
			"-0.02": 0.0,
			"-0.019": 0.0,
			"-0.018": 0.0,
			"-0.017": 0.0,
			"-0.016": 0.0,
			"-0.015": 0.0,
			"-0.014": 0.0,
			"-0.013": 0.0,
			"-0.012": 0.0,
			"-0.011": 0.0,
			"-0.01": 0.0,
			"-0.009": 1.4716862752,
			"-0.008": 7.12945701991,
			"-0.007": 8.19744560382,
			"-0.006": 7.24533679703,
			"-0.005": 7.7226959213,
			"-0.004": 7.58110886481,
			"-0.003": 9.28600466508,
			"-0.002": 13.5494551701,
			"-0.001": 17.2745627803,
			"0.0": 21.8762221393,
			"0.001": 15.1208821893,
			"0.002": 7.7671946588,
			"0.003": 10.6438663574,
			"0.004": 9.22239050827,
			"0.005": 2.81721437618,
			"0.006": 3.84484210813,
			"0.007": 8.42496971022,
			"0.008": 7.12983275564,
			"0.009": 3.97041062824,
			"0.01": 2.21204376014,
			"0.011": 0.0,
			"0.012": 0.0,
			"0.013": 0.0,
			"0.014": 0.0,
			"0.015": 0.0,
			"0.016": 0.0,
			"0.017": 0.0,
			"0.018": 0.0,
			"0.019": 0.0,
			"0.02": 0.0,
			"0.021": 0.0,
			"0.022": 0.0,
			"0.023": 0.0,
			"0.024": 0.0,
			"0.025": 0.0
		}
	}
}
