{
	 "smiles": "NC(=O)CCC1=CSC(N)=N1", 
	 "Tm": 415.15, 
	 "num_atms": 20, 
	 "gaussian": { 
		 "optdone": 1, 
		 "sigma_profile": "yes", 
		 "theory": "DFT", 
		 "functional": "B3LYP", 
		 "basiset": "6-31G**", 
		 "properties": { 
			 "R2extent": 2501.2752, 
			 "electric_dipole_moment_norm": 5.59581861482, 
			 "electric_quadrupole_moment_norm": 27.3527976609, 
			 "total_energy": -871.748694727, 
			 "HOMO_LUMO_gap": 0.20366, 
			 "cosmo_polarized_energy": -17.32, 
			 "cosmo_cavitation_energy": 25.42, 
			 "cosmo_dispersion_energy": -19.26, 
			 "cosmo_repulsion_energy": 1.54, 
			 "cosmo_total_nonelectrostatic_energy": 7.7, 
			 "SMD_solvation_energy": 4.18 
		},
		"coords": [
			{
				"x": 2.3071940624,
				"y": 0.1420666514,
				"z": -1.3509585356,
				"element": "N" 
			},
			{
				"x": 2.9725277867,
				"y": -0.7654966281,
				"z": -0.5842742858,
				"element": "C" 
			},
			{
				"x": 4.1751328625,
				"y": -0.9759416705,
				"z": -0.6930852495,
				"element": "O" 
			},
			{
				"x": 2.1354190161,
				"y": -1.5299600531,
				"z": 0.4502449623,
				"element": "C" 
			},
			{
				"x": 0.6898208477,
				"y": -1.9357371011,
				"z": 0.0585984259,
				"element": "C" 
			},
			{
				"x": -0.3884305731,
				"y": -0.9441724313,
				"z": 0.4095478144,
				"element": "C" 
			},
			{
				"x": -1.3988443333,
				"y": -1.166790939,
				"z": 1.2943127809,
				"element": "C" 
			},
			{
				"x": -2.43988097,
				"y": 0.2367202717,
				"z": 1.4044490319,
				"element": "S" 
			},
			{
				"x": -1.3929730079,
				"y": 1.0376157272,
				"z": 0.2331127826,
				"element": "C" 
			},
			{
				"x": -1.6785231175,
				"y": 2.296535042,
				"z": -0.2344533089,
				"element": "N" 
			},
			{
				"x": -0.3928583119,
				"y": 0.3120689766,
				"z": -0.1852604097,
				"element": "N" 
			},
			{
				"x": 1.3460053712,
				"y": 0.4092589594,
				"z": -1.1479664785,
				"element": "H" 
			},
			{
				"x": 2.8669916924,
				"y": 0.692574299,
				"z": -1.9846906305,
				"element": "H" 
			},
			{
				"x": 2.1181601622,
				"y": -0.9395720964,
				"z": 1.3752529499,
				"element": "H" 
			},
			{
				"x": 2.7200631866,
				"y": -2.4267575796,
				"z": 0.6677335561,
				"element": "H" 
			},
			{
				"x": 0.6506600444,
				"y": -2.1435657065,
				"z": -1.0178705783,
				"element": "H" 
			},
			{
				"x": 0.4484257753,
				"y": -2.8761130785,
				"z": 0.5634386345,
				"element": "H" 
			},
			{
				"x": -1.6002887523,
				"y": -2.0494753966,
				"z": 1.8830194919,
				"element": "H" 
			},
			{
				"x": -0.916037266,
				"y": 2.7317407423,
				"z": -0.7358554863,
				"element": "H" 
			},
			{
				"x": -2.1791644755,
				"y": 2.9187020113,
				"z": 0.3829045327,
				"element": "H" 
			}
		],
		 "valence_orbital": [ 
			{
				"type": "occ",
				"energy": -0.29483,
				"method": "rhf"
			},
			{
				"type": "occ",
				"energy": -0.28536,
				"method": "rhf"
			},
			{
				"type": "occ",
				"energy": -0.24423,
				"method": "rhf"
			},
			{
				"type": "occ",
				"energy": -0.227,
				"method": "rhf"
			},
			{
				"type": "occ",
				"energy": -0.21881,
				"method": "rhf"
			},
			{
				"type": "unocc",
				"energy": -0.01515,
				"method": "rhf"
			},
			{
				"type": "unocc",
				"energy": 0.00033,
				"method": "rhf"
			},
			{
				"type": "unocc",
				"energy": 0.04503,
				"method": "rhf"
			},
			{
				"type": "unocc",
				"energy": 0.0507,
				"method": "rhf"
			},
			{
				"type": "unocc",
				"energy": 0.05761,
				"method": "rhf"
			}
		],
		"cosmo_sigma_profile": { 
			"-0.025": 0.0,
			"-0.024": 0.0,
			"-0.023": 0.0,
			"-0.022": 0.0,
			"-0.021": 0.0,
			"-0.02": 0.0,
			"-0.019": 0.0,
			"-0.018": 0.0,
			"-0.017": 0.0,
			"-0.016": 0.0,
			"-0.015": 0.379734516277,
			"-0.014": 2.34780001055,
			"-0.013": 3.63178595784,
			"-0.012": 3.82618119546,
			"-0.011": 3.59330249375,
			"-0.01": 3.51381589483,
			"-0.009": 3.02671564724,
			"-0.008": 4.63783404774,
			"-0.007": 4.16696133659,
			"-0.006": 4.96911557825,
			"-0.005": 10.2207038829,
			"-0.004": 13.4617158932,
			"-0.003": 12.2028193189,
			"-0.002": 15.0107805368,
			"-0.001": 14.0836640421,
			"0.0": 10.0779360937,
			"0.001": 12.6195670127,
			"0.002": 13.6470988758,
			"0.003": 14.5420970879,
			"0.004": 13.4755606567,
			"0.005": 9.66938255813,
			"0.006": 3.92194919698,
			"0.007": 3.1566728483,
			"0.008": 2.89301535328,
			"0.009": 2.71690248638,
			"0.01": 1.2094757524,
			"0.011": 1.438574699,
			"0.012": 1.78946092397,
			"0.013": 1.9080110336,
			"0.014": 5.16587919112,
			"0.015": 4.78322547736,
			"0.016": 1.00055918928,
			"0.017": 0.0,
			"0.018": 0.0,
			"0.019": 0.0,
			"0.02": 0.0,
			"0.021": 0.0,
			"0.022": 0.0,
			"0.023": 0.0,
			"0.024": 0.0,
			"0.025": 0.0
		}
	}
}
