{
	 "smiles": "NC1=C(C=CC(=C1)C(F)(F)F)C(O)=O", 
	 "Tm": 449.15, 
	 "num_atms": 20, 
	 "gaussian": { 
		 "optdone": 1, 
		 "sigma_profile": "yes", 
		 "theory": "DFT", 
		 "functional": "B3LYP", 
		 "basiset": "6-31G**", 
		 "properties": { 
			 "R2extent": 3614.4739, 
			 "electric_dipole_moment_norm": 0.963275749721, 
			 "electric_quadrupole_moment_norm": 22.114789268, 
			 "total_energy": -813.213265013, 
			 "HOMO_LUMO_gap": 0.1615, 
			 "cosmo_polarized_energy": -14.06, 
			 "cosmo_cavitation_energy": 25.85, 
			 "cosmo_dispersion_energy": -18.95, 
			 "cosmo_repulsion_energy": 1.42, 
			 "cosmo_total_nonelectrostatic_energy": 8.32, 
			 "SMD_solvation_energy": 6.53 
		},
		"coords": [
			{
				"x": 0.4362980942,
				"y": 3.1852623023,
				"z": 0.322237132,
				"element": "N" 
			},
			{
				"x": 0.3591594682,
				"y": 1.9200152793,
				"z": -0.1716903721,
				"element": "C" 
			},
			{
				"x": 1.3776551991,
				"y": 0.9498013636,
				"z": 0.0711831336,
				"element": "C" 
			},
			{
				"x": 1.2395440173,
				"y": -0.3355674289,
				"z": -0.4871042251,
				"element": "C" 
			},
			{
				"x": 0.1325209296,
				"y": -0.7059926845,
				"z": -1.2300529801,
				"element": "C" 
			},
			{
				"x": -0.8836555479,
				"y": 0.242553344,
				"z": -1.4299894491,
				"element": "C" 
			},
			{
				"x": -0.7765580524,
				"y": 1.5225900829,
				"z": -0.9181168052,
				"element": "C" 
			},
			{
				"x": -2.0801912605,
				"y": -0.1457639339,
				"z": -2.2606122362,
				"element": "C" 
			},
			{
				"x": -2.5872616357,
				"y": -1.3342057172,
				"z": -1.8645393486,
				"element": "F" 
			},
			{
				"x": -1.7479949791,
				"y": -0.277865752,
				"z": -3.5646421413,
				"element": "F" 
			},
			{
				"x": -3.0746806834,
				"y": 0.7640184214,
				"z": -2.1904598858,
				"element": "F" 
			},
			{
				"x": 2.5726118785,
				"y": 1.3221092984,
				"z": 0.871245611,
				"element": "C" 
			},
			{
				"x": 3.3463242957,
				"y": 0.3154901206,
				"z": 1.3508206753,
				"element": "O" 
			},
			{
				"x": 2.8985414832,
				"y": 2.4699918193,
				"z": 1.1226569428,
				"element": "O" 
			},
			{
				"x": 1.3323208068,
				"y": 3.4852933415,
				"z": 0.6875113829,
				"element": "H" 
			},
			{
				"x": -0.2330312646,
				"y": 3.8715035609,
				"z": 0.0149338935,
				"element": "H" 
			},
			{
				"x": 2.0421230081,
				"y": -1.0598891033,
				"z": -0.3718073429,
				"element": "H" 
			},
			{
				"x": 0.0500552758,
				"y": -1.7008257019,
				"z": -1.6513749643,
				"element": "H" 
			},
			{
				"x": -1.5712259743,
				"y": 2.2404580814,
				"z": -1.0908403379,
				"element": "H" 
			},
			{
				"x": 2.8949449415,
				"y": -0.533476694,
				"z": 1.2516413172,
				"element": "H" 
			}
		],
		 "valence_orbital": [ 
			{
				"type": "occ",
				"energy": -0.33718,
				"method": "rhf"
			},
			{
				"type": "occ",
				"energy": -0.32336,
				"method": "rhf"
			},
			{
				"type": "occ",
				"energy": -0.2873,
				"method": "rhf"
			},
			{
				"type": "occ",
				"energy": -0.2801,
				"method": "rhf"
			},
			{
				"type": "occ",
				"energy": -0.22482,
				"method": "rhf"
			},
			{
				"type": "unocc",
				"energy": -0.06332,
				"method": "rhf"
			},
			{
				"type": "unocc",
				"energy": -0.01375,
				"method": "rhf"
			},
			{
				"type": "unocc",
				"energy": 0.03166,
				"method": "rhf"
			},
			{
				"type": "unocc",
				"energy": 0.05613,
				"method": "rhf"
			},
			{
				"type": "unocc",
				"energy": 0.08118,
				"method": "rhf"
			}
		],
		"cosmo_sigma_profile": { 
			"-0.025": 0.0,
			"-0.024": 0.0,
			"-0.023": 0.0,
			"-0.022": 0.0,
			"-0.021": 0.0,
			"-0.02": 0.0,
			"-0.019": 0.347919919325,
			"-0.018": 0.789220656285,
			"-0.017": 1.3567105942,
			"-0.016": 0.76917433862,
			"-0.015": 0.837350221219,
			"-0.014": 1.49653758656,
			"-0.013": 3.0933731084,
			"-0.012": 2.2973723665,
			"-0.011": 2.50348985816,
			"-0.01": 2.53092865763,
			"-0.009": 4.33968120738,
			"-0.008": 4.52671288524,
			"-0.007": 5.32213777344,
			"-0.006": 5.72364901478,
			"-0.005": 5.53359895139,
			"-0.004": 6.22975998048,
			"-0.003": 9.12642341906,
			"-0.002": 7.91555109861,
			"-0.001": 9.67505303433,
			"0.0": 12.7457270735,
			"0.001": 17.5718951052,
			"0.002": 35.3613658522,
			"0.003": 35.1357520617,
			"0.004": 4.14197088205,
			"0.005": 3.02897726869,
			"0.006": 3.32009498399,
			"0.007": 2.45928702095,
			"0.008": 3.73384920324,
			"0.009": 2.89432258349,
			"0.01": 4.54239999529,
			"0.011": 4.004201779,
			"0.012": 2.40538535179,
			"0.013": 1.4633691461,
			"0.014": 0.0413840732128,
			"0.015": 0.0,
			"0.016": 0.0,
			"0.017": 0.0,
			"0.018": 0.0,
			"0.019": 0.0,
			"0.02": 0.0,
			"0.021": 0.0,
			"0.022": 0.0,
			"0.023": 0.0,
			"0.024": 0.0,
			"0.025": 0.0
		}
	}
}
