{
	 "smiles": "CC(C)CCCC(C(O)=O)C1=CCC2(C)C(CCC3C4CCC(O)C4(C)CCC23)C1", 
	 "Tm": 466.15, 
	 "num_atms": 74, 
	 "gaussian": { 
		 "optdone": 1, 
		 "sigma_profile": "yes", 
		 "theory": "DFT", 
		 "functional": "B3LYP", 
		 "basiset": "6-31G**", 
		 "properties": { 
			 "R2extent": 19144.8246, 
			 "electric_dipole_moment_norm": 2.0868615335, 
			 "electric_quadrupole_moment_norm": 16.4223211657, 
			 "total_energy": -1281.11314281, 
			 "HOMO_LUMO_gap": 0.22748, 
			 "cosmo_polarized_energy": -13.84, 
			 "cosmo_cavitation_energy": 64.15, 
			 "cosmo_dispersion_energy": -41.73, 
			 "cosmo_repulsion_energy": 3.1, 
			 "cosmo_total_nonelectrostatic_energy": 25.52, 
			 "SMD_solvation_energy": 9.77 
		},
		"coords": [
			{
				"x": 4.2704897195,
				"y": 2.6457475107,
				"z": 0.8074321806,
				"element": "C" 
			},
			{
				"x": 3.5368731046,
				"y": 3.9445817622,
				"z": 1.1746654376,
				"element": "C" 
			},
			{
				"x": 4.1725719299,
				"y": 5.1413080006,
				"z": 0.4500448367,
				"element": "C" 
			},
			{
				"x": 2.026397787,
				"y": 3.8082654693,
				"z": 0.8906254994,
				"element": "C" 
			},
			{
				"x": 1.1661763826,
				"y": 4.9713767825,
				"z": 1.4054071479,
				"element": "C" 
			},
			{
				"x": -0.3452405425,
				"y": 4.8609615423,
				"z": 1.135073325,
				"element": "C" 
			},
			{
				"x": -1.1054951228,
				"y": 3.8308665171,
				"z": 2.0078524389,
				"element": "C" 
			},
			{
				"x": -2.5930665743,
				"y": 4.1668947871,
				"z": 2.0104976976,
				"element": "C" 
			},
			{
				"x": -3.1629000235,
				"y": 3.9477391778,
				"z": 3.2205928134,
				"element": "O" 
			},
			{
				"x": -3.2334908911,
				"y": 4.5582189712,
				"z": 1.056751714,
				"element": "O" 
			},
			{
				"x": -0.9845050734,
				"y": 2.3634595219,
				"z": 1.5899044458,
				"element": "C" 
			},
			{
				"x": -0.6788044955,
				"y": 1.4191506481,
				"z": 2.4903671408,
				"element": "C" 
			},
			{
				"x": -0.617531795,
				"y": -0.0590180867,
				"z": 2.2053053399,
				"element": "C" 
			},
			{
				"x": -0.6745098911,
				"y": -0.4337644685,
				"z": 0.7000743288,
				"element": "C" 
			},
			{
				"x": 0.7306628606,
				"y": -0.2445229079,
				"z": 0.08597231,
				"element": "C" 
			},
			{
				"x": -1.6674415546,
				"y": 0.5209431951,
				"z": -0.0342399584,
				"element": "C" 
			},
			{
				"x": -3.1299468668,
				"y": 0.2699139318,
				"z": 0.3727002918,
				"element": "C" 
			},
			{
				"x": -3.5413042724,
				"y": -1.1780472407,
				"z": 0.102546559,
				"element": "C" 
			},
			{
				"x": -2.6194525988,
				"y": -2.1741503704,
				"z": 0.8211117852,
				"element": "C" 
			},
			{
				"x": -3.0516541862,
				"y": -3.6366377846,
				"z": 0.5634184674,
				"element": "C" 
			},
			{
				"x": -3.1400967227,
				"y": -4.0757373925,
				"z": -0.9293061988,
				"element": "C" 
			},
			{
				"x": -2.8194832832,
				"y": -5.5931925621,
				"z": -0.9539959929,
				"element": "C" 
			},
			{
				"x": -2.6093795228,
				"y": -5.9965254446,
				"z": 0.5132305363,
				"element": "C" 
			},
			{
				"x": -1.7051302085,
				"y": -7.0920450911,
				"z": 0.5798375855,
				"element": "O" 
			},
			{
				"x": -2.1444244692,
				"y": -4.7022177189,
				"z": 1.2356723859,
				"element": "C" 
			},
			{
				"x": -2.3697758745,
				"y": -4.8143576622,
				"z": 2.7508297509,
				"element": "C" 
			},
			{
				"x": -0.6611770307,
				"y": -4.3997832501,
				"z": 0.9206528896,
				"element": "C" 
			},
			{
				"x": -0.2586495161,
				"y": -2.9539307246,
				"z": 1.2465096124,
				"element": "C" 
			},
			{
				"x": -1.1255526606,
				"y": -1.9237165312,
				"z": 0.4905256868,
				"element": "C" 
			},
			{
				"x": -1.2852046483,
				"y": 2.0039079305,
				"z": 0.150942816,
				"element": "C" 
			},
			{
				"x": 3.8598595129,
				"y": 1.7867755355,
				"z": 1.3493517014,
				"element": "H" 
			},
			{
				"x": 5.3387218348,
				"y": 2.7113402328,
				"z": 1.0415678888,
				"element": "H" 
			},
			{
				"x": 4.1797866244,
				"y": 2.4354469819,
				"z": -0.2655052962,
				"element": "H" 
			},
			{
				"x": 3.6576160208,
				"y": 4.1026879144,
				"z": 2.2574952951,
				"element": "H" 
			},
			{
				"x": 5.245148398,
				"y": 5.203279272,
				"z": 0.6642861816,
				"element": "H" 
			},
			{
				"x": 4.0576203008,
				"y": 5.0434017636,
				"z": -0.6368242562,
				"element": "H" 
			},
			{
				"x": 3.7239659651,
				"y": 6.0938232574,
				"z": 0.7480199157,
				"element": "H" 
			},
			{
				"x": 1.6724366619,
				"y": 2.874722377,
				"z": 1.3423196905,
				"element": "H" 
			},
			{
				"x": 1.8788631399,
				"y": 3.7022098195,
				"z": -0.1950093361,
				"element": "H" 
			},
			{
				"x": 1.5110986459,
				"y": 5.905574127,
				"z": 0.94606245,
				"element": "H" 
			},
			{
				"x": 1.3296924635,
				"y": 5.0914614339,
				"z": 2.4865470169,
				"element": "H" 
			},
			{
				"x": -0.7942686997,
				"y": 5.8428825079,
				"z": 1.3232566657,
				"element": "H" 
			},
			{
				"x": -0.5302208978,
				"y": 4.6569258764,
				"z": 0.0749815148,
				"element": "H" 
			},
			{
				"x": -0.7591422139,
				"y": 3.9157633691,
				"z": 3.0435985177,
				"element": "H" 
			},
			{
				"x": -4.1081786145,
				"y": 4.1475407531,
				"z": 3.1101864916,
				"element": "H" 
			},
			{
				"x": -0.4874260839,
				"y": 1.7137146006,
				"z": 3.5221621966,
				"element": "H" 
			},
			{
				"x": -1.4379717873,
				"y": -0.5402463994,
				"z": 2.7572152239,
				"element": "H" 
			},
			{
				"x": 0.2984145958,
				"y": -0.4708975503,
				"z": 2.6498424909,
				"element": "H" 
			},
			{
				"x": 0.7169894945,
				"y": -0.4454918436,
				"z": -0.9918044193,
				"element": "H" 
			},
			{
				"x": 1.4650870649,
				"y": -0.915019078,
				"z": 0.5405935394,
				"element": "H" 
			},
			{
				"x": 1.0993924637,
				"y": 0.7738078743,
				"z": 0.2320741447,
				"element": "H" 
			},
			{
				"x": -1.5932608265,
				"y": 0.2948580263,
				"z": -1.1088482432,
				"element": "H" 
			},
			{
				"x": -3.7801870685,
				"y": 0.9562689399,
				"z": -0.1839110228,
				"element": "H" 
			},
			{
				"x": -3.2708158177,
				"y": 0.5091667422,
				"z": 1.4350550446,
				"element": "H" 
			},
			{
				"x": -3.5071846626,
				"y": -1.3614273479,
				"z": -0.9802218322,
				"element": "H" 
			},
			{
				"x": -4.5812904825,
				"y": -1.3468266503,
				"z": 0.411931687,
				"element": "H" 
			},
			{
				"x": -2.7461555964,
				"y": -2.0028491684,
				"z": 1.9013673821,
				"element": "H" 
			},
			{
				"x": -4.058856051,
				"y": -3.746344894,
				"z": 0.9932910577,
				"element": "H" 
			},
			{
				"x": -2.4243065667,
				"y": -3.5251156527,
				"z": -1.5476641417,
				"element": "H" 
			},
			{
				"x": -4.1301313138,
				"y": -3.8594295232,
				"z": -1.3410075893,
				"element": "H" 
			},
			{
				"x": -1.896931833,
				"y": -5.8024093972,
				"z": -1.5045694213,
				"element": "H" 
			},
			{
				"x": -3.6077663665,
				"y": -6.1880937587,
				"z": -1.4237538471,
				"element": "H" 
			},
			{
				"x": -3.5805034969,
				"y": -6.2875923403,
				"z": 0.9502410851,
				"element": "H" 
			},
			{
				"x": -1.670709545,
				"y": -7.3957520605,
				"z": 1.4961125144,
				"element": "H" 
			},
			{
				"x": -1.7845622613,
				"y": -5.6415573856,
				"z": 3.1739083583,
				"element": "H" 
			},
			{
				"x": -3.4260391486,
				"y": -5.0011732676,
				"z": 2.9778246598,
				"element": "H" 
			},
			{
				"x": -2.0725904589,
				"y": -3.9097649755,
				"z": 3.2895712796,
				"element": "H" 
			},
			{
				"x": -0.0209837202,
				"y": -5.1036874909,
				"z": 1.4642718281,
				"element": "H" 
			},
			{
				"x": -0.4649938305,
				"y": -4.585968899,
				"z": -0.1420026772,
				"element": "H" 
			},
			{
				"x": 0.7997533242,
				"y": -2.8248431312,
				"z": 0.9981715968,
				"element": "H" 
			},
			{
				"x": -0.3405572085,
				"y": -2.7804600447,
				"z": 2.3270177169,
				"element": "H" 
			},
			{
				"x": -0.9922840918,
				"y": -2.1173843405,
				"z": -0.5859390145,
				"element": "H" 
			},
			{
				"x": -0.4162867286,
				"y": 2.2516036915,
				"z": -0.4736520059,
				"element": "H" 
			},
			{
				"x": -2.0989950981,
				"y": 2.6371915908,
				"z": -0.222714906,
				"element": "H" 
			}
		],
		 "valence_orbital": [ 
			{
				"type": "occ",
				"energy": -0.27913,
				"method": "rhf"
			},
			{
				"type": "occ",
				"energy": -0.27322,
				"method": "rhf"
			},
			{
				"type": "occ",
				"energy": -0.26871,
				"method": "rhf"
			},
			{
				"type": "occ",
				"energy": -0.25079,
				"method": "rhf"
			},
			{
				"type": "occ",
				"energy": -0.23005,
				"method": "rhf"
			},
			{
				"type": "unocc",
				"energy": -0.00257,
				"method": "rhf"
			},
			{
				"type": "unocc",
				"energy": 0.04598,
				"method": "rhf"
			},
			{
				"type": "unocc",
				"energy": 0.06153,
				"method": "rhf"
			},
			{
				"type": "unocc",
				"energy": 0.07295,
				"method": "rhf"
			},
			{
				"type": "unocc",
				"energy": 0.08027,
				"method": "rhf"
			}
		],
		"cosmo_sigma_profile": { 
			"-0.025": 0.0,
			"-0.024": 0.0,
			"-0.023": 0.0,
			"-0.022": 0.0,
			"-0.021": 0.0,
			"-0.02": 0.0,
			"-0.019": 0.0,
			"-0.018": 0.450457513309,
			"-0.017": 1.01446968467,
			"-0.016": 0.62245633169,
			"-0.015": 0.877781847773,
			"-0.014": 1.66646115289,
			"-0.013": 1.11875958129,
			"-0.012": 2.08934043089,
			"-0.011": 1.50342399001,
			"-0.01": 1.45531672373,
			"-0.009": 1.55429792937,
			"-0.008": 1.77161376819,
			"-0.007": 1.80907896937,
			"-0.006": 2.87391974617,
			"-0.005": 3.17429822966,
			"-0.004": 8.41998301881,
			"-0.003": 24.8764250641,
			"-0.002": 76.4168679862,
			"-0.001": 101.268787491,
			"0.0": 92.0477086235,
			"0.001": 70.243441924,
			"0.002": 38.3121174583,
			"0.003": 8.7834497539,
			"0.004": 5.13018731939,
			"0.005": 5.00438609106,
			"0.006": 5.11666566998,
			"0.007": 4.717317141,
			"0.008": 4.9498391667,
			"0.009": 3.67502239261,
			"0.01": 3.59019975949,
			"0.011": 4.21933094306,
			"0.012": 5.58236261212,
			"0.013": 2.89262361794,
			"0.014": 1.64009187612,
			"0.015": 0.983284559172,
			"0.016": 0.0,
			"0.017": 0.0,
			"0.018": 0.0,
			"0.019": 0.0,
			"0.02": 0.0,
			"0.021": 0.0,
			"0.022": 0.0,
			"0.023": 0.0,
			"0.024": 0.0,
			"0.025": 0.0
		}
	}
}
