{
	 "smiles": "OC(=O)C1=CC(I)=CC=C1", 
	 "Tm": 461.15, 
	 "num_atms": 15, 
	 "gaussian": { 
		 "optdone": 1, 
		 "sigma_profile": "no", 
		 "theory": "DFT", 
		 "functional": "B3LYP", 
		 "basiset": "6-31G**", 
		 "properties": { 
			 "R2extent": 1850.8834, 
			 "electric_dipole_moment_norm": 3.43986793642, 
			 "electric_quadrupole_moment_norm": 12.3396694016, 
			 "total_energy": -431.596883207, 
			 "HOMO_LUMO_gap": 0.19295, 
			 "cosmo_polarized_energy": -97364.69, 
			 "cosmo_cavitation_energy": 23.03, 
			 "cosmo_dispersion_energy": -18.45, 
			 "cosmo_repulsion_energy": 1.46, 
			 "cosmo_total_nonelectrostatic_energy": 6.03, 
			 "SMD_solvation_energy": 4.27 
		},
		"coords": [
			{
				"x": -1.1036171438,
				"y": 1.3987616051,
				"z": -0.7465348902,
				"element": "O" 
			},
			{
				"x": -1.3178351465,
				"y": 0.2612018894,
				"z": -0.034852917,
				"element": "C" 
			},
			{
				"x": -2.3301015507,
				"y": 0.1307145378,
				"z": 0.6106209708,
				"element": "O" 
			},
			{
				"x": -0.2488347692,
				"y": -0.7927674588,
				"z": -0.0997249146,
				"element": "C" 
			},
			{
				"x": 1.0793417767,
				"y": -0.4988102975,
				"z": -0.440299279,
				"element": "C" 
			},
			{
				"x": 2.024570847,
				"y": -1.5245689448,
				"z": -0.4683506324,
				"element": "C" 
			},
			{
				"x": 4.0342911171,
				"y": -1.0756151471,
				"z": -0.9714140952,
				"element": "I" 
			},
			{
				"x": 1.6656787876,
				"y": -2.8385437693,
				"z": -0.1623187392,
				"element": "C" 
			},
			{
				"x": 0.3424571128,
				"y": -3.1194981827,
				"z": 0.1898875365,
				"element": "C" 
			},
			{
				"x": -0.6092381085,
				"y": -2.1049187059,
				"z": 0.2312803321,
				"element": "C" 
			},
			{
				"x": -0.3499864336,
				"y": 1.2893016873,
				"z": -1.3427626369,
				"element": "H" 
			},
			{
				"x": 1.392247757,
				"y": 0.5206563847,
				"z": -0.6423256453,
				"element": "H" 
			},
			{
				"x": 2.4050199894,
				"y": -3.6309784417,
				"z": -0.1902663036,
				"element": "H" 
			},
			{
				"x": 0.0618662049,
				"y": -4.1392929134,
				"z": 0.4352511513,
				"element": "H" 
			},
			{
				"x": -1.6366604402,
				"y": -2.3033422431,
				"z": 0.5153100627,
				"element": "H" 
			}
		],
		 "valence_orbital": [ 
			{
				"type": "occ",
				"energy": -0.31204,
				"method": "rhf"
			},
			{
				"type": "occ",
				"energy": -0.28917,
				"method": "rhf"
			},
			{
				"type": "occ",
				"energy": -0.28408,
				"method": "rhf"
			},
			{
				"type": "occ",
				"energy": -0.27862,
				"method": "rhf"
			},
			{
				"type": "occ",
				"energy": -0.25672,
				"method": "rhf"
			},
			{
				"type": "unocc",
				"energy": -0.06377,
				"method": "rhf"
			},
			{
				"type": "unocc",
				"energy": -0.05375,
				"method": "rhf"
			},
			{
				"type": "unocc",
				"energy": -0.03906,
				"method": "rhf"
			},
			{
				"type": "unocc",
				"energy": 0.0255,
				"method": "rhf"
			},
			{
				"type": "unocc",
				"energy": 0.033,
				"method": "rhf"
			}
		],
		"cosmo_sigma_profile": { 
			"0.0": 0.0,
			"0.0": 0.0,
			"0.0": 0.0,
			"0.0": 0.0,
			"0.0": 0.0,
			"0.0": 0.0,
			"0.0": 0.0,
			"0.0": 0.0,
			"0.0": 0.0,
			"0.0": 0.0,
			"0.0": 0.0,
			"0.0": 0.0,
			"0.0": 0.0,
			"0.0": 0.0,
			"0.0": 0.0,
			"0.0": 0.0,
			"0.0": 0.0,
			"0.0": 0.0,
			"0.0": 0.0,
			"0.0": 0.0,
			"0.0": 0.0,
			"0.0": 0.0,
			"0.0": 0.0,
			"0.0": 0.0,
			"0.0": 0.0,
			"0.0": 0.0,
			"0.0": 0.0,
			"0.0": 0.0,
			"0.0": 0.0,
			"0.0": 0.0,
			"0.0": 0.0,
			"0.0": 0.0,
			"0.0": 0.0,
			"0.0": 0.0,
			"0.0": 0.0,
			"0.0": 0.0,
			"0.0": 0.0,
			"0.0": 0.0,
			"0.0": 0.0,
			"0.0": 0.0,
			"0.0": 0.0,
			"0.0": 0.0,
			"0.0": 0.0,
			"0.0": 0.0,
			"0.0": 0.0,
			"0.0": 0.0,
			"0.0": 0.0,
			"0.0": 0.0,
			"0.0": 0.0,
			"0.0": 0.0,
			"0.0": 0.0
		}
	}
}
