{
	 "smiles": "NC1=NC(=CC=C1)C1=CC2=C(OCC2)C=C1", 
	 "Tm": 397.15, 
	 "num_atms": 28, 
	 "gaussian": { 
		 "optdone": 1, 
		 "sigma_profile": "yes", 
		 "theory": "DFT", 
		 "functional": "B3LYP", 
		 "basiset": "6-31G**", 
		 "properties": { 
			 "R2extent": 4803.4496, 
			 "electric_dipole_moment_norm": 2.36273296418, 
			 "electric_quadrupole_moment_norm": 18.1987476198, 
			 "total_energy": -687.351564519, 
			 "HOMO_LUMO_gap": 0.16663, 
			 "cosmo_polarized_energy": -12.85, 
			 "cosmo_cavitation_energy": 31.4, 
			 "cosmo_dispersion_energy": -23.72, 
			 "cosmo_repulsion_energy": 1.84, 
			 "cosmo_total_nonelectrostatic_energy": 9.52, 
			 "SMD_solvation_energy": 4.17 
		},
		"coords": [
			{
				"x": -1.9110873348,
				"y": -0.6673784045,
				"z": 4.170997705,
				"element": "N" 
			},
			{
				"x": -0.8179567284,
				"y": -0.1732509827,
				"z": 3.4781657816,
				"element": "C" 
			},
			{
				"x": -0.978823053,
				"y": -0.0181978608,
				"z": 2.1597868728,
				"element": "N" 
			},
			{
				"x": 0.0221842505,
				"y": 0.5110831938,
				"z": 1.4283778528,
				"element": "C" 
			},
			{
				"x": 1.2326602758,
				"y": 0.9062485992,
				"z": 2.0172493822,
				"element": "C" 
			},
			{
				"x": 1.3969428732,
				"y": 0.7250407021,
				"z": 3.3915375909,
				"element": "C" 
			},
			{
				"x": 0.3715733608,
				"y": 0.1786805826,
				"z": 4.1484041918,
				"element": "C" 
			},
			{
				"x": -0.2352959956,
				"y": 0.6610057705,
				"z": -0.0277068832,
				"element": "C" 
			},
			{
				"x": 0.8153371546,
				"y": 0.8237936518,
				"z": -0.9546289014,
				"element": "C" 
			},
			{
				"x": 0.5292543534,
				"y": 0.9600403588,
				"z": -2.3039565894,
				"element": "C" 
			},
			{
				"x": -0.7971484966,
				"y": 0.9391317475,
				"z": -2.7435589082,
				"element": "C" 
			},
			{
				"x": -0.9249265861,
				"y": 1.0889459156,
				"z": -4.0936516235,
				"element": "O" 
			},
			{
				"x": 0.4044008949,
				"y": 1.0034601401,
				"z": -4.66920044,
				"element": "C" 
			},
			{
				"x": 1.414526177,
				"y": 1.1887051772,
				"z": -3.5095968598,
				"element": "C" 
			},
			{
				"x": -1.8600619915,
				"y": 0.7784721054,
				"z": -1.8602855733,
				"element": "C" 
			},
			{
				"x": -1.558539557,
				"y": 0.6377491552,
				"z": -0.5056071415,
				"element": "C" 
			},
			{
				"x": -2.6002086102,
				"y": -1.1086348296,
				"z": 3.5779933168,
				"element": "H" 
			},
			{
				"x": -1.7225516557,
				"y": -1.1582756371,
				"z": 5.0323641498,
				"element": "H" 
			},
			{
				"x": 2.0184424725,
				"y": 1.3640860363,
				"z": 1.4290516145,
				"element": "H" 
			},
			{
				"x": 2.3256667425,
				"y": 1.0219564164,
				"z": 3.8715136409,
				"element": "H" 
			},
			{
				"x": 0.4681448811,
				"y": 0.0377850581,
				"z": 5.2205156019,
				"element": "H" 
			},
			{
				"x": 1.848412311,
				"y": 0.8180218032,
				"z": -0.6206328441,
				"element": "H" 
			},
			{
				"x": 0.4784398111,
				"y": 1.7679520535,
				"z": -5.4458037865,
				"element": "H" 
			},
			{
				"x": 0.5054360609,
				"y": 0.0159988215,
				"z": -5.1355752596,
				"element": "H" 
			},
			{
				"x": 2.2479663285,
				"y": 0.4829289541,
				"z": -3.5819269942,
				"element": "H" 
			},
			{
				"x": 1.8413429547,
				"y": 2.1996274192,
				"z": -3.5030005935,
				"element": "H" 
			},
			{
				"x": -2.8832590992,
				"y": 0.7610084454,
				"z": -2.2199283804,
				"element": "H" 
			},
			{
				"x": -2.3546717945,
				"y": 0.499715607,
				"z": 0.2168030774,
				"element": "H" 
			}
		],
		 "valence_orbital": [ 
			{
				"type": "occ",
				"energy": -0.26998,
				"method": "rhf"
			},
			{
				"type": "occ",
				"energy": -0.24892,
				"method": "rhf"
			},
			{
				"type": "occ",
				"energy": -0.24196,
				"method": "rhf"
			},
			{
				"type": "occ",
				"energy": -0.21729,
				"method": "rhf"
			},
			{
				"type": "occ",
				"energy": -0.19205,
				"method": "rhf"
			},
			{
				"type": "unocc",
				"energy": -0.02542,
				"method": "rhf"
			},
			{
				"type": "unocc",
				"energy": -0.00177,
				"method": "rhf"
			},
			{
				"type": "unocc",
				"energy": 0.01304,
				"method": "rhf"
			},
			{
				"type": "unocc",
				"energy": 0.05264,
				"method": "rhf"
			},
			{
				"type": "unocc",
				"energy": 0.08916,
				"method": "rhf"
			}
		],
		"cosmo_sigma_profile": { 
			"-0.025": 0.0,
			"-0.024": 0.0,
			"-0.023": 0.0,
			"-0.022": 0.0,
			"-0.021": 0.0,
			"-0.02": 0.0,
			"-0.019": 0.0,
			"-0.018": 0.0,
			"-0.017": 0.0,
			"-0.016": 0.0,
			"-0.015": 0.0,
			"-0.014": 0.00536140960245,
			"-0.013": 0.800855565587,
			"-0.012": 2.09876053823,
			"-0.011": 2.28993590589,
			"-0.01": 2.75271290693,
			"-0.009": 2.44832178317,
			"-0.008": 2.30004322181,
			"-0.007": 5.04136180756,
			"-0.006": 11.2988467412,
			"-0.005": 20.9316512201,
			"-0.004": 23.9397898219,
			"-0.003": 20.8755673715,
			"-0.002": 15.7679393439,
			"-0.001": 13.1611156892,
			"0.0": 9.85385065209,
			"0.001": 11.6614711593,
			"0.002": 12.7708386934,
			"0.003": 18.3322995103,
			"0.004": 22.8156688528,
			"0.005": 21.4282616689,
			"0.006": 7.84888009484,
			"0.007": 4.58705818075,
			"0.008": 4.98396457044,
			"0.009": 3.6663081242,
			"0.01": 3.32453680358,
			"0.011": 3.22378221677,
			"0.012": 1.53996027023,
			"0.013": 0.589021734415,
			"0.014": 0.0938307074918,
			"0.015": 0.0,
			"0.016": 0.0,
			"0.017": 0.0,
			"0.018": 0.0,
			"0.019": 0.0,
			"0.02": 0.0,
			"0.021": 0.0,
			"0.022": 0.0,
			"0.023": 0.0,
			"0.024": 0.0,
			"0.025": 0.0
		}
	}
}
