{
	 "smiles": "CC1(C)C2CC(C(C2=C(C2=CC=CC=C2)C2=CC=CC=C2)C2=CC=CC=C2)C1=C", 
	 "Tm": 388.15, 
	 "num_atms": 57, 
	 "gaussian": { 
		 "optdone": 1, 
		 "sigma_profile": "yes", 
		 "theory": "DFT", 
		 "functional": "B3LYP", 
		 "basiset": "6-31G**", 
		 "properties": { 
			 "R2extent": 10342.6555, 
			 "electric_dipole_moment_norm": 0.572961647931, 
			 "electric_quadrupole_moment_norm": 5.97476435937, 
			 "total_energy": -1121.92840371, 
			 "HOMO_LUMO_gap": 0.19058, 
			 "cosmo_polarized_energy": -9.98, 
			 "cosmo_cavitation_energy": 54.86, 
			 "cosmo_dispersion_energy": -34.6, 
			 "cosmo_repulsion_energy": 2.62, 
			 "cosmo_total_nonelectrostatic_energy": 22.88, 
			 "SMD_solvation_energy": 9.24 
		},
		"coords": [
			{
				"x": 1.637286706,
				"y": -2.7680651978,
				"z": 1.549498874,
				"element": "C" 
			},
			{
				"x": 0.1876931467,
				"y": -3.0159324044,
				"z": 1.1034079354,
				"element": "C" 
			},
			{
				"x": -0.0279624994,
				"y": -4.5466290445,
				"z": 1.0533179893,
				"element": "C" 
			},
			{
				"x": -0.2091908763,
				"y": -2.365428389,
				"z": -0.2785570872,
				"element": "C" 
			},
			{
				"x": -1.758049721,
				"y": -2.3179280789,
				"z": -0.1514759841,
				"element": "C" 
			},
			{
				"x": -1.7355160751,
				"y": -1.4930643327,
				"z": 1.1526267554,
				"element": "C" 
			},
			{
				"x": -0.9409254935,
				"y": -0.2251185734,
				"z": 0.6651017357,
				"element": "C" 
			},
			{
				"x": 0.0634059647,
				"y": -0.8632059286,
				"z": -0.3209680902,
				"element": "C" 
			},
			{
				"x": 0.8215076534,
				"y": -0.2061943368,
				"z": -1.2283167246,
				"element": "C" 
			},
			{
				"x": 1.6930561972,
				"y": -0.9042549133,
				"z": -2.2265658351,
				"element": "C" 
			},
			{
				"x": 2.6695774912,
				"y": -1.8402732568,
				"z": -1.8516918365,
				"element": "C" 
			},
			{
				"x": 3.467640791,
				"y": -2.4706321093,
				"z": -2.8087501925,
				"element": "C" 
			},
			{
				"x": 3.3086572403,
				"y": -2.1747882863,
				"z": -4.1624132814,
				"element": "C" 
			},
			{
				"x": 2.3513791246,
				"y": -1.2338717666,
				"z": -4.55071071,
				"element": "C" 
			},
			{
				"x": 1.5614335763,
				"y": -0.5998508713,
				"z": -3.5941393319,
				"element": "C" 
			},
			{
				"x": 0.8046291335,
				"y": 1.2884278228,
				"z": -1.3638785304,
				"element": "C" 
			},
			{
				"x": 1.9919199311,
				"y": 2.0249719306,
				"z": -1.2184439008,
				"element": "C" 
			},
			{
				"x": 1.9994717557,
				"y": 3.4104760657,
				"z": -1.3699764236,
				"element": "C" 
			},
			{
				"x": 0.8211022188,
				"y": 4.0885141982,
				"z": -1.6906016429,
				"element": "C" 
			},
			{
				"x": -0.3610653998,
				"y": 3.3681139839,
				"z": -1.8635305368,
				"element": "C" 
			},
			{
				"x": -0.3676369363,
				"y": 1.981322454,
				"z": -1.7030916217,
				"element": "C" 
			},
			{
				"x": -0.4413850379,
				"y": 0.6809965229,
				"z": 1.7815669747,
				"element": "C" 
			},
			{
				"x": 0.910584864,
				"y": 0.9002292164,
				"z": 2.0642605798,
				"element": "C" 
			},
			{
				"x": 1.3002058469,
				"y": 1.7306338826,
				"z": 3.1181218092,
				"element": "C" 
			},
			{
				"x": 0.3423239335,
				"y": 2.3626389608,
				"z": 3.9093467737,
				"element": "C" 
			},
			{
				"x": -1.0121839973,
				"y": 2.1640128292,
				"z": 3.6314220671,
				"element": "C" 
			},
			{
				"x": -1.3947992058,
				"y": 1.3361875973,
				"z": 2.5777056903,
				"element": "C" 
			},
			{
				"x": -0.8424854256,
				"y": -2.342850623,
				"z": 2.0328211775,
				"element": "C" 
			},
			{
				"x": -0.9480834585,
				"y": -2.4969351727,
				"z": 3.3520305703,
				"element": "C" 
			},
			{
				"x": 1.7927611867,
				"y": -3.1584006835,
				"z": 2.5604970829,
				"element": "H" 
			},
			{
				"x": 1.8895332448,
				"y": -1.706795303,
				"z": 1.5642752202,
				"element": "H" 
			},
			{
				"x": 2.3419993879,
				"y": -3.2867516726,
				"z": 0.8904116184,
				"element": "H" 
			},
			{
				"x": 0.1677375552,
				"y": -4.9860249262,
				"z": 2.0367925116,
				"element": "H" 
			},
			{
				"x": 0.6604713824,
				"y": -5.0070295127,
				"z": 0.334968274,
				"element": "H" 
			},
			{
				"x": -1.0465249996,
				"y": -4.8235586271,
				"z": 0.7714334732,
				"element": "H" 
			},
			{
				"x": 0.1922938707,
				"y": -2.908220859,
				"z": -1.1352225847,
				"element": "H" 
			},
			{
				"x": -2.2354756184,
				"y": -1.793859008,
				"z": -0.9855819221,
				"element": "H" 
			},
			{
				"x": -2.2259563105,
				"y": -3.2988013156,
				"z": -0.0402928402,
				"element": "H" 
			},
			{
				"x": -2.6988366957,
				"y": -1.2421987857,
				"z": 1.6017977462,
				"element": "H" 
			},
			{
				"x": -1.6594527265,
				"y": 0.3683302102,
				"z": 0.0863274898,
				"element": "H" 
			},
			{
				"x": 2.8172004596,
				"y": -2.0578811613,
				"z": -0.8007248488,
				"element": "H" 
			},
			{
				"x": 4.2202512604,
				"y": -3.1876536084,
				"z": -2.4920283286,
				"element": "H" 
			},
			{
				"x": 3.9293202846,
				"y": -2.6643900421,
				"z": -4.9074149773,
				"element": "H" 
			},
			{
				"x": 2.2224758094,
				"y": -0.9902173446,
				"z": -5.6017379261,
				"element": "H" 
			},
			{
				"x": 0.8282103387,
				"y": 0.138807787,
				"z": -3.9041865629,
				"element": "H" 
			},
			{
				"x": 2.9148017074,
				"y": 1.5012890751,
				"z": -0.9851905366,
				"element": "H" 
			},
			{
				"x": 2.92705653,
				"y": 3.9615419308,
				"z": -1.2420342952,
				"element": "H" 
			},
			{
				"x": 0.8268635628,
				"y": 5.1678644928,
				"z": -1.8125127075,
				"element": "H" 
			},
			{
				"x": -1.2797634955,
				"y": 3.8836072352,
				"z": -2.129707181,
				"element": "H" 
			},
			{
				"x": -1.288030914,
				"y": 1.4268698165,
				"z": -1.8611871087,
				"element": "H" 
			},
			{
				"x": 1.6671029835,
				"y": 0.4352319803,
				"z": 1.4427670913,
				"element": "H" 
			},
			{
				"x": 2.3575940005,
				"y": 1.8853843128,
				"z": 3.3150830594,
				"element": "H" 
			},
			{
				"x": 0.6452775786,
				"y": 3.0092890869,
				"z": 4.7279410929,
				"element": "H" 
			},
			{
				"x": -1.7709012205,
				"y": 2.6583876097,
				"z": 4.2321151037,
				"element": "H" 
			},
			{
				"x": -2.4526897735,
				"y": 1.1967365121,
				"z": 2.3663515847,
				"element": "H" 
			},
			{
				"x": -0.2662020855,
				"y": -3.1288661673,
				"z": 3.9153955768,
				"element": "H" 
			},
			{
				"x": -1.7182087516,
				"y": -1.9871932108,
				"z": 3.9237476917,
				"element": "H" 
			}
		],
		 "valence_orbital": [ 
			{
				"type": "occ",
				"energy": -0.24523,
				"method": "rhf"
			},
			{
				"type": "occ",
				"energy": -0.23884,
				"method": "rhf"
			},
			{
				"type": "occ",
				"energy": -0.2352,
				"method": "rhf"
			},
			{
				"type": "occ",
				"energy": -0.23023,
				"method": "rhf"
			},
			{
				"type": "occ",
				"energy": -0.21099,
				"method": "rhf"
			},
			{
				"type": "unocc",
				"energy": -0.02041,
				"method": "rhf"
			},
			{
				"type": "unocc",
				"energy": -0.00717,
				"method": "rhf"
			},
			{
				"type": "unocc",
				"energy": -0.00148,
				"method": "rhf"
			},
			{
				"type": "unocc",
				"energy": 0.00317,
				"method": "rhf"
			},
			{
				"type": "unocc",
				"energy": 0.00813,
				"method": "rhf"
			}
		],
		"cosmo_sigma_profile": { 
			"-0.025": 0.0,
			"-0.024": 0.0,
			"-0.023": 0.0,
			"-0.022": 0.0,
			"-0.021": 0.0,
			"-0.02": 0.0,
			"-0.019": 0.0,
			"-0.018": 0.0,
			"-0.017": 0.0,
			"-0.016": 0.0,
			"-0.015": 0.0,
			"-0.014": 0.0,
			"-0.013": 0.0,
			"-0.012": 0.0,
			"-0.011": 0.0,
			"-0.01": 0.0,
			"-0.009": 0.0,
			"-0.008": 0.0,
			"-0.007": 0.0,
			"-0.006": 5.42152072349,
			"-0.005": 27.1222268321,
			"-0.004": 41.3092441877,
			"-0.003": 53.5158679988,
			"-0.002": 47.2228533744,
			"-0.001": 43.9176532539,
			"0.0": 37.863194521,
			"0.001": 39.5347578895,
			"0.002": 27.812540124,
			"0.003": 23.0424205668,
			"0.004": 24.4281740753,
			"0.005": 25.0248211303,
			"0.006": 23.2584222277,
			"0.007": 11.9380028931,
			"0.008": 2.43450105484,
			"0.009": 0.304056292337,
			"0.01": 0.0,
			"0.011": 0.0,
			"0.012": 0.0,
			"0.013": 0.0,
			"0.014": 0.0,
			"0.015": 0.0,
			"0.016": 0.0,
			"0.017": 0.0,
			"0.018": 0.0,
			"0.019": 0.0,
			"0.02": 0.0,
			"0.021": 0.0,
			"0.022": 0.0,
			"0.023": 0.0,
			"0.024": 0.0,
			"0.025": 0.0
		}
	}
}
