{
	 "smiles": "CC(=O)NC1=CC=C(Br)C=C1C(O)=O", 
	 "Tm": 496.15, 
	 "num_atms": 22, 
	 "gaussian": { 
		 "optdone": 1, 
		 "sigma_profile": "yes", 
		 "theory": "DFT", 
		 "functional": "B3LYP", 
		 "basiset": "6-31G**", 
		 "properties": { 
			 "R2extent": 6242.9213, 
			 "electric_dipole_moment_norm": 5.84307377157, 
			 "electric_quadrupole_moment_norm": 15.3640753139, 
			 "total_energy": -3199.63445102, 
			 "HOMO_LUMO_gap": 0.18495, 
			 "cosmo_polarized_energy": -19.95, 
			 "cosmo_cavitation_energy": 29.33, 
			 "cosmo_dispersion_energy": -21.46, 
			 "cosmo_repulsion_energy": 1.71, 
			 "cosmo_total_nonelectrostatic_energy": 9.59, 
			 "SMD_solvation_energy": 5.73 
		},
		"coords": [
			{
				"x": -1.1310575315,
				"y": 4.0411253403,
				"z": 0.3702406368,
				"element": "C" 
			},
			{
				"x": -0.1824800874,
				"y": 2.8854664711,
				"z": 0.64470166,
				"element": "C" 
			},
			{
				"x": 0.2568338031,
				"y": 2.6437477407,
				"z": 1.7548702297,
				"element": "O" 
			},
			{
				"x": 0.1559788877,
				"y": 2.1485969023,
				"z": -0.4805451931,
				"element": "N" 
			},
			{
				"x": 1.1599971623,
				"y": 1.1576487782,
				"z": -0.5350475958,
				"element": "C" 
			},
			{
				"x": 2.0766992229,
				"y": 1.2202366215,
				"z": -1.5949121833,
				"element": "C" 
			},
			{
				"x": 3.1210326695,
				"y": 0.3095750418,
				"z": -1.7092839417,
				"element": "C" 
			},
			{
				"x": 3.2788854443,
				"y": -0.6649338955,
				"z": -0.7248113383,
				"element": "C" 
			},
			{
				"x": 4.7315830416,
				"y": -1.8971800428,
				"z": -0.8403475353,
				"element": "Br" 
			},
			{
				"x": 2.3838816364,
				"y": -0.749160988,
				"z": 0.3327874853,
				"element": "C" 
			},
			{
				"x": 1.2964422778,
				"y": 0.1316825253,
				"z": 0.4224737629,
				"element": "C" 
			},
			{
				"x": 0.3401560613,
				"y": -0.1637156874,
				"z": 1.535102844,
				"element": "C" 
			},
			{
				"x": -0.9489887056,
				"y": 0.1020975544,
				"z": 1.2262550143,
				"element": "O" 
			},
			{
				"x": 0.6634159459,
				"y": -0.6935689114,
				"z": 2.5767560856,
				"element": "O" 
			},
			{
				"x": -1.7865085667,
				"y": 4.1623573158,
				"z": 1.2338188422,
				"element": "H" 
			},
			{
				"x": -0.553233083,
				"y": 4.9650510855,
				"z": 0.2581997524,
				"element": "H" 
			},
			{
				"x": -1.7374000285,
				"y": 3.8973422017,
				"z": -0.5286190469,
				"element": "H" 
			},
			{
				"x": -0.1322281509,
				"y": 2.5264083225,
				"z": -1.3717424067,
				"element": "H" 
			},
			{
				"x": 1.9807813281,
				"y": 2.015008092,
				"z": -2.329970777,
				"element": "H" 
			},
			{
				"x": 3.8162766927,
				"y": 0.3720102218,
				"z": -2.5385147706,
				"element": "H" 
			},
			{
				"x": 2.4924755814,
				"y": -1.5075420699,
				"z": 1.0984136166,
				"element": "H" 
			},
			{
				"x": -1.4553436015,
				"y": -0.12625262,
				"z": 2.0236748588,
				"element": "H" 
			}
		],
		 "valence_orbital": [ 
			{
				"type": "occ",
				"energy": -0.28833,
				"method": "rhf"
			},
			{
				"type": "occ",
				"energy": -0.28257,
				"method": "rhf"
			},
			{
				"type": "occ",
				"energy": -0.27148,
				"method": "rhf"
			},
			{
				"type": "occ",
				"energy": -0.25988,
				"method": "rhf"
			},
			{
				"type": "occ",
				"energy": -0.23511,
				"method": "rhf"
			},
			{
				"type": "unocc",
				"energy": -0.05016,
				"method": "rhf"
			},
			{
				"type": "unocc",
				"energy": -0.02783,
				"method": "rhf"
			},
			{
				"type": "unocc",
				"energy": 0.00203,
				"method": "rhf"
			},
			{
				"type": "unocc",
				"energy": 0.02077,
				"method": "rhf"
			},
			{
				"type": "unocc",
				"energy": 0.04423,
				"method": "rhf"
			}
		],
		"cosmo_sigma_profile": { 
			"-0.025": 0.0,
			"-0.024": 0.0,
			"-0.023": 0.0,
			"-0.022": 0.0,
			"-0.021": 0.0,
			"-0.02": 0.0,
			"-0.019": 0.0476382448325,
			"-0.018": 0.708868822003,
			"-0.017": 1.03276397156,
			"-0.016": 1.11268911071,
			"-0.015": 1.84445455631,
			"-0.014": 2.0238126199,
			"-0.013": 2.37999607701,
			"-0.012": 2.11683058472,
			"-0.011": 2.92244264562,
			"-0.01": 1.94396141621,
			"-0.009": 2.45354634061,
			"-0.008": 4.12202751613,
			"-0.007": 8.04130684661,
			"-0.006": 10.7227133504,
			"-0.005": 11.1470136298,
			"-0.004": 11.6112662357,
			"-0.003": 14.1741536144,
			"-0.002": 16.255195541,
			"-0.001": 13.9515745723,
			"0.0": 13.619202239,
			"0.001": 21.3023451166,
			"0.002": 18.4158591075,
			"0.003": 13.6345964947,
			"0.004": 15.5078253076,
			"0.005": 6.72547103991,
			"0.006": 3.92561456091,
			"0.007": 4.94234273448,
			"0.008": 4.42648528403,
			"0.009": 4.2987479875,
			"0.01": 5.13371133657,
			"0.011": 6.2639011217,
			"0.012": 6.35629535374,
			"0.013": 2.76812935386,
			"0.014": 1.16404592928,
			"0.015": 0.0536442706966,
			"0.016": 0.0,
			"0.017": 0.0,
			"0.018": 0.0,
			"0.019": 0.0,
			"0.02": 0.0,
			"0.021": 0.0,
			"0.022": 0.0,
			"0.023": 0.0,
			"0.024": 0.0,
			"0.025": 0.0
		}
	}
}
