{
	 "smiles": "CC1=C(N)NN=C1C1=CC=NC=C1", 
	 "Tm": 434.15, 
	 "num_atms": 23, 
	 "gaussian": { 
		 "optdone": 1, 
		 "sigma_profile": "yes", 
		 "theory": "DFT", 
		 "functional": "B3LYP", 
		 "basiset": "6-31G**", 
		 "properties": { 
			 "R2extent": 3054.5943, 
			 "electric_dipole_moment_norm": 5.89934112084, 
			 "electric_quadrupole_moment_norm": 9.86022141384, 
			 "total_energy": -567.97241524, 
			 "HOMO_LUMO_gap": 0.18949, 
			 "cosmo_polarized_energy": -16.58, 
			 "cosmo_cavitation_energy": 26.82, 
			 "cosmo_dispersion_energy": -19.98, 
			 "cosmo_repulsion_energy": 1.58, 
			 "cosmo_total_nonelectrostatic_energy": 8.42, 
			 "SMD_solvation_energy": 2.23 
		},
		"coords": [
			{
				"x": 1.1787694595,
				"y": 1.5970820052,
				"z": 2.7466915412,
				"element": "C" 
			},
			{
				"x": 1.3493793428,
				"y": 1.272773888,
				"z": 1.2923111767,
				"element": "C" 
			},
			{
				"x": 2.5489361314,
				"y": 1.2953318527,
				"z": 0.5945183485,
				"element": "C" 
			},
			{
				"x": 3.8497918766,
				"y": 1.6850772369,
				"z": 0.9444642224,
				"element": "N" 
			},
			{
				"x": 2.2726025678,
				"y": 0.8678765355,
				"z": -0.6685519421,
				"element": "N" 
			},
			{
				"x": 0.9749146555,
				"y": 0.5560370253,
				"z": -0.852048361,
				"element": "N" 
			},
			{
				"x": 0.3978841638,
				"y": 0.8078865604,
				"z": 0.3297902737,
				"element": "C" 
			},
			{
				"x": -1.043674025,
				"y": 0.5514327272,
				"z": 0.4845197334,
				"element": "C" 
			},
			{
				"x": -1.704827466,
				"y": -0.3332602147,
				"z": -0.3840715918,
				"element": "C" 
			},
			{
				"x": -3.0687572103,
				"y": -0.5535407241,
				"z": -0.2238830603,
				"element": "C" 
			},
			{
				"x": -3.819663617,
				"y": 0.0259624975,
				"z": 0.7255344299,
				"element": "N" 
			},
			{
				"x": -3.18773995,
				"y": 0.8723466886,
				"z": 1.5463934069,
				"element": "C" 
			},
			{
				"x": -1.8267074585,
				"y": 1.1694025063,
				"z": 1.4707847505,
				"element": "C" 
			},
			{
				"x": 0.7727256895,
				"y": 2.6023733012,
				"z": 2.9167074581,
				"element": "H" 
			},
			{
				"x": 2.1414269005,
				"y": 1.5469653787,
				"z": 3.2689657703,
				"element": "H" 
			},
			{
				"x": 0.5071171689,
				"y": 0.8877047678,
				"z": 3.2399235706,
				"element": "H" 
			},
			{
				"x": 4.5002358497,
				"y": 0.9068420023,
				"z": 1.0043680526,
				"element": "H" 
			},
			{
				"x": 3.8660874866,
				"y": 2.1975307677,
				"z": 1.8177649433,
				"element": "H" 
			},
			{
				"x": 2.9093160281,
				"y": 0.8458940231,
				"z": -1.450145002,
				"element": "H" 
			},
			{
				"x": -1.1479545676,
				"y": -0.8343682635,
				"z": -1.1676254484,
				"element": "H" 
			},
			{
				"x": -3.5896618071,
				"y": -1.2378742058,
				"z": -0.8919285848,
				"element": "H" 
			},
			{
				"x": -3.8022824473,
				"y": 1.3480489611,
				"z": 2.3096587746,
				"element": "H" 
			},
			{
				"x": -1.3991187719,
				"y": 1.8883746827,
				"z": 2.1595575376,
				"element": "H" 
			}
		],
		 "valence_orbital": [ 
			{
				"type": "occ",
				"energy": -0.28447,
				"method": "rhf"
			},
			{
				"type": "occ",
				"energy": -0.25009,
				"method": "rhf"
			},
			{
				"type": "occ",
				"energy": -0.24231,
				"method": "rhf"
			},
			{
				"type": "occ",
				"energy": -0.23233,
				"method": "rhf"
			},
			{
				"type": "occ",
				"energy": -0.21805,
				"method": "rhf"
			},
			{
				"type": "unocc",
				"energy": -0.02856,
				"method": "rhf"
			},
			{
				"type": "unocc",
				"energy": 0.00136,
				"method": "rhf"
			},
			{
				"type": "unocc",
				"energy": 0.03257,
				"method": "rhf"
			},
			{
				"type": "unocc",
				"energy": 0.05682,
				"method": "rhf"
			},
			{
				"type": "unocc",
				"energy": 0.08008,
				"method": "rhf"
			}
		],
		"cosmo_sigma_profile": { 
			"-0.025": 0.0,
			"-0.024": 0.0,
			"-0.023": 0.0,
			"-0.022": 0.0,
			"-0.021": 0.0,
			"-0.02": 0.0,
			"-0.019": 0.0,
			"-0.018": 0.0,
			"-0.017": 0.027712115728,
			"-0.016": 1.09593415375,
			"-0.015": 1.18286974472,
			"-0.014": 1.43359796316,
			"-0.013": 1.45432578737,
			"-0.012": 3.21332587767,
			"-0.011": 3.51842031062,
			"-0.01": 4.54073504598,
			"-0.009": 4.19372499588,
			"-0.008": 3.33714161942,
			"-0.007": 2.86054382988,
			"-0.006": 8.50192363733,
			"-0.005": 13.287871818,
			"-0.004": 13.4319792411,
			"-0.003": 11.9775702423,
			"-0.002": 13.2925835955,
			"-0.001": 12.052943141,
			"0.0": 13.3828769726,
			"0.001": 11.8681307119,
			"0.002": 13.8625001941,
			"0.003": 22.6350506961,
			"0.004": 11.4120488244,
			"0.005": 7.98345397668,
			"0.006": 5.67036118895,
			"0.007": 3.13137602526,
			"0.008": 3.91721219197,
			"0.009": 3.56159856511,
			"0.01": 3.72839992841,
			"0.011": 2.05568338076,
			"0.012": 2.90433210117,
			"0.013": 2.01119771544,
			"0.014": 2.52753213599,
			"0.015": 1.93413177053,
			"0.016": 0.898231554484,
			"0.017": 0.683390853291,
			"0.018": 0.0190927814523,
			"0.019": 0.0,
			"0.02": 0.0,
			"0.021": 0.0,
			"0.022": 0.0,
			"0.023": 0.0,
			"0.024": 0.0,
			"0.025": 0.0
		}
	}
}
