{
	 "smiles": "CSC(=N/OC(=O)N(C)C=C1/C=NC=N1)C(=O)N(C)C", 
	 "Tm": 525.15, 
	 "num_atms": 35, 
	 "gaussian": { 
		 "optdone": 1, 
		 "sigma_profile": "yes", 
		 "theory": "DFT", 
		 "functional": "B3LYP", 
		 "basiset": "6-31G**", 
		 "properties": { 
			 "R2extent": 8213.9833, 
			 "electric_dipole_moment_norm": 7.7900241662, 
			 "electric_quadrupole_moment_norm": 28.834992609, 
			 "total_energy": -1325.72982371, 
			 "HOMO_LUMO_gap": 0.15862, 
			 "cosmo_polarized_energy": -26.49, 
			 "cosmo_cavitation_energy": 41.99, 
			 "cosmo_dispersion_energy": -28.66, 
			 "cosmo_repulsion_energy": 2.15, 
			 "cosmo_total_nonelectrostatic_energy": 15.49, 
			 "SMD_solvation_energy": 5.92 
		},
		"coords": [
			{
				"x": -1.211787305,
				"y": 3.5049823585,
				"z": 2.6687427688,
				"element": "C" 
			},
			{
				"x": -0.6878371686,
				"y": 2.0407614733,
				"z": 3.6398011876,
				"element": "S" 
			},
			{
				"x": 0.0274481954,
				"y": 0.8927954501,
				"z": 2.5006218127,
				"element": "C" 
			},
			{
				"x": -0.1297048099,
				"y": 0.6712043287,
				"z": 1.2449345073,
				"element": "N" 
			},
			{
				"x": -1.1108913577,
				"y": 1.5549168628,
				"z": 0.671595978,
				"element": "O" 
			},
			{
				"x": -1.6659986323,
				"y": 1.1006139345,
				"z": -0.4960729429,
				"element": "C" 
			},
			{
				"x": -2.8428672594,
				"y": 1.2679376718,
				"z": -0.6912762338,
				"element": "O" 
			},
			{
				"x": -0.7907404363,
				"y": 0.5027824673,
				"z": -1.4231288589,
				"element": "N" 
			},
			{
				"x": 0.6408335388,
				"y": 0.8103550418,
				"z": -1.4626518183,
				"element": "C" 
			},
			{
				"x": -1.370330029,
				"y": -0.2601554851,
				"z": -2.4014489949,
				"element": "C" 
			},
			{
				"x": -0.7724194926,
				"y": -0.9500351458,
				"z": -3.4205962975,
				"element": "C" 
			},
			{
				"x": 0.6007615691,
				"y": -1.1944901043,
				"z": -3.8443434509,
				"element": "C" 
			},
			{
				"x": 0.6064500567,
				"y": -1.9726519678,
				"z": -4.8967906593,
				"element": "N" 
			},
			{
				"x": -0.7571017297,
				"y": -2.210091583,
				"z": -5.1330569611,
				"element": "C" 
			},
			{
				"x": -1.6028351018,
				"y": -1.6528911625,
				"z": -4.312856364,
				"element": "N" 
			},
			{
				"x": 0.8634416475,
				"y": -0.1480894726,
				"z": 3.2451525071,
				"element": "C" 
			},
			{
				"x": 0.3108256458,
				"y": -0.731605883,
				"z": 4.1705972304,
				"element": "O" 
			},
			{
				"x": 2.1456087143,
				"y": -0.3774314514,
				"z": 2.8483400285,
				"element": "N" 
			},
			{
				"x": 2.8975733519,
				"y": 0.4154129408,
				"z": 1.8878926168,
				"element": "C" 
			},
			{
				"x": 2.8947017554,
				"y": -1.4354624857,
				"z": 3.5197107295,
				"element": "C" 
			},
			{
				"x": -0.4081995284,
				"y": 3.8626392561,
				"z": 2.0249853721,
				"element": "H" 
			},
			{
				"x": -1.4196337937,
				"y": 4.2596064223,
				"z": 3.4311604977,
				"element": "H" 
			},
			{
				"x": -2.1059178698,
				"y": 3.3018036428,
				"z": 2.0842574414,
				"element": "H" 
			},
			{
				"x": 1.2360056274,
				"y": -0.0529631049,
				"z": -1.1565444968,
				"element": "H" 
			},
			{
				"x": 0.8989463276,
				"y": 1.0946280069,
				"z": -2.485929826,
				"element": "H" 
			},
			{
				"x": 0.8516793184,
				"y": 1.6429289865,
				"z": -0.7979272481,
				"element": "H" 
			},
			{
				"x": -2.4506381838,
				"y": -0.3154588529,
				"z": -2.3363347422,
				"element": "H" 
			},
			{
				"x": 1.5219026619,
				"y": -0.8422957417,
				"z": -3.3981782815,
				"element": "H" 
			},
			{
				"x": -1.0657640784,
				"y": -2.8338706396,
				"z": -5.9646373352,
				"element": "H" 
			},
			{
				"x": 3.8174893328,
				"y": 0.7854094837,
				"z": 2.3564301081,
				"element": "H" 
			},
			{
				"x": 3.1774985593,
				"y": -0.1900372084,
				"z": 1.0170522568,
				"element": "H" 
			},
			{
				"x": 2.3145317332,
				"y": 1.2667985874,
				"z": 1.5456473253,
				"element": "H" 
			},
			{
				"x": 2.2194162502,
				"y": -1.9797791686,
				"z": 4.1771045835,
				"element": "H" 
			},
			{
				"x": 3.7131762332,
				"y": -1.0100067604,
				"z": 4.113059095,
				"element": "H" 
			},
			{
				"x": 3.3204762574,
				"y": -2.1183606979,
				"z": 2.7760884649,
				"element": "H" 
			}
		],
		 "valence_orbital": [ 
			{
				"type": "occ",
				"energy": -0.26978,
				"method": "rhf"
			},
			{
				"type": "occ",
				"energy": -0.26521,
				"method": "rhf"
			},
			{
				"type": "occ",
				"energy": -0.25807,
				"method": "rhf"
			},
			{
				"type": "occ",
				"energy": -0.25372,
				"method": "rhf"
			},
			{
				"type": "occ",
				"energy": -0.24075,
				"method": "rhf"
			},
			{
				"type": "unocc",
				"energy": -0.08213,
				"method": "rhf"
			},
			{
				"type": "unocc",
				"energy": -0.05423,
				"method": "rhf"
			},
			{
				"type": "unocc",
				"energy": -0.01776,
				"method": "rhf"
			},
			{
				"type": "unocc",
				"energy": 0.00635,
				"method": "rhf"
			},
			{
				"type": "unocc",
				"energy": 0.01833,
				"method": "rhf"
			}
		],
		"cosmo_sigma_profile": { 
			"-0.025": 0.0,
			"-0.024": 0.0,
			"-0.023": 0.0,
			"-0.022": 0.0,
			"-0.021": 0.0,
			"-0.02": 0.0,
			"-0.019": 0.0,
			"-0.018": 0.0,
			"-0.017": 0.0,
			"-0.016": 0.0,
			"-0.015": 0.0,
			"-0.014": 0.0,
			"-0.013": 0.0,
			"-0.012": 0.0,
			"-0.011": 0.0,
			"-0.01": 0.0,
			"-0.009": 1.32259122076,
			"-0.008": 7.14112653658,
			"-0.007": 18.436856404,
			"-0.006": 25.1507103328,
			"-0.005": 32.9396097769,
			"-0.004": 30.2047779038,
			"-0.003": 32.7571435937,
			"-0.002": 27.9289922052,
			"-0.001": 16.6601618464,
			"0.0": 16.1129689145,
			"0.001": 16.1383770945,
			"0.002": 14.8479950589,
			"0.003": 12.6533493428,
			"0.004": 11.2333479105,
			"0.005": 10.9578308058,
			"0.006": 8.97997646698,
			"0.007": 7.14356267842,
			"0.008": 5.89219171518,
			"0.009": 7.01047223229,
			"0.01": 8.26960635789,
			"0.011": 6.3103960696,
			"0.012": 6.81040764824,
			"0.013": 4.35600836212,
			"0.014": 2.06197855667,
			"0.015": 2.06614496047,
			"0.016": 2.22103768167,
			"0.017": 0.940850023995,
			"0.018": 0.133120103473,
			"0.019": 0.0,
			"0.02": 0.0,
			"0.021": 0.0,
			"0.022": 0.0,
			"0.023": 0.0,
			"0.024": 0.0,
			"0.025": 0.0
		}
	}
}
