{
	 "smiles": "CC1=C(C=CC(=C1)C(=O)NCC(O)=O)[N+]([O-])=O", 
	 "Tm": 490.15, 
	 "num_atms": 27, 
	 "gaussian": { 
		 "optdone": 1, 
		 "sigma_profile": "yes", 
		 "theory": "DFT", 
		 "functional": "B3LYP", 
		 "basiset": "6-31G**", 
		 "properties": { 
			 "R2extent": 5795.4413, 
			 "electric_dipole_moment_norm": 4.33425793995, 
			 "electric_quadrupole_moment_norm": 28.8458657877, 
			 "total_energy": -872.628345385, 
			 "HOMO_LUMO_gap": 0.16261, 
			 "cosmo_polarized_energy": -26.99, 
			 "cosmo_cavitation_energy": 32.85, 
			 "cosmo_dispersion_energy": -23.31, 
			 "cosmo_repulsion_energy": 1.82, 
			 "cosmo_total_nonelectrostatic_energy": 11.35, 
			 "SMD_solvation_energy": 8.81 
		},
		"coords": [
			{
				"x": 3.9279099698,
				"y": -0.0519399168,
				"z": 0.8138560122,
				"element": "C" 
			},
			{
				"x": 2.4679760718,
				"y": 0.2888250269,
				"z": 0.9902084387,
				"element": "C" 
			},
			{
				"x": 1.9596218496,
				"y": 1.3601667777,
				"z": 1.7513069224,
				"element": "C" 
			},
			{
				"x": 0.5877315833,
				"y": 1.5970670991,
				"z": 1.8866670053,
				"element": "C" 
			},
			{
				"x": -0.3253255205,
				"y": 0.7618229963,
				"z": 1.2621441473,
				"element": "C" 
			},
			{
				"x": 0.1357697562,
				"y": -0.2917565124,
				"z": 0.4628419558,
				"element": "C" 
			},
			{
				"x": 1.5112578869,
				"y": -0.5117398664,
				"z": 0.3463754944,
				"element": "C" 
			},
			{
				"x": -0.8927650771,
				"y": -1.2037736266,
				"z": -0.154377119,
				"element": "C" 
			},
			{
				"x": -1.9088017293,
				"y": -1.4958837783,
				"z": 0.4617000651,
				"element": "O" 
			},
			{
				"x": -0.6394145054,
				"y": -1.7199193548,
				"z": -1.4054387213,
				"element": "N" 
			},
			{
				"x": 0.1909850392,
				"y": -1.1387157666,
				"z": -2.4374634835,
				"element": "C" 
			},
			{
				"x": -0.4738387423,
				"y": -1.3484784299,
				"z": -3.8017828758,
				"element": "C" 
			},
			{
				"x": 0.1830396155,
				"y": -0.8148861484,
				"z": -4.8545210214,
				"element": "O" 
			},
			{
				"x": -1.4967503651,
				"y": -1.9658123726,
				"z": -3.9532956537,
				"element": "O" 
			},
			{
				"x": 2.8497478574,
				"y": 2.2993409929,
				"z": 2.462229672,
				"element": "N" 
			},
			{
				"x": 4.044839486,
				"y": 2.0168455597,
				"z": 2.5539105664,
				"element": "O" 
			},
			{
				"x": 2.3440976252,
				"y": 3.3188368741,
				"z": 2.9301172065,
				"element": "O" 
			},
			{
				"x": 4.5042615324,
				"y": 0.800892559,
				"z": 0.4473911077,
				"element": "H" 
			},
			{
				"x": 4.0289462986,
				"y": -0.8794333286,
				"z": 0.1064631646,
				"element": "H" 
			},
			{
				"x": 4.3864987906,
				"y": -0.341565606,
				"z": 1.762346846,
				"element": "H" 
			},
			{
				"x": 0.2660344329,
				"y": 2.4353694269,
				"z": 2.4909453178,
				"element": "H" 
			},
			{
				"x": -1.3925115777,
				"y": 0.9069939682,
				"z": 1.38594293,
				"element": "H" 
			},
			{
				"x": 1.8676077337,
				"y": -1.3557550146,
				"z": -0.2360539583,
				"element": "H" 
			},
			{
				"x": -1.412509342,
				"y": -2.2685179019,
				"z": -1.7742381078,
				"element": "H" 
			},
			{
				"x": 0.3459427591,
				"y": -0.0650648948,
				"z": -2.273927546,
				"element": "H" 
			},
			{
				"x": 1.1899130572,
				"y": -1.5997943095,
				"z": -2.4876755172,
				"element": "H" 
			},
			{
				"x": 0.9801355139,
				"y": -0.3447244525,
				"z": -4.5688728482,
				"element": "H" 
			}
		],
		 "valence_orbital": [ 
			{
				"type": "occ",
				"energy": -0.29948,
				"method": "rhf"
			},
			{
				"type": "occ",
				"energy": -0.29041,
				"method": "rhf"
			},
			{
				"type": "occ",
				"energy": -0.2833,
				"method": "rhf"
			},
			{
				"type": "occ",
				"energy": -0.27934,
				"method": "rhf"
			},
			{
				"type": "occ",
				"energy": -0.26383,
				"method": "rhf"
			},
			{
				"type": "unocc",
				"energy": -0.10122,
				"method": "rhf"
			},
			{
				"type": "unocc",
				"energy": -0.03627,
				"method": "rhf"
			},
			{
				"type": "unocc",
				"energy": -0.03499,
				"method": "rhf"
			},
			{
				"type": "unocc",
				"energy": -0.01987,
				"method": "rhf"
			},
			{
				"type": "unocc",
				"energy": 0.02273,
				"method": "rhf"
			}
		],
		"cosmo_sigma_profile": { 
			"-0.025": 0.0,
			"-0.024": 0.0,
			"-0.023": 0.0,
			"-0.022": 0.0,
			"-0.021": 0.0,
			"-0.02": 1.17649235412,
			"-0.019": 1.50380707815,
			"-0.018": 1.35878846901,
			"-0.017": 1.44222712206,
			"-0.016": 1.25504515496,
			"-0.015": 0.994047152485,
			"-0.014": 0.946636382222,
			"-0.013": 1.16042667385,
			"-0.012": 1.48960828421,
			"-0.011": 1.78683200477,
			"-0.01": 2.20578863634,
			"-0.009": 4.88246580595,
			"-0.008": 8.21700817084,
			"-0.007": 10.0855963698,
			"-0.006": 11.2875148025,
			"-0.005": 13.2120719379,
			"-0.004": 16.1427724812,
			"-0.003": 16.2530513575,
			"-0.002": 18.1152567595,
			"-0.001": 20.2398564576,
			"0.0": 18.4187917907,
			"0.001": 14.1204296139,
			"0.002": 9.46795989302,
			"0.003": 7.46857135937,
			"0.004": 6.60623367082,
			"0.005": 6.63072527115,
			"0.006": 7.82215711483,
			"0.007": 10.4105063452,
			"0.008": 10.5898043187,
			"0.009": 11.5386510508,
			"0.01": 8.65755829798,
			"0.011": 5.30188942126,
			"0.012": 4.73659984357,
			"0.013": 5.26242500506,
			"0.014": 0.77170051155,
			"0.015": 0.0,
			"0.016": 0.0,
			"0.017": 0.0,
			"0.018": 0.0,
			"0.019": 0.0,
			"0.02": 0.0,
			"0.021": 0.0,
			"0.022": 0.0,
			"0.023": 0.0,
			"0.024": 0.0,
			"0.0": 0.0
		}
	}
}
