{
	 "smiles": "OC(=O)C(F)(F)C(F)(F)C(O)=O", 
	 "Tm": 390.15, 
	 "num_atms": 14, 
	 "gaussian": { 
		 "optdone": 1, 
		 "sigma_profile": "yes", 
		 "theory": "DFT", 
		 "functional": "B3LYP", 
		 "basiset": "6-31G**", 
		 "properties": { 
			 "R2extent": 2350.6406, 
			 "electric_dipole_moment_norm": 3.68437337277, 
			 "electric_quadrupole_moment_norm": 7.64100619029, 
			 "total_energy": -853.869090728, 
			 "HOMO_LUMO_gap": 0.24485, 
			 "cosmo_polarized_energy": -15.55, 
			 "cosmo_cavitation_energy": 21.66, 
			 "cosmo_dispersion_energy": -14.94, 
			 "cosmo_repulsion_energy": 1.15, 
			 "cosmo_total_nonelectrostatic_energy": 7.87, 
			 "SMD_solvation_energy": 7.88 
		},
		"coords": [
			{
				"x": -1.2006086388,
				"y": 2.4117885738,
				"z": 0.6905343859,
				"element": "O" 
			},
			{
				"x": -0.9388091626,
				"y": 1.1417900281,
				"z": 0.3564651588,
				"element": "C" 
			},
			{
				"x": -1.7040436869,
				"y": 0.231301399,
				"z": 0.5108548729,
				"element": "O" 
			},
			{
				"x": 0.4612741473,
				"y": 0.9064213055,
				"z": -0.272234737,
				"element": "C" 
			},
			{
				"x": 1.2351348844,
				"y": 2.0401542504,
				"z": -0.1175812295,
				"element": "F" 
			},
			{
				"x": 1.0729226339,
				"y": -0.1129875281,
				"z": 0.3560283653,
				"element": "F" 
			},
			{
				"x": 0.386094724,
				"y": 0.6200648207,
				"z": -1.7903926317,
				"element": "C" 
			},
			{
				"x": -0.443536662,
				"y": 1.5461324709,
				"z": -2.3299179156,
				"element": "F" 
			},
			{
				"x": -0.136429733,
				"y": -0.6113040953,
				"z": -1.978669205,
				"element": "F" 
			},
			{
				"x": 1.7572614187,
				"y": 0.7248561783,
				"z": -2.4993190647,
				"element": "C" 
			},
			{
				"x": 2.5334381604,
				"y": -0.3135876967,
				"z": -2.163180604,
				"element": "O" 
			},
			{
				"x": 2.0554440473,
				"y": 1.6253639879,
				"z": -3.2383057578,
				"element": "O" 
			},
			{
				"x": -0.429927097,
				"y": 2.9690260844,
				"z": 0.4957249065,
				"element": "H" 
			},
			{
				"x": 3.3818849643,
				"y": -0.202519779,
				"z": -2.6263065441,
				"element": "H" 
			}
		],
		 "valence_orbital": [ 
			{
				"type": "occ",
				"energy": -0.37976,
				"method": "rhf"
			},
			{
				"type": "occ",
				"energy": -0.35942,
				"method": "rhf"
			},
			{
				"type": "occ",
				"energy": -0.34679,
				"method": "rhf"
			},
			{
				"type": "occ",
				"energy": -0.32024,
				"method": "rhf"
			},
			{
				"type": "occ",
				"energy": -0.30007,
				"method": "rhf"
			},
			{
				"type": "unocc",
				"energy": -0.05522,
				"method": "rhf"
			},
			{
				"type": "unocc",
				"energy": -0.02403,
				"method": "rhf"
			},
			{
				"type": "unocc",
				"energy": 0.03982,
				"method": "rhf"
			},
			{
				"type": "unocc",
				"energy": 0.05796,
				"method": "rhf"
			},
			{
				"type": "unocc",
				"energy": 0.07891,
				"method": "rhf"
			}
		],
		"cosmo_sigma_profile": { 
			"-0.025": 0.0,
			"-0.024": 0.0,
			"-0.023": 0.0,
			"-0.022": 0.0,
			"-0.021": 0.2685835375,
			"-0.02": 0.994118229363,
			"-0.019": 1.78675458126,
			"-0.018": 1.18633149856,
			"-0.017": 2.19752497441,
			"-0.016": 1.54760675029,
			"-0.015": 0.72506603078,
			"-0.014": 2.31678620597,
			"-0.013": 2.26319293678,
			"-0.012": 1.39777912067,
			"-0.011": 1.77671457322,
			"-0.01": 3.04362402336,
			"-0.009": 2.90228714398,
			"-0.008": 2.14712345559,
			"-0.007": 3.16377495179,
			"-0.006": 3.23641166681,
			"-0.005": 3.82699893816,
			"-0.004": 4.6782497558,
			"-0.003": 6.10102259235,
			"-0.002": 6.84454143272,
			"-0.001": 8.4608877904,
			"0.0": 10.8766140233,
			"0.001": 21.7943088319,
			"0.002": 19.8133958805,
			"0.003": 8.77667347146,
			"0.004": 8.08937404565,
			"0.005": 6.96690718961,
			"0.006": 6.7566139614,
			"0.007": 7.71031683867,
			"0.008": 6.1543710594,
			"0.009": 9.94886946219,
			"0.01": 5.27326308445,
			"0.011": 0.321526850688,
			"0.012": 0.0,
			"0.013": 0.0,
			"0.014": 0.0,
			"0.015": 0.0,
			"0.016": 0.0,
			"0.017": 0.0,
			"0.018": 0.0,
			"0.019": 0.0,
			"0.02": 0.0,
			"0.021": 0.0,
			"0.022": 0.0,
			"0.023": 0.0,
			"0.024": 0.0,
			"0.025": 0.0
		}
	}
}
