{
	 "smiles": "C1=CC2=C3C(=C1)C1=CC=CC4=C1C(=CC=C4)C3=CC=C2", 
	 "Tm": 549.15, 
	 "num_atms": 32, 
	 "gaussian": { 
		 "optdone": 1, 
		 "sigma_profile": "yes", 
		 "theory": "DFT", 
		 "functional": "B3LYP", 
		 "basiset": "6-31G**", 
		 "properties": { 
			 "R2extent": 5212.4558, 
			 "electric_dipole_moment_norm": 0.0, 
			 "electric_quadrupole_moment_norm": 13.1215426898, 
			 "total_energy": -769.408467984, 
			 "HOMO_LUMO_gap": 0.1122, 
			 "cosmo_polarized_energy": -7.53, 
			 "cosmo_cavitation_energy": 33.8, 
			 "cosmo_dispersion_energy": -25.77, 
			 "cosmo_repulsion_energy": 1.84, 
			 "cosmo_total_nonelectrostatic_energy": 9.87, 
			 "SMD_solvation_energy": 4.45 
		},
		"coords": [
			{
				"x": 1.6036426693,
				"y": -3.3768853337,
				"z": 1.8030861246,
				"element": "C" 
			},
			{
				"x": 2.7877140443,
				"y": -3.2350081297,
				"z": 1.1172469123,
				"element": "C" 
			},
			{
				"x": 2.9613924051,
				"y": -2.1641794793,
				"z": 0.2037070048,
				"element": "C" 
			},
			{
				"x": 1.8936143592,
				"y": -1.2272362034,
				"z": -0.0023093886,
				"element": "C" 
			},
			{
				"x": 0.6673793641,
				"y": -1.391433296,
				"z": 0.7212346675,
				"element": "C" 
			},
			{
				"x": 0.5544790458,
				"y": -2.4611490936,
				"z": 1.6044190307,
				"element": "C" 
			},
			{
				"x": -0.4311019726,
				"y": -0.4275228487,
				"z": 0.5092652989,
				"element": "C" 
			},
			{
				"x": -1.6465032955,
				"y": -0.5299586491,
				"z": 1.1795812352,
				"element": "C" 
			},
			{
				"x": -2.6901179717,
				"y": 0.3906825887,
				"z": 0.9744793903,
				"element": "C" 
			},
			{
				"x": -2.5321297719,
				"y": 1.4330844704,
				"z": 0.0907573663,
				"element": "C" 
			},
			{
				"x": -1.3156863305,
				"y": 1.5889544906,
				"z": -0.6215260119,
				"element": "C" 
			},
			{
				"x": -0.2479084193,
				"y": 0.6520108369,
				"z": -0.4155095014,
				"element": "C" 
			},
			{
				"x": 0.9783247212,
				"y": 0.8162047491,
				"z": -1.139057869,
				"element": "C" 
			},
			{
				"x": 1.0912200399,
				"y": 1.8859121312,
				"z": -2.0222527349,
				"element": "C" 
			},
			{
				"x": 0.0420551617,
				"y": 2.8016467637,
				"z": -2.2209221124,
				"element": "C" 
			},
			{
				"x": -1.1420120103,
				"y": 2.6597764159,
				"z": -1.5350745781,
				"element": "C" 
			},
			{
				"x": 2.0768100013,
				"y": -0.1476993821,
				"z": -0.9270801592,
				"element": "C" 
			},
			{
				"x": 3.2922166583,
				"y": -0.0452547582,
				"z": -1.5973848881,
				"element": "C" 
			},
			{
				"x": 4.335832702,
				"y": -0.965893936,
				"z": -1.392280692,
				"element": "C" 
			},
			{
				"x": 4.1778403068,
				"y": -2.0083026527,
				"z": -0.5085674654,
				"element": "C" 
			},
			{
				"x": 1.4691980633,
				"y": -4.1964408412,
				"z": 2.5030771747,
				"element": "H" 
			},
			{
				"x": 3.604164395,
				"y": -3.9369369969,
				"z": 1.2636183013,
				"element": "H" 
			},
			{
				"x": -0.3607028765,
				"y": -2.6103677244,
				"z": 2.1652292666,
				"element": "H" 
			},
			{
				"x": -1.8135731438,
				"y": -1.3358247771,
				"z": 1.8845500264,
				"element": "H" 
			},
			{
				"x": -3.6211655155,
				"y": 0.2700011234,
				"z": 1.5206618424,
				"element": "H" 
			},
			{
				"x": -3.3321293276,
				"y": 2.1495385327,
				"z": -0.0748155969,
				"element": "H" 
			},
			{
				"x": 2.0063982273,
				"y": 2.0351255305,
				"z": -2.583070427,
				"element": "H" 
			},
			{
				"x": 0.1764966994,
				"y": 3.6211954613,
				"z": -2.9209217183,
				"element": "H" 
			},
			{
				"x": -1.9584622478,
				"y": 3.3617053852,
				"z": -1.6814459979,
				"element": "H" 
			},
			{
				"x": 3.4592896173,
				"y": 0.7606176324,
				"z": -2.3023458318,
				"element": "H" 
			},
			{
				"x": 5.2668843429,
				"y": -0.8452056074,
				"z": -1.9384547376,
				"element": "H" 
			},
			{
				"x": 4.977840059,
				"y": -2.7247564028,
				"z": -0.3429939314,
				"element": "H" 
			}
		],
		 "valence_orbital": [ 
			{
				"type": "occ",
				"energy": -0.2507,
				"method": "rhf"
			},
			{
				"type": "occ",
				"energy": -0.25022,
				"method": "rhf"
			},
			{
				"type": "occ",
				"energy": -0.24694,
				"method": "rhf"
			},
			{
				"type": "occ",
				"energy": -0.24129,
				"method": "rhf"
			},
			{
				"type": "occ",
				"energy": -0.18236,
				"method": "rhf"
			},
			{
				"type": "unocc",
				"energy": -0.07016,
				"method": "rhf"
			},
			{
				"type": "unocc",
				"energy": -0.01645,
				"method": "rhf"
			},
			{
				"type": "unocc",
				"energy": -0.00585,
				"method": "rhf"
			},
			{
				"type": "unocc",
				"energy": 0.00053,
				"method": "rhf"
			},
			{
				"type": "unocc",
				"energy": 0.0021,
				"method": "rhf"
			}
		],
		"cosmo_sigma_profile": { 
			"-0.025": 0.0,
			"-0.024": 0.0,
			"-0.023": 0.0,
			"-0.022": 0.0,
			"-0.021": 0.0,
			"-0.02": 0.0,
			"-0.019": 0.0,
			"-0.018": 0.0,
			"-0.017": 0.0,
			"-0.016": 0.0,
			"-0.015": 0.0,
			"-0.014": 0.0,
			"-0.013": 0.0,
			"-0.012": 0.0,
			"-0.011": 0.0,
			"-0.01": 0.0,
			"-0.009": 0.314052633697,
			"-0.008": 2.68027910318,
			"-0.007": 3.77107967544,
			"-0.006": 19.5777058614,
			"-0.005": 22.6672747039,
			"-0.004": 22.0676482178,
			"-0.003": 18.3199222443,
			"-0.002": 13.9899094032,
			"-0.001": 13.2383413921,
			"0.0": 13.7115974308,
			"0.001": 16.1293359029,
			"0.002": 22.277323489,
			"0.003": 37.6705535341,
			"0.004": 45.3737939539,
			"0.005": 21.3227778795,
			"0.006": 0.347938080801,
			"0.007": 0.0,
			"0.008": 0.0,
			"0.009": 0.0,
			"0.01": 0.0,
			"0.011": 0.0,
			"0.012": 0.0,
			"0.013": 0.0,
			"0.014": 0.0,
			"0.015": 0.0,
			"0.016": 0.0,
			"0.017": 0.0,
			"0.018": 0.0,
			"0.019": 0.0,
			"0.02": 0.0,
			"0.021": 0.0,
			"0.022": 0.0,
			"0.023": 0.0,
			"0.024": 0.0,
			"0.025": 0.0
		}
	}
}
