{
	 "smiles": "N#CC(=CC1=CC=CS1)C1=NC2=C(S1)C=CC=C2", 
	 "Tm": 421.15, 
	 "num_atms": 26, 
	 "gaussian": { 
		 "optdone": 1, 
		 "sigma_profile": "yes", 
		 "theory": "DFT", 
		 "functional": "B3LYP", 
		 "basiset": "6-31G**", 
		 "properties": { 
			 "R2extent": 6476.4884, 
			 "electric_dipole_moment_norm": 5.25949400703, 
			 "electric_quadrupole_moment_norm": 22.0711549535, 
			 "total_energy": -1444.15034891, 
			 "HOMO_LUMO_gap": 0.12561, 
			 "cosmo_polarized_energy": -11.15, 
			 "cosmo_cavitation_energy": 35.08, 
			 "cosmo_dispersion_energy": -25.95, 
			 "cosmo_repulsion_energy": 1.87, 
			 "cosmo_total_nonelectrostatic_energy": 11.0, 
			 "SMD_solvation_energy": 5.9 
		},
		"coords": [
			{
				"x": 1.9040435379,
				"y": 2.2737049613,
				"z": 3.1386325997,
				"element": "N" 
			},
			{
				"x": 1.1675453045,
				"y": 1.9531717324,
				"z": 2.2954666357,
				"element": "C" 
			},
			{
				"x": 0.2544179017,
				"y": 1.5611092755,
				"z": 1.2565337554,
				"element": "C" 
			},
			{
				"x": -0.960700723,
				"y": 2.2109012824,
				"z": 1.2839416811,
				"element": "C" 
			},
			{
				"x": -2.1481859889,
				"y": 2.1581962719,
				"z": 0.4834124281,
				"element": "C" 
			},
			{
				"x": -2.5320311661,
				"y": 1.4282534147,
				"z": -0.6342948128,
				"element": "C" 
			},
			{
				"x": -3.8398079734,
				"y": 1.7324984923,
				"z": -1.0794817801,
				"element": "C" 
			},
			{
				"x": -4.4638006066,
				"y": 2.6895353784,
				"z": -0.3137799892,
				"element": "C" 
			},
			{
				"x": -3.4605005317,
				"y": 3.2384124719,
				"z": 0.970250432,
				"element": "S" 
			},
			{
				"x": 0.7597635926,
				"y": 0.5391976897,
				"z": 0.3405936527,
				"element": "C" 
			},
			{
				"x": 0.1290791575,
				"y": 0.0219985921,
				"z": -0.6744992905,
				"element": "N" 
			},
			{
				"x": 0.8954251962,
				"y": -0.919539308,
				"z": -1.3309027067,
				"element": "C" 
			},
			{
				"x": 2.1863704108,
				"y": -1.1345793477,
				"z": -0.7863582553,
				"element": "C" 
			},
			{
				"x": 2.4124358879,
				"y": -0.0990387818,
				"z": 0.6008315224,
				"element": "S" 
			},
			{
				"x": 3.0689681257,
				"y": -2.0599087742,
				"z": -1.3508509964,
				"element": "C" 
			},
			{
				"x": 2.6460124858,
				"y": -2.7710101847,
				"z": -2.4699435972,
				"element": "C" 
			},
			{
				"x": 1.366890314,
				"y": -2.5665810883,
				"z": -3.0198850999,
				"element": "C" 
			},
			{
				"x": 0.4887998472,
				"y": -1.6482914472,
				"z": -2.4610617493,
				"element": "C" 
			},
			{
				"x": -1.0303141309,
				"y": 2.925932796,
				"z": 2.1012190912,
				"element": "H" 
			},
			{
				"x": -1.8643393878,
				"y": 0.7086413068,
				"z": -1.0868248574,
				"element": "H" 
			},
			{
				"x": -4.3078254351,
				"y": 1.2622281923,
				"z": -1.9365870162,
				"element": "H" 
			},
			{
				"x": -5.4576058124,
				"y": 3.0977381947,
				"z": -0.438851189,
				"element": "H" 
			},
			{
				"x": 4.0562815218,
				"y": -2.2211555155,
				"z": -0.9305178098,
				"element": "H" 
			},
			{
				"x": 3.3153025115,
				"y": -3.4949399443,
				"z": -2.9247906011,
				"element": "H" 
			},
			{
				"x": 1.0645958799,
				"y": -3.1360589907,
				"z": -3.8934074334,
				"element": "H" 
			},
			{
				"x": -0.4997199194,
				"y": -1.4825166698,
				"z": -2.8766446139,
				"element": "H" 
			}
		],
		 "valence_orbital": [ 
			{
				"type": "occ",
				"energy": -0.28739,
				"method": "rhf"
			},
			{
				"type": "occ",
				"energy": -0.27004,
				"method": "rhf"
			},
			{
				"type": "occ",
				"energy": -0.26299,
				"method": "rhf"
			},
			{
				"type": "occ",
				"energy": -0.24301,
				"method": "rhf"
			},
			{
				"type": "occ",
				"energy": -0.22214,
				"method": "rhf"
			},
			{
				"type": "unocc",
				"energy": -0.09653,
				"method": "rhf"
			},
			{
				"type": "unocc",
				"energy": -0.03074,
				"method": "rhf"
			},
			{
				"type": "unocc",
				"energy": -0.01396,
				"method": "rhf"
			},
			{
				"type": "unocc",
				"energy": -0.00595,
				"method": "rhf"
			},
			{
				"type": "unocc",
				"energy": 0.00378,
				"method": "rhf"
			}
		],
		"cosmo_sigma_profile": { 
			"-0.025": 0.0,
			"-0.024": 0.0,
			"-0.023": 0.0,
			"-0.022": 0.0,
			"-0.021": 0.0,
			"-0.02": 0.0,
			"-0.019": 0.0,
			"-0.018": 0.0,
			"-0.017": 0.0,
			"-0.016": 0.0,
			"-0.015": 0.0,
			"-0.014": 0.0,
			"-0.013": 0.0,
			"-0.012": 0.0,
			"-0.011": 0.0,
			"-0.01": 2.04005266396,
			"-0.009": 4.36649548531,
			"-0.008": 4.23861668451,
			"-0.007": 11.1139267378,
			"-0.006": 13.8259047443,
			"-0.005": 15.2051497827,
			"-0.004": 16.0536586505,
			"-0.003": 15.0660949577,
			"-0.002": 17.7695212255,
			"-0.001": 21.3675873929,
			"0.0": 24.3110828333,
			"0.001": 30.4246036308,
			"0.002": 37.1738400741,
			"0.003": 33.0437854392,
			"0.004": 16.6088229606,
			"0.005": 6.07192678152,
			"0.006": 2.76509414602,
			"0.007": 2.97306768872,
			"0.008": 2.79423038564,
			"0.009": 3.01826506418,
			"0.01": 3.25064544467,
			"0.011": 2.62331510563,
			"0.012": 2.36136794169,
			"0.013": 1.2153248437,
			"0.014": 0.0,
			"0.015": 0.0,
			"0.016": 0.0,
			"0.017": 0.0,
			"0.018": 0.0,
			"0.019": 0.0,
			"0.02": 0.0,
			"0.021": 0.0,
			"0.022": 0.0,
			"0.023": 0.0,
			"0.024": 0.0,
			"0.025": 0.0
		}
	}
}
