{
	 "smiles": "CC1=CC(C(=O)CCl)=C(C)N1C1=CC=C(Br)C=C1", 
	 "Tm": 356.15, 
	 "num_atms": 31, 
	 "gaussian": { 
		 "optdone": 1, 
		 "sigma_profile": "yes", 
		 "theory": "DFT", 
		 "functional": "B3LYP", 
		 "basiset": "6-31G**", 
		 "properties": { 
			 "R2extent": 11841.7238, 
			 "electric_dipole_moment_norm": 6.00388101648, 
			 "electric_quadrupole_moment_norm": 32.727070392, 
			 "total_energy": -3702.90240266, 
			 "HOMO_LUMO_gap": 0.17471, 
			 "cosmo_polarized_energy": -14.73, 
			 "cosmo_cavitation_energy": 39.33, 
			 "cosmo_dispersion_energy": -27.66, 
			 "cosmo_repulsion_energy": 2.17, 
			 "cosmo_total_nonelectrostatic_energy": 13.84, 
			 "SMD_solvation_energy": 5.84 
		},
		"coords": [
			{
				"x": 0.13033342,
				"y": 3.7770868997,
				"z": -1.0599881597,
				"element": "C" 
			},
			{
				"x": 0.4121637789,
				"y": 2.7798469502,
				"z": 0.016899311,
				"element": "C" 
			},
			{
				"x": 0.49280878,
				"y": 2.9322224094,
				"z": 1.3750451573,
				"element": "C" 
			},
			{
				"x": 0.8096279849,
				"y": 1.6559558255,
				"z": 1.9565145882,
				"element": "C" 
			},
			{
				"x": 0.9860148906,
				"y": 1.3440900931,
				"z": 3.3805517773,
				"element": "C" 
			},
			{
				"x": 1.258823813,
				"y": 0.2357139044,
				"z": 3.8156986363,
				"element": "O" 
			},
			{
				"x": 0.7969921284,
				"y": 2.5470668629,
				"z": 4.3219914533,
				"element": "C" 
			},
			{
				"x": 1.0175437594,
				"y": 2.1402162424,
				"z": 6.0526880027,
				"element": "Cl" 
			},
			{
				"x": 0.917171522,
				"y": 0.7411306939,
				"z": 0.9071278441,
				"element": "C" 
			},
			{
				"x": 1.2118086525,
				"y": -0.7238829354,
				"z": 0.9145766484,
				"element": "C" 
			},
			{
				"x": 0.6744314735,
				"y": 1.4326921336,
				"z": -0.2610299265,
				"element": "N" 
			},
			{
				"x": 0.686797314,
				"y": 0.8588873672,
				"z": -1.5723702329,
				"element": "C" 
			},
			{
				"x": 1.9000975011,
				"y": 0.6570282898,
				"z": -2.2366841287,
				"element": "C" 
			},
			{
				"x": 1.9159137918,
				"y": 0.1002436537,
				"z": -3.5151386536,
				"element": "C" 
			},
			{
				"x": 0.7089550688,
				"y": -0.2460328311,
				"z": -4.1220962074,
				"element": "C" 
			},
			{
				"x": 0.7241895702,
				"y": -1.0037575367,
				"z": -5.8731602175,
				"element": "Br" 
			},
			{
				"x": -0.508923443,
				"y": -0.0483088592,
				"z": -3.4719660024,
				"element": "C" 
			},
			{
				"x": -0.5153321309,
				"y": 0.5041702549,
				"z": -2.1915217306,
				"element": "C" 
			},
			{
				"x": 0.9528916052,
				"y": 3.8502738604,
				"z": -1.7813778279,
				"element": "H" 
			},
			{
				"x": -0.7754147261,
				"y": 3.5357600526,
				"z": -1.6286610253,
				"element": "H" 
			},
			{
				"x": -0.010332155,
				"y": 4.7630752784,
				"z": -0.6112810077,
				"element": "H" 
			},
			{
				"x": 0.3433150599,
				"y": 3.8675230115,
				"z": 1.8961001865,
				"element": "H" 
			},
			{
				"x": -0.2088906759,
				"y": 2.9573156788,
				"z": 4.2028623,
				"element": "H" 
			},
			{
				"x": 1.5154819929,
				"y": 3.3314440677,
				"z": 4.0713257478,
				"element": "H" 
			},
			{
				"x": 1.3008711529,
				"y": -1.0579420357,
				"z": 1.9468978178,
				"element": "H" 
			},
			{
				"x": 2.1478075542,
				"y": -0.9514878407,
				"z": 0.3906010694,
				"element": "H" 
			},
			{
				"x": 0.4183170789,
				"y": -1.2938256761,
				"z": 0.4170880185,
				"element": "H" 
			},
			{
				"x": 2.828980481,
				"y": 0.9392665773,
				"z": -1.7514203591,
				"element": "H" 
			},
			{
				"x": 2.8536576737,
				"y": -0.0593523811,
				"z": -4.0345504121,
				"element": "H" 
			},
			{
				"x": -1.437790756,
				"y": -0.3256638853,
				"z": -3.9566474443,
				"element": "H" 
			},
			{
				"x": -1.4528121606,
				"y": 0.6571438737,
				"z": -1.6663752229,
				"element": "H" 
			}
		],
		 "valence_orbital": [ 
			{
				"type": "occ",
				"energy": -0.28693,
				"method": "rhf"
			},
			{
				"type": "occ",
				"energy": -0.26456,
				"method": "rhf"
			},
			{
				"type": "occ",
				"energy": -0.25365,
				"method": "rhf"
			},
			{
				"type": "occ",
				"energy": -0.24538,
				"method": "rhf"
			},
			{
				"type": "occ",
				"energy": -0.21609,
				"method": "rhf"
			},
			{
				"type": "unocc",
				"energy": -0.04138,
				"method": "rhf"
			},
			{
				"type": "unocc",
				"energy": -0.03853,
				"method": "rhf"
			},
			{
				"type": "unocc",
				"energy": -0.03114,
				"method": "rhf"
			},
			{
				"type": "unocc",
				"energy": -0.00908,
				"method": "rhf"
			},
			{
				"type": "unocc",
				"energy": 0.02598,
				"method": "rhf"
			}
		],
		"cosmo_sigma_profile": { 
			"-0.025": 0.0,
			"-0.024": 0.0,
			"-0.023": 0.0,
			"-0.022": 0.0,
			"-0.021": 0.0,
			"-0.02": 0.0,
			"-0.019": 0.0,
			"-0.018": 0.0,
			"-0.017": 0.0,
			"-0.016": 0.0,
			"-0.015": 0.0,
			"-0.014": 0.0,
			"-0.013": 0.0,
			"-0.012": 0.0,
			"-0.011": 0.0,
			"-0.01": 0.0,
			"-0.009": 0.769400257043,
			"-0.008": 7.0039158949,
			"-0.007": 15.0055685851,
			"-0.006": 13.6533005685,
			"-0.005": 17.6351468762,
			"-0.004": 23.6413962591,
			"-0.003": 24.1355557488,
			"-0.002": 22.7632306549,
			"-0.001": 28.2252541887,
			"0.0": 27.1305215757,
			"0.001": 23.3153380065,
			"0.002": 28.0609793857,
			"0.003": 20.1709968379,
			"0.004": 20.4409632216,
			"0.005": 12.914347299,
			"0.006": 13.0119660026,
			"0.007": 5.10036730298,
			"0.008": 1.97934409874,
			"0.009": 2.3012561003,
			"0.01": 2.62584734273,
			"0.011": 2.40641149971,
			"0.012": 2.82247958693,
			"0.013": 2.46062644792,
			"0.014": 1.43084355448,
			"0.015": 0.118055286097,
			"0.016": 0.0,
			"0.017": 0.0,
			"0.018": 0.0,
			"0.019": 0.0,
			"0.02": 0.0,
			"0.021": 0.0,
			"0.022": 0.0,
			"0.023": 0.0,
			"0.024": 0.0,
			"0.025": 0.0
		}
	}
}
