{
	 "smiles": "ClC1=CC(Cl)=C(Cl)C(Cl)=C1Cl", 
	 "Tm": 358.65, 
	 "num_atms": 12, 
	 "gaussian": { 
		 "optdone": 1, 
		 "sigma_profile": "yes", 
		 "theory": "DFT", 
		 "functional": "B3LYP", 
		 "basiset": "6-31G**", 
		 "properties": { 
			 "R2extent": 3603.8202, 
			 "electric_dipole_moment_norm": 0.940801573128, 
			 "electric_quadrupole_moment_norm": 2.64127165964, 
			 "total_energy": -2530.18101418, 
			 "HOMO_LUMO_gap": 0.20874, 
			 "cosmo_polarized_energy": -3.2, 
			 "cosmo_cavitation_energy": 25.31, 
			 "cosmo_dispersion_energy": -19.54, 
			 "cosmo_repulsion_energy": 1.56, 
			 "cosmo_total_nonelectrostatic_energy": 7.33, 
			 "SMD_solvation_energy": 3.12 
		},
		"coords": [
			{
				"x": -0.2944126621,
				"y": -2.0540399742,
				"z": -1.9190284834,
				"element": "Cl" 
			},
			{
				"x": -0.2289614303,
				"y": -0.7620809409,
				"z": -0.7544434509,
				"element": "C" 
			},
			{
				"x": -0.0411878876,
				"y": -1.0927222824,
				"z": 0.5840087496,
				"element": "C" 
			},
			{
				"x": 0.0177974812,
				"y": -0.0941086706,
				"z": 1.5511305152,
				"element": "C" 
			},
			{
				"x": 0.254457901,
				"y": -0.5683272106,
				"z": 3.2090858014,
				"element": "Cl" 
			},
			{
				"x": -0.1110580639,
				"y": 1.2557178033,
				"z": 1.1898938752,
				"element": "C" 
			},
			{
				"x": -0.0370431158,
				"y": 2.4979365664,
				"z": 2.3982711103,
				"element": "Cl" 
			},
			{
				"x": -0.3008858032,
				"y": 1.5869829311,
				"z": -0.1645629984,
				"element": "C" 
			},
			{
				"x": -0.4621538279,
				"y": 3.2504915049,
				"z": -0.6292411675,
				"element": "Cl" 
			},
			{
				"x": -0.3609254766,
				"y": 0.5792601828,
				"z": -1.1449834438,
				"element": "C" 
			},
			{
				"x": -0.5949026655,
				"y": 0.987699951,
				"z": -2.8144681687,
				"element": "Cl" 
			},
			{
				"x": 0.0593755507,
				"y": -2.1306098609,
				"z": 0.873937661,
				"element": "H" 
			}
		],
		 "valence_orbital": [ 
			{
				"type": "occ",
				"energy": -0.33076,
				"method": "rhf"
			},
			{
				"type": "occ",
				"energy": -0.32356,
				"method": "rhf"
			},
			{
				"type": "occ",
				"energy": -0.31271,
				"method": "rhf"
			},
			{
				"type": "occ",
				"energy": -0.27146,
				"method": "rhf"
			},
			{
				"type": "occ",
				"energy": -0.26303,
				"method": "rhf"
			},
			{
				"type": "unocc",
				"energy": -0.05429,
				"method": "rhf"
			},
			{
				"type": "unocc",
				"energy": -0.05319,
				"method": "rhf"
			},
			{
				"type": "unocc",
				"energy": -0.04954,
				"method": "rhf"
			},
			{
				"type": "unocc",
				"energy": 0.00754,
				"method": "rhf"
			},
			{
				"type": "unocc",
				"energy": 0.02338,
				"method": "rhf"
			}
		],
		"cosmo_sigma_profile": { 
			"-0.025": 0.0,
			"-0.024": 0.0,
			"-0.023": 0.0,
			"-0.022": 0.0,
			"-0.021": 0.0,
			"-0.02": 0.0,
			"-0.019": 0.0,
			"-0.018": 0.0,
			"-0.017": 0.0,
			"-0.016": 0.0,
			"-0.015": 0.0,
			"-0.014": 0.0,
			"-0.013": 0.0,
			"-0.012": 0.0,
			"-0.011": 0.0,
			"-0.01": 0.891222558151,
			"-0.009": 1.25630071462,
			"-0.008": 1.46102391747,
			"-0.007": 1.41456662097,
			"-0.006": 1.91925510979,
			"-0.005": 3.04469769283,
			"-0.004": 8.12264124279,
			"-0.003": 19.3966930763,
			"-0.002": 32.2502259758,
			"-0.001": 23.5987717106,
			"0.0": 19.4067586877,
			"0.001": 20.5717163641,
			"0.002": 30.2507564305,
			"0.003": 41.0633455162,
			"0.004": 10.9553997714,
			"0.005": 0.0515280317647,
			"0.006": 0.0,
			"0.007": 0.0,
			"0.008": 0.0,
			"0.009": 0.0,
			"0.01": 0.0,
			"0.011": 0.0,
			"0.012": 0.0,
			"0.013": 0.0,
			"0.014": 0.0,
			"0.015": 0.0,
			"0.016": 0.0,
			"0.017": 0.0,
			"0.018": 0.0,
			"0.019": 0.0,
			"0.02": 0.0,
			"0.021": 0.0,
			"0.022": 0.0,
			"0.023": 0.0,
			"0.024": 0.0,
			"0.025": 0.0
		}
	}
}
