{
	 "smiles": "CC(O)C1=NC=C(Cl)N1C", 
	 "Tm": 387.15, 
	 "num_atms": 19, 
	 "gaussian": { 
		 "optdone": 1, 
		 "sigma_profile": "yes", 
		 "theory": "DFT", 
		 "functional": "B3LYP", 
		 "basiset": "6-31G**", 
		 "properties": { 
			 "R2extent": 3241.9919, 
			 "electric_dipole_moment_norm": 3.42235057672, 
			 "electric_quadrupole_moment_norm": 12.8309157682, 
			 "total_energy": -878.969213141, 
			 "HOMO_LUMO_gap": 0.23935, 
			 "cosmo_polarized_energy": -9.78, 
			 "cosmo_cavitation_energy": 23.79, 
			 "cosmo_dispersion_energy": -17.62, 
			 "cosmo_repulsion_energy": 1.43, 
			 "cosmo_total_nonelectrostatic_energy": 7.6, 
			 "SMD_solvation_energy": 2.81 
		},
		"coords": [
			{
				"x": -1.3803111767,
				"y": 2.5820509567,
				"z": 0.2507526172,
				"element": "C" 
			},
			{
				"x": -2.1631927682,
				"y": 1.9435644798,
				"z": 1.4099775147,
				"element": "C" 
			},
			{
				"x": -3.5145894037,
				"y": 2.3537644593,
				"z": 1.3714522348,
				"element": "O" 
			},
			{
				"x": -2.1138547694,
				"y": 0.4325428127,
				"z": 1.3657361043,
				"element": "C" 
			},
			{
				"x": -3.1485451314,
				"y": -0.2803690728,
				"z": 0.9657588495,
				"element": "N" 
			},
			{
				"x": -2.7565377492,
				"y": -1.5963426577,
				"z": 1.011499724,
				"element": "C" 
			},
			{
				"x": -1.4607550332,
				"y": -1.6626946323,
				"z": 1.4480947819,
				"element": "C" 
			},
			{
				"x": -0.4254291465,
				"y": -3.0182339191,
				"z": 1.7207179031,
				"element": "Cl" 
			},
			{
				"x": -1.0417399168,
				"y": -0.3609483463,
				"z": 1.6825501945,
				"element": "N" 
			},
			{
				"x": 0.2700672669,
				"y": 0.0524390494,
				"z": 2.1590484806,
				"element": "C" 
			},
			{
				"x": -1.4912310487,
				"y": 3.668795556,
				"z": 0.2965634158,
				"element": "H" 
			},
			{
				"x": -0.3123104488,
				"y": 2.3398812388,
				"z": 0.2916172908,
				"element": "H" 
			},
			{
				"x": -1.7814854795,
				"y": 2.2317322521,
				"z": -0.7046453314,
				"element": "H" 
			},
			{
				"x": -1.7314191257,
				"y": 2.2940018825,
				"z": 2.3612179329,
				"element": "H" 
			},
			{
				"x": -4.0208473162,
				"y": 1.5800123564,
				"z": 1.0674328293,
				"element": "H" 
			},
			{
				"x": -3.4107700958,
				"y": -2.4114986878,
				"z": 0.7403676326,
				"element": "H" 
			},
			{
				"x": 1.0050409754,
				"y": 0.0506457942,
				"z": 1.3481382464,
				"element": "H" 
			},
			{
				"x": 0.6084194986,
				"y": -0.6273246554,
				"z": 2.9431095348,
				"element": "H" 
			},
			{
				"x": 0.1977908688,
				"y": 1.0582811334,
				"z": 2.5733100441,
				"element": "H" 
			}
		],
		 "valence_orbital": [ 
			{
				"type": "occ",
				"energy": -0.32977,
				"method": "rhf"
			},
			{
				"type": "occ",
				"energy": -0.28635,
				"method": "rhf"
			},
			{
				"type": "occ",
				"energy": -0.28524,
				"method": "rhf"
			},
			{
				"type": "occ",
				"energy": -0.263,
				"method": "rhf"
			},
			{
				"type": "occ",
				"energy": -0.2272,
				"method": "rhf"
			},
			{
				"type": "unocc",
				"energy": 0.01215,
				"method": "rhf"
			},
			{
				"type": "unocc",
				"energy": 0.02839,
				"method": "rhf"
			},
			{
				"type": "unocc",
				"energy": 0.05269,
				"method": "rhf"
			},
			{
				"type": "unocc",
				"energy": 0.07291,
				"method": "rhf"
			},
			{
				"type": "unocc",
				"energy": 0.10691,
				"method": "rhf"
			}
		],
		"cosmo_sigma_profile": { 
			"-0.025": 0.0,
			"-0.024": 0.0,
			"-0.023": 0.0,
			"-0.022": 0.0,
			"-0.021": 0.0,
			"-0.02": 0.0,
			"-0.019": 0.0,
			"-0.018": 0.0,
			"-0.017": 0.0,
			"-0.016": 0.0,
			"-0.015": 0.0,
			"-0.014": 0.0,
			"-0.013": 0.0,
			"-0.012": 0.0,
			"-0.011": 0.0,
			"-0.01": 0.0,
			"-0.009": 0.627168868959,
			"-0.008": 3.55310182958,
			"-0.007": 6.73575905732,
			"-0.006": 10.5326521735,
			"-0.005": 14.2838229393,
			"-0.004": 15.7343069447,
			"-0.003": 15.4830444921,
			"-0.002": 13.416097259,
			"-0.001": 15.4376715776,
			"0.0": 15.9050504358,
			"0.001": 15.2291960197,
			"0.002": 13.0132217424,
			"0.003": 14.1024894388,
			"0.004": 9.48176783963,
			"0.005": 3.30502316259,
			"0.006": 3.38641881635,
			"0.007": 3.31446052661,
			"0.008": 2.58265742896,
			"0.009": 2.72874014282,
			"0.01": 2.41227775056,
			"0.011": 2.30411053807,
			"0.012": 2.65336566623,
			"0.013": 1.55068331724,
			"0.014": 2.3833646921,
			"0.015": 0.292959280099,
			"0.016": 0.0,
			"0.017": 0.0,
			"0.018": 0.0,
			"0.019": 0.0,
			"0.02": 0.0,
			"0.021": 0.0,
			"0.022": 0.0,
			"0.023": 0.0,
			"0.024": 0.0,
			"0.025": 0.0
		}
	}
}
