{
	 "smiles": "BrCC=CC1=CC=CC=C1", 
	 "Tm": 302.15, 
	 "num_atms": 19, 
	 "gaussian": { 
		 "optdone": 1, 
		 "sigma_profile": "yes", 
		 "theory": "DFT", 
		 "functional": "B3LYP", 
		 "basiset": "6-31G**", 
		 "properties": { 
			 "R2extent": 3788.2829, 
			 "electric_dipole_moment_norm": 2.39723018085, 
			 "electric_quadrupole_moment_norm": 10.6218227513, 
			 "total_energy": -2919.77438081, 
			 "HOMO_LUMO_gap": 0.18028, 
			 "cosmo_polarized_energy": -5.85, 
			 "cosmo_cavitation_energy": 24.68, 
			 "cosmo_dispersion_energy": -18.43, 
			 "cosmo_repulsion_energy": 1.5, 
			 "cosmo_total_nonelectrostatic_energy": 7.75, 
			 "SMD_solvation_energy": 3.07 
		},
		"coords": [
			{
				"x": 2.4040894542,
				"y": 0.3208402552,
				"z": 3.2855512379,
				"element": "Br" 
			},
			{
				"x": 2.2059398552,
				"y": -0.1224027424,
				"z": 1.3238760441,
				"element": "C" 
			},
			{
				"x": 1.798469212,
				"y": -1.5311045,
				"z": 1.1099004849,
				"element": "C" 
			},
			{
				"x": 0.5677975916,
				"y": -1.9780874708,
				"z": 0.7915985275,
				"element": "C" 
			},
			{
				"x": -0.6941835231,
				"y": -1.2303171545,
				"z": 0.6666095561,
				"element": "C" 
			},
			{
				"x": -1.0140193913,
				"y": -0.1196258333,
				"z": 1.4706445686,
				"element": "C" 
			},
			{
				"x": -2.2287364748,
				"y": 0.5462301778,
				"z": 1.3098156935,
				"element": "C" 
			},
			{
				"x": -3.1495002526,
				"y": 0.1176529778,
				"z": 0.3517869839,
				"element": "C" 
			},
			{
				"x": -2.855552414,
				"y": -0.9969736952,
				"z": -0.4374689589,
				"element": "C" 
			},
			{
				"x": -1.646379734,
				"y": -1.6679595669,
				"z": -0.273461335,
				"element": "C" 
			},
			{
				"x": 1.4884515799,
				"y": 0.6041960051,
				"z": 0.9506760679,
				"element": "H" 
			},
			{
				"x": 3.1989953783,
				"y": 0.0840220313,
				"z": 0.9282043199,
				"element": "H" 
			},
			{
				"x": 2.5994206232,
				"y": -2.2636631507,
				"z": 1.17808436,
				"element": "H" 
			},
			{
				"x": 0.4863448058,
				"y": -3.0403026719,
				"z": 0.5626033878,
				"element": "H" 
			},
			{
				"x": -0.3296713731,
				"y": 0.1959221309,
				"z": 2.2513461992,
				"element": "H" 
			},
			{
				"x": -2.4605392226,
				"y": 1.3964609565,
				"z": 1.9449471769,
				"element": "H" 
			},
			{
				"x": -4.094714284,
				"y": 0.6387970399,
				"z": 0.2306384296,
				"element": "H" 
			},
			{
				"x": -3.5712828304,
				"y": -1.34642608,
				"z": -1.1761285728,
				"element": "H" 
			},
			{
				"x": -1.4242290001,
				"y": -2.5378587086,
				"z": -0.8865241711,
				"element": "H" 
			}
		],
		 "valence_orbital": [ 
			{
				"type": "occ",
				"energy": -0.29326,
				"method": "rhf"
			},
			{
				"type": "occ",
				"energy": -0.27173,
				"method": "rhf"
			},
			{
				"type": "occ",
				"energy": -0.26926,
				"method": "rhf"
			},
			{
				"type": "occ",
				"energy": -0.25535,
				"method": "rhf"
			},
			{
				"type": "occ",
				"energy": -0.2311,
				"method": "rhf"
			},
			{
				"type": "unocc",
				"energy": -0.05082,
				"method": "rhf"
			},
			{
				"type": "unocc",
				"energy": -0.00687,
				"method": "rhf"
			},
			{
				"type": "unocc",
				"energy": 0.00336,
				"method": "rhf"
			},
			{
				"type": "unocc",
				"energy": 0.05799,
				"method": "rhf"
			},
			{
				"type": "unocc",
				"energy": 0.08965,
				"method": "rhf"
			}
		],
		"cosmo_sigma_profile": { 
			"-0.025": 0.0,
			"-0.024": 0.0,
			"-0.023": 0.0,
			"-0.022": 0.0,
			"-0.021": 0.0,
			"-0.02": 0.0,
			"-0.019": 0.0,
			"-0.018": 0.0,
			"-0.017": 0.0,
			"-0.016": 0.0,
			"-0.015": 0.0,
			"-0.014": 0.0,
			"-0.013": 0.0,
			"-0.012": 0.0,
			"-0.011": 0.0,
			"-0.01": 0.0,
			"-0.009": 0.0,
			"-0.008": 0.74282093926,
			"-0.007": 2.72351732091,
			"-0.006": 12.9487348786,
			"-0.005": 18.2465123811,
			"-0.004": 19.4216714323,
			"-0.003": 14.1445035469,
			"-0.002": 12.7132201042,
			"-0.001": 13.4616047929,
			"0.0": 10.2059101765,
			"0.001": 14.344132954,
			"0.002": 14.656151546,
			"0.003": 15.0932023467,
			"0.004": 16.9468872611,
			"0.005": 18.0106652922,
			"0.006": 12.6790566878,
			"0.007": 4.11627028465,
			"0.008": 0.0,
			"0.009": 0.0,
			"0.01": 0.0,
			"0.011": 0.0,
			"0.012": 0.0,
			"0.013": 0.0,
			"0.014": 0.0,
			"0.015": 0.0,
			"0.016": 0.0,
			"0.017": 0.0,
			"0.018": 0.0,
			"0.019": 0.0,
			"0.02": 0.0,
			"0.021": 0.0,
			"0.022": 0.0,
			"0.023": 0.0,
			"0.024": 0.0,
			"0.025": 0.0
		}
	}
}
