{
	 "smiles": "COC1=CC(N2CC(CC2=O)C(O)=O)=C(OC)C=C1", 
	 "Tm": 374.15, 
	 "num_atms": 34, 
	 "gaussian": { 
		 "optdone": 1, 
		 "sigma_profile": "yes", 
		 "theory": "DFT", 
		 "functional": "B3LYP", 
		 "basiset": "6-31G**", 
		 "properties": { 
			 "R2extent": 6471.9494, 
			 "electric_dipole_moment_norm": 2.98504693598, 
			 "electric_quadrupole_moment_norm": 28.1193845916, 
			 "total_energy": -935.283412117, 
			 "HOMO_LUMO_gap": 0.19518, 
			 "cosmo_polarized_energy": -24.47, 
			 "cosmo_cavitation_energy": 37.72, 
			 "cosmo_dispersion_energy": -26.26, 
			 "cosmo_repulsion_energy": 2.04, 
			 "cosmo_total_nonelectrostatic_energy": 13.5, 
			 "SMD_solvation_energy": 9.21 
		},
		"coords": [
			{
				"x": 4.0761974996,
				"y": 0.1116425732,
				"z": -2.5258010063,
				"element": "C" 
			},
			{
				"x": 2.9737732774,
				"y": -0.6198634732,
				"z": -3.0348139167,
				"element": "O" 
			},
			{
				"x": 1.886856151,
				"y": -0.7938537055,
				"z": -2.2257223744,
				"element": "C" 
			},
			{
				"x": 1.7797858095,
				"y": -0.3050159468,
				"z": -0.9218437373,
				"element": "C" 
			},
			{
				"x": 0.6148722033,
				"y": -0.5360044,
				"z": -0.1773938511,
				"element": "C" 
			},
			{
				"x": 0.535218768,
				"y": -0.044698982,
				"z": 1.1577255324,
				"element": "N" 
			},
			{
				"x": 1.2358612208,
				"y": -0.7100142884,
				"z": 2.261431331,
				"element": "C" 
			},
			{
				"x": 0.9773780522,
				"y": 0.2318911605,
				"z": 3.4517674395,
				"element": "C" 
			},
			{
				"x": -0.3810498332,
				"y": 0.881769852,
				"z": 3.1091861168,
				"element": "C" 
			},
			{
				"x": -0.4497440156,
				"y": 0.8210997699,
				"z": 1.5787617436,
				"element": "C" 
			},
			{
				"x": -1.2375266002,
				"y": 1.4267602987,
				"z": 0.8744462339,
				"element": "O" 
			},
			{
				"x": 1.0397809243,
				"y": -0.4804565776,
				"z": 4.7953783284,
				"element": "C" 
			},
			{
				"x": 0.7040022854,
				"y": 0.2804243046,
				"z": 5.8708251058,
				"element": "O" 
			},
			{
				"x": 1.369994681,
				"y": -1.6299574471,
				"z": 4.9454165127,
				"element": "O" 
			},
			{
				"x": -0.4466303207,
				"y": -1.2701385608,
				"z": -0.7248955161,
				"element": "C" 
			},
			{
				"x": -1.5342035495,
				"y": -1.5512346175,
				"z": 0.0623624043,
				"element": "O" 
			},
			{
				"x": -2.7939022132,
				"y": -1.0709900191,
				"z": -0.4214165733,
				"element": "C" 
			},
			{
				"x": -0.3293438341,
				"y": -1.7480893585,
				"z": -2.0370036233,
				"element": "C" 
			},
			{
				"x": 0.819321403,
				"y": -1.5151735923,
				"z": -2.7806599552,
				"element": "C" 
			},
			{
				"x": 3.7969675123,
				"y": 1.1430220639,
				"z": -2.2730332007,
				"element": "H" 
			},
			{
				"x": 4.5080525083,
				"y": -0.3698899095,
				"z": -1.6383396681,
				"element": "H" 
			},
			{
				"x": 4.8220426132,
				"y": 0.1278688752,
				"z": -3.3219583063,
				"element": "H" 
			},
			{
				"x": 2.5729952634,
				"y": 0.2757151906,
				"z": -0.4669274547,
				"element": "H" 
			},
			{
				"x": 0.824087747,
				"y": -1.7073395391,
				"z": 2.4550645554,
				"element": "H" 
			},
			{
				"x": 2.3004700025,
				"y": -0.8220662905,
				"z": 2.0408491568,
				"element": "H" 
			},
			{
				"x": 1.7465638,
				"y": 1.016392061,
				"z": 3.4605265088,
				"element": "H" 
			},
			{
				"x": -1.2225347396,
				"y": 0.2974330278,
				"z": 3.5012904036,
				"element": "H" 
			},
			{
				"x": -0.5016936785,
				"y": 1.9137023007,
				"z": 3.4486781297,
				"element": "H" 
			},
			{
				"x": 0.4533026786,
				"y": 1.1719109591,
				"z": 5.5891167733,
				"element": "H" 
			},
			{
				"x": -3.0602965772,
				"y": -1.5268021581,
				"z": -1.3828317659,
				"element": "H" 
			},
			{
				"x": -3.5354802308,
				"y": -1.3654008924,
				"z": 0.3239306662,
				"element": "H" 
			},
			{
				"x": -2.7739386552,
				"y": 0.0187788739,
				"z": -0.5130426407,
				"element": "H" 
			},
			{
				"x": -1.1411007458,
				"y": -2.3277232582,
				"z": -2.4645460444,
				"element": "H" 
			},
			{
				"x": 0.9176205928,
				"y": -1.8904982945,
				"z": -3.7938273077,
				"element": "H" 
			}
		],
		 "valence_orbital": [ 
			{
				"type": "occ",
				"energy": -0.27803,
				"method": "rhf"
			},
			{
				"type": "occ",
				"energy": -0.27059,
				"method": "rhf"
			},
			{
				"type": "occ",
				"energy": -0.25147,
				"method": "rhf"
			},
			{
				"type": "occ",
				"energy": -0.24375,
				"method": "rhf"
			},
			{
				"type": "occ",
				"energy": -0.21144,
				"method": "rhf"
			},
			{
				"type": "unocc",
				"energy": -0.01626,
				"method": "rhf"
			},
			{
				"type": "unocc",
				"energy": -0.00198,
				"method": "rhf"
			},
			{
				"type": "unocc",
				"energy": 0.00902,
				"method": "rhf"
			},
			{
				"type": "unocc",
				"energy": 0.02189,
				"method": "rhf"
			},
			{
				"type": "unocc",
				"energy": 0.04563,
				"method": "rhf"
			}
		],
		"cosmo_sigma_profile": { 
			"-0.025": 0.0,
			"-0.024": 0.0,
			"-0.023": 0.0,
			"-0.022": 0.0,
			"-0.021": 0.0,
			"-0.02": 0.0,
			"-0.019": 0.214689320221,
			"-0.018": 1.15938716863,
			"-0.017": 1.2333993984,
			"-0.016": 1.07743989123,
			"-0.015": 1.34933598995,
			"-0.014": 0.664340929377,
			"-0.013": 1.19142105142,
			"-0.012": 1.42634161692,
			"-0.011": 1.07307859317,
			"-0.01": 1.83145053297,
			"-0.009": 1.77693665445,
			"-0.008": 6.0148446246,
			"-0.007": 11.4130058823,
			"-0.006": 21.7631080662,
			"-0.005": 25.7176959507,
			"-0.004": 24.0658549217,
			"-0.003": 25.1263262721,
			"-0.002": 18.9340316063,
			"-0.001": 13.8281307404,
			"0.0": 11.4924135302,
			"0.001": 12.2067120849,
			"0.002": 11.0061834849,
			"0.003": 15.4375355712,
			"0.004": 17.0616617228,
			"0.005": 10.7072058465,
			"0.006": 7.41690606955,
			"0.007": 7.33655601835,
			"0.008": 6.00953076392,
			"0.009": 7.89793395283,
			"0.01": 9.84814000805,
			"0.011": 8.70903998372,
			"0.012": 6.3641549066,
			"0.013": 4.21954798546,
			"0.014": 2.33725922755,
			"0.015": 0.218207604522,
			"0.016": 0.0,
			"0.017": 0.0,
			"0.018": 0.0,
			"0.019": 0.0,
			"0.02": 0.0,
			"0.021": 0.0,
			"0.022": 0.0,
			"0.023": 0.0,
			"0.024": 0.0,
			"0.025": 0.0
		}
	}
}
