{
	 "smiles": "NC1=C(N)C=C(N2C=CC=N2)C(F)=C1", 
	 "Tm": 375.15, 
	 "num_atms": 23, 
	 "gaussian": { 
		 "optdone": 1, 
		 "sigma_profile": "yes", 
		 "theory": "DFT", 
		 "functional": "B3LYP", 
		 "basiset": "6-31G**", 
		 "properties": { 
			 "R2extent": 3109.2768, 
			 "electric_dipole_moment_norm": 5.57097098718, 
			 "electric_quadrupole_moment_norm": 17.4877595009, 
			 "total_energy": -667.188341082, 
			 "HOMO_LUMO_gap": 0.1814, 
			 "cosmo_polarized_energy": -18.47, 
			 "cosmo_cavitation_energy": 27.84, 
			 "cosmo_dispersion_energy": -20.36, 
			 "cosmo_repulsion_energy": 1.58, 
			 "cosmo_total_nonelectrostatic_energy": 9.06, 
			 "SMD_solvation_energy": 5.05 
		},
		"coords": [
			{
				"x": -2.38275533,
				"y": 2.0992910952,
				"z": 3.1777442845,
				"element": "N" 
			},
			{
				"x": -1.647123628,
				"y": 1.4733619305,
				"z": 2.1423399629,
				"element": "C" 
			},
			{
				"x": -1.472773366,
				"y": 0.0680873046,
				"z": 2.1923814401,
				"element": "C" 
			},
			{
				"x": -2.0725506684,
				"y": -0.6753057155,
				"z": 3.2071547394,
				"element": "N" 
			},
			{
				"x": -0.7545360311,
				"y": -0.5581548782,
				"z": 1.1695283779,
				"element": "C" 
			},
			{
				"x": -0.2117656505,
				"y": 0.1651836247,
				"z": 0.1014467584,
				"element": "C" 
			},
			{
				"x": 0.5341006272,
				"y": -0.502971103,
				"z": -0.9031478238,
				"element": "N" 
			},
			{
				"x": 1.5297856601,
				"y": -1.4202236684,
				"z": -0.7102150288,
				"element": "C" 
			},
			{
				"x": 1.9394791809,
				"y": -1.8329692505,
				"z": -1.9601229693,
				"element": "C" 
			},
			{
				"x": 1.1243346161,
				"y": -1.1021540562,
				"z": -2.8556444751,
				"element": "C" 
			},
			{
				"x": 0.273708732,
				"y": -0.3005834571,
				"z": -2.2211018721,
				"element": "N" 
			},
			{
				"x": -0.4231784143,
				"y": 1.5432566649,
				"z": 0.052286939,
				"element": "C" 
			},
			{
				"x": 0.0965796888,
				"y": 2.2799981583,
				"z": -0.9460529331,
				"element": "F" 
			},
			{
				"x": -1.1311669154,
				"y": 2.1878260296,
				"z": 1.0595300572,
				"element": "C" 
			},
			{
				"x": -1.9662974979,
				"y": 1.94762029,
				"z": 4.0931064139,
				"element": "H" 
			},
			{
				"x": -2.4855661629,
				"y": 3.0963106854,
				"z": 3.0293312648,
				"element": "H" 
			},
			{
				"x": -2.6160289155,
				"y": -0.165027421,
				"z": 3.8840597678,
				"element": "H" 
			},
			{
				"x": -1.5789924583,
				"y": -1.4773019895,
				"z": 3.5647615219,
				"element": "H" 
			},
			{
				"x": -0.6548199191,
				"y": -1.639042669,
				"z": 1.17264515,
				"element": "H" 
			},
			{
				"x": 1.869696466,
				"y": -1.6758138749,
				"z": 0.282127493,
				"element": "H" 
			},
			{
				"x": 2.7158189368,
				"y": -2.546905192,
				"z": -2.1911443644,
				"element": "H" 
			},
			{
				"x": 1.1214487695,
				"y": -1.1290372789,
				"z": -3.9373931463,
				"element": "H" 
			},
			{
				"x": -1.24069772,
				"y": 3.2665547712,
				"z": 1.0033784423,
				"element": "H" 
			}
		],
		 "valence_orbital": [ 
			{
				"type": "occ",
				"energy": -0.2747,
				"method": "rhf"
			},
			{
				"type": "occ",
				"energy": -0.25393,
				"method": "rhf"
			},
			{
				"type": "occ",
				"energy": -0.23795,
				"method": "rhf"
			},
			{
				"type": "occ",
				"energy": -0.22612,
				"method": "rhf"
			},
			{
				"type": "occ",
				"energy": -0.19039,
				"method": "rhf"
			},
			{
				"type": "unocc",
				"energy": -0.00899,
				"method": "rhf"
			},
			{
				"type": "unocc",
				"energy": 0.01173,
				"method": "rhf"
			},
			{
				"type": "unocc",
				"energy": 0.04103,
				"method": "rhf"
			},
			{
				"type": "unocc",
				"energy": 0.06035,
				"method": "rhf"
			},
			{
				"type": "unocc",
				"energy": 0.08012,
				"method": "rhf"
			}
		],
		"cosmo_sigma_profile": { 
			"-0.025": 0.0,
			"-0.024": 0.0,
			"-0.023": 0.0,
			"-0.022": 0.0,
			"-0.021": 0.0,
			"-0.02": 0.0,
			"-0.019": 0.0,
			"-0.018": 0.0,
			"-0.017": 0.0,
			"-0.016": 0.0,
			"-0.015": 0.0,
			"-0.014": 0.0,
			"-0.013": 0.917960134284,
			"-0.012": 4.11657775484,
			"-0.011": 5.80455875208,
			"-0.01": 5.27879807707,
			"-0.009": 6.31044412652,
			"-0.008": 7.5753031315,
			"-0.007": 9.9785228637,
			"-0.006": 11.5422005887,
			"-0.005": 9.44721365305,
			"-0.004": 10.2434885782,
			"-0.003": 9.42301999331,
			"-0.002": 9.7542821418,
			"-0.001": 9.49532630977,
			"0.0": 8.21781676872,
			"0.001": 11.5788337572,
			"0.002": 12.8559836181,
			"0.003": 15.2156073999,
			"0.004": 21.6005021566,
			"0.005": 18.2131557151,
			"0.006": 9.12066792745,
			"0.007": 4.9435879964,
			"0.008": 2.90925677481,
			"0.009": 2.80879601008,
			"0.01": 3.54070563218,
			"0.011": 3.45847287357,
			"0.012": 2.39341339101,
			"0.013": 2.01674939487,
			"0.014": 2.07230873722,
			"0.015": 1.13424699596,
			"0.016": 0.283526484993,
			"0.017": 0.0,
			"0.018": 0.0,
			"0.019": 0.0,
			"0.02": 0.0,
			"0.021": 0.0,
			"0.022": 0.0,
			"0.023": 0.0,
			"0.024": 0.0,
			"0.025": 0.0
		}
	}
}
