{
	 "smiles": "OC(C(O)=O)C(Cl)(Cl)Cl", 
	 "Tm": 398.15, 
	 "num_atms": 12, 
	 "gaussian": { 
		 "optdone": 1, 
		 "sigma_profile": "yes", 
		 "theory": "DFT", 
		 "functional": "B3LYP", 
		 "basiset": "6-31G**", 
		 "properties": { 
			 "R2extent": 3447.8259, 
			 "electric_dipole_moment_norm": 2.44541530829, 
			 "electric_quadrupole_moment_norm": 8.59504476544, 
			 "total_energy": -1722.35523692, 
			 "HOMO_LUMO_gap": 0.23564, 
			 "cosmo_polarized_energy": -11.23, 
			 "cosmo_cavitation_energy": 21.58, 
			 "cosmo_dispersion_energy": -16.06, 
			 "cosmo_repulsion_energy": 1.33, 
			 "cosmo_total_nonelectrostatic_energy": 6.85, 
			 "SMD_solvation_energy": 4.04 
		},
		"coords": [
			{
				"x": -0.0418682133,
				"y": 0.1511439082,
				"z": -1.1363932263,
				"element": "O" 
			},
			{
				"x": 0.7566553867,
				"y": -0.7885315983,
				"z": -0.4882183693,
				"element": "C" 
			},
			{
				"x": -0.0634128465,
				"y": -1.9685137406,
				"z": 0.0680071557,
				"element": "C" 
			},
			{
				"x": -1.1404588064,
				"y": -2.2172839161,
				"z": -0.7098060018,
				"element": "O" 
			},
			{
				"x": 0.1908299044,
				"y": -2.5716260572,
				"z": 1.0799148734,
				"element": "O" 
			},
			{
				"x": 1.9472128362,
				"y": -1.2550721337,
				"z": -1.3973296662,
				"element": "C" 
			},
			{
				"x": 2.8933732955,
				"y": 0.1954095573,
				"z": -1.8749734079,
				"element": "Cl" 
			},
			{
				"x": 1.312148493,
				"y": -2.0555882236,
				"z": -2.8870510134,
				"element": "Cl" 
			},
			{
				"x": 3.0125488054,
				"y": -2.3918570541,
				"z": -0.5124770644,
				"element": "Cl" 
			},
			{
				"x": -0.6229173242,
				"y": -0.3195956698,
				"z": -1.752438026,
				"element": "H" 
			},
			{
				"x": 1.2206440993,
				"y": -0.3003208024,
				"z": 0.3725940386,
				"element": "H" 
			},
			{
				"x": -1.6214556299,
				"y": -2.9570642698,
				"z": -0.3021292925,
				"element": "H" 
			}
		],
		 "valence_orbital": [ 
			{
				"type": "occ",
				"energy": -0.3295,
				"method": "rhf"
			},
			{
				"type": "occ",
				"energy": -0.32807,
				"method": "rhf"
			},
			{
				"type": "occ",
				"energy": -0.32303,
				"method": "rhf"
			},
			{
				"type": "occ",
				"energy": -0.31254,
				"method": "rhf"
			},
			{
				"type": "occ",
				"energy": -0.28852,
				"method": "rhf"
			},
			{
				"type": "unocc",
				"energy": -0.05288,
				"method": "rhf"
			},
			{
				"type": "unocc",
				"energy": -0.02774,
				"method": "rhf"
			},
			{
				"type": "unocc",
				"energy": -0.00605,
				"method": "rhf"
			},
			{
				"type": "unocc",
				"energy": 0.00718,
				"method": "rhf"
			},
			{
				"type": "unocc",
				"energy": 0.04722,
				"method": "rhf"
			}
		],
		"cosmo_sigma_profile": { 
			"-0.025": 0.0,
			"-0.024": 0.0,
			"-0.023": 0.0,
			"-0.022": 0.0,
			"-0.021": 0.0,
			"-0.02": 0.279341730196,
			"-0.019": 1.06697965152,
			"-0.018": 1.07897497609,
			"-0.017": 0.986313798232,
			"-0.016": 0.411400440227,
			"-0.015": 1.47558438354,
			"-0.014": 1.54314539539,
			"-0.013": 0.862653746458,
			"-0.012": 1.40382619944,
			"-0.011": 0.970387510064,
			"-0.01": 2.86477958352,
			"-0.009": 3.26504141617,
			"-0.008": 3.44462758417,
			"-0.007": 2.97941751817,
			"-0.006": 3.42511467373,
			"-0.005": 3.55259237871,
			"-0.004": 8.52753914469,
			"-0.003": 8.1599410934,
			"-0.002": 10.9004693474,
			"-0.001": 10.7369830655,
			"0.0": 12.9301057556,
			"0.001": 14.6240479305,
			"0.002": 24.9225615826,
			"0.003": 23.2540134325,
			"0.004": 6.54450200147,
			"0.005": 4.00156830456,
			"0.006": 3.16582453145,
			"0.007": 2.23979854444,
			"0.008": 3.7191211872,
			"0.009": 4.27871137628,
			"0.01": 6.26583709624,
			"0.011": 3.54791529028,
			"0.012": 0.267461041124,
			"0.013": 0.0,
			"0.014": 0.0,
			"0.015": 0.0,
			"0.016": 0.0,
			"0.017": 0.0,
			"0.018": 0.0,
			"0.019": 0.0,
			"0.02": 0.0,
			"0.021": 0.0,
			"0.022": 0.0,
			"0.023": 0.0,
			"0.024": 0.0,
			"0.025": 0.0
		}
	}
}
