{
	 "smiles": "CC1=NNC=C1N", 
	 "Tm": 367.15, 
	 "num_atms": 14, 
	 "gaussian": { 
		 "optdone": 1, 
		 "sigma_profile": "yes", 
		 "theory": "DFT", 
		 "functional": "B3LYP", 
		 "basiset": "6-31G**", 
		 "properties": { 
			 "R2extent": 699.3494, 
			 "electric_dipole_moment_norm": 2.58613902372, 
			 "electric_quadrupole_moment_norm": 8.51491540416, 
			 "total_energy": -320.873827947, 
			 "HOMO_LUMO_gap": 0.22642, 
			 "cosmo_polarized_energy": -12.84, 
			 "cosmo_cavitation_energy": 17.58, 
			 "cosmo_dispersion_energy": -13.35, 
			 "cosmo_repulsion_energy": 1.15, 
			 "cosmo_total_nonelectrostatic_energy": 5.38, 
			 "SMD_solvation_energy": 2.54 
		},
		"coords": [
			{
				"x": 1.5955352278,
				"y": -0.9090515494,
				"z": -0.5849898479,
				"element": "C" 
			},
			{
				"x": 0.4395122051,
				"y": -0.2594759602,
				"z": 0.1096698129,
				"element": "C" 
			},
			{
				"x": 0.3344700336,
				"y": -0.2684622328,
				"z": 1.4412020038,
				"element": "N" 
			},
			{
				"x": -0.8001342883,
				"y": 0.4036220183,
				"z": 1.7022533157,
				"element": "N" 
			},
			{
				"x": -1.4381350096,
				"y": 0.8415969663,
				"z": 0.5748536579,
				"element": "C" 
			},
			{
				"x": -0.6552280001,
				"y": 0.4279442863,
				"z": -0.4879777452,
				"element": "C" 
			},
			{
				"x": -0.8207610566,
				"y": 0.6824469767,
				"z": -1.8627690572,
				"element": "N" 
			},
			{
				"x": 1.2739445783,
				"y": -1.7304588675,
				"z": -1.2391861047,
				"element": "H" 
			},
			{
				"x": 2.2857936411,
				"y": -1.3206809064,
				"z": 0.15454672,
				"element": "H" 
			},
			{
				"x": 2.1422299244,
				"y": -0.1921997802,
				"z": -1.209167752,
				"element": "H" 
			},
			{
				"x": -1.0839347594,
				"y": 0.5340339015,
				"z": 2.6591210651,
				"element": "H" 
			},
			{
				"x": -2.3615570926,
				"y": 1.4005695399,
				"z": 0.6144423991,
				"element": "H" 
			},
			{
				"x": -1.773535125,
				"y": 0.9264738922,
				"z": -2.1053411251,
				"element": "H" 
			},
			{
				"x": -0.5260002789,
				"y": -0.1000582847,
				"z": -2.4361573425,
				"element": "H" 
			}
		],
		 "valence_orbital": [ 
			{
				"type": "occ",
				"energy": -0.36093,
				"method": "rhf"
			},
			{
				"type": "occ",
				"energy": -0.31657,
				"method": "rhf"
			},
			{
				"type": "occ",
				"energy": -0.27411,
				"method": "rhf"
			},
			{
				"type": "occ",
				"energy": -0.23194,
				"method": "rhf"
			},
			{
				"type": "occ",
				"energy": -0.19072,
				"method": "rhf"
			},
			{
				"type": "unocc",
				"energy": 0.0357,
				"method": "rhf"
			},
			{
				"type": "unocc",
				"energy": 0.0724,
				"method": "rhf"
			},
			{
				"type": "unocc",
				"energy": 0.09253,
				"method": "rhf"
			},
			{
				"type": "unocc",
				"energy": 0.09943,
				"method": "rhf"
			},
			{
				"type": "unocc",
				"energy": 0.12699,
				"method": "rhf"
			}
		],
		"cosmo_sigma_profile": { 
			"-0.025": 0.0,
			"-0.024": 0.0,
			"-0.023": 0.0,
			"-0.022": 0.0,
			"-0.021": 0.0,
			"-0.02": 0.0,
			"-0.019": 0.0,
			"-0.018": 0.0,
			"-0.017": 0.0,
			"-0.016": 0.534473376193,
			"-0.015": 1.49566671402,
			"-0.014": 1.30947264468,
			"-0.013": 1.18173029233,
			"-0.012": 1.45037413156,
			"-0.011": 2.89823162944,
			"-0.01": 3.77164193191,
			"-0.009": 4.40908414735,
			"-0.008": 5.47607373234,
			"-0.007": 6.317998814,
			"-0.006": 4.3520123888,
			"-0.005": 4.80930991421,
			"-0.004": 7.19963154208,
			"-0.003": 7.20170131809,
			"-0.002": 8.68338177797,
			"-0.001": 7.4495859915,
			"0.0": 9.84078818049,
			"0.001": 7.33088991637,
			"0.002": 4.19592895923,
			"0.003": 4.83423551051,
			"0.004": 4.31463313766,
			"0.005": 5.83991564981,
			"0.006": 7.67820158165,
			"0.007": 5.77861182304,
			"0.008": 2.93936731715,
			"0.009": 2.68005880991,
			"0.01": 2.19515489641,
			"0.011": 1.87492329386,
			"0.012": 2.47470859388,
			"0.013": 1.74499255425,
			"0.014": 1.3909917856,
			"0.015": 2.14675108111,
			"0.016": 1.43123309744,
			"0.017": 1.15404081172,
			"0.018": 0.088071267412,
			"0.019": 0.0,
			"0.02": 0.0,
			"0.021": 0.0,
			"0.022": 0.0,
			"0.023": 0.0,
			"0.024": 0.0,
			"0.025": 0.0
		}
	}
}
