{
	 "smiles": "CC(=O)NC1=CC=C(C=C1)C(C)=O", 
	 "Tm": 442.15, 
	 "num_atms": 24, 
	 "gaussian": { 
		 "optdone": 1, 
		 "sigma_profile": "yes", 
		 "theory": "DFT", 
		 "functional": "B3LYP", 
		 "basiset": "6-31G**", 
		 "properties": { 
			 "R2extent": 3663.6459, 
			 "electric_dipole_moment_norm": 2.9297098457, 
			 "electric_quadrupole_moment_norm": 20.0546674896, 
			 "total_energy": -592.914275335, 
			 "HOMO_LUMO_gap": 0.17348, 
			 "cosmo_polarized_energy": -15.87, 
			 "cosmo_cavitation_energy": 28.2, 
			 "cosmo_dispersion_energy": -20.52, 
			 "cosmo_repulsion_energy": 1.61, 
			 "cosmo_total_nonelectrostatic_energy": 9.28, 
			 "SMD_solvation_energy": 6.39 
		},
		"coords": [
			{
				"x": -2.6441839955,
				"y": -0.3540737513,
				"z": -1.7537363209,
				"element": "C" 
			},
			{
				"x": -2.4366464807,
				"y": 1.1441351204,
				"z": -1.7276788367,
				"element": "C" 
			},
			{
				"x": -3.1845993348,
				"y": 1.9087861979,
				"z": -2.3179791806,
				"element": "O" 
			},
			{
				"x": -1.3707026338,
				"y": 1.6913914567,
				"z": -1.0178248827,
				"element": "N" 
			},
			{
				"x": -0.3182987107,
				"y": 1.2017760929,
				"z": -0.234352577,
				"element": "C" 
			},
			{
				"x": 0.5569658057,
				"y": 2.1692514516,
				"z": 0.3073228232,
				"element": "C" 
			},
			{
				"x": 1.6306179967,
				"y": 1.7996116575,
				"z": 1.096267466,
				"element": "C" 
			},
			{
				"x": 1.8842822088,
				"y": 0.4474771644,
				"z": 1.3838650248,
				"element": "C" 
			},
			{
				"x": 1.0160904569,
				"y": -0.5108404244,
				"z": 0.8464405811,
				"element": "C" 
			},
			{
				"x": -0.0693322634,
				"y": -0.1522521473,
				"z": 0.0500153227,
				"element": "C" 
			},
			{
				"x": 3.0586627962,
				"y": 0.1087374364,
				"z": 2.2417018442,
				"element": "C" 
			},
			{
				"x": 3.3399298716,
				"y": -1.3516139331,
				"z": 2.5580929572,
				"element": "C" 
			},
			{
				"x": 3.7830377109,
				"y": 0.9899843133,
				"z": 2.6832213555,
				"element": "O" 
			},
			{
				"x": -3.5272019789,
				"y": -0.5466387604,
				"z": -2.3622794835,
				"element": "H" 
			},
			{
				"x": -1.7845995204,
				"y": -0.8694594679,
				"z": -2.1931420015,
				"element": "H" 
			},
			{
				"x": -2.806114703,
				"y": -0.7530640235,
				"z": -0.7476723676,
				"element": "H" 
			},
			{
				"x": -1.3916365509,
				"y": 2.7003249441,
				"z": -1.113635146,
				"element": "H" 
			},
			{
				"x": 0.3780755516,
				"y": 3.2209097617,
				"z": 0.0967151548,
				"element": "H" 
			},
			{
				"x": 2.3002552506,
				"y": 2.5460364308,
				"z": 1.5102009412,
				"element": "H" 
			},
			{
				"x": 1.1770929333,
				"y": -1.5657518393,
				"z": 1.0446976426,
				"element": "H" 
			},
			{
				"x": -0.7054285188,
				"y": -0.9333938568,
				"z": -0.337441343,
				"element": "H" 
			},
			{
				"x": 3.5111220585,
				"y": -1.9278060441,
				"z": 1.641985097,
				"element": "H" 
			},
			{
				"x": 2.4940155118,
				"y": -1.8118880133,
				"z": 3.0807210589,
				"element": "H" 
			},
			{
				"x": 4.2269965382,
				"y": -1.4060397664,
				"z": 3.1895948703,
				"element": "H" 
			}
		],
		 "valence_orbital": [ 
			{
				"type": "occ",
				"energy": -0.31457,
				"method": "rhf"
			},
			{
				"type": "occ",
				"energy": -0.2708,
				"method": "rhf"
			},
			{
				"type": "occ",
				"energy": -0.26744,
				"method": "rhf"
			},
			{
				"type": "occ",
				"energy": -0.24836,
				"method": "rhf"
			},
			{
				"type": "occ",
				"energy": -0.23183,
				"method": "rhf"
			},
			{
				"type": "unocc",
				"energy": -0.05835,
				"method": "rhf"
			},
			{
				"type": "unocc",
				"energy": -0.01971,
				"method": "rhf"
			},
			{
				"type": "unocc",
				"energy": 0.00592,
				"method": "rhf"
			},
			{
				"type": "unocc",
				"energy": 0.05049,
				"method": "rhf"
			},
			{
				"type": "unocc",
				"energy": 0.07429,
				"method": "rhf"
			}
		],
		"cosmo_sigma_profile": { 
			"-0.025": 0.0,
			"-0.024": 0.0,
			"-0.023": 0.0,
			"-0.022": 0.0,
			"-0.021": 0.0,
			"-0.02": 0.0,
			"-0.019": 0.0,
			"-0.018": 0.0,
			"-0.017": 0.0,
			"-0.016": 0.0,
			"-0.015": 0.123466154094,
			"-0.014": 1.15249893938,
			"-0.013": 1.06564415956,
			"-0.012": 1.38225170239,
			"-0.011": 1.14640829784,
			"-0.01": 1.00689878256,
			"-0.009": 1.05165540686,
			"-0.008": 1.57891711325,
			"-0.007": 9.03233129085,
			"-0.006": 18.3984182475,
			"-0.005": 18.302469959,
			"-0.004": 16.6634583466,
			"-0.003": 15.919919946,
			"-0.002": 16.9214275806,
			"-0.001": 18.0914352761,
			"0.0": 14.2030499826,
			"0.001": 11.3075380921,
			"0.002": 11.4322455731,
			"0.003": 14.9848304401,
			"0.004": 11.4330621734,
			"0.005": 2.57201506489,
			"0.006": 3.30539200124,
			"0.007": 3.49196243346,
			"0.008": 2.02780885799,
			"0.009": 2.53970794317,
			"0.01": 3.53088294847,
			"0.011": 4.4577664114,
			"0.012": 8.15703649128,
			"0.013": 7.32069439239,
			"0.014": 1.67458138896,
			"0.015": 0.00934924675993,
			"0.016": 0.0,
			"0.017": 0.0,
			"0.018": 0.0,
			"0.019": 0.0,
			"0.02": 0.0,
			"0.021": 0.0,
			"0.022": 0.0,
			"0.023": 0.0,
			"0.024": 0.0,
			"0.025": 0.0
		}
	}
}
