{
	 "smiles": "NC1=NC(=NN1)C1=C(OC(F)F)C=CC=C1", 
	 "Tm": 462.15, 
	 "num_atms": 24, 
	 "gaussian": { 
		 "optdone": 1, 
		 "sigma_profile": "yes", 
		 "theory": "DFT", 
		 "functional": "B3LYP", 
		 "basiset": "6-31G**", 
		 "properties": { 
			 "R2extent": 3935.3624, 
			 "electric_dipole_moment_norm": 5.4387769103, 
			 "electric_quadrupole_moment_norm": 22.6518796167, 
			 "total_energy": -841.676328603, 
			 "HOMO_LUMO_gap": 0.19469, 
			 "cosmo_polarized_energy": -18.87, 
			 "cosmo_cavitation_energy": 29.79, 
			 "cosmo_dispersion_energy": -21.72, 
			 "cosmo_repulsion_energy": 1.67, 
			 "cosmo_total_nonelectrostatic_energy": 9.75, 
			 "SMD_solvation_energy": 4.16 
		},
		"coords": [
			{
				"x": 3.4136354852,
				"y": -2.0293305653,
				"z": -1.1262135052,
				"element": "N" 
			},
			{
				"x": 2.1768374623,
				"y": -1.5572820362,
				"z": -0.7368907536,
				"element": "C" 
			},
			{
				"x": 1.8351813017,
				"y": -0.2895311885,
				"z": -0.6034050973,
				"element": "N" 
			},
			{
				"x": 0.4957671821,
				"y": -0.3550417046,
				"z": -0.294232057,
				"element": "C" 
			},
			{
				"x": 0.0067873195,
				"y": -1.5860850516,
				"z": -0.2124489428,
				"element": "N" 
			},
			{
				"x": 1.1035538532,
				"y": -2.3522572482,
				"z": -0.5004826574,
				"element": "N" 
			},
			{
				"x": -0.2885222378,
				"y": 0.8628729171,
				"z": -0.0328110092,
				"element": "C" 
			},
			{
				"x": -1.6957145254,
				"y": 0.9104817401,
				"z": -0.0474120307,
				"element": "C" 
			},
			{
				"x": -2.4488066779,
				"y": -0.1995969641,
				"z": -0.4174217373,
				"element": "O" 
			},
			{
				"x": -2.8511706381,
				"y": -1.0337554971,
				"z": 0.5989718205,
				"element": "C" 
			},
			{
				"x": -3.819553538,
				"y": -0.4266000066,
				"z": 1.3527570293,
				"element": "F" 
			},
			{
				"x": -3.4081373338,
				"y": -2.1098744646,
				"z": 0.0145745095,
				"element": "F" 
			},
			{
				"x": -2.3789313493,
				"y": 2.0969652146,
				"z": 0.2157567601,
				"element": "C" 
			},
			{
				"x": -1.6726009761,
				"y": 3.2661867794,
				"z": 0.4903167247,
				"element": "C" 
			},
			{
				"x": -0.2762707908,
				"y": 3.2448763509,
				"z": 0.4948855194,
				"element": "C" 
			},
			{
				"x": 0.4019137832,
				"y": 2.058084466,
				"z": 0.2346392987,
				"element": "C" 
			},
			{
				"x": 3.7313127866,
				"y": -2.8676692743,
				"z": -0.6574071288,
				"element": "H" 
			},
			{
				"x": 4.1110763033,
				"y": -1.2966231143,
				"z": -1.1166081119,
				"element": "H" 
			},
			{
				"x": 1.0047256839,
				"y": -3.3500624594,
				"z": -0.6063486905,
				"element": "H" 
			},
			{
				"x": -2.0344812581,
				"y": -1.3389353711,
				"z": 1.2572253586,
				"element": "H" 
			},
			{
				"x": -3.4625353963,
				"y": 2.0797277455,
				"z": 0.1885622309,
				"element": "H" 
			},
			{
				"x": -2.2105591023,
				"y": 4.1872137081,
				"z": 0.6940109482,
				"element": "H" 
			},
			{
				"x": 0.2842637591,
				"y": 4.1519880775,
				"z": 0.6998873242,
				"element": "H" 
			},
			{
				"x": 1.485728904,
				"y": 2.0284479467,
				"z": 0.2291941976,
				"element": "H" 
			}
		],
		 "valence_orbital": [ 
			{
				"type": "occ",
				"energy": -0.29957,
				"method": "rhf"
			},
			{
				"type": "occ",
				"energy": -0.27641,
				"method": "rhf"
			},
			{
				"type": "occ",
				"energy": -0.25534,
				"method": "rhf"
			},
			{
				"type": "occ",
				"energy": -0.24652,
				"method": "rhf"
			},
			{
				"type": "occ",
				"energy": -0.22269,
				"method": "rhf"
			},
			{
				"type": "unocc",
				"energy": -0.028,
				"method": "rhf"
			},
			{
				"type": "unocc",
				"energy": -0.00127,
				"method": "rhf"
			},
			{
				"type": "unocc",
				"energy": 0.02994,
				"method": "rhf"
			},
			{
				"type": "unocc",
				"energy": 0.05506,
				"method": "rhf"
			},
			{
				"type": "unocc",
				"energy": 0.07776,
				"method": "rhf"
			}
		],
		"cosmo_sigma_profile": { 
			"-0.025": 0.0,
			"-0.024": 0.0,
			"-0.023": 0.0,
			"-0.022": 0.0,
			"-0.021": 0.0,
			"-0.02": 0.0,
			"-0.019": 0.0,
			"-0.018": 0.0827690932021,
			"-0.017": 1.61712610643,
			"-0.016": 2.02478290827,
			"-0.015": 2.69003078058,
			"-0.014": 3.43538225546,
			"-0.013": 3.46093335617,
			"-0.012": 3.01662673831,
			"-0.011": 3.63574186773,
			"-0.01": 2.83865667517,
			"-0.009": 2.25761766253,
			"-0.008": 3.55272536273,
			"-0.007": 5.45679606636,
			"-0.006": 9.15797791239,
			"-0.005": 10.3827871738,
			"-0.004": 11.0353622421,
			"-0.003": 7.80777541433,
			"-0.002": 8.95594366072,
			"-0.001": 9.33559573949,
			"0.0": 11.6161153855,
			"0.001": 14.4490277288,
			"0.002": 20.1407875311,
			"0.003": 25.8252263995,
			"0.004": 32.8166088529,
			"0.005": 12.31743655,
			"0.006": 5.76967167762,
			"0.007": 5.34613381235,
			"0.008": 4.99855420141,
			"0.009": 5.13330005881,
			"0.01": 3.33073416905,
			"0.011": 2.24490502653,
			"0.012": 1.85854829983,
			"0.013": 1.01914069434,
			"0.014": 0.658973349631,
			"0.015": 0.125233990832,
			"0.016": 0.0,
			"0.017": 0.0,
			"0.018": 0.0,
			"0.019": 0.0,
			"0.02": 0.0,
			"0.021": 0.0,
			"0.022": 0.0,
			"0.023": 0.0,
			"0.024": 0.0,
			"0.025": 0.0
		}
	}
}
