{
	 "smiles": "CC1=C(SC(=N1)C1=CC=C(C=C1)C(F)(F)F)C(Cl)=O", 
	 "Tm": 358.65, 
	 "num_atms": 26, 
	 "gaussian": { 
		 "optdone": 1, 
		 "sigma_profile": "yes", 
		 "theory": "DFT", 
		 "functional": "B3LYP", 
		 "basiset": "6-31G**", 
		 "properties": { 
			 "R2extent": 10139.1416, 
			 "electric_dipole_moment_norm": 2.03771458502, 
			 "electric_quadrupole_moment_norm": 25.7334998622, 
			 "total_energy": -1749.39016011, 
			 "HOMO_LUMO_gap": 0.14851, 
			 "cosmo_polarized_energy": -8.0, 
			 "cosmo_cavitation_energy": 36.13, 
			 "cosmo_dispersion_energy": -26.35, 
			 "cosmo_repulsion_energy": 1.9, 
			 "cosmo_total_nonelectrostatic_energy": 11.68, 
			 "SMD_solvation_energy": 6.46 
		},
		"coords": [
			{
				"x": 3.0297284083,
				"y": -1.7642150785,
				"z": 3.0056387069,
				"element": "C" 
			},
			{
				"x": 2.5821826194,
				"y": -0.5713886817,
				"z": 2.2106041482,
				"element": "C" 
			},
			{
				"x": 3.2438359361,
				"y": 0.6371438194,
				"z": 2.001907849,
				"element": "C" 
			},
			{
				"x": 2.2678532543,
				"y": 1.6857637877,
				"z": 0.9915305227,
				"element": "S" 
			},
			{
				"x": 1.0553362572,
				"y": 0.4350579607,
				"z": 0.9252921249,
				"element": "C" 
			},
			{
				"x": 1.3649124072,
				"y": -0.6545077793,
				"z": 1.5980323823,
				"element": "N" 
			},
			{
				"x": -0.2037231093,
				"y": 0.5805989691,
				"z": 0.1845665749,
				"element": "C" 
			},
			{
				"x": -1.1200511232,
				"y": -0.4862768227,
				"z": 0.1856148703,
				"element": "C" 
			},
			{
				"x": -2.3206133249,
				"y": -0.3816953998,
				"z": -0.5063393798,
				"element": "C" 
			},
			{
				"x": -2.6237549012,
				"y": 0.7881601488,
				"z": -1.2097840411,
				"element": "C" 
			},
			{
				"x": -1.7197240375,
				"y": 1.8540477864,
				"z": -1.2190346975,
				"element": "C" 
			},
			{
				"x": -0.5182878858,
				"y": 1.7501849668,
				"z": -0.5270969933,
				"element": "C" 
			},
			{
				"x": -3.9501835773,
				"y": 0.921715276,
				"z": -1.9110213795,
				"element": "C" 
			},
			{
				"x": -4.8961174402,
				"y": 1.4235948926,
				"z": -1.0848401032,
				"element": "F" 
			},
			{
				"x": -4.4044769295,
				"y": -0.2705174473,
				"z": -2.3531289419,
				"element": "F" 
			},
			{
				"x": -3.8735934616,
				"y": 1.7513067101,
				"z": -2.9739003519,
				"element": "F" 
			},
			{
				"x": 4.5179974169,
				"y": 1.1981984736,
				"z": 2.4221943052,
				"element": "C" 
			},
			{
				"x": 5.5440350932,
				"y": 0.1215011137,
				"z": 3.4719830021,
				"element": "Cl" 
			},
			{
				"x": 4.9255803021,
				"y": 2.2884892542,
				"z": 2.1326937345,
				"element": "O" 
			},
			{
				"x": 3.9672277312,
				"y": -2.1746088895,
				"z": 2.6213584254,
				"element": "H" 
			},
			{
				"x": 3.2000140563,
				"y": -1.5071730587,
				"z": 4.0544309271,
				"element": "H" 
			},
			{
				"x": 2.2517750829,
				"y": -2.5261887341,
				"z": 2.9440960916,
				"element": "H" 
			},
			{
				"x": -0.8695326584,
				"y": -1.38758409,
				"z": 0.732677288,
				"element": "H" 
			},
			{
				"x": -3.0211963553,
				"y": -1.2095409595,
				"z": -0.5095581604,
				"element": "H" 
			},
			{
				"x": -1.9537641069,
				"y": 2.7563255097,
				"z": -1.7728577429,
				"element": "H" 
			},
			{
				"x": 0.1758403458,
				"y": 2.5853082723,
				"z": -0.5462591616,
				"element": "H" 
			}
		],
		 "valence_orbital": [ 
			{
				"type": "occ",
				"energy": -0.31442,
				"method": "rhf"
			},
			{
				"type": "occ",
				"energy": -0.30289,
				"method": "rhf"
			},
			{
				"type": "occ",
				"energy": -0.28801,
				"method": "rhf"
			},
			{
				"type": "occ",
				"energy": -0.28455,
				"method": "rhf"
			},
			{
				"type": "occ",
				"energy": -0.25386,
				"method": "rhf"
			},
			{
				"type": "unocc",
				"energy": -0.10535,
				"method": "rhf"
			},
			{
				"type": "unocc",
				"energy": -0.04902,
				"method": "rhf"
			},
			{
				"type": "unocc",
				"energy": -0.03308,
				"method": "rhf"
			},
			{
				"type": "unocc",
				"energy": -0.01257,
				"method": "rhf"
			},
			{
				"type": "unocc",
				"energy": 0.01058,
				"method": "rhf"
			}
		],
		"cosmo_sigma_profile": { 
			"-0.025": 0.0,
			"-0.024": 0.0,
			"-0.023": 0.0,
			"-0.022": 0.0,
			"-0.021": 0.0,
			"-0.02": 0.0,
			"-0.019": 0.0,
			"-0.018": 0.0,
			"-0.017": 0.0,
			"-0.016": 0.0,
			"-0.015": 0.0,
			"-0.014": 0.0,
			"-0.013": 0.0,
			"-0.012": 0.0,
			"-0.011": 0.0,
			"-0.01": 0.0,
			"-0.009": 0.417252442292,
			"-0.008": 3.58074746855,
			"-0.007": 6.60513228477,
			"-0.006": 9.1958193242,
			"-0.005": 12.9165007864,
			"-0.004": 17.4553438486,
			"-0.003": 21.5758957122,
			"-0.002": 27.9484596543,
			"-0.001": 28.0057196082,
			"0.0": 29.1976391163,
			"0.001": 36.2255851518,
			"0.002": 36.2105717552,
			"0.003": 32.4574623229,
			"0.004": 9.23626383219,
			"0.005": 6.1084614784,
			"0.006": 3.99308842099,
			"0.007": 3.61303586629,
			"0.008": 4.85993816567,
			"0.009": 4.96295552817,
			"0.01": 0.960301929447,
			"0.011": 0.0,
			"0.012": 0.0,
			"0.013": 0.0,
			"0.014": 0.0,
			"0.015": 0.0,
			"0.016": 0.0,
			"0.017": 0.0,
			"0.018": 0.0,
			"0.019": 0.0,
			"0.02": 0.0,
			"0.021": 0.0,
			"0.022": 0.0,
			"0.023": 0.0,
			"0.024": 0.0,
			"0.025": 0.0
		}
	}
}
