{
	 "smiles": "ClC1=NC=CN2C=NN=C12", 
	 "Tm": 469.15, 
	 "num_atms": 13, 
	 "gaussian": { 
		 "optdone": 1, 
		 "sigma_profile": "yes", 
		 "theory": "DFT", 
		 "functional": "B3LYP", 
		 "basiset": "6-31G**", 
		 "properties": { 
			 "R2extent": 2264.6689, 
			 "electric_dipole_moment_norm": 5.66437122812, 
			 "electric_quadrupole_moment_norm": 11.467140661, 
			 "total_energy": -871.485077782, 
			 "HOMO_LUMO_gap": 0.17796, 
			 "cosmo_polarized_energy": -17.03, 
			 "cosmo_cavitation_energy": 19.85, 
			 "cosmo_dispersion_energy": -15.23, 
			 "cosmo_repulsion_energy": 1.21, 
			 "cosmo_total_nonelectrostatic_energy": 5.83, 
			 "SMD_solvation_energy": 0.79 
		},
		"coords": [
			{
				"x": 3.6615229656,
				"y": -1.4080956562,
				"z": 1.0089254621,
				"element": "Cl" 
			},
			{
				"x": 2.1053910354,
				"y": -0.7729797696,
				"z": 0.5622143613,
				"element": "C" 
			},
			{
				"x": 1.9925495855,
				"y": -0.0754974118,
				"z": -0.5243166798,
				"element": "N" 
			},
			{
				"x": 0.7545434742,
				"y": 0.4183152347,
				"z": -0.8608925663,
				"element": "C" 
			},
			{
				"x": -0.3667479807,
				"y": 0.2169153157,
				"z": -0.1159637441,
				"element": "C" 
			},
			{
				"x": -0.231914007,
				"y": -0.5275748328,
				"z": 1.0386628038,
				"element": "N" 
			},
			{
				"x": -1.0866207456,
				"y": -0.9389172714,
				"z": 2.0240131354,
				"element": "C" 
			},
			{
				"x": -0.432428152,
				"y": -1.6472557442,
				"z": 2.9257613781,
				"element": "N" 
			},
			{
				"x": 0.877388237,
				"y": -1.7246025146,
				"z": 2.5618032078,
				"element": "N" 
			},
			{
				"x": 1.0024961592,
				"y": -1.0526926801,
				"z": 1.4271910847,
				"element": "C" 
			},
			{
				"x": 0.7043954127,
				"y": 0.9960380945,
				"z": -1.7771336358,
				"element": "H" 
			},
			{
				"x": -1.3496936751,
				"y": 0.5963497175,
				"z": -0.3627689059,
				"element": "H" 
			},
			{
				"x": -2.1404823092,
				"y": -0.7050024817,
				"z": 2.0393040989,
				"element": "H" 
			}
		],
		 "valence_orbital": [ 
			{
				"type": "occ",
				"energy": -0.32894,
				"method": "rhf"
			},
			{
				"type": "occ",
				"energy": -0.30132,
				"method": "rhf"
			},
			{
				"type": "occ",
				"energy": -0.29591,
				"method": "rhf"
			},
			{
				"type": "occ",
				"energy": -0.2731,
				"method": "rhf"
			},
			{
				"type": "occ",
				"energy": -0.25639,
				"method": "rhf"
			},
			{
				"type": "unocc",
				"energy": -0.07843,
				"method": "rhf"
			},
			{
				"type": "unocc",
				"energy": -0.03624,
				"method": "rhf"
			},
			{
				"type": "unocc",
				"energy": 0.02356,
				"method": "rhf"
			},
			{
				"type": "unocc",
				"energy": 0.0249,
				"method": "rhf"
			},
			{
				"type": "unocc",
				"energy": 0.07682,
				"method": "rhf"
			}
		],
		"cosmo_sigma_profile": { 
			"-0.025": 0.0,
			"-0.024": 0.0,
			"-0.023": 0.0,
			"-0.022": 0.0,
			"-0.021": 0.0,
			"-0.02": 0.0,
			"-0.019": 0.0,
			"-0.018": 0.0,
			"-0.017": 0.0,
			"-0.016": 0.0,
			"-0.015": 0.0,
			"-0.014": 0.111596638372,
			"-0.013": 1.33028408609,
			"-0.012": 3.73822097425,
			"-0.011": 4.2011090048,
			"-0.01": 3.85067740301,
			"-0.009": 5.54323480365,
			"-0.008": 4.54820778457,
			"-0.007": 5.41007863889,
			"-0.006": 7.74368449204,
			"-0.005": 7.96261648248,
			"-0.004": 9.27739764267,
			"-0.003": 9.06807314722,
			"-0.002": 9.76081142086,
			"-0.001": 9.19550731529,
			"0.0": 9.98831279937,
			"0.001": 7.97439770115,
			"0.002": 8.73986312504,
			"0.003": 10.4062995141,
			"0.004": 6.65624814643,
			"0.005": 5.20718728798,
			"0.006": 3.09216064759,
			"0.007": 3.48305657997,
			"0.008": 3.86538381328,
			"0.009": 3.1962323877,
			"0.01": 4.20215988322,
			"0.011": 3.79080391316,
			"0.012": 3.97346635085,
			"0.013": 3.17082638867,
			"0.014": 2.57794018136,
			"0.015": 1.79443949305,
			"0.016": 0.159109495862,
			"0.017": 0.0,
			"0.018": 0.0,
			"0.019": 0.0,
			"0.02": 0.0,
			"0.021": 0.0,
			"0.022": 0.0,
			"0.023": 0.0,
			"0.024": 0.0,
			"0.025": 0.0
		}
	}
}
