{
	 "smiles": "CSC1=NN=C(C(=O)N1N)C(C)(C)C", 
	 "Tm": 399.15, 
	 "num_atms": 28, 
	 "gaussian": { 
		 "optdone": 1, 
		 "sigma_profile": "yes", 
		 "theory": "DFT", 
		 "functional": "B3LYP", 
		 "basiset": "6-31G**", 
		 "properties": { 
			 "R2extent": 3744.2601, 
			 "electric_dipole_moment_norm": 1.74019098377, 
			 "electric_quadrupole_moment_norm": 3.37383342653, 
			 "total_energy": -1005.66003078, 
			 "HOMO_LUMO_gap": 0.17752, 
			 "cosmo_polarized_energy": -13.33, 
			 "cosmo_cavitation_energy": 31.75, 
			 "cosmo_dispersion_energy": -23.36, 
			 "cosmo_repulsion_energy": 1.81, 
			 "cosmo_total_nonelectrostatic_energy": 10.2, 
			 "SMD_solvation_energy": 5.59 
		},
		"coords": [
			{
				"x": 1.30323335,
				"y": -1.9600045085,
				"z": -3.8339621862,
				"element": "C" 
			},
			{
				"x": 1.9353664224,
				"y": -2.513538319,
				"z": -2.2109749811,
				"element": "S" 
			},
			{
				"x": 1.1272514929,
				"y": -1.3262859255,
				"z": -1.1800230103,
				"element": "C" 
			},
			{
				"x": 0.3459503734,
				"y": -0.4104693684,
				"z": -1.6851790839,
				"element": "N" 
			},
			{
				"x": -0.2566302723,
				"y": 0.4863893336,
				"z": -0.842209782,
				"element": "N" 
			},
			{
				"x": -0.0787815484,
				"y": 0.4605732942,
				"z": 0.4509516202,
				"element": "C" 
			},
			{
				"x": 0.7887639849,
				"y": -0.5432777776,
				"z": 1.0949003156,
				"element": "C" 
			},
			{
				"x": 1.0403978711,
				"y": -0.6773872834,
				"z": 2.2879207097,
				"element": "O" 
			},
			{
				"x": 1.369016009,
				"y": -1.4262439316,
				"z": 0.1667330223,
				"element": "N" 
			},
			{
				"x": 2.2264938515,
				"y": -2.4456964889,
				"z": 0.6266659725,
				"element": "N" 
			},
			{
				"x": -0.7946500827,
				"y": 1.5048361343,
				"z": 1.3107833199,
				"element": "C" 
			},
			{
				"x": 0.2561959668,
				"y": 2.344952652,
				"z": 2.0775946362,
				"element": "C" 
			},
			{
				"x": -1.7243497468,
				"y": 0.7876614547,
				"z": 2.3204373322,
				"element": "C" 
			},
			{
				"x": -1.6380947443,
				"y": 2.4397219269,
				"z": 0.4266716741,
				"element": "C" 
			},
			{
				"x": 1.7510700588,
				"y": -2.6419525992,
				"z": -4.5601655189,
				"element": "H" 
			},
			{
				"x": 0.2163878266,
				"y": -2.0290899919,
				"z": -3.8691535185,
				"element": "H" 
			},
			{
				"x": 1.6092601614,
				"y": -0.9343973869,
				"z": -4.0382381676,
				"element": "H" 
			},
			{
				"x": 2.9661303552,
				"y": -1.9893137552,
				"z": 1.1610835337,
				"element": "H" 
			},
			{
				"x": 1.6970379035,
				"y": -2.9918827717,
				"z": 1.3066114978,
				"element": "H" 
			},
			{
				"x": 0.9167522038,
				"y": 2.8736249287,
				"z": 1.3816720368,
				"element": "H" 
			},
			{
				"x": -0.2531900548,
				"y": 3.0965551856,
				"z": 2.6903378225,
				"element": "H" 
			},
			{
				"x": 0.8650828426,
				"y": 1.7211808449,
				"z": 2.734632889,
				"element": "H" 
			},
			{
				"x": -2.4861459455,
				"y": 0.1978859678,
				"z": 1.7989160868,
				"element": "H" 
			},
			{
				"x": -2.2416950983,
				"y": 1.5330907324,
				"z": 2.9340434005,
				"element": "H" 
			},
			{
				"x": -1.1619587873,
				"y": 0.1274445537,
				"z": 2.9833157779,
				"element": "H" 
			},
			{
				"x": -1.019870425,
				"y": 2.9712161784,
				"z": -0.3012009108,
				"element": "H" 
			},
			{
				"x": -2.1399529889,
				"y": 3.1770036661,
				"z": 1.0622906809,
				"element": "H" 
			},
			{
				"x": -2.3978709796,
				"y": 1.8878032545,
				"z": -0.1324551694,
				"element": "H" 
			}
		],
		 "valence_orbital": [ 
			{
				"type": "occ",
				"energy": -0.30361,
				"method": "rhf"
			},
			{
				"type": "occ",
				"energy": -0.27841,
				"method": "rhf"
			},
			{
				"type": "occ",
				"energy": -0.27431,
				"method": "rhf"
			},
			{
				"type": "occ",
				"energy": -0.2421,
				"method": "rhf"
			},
			{
				"type": "occ",
				"energy": -0.23814,
				"method": "rhf"
			},
			{
				"type": "unocc",
				"energy": -0.06062,
				"method": "rhf"
			},
			{
				"type": "unocc",
				"energy": -0.01544,
				"method": "rhf"
			},
			{
				"type": "unocc",
				"energy": 0.02522,
				"method": "rhf"
			},
			{
				"type": "unocc",
				"energy": 0.05458,
				"method": "rhf"
			},
			{
				"type": "unocc",
				"energy": 0.08088,
				"method": "rhf"
			}
		],
		"cosmo_sigma_profile": { 
			"-0.025": 0.0,
			"-0.024": 0.0,
			"-0.023": 0.0,
			"-0.022": 0.0,
			"-0.021": 0.0,
			"-0.02": 0.0,
			"-0.019": 0.0,
			"-0.018": 0.0,
			"-0.017": 0.0,
			"-0.016": 0.0,
			"-0.015": 0.0,
			"-0.014": 0.615002616051,
			"-0.013": 3.39617181214,
			"-0.012": 3.4564120899,
			"-0.011": 2.1721079703,
			"-0.01": 2.03289573595,
			"-0.009": 1.81119214763,
			"-0.008": 2.71180859095,
			"-0.007": 5.88499743145,
			"-0.006": 8.54213375845,
			"-0.005": 8.53878231578,
			"-0.004": 8.68040193326,
			"-0.003": 23.3968494248,
			"-0.002": 29.5273531003,
			"-0.001": 24.6936323994,
			"0.0": 21.4534368715,
			"0.001": 28.3277193045,
			"0.002": 14.080053759,
			"0.003": 6.34678859053,
			"0.004": 8.48339816525,
			"0.005": 5.98492057182,
			"0.006": 8.60878467764,
			"0.007": 6.92347527117,
			"0.008": 4.38218029764,
			"0.009": 3.67980911728,
			"0.01": 5.12193858522,
			"0.011": 4.31252899514,
			"0.012": 4.06140806188,
			"0.013": 2.32459766193,
			"0.014": 1.27385685361,
			"0.015": 0.0535777335392,
			"0.016": 0.0,
			"0.017": 0.0,
			"0.018": 0.0,
			"0.019": 0.0,
			"0.02": 0.0,
			"0.021": 0.0,
			"0.022": 0.0,
			"0.023": 0.0,
			"0.024": 0.0,
			"0.025": 0.0
		}
	}
}
