{
	 "smiles": "CN(C)S(=O)(=O)C1=C(Cl)C=CC(NC(=O)CCl)=C1", 
	 "Tm": 457.15, 
	 "num_atms": 30, 
	 "gaussian": { 
		 "optdone": 1, 
		 "sigma_profile": "yes", 
		 "theory": "DFT", 
		 "functional": "B3LYP", 
		 "basiset": "6-31G**", 
		 "properties": { 
			 "R2extent": 8157.3117, 
			 "electric_dipole_moment_norm": 6.10942483872, 
			 "electric_quadrupole_moment_norm": 19.8350808307, 
			 "total_energy": -2041.96448689, 
			 "HOMO_LUMO_gap": 0.18915, 
			 "cosmo_polarized_energy": -24.35, 
			 "cosmo_cavitation_energy": 38.63, 
			 "cosmo_dispersion_energy": -27.66, 
			 "cosmo_repulsion_energy": 2.11, 
			 "cosmo_total_nonelectrostatic_energy": 13.08, 
			 "SMD_solvation_energy": 6.23 
		},
		"coords": [
			{
				"x": 1.4490678759,
				"y": -1.4306707436,
				"z": 4.6257651841,
				"element": "C" 
			},
			{
				"x": 1.7131956339,
				"y": -0.8390359323,
				"z": 3.3078807493,
				"element": "N" 
			},
			{
				"x": 3.1079335935,
				"y": -0.4539572259,
				"z": 3.0683661491,
				"element": "C" 
			},
			{
				"x": 0.5663697774,
				"y": 0.2604602582,
				"z": 2.7406199457,
				"element": "S" 
			},
			{
				"x": 1.1041710812,
				"y": 1.6273057134,
				"z": 2.7695510943,
				"element": "O" 
			},
			{
				"x": -0.7078460557,
				"y": -0.0496450466,
				"z": 3.3873573544,
				"element": "O" 
			},
			{
				"x": 0.4638590153,
				"y": -0.1895771353,
				"z": 0.9872715471,
				"element": "C" 
			},
			{
				"x": 0.0347282824,
				"y": -1.4427761081,
				"z": 0.522177353,
				"element": "C" 
			},
			{
				"x": -0.3937644908,
				"y": -2.756404259,
				"z": 1.5877165766,
				"element": "Cl" 
			},
			{
				"x": -0.0423219544,
				"y": -1.6666364627,
				"z": -0.852756931,
				"element": "C" 
			},
			{
				"x": 0.2956906739,
				"y": -0.6656213199,
				"z": -1.7599295253,
				"element": "C" 
			},
			{
				"x": 0.6835861617,
				"y": 0.6013659329,
				"z": -1.3052031898,
				"element": "C" 
			},
			{
				"x": 1.0489702624,
				"y": 1.649993861,
				"z": -2.1760077533,
				"element": "N" 
			},
			{
				"x": 0.4756637783,
				"y": 2.1300071551,
				"z": -3.3463929599,
				"element": "C" 
			},
			{
				"x": 0.9532488761,
				"y": 3.0976022419,
				"z": -3.9037878694,
				"element": "O" 
			},
			{
				"x": -0.7545345755,
				"y": 1.3800224697,
				"z": -3.8675870663,
				"element": "C" 
			},
			{
				"x": -1.7562458109,
				"y": 2.4108988361,
				"z": -4.9352273942,
				"element": "Cl" 
			},
			{
				"x": 0.769641292,
				"y": 0.8207447512,
				"z": 0.0762879797,
				"element": "C" 
			},
			{
				"x": 2.0417923404,
				"y": -2.3467457801,
				"z": 4.7025523333,
				"element": "H" 
			},
			{
				"x": 1.7233603356,
				"y": -0.7589926963,
				"z": 5.4509511295,
				"element": "H" 
			},
			{
				"x": 0.3931458073,
				"y": -1.6832946845,
				"z": 4.7062029938,
				"element": "H" 
			},
			{
				"x": 3.7300187522,
				"y": -1.3403281125,
				"z": 3.2199817525,
				"element": "H" 
			},
			{
				"x": 3.4474778207,
				"y": 0.34664394,
				"z": 3.7376707235,
				"element": "H" 
			},
			{
				"x": 3.2355724806,
				"y": -0.1243339947,
				"z": 2.035165361,
				"element": "H" 
			},
			{
				"x": -0.3490998156,
				"y": -2.6427615164,
				"z": -1.2115547153,
				"element": "H" 
			},
			{
				"x": 0.2790350225,
				"y": -0.8890574003,
				"z": -2.8201832321,
				"element": "H" 
			},
			{
				"x": 1.7778978378,
				"y": 2.2747370422,
				"z": -1.8511416884,
				"element": "H" 
			},
			{
				"x": -0.4363278904,
				"y": 0.5202545197,
				"z": -4.4620495478,
				"element": "H" 
			},
			{
				"x": -1.3866804829,
				"y": 1.026267982,
				"z": -3.0524857771,
				"element": "H" 
			},
			{
				"x": 1.0662943751,
				"y": 1.7894337147,
				"z": 0.4643894228,
				"element": "H" 
			}
		],
		 "valence_orbital": [ 
			{
				"type": "occ",
				"energy": -0.30489,
				"method": "rhf"
			},
			{
				"type": "occ",
				"energy": -0.29774,
				"method": "rhf"
			},
			{
				"type": "occ",
				"energy": -0.28072,
				"method": "rhf"
			},
			{
				"type": "occ",
				"energy": -0.26197,
				"method": "rhf"
			},
			{
				"type": "occ",
				"energy": -0.25079,
				"method": "rhf"
			},
			{
				"type": "unocc",
				"energy": -0.06164,
				"method": "rhf"
			},
			{
				"type": "unocc",
				"energy": -0.05054,
				"method": "rhf"
			},
			{
				"type": "unocc",
				"energy": -0.00484,
				"method": "rhf"
			},
			{
				"type": "unocc",
				"energy": 0.00217,
				"method": "rhf"
			},
			{
				"type": "unocc",
				"energy": 0.02486,
				"method": "rhf"
			}
		],
		"cosmo_sigma_profile": { 
			"-0.025": 0.0,
			"-0.024": 0.0,
			"-0.023": 0.0,
			"-0.022": 0.0,
			"-0.021": 0.0,
			"-0.02": 0.0,
			"-0.019": 0.0,
			"-0.018": 0.0,
			"-0.017": 0.0,
			"-0.016": 0.322738359135,
			"-0.015": 1.31275170972,
			"-0.014": 0.909334581801,
			"-0.013": 1.31766247543,
			"-0.012": 2.49242737624,
			"-0.011": 3.34716665873,
			"-0.01": 4.16831191146,
			"-0.009": 5.68155018792,
			"-0.008": 8.35366779459,
			"-0.007": 8.90766500094,
			"-0.006": 13.2963776936,
			"-0.005": 18.761843769,
			"-0.004": 21.2610901588,
			"-0.003": 24.3000863609,
			"-0.002": 25.6178131814,
			"-0.001": 16.8831621109,
			"0.0": 25.0935411124,
			"0.001": 19.6595632592,
			"0.002": 12.5969802635,
			"0.003": 12.2004612341,
			"0.004": 12.9257916155,
			"0.005": 13.8652695319,
			"0.006": 10.2758612067,
			"0.007": 5.66193796314,
			"0.008": 5.84179268926,
			"0.009": 6.44495203088,
			"0.01": 10.3478973969,
			"0.011": 9.85585285229,
			"0.012": 7.00580518998,
			"0.013": 2.54715559609,
			"0.014": 0.396853707609,
			"0.015": 0.0,
			"0.016": 0.0,
			"0.017": 0.0,
			"0.018": 0.0,
			"0.019": 0.0,
			"0.02": 0.0,
			"0.021": 0.0,
			"0.022": 0.0,
			"0.023": 0.0,
			"0.024": 0.0,
			"0.025": 0.0
		}
	}
}
