{
	 "smiles": "CN1CCN(CC1)C1=C2C=C(C)SC2=NC2=CC=CC=C2N1", 
	 "Tm": 468.15, 
	 "num_atms": 42, 
	 "gaussian": { 
		 "optdone": 1, 
		 "sigma_profile": "yes", 
		 "theory": "DFT", 
		 "functional": "B3LYP", 
		 "basiset": "6-31G**", 
		 "properties": { 
			 "R2extent": 9891.6193, 
			 "electric_dipole_moment_norm": 6.7534387463, 
			 "electric_quadrupole_moment_norm": 15.2719905923, 
			 "total_energy": -1277.00340213, 
			 "HOMO_LUMO_gap": 0.11458, 
			 "cosmo_polarized_energy": -18.94, 
			 "cosmo_cavitation_energy": 43.85, 
			 "cosmo_dispersion_energy": -31.82, 
			 "cosmo_repulsion_energy": 2.36, 
			 "cosmo_total_nonelectrostatic_energy": 14.39, 
			 "SMD_solvation_energy": 1.8 
		},
		"coords": [
			{
				"x": -2.2765274224,
				"y": -4.0374627562,
				"z": -0.750374939,
				"element": "C" 
			},
			{
				"x": -1.5620709606,
				"y": -3.4199046143,
				"z": 0.3564819527,
				"element": "N" 
			},
			{
				"x": -0.1201790199,
				"y": -3.3763384178,
				"z": 0.1117191514,
				"element": "C" 
			},
			{
				"x": 0.565973166,
				"y": -2.44593538,
				"z": 1.1073666557,
				"element": "C" 
			},
			{
				"x": 0.1104680135,
				"y": -1.0639457193,
				"z": 0.8866553329,
				"element": "N" 
			},
			{
				"x": -1.2434693701,
				"y": -0.9293943312,
				"z": 0.3241842874,
				"element": "C" 
			},
			{
				"x": -2.1029199285,
				"y": -2.1150330352,
				"z": 0.7790210526,
				"element": "C" 
			},
			{
				"x": 0.8093645567,
				"y": 0.0084598765,
				"z": 1.4082927949,
				"element": "C" 
			},
			{
				"x": 0.7435887267,
				"y": 1.2937499328,
				"z": 0.8799624834,
				"element": "C" 
			},
			{
				"x": 0.1138823203,
				"y": 1.6632049224,
				"z": -0.3788522304,
				"element": "C" 
			},
			{
				"x": -0.1897354356,
				"y": 2.9719548153,
				"z": -0.5125797829,
				"element": "C" 
			},
			{
				"x": -0.831522063,
				"y": 3.6601538106,
				"z": -1.6758344104,
				"element": "C" 
			},
			{
				"x": 0.3100116699,
				"y": 3.9123833792,
				"z": 0.9114658035,
				"element": "S" 
			},
			{
				"x": 1.0918533406,
				"y": 2.4755824451,
				"z": 1.6702695086,
				"element": "C" 
			},
			{
				"x": 1.8375019537,
				"y": 2.6988550787,
				"z": 2.6976927737,
				"element": "N" 
			},
			{
				"x": 2.7568986249,
				"y": 1.7700851198,
				"z": 3.1914507353,
				"element": "C" 
			},
			{
				"x": 3.8683088976,
				"y": 2.3030417876,
				"z": 3.8679164091,
				"element": "C" 
			},
			{
				"x": 4.8830510535,
				"y": 1.4946202677,
				"z": 4.3780359649,
				"element": "C" 
			},
			{
				"x": 4.8155368002,
				"y": 0.112044548,
				"z": 4.2183464298,
				"element": "C" 
			},
			{
				"x": 3.7196451396,
				"y": -0.4409083333,
				"z": 3.5507022959,
				"element": "C" 
			},
			{
				"x": 2.694649246,
				"y": 0.3656878832,
				"z": 3.0552747989,
				"element": "C" 
			},
			{
				"x": 1.5428628914,
				"y": -0.2974199113,
				"z": 2.5268790541,
				"element": "N" 
			},
			{
				"x": -2.2043762618,
				"y": -3.4743836689,
				"z": -1.7011983608,
				"element": "H" 
			},
			{
				"x": -3.3350636721,
				"y": -4.1485525263,
				"z": -0.4973684703,
				"element": "H" 
			},
			{
				"x": -1.8720019231,
				"y": -5.0395565782,
				"z": -0.9300252978,
				"element": "H" 
			},
			{
				"x": 0.2948480259,
				"y": -4.3861712339,
				"z": 0.219420093,
				"element": "H" 
			},
			{
				"x": 0.1261954938,
				"y": -3.03751677,
				"z": -0.9131889065,
				"element": "H" 
			},
			{
				"x": 0.3341235168,
				"y": -2.8084488662,
				"z": 2.122308487,
				"element": "H" 
			},
			{
				"x": 1.6505602267,
				"y": -2.4896102831,
				"z": 0.9762472738,
				"element": "H" 
			},
			{
				"x": -1.6743999542,
				"y": 0.0120145121,
				"z": 0.6702535724,
				"element": "H" 
			},
			{
				"x": -1.2205028221,
				"y": -0.89501723,
				"z": -0.7728405518,
				"element": "H" 
			},
			{
				"x": -3.1134117841,
				"y": -1.9937131265,
				"z": 0.3763216052,
				"element": "H" 
			},
			{
				"x": -2.1934206511,
				"y": -2.0870835003,
				"z": 1.8736943694,
				"element": "H" 
			},
			{
				"x": -0.0799002818,
				"y": 0.9496889368,
				"z": -1.1713962015,
				"element": "H" 
			},
			{
				"x": -0.1750523634,
				"y": 4.4223518974,
				"z": -2.1135025523,
				"element": "H" 
			},
			{
				"x": -1.7609875616,
				"y": 4.1658518393,
				"z": -1.3851648278,
				"element": "H" 
			},
			{
				"x": -1.0729219326,
				"y": 2.9330826502,
				"z": -2.4574129626,
				"element": "H" 
			},
			{
				"x": 3.8972962573,
				"y": 3.3815170815,
				"z": 3.983416163,
				"element": "H" 
			},
			{
				"x": 5.7203930972,
				"y": 1.9464737677,
				"z": 4.901957104,
				"element": "H" 
			},
			{
				"x": 5.5944572947,
				"y": -0.5341018597,
				"z": 4.6110755369,
				"element": "H" 
			},
			{
				"x": 3.6430995742,
				"y": -1.5189208391,
				"z": 3.4268014719,
				"element": "H" 
			},
			{
				"x": 1.2451935208,
				"y": -1.1097855709,
				"z": 3.0448263324,
				"element": "H" 
			}
		],
		 "valence_orbital": [ 
			{
				"type": "occ",
				"energy": -0.23174,
				"method": "rhf"
			},
			{
				"type": "occ",
				"energy": -0.22639,
				"method": "rhf"
			},
			{
				"type": "occ",
				"energy": -0.22339,
				"method": "rhf"
			},
			{
				"type": "occ",
				"energy": -0.22064,
				"method": "rhf"
			},
			{
				"type": "occ",
				"energy": -0.15491,
				"method": "rhf"
			},
			{
				"type": "unocc",
				"energy": -0.04033,
				"method": "rhf"
			},
			{
				"type": "unocc",
				"energy": 0.00413,
				"method": "rhf"
			},
			{
				"type": "unocc",
				"energy": 0.02012,
				"method": "rhf"
			},
			{
				"type": "unocc",
				"energy": 0.04027,
				"method": "rhf"
			},
			{
				"type": "unocc",
				"energy": 0.05138,
				"method": "rhf"
			}
		],
		"cosmo_sigma_profile": { 
			"-0.025": 0.0,
			"-0.024": 0.0,
			"-0.023": 0.0,
			"-0.022": 0.0,
			"-0.021": 0.0,
			"-0.02": 0.0,
			"-0.019": 0.0,
			"-0.018": 0.0,
			"-0.017": 0.0,
			"-0.016": 0.0,
			"-0.015": 0.0261871973668,
			"-0.014": 0.684259789132,
			"-0.013": 1.26087921578,
			"-0.012": 1.20479445061,
			"-0.011": 1.66481137864,
			"-0.01": 1.35756394134,
			"-0.009": 1.18360642811,
			"-0.008": 1.41923761757,
			"-0.007": 2.78304503872,
			"-0.006": 9.1798202522,
			"-0.005": 20.2340369546,
			"-0.004": 39.8885375373,
			"-0.003": 40.7609198439,
			"-0.002": 35.0419000641,
			"-0.001": 30.6310152203,
			"0.0": 26.2022742064,
			"0.001": 13.4025381074,
			"0.002": 15.9135489084,
			"0.003": 16.5447162297,
			"0.004": 21.9578512733,
			"0.005": 22.4205888401,
			"0.006": 18.9986616283,
			"0.007": 7.67108425835,
			"0.008": 5.08709649984,
			"0.009": 2.41875584228,
			"0.01": 1.63708395225,
			"0.011": 2.22565571622,
			"0.012": 2.02053503807,
			"0.013": 1.34341852102,
			"0.014": 1.27608074533,
			"0.015": 0.928010475976,
			"0.016": 0.72947743636,
			"0.017": 0.0,
			"0.018": 0.0,
			"0.019": 0.0,
			"0.02": 0.0,
			"0.021": 0.0,
			"0.022": 0.0,
			"0.023": 0.0,
			"0.024": 0.0,
			"0.025": 0.0
		}
	}
}
