{
	 "smiles": "NC(=O)C=CC(N)=O", 
	 "Tm": 549.15, 
	 "num_atms": 14, 
	 "gaussian": { 
		 "optdone": 1, 
		 "sigma_profile": "yes", 
		 "theory": "DFT", 
		 "functional": "B3LYP", 
		 "basiset": "6-31G**", 
		 "properties": { 
			 "R2extent": 1347.3229, 
			 "electric_dipole_moment_norm": 5.65000229557, 
			 "electric_quadrupole_moment_norm": 13.5123816209, 
			 "total_energy": -416.004282247, 
			 "HOMO_LUMO_gap": 0.17112, 
			 "cosmo_polarized_energy": -18.2, 
			 "cosmo_cavitation_energy": 18.65, 
			 "cosmo_dispersion_energy": -14.07, 
			 "cosmo_repulsion_energy": 1.2, 
			 "cosmo_total_nonelectrostatic_energy": 5.78, 
			 "SMD_solvation_energy": 4.98 
		},
		"coords": [
			{
				"x": -0.5294804243,
				"y": -2.2345581138,
				"z": -1.5421192542,
				"element": "N" 
			},
			{
				"x": -0.731878976,
				"y": -1.3497162705,
				"z": -0.5241913764,
				"element": "C" 
			},
			{
				"x": -0.7261747026,
				"y": -1.7378969225,
				"z": 0.6475963483,
				"element": "O" 
			},
			{
				"x": -0.9458555681,
				"y": 0.0518597433,
				"z": -0.9850609698,
				"element": "C" 
			},
			{
				"x": -1.1728412114,
				"y": 1.1771233841,
				"z": -0.2823001459,
				"element": "C" 
			},
			{
				"x": -1.3065085753,
				"y": 1.5205166209,
				"z": 1.1812268988,
				"element": "C" 
			},
			{
				"x": -1.1856723456,
				"y": 0.5320959315,
				"z": 2.0937195545,
				"element": "N" 
			},
			{
				"x": -1.5211267447,
				"y": 2.6989216259,
				"z": 1.464246167,
				"element": "O" 
			},
			{
				"x": -0.3776833185,
				"y": -3.2021219787,
				"z": -1.3014889854,
				"element": "H" 
			},
			{
				"x": -0.5253790393,
				"y": -1.9648355997,
				"z": -2.5116685873,
				"element": "H" 
			},
			{
				"x": -0.9107581356,
				"y": 0.1733435273,
				"z": -2.0669405778,
				"element": "H" 
			},
			{
				"x": -1.2974511128,
				"y": 2.0879264559,
				"z": -0.8624893918,
				"element": "H" 
			},
			{
				"x": -1.2800891912,
				"y": 0.7935492208,
				"z": 3.0632083081,
				"element": "H" 
			},
			{
				"x": -1.0075006547,
				"y": -0.4305076245,
				"z": 1.8053620119,
				"element": "H" 
			}
		],
		 "valence_orbital": [ 
			{
				"type": "occ",
				"energy": -0.29156,
				"method": "rhf"
			},
			{
				"type": "occ",
				"energy": -0.28909,
				"method": "rhf"
			},
			{
				"type": "occ",
				"energy": -0.27945,
				"method": "rhf"
			},
			{
				"type": "occ",
				"energy": -0.24993,
				"method": "rhf"
			},
			{
				"type": "occ",
				"energy": -0.24207,
				"method": "rhf"
			},
			{
				"type": "unocc",
				"energy": -0.07095,
				"method": "rhf"
			},
			{
				"type": "unocc",
				"energy": 0.04481,
				"method": "rhf"
			},
			{
				"type": "unocc",
				"energy": 0.05393,
				"method": "rhf"
			},
			{
				"type": "unocc",
				"energy": 0.09061,
				"method": "rhf"
			},
			{
				"type": "unocc",
				"energy": 0.11793,
				"method": "rhf"
			}
		],
		"cosmo_sigma_profile": { 
			"-0.025": 0.0,
			"-0.024": 0.0,
			"-0.023": 0.0,
			"-0.022": 0.0,
			"-0.021": 0.0,
			"-0.02": 0.0,
			"-0.019": 0.0,
			"-0.018": 0.0,
			"-0.017": 0.0,
			"-0.016": 0.381852931696,
			"-0.015": 1.91312055447,
			"-0.014": 3.11921607801,
			"-0.013": 3.50241701359,
			"-0.012": 3.54838348024,
			"-0.011": 3.47126919751,
			"-0.01": 4.05138703221,
			"-0.009": 3.67992833323,
			"-0.008": 3.776341982,
			"-0.007": 4.72744268971,
			"-0.006": 6.36799714769,
			"-0.005": 4.89909183641,
			"-0.004": 4.03153762197,
			"-0.003": 4.50912215447,
			"-0.002": 5.91211866351,
			"-0.001": 9.47797444719,
			"0.0": 12.1732889302,
			"0.001": 10.1749206723,
			"0.002": 8.58586054481,
			"0.003": 7.90494858,
			"0.004": 5.67729066021,
			"0.005": 3.38846861783,
			"0.006": 2.84075578757,
			"0.007": 2.31424874657,
			"0.008": 2.58758767375,
			"0.009": 3.03634124032,
			"0.01": 2.7867109786,
			"0.011": 2.41288098219,
			"0.012": 3.44043430965,
			"0.013": 4.78854693809,
			"0.014": 6.12444006198,
			"0.015": 2.39273766573,
			"0.016": 0.0311117342469,
			"0.017": 0.0,
			"0.018": 0.0,
			"0.019": 0.0,
			"0.02": 0.0,
			"0.021": 0.0,
			"0.022": 0.0,
			"0.023": 0.0,
			"0.024": 0.0,
			"0.025": 0.0
		}
	}
}
