{
	 "smiles": "CCC1=C(SC(N)=N1)C(O)=O", 
	 "Tm": 428.15, 
	 "num_atms": 19, 
	 "gaussian": { 
		 "optdone": 1, 
		 "sigma_profile": "yes", 
		 "theory": "DFT", 
		 "functional": "B3LYP", 
		 "basiset": "6-31G**", 
		 "properties": { 
			 "R2extent": 3293.5523, 
			 "electric_dipole_moment_norm": 6.22508502191, 
			 "electric_quadrupole_moment_norm": 19.3493274229, 
			 "total_energy": -891.611537243, 
			 "HOMO_LUMO_gap": 0.17839, 
			 "cosmo_polarized_energy": -18.51, 
			 "cosmo_cavitation_energy": 24.74, 
			 "cosmo_dispersion_energy": -18.73, 
			 "cosmo_repulsion_energy": 1.49, 
			 "cosmo_total_nonelectrostatic_energy": 7.5, 
			 "SMD_solvation_energy": 3.58 
		},
		"coords": [
			{
				"x": 2.136545561,
				"y": 2.7234815812,
				"z": -0.9136995793,
				"element": "C" 
			},
			{
				"x": 1.1866902524,
				"y": 2.0463624777,
				"z": -1.9191378277,
				"element": "C" 
			},
			{
				"x": 0.860958079,
				"y": 0.6328636237,
				"z": -1.5225805114,
				"element": "C" 
			},
			{
				"x": 1.5574839546,
				"y": -0.499552148,
				"z": -1.8969307731,
				"element": "C" 
			},
			{
				"x": 0.8100102038,
				"y": -1.9223125,
				"z": -1.1480242753,
				"element": "S" 
			},
			{
				"x": -0.38892081,
				"y": -0.8444373284,
				"z": -0.4340011598,
				"element": "C" 
			},
			{
				"x": -1.3545238939,
				"y": -1.3164296108,
				"z": 0.4065381729,
				"element": "N" 
			},
			{
				"x": -0.2265151114,
				"y": 0.4226759047,
				"z": -0.7081635946,
				"element": "N" 
			},
			{
				"x": 2.7304582131,
				"y": -0.5721061149,
				"z": -2.7782223773,
				"element": "C" 
			},
			{
				"x": 3.0639910223,
				"y": -1.8018400038,
				"z": -3.2689675006,
				"element": "O" 
			},
			{
				"x": 3.4069732111,
				"y": 0.388880242,
				"z": -3.0790788052,
				"element": "O" 
			},
			{
				"x": 2.3045435907,
				"y": 3.7672360289,
				"z": -1.196838658,
				"element": "H" 
			},
			{
				"x": 1.7187701231,
				"y": 2.7065704672,
				"z": 0.0977227998,
				"element": "H" 
			},
			{
				"x": 3.1025383917,
				"y": 2.2124897693,
				"z": -0.9054199867,
				"element": "H" 
			},
			{
				"x": 1.6529901493,
				"y": 2.0506454457,
				"z": -2.9060633805,
				"element": "H" 
			},
			{
				"x": 0.2423853813,
				"y": 2.5979873872,
				"z": -1.9697131333,
				"element": "H" 
			},
			{
				"x": -1.6623409454,
				"y": -2.271796068,
				"z": 0.3108547822,
				"element": "H" 
			},
			{
				"x": -2.0691425507,
				"y": -0.6426096736,
				"z": 0.6446530178,
				"element": "H" 
			},
			{
				"x": 2.3597051782,
				"y": -2.4462094804,
				"z": -3.1092272097,
				"element": "H" 
			}
		],
		 "valence_orbital": [ 
			{
				"type": "occ",
				"energy": -0.309,
				"method": "rhf"
			},
			{
				"type": "occ",
				"energy": -0.29031,
				"method": "rhf"
			},
			{
				"type": "occ",
				"energy": -0.28785,
				"method": "rhf"
			},
			{
				"type": "occ",
				"energy": -0.26938,
				"method": "rhf"
			},
			{
				"type": "occ",
				"energy": -0.22611,
				"method": "rhf"
			},
			{
				"type": "unocc",
				"energy": -0.04772,
				"method": "rhf"
			},
			{
				"type": "unocc",
				"energy": -0.01864,
				"method": "rhf"
			},
			{
				"type": "unocc",
				"energy": 0.02328,
				"method": "rhf"
			},
			{
				"type": "unocc",
				"energy": 0.04478,
				"method": "rhf"
			},
			{
				"type": "unocc",
				"energy": 0.07919,
				"method": "rhf"
			}
		],
		"cosmo_sigma_profile": { 
			"-0.025": 0.0,
			"-0.024": 0.0,
			"-0.023": 0.0,
			"-0.022": 0.0,
			"-0.021": 0.0,
			"-0.02": 0.0,
			"-0.019": 0.0,
			"-0.018": 0.0604082377596,
			"-0.017": 0.730505295507,
			"-0.016": 1.25188913497,
			"-0.015": 3.19210773247,
			"-0.014": 4.06563568762,
			"-0.013": 2.84386113371,
			"-0.012": 3.96514898122,
			"-0.011": 3.52756136701,
			"-0.01": 2.82425312401,
			"-0.009": 2.19490634969,
			"-0.008": 3.09566655882,
			"-0.007": 2.07176024663,
			"-0.006": 2.87796077673,
			"-0.005": 3.13491209738,
			"-0.004": 5.97033090761,
			"-0.003": 9.68275644366,
			"-0.002": 13.9701648597,
			"-0.001": 20.956046018,
			"0.0": 20.9796976441,
			"0.001": 20.9923732239,
			"0.002": 13.1555258734,
			"0.003": 7.37642142009,
			"0.004": 6.81915404484,
			"0.005": 5.45851818471,
			"0.006": 3.63001584644,
			"0.007": 5.16761484742,
			"0.008": 3.99777765727,
			"0.009": 4.68265323902,
			"0.01": 4.81040201243,
			"0.011": 5.22705024508,
			"0.012": 5.10714838832,
			"0.013": 3.10060216207,
			"0.014": 0.880881949078,
			"0.015": 0.225231407316,
			"0.016": 0.0,
			"0.017": 0.0,
			"0.018": 0.0,
			"0.019": 0.0,
			"0.02": 0.0,
			"0.021": 0.0,
			"0.022": 0.0,
			"0.023": 0.0,
			"0.024": 0.0,
			"0.025": 0.0
		}
	}
}
