{
	 "smiles": "CC1=CC=C(C=C1)S(=O)(=O)C1(CCC1)C(O)=O", 
	 "Tm": 379.15, 
	 "num_atms": 31, 
	 "gaussian": { 
		 "optdone": 1, 
		 "sigma_profile": "yes", 
		 "theory": "DFT", 
		 "functional": "B3LYP", 
		 "basiset": "6-31G**", 
		 "properties": { 
			 "R2extent": 4755.4127, 
			 "electric_dipole_moment_norm": 6.12347036655, 
			 "electric_quadrupole_moment_norm": 17.2180168422, 
			 "total_energy": -1164.72402833, 
			 "HOMO_LUMO_gap": 0.22197, 
			 "cosmo_polarized_energy": -18.21, 
			 "cosmo_cavitation_energy": 34.74, 
			 "cosmo_dispersion_energy": -24.76, 
			 "cosmo_repulsion_energy": 1.88, 
			 "cosmo_total_nonelectrostatic_energy": 11.86, 
			 "SMD_solvation_energy": 6.08 
		},
		"coords": [
			{
				"x": 2.1635136731,
				"y": 4.0036294195,
				"z": 2.6907352289,
				"element": "C" 
			},
			{
				"x": 1.826612196,
				"y": 2.9960230472,
				"z": 1.6184240394,
				"element": "C" 
			},
			{
				"x": 2.6898551421,
				"y": 1.9230867507,
				"z": 1.3483978698,
				"element": "C" 
			},
			{
				"x": 2.4047628812,
				"y": 1.0025722421,
				"z": 0.3436262093,
				"element": "C" 
			},
			{
				"x": 1.2338205913,
				"y": 1.152915746,
				"z": -0.4020424664,
				"element": "C" 
			},
			{
				"x": 0.365486783,
				"y": 2.2214874748,
				"z": -0.1681560344,
				"element": "C" 
			},
			{
				"x": 0.6649623362,
				"y": 3.1302730608,
				"z": 0.8454334615,
				"element": "C" 
			},
			{
				"x": 0.8824632775,
				"y": 0.0158130072,
				"z": -1.7496020222,
				"element": "S" 
			},
			{
				"x": -0.0158361522,
				"y": 0.726934689,
				"z": -2.6772725111,
				"element": "O" 
			},
			{
				"x": 2.1587302858,
				"y": -0.5535578717,
				"z": -2.2132059778,
				"element": "O" 
			},
			{
				"x": -0.1188426748,
				"y": -1.3997847223,
				"z": -1.069744155,
				"element": "C" 
			},
			{
				"x": -1.409837449,
				"y": -0.9480790392,
				"z": -0.316398083,
				"element": "C" 
			},
			{
				"x": -2.2484313085,
				"y": -1.3034802155,
				"z": -1.5726807166,
				"element": "C" 
			},
			{
				"x": -1.0097915706,
				"y": -1.9981144738,
				"z": -2.1962300647,
				"element": "C" 
			},
			{
				"x": 0.7809706825,
				"y": -2.3905977819,
				"z": -0.3574610783,
				"element": "C" 
			},
			{
				"x": 1.2985540828,
				"y": -1.8766163317,
				"z": 0.7838350786,
				"element": "O" 
			},
			{
				"x": 0.9847311639,
				"y": -3.5267172845,
				"z": -0.7156595176,
				"element": "O" 
			},
			{
				"x": 2.8307035473,
				"y": 4.7815335965,
				"z": 2.2992970978,
				"element": "H" 
			},
			{
				"x": 1.266648949,
				"y": 4.5022534125,
				"z": 3.0686423388,
				"element": "H" 
			},
			{
				"x": 2.6752525635,
				"y": 3.5330446637,
				"z": 3.5355138581,
				"element": "H" 
			},
			{
				"x": 3.6011660008,
				"y": 1.811625742,
				"z": 1.9301252423,
				"element": "H" 
			},
			{
				"x": 3.0808228391,
				"y": 0.1845996514,
				"z": 0.1259339611,
				"element": "H" 
			},
			{
				"x": -0.5128466901,
				"y": 2.3487242381,
				"z": -0.7913588118,
				"element": "H" 
			},
			{
				"x": -0.0086178055,
				"y": 3.9625736564,
				"z": 1.0313131603,
				"element": "H" 
			},
			{
				"x": -1.4294506792,
				"y": 0.0877634443,
				"z": 0.0290157834,
				"element": "H" 
			},
			{
				"x": -1.6074831758,
				"y": -1.5933447554,
				"z": 0.5438371603,
				"element": "H" 
			},
			{
				"x": -2.5505748511,
				"y": -0.417511559,
				"z": -2.1333657968,
				"element": "H" 
			},
			{
				"x": -3.1222123773,
				"y": -1.9364771717,
				"z": -1.4009295185,
				"element": "H" 
			},
			{
				"x": -1.0152721459,
				"y": -3.086666404,
				"z": -2.1181465589,
				"element": "H" 
			},
			{
				"x": -0.7502067336,
				"y": -1.7127280585,
				"z": -3.2162475282,
				"element": "H" 
			},
			{
				"x": 1.8506466186,
				"y": -2.577378173,
				"z": 1.1707703515,
				"element": "H" 
			}
		],
		 "valence_orbital": [ 
			{
				"type": "occ",
				"energy": -0.30034,
				"method": "rhf"
			},
			{
				"type": "occ",
				"energy": -0.28712,
				"method": "rhf"
			},
			{
				"type": "occ",
				"energy": -0.2767,
				"method": "rhf"
			},
			{
				"type": "occ",
				"energy": -0.26932,
				"method": "rhf"
			},
			{
				"type": "occ",
				"energy": -0.26394,
				"method": "rhf"
			},
			{
				"type": "unocc",
				"energy": -0.04197,
				"method": "rhf"
			},
			{
				"type": "unocc",
				"energy": -0.02132,
				"method": "rhf"
			},
			{
				"type": "unocc",
				"energy": -0.01531,
				"method": "rhf"
			},
			{
				"type": "unocc",
				"energy": 0.05453,
				"method": "rhf"
			},
			{
				"type": "unocc",
				"energy": 0.06015,
				"method": "rhf"
			}
		],
		"cosmo_sigma_profile": { 
			"-0.025": 0.0,
			"-0.024": 0.0,
			"-0.023": 0.0,
			"-0.022": 0.0,
			"-0.021": 0.0,
			"-0.02": 0.0,
			"-0.019": 0.383544042234,
			"-0.018": 1.0680081859,
			"-0.017": 0.823692930691,
			"-0.016": 1.22390457636,
			"-0.015": 0.603750459066,
			"-0.014": 0.527366784819,
			"-0.013": 0.580203637014,
			"-0.012": 0.659231357473,
			"-0.011": 0.946399827622,
			"-0.01": 0.642221261442,
			"-0.009": 0.705766111025,
			"-0.008": 0.919599423427,
			"-0.007": 5.76851004159,
			"-0.006": 12.7403764279,
			"-0.005": 18.7791942407,
			"-0.004": 24.2712004101,
			"-0.003": 23.9095284952,
			"-0.002": 26.8010110004,
			"-0.001": 26.7937133656,
			"0.0": 22.3849969841,
			"0.001": 12.126611874,
			"0.002": 14.6754750887,
			"0.003": 15.4281937382,
			"0.004": 8.31862200477,
			"0.005": 6.26822913085,
			"0.006": 5.90863443318,
			"0.007": 4.76533050981,
			"0.008": 6.39853027198,
			"0.009": 5.80727416667,
			"0.01": 9.66305761231,
			"0.011": 10.9283543749,
			"0.012": 3.76197408496,
			"0.013": 0.0,
			"0.014": 0.0,
			"0.015": 0.0,
			"0.016": 0.0,
			"0.017": 0.0,
			"0.018": 0.0,
			"0.019": 0.0,
			"0.02": 0.0,
			"0.021": 0.0,
			"0.022": 0.0,
			"0.023": 0.0,
			"0.024": 0.0,
			"0.025": 0.0
		}
	}
}
