{
	 "smiles": "ClC1=CC=C(C=C1)C(C=O)C=O", 
	 "Tm": 413.15, 
	 "num_atms": 19, 
	 "gaussian": { 
		 "optdone": 1, 
		 "sigma_profile": "yes", 
		 "theory": "DFT", 
		 "functional": "B3LYP", 
		 "basiset": "6-31G**", 
		 "properties": { 
			 "R2extent": 2953.5376, 
			 "electric_dipole_moment_norm": 1.89690246455, 
			 "electric_quadrupole_moment_norm": 12.358232887, 
			 "total_energy": -957.782407223, 
			 "HOMO_LUMO_gap": 0.18634, 
			 "cosmo_polarized_energy": -10.42, 
			 "cosmo_cavitation_energy": 26.06, 
			 "cosmo_dispersion_energy": -18.52, 
			 "cosmo_repulsion_energy": 1.5, 
			 "cosmo_total_nonelectrostatic_energy": 9.04, 
			 "SMD_solvation_energy": 6.19 
		},
		"coords": [
			{
				"x": -2.8844395693,
				"y": 1.0465882039,
				"z": -2.9295538717,
				"element": "Cl" 
			},
			{
				"x": -1.6634964057,
				"y": 0.5410338949,
				"z": -1.7733718049,
				"element": "C" 
			},
			{
				"x": -0.3898982902,
				"y": 1.1054480774,
				"z": -1.82733774,
				"element": "C" 
			},
			{
				"x": 0.5774611751,
				"y": 0.7001115597,
				"z": -0.9080789856,
				"element": "C" 
			},
			{
				"x": 0.2805539204,
				"y": -0.2685082031,
				"z": 0.0608073608,
				"element": "C" 
			},
			{
				"x": -1.0080710421,
				"y": -0.8173339695,
				"z": 0.0990450462,
				"element": "C" 
			},
			{
				"x": -1.9825160491,
				"y": -0.4206517056,
				"z": -0.8148454078,
				"element": "C" 
			},
			{
				"x": 1.309573579,
				"y": -0.6940091905,
				"z": 1.1081604704,
				"element": "C" 
			},
			{
				"x": 2.6713234904,
				"y": -0.9806754001,
				"z": 0.4868374705,
				"element": "C" 
			},
			{
				"x": 3.3955971761,
				"y": -0.1143158263,
				"z": 0.0451963774,
				"element": "O" 
			},
			{
				"x": 1.4363314514,
				"y": 0.4358017658,
				"z": 2.1446140208,
				"element": "C" 
			},
			{
				"x": 1.0192835161,
				"y": 0.3452791844,
				"z": 3.273077666,
				"element": "O" 
			},
			{
				"x": -0.1567830102,
				"y": 1.8509726638,
				"z": -2.5793726317,
				"element": "H" 
			},
			{
				"x": 1.5739726193,
				"y": 1.1262276163,
				"z": -0.9568237126,
				"element": "H" 
			},
			{
				"x": -1.2563610012,
				"y": -1.5618599594,
				"z": 0.8500499585,
				"element": "H" 
			},
			{
				"x": -2.9771421713,
				"y": -0.8512731536,
				"z": -0.7846942874,
				"element": "H" 
			},
			{
				"x": 0.9496572875,
				"y": -1.5812821559,
				"z": 1.6361450294,
				"element": "H" 
			},
			{
				"x": 2.9756219632,
				"y": -2.0481230862,
				"z": 0.4664562741,
				"element": "H" 
			},
			{
				"x": 1.9286313607,
				"y": 1.352469684,
				"z": 1.7616887676,
				"element": "H" 
			}
		],
		 "valence_orbital": [ 
			{
				"type": "occ",
				"energy": -0.32027,
				"method": "rhf"
			},
			{
				"type": "occ",
				"energy": -0.28834,
				"method": "rhf"
			},
			{
				"type": "occ",
				"energy": -0.27748,
				"method": "rhf"
			},
			{
				"type": "occ",
				"energy": -0.27504,
				"method": "rhf"
			},
			{
				"type": "occ",
				"energy": -0.24602,
				"method": "rhf"
			},
			{
				"type": "unocc",
				"energy": -0.05968,
				"method": "rhf"
			},
			{
				"type": "unocc",
				"energy": -0.04775,
				"method": "rhf"
			},
			{
				"type": "unocc",
				"energy": -0.02788,
				"method": "rhf"
			},
			{
				"type": "unocc",
				"energy": -0.0055,
				"method": "rhf"
			},
			{
				"type": "unocc",
				"energy": 0.02189,
				"method": "rhf"
			}
		],
		"cosmo_sigma_profile": { 
			"-0.025": 0.0,
			"-0.024": 0.0,
			"-0.023": 0.0,
			"-0.022": 0.0,
			"-0.021": 0.0,
			"-0.02": 0.0,
			"-0.019": 0.0,
			"-0.018": 0.0,
			"-0.017": 0.0,
			"-0.016": 0.0,
			"-0.015": 0.0,
			"-0.014": 0.0,
			"-0.013": 0.0,
			"-0.012": 0.0,
			"-0.011": 0.0,
			"-0.01": 0.0,
			"-0.009": 1.96440487502,
			"-0.008": 10.6044374853,
			"-0.007": 14.0579390896,
			"-0.006": 13.3302643225,
			"-0.005": 13.6633308004,
			"-0.004": 9.50087327622,
			"-0.003": 10.6137127482,
			"-0.002": 10.537549224,
			"-0.001": 12.24565183,
			"0.0": 13.2839486926,
			"0.001": 16.2873322954,
			"0.002": 17.2126049096,
			"0.003": 20.1932288555,
			"0.004": 11.8573273222,
			"0.005": 7.4732352958,
			"0.006": 3.39302477644,
			"0.007": 3.73134763314,
			"0.008": 3.33339247517,
			"0.009": 4.90627746707,
			"0.01": 7.89651222928,
			"0.011": 4.56850867867,
			"0.012": 0.591711918905,
			"0.013": 0.0,
			"0.014": 0.0,
			"0.015": 0.0,
			"0.016": 0.0,
			"0.017": 0.0,
			"0.018": 0.0,
			"0.019": 0.0,
			"0.02": 0.0,
			"0.021": 0.0,
			"0.022": 0.0,
			"0.023": 0.0,
			"0.024": 0.0,
			"0.025": 0.0
		}
	}
}
