{
	 "smiles": "C(NC1=NC=CS1)C1=CC=CC=C1", 
	 "Tm": 401.15, 
	 "num_atms": 23, 
	 "gaussian": { 
		 "optdone": 1, 
		 "sigma_profile": "yes", 
		 "theory": "DFT", 
		 "functional": "B3LYP", 
		 "basiset": "6-31G**", 
		 "properties": { 
			 "R2extent": 3411.5821, 
			 "electric_dipole_moment_norm": 1.78358623565, 
			 "electric_quadrupole_moment_norm": 4.90245004666, 
			 "total_energy": -894.768687647, 
			 "HOMO_LUMO_gap": 0.19315, 
			 "cosmo_polarized_energy": -10.17, 
			 "cosmo_cavitation_energy": 28.4, 
			 "cosmo_dispersion_energy": -20.99, 
			 "cosmo_repulsion_energy": 1.63, 
			 "cosmo_total_nonelectrostatic_energy": 9.04, 
			 "SMD_solvation_energy": 2.98 
		},
		"coords": [
			{
				"x": -1.7229882972,
				"y": 1.0627138015,
				"z": 0.0968797433,
				"element": "C" 
			},
			{
				"x": -0.7570510398,
				"y": 2.1034743297,
				"z": 0.4243281196,
				"element": "N" 
			},
			{
				"x": -0.1370874642,
				"y": 2.1906766077,
				"z": 1.6469703534,
				"element": "C" 
			},
			{
				"x": 0.4094750078,
				"y": 3.2916506848,
				"z": 2.0900722024,
				"element": "N" 
			},
			{
				"x": 0.9772297388,
				"y": 3.0804599167,
				"z": 3.3272525488,
				"element": "C" 
			},
			{
				"x": 0.868230073,
				"y": 1.8295205894,
				"z": 3.850059132,
				"element": "C" 
			},
			{
				"x": 0.008980878,
				"y": 0.7967681725,
				"z": 2.7290023608,
				"element": "S" 
			},
			{
				"x": -1.1021975806,
				"y": -0.2632490276,
				"z": -0.3214762331,
				"element": "C" 
			},
			{
				"x": 0.0913752724,
				"y": -0.3063082836,
				"z": -1.0513734679,
				"element": "C" 
			},
			{
				"x": 0.614741095,
				"y": -1.5266984582,
				"z": -1.4784368435,
				"element": "C" 
			},
			{
				"x": -0.0504509842,
				"y": -2.7191920658,
				"z": -1.1845155447,
				"element": "C" 
			},
			{
				"x": -1.2396331321,
				"y": -2.6843372182,
				"z": -0.4548322679,
				"element": "C" 
			},
			{
				"x": -1.7587216099,
				"y": -1.4626104153,
				"z": -0.0231779946,
				"element": "C" 
			},
			{
				"x": -2.4150116398,
				"y": 0.8901320261,
				"z": 0.9349145652,
				"element": "H" 
			},
			{
				"x": -2.3274564996,
				"y": 1.4518619399,
				"z": -0.7306077222,
				"element": "H" 
			},
			{
				"x": -0.9101258284,
				"y": 3.016809358,
				"z": 0.0192413251,
				"element": "H" 
			},
			{
				"x": 1.4707822308,
				"y": 3.9096886678,
				"z": 3.8218412766,
				"element": "H" 
			},
			{
				"x": 1.2277289353,
				"y": 1.4476332084,
				"z": 4.7940014999,
				"element": "H" 
			},
			{
				"x": 0.6125473147,
				"y": 0.6214066029,
				"z": -1.2677948439,
				"element": "H" 
			},
			{
				"x": 1.5447010175,
				"y": -1.5469452865,
				"z": -2.0397765205,
				"element": "H" 
			},
			{
				"x": 0.3589781615,
				"y": -3.669071048,
				"z": -1.5161255608,
				"element": "H" 
			},
			{
				"x": -1.7589428495,
				"y": -3.6073796914,
				"z": -0.2130455533,
				"element": "H" 
			},
			{
				"x": -2.6806027997,
				"y": -1.4410044108,
				"z": 0.5537994255,
				"element": "H" 
			}
		],
		 "valence_orbital": [ 
			{
				"type": "occ",
				"energy": -0.2672,
				"method": "rhf"
			},
			{
				"type": "occ",
				"energy": -0.26638,
				"method": "rhf"
			},
			{
				"type": "occ",
				"energy": -0.25085,
				"method": "rhf"
			},
			{
				"type": "occ",
				"energy": -0.24441,
				"method": "rhf"
			},
			{
				"type": "occ",
				"energy": -0.20124,
				"method": "rhf"
			},
			{
				"type": "unocc",
				"energy": -0.00809,
				"method": "rhf"
			},
			{
				"type": "unocc",
				"energy": -0.00328,
				"method": "rhf"
			},
			{
				"type": "unocc",
				"energy": 0.00498,
				"method": "rhf"
			},
			{
				"type": "unocc",
				"energy": 0.03091,
				"method": "rhf"
			},
			{
				"type": "unocc",
				"energy": 0.06914,
				"method": "rhf"
			}
		],
		"cosmo_sigma_profile": { 
			"-0.025": 0.0,
			"-0.024": 0.0,
			"-0.023": 0.0,
			"-0.022": 0.0,
			"-0.021": 0.0,
			"-0.02": 0.0,
			"-0.019": 0.0,
			"-0.018": 0.0,
			"-0.017": 0.0,
			"-0.016": 0.0,
			"-0.015": 0.0,
			"-0.014": 0.76815014276,
			"-0.013": 1.35565164951,
			"-0.012": 0.952181806602,
			"-0.011": 1.15313301895,
			"-0.01": 0.856501158814,
			"-0.009": 1.52913076834,
			"-0.008": 3.219680797,
			"-0.007": 5.14470503162,
			"-0.006": 10.769475416,
			"-0.005": 18.1998862381,
			"-0.004": 17.8646714167,
			"-0.003": 19.6311061022,
			"-0.002": 14.6590642798,
			"-0.001": 13.4008106979,
			"0.0": 10.7664172106,
			"0.001": 12.7632788558,
			"0.002": 16.1429941341,
			"0.003": 18.5089788267,
			"0.004": 19.9374687208,
			"0.005": 18.063837493,
			"0.006": 11.4549251536,
			"0.007": 2.03921082424,
			"0.008": 2.1280150325,
			"0.009": 0.629787159966,
			"0.01": 0.794175003889,
			"0.011": 1.40564694378,
			"0.012": 1.3146769086,
			"0.013": 1.15550165871,
			"0.014": 0.985921481812,
			"0.015": 0.743600551532,
			"0.016": 0.584332048435,
			"0.017": 0.0109636194596,
			"0.018": 0.0,
			"0.019": 0.0,
			"0.02": 0.0,
			"0.021": 0.0,
			"0.022": 0.0,
			"0.023": 0.0,
			"0.024": 0.0,
			"0.025": 0.0
		}
	}
}
