{
	 "smiles": "[N-]=[N+]=NC1=CC=CC=C1C1=CC=CC=C1", 
	 "Tm": 322.15, 
	 "num_atms": 24, 
	 "gaussian": { 
		 "optdone": 1, 
		 "sigma_profile": "yes", 
		 "theory": "DFT", 
		 "functional": "B3LYP", 
		 "basiset": "6-31G**", 
		 "properties": { 
			 "R2extent": 3232.4138, 
			 "electric_dipole_moment_norm": 1.83601200976, 
			 "electric_quadrupole_moment_norm": 9.10509593085, 
			 "total_energy": -626.888462395, 
			 "HOMO_LUMO_gap": 0.18522, 
			 "cosmo_polarized_energy": -6.1, 
			 "cosmo_cavitation_energy": 29.26, 
			 "cosmo_dispersion_energy": -20.4, 
			 "cosmo_repulsion_energy": 1.6, 
			 "cosmo_total_nonelectrostatic_energy": 10.46, 
			 "SMD_solvation_energy": 3.13 
		},
		"coords": [
			{
				"x": 1.8904582676,
				"y": -3.2403804234,
				"z": -0.6203882669,
				"element": "N" 
			},
			{
				"x": 2.0795984873,
				"y": -2.2297623474,
				"z": -0.1263193319,
				"element": "N" 
			},
			{
				"x": 2.3972375598,
				"y": -1.2401604898,
				"z": 0.5467195399,
				"element": "N" 
			},
			{
				"x": 2.009057888,
				"y": 0.0721481398,
				"z": 0.1503403834,
				"element": "C" 
			},
			{
				"x": 2.9359815009,
				"y": 1.0722093174,
				"z": 0.4728956034,
				"element": "C" 
			},
			{
				"x": 2.6952358004,
				"y": 2.3994476449,
				"z": 0.1333553992,
				"element": "C" 
			},
			{
				"x": 1.5197002463,
				"y": 2.739759112,
				"z": -0.5382990554,
				"element": "C" 
			},
			{
				"x": 0.5873056852,
				"y": 1.7488986318,
				"z": -0.8361582298,
				"element": "C" 
			},
			{
				"x": 0.7912700162,
				"y": 0.4032327462,
				"z": -0.4870312524,
				"element": "C" 
			},
			{
				"x": -0.2869010802,
				"y": -0.5864752717,
				"z": -0.7636118915,
				"element": "C" 
			},
			{
				"x": -0.8147234492,
				"y": -1.3870506057,
				"z": 0.2634389413,
				"element": "C" 
			},
			{
				"x": -1.8611080062,
				"y": -2.2724089552,
				"z": 0.0087012876,
				"element": "C" 
			},
			{
				"x": -2.4011422912,
				"y": -2.3726501385,
				"z": -1.274970536,
				"element": "C" 
			},
			{
				"x": -1.8882482939,
				"y": -1.579824398,
				"z": -2.3030443079,
				"element": "C" 
			},
			{
				"x": -0.8413432923,
				"y": -0.6940667108,
				"z": -2.0493621384,
				"element": "C" 
			},
			{
				"x": 3.8526161374,
				"y": 0.7778632604,
				"z": 0.973015172,
				"element": "H" 
			},
			{
				"x": 3.4270641976,
				"y": 3.1612383468,
				"z": 0.3846507766,
				"element": "H" 
			},
			{
				"x": 1.3209641826,
				"y": 3.7711954728,
				"z": -0.8128462212,
				"element": "H" 
			},
			{
				"x": -0.3463775271,
				"y": 2.0145519317,
				"z": -1.323175144,
				"element": "H" 
			},
			{
				"x": -0.4076741263,
				"y": -1.3044124014,
				"z": 1.2670814535,
				"element": "H" 
			},
			{
				"x": -2.2584337469,
				"y": -2.8810150934,
				"z": 0.8159219737,
				"element": "H" 
			},
			{
				"x": -3.2148134415,
				"y": -3.0643380508,
				"z": -1.4725688962,
				"element": "H" 
			},
			{
				"x": -2.2991161589,
				"y": -1.6546014009,
				"z": -3.3058586165,
				"element": "H" 
			},
			{
				"x": -0.4363085557,
				"y": -0.0876983168,
				"z": -2.8545866428,
				"element": "H" 
			}
		],
		 "valence_orbital": [ 
			{
				"type": "occ",
				"energy": -0.29284,
				"method": "rhf"
			},
			{
				"type": "occ",
				"energy": -0.27263,
				"method": "rhf"
			},
			{
				"type": "occ",
				"energy": -0.25456,
				"method": "rhf"
			},
			{
				"type": "occ",
				"energy": -0.24178,
				"method": "rhf"
			},
			{
				"type": "occ",
				"energy": -0.22337,
				"method": "rhf"
			},
			{
				"type": "unocc",
				"energy": -0.03815,
				"method": "rhf"
			},
			{
				"type": "unocc",
				"energy": -0.02503,
				"method": "rhf"
			},
			{
				"type": "unocc",
				"energy": -0.01634,
				"method": "rhf"
			},
			{
				"type": "unocc",
				"energy": -0.00525,
				"method": "rhf"
			},
			{
				"type": "unocc",
				"energy": 0.00883,
				"method": "rhf"
			}
		],
		"cosmo_sigma_profile": { 
			"-0.025": 0.0,
			"-0.024": 0.0,
			"-0.023": 0.0,
			"-0.022": 0.0,
			"-0.021": 0.0,
			"-0.02": 0.0,
			"-0.019": 0.0,
			"-0.018": 0.0,
			"-0.017": 0.0,
			"-0.016": 0.0,
			"-0.015": 0.0,
			"-0.014": 0.0,
			"-0.013": 0.0,
			"-0.012": 0.0,
			"-0.011": 0.0,
			"-0.01": 0.0,
			"-0.009": 0.0,
			"-0.008": 0.0,
			"-0.007": 0.823853906464,
			"-0.006": 13.069894821,
			"-0.005": 18.6668766648,
			"-0.004": 24.6270148318,
			"-0.003": 21.6256928788,
			"-0.002": 17.1996888456,
			"-0.001": 15.5505825161,
			"0.0": 15.2702401738,
			"0.001": 15.1578279386,
			"0.002": 19.7595230234,
			"0.003": 19.6774842744,
			"0.004": 21.9017028515,
			"0.005": 18.8942496865,
			"0.006": 6.426435162,
			"0.007": 4.93047313453,
			"0.008": 1.47540464101,
			"0.009": 0.956173723347,
			"0.01": 0.124276044328,
			"0.011": 0.0,
			"0.012": 0.0,
			"0.013": 0.0,
			"0.014": 0.0,
			"0.015": 0.0,
			"0.016": 0.0,
			"0.017": 0.0,
			"0.018": 0.0,
			"0.019": 0.0,
			"0.02": 0.0,
			"0.021": 0.0,
			"0.022": 0.0,
			"0.023": 0.0,
			"0.024": 0.0,
			"0.025": 0.0
		}
	}
}
