{
	 "smiles": "NNC(=O)CCN1CCCC1", 
	 "Tm": 411.15, 
	 "num_atms": 26, 
	 "gaussian": { 
		 "optdone": 1, 
		 "sigma_profile": "yes", 
		 "theory": "DFT", 
		 "functional": "B3LYP", 
		 "basiset": "6-31G**", 
		 "properties": { 
			 "R2extent": 2306.9914, 
			 "electric_dipole_moment_norm": 2.37066434992, 
			 "electric_quadrupole_moment_norm": 6.143775415, 
			 "total_energy": -515.237352161, 
			 "HOMO_LUMO_gap": 0.22764, 
			 "cosmo_polarized_energy": -12.94, 
			 "cosmo_cavitation_energy": 27.39, 
			 "cosmo_dispersion_energy": -19.77, 
			 "cosmo_repulsion_energy": 1.63, 
			 "cosmo_total_nonelectrostatic_energy": 9.25, 
			 "SMD_solvation_energy": 2.68 
		},
		"coords": [
			{
				"x": 2.4748980815,
				"y": -0.9465225584,
				"z": -2.777809732,
				"element": "N" 
			},
			{
				"x": 1.735464719,
				"y": 0.0200300473,
				"z": -2.0663504792,
				"element": "N" 
			},
			{
				"x": 0.366271321,
				"y": 0.0467391812,
				"z": -2.1046232396,
				"element": "C" 
			},
			{
				"x": -0.2685203457,
				"y": -0.6957841937,
				"z": -2.8465818829,
				"element": "O" 
			},
			{
				"x": -0.294878665,
				"y": 1.0842120319,
				"z": -1.2062114656,
				"element": "C" 
			},
			{
				"x": -1.6015351904,
				"y": 0.5659743234,
				"z": -0.5519387693,
				"element": "C" 
			},
			{
				"x": -1.4801121292,
				"y": -0.2905946069,
				"z": 0.6133807804,
				"element": "N" 
			},
			{
				"x": -0.7960387773,
				"y": -1.5713266035,
				"z": 0.4661536979,
				"element": "C" 
			},
			{
				"x": -0.852553497,
				"y": -2.1509748466,
				"z": 1.8903000184,
				"element": "C" 
			},
			{
				"x": -0.8632274851,
				"y": -0.8965126508,
				"z": 2.8125518275,
				"element": "C" 
			},
			{
				"x": -0.958590294,
				"y": 0.3021602572,
				"z": 1.8401894517,
				"element": "C" 
			},
			{
				"x": 1.9470761071,
				"y": -1.8187809042,
				"z": -2.7241560178,
				"element": "H" 
			},
			{
				"x": 2.4506860702,
				"y": -0.6837343725,
				"z": -3.7629059086,
				"element": "H" 
			},
			{
				"x": 2.2414512258,
				"y": 0.480603759,
				"z": -1.3246473925,
				"element": "H" 
			},
			{
				"x": -0.5562386628,
				"y": 1.9297686288,
				"z": -1.8551424422,
				"element": "H" 
			},
			{
				"x": 0.404708225,
				"y": 1.4721499048,
				"z": -0.456760574,
				"element": "H" 
			},
			{
				"x": -2.1553786942,
				"y": 0.0240688364,
				"z": -1.3259596797,
				"element": "H" 
			},
			{
				"x": -2.2072320094,
				"y": 1.4320719726,
				"z": -0.2604937164,
				"element": "H" 
			},
			{
				"x": 0.2607310884,
				"y": -1.4569775967,
				"z": 0.1527565814,
				"element": "H" 
			},
			{
				"x": -1.2925484566,
				"y": -2.191268521,
				"z": -0.2868250431,
				"element": "H" 
			},
			{
				"x": -1.7718840713,
				"y": -2.7278716108,
				"z": 2.0234450928,
				"element": "H" 
			},
			{
				"x": -0.0107543338,
				"y": -2.818669962,
				"z": 2.0947001187,
				"element": "H" 
			},
			{
				"x": 0.0347657235,
				"y": -0.8305225232,
				"z": 3.4335546212,
				"element": "H" 
			},
			{
				"x": -1.7230762421,
				"y": -0.9201563802,
				"z": 3.4873283299,
				"element": "H" 
			},
			{
				"x": -1.625208474,
				"y": 1.0967930314,
				"z": 2.1952020755,
				"element": "H" 
			},
			{
				"x": 0.0450247663,
				"y": 0.7539253567,
				"z": 1.7078437475,
				"element": "H" 
			}
		],
		 "valence_orbital": [ 
			{
				"type": "occ",
				"energy": -0.31613,
				"method": "rhf"
			},
			{
				"type": "occ",
				"energy": -0.28275,
				"method": "rhf"
			},
			{
				"type": "occ",
				"energy": -0.25621,
				"method": "rhf"
			},
			{
				"type": "occ",
				"energy": -0.25232,
				"method": "rhf"
			},
			{
				"type": "occ",
				"energy": -0.20308,
				"method": "rhf"
			},
			{
				"type": "unocc",
				"energy": 0.02456,
				"method": "rhf"
			},
			{
				"type": "unocc",
				"energy": 0.06564,
				"method": "rhf"
			},
			{
				"type": "unocc",
				"energy": 0.08566,
				"method": "rhf"
			},
			{
				"type": "unocc",
				"energy": 0.0952,
				"method": "rhf"
			},
			{
				"type": "unocc",
				"energy": 0.11499,
				"method": "rhf"
			}
		],
		"cosmo_sigma_profile": { 
			"-0.025": 0.0,
			"-0.024": 0.0,
			"-0.023": 0.0,
			"-0.022": 0.0,
			"-0.021": 0.0,
			"-0.02": 0.0,
			"-0.019": 0.0,
			"-0.018": 0.0,
			"-0.017": 0.0,
			"-0.016": 0.0,
			"-0.015": 0.0,
			"-0.014": 0.887330135134,
			"-0.013": 1.13486093282,
			"-0.012": 1.50878319448,
			"-0.011": 2.33974808304,
			"-0.01": 3.26831690965,
			"-0.009": 3.41289641313,
			"-0.008": 3.30766854678,
			"-0.007": 2.88890677852,
			"-0.006": 4.03098641099,
			"-0.005": 6.36379128833,
			"-0.004": 8.08125149341,
			"-0.003": 21.1003827773,
			"-0.002": 27.4647972014,
			"-0.001": 33.9903279094,
			"0.0": 25.3352306545,
			"0.001": 15.5828027545,
			"0.002": 6.48752906274,
			"0.003": 5.27113320724,
			"0.004": 3.8104493317,
			"0.005": 3.51054811914,
			"0.006": 2.99524019688,
			"0.007": 2.8422375955,
			"0.008": 3.24663040925,
			"0.009": 2.82165349265,
			"0.01": 2.38316279526,
			"0.011": 2.50859144701,
			"0.012": 2.84514313707,
			"0.013": 3.9667343432,
			"0.014": 5.41846992076,
			"0.015": 1.72077414234,
			"0.016": 0.72945762249,
			"0.017": 0.305724837371,
			"0.018": 0.0,
			"0.019": 0.0,
			"0.02": 0.0,
			"0.021": 0.0,
			"0.022": 0.0,
			"0.023": 0.0,
			"0.024": 0.0,
			"0.025": 0.0
		}
	}
}
