{
	 "smiles": "CC(=O)NC1=CC=C(C=O)C=C1", 
	 "Tm": 431.15, 
	 "num_atms": 21, 
	 "gaussian": { 
		 "optdone": 1, 
		 "sigma_profile": "yes", 
		 "theory": "DFT", 
		 "functional": "B3LYP", 
		 "basiset": "6-31G**", 
		 "properties": { 
			 "R2extent": 2917.1484, 
			 "electric_dipole_moment_norm": 2.49682244062, 
			 "electric_quadrupole_moment_norm": 22.9221993975, 
			 "total_energy": -553.58952562, 
			 "HOMO_LUMO_gap": 0.17057, 
			 "cosmo_polarized_energy": -15.47, 
			 "cosmo_cavitation_energy": 25.72, 
			 "cosmo_dispersion_energy": -18.72, 
			 "cosmo_repulsion_energy": 1.47, 
			 "cosmo_total_nonelectrostatic_energy": 8.47, 
			 "SMD_solvation_energy": 6.35 
		},
		"coords": [
			{
				"x": -0.2219755399,
				"y": -2.3167097672,
				"z": -2.2150666972,
				"element": "C" 
			},
			{
				"x": 1.1092713705,
				"y": -1.6130263627,
				"z": -2.3559061813,
				"element": "C" 
			},
			{
				"x": 1.9106877682,
				"y": -1.9157492911,
				"z": -3.2261688852,
				"element": "O" 
			},
			{
				"x": 1.4567287338,
				"y": -0.585276482,
				"z": -1.4799549507,
				"element": "N" 
			},
			{
				"x": 0.8649182973,
				"y": 0.0551704783,
				"z": -0.3861994627,
				"element": "C" 
			},
			{
				"x": -0.4014660472,
				"y": -0.2436639634,
				"z": 0.1493922302,
				"element": "C" 
			},
			{
				"x": -0.8760726285,
				"y": 0.471845766,
				"z": 1.2448369212,
				"element": "C" 
			},
			{
				"x": -0.1223823778,
				"y": 1.4910618526,
				"z": 1.8358321753,
				"element": "C" 
			},
			{
				"x": -0.6443675943,
				"y": 2.236273156,
				"z": 2.9955509352,
				"element": "C" 
			},
			{
				"x": -0.0521202004,
				"y": 3.134888822,
				"z": 3.5657000381,
				"element": "O" 
			},
			{
				"x": 1.1423185599,
				"y": 1.7898255268,
				"z": 1.301311087,
				"element": "C" 
			},
			{
				"x": 1.6250342631,
				"y": 1.0868794178,
				"z": 0.2138993438,
				"element": "C" 
			},
			{
				"x": -0.3160831962,
				"y": -2.8034152605,
				"z": -1.239448478,
				"element": "H" 
			},
			{
				"x": -0.2715428581,
				"y": -3.0721592478,
				"z": -2.9985881286,
				"element": "H" 
			},
			{
				"x": -1.0573640022,
				"y": -1.6198431908,
				"z": -2.333695746,
				"element": "H" 
			},
			{
				"x": 2.3763620361,
				"y": -0.2376167723,
				"z": -1.7271301504,
				"element": "H" 
			},
			{
				"x": -1.0198689408,
				"y": -1.0212503996,
				"z": -0.2720007974,
				"element": "H" 
			},
			{
				"x": -1.85680028,
				"y": 0.2301763876,
				"z": 1.6485165061,
				"element": "H" 
			},
			{
				"x": -1.6554839237,
				"y": 1.9151214556,
				"z": 3.3337936448,
				"element": "H" 
			},
			{
				"x": 1.726611071,
				"y": 2.5809316749,
				"z": 1.7604857027,
				"element": "H" 
			},
			{
				"x": 2.6046954892,
				"y": 1.3247361998,
				"z": -0.1932591068,
				"element": "H" 
			}
		],
		 "valence_orbital": [ 
			{
				"type": "occ",
				"energy": -0.31935,
				"method": "rhf"
			},
			{
				"type": "occ",
				"energy": -0.27652,
				"method": "rhf"
			},
			{
				"type": "occ",
				"energy": -0.27124,
				"method": "rhf"
			},
			{
				"type": "occ",
				"energy": -0.25497,
				"method": "rhf"
			},
			{
				"type": "occ",
				"energy": -0.23651,
				"method": "rhf"
			},
			{
				"type": "unocc",
				"energy": -0.06594,
				"method": "rhf"
			},
			{
				"type": "unocc",
				"energy": -0.02454,
				"method": "rhf"
			},
			{
				"type": "unocc",
				"energy": 0.00243,
				"method": "rhf"
			},
			{
				"type": "unocc",
				"energy": 0.04889,
				"method": "rhf"
			},
			{
				"type": "unocc",
				"energy": 0.07108,
				"method": "rhf"
			}
		],
		"cosmo_sigma_profile": { 
			"-0.025": 0.0,
			"-0.024": 0.0,
			"-0.023": 0.0,
			"-0.022": 0.0,
			"-0.021": 0.0,
			"-0.02": 0.0,
			"-0.019": 0.0,
			"-0.018": 0.0,
			"-0.017": 0.0,
			"-0.016": 0.0,
			"-0.015": 0.364270904478,
			"-0.014": 0.963448908974,
			"-0.013": 1.31101822965,
			"-0.012": 1.33227327677,
			"-0.011": 0.991979686965,
			"-0.01": 1.34748350128,
			"-0.009": 1.20890775237,
			"-0.008": 2.53266566425,
			"-0.007": 13.1505770114,
			"-0.006": 16.4085115962,
			"-0.005": 14.1145068328,
			"-0.004": 13.33732344,
			"-0.003": 13.5935471007,
			"-0.002": 13.8061047265,
			"-0.001": 12.7579198605,
			"0.0": 12.5736025049,
			"0.001": 12.9031035402,
			"0.002": 12.9201075584,
			"0.003": 15.2551721298,
			"0.004": 5.70689572334,
			"0.005": 2.46301174271,
			"0.006": 3.46415178328,
			"0.007": 2.20297259917,
			"0.008": 2.6144791147,
			"0.009": 2.90859595209,
			"0.01": 3.99612953593,
			"0.011": 5.97021300944,
			"0.012": 7.91029541626,
			"0.013": 6.30379392048,
			"0.014": 1.04900799557,
			"0.015": 0.0,
			"0.016": 0.0,
			"0.017": 0.0,
			"0.018": 0.0,
			"0.019": 0.0,
			"0.02": 0.0,
			"0.021": 0.0,
			"0.022": 0.0,
			"0.023": 0.0,
			"0.024": 0.0,
			"0.025": 0.0
		}
	}
}
