{
	 "smiles": "CCC(=O)OC1CCC2C3CCC4=CC(=O)CCC4(C)C3CCC12C", 
	 "Tm": 393.15, 
	 "num_atms": 57, 
	 "gaussian": { 
		 "optdone": 1, 
		 "sigma_profile": "yes", 
		 "theory": "DFT", 
		 "functional": "B3LYP", 
		 "basiset": "6-31G**", 
		 "properties": { 
			 "R2extent": 10831.3182, 
			 "electric_dipole_moment_norm": 2.88141856383, 
			 "electric_quadrupole_moment_norm": 53.6206872276, 
			 "total_energy": -1083.30992086, 
			 "HOMO_LUMO_gap": 0.1836, 
			 "cosmo_polarized_energy": -15.2, 
			 "cosmo_cavitation_energy": 50.18, 
			 "cosmo_dispersion_energy": -34.37, 
			 "cosmo_repulsion_energy": 2.55, 
			 "cosmo_total_nonelectrostatic_energy": 18.36, 
			 "SMD_solvation_energy": 8.58 
		},
		"coords": [
			{
				"x": 4.8300954574,
				"y": -1.5542423183,
				"z": -2.7454047048,
				"element": "C" 
			},
			{
				"x": 5.0178091888,
				"y": -2.1283892981,
				"z": -1.331770069,
				"element": "C" 
			},
			{
				"x": 4.7869721281,
				"y": -1.0994100001,
				"z": -0.2416315732,
				"element": "C" 
			},
			{
				"x": 5.6268249394,
				"y": -0.7103694221,
				"z": 0.5414973578,
				"element": "O" 
			},
			{
				"x": 3.5056070407,
				"y": -0.6565440159,
				"z": -0.2533084743,
				"element": "O" 
			},
			{
				"x": 3.1432701776,
				"y": 0.3369159555,
				"z": 0.7443943671,
				"element": "C" 
			},
			{
				"x": 3.4694752122,
				"y": 1.7661688997,
				"z": 0.2292575316,
				"element": "C" 
			},
			{
				"x": 2.1335220132,
				"y": 2.3558070176,
				"z": -0.3166285489,
				"element": "C" 
			},
			{
				"x": 1.2009247422,
				"y": 1.1343450733,
				"z": -0.3489599928,
				"element": "C" 
			},
			{
				"x": -0.2993714467,
				"y": 1.2951850082,
				"z": -0.6401805933,
				"element": "C" 
			},
			{
				"x": -1.0700973648,
				"y": 2.3116523748,
				"z": 0.215165149,
				"element": "C" 
			},
			{
				"x": -2.521280288,
				"y": 2.3840999757,
				"z": -0.2624275321,
				"element": "C" 
			},
			{
				"x": -3.2307958688,
				"y": 1.0404153361,
				"z": -0.3078411561,
				"element": "C" 
			},
			{
				"x": -4.5584047253,
				"y": 1.0114053372,
				"z": -0.555296448,
				"element": "C" 
			},
			{
				"x": -5.3779703365,
				"y": -0.208903506,
				"z": -0.6094970828,
				"element": "C" 
			},
			{
				"x": -6.5819518964,
				"y": -0.1680723987,
				"z": -0.8293065727,
				"element": "O" 
			},
			{
				"x": -4.6514575468,
				"y": -1.5192845224,
				"z": -0.3457160036,
				"element": "C" 
			},
			{
				"x": -3.1640678468,
				"y": -1.4342079662,
				"z": -0.7023214142,
				"element": "C" 
			},
			{
				"x": -2.4217517819,
				"y": -0.2356465517,
				"z": -0.0454955446,
				"element": "C" 
			},
			{
				"x": -2.3697531405,
				"y": -0.4664138873,
				"z": 1.4901798651,
				"element": "C" 
			},
			{
				"x": -0.9924896607,
				"y": -0.1294769877,
				"z": -0.708578823,
				"element": "C" 
			},
			{
				"x": -0.0139111767,
				"y": -1.2843874924,
				"z": -0.3260087766,
				"element": "C" 
			},
			{
				"x": 0.9122882979,
				"y": -1.0728644123,
				"z": 0.892390568,
				"element": "C" 
			},
			{
				"x": 1.6025692412,
				"y": 0.3189379172,
				"z": 0.9103664849,
				"element": "C" 
			},
			{
				"x": 1.3178395355,
				"y": 1.0136031096,
				"z": 2.2630015459,
				"element": "C" 
			},
			{
				"x": 3.8116722162,
				"y": -1.1831222377,
				"z": -2.8850788187,
				"element": "H" 
			},
			{
				"x": 5.0205240217,
				"y": -2.3252553609,
				"z": -3.497583195,
				"element": "H" 
			},
			{
				"x": 5.5235557467,
				"y": -0.7276212227,
				"z": -2.9298505655,
				"element": "H" 
			},
			{
				"x": 4.3163550339,
				"y": -2.9564570969,
				"z": -1.1759676367,
				"element": "H" 
			},
			{
				"x": 6.0315323782,
				"y": -2.5117976338,
				"z": -1.196256457,
				"element": "H" 
			},
			{
				"x": 3.6836525439,
				"y": 0.090587815,
				"z": 1.6604223961,
				"element": "H" 
			},
			{
				"x": 3.8845513568,
				"y": 2.3753651771,
				"z": 1.0370516566,
				"element": "H" 
			},
			{
				"x": 4.2391082504,
				"y": 1.7085318871,
				"z": -0.5438927264,
				"element": "H" 
			},
			{
				"x": 1.7552263836,
				"y": 3.1406554817,
				"z": 0.3464733793,
				"element": "H" 
			},
			{
				"x": 2.2535674177,
				"y": 2.8083919206,
				"z": -1.3060557183,
				"element": "H" 
			},
			{
				"x": 1.5759225843,
				"y": 0.5255394201,
				"z": -1.1825626427,
				"element": "H" 
			},
			{
				"x": -0.3545297368,
				"y": 1.7046478501,
				"z": -1.659696706,
				"element": "H" 
			},
			{
				"x": -1.0377626059,
				"y": 2.0691675393,
				"z": 1.2791666269,
				"element": "H" 
			},
			{
				"x": -0.6091931728,
				"y": 3.3008353568,
				"z": 0.1159661881,
				"element": "H" 
			},
			{
				"x": -3.1021418711,
				"y": 3.0808174102,
				"z": 0.3533367825,
				"element": "H" 
			},
			{
				"x": -2.533758604,
				"y": 2.8056267859,
				"z": -1.2784587351,
				"element": "H" 
			},
			{
				"x": -5.1074201595,
				"y": 1.9374546648,
				"z": -0.7175470985,
				"element": "H" 
			},
			{
				"x": -5.1557139855,
				"y": -2.309885537,
				"z": -0.9095397044,
				"element": "H" 
			},
			{
				"x": -4.7901626838,
				"y": -1.7643292743,
				"z": 0.7159138231,
				"element": "H" 
			},
			{
				"x": -2.6673589175,
				"y": -2.3724381186,
				"z": -0.4333179412,
				"element": "H" 
			},
			{
				"x": -3.0760845605,
				"y": -1.3352909791,
				"z": -1.7915400906,
				"element": "H" 
			},
			{
				"x": -1.8890520118,
				"y": -1.4214434241,
				"z": 1.720985069,
				"element": "H" 
			},
			{
				"x": -3.3787661693,
				"y": -0.4906408915,
				"z": 1.9101897188,
				"element": "H" 
			},
			{
				"x": -1.8245683548,
				"y": 0.318808146,
				"z": 2.0157272096,
				"element": "H" 
			},
			{
				"x": -1.2001732415,
				"y": -0.2910256757,
				"z": -1.7727565019,
				"element": "H" 
			},
			{
				"x": -0.5760647193,
				"y": -2.2129162693,
				"z": -0.181423879,
				"element": "H" 
			},
			{
				"x": 0.6216508559,
				"y": -1.4725974833,
				"z": -1.1981444855,
				"element": "H" 
			},
			{
				"x": 1.6624335342,
				"y": -1.8706716503,
				"z": 0.886363144,
				"element": "H" 
			},
			{
				"x": 0.3431762691,
				"y": -1.1999714389,
				"z": 1.8179549426,
				"element": "H" 
			},
			{
				"x": 0.2486677915,
				"y": 1.0773890287,
				"z": 2.4709262385,
				"element": "H" 
			},
			{
				"x": 1.7663247128,
				"y": 0.4259015976,
				"z": 3.0722412036,
				"element": "H" 
			},
			{
				"x": 1.7300348029,
				"y": 2.024720987,
				"z": 2.3266749641,
				"element": "H" 
			}
		],
		 "valence_orbital": [ 
			{
				"type": "occ",
				"energy": -0.28651,
				"method": "rhf"
			},
			{
				"type": "occ",
				"energy": -0.28219,
				"method": "rhf"
			},
			{
				"type": "occ",
				"energy": -0.2672,
				"method": "rhf"
			},
			{
				"type": "occ",
				"energy": -0.2503,
				"method": "rhf"
			},
			{
				"type": "occ",
				"energy": -0.22852,
				"method": "rhf"
			},
			{
				"type": "unocc",
				"energy": -0.04492,
				"method": "rhf"
			},
			{
				"type": "unocc",
				"energy": 0.00963,
				"method": "rhf"
			},
			{
				"type": "unocc",
				"energy": 0.05289,
				"method": "rhf"
			},
			{
				"type": "unocc",
				"energy": 0.06196,
				"method": "rhf"
			},
			{
				"type": "unocc",
				"energy": 0.07495,
				"method": "rhf"
			}
		],
		"cosmo_sigma_profile": { 
			"-0.025": 0.0,
			"-0.024": 0.0,
			"-0.023": 0.0,
			"-0.022": 0.0,
			"-0.021": 0.0,
			"-0.02": 0.0,
			"-0.019": 0.0,
			"-0.018": 0.0,
			"-0.017": 0.0,
			"-0.016": 0.0,
			"-0.015": 0.0,
			"-0.014": 0.0,
			"-0.013": 0.0,
			"-0.012": 0.0,
			"-0.011": 0.0,
			"-0.01": 0.0,
			"-0.009": 0.237318105706,
			"-0.008": 0.400615991053,
			"-0.007": 0.305458410865,
			"-0.006": 1.67442269917,
			"-0.005": 8.88788773948,
			"-0.004": 28.6566820703,
			"-0.003": 57.6533123557,
			"-0.002": 70.468321292,
			"-0.001": 63.9142646456,
			"0.0": 49.4458828437,
			"0.001": 34.4372060561,
			"0.002": 12.0403826314,
			"0.003": 8.85985019892,
			"0.004": 7.01425395506,
			"0.005": 4.08511480969,
			"0.006": 2.9383461903,
			"0.007": 3.31962778252,
			"0.008": 3.83379952628,
			"0.009": 2.46246910901,
			"0.01": 3.68142096387,
			"0.011": 3.88498077313,
			"0.012": 7.56306190282,
			"0.013": 7.00291058637,
			"0.014": 3.83228049427,
			"0.015": 1.01325471669,
			"0.016": 0.0,
			"0.017": 0.0,
			"0.018": 0.0,
			"0.019": 0.0,
			"0.02": 0.0,
			"0.021": 0.0,
			"0.022": 0.0,
			"0.023": 0.0,
			"0.024": 0.0,
			"0.025": 0.0
		}
	}
}
