{
	 "smiles": "CON(C)S(=O)(=O)C1=C(Cl)C=CC(=C1)[N+]([O-])=O", 
	 "Tm": 397.15, 
	 "num_atms": 26, 
	 "gaussian": { 
		 "optdone": 1, 
		 "sigma_profile": "yes", 
		 "theory": "DFT", 
		 "functional": "B3LYP", 
		 "basiset": "6-31G**", 
		 "properties": { 
			 "R2extent": 5938.0405, 
			 "electric_dipole_moment_norm": 5.45112925732, 
			 "electric_quadrupole_moment_norm": 13.0778362759, 
			 "total_energy": -1654.0224158, 
			 "HOMO_LUMO_gap": 0.15823, 
			 "cosmo_polarized_energy": -16.37, 
			 "cosmo_cavitation_energy": 34.06, 
			 "cosmo_dispersion_energy": -24.11, 
			 "cosmo_repulsion_energy": 1.82, 
			 "cosmo_total_nonelectrostatic_energy": 11.76, 
			 "SMD_solvation_energy": 8.38 
		},
		"coords": [
			{
				"x": -4.0892359423,
				"y": -0.8451625948,
				"z": 2.0957745965,
				"element": "C" 
			},
			{
				"x": -3.7123162684,
				"y": -0.3895330299,
				"z": 0.790573521,
				"element": "O" 
			},
			{
				"x": -2.2917811626,
				"y": -0.3625458961,
				"z": 0.6753820854,
				"element": "N" 
			},
			{
				"x": -1.9715247377,
				"y": -0.9584562861,
				"z": -0.6301541141,
				"element": "C" 
			},
			{
				"x": -1.833263513,
				"y": 1.3361735694,
				"z": 0.7592114142,
				"element": "S" 
			},
			{
				"x": -2.5067507939,
				"y": 1.8970981884,
				"z": 1.9259232351,
				"element": "O" 
			},
			{
				"x": -1.9289092948,
				"y": 1.9885321885,
				"z": -0.5513751081,
				"element": "O" 
			},
			{
				"x": -0.0597715345,
				"y": 1.1495378634,
				"z": 1.105879876,
				"element": "C" 
			},
			{
				"x": 0.4711740252,
				"y": 0.6146639328,
				"z": 2.2942436597,
				"element": "C" 
			},
			{
				"x": -0.5241185359,
				"y": -0.0034193575,
				"z": 3.5777736845,
				"element": "Cl" 
			},
			{
				"x": 1.858253785,
				"y": 0.5653418069,
				"z": 2.4776838915,
				"element": "C" 
			},
			{
				"x": 2.7172654493,
				"y": 1.0475594303,
				"z": 1.4973206861,
				"element": "C" 
			},
			{
				"x": 2.173143006,
				"y": 1.5780719876,
				"z": 0.3308560382,
				"element": "C" 
			},
			{
				"x": 0.8007045823,
				"y": 1.6381361247,
				"z": 0.1222302081,
				"element": "C" 
			},
			{
				"x": 3.0766795056,
				"y": 2.0888990171,
				"z": -0.7142887303,
				"element": "N" 
			},
			{
				"x": 2.5647551973,
				"y": 2.5360727183,
				"z": -1.7373142012,
				"element": "O" 
			},
			{
				"x": 4.2846116638,
				"y": 2.0297073378,
				"z": -0.4913900532,
				"element": "O" 
			},
			{
				"x": -5.1784576043,
				"y": -0.9203173911,
				"z": 2.0556717913,
				"element": "H" 
			},
			{
				"x": -3.6529747673,
				"y": -1.8276181353,
				"z": 2.3056052832,
				"element": "H" 
			},
			{
				"x": -3.7934244904,
				"y": -0.1266726965,
				"z": 2.863238583,
				"element": "H" 
			},
			{
				"x": -2.2516414317,
				"y": -2.0118585057,
				"z": -0.576918411,
				"element": "H" 
			},
			{
				"x": -0.8936179426,
				"y": -0.8881561387,
				"z": -0.7943605679,
				"element": "H" 
			},
			{
				"x": -2.5037229404,
				"y": -0.4676729799,
				"z": -1.4509968219,
				"element": "H" 
			},
			{
				"x": 2.2533863301,
				"y": 0.1488351441,
				"z": 3.3970092142,
				"element": "H" 
			},
			{
				"x": 3.79245159,
				"y": 1.0195746262,
				"z": 1.622805225,
				"element": "H" 
			},
			{
				"x": 0.3995858253,
				"y": 2.0624090761,
				"z": -0.790084985,
				"element": "H" 
			}
		],
		 "valence_orbital": [ 
			{
				"type": "occ",
				"energy": -0.31084,
				"method": "rhf"
			},
			{
				"type": "occ",
				"energy": -0.30861,
				"method": "rhf"
			},
			{
				"type": "occ",
				"energy": -0.29608,
				"method": "rhf"
			},
			{
				"type": "occ",
				"energy": -0.29198,
				"method": "rhf"
			},
			{
				"type": "occ",
				"energy": -0.26895,
				"method": "rhf"
			},
			{
				"type": "unocc",
				"energy": -0.11072,
				"method": "rhf"
			},
			{
				"type": "unocc",
				"energy": -0.07181,
				"method": "rhf"
			},
			{
				"type": "unocc",
				"energy": -0.03291,
				"method": "rhf"
			},
			{
				"type": "unocc",
				"energy": -0.00819,
				"method": "rhf"
			},
			{
				"type": "unocc",
				"energy": 0.03644,
				"method": "rhf"
			}
		],
		"cosmo_sigma_profile": { 
			"-0.025": 0.0,
			"-0.024": 0.0,
			"-0.023": 0.0,
			"-0.022": 0.0,
			"-0.021": 0.0,
			"-0.02": 0.0,
			"-0.019": 0.0,
			"-0.018": 0.0,
			"-0.017": 0.0,
			"-0.016": 0.0,
			"-0.015": 0.0,
			"-0.014": 0.0,
			"-0.013": 0.0,
			"-0.012": 0.0,
			"-0.011": 0.0,
			"-0.01": 1.19337923953,
			"-0.009": 4.34166929871,
			"-0.008": 4.34331648823,
			"-0.007": 8.95811980583,
			"-0.006": 13.8081241581,
			"-0.005": 18.8855863898,
			"-0.004": 27.7502696375,
			"-0.003": 34.0718376323,
			"-0.002": 23.0991969986,
			"-0.001": 15.6691729749,
			"0.0": 11.3819026622,
			"0.001": 12.1565201462,
			"0.002": 12.2485715766,
			"0.003": 11.1746514972,
			"0.004": 8.902630714,
			"0.005": 9.6665158121,
			"0.006": 10.746670601,
			"0.007": 14.9168285751,
			"0.008": 10.9901669004,
			"0.009": 11.3999920111,
			"0.01": 7.52551382171,
			"0.011": 1.23681022205,
			"0.012": 0.0,
			"0.013": 0.0,
			"0.014": 0.0,
			"0.015": 0.0,
			"0.016": 0.0,
			"0.017": 0.0,
			"0.018": 0.0,
			"0.019": 0.0,
			"0.02": 0.0,
			"0.021": 0.0,
			"0.022": 0.0,
			"0.023": 0.0,
			"0.024": 0.0,
			"0.025": 0.0
		}
	}
}
