{
	 "smiles": "CC1=CSC2=NC(C)=C(C=O)N12", 
	 "Tm": 427.15, 
	 "num_atms": 20, 
	 "gaussian": { 
		 "optdone": 1, 
		 "sigma_profile": "yes", 
		 "theory": "DFT", 
		 "functional": "B3LYP", 
		 "basiset": "6-31G**", 
		 "properties": { 
			 "R2extent": 2882.2054, 
			 "electric_dipole_moment_norm": 1.36727361563, 
			 "electric_quadrupole_moment_norm": 15.777096089, 
			 "total_energy": -892.572144132, 
			 "HOMO_LUMO_gap": 0.17273, 
			 "cosmo_polarized_energy": -9.65, 
			 "cosmo_cavitation_energy": 25.46, 
			 "cosmo_dispersion_energy": -19.31, 
			 "cosmo_repulsion_energy": 1.46, 
			 "cosmo_total_nonelectrostatic_energy": 7.61, 
			 "SMD_solvation_energy": 3.44 
		},
		"coords": [
			{
				"x": 0.5378401769,
				"y": -2.1852755187,
				"z": 1.7071063252,
				"element": "C" 
			},
			{
				"x": 0.2713908829,
				"y": -0.7811342692,
				"z": 2.1456475663,
				"element": "C" 
			},
			{
				"x": 0.6770634549,
				"y": -0.2219409863,
				"z": 3.3123517887,
				"element": "C" 
			},
			{
				"x": 0.1920876016,
				"y": 1.4563791372,
				"z": 3.514949452,
				"element": "S" 
			},
			{
				"x": -0.5841554586,
				"y": 1.3847598918,
				"z": 1.9621194597,
				"element": "C" 
			},
			{
				"x": -1.2649472128,
				"y": 2.2599422393,
				"z": 1.2387952894,
				"element": "N" 
			},
			{
				"x": -1.6039355462,
				"y": 1.5715984107,
				"z": 0.1132710958,
				"element": "C" 
			},
			{
				"x": -2.3974452181,
				"y": 2.2380392852,
				"z": -0.9706805134,
				"element": "C" 
			},
			{
				"x": -1.1241314834,
				"y": 0.2511795362,
				"z": 0.1437161534,
				"element": "C" 
			},
			{
				"x": -1.2911848436,
				"y": -0.7591879405,
				"z": -0.8692021921,
				"element": "C" 
			},
			{
				"x": -0.8780087276,
				"y": -1.9128583556,
				"z": -0.8540963188,
				"element": "O" 
			},
			{
				"x": -0.4515158587,
				"y": 0.1500018302,
				"z": 1.3784663972,
				"element": "N" 
			},
			{
				"x": 1.1173512319,
				"y": -2.6945073277,
				"z": 2.4805149222,
				"element": "H" 
			},
			{
				"x": 1.0909474523,
				"y": -2.2120070681,
				"z": 0.7658607085,
				"element": "H" 
			},
			{
				"x": -0.3909564571,
				"y": -2.7329393471,
				"z": 1.5336597245,
				"element": "H" 
			},
			{
				"x": 1.248616462,
				"y": -0.7136119849,
				"z": 4.0853602524,
				"element": "H" 
			},
			{
				"x": -3.3514582378,
				"y": 1.7301669056,
				"z": -1.1473658535,
				"element": "H" 
			},
			{
				"x": -2.6048800359,
				"y": 3.2668475133,
				"z": -0.6714703989,
				"element": "H" 
			},
			{
				"x": -1.8526784812,
				"y": 2.2572398024,
				"z": -1.9204998282,
				"element": "H" 
			},
			{
				"x": -1.8727997014,
				"y": -0.3834917537,
				"z": -1.7376040303,
				"element": "H" 
			}
		],
		 "valence_orbital": [ 
			{
				"type": "occ",
				"energy": -0.32316,
				"method": "rhf"
			},
			{
				"type": "occ",
				"energy": -0.29273,
				"method": "rhf"
			},
			{
				"type": "occ",
				"energy": -0.24952,
				"method": "rhf"
			},
			{
				"type": "occ",
				"energy": -0.24165,
				"method": "rhf"
			},
			{
				"type": "occ",
				"energy": -0.22649,
				"method": "rhf"
			},
			{
				"type": "unocc",
				"energy": -0.05376,
				"method": "rhf"
			},
			{
				"type": "unocc",
				"energy": -0.00342,
				"method": "rhf"
			},
			{
				"type": "unocc",
				"energy": 0.00365,
				"method": "rhf"
			},
			{
				"type": "unocc",
				"energy": 0.0411,
				"method": "rhf"
			},
			{
				"type": "unocc",
				"energy": 0.07545,
				"method": "rhf"
			}
		],
		"cosmo_sigma_profile": { 
			"-0.025": 0.0,
			"-0.024": 0.0,
			"-0.023": 0.0,
			"-0.022": 0.0,
			"-0.021": 0.0,
			"-0.02": 0.0,
			"-0.019": 0.0,
			"-0.018": 0.0,
			"-0.017": 0.0,
			"-0.016": 0.0,
			"-0.015": 0.0,
			"-0.014": 0.0,
			"-0.013": 0.0,
			"-0.012": 0.0,
			"-0.011": 0.0,
			"-0.01": 1.02146595901,
			"-0.009": 2.71427092794,
			"-0.008": 2.09124691144,
			"-0.007": 2.73169310055,
			"-0.006": 8.31241826526,
			"-0.005": 14.4141148808,
			"-0.004": 13.3950177672,
			"-0.003": 17.6221918967,
			"-0.002": 21.7430062153,
			"-0.001": 27.6021375532,
			"0.0": 21.714976216,
			"0.001": 18.6333596734,
			"0.002": 11.1886628257,
			"0.003": 8.87051526642,
			"0.004": 4.20591366114,
			"0.005": 3.53274231538,
			"0.006": 2.89452571914,
			"0.007": 2.9138167111,
			"0.008": 2.62523317352,
			"0.009": 2.794275504,
			"0.01": 3.09654799772,
			"0.011": 2.58904009369,
			"0.012": 2.86607427116,
			"0.013": 3.33013637467,
			"0.014": 1.91326812616,
			"0.015": 0.942590807808,
			"0.016": 0.32212969559,
			"0.017": 0.0,
			"0.018": 0.0,
			"0.019": 0.0,
			"0.02": 0.0,
			"0.021": 0.0,
			"0.022": 0.0,
			"0.023": 0.0,
			"0.024": 0.0,
			"0.0": 0.0
		}
	}
}
