{
	 "smiles": "CCOC(=O)C(=O)CC(=O)C1=CC=CS1", 
	 "Tm": 312.15, 
	 "num_atms": 25, 
	 "gaussian": { 
		 "optdone": 1, 
		 "sigma_profile": "yes", 
		 "theory": "DFT", 
		 "functional": "B3LYP", 
		 "basiset": "6-31G**", 
		 "properties": { 
			 "R2extent": 5655.5351, 
			 "electric_dipole_moment_norm": 1.28695041474, 
			 "electric_quadrupole_moment_norm": 22.0064323033, 
			 "total_energy": -1086.15252495, 
			 "HOMO_LUMO_gap": 0.1639, 
			 "cosmo_polarized_energy": -14.75, 
			 "cosmo_cavitation_energy": 32.24, 
			 "cosmo_dispersion_energy": -22.78, 
			 "cosmo_repulsion_energy": 1.77, 
			 "cosmo_total_nonelectrostatic_energy": 11.23, 
			 "SMD_solvation_energy": 7.94 
		},
		"coords": [
			{
				"x": 4.2281044204,
				"y": 2.054063833,
				"z": 1.0989052727,
				"element": "C" 
			},
			{
				"x": 2.7112834641,
				"y": 2.0782246891,
				"z": 0.9970588056,
				"element": "C" 
			},
			{
				"x": 2.1308592611,
				"y": 0.8615878274,
				"z": 1.5416008833,
				"element": "O" 
			},
			{
				"x": 2.0281895001,
				"y": -0.1864428066,
				"z": 0.7106112508,
				"element": "C" 
			},
			{
				"x": 2.3947855382,
				"y": -0.2225435482,
				"z": -0.4393705646,
				"element": "O" 
			},
			{
				"x": 1.3472151582,
				"y": -1.390485334,
				"z": 1.4125234993,
				"element": "C" 
			},
			{
				"x": 1.2741758128,
				"y": -2.4380442058,
				"z": 0.8096569883,
				"element": "O" 
			},
			{
				"x": 0.7875868406,
				"y": -1.1941923653,
				"z": 2.8146098137,
				"element": "C" 
			},
			{
				"x": -0.5753416491,
				"y": -0.4639642208,
				"z": 2.8265901557,
				"element": "C" 
			},
			{
				"x": -0.6630874966,
				"y": 0.6778822694,
				"z": 3.2509997782,
				"element": "O" 
			},
			{
				"x": -1.74272572,
				"y": -1.2000200939,
				"z": 2.3332074266,
				"element": "C" 
			},
			{
				"x": -1.8394019805,
				"y": -2.4718726241,
				"z": 1.8001119999,
				"element": "C" 
			},
			{
				"x": -3.166666204,
				"y": -2.8177217483,
				"z": 1.4376066113,
				"element": "C" 
			},
			{
				"x": -4.0609809859,
				"y": -1.8084059476,
				"z": 1.7018559453,
				"element": "C" 
			},
			{
				"x": -3.3073797104,
				"y": -0.4191106064,
				"z": 2.390806716,
				"element": "S" 
			},
			{
				"x": 4.634245152,
				"y": 3.0090245988,
				"z": 0.7497930243,
				"element": "H" 
			},
			{
				"x": 4.6452119237,
				"y": 1.2577553919,
				"z": 0.4776118041,
				"element": "H" 
			},
			{
				"x": 4.5477771525,
				"y": 1.9037875038,
				"z": 2.1340998836,
				"element": "H" 
			},
			{
				"x": 2.3830532128,
				"y": 2.1821917934,
				"z": -0.039709431,
				"element": "H" 
			},
			{
				"x": 2.2744689098,
				"y": 2.8742745293,
				"z": 1.602744717,
				"element": "H" 
			},
			{
				"x": 1.4630594942,
				"y": -0.5789634367,
				"z": 3.4092405774,
				"element": "H" 
			},
			{
				"x": 0.678734231,
				"y": -2.1858444801,
				"z": 3.2608774594,
				"element": "H" 
			},
			{
				"x": -0.9822945026,
				"y": -3.118183402,
				"z": 1.6522703882,
				"element": "H" 
			},
			{
				"x": -3.4469695474,
				"y": -3.7683520033,
				"z": 0.9993619953,
				"element": "H" 
			},
			{
				"x": -5.1285022749,
				"y": -1.810645613,
				"z": 1.5255349996,
				"element": "H" 
			}
		],
		 "valence_orbital": [ 
			{
				"type": "occ",
				"energy": -0.30386,
				"method": "rhf"
			},
			{
				"type": "occ",
				"energy": -0.27412,
				"method": "rhf"
			},
			{
				"type": "occ",
				"energy": -0.26685,
				"method": "rhf"
			},
			{
				"type": "occ",
				"energy": -0.25863,
				"method": "rhf"
			},
			{
				"type": "occ",
				"energy": -0.25251,
				"method": "rhf"
			},
			{
				"type": "unocc",
				"energy": -0.08861,
				"method": "rhf"
			},
			{
				"type": "unocc",
				"energy": -0.06449,
				"method": "rhf"
			},
			{
				"type": "unocc",
				"energy": 0.01627,
				"method": "rhf"
			},
			{
				"type": "unocc",
				"energy": 0.02569,
				"method": "rhf"
			},
			{
				"type": "unocc",
				"energy": 0.05221,
				"method": "rhf"
			}
		],
		"cosmo_sigma_profile": { 
			"-0.025": 0.0,
			"-0.024": 0.0,
			"-0.023": 0.0,
			"-0.022": 0.0,
			"-0.021": 0.0,
			"-0.02": 0.0,
			"-0.019": 0.0,
			"-0.018": 0.0,
			"-0.017": 0.0,
			"-0.016": 0.0,
			"-0.015": 0.0,
			"-0.014": 0.0,
			"-0.013": 0.0,
			"-0.012": 0.0,
			"-0.011": 0.0,
			"-0.01": 0.629909976236,
			"-0.009": 3.37299571122,
			"-0.008": 6.33044884079,
			"-0.007": 10.8598160678,
			"-0.006": 16.6082886409,
			"-0.005": 20.1237725626,
			"-0.004": 22.912259992,
			"-0.003": 18.0523351269,
			"-0.002": 17.1784673858,
			"-0.001": 17.2002903343,
			"0.0": 16.8017208787,
			"0.001": 16.3380133584,
			"0.002": 21.2732703107,
			"0.003": 16.1732107738,
			"0.004": 7.76506087915,
			"0.005": 3.27263587389,
			"0.006": 4.42581516399,
			"0.007": 5.41315489743,
			"0.008": 6.4926077217,
			"0.009": 7.162410487,
			"0.01": 7.94505452431,
			"0.011": 8.5364421596,
			"0.012": 3.87204770658,
			"0.013": 0.677409675297,
			"0.014": 0.0,
			"0.015": 0.0,
			"0.016": 0.0,
			"0.017": 0.0,
			"0.018": 0.0,
			"0.019": 0.0,
			"0.02": 0.0,
			"0.021": 0.0,
			"0.022": 0.0,
			"0.023": 0.0,
			"0.024": 0.0,
			"0.025": 0.0
		}
	}
}
