{
	 "smiles": "COC(=O)C1=CC=C(S1)S(N)(=O)=O", 
	 "Tm": 424.15, 
	 "num_atms": 20, 
	 "gaussian": { 
		 "optdone": 1, 
		 "sigma_profile": "yes", 
		 "theory": "DFT", 
		 "functional": "B3LYP", 
		 "basiset": "6-31G**", 
		 "properties": { 
			 "R2extent": 4906.4931, 
			 "electric_dipole_moment_norm": 6.25044635446, 
			 "electric_quadrupole_moment_norm": 20.3949634444, 
			 "total_energy": -1384.79493827, 
			 "HOMO_LUMO_gap": 0.18405, 
			 "cosmo_polarized_energy": -20.68, 
			 "cosmo_cavitation_energy": 28.51, 
			 "cosmo_dispersion_energy": -21.69, 
			 "cosmo_repulsion_energy": 1.64, 
			 "cosmo_total_nonelectrostatic_energy": 8.46, 
			 "SMD_solvation_energy": 5.98 
		},
		"coords": [
			{
				"x": 3.0026077904,
				"y": 0.7975162937,
				"z": 3.2244980941,
				"element": "C" 
			},
			{
				"x": 1.925410624,
				"y": 0.9209032164,
				"z": 2.2783754208,
				"element": "O" 
			},
			{
				"x": 2.2843581261,
				"y": 0.7964856328,
				"z": 0.9843424163,
				"element": "C" 
			},
			{
				"x": 3.420497685,
				"y": 0.5903610067,
				"z": 0.6041432042,
				"element": "O" 
			},
			{
				"x": 1.1252932973,
				"y": 0.9385510579,
				"z": 0.0835153593,
				"element": "C" 
			},
			{
				"x": -0.1968583522,
				"y": 1.1732718757,
				"z": 0.3897614893,
				"element": "C" 
			},
			{
				"x": -1.0181372456,
				"y": 1.2546668324,
				"z": -0.7636330313,
				"element": "C" 
			},
			{
				"x": -0.2960990473,
				"y": 1.0781701783,
				"z": -1.9209746357,
				"element": "C" 
			},
			{
				"x": 1.3971593803,
				"y": 0.8312239607,
				"z": -1.631743671,
				"element": "S" 
			},
			{
				"x": -0.9801248349,
				"y": 1.0824496655,
				"z": -3.5683571829,
				"element": "S" 
			},
			{
				"x": -1.2247763844,
				"y": -0.5165104813,
				"z": -3.9987221706,
				"element": "N" 
			},
			{
				"x": -2.3078623696,
				"y": 1.6767821799,
				"z": -3.4549654793,
				"element": "O" 
			},
			{
				"x": 0.0594847183,
				"y": 1.5784249315,
				"z": -4.463876336,
				"element": "O" 
			},
			{
				"x": 2.5448706387,
				"y": 0.9221717578,
				"z": 4.2052830016,
				"element": "H" 
			},
			{
				"x": 3.7557329834,
				"y": 1.5694274697,
				"z": 3.0494616701,
				"element": "H" 
			},
			{
				"x": 3.4750200772,
				"y": -0.1841617355,
				"z": 3.1411101738,
				"element": "H" 
			},
			{
				"x": -0.5494975646,
				"y": 1.2875848514,
				"z": 1.4071304247,
				"element": "H" 
			},
			{
				"x": -2.0838161313,
				"y": 1.448067343,
				"z": -0.7601616441,
				"element": "H" 
			},
			{
				"x": -0.3629243692,
				"y": -1.0381039012,
				"z": -4.1211251149,
				"element": "H" 
			},
			{
				"x": -1.9130390217,
				"y": -0.9903821354,
				"z": -3.4231619883,
				"element": "H" 
			}
		],
		 "valence_orbital": [ 
			{
				"type": "occ",
				"energy": -0.31858,
				"method": "rhf"
			},
			{
				"type": "occ",
				"energy": -0.31543,
				"method": "rhf"
			},
			{
				"type": "occ",
				"energy": -0.29413,
				"method": "rhf"
			},
			{
				"type": "occ",
				"energy": -0.28331,
				"method": "rhf"
			},
			{
				"type": "occ",
				"energy": -0.26635,
				"method": "rhf"
			},
			{
				"type": "unocc",
				"energy": -0.0823,
				"method": "rhf"
			},
			{
				"type": "unocc",
				"energy": -0.00164,
				"method": "rhf"
			},
			{
				"type": "unocc",
				"energy": 0.00598,
				"method": "rhf"
			},
			{
				"type": "unocc",
				"energy": 0.0457,
				"method": "rhf"
			},
			{
				"type": "unocc",
				"energy": 0.05134,
				"method": "rhf"
			}
		],
		"cosmo_sigma_profile": { 
			"-0.025": 0.0,
			"-0.024": 0.0,
			"-0.023": 0.0,
			"-0.022": 0.0,
			"-0.021": 0.0,
			"-0.02": 0.0,
			"-0.019": 0.0,
			"-0.018": 0.0,
			"-0.017": 0.0,
			"-0.016": 0.864557226931,
			"-0.015": 2.88782730449,
			"-0.014": 2.72945900733,
			"-0.013": 3.25513307016,
			"-0.012": 3.22227746364,
			"-0.011": 2.02666722343,
			"-0.01": 1.50142765936,
			"-0.009": 3.3300829125,
			"-0.008": 5.38305513684,
			"-0.007": 6.72318728741,
			"-0.006": 11.3355912559,
			"-0.005": 10.9088741057,
			"-0.004": 14.5222101453,
			"-0.003": 14.4831051445,
			"-0.002": 11.8010448402,
			"-0.001": 13.863462044,
			"0.0": 21.221696254,
			"0.001": 18.4920517769,
			"0.002": 8.27711528793,
			"0.003": 6.4182240701,
			"0.004": 7.82519960367,
			"0.005": 7.29457357815,
			"0.006": 4.89782228264,
			"0.007": 6.59791372759,
			"0.008": 6.00375413362,
			"0.009": 6.54019949639,
			"0.01": 13.3989214522,
			"0.011": 12.6068586612,
			"0.012": 1.40562593983,
			"0.013": 0.0,
			"0.014": 0.0,
			"0.015": 0.0,
			"0.016": 0.0,
			"0.017": 0.0,
			"0.018": 0.0,
			"0.019": 0.0,
			"0.02": 0.0,
			"0.021": 0.0,
			"0.022": 0.0,
			"0.023": 0.0,
			"0.024": 0.0,
			"0.025": 0.0
		}
	}
}
