{
	 "smiles": "O=C=NC1=CC=C(C=C1)N=C=O", 
	 "Tm": 368.95, 
	 "num_atms": 16, 
	 "gaussian": { 
		 "optdone": 1, 
		 "sigma_profile": "yes", 
		 "theory": "DFT", 
		 "functional": "B3LYP", 
		 "basiset": "6-31G**", 
		 "properties": { 
			 "R2extent": 3340.0464, 
			 "electric_dipole_moment_norm": 0.00211896201004, 
			 "electric_quadrupole_moment_norm": 20.215496193, 
			 "total_energy": -567.2048211, 
			 "HOMO_LUMO_gap": 0.19657, 
			 "cosmo_polarized_energy": -6.95, 
			 "cosmo_cavitation_energy": 24.17, 
			 "cosmo_dispersion_energy": -16.79, 
			 "cosmo_repulsion_energy": 1.35, 
			 "cosmo_total_nonelectrostatic_energy": 8.73, 
			 "SMD_solvation_energy": 9.66 
		},
		"coords": [
			{
				"x": 4.358762947,
				"y": 0.0050007664,
				"z": -3.917404179,
				"element": "O" 
			},
			{
				"x": 3.3979551053,
				"y": -0.290082065,
				"z": -3.2974306568,
				"element": "C" 
			},
			{
				"x": 2.4315538291,
				"y": -0.7023603092,
				"z": -2.7180218016,
				"element": "N" 
			},
			{
				"x": 1.3671297897,
				"y": -0.535918657,
				"z": -1.8397418571,
				"element": "C" 
			},
			{
				"x": 0.1170228515,
				"y": -0.1213552577,
				"z": -2.3201320999,
				"element": "C" 
			},
			{
				"x": -0.9557444486,
				"y": 0.0173786663,
				"z": -1.446227411,
				"element": "C" 
			},
			{
				"x": -0.7967130222,
				"y": -0.2755705561,
				"z": -0.0845035851,
				"element": "C" 
			},
			{
				"x": 0.4534196146,
				"y": -0.690059162,
				"z": 0.3959007884,
				"element": "C" 
			},
			{
				"x": 1.5261394112,
				"y": -0.8289444871,
				"z": -0.478026489,
				"element": "C" 
			},
			{
				"x": -1.8612639604,
				"y": -0.1091082555,
				"z": 0.7936161456,
				"element": "N" 
			},
			{
				"x": -2.8260516801,
				"y": -0.5221910224,
				"z": 1.3751284591,
				"element": "C" 
			},
			{
				"x": -3.7851379577,
				"y": -0.8181742496,
				"z": 1.9973340575,
				"element": "O" 
			},
			{
				"x": -0.0032965859,
				"y": 0.0927664676,
				"z": -3.3766020133,
				"element": "H" 
			},
			{
				"x": -1.9221617327,
				"y": 0.3488408016,
				"z": -1.8104005336,
				"element": "H" 
			},
			{
				"x": 0.5737726004,
				"y": -0.9040435621,
				"z": 1.4523975009,
				"element": "H" 
			},
			{
				"x": 2.4925132387,
				"y": -1.1605791181,
				"z": -0.1138863251,
				"element": "H" 
			}
		],
		 "valence_orbital": [ 
			{
				"type": "occ",
				"energy": -0.31318,
				"method": "rhf"
			},
			{
				"type": "occ",
				"energy": -0.30164,
				"method": "rhf"
			},
			{
				"type": "occ",
				"energy": -0.30019,
				"method": "rhf"
			},
			{
				"type": "occ",
				"energy": -0.2796,
				"method": "rhf"
			},
			{
				"type": "occ",
				"energy": -0.23923,
				"method": "rhf"
			},
			{
				"type": "unocc",
				"energy": -0.04266,
				"method": "rhf"
			},
			{
				"type": "unocc",
				"energy": -0.02855,
				"method": "rhf"
			},
			{
				"type": "unocc",
				"energy": 0.02471,
				"method": "rhf"
			},
			{
				"type": "unocc",
				"energy": 0.0521,
				"method": "rhf"
			},
			{
				"type": "unocc",
				"energy": 0.05529,
				"method": "rhf"
			}
		],
		"cosmo_sigma_profile": { 
			"-0.025": 0.0,
			"-0.024": 0.0,
			"-0.023": 0.0,
			"-0.022": 0.0,
			"-0.021": 0.0,
			"-0.02": 0.0,
			"-0.019": 0.0,
			"-0.018": 0.0,
			"-0.017": 0.0,
			"-0.016": 0.0,
			"-0.015": 0.0,
			"-0.014": 0.0,
			"-0.013": 0.0,
			"-0.012": 0.0,
			"-0.011": 0.0,
			"-0.01": 0.0,
			"-0.009": 0.0,
			"-0.008": 2.11745788314,
			"-0.007": 7.95546584101,
			"-0.006": 8.22503462966,
			"-0.005": 12.7791107759,
			"-0.004": 18.7407218301,
			"-0.003": 15.2283642071,
			"-0.002": 17.5927503984,
			"-0.001": 12.682260892,
			"0.0": 14.2189989492,
			"0.001": 14.8013282454,
			"0.002": 18.8079649511,
			"0.003": 16.8408256119,
			"0.004": 5.39453327382,
			"0.005": 5.78005758968,
			"0.006": 2.50067354481,
			"0.007": 7.80883400298,
			"0.008": 15.877839843,
			"0.009": 0.446511700732,
			"0.01": 0.0,
			"0.011": 0.0,
			"0.012": 0.0,
			"0.013": 0.0,
			"0.014": 0.0,
			"0.015": 0.0,
			"0.016": 0.0,
			"0.017": 0.0,
			"0.018": 0.0,
			"0.019": 0.0,
			"0.02": 0.0,
			"0.021": 0.0,
			"0.022": 0.0,
			"0.023": 0.0,
			"0.024": 0.0,
			"0.025": 0.0
		}
	}
}
