{
	 "smiles": "OC1=CC=CC=C1Cl", 
	 "Tm": 281.55, 
	 "num_atms": 13, 
	 "gaussian": { 
		 "optdone": 1, 
		 "sigma_profile": "yes", 
		 "theory": "DFT", 
		 "functional": "B3LYP", 
		 "basiset": "6-31G**", 
		 "properties": { 
			 "R2extent": 1583.9911, 
			 "electric_dipole_moment_norm": 0.895336065397, 
			 "electric_quadrupole_moment_norm": 5.93841120334, 
			 "total_energy": -767.065433244, 
			 "HOMO_LUMO_gap": 0.21614, 
			 "cosmo_polarized_energy": -5.27, 
			 "cosmo_cavitation_energy": 18.56, 
			 "cosmo_dispersion_energy": -14.36, 
			 "cosmo_repulsion_energy": 1.19, 
			 "cosmo_total_nonelectrostatic_energy": 5.39, 
			 "SMD_solvation_energy": 3.34 
		},
		"coords": [
			{
				"x": -0.5690273278,
				"y": 0.7557550605,
				"z": -1.2780731404,
				"element": "O" 
			},
			{
				"x": 0.6289048023,
				"y": 0.4124319704,
				"z": -0.7441573635,
				"element": "C" 
			},
			{
				"x": 1.2878618677,
				"y": 1.346040921,
				"z": 0.0656927827,
				"element": "C" 
			},
			{
				"x": 2.519620381,
				"y": 1.0395623153,
				"z": 0.6360878983,
				"element": "C" 
			},
			{
				"x": 3.1189056012,
				"y": -0.2029778446,
				"z": 0.4107974311,
				"element": "C" 
			},
			{
				"x": 2.475459552,
				"y": -1.142853291,
				"z": -0.3929772488,
				"element": "C" 
			},
			{
				"x": 1.2429955325,
				"y": -0.8310010412,
				"z": -0.9613074186,
				"element": "C" 
			},
			{
				"x": 0.4114118874,
				"y": -2.0072826864,
				"z": -1.9824482915,
				"element": "Cl" 
			},
			{
				"x": -0.8995873699,
				"y": 0.0153824069,
				"z": -1.8094204997,
				"element": "H" 
			},
			{
				"x": 0.8069133519,
				"y": 2.3048124815,
				"z": 0.2288286664,
				"element": "H" 
			},
			{
				"x": 3.0146253278,
				"y": 1.7767780216,
				"z": 1.2609467691,
				"element": "H" 
			},
			{
				"x": 4.0792861477,
				"y": -0.4426527734,
				"z": 0.8551845853,
				"element": "H" 
			},
			{
				"x": 2.9178302462,
				"y": -2.1145955406,
				"z": -0.5843541703,
				"element": "H" 
			}
		],
		 "valence_orbital": [ 
			{
				"type": "occ",
				"energy": -0.35423,
				"method": "rhf"
			},
			{
				"type": "occ",
				"energy": -0.33506,
				"method": "rhf"
			},
			{
				"type": "occ",
				"energy": -0.33009,
				"method": "rhf"
			},
			{
				"type": "occ",
				"energy": -0.25465,
				"method": "rhf"
			},
			{
				"type": "occ",
				"energy": -0.22964,
				"method": "rhf"
			},
			{
				"type": "unocc",
				"energy": -0.0135,
				"method": "rhf"
			},
			{
				"type": "unocc",
				"energy": 0.00216,
				"method": "rhf"
			},
			{
				"type": "unocc",
				"energy": 0.01935,
				"method": "rhf"
			},
			{
				"type": "unocc",
				"energy": 0.08915,
				"method": "rhf"
			},
			{
				"type": "unocc",
				"energy": 0.10829,
				"method": "rhf"
			}
		],
		"cosmo_sigma_profile": { 
			"-0.025": 0.0,
			"-0.024": 0.0,
			"-0.023": 0.0,
			"-0.022": 0.0,
			"-0.021": 0.0,
			"-0.02": 0.0,
			"-0.019": 0.0,
			"-0.018": 0.0,
			"-0.017": 0.0,
			"-0.016": 0.0,
			"-0.015": 0.313730996955,
			"-0.014": 0.630832853252,
			"-0.013": 0.898168037757,
			"-0.012": 0.56193031531,
			"-0.011": 0.848961265593,
			"-0.01": 0.589522037572,
			"-0.009": 1.03705984382,
			"-0.008": 1.10115843935,
			"-0.007": 3.63771067704,
			"-0.006": 8.6057727212,
			"-0.005": 9.78431454098,
			"-0.004": 9.43318461817,
			"-0.003": 8.15386876575,
			"-0.002": 8.40736880405,
			"-0.001": 9.00853776971,
			"0.0": 9.59843934496,
			"0.001": 12.0460004717,
			"0.002": 15.904421396,
			"0.003": 16.0631623795,
			"0.004": 17.5333980262,
			"0.005": 8.34233786427,
			"0.006": 1.69721339375,
			"0.007": 1.1353514313,
			"0.008": 1.3510892785,
			"0.009": 1.39825791035,
			"0.01": 2.11650780963,
			"0.011": 0.899007717408,
			"0.012": 0.0,
			"0.013": 0.0,
			"0.014": 0.0,
			"0.015": 0.0,
			"0.016": 0.0,
			"0.017": 0.0,
			"0.018": 0.0,
			"0.019": 0.0,
			"0.02": 0.0,
			"0.021": 0.0,
			"0.022": 0.0,
			"0.023": 0.0,
			"0.024": 0.0,
			"0.025": 0.0
		}
	}
}
