{
	 "smiles": "CC1=NC(Cl)=C(C(N)=O)C(C)=C1", 
	 "Tm": 446.15, 
	 "num_atms": 21, 
	 "gaussian": { 
		 "optdone": 1, 
		 "sigma_profile": "yes", 
		 "theory": "DFT", 
		 "functional": "B3LYP", 
		 "basiset": "6-31G**", 
		 "properties": { 
			 "R2extent": 3763.0375, 
			 "electric_dipole_moment_norm": 2.89597823714, 
			 "electric_quadrupole_moment_norm": 15.7784416601, 
			 "total_energy": -955.222130388, 
			 "HOMO_LUMO_gap": 0.20611, 
			 "cosmo_polarized_energy": -13.02, 
			 "cosmo_cavitation_energy": 26.57, 
			 "cosmo_dispersion_energy": -19.52, 
			 "cosmo_repulsion_energy": 1.58, 
			 "cosmo_total_nonelectrostatic_energy": 8.63, 
			 "SMD_solvation_energy": 3.69 
		},
		"coords": [
			{
				"x": -0.795143079,
				"y": 1.9601133549,
				"z": 0.6075412934,
				"element": "C" 
			},
			{
				"x": -0.6171820242,
				"y": 0.4783476794,
				"z": 0.8074744317,
				"element": "C" 
			},
			{
				"x": 0.6466905183,
				"y": 0.0213635044,
				"z": 0.7962839346,
				"element": "N" 
			},
			{
				"x": 0.8406261964,
				"y": -1.2705804551,
				"z": 0.9576757516,
				"element": "C" 
			},
			{
				"x": 2.5521553974,
				"y": -1.7541741537,
				"z": 0.9570780045,
				"element": "Cl" 
			},
			{
				"x": -0.160860868,
				"y": -2.2357828748,
				"z": 1.146558219,
				"element": "C" 
			},
			{
				"x": 0.0945130501,
				"y": -3.7083387204,
				"z": 1.3863775107,
				"element": "C" 
			},
			{
				"x": 0.7978499562,
				"y": -4.3650563443,
				"z": 0.4164508335,
				"element": "N" 
			},
			{
				"x": -0.3820385317,
				"y": -4.2840221673,
				"z": 2.3556334002,
				"element": "O" 
			},
			{
				"x": -1.4885051574,
				"y": -1.755641323,
				"z": 1.1817924132,
				"element": "C" 
			},
			{
				"x": -2.6632424953,
				"y": -2.6757951939,
				"z": 1.4014556036,
				"element": "C" 
			},
			{
				"x": -1.6962076965,
				"y": -0.3857331591,
				"z": 0.9992704974,
				"element": "C" 
			},
			{
				"x": -1.849586653,
				"y": 2.2457659449,
				"z": 0.6214210017,
				"element": "H" 
			},
			{
				"x": -0.3583689742,
				"y": 2.2690225438,
				"z": -0.3476075362,
				"element": "H" 
			},
			{
				"x": -0.2699329854,
				"y": 2.5136040478,
				"z": 1.3926219848,
				"element": "H" 
			},
			{
				"x": 1.3696608167,
				"y": -3.8505254621,
				"z": -0.2360030722,
				"element": "H" 
			},
			{
				"x": 1.0827294511,
				"y": -5.3090196227,
				"z": 0.6387224365,
				"element": "H" 
			},
			{
				"x": -2.6642159738,
				"y": -3.498654819,
				"z": 0.6791980727,
				"element": "H" 
			},
			{
				"x": -3.6039702029,
				"y": -2.1289747589,
				"z": 1.3040463434,
				"element": "H" 
			},
			{
				"x": -2.6087331336,
				"y": -3.1331172927,
				"z": 2.3919538902,
				"element": "H" 
			},
			{
				"x": -2.7074376111,
				"y": 0.0090992721,
				"z": 1.0100549856,
				"element": "H" 
			}
		],
		 "valence_orbital": [ 
			{
				"type": "occ",
				"energy": -0.28799,
				"method": "rhf"
			},
			{
				"type": "occ",
				"energy": -0.27994,
				"method": "rhf"
			},
			{
				"type": "occ",
				"energy": -0.27358,
				"method": "rhf"
			},
			{
				"type": "occ",
				"energy": -0.26311,
				"method": "rhf"
			},
			{
				"type": "occ",
				"energy": -0.25011,
				"method": "rhf"
			},
			{
				"type": "unocc",
				"energy": -0.044,
				"method": "rhf"
			},
			{
				"type": "unocc",
				"energy": -0.02764,
				"method": "rhf"
			},
			{
				"type": "unocc",
				"energy": 0.02247,
				"method": "rhf"
			},
			{
				"type": "unocc",
				"energy": 0.03425,
				"method": "rhf"
			},
			{
				"type": "unocc",
				"energy": 0.08688,
				"method": "rhf"
			}
		],
		"cosmo_sigma_profile": { 
			"-0.025": 0.0,
			"-0.024": 0.0,
			"-0.023": 0.0,
			"-0.022": 0.0,
			"-0.021": 0.0,
			"-0.02": 0.0,
			"-0.019": 0.0,
			"-0.018": 0.0,
			"-0.017": 0.0,
			"-0.016": 0.0,
			"-0.015": 0.0736940607978,
			"-0.014": 0.960148733979,
			"-0.013": 2.06365097714,
			"-0.012": 2.2943685508,
			"-0.011": 2.70205597067,
			"-0.01": 2.12098428479,
			"-0.009": 1.66837068748,
			"-0.008": 2.22681202078,
			"-0.007": 3.8536737779,
			"-0.006": 6.73824464566,
			"-0.005": 11.607811505,
			"-0.004": 13.326959632,
			"-0.003": 15.1547986716,
			"-0.002": 16.6039838524,
			"-0.001": 27.2800459444,
			"0.0": 22.4450800979,
			"0.001": 15.2598698429,
			"0.002": 11.1001581708,
			"0.003": 9.30552742621,
			"0.004": 8.92152806725,
			"0.005": 6.96082094906,
			"0.006": 4.35661491194,
			"0.007": 4.2284703574,
			"0.008": 2.66486726995,
			"0.009": 2.46253799017,
			"0.01": 2.79432179119,
			"0.011": 3.1937023203,
			"0.012": 3.27797788291,
			"0.013": 5.32994006296,
			"0.014": 1.86282043527,
			"0.015": 0.103230939329,
			"0.016": 0.0,
			"0.017": 0.0,
			"0.018": 0.0,
			"0.019": 0.0,
			"0.02": 0.0,
			"0.021": 0.0,
			"0.022": 0.0,
			"0.023": 0.0,
			"0.024": 0.0,
			"0.025": 0.0
		}
	}
}
