{
	 "smiles": "NC1=C(C=NN1)C1=CC2=C(OCO2)C=C1", 
	 "Tm": 440.15, 
	 "num_atms": 24, 
	 "gaussian": { 
		 "optdone": 1, 
		 "sigma_profile": "yes", 
		 "theory": "DFT", 
		 "functional": "B3LYP", 
		 "basiset": "6-31G**", 
		 "properties": { 
			 "R2extent": 3727.709, 
			 "electric_dipole_moment_norm": 3.16825677305, 
			 "electric_quadrupole_moment_norm": 13.6424974341, 
			 "total_energy": -701.141519476, 
			 "HOMO_LUMO_gap": 0.18397, 
			 "cosmo_polarized_energy": -17.35, 
			 "cosmo_cavitation_energy": 28.23, 
			 "cosmo_dispersion_energy": -21.45, 
			 "cosmo_repulsion_energy": 1.67, 
			 "cosmo_total_nonelectrostatic_energy": 8.45, 
			 "SMD_solvation_energy": 4.33 
		},
		"coords": [
			{
				"x": -2.0611163104,
				"y": 2.0740301436,
				"z": -0.4843554443,
				"element": "N" 
			},
			{
				"x": -0.6877315563,
				"y": 2.253822459,
				"z": -0.3175420909,
				"element": "C" 
			},
			{
				"x": 0.3340450358,
				"y": 1.3503318251,
				"z": -0.0188655076,
				"element": "C" 
			},
			{
				"x": 1.5044364253,
				"y": 2.1611858653,
				"z": -0.0231349976,
				"element": "C" 
			},
			{
				"x": 1.2578548441,
				"y": 3.4332566312,
				"z": -0.2983126234,
				"element": "N" 
			},
			{
				"x": -0.0961564231,
				"y": 3.4674487683,
				"z": -0.4709715759,
				"element": "N" 
			},
			{
				"x": 0.2146830931,
				"y": -0.0864368232,
				"z": 0.2594980142,
				"element": "C" 
			},
			{
				"x": -0.7235146643,
				"y": -0.8809373374,
				"z": -0.4506995247,
				"element": "C" 
			},
			{
				"x": -0.7910459238,
				"y": -2.2239631278,
				"z": -0.1401633025,
				"element": "C" 
			},
			{
				"x": 0.0322872979,
				"y": -2.8081366821,
				"z": 0.8178490148,
				"element": "C" 
			},
			{
				"x": -0.2626230561,
				"y": -4.1489457839,
				"z": 0.9279743792,
				"element": "O" 
			},
			{
				"x": -1.1712720268,
				"y": -4.4272854293,
				"z": -0.1417322788,
				"element": "C" 
			},
			{
				"x": -1.6271853156,
				"y": -3.177499747,
				"z": -0.6737064875,
				"element": "O" 
			},
			{
				"x": 0.9640541549,
				"y": -2.065518967,
				"z": 1.516226314,
				"element": "C" 
			},
			{
				"x": 1.035301366,
				"y": -0.6930419734,
				"z": 1.226001502,
				"element": "C" 
			},
			{
				"x": -2.6183427296,
				"y": 2.8264411685,
				"z": -0.0939382447,
				"element": "H" 
			},
			{
				"x": -2.368952995,
				"y": 1.1867775307,
				"z": -0.1033368066,
				"element": "H" 
			},
			{
				"x": 2.5228632945,
				"y": 1.8393638326,
				"z": 0.1531264932,
				"element": "H" 
			},
			{
				"x": -0.5326861919,
				"y": 4.3291783964,
				"z": -0.7579136157,
				"element": "H" 
			},
			{
				"x": -1.3330279743,
				"y": -0.4633309203,
				"z": -1.2446554391,
				"element": "H" 
			},
			{
				"x": -0.651492479,
				"y": -4.9923662648,
				"z": -0.9296980998,
				"element": "H" 
			},
			{
				"x": -2.0255001326,
				"y": -4.9926884732,
				"z": 0.2427329698,
				"element": "H" 
			},
			{
				"x": 1.6020542694,
				"y": -2.5216396703,
				"z": 2.2649892741,
				"element": "H" 
			},
			{
				"x": 1.7388679978,
				"y": -0.076545421,
				"z": 1.7759280781,
				"element": "H" 
			}
		],
		 "valence_orbital": [ 
			{
				"type": "occ",
				"energy": -0.27852,
				"method": "rhf"
			},
			{
				"type": "occ",
				"energy": -0.25947,
				"method": "rhf"
			},
			{
				"type": "occ",
				"energy": -0.23981,
				"method": "rhf"
			},
			{
				"type": "occ",
				"energy": -0.21792,
				"method": "rhf"
			},
			{
				"type": "occ",
				"energy": -0.18735,
				"method": "rhf"
			},
			{
				"type": "unocc",
				"energy": -0.00338,
				"method": "rhf"
			},
			{
				"type": "unocc",
				"energy": 0.00449,
				"method": "rhf"
			},
			{
				"type": "unocc",
				"energy": 0.03424,
				"method": "rhf"
			},
			{
				"type": "unocc",
				"energy": 0.06905,
				"method": "rhf"
			},
			{
				"type": "unocc",
				"energy": 0.09431,
				"method": "rhf"
			}
		],
		"cosmo_sigma_profile": { 
			"-0.025": 0.0,
			"-0.024": 0.0,
			"-0.023": 0.0,
			"-0.022": 0.0,
			"-0.021": 0.0,
			"-0.02": 0.0,
			"-0.019": 0.0,
			"-0.018": 0.0,
			"-0.017": 0.0256354647445,
			"-0.016": 1.4708939205,
			"-0.015": 2.03190700861,
			"-0.014": 2.4007920826,
			"-0.013": 2.50586130754,
			"-0.012": 2.90804756721,
			"-0.011": 3.51317938595,
			"-0.01": 2.84716186067,
			"-0.009": 2.61899696375,
			"-0.008": 4.94903210239,
			"-0.007": 10.2163344516,
			"-0.006": 14.6065001723,
			"-0.005": 12.4165875219,
			"-0.004": 11.847452359,
			"-0.003": 10.0896382578,
			"-0.002": 8.79724410813,
			"-0.001": 9.51157253758,
			"0.0": 9.82572258056,
			"0.001": 9.38699252829,
			"0.002": 13.6585089063,
			"0.003": 16.2957853285,
			"0.004": 17.380106753,
			"0.005": 16.0878175869,
			"0.006": 9.28742966132,
			"0.007": 4.99119005338,
			"0.008": 5.38156912108,
			"0.009": 5.98553819431,
			"0.01": 4.51442009945,
			"0.011": 1.60152688589,
			"0.012": 1.45219762349,
			"0.013": 2.52143772482,
			"0.014": 1.82695237555,
			"0.015": 0.844549047499,
			"0.016": 1.23978143581,
			"0.017": 0.71377944154,
			"0.018": 0.0,
			"0.019": 0.0,
			"0.02": 0.0,
			"0.021": 0.0,
			"0.022": 0.0,
			"0.023": 0.0,
			"0.024": 0.0,
			"0.025": 0.0
		}
	}
}
