{
	 "smiles": "O=C1NC2=C(CCC2)C=C1", 
	 "Tm": 310.15, 
	 "num_atms": 19, 
	 "gaussian": { 
		 "optdone": 1, 
		 "sigma_profile": "yes", 
		 "theory": "DFT", 
		 "functional": "B3LYP", 
		 "basiset": "6-31G**", 
		 "properties": { 
			 "R2extent": 3121.9593, 
			 "electric_dipole_moment_norm": 4.79707344221, 
			 "electric_quadrupole_moment_norm": 23.3792582917, 
			 "total_energy": -440.264151394, 
			 "HOMO_LUMO_gap": 0.16891, 
			 "cosmo_polarized_energy": -12.86, 
			 "cosmo_cavitation_energy": 21.85, 
			 "cosmo_dispersion_energy": -16.7, 
			 "cosmo_repulsion_energy": 1.37, 
			 "cosmo_total_nonelectrostatic_energy": 6.52, 
			 "SMD_solvation_energy": 3.88 
		},
		"coords": [
			{
				"x": -4.3621039627,
				"y": -1.4617676351,
				"z": 1.3288360527,
				"element": "O" 
			},
			{
				"x": -3.2252216374,
				"y": -1.1961392369,
				"z": 1.709253724,
				"element": "C" 
			},
			{
				"x": -2.6583499958,
				"y": 0.0665378237,
				"z": 1.4078275179,
				"element": "N" 
			},
			{
				"x": -1.4145908947,
				"y": 0.4623339758,
				"z": 1.7933221761,
				"element": "C" 
			},
			{
				"x": -0.599968768,
				"y": -0.3665852133,
				"z": 2.514591314,
				"element": "C" 
			},
			{
				"x": 0.7377159145,
				"y": 0.2924825134,
				"z": 2.7646258909,
				"element": "C" 
			},
			{
				"x": 0.4642941896,
				"y": 1.7816965221,
				"z": 2.4084286731,
				"element": "C" 
			},
			{
				"x": -0.7634793396,
				"y": 1.7771236579,
				"z": 1.45692694,
				"element": "C" 
			},
			{
				"x": -1.0823350824,
				"y": -1.6620323859,
				"z": 2.8548120108,
				"element": "C" 
			},
			{
				"x": -2.3362552419,
				"y": -2.0576459889,
				"z": 2.4746264023,
				"element": "C" 
			},
			{
				"x": -3.266168874,
				"y": 0.6823764924,
				"z": 0.8809864464,
				"element": "H" 
			},
			{
				"x": 1.0914174541,
				"y": 0.1779119179,
				"z": 3.7955047503,
				"element": "H" 
			},
			{
				"x": 1.5166263173,
				"y": -0.1348921769,
				"z": 2.1170360846,
				"element": "H" 
			},
			{
				"x": 0.2053221135,
				"y": 2.329113297,
				"z": 3.3203451559,
				"element": "H" 
			},
			{
				"x": 1.3320628654,
				"y": 2.2772775342,
				"z": 1.9655706487,
				"element": "H" 
			},
			{
				"x": -1.4245563563,
				"y": 2.6377610379,
				"z": 1.612093514,
				"element": "H" 
			},
			{
				"x": -0.4628705161,
				"y": 1.7930282352,
				"z": 0.3995388391,
				"element": "H" 
			},
			{
				"x": -0.4527629513,
				"y": -2.3417701612,
				"z": 3.4251107405,
				"element": "H" 
			},
			{
				"x": -2.7303752343,
				"y": -3.0348102095,
				"z": 2.7282631186,
				"element": "H" 
			}
		],
		 "valence_orbital": [ 
			{
				"type": "occ",
				"energy": -0.35515,
				"method": "rhf"
			},
			{
				"type": "occ",
				"energy": -0.31324,
				"method": "rhf"
			},
			{
				"type": "occ",
				"energy": -0.2956,
				"method": "rhf"
			},
			{
				"type": "occ",
				"energy": -0.2401,
				"method": "rhf"
			},
			{
				"type": "occ",
				"energy": -0.20257,
				"method": "rhf"
			},
			{
				"type": "unocc",
				"energy": -0.03366,
				"method": "rhf"
			},
			{
				"type": "unocc",
				"energy": 0.02507,
				"method": "rhf"
			},
			{
				"type": "unocc",
				"energy": 0.08035,
				"method": "rhf"
			},
			{
				"type": "unocc",
				"energy": 0.08579,
				"method": "rhf"
			},
			{
				"type": "unocc",
				"energy": 0.1139,
				"method": "rhf"
			}
		],
		"cosmo_sigma_profile": { 
			"-0.025": 0.0,
			"-0.024": 0.0,
			"-0.023": 0.0,
			"-0.022": 0.0,
			"-0.021": 0.0,
			"-0.02": 0.0,
			"-0.019": 0.0,
			"-0.018": 0.0,
			"-0.017": 0.0,
			"-0.016": 0.0,
			"-0.015": 0.850001948534,
			"-0.014": 1.07656495292,
			"-0.013": 1.32758612811,
			"-0.012": 0.824112195229,
			"-0.011": 1.02641528254,
			"-0.01": 1.09007582535,
			"-0.009": 1.06647110339,
			"-0.008": 1.14792002332,
			"-0.007": 2.08293810971,
			"-0.006": 4.79052851846,
			"-0.005": 8.50830649296,
			"-0.004": 13.907164248,
			"-0.003": 21.2622507864,
			"-0.002": 21.8271209568,
			"-0.001": 17.4064062072,
			"0.0": 15.0232283163,
			"0.001": 12.7895584841,
			"0.002": 8.49373100552,
			"0.003": 8.26487060265,
			"0.004": 6.31744307288,
			"0.005": 1.45373820031,
			"0.006": 1.27313504654,
			"0.007": 0.91003640383,
			"0.008": 1.35635265957,
			"0.009": 1.27735315781,
			"0.01": 1.05586759904,
			"0.011": 1.20128178357,
			"0.012": 1.74486189729,
			"0.013": 1.33224413159,
			"0.014": 3.8865263186,
			"0.015": 6.25260537791,
			"0.016": 1.66659746704,
			"0.017": 0.0828833814839,
			"0.018": 0.0,
			"0.019": 0.0,
			"0.02": 0.0,
			"0.021": 0.0,
			"0.022": 0.0,
			"0.023": 0.0,
			"0.024": 0.0,
			"0.025": 0.0
		}
	}
}
