{
	 "smiles": "OC1=C(C=C(C=C1[N+]([O-])=O)C(F)(F)F)[N+]([O-])=O", 
	 "Tm": 320.65, 
	 "num_atms": 20, 
	 "gaussian": { 
		 "optdone": 1, 
		 "sigma_profile": "yes", 
		 "theory": "DFT", 
		 "functional": "B3LYP", 
		 "basiset": "6-31G**", 
		 "properties": { 
			 "R2extent": 4430.1751, 
			 "electric_dipole_moment_norm": 2.03731404305, 
			 "electric_quadrupole_moment_norm": 10.7220862611, 
			 "total_energy": -1053.48754046, 
			 "HOMO_LUMO_gap": 0.15604, 
			 "cosmo_polarized_energy": -12.8, 
			 "cosmo_cavitation_energy": 28.1, 
			 "cosmo_dispersion_energy": -20.17, 
			 "cosmo_repulsion_energy": 1.49, 
			 "cosmo_total_nonelectrostatic_energy": 9.41, 
			 "SMD_solvation_energy": 10.76 
		},
		"coords": [
			{
				"x": -2.9555074565,
				"y": -0.3089336229,
				"z": -1.1343580379,
				"element": "O" 
			},
			{
				"x": -1.6597604214,
				"y": -0.4235317163,
				"z": -0.9191628158,
				"element": "C" 
			},
			{
				"x": -0.7635152094,
				"y": -1.0309523196,
				"z": -1.844789528,
				"element": "C" 
			},
			{
				"x": 0.6015847205,
				"y": -1.1671873088,
				"z": -1.5885058016,
				"element": "C" 
			},
			{
				"x": 1.1258332977,
				"y": -0.7158243539,
				"z": -0.3879124403,
				"element": "C" 
			},
			{
				"x": 0.2778510299,
				"y": -0.1235450456,
				"z": 0.5537281437,
				"element": "C" 
			},
			{
				"x": -1.0731426809,
				"y": 0.0321280322,
				"z": 0.2910320587,
				"element": "C" 
			},
			{
				"x": -1.8793574156,
				"y": 0.7059470583,
				"z": 1.3256971044,
				"element": "N" 
			},
			{
				"x": -1.4443574215,
				"y": 0.657718391,
				"z": 2.4765975262,
				"element": "O" 
			},
			{
				"x": -2.8997657134,
				"y": 1.2840947623,
				"z": 0.9745298074,
				"element": "O" 
			},
			{
				"x": 2.5865729452,
				"y": -0.8955667508,
				"z": -0.0639662495,
				"element": "C" 
			},
			{
				"x": 3.088080475,
				"y": 0.2004913594,
				"z": 0.5415960089,
				"element": "F" 
			},
			{
				"x": 2.7783049761,
				"y": -1.9348632956,
				"z": 0.7754146148,
				"element": "F" 
			},
			{
				"x": 3.3142410107,
				"y": -1.13035206,
				"z": -1.1736650282,
				"element": "F" 
			},
			{
				"x": -1.2577447099,
				"y": -1.5375945754,
				"z": -3.1156737837,
				"element": "N" 
			},
			{
				"x": -0.466535739,
				"y": -2.0306154617,
				"z": -3.9047627868,
				"element": "O" 
			},
			{
				"x": -2.4846814095,
				"y": -1.4476004209,
				"z": -3.3477982051,
				"element": "O" 
			},
			{
				"x": -3.1271340765,
				"y": -0.7162874984,
				"z": -2.0239635892,
				"element": "H" 
			},
			{
				"x": 1.2279822926,
				"y": -1.6278659006,
				"z": -2.3414830122,
				"element": "H" 
			},
			{
				"x": 0.6561515057,
				"y": 0.2314407274,
				"z": 1.5049460142,
				"element": "H" 
			}
		],
		 "valence_orbital": [ 
			{
				"type": "occ",
				"energy": -0.33421,
				"method": "rhf"
			},
			{
				"type": "occ",
				"energy": -0.32681,
				"method": "rhf"
			},
			{
				"type": "occ",
				"energy": -0.32249,
				"method": "rhf"
			},
			{
				"type": "occ",
				"energy": -0.30657,
				"method": "rhf"
			},
			{
				"type": "occ",
				"energy": -0.29121,
				"method": "rhf"
			},
			{
				"type": "unocc",
				"energy": -0.13517,
				"method": "rhf"
			},
			{
				"type": "unocc",
				"energy": -0.1039,
				"method": "rhf"
			},
			{
				"type": "unocc",
				"energy": -0.05634,
				"method": "rhf"
			},
			{
				"type": "unocc",
				"energy": -0.02967,
				"method": "rhf"
			},
			{
				"type": "unocc",
				"energy": 0.0443,
				"method": "rhf"
			}
		],
		"cosmo_sigma_profile": { 
			"-0.025": 0.0,
			"-0.024": 0.0,
			"-0.023": 0.0,
			"-0.022": 0.0,
			"-0.021": 0.0,
			"-0.02": 0.0,
			"-0.019": 0.0,
			"-0.018": 0.0,
			"-0.017": 0.0,
			"-0.016": 0.0,
			"-0.015": 0.0,
			"-0.014": 0.0,
			"-0.013": 0.0,
			"-0.012": 0.273766265088,
			"-0.011": 1.17587311117,
			"-0.01": 2.66984000924,
			"-0.009": 6.15276531446,
			"-0.008": 8.00118159119,
			"-0.007": 8.85053064238,
			"-0.006": 12.1676078268,
			"-0.005": 15.9108527977,
			"-0.004": 13.8649381906,
			"-0.003": 15.1130393688,
			"-0.002": 9.40128393776,
			"-0.001": 7.88462270253,
			"0.0": 9.6137323064,
			"0.001": 15.0423820892,
			"0.002": 30.7784491113,
			"0.003": 12.9280335516,
			"0.004": 5.32280908587,
			"0.005": 8.84715859746,
			"0.006": 11.4258365001,
			"0.007": 13.898451307,
			"0.008": 10.470502284,
			"0.009": 4.87675332263,
			"0.01": 1.88357325818,
			"0.011": 0.685646437032,
			"0.012": 0.0155064865944,
			"0.013": 0.0,
			"0.014": 0.0,
			"0.015": 0.0,
			"0.016": 0.0,
			"0.017": 0.0,
			"0.018": 0.0,
			"0.019": 0.0,
			"0.02": 0.0,
			"0.021": 0.0,
			"0.022": 0.0,
			"0.023": 0.0,
			"0.024": 0.0,
			"0.025": 0.0
		}
	}
}
