{
	 "smiles": "SC1=NC2=C(SC(=C2)C2=CC=CC=C2)C(=O)N1CC1=CC=CC=C1", 
	 "Tm": 587.15, 
	 "num_atms": 38, 
	 "gaussian": { 
		 "optdone": 1, 
		 "sigma_profile": "yes", 
		 "theory": "DFT", 
		 "functional": "B3LYP", 
		 "basiset": "6-31G**", 
		 "properties": { 
			 "R2extent": 12506.1563, 
			 "electric_dipole_moment_norm": 2.57619606397, 
			 "electric_quadrupole_moment_norm": 18.7129709122, 
			 "total_energy": -1713.58020732, 
			 "HOMO_LUMO_gap": 0.15643, 
			 "cosmo_polarized_energy": -13.1, 
			 "cosmo_cavitation_energy": 45.01, 
			 "cosmo_dispersion_energy": -33.36, 
			 "cosmo_repulsion_energy": 2.4, 
			 "cosmo_total_nonelectrostatic_energy": 14.05, 
			 "SMD_solvation_energy": 5.42 
		},
		"coords": [
			{
				"x": 0.8344978954,
				"y": 3.0450189047,
				"z": -1.618836715,
				"element": "S" 
			},
			{
				"x": 0.4801945617,
				"y": 1.3626312268,
				"z": -1.1259639221,
				"element": "C" 
			},
			{
				"x": -0.7187900872,
				"y": 0.9110565324,
				"z": -1.3552327087,
				"element": "N" 
			},
			{
				"x": -0.9633652551,
				"y": -0.3861154119,
				"z": -0.9819390326,
				"element": "C" 
			},
			{
				"x": 0.0047238736,
				"y": -1.1861054474,
				"z": -0.3832852908,
				"element": "C" 
			},
			{
				"x": -0.5887274134,
				"y": -2.7751421807,
				"z": -0.0163820155,
				"element": "S" 
			},
			{
				"x": -2.1724607483,
				"y": -2.3582206473,
				"z": -0.6666284743,
				"element": "C" 
			},
			{
				"x": -2.2072536841,
				"y": -1.0674680349,
				"z": -1.1392166197,
				"element": "C" 
			},
			{
				"x": -3.2614405518,
				"y": -3.3450830958,
				"z": -0.6688698172,
				"element": "C" 
			},
			{
				"x": -3.3297798585,
				"y": -4.3641136546,
				"z": 0.2976774615,
				"element": "C" 
			},
			{
				"x": -4.3727173267,
				"y": -5.2878335997,
				"z": 0.2851839275,
				"element": "C" 
			},
			{
				"x": -5.3707311997,
				"y": -5.2096450588,
				"z": -0.6879549543,
				"element": "C" 
			},
			{
				"x": -5.3141988234,
				"y": -4.2022166922,
				"z": -1.6539419903,
				"element": "C" 
			},
			{
				"x": -4.2687953793,
				"y": -3.2822234379,
				"z": -1.6493231715,
				"element": "C" 
			},
			{
				"x": 1.3261309031,
				"y": -0.7074164649,
				"z": -0.1142296583,
				"element": "C" 
			},
			{
				"x": 2.24498061,
				"y": -1.326863284,
				"z": 0.4148277039,
				"element": "O" 
			},
			{
				"x": 1.5058733154,
				"y": 0.6512770437,
				"z": -0.5412764317,
				"element": "N" 
			},
			{
				"x": 2.8640844193,
				"y": 1.2153557956,
				"z": -0.3433091907,
				"element": "C" 
			},
			{
				"x": 3.0351682636,
				"y": 2.0143946969,
				"z": 0.9353737379,
				"element": "C" 
			},
			{
				"x": 3.3788881836,
				"y": 3.3697964624,
				"z": 0.8837534216,
				"element": "C" 
			},
			{
				"x": 3.5712206776,
				"y": 4.1007714152,
				"z": 2.0582331928,
				"element": "C" 
			},
			{
				"x": 3.4172171458,
				"y": 3.4813100716,
				"z": 3.2980387512,
				"element": "C" 
			},
			{
				"x": 3.0800581951,
				"y": 2.1263154322,
				"z": 3.3580048861,
				"element": "C" 
			},
			{
				"x": 2.8955260249,
				"y": 1.3941327646,
				"z": 2.1862593879,
				"element": "C" 
			},
			{
				"x": -0.3744761366,
				"y": 3.1804381991,
				"z": -2.1931965852,
				"element": "H" 
			},
			{
				"x": -3.0880783255,
				"y": -0.5956772691,
				"z": -1.5561953446,
				"element": "H" 
			},
			{
				"x": -2.5732206718,
				"y": -4.4193610563,
				"z": 1.075036435,
				"element": "H" 
			},
			{
				"x": -4.4094145106,
				"y": -6.0651024399,
				"z": 1.0427921982,
				"element": "H" 
			},
			{
				"x": -6.1841869919,
				"y": -5.92901046,
				"z": -0.6956413147,
				"element": "H" 
			},
			{
				"x": -6.0807309065,
				"y": -4.139082638,
				"z": -2.4208503115,
				"element": "H" 
			},
			{
				"x": -4.2158478306,
				"y": -2.5215377629,
				"z": -2.4218042741,
				"element": "H" 
			},
			{
				"x": 3.5261207649,
				"y": 0.3477799051,
				"z": -0.3347111692,
				"element": "H" 
			},
			{
				"x": 3.1063790308,
				"y": 1.8248959782,
				"z": -1.2173554416,
				"element": "H" 
			},
			{
				"x": 3.4997286292,
				"y": 3.8583709705,
				"z": -0.0795763593,
				"element": "H" 
			},
			{
				"x": 3.8373032594,
				"y": 5.1523897085,
				"z": 2.0015832121,
				"element": "H" 
			},
			{
				"x": 3.5632262469,
				"y": 4.0481878695,
				"z": 4.213096124,
				"element": "H" 
			},
			{
				"x": 2.9689421866,
				"y": 1.6359282861,
				"z": 4.3209790381,
				"element": "H" 
			},
			{
				"x": 2.6563515143,
				"y": 0.3362673733,
				"z": 2.231081315,
				"element": "H" 
			}
		],
		 "valence_orbital": [ 
			{
				"type": "occ",
				"energy": -0.26118,
				"method": "rhf"
			},
			{
				"type": "occ",
				"energy": -0.25018,
				"method": "rhf"
			},
			{
				"type": "occ",
				"energy": -0.24709,
				"method": "rhf"
			},
			{
				"type": "occ",
				"energy": -0.23546,
				"method": "rhf"
			},
			{
				"type": "occ",
				"energy": -0.21905,
				"method": "rhf"
			},
			{
				"type": "unocc",
				"energy": -0.06262,
				"method": "rhf"
			},
			{
				"type": "unocc",
				"energy": -0.02217,
				"method": "rhf"
			},
			{
				"type": "unocc",
				"energy": -0.01379,
				"method": "rhf"
			},
			{
				"type": "unocc",
				"energy": -0.01244,
				"method": "rhf"
			},
			{
				"type": "unocc",
				"energy": -0.00278,
				"method": "rhf"
			}
		],
		"cosmo_sigma_profile": { 
			"-0.025": 0.0,
			"-0.024": 0.0,
			"-0.023": 0.0,
			"-0.022": 0.0,
			"-0.021": 0.0,
			"-0.02": 0.0,
			"-0.019": 0.0,
			"-0.018": 0.0,
			"-0.017": 0.0,
			"-0.016": 0.0,
			"-0.015": 0.0,
			"-0.014": 0.0,
			"-0.013": 0.0,
			"-0.012": 0.832019343108,
			"-0.011": 1.29067095293,
			"-0.01": 1.51290723809,
			"-0.009": 1.02442712217,
			"-0.008": 2.48446884397,
			"-0.007": 6.86847610593,
			"-0.006": 19.303803702,
			"-0.005": 28.3730629781,
			"-0.004": 30.2459317551,
			"-0.003": 25.7471858136,
			"-0.002": 24.1573428857,
			"-0.001": 23.2837060082,
			"0.0": 26.6103915522,
			"0.001": 36.0382498899,
			"0.002": 34.6406702631,
			"0.003": 29.4759663482,
			"0.004": 25.6310801269,
			"0.005": 22.0750030766,
			"0.006": 9.48168355548,
			"0.007": 2.61395371855,
			"0.008": 2.4825574831,
			"0.009": 2.34837461068,
			"0.01": 2.01083071877,
			"0.011": 2.80313964199,
			"0.012": 3.57118185216,
			"0.013": 1.84940285255,
			"0.014": 0.0,
			"0.015": 0.0,
			"0.016": 0.0,
			"0.017": 0.0,
			"0.018": 0.0,
			"0.019": 0.0,
			"0.02": 0.0,
			"0.021": 0.0,
			"0.022": 0.0,
			"0.023": 0.0,
			"0.024": 0.0,
			"0.025": 0.0
		}
	}
}
