{
	 "smiles": "CCC1=CC(=CC=C1)N1CC(CC1=O)C(O)=O", 
	 "Tm": 394.15, 
	 "num_atms": 32, 
	 "gaussian": { 
		 "optdone": 1, 
		 "sigma_profile": "yes", 
		 "theory": "DFT", 
		 "functional": "B3LYP", 
		 "basiset": "6-31G**", 
		 "properties": { 
			 "R2extent": 5549.0234, 
			 "electric_dipole_moment_norm": 3.78811480555, 
			 "electric_quadrupole_moment_norm": 14.1707188039, 
			 "total_energy": -784.890698555, 
			 "HOMO_LUMO_gap": 0.20471, 
			 "cosmo_polarized_energy": -16.04, 
			 "cosmo_cavitation_energy": 35.36, 
			 "cosmo_dispersion_energy": -25.23, 
			 "cosmo_repulsion_energy": 1.98, 
			 "cosmo_total_nonelectrostatic_energy": 12.11, 
			 "SMD_solvation_energy": 7.03 
		},
		"coords": [
			{
				"x": -3.5680421787,
				"y": 1.6967062358,
				"z": 3.334807557,
				"element": "C" 
			},
			{
				"x": -3.9104866247,
				"y": 1.3282761879,
				"z": 1.8800361819,
				"element": "C" 
			},
			{
				"x": -2.7504817776,
				"y": 1.5480676688,
				"z": 0.9303550891,
				"element": "C" 
			},
			{
				"x": -1.8280737726,
				"y": 0.520876718,
				"z": 0.7088229078,
				"element": "C" 
			},
			{
				"x": -0.7232015813,
				"y": 0.7153550385,
				"z": -0.1384551588,
				"element": "C" 
			},
			{
				"x": -0.5542431871,
				"y": 1.9614259902,
				"z": -0.7657749527,
				"element": "C" 
			},
			{
				"x": -1.4752666321,
				"y": 2.983684993,
				"z": -0.5414844195,
				"element": "C" 
			},
			{
				"x": -2.5672534756,
				"y": 2.7856698006,
				"z": 0.2993402614,
				"element": "C" 
			},
			{
				"x": 0.2283280347,
				"y": -0.3131039705,
				"z": -0.3645981512,
				"element": "N" 
			},
			{
				"x": 1.467269918,
				"y": -0.0411003782,
				"z": -1.095420669,
				"element": "C" 
			},
			{
				"x": 2.3208192747,
				"y": -1.3165513909,
				"z": -0.8696652561,
				"element": "C" 
			},
			{
				"x": 1.2806115793,
				"y": -2.4079906723,
				"z": -0.6304934878,
				"element": "C" 
			},
			{
				"x": 0.0662231645,
				"y": -1.6667561002,
				"z": -0.082416704,
				"element": "C" 
			},
			{
				"x": -0.8778053657,
				"y": -2.1858311698,
				"z": 0.4867440075,
				"element": "O" 
			},
			{
				"x": 3.2490612666,
				"y": -1.5806482812,
				"z": -2.0376067432,
				"element": "C" 
			},
			{
				"x": 4.2646861979,
				"y": -0.6849012947,
				"z": -2.0635472616,
				"element": "O" 
			},
			{
				"x": 3.1179238484,
				"y": -2.4494989339,
				"z": -2.8698648498,
				"element": "O" 
			},
			{
				"x": -4.4264772222,
				"y": 1.5294522014,
				"z": 3.9939322258,
				"element": "H" 
			},
			{
				"x": -3.2775794391,
				"y": 2.749419692,
				"z": 3.4156115929,
				"element": "H" 
			},
			{
				"x": -2.7331955011,
				"y": 1.0926593478,
				"z": 3.7044129185,
				"element": "H" 
			},
			{
				"x": -4.7696137285,
				"y": 1.9244420812,
				"z": 1.5496071572,
				"element": "H" 
			},
			{
				"x": -4.2223678554,
				"y": 0.2784689935,
				"z": 1.8377465244,
				"element": "H" 
			},
			{
				"x": -1.966348147,
				"y": -0.443154113,
				"z": 1.178120791,
				"element": "H" 
			},
			{
				"x": 0.2766824117,
				"y": 2.1397956269,
				"z": -1.4377868485,
				"element": "H" 
			},
			{
				"x": -1.3361814738,
				"y": 3.9400987499,
				"z": -1.0376912882,
				"element": "H" 
			},
			{
				"x": -3.28224436,
				"y": 3.5878176183,
				"z": 0.4632340189,
				"element": "H" 
			},
			{
				"x": 1.9623431223,
				"y": 0.8526749962,
				"z": -0.7079923969,
				"element": "H" 
			},
			{
				"x": 1.2627119735,
				"y": 0.1206027646,
				"z": -2.1633198,
				"element": "H" 
			},
			{
				"x": 2.9364785455,
				"y": -1.1631882724,
				"z": 0.0226441071,
				"element": "H" 
			},
			{
				"x": 1.595412126,
				"y": -3.1864378324,
				"z": 0.0668289747,
				"element": "H" 
			},
			{
				"x": 1.0088557684,
				"y": -2.8974241479,
				"z": -1.572733767,
				"element": "H" 
			},
			{
				"x": 4.7992550909,
				"y": -0.8966081471,
				"z": -2.8477925609,
				"element": "H" 
			}
		],
		 "valence_orbital": [ 
			{
				"type": "occ",
				"energy": -0.29354,
				"method": "rhf"
			},
			{
				"type": "occ",
				"energy": -0.29142,
				"method": "rhf"
			},
			{
				"type": "occ",
				"energy": -0.25278,
				"method": "rhf"
			},
			{
				"type": "occ",
				"energy": -0.24025,
				"method": "rhf"
			},
			{
				"type": "occ",
				"energy": -0.21739,
				"method": "rhf"
			},
			{
				"type": "unocc",
				"energy": -0.01268,
				"method": "rhf"
			},
			{
				"type": "unocc",
				"energy": -0.00801,
				"method": "rhf"
			},
			{
				"type": "unocc",
				"energy": 0.00158,
				"method": "rhf"
			},
			{
				"type": "unocc",
				"energy": 0.04004,
				"method": "rhf"
			},
			{
				"type": "unocc",
				"energy": 0.0637,
				"method": "rhf"
			}
		],
		"cosmo_sigma_profile": { 
			"-0.025": 0.0,
			"-0.024": 0.0,
			"-0.023": 0.0,
			"-0.022": 0.0,
			"-0.021": 0.0,
			"-0.02": 0.0,
			"-0.019": 0.116884702727,
			"-0.018": 1.07989759018,
			"-0.017": 0.642341462845,
			"-0.016": 1.09435982813,
			"-0.015": 0.990443222107,
			"-0.014": 0.272984564896,
			"-0.013": 0.55423381213,
			"-0.012": 0.54273151293,
			"-0.011": 1.02607808838,
			"-0.01": 0.939509012155,
			"-0.009": 0.443885217132,
			"-0.008": 0.794138248902,
			"-0.007": 9.27558573215,
			"-0.006": 21.2201947932,
			"-0.005": 18.5891951555,
			"-0.004": 15.5021317968,
			"-0.003": 23.7621899888,
			"-0.002": 22.3063538125,
			"-0.001": 22.2563890833,
			"0.0": 22.8587012334,
			"0.001": 19.7298700433,
			"0.002": 14.2503406976,
			"0.003": 10.8897782548,
			"0.004": 12.501566882,
			"0.005": 13.1395939063,
			"0.006": 10.9725704635,
			"0.007": 4.83335320965,
			"0.008": 4.24020734119,
			"0.009": 3.86370455322,
			"0.01": 4.32285368238,
			"0.011": 6.94762428892,
			"0.012": 4.7875290118,
			"0.013": 3.03032042834,
			"0.014": 1.07417600159,
			"0.015": 0.00344370216883,
			"0.016": 0.0,
			"0.017": 0.0,
			"0.018": 0.0,
			"0.019": 0.0,
			"0.02": 0.0,
			"0.021": 0.0,
			"0.022": 0.0,
			"0.023": 0.0,
			"0.024": 0.0,
			"0.025": 0.0
		}
	}
}
