{
	 "smiles": "NC1=NSC(=N1)N1CCNCC1", 
	 "Tm": 467.15, 
	 "num_atms": 23, 
	 "gaussian": { 
		 "optdone": 1, 
		 "sigma_profile": "yes", 
		 "theory": "DFT", 
		 "functional": "B3LYP", 
		 "basiset": "6-31G**", 
		 "properties": { 
			 "R2extent": 3241.8103, 
			 "electric_dipole_moment_norm": 4.22545202434, 
			 "electric_quadrupole_moment_norm": 10.305903613, 
			 "total_energy": -907.197979337, 
			 "HOMO_LUMO_gap": 0.20636, 
			 "cosmo_polarized_energy": -15.44, 
			 "cosmo_cavitation_energy": 26.68, 
			 "cosmo_dispersion_energy": -20.97, 
			 "cosmo_repulsion_energy": 1.64, 
			 "cosmo_total_nonelectrostatic_energy": 7.35, 
			 "SMD_solvation_energy": -1.78 
		},
		"coords": [
			{
				"x": -3.9698209225,
				"y": -1.884179682,
				"z": 0.7631284687,
				"element": "N" 
			},
			{
				"x": -3.005244509,
				"y": -1.5913534583,
				"z": -0.1794549615,
				"element": "C" 
			},
			{
				"x": -3.2338083981,
				"y": -1.7821953168,
				"z": -1.4618556129,
				"element": "N" 
			},
			{
				"x": -1.7962978379,
				"y": -1.4056096894,
				"z": -2.2807182263,
				"element": "S" 
			},
			{
				"x": -0.9961491307,
				"y": -0.9655866782,
				"z": -0.7618579741,
				"element": "C" 
			},
			{
				"x": -1.7895646815,
				"y": -1.1318157741,
				"z": 0.2736663943,
				"element": "N" 
			},
			{
				"x": 0.2783220278,
				"y": -0.5225598757,
				"z": -0.6898652009,
				"element": "N" 
			},
			{
				"x": 1.1017415079,
				"y": -0.3788053944,
				"z": -1.8914096173,
				"element": "C" 
			},
			{
				"x": 2.2511706281,
				"y": 0.5877115699,
				"z": -1.6165305905,
				"element": "C" 
			},
			{
				"x": 3.116663553,
				"y": 0.0686171697,
				"z": -0.5502873862,
				"element": "N" 
			},
			{
				"x": 2.4008832478,
				"y": -0.664253656,
				"z": 0.508064317,
				"element": "C" 
			},
			{
				"x": 0.915943387,
				"y": -0.302674677,
				"z": 0.6152476293,
				"element": "C" 
			},
			{
				"x": -4.9067553322,
				"y": -1.9463161812,
				"z": 0.3915129092,
				"element": "H" 
			},
			{
				"x": -3.8883301482,
				"y": -1.3529580493,
				"z": 1.6178031327,
				"element": "H" 
			},
			{
				"x": 0.482053213,
				"y": 0.0190632681,
				"z": -2.7034914346,
				"element": "H" 
			},
			{
				"x": 1.4977174082,
				"y": -1.3519177228,
				"z": -2.2176197986,
				"element": "H" 
			},
			{
				"x": 2.8372346884,
				"y": 0.7078067528,
				"z": -2.5354947274,
				"element": "H" 
			},
			{
				"x": 1.813350418,
				"y": 1.5731246441,
				"z": -1.3823305384,
				"element": "H" 
			},
			{
				"x": 3.6518425489,
				"y": 0.8306024071,
				"z": -0.1495522964,
				"element": "H" 
			},
			{
				"x": 2.4772472181,
				"y": -1.7438321648,
				"z": 0.3198469646,
				"element": "H" 
			},
			{
				"x": 2.8907693907,
				"y": -0.4796153991,
				"z": 1.4692514509,
				"element": "H" 
			},
			{
				"x": 0.4078615706,
				"y": -0.9302710266,
				"z": 1.3506698954,
				"element": "H" 
			},
			{
				"x": 0.7892701527,
				"y": 0.7429189341,
				"z": 0.9308772031,
				"element": "H" 
			}
		],
		 "valence_orbital": [ 
			{
				"type": "occ",
				"energy": -0.29031,
				"method": "rhf"
			},
			{
				"type": "occ",
				"energy": -0.26024,
				"method": "rhf"
			},
			{
				"type": "occ",
				"energy": -0.23768,
				"method": "rhf"
			},
			{
				"type": "occ",
				"energy": -0.22798,
				"method": "rhf"
			},
			{
				"type": "occ",
				"energy": -0.19669,
				"method": "rhf"
			},
			{
				"type": "unocc",
				"energy": 0.00967,
				"method": "rhf"
			},
			{
				"type": "unocc",
				"energy": 0.01464,
				"method": "rhf"
			},
			{
				"type": "unocc",
				"energy": 0.06173,
				"method": "rhf"
			},
			{
				"type": "unocc",
				"energy": 0.07984,
				"method": "rhf"
			},
			{
				"type": "unocc",
				"energy": 0.08957,
				"method": "rhf"
			}
		],
		"cosmo_sigma_profile": { 
			"-0.025": 0.0,
			"-0.024": 0.0,
			"-0.023": 0.0,
			"-0.022": 0.0,
			"-0.021": 0.0,
			"-0.02": 0.0,
			"-0.019": 0.0,
			"-0.018": 0.0,
			"-0.017": 0.0,
			"-0.016": 0.0,
			"-0.015": 0.0,
			"-0.014": 0.0790328409599,
			"-0.013": 1.50634013799,
			"-0.012": 2.29118921654,
			"-0.011": 2.37165917078,
			"-0.01": 3.30281977203,
			"-0.009": 3.91337983571,
			"-0.008": 3.05061866898,
			"-0.007": 3.16558787406,
			"-0.006": 6.90056136768,
			"-0.005": 14.5338927656,
			"-0.004": 26.5715710481,
			"-0.003": 23.8540789489,
			"-0.002": 14.4334116268,
			"-0.001": 10.8116617995,
			"0.0": 9.16376285504,
			"0.001": 13.0396509832,
			"0.002": 9.44207961247,
			"0.003": 7.68053972807,
			"0.004": 7.06184188137,
			"0.005": 8.68538455203,
			"0.006": 6.25374100824,
			"0.007": 5.30041210734,
			"0.008": 4.26181150192,
			"0.009": 4.82296755251,
			"0.01": 3.15506263971,
			"0.011": 4.03572850951,
			"0.012": 3.69400299976,
			"0.013": 2.51016246613,
			"0.014": 1.40546233354,
			"0.015": 1.5549022568,
			"0.016": 1.59848997357,
			"0.017": 0.719515370692,
			"0.018": 0.266415993529,
			"0.019": 0.0,
			"0.02": 0.0,
			"0.021": 0.0,
			"0.022": 0.0,
			"0.023": 0.0,
			"0.024": 0.0,
			"0.025": 0.0
		}
	}
}
