{
	 "smiles": "OCC1=CSC(=N1)C1=CC(Cl)=CC=C1", 
	 "Tm": 367.15, 
	 "num_atms": 22, 
	 "gaussian": { 
		 "optdone": 1, 
		 "sigma_profile": "yes", 
		 "theory": "DFT", 
		 "functional": "B3LYP", 
		 "basiset": "6-31G**", 
		 "properties": { 
			 "R2extent": 4712.7363, 
			 "electric_dipole_moment_norm": 1.07526838045, 
			 "electric_quadrupole_moment_norm": 16.9198119511, 
			 "total_energy": -1374.22954305, 
			 "HOMO_LUMO_gap": 0.1662, 
			 "cosmo_polarized_energy": -9.01, 
			 "cosmo_cavitation_energy": 29.92, 
			 "cosmo_dispersion_energy": -22.7, 
			 "cosmo_repulsion_energy": 1.75, 
			 "cosmo_total_nonelectrostatic_energy": 8.97, 
			 "SMD_solvation_energy": 3.77 
		},
		"coords": [
			{
				"x": 3.2651763474,
				"y": 1.4022450422,
				"z": 3.1845980611,
				"element": "O" 
			},
			{
				"x": 2.7602732243,
				"y": 2.4110485826,
				"z": 2.3283034748,
				"element": "C" 
			},
			{
				"x": 1.9026899759,
				"y": 1.8341569518,
				"z": 1.2301459391,
				"element": "C" 
			},
			{
				"x": 1.9485695627,
				"y": 2.1196617326,
				"z": -0.1054065313,
				"element": "C" 
			},
			{
				"x": 0.7417526853,
				"y": 1.2118440547,
				"z": -0.9544528716,
				"element": "S" 
			},
			{
				"x": 0.255179591,
				"y": 0.4818537102,
				"z": 0.5766591435,
				"element": "C" 
			},
			{
				"x": 0.9491390549,
				"y": 0.914013197,
				"z": 1.5980942182,
				"element": "N" 
			},
			{
				"x": -0.8291112248,
				"y": -0.505353588,
				"z": 0.6800984496,
				"element": "C" 
			},
			{
				"x": -1.498346486,
				"y": -0.9859587831,
				"z": -0.4564726863,
				"element": "C" 
			},
			{
				"x": -2.5193747666,
				"y": -1.9198582626,
				"z": -0.3091215995,
				"element": "C" 
			},
			{
				"x": -3.3480061229,
				"y": -2.5123683764,
				"z": -1.7413701493,
				"element": "Cl" 
			},
			{
				"x": -2.8969457451,
				"y": -2.3958985017,
				"z": 0.9460973649,
				"element": "C" 
			},
			{
				"x": -2.2264415285,
				"y": -1.9149485394,
				"z": 2.0728662749,
				"element": "C" 
			},
			{
				"x": -1.2035987808,
				"y": -0.9799644758,
				"z": 1.9490481397,
				"element": "C" 
			},
			{
				"x": 2.519289592,
				"y": 0.8131010583,
				"z": 3.3700725275,
				"element": "H" 
			},
			{
				"x": 3.6179003124,
				"y": 2.9405897332,
				"z": 1.9030225408,
				"element": "H" 
			},
			{
				"x": 2.1653930089,
				"y": 3.1491035251,
				"z": 2.8929502224,
				"element": "H" 
			},
			{
				"x": 2.6126019006,
				"y": 2.7926211053,
				"z": -0.6288943573,
				"element": "H" 
			},
			{
				"x": -1.2311563594,
				"y": -0.6447358061,
				"z": -1.4508674568,
				"element": "H" 
			},
			{
				"x": -3.6952061142,
				"y": -3.1239612051,
				"z": 1.0353126025,
				"element": "H" 
			},
			{
				"x": -2.5102320866,
				"y": -2.2763589599,
				"z": 3.0566536932,
				"element": "H" 
			},
			{
				"x": -0.6828460405,
				"y": -0.6028321949,
				"z": 2.8211629997,
				"element": "H" 
			}
		],
		 "valence_orbital": [ 
			{
				"type": "occ",
				"energy": -0.29119,
				"method": "rhf"
			},
			{
				"type": "occ",
				"energy": -0.28567,
				"method": "rhf"
			},
			{
				"type": "occ",
				"energy": -0.26822,
				"method": "rhf"
			},
			{
				"type": "occ",
				"energy": -0.25858,
				"method": "rhf"
			},
			{
				"type": "occ",
				"energy": -0.23363,
				"method": "rhf"
			},
			{
				"type": "unocc",
				"energy": -0.06743,
				"method": "rhf"
			},
			{
				"type": "unocc",
				"energy": -0.02256,
				"method": "rhf"
			},
			{
				"type": "unocc",
				"energy": 0.00657,
				"method": "rhf"
			},
			{
				"type": "unocc",
				"energy": 0.00823,
				"method": "rhf"
			},
			{
				"type": "unocc",
				"energy": 0.0247,
				"method": "rhf"
			}
		],
		"cosmo_sigma_profile": { 
			"-0.025": 0.0,
			"-0.024": 0.0,
			"-0.023": 0.0,
			"-0.022": 0.0,
			"-0.021": 0.0,
			"-0.02": 0.0,
			"-0.019": 0.0,
			"-0.018": 0.0,
			"-0.017": 0.0,
			"-0.016": 0.0,
			"-0.015": 0.0,
			"-0.014": 0.0,
			"-0.013": 0.061114919707,
			"-0.012": 0.58994586142,
			"-0.011": 0.502730215144,
			"-0.01": 0.768447175115,
			"-0.009": 2.55492268693,
			"-0.008": 4.32338507901,
			"-0.007": 9.35199424911,
			"-0.006": 11.4151140039,
			"-0.005": 13.4912708954,
			"-0.004": 13.8082672958,
			"-0.003": 14.6564350892,
			"-0.002": 14.1212601394,
			"-0.001": 14.9139787359,
			"0.0": 22.4946395083,
			"0.001": 27.2440687986,
			"0.002": 31.0964691783,
			"0.003": 24.8226831674,
			"0.004": 15.0471177803,
			"0.005": 7.4180751435,
			"0.006": 2.40418098291,
			"0.007": 1.76911850215,
			"0.008": 1.45617748047,
			"0.009": 1.46444365341,
			"0.01": 1.22842160261,
			"0.011": 1.65687533714,
			"0.012": 1.66997684319,
			"0.013": 1.61735193924,
			"0.014": 2.44535138986,
			"0.015": 0.099839966543,
			"0.016": 0.0,
			"0.017": 0.0,
			"0.018": 0.0,
			"0.019": 0.0,
			"0.02": 0.0,
			"0.021": 0.0,
			"0.022": 0.0,
			"0.023": 0.0,
			"0.024": 0.0,
			"0.025": 0.0
		}
	}
}
