{
	 "smiles": "CC(C)(C)OC(=O)N1CCCC(CC#N)C1", 
	 "Tm": 322.15, 
	 "num_atms": 36, 
	 "gaussian": { 
		 "optdone": 1, 
		 "sigma_profile": "yes", 
		 "theory": "DFT", 
		 "functional": "B3LYP", 
		 "basiset": "6-31G**", 
		 "properties": { 
			 "R2extent": 4884.0626, 
			 "electric_dipole_moment_norm": 2.95040140489, 
			 "electric_quadrupole_moment_norm": 24.5885082252, 
			 "total_energy": -729.30713256, 
			 "HOMO_LUMO_gap": 0.25773, 
			 "cosmo_polarized_energy": -14.78, 
			 "cosmo_cavitation_energy": 37.07, 
			 "cosmo_dispersion_energy": -25.2, 
			 "cosmo_repulsion_energy": 2.0, 
			 "cosmo_total_nonelectrostatic_energy": 13.87, 
			 "SMD_solvation_energy": 7.39 
		},
		"coords": [
			{
				"x": -1.5357059678,
				"y": -1.9524709984,
				"z": -2.3313494162,
				"element": "C" 
			},
			{
				"x": -1.713301027,
				"y": -2.2930777686,
				"z": -0.849135164,
				"element": "C" 
			},
			{
				"x": -1.1287573346,
				"y": -3.6748456715,
				"z": -0.5367416849,
				"element": "C" 
			},
			{
				"x": -3.185189523,
				"y": -2.1782348802,
				"z": -0.438052439,
				"element": "C" 
			},
			{
				"x": -0.9183466898,
				"y": -1.2485009002,
				"z": -0.1849212513,
				"element": "O" 
			},
			{
				"x": -0.8304078293,
				"y": -1.1963212843,
				"z": 1.168486784,
				"element": "C" 
			},
			{
				"x": -1.3545439487,
				"y": -1.9814070661,
				"z": 1.9477954274,
				"element": "O" 
			},
			{
				"x": -0.064226529,
				"y": -0.1322400016,
				"z": 1.566228088,
				"element": "N" 
			},
			{
				"x": 0.2137276336,
				"y": 0.0202294355,
				"z": 3.0000073387,
				"element": "C" 
			},
			{
				"x": 1.6107398057,
				"y": 0.6093380281,
				"z": 3.200828401,
				"element": "C" 
			},
			{
				"x": 1.7605696792,
				"y": 1.9934513493,
				"z": 2.5281622817,
				"element": "C" 
			},
			{
				"x": 0.819919797,
				"y": 2.1433992876,
				"z": 1.3090661135,
				"element": "C" 
			},
			{
				"x": 1.3224771146,
				"y": 3.2088194352,
				"z": 0.3067666316,
				"element": "C" 
			},
			{
				"x": 2.6053826269,
				"y": 2.8690521543,
				"z": -0.3192375567,
				"element": "C" 
			},
			{
				"x": 3.621842492,
				"y": 2.5889892005,
				"z": -0.8052961339,
				"element": "N" 
			},
			{
				"x": 0.5700842684,
				"y": 0.7928512615,
				"z": 0.6218300431,
				"element": "C" 
			},
			{
				"x": -0.4787632479,
				"y": -1.9849619272,
				"z": -2.6112226619,
				"element": "H" 
			},
			{
				"x": -1.919360454,
				"y": -0.9508050258,
				"z": -2.547290182,
				"element": "H" 
			},
			{
				"x": -2.0804510843,
				"y": -2.6716613586,
				"z": -2.9501726135,
				"element": "H" 
			},
			{
				"x": -1.6527960467,
				"y": -4.436705074,
				"z": -1.1231400922,
				"element": "H" 
			},
			{
				"x": -0.0686464964,
				"y": -3.707879835,
				"z": -0.8076817211,
				"element": "H" 
			},
			{
				"x": -1.2314709229,
				"y": -3.9102833498,
				"z": 0.5225555058,
				"element": "H" 
			},
			{
				"x": -3.5574028107,
				"y": -1.168062164,
				"z": -0.6374881668,
				"element": "H" 
			},
			{
				"x": -3.3125666177,
				"y": -2.400064651,
				"z": 0.6215318862,
				"element": "H" 
			},
			{
				"x": -3.7859256123,
				"y": -2.8820616042,
				"z": -1.0233855534,
				"element": "H" 
			},
			{
				"x": -0.5444281049,
				"y": 0.6627615219,
				"z": 3.4728488472,
				"element": "H" 
			},
			{
				"x": 0.1242573258,
				"y": -0.9649057826,
				"z": 3.4600285552,
				"element": "H" 
			},
			{
				"x": 2.3433150083,
				"y": -0.0893630899,
				"z": 2.7809674819,
				"element": "H" 
			},
			{
				"x": 1.8242569377,
				"y": 0.67995564,
				"z": 4.2721607702,
				"element": "H" 
			},
			{
				"x": 1.5417708571,
				"y": 2.7942639239,
				"z": 3.2441861209,
				"element": "H" 
			},
			{
				"x": 2.8014545453,
				"y": 2.1308110011,
				"z": 2.2136682286,
				"element": "H" 
			},
			{
				"x": -0.1541532997,
				"y": 2.5064695743,
				"z": 1.6602968081,
				"element": "H" 
			},
			{
				"x": 0.583424925,
				"y": 3.3612769197,
				"z": -0.4887805472,
				"element": "H" 
			},
			{
				"x": 1.4406410116,
				"y": 4.1708924325,
				"z": 0.8193365944,
				"element": "H" 
			},
			{
				"x": 1.5178072408,
				"y": 0.3848004917,
				"z": 0.2400098393,
				"element": "H" 
			},
			{
				"x": -0.0908277224,
				"y": 0.9199907756,
				"z": -0.2377665627,
				"element": "H" 
			}
		],
		 "valence_orbital": [ 
			{
				"type": "occ",
				"energy": -0.32561,
				"method": "rhf"
			},
			{
				"type": "occ",
				"energy": -0.32368,
				"method": "rhf"
			},
			{
				"type": "occ",
				"energy": -0.28497,
				"method": "rhf"
			},
			{
				"type": "occ",
				"energy": -0.25812,
				"method": "rhf"
			},
			{
				"type": "occ",
				"energy": -0.23479,
				"method": "rhf"
			},
			{
				"type": "unocc",
				"energy": 0.02294,
				"method": "rhf"
			},
			{
				"type": "unocc",
				"energy": 0.03339,
				"method": "rhf"
			},
			{
				"type": "unocc",
				"energy": 0.05489,
				"method": "rhf"
			},
			{
				"type": "unocc",
				"energy": 0.07644,
				"method": "rhf"
			},
			{
				"type": "unocc",
				"energy": 0.08609,
				"method": "rhf"
			}
		],
		"cosmo_sigma_profile": { 
			"-0.025": 0.0,
			"-0.024": 0.0,
			"-0.023": 0.0,
			"-0.022": 0.0,
			"-0.021": 0.0,
			"-0.02": 0.0,
			"-0.019": 0.0,
			"-0.018": 0.0,
			"-0.017": 0.0,
			"-0.016": 0.0,
			"-0.015": 0.0,
			"-0.014": 0.0,
			"-0.013": 0.0,
			"-0.012": 0.0,
			"-0.011": 0.0,
			"-0.01": 0.0,
			"-0.009": 0.131836187079,
			"-0.008": 5.33233610971,
			"-0.007": 6.87259161388,
			"-0.006": 6.37652901472,
			"-0.005": 11.3781522353,
			"-0.004": 26.8665315854,
			"-0.003": 39.2515982482,
			"-0.002": 35.8174205515,
			"-0.001": 29.1293549479,
			"0.0": 31.9745454745,
			"0.001": 26.9093685512,
			"0.002": 10.4431067066,
			"0.003": 5.37411908955,
			"0.004": 6.21992866541,
			"0.005": 5.57741557444,
			"0.006": 5.58815316751,
			"0.007": 4.94280133723,
			"0.008": 4.73195881369,
			"0.009": 5.2392291714,
			"0.01": 4.10550851864,
			"0.011": 4.37505994395,
			"0.012": 4.44341156207,
			"0.013": 4.60622213683,
			"0.014": 2.96799246526,
			"0.015": 0.0804400030616,
			"0.016": 0.0,
			"0.017": 0.0,
			"0.018": 0.0,
			"0.019": 0.0,
			"0.02": 0.0,
			"0.021": 0.0,
			"0.022": 0.0,
			"0.023": 0.0,
			"0.024": 0.0,
			"0.025": 0.0
		}
	}
}
