{
	 "smiles": "CC(C)(O)C12CC3CC(CC(C3)C1)C2", 
	 "Tm": 348.15, 
	 "num_atms": 36, 
	 "gaussian": { 
		 "optdone": 1, 
		 "sigma_profile": "yes", 
		 "theory": "DFT", 
		 "functional": "B3LYP", 
		 "basiset": "6-31G**", 
		 "properties": { 
			 "R2extent": 2912.4236, 
			 "electric_dipole_moment_norm": 1.39711624069, 
			 "electric_quadrupole_moment_norm": 4.63040310772, 
			 "total_energy": -583.897211732, 
			 "HOMO_LUMO_gap": 0.3156, 
			 "cosmo_polarized_energy": -5.35, 
			 "cosmo_cavitation_energy": 30.81, 
			 "cosmo_dispersion_energy": -23.21, 
			 "cosmo_repulsion_energy": 1.76, 
			 "cosmo_total_nonelectrostatic_energy": 9.36, 
			 "SMD_solvation_energy": 3.92 
		},
		"coords": [
			{
				"x": 1.4060712451,
				"y": -1.2376355693,
				"z": -0.9512135891,
				"element": "C" 
			},
			{
				"x": -0.127506823,
				"y": -1.1453045873,
				"z": -0.8373614428,
				"element": "C" 
			},
			{
				"x": -0.6458936781,
				"y": -2.4226233005,
				"z": -0.1601358012,
				"element": "C" 
			},
			{
				"x": -0.6909013784,
				"y": -1.208920919,
				"z": -2.1621760803,
				"element": "O" 
			},
			{
				"x": -0.6158322161,
				"y": 0.1771048192,
				"z": -0.1231378343,
				"element": "C" 
			},
			{
				"x": -2.1626582464,
				"y": 0.1773057703,
				"z": 0.0200118545,
				"element": "C" 
			},
			{
				"x": -2.6663623172,
				"y": 1.4777087223,
				"z": 0.678999827,
				"element": "C" 
			},
			{
				"x": -2.0451777205,
				"y": 1.6059293324,
				"z": 2.0846781118,
				"element": "C" 
			},
			{
				"x": -0.5089171176,
				"y": 1.646240306,
				"z": 1.9621436731,
				"element": "C" 
			},
			{
				"x": -0.0969491898,
				"y": 2.860486204,
				"z": 1.1066174048,
				"element": "C" 
			},
			{
				"x": -0.722537068,
				"y": 2.7305801631,
				"z": -0.2961200359,
				"element": "C" 
			},
			{
				"x": -2.2577791347,
				"y": 2.6918450574,
				"z": -0.1761968879,
				"element": "C" 
			},
			{
				"x": -0.2263536121,
				"y": 1.4293026358,
				"z": -0.9607818994,
				"element": "C" 
			},
			{
				"x": -0.0016715978,
				"y": 0.3492472941,
				"z": 1.2925398752,
				"element": "C" 
			},
			{
				"x": 1.6617799875,
				"y": -2.1200477973,
				"z": -1.5448841467,
				"element": "H" 
			},
			{
				"x": 1.8872743606,
				"y": -1.3363247513,
				"z": 0.025816171,
				"element": "H" 
			},
			{
				"x": 1.8392783196,
				"y": -0.363536709,
				"z": -1.4485868666,
				"element": "H" 
			},
			{
				"x": -0.2255238115,
				"y": -3.2945543908,
				"z": -0.6691850582,
				"element": "H" 
			},
			{
				"x": -0.3588608129,
				"y": -2.4708076208,
				"z": 0.8935956901,
				"element": "H" 
			},
			{
				"x": -1.7327110586,
				"y": -2.4928822384,
				"z": -0.2326937058,
				"element": "H" 
			},
			{
				"x": -0.2376179076,
				"y": -0.5543627704,
				"z": -2.7084591146,
				"element": "H" 
			},
			{
				"x": -2.4821682321,
				"y": -0.6713604283,
				"z": 0.6353294284,
				"element": "H" 
			},
			{
				"x": -2.614214971,
				"y": 0.041562517,
				"z": -0.9690167048,
				"element": "H" 
			},
			{
				"x": -3.7601296599,
				"y": 1.4362605516,
				"z": 0.7619860714,
				"element": "H" 
			},
			{
				"x": -2.4078027107,
				"y": 2.5162944359,
				"z": 2.5801944196,
				"element": "H" 
			},
			{
				"x": -2.3523542682,
				"y": 0.758026344,
				"z": 2.7112389024,
				"element": "H" 
			},
			{
				"x": -0.0608363249,
				"y": 1.7299856445,
				"z": 2.9607236999,
				"element": "H" 
			},
			{
				"x": -0.4297285832,
				"y": 3.79128196,
				"z": 1.5844812376,
				"element": "H" 
			},
			{
				"x": 0.9972341701,
				"y": 2.9153053782,
				"z": 1.0292482219,
				"element": "H" 
			},
			{
				"x": -0.4204088612,
				"y": 3.5850725292,
				"z": -0.9155484022,
				"element": "H" 
			},
			{
				"x": -2.7128223383,
				"y": 2.6224753182,
				"z": -1.1730501728,
				"element": "H" 
			},
			{
				"x": -2.6259892571,
				"y": 3.6205570889,
				"z": 0.2795651217,
				"element": "H" 
			},
			{
				"x": 0.862225279,
				"y": 1.4866209834,
				"z": -1.083761111,
				"element": "H" 
			},
			{
				"x": -0.6641962314,
				"y": 1.3547369794,
				"z": -1.9645690847,
				"element": "H" 
			},
			{
				"x": -0.2588097565,
				"y": -0.5096970697,
				"z": 1.9246756019,
				"element": "H" 
			},
			{
				"x": 1.0930515233,
				"y": 0.3831281169,
				"z": 1.2328326262,
				"element": "H" 
			}
		],
		 "valence_orbital": [ 
			{
				"type": "occ",
				"energy": -0.30729,
				"method": "rhf"
			},
			{
				"type": "occ",
				"energy": -0.28985,
				"method": "rhf"
			},
			{
				"type": "occ",
				"energy": -0.27391,
				"method": "rhf"
			},
			{
				"type": "occ",
				"energy": -0.27146,
				"method": "rhf"
			},
			{
				"type": "occ",
				"energy": -0.25089,
				"method": "rhf"
			},
			{
				"type": "unocc",
				"energy": 0.06471,
				"method": "rhf"
			},
			{
				"type": "unocc",
				"energy": 0.088,
				"method": "rhf"
			},
			{
				"type": "unocc",
				"energy": 0.10746,
				"method": "rhf"
			},
			{
				"type": "unocc",
				"energy": 0.11595,
				"method": "rhf"
			},
			{
				"type": "unocc",
				"energy": 0.12292,
				"method": "rhf"
			}
		],
		"cosmo_sigma_profile": { 
			"-0.025": 0.0,
			"-0.024": 0.0,
			"-0.023": 0.0,
			"-0.022": 0.0,
			"-0.021": 0.0,
			"-0.02": 0.0,
			"-0.019": 0.0,
			"-0.018": 0.0,
			"-0.017": 0.0,
			"-0.016": 0.0,
			"-0.015": 0.0,
			"-0.014": 0.164533828055,
			"-0.013": 0.978422952761,
			"-0.012": 0.286654442419,
			"-0.011": 1.15886273172,
			"-0.01": 0.875581895202,
			"-0.009": 1.01448766619,
			"-0.008": 0.741810413285,
			"-0.007": 0.864401170682,
			"-0.006": 1.05976600596,
			"-0.005": 2.11609651483,
			"-0.004": 2.56460503317,
			"-0.003": 10.158478908,
			"-0.002": 30.6346780603,
			"-0.001": 53.7623220695,
			"0.0": 47.7544462497,
			"0.001": 43.9950312692,
			"0.002": 18.17154018,
			"0.003": 2.04543073005,
			"0.004": 1.8380463664,
			"0.005": 1.84679179311,
			"0.006": 1.22317039206,
			"0.007": 0.893842225219,
			"0.008": 1.76641749352,
			"0.009": 1.19602290462,
			"0.01": 1.14110861582,
			"0.011": 1.43479566255,
			"0.012": 1.02315000147,
			"0.013": 1.24987728223,
			"0.014": 1.49335831716,
			"0.015": 1.10654168767,
			"0.016": 0.0,
			"0.017": 0.0,
			"0.018": 0.0,
			"0.019": 0.0,
			"0.02": 0.0,
			"0.021": 0.0,
			"0.022": 0.0,
			"0.023": 0.0,
			"0.024": 0.0,
			"0.025": 0.0
		}
	}
}
