{
	 "smiles": "CCOC(=O)C=CC1=CC=C(C=CC(=O)OCC)C(N)=C1", 
	 "Tm": 451.15, 
	 "num_atms": 40, 
	 "gaussian": { 
		 "optdone": 1, 
		 "sigma_profile": "yes", 
		 "theory": "DFT", 
		 "functional": "B3LYP", 
		 "basiset": "6-31G**", 
		 "properties": { 
			 "R2extent": 14898.0419, 
			 "electric_dipole_moment_norm": 2.38006383528, 
			 "electric_quadrupole_moment_norm": 15.1485118784, 
			 "total_energy": -976.815366919, 
			 "HOMO_LUMO_gap": 0.13062, 
			 "cosmo_polarized_energy": -18.01, 
			 "cosmo_cavitation_energy": 45.6, 
			 "cosmo_dispersion_energy": -32.36, 
			 "cosmo_repulsion_energy": 2.52, 
			 "cosmo_total_nonelectrostatic_energy": 15.76, 
			 "SMD_solvation_energy": 10.07 
		},
		"coords": [
			{
				"x": 5.3194751105,
				"y": -5.6588817142,
				"z": 1.9891822364,
				"element": "C" 
			},
			{
				"x": 5.8487188358,
				"y": -4.3024003937,
				"z": 1.5470583213,
				"element": "C" 
			},
			{
				"x": 4.7880287723,
				"y": -3.4603324814,
				"z": 1.0418076335,
				"element": "O" 
			},
			{
				"x": 4.4620099138,
				"y": -3.6218811406,
				"z": -0.2654451061,
				"element": "C" 
			},
			{
				"x": 5.0154842967,
				"y": -4.4151338833,
				"z": -1.0061017222,
				"element": "O" 
			},
			{
				"x": 3.3689316609,
				"y": -2.7338013134,
				"z": -0.706404924,
				"element": "C" 
			},
			{
				"x": 2.7370228316,
				"y": -1.8519354747,
				"z": 0.0913863616,
				"element": "C" 
			},
			{
				"x": 1.6497011095,
				"y": -0.9436457165,
				"z": -0.2766902364,
				"element": "C" 
			},
			{
				"x": 1.1055522218,
				"y": -0.1094261796,
				"z": 0.720451702,
				"element": "C" 
			},
			{
				"x": 0.0684736172,
				"y": 0.7573563761,
				"z": 0.4156966666,
				"element": "C" 
			},
			{
				"x": -0.4729673934,
				"y": 0.8433356499,
				"z": -0.8794526323,
				"element": "C" 
			},
			{
				"x": -1.6024308487,
				"y": 1.7139643872,
				"z": -1.1855437212,
				"element": "C" 
			},
			{
				"x": -1.9913896733,
				"y": 2.8106702852,
				"z": -0.5054890117,
				"element": "C" 
			},
			{
				"x": -3.1892765677,
				"y": 3.5594563641,
				"z": -0.9340255111,
				"element": "C" 
			},
			{
				"x": -3.8890675467,
				"y": 3.2906091484,
				"z": -1.8951497871,
				"element": "O" 
			},
			{
				"x": -3.4162639634,
				"y": 4.6095851451,
				"z": -0.1057018545,
				"element": "O" 
			},
			{
				"x": -4.5623510868,
				"y": 5.4346566457,
				"z": -0.413617028,
				"element": "C" 
			},
			{
				"x": -4.2171755701,
				"y": 6.5029787305,
				"z": -1.4412472424,
				"element": "C" 
			},
			{
				"x": 0.0875129968,
				"y": 0.0178707047,
				"z": -1.8978329017,
				"element": "C" 
			},
			{
				"x": -0.4155780621,
				"y": 0.050858543,
				"z": -3.1943526614,
				"element": "N" 
			},
			{
				"x": 1.1298680841,
				"y": -0.8597343855,
				"z": -1.5756714129,
				"element": "C" 
			},
			{
				"x": 4.5255101087,
				"y": -5.5442780447,
				"z": 2.733163048,
				"element": "H" 
			},
			{
				"x": 6.1284274723,
				"y": -6.2459571788,
				"z": 2.43695856,
				"element": "H" 
			},
			{
				"x": 4.9264413346,
				"y": -6.2132483559,
				"z": 1.1336306004,
				"element": "H" 
			},
			{
				"x": 6.6110911551,
				"y": -4.4125408889,
				"z": 0.7721371455,
				"element": "H" 
			},
			{
				"x": 6.2640378965,
				"y": -3.7417500551,
				"z": 2.3882921934,
				"element": "H" 
			},
			{
				"x": 3.1149577524,
				"y": -2.8627986838,
				"z": -1.7534059103,
				"element": "H" 
			},
			{
				"x": 3.0584575585,
				"y": -1.7978022629,
				"z": 1.128769578,
				"element": "H" 
			},
			{
				"x": 1.4919581796,
				"y": -0.1630797649,
				"z": 1.7337529262,
				"element": "H" 
			},
			{
				"x": -0.3670174694,
				"y": 1.3652705988,
				"z": 1.2025076257,
				"element": "H" 
			},
			{
				"x": -2.2149580781,
				"y": 1.4498630959,
				"z": -2.0464452297,
				"element": "H" 
			},
			{
				"x": -1.4537491497,
				"y": 3.1944230279,
				"z": 0.3553561974,
				"element": "H" 
			},
			{
				"x": -5.3729504063,
				"y": 4.7947837042,
				"z": -0.770810901,
				"element": "H" 
			},
			{
				"x": -4.8444663576,
				"y": 5.878395953,
				"z": 0.5444490522,
				"element": "H" 
			},
			{
				"x": -5.0787578204,
				"y": 7.1605634218,
				"z": -1.5985576132,
				"element": "H" 
			},
			{
				"x": -3.3760726075,
				"y": 7.1141401291,
				"z": -1.1006138773,
				"element": "H" 
			},
			{
				"x": -3.9574347804,
				"y": 6.0433778872,
				"z": -2.3979021392,
				"element": "H" 
			},
			{
				"x": 0.1475241885,
				"y": -0.4219714361,
				"z": -3.8868863133,
				"element": "H" 
			},
			{
				"x": -0.7583677136,
				"y": 0.9409845065,
				"z": -3.5242843225,
				"element": "H" 
			},
			{
				"x": 1.545289998,
				"y": -1.47944495,
				"z": -2.3653677886,
				"element": "H" 
			}
		],
		 "valence_orbital": [ 
			{
				"type": "occ",
				"energy": -0.27656,
				"method": "rhf"
			},
			{
				"type": "occ",
				"energy": -0.2691,
				"method": "rhf"
			},
			{
				"type": "occ",
				"energy": -0.26681,
				"method": "rhf"
			},
			{
				"type": "occ",
				"energy": -0.23574,
				"method": "rhf"
			},
			{
				"type": "occ",
				"energy": -0.21288,
				"method": "rhf"
			},
			{
				"type": "unocc",
				"energy": -0.08226,
				"method": "rhf"
			},
			{
				"type": "unocc",
				"energy": -0.03524,
				"method": "rhf"
			},
			{
				"type": "unocc",
				"energy": -0.00026,
				"method": "rhf"
			},
			{
				"type": "unocc",
				"energy": 0.0344,
				"method": "rhf"
			},
			{
				"type": "unocc",
				"energy": 0.07025,
				"method": "rhf"
			}
		],
		"cosmo_sigma_profile": { 
			"-0.025": 0.0,
			"-0.024": 0.0,
			"-0.023": 0.0,
			"-0.022": 0.0,
			"-0.021": 0.0,
			"-0.02": 0.0,
			"-0.019": 0.0,
			"-0.018": 0.0,
			"-0.017": 0.0,
			"-0.016": 0.0,
			"-0.015": 0.0,
			"-0.014": 0.0169367373201,
			"-0.013": 1.97542677791,
			"-0.012": 2.83446059677,
			"-0.011": 3.18587340317,
			"-0.01": 3.10915942548,
			"-0.009": 3.12911469955,
			"-0.008": 5.59968739366,
			"-0.007": 7.9147044438,
			"-0.006": 11.7387439004,
			"-0.005": 16.603539245,
			"-0.004": 27.045273304,
			"-0.003": 31.0450098955,
			"-0.002": 29.5941364023,
			"-0.001": 31.5052969713,
			"0.0": 34.3967217629,
			"0.001": 28.8373119277,
			"0.002": 25.3757175428,
			"0.003": 24.0667798898,
			"0.004": 19.9979536972,
			"0.005": 9.19504526254,
			"0.006": 7.72171770784,
			"0.007": 5.65353650014,
			"0.008": 4.25776703785,
			"0.009": 4.14039901873,
			"0.01": 4.47168241379,
			"0.011": 3.7497129829,
			"0.012": 9.18804571065,
			"0.013": 4.66491797366,
			"0.014": 0.254859359397,
			"0.015": 0.0,
			"0.016": 0.0,
			"0.017": 0.0,
			"0.018": 0.0,
			"0.019": 0.0,
			"0.02": 0.0,
			"0.021": 0.0,
			"0.022": 0.0,
			"0.023": 0.0,
			"0.024": 0.0,
			"0.025": 0.0
		}
	}
}
