{
	 "smiles": "CC1=CC2=NSN=C2C=C1Cl", 
	 "Tm": 358.65, 
	 "num_atms": 16, 
	 "gaussian": { 
		 "optdone": 1, 
		 "sigma_profile": "yes", 
		 "theory": "DFT", 
		 "functional": "B3LYP", 
		 "basiset": "6-31G**", 
		 "properties": { 
			 "R2extent": 2873.2619, 
			 "electric_dipole_moment_norm": 1.47432974263, 
			 "electric_quadrupole_moment_norm": 5.00320008195, 
			 "total_energy": -1237.62281796, 
			 "HOMO_LUMO_gap": 0.15382, 
			 "cosmo_polarized_energy": -5.32, 
			 "cosmo_cavitation_energy": 23.57, 
			 "cosmo_dispersion_energy": -18.55, 
			 "cosmo_repulsion_energy": 1.4, 
			 "cosmo_total_nonelectrostatic_energy": 6.43, 
			 "SMD_solvation_energy": 0.41 
		},
		"coords": [
			{
				"x": -2.3343387519,
				"y": -1.8724803251,
				"z": 2.2337416554,
				"element": "C" 
			},
			{
				"x": -1.766995006,
				"y": -0.9092785061,
				"z": 1.2242913321,
				"element": "C" 
			},
			{
				"x": -1.7833573806,
				"y": -1.2043951993,
				"z": -0.1185398476,
				"element": "C" 
			},
			{
				"x": -1.2433441409,
				"y": -0.2838737559,
				"z": -1.0603328359,
				"element": "C" 
			},
			{
				"x": -1.1945131159,
				"y": -0.4430260071,
				"z": -2.3887500374,
				"element": "N" 
			},
			{
				"x": -0.4758272266,
				"y": 0.9108543484,
				"z": -2.9846993515,
				"element": "S" 
			},
			{
				"x": -0.2031001548,
				"y": 1.7393106866,
				"z": -1.590407353,
				"element": "N" 
			},
			{
				"x": -0.6749964236,
				"y": 0.9669443667,
				"z": -0.6040448413,
				"element": "C" 
			},
			{
				"x": -0.6586007493,
				"y": 1.2712351906,
				"z": 0.7858725754,
				"element": "C" 
			},
			{
				"x": -1.1916344185,
				"y": 0.3492263705,
				"z": 1.6464312252,
				"element": "C" 
			},
			{
				"x": -1.1748059846,
				"y": 0.7186299219,
				"z": 3.3664641632,
				"element": "Cl" 
			},
			{
				"x": -3.1467120664,
				"y": -1.4142712523,
				"z": 2.807702348,
				"element": "H" 
			},
			{
				"x": -1.5736945117,
				"y": -2.1839285012,
				"z": 2.9574586625,
				"element": "H" 
			},
			{
				"x": -2.7228199545,
				"y": -2.7633953219,
				"z": 1.7357197873,
				"element": "H" 
			},
			{
				"x": -2.2058534919,
				"y": -2.137704749,
				"z": -0.4752060585,
				"element": "H" 
			},
			{
				"x": -0.2359066227,
				"y": 2.2039527331,
				"z": 1.1382985759,
				"element": "H" 
			}
		],
		 "valence_orbital": [ 
			{
				"type": "occ",
				"energy": -0.32752,
				"method": "rhf"
			},
			{
				"type": "occ",
				"energy": -0.32364,
				"method": "rhf"
			},
			{
				"type": "occ",
				"energy": -0.30514,
				"method": "rhf"
			},
			{
				"type": "occ",
				"energy": -0.26128,
				"method": "rhf"
			},
			{
				"type": "occ",
				"energy": -0.24559,
				"method": "rhf"
			},
			{
				"type": "unocc",
				"energy": -0.09177,
				"method": "rhf"
			},
			{
				"type": "unocc",
				"energy": -0.00403,
				"method": "rhf"
			},
			{
				"type": "unocc",
				"energy": 0.00065,
				"method": "rhf"
			},
			{
				"type": "unocc",
				"energy": 0.0048,
				"method": "rhf"
			},
			{
				"type": "unocc",
				"energy": 0.02354,
				"method": "rhf"
			}
		],
		"cosmo_sigma_profile": { 
			"-0.025": 0.0,
			"-0.024": 0.0,
			"-0.023": 0.0,
			"-0.022": 0.0,
			"-0.021": 0.0,
			"-0.02": 0.0,
			"-0.019": 0.0,
			"-0.018": 0.0,
			"-0.017": 0.0,
			"-0.016": 0.0,
			"-0.015": 0.0,
			"-0.014": 0.0,
			"-0.013": 0.0,
			"-0.012": 0.0,
			"-0.011": 0.0,
			"-0.01": 0.0,
			"-0.009": 0.425399755838,
			"-0.008": 1.90915592606,
			"-0.007": 3.5943276613,
			"-0.006": 4.16756998467,
			"-0.005": 8.10024715431,
			"-0.004": 13.914279931,
			"-0.003": 16.2048518519,
			"-0.002": 21.4327888683,
			"-0.001": 28.2456249728,
			"0.0": 23.2437054622,
			"0.001": 20.7248098205,
			"0.002": 13.135290833,
			"0.003": 9.86260432939,
			"0.004": 10.2800546247,
			"0.005": 3.39325668594,
			"0.006": 2.32061427205,
			"0.007": 1.75565390708,
			"0.008": 2.17608734728,
			"0.009": 2.66476878591,
			"0.01": 1.54630233493,
			"0.011": 1.87732533688,
			"0.012": 2.22115774334,
			"0.013": 1.29790570898,
			"0.014": 0.0474008076697,
			"0.015": 0.0,
			"0.016": 0.0,
			"0.017": 0.0,
			"0.018": 0.0,
			"0.019": 0.0,
			"0.02": 0.0,
			"0.021": 0.0,
			"0.022": 0.0,
			"0.023": 0.0,
			"0.024": 0.0,
			"0.025": 0.0
		}
	}
}
