{
	 "smiles": "COC(=O)C(=O)CC(=O)C1=C(F)C=CC(F)=C1", 
	 "Tm": 419.15, 
	 "num_atms": 25, 
	 "gaussian": { 
		 "optdone": 1, 
		 "sigma_profile": "yes", 
		 "theory": "DFT", 
		 "functional": "B3LYP", 
		 "basiset": "6-31G**", 
		 "properties": { 
			 "R2extent": 4557.9691, 
			 "electric_dipole_moment_norm": 2.986231776, 
			 "electric_quadrupole_moment_norm": 14.4173500058, 
			 "total_energy": -924.536089075, 
			 "HOMO_LUMO_gap": 0.17136, 
			 "cosmo_polarized_energy": -13.97, 
			 "cosmo_cavitation_energy": 31.57, 
			 "cosmo_dispersion_energy": -21.86, 
			 "cosmo_repulsion_energy": 1.67, 
			 "cosmo_total_nonelectrostatic_energy": 11.38, 
			 "SMD_solvation_energy": 8.93 
		},
		"coords": [
			{
				"x": 3.2709320657,
				"y": 0.6846864017,
				"z": 1.0116153417,
				"element": "C" 
			},
			{
				"x": 2.8227819983,
				"y": -0.6240422165,
				"z": 0.6081845121,
				"element": "O" 
			},
			{
				"x": 1.5260444565,
				"y": -0.8633937316,
				"z": 0.7897372337,
				"element": "C" 
			},
			{
				"x": 0.7242893761,
				"y": -0.0808634624,
				"z": 1.2580973906,
				"element": "O" 
			},
			{
				"x": 1.1338956151,
				"y": -2.2816279808,
				"z": 0.3261246367,
				"element": "C" 
			},
			{
				"x": 1.9440396636,
				"y": -3.0081748251,
				"z": -0.197271297,
				"element": "O" 
			},
			{
				"x": -0.292989215,
				"y": -2.7421006502,
				"z": 0.6220856931,
				"element": "C" 
			},
			{
				"x": -1.3977161027,
				"y": -1.7393862199,
				"z": 0.9553090342,
				"element": "C" 
			},
			{
				"x": -1.9331400286,
				"y": -1.7880501625,
				"z": 2.0494952537,
				"element": "O" 
			},
			{
				"x": -1.9339696964,
				"y": -0.8008803936,
				"z": -0.0914351184,
				"element": "C" 
			},
			{
				"x": -1.3670036089,
				"y": -0.5776485066,
				"z": -1.3493880271,
				"element": "C" 
			},
			{
				"x": -0.2215749004,
				"y": -1.2185391211,
				"z": -1.6978536038,
				"element": "F" 
			},
			{
				"x": -1.9204241792,
				"y": 0.2927446004,
				"z": -2.2802242838,
				"element": "C" 
			},
			{
				"x": -3.0887446146,
				"y": 0.9790717082,
				"z": -1.9568384397,
				"element": "C" 
			},
			{
				"x": -3.6613202608,
				"y": 0.7718491042,
				"z": -0.7035750265,
				"element": "C" 
			},
			{
				"x": -4.7902015968,
				"y": 1.4373666428,
				"z": -0.3884737362,
				"element": "F" 
			},
			{
				"x": -3.1061455548,
				"y": -0.0954644774,
				"z": 0.2218819386,
				"element": "C" 
			},
			{
				"x": 2.750813311,
				"y": 1.456668458,
				"z": 0.4394723456,
				"element": "H" 
			},
			{
				"x": 3.0796270942,
				"y": 0.8402587823,
				"z": 2.0759877389,
				"element": "H" 
			},
			{
				"x": 4.3395918894,
				"y": 0.7030801654,
				"z": 0.8033656051,
				"element": "H" 
			},
			{
				"x": -0.2283196149,
				"y": -3.4027914992,
				"z": 1.4943848786,
				"element": "H" 
			},
			{
				"x": -0.5893062266,
				"y": -3.3572615821,
				"z": -0.233636923,
				"element": "H" 
			},
			{
				"x": -1.4317004274,
				"y": 0.4235776162,
				"z": -3.23917694,
				"element": "H" 
			},
			{
				"x": -3.5533204007,
				"y": 1.6658614804,
				"z": -2.6555680423,
				"element": "H" 
			},
			{
				"x": -3.559939042,
				"y": -0.2435401307,
				"z": 1.1947998349,
				"element": "H" 
			}
		],
		 "valence_orbital": [ 
			{
				"type": "occ",
				"energy": -0.32463,
				"method": "rhf"
			},
			{
				"type": "occ",
				"energy": -0.27929,
				"method": "rhf"
			},
			{
				"type": "occ",
				"energy": -0.27331,
				"method": "rhf"
			},
			{
				"type": "occ",
				"energy": -0.2564,
				"method": "rhf"
			},
			{
				"type": "occ",
				"energy": -0.25333,
				"method": "rhf"
			},
			{
				"type": "unocc",
				"energy": -0.08197,
				"method": "rhf"
			},
			{
				"type": "unocc",
				"energy": -0.06731,
				"method": "rhf"
			},
			{
				"type": "unocc",
				"energy": -0.01425,
				"method": "rhf"
			},
			{
				"type": "unocc",
				"energy": 0.02451,
				"method": "rhf"
			},
			{
				"type": "unocc",
				"energy": 0.0502,
				"method": "rhf"
			}
		],
		"cosmo_sigma_profile": { 
			"-0.025": 0.0,
			"-0.024": 0.0,
			"-0.023": 0.0,
			"-0.022": 0.0,
			"-0.021": 0.0,
			"-0.02": 0.0,
			"-0.019": 0.0,
			"-0.018": 0.0,
			"-0.017": 0.0,
			"-0.016": 0.0,
			"-0.015": 0.0,
			"-0.014": 0.0,
			"-0.013": 0.0,
			"-0.012": 0.0,
			"-0.011": 0.00743267348698,
			"-0.01": 0.697055665152,
			"-0.009": 4.1653092757,
			"-0.008": 9.62623037192,
			"-0.007": 13.699471827,
			"-0.006": 16.9851092658,
			"-0.005": 15.4936561181,
			"-0.004": 18.8110017703,
			"-0.003": 13.3254707374,
			"-0.002": 12.3126721891,
			"-0.001": 17.4632581072,
			"0.0": 22.5464834492,
			"0.001": 18.0322501968,
			"0.002": 12.9760272234,
			"0.003": 12.8750054717,
			"0.004": 14.7560968138,
			"0.005": 5.50654756806,
			"0.006": 4.77250575246,
			"0.007": 6.63444395671,
			"0.008": 6.83433944912,
			"0.009": 9.02912993816,
			"0.01": 8.73647905397,
			"0.011": 5.99481105474,
			"0.012": 1.6622721493,
			"0.013": 0.0284984444002,
			"0.014": 0.0,
			"0.015": 0.0,
			"0.016": 0.0,
			"0.017": 0.0,
			"0.018": 0.0,
			"0.019": 0.0,
			"0.02": 0.0,
			"0.021": 0.0,
			"0.022": 0.0,
			"0.023": 0.0,
			"0.024": 0.0,
			"0.025": 0.0
		}
	}
}
