{
	 "smiles": "COC1=C(C=CC=C1)C1=NN(CC2=CC=CC=C2)C=C1C(O)=O", 
	 "Tm": 426.15, 
	 "num_atms": 39, 
	 "gaussian": { 
		 "optdone": 1, 
		 "sigma_profile": "yes", 
		 "theory": "DFT", 
		 "functional": "B3LYP", 
		 "basiset": "6-31G**", 
		 "properties": { 
			 "R2extent": 8446.9606, 
			 "electric_dipole_moment_norm": 1.20016964634, 
			 "electric_quadrupole_moment_norm": 20.7352259985, 
			 "total_energy": -1030.72364794, 
			 "HOMO_LUMO_gap": 0.19164, 
			 "cosmo_polarized_energy": -18.52, 
			 "cosmo_cavitation_energy": 44.02, 
			 "cosmo_dispersion_energy": -29.88, 
			 "cosmo_repulsion_energy": 2.31, 
			 "cosmo_total_nonelectrostatic_energy": 16.45, 
			 "SMD_solvation_energy": 8.49 
		},
		"coords": [
			{
				"x": -1.2037131759,
				"y": 0.7234155443,
				"z": 3.8944285448,
				"element": "C" 
			},
			{
				"x": -0.8754891532,
				"y": 0.1225587154,
				"z": 2.6539562255,
				"element": "O" 
			},
			{
				"x": -1.0474182245,
				"y": -1.2228001628,
				"z": 2.5142389147,
				"element": "C" 
			},
			{
				"x": -0.7927064236,
				"y": -1.7512519289,
				"z": 1.228736395,
				"element": "C" 
			},
			{
				"x": -0.8793906548,
				"y": -3.1339671113,
				"z": 1.042321352,
				"element": "C" 
			},
			{
				"x": -1.2415517786,
				"y": -3.988209946,
				"z": 2.0852988428,
				"element": "C" 
			},
			{
				"x": -1.5184737697,
				"y": -3.4505754258,
				"z": 3.3393617895,
				"element": "C" 
			},
			{
				"x": -1.420307431,
				"y": -2.0740361916,
				"z": 3.5596793373,
				"element": "C" 
			},
			{
				"x": -0.3880656998,
				"y": -0.884114595,
				"z": 0.1021420988,
				"element": "C" 
			},
			{
				"x": 0.711608319,
				"y": -1.1944012434,
				"z": -0.5899298854,
				"element": "N" 
			},
			{
				"x": 0.8124245373,
				"y": -0.2488967529,
				"z": -1.5607873996,
				"element": "N" 
			},
			{
				"x": 1.970995398,
				"y": -0.2582458487,
				"z": -2.4505363008,
				"element": "C" 
			},
			{
				"x": 3.1357535208,
				"y": 0.5763745562,
				"z": -1.9484397689,
				"element": "C" 
			},
			{
				"x": 3.6963126599,
				"y": 1.5654784752,
				"z": -2.762402036,
				"element": "C" 
			},
			{
				"x": 4.7850187277,
				"y": 2.3189485883,
				"z": -2.3168014615,
				"element": "C" 
			},
			{
				"x": 5.3168734266,
				"y": 2.0912026721,
				"z": -1.0478756649,
				"element": "C" 
			},
			{
				"x": 4.7581554358,
				"y": 1.1065336174,
				"z": -0.2279022059,
				"element": "C" 
			},
			{
				"x": 3.6759053088,
				"y": 0.3503958298,
				"z": -0.6748689937,
				"element": "C" 
			},
			{
				"x": -0.179765349,
				"y": 0.6596990356,
				"z": -1.4949157363,
				"element": "C" 
			},
			{
				"x": -1.0020471406,
				"y": 0.2876453225,
				"z": -0.4407130368,
				"element": "C" 
			},
			{
				"x": -2.2491036405,
				"y": 0.9964124799,
				"z": -0.1413923605,
				"element": "C" 
			},
			{
				"x": -3.0702377191,
				"y": 0.3339031105,
				"z": 0.70908859,
				"element": "O" 
			},
			{
				"x": -2.5617784466,
				"y": 2.0679590858,
				"z": -0.6314933105,
				"element": "O" 
			},
			{
				"x": -1.0279572144,
				"y": 1.7926579664,
				"z": 3.7660114209,
				"element": "H" 
			},
			{
				"x": -0.5682772931,
				"y": 0.3508391888,
				"z": 4.7084453669,
				"element": "H" 
			},
			{
				"x": -2.2564590703,
				"y": 0.5581475361,
				"z": 4.1572191452,
				"element": "H" 
			},
			{
				"x": -0.6639306985,
				"y": -3.5318062419,
				"z": 0.0558588392,
				"element": "H" 
			},
			{
				"x": -1.3113387627,
				"y": -5.0579887962,
				"z": 1.9152282859,
				"element": "H" 
			},
			{
				"x": -1.809018115,
				"y": -4.0987715225,
				"z": 4.1614588626,
				"element": "H" 
			},
			{
				"x": -1.6229753276,
				"y": -1.6764566391,
				"z": 4.5468730622,
				"element": "H" 
			},
			{
				"x": 2.2564548475,
				"y": -1.3089325606,
				"z": -2.5511048949,
				"element": "H" 
			},
			{
				"x": 1.6444106168,
				"y": 0.097262042,
				"z": -3.4319312349,
				"element": "H" 
			},
			{
				"x": 3.2816537379,
				"y": 1.7488144168,
				"z": -3.751050344,
				"element": "H" 
			},
			{
				"x": 5.2109806452,
				"y": 3.0846877927,
				"z": -2.9587664352,
				"element": "H" 
			},
			{
				"x": 6.1612483292,
				"y": 2.6777635382,
				"z": -0.6973691296,
				"element": "H" 
			},
			{
				"x": 5.1683713592,
				"y": 0.9262706561,
				"z": 0.7616644001,
				"element": "H" 
			},
			{
				"x": 3.236014473,
				"y": -0.4122902642,
				"z": -0.0387783983,
				"element": "H" 
			},
			{
				"x": -0.2670010657,
				"y": 1.4878997336,
				"z": -2.182242822,
				"element": "H" 
			},
			{
				"x": -3.8529751887,
				"y": 0.9019753274,
				"z": 0.8001899462,
				"element": "H" 
			}
		],
		 "valence_orbital": [ 
			{
				"type": "occ",
				"energy": -0.25429,
				"method": "rhf"
			},
			{
				"type": "occ",
				"energy": -0.25064,
				"method": "rhf"
			},
			{
				"type": "occ",
				"energy": -0.24844,
				"method": "rhf"
			},
			{
				"type": "occ",
				"energy": -0.23441,
				"method": "rhf"
			},
			{
				"type": "occ",
				"energy": -0.21065,
				"method": "rhf"
			},
			{
				"type": "unocc",
				"energy": -0.01901,
				"method": "rhf"
			},
			{
				"type": "unocc",
				"energy": -0.01224,
				"method": "rhf"
			},
			{
				"type": "unocc",
				"energy": -0.00606,
				"method": "rhf"
			},
			{
				"type": "unocc",
				"energy": -0.00184,
				"method": "rhf"
			},
			{
				"type": "unocc",
				"energy": 0.01606,
				"method": "rhf"
			}
		],
		"cosmo_sigma_profile": { 
			"-0.025": 0.0,
			"-0.024": 0.0,
			"-0.023": 0.0,
			"-0.022": 0.0,
			"-0.021": 0.0,
			"-0.02": 0.0,
			"-0.019": 0.0,
			"-0.018": 0.200839716646,
			"-0.017": 1.15188580356,
			"-0.016": 0.778170005718,
			"-0.015": 0.40114922699,
			"-0.014": 0.893244652704,
			"-0.013": 0.81952537562,
			"-0.012": 0.622886323842,
			"-0.011": 0.534047344171,
			"-0.01": 2.17194690809,
			"-0.009": 3.06135468602,
			"-0.008": 4.04791024167,
			"-0.007": 7.63971211614,
			"-0.006": 18.7026380256,
			"-0.005": 29.4813499735,
			"-0.004": 31.5790859499,
			"-0.003": 28.8203395225,
			"-0.002": 20.309059609,
			"-0.001": 20.0511266611,
			"0.0": 16.9516634785,
			"0.001": 23.3868501855,
			"0.002": 24.0335814941,
			"0.003": 21.5861583842,
			"0.004": 22.2988329131,
			"0.005": 24.4499791945,
			"0.006": 16.3664710943,
			"0.007": 6.20009616181,
			"0.008": 5.36595833384,
			"0.009": 4.9610409799,
			"0.01": 3.05755646057,
			"0.011": 2.72046251777,
			"0.012": 6.35423719098,
			"0.013": 2.27664268475,
			"0.014": 0.41483535941,
			"0.015": 0.0,
			"0.016": 0.0,
			"0.017": 0.0,
			"0.018": 0.0,
			"0.019": 0.0,
			"0.02": 0.0,
			"0.021": 0.0,
			"0.022": 0.0,
			"0.023": 0.0,
			"0.024": 0.0,
			"0.025": 0.0
		}
	}
}
