{
	 "smiles": "CN(C)S(=O)(=O)C1=CN(C)C=N1", 
	 "Tm": 393.15, 
	 "num_atms": 23, 
	 "gaussian": { 
		 "optdone": 1, 
		 "sigma_profile": "yes", 
		 "theory": "DFT", 
		 "functional": "B3LYP", 
		 "basiset": "6-31G**", 
		 "properties": { 
			 "R2extent": 2558.1568, 
			 "electric_dipole_moment_norm": 7.52867149835, 
			 "electric_quadrupole_moment_norm": 12.5428247552, 
			 "total_energy": -948.070886339, 
			 "HOMO_LUMO_gap": 0.23784, 
			 "cosmo_polarized_energy": -20.41, 
			 "cosmo_cavitation_energy": 27.64, 
			 "cosmo_dispersion_energy": -20.27, 
			 "cosmo_repulsion_energy": 1.57, 
			 "cosmo_total_nonelectrostatic_energy": 8.94, 
			 "SMD_solvation_energy": 3.05 
		},
		"coords": [
			{
				"x": -2.250369857,
				"y": -0.1568467951,
				"z": -2.291945864,
				"element": "C" 
			},
			{
				"x": -2.2166641825,
				"y": -1.2121214334,
				"z": -1.2786613369,
				"element": "N" 
			},
			{
				"x": -1.8027223532,
				"y": -2.5330543472,
				"z": -1.7669089544,
				"element": "C" 
			},
			{
				"x": -1.6689846746,
				"y": -0.7580126697,
				"z": 0.2447112637,
				"element": "S" 
			},
			{
				"x": -2.3426673536,
				"y": 0.4980121185,
				"z": 0.5896783534,
				"element": "O" 
			},
			{
				"x": -1.771297976,
				"y": -1.9408262677,
				"z": 1.0972911002,
				"element": "O" 
			},
			{
				"x": 0.0463957645,
				"y": -0.3274152089,
				"z": 0.0589972198,
				"element": "C" 
			},
			{
				"x": 0.6078964957,
				"y": 0.8820641627,
				"z": 0.3965151351,
				"element": "C" 
			},
			{
				"x": 1.9446955987,
				"y": 0.7441924249,
				"z": 0.1086295705,
				"element": "N" 
			},
			{
				"x": 2.9832212847,
				"y": 1.7448922393,
				"z": 0.3083034826,
				"element": "C" 
			},
			{
				"x": 2.1124583078,
				"y": -0.523210839,
				"z": -0.3878579954,
				"element": "C" 
			},
			{
				"x": 0.9855176253,
				"y": -1.1989838156,
				"z": -0.4310550457,
				"element": "N" 
			},
			{
				"x": -1.2634424456,
				"y": 0.0291917694,
				"z": -2.7427739411,
				"element": "H" 
			},
			{
				"x": -2.627409359,
				"y": 0.7627200381,
				"z": -1.8445571639,
				"element": "H" 
			},
			{
				"x": -2.9400181772,
				"y": -0.4671831331,
				"z": -3.0826663449,
				"element": "H" 
			},
			{
				"x": -2.5193187335,
				"y": -2.8470153792,
				"z": -2.5324665076,
				"element": "H" 
			},
			{
				"x": -1.8346265685,
				"y": -3.2452695668,
				"z": -0.9435850046,
				"element": "H" 
			},
			{
				"x": -0.7927786721,
				"y": -2.5219305911,
				"z": -2.1973013052,
				"element": "H" 
			},
			{
				"x": 0.1772347128,
				"y": 1.7821766236,
				"z": 0.8048905108,
				"element": "H" 
			},
			{
				"x": 2.756165602,
				"y": 2.6522717406,
				"z": -0.257869367,
				"element": "H" 
			},
			{
				"x": 3.077247852,
				"y": 1.9970155618,
				"z": 1.3681380133,
				"element": "H" 
			},
			{
				"x": 3.934261091,
				"y": 1.3408606381,
				"z": -0.0425203049,
				"element": "H" 
			},
			{
				"x": 3.0817060184,
				"y": -0.8891272701,
				"z": -0.6998855138,
				"element": "H" 
			}
		],
		 "valence_orbital": [ 
			{
				"type": "occ",
				"energy": -0.29603,
				"method": "rhf"
			},
			{
				"type": "occ",
				"energy": -0.28645,
				"method": "rhf"
			},
			{
				"type": "occ",
				"energy": -0.28582,
				"method": "rhf"
			},
			{
				"type": "occ",
				"energy": -0.25832,
				"method": "rhf"
			},
			{
				"type": "occ",
				"energy": -0.23927,
				"method": "rhf"
			},
			{
				"type": "unocc",
				"energy": -0.00143,
				"method": "rhf"
			},
			{
				"type": "unocc",
				"energy": 0.02152,
				"method": "rhf"
			},
			{
				"type": "unocc",
				"energy": 0.07213,
				"method": "rhf"
			},
			{
				"type": "unocc",
				"energy": 0.08289,
				"method": "rhf"
			},
			{
				"type": "unocc",
				"energy": 0.09478,
				"method": "rhf"
			}
		],
		"cosmo_sigma_profile": { 
			"-0.025": 0.0,
			"-0.024": 0.0,
			"-0.023": 0.0,
			"-0.022": 0.0,
			"-0.021": 0.0,
			"-0.02": 0.0,
			"-0.019": 0.0,
			"-0.018": 0.0,
			"-0.017": 0.0,
			"-0.016": 0.0,
			"-0.015": 0.0,
			"-0.014": 0.0,
			"-0.013": 0.0,
			"-0.012": 0.0,
			"-0.011": 0.120808816053,
			"-0.01": 3.67212703906,
			"-0.009": 4.72052678014,
			"-0.008": 4.91089317884,
			"-0.007": 9.13933192056,
			"-0.006": 15.4797369943,
			"-0.005": 15.907837525,
			"-0.004": 21.0731450509,
			"-0.003": 21.5406876241,
			"-0.002": 20.4822578396,
			"-0.001": 10.6140804767,
			"0.0": 9.81397014153,
			"0.001": 9.55991555771,
			"0.002": 6.10116997736,
			"0.003": 4.8201761726,
			"0.004": 4.79158115821,
			"0.005": 5.567460659,
			"0.006": 7.0275478877,
			"0.007": 5.78036283749,
			"0.008": 6.04806068125,
			"0.009": 5.83310378317,
			"0.01": 7.67972503604,
			"0.011": 10.1164934379,
			"0.012": 6.51955038608,
			"0.013": 0.953302223933,
			"0.014": 0.727912290213,
			"0.015": 0.121458997632,
			"0.016": 0.0,
			"0.017": 0.0,
			"0.018": 0.0,
			"0.019": 0.0,
			"0.02": 0.0,
			"0.021": 0.0,
			"0.022": 0.0,
			"0.023": 0.0,
			"0.024": 0.0,
			"0.025": 0.0
		}
	}
}
