{
	 "smiles": "CNC(=O)ON=C(C)SC", 
	 "Tm": 351.15, 
	 "num_atms": 20, 
	 "gaussian": { 
		 "optdone": 1, 
		 "sigma_profile": "yes", 
		 "theory": "DFT", 
		 "functional": "B3LYP", 
		 "basiset": "6-31G**", 
		 "properties": { 
			 "R2extent": 2682.0582, 
			 "electric_dipole_moment_norm": 3.24249005858, 
			 "electric_quadrupole_moment_norm": 13.0695234871, 
			 "total_energy": -854.658076164, 
			 "HOMO_LUMO_gap": 0.22045, 
			 "cosmo_polarized_energy": -14.41, 
			 "cosmo_cavitation_energy": 26.16, 
			 "cosmo_dispersion_energy": -19.07, 
			 "cosmo_repulsion_energy": 1.56, 
			 "cosmo_total_nonelectrostatic_energy": 8.64, 
			 "SMD_solvation_energy": 5.43 
		},
		"coords": [
			{
				"x": 3.6214424551,
				"y": 0.120904264,
				"z": 0.7566216369,
				"element": "C" 
			},
			{
				"x": 2.1849029846,
				"y": 0.3186033923,
				"z": 0.817309652,
				"element": "N" 
			},
			{
				"x": 1.3493395708,
				"y": -0.6874811521,
				"z": 1.206186813,
				"element": "C" 
			},
			{
				"x": 1.6537721174,
				"y": -1.8303773232,
				"z": 1.4492265011,
				"element": "O" 
			},
			{
				"x": 0.0569433075,
				"y": -0.1730850985,
				"z": 1.2176280304,
				"element": "O" 
			},
			{
				"x": -0.843977803,
				"y": -1.0248752652,
				"z": 1.8911967359,
				"element": "N" 
			},
			{
				"x": -2.0681163854,
				"y": -0.7009608837,
				"z": 1.6906465566,
				"element": "C" 
			},
			{
				"x": -3.0939908709,
				"y": -1.4623408575,
				"z": 2.4906945395,
				"element": "C" 
			},
			{
				"x": -2.7626260761,
				"y": 0.5675512502,
				"z": 0.6383586606,
				"element": "S" 
			},
			{
				"x": -1.7274155677,
				"y": 0.5684554792,
				"z": -0.87524641,
				"element": "C" 
			},
			{
				"x": 4.0358291156,
				"y": 0.6073777458,
				"z": -0.131579575,
				"element": "H" 
			},
			{
				"x": 4.131381414,
				"y": 0.5127970401,
				"z": 1.6456473434,
				"element": "H" 
			},
			{
				"x": 3.8078774109,
				"y": -0.9517003988,
				"z": 0.6970913139,
				"element": "H" 
			},
			{
				"x": 1.8110118702,
				"y": 1.2554805478,
				"z": 0.8231491131,
				"element": "H" 
			},
			{
				"x": -2.5890671074,
				"y": -2.1306921658,
				"z": 3.1903438776,
				"element": "H" 
			},
			{
				"x": -3.7283549487,
				"y": -0.7693294619,
				"z": 3.0548333013,
				"element": "H" 
			},
			{
				"x": -3.7464422723,
				"y": -2.0417975884,
				"z": 1.8305294013,
				"element": "H" 
			},
			{
				"x": -2.3263407494,
				"y": 1.095019396,
				"z": -1.6217607694,
				"element": "H" 
			},
			{
				"x": -1.550362486,
				"y": -0.4524089177,
				"z": -1.2152955687,
				"element": "H" 
			},
			{
				"x": -0.7798059791,
				"y": 1.0791599973,
				"z": -0.7203811535,
				"element": "H" 
			}
		],
		 "valence_orbital": [ 
			{
				"type": "occ",
				"energy": -0.29281,
				"method": "rhf"
			},
			{
				"type": "occ",
				"energy": -0.27593,
				"method": "rhf"
			},
			{
				"type": "occ",
				"energy": -0.26903,
				"method": "rhf"
			},
			{
				"type": "occ",
				"energy": -0.25735,
				"method": "rhf"
			},
			{
				"type": "occ",
				"energy": -0.23436,
				"method": "rhf"
			},
			{
				"type": "unocc",
				"energy": -0.01391,
				"method": "rhf"
			},
			{
				"type": "unocc",
				"energy": 0.0334,
				"method": "rhf"
			},
			{
				"type": "unocc",
				"energy": 0.05257,
				"method": "rhf"
			},
			{
				"type": "unocc",
				"energy": 0.06563,
				"method": "rhf"
			},
			{
				"type": "unocc",
				"energy": 0.07978,
				"method": "rhf"
			}
		],
		"cosmo_sigma_profile": { 
			"-0.025": 0.0,
			"-0.024": 0.0,
			"-0.023": 0.0,
			"-0.022": 0.0,
			"-0.021": 0.0,
			"-0.02": 0.0,
			"-0.019": 0.0,
			"-0.018": 0.0,
			"-0.017": 0.0,
			"-0.016": 0.0,
			"-0.015": 0.295068203626,
			"-0.014": 1.37653545715,
			"-0.013": 0.448380479223,
			"-0.012": 0.877274702545,
			"-0.011": 1.43237898455,
			"-0.01": 0.775288350141,
			"-0.009": 0.920352430066,
			"-0.008": 0.739719203513,
			"-0.007": 3.65150476884,
			"-0.006": 9.99060046733,
			"-0.005": 17.5482137059,
			"-0.004": 19.1517157515,
			"-0.003": 21.3453472908,
			"-0.002": 26.6024186232,
			"-0.001": 19.3265243365,
			"0.0": 10.2280719214,
			"0.001": 8.47778718148,
			"0.002": 7.33316651825,
			"0.003": 7.95788206495,
			"0.004": 8.66857555012,
			"0.005": 7.53494503196,
			"0.006": 5.64065094353,
			"0.007": 4.67907036488,
			"0.008": 4.05360887643,
			"0.009": 1.34462140239,
			"0.01": 1.77494960233,
			"0.011": 2.19567918963,
			"0.012": 4.58181558037,
			"0.013": 4.4800779935,
			"0.014": 1.78981157454,
			"0.015": 1.37246084753,
			"0.016": 1.2392439858,
			"0.017": 0.651138913248,
			"0.018": 0.00275048275166,
			"0.019": 0.0,
			"0.02": 0.0,
			"0.021": 0.0,
			"0.022": 0.0,
			"0.023": 0.0,
			"0.024": 0.0,
			"0.025": 0.0
		}
	}
}
