{
	 "smiles": "CC1(C)C2CCC1(C)C(=O)C2=CC(N)=O", 
	 "Tm": 425.15, 
	 "num_atms": 32, 
	 "gaussian": { 
		 "optdone": 1, 
		 "sigma_profile": "yes", 
		 "theory": "DFT", 
		 "functional": "B3LYP", 
		 "basiset": "6-31G**", 
		 "properties": { 
			 "R2extent": 3547.5088, 
			 "electric_dipole_moment_norm": 0.671019478108, 
			 "electric_quadrupole_moment_norm": 21.7423779822, 
			 "total_energy": -672.729280467, 
			 "HOMO_LUMO_gap": 0.16693, 
			 "cosmo_polarized_energy": -14.88, 
			 "cosmo_cavitation_energy": 32.55, 
			 "cosmo_dispersion_energy": -22.63, 
			 "cosmo_repulsion_energy": 1.77, 
			 "cosmo_total_nonelectrostatic_energy": 11.69, 
			 "SMD_solvation_energy": 6.84 
		},
		"coords": [
			{
				"x": 0.4958195321,
				"y": -1.5487154384,
				"z": -0.945302106,
				"element": "C" 
			},
			{
				"x": 0.0509144935,
				"y": -0.7691552903,
				"z": 0.3053013103,
				"element": "C" 
			},
			{
				"x": 0.9119922706,
				"y": -1.2435128732,
				"z": 1.486287221,
				"element": "C" 
			},
			{
				"x": 0.0676231217,
				"y": 0.7865375355,
				"z": 0.0991268206,
				"element": "C" 
			},
			{
				"x": -0.5980057942,
				"y": 1.3061793403,
				"z": 1.4082977237,
				"element": "C" 
			},
			{
				"x": -1.6823702397,
				"y": 0.2262260496,
				"z": 1.7063715544,
				"element": "C" 
			},
			{
				"x": -1.501051095,
				"y": -0.834683194,
				"z": 0.5667294613,
				"element": "C" 
			},
			{
				"x": -2.1666748923,
				"y": -2.1756791273,
				"z": 0.8187840043,
				"element": "C" 
			},
			{
				"x": -2.0152701371,
				"y": -0.1018137791,
				"z": -0.6773041305,
				"element": "C" 
			},
			{
				"x": -3.0423860934,
				"y": -0.30923617,
				"z": -1.2947602454,
				"element": "O" 
			},
			{
				"x": -0.9821642734,
				"y": 0.961426582,
				"z": -0.9714266617,
				"element": "C" 
			},
			{
				"x": -1.1144523747,
				"y": 1.8257464873,
				"z": -1.9869883835,
				"element": "C" 
			},
			{
				"x": -0.1349456507,
				"y": 2.899417388,
				"z": -2.3126067074,
				"element": "C" 
			},
			{
				"x": -0.4380750186,
				"y": 3.6094137878,
				"z": -3.4442414128,
				"element": "N" 
			},
			{
				"x": 0.8591813585,
				"y": 3.1516421082,
				"z": -1.6369972959,
				"element": "O" 
			},
			{
				"x": 0.3783639771,
				"y": -2.6269953132,
				"z": -0.7937221378,
				"element": "H" 
			},
			{
				"x": 1.5544665218,
				"y": -1.3590463277,
				"z": -1.1533537228,
				"element": "H" 
			},
			{
				"x": -0.0669032827,
				"y": -1.2775952253,
				"z": -1.8434709851,
				"element": "H" 
			},
			{
				"x": 0.8206973099,
				"y": -2.3274917164,
				"z": 1.6146863078,
				"element": "H" 
			},
			{
				"x": 0.6509787404,
				"y": -0.776679348,
				"z": 2.4380155992,
				"element": "H" 
			},
			{
				"x": 1.9678946108,
				"y": -1.0256223025,
				"z": 1.2905185518,
				"element": "H" 
			},
			{
				"x": 1.0264053164,
				"y": 1.2458217367,
				"z": -0.1345070905,
				"element": "H" 
			},
			{
				"x": -1.0186085409,
				"y": 2.3052492262,
				"z": 1.2715994297,
				"element": "H" 
			},
			{
				"x": 0.1395419075,
				"y": 1.3746728833,
				"z": 2.2125018496,
				"element": "H" 
			},
			{
				"x": -1.5292009184,
				"y": -0.2519808307,
				"z": 2.6787262636,
				"element": "H" 
			},
			{
				"x": -2.6982302715,
				"y": 0.6337361361,
				"z": 1.7119366239,
				"element": "H" 
			},
			{
				"x": -1.8075080234,
				"y": -2.6288194319,
				"z": 1.7484032874,
				"element": "H" 
			},
			{
				"x": -1.9786818242,
				"y": -2.8764700665,
				"z": -0.0006141395,
				"element": "H" 
			},
			{
				"x": -3.2514475173,
				"y": -2.0527238529,
				"z": 0.8942245204,
				"element": "H" 
			},
			{
				"x": -2.0015412234,
				"y": 1.7206267502,
				"z": -2.6112037151,
				"element": "H" 
			},
			{
				"x": 0.2039631695,
				"y": 4.3300262783,
				"z": -3.7359316241,
				"element": "H" 
			},
			{
				"x": -1.2197251591,
				"y": 3.3811979976,
				"z": -4.0361801711,
				"element": "H" 
			}
		],
		 "valence_orbital": [ 
			{
				"type": "occ",
				"energy": -0.29877,
				"method": "rhf"
			},
			{
				"type": "occ",
				"energy": -0.26943,
				"method": "rhf"
			},
			{
				"type": "occ",
				"energy": -0.2639,
				"method": "rhf"
			},
			{
				"type": "occ",
				"energy": -0.25339,
				"method": "rhf"
			},
			{
				"type": "occ",
				"energy": -0.23745,
				"method": "rhf"
			},
			{
				"type": "unocc",
				"energy": -0.07052,
				"method": "rhf"
			},
			{
				"type": "unocc",
				"energy": 0.03338,
				"method": "rhf"
			},
			{
				"type": "unocc",
				"energy": 0.07261,
				"method": "rhf"
			},
			{
				"type": "unocc",
				"energy": 0.07538,
				"method": "rhf"
			},
			{
				"type": "unocc",
				"energy": 0.0996,
				"method": "rhf"
			}
		],
		"cosmo_sigma_profile": { 
			"-0.025": 0.0,
			"-0.024": 0.0,
			"-0.023": 0.0,
			"-0.022": 0.0,
			"-0.021": 0.0,
			"-0.02": 0.0,
			"-0.019": 0.0,
			"-0.018": 0.0,
			"-0.017": 0.0,
			"-0.016": 0.0,
			"-0.015": 0.453860768409,
			"-0.014": 2.41810553022,
			"-0.013": 2.73958257434,
			"-0.012": 2.78582478538,
			"-0.011": 2.40725068331,
			"-0.01": 2.47942931595,
			"-0.009": 2.34991349438,
			"-0.008": 2.2647977775,
			"-0.007": 2.02064804353,
			"-0.006": 1.48655487444,
			"-0.005": 2.66805299274,
			"-0.004": 12.5968243216,
			"-0.003": 29.4808496162,
			"-0.002": 35.5375453422,
			"-0.001": 32.0932644195,
			"0.0": 32.3632070948,
			"0.001": 26.4110233905,
			"0.002": 7.95338643659,
			"0.003": 5.34311852122,
			"0.004": 5.57500911341,
			"0.005": 5.57147891322,
			"0.006": 2.77891385717,
			"0.007": 2.95400632698,
			"0.008": 4.21430602238,
			"0.009": 4.19460833361,
			"0.01": 2.24651105332,
			"0.011": 6.29177644621,
			"0.012": 5.80058514479,
			"0.013": 3.18301671061,
			"0.014": 3.84619180702,
			"0.015": 0.567108819477,
			"0.016": 0.0,
			"0.017": 0.0,
			"0.018": 0.0,
			"0.019": 0.0,
			"0.02": 0.0,
			"0.021": 0.0,
			"0.022": 0.0,
			"0.023": 0.0,
			"0.024": 0.0,
			"0.025": 0.0
		}
	}
}
