{
	 "smiles": "CN(CC1=CN=C(Cl)C=C1)C(C)=NC#N", 
	 "Tm": 372.05, 
	 "num_atms": 26, 
	 "gaussian": { 
		 "optdone": 1, 
		 "sigma_profile": "yes", 
		 "theory": "DFT", 
		 "functional": "B3LYP", 
		 "basiset": "6-31G**", 
		 "properties": { 
			 "R2extent": 5579.3987, 
			 "electric_dipole_moment_norm": 9.01019144358, 
			 "electric_quadrupole_moment_norm": 18.3281226736, 
			 "total_energy": -1066.86670687, 
			 "HOMO_LUMO_gap": 0.19213, 
			 "cosmo_polarized_energy": -23.15, 
			 "cosmo_cavitation_energy": 32.68, 
			 "cosmo_dispersion_energy": -22.72, 
			 "cosmo_repulsion_energy": 1.78, 
			 "cosmo_total_nonelectrostatic_energy": 11.75, 
			 "SMD_solvation_energy": 5.7 
		},
		"coords": [
			{
				"x": -0.5068084462,
				"y": 0.1485961559,
				"z": -1.7419442881,
				"element": "C" 
			},
			{
				"x": 0.4991897675,
				"y": -0.0562026418,
				"z": -0.7087653141,
				"element": "N" 
			},
			{
				"x": 0.9866078747,
				"y": 1.1675688369,
				"z": -0.0515284524,
				"element": "C" 
			},
			{
				"x": 0.009313607,
				"y": 1.7348023922,
				"z": 0.9583736541,
				"element": "C" 
			},
			{
				"x": -0.2504317306,
				"y": 1.0661893003,
				"z": 2.1622775978,
				"element": "C" 
			},
			{
				"x": -1.1077291631,
				"y": 1.5113223083,
				"z": 3.0890592819,
				"element": "N" 
			},
			{
				"x": -1.7333518682,
				"y": 2.6497902621,
				"z": 2.8455955473,
				"element": "C" 
			},
			{
				"x": -2.8580011792,
				"y": 3.2156372455,
				"z": 4.077115936,
				"element": "Cl" 
			},
			{
				"x": -1.5597509189,
				"y": 3.4202542325,
				"z": 1.6942630496,
				"element": "C" 
			},
			{
				"x": -0.6680288578,
				"y": 2.9394014606,
				"z": 0.7390148538,
				"element": "C" 
			},
			{
				"x": 1.0012030306,
				"y": -1.2710906806,
				"z": -0.3638148558,
				"element": "C" 
			},
			{
				"x": 0.5433354873,
				"y": -2.4889806886,
				"z": -1.1334695659,
				"element": "C" 
			},
			{
				"x": 1.8590510765,
				"y": -1.321444663,
				"z": 0.6264100044,
				"element": "N" 
			},
			{
				"x": 2.4161272015,
				"y": -2.4728268654,
				"z": 0.985290846,
				"element": "C" 
			},
			{
				"x": 2.9531755763,
				"y": -3.4407422182,
				"z": 1.3668855728,
				"element": "N" 
			},
			{
				"x": -0.9930881392,
				"y": -0.7847506175,
				"z": -2.0162033992,
				"element": "H" 
			},
			{
				"x": -1.2775442807,
				"y": 0.8294720689,
				"z": -1.3668776458,
				"element": "H" 
			},
			{
				"x": -0.063379357,
				"y": 0.5924114253,
				"z": -2.6432184638,
				"element": "H" 
			},
			{
				"x": 1.1804033602,
				"y": 1.9099795767,
				"z": -0.8347175934,
				"element": "H" 
			},
			{
				"x": 1.9334572805,
				"y": 0.9189626449,
				"z": 0.4284520333,
				"element": "H" 
			},
			{
				"x": 0.2609668685,
				"y": 0.1333358018,
				"z": 2.3892547527,
				"element": "H" 
			},
			{
				"x": -2.0994855718,
				"y": 4.3497976477,
				"z": 1.5590214734,
				"element": "H" 
			},
			{
				"x": -0.4948312539,
				"y": 3.5069678208,
				"z": -0.1723154017,
				"element": "H" 
			},
			{
				"x": 0.6792206296,
				"y": -2.3571686779,
				"z": -2.2106113665,
				"element": "H" 
			},
			{
				"x": -0.5164442984,
				"y": -2.6933111784,
				"z": -0.9475630433,
				"element": "H" 
			},
			{
				"x": 1.117023305,
				"y": -3.3581709491,
				"z": -0.810685213,
				"element": "H" 
			}
		],
		 "valence_orbital": [ 
			{
				"type": "occ",
				"energy": -0.3095,
				"method": "rhf"
			},
			{
				"type": "occ",
				"energy": -0.281,
				"method": "rhf"
			},
			{
				"type": "occ",
				"energy": -0.26947,
				"method": "rhf"
			},
			{
				"type": "occ",
				"energy": -0.25967,
				"method": "rhf"
			},
			{
				"type": "occ",
				"energy": -0.23932,
				"method": "rhf"
			},
			{
				"type": "unocc",
				"energy": -0.04719,
				"method": "rhf"
			},
			{
				"type": "unocc",
				"energy": -0.04013,
				"method": "rhf"
			},
			{
				"type": "unocc",
				"energy": -0.0276,
				"method": "rhf"
			},
			{
				"type": "unocc",
				"energy": 0.02711,
				"method": "rhf"
			},
			{
				"type": "unocc",
				"energy": 0.06108,
				"method": "rhf"
			}
		],
		"cosmo_sigma_profile": { 
			"-0.025": 0.0,
			"-0.024": 0.0,
			"-0.023": 0.0,
			"-0.022": 0.0,
			"-0.021": 0.0,
			"-0.02": 0.0,
			"-0.019": 0.0,
			"-0.018": 0.0,
			"-0.017": 0.0,
			"-0.016": 0.0,
			"-0.015": 0.0,
			"-0.014": 0.0,
			"-0.013": 0.0,
			"-0.012": 0.0,
			"-0.011": 0.0,
			"-0.01": 0.0,
			"-0.009": 1.14569260755,
			"-0.008": 8.86433684031,
			"-0.007": 14.6560014097,
			"-0.006": 17.0421040218,
			"-0.005": 19.4687038539,
			"-0.004": 24.2542170417,
			"-0.003": 23.7338571716,
			"-0.002": 18.2088566834,
			"-0.001": 15.1205637317,
			"0.0": 19.2250528478,
			"0.001": 15.3861994985,
			"0.002": 10.2058762459,
			"0.003": 11.7591098766,
			"0.004": 14.2723594273,
			"0.005": 9.73204012426,
			"0.006": 5.7311418182,
			"0.007": 4.3074054571,
			"0.008": 4.05951138933,
			"0.009": 3.68481022642,
			"0.01": 2.82435824524,
			"0.011": 4.07171782483,
			"0.012": 4.00202218803,
			"0.013": 5.02832204468,
			"0.014": 3.78452719842,
			"0.015": 3.00475649706,
			"0.016": 0.694229180788,
			"0.017": 0.0,
			"0.018": 0.0,
			"0.019": 0.0,
			"0.02": 0.0,
			"0.021": 0.0,
			"0.022": 0.0,
			"0.023": 0.0,
			"0.024": 0.0,
			"0.025": 0.0
		}
	}
}
