{
	 "smiles": "OC(=O)C1=CC2=C(OC(F)(F)O2)C=C1", 
	 "Tm": 428.65, 
	 "num_atms": 18, 
	 "gaussian": { 
		 "optdone": 1, 
		 "sigma_profile": "yes", 
		 "theory": "DFT", 
		 "functional": "B3LYP", 
		 "basiset": "6-31G**", 
		 "properties": { 
			 "R2extent": 3779.6844, 
			 "electric_dipole_moment_norm": 2.79110993872, 
			 "electric_quadrupole_moment_norm": 2.77702866028, 
			 "total_energy": -807.846935046, 
			 "HOMO_LUMO_gap": 0.19519, 
			 "cosmo_polarized_energy": -9.09, 
			 "cosmo_cavitation_energy": 24.65, 
			 "cosmo_dispersion_energy": -18.33, 
			 "cosmo_repulsion_energy": 1.38, 
			 "cosmo_total_nonelectrostatic_energy": 7.69, 
			 "SMD_solvation_energy": 6.7 
		},
		"coords": [
			{
				"x": -0.6761280222,
				"y": -0.9784103802,
				"z": 2.7376273748,
				"element": "O" 
			},
			{
				"x": -0.794557817,
				"y": 0.1188487963,
				"z": 1.9496696428,
				"element": "C" 
			},
			{
				"x": -1.5513945133,
				"y": 1.0307582414,
				"z": 2.2186492451,
				"element": "O" 
			},
			{
				"x": 0.0822855709,
				"y": 0.075111365,
				"z": 0.7506037165,
				"element": "C" 
			},
			{
				"x": 0.0185090699,
				"y": 1.1809676195,
				"z": -0.1251420585,
				"element": "C" 
			},
			{
				"x": 0.8347820395,
				"y": 1.1264346644,
				"z": -1.228978167,
				"element": "C" 
			},
			{
				"x": 1.6791636295,
				"y": 0.049565797,
				"z": -1.4796718791,
				"element": "C" 
			},
			{
				"x": 2.3626275575,
				"y": 0.285752163,
				"z": -2.6499369717,
				"element": "O" 
			},
			{
				"x": 1.9301138395,
				"y": 1.527547965,
				"z": -3.1240156806,
				"element": "C" 
			},
			{
				"x": 1.4020890246,
				"y": 1.3908583909,
				"z": -4.3488748917,
				"element": "F" 
			},
			{
				"x": 2.9727791433,
				"y": 2.3632161973,
				"z": -3.2349606326,
				"element": "F" 
			},
			{
				"x": 0.9846882547,
				"y": 2.0493416315,
				"z": -2.2463688148,
				"element": "O" 
			},
			{
				"x": 1.7581767614,
				"y": -1.0421895307,
				"z": -0.637879186,
				"element": "C" 
			},
			{
				"x": 0.9340794354,
				"y": -1.0097757829,
				"z": 0.4962706652,
				"element": "C" 
			},
			{
				"x": -1.2886954769,
				"y": -0.838960629,
				"z": 3.4782697871,
				"element": "H" 
			},
			{
				"x": -0.6442349552,
				"y": 2.0111689243,
				"z": 0.0848653976,
				"element": "H" 
			},
			{
				"x": 2.4204145134,
				"y": -1.8741220176,
				"z": -0.8455971151,
				"element": "H" 
			},
			{
				"x": 0.9520019451,
				"y": -1.8379134149,
				"z": 1.194169568,
				"element": "H" 
			}
		],
		 "valence_orbital": [ 
			{
				"type": "occ",
				"energy": -0.36049,
				"method": "rhf"
			},
			{
				"type": "occ",
				"energy": -0.32724,
				"method": "rhf"
			},
			{
				"type": "occ",
				"energy": -0.28686,
				"method": "rhf"
			},
			{
				"type": "occ",
				"energy": -0.27565,
				"method": "rhf"
			},
			{
				"type": "occ",
				"energy": -0.25323,
				"method": "rhf"
			},
			{
				"type": "unocc",
				"energy": -0.05804,
				"method": "rhf"
			},
			{
				"type": "unocc",
				"energy": -0.02508,
				"method": "rhf"
			},
			{
				"type": "unocc",
				"energy": 0.05139,
				"method": "rhf"
			},
			{
				"type": "unocc",
				"energy": 0.06385,
				"method": "rhf"
			},
			{
				"type": "unocc",
				"energy": 0.08658,
				"method": "rhf"
			}
		],
		"cosmo_sigma_profile": { 
			"-0.025": 0.0,
			"-0.024": 0.0,
			"-0.023": 0.0,
			"-0.022": 0.0,
			"-0.021": 0.0,
			"-0.02": 0.0,
			"-0.019": 0.212458461762,
			"-0.018": 0.679304988162,
			"-0.017": 1.10006018056,
			"-0.016": 0.936861660875,
			"-0.015": 0.8204124866,
			"-0.014": 0.317574827762,
			"-0.013": 0.348227255785,
			"-0.012": 0.956269936177,
			"-0.011": 0.75937618201,
			"-0.01": 0.862677302896,
			"-0.009": 1.67589589221,
			"-0.008": 4.09554611147,
			"-0.007": 6.0605645421,
			"-0.006": 7.03588417738,
			"-0.005": 5.62240503581,
			"-0.004": 6.67844529434,
			"-0.003": 9.1405311401,
			"-0.002": 14.3925868082,
			"-0.001": 17.9954791827,
			"0.0": 19.0695604249,
			"0.001": 23.7904337826,
			"0.002": 33.9019992387,
			"0.003": 9.44105921455,
			"0.004": 5.25986326489,
			"0.005": 6.63792379596,
			"0.006": 5.94125820302,
			"0.007": 2.96273354497,
			"0.008": 1.28722543442,
			"0.009": 1.68794017498,
			"0.01": 2.18143648925,
			"0.011": 4.21838694729,
			"0.012": 2.82091609419,
			"0.013": 0.0169205392842,
			"0.014": 0.0,
			"0.015": 0.0,
			"0.016": 0.0,
			"0.017": 0.0,
			"0.018": 0.0,
			"0.019": 0.0,
			"0.02": 0.0,
			"0.021": 0.0,
			"0.022": 0.0,
			"0.023": 0.0,
			"0.024": 0.0,
			"0.025": 0.0
		}
	}
}
