{
	 "smiles": "CCCCSCCC(N)C(O)=O", 
	 "Tm": 513.15, 
	 "num_atms": 29, 
	 "gaussian": { 
		 "optdone": 1, 
		 "sigma_profile": "yes", 
		 "theory": "DFT", 
		 "functional": "B3LYP", 
		 "basiset": "6-31G**", 
		 "properties": { 
			 "R2extent": 4765.2119, 
			 "electric_dipole_moment_norm": 6.46991885189, 
			 "electric_quadrupole_moment_norm": 26.7967145122, 
			 "total_energy": -918.505129106, 
			 "HOMO_LUMO_gap": 0.23797, 
			 "cosmo_polarized_energy": -18.19, 
			 "cosmo_cavitation_energy": 32.31, 
			 "cosmo_dispersion_energy": -23.22, 
			 "cosmo_repulsion_energy": 1.87, 
			 "cosmo_total_nonelectrostatic_energy": 10.96, 
			 "SMD_solvation_energy": 5.5 
		},
		"coords": [
			{
				"x": 2.4220335266,
				"y": -0.7370613412,
				"z": -2.234485569,
				"element": "C" 
			},
			{
				"x": 2.7813489651,
				"y": 0.6086349403,
				"z": -1.5933528767,
				"element": "C" 
			},
			{
				"x": 1.6124443849,
				"y": 1.588045163,
				"z": -1.3832662156,
				"element": "C" 
			},
			{
				"x": 0.6338164979,
				"y": 1.2640720787,
				"z": -0.2422651578,
				"element": "C" 
			},
			{
				"x": -0.5648682574,
				"y": -0.0730122687,
				"z": -0.6633904301,
				"element": "S" 
			},
			{
				"x": -1.7753750875,
				"y": 0.1268493184,
				"z": 0.6994483096,
				"element": "C" 
			},
			{
				"x": -1.2921369879,
				"y": -0.415458444,
				"z": 2.0517664333,
				"element": "C" 
			},
			{
				"x": -2.3036653802,
				"y": -0.2472171254,
				"z": 3.2059220542,
				"element": "C" 
			},
			{
				"x": -2.6447927932,
				"y": 1.1703618047,
				"z": 3.4331699254,
				"element": "N" 
			},
			{
				"x": -3.5925889838,
				"y": -1.029880708,
				"z": 2.8764796336,
				"element": "C" 
			},
			{
				"x": -4.6334666709,
				"y": -0.2472059211,
				"z": 2.5517259082,
				"element": "O" 
			},
			{
				"x": -3.6394108711,
				"y": -2.2373227833,
				"z": 2.8777767569,
				"element": "O" 
			},
			{
				"x": 1.9261193442,
				"y": -0.5922072526,
				"z": -3.201019889,
				"element": "H" 
			},
			{
				"x": 1.7516784304,
				"y": -1.3266033077,
				"z": -1.6033186885,
				"element": "H" 
			},
			{
				"x": 3.324241572,
				"y": -1.3324189431,
				"z": -2.4113598481,
				"element": "H" 
			},
			{
				"x": 3.2791573141,
				"y": 0.4368822208,
				"z": -0.6288252708,
				"element": "H" 
			},
			{
				"x": 3.5233444376,
				"y": 1.1114630992,
				"z": -2.2269096419,
				"element": "H" 
			},
			{
				"x": 2.0370597623,
				"y": 2.5736473318,
				"z": -1.1508398888,
				"element": "H" 
			},
			{
				"x": 1.052479498,
				"y": 1.7114603647,
				"z": -2.3191699899,
				"element": "H" 
			},
			{
				"x": 0.0410569816,
				"y": 2.1572001087,
				"z": -0.0137296777,
				"element": "H" 
			},
			{
				"x": 1.1934933006,
				"y": 0.9913384632,
				"z": 0.6596529383,
				"element": "H" 
			},
			{
				"x": -2.0564966025,
				"y": 1.1839390605,
				"z": 0.7613479157,
				"element": "H" 
			},
			{
				"x": -2.6628227031,
				"y": -0.4200262845,
				"z": 0.3664179752,
				"element": "H" 
			},
			{
				"x": -0.3556829162,
				"y": 0.0760611424,
				"z": 2.3442944123,
				"element": "H" 
			},
			{
				"x": -1.0756642158,
				"y": -1.4826301591,
				"z": 1.9543684706,
				"element": "H" 
			},
			{
				"x": -1.8720944868,
				"y": -0.7264007803,
				"z": 4.0937089385,
				"element": "H" 
			},
			{
				"x": -1.8747373399,
				"y": 1.7833565667,
				"z": 3.1818287315,
				"element": "H" 
			},
			{
				"x": -2.8552106616,
				"y": 1.3406885365,
				"z": 4.4128218462,
				"element": "H" 
			},
			{
				"x": -4.2954600573,
				"y": 0.6736451193,
				"z": 2.6586028946,
				"element": "H" 
			}
		],
		 "valence_orbital": [ 
			{
				"type": "occ",
				"energy": -0.30498,
				"method": "rhf"
			},
			{
				"type": "occ",
				"energy": -0.29983,
				"method": "rhf"
			},
			{
				"type": "occ",
				"energy": -0.29639,
				"method": "rhf"
			},
			{
				"type": "occ",
				"energy": -0.25457,
				"method": "rhf"
			},
			{
				"type": "occ",
				"energy": -0.22252,
				"method": "rhf"
			},
			{
				"type": "unocc",
				"energy": 0.01545,
				"method": "rhf"
			},
			{
				"type": "unocc",
				"energy": 0.02942,
				"method": "rhf"
			},
			{
				"type": "unocc",
				"energy": 0.05128,
				"method": "rhf"
			},
			{
				"type": "unocc",
				"energy": 0.07064,
				"method": "rhf"
			},
			{
				"type": "unocc",
				"energy": 0.08897,
				"method": "rhf"
			}
		],
		"cosmo_sigma_profile": { 
			"-0.025": 0.0,
			"-0.024": 0.0,
			"-0.023": 0.0,
			"-0.022": 0.0,
			"-0.021": 0.0,
			"-0.02": 0.0,
			"-0.019": 0.0,
			"-0.018": 0.0,
			"-0.017": 0.0,
			"-0.016": 0.0,
			"-0.015": 0.0,
			"-0.014": 0.0,
			"-0.013": 0.0154756557374,
			"-0.012": 1.54838568945,
			"-0.011": 3.52825246414,
			"-0.01": 3.50141170136,
			"-0.009": 4.87763153432,
			"-0.008": 4.89445135827,
			"-0.007": 4.08934561489,
			"-0.006": 8.627019942,
			"-0.005": 13.6337229365,
			"-0.004": 16.5276878656,
			"-0.003": 21.758282846,
			"-0.002": 27.8658081144,
			"-0.001": 25.031539979,
			"0.0": 22.8104499533,
			"0.001": 18.2978527032,
			"0.002": 12.2131185718,
			"0.003": 7.19281472844,
			"0.004": 5.62278857036,
			"0.005": 5.67592505443,
			"0.006": 5.89117596408,
			"0.007": 5.84673470863,
			"0.008": 5.10963399797,
			"0.009": 4.62104378431,
			"0.01": 4.91260669916,
			"0.011": 6.46245444817,
			"0.012": 5.56880094109,
			"0.013": 4.51613569659,
			"0.014": 1.03033420386,
			"0.015": 0.0,
			"0.016": 0.0,
			"0.017": 0.0,
			"0.018": 0.0,
			"0.019": 0.0,
			"0.02": 0.0,
			"0.021": 0.0,
			"0.022": 0.0,
			"0.023": 0.0,
			"0.024": 0.0,
			"0.025": 0.0
		}
	}
}
