{
	 "smiles": "NC1=NC(=CC=C1)C1=CC2=C(OCCO2)C=C1", 
	 "Tm": 391.15, 
	 "num_atms": 29, 
	 "gaussian": { 
		 "optdone": 1, 
		 "sigma_profile": "yes", 
		 "theory": "DFT", 
		 "functional": "B3LYP", 
		 "basiset": "6-31G**", 
		 "properties": { 
			 "R2extent": 5456.5834, 
			 "electric_dipole_moment_norm": 1.41282207302, 
			 "electric_quadrupole_moment_norm": 18.4213720317, 
			 "total_energy": -762.56241203, 
			 "HOMO_LUMO_gap": 0.16583, 
			 "cosmo_polarized_energy": -14.27, 
			 "cosmo_cavitation_energy": 32.44, 
			 "cosmo_dispersion_energy": -24.64, 
			 "cosmo_repulsion_energy": 1.89, 
			 "cosmo_total_nonelectrostatic_energy": 9.7, 
			 "SMD_solvation_energy": 4.65 
		},
		"coords": [
			{
				"x": 0.047940696,
				"y": -3.2686345499,
				"z": 2.0887024357,
				"element": "N" 
			},
			{
				"x": 0.5319160417,
				"y": -1.981914831,
				"z": 2.2571696299,
				"element": "C" 
			},
			{
				"x": 0.2477441469,
				"y": -1.1136958205,
				"z": 1.2811118698,
				"element": "N" 
			},
			{
				"x": 0.7306914603,
				"y": 0.1423492018,
				"z": 1.3510421744,
				"element": "C" 
			},
			{
				"x": 1.5048574408,
				"y": 0.573130206,
				"z": 2.4378525467,
				"element": "C" 
			},
			{
				"x": 1.7952632417,
				"y": -0.3402042124,
				"z": 3.4531335949,
				"element": "C" 
			},
			{
				"x": 1.3187223578,
				"y": -1.6398473565,
				"z": 3.3763715877,
				"element": "C" 
			},
			{
				"x": 0.3758038954,
				"y": 1.0467174588,
				"z": 0.2249307848,
				"element": "C" 
			},
			{
				"x": -0.6567133036,
				"y": 0.6845870808,
				"z": -0.6519226562,
				"element": "C" 
			},
			{
				"x": -1.0220995776,
				"y": 1.5095934842,
				"z": -1.7100130342,
				"element": "C" 
			},
			{
				"x": -0.3564276155,
				"y": 2.7314182496,
				"z": -1.9122192967,
				"element": "C" 
			},
			{
				"x": -0.693570578,
				"y": 3.5865918477,
				"z": -2.9322680379,
				"element": "O" 
			},
			{
				"x": -1.9565180446,
				"y": 3.3001001832,
				"z": -3.5331586963,
				"element": "C" 
			},
			{
				"x": -2.0966024899,
				"y": 1.805431375,
				"z": -3.7740117563,
				"element": "C" 
			},
			{
				"x": -2.0451267079,
				"y": 1.1007882843,
				"z": -2.5355982874,
				"element": "O" 
			},
			{
				"x": 0.688934414,
				"y": 3.0889901704,
				"z": -1.059876219,
				"element": "C" 
			},
			{
				"x": 1.0541351741,
				"y": 2.256812338,
				"z": -0.0070100925,
				"element": "C" 
			},
			{
				"x": -0.6805861338,
				"y": -3.3403111614,
				"z": 1.3920819397,
				"element": "H" 
			},
			{
				"x": -0.1137584059,
				"y": -3.8103026572,
				"z": 2.9246361617,
				"element": "H" 
			},
			{
				"x": 1.8513152504,
				"y": 1.5966108586,
				"z": 2.5088575497,
				"element": "H" 
			},
			{
				"x": 2.3919408777,
				"y": -0.0312240884,
				"z": 4.3072054815,
				"element": "H" 
			},
			{
				"x": 1.5396836571,
				"y": -2.3736199132,
				"z": 4.1453657969,
				"element": "H" 
			},
			{
				"x": -1.1757519483,
				"y": -0.2555417998,
				"z": -0.5104160851,
				"element": "H" 
			},
			{
				"x": -1.9879165217,
				"y": 3.8599592207,
				"z": -4.471522538,
				"element": "H" 
			},
			{
				"x": -2.7683137044,
				"y": 3.6497043066,
				"z": -2.8804764858,
				"element": "H" 
			},
			{
				"x": -3.0614300595,
				"y": 1.5663700842,
				"z": -4.2289328463,
				"element": "H" 
			},
			{
				"x": -1.292745853,
				"y": 1.4585240041,
				"z": -4.4383860245,
				"element": "H" 
			},
			{
				"x": 1.2038932588,
				"y": 4.0266499585,
				"z": -1.2429677131,
				"element": "H" 
			},
			{
				"x": 1.8857190311,
				"y": 2.5506680779,
				"z": 0.623718216,
				"element": "H" 
			}
		],
		 "valence_orbital": [ 
			{
				"type": "occ",
				"energy": -0.27165,
				"method": "rhf"
			},
			{
				"type": "occ",
				"energy": -0.24919,
				"method": "rhf"
			},
			{
				"type": "occ",
				"energy": -0.22651,
				"method": "rhf"
			},
			{
				"type": "occ",
				"energy": -0.21613,
				"method": "rhf"
			},
			{
				"type": "occ",
				"energy": -0.19352,
				"method": "rhf"
			},
			{
				"type": "unocc",
				"energy": -0.02769,
				"method": "rhf"
			},
			{
				"type": "unocc",
				"energy": 0.00455,
				"method": "rhf"
			},
			{
				"type": "unocc",
				"energy": 0.01584,
				"method": "rhf"
			},
			{
				"type": "unocc",
				"energy": 0.05175,
				"method": "rhf"
			},
			{
				"type": "unocc",
				"energy": 0.08811,
				"method": "rhf"
			}
		],
		"cosmo_sigma_profile": { 
			"-0.025": 0.0,
			"-0.024": 0.0,
			"-0.023": 0.0,
			"-0.022": 0.0,
			"-0.021": 0.0,
			"-0.02": 0.0,
			"-0.019": 0.0,
			"-0.018": 0.0,
			"-0.017": 0.0,
			"-0.016": 0.0,
			"-0.015": 0.0,
			"-0.014": 0.0482090239895,
			"-0.013": 0.90100996122,
			"-0.012": 2.14571531153,
			"-0.011": 2.4672829445,
			"-0.01": 2.19833696268,
			"-0.009": 2.73525005939,
			"-0.008": 2.74593368518,
			"-0.007": 11.0961196438,
			"-0.006": 20.3131626234,
			"-0.005": 19.5245167708,
			"-0.004": 19.4824545012,
			"-0.003": 14.0601891766,
			"-0.002": 12.020568192,
			"-0.001": 10.2217709533,
			"0.0": 10.8226193356,
			"0.001": 11.8394118307,
			"0.002": 14.3534168075,
			"0.003": 22.3939943033,
			"0.004": 27.5755432941,
			"0.005": 18.9582048651,
			"0.006": 8.18778226226,
			"0.007": 5.34807592593,
			"0.008": 5.38540036722,
			"0.009": 4.75020416443,
			"0.01": 4.75664403652,
			"0.011": 2.73383714831,
			"0.012": 0.985332113852,
			"0.013": 0.62065428039,
			"0.014": 0.0580175462067,
			"0.015": 0.0,
			"0.016": 0.0,
			"0.017": 0.0,
			"0.018": 0.0,
			"0.019": 0.0,
			"0.02": 0.0,
			"0.021": 0.0,
			"0.022": 0.0,
			"0.023": 0.0,
			"0.024": 0.0,
			"0.025": 0.0
		}
	}
}
