{
	 "smiles": "NC(=O)CCN1C(S)=NN=C1C1=CC=CS1", 
	 "Tm": 493.15, 
	 "num_atms": 26, 
	 "gaussian": { 
		 "optdone": 1, 
		 "sigma_profile": "yes", 
		 "theory": "DFT", 
		 "functional": "B3LYP", 
		 "basiset": "6-31G**", 
		 "properties": { 
			 "R2extent": 4313.7483, 
			 "electric_dipole_moment_norm": 6.91953173416, 
			 "electric_quadrupole_moment_norm": 16.8880408509, 
			 "total_energy": -1439.5588106, 
			 "HOMO_LUMO_gap": 0.17944, 
			 "cosmo_polarized_energy": -28.53, 
			 "cosmo_cavitation_energy": 33.84, 
			 "cosmo_dispersion_energy": -23.61, 
			 "cosmo_repulsion_energy": 1.75, 
			 "cosmo_total_nonelectrostatic_energy": 11.98, 
			 "SMD_solvation_energy": 3.6 
		},
		"coords": [
			{
				"x": -3.3047185116,
				"y": 0.7336392303,
				"z": 0.3475244833,
				"element": "N" 
			},
			{
				"x": -2.2988289146,
				"y": 1.1603317817,
				"z": 1.1756491142,
				"element": "C" 
			},
			{
				"x": -1.939837789,
				"y": 0.5272083907,
				"z": 2.1549252945,
				"element": "O" 
			},
			{
				"x": -1.6525439995,
				"y": 2.4903906122,
				"z": 0.7849189733,
				"element": "C" 
			},
			{
				"x": -0.5345467999,
				"y": 2.3273189014,
				"z": -0.2657222294,
				"element": "C" 
			},
			{
				"x": 0.5794648424,
				"y": 1.4977688759,
				"z": 0.1883842402,
				"element": "N" 
			},
			{
				"x": 1.5974741593,
				"y": 1.8844066508,
				"z": 1.0227424743,
				"element": "C" 
			},
			{
				"x": 1.8417992743,
				"y": 3.5623214394,
				"z": 1.5236361694,
				"element": "S" 
			},
			{
				"x": 2.3540769429,
				"y": 0.8670540887,
				"z": 1.3610106028,
				"element": "N" 
			},
			{
				"x": 1.8314892282,
				"y": -0.2454659874,
				"z": 0.7403822041,
				"element": "N" 
			},
			{
				"x": 0.7721218434,
				"y": 0.128899436,
				"z": 0.0537136616,
				"element": "C" 
			},
			{
				"x": -0.0691045871,
				"y": -0.7894715636,
				"z": -0.7042479427,
				"element": "C" 
			},
			{
				"x": -0.5016100771,
				"y": -2.0184386786,
				"z": -0.2692646412,
				"element": "C" 
			},
			{
				"x": -1.2385193506,
				"y": -2.73834266,
				"z": -1.2542331657,
				"element": "C" 
			},
			{
				"x": -1.3606984512,
				"y": -2.0558956288,
				"z": -2.4335946908,
				"element": "C" 
			},
			{
				"x": -0.5532733054,
				"y": -0.5225252383,
				"z": -2.3703216104,
				"element": "S" 
			},
			{
				"x": -3.6268239728,
				"y": -0.2150018597,
				"z": 0.4737142806,
				"element": "H" 
			},
			{
				"x": -3.4782384275,
				"y": 1.1688889251,
				"z": -0.544707821,
				"element": "H" 
			},
			{
				"x": -1.2441044872,
				"y": 2.9302241756,
				"z": 1.6972211795,
				"element": "H" 
			},
			{
				"x": -2.3984995664,
				"y": 3.1820045383,
				"z": 0.3755359771,
				"element": "H" 
			},
			{
				"x": -0.9287484386,
				"y": 1.8843667881,
				"z": -1.1820349675,
				"element": "H" 
			},
			{
				"x": -0.1337744068,
				"y": 3.3102417638,
				"z": -0.5322285278,
				"element": "H" 
			},
			{
				"x": 2.9554102107,
				"y": 3.2581472821,
				"z": 2.2159801837,
				"element": "H" 
			},
			{
				"x": -0.2956215242,
				"y": -2.374357579,
				"z": 0.7324544148,
				"element": "H" 
			},
			{
				"x": -1.6635441934,
				"y": -3.7218180537,
				"z": -1.0892773612,
				"element": "H" 
			},
			{
				"x": -1.8693996983,
				"y": -2.3584956312,
				"z": -3.3384602957,
				"element": "H" 
			}
		],
		 "valence_orbital": [ 
			{
				"type": "occ",
				"energy": -0.26434,
				"method": "rhf"
			},
			{
				"type": "occ",
				"energy": -0.25886,
				"method": "rhf"
			},
			{
				"type": "occ",
				"energy": -0.25538,
				"method": "rhf"
			},
			{
				"type": "occ",
				"energy": -0.2516,
				"method": "rhf"
			},
			{
				"type": "occ",
				"energy": -0.21938,
				"method": "rhf"
			},
			{
				"type": "unocc",
				"energy": -0.03994,
				"method": "rhf"
			},
			{
				"type": "unocc",
				"energy": -0.0003,
				"method": "rhf"
			},
			{
				"type": "unocc",
				"energy": 0.00865,
				"method": "rhf"
			},
			{
				"type": "unocc",
				"energy": 0.01546,
				"method": "rhf"
			},
			{
				"type": "unocc",
				"energy": 0.02354,
				"method": "rhf"
			}
		],
		"cosmo_sigma_profile": { 
			"-0.025": 0.0,
			"-0.024": 0.0,
			"-0.023": 0.0,
			"-0.022": 0.0,
			"-0.021": 0.0,
			"-0.02": 0.0,
			"-0.019": 0.0,
			"-0.018": 0.0,
			"-0.017": 0.0,
			"-0.016": 0.0,
			"-0.015": 0.0770454182679,
			"-0.014": 1.5133755577,
			"-0.013": 2.7443168734,
			"-0.012": 3.77344242147,
			"-0.011": 4.03194906987,
			"-0.01": 4.27725491575,
			"-0.009": 5.13763196824,
			"-0.008": 9.14519262001,
			"-0.007": 14.4770279214,
			"-0.006": 16.2312441999,
			"-0.005": 15.2479428131,
			"-0.004": 15.5578607701,
			"-0.003": 14.7253500663,
			"-0.002": 12.8019009656,
			"-0.001": 14.0145494281,
			"0.0": 14.0790844428,
			"0.001": 19.3157614798,
			"0.002": 18.7706312759,
			"0.003": 16.8078232336,
			"0.004": 13.4724879124,
			"0.005": 9.34290881044,
			"0.006": 7.05735969817,
			"0.007": 3.76102043738,
			"0.008": 4.14259049235,
			"0.009": 3.39436935933,
			"0.01": 3.4881506254,
			"0.011": 4.00498397,
			"0.012": 3.99163436826,
			"0.013": 7.36842958381,
			"0.014": 6.83119092204,
			"0.015": 2.64188017714,
			"0.016": 1.8505205745,
			"0.017": 0.236917987404,
			"0.018": 0.0,
			"0.019": 0.0,
			"0.02": 0.0,
			"0.021": 0.0,
			"0.022": 0.0,
			"0.023": 0.0,
			"0.024": 0.0,
			"0.025": 0.0
		}
	}
}
