{
	 "smiles": "CC1OC(OC2=CNC3=C2C(Cl)=C(Br)C=C3)C(O)C(O)C1O", 
	 "Tm": 488.15, 
	 "num_atms": 37, 
	 "gaussian": { 
		 "optdone": 1, 
		 "sigma_profile": "yes", 
		 "theory": "DFT", 
		 "functional": "B3LYP", 
		 "basiset": "6-31G**", 
		 "properties": { 
			 "R2extent": 12967.9381, 
			 "electric_dipole_moment_norm": 4.85995091745, 
			 "electric_quadrupole_moment_norm": 37.6530486426, 
			 "total_energy": -4004.94586677, 
			 "HOMO_LUMO_gap": 0.1718, 
			 "cosmo_polarized_energy": -26.24, 
			 "cosmo_cavitation_energy": 43.12, 
			 "cosmo_dispersion_energy": -30.97, 
			 "cosmo_repulsion_energy": 2.35, 
			 "cosmo_total_nonelectrostatic_energy": 14.5, 
			 "SMD_solvation_energy": 5.55 
		},
		"coords": [
			{
				"x": 2.8692045424,
				"y": 2.1703113446,
				"z": 0.6214252792,
				"element": "C" 
			},
			{
				"x": 1.7622076435,
				"y": 1.5200369076,
				"z": -0.1903658024,
				"element": "C" 
			},
			{
				"x": 0.515548711,
				"y": 1.8702441264,
				"z": 0.446667898,
				"element": "O" 
			},
			{
				"x": -0.5753819027,
				"y": 1.1333300953,
				"z": -0.0090609496,
				"element": "C" 
			},
			{
				"x": -0.5277933304,
				"y": -0.1408085296,
				"z": 0.619636841,
				"element": "O" 
			},
			{
				"x": -1.6817019399,
				"y": -0.8472546841,
				"z": 0.7224639165,
				"element": "C" 
			},
			{
				"x": -2.9210200536,
				"y": -0.5830214375,
				"z": 0.188480142,
				"element": "C" 
			},
			{
				"x": -3.8058492367,
				"y": -1.5736836311,
				"z": 0.5982605191,
				"element": "N" 
			},
			{
				"x": -3.1455813033,
				"y": -2.4847200475,
				"z": 1.3817028589,
				"element": "C" 
			},
			{
				"x": -1.7903073218,
				"y": -2.0606623104,
				"z": 1.4929682059,
				"element": "C" 
			},
			{
				"x": -0.8993396607,
				"y": -2.8363972427,
				"z": 2.2634064839,
				"element": "C" 
			},
			{
				"x": 0.7661029212,
				"y": -2.3435333651,
				"z": 2.4246634019,
				"element": "Cl" 
			},
			{
				"x": -1.3757277572,
				"y": -3.9897784701,
				"z": 2.8829000466,
				"element": "C" 
			},
			{
				"x": -0.2389057511,
				"y": -5.0971816306,
				"z": 3.9417757881,
				"element": "Br" 
			},
			{
				"x": -2.7227088975,
				"y": -4.3868966606,
				"z": 2.7524894472,
				"element": "C" 
			},
			{
				"x": -3.6200735707,
				"y": -3.6434707975,
				"z": 2.0054592917,
				"element": "C" 
			},
			{
				"x": -0.605680152,
				"y": 1.0228654825,
				"z": -1.5656755689,
				"element": "C" 
			},
			{
				"x": -0.1350940824,
				"y": -0.247425288,
				"z": -1.9792415125,
				"element": "O" 
			},
			{
				"x": 0.2760921408,
				"y": 2.1268275958,
				"z": -2.1416322469,
				"element": "C" 
			},
			{
				"x": 0.169052495,
				"y": 2.0563804227,
				"z": -3.5591805749,
				"element": "O" 
			},
			{
				"x": 1.7267476011,
				"y": 1.9517948662,
				"z": -1.6812967293,
				"element": "C" 
			},
			{
				"x": 2.3539057328,
				"y": 3.2017365155,
				"z": -1.9806206928,
				"element": "O" 
			},
			{
				"x": 2.7706085683,
				"y": 3.2584122509,
				"z": 0.5997756972,
				"element": "H" 
			},
			{
				"x": 2.8167008909,
				"y": 1.829026145,
				"z": 1.6576264698,
				"element": "H" 
			},
			{
				"x": 3.8533583856,
				"y": 1.8969029406,
				"z": 0.2240649726,
				"element": "H" 
			},
			{
				"x": 1.8629665432,
				"y": 0.4291750242,
				"z": -0.1598771282,
				"element": "H" 
			},
			{
				"x": -1.4651802282,
				"y": 1.6741284121,
				"z": 0.3406908961,
				"element": "H" 
			},
			{
				"x": -3.2488437768,
				"y": 0.2134273932,
				"z": -0.4598206224,
				"element": "H" 
			},
			{
				"x": -4.7702543998,
				"y": -1.6371602892,
				"z": 0.3193532566,
				"element": "H" 
			},
			{
				"x": -3.0461399409,
				"y": -5.2922685698,
				"z": 3.2519467337,
				"element": "H" 
			},
			{
				"x": -4.6557508407,
				"y": -3.9546473452,
				"z": 1.9100320834,
				"element": "H" 
			},
			{
				"x": -1.6366038064,
				"y": 1.1824210065,
				"z": -1.9173370289,
				"element": "H" 
			},
			{
				"x": -0.0378267756,
				"y": -0.1818059082,
				"z": -2.9411271755,
				"element": "H" 
			},
			{
				"x": -0.0689018037,
				"y": 3.1020985609,
				"z": -1.7695466328,
				"element": "H" 
			},
			{
				"x": 0.8293595006,
				"y": 2.668797341,
				"z": -3.9129847993,
				"element": "H" 
			},
			{
				"x": 2.181106901,
				"y": 1.1522325731,
				"z": -2.2818075582,
				"element": "H" 
			},
			{
				"x": 3.3099039546,
				"y": 3.0928672036,
				"z": -1.903615207,
				"element": "H" 
			}
		],
		 "valence_orbital": [ 
			{
				"type": "occ",
				"energy": -0.26965,
				"method": "rhf"
			},
			{
				"type": "occ",
				"energy": -0.25956,
				"method": "rhf"
			},
			{
				"type": "occ",
				"energy": -0.25416,
				"method": "rhf"
			},
			{
				"type": "occ",
				"energy": -0.22183,
				"method": "rhf"
			},
			{
				"type": "occ",
				"energy": -0.19303,
				"method": "rhf"
			},
			{
				"type": "unocc",
				"energy": -0.02123,
				"method": "rhf"
			},
			{
				"type": "unocc",
				"energy": 0.00431,
				"method": "rhf"
			},
			{
				"type": "unocc",
				"energy": 0.01228,
				"method": "rhf"
			},
			{
				"type": "unocc",
				"energy": 0.05284,
				"method": "rhf"
			},
			{
				"type": "unocc",
				"energy": 0.06008,
				"method": "rhf"
			}
		],
		"cosmo_sigma_profile": { 
			"-0.025": 0.0,
			"-0.024": 0.0,
			"-0.023": 0.0,
			"-0.022": 0.0,
			"-0.021": 0.0,
			"-0.02": 0.0,
			"-0.019": 0.0,
			"-0.018": 0.0,
			"-0.017": 0.144865140107,
			"-0.016": 1.76672082514,
			"-0.015": 2.67267879512,
			"-0.014": 2.8915949471,
			"-0.013": 3.10837251088,
			"-0.012": 3.62853115165,
			"-0.011": 4.20003568093,
			"-0.01": 5.01992220323,
			"-0.009": 6.24599205685,
			"-0.008": 7.40915688342,
			"-0.007": 12.2472882357,
			"-0.006": 11.6838768506,
			"-0.005": 13.7215010846,
			"-0.004": 17.5245819418,
			"-0.003": 19.6786648851,
			"-0.002": 20.1335279029,
			"-0.001": 16.3561815762,
			"0.0": 17.9496092689,
			"0.001": 20.3846311048,
			"0.002": 26.9701824301,
			"0.003": 35.0288217541,
			"0.004": 28.277311396,
			"0.005": 20.4158708911,
			"0.006": 10.3590243366,
			"0.007": 5.75187917108,
			"0.008": 5.6501123311,
			"0.009": 6.38403784547,
			"0.01": 5.53486417519,
			"0.011": 5.99601176725,
			"0.012": 4.10253960435,
			"0.013": 3.27789052117,
			"0.014": 0.490114131511,
			"0.015": 0.0,
			"0.016": 0.0,
			"0.017": 0.0,
			"0.018": 0.0,
			"0.019": 0.0,
			"0.02": 0.0,
			"0.021": 0.0,
			"0.022": 0.0,
			"0.023": 0.0,
			"0.024": 0.0,
			"0.025": 0.0
		}
	}
}
