{
	 "smiles": "[O-][N+](=O)C1=CC(Br)=CC=C1", 
	 "Tm": 328.15, 
	 "num_atms": 14, 
	 "gaussian": { 
		 "optdone": 1, 
		 "sigma_profile": "yes", 
		 "theory": "DFT", 
		 "functional": "B3LYP", 
		 "basiset": "6-31G**", 
		 "properties": { 
			 "R2extent": 3205.6005, 
			 "electric_dipole_moment_norm": 3.84858845033, 
			 "electric_quadrupole_moment_norm": 5.20353291428, 
			 "total_energy": -3007.54876963, 
			 "HOMO_LUMO_gap": 0.16917, 
			 "cosmo_polarized_energy": -7.38, 
			 "cosmo_cavitation_energy": 21.64, 
			 "cosmo_dispersion_energy": -16.46, 
			 "cosmo_repulsion_energy": 1.33, 
			 "cosmo_total_nonelectrostatic_energy": 6.51, 
			 "SMD_solvation_energy": 4.93 
		},
		"coords": [
			{
				"x": -1.6292112598,
				"y": -0.4470172605,
				"z": 2.1821699841,
				"element": "O" 
			},
			{
				"x": -1.2010735674,
				"y": -1.1842401246,
				"z": 1.296104469,
				"element": "N" 
			},
			{
				"x": -1.3879607174,
				"y": -2.3978271594,
				"z": 1.2357758003,
				"element": "O" 
			},
			{
				"x": -0.4010489598,
				"y": -0.5628299204,
				"z": 0.2237754781,
				"element": "C" 
			},
			{
				"x": 0.0940935753,
				"y": -1.3803890763,
				"z": -0.7900760437,
				"element": "C" 
			},
			{
				"x": 0.8469074131,
				"y": -0.7806875025,
				"z": -1.7947858255,
				"element": "C" 
			},
			{
				"x": 1.5469314643,
				"y": -1.8566820693,
				"z": -3.2043105352,
				"element": "Br" 
			},
			{
				"x": 1.0987846964,
				"y": 0.5930950959,
				"z": -1.7894079745,
				"element": "C" 
			},
			{
				"x": 0.5862913067,
				"y": 1.3813859216,
				"z": -0.7569448818,
				"element": "C" 
			},
			{
				"x": -0.1712926475,
				"y": 0.8102915734,
				"z": 0.2636953227,
				"element": "C" 
			},
			{
				"x": -0.1109744668,
				"y": -2.4422785883,
				"z": -0.7780872607,
				"element": "H" 
			},
			{
				"x": 1.6880426214,
				"y": 1.0374120767,
				"z": -2.5832312324,
				"element": "H" 
			},
			{
				"x": 0.7812937349,
				"y": 2.4490146717,
				"z": -0.7515423445,
				"element": "H" 
			},
			{
				"x": -0.5810831935,
				"y": 1.3959523622,
				"z": 1.076365044,
				"element": "H" 
			}
		],
		 "valence_orbital": [ 
			{
				"type": "occ",
				"energy": -0.31707,
				"method": "rhf"
			},
			{
				"type": "occ",
				"energy": -0.3048,
				"method": "rhf"
			},
			{
				"type": "occ",
				"energy": -0.29961,
				"method": "rhf"
			},
			{
				"type": "occ",
				"energy": -0.29517,
				"method": "rhf"
			},
			{
				"type": "occ",
				"energy": -0.26804,
				"method": "rhf"
			},
			{
				"type": "unocc",
				"energy": -0.09887,
				"method": "rhf"
			},
			{
				"type": "unocc",
				"energy": -0.04139,
				"method": "rhf"
			},
			{
				"type": "unocc",
				"energy": -0.0129,
				"method": "rhf"
			},
			{
				"type": "unocc",
				"energy": -0.01196,
				"method": "rhf"
			},
			{
				"type": "unocc",
				"energy": 0.08855,
				"method": "rhf"
			}
		],
		"cosmo_sigma_profile": { 
			"-0.025": 0.0,
			"-0.024": 0.0,
			"-0.023": 0.0,
			"-0.022": 0.0,
			"-0.021": 0.0,
			"-0.02": 0.0,
			"-0.019": 0.0,
			"-0.018": 0.0,
			"-0.017": 0.0,
			"-0.016": 0.0,
			"-0.015": 0.0,
			"-0.014": 0.0,
			"-0.013": 0.0,
			"-0.012": 0.0,
			"-0.011": 0.0,
			"-0.01": 0.0,
			"-0.009": 0.534268220176,
			"-0.008": 5.72783618679,
			"-0.007": 8.85752079999,
			"-0.006": 8.5771978884,
			"-0.005": 8.82330415061,
			"-0.004": 8.88339303831,
			"-0.003": 11.0149990348,
			"-0.002": 12.2506714531,
			"-0.001": 16.7315202905,
			"0.0": 22.0413440775,
			"0.001": 14.468679857,
			"0.002": 9.0149276919,
			"0.003": 11.5307037693,
			"0.004": 11.2760372991,
			"0.005": 3.19211677741,
			"0.006": 4.28856719321,
			"0.007": 9.42819032468,
			"0.008": 5.59628028519,
			"0.009": 4.24867639902,
			"0.01": 1.40128250805,
			"0.011": 0.0,
			"0.012": 0.0,
			"0.013": 0.0,
			"0.014": 0.0,
			"0.015": 0.0,
			"0.016": 0.0,
			"0.017": 0.0,
			"0.018": 0.0,
			"0.019": 0.0,
			"0.02": 0.0,
			"0.021": 0.0,
			"0.022": 0.0,
			"0.023": 0.0,
			"0.024": 0.0,
			"0.025": 0.0
		}
	}
}
