{
	 "smiles": "NNC(=O)C1=CC=C(O)C=C1", 
	 "Tm": 538.15, 
	 "num_atms": 19, 
	 "gaussian": { 
		 "optdone": 1, 
		 "sigma_profile": "yes", 
		 "theory": "DFT", 
		 "functional": "B3LYP", 
		 "basiset": "6-31G**", 
		 "properties": { 
			 "R2extent": 2201.0599, 
			 "electric_dipole_moment_norm": 3.75251086208, 
			 "electric_quadrupole_moment_norm": 4.88043078836, 
			 "total_energy": -531.49698404, 
			 "HOMO_LUMO_gap": 0.20163, 
			 "cosmo_polarized_energy": -16.81, 
			 "cosmo_cavitation_energy": 23.55, 
			 "cosmo_dispersion_energy": -17.61, 
			 "cosmo_repulsion_energy": 1.42, 
			 "cosmo_total_nonelectrostatic_energy": 7.37, 
			 "SMD_solvation_energy": 5.48 
		},
		"coords": [
			{
				"x": -3.4800354427,
				"y": 2.1879959245,
				"z": 0.5667921837,
				"element": "N" 
			},
			{
				"x": -2.1834092244,
				"y": 1.7434231605,
				"z": 0.214335732,
				"element": "N" 
			},
			{
				"x": -1.8131509394,
				"y": 0.4462194046,
				"z": 0.5096461779,
				"element": "C" 
			},
			{
				"x": -2.5316009628,
				"y": -0.2776379294,
				"z": 1.1951869726,
				"element": "O" 
			},
			{
				"x": -0.5078660128,
				"y": -0.0093915661,
				"z": -0.0548375177,
				"element": "C" 
			},
			{
				"x": -0.274287145,
				"y": -1.391758533,
				"z": -0.1320306411,
				"element": "C" 
			},
			{
				"x": 0.9144600659,
				"y": -1.8890662252,
				"z": -0.6460911011,
				"element": "C" 
			},
			{
				"x": 1.9064622058,
				"y": -1.0009351587,
				"z": -1.0846902235,
				"element": "C" 
			},
			{
				"x": 3.054823817,
				"y": -1.5402189539,
				"z": -1.5795815167,
				"element": "O" 
			},
			{
				"x": 1.697042533,
				"y": 0.3807749319,
				"z": -0.9957127903,
				"element": "C" 
			},
			{
				"x": 0.4977197151,
				"y": 0.8684476099,
				"z": -0.4822363891,
				"element": "C" 
			},
			{
				"x": -3.4197393106,
				"y": 2.563647918,
				"z": 1.5127709599,
				"element": "H" 
			},
			{
				"x": -4.0538663566,
				"y": 1.3462435224,
				"z": 0.6517758791,
				"element": "H" 
			},
			{
				"x": -1.8463148932,
				"y": 2.1477714899,
				"z": -0.6481915339,
				"element": "H" 
			},
			{
				"x": -1.0491728586,
				"y": -2.0627629284,
				"z": 0.2229944119,
				"element": "H" 
			},
			{
				"x": 1.0996303473,
				"y": -2.9557452154,
				"z": -0.7155168754,
				"element": "H" 
			},
			{
				"x": 3.656072604,
				"y": -0.8307904873,
				"z": -1.8418663842,
				"element": "H" 
			},
			{
				"x": 2.4750506836,
				"y": 1.0709872185,
				"z": -1.3149398452,
				"element": "H" 
			},
			{
				"x": 0.3661811745,
				"y": 1.9420958171,
				"z": -0.386007499,
				"element": "H" 
			}
		],
		 "valence_orbital": [ 
			{
				"type": "occ",
				"energy": -0.28741,
				"method": "rhf"
			},
			{
				"type": "occ",
				"energy": -0.26464,
				"method": "rhf"
			},
			{
				"type": "occ",
				"energy": -0.25788,
				"method": "rhf"
			},
			{
				"type": "occ",
				"energy": -0.24795,
				"method": "rhf"
			},
			{
				"type": "occ",
				"energy": -0.2323,
				"method": "rhf"
			},
			{
				"type": "unocc",
				"energy": -0.03067,
				"method": "rhf"
			},
			{
				"type": "unocc",
				"energy": -0.01322,
				"method": "rhf"
			},
			{
				"type": "unocc",
				"energy": 0.05989,
				"method": "rhf"
			},
			{
				"type": "unocc",
				"energy": 0.06166,
				"method": "rhf"
			},
			{
				"type": "unocc",
				"energy": 0.08597,
				"method": "rhf"
			}
		],
		"cosmo_sigma_profile": { 
			"-0.025": 0.0,
			"-0.024": 0.0,
			"-0.023": 0.0,
			"-0.022": 0.0,
			"-0.021": 0.0,
			"-0.02": 0.0,
			"-0.019": 0.0331937650082,
			"-0.018": 0.790090440321,
			"-0.017": 1.53815709386,
			"-0.016": 0.458417347641,
			"-0.015": 1.49371316517,
			"-0.014": 1.29976248813,
			"-0.013": 2.40173392854,
			"-0.012": 2.56845452831,
			"-0.011": 2.91809599457,
			"-0.01": 3.65972040784,
			"-0.009": 4.93906840974,
			"-0.008": 5.08039411886,
			"-0.007": 5.80877967872,
			"-0.006": 8.01005986887,
			"-0.005": 8.74290811866,
			"-0.004": 10.2571221206,
			"-0.003": 7.79322852126,
			"-0.002": 6.59289850398,
			"-0.001": 8.91107314091,
			"0.0": 9.63204048763,
			"0.001": 10.9917748552,
			"0.002": 12.3919813893,
			"0.003": 14.1916887949,
			"0.004": 16.7568269048,
			"0.005": 6.36637747891,
			"0.006": 3.19311891089,
			"0.007": 3.80517231466,
			"0.008": 3.15193360707,
			"0.009": 3.8378177768,
			"0.01": 3.56519718059,
			"0.011": 3.43455447181,
			"0.012": 3.48174936928,
			"0.013": 4.58756154301,
			"0.014": 2.60604165315,
			"0.015": 0.623058104815,
			"0.016": 0.56391041146,
			"0.017": 0.416562567706,
			"0.018": 0.0,
			"0.019": 0.0,
			"0.02": 0.0,
			"0.021": 0.0,
			"0.022": 0.0,
			"0.023": 0.0,
			"0.024": 0.0,
			"0.025": 0.0
		}
	}
}
