{
	 "smiles": "OC(=O)C1=CSC(=N1)C1=CC=CC=C1", 
	 "Tm": 433.15, 
	 "num_atms": 21, 
	 "gaussian": { 
		 "optdone": 1, 
		 "sigma_profile": "yes", 
		 "theory": "DFT", 
		 "functional": "B3LYP", 
		 "basiset": "6-31G**", 
		 "properties": { 
			 "R2extent": 3671.9044, 
			 "electric_dipole_moment_norm": 6.03296418106, 
			 "electric_quadrupole_moment_norm": 14.5244508271, 
			 "total_energy": -988.681827286, 
			 "HOMO_LUMO_gap": 0.16762, 
			 "cosmo_polarized_energy": -12.12, 
			 "cosmo_cavitation_energy": 27.78, 
			 "cosmo_dispersion_energy": -21.09, 
			 "cosmo_repulsion_energy": 1.59, 
			 "cosmo_total_nonelectrostatic_energy": 8.28, 
			 "SMD_solvation_energy": 5.17 
		},
		"coords": [
			{
				"x": 1.4482954205,
				"y": -2.7004827936,
				"z": 1.8175050393,
				"element": "O" 
			},
			{
				"x": 1.0467602003,
				"y": -2.9949204158,
				"z": 0.5643065168,
				"element": "C" 
			},
			{
				"x": 1.1695373251,
				"y": -4.095993108,
				"z": 0.0799491583,
				"element": "O" 
			},
			{
				"x": 0.4414886853,
				"y": -1.8384166526,
				"z": -0.1593790094,
				"element": "C" 
			},
			{
				"x": -0.0401505298,
				"y": -1.884896086,
				"z": -1.4379561815,
				"element": "C" 
			},
			{
				"x": -0.6493090794,
				"y": -0.3363441799,
				"z": -1.8857322561,
				"element": "S" 
			},
			{
				"x": -0.2065818601,
				"y": 0.2872566249,
				"z": -0.2871346388,
				"element": "C" 
			},
			{
				"x": 0.3445756745,
				"y": -0.6224090758,
				"z": 0.4750307396,
				"element": "N" 
			},
			{
				"x": -0.4438829616,
				"y": 1.6798744089,
				"z": 0.1123806861,
				"element": "C" 
			},
			{
				"x": -1.0499305573,
				"y": 2.6059634842,
				"z": -0.7522637149,
				"element": "C" 
			},
			{
				"x": -1.2615238385,
				"y": 3.9204875974,
				"z": -0.3436576186,
				"element": "C" 
			},
			{
				"x": -0.8718762447,
				"y": 4.3301456647,
				"z": 0.9331802478,
				"element": "C" 
			},
			{
				"x": -0.2682763535,
				"y": 3.4153050401,
				"z": 1.8000694347,
				"element": "C" 
			},
			{
				"x": -0.0545717346,
				"y": 2.1008427923,
				"z": 1.3964852148,
				"element": "C" 
			},
			{
				"x": 1.2450157584,
				"y": -1.7599853357,
				"z": 1.9769524724,
				"element": "H" 
			},
			{
				"x": -0.0578875565,
				"y": -2.735832421,
				"z": -2.1027873968,
				"element": "H" 
			},
			{
				"x": -1.3598102038,
				"y": 2.3035375034,
				"z": -1.7488476756,
				"element": "H" 
			},
			{
				"x": -1.7313448647,
				"y": 4.6248579379,
				"z": -1.0233399983,
				"element": "H" 
			},
			{
				"x": -1.0374902173,
				"y": 5.3553154087,
				"z": 1.2505124064,
				"element": "H" 
			},
			{
				"x": 0.03721083,
				"y": 3.7273549048,
				"z": 2.7943204579,
				"element": "H" 
			},
			{
				"x": 0.4132521076,
				"y": 1.3857387009,
				"z": 2.0634061159,
				"element": "H" 
			}
		],
		 "valence_orbital": [ 
			{
				"type": "occ",
				"energy": -0.30804,
				"method": "rhf"
			},
			{
				"type": "occ",
				"energy": -0.29636,
				"method": "rhf"
			},
			{
				"type": "occ",
				"energy": -0.27143,
				"method": "rhf"
			},
			{
				"type": "occ",
				"energy": -0.27113,
				"method": "rhf"
			},
			{
				"type": "occ",
				"energy": -0.24239,
				"method": "rhf"
			},
			{
				"type": "unocc",
				"energy": -0.07477,
				"method": "rhf"
			},
			{
				"type": "unocc",
				"energy": -0.03909,
				"method": "rhf"
			},
			{
				"type": "unocc",
				"energy": -0.01978,
				"method": "rhf"
			},
			{
				"type": "unocc",
				"energy": -0.00117,
				"method": "rhf"
			},
			{
				"type": "unocc",
				"energy": 0.02626,
				"method": "rhf"
			}
		],
		"cosmo_sigma_profile": { 
			"-0.025": 0.0,
			"-0.024": 0.0,
			"-0.023": 0.0,
			"-0.022": 0.0,
			"-0.021": 0.0,
			"-0.02": 0.0,
			"-0.019": 0.0,
			"-0.018": 0.0,
			"-0.017": 0.0,
			"-0.016": 0.0,
			"-0.015": 0.0,
			"-0.014": 0.24459412754,
			"-0.013": 0.723230626895,
			"-0.012": 0.158528371512,
			"-0.011": 1.16861906501,
			"-0.01": 2.51372380013,
			"-0.009": 2.47458639178,
			"-0.008": 2.25496525304,
			"-0.007": 6.02029528928,
			"-0.006": 12.8464078385,
			"-0.005": 15.6805327887,
			"-0.004": 15.6648550595,
			"-0.003": 12.0079402632,
			"-0.002": 17.3221373887,
			"-0.001": 19.6389850764,
			"0.0": 22.6473263231,
			"0.001": 18.4879032707,
			"0.002": 15.2222840954,
			"0.003": 14.2282019106,
			"0.004": 14.8074250151,
			"0.005": 5.1932858775,
			"0.006": 2.28014956604,
			"0.007": 1.86477056141,
			"0.008": 2.97955499228,
			"0.009": 3.93004044077,
			"0.01": 5.02094994292,
			"0.011": 4.7558831505,
			"0.012": 4.79407115077,
			"0.013": 1.47334791273,
			"0.014": 0.0371464489795,
			"0.015": 0.0,
			"0.016": 0.0,
			"0.017": 0.0,
			"0.018": 0.0,
			"0.019": 0.0,
			"0.02": 0.0,
			"0.021": 0.0,
			"0.022": 0.0,
			"0.023": 0.0,
			"0.024": 0.0,
			"0.025": 0.0
		}
	}
}
