{
	 "smiles": "OC1=CC(Cl)=CC=C1Cl", 
	 "Tm": 331.15, 
	 "num_atms": 13, 
	 "gaussian": { 
		 "optdone": 1, 
		 "sigma_profile": "yes", 
		 "theory": "DFT", 
		 "functional": "B3LYP", 
		 "basiset": "6-31G**", 
		 "properties": { 
			 "R2extent": 2171.3196, 
			 "electric_dipole_moment_norm": 1.31096745192, 
			 "electric_quadrupole_moment_norm": 13.7001963205, 
			 "total_energy": -1226.65032337, 
			 "HOMO_LUMO_gap": 0.20944, 
			 "cosmo_polarized_energy": -9.41, 
			 "cosmo_cavitation_energy": 21.02, 
			 "cosmo_dispersion_energy": -16.11, 
			 "cosmo_repulsion_energy": 1.33, 
			 "cosmo_total_nonelectrostatic_energy": 6.24, 
			 "SMD_solvation_energy": 3.51 
		},
		"coords": [
			{
				"x": 2.5213725653,
				"y": 0.821556733,
				"z": 0.7883927937,
				"element": "O" 
			},
			{
				"x": 1.5364357974,
				"y": 0.355958943,
				"z": -0.0199341534,
				"element": "C" 
			},
			{
				"x": 1.5276903065,
				"y": -0.950536782,
				"z": -0.5211685919,
				"element": "C" 
			},
			{
				"x": 0.4870498803,
				"y": -1.3688944015,
				"z": -1.3473030451,
				"element": "C" 
			},
			{
				"x": 0.5016622077,
				"y": -3.0136222202,
				"z": -1.9618691078,
				"element": "Cl" 
			},
			{
				"x": -0.5563420463,
				"y": -0.5131103021,
				"z": -1.6918615626,
				"element": "C" 
			},
			{
				"x": -0.5442825794,
				"y": 0.7886219144,
				"z": -1.1903109697,
				"element": "C" 
			},
			{
				"x": 0.4868028785,
				"y": 1.2253116724,
				"z": -0.3633495177,
				"element": "C" 
			},
			{
				"x": 0.4837891319,
				"y": 2.859978575,
				"z": 0.254826951,
				"element": "Cl" 
			},
			{
				"x": 3.1701388806,
				"y": 0.1217502567,
				"z": 0.9390706605,
				"element": "H" 
			},
			{
				"x": 2.3305740376,
				"y": -1.6358984675,
				"z": -0.2662398878,
				"element": "H" 
			},
			{
				"x": -1.3588816149,
				"y": -0.8526562034,
				"z": -2.3353902221,
				"element": "H" 
			},
			{
				"x": -1.343609445,
				"y": 1.4771402823,
				"z": -1.4417633472,
				"element": "H" 
			}
		],
		 "valence_orbital": [ 
			{
				"type": "occ",
				"energy": -0.32157,
				"method": "rhf"
			},
			{
				"type": "occ",
				"energy": -0.31444,
				"method": "rhf"
			},
			{
				"type": "occ",
				"energy": -0.31371,
				"method": "rhf"
			},
			{
				"type": "occ",
				"energy": -0.26035,
				"method": "rhf"
			},
			{
				"type": "occ",
				"energy": -0.23563,
				"method": "rhf"
			},
			{
				"type": "unocc",
				"energy": -0.02619,
				"method": "rhf"
			},
			{
				"type": "unocc",
				"energy": -0.01116,
				"method": "rhf"
			},
			{
				"type": "unocc",
				"energy": 0.01348,
				"method": "rhf"
			},
			{
				"type": "unocc",
				"energy": 0.03613,
				"method": "rhf"
			},
			{
				"type": "unocc",
				"energy": 0.05652,
				"method": "rhf"
			}
		],
		"cosmo_sigma_profile": { 
			"-0.025": 0.0,
			"-0.024": 0.0,
			"-0.023": 0.0,
			"-0.022": 0.0,
			"-0.021": 0.0,
			"-0.02": 0.0,
			"-0.019": 0.797888688342,
			"-0.018": 1.27433795854,
			"-0.017": 1.38509793009,
			"-0.016": 1.21807422252,
			"-0.015": 0.997263834888,
			"-0.014": 0.581915486988,
			"-0.013": 0.847218166297,
			"-0.012": 1.40504191238,
			"-0.011": 1.1897809872,
			"-0.01": 0.990496789742,
			"-0.009": 1.43180899262,
			"-0.008": 2.8634724203,
			"-0.007": 5.53247766366,
			"-0.006": 5.62041754032,
			"-0.005": 4.81333680122,
			"-0.004": 4.43290184581,
			"-0.003": 5.21867857432,
			"-0.002": 8.00180499986,
			"-0.001": 8.77350227024,
			"0.0": 11.8231411308,
			"0.001": 21.2652969561,
			"0.002": 23.6042264093,
			"0.003": 19.4684309206,
			"0.004": 18.6834266509,
			"0.005": 9.66562355511,
			"0.006": 2.76513802482,
			"0.007": 1.58063529562,
			"0.008": 2.16302852528,
			"0.009": 1.82375267898,
			"0.01": 2.20055989158,
			"0.011": 0.868676858622,
			"0.012": 0.0,
			"0.013": 0.0,
			"0.014": 0.0,
			"0.015": 0.0,
			"0.016": 0.0,
			"0.017": 0.0,
			"0.018": 0.0,
			"0.019": 0.0,
			"0.02": 0.0,
			"0.021": 0.0,
			"0.022": 0.0,
			"0.023": 0.0,
			"0.024": 0.0,
			"0.025": 0.0
		}
	}
}
