{
	 "smiles": "NC1=C2C(O)CCCC2=NC2=C1C=CC=C2", 
	 "Tm": 518.15, 
	 "num_atms": 30, 
	 "gaussian": { 
		 "optdone": 1, 
		 "sigma_profile": "yes", 
		 "theory": "DFT", 
		 "functional": "B3LYP", 
		 "basiset": "6-31G**", 
		 "properties": { 
			 "R2extent": 3810.9022, 
			 "electric_dipole_moment_norm": 1.91060713125, 
			 "electric_quadrupole_moment_norm": 9.12917109162, 
			 "total_energy": -688.575733129, 
			 "HOMO_LUMO_gap": 0.16572, 
			 "cosmo_polarized_energy": -13.41, 
			 "cosmo_cavitation_energy": 30.95, 
			 "cosmo_dispersion_energy": -23.55, 
			 "cosmo_repulsion_energy": 1.8, 
			 "cosmo_total_nonelectrostatic_energy": 9.2, 
			 "SMD_solvation_energy": 2.61 
		},
		"coords": [
			{
				"x": 0.6728407619,
				"y": -1.7033255996,
				"z": 0.6620055639,
				"element": "N" 
			},
			{
				"x": -0.1320276329,
				"y": -0.6088843262,
				"z": 0.4347482311,
				"element": "C" 
			},
			{
				"x": 0.3441289972,
				"y": 0.4594502268,
				"z": -0.3385180556,
				"element": "C" 
			},
			{
				"x": 1.7254685328,
				"y": 0.3548037522,
				"z": -0.9569403053,
				"element": "C" 
			},
			{
				"x": 2.7411928278,
				"y": 0.1959098723,
				"z": 0.068653732,
				"element": "O" 
			},
			{
				"x": 2.0667651007,
				"y": 1.5114757963,
				"z": -1.9041758017,
				"element": "C" 
			},
			{
				"x": 1.5507112313,
				"y": 2.8526585617,
				"z": -1.3761912684,
				"element": "C" 
			},
			{
				"x": 0.023455674,
				"y": 2.8058349661,
				"z": -1.2762134794,
				"element": "C" 
			},
			{
				"x": -0.4823187394,
				"y": 1.6034482864,
				"z": -0.501590852,
				"element": "C" 
			},
			{
				"x": -1.706259963,
				"y": 1.7109158731,
				"z": -0.0073144658,
				"element": "N" 
			},
			{
				"x": -2.2117442897,
				"y": 0.6503833958,
				"z": 0.6814914386,
				"element": "C" 
			},
			{
				"x": -1.4740795502,
				"y": -0.5472025959,
				"z": 0.9370874493,
				"element": "C" 
			},
			{
				"x": -2.0944714424,
				"y": -1.5966811141,
				"z": 1.6642536828,
				"element": "C" 
			},
			{
				"x": -3.3862878877,
				"y": -1.4697250361,
				"z": 2.1273836897,
				"element": "C" 
			},
			{
				"x": -4.1135828333,
				"y": -0.2803490074,
				"z": 1.885136052,
				"element": "C" 
			},
			{
				"x": -3.539214338,
				"y": 0.7525984998,
				"z": 1.1798492989,
				"element": "C" 
			},
			{
				"x": 1.6660256933,
				"y": -1.4979284937,
				"z": 0.6406725203,
				"element": "H" 
			},
			{
				"x": 0.3968453674,
				"y": -2.32624728,
				"z": 1.4049872552,
				"element": "H" 
			},
			{
				"x": 1.7944791761,
				"y": -0.5889509647,
				"z": -1.5119426764,
				"element": "H" 
			},
			{
				"x": 2.6043520208,
				"y": 0.901727563,
				"z": 0.716072059,
				"element": "H" 
			},
			{
				"x": 3.1515533961,
				"y": 1.5160849859,
				"z": -2.0505307409,
				"element": "H" 
			},
			{
				"x": 1.6084116367,
				"y": 1.314918539,
				"z": -2.8827883106,
				"element": "H" 
			},
			{
				"x": 1.9863084928,
				"y": 3.0598111913,
				"z": -0.3880831641,
				"element": "H" 
			},
			{
				"x": 1.8659555352,
				"y": 3.673087883,
				"z": -2.0296655859,
				"element": "H" 
			},
			{
				"x": -0.4024733397,
				"y": 2.7681800582,
				"z": -2.2896811258,
				"element": "H" 
			},
			{
				"x": -0.388366694,
				"y": 3.7048209983,
				"z": -0.8082041883,
				"element": "H" 
			},
			{
				"x": -1.5641248883,
				"y": -2.5281959906,
				"z": 1.8430218846,
				"element": "H" 
			},
			{
				"x": -3.8487749381,
				"y": -2.2847926765,
				"z": 2.6760855996,
				"element": "H" 
			},
			{
				"x": -5.130553947,
				"y": -0.1877657733,
				"z": 2.2558271031,
				"element": "H" 
			},
			{
				"x": -4.0746139604,
				"y": 1.674038409,
				"z": 0.9750644602,
				"element": "H" 
			}
		],
		 "valence_orbital": [ 
			{
				"type": "occ",
				"energy": -0.27831,
				"method": "rhf"
			},
			{
				"type": "occ",
				"energy": -0.25458,
				"method": "rhf"
			},
			{
				"type": "occ",
				"energy": -0.23879,
				"method": "rhf"
			},
			{
				"type": "occ",
				"energy": -0.23759,
				"method": "rhf"
			},
			{
				"type": "occ",
				"energy": -0.20356,
				"method": "rhf"
			},
			{
				"type": "unocc",
				"energy": -0.03784,
				"method": "rhf"
			},
			{
				"type": "unocc",
				"energy": -0.00743,
				"method": "rhf"
			},
			{
				"type": "unocc",
				"energy": 0.03562,
				"method": "rhf"
			},
			{
				"type": "unocc",
				"energy": 0.06223,
				"method": "rhf"
			},
			{
				"type": "unocc",
				"energy": 0.08146,
				"method": "rhf"
			}
		],
		"cosmo_sigma_profile": { 
			"-0.025": 0.0,
			"-0.024": 0.0,
			"-0.023": 0.0,
			"-0.022": 0.0,
			"-0.021": 0.0,
			"-0.02": 0.0,
			"-0.019": 0.0,
			"-0.018": 0.0,
			"-0.017": 0.0,
			"-0.016": 0.0,
			"-0.015": 0.177734089404,
			"-0.014": 1.10528721882,
			"-0.013": 2.1442481832,
			"-0.012": 1.78687333057,
			"-0.011": 2.72699310728,
			"-0.01": 3.14287539527,
			"-0.009": 2.78258801045,
			"-0.008": 3.40504418243,
			"-0.007": 3.11830848116,
			"-0.006": 5.81566788348,
			"-0.005": 10.1973093931,
			"-0.004": 15.2797268081,
			"-0.003": 25.6800154057,
			"-0.002": 21.9818735446,
			"-0.001": 24.5933567435,
			"0.0": 19.7617607002,
			"0.001": 13.4188893997,
			"0.002": 12.6374131733,
			"0.003": 16.745141689,
			"0.004": 16.5156314452,
			"0.005": 13.4782887245,
			"0.006": 4.24566987796,
			"0.007": 3.84533002186,
			"0.008": 3.52360905999,
			"0.009": 3.28302216083,
			"0.01": 2.68901375379,
			"0.011": 2.32039464358,
			"0.012": 1.73763286572,
			"0.013": 2.30480096551,
			"0.014": 1.58878774083,
			"0.015": 0.688108576249,
			"0.016": 0.882843117445,
			"0.017": 0.48003763582,
			"0.018": 0.114985714418,
			"0.019": 0.0,
			"0.02": 0.0,
			"0.021": 0.0,
			"0.022": 0.0,
			"0.023": 0.0,
			"0.024": 0.0,
			"0.025": 0.0
		}
	}
}
