{
	 "smiles": "COC(=O)C=CC1=CC=CC=C1SC(C)(C)C", 
	 "Tm": 332.5, 
	 "num_atms": 35, 
	 "gaussian": { 
		 "optdone": 1, 
		 "sigma_profile": "yes", 
		 "theory": "DFT", 
		 "functional": "B3LYP", 
		 "basiset": "6-31G**", 
		 "properties": { 
			 "R2extent": 6482.6807, 
			 "electric_dipole_moment_norm": 1.50312650832, 
			 "electric_quadrupole_moment_norm": 10.3106397949, 
			 "total_energy": -1092.97353316, 
			 "HOMO_LUMO_gap": 0.15869, 
			 "cosmo_polarized_energy": -8.22, 
			 "cosmo_cavitation_energy": 38.49, 
			 "cosmo_dispersion_energy": -26.9, 
			 "cosmo_repulsion_energy": 2.05, 
			 "cosmo_total_nonelectrostatic_energy": 13.64, 
			 "SMD_solvation_energy": 7.82 
		},
		"coords": [
			{
				"x": -1.9531748451,
				"y": 4.0420973143,
				"z": 2.9290147126,
				"element": "C" 
			},
			{
				"x": -1.2197823024,
				"y": 2.8125181542,
				"z": 2.8653386017,
				"element": "O" 
			},
			{
				"x": -0.3205317016,
				"y": 2.7253754374,
				"z": 1.8489400398,
				"element": "C" 
			},
			{
				"x": -0.1598658061,
				"y": 3.6367664953,
				"z": 1.0541725969,
				"element": "O" 
			},
			{
				"x": 0.348469081,
				"y": 1.4119713254,
				"z": 1.914913103,
				"element": "C" 
			},
			{
				"x": 1.2176488677,
				"y": 0.7986883463,
				"z": 1.0757346218,
				"element": "C" 
			},
			{
				"x": 1.896226458,
				"y": 1.1646968421,
				"z": -0.1731092604,
				"element": "C" 
			},
			{
				"x": 2.0167915048,
				"y": 2.4977889762,
				"z": -0.6164519761,
				"element": "C" 
			},
			{
				"x": 2.735895041,
				"y": 2.8201278299,
				"z": -1.7633377536,
				"element": "C" 
			},
			{
				"x": 3.3644532274,
				"y": 1.8196337439,
				"z": -2.5037443708,
				"element": "C" 
			},
			{
				"x": 3.2594689768,
				"y": 0.4922514711,
				"z": -2.0900745291,
				"element": "C" 
			},
			{
				"x": 2.5288931957,
				"y": 0.1440224837,
				"z": -0.9465202209,
				"element": "C" 
			},
			{
				"x": 2.5052129437,
				"y": -1.5974091629,
				"z": -0.4895635124,
				"element": "S" 
			},
			{
				"x": 1.0083988648,
				"y": -2.3161591619,
				"z": -1.3958129902,
				"element": "C" 
			},
			{
				"x": 1.2074021526,
				"y": -2.2178029406,
				"z": -2.9127547373,
				"element": "C" 
			},
			{
				"x": 0.9957231975,
				"y": -3.7865602633,
				"z": -0.949465962,
				"element": "C" 
			},
			{
				"x": -0.2856789736,
				"y": -1.6132271615,
				"z": -0.9726248823,
				"element": "C" 
			},
			{
				"x": -2.5398721959,
				"y": 4.1915698349,
				"z": 2.0185670487,
				"element": "H" 
			},
			{
				"x": -2.6092174427,
				"y": 3.9497268695,
				"z": 3.7947854964,
				"element": "H" 
			},
			{
				"x": -1.2758743366,
				"y": 4.8918080576,
				"z": 3.0499710161,
				"element": "H" 
			},
			{
				"x": 0.0384514047,
				"y": 0.837592915,
				"z": 2.7828238435,
				"element": "H" 
			},
			{
				"x": 1.4760344521,
				"y": -0.2095439827,
				"z": 1.3893466965,
				"element": "H" 
			},
			{
				"x": 1.5278625697,
				"y": 3.2767308887,
				"z": -0.0474053724,
				"element": "H" 
			},
			{
				"x": 2.8101519409,
				"y": 3.8588466706,
				"z": -2.0721258617,
				"element": "H" 
			},
			{
				"x": 3.9362754954,
				"y": 2.0662199665,
				"z": -3.3938732312,
				"element": "H" 
			},
			{
				"x": 3.7533029643,
				"y": -0.2939593469,
				"z": -2.6508283068,
				"element": "H" 
			},
			{
				"x": 1.2700759552,
				"y": -1.1768001027,
				"z": -3.2416676161,
				"element": "H" 
			},
			{
				"x": 0.3557926827,
				"y": -2.679916418,
				"z": -3.4277702557,
				"element": "H" 
			},
			{
				"x": 2.1184590567,
				"y": -2.7347468017,
				"z": -3.2277877359,
				"element": "H" 
			},
			{
				"x": 0.1660652739,
				"y": -4.3087141038,
				"z": -1.439688029,
				"element": "H" 
			},
			{
				"x": 0.8596452374,
				"y": -3.8753040985,
				"z": 0.132640349,
				"element": "H" 
			},
			{
				"x": 1.9242162161,
				"y": -4.2970073023,
				"z": -1.2237372962,
				"element": "H" 
			},
			{
				"x": -1.1387088536,
				"y": -2.0773230991,
				"z": -1.4834776201,
				"element": "H" 
			},
			{
				"x": -0.4507421482,
				"y": -1.6922213184,
				"z": 0.1051833955,
				"element": "H" 
			},
			{
				"x": -0.2743681544,
				"y": -0.5534383581,
				"z": -1.2413100014,
				"element": "H" 
			}
		],
		 "valence_orbital": [ 
			{
				"type": "occ",
				"energy": -0.29766,
				"method": "rhf"
			},
			{
				"type": "occ",
				"energy": -0.26851,
				"method": "rhf"
			},
			{
				"type": "occ",
				"energy": -0.24902,
				"method": "rhf"
			},
			{
				"type": "occ",
				"energy": -0.23415,
				"method": "rhf"
			},
			{
				"type": "occ",
				"energy": -0.22498,
				"method": "rhf"
			},
			{
				"type": "unocc",
				"energy": -0.06629,
				"method": "rhf"
			},
			{
				"type": "unocc",
				"energy": -0.01682,
				"method": "rhf"
			},
			{
				"type": "unocc",
				"energy": 0.0135,
				"method": "rhf"
			},
			{
				"type": "unocc",
				"energy": 0.05331,
				"method": "rhf"
			},
			{
				"type": "unocc",
				"energy": 0.06623,
				"method": "rhf"
			}
		],
		"cosmo_sigma_profile": { 
			"-0.025": 0.0,
			"-0.024": 0.0,
			"-0.023": 0.0,
			"-0.022": 0.0,
			"-0.021": 0.0,
			"-0.02": 0.0,
			"-0.019": 0.0,
			"-0.018": 0.0,
			"-0.017": 0.0,
			"-0.016": 0.0,
			"-0.015": 0.0,
			"-0.014": 0.0,
			"-0.013": 0.0,
			"-0.012": 0.0,
			"-0.011": 0.0,
			"-0.01": 0.0,
			"-0.009": 0.0,
			"-0.008": 0.0,
			"-0.007": 1.29014101574,
			"-0.006": 10.5630730591,
			"-0.005": 15.9969800172,
			"-0.004": 22.3974321643,
			"-0.003": 31.2277960797,
			"-0.002": 32.8327674373,
			"-0.001": 33.4164073777,
			"0.0": 39.0748808147,
			"0.001": 31.0513000119,
			"0.002": 21.2835639025,
			"0.003": 17.1527037206,
			"0.004": 15.7004167261,
			"0.005": 7.3698161372,
			"0.006": 6.91432809884,
			"0.007": 4.6715419217,
			"0.008": 4.29315939782,
			"0.009": 3.84003288116,
			"0.01": 2.52608044337,
			"0.011": 1.84598330045,
			"0.012": 1.67947698022,
			"0.013": 0.144039788428,
			"0.014": 0.0,
			"0.015": 0.0,
			"0.016": 0.0,
			"0.017": 0.0,
			"0.018": 0.0,
			"0.019": 0.0,
			"0.02": 0.0,
			"0.021": 0.0,
			"0.022": 0.0,
			"0.023": 0.0,
			"0.024": 0.0,
			"0.025": 0.0
		}
	}
}
