{
	 "smiles": "CC1=NC(CCCC(O)=O)=CS1", 
	 "Tm": 340.15, 
	 "num_atms": 23, 
	 "gaussian": { 
		 "optdone": 1, 
		 "sigma_profile": "yes", 
		 "theory": "DFT", 
		 "functional": "B3LYP", 
		 "basiset": "6-31G**", 
		 "properties": { 
			 "R2extent": 2364.2085, 
			 "electric_dipole_moment_norm": 1.97320107693, 
			 "electric_quadrupole_moment_norm": 8.44415221914, 
			 "total_energy": -914.887168488, 
			 "HOMO_LUMO_gap": 0.21159, 
			 "cosmo_polarized_energy": -12.31, 
			 "cosmo_cavitation_energy": 28.11, 
			 "cosmo_dispersion_energy": -19.96, 
			 "cosmo_repulsion_energy": 1.57, 
			 "cosmo_total_nonelectrostatic_energy": 9.72, 
			 "SMD_solvation_energy": 4.71 
		},
		"coords": [
			{
				"x": 1.3002031739,
				"y": -0.8766994203,
				"z": -2.7232467904,
				"element": "C" 
			},
			{
				"x": 0.3997490993,
				"y": 0.0474529481,
				"z": -1.961052253,
				"element": "C" 
			},
			{
				"x": 0.6389478026,
				"y": 0.4619380546,
				"z": -0.7518345495,
				"element": "N" 
			},
			{
				"x": -0.3468354967,
				"y": 1.3085802221,
				"z": -0.2805195523,
				"element": "C" 
			},
			{
				"x": -0.2252376086,
				"y": 1.8505802787,
				"z": 1.1170363745,
				"element": "C" 
			},
			{
				"x": -0.4330383603,
				"y": 0.8189083445,
				"z": 2.2492536544,
				"element": "C" 
			},
			{
				"x": 0.5927641225,
				"y": -0.3275752189,
				"z": 2.3117690853,
				"element": "C" 
			},
			{
				"x": 0.3878592084,
				"y": -1.5130881662,
				"z": 1.3887643079,
				"element": "C" 
			},
			{
				"x": -0.918275144,
				"y": -1.7211823902,
				"z": 1.0807346337,
				"element": "O" 
			},
			{
				"x": 1.2625883291,
				"y": -2.2641820854,
				"z": 1.0171931235,
				"element": "O" 
			},
			{
				"x": -1.3602203826,
				"y": 1.5561029962,
				"z": -1.1637689492,
				"element": "C" 
			},
			{
				"x": -1.0917255387,
				"y": 0.6920263214,
				"z": -2.6450493628,
				"element": "S" 
			},
			{
				"x": 1.8404290435,
				"y": -1.5024357156,
				"z": -2.0089095167,
				"element": "H" 
			},
			{
				"x": 2.0343589753,
				"y": -0.3138624302,
				"z": -3.3114351476,
				"element": "H" 
			},
			{
				"x": 0.7395083183,
				"y": -1.5159743147,
				"z": -3.4105962861,
				"element": "H" 
			},
			{
				"x": -0.952526573,
				"y": 2.6589061469,
				"z": 1.2500106026,
				"element": "H" 
			},
			{
				"x": 0.7707423428,
				"y": 2.2990066711,
				"z": 1.2270863364,
				"element": "H" 
			},
			{
				"x": -1.442154849,
				"y": 0.4006856329,
				"z": 2.1861921762,
				"element": "H" 
			},
			{
				"x": -0.3787216857,
				"y": 1.3673944059,
				"z": 3.1972278998,
				"element": "H" 
			},
			{
				"x": 1.6114666157,
				"y": 0.0282319954,
				"z": 2.1381358423,
				"element": "H" 
			},
			{
				"x": 0.5812259554,
				"y": -0.7544360513,
				"z": 3.3244100351,
				"element": "H" 
			},
			{
				"x": -0.9313365216,
				"y": -2.5180867847,
				"z": 0.5251021723,
				"element": "H" 
			},
			{
				"x": -2.2354708266,
				"y": 2.1750085598,
				"z": -1.0261038367,
				"element": "H" 
			}
		],
		 "valence_orbital": [ 
			{
				"type": "occ",
				"energy": -0.30571,
				"method": "rhf"
			},
			{
				"type": "occ",
				"energy": -0.27718,
				"method": "rhf"
			},
			{
				"type": "occ",
				"energy": -0.26778,
				"method": "rhf"
			},
			{
				"type": "occ",
				"energy": -0.25999,
				"method": "rhf"
			},
			{
				"type": "occ",
				"energy": -0.23182,
				"method": "rhf"
			},
			{
				"type": "unocc",
				"energy": -0.02023,
				"method": "rhf"
			},
			{
				"type": "unocc",
				"energy": 0.0198,
				"method": "rhf"
			},
			{
				"type": "unocc",
				"energy": 0.02556,
				"method": "rhf"
			},
			{
				"type": "unocc",
				"energy": 0.04956,
				"method": "rhf"
			},
			{
				"type": "unocc",
				"energy": 0.08109,
				"method": "rhf"
			}
		],
		"cosmo_sigma_profile": { 
			"-0.025": 0.0,
			"-0.024": 0.0,
			"-0.023": 0.0,
			"-0.022": 0.0,
			"-0.021": 0.0,
			"-0.02": 0.0,
			"-0.019": 0.0,
			"-0.018": 0.239820780847,
			"-0.017": 0.785055571981,
			"-0.016": 1.04705320359,
			"-0.015": 1.0145381049,
			"-0.014": 0.0840843578176,
			"-0.013": 0.564586264297,
			"-0.012": 0.499132361038,
			"-0.011": 0.800354026017,
			"-0.01": 0.841506624833,
			"-0.009": 0.814071781499,
			"-0.008": 2.29604921403,
			"-0.007": 3.33582725089,
			"-0.006": 8.10971583469,
			"-0.005": 12.7693830711,
			"-0.004": 18.5295303909,
			"-0.003": 22.1627352147,
			"-0.002": 25.5666557638,
			"-0.001": 22.2931391722,
			"0.0": 14.4614182388,
			"0.001": 10.728851293,
			"0.002": 13.5173221895,
			"0.003": 13.0706380462,
			"0.004": 11.2666369937,
			"0.005": 6.42861347815,
			"0.006": 5.21695451282,
			"0.007": 4.19916587204,
			"0.008": 4.38714702674,
			"0.009": 3.46217240761,
			"0.01": 2.38278126502,
			"0.011": 3.1289679301,
			"0.012": 5.20955801236,
			"0.013": 3.73033442302,
			"0.014": 0.409674229855,
			"0.015": 0.0,
			"0.016": 0.0,
			"0.017": 0.0,
			"0.018": 0.0,
			"0.019": 0.0,
			"0.02": 0.0,
			"0.021": 0.0,
			"0.022": 0.0,
			"0.023": 0.0,
			"0.024": 0.0,
			"0.025": 0.0
		}
	}
}
