{
	 "smiles": "CC(C)(C)OC(=O)NC(C#N)C1=CC=C(F)C=C1", 
	 "Tm": 359.15, 
	 "num_atms": 33, 
	 "gaussian": { 
		 "optdone": 1, 
		 "sigma_profile": "yes", 
		 "theory": "DFT", 
		 "functional": "B3LYP", 
		 "basiset": "6-31G**", 
		 "properties": { 
			 "R2extent": 7127.0544, 
			 "electric_dipole_moment_norm": 2.87742714591, 
			 "electric_quadrupole_moment_norm": 12.5672173284, 
			 "total_energy": -864.221560906, 
			 "HOMO_LUMO_gap": 0.22561, 
			 "cosmo_polarized_energy": -13.8, 
			 "cosmo_cavitation_energy": 38.16, 
			 "cosmo_dispersion_energy": -25.13, 
			 "cosmo_repulsion_energy": 1.93, 
			 "cosmo_total_nonelectrostatic_energy": 14.97, 
			 "SMD_solvation_energy": 9.24 
		},
		"coords": [
			{
				"x": -0.8422560959,
				"y": 3.9317881355,
				"z": -0.1020337816,
				"element": "C" 
			},
			{
				"x": -0.0922282258,
				"y": 2.7955531643,
				"z": -0.8030871498,
				"element": "C" 
			},
			{
				"x": -0.537369381,
				"y": 2.6640292428,
				"z": -2.2609832723,
				"element": "C" 
			},
			{
				"x": 1.4282794335,
				"y": 2.9474856626,
				"z": -0.7036679084,
				"element": "C" 
			},
			{
				"x": -0.5041356737,
				"y": 1.4974964351,
				"z": -0.2263862194,
				"element": "O" 
			},
			{
				"x": -0.2933691998,
				"y": 1.2177623547,
				"z": 1.075069365,
				"element": "C" 
			},
			{
				"x": 0.2472923446,
				"y": 1.9270618925,
				"z": 1.9025827494,
				"element": "O" 
			},
			{
				"x": -0.7548479236,
				"y": -0.0512589259,
				"z": 1.377505395,
				"element": "N" 
			},
			{
				"x": -1.6217297265,
				"y": -0.8492117248,
				"z": 0.5169249579,
				"element": "C" 
			},
			{
				"x": -3.0202624568,
				"y": -0.3549977697,
				"z": 0.5426846462,
				"element": "C" 
			},
			{
				"x": -4.1055984297,
				"y": 0.0549604733,
				"z": 0.5720454389,
				"element": "N" 
			},
			{
				"x": -1.5183410835,
				"y": -2.3319937692,
				"z": 0.8758645524,
				"element": "C" 
			},
			{
				"x": -0.2550727293,
				"y": -2.9384430704,
				"z": 0.8188083954,
				"element": "C" 
			},
			{
				"x": -0.0978842076,
				"y": -4.2866563215,
				"z": 1.1264761472,
				"element": "C" 
			},
			{
				"x": -1.221342669,
				"y": -5.0231864656,
				"z": 1.492604548,
				"element": "C" 
			},
			{
				"x": -1.0754003209,
				"y": -6.3284940265,
				"z": 1.7914559357,
				"element": "F" 
			},
			{
				"x": -2.4845462769,
				"y": -4.4509081843,
				"z": 1.5593794067,
				"element": "C" 
			},
			{
				"x": -2.6271248434,
				"y": -3.0969637092,
				"z": 1.248913687,
				"element": "C" 
			},
			{
				"x": -1.9220468411,
				"y": 3.7603559061,
				"z": -0.1490188026,
				"element": "H" 
			},
			{
				"x": -0.6252434126,
				"y": 4.8778555976,
				"z": -0.6082064656,
				"element": "H" 
			},
			{
				"x": -0.5412806538,
				"y": 4.015263788,
				"z": 0.9425101107,
				"element": "H" 
			},
			{
				"x": -1.6174998068,
				"y": 2.5035688937,
				"z": -2.322592026,
				"element": "H" 
			},
			{
				"x": -0.0328459622,
				"y": 1.8234497183,
				"z": -2.746713237,
				"element": "H" 
			},
			{
				"x": -0.2911111871,
				"y": 3.577503289,
				"z": -2.8100262059,
				"element": "H" 
			},
			{
				"x": 1.928677434,
				"y": 2.0954165481,
				"z": -1.1747292144,
				"element": "H" 
			},
			{
				"x": 1.7389733211,
				"y": 3.8557455128,
				"z": -1.229905686,
				"element": "H" 
			},
			{
				"x": 1.7479252504,
				"y": 3.0165642533,
				"z": 0.3363563396,
				"element": "H" 
			},
			{
				"x": -0.7832782465,
				"y": -0.242360907,
				"z": 2.3698205519,
				"element": "H" 
			},
			{
				"x": -1.2660000758,
				"y": -0.7016601472,
				"z": -0.5077903238,
				"element": "H" 
			},
			{
				"x": 0.6118611077,
				"y": -2.346553021,
				"z": 0.5408556881,
				"element": "H" 
			},
			{
				"x": 0.8717373562,
				"y": -4.770684702,
				"z": 1.0865545413,
				"element": "H" 
			},
			{
				"x": -3.3347599225,
				"y": -5.0573229196,
				"z": 1.8513277207,
				"element": "H" 
			},
			{
				"x": -3.6108708957,
				"y": -2.6410652036,
				"z": 1.2972001157,
				"element": "H" 
			}
		],
		 "valence_orbital": [ 
			{
				"type": "occ",
				"energy": -0.30176,
				"method": "rhf"
			},
			{
				"type": "occ",
				"energy": -0.28157,
				"method": "rhf"
			},
			{
				"type": "occ",
				"energy": -0.27679,
				"method": "rhf"
			},
			{
				"type": "occ",
				"energy": -0.27499,
				"method": "rhf"
			},
			{
				"type": "occ",
				"energy": -0.25592,
				"method": "rhf"
			},
			{
				"type": "unocc",
				"energy": -0.03031,
				"method": "rhf"
			},
			{
				"type": "unocc",
				"energy": -0.02086,
				"method": "rhf"
			},
			{
				"type": "unocc",
				"energy": 0.01952,
				"method": "rhf"
			},
			{
				"type": "unocc",
				"energy": 0.02592,
				"method": "rhf"
			},
			{
				"type": "unocc",
				"energy": 0.04388,
				"method": "rhf"
			}
		],
		"cosmo_sigma_profile": { 
			"-0.025": 0.0,
			"-0.024": 0.0,
			"-0.023": 0.0,
			"-0.022": 0.0,
			"-0.021": 0.0,
			"-0.02": 0.0,
			"-0.019": 0.0,
			"-0.018": 0.0,
			"-0.017": 0.0,
			"-0.016": 0.0108889705999,
			"-0.015": 0.611158623391,
			"-0.014": 0.888970371385,
			"-0.013": 0.926644650824,
			"-0.012": 1.25722365202,
			"-0.011": 1.23000369388,
			"-0.01": 0.973051854536,
			"-0.009": 2.27629931876,
			"-0.008": 3.90631736289,
			"-0.007": 8.39143979442,
			"-0.006": 9.73720762567,
			"-0.005": 12.5879600984,
			"-0.004": 20.7045635247,
			"-0.003": 25.3795124546,
			"-0.002": 25.241155134,
			"-0.001": 27.6657661109,
			"0.0": 39.0485950851,
			"0.001": 26.6889795409,
			"0.002": 20.0901242113,
			"0.003": 20.6992160252,
			"0.004": 14.6099781781,
			"0.005": 5.77092779703,
			"0.006": 4.14300455453,
			"0.007": 3.65302077879,
			"0.008": 4.49360592097,
			"0.009": 4.64892611915,
			"0.01": 3.96398164525,
			"0.011": 4.35204031374,
			"0.012": 5.24749430225,
			"0.013": 3.36499302194,
			"0.014": 0.147771126832,
			"0.015": 0.0,
			"0.016": 0.0,
			"0.017": 0.0,
			"0.018": 0.0,
			"0.019": 0.0,
			"0.02": 0.0,
			"0.021": 0.0,
			"0.022": 0.0,
			"0.023": 0.0,
			"0.024": 0.0,
			"0.025": 0.0
		}
	}
}
