{
	 "smiles": "OC(=O)CNC(=O)C1=C(C=CC=C1Cl)[N+]([O-])=O", 
	 "Tm": 460.15, 
	 "num_atms": 24, 
	 "gaussian": { 
		 "optdone": 1, 
		 "sigma_profile": "yes", 
		 "theory": "DFT", 
		 "functional": "B3LYP", 
		 "basiset": "6-31G**", 
		 "properties": { 
			 "R2extent": 4423.963, 
			 "electric_dipole_moment_norm": 6.31140100215, 
			 "electric_quadrupole_moment_norm": 18.1633686763, 
			 "total_energy": -1292.90220503, 
			 "HOMO_LUMO_gap": 0.15609, 
			 "cosmo_polarized_energy": -20.6, 
			 "cosmo_cavitation_energy": 33.13, 
			 "cosmo_dispersion_energy": -22.35, 
			 "cosmo_repulsion_energy": 1.76, 
			 "cosmo_total_nonelectrostatic_energy": 12.53, 
			 "SMD_solvation_energy": 8.49 
		},
		"coords": [
			{
				"x": -4.0915550812,
				"y": 1.6216519575,
				"z": 0.511164792,
				"element": "O" 
			},
			{
				"x": -3.3281516459,
				"y": 1.0923804696,
				"z": -0.4633109592,
				"element": "C" 
			},
			{
				"x": -3.7331910135,
				"y": 0.834033603,
				"z": -1.5743056598,
				"element": "O" 
			},
			{
				"x": -1.9102123454,
				"y": 0.8590916666,
				"z": 0.0205927958,
				"element": "C" 
			},
			{
				"x": -1.1153725655,
				"y": 0.3672550271,
				"z": -1.0807979068,
				"element": "N" 
			},
			{
				"x": 0.1455034027,
				"y": -0.1257099806,
				"z": -0.990185918,
				"element": "C" 
			},
			{
				"x": 0.7141699602,
				"y": -0.7238763485,
				"z": -1.8888736858,
				"element": "O" 
			},
			{
				"x": 0.9288220822,
				"y": 0.1910403856,
				"z": 0.2824668667,
				"element": "C" 
			},
			{
				"x": 1.1676613654,
				"y": -0.7596308939,
				"z": 1.2864277799,
				"element": "C" 
			},
			{
				"x": 2.055890186,
				"y": -0.55208103,
				"z": 2.3380374129,
				"element": "C" 
			},
			{
				"x": 2.7310591693,
				"y": 0.6622149136,
				"z": 2.4178109095,
				"element": "C" 
			},
			{
				"x": 2.5182947806,
				"y": 1.6418705064,
				"z": 1.4501583394,
				"element": "C" 
			},
			{
				"x": 1.6349310426,
				"y": 1.3966133609,
				"z": 0.3964958897,
				"element": "C" 
			},
			{
				"x": 1.4254417535,
				"y": 2.6520534862,
				"z": -0.8103254437,
				"element": "Cl" 
			},
			{
				"x": 0.423888554,
				"y": -2.0324230541,
				"z": 1.2827375957,
				"element": "N" 
			},
			{
				"x": 0.9054020441,
				"y": -2.9751404798,
				"z": 1.9034154955,
				"element": "O" 
			},
			{
				"x": -0.6504052716,
				"y": -2.0609047669,
				"z": 0.6805233593,
				"element": "O" 
			},
			{
				"x": -4.9838962072,
				"y": 1.7301706613,
				"z": 0.1409460927,
				"element": "H" 
			},
			{
				"x": -1.9506235227,
				"y": 0.1393207163,
				"z": 0.8489004796,
				"element": "H" 
			},
			{
				"x": -1.5275597828,
				"y": 1.8057873214,
				"z": 0.4220184707,
				"element": "H" 
			},
			{
				"x": -1.6241050286,
				"y": 0.1389963953,
				"z": -1.9287738144,
				"element": "H" 
			},
			{
				"x": 2.1956614813,
				"y": -1.3365829072,
				"z": 3.070793392,
				"element": "H" 
			},
			{
				"x": 3.4205591827,
				"y": 0.8485911637,
				"z": 3.2343820178,
				"element": "H" 
			},
			{
				"x": 3.03758746,
				"y": 2.5924778264,
				"z": 1.4975016983,
				"element": "H" 
			}
		],
		 "valence_orbital": [ 
			{
				"type": "occ",
				"energy": -0.30537,
				"method": "rhf"
			},
			{
				"type": "occ",
				"energy": -0.29652,
				"method": "rhf"
			},
			{
				"type": "occ",
				"energy": -0.28007,
				"method": "rhf"
			},
			{
				"type": "occ",
				"energy": -0.26552,
				"method": "rhf"
			},
			{
				"type": "occ",
				"energy": -0.25851,
				"method": "rhf"
			},
			{
				"type": "unocc",
				"energy": -0.10242,
				"method": "rhf"
			},
			{
				"type": "unocc",
				"energy": -0.04715,
				"method": "rhf"
			},
			{
				"type": "unocc",
				"energy": -0.02353,
				"method": "rhf"
			},
			{
				"type": "unocc",
				"energy": -0.01285,
				"method": "rhf"
			},
			{
				"type": "unocc",
				"energy": 0.00566,
				"method": "rhf"
			}
		],
		"cosmo_sigma_profile": { 
			"-0.025": 0.0,
			"-0.024": 0.0,
			"-0.023": 0.0,
			"-0.022": 0.0,
			"-0.021": 0.0,
			"-0.02": 0.0788594266863,
			"-0.019": 0.758100620807,
			"-0.018": 1.10106039909,
			"-0.017": 1.03720809746,
			"-0.016": 0.314318101187,
			"-0.015": 0.583478156668,
			"-0.014": 0.734151017637,
			"-0.013": 0.874848700872,
			"-0.012": 1.07756739572,
			"-0.011": 0.940766691564,
			"-0.01": 1.25078370223,
			"-0.009": 4.17248188009,
			"-0.008": 8.74164457073,
			"-0.007": 11.3828662333,
			"-0.006": 13.1200770984,
			"-0.005": 14.1192771609,
			"-0.004": 21.9151401332,
			"-0.003": 16.7487761623,
			"-0.002": 15.5586244734,
			"-0.001": 19.992454745,
			"0.0": 21.0420660691,
			"0.001": 14.136488531,
			"0.002": 11.493587029,
			"0.003": 15.3694514401,
			"0.004": 8.98905448323,
			"0.005": 7.90309716514,
			"0.006": 9.49982429238,
			"0.007": 10.8499764079,
			"0.008": 8.66738542705,
			"0.009": 6.71552431495,
			"0.01": 5.5273365405,
			"0.011": 3.76394901006,
			"0.012": 5.33569268674,
			"0.013": 3.77891298209,
			"0.014": 0.177202620593,
			"0.015": 0.0,
			"0.016": 0.0,
			"0.017": 0.0,
			"0.018": 0.0,
			"0.019": 0.0,
			"0.02": 0.0,
			"0.021": 0.0,
			"0.022": 0.0,
			"0.023": 0.0,
			"0.024": 0.0,
			"0.025": 0.0
		}
	}
}
