{
	 "smiles": "CCOC1=CC=C(C(O)=O)C(F)=C1F", 
	 "Tm": 474.65, 
	 "num_atms": 22, 
	 "gaussian": { 
		 "optdone": 1, 
		 "sigma_profile": "yes", 
		 "theory": "DFT", 
		 "functional": "B3LYP", 
		 "basiset": "6-31G**", 
		 "properties": { 
			 "R2extent": 4092.4109, 
			 "electric_dipole_moment_norm": 3.36891283799, 
			 "electric_quadrupole_moment_norm": 18.0945628306, 
			 "total_energy": -773.11535368, 
			 "HOMO_LUMO_gap": 0.19289, 
			 "cosmo_polarized_energy": -10.52, 
			 "cosmo_cavitation_energy": 27.23, 
			 "cosmo_dispersion_energy": -20.0, 
			 "cosmo_repulsion_energy": 1.55, 
			 "cosmo_total_nonelectrostatic_energy": 8.78, 
			 "SMD_solvation_energy": 7.18 
		},
		"coords": [
			{
				"x": -1.4862032811,
				"y": 1.0945649899,
				"z": 2.9989105507,
				"element": "C" 
			},
			{
				"x": -0.2878219233,
				"y": 1.8140958926,
				"z": 2.3977102632,
				"element": "C" 
			},
			{
				"x": -0.0907818038,
				"y": 1.4819605897,
				"z": 1.0054302488,
				"element": "O" 
			},
			{
				"x": 0.5080154355,
				"y": 0.3459466531,
				"z": 0.5891054106,
				"element": "C" 
			},
			{
				"x": 0.5822893665,
				"y": 0.1789325474,
				"z": -0.8080180817,
				"element": "C" 
			},
			{
				"x": 1.1813151853,
				"y": -0.9338319938,
				"z": -1.3688366171,
				"element": "C" 
			},
			{
				"x": 1.742772692,
				"y": -1.9506837137,
				"z": -0.5723962811,
				"element": "C" 
			},
			{
				"x": 2.3863616765,
				"y": -3.1452253046,
				"z": -1.1658328772,
				"element": "C" 
			},
			{
				"x": 2.3537582342,
				"y": -3.1156996512,
				"z": -2.5274248684,
				"element": "O" 
			},
			{
				"x": 2.8951056135,
				"y": -4.0654276407,
				"z": -0.5599270115,
				"element": "O" 
			},
			{
				"x": 1.6661493437,
				"y": -1.7860061623,
				"z": 0.8158182361,
				"element": "C" 
			},
			{
				"x": 2.1609870728,
				"y": -2.6888309622,
				"z": 1.6642291317,
				"element": "F" 
			},
			{
				"x": 1.0669313751,
				"y": -0.6627761362,
				"z": 1.3869584184,
				"element": "C" 
			},
			{
				"x": 1.0391018246,
				"y": -0.6056571565,
				"z": 2.7392463994,
				"element": "F" 
			},
			{
				"x": -1.6656074168,
				"y": 1.4664273534,
				"z": 4.0133110742,
				"element": "H" 
			},
			{
				"x": -2.3842107785,
				"y": 1.277496718,
				"z": 2.4019432293,
				"element": "H" 
			},
			{
				"x": -1.3124001248,
				"y": 0.0181773976,
				"z": 3.0614541668,
				"element": "H" 
			},
			{
				"x": 0.625825106,
				"y": 1.6236287003,
				"z": 2.9637556854,
				"element": "H" 
			},
			{
				"x": -0.4601103952,
				"y": 2.8931447866,
				"z": 2.37361056,
				"element": "H" 
			},
			{
				"x": 0.1515090017,
				"y": 0.9589230432,
				"z": -1.4256625157,
				"element": "H" 
			},
			{
				"x": 1.2264794114,
				"y": -1.0371666879,
				"z": -2.4457803092,
				"element": "H" 
			},
			{
				"x": 2.7958343847,
				"y": -3.9326932627,
				"z": -2.8101048124,
				"element": "H" 
			}
		],
		 "valence_orbital": [ 
			{
				"type": "occ",
				"energy": -0.33142,
				"method": "rhf"
			},
			{
				"type": "occ",
				"energy": -0.31515,
				"method": "rhf"
			},
			{
				"type": "occ",
				"energy": -0.27225,
				"method": "rhf"
			},
			{
				"type": "occ",
				"energy": -0.25561,
				"method": "rhf"
			},
			{
				"type": "occ",
				"energy": -0.23914,
				"method": "rhf"
			},
			{
				"type": "unocc",
				"energy": -0.04625,
				"method": "rhf"
			},
			{
				"type": "unocc",
				"energy": -0.01086,
				"method": "rhf"
			},
			{
				"type": "unocc",
				"energy": 0.05003,
				"method": "rhf"
			},
			{
				"type": "unocc",
				"energy": 0.05892,
				"method": "rhf"
			},
			{
				"type": "unocc",
				"energy": 0.08444,
				"method": "rhf"
			}
		],
		"cosmo_sigma_profile": { 
			"-0.025": 0.0,
			"-0.024": 0.0,
			"-0.023": 0.0,
			"-0.022": 0.0,
			"-0.021": 0.0,
			"-0.02": 0.0,
			"-0.019": 0.0,
			"-0.018": 0.775987632036,
			"-0.017": 0.700370792412,
			"-0.016": 1.0069825454,
			"-0.015": 0.941771313497,
			"-0.014": 0.66056974201,
			"-0.013": 0.416789330019,
			"-0.012": 0.597157742529,
			"-0.011": 0.725894298027,
			"-0.01": 1.02440742748,
			"-0.009": 0.276766902284,
			"-0.008": 0.914476177764,
			"-0.007": 3.83254164961,
			"-0.006": 5.80845372607,
			"-0.005": 10.3028427312,
			"-0.004": 15.5960040727,
			"-0.003": 16.7274297746,
			"-0.002": 23.3908801827,
			"-0.001": 20.8082870221,
			"0.0": 22.2328152906,
			"0.001": 17.2879125122,
			"0.002": 14.6849775354,
			"0.003": 17.7094200926,
			"0.004": 9.79486882233,
			"0.005": 3.83513816391,
			"0.006": 5.60515263109,
			"0.007": 4.84144795907,
			"0.008": 3.3509044546,
			"0.009": 2.13473474851,
			"0.01": 2.44599426572,
			"0.011": 4.26341357425,
			"0.012": 4.61965444169,
			"0.013": 0.151824431474,
			"0.014": 0.0,
			"0.015": 0.0,
			"0.016": 0.0,
			"0.017": 0.0,
			"0.018": 0.0,
			"0.019": 0.0,
			"0.02": 0.0,
			"0.021": 0.0,
			"0.022": 0.0,
			"0.023": 0.0,
			"0.024": 0.0,
			"0.025": 0.0
		}
	}
}
