{
	 "smiles": "FC(F)(F)COC(=O)NC1=C(Cl)C=C(Br)C=C1", 
	 "Tm": 344.15, 
	 "num_atms": 23, 
	 "gaussian": { 
		 "optdone": 1, 
		 "sigma_profile": "yes", 
		 "theory": "DFT", 
		 "functional": "B3LYP", 
		 "basiset": "6-31G**", 
		 "properties": { 
			 "R2extent": 8617.6892, 
			 "electric_dipole_moment_norm": 1.33381477725, 
			 "electric_quadrupole_moment_norm": 8.29770045133, 
			 "total_energy": -3882.9135427, 
			 "HOMO_LUMO_gap": 0.2019, 
			 "cosmo_polarized_energy": -9.15, 
			 "cosmo_cavitation_energy": 33.95, 
			 "cosmo_dispersion_energy": -24.23, 
			 "cosmo_repulsion_energy": 1.83, 
			 "cosmo_total_nonelectrostatic_energy": 11.54, 
			 "SMD_solvation_energy": 6.56 
		},
		"coords": [
			{
				"x": -0.6625862569,
				"y": -1.6798648208,
				"z": -4.7430012691,
				"element": "F" 
			},
			{
				"x": -0.240234633,
				"y": -1.3234733764,
				"z": -3.5148920721,
				"element": "C" 
			},
			{
				"x": 0.0096654513,
				"y": -2.451268999,
				"z": -2.8147420557,
				"element": "F" 
			},
			{
				"x": 0.9216911627,
				"y": -0.6576899654,
				"z": -3.639027125,
				"element": "F" 
			},
			{
				"x": -1.2988442384,
				"y": -0.4734306367,
				"z": -2.8338767663,
				"element": "C" 
			},
			{
				"x": -0.8622160495,
				"y": -0.1751033575,
				"z": -1.5120395809,
				"element": "O" 
			},
			{
				"x": -0.4152696921,
				"y": 1.0956393441,
				"z": -1.2962983335,
				"element": "C" 
			},
			{
				"x": -0.5172597632,
				"y": 2.0072433713,
				"z": -2.0898384649,
				"element": "O" 
			},
			{
				"x": 0.1424819209,
				"y": 1.2450397571,
				"z": -0.0508893383,
				"element": "N" 
			},
			{
				"x": 0.3911523557,
				"y": 0.3330836101,
				"z": 0.9890074189,
				"element": "C" 
			},
			{
				"x": 0.5854254845,
				"y": 0.8359714505,
				"z": 2.2912682334,
				"element": "C" 
			},
			{
				"x": 0.4759858625,
				"y": 2.5675350716,
				"z": 2.5896764128,
				"element": "Cl" 
			},
			{
				"x": 0.8735559791,
				"y": 0.003974075,
				"z": 3.3692804591,
				"element": "C" 
			},
			{
				"x": 0.9676773196,
				"y": -1.3675440685,
				"z": 3.1551604283,
				"element": "C" 
			},
			{
				"x": 1.3502406492,
				"y": -2.5211872621,
				"z": 4.6244643715,
				"element": "Br" 
			},
			{
				"x": 0.789805938,
				"y": -1.8976325036,
				"z": 1.8796492546,
				"element": "C" 
			},
			{
				"x": 0.5131843289,
				"y": -1.0546939927,
				"z": 0.8074496334,
				"element": "C" 
			},
			{
				"x": -1.4576343847,
				"y": 0.442437981,
				"z": -3.4050867701,
				"element": "H" 
			},
			{
				"x": -2.2236135487,
				"y": -1.0484547199,
				"z": -2.7595780891,
				"element": "H" 
			},
			{
				"x": 0.3451086155,
				"y": 2.2153213902,
				"z": 0.15156741,
				"element": "H" 
			},
			{
				"x": 1.0155808749,
				"y": 0.4273451467,
				"z": 4.355476857,
				"element": "H" 
			},
			{
				"x": 0.875890904,
				"y": -2.9652780874,
				"z": 1.7153983993,
				"element": "H" 
			},
			{
				"x": 0.3894117196,
				"y": -1.4759694075,
				"z": -0.1798290134,
				"element": "H" 
			}
		],
		 "valence_orbital": [ 
			{
				"type": "occ",
				"energy": -0.30519,
				"method": "rhf"
			},
			{
				"type": "occ",
				"energy": -0.29859,
				"method": "rhf"
			},
			{
				"type": "occ",
				"energy": -0.29735,
				"method": "rhf"
			},
			{
				"type": "occ",
				"energy": -0.27164,
				"method": "rhf"
			},
			{
				"type": "occ",
				"energy": -0.2365,
				"method": "rhf"
			},
			{
				"type": "unocc",
				"energy": -0.0346,
				"method": "rhf"
			},
			{
				"type": "unocc",
				"energy": -0.03283,
				"method": "rhf"
			},
			{
				"type": "unocc",
				"energy": -0.01528,
				"method": "rhf"
			},
			{
				"type": "unocc",
				"energy": 0.02732,
				"method": "rhf"
			},
			{
				"type": "unocc",
				"energy": 0.03553,
				"method": "rhf"
			}
		],
		"cosmo_sigma_profile": { 
			"-0.025": 0.0,
			"-0.024": 0.0,
			"-0.023": 0.0,
			"-0.022": 0.0,
			"-0.021": 0.0,
			"-0.02": 0.0,
			"-0.019": 0.0,
			"-0.018": 0.0,
			"-0.017": 0.0,
			"-0.016": 0.0,
			"-0.015": 0.0,
			"-0.014": 0.0,
			"-0.013": 0.177635520932,
			"-0.012": 0.596936657738,
			"-0.011": 1.11015415433,
			"-0.01": 1.942057109,
			"-0.009": 5.07954047756,
			"-0.008": 7.24749201755,
			"-0.007": 7.42915965695,
			"-0.006": 8.71217369242,
			"-0.005": 9.92283124582,
			"-0.004": 10.9754111724,
			"-0.003": 16.4651586838,
			"-0.002": 17.0874023969,
			"-0.001": 21.4356583782,
			"0.0": 24.9388497977,
			"0.001": 32.897899933,
			"0.002": 47.1718775761,
			"0.003": 30.5054306445,
			"0.004": 17.5296861169,
			"0.005": 3.89519328672,
			"0.006": 1.06447256556,
			"0.007": 1.12351229541,
			"0.008": 0.93135250549,
			"0.009": 1.66652461867,
			"0.01": 2.06611488465,
			"0.011": 3.91409073331,
			"0.012": 2.69193973672,
			"0.013": 0.0320056127292,
			"0.014": 0.0,
			"0.015": 0.0,
			"0.016": 0.0,
			"0.017": 0.0,
			"0.018": 0.0,
			"0.019": 0.0,
			"0.02": 0.0,
			"0.021": 0.0,
			"0.022": 0.0,
			"0.023": 0.0,
			"0.024": 0.0,
			"0.025": 0.0
		}
	}
}
