{
	 "smiles": "C1=CC2=C(C=C1)C1=C(C=C2)C2=C(C=C1)C1=C(C=CC=C1)C=C2", 
	 "Tm": 641.15, 
	 "num_atms": 36, 
	 "gaussian": { 
		 "optdone": 1, 
		 "sigma_profile": "yes", 
		 "theory": "DFT", 
		 "functional": "B3LYP", 
		 "basiset": "6-31G**", 
		 "properties": { 
			 "R2extent": 8325.2316, 
			 "electric_dipole_moment_norm": 0.0475590159696, 
			 "electric_quadrupole_moment_norm": 15.2143923007, 
			 "total_energy": -846.830042997, 
			 "HOMO_LUMO_gap": 0.1549, 
			 "cosmo_polarized_energy": -8.62, 
			 "cosmo_cavitation_energy": 38.04, 
			 "cosmo_dispersion_energy": -28.79, 
			 "cosmo_repulsion_energy": 2.05, 
			 "cosmo_total_nonelectrostatic_energy": 11.3, 
			 "SMD_solvation_energy": 5.22 
		},
		"coords": [
			{
				"x": -2.7833253922,
				"y": -4.9194547557,
				"z": 0.7940227238,
				"element": "C" 
			},
			{
				"x": -1.7332750937,
				"y": -4.9444484657,
				"z": -0.1001516636,
				"element": "C" 
			},
			{
				"x": -0.9588011754,
				"y": -3.7853855224,
				"z": -0.3468502833,
				"element": "C" 
			},
			{
				"x": -1.2615001616,
				"y": -2.5693252318,
				"z": 0.3347299732,
				"element": "C" 
			},
			{
				"x": -2.3467615487,
				"y": -2.5787989274,
				"z": 1.2464504752,
				"element": "C" 
			},
			{
				"x": -3.0893354634,
				"y": -3.722450815,
				"z": 1.4716748641,
				"element": "C" 
			},
			{
				"x": -0.4556424258,
				"y": -1.3879449135,
				"z": 0.0694849164,
				"element": "C" 
			},
			{
				"x": 0.6187489951,
				"y": -1.4493543211,
				"z": -0.8578697478,
				"element": "C" 
			},
			{
				"x": 0.8796544682,
				"y": -2.6971376462,
				"z": -1.515448398,
				"element": "C" 
			},
			{
				"x": 0.1291227773,
				"y": -3.8084020738,
				"z": -1.272265498,
				"element": "C" 
			},
			{
				"x": 1.41887382,
				"y": -0.271422264,
				"z": -1.1193619365,
				"element": "C" 
			},
			{
				"x": 1.1306588174,
				"y": 0.9474416593,
				"z": -0.4490080548,
				"element": "C" 
			},
			{
				"x": 0.0466719757,
				"y": 0.9652966744,
				"z": 0.4710753416,
				"element": "C" 
			},
			{
				"x": -0.7098449303,
				"y": -0.1484924228,
				"z": 0.7183792922,
				"element": "C" 
			},
			{
				"x": 1.9323535259,
				"y": 2.1327635457,
				"z": -0.7092429139,
				"element": "C" 
			},
			{
				"x": 3.0076523432,
				"y": 2.0541041562,
				"z": -1.6433352191,
				"element": "C" 
			},
			{
				"x": 3.797725555,
				"y": 3.1985472234,
				"z": -1.9081478539,
				"element": "C" 
			},
			{
				"x": 3.5450563839,
				"y": 4.3975798236,
				"z": -1.2746949641,
				"element": "C" 
			},
			{
				"x": 2.484850052,
				"y": 4.4842237456,
				"z": -0.3505013224,
				"element": "C" 
			},
			{
				"x": 1.7005013375,
				"y": 3.3797747441,
				"z": -0.0765171293,
				"element": "C" 
			},
			{
				"x": 3.2670586659,
				"y": 0.8111698046,
				"z": -2.2978085639,
				"element": "C" 
			},
			{
				"x": 2.5112984969,
				"y": -0.2951993886,
				"z": -2.0485804406,
				"element": "C" 
			},
			{
				"x": -3.3713758749,
				"y": -5.8141561427,
				"z": 0.9762172575,
				"element": "H" 
			},
			{
				"x": -1.4833958048,
				"y": -5.8592962864,
				"z": -0.6315804145,
				"element": "H" 
			},
			{
				"x": -2.6116073446,
				"y": -1.6768346842,
				"z": 1.7859400462,
				"element": "H" 
			},
			{
				"x": -3.9150226413,
				"y": -3.6966491719,
				"z": 2.1769395996,
				"element": "H" 
			},
			{
				"x": 1.6925108467,
				"y": -2.7712691707,
				"z": -2.2268721237,
				"element": "H" 
			},
			{
				"x": 0.3519932438,
				"y": -4.7396105774,
				"z": -1.7867455027,
				"element": "H" 
			},
			{
				"x": -0.1981371768,
				"y": 1.8797744389,
				"z": 0.9980647278,
				"element": "H" 
			},
			{
				"x": -1.5222485126,
				"y": -0.0696510803,
				"z": 1.4309222574,
				"element": "H" 
			},
			{
				"x": 4.6115633324,
				"y": 3.1139845383,
				"z": -2.6239151485,
				"element": "H" 
			},
			{
				"x": 4.1570920976,
				"y": 5.2697825536,
				"z": -1.4848462316,
				"element": "H" 
			},
			{
				"x": 2.2810845169,
				"y": 5.4257034399,
				"z": 0.151414454,
				"element": "H" 
			},
			{
				"x": 0.8940338167,
				"y": 3.4843529336,
				"z": 0.6400171453,
				"element": "H" 
			},
			{
				"x": 4.0885323144,
				"y": 0.7611180403,
				"z": -3.007867656,
				"element": "H" 
			},
			{
				"x": 2.7523361636,
				"y": -1.2113334601,
				"z": -2.5729220084,
				"element": "H" 
			}
		],
		 "valence_orbital": [ 
			{
				"type": "occ",
				"energy": -0.26607,
				"method": "rhf"
			},
			{
				"type": "occ",
				"energy": -0.25251,
				"method": "rhf"
			},
			{
				"type": "occ",
				"energy": -0.23117,
				"method": "rhf"
			},
			{
				"type": "occ",
				"energy": -0.21277,
				"method": "rhf"
			},
			{
				"type": "occ",
				"energy": -0.20211,
				"method": "rhf"
			},
			{
				"type": "unocc",
				"energy": -0.04721,
				"method": "rhf"
			},
			{
				"type": "unocc",
				"energy": -0.04294,
				"method": "rhf"
			},
			{
				"type": "unocc",
				"energy": -0.02299,
				"method": "rhf"
			},
			{
				"type": "unocc",
				"energy": -0.00257,
				"method": "rhf"
			},
			{
				"type": "unocc",
				"energy": 0.01596,
				"method": "rhf"
			}
		],
		"cosmo_sigma_profile": { 
			"-0.025": 0.0,
			"-0.024": 0.0,
			"-0.023": 0.0,
			"-0.022": 0.0,
			"-0.021": 0.0,
			"-0.02": 0.0,
			"-0.019": 0.0,
			"-0.018": 0.0,
			"-0.017": 0.0,
			"-0.016": 0.0,
			"-0.015": 0.0,
			"-0.014": 0.0,
			"-0.013": 0.0,
			"-0.012": 0.0,
			"-0.011": 0.0,
			"-0.01": 0.0,
			"-0.009": 0.69964554109,
			"-0.008": 4.06739333669,
			"-0.007": 5.42578444391,
			"-0.006": 19.435768831,
			"-0.005": 25.1060870728,
			"-0.004": 26.2037199102,
			"-0.003": 20.4480023145,
			"-0.002": 16.5682642369,
			"-0.001": 15.6162642503,
			"0.0": 14.8857838572,
			"0.001": 16.3737732312,
			"0.002": 22.1280754929,
			"0.003": 44.4596119627,
			"0.004": 47.5237470918,
			"0.005": 26.1823896253,
			"0.006": 2.48233023649,
			"0.007": 0.0,
			"0.008": 0.0,
			"0.009": 0.0,
			"0.01": 0.0,
			"0.011": 0.0,
			"0.012": 0.0,
			"0.013": 0.0,
			"0.014": 0.0,
			"0.015": 0.0,
			"0.016": 0.0,
			"0.017": 0.0,
			"0.018": 0.0,
			"0.019": 0.0,
			"0.02": 0.0,
			"0.021": 0.0,
			"0.022": 0.0,
			"0.023": 0.0,
			"0.024": 0.0,
			"0.025": 0.0
		}
	}
}
