{
	 "smiles": "O=C=NC1=CC=C(OC2CCOCC2)N=C1", 
	 "Tm": 342.65, 
	 "num_atms": 28, 
	 "gaussian": { 
		 "optdone": 1, 
		 "sigma_profile": "yes", 
		 "theory": "DFT", 
		 "functional": "B3LYP", 
		 "basiset": "6-31G**", 
		 "properties": { 
			 "R2extent": 6156.1309, 
			 "electric_dipole_moment_norm": 1.50840886036, 
			 "electric_quadrupole_moment_norm": 16.8164547271, 
			 "total_energy": -761.567625367, 
			 "HOMO_LUMO_gap": 0.19127, 
			 "cosmo_polarized_energy": -8.98, 
			 "cosmo_cavitation_energy": 32.49, 
			 "cosmo_dispersion_energy": -23.62, 
			 "cosmo_repulsion_energy": 1.86, 
			 "cosmo_total_nonelectrostatic_energy": 10.73, 
			 "SMD_solvation_energy": 7.03 
		},
		"coords": [
			{
				"x": -3.6366552141,
				"y": 1.2633533411,
				"z": -6.106061535,
				"element": "O" 
			},
			{
				"x": -3.5039550717,
				"y": 0.9934457643,
				"z": -4.9660963002,
				"element": "C" 
			},
			{
				"x": -3.5135382767,
				"y": 0.7024395047,
				"z": -3.7921049336,
				"element": "N" 
			},
			{
				"x": -2.6392316306,
				"y": 0.5153334965,
				"z": -2.7213637502,
				"element": "C" 
			},
			{
				"x": -3.1537922022,
				"y": 0.1593641571,
				"z": -1.4626205482,
				"element": "C" 
			},
			{
				"x": -2.2832330811,
				"y": -0.0254987703,
				"z": -0.4049948776,
				"element": "C" 
			},
			{
				"x": -0.9053151675,
				"y": 0.1524204409,
				"z": -0.6370930928,
				"element": "C" 
			},
			{
				"x": -0.0861395671,
				"y": -0.0249323181,
				"z": 0.4220473175,
				"element": "O" 
			},
			{
				"x": 1.3372778847,
				"y": 0.1568597557,
				"z": 0.2474947522,
				"element": "C" 
			},
			{
				"x": 1.9145674243,
				"y": 0.4784216131,
				"z": 1.6239094258,
				"element": "C" 
			},
			{
				"x": 3.4453128737,
				"y": 0.5315101251,
				"z": 1.5434806496,
				"element": "C" 
			},
			{
				"x": 3.9886818266,
				"y": -0.6762649431,
				"z": 1.0308983076,
				"element": "O" 
			},
			{
				"x": 3.5202795679,
				"y": -0.9515423659,
				"z": -0.2824948522,
				"element": "C" 
			},
			{
				"x": 1.9945396692,
				"y": -1.1016950205,
				"z": -0.3239658528,
				"element": "C" 
			},
			{
				"x": -0.4057751411,
				"y": 0.4856394119,
				"z": -1.8244247005,
				"element": "N" 
			},
			{
				"x": -1.2559538045,
				"y": 0.6644972633,
				"z": -2.8418943178,
				"element": "C" 
			},
			{
				"x": -4.2245210827,
				"y": 0.0360701938,
				"z": -1.3383685537,
				"element": "H" 
			},
			{
				"x": -2.6298775964,
				"y": -0.2975326399,
				"z": 0.5851542879,
				"element": "H" 
			},
			{
				"x": 1.4973913453,
				"y": 0.9948795029,
				"z": -0.4397480858,
				"element": "H" 
			},
			{
				"x": 1.6144666133,
				"y": -0.3042455996,
				"z": 2.329921981,
				"element": "H" 
			},
			{
				"x": 1.5190518331,
				"y": 1.4316372746,
				"z": 1.9926109185,
				"element": "H" 
			},
			{
				"x": 3.7595771856,
				"y": 1.3839362492,
				"z": 0.9155451149,
				"element": "H" 
			},
			{
				"x": 3.8821568572,
				"y": 0.6699441725,
				"z": 2.5363980611,
				"element": "H" 
			},
			{
				"x": 3.8385113481,
				"y": -0.1501441922,
				"z": -0.9721748764,
				"element": "H" 
			},
			{
				"x": 4.011673166,
				"y": -1.8764787119,
				"z": -0.5968669638,
				"element": "H" 
			},
			{
				"x": 1.6974430485,
				"y": -1.9639460502,
				"z": 0.2842659784,
				"element": "H" 
			},
			{
				"x": 1.6581217794,
				"y": -1.272547032,
				"z": -1.3512095364,
				"element": "H" 
			},
			{
				"x": -0.8183645872,
				"y": 0.9373753771,
				"z": -3.8010440173,
				"element": "H" 
			}
		],
		 "valence_orbital": [ 
			{
				"type": "occ",
				"energy": -0.30605,
				"method": "rhf"
			},
			{
				"type": "occ",
				"energy": -0.29092,
				"method": "rhf"
			},
			{
				"type": "occ",
				"energy": -0.27444,
				"method": "rhf"
			},
			{
				"type": "occ",
				"energy": -0.25484,
				"method": "rhf"
			},
			{
				"type": "occ",
				"energy": -0.22625,
				"method": "rhf"
			},
			{
				"type": "unocc",
				"energy": -0.03498,
				"method": "rhf"
			},
			{
				"type": "unocc",
				"energy": -0.0216,
				"method": "rhf"
			},
			{
				"type": "unocc",
				"energy": 0.01018,
				"method": "rhf"
			},
			{
				"type": "unocc",
				"energy": 0.07447,
				"method": "rhf"
			},
			{
				"type": "unocc",
				"energy": 0.08181,
				"method": "rhf"
			}
		],
		"cosmo_sigma_profile": { 
			"-0.025": 0.0,
			"-0.024": 0.0,
			"-0.023": 0.0,
			"-0.022": 0.0,
			"-0.021": 0.0,
			"-0.02": 0.0,
			"-0.019": 0.0,
			"-0.018": 0.0,
			"-0.017": 0.0,
			"-0.016": 0.0,
			"-0.015": 0.0,
			"-0.014": 0.0,
			"-0.013": 0.0,
			"-0.012": 0.0,
			"-0.011": 0.0,
			"-0.01": 0.0,
			"-0.009": 0.52773692991,
			"-0.008": 4.07451736928,
			"-0.007": 6.55745289529,
			"-0.006": 6.1814455386,
			"-0.005": 13.2520148769,
			"-0.004": 23.4271955935,
			"-0.003": 32.0936226033,
			"-0.002": 26.5294562337,
			"-0.001": 20.1398985008,
			"0.0": 23.1330490165,
			"0.001": 24.3500978184,
			"0.002": 16.3517232091,
			"0.003": 10.8357709615,
			"0.004": 9.14946150148,
			"0.005": 6.69440348503,
			"0.006": 6.47988373011,
			"0.007": 11.19249549,
			"0.008": 5.9649696155,
			"0.009": 3.16534146804,
			"0.01": 2.39691207351,
			"0.011": 1.68144058113,
			"0.012": 1.73318614103,
			"0.013": 1.7208537078,
			"0.014": 0.780041834537,
			"0.015": 0.0,
			"0.016": 0.0,
			"0.017": 0.0,
			"0.018": 0.0,
			"0.019": 0.0,
			"0.02": 0.0,
			"0.021": 0.0,
			"0.022": 0.0,
			"0.023": 0.0,
			"0.024": 0.0,
			"0.025": 0.0
		}
	}
}
