{
	 "smiles": "OCCCCCCCCCCCCO", 
	 "Tm": 355.35, 
	 "num_atms": 40, 
	 "gaussian": { 
		 "optdone": 1, 
		 "sigma_profile": "yes", 
		 "theory": "DFT", 
		 "functional": "B3LYP", 
		 "basiset": "6-31G**", 
		 "properties": { 
			 "R2extent": 6018.2036, 
			 "electric_dipole_moment_norm": 0.562481733037, 
			 "electric_quadrupole_moment_norm": 21.0116337787, 
			 "total_energy": -623.401866961, 
			 "HOMO_LUMO_gap": 0.32072, 
			 "cosmo_polarized_energy": -10.9, 
			 "cosmo_cavitation_energy": 39.85, 
			 "cosmo_dispersion_energy": -26.9, 
			 "cosmo_repulsion_energy": 2.23, 
			 "cosmo_total_nonelectrostatic_energy": 15.18, 
			 "SMD_solvation_energy": 5.37 
		},
		"coords": [
			{
				"x": -3.2391062754,
				"y": -4.8665960287,
				"z": -0.4640371749,
				"element": "O" 
			},
			{
				"x": -2.6163417119,
				"y": -4.7750868772,
				"z": 0.8142223686,
				"element": "C" 
			},
			{
				"x": -2.0696309425,
				"y": -3.3876213941,
				"z": 1.1669214723,
				"element": "C" 
			},
			{
				"x": -0.9120598131,
				"y": -2.8759398177,
				"z": 0.2910320042,
				"element": "C" 
			},
			{
				"x": -1.3124875709,
				"y": -2.4437999105,
				"z": -1.12861675,
				"element": "C" 
			},
			{
				"x": -0.134275005,
				"y": -1.9833316918,
				"z": -2.0054876565,
				"element": "C" 
			},
			{
				"x": 0.6272621184,
				"y": -0.7338774017,
				"z": -1.5265403801,
				"element": "C" 
			},
			{
				"x": -0.2196227249,
				"y": 0.5470475633,
				"z": -1.4874307096,
				"element": "C" 
			},
			{
				"x": 0.5822618269,
				"y": 1.8302687458,
				"z": -1.2037696239,
				"element": "C" 
			},
			{
				"x": 1.2846645795,
				"y": 1.9007949121,
				"z": 0.1637164989,
				"element": "C" 
			},
			{
				"x": 0.3387202717,
				"y": 1.8835109348,
				"z": 1.3725261184,
				"element": "C" 
			},
			{
				"x": 1.0668857681,
				"y": 2.0583304148,
				"z": 2.7118858283,
				"element": "C" 
			},
			{
				"x": 0.1414044932,
				"y": 2.014109985,
				"z": 3.930848126,
				"element": "C" 
			},
			{
				"x": -0.7985462484,
				"y": 3.0821316211,
				"z": 3.9679320111,
				"element": "O" 
			},
			{
				"x": -3.97577764,
				"y": -4.2415340888,
				"z": -0.4755500928,
				"element": "H" 
			},
			{
				"x": -1.7956683968,
				"y": -5.5011139018,
				"z": 0.7879788863,
				"element": "H" 
			},
			{
				"x": -3.3092553998,
				"y": -5.1020053939,
				"z": 1.6067854886,
				"element": "H" 
			},
			{
				"x": -1.7344642763,
				"y": -3.433593771,
				"z": 2.2123785288,
				"element": "H" 
			},
			{
				"x": -2.8967047748,
				"y": -2.6606002635,
				"z": 1.1526917082,
				"element": "H" 
			},
			{
				"x": -0.4400708561,
				"y": -2.0319653162,
				"z": 0.8105847283,
				"element": "H" 
			},
			{
				"x": -0.1414979457,
				"y": -3.6583409159,
				"z": 0.2283617633,
				"element": "H" 
			},
			{
				"x": -1.8128413551,
				"y": -3.2827592599,
				"z": -1.6211489906,
				"element": "H" 
			},
			{
				"x": -2.0610642115,
				"y": -1.6414584828,
				"z": -1.0595648416,
				"element": "H" 
			},
			{
				"x": 0.5785557201,
				"y": -2.8143200234,
				"z": -2.0978569659,
				"element": "H" 
			},
			{
				"x": -0.5094491823,
				"y": -1.7954421679,
				"z": -3.0209100581,
				"element": "H" 
			},
			{
				"x": 1.0651577072,
				"y": -0.9238281124,
				"z": -0.5385123645,
				"element": "H" 
			},
			{
				"x": 1.4791313308,
				"y": -0.5704130766,
				"z": -2.2013389081,
				"element": "H" 
			},
			{
				"x": -1.0231188682,
				"y": 0.4425220214,
				"z": -0.7474061415,
				"element": "H" 
			},
			{
				"x": -0.7234197364,
				"y": 0.6646411975,
				"z": -2.4569164697,
				"element": "H" 
			},
			{
				"x": -0.0904328774,
				"y": 2.6940740033,
				"z": -1.2971864524,
				"element": "H" 
			},
			{
				"x": 1.3393404677,
				"y": 1.9511885931,
				"z": -1.9905626819,
				"element": "H" 
			},
			{
				"x": 1.8801758372,
				"y": 2.8228977319,
				"z": 0.1989278508,
				"element": "H" 
			},
			{
				"x": 2.0051683732,
				"y": 1.0775920078,
				"z": 0.2585501124,
				"element": "H" 
			},
			{
				"x": -0.2275958178,
				"y": 0.9416336992,
				"z": 1.3922645982,
				"element": "H" 
			},
			{
				"x": -0.4010358841,
				"y": 2.688539278,
				"z": 1.2512783557,
				"element": "H" 
			},
			{
				"x": 1.8224458442,
				"y": 1.2678484409,
				"z": 2.8232594481,
				"element": "H" 
			},
			{
				"x": 1.6058189434,
				"y": 3.0144667179,
				"z": 2.716223276,
				"element": "H" 
			},
			{
				"x": 0.7311611769,
				"y": 2.111711193,
				"z": 4.848221965,
				"element": "H" 
			},
			{
				"x": -0.3681988854,
				"y": 1.0365431302,
				"z": 3.9767818886,
				"element": "H" 
			},
			{
				"x": -1.4158880587,
				"y": 2.9577757046,
				"z": 3.2366632359,
				"element": "H" 
			}
		],
		 "valence_orbital": [ 
			{
				"type": "occ",
				"energy": -0.3068,
				"method": "rhf"
			},
			{
				"type": "occ",
				"energy": -0.3033,
				"method": "rhf"
			},
			{
				"type": "occ",
				"energy": -0.30195,
				"method": "rhf"
			},
			{
				"type": "occ",
				"energy": -0.26175,
				"method": "rhf"
			},
			{
				"type": "occ",
				"energy": -0.26024,
				"method": "rhf"
			},
			{
				"type": "unocc",
				"energy": 0.06048,
				"method": "rhf"
			},
			{
				"type": "unocc",
				"energy": 0.07499,
				"method": "rhf"
			},
			{
				"type": "unocc",
				"energy": 0.08274,
				"method": "rhf"
			},
			{
				"type": "unocc",
				"energy": 0.09868,
				"method": "rhf"
			},
			{
				"type": "unocc",
				"energy": 0.10476,
				"method": "rhf"
			}
		],
		"cosmo_sigma_profile": { 
			"-0.025": 0.0,
			"-0.024": 0.0,
			"-0.023": 0.0,
			"-0.022": 0.0,
			"-0.021": 0.0,
			"-0.02": 0.0,
			"-0.019": 0.0,
			"-0.018": 0.0,
			"-0.017": 0.0,
			"-0.016": 0.0,
			"-0.015": 0.458541148513,
			"-0.014": 1.3502236518,
			"-0.013": 1.96475679374,
			"-0.012": 2.1698201241,
			"-0.011": 1.02233550682,
			"-0.01": 2.23265297088,
			"-0.009": 1.70147292744,
			"-0.008": 1.52617150588,
			"-0.007": 2.5393830248,
			"-0.006": 1.90831616124,
			"-0.005": 2.81533367611,
			"-0.004": 5.08423279503,
			"-0.003": 17.6074554897,
			"-0.002": 44.6955107891,
			"-0.001": 65.6159286933,
			"0.0": 53.3224894581,
			"0.001": 43.8620948527,
			"0.002": 18.1176678948,
			"0.003": 3.21933237763,
			"0.004": 3.22052397328,
			"0.005": 2.14522173916,
			"0.006": 3.54607087667,
			"0.007": 1.81925295759,
			"0.008": 2.89754154283,
			"0.009": 2.58402450976,
			"0.01": 1.80113185247,
			"0.011": 2.53875474509,
			"0.012": 2.75944049278,
			"0.013": 2.77811840596,
			"0.014": 4.02579590936,
			"0.015": 2.8674861044,
			"0.016": 0.0,
			"0.017": 0.0,
			"0.018": 0.0,
			"0.019": 0.0,
			"0.02": 0.0,
			"0.021": 0.0,
			"0.022": 0.0,
			"0.023": 0.0,
			"0.024": 0.0,
			"0.025": 0.0
		}
	}
}
