{
	 "smiles": "OCCNC1=C2C=CC=CC2=NC=N1", 
	 "Tm": 446.15, 
	 "num_atms": 25, 
	 "gaussian": { 
		 "optdone": 1, 
		 "sigma_profile": "yes", 
		 "theory": "DFT", 
		 "functional": "B3LYP", 
		 "basiset": "6-31G**", 
		 "properties": { 
			 "R2extent": 3437.6274, 
			 "electric_dipole_moment_norm": 3.67866914658, 
			 "electric_quadrupole_moment_norm": 8.83256574671, 
			 "total_energy": -627.175844685, 
			 "HOMO_LUMO_gap": 0.17213, 
			 "cosmo_polarized_energy": -16.44, 
			 "cosmo_cavitation_energy": 28.6, 
			 "cosmo_dispersion_energy": -21.39, 
			 "cosmo_repulsion_energy": 1.69, 
			 "cosmo_total_nonelectrostatic_energy": 8.9, 
			 "SMD_solvation_energy": 1.91 
		},
		"coords": [
			{
				"x": 2.2640992212,
				"y": 3.6747679975,
				"z": 2.1091695344,
				"element": "O" 
			},
			{
				"x": 1.9235685834,
				"y": 2.3379525621,
				"z": 1.7700199549,
				"element": "C" 
			},
			{
				"x": 0.4199272483,
				"y": 2.1953058068,
				"z": 2.0156028345,
				"element": "C" 
			},
			{
				"x": -0.0635572849,
				"y": 0.835861801,
				"z": 1.8260339428,
				"element": "N" 
			},
			{
				"x": -0.3604643459,
				"y": 0.3049889568,
				"z": 0.6082735051,
				"element": "C" 
			},
			{
				"x": -0.8355793955,
				"y": -1.0558887877,
				"z": 0.4829848407,
				"element": "C" 
			},
			{
				"x": -1.0475142617,
				"y": -1.9491437758,
				"z": 1.5593413669,
				"element": "C" 
			},
			{
				"x": -1.4929836991,
				"y": -3.2352232395,
				"z": 1.3264420616,
				"element": "C" 
			},
			{
				"x": -1.7438287095,
				"y": -3.6698793533,
				"z": 0.0059023638,
				"element": "C" 
			},
			{
				"x": -1.5532728038,
				"y": -2.815525656,
				"z": -1.0593117815,
				"element": "C" 
			},
			{
				"x": -1.0991352366,
				"y": -1.4894261112,
				"z": -0.8480506242,
				"element": "C" 
			},
			{
				"x": -0.9355820906,
				"y": -0.6672441779,
				"z": -1.9327299028,
				"element": "N" 
			},
			{
				"x": -0.5172126953,
				"y": 0.5484413123,
				"z": -1.6623776981,
				"element": "C" 
			},
			{
				"x": -0.2097952096,
				"y": 1.0846331824,
				"z": -0.4585038004,
				"element": "N" 
			},
			{
				"x": 3.1605440074,
				"y": 3.8473627359,
				"z": 1.7984193222,
				"element": "H" 
			},
			{
				"x": 2.4698887441,
				"y": 1.6085012941,
				"z": 2.3913818261,
				"element": "H" 
			},
			{
				"x": 2.1326356981,
				"y": 2.1105039818,
				"z": 0.716212092,
				"element": "H" 
			},
			{
				"x": -0.1157133404,
				"y": 2.8585741427,
				"z": 1.333857425,
				"element": "H" 
			},
			{
				"x": 0.1940904787,
				"y": 2.5013223811,
				"z": 3.0418071674,
				"element": "H" 
			},
			{
				"x": -0.0686562079,
				"y": 0.2234407127,
				"z": 2.6242537732,
				"element": "H" 
			},
			{
				"x": -0.8740450043,
				"y": -1.6346075295,
				"z": 2.5851734336,
				"element": "H" 
			},
			{
				"x": -1.6539941088,
				"y": -3.9130516655,
				"z": 2.1591997947,
				"element": "H" 
			},
			{
				"x": -2.0934226225,
				"y": -4.6837651501,
				"z": -0.1669046321,
				"element": "H" 
			},
			{
				"x": -1.7444632669,
				"y": -3.1218073857,
				"z": -2.0824498565,
				"element": "H" 
			},
			{
				"x": -0.388633698,
				"y": 1.221205965,
				"z": -2.5097469434,
				"element": "H" 
			}
		],
		 "valence_orbital": [ 
			{
				"type": "occ",
				"energy": -0.2714,
				"method": "rhf"
			},
			{
				"type": "occ",
				"energy": -0.26867,
				"method": "rhf"
			},
			{
				"type": "occ",
				"energy": -0.25842,
				"method": "rhf"
			},
			{
				"type": "occ",
				"energy": -0.24141,
				"method": "rhf"
			},
			{
				"type": "occ",
				"energy": -0.21663,
				"method": "rhf"
			},
			{
				"type": "unocc",
				"energy": -0.0445,
				"method": "rhf"
			},
			{
				"type": "unocc",
				"energy": -0.01976,
				"method": "rhf"
			},
			{
				"type": "unocc",
				"energy": 0.03018,
				"method": "rhf"
			},
			{
				"type": "unocc",
				"energy": 0.05883,
				"method": "rhf"
			},
			{
				"type": "unocc",
				"energy": 0.07441,
				"method": "rhf"
			}
		],
		"cosmo_sigma_profile": { 
			"-0.025": 0.0,
			"-0.024": 0.0,
			"-0.023": 0.0,
			"-0.022": 0.0,
			"-0.021": 0.0,
			"-0.02": 0.0,
			"-0.019": 0.0,
			"-0.018": 0.0,
			"-0.017": 0.0,
			"-0.016": 0.741819369514,
			"-0.015": 2.13543401441,
			"-0.014": 2.26492016217,
			"-0.013": 2.30336837934,
			"-0.012": 2.39027185545,
			"-0.011": 1.57122584443,
			"-0.01": 2.5688820376,
			"-0.009": 2.61079554145,
			"-0.008": 1.93133471014,
			"-0.007": 4.59951014779,
			"-0.006": 11.2490074871,
			"-0.005": 13.8816296628,
			"-0.004": 14.0129642864,
			"-0.003": 14.9847250372,
			"-0.002": 13.4830729115,
			"-0.001": 15.9670454968,
			"0.0": 17.5144263759,
			"0.001": 13.4762598828,
			"0.002": 17.0180980655,
			"0.003": 17.5166445004,
			"0.004": 15.2197784905,
			"0.005": 6.9979675749,
			"0.006": 3.9830635673,
			"0.007": 4.12844706051,
			"0.008": 3.84904832086,
			"0.009": 4.26559296487,
			"0.01": 3.23117985218,
			"0.011": 2.43543551098,
			"0.012": 2.85702813185,
			"0.013": 3.66311322133,
			"0.014": 2.64908956727,
			"0.015": 0.613017864618,
			"0.016": 0.947005342929,
			"0.017": 0.429964989026,
			"0.018": 0.00919693116602,
			"0.019": 0.0,
			"0.02": 0.0,
			"0.021": 0.0,
			"0.022": 0.0,
			"0.023": 0.0,
			"0.024": 0.0,
			"0.025": 0.0
		}
	}
}
