{
	 "smiles": "CN1N=C(C)C(C)=C(C(=O)N2CSCC2C(O)=O)C1=O", 
	 "Tm": 483.15, 
	 "num_atms": 35, 
	 "gaussian": { 
		 "optdone": 1, 
		 "sigma_profile": "yes", 
		 "theory": "DFT", 
		 "functional": "B3LYP", 
		 "basiset": "6-31G**", 
		 "properties": { 
			 "R2extent": 6292.4272, 
			 "electric_dipole_moment_norm": 5.79834867958, 
			 "electric_quadrupole_moment_norm": 10.4671970852, 
			 "total_energy": -1329.65413185, 
			 "HOMO_LUMO_gap": 0.15991, 
			 "cosmo_polarized_energy": -23.88, 
			 "cosmo_cavitation_energy": 39.66, 
			 "cosmo_dispersion_energy": -27.54, 
			 "cosmo_repulsion_energy": 2.08, 
			 "cosmo_total_nonelectrostatic_energy": 14.19, 
			 "SMD_solvation_energy": 6.37 
		},
		"coords": [
			{
				"x": -2.8064165774,
				"y": 1.9414294039,
				"z": 2.2125478794,
				"element": "C" 
			},
			{
				"x": -1.4185839467,
				"y": 1.5280522119,
				"z": 2.0064271924,
				"element": "N" 
			},
			{
				"x": -0.5625055756,
				"y": 1.7887579164,
				"z": 3.0072080969,
				"element": "N" 
			},
			{
				"x": 0.6919222995,
				"y": 1.4347855761,
				"z": 2.8718712701,
				"element": "C" 
			},
			{
				"x": 1.59303655,
				"y": 1.7537126344,
				"z": 4.0363008789,
				"element": "C" 
			},
			{
				"x": 1.1925644803,
				"y": 0.7921556016,
				"z": 1.6784507455,
				"element": "C" 
			},
			{
				"x": 2.6572926091,
				"y": 0.4523609438,
				"z": 1.5779355701,
				"element": "C" 
			},
			{
				"x": 0.2964264151,
				"y": 0.5255705067,
				"z": 0.6768103361,
				"element": "C" 
			},
			{
				"x": 0.7616697487,
				"y": 0.0096902134,
				"z": -0.6673092321,
				"element": "C" 
			},
			{
				"x": 1.3431754357,
				"y": 0.7656105638,
				"z": -1.4334575182,
				"element": "O" 
			},
			{
				"x": 0.6400040473,
				"y": -1.343537912,
				"z": -0.9137384842,
				"element": "N" 
			},
			{
				"x": -0.4717053931,
				"y": -2.145126343,
				"z": -0.4268319739,
				"element": "C" 
			},
			{
				"x": -1.44001344,
				"y": -2.6733835029,
				"z": -1.9458346969,
				"element": "S" 
			},
			{
				"x": -0.160534589,
				"y": -1.9941559223,
				"z": -3.0833149043,
				"element": "C" 
			},
			{
				"x": 1.0883758384,
				"y": -1.8869495925,
				"z": -2.2062728415,
				"element": "C" 
			},
			{
				"x": 2.2548666678,
				"y": -1.1581851871,
				"z": -2.8633551876,
				"element": "C" 
			},
			{
				"x": 3.3439602953,
				"y": -1.1466606883,
				"z": -2.0580614851,
				"element": "O" 
			},
			{
				"x": 2.2688013659,
				"y": -0.7852510167,
				"z": -4.0118541744,
				"element": "O" 
			},
			{
				"x": -1.1053541878,
				"y": 0.8848516665,
				"z": 0.8073918845,
				"element": "C" 
			},
			{
				"x": -1.9812832313,
				"y": 0.6473338841,
				"z": -0.0289619773,
				"element": "O" 
			},
			{
				"x": -3.1171842513,
				"y": 2.6103381453,
				"z": 1.406746138,
				"element": "H" 
			},
			{
				"x": -2.8549463045,
				"y": 2.4452942238,
				"z": 3.1758511537,
				"element": "H" 
			},
			{
				"x": -3.4631626862,
				"y": 1.0678166153,
				"z": 2.1983494086,
				"element": "H" 
			},
			{
				"x": 2.0506434682,
				"y": 0.8485620124,
				"z": 4.452013625,
				"element": "H" 
			},
			{
				"x": 1.0104405412,
				"y": 2.2405236632,
				"z": 4.8195158559,
				"element": "H" 
			},
			{
				"x": 2.4103737134,
				"y": 2.4218716916,
				"z": 3.7418866569,
				"element": "H" 
			},
			{
				"x": 3.2663402451,
				"y": 1.3601336153,
				"z": 1.6542242263,
				"element": "H" 
			},
			{
				"x": 2.9039455025,
				"y": -0.037376273,
				"z": 0.635913341,
				"element": "H" 
			},
			{
				"x": 2.9599299754,
				"y": -0.2034524059,
				"z": 2.401971687,
				"element": "H" 
			},
			{
				"x": -0.1148280273,
				"y": -3.0431668612,
				"z": 0.0837157034,
				"element": "H" 
			},
			{
				"x": -1.1238600411,
				"y": -1.5621362358,
				"z": 0.2173592392,
				"element": "H" 
			},
			{
				"x": -0.013285918,
				"y": -2.6779870301,
				"z": -3.9202791023,
				"element": "H" 
			},
			{
				"x": -0.4513392814,
				"y": -1.0127605949,
				"z": -3.4617383871,
				"element": "H" 
			},
			{
				"x": 1.4586955745,
				"y": -2.8998134088,
				"z": -1.9950327476,
				"element": "H" 
			},
			{
				"x": 4.0358386771,
				"y": -0.6772081149,
				"z": -2.5531481766,
				"element": "H" 
			}
		],
		 "valence_orbital": [ 
			{
				"type": "occ",
				"energy": -0.27303,
				"method": "rhf"
			},
			{
				"type": "occ",
				"energy": -0.26272,
				"method": "rhf"
			},
			{
				"type": "occ",
				"energy": -0.25465,
				"method": "rhf"
			},
			{
				"type": "occ",
				"energy": -0.23565,
				"method": "rhf"
			},
			{
				"type": "occ",
				"energy": -0.22419,
				"method": "rhf"
			},
			{
				"type": "unocc",
				"energy": -0.06428,
				"method": "rhf"
			},
			{
				"type": "unocc",
				"energy": -0.01191,
				"method": "rhf"
			},
			{
				"type": "unocc",
				"energy": -0.00574,
				"method": "rhf"
			},
			{
				"type": "unocc",
				"energy": 0.00526,
				"method": "rhf"
			},
			{
				"type": "unocc",
				"energy": 0.0276,
				"method": "rhf"
			}
		],
		"cosmo_sigma_profile": { 
			"-0.025": 0.0,
			"-0.024": 0.0,
			"-0.023": 0.0,
			"-0.022": 0.0,
			"-0.021": 0.0,
			"-0.02": 0.0,
			"-0.019": 0.167749349944,
			"-0.018": 0.93927129509,
			"-0.017": 1.0544849824,
			"-0.016": 0.742045145353,
			"-0.015": 0.278665106504,
			"-0.014": 0.782022021723,
			"-0.013": 0.524169858273,
			"-0.012": 1.30098048825,
			"-0.011": 0.66029737862,
			"-0.01": 0.66406368462,
			"-0.009": 2.65306353206,
			"-0.008": 4.20837463189,
			"-0.007": 11.1492951954,
			"-0.006": 22.1146019427,
			"-0.005": 24.989485403,
			"-0.004": 26.3411914744,
			"-0.003": 29.5178211727,
			"-0.002": 28.7675422905,
			"-0.001": 23.3818535094,
			"0.0": 14.484973278,
			"0.001": 11.4077401438,
			"0.002": 12.4647879828,
			"0.003": 11.1014424265,
			"0.004": 10.1713247944,
			"0.005": 9.90963283989,
			"0.006": 8.47635163302,
			"0.007": 8.49550531409,
			"0.008": 7.50021061539,
			"0.009": 9.58247115785,
			"0.01": 10.0060235205,
			"0.011": 10.5472308425,
			"0.012": 4.93746159322,
			"0.013": 4.21751597202,
			"0.014": 1.81841245738,
			"0.015": 0.0,
			"0.016": 0.0,
			"0.017": 0.0,
			"0.018": 0.0,
			"0.019": 0.0,
			"0.02": 0.0,
			"0.021": 0.0,
			"0.022": 0.0,
			"0.023": 0.0,
			"0.024": 0.0,
			"0.025": 0.0
		}
	}
}
