{
	 "smiles": "CC1=C(N=C(N)S1)C1=CC=CC=C1", 
	 "Tm": 382.65, 
	 "num_atms": 23, 
	 "gaussian": { 
		 "optdone": 1, 
		 "sigma_profile": "yes", 
		 "theory": "DFT", 
		 "functional": "B3LYP", 
		 "basiset": "6-31G**", 
		 "properties": { 
			 "R2extent": 3591.9592, 
			 "electric_dipole_moment_norm": 1.64727700464, 
			 "electric_quadrupole_moment_norm": 17.3923210053, 
			 "total_energy": -894.787927438, 
			 "HOMO_LUMO_gap": 0.17633, 
			 "cosmo_polarized_energy": -11.06, 
			 "cosmo_cavitation_energy": 28.16, 
			 "cosmo_dispersion_energy": -21.34, 
			 "cosmo_repulsion_energy": 1.65, 
			 "cosmo_total_nonelectrostatic_energy": 8.47, 
			 "SMD_solvation_energy": 3.11 
		},
		"coords": [
			{
				"x": -0.700196281,
				"y": 2.1628114118,
				"z": -0.4067780491,
				"element": "C" 
			},
			{
				"x": -1.5060524401,
				"y": 0.9233662498,
				"z": -0.6596583746,
				"element": "C" 
			},
			{
				"x": -1.3906803439,
				"y": -0.35014113,
				"z": -0.156368983,
				"element": "C" 
			},
			{
				"x": -2.3988036044,
				"y": -1.2399450183,
				"z": -0.5181274692,
				"element": "N" 
			},
			{
				"x": -3.2594371768,
				"y": -0.6866197995,
				"z": -1.3142941014,
				"element": "C" 
			},
			{
				"x": -4.3087439433,
				"y": -1.3580992067,
				"z": -1.9068317097,
				"element": "N" 
			},
			{
				"x": -2.9276907527,
				"y": 1.0048191513,
				"z": -1.6991063206,
				"element": "S" 
			},
			{
				"x": -0.3415643005,
				"y": -0.845467446,
				"z": 0.7607444927,
				"element": "C" 
			},
			{
				"x": -0.6672659879,
				"y": -1.8308689342,
				"z": 1.7100302884,
				"element": "C" 
			},
			{
				"x": 0.2936441754,
				"y": -2.3137200371,
				"z": 2.5946512215,
				"element": "C" 
			},
			{
				"x": 1.6041189445,
				"y": -1.8308140871,
				"z": 2.5459589717,
				"element": "C" 
			},
			{
				"x": 1.946060388,
				"y": -0.8698595993,
				"z": 1.5939566574,
				"element": "C" 
			},
			{
				"x": 0.9851220922,
				"y": -0.385550528,
				"z": 0.7056185675,
				"element": "C" 
			},
			{
				"x": 0.0241012988,
				"y": 2.3640632906,
				"z": -1.2065919252,
				"element": "H" 
			},
			{
				"x": -0.1456361308,
				"y": 2.0683787684,
				"z": 0.5299176975,
				"element": "H" 
			},
			{
				"x": -1.3458276184,
				"y": 3.0436807454,
				"z": -0.3255455095,
				"element": "H" 
			},
			{
				"x": -5.1524424322,
				"y": -0.824866253,
				"z": -2.0654263794,
				"element": "H" 
			},
			{
				"x": -4.4760417837,
				"y": -2.2610413325,
				"z": -1.4809081034,
				"element": "H" 
			},
			{
				"x": -1.6827291842,
				"y": -2.2107813952,
				"z": 1.7365883092,
				"element": "H" 
			},
			{
				"x": 0.0201078173,
				"y": -3.0708291378,
				"z": 3.3244828785,
				"element": "H" 
			},
			{
				"x": 2.3533928661,
				"y": -2.2090199323,
				"z": 3.2355533376,
				"element": "H" 
			},
			{
				"x": 2.9674153418,
				"y": -0.5047177249,
				"z": 1.5305708474,
				"element": "H" 
			},
			{
				"x": 1.2774490556,
				"y": 0.3276219446,
				"z": -0.0575363444,
				"element": "H" 
			}
		],
		 "valence_orbital": [ 
			{
				"type": "occ",
				"energy": -0.27447,
				"method": "rhf"
			},
			{
				"type": "occ",
				"energy": -0.26705,
				"method": "rhf"
			},
			{
				"type": "occ",
				"energy": -0.24414,
				"method": "rhf"
			},
			{
				"type": "occ",
				"energy": -0.24163,
				"method": "rhf"
			},
			{
				"type": "occ",
				"energy": -0.19662,
				"method": "rhf"
			},
			{
				"type": "unocc",
				"energy": -0.02029,
				"method": "rhf"
			},
			{
				"type": "unocc",
				"energy": 0.00329,
				"method": "rhf"
			},
			{
				"type": "unocc",
				"energy": 0.01151,
				"method": "rhf"
			},
			{
				"type": "unocc",
				"energy": 0.01975,
				"method": "rhf"
			},
			{
				"type": "unocc",
				"energy": 0.07423,
				"method": "rhf"
			}
		],
		"cosmo_sigma_profile": { 
			"-0.025": 0.0,
			"-0.024": 0.0,
			"-0.023": 0.0,
			"-0.022": 0.0,
			"-0.021": 0.0,
			"-0.02": 0.0,
			"-0.019": 0.0,
			"-0.018": 0.0,
			"-0.017": 0.0,
			"-0.016": 0.0,
			"-0.015": 0.156342418282,
			"-0.014": 1.32901057214,
			"-0.013": 2.76664510646,
			"-0.012": 2.35837434122,
			"-0.011": 2.26881016081,
			"-0.01": 3.00694802406,
			"-0.009": 2.2018015912,
			"-0.008": 1.89390575383,
			"-0.007": 1.61469184075,
			"-0.006": 4.1709527963,
			"-0.005": 13.1183662653,
			"-0.004": 19.0032198995,
			"-0.003": 19.278640945,
			"-0.002": 16.4462504751,
			"-0.001": 16.3123569896,
			"0.0": 12.7087230316,
			"0.001": 12.9145175064,
			"0.002": 15.8104318082,
			"0.003": 19.5021479429,
			"0.004": 19.4672692259,
			"0.005": 15.1969183217,
			"0.006": 11.0937572354,
			"0.007": 3.24319938719,
			"0.008": 3.12454802918,
			"0.009": 1.89773942412,
			"0.01": 1.24254365419,
			"0.011": 1.87214264024,
			"0.012": 1.41803909585,
			"0.013": 0.774226163801,
			"0.014": 0.56795967775,
			"0.015": 0.0698353429009,
			"0.016": 0.0,
			"0.017": 0.0,
			"0.018": 0.0,
			"0.019": 0.0,
			"0.02": 0.0,
			"0.021": 0.0,
			"0.022": 0.0,
			"0.023": 0.0,
			"0.024": 0.0,
			"0.025": 0.0
		}
	}
}
