{
	 "smiles": "CC1(O)CCC(N)CC1", 
	 "Tm": 363.15, 
	 "num_atms": 24, 
	 "gaussian": { 
		 "optdone": 1, 
		 "sigma_profile": "yes", 
		 "theory": "DFT", 
		 "functional": "B3LYP", 
		 "basiset": "6-31G**", 
		 "properties": { 
			 "R2extent": 1977.6977, 
			 "electric_dipole_moment_norm": 2.17646697884, 
			 "electric_quadrupole_moment_norm": 7.32425271888, 
			 "total_energy": -405.760646185, 
			 "HOMO_LUMO_gap": 0.29936, 
			 "cosmo_polarized_energy": -9.75, 
			 "cosmo_cavitation_energy": 23.78, 
			 "cosmo_dispersion_energy": -17.72, 
			 "cosmo_repulsion_energy": 1.45, 
			 "cosmo_total_nonelectrostatic_energy": 7.51, 
			 "SMD_solvation_energy": 2.56 
		},
		"coords": [
			{
				"x": -1.2324898187,
				"y": 2.1187572724,
				"z": -0.586750998,
				"element": "C" 
			},
			{
				"x": -1.7550350496,
				"y": 0.7696342114,
				"z": -0.0688595169,
				"element": "C" 
			},
			{
				"x": -2.5199070969,
				"y": 0.9990945601,
				"z": 1.1267076322,
				"element": "O" 
			},
			{
				"x": -0.592370156,
				"y": -0.1703945286,
				"z": 0.3600160272,
				"element": "C" 
			},
			{
				"x": -0.367277547,
				"y": -1.3614606245,
				"z": -0.5901806305,
				"element": "C" 
			},
			{
				"x": -0.4572548775,
				"y": -0.9323723486,
				"z": -2.0580699589,
				"element": "C" 
			},
			{
				"x": -0.1620800021,
				"y": -2.0738300734,
				"z": -2.935578273,
				"element": "N" 
			},
			{
				"x": -1.8769342174,
				"y": -0.3962628532,
				"z": -2.3725605467,
				"element": "C" 
			},
			{
				"x": -2.6414774743,
				"y": 0.0663435218,
				"z": -1.114645423,
				"element": "C" 
			},
			{
				"x": -0.5877488249,
				"y": 2.0023504283,
				"z": -1.4634960169,
				"element": "H" 
			},
			{
				"x": -2.064728222,
				"y": 2.774935626,
				"z": -0.8726436091,
				"element": "H" 
			},
			{
				"x": -0.6574423218,
				"y": 2.6193707686,
				"z": 0.1981636537,
				"element": "H" 
			},
			{
				"x": -3.2424275844,
				"y": 1.6005639825,
				"z": 0.8990593102,
				"element": "H" 
			},
			{
				"x": -0.8258263265,
				"y": -0.5355615782,
				"z": 1.3641237995,
				"element": "H" 
			},
			{
				"x": 0.3322731292,
				"y": 0.4129770794,
				"z": 0.4455465483,
				"element": "H" 
			},
			{
				"x": -1.1078232219,
				"y": -2.1506720273,
				"z": -0.4144980392,
				"element": "H" 
			},
			{
				"x": 0.6133196416,
				"y": -1.8110780748,
				"z": -0.3885168478,
				"element": "H" 
			},
			{
				"x": 0.2632314149,
				"y": -0.1044611161,
				"z": -2.1987143477,
				"element": "H" 
			},
			{
				"x": -0.2365818781,
				"y": -1.786082075,
				"z": -3.9096373638,
				"element": "H" 
			},
			{
				"x": 0.8042094123,
				"y": -2.3672676563,
				"z": -2.8035074284,
				"element": "H" 
			},
			{
				"x": -1.8116579519,
				"y": 0.4191199405,
				"z": -3.103077204,
				"element": "H" 
			},
			{
				"x": -2.4402561572,
				"y": -1.2056123226,
				"z": -2.8504658844,
				"element": "H" 
			},
			{
				"x": -3.0978307753,
				"y": -0.796482649,
				"z": -0.6173153968,
				"element": "H" 
			},
			{
				"x": -3.4680840947,
				"y": 0.7305905366,
				"z": -1.400599486,
				"element": "H" 
			}
		],
		 "valence_orbital": [ 
			{
				"type": "occ",
				"energy": -0.32385,
				"method": "rhf"
			},
			{
				"type": "occ",
				"energy": -0.30857,
				"method": "rhf"
			},
			{
				"type": "occ",
				"energy": -0.29095,
				"method": "rhf"
			},
			{
				"type": "occ",
				"energy": -0.25518,
				"method": "rhf"
			},
			{
				"type": "occ",
				"energy": -0.23121,
				"method": "rhf"
			},
			{
				"type": "unocc",
				"energy": 0.06815,
				"method": "rhf"
			},
			{
				"type": "unocc",
				"energy": 0.08378,
				"method": "rhf"
			},
			{
				"type": "unocc",
				"energy": 0.10419,
				"method": "rhf"
			},
			{
				"type": "unocc",
				"energy": 0.12003,
				"method": "rhf"
			},
			{
				"type": "unocc",
				"energy": 0.12776,
				"method": "rhf"
			}
		],
		"cosmo_sigma_profile": { 
			"-0.025": 0.0,
			"-0.024": 0.0,
			"-0.023": 0.0,
			"-0.022": 0.0,
			"-0.021": 0.0,
			"-0.02": 0.0,
			"-0.019": 0.0,
			"-0.018": 0.0,
			"-0.017": 0.0,
			"-0.016": 0.0,
			"-0.015": 0.0273575378645,
			"-0.014": 0.651019025801,
			"-0.013": 1.03270410662,
			"-0.012": 0.742380178416,
			"-0.011": 0.744199353438,
			"-0.01": 1.47887907042,
			"-0.009": 2.92222318821,
			"-0.008": 3.23236809816,
			"-0.007": 4.32059006439,
			"-0.006": 4.04397341501,
			"-0.005": 4.38324205899,
			"-0.004": 5.08796106916,
			"-0.003": 13.4619075886,
			"-0.002": 27.3924349098,
			"-0.001": 30.7679304854,
			"0.0": 23.0362981101,
			"0.001": 18.8944496729,
			"0.002": 6.70968899336,
			"0.003": 4.07604745212,
			"0.004": 2.43003597975,
			"0.005": 2.13623857725,
			"0.006": 2.44711475371,
			"0.007": 2.1240583813,
			"0.008": 2.48293650013,
			"0.009": 2.5227339444,
			"0.01": 0.847612909058,
			"0.011": 2.44702740787,
			"0.012": 2.19045043954,
			"0.013": 1.51989812086,
			"0.014": 2.69261480333,
			"0.015": 2.0025963976,
			"0.016": 0.435434416579,
			"0.017": 0.463536692717,
			"0.018": 0.583628201016,
			"0.019": 0.345265178971,
			"0.02": 0.53063717985,
			"0.021": 0.0157303514461,
			"0.022": 0.0,
			"0.023": 0.0,
			"0.024": 0.0,
			"0.025": 0.0
		}
	}
}
