{
	 "smiles": "O=C1C=CC(=O)N1C1=CC=C(C=C1)C#N", 
	 "Tm": 412.15, 
	 "num_atms": 21, 
	 "gaussian": { 
		 "optdone": 1, 
		 "sigma_profile": "yes", 
		 "theory": "DFT", 
		 "functional": "B3LYP", 
		 "basiset": "6-31G**", 
		 "properties": { 
			 "R2extent": 4167.0564, 
			 "electric_dipole_moment_norm": 6.84923864528, 
			 "electric_quadrupole_moment_norm": 16.4960129152, 
			 "total_energy": -682.71557369, 
			 "HOMO_LUMO_gap": 0.13124, 
			 "cosmo_polarized_energy": -13.6, 
			 "cosmo_cavitation_energy": 27.52, 
			 "cosmo_dispersion_energy": -19.78, 
			 "cosmo_repulsion_energy": 1.5, 
			 "cosmo_total_nonelectrostatic_energy": 9.24, 
			 "SMD_solvation_energy": 7.69 
		},
		"coords": [
			{
				"x": -0.271340029,
				"y": 1.8003373283,
				"z": -0.8867792824,
				"element": "O" 
			},
			{
				"x": -0.0950592023,
				"y": 1.7637624784,
				"z": 0.3118059629,
				"element": "C" 
			},
			{
				"x": 0.4173789557,
				"y": 2.8892617889,
				"z": 1.1511515468,
				"element": "C" 
			},
			{
				"x": 0.4818526058,
				"y": 2.4889207754,
				"z": 2.4201034106,
				"element": "C" 
			},
			{
				"x": 0.0164420463,
				"y": 1.0712724079,
				"z": 2.5067776853,
				"element": "C" 
			},
			{
				"x": -0.0474611556,
				"y": 0.4098369329,
				"z": 3.5203977039,
				"element": "O" 
			},
			{
				"x": -0.3285114583,
				"y": 0.6655084482,
				"z": 1.1867573622,
				"element": "N" 
			},
			{
				"x": -0.823422481,
				"y": -0.6215118795,
				"z": 0.8060401896,
				"element": "C" 
			},
			{
				"x": -1.0117791383,
				"y": -1.6270118166,
				"z": 1.7722194445,
				"element": "C" 
			},
			{
				"x": -1.492884973,
				"y": -2.8754221668,
				"z": 1.3971381944,
				"element": "C" 
			},
			{
				"x": -1.7978266098,
				"y": -3.1549128971,
				"z": 0.0568241405,
				"element": "C" 
			},
			{
				"x": -1.6088284371,
				"y": -2.1503788161,
				"z": -0.9037690391,
				"element": "C" 
			},
			{
				"x": -1.1282649546,
				"y": -0.898588118,
				"z": -0.5394368147,
				"element": "C" 
			},
			{
				"x": -2.2937167185,
				"y": -4.4439797344,
				"z": -0.3244091273,
				"element": "C" 
			},
			{
				"x": -2.6964260101,
				"y": -5.4907714392,
				"z": -0.6340365861,
				"element": "N" 
			},
			{
				"x": 0.6701199094,
				"y": 3.8433488186,
				"z": 0.7084427101,
				"element": "H" 
			},
			{
				"x": 0.8019792808,
				"y": 3.0245562928,
				"z": 3.303712211,
				"element": "H" 
			},
			{
				"x": -0.7834712198,
				"y": -1.4331467483,
				"z": 2.8086278442,
				"element": "H" 
			},
			{
				"x": -1.6336484423,
				"y": -3.6418424053,
				"z": 2.151794347,
				"element": "H" 
			},
			{
				"x": -1.8400257735,
				"y": -2.3510641055,
				"z": -1.9444386793,
				"element": "H" 
			},
			{
				"x": -0.9902061946,
				"y": -0.1402751446,
				"z": -1.2942232238,
				"element": "H" 
			}
		],
		 "valence_orbital": [ 
			{
				"type": "occ",
				"energy": -0.32168,
				"method": "rhf"
			},
			{
				"type": "occ",
				"energy": -0.31551,
				"method": "rhf"
			},
			{
				"type": "occ",
				"energy": -0.29166,
				"method": "rhf"
			},
			{
				"type": "occ",
				"energy": -0.27631,
				"method": "rhf"
			},
			{
				"type": "occ",
				"energy": -0.24995,
				"method": "rhf"
			},
			{
				"type": "unocc",
				"energy": -0.11871,
				"method": "rhf"
			},
			{
				"type": "unocc",
				"energy": -0.05553,
				"method": "rhf"
			},
			{
				"type": "unocc",
				"energy": -0.02474,
				"method": "rhf"
			},
			{
				"type": "unocc",
				"energy": 0.03034,
				"method": "rhf"
			},
			{
				"type": "unocc",
				"energy": 0.03913,
				"method": "rhf"
			}
		],
		"cosmo_sigma_profile": { 
			"-0.025": 0.0,
			"-0.024": 0.0,
			"-0.023": 0.0,
			"-0.022": 0.0,
			"-0.021": 0.0,
			"-0.02": 0.0,
			"-0.019": 0.0,
			"-0.018": 0.0,
			"-0.017": 0.0,
			"-0.016": 0.0,
			"-0.015": 0.0,
			"-0.014": 0.0,
			"-0.013": 0.0,
			"-0.012": 0.0,
			"-0.011": 0.384659638122,
			"-0.01": 3.58700686869,
			"-0.009": 3.03247058406,
			"-0.008": 8.05600137376,
			"-0.007": 9.71217368527,
			"-0.006": 13.8139729038,
			"-0.005": 13.4057669366,
			"-0.004": 16.1955339426,
			"-0.003": 13.7711501373,
			"-0.002": 14.6604329275,
			"-0.001": 18.1935442146,
			"0.0": 16.3703847508,
			"0.001": 16.9399249989,
			"0.002": 16.0233132158,
			"0.003": 7.41975074273,
			"0.004": 4.74138178454,
			"0.005": 4.62598814507,
			"0.006": 5.50385107916,
			"0.007": 6.42514932069,
			"0.008": 7.6331674979,
			"0.009": 8.2227620838,
			"0.01": 7.72483639703,
			"0.011": 3.93631773302,
			"0.012": 2.71375488208,
			"0.013": 1.57916462878,
			"0.014": 0.073064158487,
			"0.015": 0.0,
			"0.016": 0.0,
			"0.017": 0.0,
			"0.018": 0.0,
			"0.019": 0.0,
			"0.02": 0.0,
			"0.021": 0.0,
			"0.022": 0.0,
			"0.023": 0.0,
			"0.024": 0.0,
			"0.025": 0.0
		}
	}
}
