{
	 "smiles": "O=C1CC2(CN1)CCCCC2", 
	 "Tm": 363.15, 
	 "num_atms": 26, 
	 "gaussian": { 
		 "optdone": 1, 
		 "sigma_profile": "yes", 
		 "theory": "DFT", 
		 "functional": "B3LYP", 
		 "basiset": "6-31G**", 
		 "properties": { 
			 "R2extent": 2430.4813, 
			 "electric_dipole_moment_norm": 4.10081184279, 
			 "electric_quadrupole_moment_norm": 23.0325570949, 
			 "total_energy": -481.998080546, 
			 "HOMO_LUMO_gap": 0.27128, 
			 "cosmo_polarized_energy": -10.77, 
			 "cosmo_cavitation_energy": 25.56, 
			 "cosmo_dispersion_energy": -19.27, 
			 "cosmo_repulsion_energy": 1.55, 
			 "cosmo_total_nonelectrostatic_energy": 7.84, 
			 "SMD_solvation_energy": 3.46 
		},
		"coords": [
			{
				"x": 0.469094794,
				"y": -0.4813790882,
				"z": -4.5127723106,
				"element": "O" 
			},
			{
				"x": 0.1432315294,
				"y": -0.7803832873,
				"z": -3.3768593475,
				"element": "C" 
			},
			{
				"x": -0.2614895035,
				"y": 0.1582036302,
				"z": -2.2387399778,
				"element": "C" 
			},
			{
				"x": -0.2134441531,
				"y": -0.6971505449,
				"z": -0.9504413795,
				"element": "C" 
			},
			{
				"x": -0.4895550645,
				"y": -2.1258973869,
				"z": -1.5224150989,
				"element": "C" 
			},
			{
				"x": 0.0481025115,
				"y": -2.0521888735,
				"z": -2.8720855742,
				"element": "N" 
			},
			{
				"x": 1.2017096832,
				"y": -0.6380594766,
				"z": -0.329480065,
				"element": "C" 
			},
			{
				"x": 1.3709078974,
				"y": -1.548705401,
				"z": 0.9099967981,
				"element": "C" 
			},
			{
				"x": 0.0640482957,
				"y": -1.6919610101,
				"z": 1.7251161499,
				"element": "C" 
			},
			{
				"x": -0.8107692791,
				"y": -0.4429467015,
				"z": 1.572203926,
				"element": "C" 
			},
			{
				"x": -1.26005322,
				"y": -0.2420132543,
				"z": 0.1069099942,
				"element": "C" 
			},
			{
				"x": -1.2802625191,
				"y": 0.5112110733,
				"z": -2.4470985005,
				"element": "H" 
			},
			{
				"x": 0.3880953734,
				"y": 1.037122345,
				"z": -2.2089414142,
				"element": "H" 
			},
			{
				"x": -1.5692011547,
				"y": -2.3404264021,
				"z": -1.5287903388,
				"element": "H" 
			},
			{
				"x": 0.0017303342,
				"y": -2.9171550551,
				"z": -0.9481699186,
				"element": "H" 
			},
			{
				"x": 0.1453131618,
				"y": -2.849598337,
				"z": -3.4840215816,
				"element": "H" 
			},
			{
				"x": 1.3916855044,
				"y": 0.4049476409,
				"z": -0.0464288623,
				"element": "H" 
			},
			{
				"x": 1.9535467669,
				"y": -0.8883166843,
				"z": -1.0864555046,
				"element": "H" 
			},
			{
				"x": 2.1577526211,
				"y": -1.1253120678,
				"z": 1.5450838591,
				"element": "H" 
			},
			{
				"x": 1.7317238374,
				"y": -2.5394619408,
				"z": 0.6108184516,
				"element": "H" 
			},
			{
				"x": -0.5040450579,
				"y": -2.5668647948,
				"z": 1.3815995152,
				"element": "H" 
			},
			{
				"x": 0.2948316561,
				"y": -1.8776099934,
				"z": 2.7799153842,
				"element": "H" 
			},
			{
				"x": -1.6900430647,
				"y": -0.5006353615,
				"z": 2.2234262322,
				"element": "H" 
			},
			{
				"x": -0.240300051,
				"y": 0.4323916236,
				"z": 1.9093486392,
				"element": "H" 
			},
			{
				"x": -2.2010126957,
				"y": -0.7790965184,
				"z": -0.0679490692,
				"element": "H" 
			},
			{
				"x": -1.4866982032,
				"y": 0.8190858663,
				"z": -0.0509700065,
				"element": "H" 
			}
		],
		 "valence_orbital": [ 
			{
				"type": "occ",
				"energy": -0.31049,
				"method": "rhf"
			},
			{
				"type": "occ",
				"energy": -0.3065,
				"method": "rhf"
			},
			{
				"type": "occ",
				"energy": -0.29941,
				"method": "rhf"
			},
			{
				"type": "occ",
				"energy": -0.24653,
				"method": "rhf"
			},
			{
				"type": "occ",
				"energy": -0.23362,
				"method": "rhf"
			},
			{
				"type": "unocc",
				"energy": 0.03766,
				"method": "rhf"
			},
			{
				"type": "unocc",
				"energy": 0.06681,
				"method": "rhf"
			},
			{
				"type": "unocc",
				"energy": 0.08754,
				"method": "rhf"
			},
			{
				"type": "unocc",
				"energy": 0.10062,
				"method": "rhf"
			},
			{
				"type": "unocc",
				"energy": 0.10775,
				"method": "rhf"
			}
		],
		"cosmo_sigma_profile": { 
			"-0.025": 0.0,
			"-0.024": 0.0,
			"-0.023": 0.0,
			"-0.022": 0.0,
			"-0.021": 0.0,
			"-0.02": 0.0,
			"-0.019": 0.0,
			"-0.018": 0.0,
			"-0.017": 0.0,
			"-0.016": 0.0,
			"-0.015": 0.0,
			"-0.014": 0.518246848252,
			"-0.013": 1.28681785273,
			"-0.012": 1.23899870336,
			"-0.011": 0.906061990954,
			"-0.01": 0.921136718304,
			"-0.009": 0.682416243989,
			"-0.008": 0.994465297143,
			"-0.007": 1.13050437022,
			"-0.006": 1.02785739075,
			"-0.005": 4.02970500518,
			"-0.004": 12.4385557811,
			"-0.003": 22.0886913109,
			"-0.002": 37.2061458367,
			"-0.001": 31.67194626,
			"0.0": 25.2271015358,
			"0.001": 20.9326805356,
			"0.002": 5.63860833708,
			"0.003": 3.07233319465,
			"0.004": 2.0567560349,
			"0.005": 1.36780172779,
			"0.006": 1.44867364749,
			"0.007": 1.15688671343,
			"0.008": 0.677718868832,
			"0.009": 2.29785224599,
			"0.01": 1.42524807899,
			"0.011": 0.577168690211,
			"0.012": 1.27322779982,
			"0.013": 3.21344955599,
			"0.014": 6.00495348423,
			"0.015": 4.01630177269,
			"0.016": 0.420538008953,
			"0.017": 0.0,
			"0.018": 0.0,
			"0.019": 0.0,
			"0.02": 0.0,
			"0.021": 0.0,
			"0.022": 0.0,
			"0.023": 0.0,
			"0.024": 0.0,
			"0.025": 0.0
		}
	}
}
