{
	 "smiles": "FC1=CC(Cl)=CC(=C1)C#N", 
	 "Tm": 330.15, 
	 "num_atms": 13, 
	 "gaussian": { 
		 "optdone": 1, 
		 "sigma_profile": "yes", 
		 "theory": "DFT", 
		 "functional": "B3LYP", 
		 "basiset": "6-31G**", 
		 "properties": { 
			 "R2extent": 2240.7064, 
			 "electric_dipole_moment_norm": 2.8552520922, 
			 "electric_quadrupole_moment_norm": 12.4598494361, 
			 "total_energy": -883.309170679, 
			 "HOMO_LUMO_gap": 0.20366, 
			 "cosmo_polarized_energy": -7.65, 
			 "cosmo_cavitation_energy": 21.4, 
			 "cosmo_dispersion_energy": -15.18, 
			 "cosmo_repulsion_energy": 1.21, 
			 "cosmo_total_nonelectrostatic_energy": 7.44, 
			 "SMD_solvation_energy": 5.41 
		},
		"coords": [
			{
				"x": -3.3353917486,
				"y": 0.1230197412,
				"z": 0.374264612,
				"element": "F" 
			},
			{
				"x": -2.1320482442,
				"y": 0.285738438,
				"z": -0.198746996,
				"element": "C" 
			},
			{
				"x": -1.5616730798,
				"y": -0.7963353149,
				"z": -0.8620644918,
				"element": "C" 
			},
			{
				"x": -0.3112703679,
				"y": -0.6172626743,
				"z": -1.4541316602,
				"element": "C" 
			},
			{
				"x": 0.4318307729,
				"y": -1.9591078414,
				"z": -2.2953387532,
				"element": "Cl" 
			},
			{
				"x": 0.3581278785,
				"y": 0.6028612515,
				"z": -1.3911967445,
				"element": "C" 
			},
			{
				"x": -0.2502686726,
				"y": 1.671355795,
				"z": -0.7126152383,
				"element": "C" 
			},
			{
				"x": -1.5074104499,
				"y": 1.5218573016,
				"z": -0.1070343237,
				"element": "C" 
			},
			{
				"x": 0.4256872937,
				"y": 2.9351386695,
				"z": -0.6382895217,
				"element": "C" 
			},
			{
				"x": 0.9741485702,
				"y": 3.9586291601,
				"z": -0.5786065845,
				"element": "N" 
			},
			{
				"x": -2.0839700024,
				"y": -1.7439626017,
				"z": -0.9096927387,
				"element": "H" 
			},
			{
				"x": 1.328312691,
				"y": 0.7268447007,
				"z": -1.8556129312,
				"element": "H" 
			},
			{
				"x": -1.9846746408,
				"y": 2.3397233747,
				"z": 0.4184653718,
				"element": "H" 
			}
		],
		 "valence_orbital": [ 
			{
				"type": "occ",
				"energy": -0.3487,
				"method": "rhf"
			},
			{
				"type": "occ",
				"energy": -0.3398,
				"method": "rhf"
			},
			{
				"type": "occ",
				"energy": -0.33628,
				"method": "rhf"
			},
			{
				"type": "occ",
				"energy": -0.2832,
				"method": "rhf"
			},
			{
				"type": "occ",
				"energy": -0.27669,
				"method": "rhf"
			},
			{
				"type": "unocc",
				"energy": -0.07303,
				"method": "rhf"
			},
			{
				"type": "unocc",
				"energy": -0.03985,
				"method": "rhf"
			},
			{
				"type": "unocc",
				"energy": 0.00112,
				"method": "rhf"
			},
			{
				"type": "unocc",
				"energy": 0.02333,
				"method": "rhf"
			},
			{
				"type": "unocc",
				"energy": 0.06221,
				"method": "rhf"
			}
		],
		"cosmo_sigma_profile": { 
			"-0.025": 0.0,
			"-0.024": 0.0,
			"-0.023": 0.0,
			"-0.022": 0.0,
			"-0.021": 0.0,
			"-0.02": 0.0,
			"-0.019": 0.0,
			"-0.018": 0.0,
			"-0.017": 0.0,
			"-0.016": 0.0,
			"-0.015": 0.0,
			"-0.014": 0.0,
			"-0.013": 0.0,
			"-0.012": 0.0,
			"-0.011": 0.0,
			"-0.01": 1.94820933574,
			"-0.009": 5.71537271751,
			"-0.008": 5.40679344993,
			"-0.007": 4.43100329021,
			"-0.006": 5.1436359266,
			"-0.005": 5.79807415335,
			"-0.004": 5.5977987055,
			"-0.003": 11.7449437619,
			"-0.002": 18.8337350101,
			"-0.001": 24.9439990907,
			"0.0": 15.3638165025,
			"0.001": 8.85349977037,
			"0.002": 11.030159797,
			"0.003": 18.8405730432,
			"0.004": 10.3159764555,
			"0.005": 2.68535412907,
			"0.006": 2.44910083102,
			"0.007": 3.14834290841,
			"0.008": 3.21572373094,
			"0.009": 3.41528498549,
			"0.01": 2.60499238315,
			"0.011": 2.72295429832,
			"0.012": 2.04270348842,
			"0.013": 0.431529755079,
			"0.014": 0.0,
			"0.015": 0.0,
			"0.016": 0.0,
			"0.017": 0.0,
			"0.018": 0.0,
			"0.019": 0.0,
			"0.02": 0.0,
			"0.021": 0.0,
			"0.022": 0.0,
			"0.023": 0.0,
			"0.024": 0.0,
			"0.025": 0.0
		}
	}
}
