{
	 "smiles": "NC(=O)C1CO1", 
	 "Tm": 306.15, 
	 "num_atms": 11, 
	 "gaussian": { 
		 "optdone": 1, 
		 "sigma_profile": "yes", 
		 "theory": "DFT", 
		 "functional": "B3LYP", 
		 "basiset": "6-31G**", 
		 "properties": { 
			 "R2extent": 1538.6557, 
			 "electric_dipole_moment_norm": 2.49440262588, 
			 "electric_quadrupole_moment_norm": 8.4472456292, 
			 "total_energy": -322.49720918, 
			 "HOMO_LUMO_gap": 0.26121, 
			 "cosmo_polarized_energy": -11.7, 
			 "cosmo_cavitation_energy": 15.12, 
			 "cosmo_dispersion_energy": -11.38, 
			 "cosmo_repulsion_energy": 1.01, 
			 "cosmo_total_nonelectrostatic_energy": 4.76, 
			 "SMD_solvation_energy": 3.81 
		},
		"coords": [
			{
				"x": -2.4343182637,
				"y": 1.2275022024,
				"z": 0.3620700265,
				"element": "N" 
			},
			{
				"x": -2.1001282374,
				"y": 0.1878283875,
				"z": -0.452568598,
				"element": "C" 
			},
			{
				"x": -1.364719272,
				"y": 0.2649887386,
				"z": -1.4253218104,
				"element": "O" 
			},
			{
				"x": -2.6920435601,
				"y": -1.13684805,
				"z": -0.0262916686,
				"element": "C" 
			},
			{
				"x": -2.4033465384,
				"y": -1.6879220787,
				"z": 1.3116949096,
				"element": "C" 
			},
			{
				"x": -3.6792197441,
				"y": -1.1095226131,
				"z": 1.0163066799,
				"element": "O" 
			},
			{
				"x": -2.137652121,
				"y": 2.1543477832,
				"z": 0.0980798377,
				"element": "H" 
			},
			{
				"x": -3.1898136455,
				"y": 1.1080258696,
				"z": 1.020980545,
				"element": "H" 
			},
			{
				"x": -2.8845731993,
				"y": -1.8205643717,
				"z": -0.8509101219,
				"element": "H" 
			},
			{
				"x": -2.4011548127,
				"y": -2.7677110487,
				"z": 1.4534181805,
				"element": "H" 
			},
			{
				"x": -1.7772306059,
				"y": -1.1180248192,
				"z": 1.9967420196,
				"element": "H" 
			}
		],
		 "valence_orbital": [ 
			{
				"type": "occ",
				"energy": -0.39923,
				"method": "rhf"
			},
			{
				"type": "occ",
				"energy": -0.32596,
				"method": "rhf"
			},
			{
				"type": "occ",
				"energy": -0.29999,
				"method": "rhf"
			},
			{
				"type": "occ",
				"energy": -0.27272,
				"method": "rhf"
			},
			{
				"type": "occ",
				"energy": -0.25102,
				"method": "rhf"
			},
			{
				"type": "unocc",
				"energy": 0.01019,
				"method": "rhf"
			},
			{
				"type": "unocc",
				"energy": 0.08062,
				"method": "rhf"
			},
			{
				"type": "unocc",
				"energy": 0.09754,
				"method": "rhf"
			},
			{
				"type": "unocc",
				"energy": 0.1207,
				"method": "rhf"
			},
			{
				"type": "unocc",
				"energy": 0.12317,
				"method": "rhf"
			}
		],
		"cosmo_sigma_profile": { 
			"-0.025": 0.0,
			"-0.024": 0.0,
			"-0.023": 0.0,
			"-0.022": 0.0,
			"-0.021": 0.0,
			"-0.02": 0.0,
			"-0.019": 0.0,
			"-0.018": 0.0,
			"-0.017": 0.0,
			"-0.016": 0.0,
			"-0.015": 0.119439875295,
			"-0.014": 1.11433328176,
			"-0.013": 1.60480509509,
			"-0.012": 1.85102946759,
			"-0.011": 1.47377159749,
			"-0.01": 1.6355816564,
			"-0.009": 2.7952127388,
			"-0.008": 3.67231578437,
			"-0.007": 7.25016038423,
			"-0.006": 8.60124119494,
			"-0.005": 7.73454453465,
			"-0.004": 8.37111703868,
			"-0.003": 7.34380444322,
			"-0.002": 8.1593119686,
			"-0.001": 6.08508272794,
			"0.0": 3.98226944848,
			"0.001": 4.02357268444,
			"0.002": 3.91355243002,
			"0.003": 3.72380266053,
			"0.004": 3.11789321768,
			"0.005": 3.20104602924,
			"0.006": 2.92915459674,
			"0.007": 2.39731652377,
			"0.008": 2.61260007855,
			"0.009": 3.1806205744,
			"0.01": 3.2121928558,
			"0.011": 2.88560642815,
			"0.012": 2.48166336511,
			"0.013": 5.38241231708,
			"0.014": 4.15176218993,
			"0.015": 0.538387124033,
			"0.016": 0.0,
			"0.017": 0.0,
			"0.018": 0.0,
			"0.019": 0.0,
			"0.02": 0.0,
			"0.021": 0.0,
			"0.022": 0.0,
			"0.023": 0.0,
			"0.024": 0.0,
			"0.025": 0.0
		}
	}
}
