{
	 "smiles": "CC(C)NS(=O)(=O)C1=CC(C(O)=O)=C(Cl)C=C1", 
	 "Tm": 421.15, 
	 "num_atms": 29, 
	 "gaussian": { 
		 "optdone": 1, 
		 "sigma_profile": "yes", 
		 "theory": "DFT", 
		 "functional": "B3LYP", 
		 "basiset": "6-31G**", 
		 "properties": { 
			 "R2extent": 7057.4543, 
			 "electric_dipole_moment_norm": 5.67109651743, 
			 "electric_quadrupole_moment_norm": 26.1844920321, 
			 "total_energy": -1602.2631502, 
			 "HOMO_LUMO_gap": 0.19084, 
			 "cosmo_polarized_energy": -19.6, 
			 "cosmo_cavitation_energy": 35.46, 
			 "cosmo_dispersion_energy": -25.45, 
			 "cosmo_repulsion_energy": 1.93, 
			 "cosmo_total_nonelectrostatic_energy": 11.93, 
			 "SMD_solvation_energy": 5.88 
		},
		"coords": [
			{
				"x": -2.8109023009,
				"y": -0.7152732696,
				"z": -1.3936613893,
				"element": "C" 
			},
			{
				"x": -1.513907186,
				"y": -1.4326041097,
				"z": -0.9961014512,
				"element": "C" 
			},
			{
				"x": -1.4801185859,
				"y": -1.8128422753,
				"z": 0.4859753428,
				"element": "C" 
			},
			{
				"x": -0.2839977237,
				"y": -0.6957510902,
				"z": -1.4026871751,
				"element": "N" 
			},
			{
				"x": 0.2010511461,
				"y": 0.7577431316,
				"z": -0.7042027282,
				"element": "S" 
			},
			{
				"x": -0.8691991331,
				"y": 1.359303346,
				"z": 0.0971297164,
				"element": "O" 
			},
			{
				"x": 0.8599216645,
				"y": 1.4896715794,
				"z": -1.791837916,
				"element": "O" 
			},
			{
				"x": 1.4924688338,
				"y": 0.25448312,
				"z": 0.4471814875,
				"element": "C" 
			},
			{
				"x": 1.2703539804,
				"y": 0.3395348046,
				"z": 1.8126364876,
				"element": "C" 
			},
			{
				"x": 2.2707463695,
				"y": -0.010625837,
				"z": 2.7382529768,
				"element": "C" 
			},
			{
				"x": 1.8451680859,
				"y": 0.1288650556,
				"z": 4.1906431468,
				"element": "C" 
			},
			{
				"x": 2.7769111228,
				"y": 0.1079989227,
				"z": 5.1581221423,
				"element": "O" 
			},
			{
				"x": 0.6795690422,
				"y": 0.2809848936,
				"z": 4.4743534256,
				"element": "O" 
			},
			{
				"x": 3.4975480053,
				"y": -0.4491087889,
				"z": 2.213233782,
				"element": "C" 
			},
			{
				"x": 4.8502395212,
				"y": -0.9496292882,
				"z": 3.237126197,
				"element": "Cl" 
			},
			{
				"x": 3.726174228,
				"y": -0.5310216756,
				"z": 0.8361663861,
				"element": "C" 
			},
			{
				"x": 2.7239695488,
				"y": -0.1726149043,
				"z": -0.0553102435,
				"element": "C" 
			},
			{
				"x": -2.9239529672,
				"y": 0.2190441043,
				"z": -0.8393888172,
				"element": "H" 
			},
			{
				"x": -2.8199172465,
				"y": -0.4857200949,
				"z": -2.4648590595,
				"element": "H" 
			},
			{
				"x": -3.6740510527,
				"y": -1.3553665,
				"z": -1.1823236881,
				"element": "H" 
			},
			{
				"x": -1.4388852767,
				"y": -2.361164054,
				"z": -1.5763770475,
				"element": "H" 
			},
			{
				"x": -2.3070675161,
				"y": -2.4950242557,
				"z": 0.7033096759,
				"element": "H" 
			},
			{
				"x": -1.596242022,
				"y": -0.9355905961,
				"z": 1.127013359,
				"element": "H" 
			},
			{
				"x": -0.5447985145,
				"y": -2.3187958871,
				"z": 0.7410869331,
				"element": "H" 
			},
			{
				"x": -0.213607935,
				"y": -0.5610520223,
				"z": -2.4085632289,
				"element": "H" 
			},
			{
				"x": 0.3183042215,
				"y": 0.6826251486,
				"z": 2.1997541658,
				"element": "H" 
			},
			{
				"x": 3.66841719,
				"y": -0.0313478586,
				"z": 4.8003714992,
				"element": "H" 
			},
			{
				"x": 4.6898441394,
				"y": -0.8720253701,
				"z": 0.4756008891,
				"element": "H" 
			},
			{
				"x": 2.8982603606,
				"y": -0.2148962286,
				"z": -1.1247448683,
				"element": "H" 
			}
		],
		 "valence_orbital": [ 
			{
				"type": "occ",
				"energy": -0.31158,
				"method": "rhf"
			},
			{
				"type": "occ",
				"energy": -0.29642,
				"method": "rhf"
			},
			{
				"type": "occ",
				"energy": -0.29593,
				"method": "rhf"
			},
			{
				"type": "occ",
				"energy": -0.2851,
				"method": "rhf"
			},
			{
				"type": "occ",
				"energy": -0.26884,
				"method": "rhf"
			},
			{
				"type": "unocc",
				"energy": -0.078,
				"method": "rhf"
			},
			{
				"type": "unocc",
				"energy": -0.05411,
				"method": "rhf"
			},
			{
				"type": "unocc",
				"energy": -0.01207,
				"method": "rhf"
			},
			{
				"type": "unocc",
				"energy": 0.02082,
				"method": "rhf"
			},
			{
				"type": "unocc",
				"energy": 0.0513,
				"method": "rhf"
			}
		],
		"cosmo_sigma_profile": { 
			"-0.025": 0.0,
			"-0.024": 0.0,
			"-0.023": 0.0,
			"-0.022": 0.0,
			"-0.021": 0.0,
			"-0.02": 0.0,
			"-0.019": 0.0,
			"-0.018": 0.0,
			"-0.017": 0.0,
			"-0.016": 0.0,
			"-0.015": 0.0983631637385,
			"-0.014": 1.06271417183,
			"-0.013": 1.24650286916,
			"-0.012": 2.45333059282,
			"-0.011": 2.66146432318,
			"-0.01": 2.23858379585,
			"-0.009": 5.24640379473,
			"-0.008": 6.18032595637,
			"-0.007": 6.46256791043,
			"-0.006": 8.34382466181,
			"-0.005": 11.6705562909,
			"-0.004": 20.639653213,
			"-0.003": 24.6856955567,
			"-0.002": 27.900950389,
			"-0.001": 31.5607504412,
			"0.0": 29.3041123084,
			"0.001": 19.1613916833,
			"0.002": 11.2311757633,
			"0.003": 7.24387394512,
			"0.004": 6.26341537365,
			"0.005": 5.21571200149,
			"0.006": 5.15088490497,
			"0.007": 6.10812116397,
			"0.008": 6.71721211077,
			"0.009": 7.39327801033,
			"0.01": 11.8834525038,
			"0.011": 11.5759821206,
			"0.012": 3.72830817618,
			"0.013": 0.444784853317,
			"0.014": 0.0,
			"0.015": 0.0,
			"0.016": 0.0,
			"0.017": 0.0,
			"0.018": 0.0,
			"0.019": 0.0,
			"0.02": 0.0,
			"0.021": 0.0,
			"0.022": 0.0,
			"0.023": 0.0,
			"0.024": 0.0,
			"0.025": 0.0
		}
	}
}
