{
	 "smiles": "NC1=NC(=CS1)C1=C(OC(F)F)C=CC=C1", 
	 "Tm": 347.15, 
	 "num_atms": 24, 
	 "gaussian": { 
		 "optdone": 1, 
		 "sigma_profile": "yes", 
		 "theory": "DFT", 
		 "functional": "B3LYP", 
		 "basiset": "6-31G**", 
		 "properties": { 
			 "R2extent": 4050.0617, 
			 "electric_dipole_moment_norm": 2.48753886804, 
			 "electric_quadrupole_moment_norm": 17.6989671249, 
			 "total_energy": -1168.46567131, 
			 "HOMO_LUMO_gap": 0.17729, 
			 "cosmo_polarized_energy": -14.09, 
			 "cosmo_cavitation_energy": 31.33, 
			 "cosmo_dispersion_energy": -22.37, 
			 "cosmo_repulsion_energy": 1.67, 
			 "cosmo_total_nonelectrostatic_energy": 10.64, 
			 "SMD_solvation_energy": 5.24 
		},
		"coords": [
			{
				"x": 1.2783097886,
				"y": -2.573226867,
				"z": -2.8976863287,
				"element": "N" 
			},
			{
				"x": 0.3359124612,
				"y": -1.7152015956,
				"z": -2.3835560445,
				"element": "C" 
			},
			{
				"x": 0.5557203147,
				"y": -0.9098064524,
				"z": -1.3874705973,
				"element": "N" 
			},
			{
				"x": -0.5451343628,
				"y": -0.1024454397,
				"z": -1.1427286695,
				"element": "C" 
			},
			{
				"x": -1.6240355093,
				"y": -0.3171336478,
				"z": -1.9590757029,
				"element": "C" 
			},
			{
				"x": -1.2661628475,
				"y": -1.5620611117,
				"z": -3.1276743289,
				"element": "S" 
			},
			{
				"x": -0.5145029698,
				"y": 0.9127290869,
				"z": -0.06657656,
				"element": "C" 
			},
			{
				"x": 0.1371413748,
				"y": 0.7161812849,
				"z": 1.1675593835,
				"element": "C" 
			},
			{
				"x": 0.8538987458,
				"y": -0.4444240563,
				"z": 1.4457424614,
				"element": "O" 
			},
			{
				"x": 0.1150758186,
				"y": -1.566603307,
				"z": 1.7236074053,
				"element": "C" 
			},
			{
				"x": 0.9656220485,
				"y": -2.6100786661,
				"z": 1.6977476001,
				"element": "F" 
			},
			{
				"x": -0.4048899067,
				"y": -1.4885523939,
				"z": 2.9846235705,
				"element": "F" 
			},
			{
				"x": 0.1326548576,
				"y": 1.6989719223,
				"z": 2.1553259813,
				"element": "C" 
			},
			{
				"x": -0.5247382974,
				"y": 2.9084091871,
				"z": 1.940124672,
				"element": "C" 
			},
			{
				"x": -1.1840811587,
				"y": 3.1270861064,
				"z": 0.7294984092,
				"element": "C" 
			},
			{
				"x": -1.1712186984,
				"y": 2.142448883,
				"z": -0.2547710485,
				"element": "C" 
			},
			{
				"x": 0.9436257659,
				"y": -3.4277934748,
				"z": -3.3188714011,
				"element": "H" 
			},
			{
				"x": 2.0733047697,
				"y": -2.6972931825,
				"z": -2.2838591813,
				"element": "H" 
			},
			{
				"x": -2.5991106792,
				"y": 0.1453839384,
				"z": -1.9261433297,
				"element": "H" 
			},
			{
				"x": -0.7100959991,
				"y": -1.7353341813,
				"z": 1.0244982603,
				"element": "H" 
			},
			{
				"x": 0.6486970201,
				"y": 1.4890719797,
				"z": 3.085834928,
				"element": "H" 
			},
			{
				"x": -0.5207832671,
				"y": 3.6718168597,
				"z": 2.7121267574,
				"element": "H" 
			},
			{
				"x": -1.6928851038,
				"y": 4.0681237554,
				"z": 0.543913327,
				"element": "H" 
			},
			{
				"x": -1.6507241656,
				"y": 2.3298313721,
				"z": -1.2104895635,
				"element": "H" 
			}
		],
		 "valence_orbital": [ 
			{
				"type": "occ",
				"energy": -0.28836,
				"method": "rhf"
			},
			{
				"type": "occ",
				"energy": -0.27409,
				"method": "rhf"
			},
			{
				"type": "occ",
				"energy": -0.25789,
				"method": "rhf"
			},
			{
				"type": "occ",
				"energy": -0.24799,
				"method": "rhf"
			},
			{
				"type": "occ",
				"energy": -0.21133,
				"method": "rhf"
			},
			{
				"type": "unocc",
				"energy": -0.03404,
				"method": "rhf"
			},
			{
				"type": "unocc",
				"energy": -0.00731,
				"method": "rhf"
			},
			{
				"type": "unocc",
				"energy": -0.00032,
				"method": "rhf"
			},
			{
				"type": "unocc",
				"energy": 0.01185,
				"method": "rhf"
			},
			{
				"type": "unocc",
				"energy": 0.0668,
				"method": "rhf"
			}
		],
		"cosmo_sigma_profile": { 
			"-0.025": 0.0,
			"-0.024": 0.0,
			"-0.023": 0.0,
			"-0.022": 0.0,
			"-0.021": 0.0,
			"-0.02": 0.0,
			"-0.019": 0.0,
			"-0.018": 0.0,
			"-0.017": 0.0,
			"-0.016": 0.0,
			"-0.015": 0.528987583619,
			"-0.014": 2.15238055013,
			"-0.013": 2.47319995365,
			"-0.012": 2.76370297331,
			"-0.011": 2.77442657476,
			"-0.01": 2.39661375638,
			"-0.009": 3.08706098534,
			"-0.008": 5.45281035382,
			"-0.007": 7.39332560521,
			"-0.006": 12.7758092759,
			"-0.005": 12.590665898,
			"-0.004": 14.1536212748,
			"-0.003": 11.0601284662,
			"-0.002": 10.6659058722,
			"-0.001": 11.2986372993,
			"0.0": 13.2084889498,
			"0.001": 17.3063178755,
			"0.002": 21.8354268823,
			"0.003": 32.3999032554,
			"0.004": 36.5035188171,
			"0.005": 9.994852004,
			"0.006": 3.95359598246,
			"0.007": 2.37521295429,
			"0.008": 3.73383442516,
			"0.009": 3.04027757901,
			"0.01": 2.04977045748,
			"0.011": 1.44406309814,
			"0.012": 0.9903369516,
			"0.013": 1.3999912485,
			"0.014": 0.66413293136,
			"0.015": 0.783104005011,
			"0.016": 0.152224799452,
			"0.017": 0.0,
			"0.018": 0.0,
			"0.019": 0.0,
			"0.02": 0.0,
			"0.021": 0.0,
			"0.022": 0.0,
			"0.023": 0.0,
			"0.024": 0.0,
			"0.025": 0.0
		}
	}
}
