{
	 "smiles": "CCOC(=O)C(=O)C1=NC2=C(C=CC=C2)N1C", 
	 "Tm": 390.15, 
	 "num_atms": 29, 
	 "gaussian": { 
		 "optdone": 1, 
		 "sigma_profile": "yes", 
		 "theory": "DFT", 
		 "functional": "B3LYP", 
		 "basiset": "6-31G**", 
		 "properties": { 
			 "R2extent": 5610.0516, 
			 "electric_dipole_moment_norm": 4.92316413803, 
			 "electric_quadrupole_moment_norm": 19.3963145889, 
			 "total_energy": -799.681846251, 
			 "HOMO_LUMO_gap": 0.13969, 
			 "cosmo_polarized_energy": -17.07, 
			 "cosmo_cavitation_energy": 33.79, 
			 "cosmo_dispersion_energy": -24.09, 
			 "cosmo_repulsion_energy": 1.87, 
			 "cosmo_total_nonelectrostatic_energy": 11.57, 
			 "SMD_solvation_energy": 5.43 
		},
		"coords": [
			{
				"x": 1.3425247765,
				"y": -3.5686584682,
				"z": 3.0122624717,
				"element": "C" 
			},
			{
				"x": 1.9036448859,
				"y": -2.1602666751,
				"z": 3.12684148,
				"element": "C" 
			},
			{
				"x": 0.8372254478,
				"y": -1.1732562654,
				"z": 3.1143619323,
				"element": "O" 
			},
			{
				"x": 0.407259739,
				"y": -0.7702444703,
				"z": 1.9185044585,
				"element": "C" 
			},
			{
				"x": 0.8545172497,
				"y": -1.1225244822,
				"z": 0.8449426194,
				"element": "O" 
			},
			{
				"x": -0.8050865471,
				"y": 0.1765747391,
				"z": 2.0503966974,
				"element": "C" 
			},
			{
				"x": -1.5337872333,
				"y": 0.0912557888,
				"z": 3.0165894285,
				"element": "O" 
			},
			{
				"x": -1.1195098022,
				"y": 1.0679957837,
				"z": 0.9000449955,
				"element": "C" 
			},
			{
				"x": -2.3716117172,
				"y": 1.3271932417,
				"z": 0.5723580637,
				"element": "N" 
			},
			{
				"x": -2.2915364575,
				"y": 2.151819382,
				"z": -0.5234015322,
				"element": "C" 
			},
			{
				"x": -0.9350640498,
				"y": 2.4099841543,
				"z": -0.8462421979,
				"element": "C" 
			},
			{
				"x": -0.566437495,
				"y": 3.241413622,
				"z": -1.9113330637,
				"element": "C" 
			},
			{
				"x": -1.6009035244,
				"y": 3.8030513797,
				"z": -2.6501403164,
				"element": "C" 
			},
			{
				"x": -2.9586998371,
				"y": 3.5515548376,
				"z": -2.34443576,
				"element": "C" 
			},
			{
				"x": -3.3196087449,
				"y": 2.7294398012,
				"z": -1.2877122219,
				"element": "C" 
			},
			{
				"x": -0.1947956709,
				"y": 1.7040271229,
				"z": 0.0807681372,
				"element": "N" 
			},
			{
				"x": 1.2577665835,
				"y": 1.7408549869,
				"z": 0.1810636802,
				"element": "C" 
			},
			{
				"x": 2.1554023797,
				"y": -4.2964000335,
				"z": 3.1045355575,
				"element": "H" 
			},
			{
				"x": 0.613966757,
				"y": -3.7617962079,
				"z": 3.8042953415,
				"element": "H" 
			},
			{
				"x": 0.860196352,
				"y": -3.7158128987,
				"z": 2.042792811,
				"element": "H" 
			},
			{
				"x": 2.5963473489,
				"y": -1.9390592099,
				"z": 2.3110386055,
				"element": "H" 
			},
			{
				"x": 2.4021445027,
				"y": -2.0000746398,
				"z": 4.084879374,
				"element": "H" 
			},
			{
				"x": 0.4714368932,
				"y": 3.4331674924,
				"z": -2.1642749096,
				"element": "H" 
			},
			{
				"x": -1.3603524137,
				"y": 4.4489264939,
				"z": -3.489449911,
				"element": "H" 
			},
			{
				"x": -3.7290774898,
				"y": 4.014419702,
				"z": -2.9536491653,
				"element": "H" 
			},
			{
				"x": -4.3573748813,
				"y": 2.5302924773,
				"z": -1.0418289959,
				"element": "H" 
			},
			{
				"x": 1.7166344479,
				"y": 0.9346605683,
				"z": -0.3951900024,
				"element": "H" 
			},
			{
				"x": 1.6077656289,
				"y": 2.708209676,
				"z": -0.1854535621,
				"element": "H" 
			},
			{
				"x": 1.5652128714,
				"y": 1.6477521013,
				"z": 1.2239359847,
				"element": "H" 
			}
		],
		 "valence_orbital": [ 
			{
				"type": "occ",
				"energy": -0.30382,
				"method": "rhf"
			},
			{
				"type": "occ",
				"energy": -0.27671,
				"method": "rhf"
			},
			{
				"type": "occ",
				"energy": -0.26063,
				"method": "rhf"
			},
			{
				"type": "occ",
				"energy": -0.23406,
				"method": "rhf"
			},
			{
				"type": "occ",
				"energy": -0.22947,
				"method": "rhf"
			},
			{
				"type": "unocc",
				"energy": -0.08978,
				"method": "rhf"
			},
			{
				"type": "unocc",
				"energy": -0.02105,
				"method": "rhf"
			},
			{
				"type": "unocc",
				"energy": 0.01459,
				"method": "rhf"
			},
			{
				"type": "unocc",
				"energy": 0.02949,
				"method": "rhf"
			},
			{
				"type": "unocc",
				"energy": 0.0806,
				"method": "rhf"
			}
		],
		"cosmo_sigma_profile": { 
			"-0.025": 0.0,
			"-0.024": 0.0,
			"-0.023": 0.0,
			"-0.022": 0.0,
			"-0.021": 0.0,
			"-0.02": 0.0,
			"-0.019": 0.0,
			"-0.018": 0.0,
			"-0.017": 0.0,
			"-0.016": 0.0,
			"-0.015": 0.0,
			"-0.014": 0.0,
			"-0.013": 0.0180360939558,
			"-0.012": 0.291394770165,
			"-0.011": 1.00887401662,
			"-0.01": 0.982666949034,
			"-0.009": 1.33126308944,
			"-0.008": 3.57768922047,
			"-0.007": 7.86202919557,
			"-0.006": 16.8640904271,
			"-0.005": 23.6856040779,
			"-0.004": 31.5942044844,
			"-0.003": 21.9639071821,
			"-0.002": 19.2604354615,
			"-0.001": 17.3684659852,
			"0.0": 17.5148259468,
			"0.001": 12.2623554889,
			"0.002": 13.2181775173,
			"0.003": 14.5114629263,
			"0.004": 14.0450480063,
			"0.005": 11.0364329229,
			"0.006": 4.5727989388,
			"0.007": 5.04449014853,
			"0.008": 5.25897775998,
			"0.009": 7.11182721993,
			"0.01": 7.29827105713,
			"0.011": 4.84945213431,
			"0.012": 2.02130765871,
			"0.013": 1.46344776443,
			"0.014": 1.43809482131,
			"0.015": 1.25249548986,
			"0.016": 0.898703129942,
			"0.017": 0.133979763258,
			"0.018": 0.0,
			"0.019": 0.0,
			"0.02": 0.0,
			"0.021": 0.0,
			"0.022": 0.0,
			"0.023": 0.0,
			"0.024": 0.0,
			"0.025": 0.0
		}
	}
}
