{
	 "smiles": "CCN1C=C(N=C1C)S(N)(=O)=O", 
	 "Tm": 453.15, 
	 "num_atms": 23, 
	 "gaussian": { 
		 "optdone": 1, 
		 "sigma_profile": "yes", 
		 "theory": "DFT", 
		 "functional": "B3LYP", 
		 "basiset": "6-31G**", 
		 "properties": { 
			 "R2extent": 4265.3808, 
			 "electric_dipole_moment_norm": 8.78821290707, 
			 "electric_quadrupole_moment_norm": 28.8102403862, 
			 "total_energy": -948.095575658, 
			 "HOMO_LUMO_gap": 0.2415, 
			 "cosmo_polarized_energy": -23.46, 
			 "cosmo_cavitation_energy": 28.37, 
			 "cosmo_dispersion_energy": -20.74, 
			 "cosmo_repulsion_energy": 1.63, 
			 "cosmo_total_nonelectrostatic_energy": 9.26, 
			 "SMD_solvation_energy": 3.15 
		},
		"coords": [
			{
				"x": 0.2595383976,
				"y": 2.0535293401,
				"z": -0.0186514712,
				"element": "C" 
			},
			{
				"x": 0.5523964665,
				"y": 1.1631747908,
				"z": -1.2284454447,
				"element": "C" 
			},
			{
				"x": 0.0432840876,
				"y": -0.2002886975,
				"z": -1.0710010902,
				"element": "N" 
			},
			{
				"x": -1.2449110485,
				"y": -0.6075013514,
				"z": -1.3399922632,
				"element": "C" 
			},
			{
				"x": -1.2761892002,
				"y": -1.9322071003,
				"z": -0.9883481456,
				"element": "C" 
			},
			{
				"x": -0.0641325276,
				"y": -2.3543710475,
				"z": -0.5076780047,
				"element": "N" 
			},
			{
				"x": 0.716715265,
				"y": -1.2912674775,
				"z": -0.5615729122,
				"element": "C" 
			},
			{
				"x": 2.1496934978,
				"y": -1.2620271549,
				"z": -0.1382572103,
				"element": "C" 
			},
			{
				"x": -2.6430192703,
				"y": -3.0454907017,
				"z": -1.1810894892,
				"element": "S" 
			},
			{
				"x": -2.7155532353,
				"y": -3.8926609205,
				"z": 0.2689732901,
				"element": "N" 
			},
			{
				"x": -2.3155998923,
				"y": -4.0288850962,
				"z": -2.2093655253,
				"element": "O" 
			},
			{
				"x": -3.8468270659,
				"y": -2.216190784,
				"z": -1.2575676514,
				"element": "O" 
			},
			{
				"x": 0.6516223649,
				"y": 3.0606131789,
				"z": -0.1907339918,
				"element": "H" 
			},
			{
				"x": 0.7254875562,
				"y": 1.6550512276,
				"z": 0.8873903433,
				"element": "H" 
			},
			{
				"x": -0.8170926834,
				"y": 2.1305564932,
				"z": 0.1583073021,
				"element": "H" 
			},
			{
				"x": 0.1009775895,
				"y": 1.5809784765,
				"z": -2.1330871125,
				"element": "H" 
			},
			{
				"x": 1.6283687084,
				"y": 1.0981738345,
				"z": -1.4100844555,
				"element": "H" 
			},
			{
				"x": -1.9990649014,
				"y": 0.0475706918,
				"z": -1.7462126493,
				"element": "H" 
			},
			{
				"x": 2.4178040539,
				"y": -2.2581010276,
				"z": 0.2156288716,
				"element": "H" 
			},
			{
				"x": 2.8174990841,
				"y": -1.0029078329,
				"z": -0.9680704,
				"element": "H" 
			},
			{
				"x": 2.3308398795,
				"y": -0.5462874778,
				"z": 0.6717406499,
				"element": "H" 
			},
			{
				"x": -1.8455490716,
				"y": -4.3951695133,
				"z": 0.4295407776,
				"element": "H" 
			},
			{
				"x": -2.9359880546,
				"y": -3.2734918505,
				"z": 1.0442765822,
				"element": "H" 
			}
		],
		 "valence_orbital": [ 
			{
				"type": "occ",
				"energy": -0.30205,
				"method": "rhf"
			},
			{
				"type": "occ",
				"energy": -0.28973,
				"method": "rhf"
			},
			{
				"type": "occ",
				"energy": -0.28553,
				"method": "rhf"
			},
			{
				"type": "occ",
				"energy": -0.28269,
				"method": "rhf"
			},
			{
				"type": "occ",
				"energy": -0.24082,
				"method": "rhf"
			},
			{
				"type": "unocc",
				"energy": 0.00068,
				"method": "rhf"
			},
			{
				"type": "unocc",
				"energy": 0.02435,
				"method": "rhf"
			},
			{
				"type": "unocc",
				"energy": 0.0589,
				"method": "rhf"
			},
			{
				"type": "unocc",
				"energy": 0.07204,
				"method": "rhf"
			},
			{
				"type": "unocc",
				"energy": 0.08853,
				"method": "rhf"
			}
		],
		"cosmo_sigma_profile": { 
			"-0.025": 0.0,
			"-0.024": 0.0,
			"-0.023": 0.0,
			"-0.022": 0.0,
			"-0.021": 0.0,
			"-0.02": 0.0,
			"-0.019": 0.0,
			"-0.018": 0.0,
			"-0.017": 0.0,
			"-0.016": 0.0527340738377,
			"-0.015": 1.24388511663,
			"-0.014": 1.89825581319,
			"-0.013": 2.74935728319,
			"-0.012": 2.11546739959,
			"-0.011": 1.86914621093,
			"-0.01": 2.85360183803,
			"-0.009": 3.28694462663,
			"-0.008": 3.49959862571,
			"-0.007": 8.10226088793,
			"-0.006": 11.3401849104,
			"-0.005": 17.9274393997,
			"-0.004": 20.4638818038,
			"-0.003": 16.8883958159,
			"-0.002": 17.0045807577,
			"-0.001": 16.7015599452,
			"0.0": 13.3515559665,
			"0.001": 8.10333219065,
			"0.002": 6.57346167103,
			"0.003": 4.19335854024,
			"0.004": 4.28948252356,
			"0.005": 4.33825159149,
			"0.006": 4.73180502125,
			"0.007": 5.57830350788,
			"0.008": 6.41405532303,
			"0.009": 5.39540826082,
			"0.01": 7.65591544962,
			"0.011": 14.6907564351,
			"0.012": 8.26429175564,
			"0.013": 1.68785854421,
			"0.014": 0.331407824937,
			"0.015": 0.254987731687,
			"0.016": 0.0,
			"0.017": 0.0,
			"0.018": 0.0,
			"0.019": 0.0,
			"0.02": 0.0,
			"0.021": 0.0,
			"0.022": 0.0,
			"0.023": 0.0,
			"0.024": 0.0,
			"0.025": 0.0
		}
	}
}
