{
	 "smiles": "FC1=CC2=C(NC=N2)C=C1Cl", 
	 "Tm": 422.15, 
	 "num_atms": 15, 
	 "gaussian": { 
		 "optdone": 1, 
		 "sigma_profile": "yes", 
		 "theory": "DFT", 
		 "functional": "B3LYP", 
		 "basiset": "6-31G**", 
		 "properties": { 
			 "R2extent": 2797.4377, 
			 "electric_dipole_moment_norm": 4.76207354941, 
			 "electric_quadrupole_moment_norm": 15.2193665601, 
			 "total_energy": -938.685779557, 
			 "HOMO_LUMO_gap": 0.19794, 
			 "cosmo_polarized_energy": -13.36, 
			 "cosmo_cavitation_energy": 21.83, 
			 "cosmo_dispersion_energy": -16.64, 
			 "cosmo_repulsion_energy": 1.3, 
			 "cosmo_total_nonelectrostatic_energy": 6.48, 
			 "SMD_solvation_energy": 2.2 
		},
		"coords": [
			{
				"x": -2.9977295121,
				"y": 0.6512158182,
				"z": 0.2754814199,
				"element": "F" 
			},
			{
				"x": -1.7039130814,
				"y": 0.8616639734,
				"z": 0.5770755529,
				"element": "C" 
			},
			{
				"x": -0.7440978383,
				"y": 0.6710636465,
				"z": -0.4014307505,
				"element": "C" 
			},
			{
				"x": 0.5922396913,
				"y": 0.8998632031,
				"z": -0.0500803123,
				"element": "C" 
			},
			{
				"x": 0.9131103933,
				"y": 1.3104987783,
				"z": 1.2676921176,
				"element": "C" 
			},
			{
				"x": 2.2916194933,
				"y": 1.4403169419,
				"z": 1.2618255276,
				"element": "N" 
			},
			{
				"x": 2.7137864654,
				"y": 1.1146835939,
				"z": -0.0071039208,
				"element": "C" 
			},
			{
				"x": 1.7405909765,
				"y": 0.7877619727,
				"z": -0.8186321712,
				"element": "N" 
			},
			{
				"x": -0.0527740003,
				"y": 1.5030360485,
				"z": 2.2548328009,
				"element": "C" 
			},
			{
				"x": -1.3746379367,
				"y": 1.2707511977,
				"z": 1.8866818481,
				"element": "C" 
			},
			{
				"x": -2.6570380773,
				"y": 1.4851783379,
				"z": 3.0544864021,
				"element": "Cl" 
			},
			{
				"x": -1.0310595076,
				"y": 0.3563697245,
				"z": -1.3977745657,
				"element": "H" 
			},
			{
				"x": 2.8766346893,
				"y": 1.7187577516,
				"z": 2.0340136564,
				"element": "H" 
			},
			{
				"x": 3.7629338395,
				"y": 1.1381890512,
				"z": -0.2726550128,
				"element": "H" 
			},
			{
				"x": 0.1873344052,
				"y": 1.8170499603,
				"z": 3.2641874077,
				"element": "H" 
			}
		],
		 "valence_orbital": [ 
			{
				"type": "occ",
				"energy": -0.31648,
				"method": "rhf"
			},
			{
				"type": "occ",
				"energy": -0.31303,
				"method": "rhf"
			},
			{
				"type": "occ",
				"energy": -0.28498,
				"method": "rhf"
			},
			{
				"type": "occ",
				"energy": -0.23979,
				"method": "rhf"
			},
			{
				"type": "occ",
				"energy": -0.23253,
				"method": "rhf"
			},
			{
				"type": "unocc",
				"energy": -0.03459,
				"method": "rhf"
			},
			{
				"type": "unocc",
				"energy": 0.01082,
				"method": "rhf"
			},
			{
				"type": "unocc",
				"energy": 0.02303,
				"method": "rhf"
			},
			{
				"type": "unocc",
				"energy": 0.03904,
				"method": "rhf"
			},
			{
				"type": "unocc",
				"energy": 0.06278,
				"method": "rhf"
			}
		],
		"cosmo_sigma_profile": { 
			"-0.025": 0.0,
			"-0.024": 0.0,
			"-0.023": 0.0,
			"-0.022": 0.0,
			"-0.021": 0.0,
			"-0.02": 0.0,
			"-0.019": 0.0,
			"-0.018": 0.00994914864933,
			"-0.017": 1.5234813152,
			"-0.016": 1.80958848139,
			"-0.015": 1.50740531889,
			"-0.014": 1.76055639976,
			"-0.013": 1.22523677193,
			"-0.012": 1.48194683809,
			"-0.011": 1.46855192358,
			"-0.01": 2.93370476993,
			"-0.009": 4.39243558525,
			"-0.008": 5.15610108957,
			"-0.007": 4.79378303357,
			"-0.006": 4.78678420552,
			"-0.005": 3.56697593326,
			"-0.004": 4.53333976473,
			"-0.003": 5.32015522665,
			"-0.002": 6.47686651589,
			"-0.001": 7.92617117253,
			"0.0": 15.1541667978,
			"0.001": 21.6713396457,
			"0.002": 21.7993209469,
			"0.003": 15.4497652499,
			"0.004": 19.8175523664,
			"0.005": 9.27297003432,
			"0.006": 2.4168690656,
			"0.007": 1.62757498571,
			"0.008": 1.67910024815,
			"0.009": 1.22901139884,
			"0.01": 0.808925064807,
			"0.011": 1.03271451863,
			"0.012": 1.49251190178,
			"0.013": 0.541859582572,
			"0.014": 1.3296635089,
			"0.015": 1.03457498906,
			"0.016": 0.997080305971,
			"0.017": 0.756416193203,
			"0.018": 0.0114724723544,
			"0.019": 0.0,
			"0.02": 0.0,
			"0.021": 0.0,
			"0.022": 0.0,
			"0.023": 0.0,
			"0.024": 0.0,
			"0.025": 0.0
		}
	}
}
