{
	 "smiles": "C1=CC2=CC3=C(C=C2C=C1)C1=C2C3=CC=CC2=CC=C1", 
	 "Tm": 489.15, 
	 "num_atms": 32, 
	 "gaussian": { 
		 "optdone": 1, 
		 "sigma_profile": "yes", 
		 "theory": "DFT", 
		 "functional": "B3LYP", 
		 "basiset": "6-31G**", 
		 "properties": { 
			 "R2extent": 6490.898, 
			 "electric_dipole_moment_norm": 0.286697139853, 
			 "electric_quadrupole_moment_norm": 14.0335269359, 
			 "total_energy": -769.397918906, 
			 "HOMO_LUMO_gap": 0.13507, 
			 "cosmo_polarized_energy": -7.53, 
			 "cosmo_cavitation_energy": 35.33, 
			 "cosmo_dispersion_energy": -26.18, 
			 "cosmo_repulsion_energy": 1.9, 
			 "cosmo_total_nonelectrostatic_energy": 11.05, 
			 "SMD_solvation_energy": 4.61 
		},
		"coords": [
			{
				"x": -0.3281232049,
				"y": 4.4907026459,
				"z": -1.2418373694,
				"element": "C" 
			},
			{
				"x": -1.0170580275,
				"y": 3.399850336,
				"z": -1.7283168733,
				"element": "C" 
			},
			{
				"x": -0.7603204163,
				"y": 2.0930007479,
				"z": -1.2388904262,
				"element": "C" 
			},
			{
				"x": -1.463578654,
				"y": 0.954686827,
				"z": -1.7309414519,
				"element": "C" 
			},
			{
				"x": -1.1863013044,
				"y": -0.29313595,
				"z": -1.2317619443,
				"element": "C" 
			},
			{
				"x": -0.1797079379,
				"y": -0.4661854689,
				"z": -0.2033369829,
				"element": "C" 
			},
			{
				"x": 0.5093407069,
				"y": 0.6154646334,
				"z": 0.2848675714,
				"element": "C" 
			},
			{
				"x": 0.2381206782,
				"y": 1.9213306439,
				"z": -0.2186966282,
				"element": "C" 
			},
			{
				"x": 0.9280639525,
				"y": 3.0653888237,
				"z": 0.259219153,
				"element": "C" 
			},
			{
				"x": 0.6540123447,
				"y": 4.3218287807,
				"z": -0.2382725227,
				"element": "C" 
			},
			{
				"x": -0.1113979946,
				"y": -1.9026178885,
				"z": 0.122676682,
				"element": "C" 
			},
			{
				"x": -1.0658806619,
				"y": -2.5458227761,
				"z": -0.7072372708,
				"element": "C" 
			},
			{
				"x": -1.7433946287,
				"y": -1.6220833992,
				"z": -1.5446289797,
				"element": "C" 
			},
			{
				"x": -2.7053403887,
				"y": -2.1031885707,
				"z": -2.4110740216,
				"element": "C" 
			},
			{
				"x": -2.9736913237,
				"y": -3.4996138032,
				"z": -2.4257008056,
				"element": "C" 
			},
			{
				"x": -2.3077721706,
				"y": -4.3948698621,
				"z": -1.6049423821,
				"element": "C" 
			},
			{
				"x": -1.3106334171,
				"y": -3.9306917476,
				"z": -0.7006101801,
				"element": "C" 
			},
			{
				"x": -0.5315092239,
				"y": -4.7001114456,
				"z": 0.2096253207,
				"element": "C" 
			},
			{
				"x": 0.4022936545,
				"y": -4.0798058457,
				"z": 1.0231411818,
				"element": "C" 
			},
			{
				"x": 0.6288204496,
				"y": -2.6762040875,
				"z": 0.9951215753,
				"element": "C" 
			},
			{
				"x": -0.5387441632,
				"y": 5.4834008715,
				"z": -1.6290467096,
				"element": "H" 
			},
			{
				"x": -1.7724121426,
				"y": 3.5278017336,
				"z": -2.4997890723,
				"element": "H" 
			},
			{
				"x": -2.21654261,
				"y": 1.0971547679,
				"z": -2.5026023904,
				"element": "H" 
			},
			{
				"x": 1.2667418587,
				"y": 0.4981854885,
				"z": 1.0564311327,
				"element": "H" 
			},
			{
				"x": 1.6827477159,
				"y": 2.9336618394,
				"z": 1.0307104438,
				"element": "H" 
			},
			{
				"x": 1.1927543415,
				"y": 5.1856804928,
				"z": 0.1402250702,
				"element": "H" 
			},
			{
				"x": -3.2570672754,
				"y": -1.4445851158,
				"z": -3.0761562674,
				"element": "H" 
			},
			{
				"x": -3.7310682054,
				"y": -3.874574556,
				"z": -3.1085645705,
				"element": "H" 
			},
			{
				"x": -2.5462826128,
				"y": -5.4542390236,
				"z": -1.6506503157,
				"element": "H" 
			},
			{
				"x": -0.6705046672,
				"y": -5.7765850575,
				"z": 0.2655378636,
				"element": "H" 
			},
			{
				"x": 0.986380356,
				"y": -4.6853272014,
				"z": 1.7106776758,
				"element": "H" 
			},
			{
				"x": 1.3739549724,
				"y": -2.2403968327,
				"z": 1.6549234944,
				"element": "H" 
			}
		],
		 "valence_orbital": [ 
			{
				"type": "occ",
				"energy": -0.28378,
				"method": "rhf"
			},
			{
				"type": "occ",
				"energy": -0.24585,
				"method": "rhf"
			},
			{
				"type": "occ",
				"energy": -0.23934,
				"method": "rhf"
			},
			{
				"type": "occ",
				"energy": -0.21994,
				"method": "rhf"
			},
			{
				"type": "occ",
				"energy": -0.19827,
				"method": "rhf"
			},
			{
				"type": "unocc",
				"energy": -0.0632,
				"method": "rhf"
			},
			{
				"type": "unocc",
				"energy": -0.04359,
				"method": "rhf"
			},
			{
				"type": "unocc",
				"energy": -0.00704,
				"method": "rhf"
			},
			{
				"type": "unocc",
				"energy": 0.01236,
				"method": "rhf"
			},
			{
				"type": "unocc",
				"energy": 0.02543,
				"method": "rhf"
			}
		],
		"cosmo_sigma_profile": { 
			"-0.025": 0.0,
			"-0.024": 0.0,
			"-0.023": 0.0,
			"-0.022": 0.0,
			"-0.021": 0.0,
			"-0.02": 0.0,
			"-0.019": 0.0,
			"-0.018": 0.0,
			"-0.017": 0.0,
			"-0.016": 0.0,
			"-0.015": 0.0,
			"-0.014": 0.0,
			"-0.013": 0.0,
			"-0.012": 0.0,
			"-0.011": 0.0,
			"-0.01": 0.0,
			"-0.009": 0.0,
			"-0.008": 0.0,
			"-0.007": 0.550785099332,
			"-0.006": 22.5443347951,
			"-0.005": 27.4136457006,
			"-0.004": 25.9706288933,
			"-0.003": 19.8216854326,
			"-0.002": 15.3880301624,
			"-0.001": 15.2937292442,
			"0.0": 12.5124604918,
			"0.001": 15.9036380365,
			"0.002": 21.9122147283,
			"0.003": 33.6474447471,
			"0.004": 51.3743388939,
			"0.005": 20.8762625373,
			"0.006": 2.18325953353,
			"0.007": 0.0,
			"0.008": 0.0,
			"0.009": 0.0,
			"0.01": 0.0,
			"0.011": 0.0,
			"0.012": 0.0,
			"0.013": 0.0,
			"0.014": 0.0,
			"0.015": 0.0,
			"0.016": 0.0,
			"0.017": 0.0,
			"0.018": 0.0,
			"0.019": 0.0,
			"0.02": 0.0,
			"0.021": 0.0,
			"0.022": 0.0,
			"0.023": 0.0,
			"0.024": 0.0,
			"0.025": 0.0
		}
	}
}
