{
	 "smiles": "COC(=O)C=CC1=CC=C(C=C1)C(F)(F)F", 
	 "Tm": 348.15, 
	 "num_atms": 25, 
	 "gaussian": { 
		 "optdone": 1, 
		 "sigma_profile": "yes", 
		 "theory": "DFT", 
		 "functional": "B3LYP", 
		 "basiset": "6-31G**", 
		 "properties": { 
			 "R2extent": 5766.409, 
			 "electric_dipole_moment_norm": 3.47445586243, 
			 "electric_quadrupole_moment_norm": 8.29509713686, 
			 "total_energy": -874.561453523, 
			 "HOMO_LUMO_gap": 0.1691, 
			 "cosmo_polarized_energy": -7.59, 
			 "cosmo_cavitation_energy": 31.44, 
			 "cosmo_dispersion_energy": -22.46, 
			 "cosmo_repulsion_energy": 1.68, 
			 "cosmo_total_nonelectrostatic_energy": 10.66, 
			 "SMD_solvation_energy": 8.15 
		},
		"coords": [
			{
				"x": -5.106019302,
				"y": -1.3544016826,
				"z": -0.261699077,
				"element": "C" 
			},
			{
				"x": -4.4469364576,
				"y": -0.1263753771,
				"z": -0.6010798409,
				"element": "O" 
			},
			{
				"x": -3.0976241072,
				"y": -0.1324926974,
				"z": -0.4555603207,
				"element": "C" 
			},
			{
				"x": -2.4945645794,
				"y": -1.1169859033,
				"z": -0.0630852594,
				"element": "O" 
			},
			{
				"x": -2.5687946805,
				"y": 1.1910049819,
				"z": -0.8404990672,
				"element": "C" 
			},
			{
				"x": -1.3044140754,
				"y": 1.6741754285,
				"z": -0.8654932546,
				"element": "C" 
			},
			{
				"x": 0.0295403255,
				"y": 1.1528401427,
				"z": -0.5470824048,
				"element": "C" 
			},
			{
				"x": 1.1056397272,
				"y": 2.0479904518,
				"z": -0.7287396228,
				"element": "C" 
			},
			{
				"x": 2.4166647943,
				"y": 1.6732195092,
				"z": -0.4619494221,
				"element": "C" 
			},
			{
				"x": 2.6834556563,
				"y": 0.3807015517,
				"z": -0.0041272906,
				"element": "C" 
			},
			{
				"x": 1.6328081956,
				"y": -0.5227913707,
				"z": 0.1808239836,
				"element": "C" 
			},
			{
				"x": 0.3201773991,
				"y": -0.1475402168,
				"z": -0.0861889381,
				"element": "C" 
			},
			{
				"x": 4.0914051612,
				"y": -0.0210512558,
				"z": 0.3439366439,
				"element": "C" 
			},
			{
				"x": 4.3635748017,
				"y": 0.2058704275,
				"z": 1.6504113878,
				"element": "F" 
			},
			{
				"x": 5.0049673146,
				"y": 0.6706119808,
				"z": -0.3730490585,
				"element": "F" 
			},
			{
				"x": 4.3090383668,
				"y": -1.335643808,
				"z": 0.1211184879,
				"element": "F" 
			},
			{
				"x": -4.9275874737,
				"y": -1.6120610031,
				"z": 0.7855940831,
				"element": "H" 
			},
			{
				"x": -4.7449213493,
				"y": -2.1731591813,
				"z": -0.8895698186,
				"element": "H" 
			},
			{
				"x": -6.167071773,
				"y": -1.1769096093,
				"z": -0.4367222313,
				"element": "H" 
			},
			{
				"x": -3.351520238,
				"y": 1.8753363325,
				"z": -1.1528766696,
				"element": "H" 
			},
			{
				"x": -1.2566479726,
				"y": 2.7087285579,
				"z": -1.2051903896,
				"element": "H" 
			},
			{
				"x": 0.9049555927,
				"y": 3.053633294,
				"z": -1.0882221111,
				"element": "H" 
			},
			{
				"x": 3.2302318157,
				"y": 2.3737409532,
				"z": -0.6147182276,
				"element": "H" 
			},
			{
				"x": 1.8447663448,
				"y": -1.5286292977,
				"z": 0.5276880814,
				"element": "H" 
			},
			{
				"x": -0.4889234871,
				"y": -0.8514122087,
				"z": 0.0556803367,
				"element": "H" 
			}
		],
		 "valence_orbital": [ 
			{
				"type": "occ",
				"energy": -0.31699,
				"method": "rhf"
			},
			{
				"type": "occ",
				"energy": -0.30625,
				"method": "rhf"
			},
			{
				"type": "occ",
				"energy": -0.27695,
				"method": "rhf"
			},
			{
				"type": "occ",
				"energy": -0.26745,
				"method": "rhf"
			},
			{
				"type": "occ",
				"energy": -0.24798,
				"method": "rhf"
			},
			{
				"type": "unocc",
				"energy": -0.07888,
				"method": "rhf"
			},
			{
				"type": "unocc",
				"energy": -0.01611,
				"method": "rhf"
			},
			{
				"type": "unocc",
				"energy": -0.0007,
				"method": "rhf"
			},
			{
				"type": "unocc",
				"energy": 0.08028,
				"method": "rhf"
			},
			{
				"type": "unocc",
				"energy": 0.08293,
				"method": "rhf"
			}
		],
		"cosmo_sigma_profile": { 
			"-0.025": 0.0,
			"-0.024": 0.0,
			"-0.023": 0.0,
			"-0.022": 0.0,
			"-0.021": 0.0,
			"-0.02": 0.0,
			"-0.019": 0.0,
			"-0.018": 0.0,
			"-0.017": 0.0,
			"-0.016": 0.0,
			"-0.015": 0.0,
			"-0.014": 0.0,
			"-0.013": 0.0,
			"-0.012": 0.0,
			"-0.011": 0.0,
			"-0.01": 0.0,
			"-0.009": 0.162683750941,
			"-0.008": 2.71830380271,
			"-0.007": 8.88371041626,
			"-0.006": 13.7074680136,
			"-0.005": 14.9817103255,
			"-0.004": 14.7764709878,
			"-0.003": 17.4560638108,
			"-0.002": 14.9129194482,
			"-0.001": 13.9444597542,
			"0.0": 21.1648820249,
			"0.001": 24.6229458442,
			"0.002": 39.4611887315,
			"0.003": 42.014299127,
			"0.004": 4.85177502243,
			"0.005": 3.05171112655,
			"0.006": 2.85142965096,
			"0.007": 3.30286789796,
			"0.008": 2.74963566721,
			"0.009": 2.02369556769,
			"0.01": 1.68147240632,
			"0.011": 2.08212646533,
			"0.012": 0.92949723277,
			"0.013": 0.00508927028139,
			"0.014": 0.0,
			"0.015": 0.0,
			"0.016": 0.0,
			"0.017": 0.0,
			"0.018": 0.0,
			"0.019": 0.0,
			"0.02": 0.0,
			"0.021": 0.0,
			"0.022": 0.0,
			"0.023": 0.0,
			"0.024": 0.0,
			"0.025": 0.0
		}
	}
}
