{
	 "smiles": "OC(=O)CN1C(=O)N(CC=C)C(=O)C1=O", 
	 "Tm": 417.15, 
	 "num_atms": 23, 
	 "gaussian": { 
		 "optdone": 1, 
		 "sigma_profile": "yes", 
		 "theory": "DFT", 
		 "functional": "B3LYP", 
		 "basiset": "6-31G**", 
		 "properties": { 
			 "R2extent": 3819.6655, 
			 "electric_dipole_moment_norm": 5.63731644047, 
			 "electric_quadrupole_moment_norm": 23.5197975644, 
			 "total_energy": -795.310757011, 
			 "HOMO_LUMO_gap": 0.16549, 
			 "cosmo_polarized_energy": -20.78, 
			 "cosmo_cavitation_energy": 29.16, 
			 "cosmo_dispersion_energy": -20.06, 
			 "cosmo_repulsion_energy": 1.58, 
			 "cosmo_total_nonelectrostatic_energy": 10.68, 
			 "SMD_solvation_energy": 9.15 
		},
		"coords": [
			{
				"x": 2.4922467095,
				"y": -1.3226093974,
				"z": -2.3838735597,
				"element": "O" 
			},
			{
				"x": 1.8183905135,
				"y": -0.2315759172,
				"z": -2.7774680016,
				"element": "C" 
			},
			{
				"x": 1.9176575034,
				"y": 0.2210095836,
				"z": -3.8900779824,
				"element": "O" 
			},
			{
				"x": 0.9450100197,
				"y": 0.4579376886,
				"z": -1.7089199975,
				"element": "C" 
			},
			{
				"x": -0.0376544688,
				"y": -0.4085599578,
				"z": -1.0560543889,
				"element": "N" 
			},
			{
				"x": 0.285222571,
				"y": -1.4217111314,
				"z": -0.154268177,
				"element": "C" 
			},
			{
				"x": 1.4151931329,
				"y": -1.7985308125,
				"z": 0.1129360175,
				"element": "O" 
			},
			{
				"x": -0.8982658658,
				"y": -1.9378426307,
				"z": 0.3608435454,
				"element": "N" 
			},
			{
				"x": -0.9547516447,
				"y": -3.0457991056,
				"z": 1.3104015795,
				"element": "C" 
			},
			{
				"x": -0.9102982323,
				"y": -2.6318470398,
				"z": 2.7602166583,
				"element": "C" 
			},
			{
				"x": -0.861795601,
				"y": -1.3877495541,
				"z": 3.2284171773,
				"element": "C" 
			},
			{
				"x": -2.0098238201,
				"y": -1.3091338764,
				"z": -0.1989379962,
				"element": "C" 
			},
			{
				"x": -3.1704898026,
				"y": -1.5572330206,
				"z": 0.0057501901,
				"element": "O" 
			},
			{
				"x": -1.4208287113,
				"y": -0.2358384428,
				"z": -1.146659947,
				"element": "C" 
			},
			{
				"x": -2.0154840671,
				"y": 0.5790584319,
				"z": -1.8037992584,
				"element": "O" 
			},
			{
				"x": 2.3289353339,
				"y": -1.5251664788,
				"z": -1.4381041306,
				"element": "H" 
			},
			{
				"x": 0.382023115,
				"y": 1.2496605793,
				"z": -2.2015684215,
				"element": "H" 
			},
			{
				"x": 1.5953764153,
				"y": 0.8970459616,
				"z": -0.9434734749,
				"element": "H" 
			},
			{
				"x": -1.8841161167,
				"y": -3.5867585812,
				"z": 1.1008278387,
				"element": "H" 
			},
			{
				"x": -0.1194169594,
				"y": -3.7158780241,
				"z": 1.0822682013,
				"element": "H" 
			},
			{
				"x": -0.9254984244,
				"y": -3.4723451081,
				"z": 3.4524466524,
				"element": "H" 
			},
			{
				"x": -0.8362767023,
				"y": -1.1910882428,
				"z": 4.2948298419,
				"element": "H" 
			},
			{
				"x": -0.8491548977,
				"y": -0.5201449237,
				"z": 2.5750676334,
				"element": "H" 
			}
		],
		 "valence_orbital": [ 
			{
				"type": "occ",
				"energy": -0.32154,
				"method": "rhf"
			},
			{
				"type": "occ",
				"energy": -0.31869,
				"method": "rhf"
			},
			{
				"type": "occ",
				"energy": -0.29756,
				"method": "rhf"
			},
			{
				"type": "occ",
				"energy": -0.28725,
				"method": "rhf"
			},
			{
				"type": "occ",
				"energy": -0.27561,
				"method": "rhf"
			},
			{
				"type": "unocc",
				"energy": -0.11012,
				"method": "rhf"
			},
			{
				"type": "unocc",
				"energy": -0.01004,
				"method": "rhf"
			},
			{
				"type": "unocc",
				"energy": -0.00747,
				"method": "rhf"
			},
			{
				"type": "unocc",
				"energy": 0.00224,
				"method": "rhf"
			},
			{
				"type": "unocc",
				"energy": 0.04704,
				"method": "rhf"
			}
		],
		"cosmo_sigma_profile": { 
			"-0.025": 0.0,
			"-0.024": 0.0,
			"-0.023": 0.0,
			"-0.022": 0.0,
			"-0.021": 0.0,
			"-0.02": 0.0,
			"-0.019": 0.0,
			"-0.018": 0.0,
			"-0.017": 0.0,
			"-0.016": 0.0,
			"-0.015": 0.0,
			"-0.014": 0.0,
			"-0.013": 0.0275887068333,
			"-0.012": 1.31434735892,
			"-0.011": 3.79225790801,
			"-0.01": 5.78129301376,
			"-0.009": 6.64678908848,
			"-0.008": 10.8272966023,
			"-0.007": 17.2538679012,
			"-0.006": 19.2074947027,
			"-0.005": 13.9728303639,
			"-0.004": 10.8531601593,
			"-0.003": 10.8962765018,
			"-0.002": 9.71645976079,
			"-0.001": 9.61989624528,
			"0.0": 8.03153123192,
			"0.001": 8.71322432776,
			"0.002": 9.76898580686,
			"0.003": 7.88704232412,
			"0.004": 9.25916380297,
			"0.005": 8.44711393777,
			"0.006": 7.95386973164,
			"0.007": 8.03268411335,
			"0.008": 10.2959506476,
			"0.009": 15.45722396,
			"0.01": 9.87258994695,
			"0.011": 6.12455964448,
			"0.012": 3.48575998432,
			"0.013": 0.35224724801,
			"0.014": 0.0,
			"0.015": 0.0,
			"0.016": 0.0,
			"0.017": 0.0,
			"0.018": 0.0,
			"0.019": 0.0,
			"0.02": 0.0,
			"0.021": 0.0,
			"0.022": 0.0,
			"0.023": 0.0,
			"0.024": 0.0,
			"0.025": 0.0
		}
	}
}
