{
	 "smiles": "C[C@@H](CCC(O)=O)[C@H]1CCC2C3C(CC(=O)[C@]12C)[C@@]1(C)CCC2(C[C@H]1CC3=O)OCCO2", 
	 "Tm": 495.15, 
	 "num_atms": 70, 
	 "gaussian": { 
		 "optdone": 1, 
		 "sigma_profile": "yes", 
		 "theory": "DFT", 
		 "functional": "B3LYP", 
		 "basiset": "6-31G**", 
		 "properties": { 
			 "R2extent": 18823.0387, 
			 "electric_dipole_moment_norm": 5.96994052064, 
			 "electric_quadrupole_moment_norm": 42.0316233229, 
			 "total_energy": -1465.00659002, 
			 "HOMO_LUMO_gap": 0.21725, 
			 "cosmo_polarized_energy": -29.93, 
			 "cosmo_cavitation_energy": 60.42, 
			 "cosmo_dispersion_energy": -40.87, 
			 "cosmo_repulsion_energy": 2.96, 
			 "cosmo_total_nonelectrostatic_energy": 22.52, 
			 "SMD_solvation_energy": 10.52 
		},
		"coords": [
			{
				"x": 1.5853360749,
				"y": -2.171005984,
				"z": -3.3715576532,
				"element": "C" 
			},
			{
				"x": 1.4286726151,
				"y": -0.6423137735,
				"z": -3.4412535337,
				"element": "C" 
			},
			{
				"x": 0.5539390241,
				"y": -0.2397768532,
				"z": -4.6544550195,
				"element": "C" 
			},
			{
				"x": 1.3216907769,
				"y": -0.3153131163,
				"z": -5.9936082513,
				"element": "C" 
			},
			{
				"x": 0.44643419,
				"y": 0.0448664079,
				"z": -7.1848544043,
				"element": "C" 
			},
			{
				"x": -0.5361977612,
				"y": -0.8548125049,
				"z": -7.4838794013,
				"element": "O" 
			},
			{
				"x": 0.5532219338,
				"y": 1.0527545447,
				"z": -7.836641562,
				"element": "O" 
			},
			{
				"x": 1.0572438337,
				"y": -0.0108086942,
				"z": -2.0660279273,
				"element": "C" 
			},
			{
				"x": 1.1027228334,
				"y": 1.5516198113,
				"z": -2.0608643292,
				"element": "C" 
			},
			{
				"x": 0.0850968201,
				"y": 2.0348393581,
				"z": -0.9943216297,
				"element": "C" 
			},
			{
				"x": -0.2558479261,
				"y": 0.7601119919,
				"z": -0.2026038778,
				"element": "C" 
			},
			{
				"x": -1.4933538095,
				"y": 0.7465232358,
				"z": 0.7168650444,
				"element": "C" 
			},
			{
				"x": -1.8586549577,
				"y": -0.665513567,
				"z": 1.3181260374,
				"element": "C" 
			},
			{
				"x": -1.5193582965,
				"y": -1.8350277999,
				"z": 0.3358199909,
				"element": "C" 
			},
			{
				"x": -0.2610283023,
				"y": -1.6330850212,
				"z": -0.4979587459,
				"element": "C" 
			},
			{
				"x": 0.6893191977,
				"y": -2.3931576964,
				"z": -0.4126404613,
				"element": "O" 
			},
			{
				"x": -0.2662252784,
				"y": -0.351797675,
				"z": -1.3185100339,
				"element": "C" 
			},
			{
				"x": -1.516961114,
				"y": -0.2589780801,
				"z": -2.2220803968,
				"element": "C" 
			},
			{
				"x": -1.3463959354,
				"y": -0.8771407963,
				"z": 2.788939928,
				"element": "C" 
			},
			{
				"x": -1.7248567427,
				"y": -2.2984949826,
				"z": 3.2697345962,
				"element": "C" 
			},
			{
				"x": 0.1863692446,
				"y": -0.6741124961,
				"z": 2.9143666076,
				"element": "C" 
			},
			{
				"x": 0.6848411362,
				"y": -0.6937932489,
				"z": 4.3666153801,
				"element": "C" 
			},
			{
				"x": -0.0176830374,
				"y": 0.3852001364,
				"z": 5.1915715834,
				"element": "C" 
			},
			{
				"x": -1.5393862101,
				"y": 0.2245606318,
				"z": 5.1290869453,
				"element": "C" 
			},
			{
				"x": -2.1188308684,
				"y": 0.1437916897,
				"z": 3.6958367362,
				"element": "C" 
			},
			{
				"x": -2.270885029,
				"y": 1.5564735628,
				"z": 3.047303197,
				"element": "C" 
			},
			{
				"x": -1.4152187846,
				"y": 1.8110197479,
				"z": 1.8224634448,
				"element": "C" 
			},
			{
				"x": -0.7637498342,
				"y": 2.8321108334,
				"z": 1.7045416504,
				"element": "O" 
			},
			{
				"x": 0.3788896665,
				"y": 0.333914403,
				"z": 6.564992911,
				"element": "O" 
			},
			{
				"x": 1.2383272326,
				"y": 1.442195779,
				"z": 6.8177587248,
				"element": "C" 
			},
			{
				"x": 0.7424436424,
				"y": 2.476778424,
				"z": 5.8123228054,
				"element": "C" 
			},
			{
				"x": 0.3917825065,
				"y": 1.6661617797,
				"z": 4.6953686677,
				"element": "O" 
			},
			{
				"x": 0.620502237,
				"y": -2.6656408152,
				"z": -3.2162968836,
				"element": "H" 
			},
			{
				"x": 2.229372196,
				"y": -2.4684360999,
				"z": -2.5419315881,
				"element": "H" 
			},
			{
				"x": 2.01741037,
				"y": -2.5669725379,
				"z": -4.2973906449,
				"element": "H" 
			},
			{
				"x": 2.4291522714,
				"y": -0.228932263,
				"z": -3.6435668238,
				"element": "H" 
			},
			{
				"x": -0.3314681914,
				"y": -0.8852198899,
				"z": -4.7040612079,
				"element": "H" 
			},
			{
				"x": 0.1786528245,
				"y": 0.7827956993,
				"z": -4.5494761633,
				"element": "H" 
			},
			{
				"x": 1.7337278984,
				"y": -1.3219084296,
				"z": -6.142557844,
				"element": "H" 
			},
			{
				"x": 2.1583069002,
				"y": 0.386907288,
				"z": -5.9878690216,
				"element": "H" 
			},
			{
				"x": -0.4817205858,
				"y": -1.6160834314,
				"z": -6.8893284712,
				"element": "H" 
			},
			{
				"x": 1.8468721711,
				"y": -0.3631336311,
				"z": -1.3916741297,
				"element": "H" 
			},
			{
				"x": 0.8630820146,
				"y": 1.9705566415,
				"z": -3.0427380063,
				"element": "H" 
			},
			{
				"x": 2.1162588234,
				"y": 1.8927996041,
				"z": -1.8262615631,
				"element": "H" 
			},
			{
				"x": 0.4763419716,
				"y": 2.815329279,
				"z": -0.3441769001,
				"element": "H" 
			},
			{
				"x": -0.8182914551,
				"y": 2.440664119,
				"z": -1.4654092819,
				"element": "H" 
			},
			{
				"x": 0.6182845868,
				"y": 0.5379674005,
				"z": 0.4230564605,
				"element": "H" 
			},
			{
				"x": -2.3584314098,
				"y": 1.068334112,
				"z": 0.1153356148,
				"element": "H" 
			},
			{
				"x": -2.9521425098,
				"y": -0.6819265726,
				"z": 1.419111713,
				"element": "H" 
			},
			{
				"x": -1.4146856126,
				"y": -2.7817679448,
				"z": 0.863446544,
				"element": "H" 
			},
			{
				"x": -2.3598086561,
				"y": -1.9528215008,
				"z": -0.3572568283,
				"element": "H" 
			},
			{
				"x": -1.5891587314,
				"y": -1.1284266705,
				"z": -2.8818200978,
				"element": "H" 
			},
			{
				"x": -1.4787960714,
				"y": 0.6305691609,
				"z": -2.8542163335,
				"element": "H" 
			},
			{
				"x": -2.4482936393,
				"y": -0.2075388212,
				"z": -1.653892543,
				"element": "H" 
			},
			{
				"x": -1.0671947993,
				"y": -3.0649806523,
				"z": 2.8507013691,
				"element": "H" 
			},
			{
				"x": -2.7556362474,
				"y": -2.5457325996,
				"z": 2.9907633606,
				"element": "H" 
			},
			{
				"x": -1.6565316386,
				"y": -2.3862631617,
				"z": 4.3563684177,
				"element": "H" 
			},
			{
				"x": 0.4782646147,
				"y": 0.2936750616,
				"z": 2.4960787449,
				"element": "H" 
			},
			{
				"x": 0.704558321,
				"y": -1.4405117323,
				"z": 2.3268292088,
				"element": "H" 
			},
			{
				"x": 1.7640261608,
				"y": -0.513209405,
				"z": 4.3995223864,
				"element": "H" 
			},
			{
				"x": 0.5019194883,
				"y": -1.6628933483,
				"z": 4.842420066,
				"element": "H" 
			},
			{
				"x": -1.7875588203,
				"y": -0.6848972665,
				"z": 5.6863574945,
				"element": "H" 
			},
			{
				"x": -2.0042148799,
				"y": 1.0530698871,
				"z": 5.6743636196,
				"element": "H" 
			},
			{
				"x": -3.1335124865,
				"y": -0.2595645434,
				"z": 3.8039367127,
				"element": "H" 
			},
			{
				"x": -3.3122468004,
				"y": 1.6835894825,
				"z": 2.718136716,
				"element": "H" 
			},
			{
				"x": -2.0555651419,
				"y": 2.3549484296,
				"z": 3.7579397248,
				"element": "H" 
			},
			{
				"x": 2.2905817161,
				"y": 1.1801783332,
				"z": 6.6348611239,
				"element": "H" 
			},
			{
				"x": 1.1207950015,
				"y": 1.7417937764,
				"z": 7.8628171826,
				"element": "H" 
			},
			{
				"x": -0.1302839377,
				"y": 3.0230386357,
				"z": 6.1995329418,
				"element": "H" 
			},
			{
				"x": 1.5009352063,
				"y": 3.1961543586,
				"z": 5.4932879069,
				"element": "H" 
			}
		],
		 "valence_orbital": [ 
			{
				"type": "occ",
				"energy": -0.27197,
				"method": "rhf"
			},
			{
				"type": "occ",
				"energy": -0.26188,
				"method": "rhf"
			},
			{
				"type": "occ",
				"energy": -0.24979,
				"method": "rhf"
			},
			{
				"type": "occ",
				"energy": -0.24112,
				"method": "rhf"
			},
			{
				"type": "occ",
				"energy": -0.23558,
				"method": "rhf"
			},
			{
				"type": "unocc",
				"energy": -0.01833,
				"method": "rhf"
			},
			{
				"type": "unocc",
				"energy": -0.01568,
				"method": "rhf"
			},
			{
				"type": "unocc",
				"energy": 0.013,
				"method": "rhf"
			},
			{
				"type": "unocc",
				"energy": 0.04705,
				"method": "rhf"
			},
			{
				"type": "unocc",
				"energy": 0.05421,
				"method": "rhf"
			}
		],
		"cosmo_sigma_profile": { 
			"-0.025": 0.0,
			"-0.024": 0.0,
			"-0.023": 0.0,
			"-0.022": 0.0,
			"-0.021": 0.0,
			"-0.02": 0.0,
			"-0.019": 0.141573911111,
			"-0.018": 0.54709280655,
			"-0.017": 0.908164575746,
			"-0.016": 1.07694168557,
			"-0.015": 0.578404015424,
			"-0.014": 0.709685519107,
			"-0.013": 1.10633216682,
			"-0.012": 1.55036116129,
			"-0.011": 1.32309108976,
			"-0.01": 1.27260525533,
			"-0.009": 1.28606408224,
			"-0.008": 0.985977911036,
			"-0.007": 3.25450915398,
			"-0.006": 14.6041047823,
			"-0.005": 27.804401492,
			"-0.004": 52.40649808,
			"-0.003": 59.4806515041,
			"-0.002": 57.1417925139,
			"-0.001": 54.0029121756,
			"0.0": 35.932658627,
			"0.001": 25.5142695302,
			"0.002": 18.475735746,
			"0.003": 9.74955463468,
			"0.004": 7.66955981098,
			"0.005": 7.64172083741,
			"0.006": 8.79654259274,
			"0.007": 7.9577416676,
			"0.008": 7.73313168561,
			"0.009": 8.7344124757,
			"0.01": 10.8682944698,
			"0.011": 12.3209339567,
			"0.012": 14.7366618937,
			"0.013": 8.08286158872,
			"0.014": 1.03447408819,
			"0.015": 0.0,
			"0.016": 0.0,
			"0.017": 0.0,
			"0.018": 0.0,
			"0.019": 0.0,
			"0.02": 0.0,
			"0.021": 0.0,
			"0.022": 0.0,
			"0.023": 0.0,
			"0.024": 0.0,
			"0.025": 0.0
		}
	}
}
