{
	 "smiles": "FC1=CC(=C(CNC(=O)CCl)C=C1)C(F)(F)F", 
	 "Tm": 369.15, 
	 "num_atms": 25, 
	 "gaussian": { 
		 "optdone": 1, 
		 "sigma_profile": "yes", 
		 "theory": "DFT", 
		 "functional": "B3LYP", 
		 "basiset": "6-31G**", 
		 "properties": { 
			 "R2extent": 4664.0713, 
			 "electric_dipole_moment_norm": 3.34926289503, 
			 "electric_quadrupole_moment_norm": 16.9264687053, 
			 "total_energy": -1375.42140439, 
			 "HOMO_LUMO_gap": 0.21331, 
			 "cosmo_polarized_energy": -14.4, 
			 "cosmo_cavitation_energy": 32.48, 
			 "cosmo_dispersion_energy": -21.98, 
			 "cosmo_repulsion_energy": 1.63, 
			 "cosmo_total_nonelectrostatic_energy": 12.13, 
			 "SMD_solvation_energy": 7.27 
		},
		"coords": [
			{
				"x": 1.5477217627,
				"y": 1.6368698021,
				"z": 3.1644777939,
				"element": "F" 
			},
			{
				"x": 0.7572454118,
				"y": 1.1446651797,
				"z": 2.1931429419,
				"element": "C" 
			},
			{
				"x": 1.1113018012,
				"y": -0.0500723515,
				"z": 1.581981,
				"element": "C" 
			},
			{
				"x": 0.2918463136,
				"y": -0.5631323213,
				"z": 0.5739384131,
				"element": "C" 
			},
			{
				"x": -0.8767243108,
				"y": 0.1146673599,
				"z": 0.1744289056,
				"element": "C" 
			},
			{
				"x": -1.8214305488,
				"y": -0.4479913121,
				"z": -0.8875078326,
				"element": "C" 
			},
			{
				"x": -2.544132751,
				"y": 0.5576946744,
				"z": -1.6560323655,
				"element": "N" 
			},
			{
				"x": -2.106835852,
				"y": 1.2989846359,
				"z": -2.7256404376,
				"element": "C" 
			},
			{
				"x": -2.8641790512,
				"y": 2.0199818071,
				"z": -3.3551130089,
				"element": "O" 
			},
			{
				"x": -0.6263459367,
				"y": 1.1973426844,
				"z": -3.1008924997,
				"element": "C" 
			},
			{
				"x": 0.276670591,
				"y": 2.638207629,
				"z": -2.4724672019,
				"element": "Cl" 
			},
			{
				"x": -1.1894643831,
				"y": 1.3178560554,
				"z": 0.8151110921,
				"element": "C" 
			},
			{
				"x": -0.3844885585,
				"y": 1.8426029181,
				"z": 1.8240178034,
				"element": "C" 
			},
			{
				"x": 0.7026464229,
				"y": -1.8532885745,
				"z": -0.0909182739,
				"element": "C" 
			},
			{
				"x": 1.8010480411,
				"y": -2.3956371283,
				"z": 0.4636370876,
				"element": "F" 
			},
			{
				"x": -0.2791643454,
				"y": -2.7856465431,
				"z": -0.032023178,
				"element": "F" 
			},
			{
				"x": 0.9771844748,
				"y": -1.6712107022,
				"z": -1.4128068216,
				"element": "F" 
			},
			{
				"x": 2.0133372577,
				"y": -0.5646794946,
				"z": 1.8873777626,
				"element": "H" 
			},
			{
				"x": -1.2888730104,
				"y": -1.1194339398,
				"z": -1.5616001734,
				"element": "H" 
			},
			{
				"x": -2.5774083073,
				"y": -1.0695891149,
				"z": -0.3958098015,
				"element": "H" 
			},
			{
				"x": -3.5350109551,
				"y": 0.6697336953,
				"z": -1.4879952991,
				"element": "H" 
			},
			{
				"x": -0.5571100981,
				"y": 1.2343020117,
				"z": -4.1869725343,
				"element": "H" 
			},
			{
				"x": -0.113174614,
				"y": 0.3176357103,
				"z": -2.7166185992,
				"element": "H" 
			},
			{
				"x": -2.0735319399,
				"y": 1.8636755614,
				"z": 0.5033503272,
				"element": "H" 
			},
			{
				"x": -0.6273274147,
				"y": 2.7780617574,
				"z": 2.3158348997,
				"element": "H" 
			}
		],
		 "valence_orbital": [ 
			{
				"type": "occ",
				"energy": -0.30277,
				"method": "rhf"
			},
			{
				"type": "occ",
				"energy": -0.28594,
				"method": "rhf"
			},
			{
				"type": "occ",
				"energy": -0.27283,
				"method": "rhf"
			},
			{
				"type": "occ",
				"energy": -0.2647,
				"method": "rhf"
			},
			{
				"type": "occ",
				"energy": -0.25853,
				"method": "rhf"
			},
			{
				"type": "unocc",
				"energy": -0.04522,
				"method": "rhf"
			},
			{
				"type": "unocc",
				"energy": -0.02818,
				"method": "rhf"
			},
			{
				"type": "unocc",
				"energy": -0.02558,
				"method": "rhf"
			},
			{
				"type": "unocc",
				"energy": 0.05476,
				"method": "rhf"
			},
			{
				"type": "unocc",
				"energy": 0.06851,
				"method": "rhf"
			}
		],
		"cosmo_sigma_profile": { 
			"-0.025": 0.0,
			"-0.024": 0.0,
			"-0.023": 0.0,
			"-0.022": 0.0,
			"-0.021": 0.0,
			"-0.02": 0.0,
			"-0.019": 0.0,
			"-0.018": 0.0,
			"-0.017": 0.0,
			"-0.016": 0.0,
			"-0.015": 0.342222502951,
			"-0.014": 1.31665336282,
			"-0.013": 1.28950117058,
			"-0.012": 1.31858041035,
			"-0.011": 1.30946510707,
			"-0.01": 1.24467267319,
			"-0.009": 3.58013228893,
			"-0.008": 7.74490182349,
			"-0.007": 11.6160175068,
			"-0.006": 11.3636650585,
			"-0.005": 13.1391811415,
			"-0.004": 11.8805693555,
			"-0.003": 12.1083630036,
			"-0.002": 13.0661645707,
			"-0.001": 17.5389798313,
			"0.0": 21.9557101906,
			"0.001": 24.1254511916,
			"0.002": 32.911972265,
			"0.003": 21.4159915833,
			"0.004": 17.5727753585,
			"0.005": 10.8486352656,
			"0.006": 5.68663573598,
			"0.007": 1.92450973062,
			"0.008": 0.974060963781,
			"0.009": 1.92022790492,
			"0.01": 1.71442743494,
			"0.011": 1.7192385839,
			"0.012": 3.21329704229,
			"0.013": 5.54350408494,
			"0.014": 1.61663615086,
			"0.015": 0.0,
			"0.016": 0.0,
			"0.017": 0.0,
			"0.018": 0.0,
			"0.019": 0.0,
			"0.02": 0.0,
			"0.021": 0.0,
			"0.022": 0.0,
			"0.023": 0.0,
			"0.024": 0.0,
			"0.025": 0.0
		}
	}
}
