{
	 "smiles": "OC(=O)C1=C(I)C(O)=C(I)C=C1I", 
	 "Tm": 486.15, 
	 "num_atms": 16, 
	 "gaussian": { 
		 "optdone": 1, 
		 "sigma_profile": "no", 
		 "theory": "DFT", 
		 "functional": "B3LYP", 
		 "basiset": "6-31G**", 
		 "properties": { 
			 "R2extent": 2677.599, 
			 "electric_dipole_moment_norm": 3.11799270525, 
			 "electric_quadrupole_moment_norm": 14.9932031004, 
			 "total_energy": -528.364891104, 
			 "HOMO_LUMO_gap": 0.15902, 
			 "cosmo_polarized_energy": -222985.98, 
			 "cosmo_cavitation_energy": 30.39, 
			 "cosmo_dispersion_energy": -25.72, 
			 "cosmo_repulsion_energy": 1.95, 
			 "cosmo_total_nonelectrostatic_energy": 6.61, 
			 "SMD_solvation_energy": 4.04 
		},
		"coords": [
			{
				"x": -1.1877557582,
				"y": 1.6475572064,
				"z": -2.2416049154,
				"element": "O" 
			},
			{
				"x": 0.0354488921,
				"y": 1.3699966868,
				"z": -1.7374063667,
				"element": "C" 
			},
			{
				"x": 1.0400079745,
				"y": 1.696218049,
				"z": -2.3118643066,
				"element": "O" 
			},
			{
				"x": 0.0409255016,
				"y": 0.6462236654,
				"z": -0.403885495,
				"element": "C" 
			},
			{
				"x": 0.3622987396,
				"y": 1.3368900444,
				"z": 0.7750660236,
				"element": "C" 
			},
			{
				"x": 0.7490730476,
				"y": 3.4283152486,
				"z": 0.7385336269,
				"element": "I" 
			},
			{
				"x": 0.4243234294,
				"y": 0.6915414632,
				"z": 2.0248852687,
				"element": "C" 
			},
			{
				"x": 0.7151517232,
				"y": 1.3155977118,
				"z": 3.1794247462,
				"element": "O" 
			},
			{
				"x": 0.1634356448,
				"y": -0.6909868875,
				"z": 2.0649901895,
				"element": "C" 
			},
			{
				"x": 0.2481082836,
				"y": -1.7148855321,
				"z": 3.9055788117,
				"element": "I" 
			},
			{
				"x": -0.1507606882,
				"y": -1.394077706,
				"z": 0.9076799848,
				"element": "C" 
			},
			{
				"x": -0.2165386654,
				"y": -0.7293636139,
				"z": -0.31880923,
				"element": "C" 
			},
			{
				"x": -0.6788966596,
				"y": -1.884720711,
				"z": -2.037813591,
				"element": "I" 
			},
			{
				"x": -1.8791788229,
				"y": 1.2952544399,
				"z": -1.6614024309,
				"element": "H" 
			},
			{
				"x": 0.878121941,
				"y": 2.2594867992,
				"z": 3.0114284351,
				"element": "H" 
			},
			{
				"x": -0.3424645832,
				"y": -2.4581468642,
				"z": 0.9609992492,
				"element": "H" 
			}
		],
		 "valence_orbital": [ 
			{
				"type": "occ",
				"energy": -0.28734,
				"method": "rhf"
			},
			{
				"type": "occ",
				"energy": -0.28475,
				"method": "rhf"
			},
			{
				"type": "occ",
				"energy": -0.27916,
				"method": "rhf"
			},
			{
				"type": "occ",
				"energy": -0.2622,
				"method": "rhf"
			},
			{
				"type": "occ",
				"energy": -0.24658,
				"method": "rhf"
			},
			{
				"type": "unocc",
				"energy": -0.08756,
				"method": "rhf"
			},
			{
				"type": "unocc",
				"energy": -0.06003,
				"method": "rhf"
			},
			{
				"type": "unocc",
				"energy": -0.04864,
				"method": "rhf"
			},
			{
				"type": "unocc",
				"energy": -0.04139,
				"method": "rhf"
			},
			{
				"type": "unocc",
				"energy": -0.0395,
				"method": "rhf"
			}
		],
		"cosmo_sigma_profile": { 
			"0.0": 0.0,
			"0.0": 0.0,
			"0.0": 0.0,
			"0.0": 0.0,
			"0.0": 0.0,
			"0.0": 0.0,
			"0.0": 0.0,
			"0.0": 0.0,
			"0.0": 0.0,
			"0.0": 0.0,
			"0.0": 0.0,
			"0.0": 0.0,
			"0.0": 0.0,
			"0.0": 0.0,
			"0.0": 0.0,
			"0.0": 0.0,
			"0.0": 0.0,
			"0.0": 0.0,
			"0.0": 0.0,
			"0.0": 0.0,
			"0.0": 0.0,
			"0.0": 0.0,
			"0.0": 0.0,
			"0.0": 0.0,
			"0.0": 0.0,
			"0.0": 0.0,
			"0.0": 0.0,
			"0.0": 0.0,
			"0.0": 0.0,
			"0.0": 0.0,
			"0.0": 0.0,
			"0.0": 0.0,
			"0.0": 0.0,
			"0.0": 0.0,
			"0.0": 0.0,
			"0.0": 0.0,
			"0.0": 0.0,
			"0.0": 0.0,
			"0.0": 0.0,
			"0.0": 0.0,
			"0.0": 0.0,
			"0.0": 0.0,
			"0.0": 0.0,
			"0.0": 0.0,
			"0.0": 0.0,
			"0.0": 0.0,
			"0.0": 0.0,
			"0.0": 0.0,
			"0.0": 0.0,
			"0.0": 0.0,
			"0.0": 0.0
		}
	}
}
