{
	 "smiles": "BrCC1=C(CBr)C(CBr)=C(CBr)C(CBr)=C1CBr", 
	 "Tm": 565.15, 
	 "num_atms": 30, 
	 "gaussian": { 
		 "optdone": 1, 
		 "sigma_profile": "yes", 
		 "theory": "DFT", 
		 "functional": "B3LYP", 
		 "basiset": "6-31G**", 
		 "properties": { 
			 "R2extent": 15741.7564, 
			 "electric_dipole_moment_norm": 0.273099798608, 
			 "electric_quadrupole_moment_norm": 10.7126582154, 
			 "total_energy": -15892.9545182, 
			 "HOMO_LUMO_gap": 0.18012, 
			 "cosmo_polarized_energy": -14.75, 
			 "cosmo_cavitation_energy": 43.71, 
			 "cosmo_dispersion_energy": -31.48, 
			 "cosmo_repulsion_energy": 2.45, 
			 "cosmo_total_nonelectrostatic_energy": 14.68, 
			 "SMD_solvation_energy": 0.41 
		},
		"coords": [
			{
				"x": -0.2470276954,
				"y": 0.9364670136,
				"z": -3.4577621307,
				"element": "Br" 
			},
			{
				"x": -0.2183447168,
				"y": -0.5856897334,
				"z": -2.1544653551,
				"element": "C" 
			},
			{
				"x": -0.1906823878,
				"y": -0.1195505302,
				"z": -0.7280427929,
				"element": "C" 
			},
			{
				"x": 1.0553748286,
				"y": 0.2184128586,
				"z": -0.1430107262,
				"element": "C" 
			},
			{
				"x": 2.2886054794,
				"y": 0.1882746717,
				"z": -0.9979211081,
				"element": "C" 
			},
			{
				"x": 3.0792796627,
				"y": -1.6479781744,
				"z": -1.1372623021,
				"element": "Br" 
			},
			{
				"x": 1.1195783068,
				"y": 0.5888882193,
				"z": 1.2162009396,
				"element": "C" 
			},
			{
				"x": 2.4127971662,
				"y": 0.9819693017,
				"z": 1.868295121,
				"element": "C" 
			},
			{
				"x": 3.2949955634,
				"y": -0.5455427212,
				"z": 2.8149096636,
				"element": "Br" 
			},
			{
				"x": -0.0649188715,
				"y": 0.6328148513,
				"z": 1.9856837881,
				"element": "C" 
			},
			{
				"x": 0.0057643758,
				"y": 0.8898193702,
				"z": 3.4615390192,
				"element": "C" 
			},
			{
				"x": -0.0996933094,
				"y": 2.8439815227,
				"z": 3.9064869154,
				"element": "Br" 
			},
			{
				"x": -1.3100190218,
				"y": 0.3874773976,
				"z": 1.3810229635,
				"element": "C" 
			},
			{
				"x": -2.5714566686,
				"y": 0.6207026573,
				"z": 2.1579551841,
				"element": "C" 
			},
			{
				"x": -3.205049698,
				"y": -1.0299657456,
				"z": 3.1074752249,
				"element": "Br" 
			},
			{
				"x": -1.3750252879,
				"y": -0.0290900909,
				"z": 0.0321906886,
				"element": "C" 
			},
			{
				"x": -2.7114170313,
				"y": -0.4038704924,
				"z": -0.5385402522,
				"element": "C" 
			},
			{
				"x": -3.7098542089,
				"y": 1.1726047201,
				"z": -1.2633152413,
				"element": "Br" 
			},
			{
				"x": -1.0991605084,
				"y": -1.1635995486,
				"z": -2.4092861515,
				"element": "H" 
			},
			{
				"x": 0.6638669113,
				"y": -1.1612276722,
				"z": -2.4206113937,
				"element": "H" 
			},
			{
				"x": 3.1019039832,
				"y": 0.7938964364,
				"z": -0.6151489518,
				"element": "H" 
			},
			{
				"x": 2.0895576826,
				"y": 0.4825701585,
				"z": -2.0246280725,
				"element": "H" 
			},
			{
				"x": 2.2712984365,
				"y": 1.7391730397,
				"z": 2.6349490307,
				"element": "H" 
			},
			{
				"x": 3.1657130465,
				"y": 1.3339284727,
				"z": 1.1719703695,
				"element": "H" 
			},
			{
				"x": -0.8187938484,
				"y": 0.4361483652,
				"z": 4.0037892464,
				"element": "H" 
			},
			{
				"x": 0.9405604633,
				"y": 0.5544023932,
				"z": 3.901029467,
				"element": "H" 
			},
			{
				"x": -2.4473933428,
				"y": 1.362121335,
				"z": 2.9419421259,
				"element": "H" 
			},
			{
				"x": -3.4042330173,
				"y": 0.9153216175,
				"z": 1.526120765,
				"element": "H" 
			},
			{
				"x": -3.3721638471,
				"y": -0.8302224052,
				"z": 0.2116250535,
				"element": "H" 
			},
			{
				"x": -2.6536624449,
				"y": -1.0901372884,
				"z": -1.3759910878,
				"element": "H" 
			}
		],
		 "valence_orbital": [ 
			{
				"type": "occ",
				"energy": -0.28433,
				"method": "rhf"
			},
			{
				"type": "occ",
				"energy": -0.28032,
				"method": "rhf"
			},
			{
				"type": "occ",
				"energy": -0.27447,
				"method": "rhf"
			},
			{
				"type": "occ",
				"energy": -0.26875,
				"method": "rhf"
			},
			{
				"type": "occ",
				"energy": -0.26767,
				"method": "rhf"
			},
			{
				"type": "unocc",
				"energy": -0.08755,
				"method": "rhf"
			},
			{
				"type": "unocc",
				"energy": -0.085,
				"method": "rhf"
			},
			{
				"type": "unocc",
				"energy": -0.04393,
				"method": "rhf"
			},
			{
				"type": "unocc",
				"energy": -0.01683,
				"method": "rhf"
			},
			{
				"type": "unocc",
				"energy": -0.01269,
				"method": "rhf"
			}
		],
		"cosmo_sigma_profile": { 
			"-0.025": 0.0,
			"-0.024": 0.0,
			"-0.023": 0.0,
			"-0.022": 0.0,
			"-0.021": 0.0,
			"-0.02": 0.0,
			"-0.019": 0.0,
			"-0.018": 0.0,
			"-0.017": 0.0,
			"-0.016": 0.0,
			"-0.015": 0.0,
			"-0.014": 0.0,
			"-0.013": 0.220515714584,
			"-0.012": 2.27513498935,
			"-0.011": 3.92869684602,
			"-0.01": 2.90008716003,
			"-0.009": 4.21845281127,
			"-0.008": 5.83880518744,
			"-0.007": 10.2467692027,
			"-0.006": 18.9088702469,
			"-0.005": 20.480646123,
			"-0.004": 17.3549241626,
			"-0.003": 22.0798323311,
			"-0.002": 23.5008983919,
			"-0.001": 24.6797852497,
			"0.0": 25.8739719517,
			"0.001": 24.5039859601,
			"0.002": 26.4221612488,
			"0.003": 29.393010782,
			"0.004": 36.7174513536,
			"0.005": 42.3908644315,
			"0.006": 22.2755277517,
			"0.007": 3.9973640978,
			"0.008": 0.0,
			"0.009": 0.0,
			"0.01": 0.0,
			"0.011": 0.0,
			"0.012": 0.0,
			"0.013": 0.0,
			"0.014": 0.0,
			"0.015": 0.0,
			"0.016": 0.0,
			"0.017": 0.0,
			"0.018": 0.0,
			"0.019": 0.0,
			"0.02": 0.0,
			"0.021": 0.0,
			"0.022": 0.0,
			"0.023": 0.0,
			"0.024": 0.0,
			"0.025": 0.0
		}
	}
}
