{
	 "smiles": "O=C1C2CC1CN(CC1=CC=CC=C1)C2", 
	 "Tm": 338.15, 
	 "num_atms": 30, 
	 "gaussian": { 
		 "optdone": 1, 
		 "sigma_profile": "yes", 
		 "theory": "DFT", 
		 "functional": "B3LYP", 
		 "basiset": "6-31G**", 
		 "properties": { 
			 "R2extent": 3706.7249, 
			 "electric_dipole_moment_norm": 2.28697005446, 
			 "electric_quadrupole_moment_norm": 11.3794156348, 
			 "total_energy": -634.345056706, 
			 "HOMO_LUMO_gap": 0.20066, 
			 "cosmo_polarized_energy": -9.18, 
			 "cosmo_cavitation_energy": 31.36, 
			 "cosmo_dispersion_energy": -22.66, 
			 "cosmo_repulsion_energy": 1.78, 
			 "cosmo_total_nonelectrostatic_energy": 10.47, 
			 "SMD_solvation_energy": 3.95 
		},
		"coords": [
			{
				"x": 1.5364530221,
				"y": 2.1476652236,
				"z": -2.6968171829,
				"element": "O" 
			},
			{
				"x": 1.3058480979,
				"y": 0.9640023997,
				"z": -2.6802042953,
				"element": "C" 
			},
			{
				"x": 2.0045154862,
				"y": -0.2745696268,
				"z": -2.0959976728,
				"element": "C" 
			},
			{
				"x": 1.5212165188,
				"y": -0.9800822652,
				"z": -3.4013279227,
				"element": "C" 
			},
			{
				"x": 0.3359417048,
				"y": 0.0340387812,
				"z": -3.4257579393,
				"element": "C" 
			},
			{
				"x": -0.7439872223,
				"y": -0.466232976,
				"z": -2.4190908708,
				"element": "C" 
			},
			{
				"x": -0.2751175551,
				"y": -0.490028588,
				"z": -1.0267148613,
				"element": "N" 
			},
			{
				"x": -0.670246222,
				"y": 0.6827412558,
				"z": -0.2304664237,
				"element": "C" 
			},
			{
				"x": -0.6137292444,
				"y": 0.4208144371,
				"z": 1.2646206584,
				"element": "C" 
			},
			{
				"x": -0.0922698566,
				"y": 1.3846216203,
				"z": 2.1349232699,
				"element": "C" 
			},
			{
				"x": -0.0863250521,
				"y": 1.1721624811,
				"z": 3.5158632937,
				"element": "C" 
			},
			{
				"x": -0.5969701239,
				"y": -0.0145108741,
				"z": 4.0419335572,
				"element": "C" 
			},
			{
				"x": -1.1125914536,
				"y": -0.9866506111,
				"z": 3.1797651919,
				"element": "C" 
			},
			{
				"x": -1.1207235471,
				"y": -0.7703716638,
				"z": 1.8026373735,
				"element": "C" 
			},
			{
				"x": 1.155229122,
				"y": -0.8181869849,
				"z": -0.908464048,
				"element": "C" 
			},
			{
				"x": 3.0708527428,
				"y": -0.228861123,
				"z": -1.8622083949,
				"element": "H" 
			},
			{
				"x": 2.2119411843,
				"y": -0.8483572496,
				"z": -4.2379153394,
				"element": "H" 
			},
			{
				"x": 1.2492927058,
				"y": -2.0365072549,
				"z": -3.305313698,
				"element": "H" 
			},
			{
				"x": -0.0928208259,
				"y": 0.3535740438,
				"z": -4.3786378796,
				"element": "H" 
			},
			{
				"x": -1.6351063623,
				"y": 0.1647047982,
				"z": -2.475235662,
				"element": "H" 
			},
			{
				"x": -1.0436234073,
				"y": -1.4777981228,
				"z": -2.7295519803,
				"element": "H" 
			},
			{
				"x": -1.706309113,
				"y": 0.9175672156,
				"z": -0.5041324977,
				"element": "H" 
			},
			{
				"x": -0.0791750338,
				"y": 1.5857174334,
				"z": -0.4582738025,
				"element": "H" 
			},
			{
				"x": 0.3120495313,
				"y": 2.3088170066,
				"z": 1.728405932,
				"element": "H" 
			},
			{
				"x": 0.3233210951,
				"y": 1.9306663219,
				"z": 4.1771478499,
				"element": "H" 
			},
			{
				"x": -0.5899595276,
				"y": -0.1843328846,
				"z": 5.1149259092,
				"element": "H" 
			},
			{
				"x": -1.508802172,
				"y": -1.9147616776,
				"z": 3.582942058,
				"element": "H" 
			},
			{
				"x": -1.5079550696,
				"y": -1.5263657743,
				"z": 1.1261587244,
				"element": "H" 
			},
			{
				"x": 1.2898601739,
				"y": -1.908130568,
				"z": -0.8698710035,
				"element": "H" 
			},
			{
				"x": 1.5211904034,
				"y": -0.4184447734,
				"z": 0.0401576564,
				"element": "H" 
			}
		],
		 "valence_orbital": [ 
			{
				"type": "occ",
				"energy": -0.31838,
				"method": "rhf"
			},
			{
				"type": "occ",
				"energy": -0.24682,
				"method": "rhf"
			},
			{
				"type": "occ",
				"energy": -0.24279,
				"method": "rhf"
			},
			{
				"type": "occ",
				"energy": -0.23649,
				"method": "rhf"
			},
			{
				"type": "occ",
				"energy": -0.21334,
				"method": "rhf"
			},
			{
				"type": "unocc",
				"energy": -0.01268,
				"method": "rhf"
			},
			{
				"type": "unocc",
				"energy": -0.00234,
				"method": "rhf"
			},
			{
				"type": "unocc",
				"energy": 0.00228,
				"method": "rhf"
			},
			{
				"type": "unocc",
				"energy": 0.08539,
				"method": "rhf"
			},
			{
				"type": "unocc",
				"energy": 0.09939,
				"method": "rhf"
			}
		],
		"cosmo_sigma_profile": { 
			"-0.025": 0.0,
			"-0.024": 0.0,
			"-0.023": 0.0,
			"-0.022": 0.0,
			"-0.021": 0.0,
			"-0.02": 0.0,
			"-0.019": 0.0,
			"-0.018": 0.0,
			"-0.017": 0.0,
			"-0.016": 0.0,
			"-0.015": 0.0,
			"-0.014": 0.0,
			"-0.013": 0.0,
			"-0.012": 0.0,
			"-0.011": 0.0,
			"-0.01": 0.0,
			"-0.009": 0.0,
			"-0.008": 0.0,
			"-0.007": 0.000706313878233,
			"-0.006": 4.32035110007,
			"-0.005": 19.7989352074,
			"-0.004": 32.858122365,
			"-0.003": 36.4761748205,
			"-0.002": 28.1538076114,
			"-0.001": 21.8187714427,
			"0.0": 16.9577438926,
			"0.001": 11.5053365521,
			"0.002": 10.5571998709,
			"0.003": 10.9272605408,
			"0.004": 9.90149504565,
			"0.005": 11.3891253434,
			"0.006": 10.0807179042,
			"0.007": 4.0809772792,
			"0.008": 2.5729565155,
			"0.009": 2.03826808119,
			"0.01": 3.06725847857,
			"0.011": 4.32592399087,
			"0.012": 4.39718184546,
			"0.013": 1.79382153964,
			"0.014": 0.0,
			"0.015": 0.0,
			"0.016": 0.0,
			"0.017": 0.0,
			"0.018": 0.0,
			"0.019": 0.0,
			"0.02": 0.0,
			"0.021": 0.0,
			"0.022": 0.0,
			"0.023": 0.0,
			"0.024": 0.0,
			"0.025": 0.0
		}
	}
}
