{
	 "smiles": "CC[Si](CC)(CC)O[Si](CC)(CC)CC", 
	 "Tm": 158.15, 
	 "num_atms": 45, 
	 "gaussian": { 
		 "optdone": 1, 
		 "sigma_profile": "yes", 
		 "theory": "DFT", 
		 "functional": "B3LYP", 
		 "basiset": "6-31G**", 
		 "properties": { 
			 "R2extent": 5534.2465, 
			 "electric_dipole_moment_norm": 0.333716436515, 
			 "electric_quadrupole_moment_norm": 1.71835758502, 
			 "total_energy": -1129.74660145, 
			 "HOMO_LUMO_gap": 0.30442, 
			 "cosmo_polarized_energy": -2.24, 
			 "cosmo_cavitation_energy": 48.52, 
			 "cosmo_dispersion_energy": -26.15, 
			 "cosmo_repulsion_energy": 2.26, 
			 "cosmo_total_nonelectrostatic_energy": 24.62, 
			 "SMD_solvation_energy": 8.76 
		},
		"coords": [
			{
				"x": -1.0461408809,
				"y": 3.2548903508,
				"z": 0.7692758641,
				"element": "C" 
			},
			{
				"x": -0.7372369701,
				"y": 1.7900728164,
				"z": 0.4076448311,
				"element": "C" 
			},
			{
				"x": 1.0842059519,
				"y": 1.3273166313,
				"z": 0.1303416979,
				"element": "Si" 
			},
			{
				"x": 1.8747050441,
				"y": 2.5111773757,
				"z": -1.1193138593,
				"element": "C" 
			},
			{
				"x": 3.3187576873,
				"y": 2.1630580295,
				"z": -1.5231055599,
				"element": "C" 
			},
			{
				"x": 2.0828308299,
				"y": 1.2775195107,
				"z": 1.7442150188,
				"element": "C" 
			},
			{
				"x": 2.3737848804,
				"y": 2.6236764132,
				"z": 2.4329235985,
				"element": "C" 
			},
			{
				"x": 1.1307952662,
				"y": -0.204099896,
				"z": -0.5126831541,
				"element": "O" 
			},
			{
				"x": 0.7262699269,
				"y": -1.7694341769,
				"z": -0.891120145,
				"element": "Si" 
			},
			{
				"x": 0.2269812518,
				"y": -1.8492090853,
				"z": -2.7177544204,
				"element": "C" 
			},
			{
				"x": -0.972555527,
				"y": -0.9720574387,
				"z": -3.1176073866,
				"element": "C" 
			},
			{
				"x": -0.7046111337,
				"y": -2.3152737178,
				"z": 0.2295295663,
				"element": "C" 
			},
			{
				"x": -1.2010992122,
				"y": -3.7566593266,
				"z": 0.0109834903,
				"element": "C" 
			},
			{
				"x": 2.2498337195,
				"y": -2.8643424334,
				"z": -0.6283556265,
				"element": "C" 
			},
			{
				"x": 2.7834896508,
				"y": -2.9235410862,
				"z": 0.8139170617,
				"element": "C" 
			},
			{
				"x": -0.679726986,
				"y": 3.9461023981,
				"z": 0.0025727614,
				"element": "H" 
			},
			{
				"x": -0.5850061437,
				"y": 3.5479809893,
				"z": 1.7181205351,
				"element": "H" 
			},
			{
				"x": -2.124279381,
				"y": 3.4245109327,
				"z": 0.8695411553,
				"element": "H" 
			},
			{
				"x": -1.1433330492,
				"y": 1.1231606546,
				"z": 1.1808791937,
				"element": "H" 
			},
			{
				"x": -1.2719960738,
				"y": 1.5242183787,
				"z": -0.5150839765,
				"element": "H" 
			},
			{
				"x": 1.8383225266,
				"y": 3.5298568962,
				"z": -0.7085505813,
				"element": "H" 
			},
			{
				"x": 1.2359508152,
				"y": 2.5328942101,
				"z": -2.013245409,
				"element": "H" 
			},
			{
				"x": 3.9953725049,
				"y": 2.1891215852,
				"z": -0.6615014929,
				"element": "H" 
			},
			{
				"x": 3.7127525898,
				"y": 2.8647311906,
				"z": -2.2671412672,
				"element": "H" 
			},
			{
				"x": 3.3780285436,
				"y": 1.1578180982,
				"z": -1.9526912978,
				"element": "H" 
			},
			{
				"x": 1.5627799066,
				"y": 0.6069643189,
				"z": 2.4423079739,
				"element": "H" 
			},
			{
				"x": 3.0313408212,
				"y": 0.7738067523,
				"z": 1.5120420944,
				"element": "H" 
			},
			{
				"x": 2.9077458458,
				"y": 3.3114237919,
				"z": 1.7678753932,
				"element": "H" 
			},
			{
				"x": 2.993296549,
				"y": 2.4919135811,
				"z": 3.3273572744,
				"element": "H" 
			},
			{
				"x": 1.454545194,
				"y": 3.1271975669,
				"z": 2.7498506423,
				"element": "H" 
			},
			{
				"x": 1.1043837264,
				"y": -1.5705248197,
				"z": -3.3173201144,
				"element": "H" 
			},
			{
				"x": 0.0207691044,
				"y": -2.898787074,
				"z": -2.9714206663,
				"element": "H" 
			},
			{
				"x": -1.201311813,
				"y": -1.0584798766,
				"z": -4.1859941004,
				"element": "H" 
			},
			{
				"x": -1.8787017701,
				"y": -1.2511512301,
				"z": -2.5681537595,
				"element": "H" 
			},
			{
				"x": -0.778269196,
				"y": 0.0857905625,
				"z": -2.9102752685,
				"element": "H" 
			},
			{
				"x": -1.5364279262,
				"y": -1.6114557782,
				"z": 0.0910692498,
				"element": "H" 
			},
			{
				"x": -0.3861185368,
				"y": -2.1878525888,
				"z": 1.2731936082,
				"element": "H" 
			},
			{
				"x": -0.4038377559,
				"y": -4.4889758838,
				"z": 0.1808284073,
				"element": "H" 
			},
			{
				"x": -2.0230492568,
				"y": -4.0097947147,
				"z": 0.6901675519,
				"element": "H" 
			},
			{
				"x": -1.5676783143,
				"y": -3.9073445603,
				"z": -1.0106078366,
				"element": "H" 
			},
			{
				"x": 2.0098771089,
				"y": -3.8783553766,
				"z": -0.9785281591,
				"element": "H" 
			},
			{
				"x": 3.0398305041,
				"y": -2.5022626292,
				"z": -1.3005325926,
				"element": "H" 
			},
			{
				"x": 3.6765446798,
				"y": -3.554229276,
				"z": 0.890773353,
				"element": "H" 
			},
			{
				"x": 2.0368903482,
				"y": -3.3328630372,
				"z": 1.5037551167,
				"element": "H" 
			},
			{
				"x": 3.0529949495,
				"y": -1.9272090287,
				"z": 1.1797212343,
				"element": "H" 
			}
		],
		 "valence_orbital": [ 
			{
				"type": "occ",
				"energy": -0.32465,
				"method": "rhf"
			},
			{
				"type": "occ",
				"energy": -0.27163,
				"method": "rhf"
			},
			{
				"type": "occ",
				"energy": -0.27119,
				"method": "rhf"
			},
			{
				"type": "occ",
				"energy": -0.25258,
				"method": "rhf"
			},
			{
				"type": "occ",
				"energy": -0.25105,
				"method": "rhf"
			},
			{
				"type": "unocc",
				"energy": 0.05337,
				"method": "rhf"
			},
			{
				"type": "unocc",
				"energy": 0.06019,
				"method": "rhf"
			},
			{
				"type": "unocc",
				"energy": 0.07152,
				"method": "rhf"
			},
			{
				"type": "unocc",
				"energy": 0.08469,
				"method": "rhf"
			},
			{
				"type": "unocc",
				"energy": 0.08903,
				"method": "rhf"
			}
		],
		"cosmo_sigma_profile": { 
			"-0.025": 0.0,
			"-0.024": 0.0,
			"-0.023": 0.0,
			"-0.022": 0.0,
			"-0.021": 0.0,
			"-0.02": 0.0,
			"-0.019": 0.0,
			"-0.018": 0.0,
			"-0.017": 0.0,
			"-0.016": 0.0,
			"-0.015": 0.0,
			"-0.014": 0.0,
			"-0.013": 0.0,
			"-0.012": 0.0,
			"-0.011": 0.0,
			"-0.01": 0.0,
			"-0.009": 0.0,
			"-0.008": 0.0,
			"-0.007": 0.0,
			"-0.006": 0.0,
			"-0.005": 0.0,
			"-0.004": 0.672553450542,
			"-0.003": 12.4941763705,
			"-0.002": 61.879927317,
			"-0.001": 72.1083872338,
			"0.0": 74.2054382019,
			"0.001": 80.0212181558,
			"0.002": 48.3583318695,
			"0.003": 5.64636223613,
			"0.004": 2.53180932081,
			"0.005": 1.76231701686,
			"0.006": 2.23588851566,
			"0.007": 0.765219998643,
			"0.008": 0.02862134491,
			"0.009": 0.0,
			"0.01": 0.0,
			"0.011": 0.0,
			"0.012": 0.0,
			"0.013": 0.0,
			"0.014": 0.0,
			"0.015": 0.0,
			"0.016": 0.0,
			"0.017": 0.0,
			"0.018": 0.0,
			"0.019": 0.0,
			"0.02": 0.0,
			"0.021": 0.0,
			"0.022": 0.0,
			"0.023": 0.0,
			"0.024": 0.0,
			"0.025": 0.0
		}
	}
}
