{
	 "smiles": "CCCC1=CC=C(C=C1)C#CC1=CC=C(CC)C=C1", 
	 "Tm": 323.15, 
	 "num_atms": 39, 
	 "gaussian": { 
		 "optdone": 1, 
		 "sigma_profile": "yes", 
		 "theory": "DFT", 
		 "functional": "B3LYP", 
		 "basiset": "6-31G**", 
		 "properties": { 
			 "R2extent": 11457.4182, 
			 "electric_dipole_moment_norm": 0.164703005437, 
			 "electric_quadrupole_moment_norm": 17.8752095045, 
			 "total_energy": -736.053002661, 
			 "HOMO_LUMO_gap": 0.15902, 
			 "cosmo_polarized_energy": -6.63, 
			 "cosmo_cavitation_energy": 43.41, 
			 "cosmo_dispersion_energy": -30.22, 
			 "cosmo_repulsion_energy": 2.38, 
			 "cosmo_total_nonelectrostatic_energy": 15.57, 
			 "SMD_solvation_energy": 7.03 
		},
		"coords": [
			{
				"x": -0.9447644039,
				"y": 4.7564016846,
				"z": -4.5843989372,
				"element": "C" 
			},
			{
				"x": 0.2846257939,
				"y": 4.1207336454,
				"z": -5.23959707,
				"element": "C" 
			},
			{
				"x": 1.4781401274,
				"y": 3.9235327401,
				"z": -4.2773489721,
				"element": "C" 
			},
			{
				"x": 1.2153622448,
				"y": 2.9321678712,
				"z": -3.1639144764,
				"element": "C" 
			},
			{
				"x": 1.2335625271,
				"y": 1.5514191034,
				"z": -3.4178225882,
				"element": "C" 
			},
			{
				"x": 0.9746278278,
				"y": 0.6266840025,
				"z": -2.4130093089,
				"element": "C" 
			},
			{
				"x": 0.6856824899,
				"y": 1.0562549961,
				"z": -1.1012072243,
				"element": "C" 
			},
			{
				"x": 0.6693534443,
				"y": 2.4403050783,
				"z": -0.8408266875,
				"element": "C" 
			},
			{
				"x": 0.9307177585,
				"y": 3.354307019,
				"z": -1.8576475821,
				"element": "C" 
			},
			{
				"x": 0.4223312135,
				"y": 0.1141202078,
				"z": -0.0661190361,
				"element": "C" 
			},
			{
				"x": 0.1967321181,
				"y": -0.6913911946,
				"z": 0.8176214936,
				"element": "C" 
			},
			{
				"x": -0.0681525297,
				"y": -1.6338912263,
				"z": 1.8520342176,
				"element": "C" 
			},
			{
				"x": -0.0469279168,
				"y": -3.0186879817,
				"z": 1.5908093773,
				"element": "C" 
			},
			{
				"x": -0.303065513,
				"y": -3.9331247663,
				"z": 2.6070752588,
				"element": "C" 
			},
			{
				"x": -0.588987167,
				"y": -3.5108704554,
				"z": 3.9135935902,
				"element": "C" 
			},
			{
				"x": -0.9078207153,
				"y": -4.510734158,
				"z": 5.0037963186,
				"element": "C" 
			},
			{
				"x": -2.4099709513,
				"y": -4.8371752788,
				"z": 5.0952711252,
				"element": "C" 
			},
			{
				"x": -0.6070320491,
				"y": -2.1320904803,
				"z": 4.1700563876,
				"element": "C" 
			},
			{
				"x": -0.3529261134,
				"y": -1.2056296064,
				"z": 3.1642687601,
				"element": "C" 
			},
			{
				"x": -0.7086089104,
				"y": 5.7477932048,
				"z": -4.1800107552,
				"element": "H" 
			},
			{
				"x": -1.7571664358,
				"y": 4.8785703739,
				"z": -5.3080921789,
				"element": "H" 
			},
			{
				"x": -1.3205016552,
				"y": 4.1426152797,
				"z": -3.7597823621,
				"element": "H" 
			},
			{
				"x": 0.0107455226,
				"y": 3.149499639,
				"z": -5.6712939776,
				"element": "H" 
			},
			{
				"x": 0.6181421488,
				"y": 4.7466053892,
				"z": -6.077113544,
				"element": "H" 
			},
			{
				"x": 1.7526079247,
				"y": 4.8940282021,
				"z": -3.8454397298,
				"element": "H" 
			},
			{
				"x": 2.3438792177,
				"y": 3.5868767185,
				"z": -4.8615563157,
				"element": "H" 
			},
			{
				"x": 1.4606099109,
				"y": 1.1966309553,
				"z": -4.420564464,
				"element": "H" 
			},
			{
				"x": 0.9974977262,
				"y": -0.4370499935,
				"z": -2.6276310369,
				"element": "H" 
			},
			{
				"x": 0.4529508223,
				"y": 2.7870551727,
				"z": 0.164651838,
				"element": "H" 
			},
			{
				"x": 0.9178902085,
				"y": 4.4179123457,
				"z": -1.6329511654,
				"element": "H" 
			},
			{
				"x": 0.1765382635,
				"y": -3.3638775687,
				"z": 0.5863276138,
				"element": "H" 
			},
			{
				"x": -0.2769327905,
				"y": -4.997365775,
				"z": 2.3845945891,
				"element": "H" 
			},
			{
				"x": -0.5647469405,
				"y": -4.1205498059,
				"z": 5.9695270701,
				"element": "H" 
			},
			{
				"x": -0.3483223343,
				"y": -5.4368539548,
				"z": 4.8254690308,
				"element": "H" 
			},
			{
				"x": -2.6053205255,
				"y": -5.5620512918,
				"z": 5.8925496627,
				"element": "H" 
			},
			{
				"x": -2.777412049,
				"y": -5.259220617,
				"z": 4.154287149,
				"element": "H" 
			},
			{
				"x": -2.9950409214,
				"y": -3.9357391889,
				"z": 5.3043077343,
				"element": "H" 
			},
			{
				"x": -0.819877911,
				"y": -1.7799101228,
				"z": 5.1767669017,
				"element": "H" 
			},
			{
				"x": -0.3671194574,
				"y": -0.1424001628,
				"z": 3.3820192938,
				"element": "H" 
			}
		],
		 "valence_orbital": [ 
			{
				"type": "occ",
				"energy": -0.25976,
				"method": "rhf"
			},
			{
				"type": "occ",
				"energy": -0.25545,
				"method": "rhf"
			},
			{
				"type": "occ",
				"energy": -0.25094,
				"method": "rhf"
			},
			{
				"type": "occ",
				"energy": -0.25085,
				"method": "rhf"
			},
			{
				"type": "occ",
				"energy": -0.20102,
				"method": "rhf"
			},
			{
				"type": "unocc",
				"energy": -0.042,
				"method": "rhf"
			},
			{
				"type": "unocc",
				"energy": -0.00098,
				"method": "rhf"
			},
			{
				"type": "unocc",
				"energy": -0.00049,
				"method": "rhf"
			},
			{
				"type": "unocc",
				"energy": 0.01262,
				"method": "rhf"
			},
			{
				"type": "unocc",
				"energy": 0.05943,
				"method": "rhf"
			}
		],
		"cosmo_sigma_profile": { 
			"-0.025": 0.0,
			"-0.024": 0.0,
			"-0.023": 0.0,
			"-0.022": 0.0,
			"-0.021": 0.0,
			"-0.02": 0.0,
			"-0.019": 0.0,
			"-0.018": 0.0,
			"-0.017": 0.0,
			"-0.016": 0.0,
			"-0.015": 0.0,
			"-0.014": 0.0,
			"-0.013": 0.0,
			"-0.012": 0.0,
			"-0.011": 0.0,
			"-0.01": 0.0,
			"-0.009": 0.0,
			"-0.008": 0.0,
			"-0.007": 0.0979029336414,
			"-0.006": 6.87333829976,
			"-0.005": 16.3892737206,
			"-0.004": 23.6435400957,
			"-0.003": 34.3232360887,
			"-0.002": 37.634004062,
			"-0.001": 42.6209685619,
			"0.0": 36.4607688192,
			"0.001": 39.4845122107,
			"0.002": 21.9755377937,
			"0.003": 23.2408874328,
			"0.004": 28.3804686498,
			"0.005": 25.5346118231,
			"0.006": 6.38862151197,
			"0.007": 0.811794634536,
			"0.008": 0.0,
			"0.009": 0.0,
			"0.01": 0.0,
			"0.011": 0.0,
			"0.012": 0.0,
			"0.013": 0.0,
			"0.014": 0.0,
			"0.015": 0.0,
			"0.016": 0.0,
			"0.017": 0.0,
			"0.018": 0.0,
			"0.019": 0.0,
			"0.02": 0.0,
			"0.021": 0.0,
			"0.022": 0.0,
			"0.023": 0.0,
			"0.024": 0.0,
			"0.025": 0.0
		}
	}
}
