{
	 "smiles": "OC(=O)CCCNC1=NC(=CS1)C1=CC=CC=C1", 
	 "Tm": 429.15, 
	 "num_atms": 32, 
	 "gaussian": { 
		 "optdone": 1, 
		 "sigma_profile": "yes", 
		 "theory": "DFT", 
		 "functional": "B3LYP", 
		 "basiset": "6-31G**", 
		 "properties": { 
			 "R2extent": 5818.9544, 
			 "electric_dipole_moment_norm": 6.00575070495, 
			 "electric_quadrupole_moment_norm": 28.4946053552, 
			 "total_energy": -1161.97717468, 
			 "HOMO_LUMO_gap": 0.17648, 
			 "cosmo_polarized_energy": -19.68, 
			 "cosmo_cavitation_energy": 36.28, 
			 "cosmo_dispersion_energy": -26.45, 
			 "cosmo_repulsion_energy": 1.99, 
			 "cosmo_total_nonelectrostatic_energy": 11.82, 
			 "SMD_solvation_energy": 5.56 
		},
		"coords": [
			{
				"x": 2.2514664162,
				"y": 0.3029858538,
				"z": 0.1509219685,
				"element": "O" 
			},
			{
				"x": 3.3622568252,
				"y": 1.0638878468,
				"z": 0.1188315967,
				"element": "C" 
			},
			{
				"x": 4.4515527517,
				"y": 0.5526831468,
				"z": 0.2439003773,
				"element": "O" 
			},
			{
				"x": 3.2388515013,
				"y": 2.5854258545,
				"z": -0.0517801154,
				"element": "C" 
			},
			{
				"x": 1.8532355433,
				"y": 3.1785848629,
				"z": -0.3122691642,
				"element": "C" 
			},
			{
				"x": 1.2794513639,
				"y": 2.7830917076,
				"z": -1.6860090219,
				"element": "C" 
			},
			{
				"x": -0.1757129406,
				"y": 2.9102846418,
				"z": -1.7327484339,
				"element": "N" 
			},
			{
				"x": -0.9640261153,
				"y": 1.9861359172,
				"z": -1.1140068322,
				"element": "C" 
			},
			{
				"x": -0.5217632224,
				"y": 1.0641190372,
				"z": -0.2934321501,
				"element": "N" 
			},
			{
				"x": -1.5664099926,
				"y": 0.2728954674,
				"z": 0.1896199534,
				"element": "C" 
			},
			{
				"x": -2.8051863825,
				"y": 0.6153244101,
				"z": -0.2719827809,
				"element": "C" 
			},
			{
				"x": -2.7118939105,
				"y": 1.9748329543,
				"z": -1.3629647441,
				"element": "S" 
			},
			{
				"x": -1.3028307548,
				"y": -0.8287034857,
				"z": 1.1374346932,
				"element": "C" 
			},
			{
				"x": -2.162177366,
				"y": -1.9402106762,
				"z": 1.1904573026,
				"element": "C" 
			},
			{
				"x": -1.9449336717,
				"y": -2.9658251596,
				"z": 2.1071309089,
				"element": "C" 
			},
			{
				"x": -0.8575303744,
				"y": -2.9072059709,
				"z": 2.9819703909,
				"element": "C" 
			},
			{
				"x": 0.0095603938,
				"y": -1.8151080254,
				"z": 2.9289530771,
				"element": "C" 
			},
			{
				"x": -0.2102529855,
				"y": -0.7833824922,
				"z": 2.0174985931,
				"element": "C" 
			},
			{
				"x": 1.3866608768,
				"y": 0.7530948607,
				"z": 0.0064058742,
				"element": "H" 
			},
			{
				"x": 3.9415923531,
				"y": 2.853191315,
				"z": -0.8494569051,
				"element": "H" 
			},
			{
				"x": 3.6621512753,
				"y": 3.0163117479,
				"z": 0.8624951269,
				"element": "H" 
			},
			{
				"x": 1.9028125483,
				"y": 4.2706919637,
				"z": -0.2445811683,
				"element": "H" 
			},
			{
				"x": 1.1594048109,
				"y": 2.8585811864,
				"z": 0.4704961052,
				"element": "H" 
			},
			{
				"x": 1.5631231782,
				"y": 1.7529929301,
				"z": -1.9376201218,
				"element": "H" 
			},
			{
				"x": 1.6907350425,
				"y": 3.4275677153,
				"z": -2.4679755264,
				"element": "H" 
			},
			{
				"x": -0.5828472588,
				"y": 3.419627762,
				"z": -2.501002687,
				"element": "H" 
			},
			{
				"x": -3.7616966153,
				"y": 0.1887164119,
				"z": -0.0126203341,
				"element": "H" 
			},
			{
				"x": -2.9893509833,
				"y": -2.0123037138,
				"z": 0.4905300559,
				"element": "H" 
			},
			{
				"x": -2.6170734629,
				"y": -3.8189464922,
				"z": 2.1284402605,
				"element": "H" 
			},
			{
				"x": -0.6825119198,
				"y": -3.7109308218,
				"z": 3.6911924337,
				"element": "H" 
			},
			{
				"x": 0.8635385257,
				"y": -1.7635922474,
				"z": 3.5978551808,
				"element": "H" 
			},
			{
				"x": 0.4713045501,
				"y": 0.0575814916,
				"z": 1.9861160865,
				"element": "H" 
			}
		],
		 "valence_orbital": [ 
			{
				"type": "occ",
				"energy": -0.287,
				"method": "rhf"
			},
			{
				"type": "occ",
				"energy": -0.2538,
				"method": "rhf"
			},
			{
				"type": "occ",
				"energy": -0.24879,
				"method": "rhf"
			},
			{
				"type": "occ",
				"energy": -0.24656,
				"method": "rhf"
			},
			{
				"type": "occ",
				"energy": -0.2099,
				"method": "rhf"
			},
			{
				"type": "unocc",
				"energy": -0.03342,
				"method": "rhf"
			},
			{
				"type": "unocc",
				"energy": -0.00793,
				"method": "rhf"
			},
			{
				"type": "unocc",
				"energy": 3e-05,
				"method": "rhf"
			},
			{
				"type": "unocc",
				"energy": 0.00341,
				"method": "rhf"
			},
			{
				"type": "unocc",
				"energy": 0.02923,
				"method": "rhf"
			}
		],
		"cosmo_sigma_profile": { 
			"-0.025": 0.0,
			"-0.024": 0.0,
			"-0.023": 0.0,
			"-0.022": 0.0,
			"-0.021": 0.0,
			"-0.02": 0.0,
			"-0.019": 0.0,
			"-0.018": 0.0,
			"-0.017": 0.0,
			"-0.016": 0.353933681184,
			"-0.015": 1.57485382793,
			"-0.014": 1.05424930258,
			"-0.013": 1.52169172992,
			"-0.012": 1.34552244542,
			"-0.011": 1.12595596665,
			"-0.01": 1.44239482172,
			"-0.009": 2.33289453024,
			"-0.008": 3.19767326988,
			"-0.007": 5.25687887252,
			"-0.006": 16.1551169665,
			"-0.005": 24.985355253,
			"-0.004": 25.7200612788,
			"-0.003": 24.192639496,
			"-0.002": 19.7596311061,
			"-0.001": 14.9661519919,
			"0.0": 15.1460696432,
			"0.001": 17.3133179345,
			"0.002": 18.9491409467,
			"0.003": 23.8765470956,
			"0.004": 20.2078681432,
			"0.005": 14.5332668447,
			"0.006": 8.30832476824,
			"0.007": 1.97443778788,
			"0.008": 2.71493899638,
			"0.009": 2.68626300579,
			"0.01": 2.86754888572,
			"0.011": 2.95238960404,
			"0.012": 5.7919577718,
			"0.013": 6.09562388309,
			"0.014": 2.60527921861,
			"0.015": 0.263200929211,
			"0.016": 0.0,
			"0.017": 0.0,
			"0.018": 0.0,
			"0.019": 0.0,
			"0.02": 0.0,
			"0.021": 0.0,
			"0.022": 0.0,
			"0.023": 0.0,
			"0.024": 0.0,
			"0.025": 0.0
		}
	}
}
