{
	 "smiles": "COC1=C(O)C=C2CN(CCC2=C1)C1CC=CC(=O)C1", 
	 "Tm": 529.15, 
	 "num_atms": 39, 
	 "gaussian": { 
		 "optdone": 1, 
		 "sigma_profile": "yes", 
		 "theory": "DFT", 
		 "functional": "B3LYP", 
		 "basiset": "6-31G**", 
		 "properties": { 
			 "R2extent": 8031.8752, 
			 "electric_dipole_moment_norm": 2.8973379972, 
			 "electric_quadrupole_moment_norm": 33.261626294, 
			 "total_energy": -901.539701295, 
			 "HOMO_LUMO_gap": 0.15377, 
			 "cosmo_polarized_energy": -16.84, 
			 "cosmo_cavitation_energy": 39.63, 
			 "cosmo_dispersion_energy": -28.48, 
			 "cosmo_repulsion_energy": 2.18, 
			 "cosmo_total_nonelectrostatic_energy": 13.33, 
			 "SMD_solvation_energy": 6.08 
		},
		"coords": [
			{
				"x": 4.6523166976,
				"y": -3.3143464844,
				"z": 1.8088337962,
				"element": "C" 
			},
			{
				"x": 3.7292717703,
				"y": -2.3809450588,
				"z": 2.3464012109,
				"element": "O" 
			},
			{
				"x": 2.8505354954,
				"y": -1.7678244696,
				"z": 1.4829277703,
				"element": "C" 
			},
			{
				"x": 1.9606063595,
				"y": -0.8762617533,
				"z": 2.1187321669,
				"element": "C" 
			},
			{
				"x": 2.0231747439,
				"y": -0.6915837039,
				"z": 3.4680309354,
				"element": "O" 
			},
			{
				"x": 1.0228136529,
				"y": -0.1943714575,
				"z": 1.3587592696,
				"element": "C" 
			},
			{
				"x": 0.9496042607,
				"y": -0.3791379017,
				"z": -0.0311735408,
				"element": "C" 
			},
			{
				"x": -0.0854033088,
				"y": 0.4083857144,
				"z": -0.8141976446,
				"element": "C" 
			},
			{
				"x": -0.2884541378,
				"y": -0.0966806361,
				"z": -2.1723617712,
				"element": "N" 
			},
			{
				"x": 1.0089449702,
				"y": -0.3019541256,
				"z": -2.8255531551,
				"element": "C" 
			},
			{
				"x": 1.7529002647,
				"y": -1.4566591406,
				"z": -2.1567635856,
				"element": "C" 
			},
			{
				"x": 1.8340919683,
				"y": -1.2571093707,
				"z": -0.6607969052,
				"element": "C" 
			},
			{
				"x": 2.7847001462,
				"y": -1.9517912241,
				"z": 0.1086315143,
				"element": "C" 
			},
			{
				"x": -1.2003547264,
				"y": 0.7172297234,
				"z": -3.0024057153,
				"element": "C" 
			},
			{
				"x": -2.4340969659,
				"y": 1.2387810582,
				"z": -2.2360376801,
				"element": "C" 
			},
			{
				"x": -3.3902128297,
				"y": 0.1380956983,
				"z": -1.8543284814,
				"element": "C" 
			},
			{
				"x": -3.4481666787,
				"y": -1.0312375608,
				"z": -2.5102802073,
				"element": "C" 
			},
			{
				"x": -2.5885420191,
				"y": -1.3018420854,
				"z": -3.6843285018,
				"element": "C" 
			},
			{
				"x": -2.610873417,
				"y": -2.3755492357,
				"z": -4.2667122724,
				"element": "O" 
			},
			{
				"x": -1.724840307,
				"y": -0.1402635025,
				"z": -4.1709306787,
				"element": "C" 
			},
			{
				"x": 5.2374904104,
				"y": -3.6863547908,
				"z": 2.6512603182,
				"element": "H" 
			},
			{
				"x": 5.3239092522,
				"y": -2.8395446584,
				"z": 1.0823690187,
				"element": "H" 
			},
			{
				"x": 4.1363135339,
				"y": -4.1535604102,
				"z": 1.3256478391,
				"element": "H" 
			},
			{
				"x": 2.7330974068,
				"y": -1.2638906049,
				"z": 3.7970612767,
				"element": "H" 
			},
			{
				"x": 0.3438418037,
				"y": 0.4836438482,
				"z": 1.868657112,
				"element": "H" 
			},
			{
				"x": -1.0329925935,
				"y": 0.3512640454,
				"z": -0.2694602809,
				"element": "H" 
			},
			{
				"x": 0.2141995172,
				"y": 1.4787638687,
				"z": -0.8180129862,
				"element": "H" 
			},
			{
				"x": 0.8536869049,
				"y": -0.5352965223,
				"z": -3.8806722583,
				"element": "H" 
			},
			{
				"x": 1.6249348854,
				"y": 0.6188385317,
				"z": -2.7879561631,
				"element": "H" 
			},
			{
				"x": 1.2249202104,
				"y": -2.3917620024,
				"z": -2.3860550972,
				"element": "H" 
			},
			{
				"x": 2.7586785482,
				"y": -1.5448392752,
				"z": -2.5865380436,
				"element": "H" 
			},
			{
				"x": 3.4682174991,
				"y": -2.6329117549,
				"z": -0.3878971869,
				"element": "H" 
			},
			{
				"x": -0.6664817727,
				"y": 1.6002359621,
				"z": -3.4040113951,
				"element": "H" 
			},
			{
				"x": -2.1511277077,
				"y": 1.8240711745,
				"z": -1.35716054,
				"element": "H" 
			},
			{
				"x": -2.9536640471,
				"y": 1.9494980507,
				"z": -2.8961436954,
				"element": "H" 
			},
			{
				"x": -4.057465961,
				"y": 0.3213953176,
				"z": -1.0136272818,
				"element": "H" 
			},
			{
				"x": -4.128697257,
				"y": -1.8262091715,
				"z": -2.218891934,
				"element": "H" 
			},
			{
				"x": -0.9329980934,
				"y": -0.5505869426,
				"z": -4.8000076973,
				"element": "H" 
			},
			{
				"x": -2.348078479,
				"y": 0.4896108508,
				"z": -4.8224075289,
				"element": "H" 
			}
		],
		 "valence_orbital": [ 
			{
				"type": "occ",
				"energy": -0.26606,
				"method": "rhf"
			},
			{
				"type": "occ",
				"energy": -0.23624,
				"method": "rhf"
			},
			{
				"type": "occ",
				"energy": -0.23109,
				"method": "rhf"
			},
			{
				"type": "occ",
				"energy": -0.21244,
				"method": "rhf"
			},
			{
				"type": "occ",
				"energy": -0.19848,
				"method": "rhf"
			},
			{
				"type": "unocc",
				"energy": -0.04471,
				"method": "rhf"
			},
			{
				"type": "unocc",
				"energy": 0.00649,
				"method": "rhf"
			},
			{
				"type": "unocc",
				"energy": 0.02189,
				"method": "rhf"
			},
			{
				"type": "unocc",
				"energy": 0.05799,
				"method": "rhf"
			},
			{
				"type": "unocc",
				"energy": 0.07905,
				"method": "rhf"
			}
		],
		"cosmo_sigma_profile": { 
			"-0.025": 0.0,
			"-0.024": 0.0,
			"-0.023": 0.0,
			"-0.022": 0.0,
			"-0.021": 0.0,
			"-0.02": 0.0,
			"-0.019": 0.0,
			"-0.018": 0.0,
			"-0.017": 0.0,
			"-0.016": 0.0,
			"-0.015": 0.0,
			"-0.014": 0.220494260753,
			"-0.013": 0.534030017463,
			"-0.012": 0.774744822813,
			"-0.011": 0.502915364196,
			"-0.01": 0.674472320164,
			"-0.009": 0.616739430217,
			"-0.008": 0.560808416113,
			"-0.007": 2.29546375038,
			"-0.006": 14.3911272763,
			"-0.005": 31.4175136006,
			"-0.004": 29.5658227689,
			"-0.003": 37.3192262071,
			"-0.002": 37.9900438172,
			"-0.001": 25.9583446489,
			"0.0": 15.4024602313,
			"0.001": 11.7262256743,
			"0.002": 13.4886243723,
			"0.003": 14.4569434861,
			"0.004": 12.5957016817,
			"0.005": 14.4704205102,
			"0.006": 12.2821945734,
			"0.007": 5.42935536653,
			"0.008": 3.80943110387,
			"0.009": 2.62631136675,
			"0.01": 4.31602536991,
			"0.011": 5.69776743924,
			"0.012": 5.7048523502,
			"0.013": 4.23698608155,
			"0.014": 2.04358119448,
			"0.015": 0.0902852849644,
			"0.016": 0.0,
			"0.017": 0.0,
			"0.018": 0.0,
			"0.019": 0.0,
			"0.02": 0.0,
			"0.021": 0.0,
			"0.022": 0.0,
			"0.023": 0.0,
			"0.024": 0.0,
			"0.025": 0.0
		}
	}
}
