{
	 "smiles": "ClP(C1=CC=CC2=CC=CC=C12)C1=CC=CC2=C1C=CC=C2", 
	 "Tm": 428.65, 
	 "num_atms": 36, 
	 "gaussian": { 
		 "optdone": 1, 
		 "sigma_profile": "yes", 
		 "theory": "DFT", 
		 "functional": "B3LYP", 
		 "basiset": "6-31G**", 
		 "properties": { 
			 "R2extent": 7993.5147, 
			 "electric_dipole_moment_norm": 3.18642308553, 
			 "electric_quadrupole_moment_norm": 15.4191132316, 
			 "total_energy": -1572.14820038, 
			 "HOMO_LUMO_gap": 0.15148, 
			 "cosmo_polarized_energy": -9.81, 
			 "cosmo_cavitation_energy": 41.35, 
			 "cosmo_dispersion_energy": -30.03, 
			 "cosmo_repulsion_energy": 2.33, 
			 "cosmo_total_nonelectrostatic_energy": 13.65, 
			 "SMD_solvation_energy": 6.06 
		},
		"coords": [
			{
				"x": 1.3296505683,
				"y": -1.1084175164,
				"z": -2.3429952439,
				"element": "Cl" 
			},
			{
				"x": 0.6243054745,
				"y": -1.9479214094,
				"z": -0.4918398926,
				"element": "P" 
			},
			{
				"x": 1.8539650395,
				"y": -1.300837549,
				"z": 0.7208988349,
				"element": "C" 
			},
			{
				"x": 2.3633648221,
				"y": -2.3165210811,
				"z": 1.5185249739,
				"element": "C" 
			},
			{
				"x": 3.3290804981,
				"y": -2.0675822813,
				"z": 2.5203646325,
				"element": "C" 
			},
			{
				"x": 3.8049492833,
				"y": -0.7924835716,
				"z": 2.7036320979,
				"element": "C" 
			},
			{
				"x": 3.3348659051,
				"y": 0.2850199043,
				"z": 1.9047308168,
				"element": "C" 
			},
			{
				"x": 3.8352991147,
				"y": 1.6011035752,
				"z": 2.0956533598,
				"element": "C" 
			},
			{
				"x": 3.3801511355,
				"y": 2.6489894124,
				"z": 1.3296704013,
				"element": "C" 
			},
			{
				"x": 2.3991940706,
				"y": 2.4182078335,
				"z": 0.3382227853,
				"element": "C" 
			},
			{
				"x": 1.8930892459,
				"y": 1.1539092634,
				"z": 0.1267733628,
				"element": "C" 
			},
			{
				"x": 2.3400406073,
				"y": 0.0441932332,
				"z": 0.8954441832,
				"element": "C" 
			},
			{
				"x": -0.9213380709,
				"y": -0.9837643979,
				"z": -0.1764297533,
				"element": "C" 
			},
			{
				"x": -1.0599187925,
				"y": -0.2135555013,
				"z": 0.9679576135,
				"element": "C" 
			},
			{
				"x": -2.2925223541,
				"y": 0.3869508321,
				"z": 1.3129213868,
				"element": "C" 
			},
			{
				"x": -3.3924843728,
				"y": 0.2172409333,
				"z": 0.5079284235,
				"element": "C" 
			},
			{
				"x": -3.3154383823,
				"y": -0.5785695493,
				"z": -0.6660822215,
				"element": "C" 
			},
			{
				"x": -2.071127867,
				"y": -1.2035036049,
				"z": -1.0180330035,
				"element": "C" 
			},
			{
				"x": -2.0460259906,
				"y": -2.0200157908,
				"z": -2.1823546867,
				"element": "C" 
			},
			{
				"x": -3.1733320743,
				"y": -2.2004880868,
				"z": -2.9542240051,
				"element": "C" 
			},
			{
				"x": -4.3910070781,
				"y": -1.5695679889,
				"z": -2.6115977326,
				"element": "C" 
			},
			{
				"x": -4.4560888589,
				"y": -0.7764383301,
				"z": -1.4894946808,
				"element": "C" 
			},
			{
				"x": 2.0154350048,
				"y": -3.3347639296,
				"z": 1.3659086015,
				"element": "H" 
			},
			{
				"x": 3.6956653545,
				"y": -2.8885121616,
				"z": 3.1289522689,
				"element": "H" 
			},
			{
				"x": 4.5557254472,
				"y": -0.5869970953,
				"z": 3.4625149449,
				"element": "H" 
			},
			{
				"x": 4.588230528,
				"y": 1.7630803913,
				"z": 2.8627142704,
				"element": "H" 
			},
			{
				"x": 3.7705556101,
				"y": 3.6507266235,
				"z": 1.4831868182,
				"element": "H" 
			},
			{
				"x": 2.0405992126,
				"y": 3.2462819723,
				"z": -0.2661298039,
				"element": "H" 
			},
			{
				"x": 1.1458245393,
				"y": 1.0013127285,
				"z": -0.6404734395,
				"element": "H" 
			},
			{
				"x": -0.2104324604,
				"y": -0.0588245455,
				"z": 1.6221878009,
				"element": "H" 
			},
			{
				"x": -2.356829826,
				"y": 0.9878561587,
				"z": 2.215199118,
				"element": "H" 
			},
			{
				"x": -4.3420357328,
				"y": 0.6810621208,
				"z": 0.7625509959,
				"element": "H" 
			},
			{
				"x": -1.1238854373,
				"y": -2.5068991529,
				"z": -2.4776458337,
				"element": "H" 
			},
			{
				"x": -3.1240188756,
				"y": -2.8317105693,
				"z": -3.8366175094,
				"element": "H" 
			},
			{
				"x": -5.2701789061,
				"y": -1.7152894632,
				"z": -3.2322994968,
				"element": "H" 
			},
			{
				"x": -5.3871263813,
				"y": -0.2898714064,
				"z": -1.2101203877,
				"element": "H" 
			}
		],
		 "valence_orbital": [ 
			{
				"type": "occ",
				"energy": -0.25202,
				"method": "rhf"
			},
			{
				"type": "occ",
				"energy": -0.24816,
				"method": "rhf"
			},
			{
				"type": "occ",
				"energy": -0.2423,
				"method": "rhf"
			},
			{
				"type": "occ",
				"energy": -0.22787,
				"method": "rhf"
			},
			{
				"type": "occ",
				"energy": -0.21595,
				"method": "rhf"
			},
			{
				"type": "unocc",
				"energy": -0.06447,
				"method": "rhf"
			},
			{
				"type": "unocc",
				"energy": -0.05054,
				"method": "rhf"
			},
			{
				"type": "unocc",
				"energy": -0.02186,
				"method": "rhf"
			},
			{
				"type": "unocc",
				"energy": -0.01326,
				"method": "rhf"
			},
			{
				"type": "unocc",
				"energy": -0.01184,
				"method": "rhf"
			}
		],
		"cosmo_sigma_profile": { 
			"-0.025": 0.0,
			"-0.024": 0.0,
			"-0.023": 0.0,
			"-0.022": 0.0,
			"-0.021": 0.0,
			"-0.02": 0.0,
			"-0.019": 0.0,
			"-0.018": 0.0,
			"-0.017": 0.0,
			"-0.016": 0.0,
			"-0.015": 0.0,
			"-0.014": 0.0,
			"-0.013": 0.0,
			"-0.012": 0.0,
			"-0.011": 0.0,
			"-0.01": 0.0,
			"-0.009": 0.0,
			"-0.008": 0.0,
			"-0.007": 5.68642203181,
			"-0.006": 24.4517887783,
			"-0.005": 26.3522335428,
			"-0.004": 28.5588108595,
			"-0.003": 20.8226617508,
			"-0.002": 20.749689678,
			"-0.001": 19.8648152073,
			"0.0": 19.1919594203,
			"0.001": 23.4623571823,
			"0.002": 29.7562535253,
			"0.003": 46.3719968765,
			"0.004": 38.1213378499,
			"0.005": 20.0732461636,
			"0.006": 7.47368498078,
			"0.007": 3.05257767129,
			"0.008": 0.741776293633,
			"0.009": 0.653866778406,
			"0.01": 0.149033534598,
			"0.011": 0.0,
			"0.012": 0.0,
			"0.013": 0.0,
			"0.014": 0.0,
			"0.015": 0.0,
			"0.016": 0.0,
			"0.017": 0.0,
			"0.018": 0.0,
			"0.019": 0.0,
			"0.02": 0.0,
			"0.021": 0.0,
			"0.022": 0.0,
			"0.023": 0.0,
			"0.024": 0.0,
			"0.025": 0.0
		}
	}
}
