{
	 "smiles": "CC1=C(C=CC(=N1)C1=CSC=C1)C(O)=O", 
	 "Tm": 448.15, 
	 "num_atms": 24, 
	 "gaussian": { 
		 "optdone": 1, 
		 "sigma_profile": "yes", 
		 "theory": "DFT", 
		 "functional": "B3LYP", 
		 "basiset": "6-31G**", 
		 "properties": { 
			 "R2extent": 4858.6262, 
			 "electric_dipole_moment_norm": 4.68947572763, 
			 "electric_quadrupole_moment_norm": 18.2921556813, 
			 "total_energy": -1027.98306923, 
			 "HOMO_LUMO_gap": 0.16424, 
			 "cosmo_polarized_energy": -16.19, 
			 "cosmo_cavitation_energy": 30.22, 
			 "cosmo_dispersion_energy": -22.79, 
			 "cosmo_repulsion_energy": 1.71, 
			 "cosmo_total_nonelectrostatic_energy": 9.14, 
			 "SMD_solvation_energy": 5.35 
		},
		"coords": [
			{
				"x": 0.9607034196,
				"y": 1.4363890728,
				"z": -2.2957280735,
				"element": "C" 
			},
			{
				"x": 1.0729556111,
				"y": 0.3600466802,
				"z": -1.2466998857,
				"element": "C" 
			},
			{
				"x": 1.9404967745,
				"y": -0.7549717953,
				"z": -1.3787815531,
				"element": "C" 
			},
			{
				"x": 1.9408735938,
				"y": -1.7037502816,
				"z": -0.3488023241,
				"element": "C" 
			},
			{
				"x": 1.1258770379,
				"y": -1.5355134175,
				"z": 0.7611574568,
				"element": "C" 
			},
			{
				"x": 0.3144485225,
				"y": -0.3927836707,
				"z": 0.8271158656,
				"element": "C" 
			},
			{
				"x": 0.306459714,
				"y": 0.521177075,
				"z": -0.1646271756,
				"element": "N" 
			},
			{
				"x": -0.5739866378,
				"y": -0.1255985014,
				"z": 1.9713163626,
				"element": "C" 
			},
			{
				"x": -1.3776667259,
				"y": 0.9909181506,
				"z": 2.0384341435,
				"element": "C" 
			},
			{
				"x": -2.3059600458,
				"y": 1.0392438613,
				"z": 3.4886174836,
				"element": "S" 
			},
			{
				"x": -1.6199246192,
				"y": -0.4597575647,
				"z": 4.0360381191,
				"element": "C" 
			},
			{
				"x": -0.7243807901,
				"y": -0.9571996892,
				"z": 3.1355385693,
				"element": "C" 
			},
			{
				"x": 2.7879341419,
				"y": -0.9477110262,
				"z": -2.5955492123,
				"element": "C" 
			},
			{
				"x": 3.9528389337,
				"y": -1.6330420698,
				"z": -2.4081545355,
				"element": "O" 
			},
			{
				"x": 2.4999304179,
				"y": -0.5564615571,
				"z": -3.702396841,
				"element": "O" 
			},
			{
				"x": 0.5038633636,
				"y": 1.0397805673,
				"z": -3.206587588,
				"element": "H" 
			},
			{
				"x": 0.348967175,
				"y": 2.2481348878,
				"z": -1.9003291658,
				"element": "H" 
			},
			{
				"x": 1.9412548866,
				"y": 1.8199647736,
				"z": -2.5915546902,
				"element": "H" 
			},
			{
				"x": 2.552766765,
				"y": -2.5991549729,
				"z": -0.4286826894,
				"element": "H" 
			},
			{
				"x": 1.1177185186,
				"y": -2.2776335147,
				"z": 1.5506800482,
				"element": "H" 
			},
			{
				"x": -1.4526367875,
				"y": 1.7708049234,
				"z": 1.2956397723,
				"element": "H" 
			},
			{
				"x": -1.9184492704,
				"y": -0.8810073239,
				"z": 4.9857240918,
				"element": "H" 
			},
			{
				"x": -0.1906484863,
				"y": -1.8858080895,
				"z": 3.2984352812,
				"element": "H" 
			},
			{
				"x": 4.1390644872,
				"y": -1.7188665175,
				"z": -1.4630034598,
				"element": "H" 
			}
		],
		 "valence_orbital": [ 
			{
				"type": "occ",
				"energy": -0.28586,
				"method": "rhf"
			},
			{
				"type": "occ",
				"energy": -0.27691,
				"method": "rhf"
			},
			{
				"type": "occ",
				"energy": -0.26437,
				"method": "rhf"
			},
			{
				"type": "occ",
				"energy": -0.25389,
				"method": "rhf"
			},
			{
				"type": "occ",
				"energy": -0.23226,
				"method": "rhf"
			},
			{
				"type": "unocc",
				"energy": -0.06802,
				"method": "rhf"
			},
			{
				"type": "unocc",
				"energy": -0.03414,
				"method": "rhf"
			},
			{
				"type": "unocc",
				"energy": -0.01351,
				"method": "rhf"
			},
			{
				"type": "unocc",
				"energy": 0.02302,
				"method": "rhf"
			},
			{
				"type": "unocc",
				"energy": 0.02415,
				"method": "rhf"
			}
		],
		"cosmo_sigma_profile": { 
			"-0.025": 0.0,
			"-0.024": 0.0,
			"-0.023": 0.0,
			"-0.022": 0.0,
			"-0.021": 0.0,
			"-0.02": 0.0,
			"-0.019": 0.203278253006,
			"-0.018": 1.05343567963,
			"-0.017": 0.750161731135,
			"-0.016": 1.57340940003,
			"-0.015": 0.884218063496,
			"-0.014": 0.451489393897,
			"-0.013": 1.14410112987,
			"-0.012": 1.18051998336,
			"-0.011": 1.05675800164,
			"-0.01": 1.34607946119,
			"-0.009": 4.02173737358,
			"-0.008": 7.40278943691,
			"-0.007": 8.67586662738,
			"-0.006": 8.97129396365,
			"-0.005": 11.2948074672,
			"-0.004": 12.086053125,
			"-0.003": 13.4588829938,
			"-0.002": 13.1553149833,
			"-0.001": 15.6750888664,
			"0.0": 22.7125484007,
			"0.001": 22.8212689634,
			"0.002": 16.7094488068,
			"0.003": 19.1818812286,
			"0.004": 17.7152858222,
			"0.005": 8.18257694341,
			"0.006": 4.21985298992,
			"0.007": 3.67998511242,
			"0.008": 5.40393188515,
			"0.009": 4.63651050186,
			"0.01": 5.20283030489,
			"0.011": 5.16899534486,
			"0.012": 3.32060865384,
			"0.013": 1.50074103972,
			"0.014": 0.0181911857912,
			"0.015": 0.0,
			"0.016": 0.0,
			"0.017": 0.0,
			"0.018": 0.0,
			"0.019": 0.0,
			"0.02": 0.0,
			"0.021": 0.0,
			"0.022": 0.0,
			"0.023": 0.0,
			"0.024": 0.0,
			"0.025": 0.0
		}
	}
}
