{
	 "smiles": "CC(C)(C)OC(=O)N1CCN(CC2=CC=CC(C=O)=C2)CC1", 
	 "Tm": 340.65, 
	 "num_atms": 46, 
	 "gaussian": { 
		 "optdone": 1, 
		 "sigma_profile": "yes", 
		 "theory": "DFT", 
		 "functional": "B3LYP", 
		 "basiset": "6-31G**", 
		 "properties": { 
			 "R2extent": 11921.9816, 
			 "electric_dipole_moment_norm": 2.26860982322, 
			 "electric_quadrupole_moment_norm": 36.4812197959, 
			 "total_energy": -997.46441438, 
			 "HOMO_LUMO_gap": 0.1579, 
			 "cosmo_polarized_energy": -14.6, 
			 "cosmo_cavitation_energy": 47.23, 
			 "cosmo_dispersion_energy": -32.36, 
			 "cosmo_repulsion_energy": 2.48, 
			 "cosmo_total_nonelectrostatic_energy": 17.35, 
			 "SMD_solvation_energy": 7.71 
		},
		"coords": [
			{
				"x": -0.0256468119,
				"y": -4.7069504027,
				"z": 1.7389695065,
				"element": "C" 
			},
			{
				"x": -0.4545708265,
				"y": -3.7611354975,
				"z": 2.8641353351,
				"element": "C" 
			},
			{
				"x": 0.6044014319,
				"y": -3.7196798503,
				"z": 3.971259872,
				"element": "C" 
			},
			{
				"x": -1.8385739492,
				"y": -4.1455059367,
				"z": 3.3984910278,
				"element": "C" 
			},
			{
				"x": -0.5189732023,
				"y": -2.4607321979,
				"z": 2.1802186394,
				"element": "O" 
			},
			{
				"x": -0.8858995387,
				"y": -1.3395547883,
				"z": 2.850949314,
				"element": "C" 
			},
			{
				"x": -1.1647911356,
				"y": -1.276278941,
				"z": 4.0413106697,
				"element": "O" 
			},
			{
				"x": -0.9053343786,
				"y": -0.2625472999,
				"z": 2.0063509448,
				"element": "N" 
			},
			{
				"x": -0.5265767548,
				"y": -0.338950727,
				"z": 0.5914969552,
				"element": "C" 
			},
			{
				"x": -1.0328963967,
				"y": 0.8998843518,
				"z": -0.1407348812,
				"element": "C" 
			},
			{
				"x": -0.4418896672,
				"y": 2.1277523092,
				"z": 0.4023929494,
				"element": "N" 
			},
			{
				"x": -1.0893346496,
				"y": 3.3257459289,
				"z": -0.1210171523,
				"element": "C" 
			},
			{
				"x": -0.8030470014,
				"y": 3.5567763385,
				"z": -1.5962887584,
				"element": "C" 
			},
			{
				"x": -1.8014137984,
				"y": 4.0221374156,
				"z": -2.4588562957,
				"element": "C" 
			},
			{
				"x": -1.528498329,
				"y": 4.2899658186,
				"z": -3.8061806647,
				"element": "C" 
			},
			{
				"x": -0.25036839,
				"y": 4.0857004247,
				"z": -4.311137806,
				"element": "C" 
			},
			{
				"x": 0.7601113788,
				"y": 3.6102213997,
				"z": -3.4598017213,
				"element": "C" 
			},
			{
				"x": 2.1269518577,
				"y": 3.3795317105,
				"z": -3.9810775283,
				"element": "C" 
			},
			{
				"x": 2.4714509135,
				"y": 3.57398612,
				"z": -5.1315537904,
				"element": "O" 
			},
			{
				"x": 0.4806590524,
				"y": 3.3508750445,
				"z": -2.1139841289,
				"element": "C" 
			},
			{
				"x": -0.2843239127,
				"y": 2.095919016,
				"z": 1.8721055383,
				"element": "C" 
			},
			{
				"x": -1.1810223438,
				"y": 1.0632981302,
				"z": 2.5595743149,
				"element": "C" 
			},
			{
				"x": 0.9403698456,
				"y": -4.4025054401,
				"z": 1.3256865527,
				"element": "H" 
			},
			{
				"x": 0.0671892979,
				"y": -5.7279521057,
				"z": 2.1209154132,
				"element": "H" 
			},
			{
				"x": -0.7626725263,
				"y": -4.7058031657,
				"z": 0.9304387983,
				"element": "H" 
			},
			{
				"x": 0.7274722087,
				"y": -4.7195404724,
				"z": 4.4002447128,
				"element": "H" 
			},
			{
				"x": 0.3132854317,
				"y": -3.0281933349,
				"z": 4.7619989612,
				"element": "H" 
			},
			{
				"x": 1.5695703143,
				"y": -3.4054403861,
				"z": 3.561136197,
				"element": "H" 
			},
			{
				"x": -2.1564789726,
				"y": -3.4611864689,
				"z": 4.1851888221,
				"element": "H" 
			},
			{
				"x": -2.5764968348,
				"y": -4.1257543554,
				"z": 2.5899876383,
				"element": "H" 
			},
			{
				"x": -1.8066174995,
				"y": -5.1623082036,
				"z": 3.8034019448,
				"element": "H" 
			},
			{
				"x": -0.9657324088,
				"y": -1.2336771797,
				"z": 0.1456036035,
				"element": "H" 
			},
			{
				"x": 0.563944742,
				"y": -0.4180340337,
				"z": 0.4794973302,
				"element": "H" 
			},
			{
				"x": -0.7739097613,
				"y": 0.8166318044,
				"z": -1.20147596,
				"element": "H" 
			},
			{
				"x": -2.1385157219,
				"y": 0.9186969045,
				"z": -0.0852973029,
				"element": "H" 
			},
			{
				"x": -2.1869744538,
				"y": 3.3181554545,
				"z": 0.031379094,
				"element": "H" 
			},
			{
				"x": -0.7041108724,
				"y": 4.1846267569,
				"z": 0.4425574356,
				"element": "H" 
			},
			{
				"x": -2.8069209115,
				"y": 4.1765466224,
				"z": -2.0740867833,
				"element": "H" 
			},
			{
				"x": -2.3214436696,
				"y": 4.650549192,
				"z": -4.4549811343,
				"element": "H" 
			},
			{
				"x": -0.0074267611,
				"y": 4.2783993068,
				"z": -5.3511769863,
				"element": "H" 
			},
			{
				"x": 2.8509552957,
				"y": 3.0010493075,
				"z": -3.2249073124,
				"element": "H" 
			},
			{
				"x": 1.258516248,
				"y": 2.9711187189,
				"z": -1.4556557326,
				"element": "H" 
			},
			{
				"x": -0.500232659,
				"y": 3.0866853009,
				"z": 2.284626729,
				"element": "H" 
			},
			{
				"x": 0.7609147667,
				"y": 1.8672846835,
				"z": 2.1217527206,
				"element": "H" 
			},
			{
				"x": -0.9839203178,
				"y": 1.0288811485,
				"z": 3.632498394,
				"element": "H" 
			},
			{
				"x": -2.240678328,
				"y": 1.3270115788,
				"z": 2.4306445245,
				"element": "H" 
			}
		],
		 "valence_orbital": [ 
			{
				"type": "occ",
				"energy": -0.25934,
				"method": "rhf"
			},
			{
				"type": "occ",
				"energy": -0.25733,
				"method": "rhf"
			},
			{
				"type": "occ",
				"energy": -0.25363,
				"method": "rhf"
			},
			{
				"type": "occ",
				"energy": -0.23711,
				"method": "rhf"
			},
			{
				"type": "occ",
				"energy": -0.21993,
				"method": "rhf"
			},
			{
				"type": "unocc",
				"energy": -0.06203,
				"method": "rhf"
			},
			{
				"type": "unocc",
				"energy": -0.01698,
				"method": "rhf"
			},
			{
				"type": "unocc",
				"energy": 0.03749,
				"method": "rhf"
			},
			{
				"type": "unocc",
				"energy": 0.0545,
				"method": "rhf"
			},
			{
				"type": "unocc",
				"energy": 0.07333,
				"method": "rhf"
			}
		],
		"cosmo_sigma_profile": { 
			"-0.025": 0.0,
			"-0.024": 0.0,
			"-0.023": 0.0,
			"-0.022": 0.0,
			"-0.021": 0.0,
			"-0.02": 0.0,
			"-0.019": 0.0,
			"-0.018": 0.0,
			"-0.017": 0.0,
			"-0.016": 0.0,
			"-0.015": 0.0,
			"-0.014": 0.0,
			"-0.013": 0.0,
			"-0.012": 0.0,
			"-0.011": 0.0,
			"-0.01": 0.0,
			"-0.009": 0.0,
			"-0.008": 0.0208508421161,
			"-0.007": 2.09635282037,
			"-0.006": 12.0226863562,
			"-0.005": 16.3820167629,
			"-0.004": 37.5140297263,
			"-0.003": 51.1289510217,
			"-0.002": 43.1415627071,
			"-0.001": 35.8023056995,
			"0.0": 38.9628702895,
			"0.001": 35.018345863,
			"0.002": 19.3647551385,
			"0.003": 16.5070724169,
			"0.004": 14.9380731409,
			"0.005": 7.39177914118,
			"0.006": 5.90561582292,
			"0.007": 4.76433882214,
			"0.008": 4.76806275116,
			"0.009": 3.41359473977,
			"0.01": 3.86599784689,
			"0.011": 6.14918995759,
			"0.012": 4.95544772491,
			"0.013": 3.35359410542,
			"0.014": 2.25079782638,
			"0.015": 0.000125432708066,
			"0.016": 0.0,
			"0.017": 0.0,
			"0.018": 0.0,
			"0.019": 0.0,
			"0.02": 0.0,
			"0.021": 0.0,
			"0.022": 0.0,
			"0.023": 0.0,
			"0.024": 0.0,
			"0.025": 0.0
		}
	}
}
