{
	 "smiles": "O=CC1=CC=C(S1)C1=CC=CO1", 
	 "Tm": 313.65, 
	 "num_atms": 18, 
	 "gaussian": { 
		 "optdone": 1, 
		 "sigma_profile": "yes", 
		 "theory": "DFT", 
		 "functional": "B3LYP", 
		 "basiset": "6-31G**", 
		 "properties": { 
			 "R2extent": 3028.9128, 
			 "electric_dipole_moment_norm": 4.61076049042, 
			 "electric_quadrupole_moment_norm": 12.2883799852, 
			 "total_energy": -895.16195263, 
			 "HOMO_LUMO_gap": 0.13625, 
			 "cosmo_polarized_energy": -9.14, 
			 "cosmo_cavitation_energy": 25.19, 
			 "cosmo_dispersion_energy": -18.84, 
			 "cosmo_repulsion_energy": 1.43, 
			 "cosmo_total_nonelectrostatic_energy": 7.78, 
			 "SMD_solvation_energy": 6.02 
		},
		"coords": [
			{
				"x": -0.7387670097,
				"y": -4.8835821781,
				"z": -1.2623080766,
				"element": "O" 
			},
			{
				"x": -0.669368611,
				"y": -4.0394404999,
				"z": -0.384015387,
				"element": "C" 
			},
			{
				"x": -0.6600575446,
				"y": -2.6030307024,
				"z": -0.6460715614,
				"element": "C" 
			},
			{
				"x": -0.7250300486,
				"y": -1.9748307489,
				"z": -1.8738379037,
				"element": "C" 
			},
			{
				"x": -0.6945656492,
				"y": -0.5676517581,
				"z": -1.7858707275,
				"element": "C" 
			},
			{
				"x": -0.6054890712,
				"y": -0.1071025552,
				"z": -0.4808479353,
				"element": "C" 
			},
			{
				"x": -0.5586729147,
				"y": -1.4297504633,
				"z": 0.6525051249,
				"element": "S" 
			},
			{
				"x": -0.553808262,
				"y": 1.2624432269,
				"z": -0.0374104795,
				"element": "C" 
			},
			{
				"x": -0.4673573733,
				"y": 1.8662361399,
				"z": 1.1936416453,
				"element": "C" 
			},
			{
				"x": -0.456746515,
				"y": 3.273802817,
				"z": 0.9579291067,
				"element": "C" 
			},
			{
				"x": -0.5370554307,
				"y": 3.4331368273,
				"z": -0.3936072699,
				"element": "C" 
			},
			{
				"x": -0.5968402422,
				"y": 2.2239460709,
				"z": -1.0153126448,
				"element": "O" 
			},
			{
				"x": -0.608188216,
				"y": -4.3300976766,
				"z": 0.6871264052,
				"element": "H" 
			},
			{
				"x": -0.7922934662,
				"y": -2.538766131,
				"z": -2.7965543708,
				"element": "H" 
			},
			{
				"x": -0.735269451,
				"y": 0.1039918078,
				"z": -2.6342752527,
				"element": "H" 
			},
			{
				"x": -0.4175887897,
				"y": 1.3648375125,
				"z": 2.1496080513,
				"element": "H" 
			},
			{
				"x": -0.3973318784,
				"y": 4.0598612415,
				"z": 1.6964473853,
				"element": "H" 
			},
			{
				"x": -0.5615695264,
				"y": 4.2952970698,
				"z": -1.0416461096,
				"element": "H" 
			}
		],
		 "valence_orbital": [ 
			{
				"type": "occ",
				"energy": -0.29727,
				"method": "rhf"
			},
			{
				"type": "occ",
				"energy": -0.28336,
				"method": "rhf"
			},
			{
				"type": "occ",
				"energy": -0.26962,
				"method": "rhf"
			},
			{
				"type": "occ",
				"energy": -0.25459,
				"method": "rhf"
			},
			{
				"type": "occ",
				"energy": -0.21439,
				"method": "rhf"
			},
			{
				"type": "unocc",
				"energy": -0.07814,
				"method": "rhf"
			},
			{
				"type": "unocc",
				"energy": -0.01392,
				"method": "rhf"
			},
			{
				"type": "unocc",
				"energy": 0.0082,
				"method": "rhf"
			},
			{
				"type": "unocc",
				"energy": 0.03431,
				"method": "rhf"
			},
			{
				"type": "unocc",
				"energy": 0.07335,
				"method": "rhf"
			}
		],
		"cosmo_sigma_profile": { 
			"-0.025": 0.0,
			"-0.024": 0.0,
			"-0.023": 0.0,
			"-0.022": 0.0,
			"-0.021": 0.0,
			"-0.02": 0.0,
			"-0.019": 0.0,
			"-0.018": 0.0,
			"-0.017": 0.0,
			"-0.016": 0.0,
			"-0.015": 0.0,
			"-0.014": 0.0,
			"-0.013": 0.0,
			"-0.012": 0.0,
			"-0.011": 0.0,
			"-0.01": 0.392069896108,
			"-0.009": 1.87746696511,
			"-0.008": 6.49839729263,
			"-0.007": 10.9553086929,
			"-0.006": 12.9867616408,
			"-0.005": 9.93591321792,
			"-0.004": 11.410238469,
			"-0.003": 11.2709912368,
			"-0.002": 10.7029514266,
			"-0.001": 10.5139964168,
			"0.0": 14.7392216375,
			"0.001": 27.0179757483,
			"0.002": 26.0364321252,
			"0.003": 18.4053372389,
			"0.004": 9.40262058429,
			"0.005": 3.70991120537,
			"0.006": 3.022585537,
			"0.007": 1.41448054695,
			"0.008": 1.92699879378,
			"0.009": 1.9028364577,
			"0.01": 1.91955082585,
			"0.011": 3.85745344942,
			"0.012": 4.26776561913,
			"0.013": 1.52126755697,
			"0.014": 0.110368012116,
			"0.015": 0.0,
			"0.016": 0.0,
			"0.017": 0.0,
			"0.018": 0.0,
			"0.019": 0.0,
			"0.02": 0.0,
			"0.021": 0.0,
			"0.022": 0.0,
			"0.023": 0.0,
			"0.024": 0.0,
			"0.025": 0.0
		}
	}
}
