{
	 "smiles": "[O-][N+](=O)C1=CC=C(O1)C(Cl)=O", 
	 "Tm": 313.15, 
	 "num_atms": 13, 
	 "gaussian": { 
		 "optdone": 1, 
		 "sigma_profile": "yes", 
		 "theory": "DFT", 
		 "functional": "B3LYP", 
		 "basiset": "6-31G**", 
		 "properties": { 
			 "R2extent": 3155.8264, 
			 "electric_dipole_moment_norm": 4.23825122073, 
			 "electric_quadrupole_moment_norm": 13.5904422456, 
			 "total_energy": -1007.43475212, 
			 "HOMO_LUMO_gap": 0.1696, 
			 "cosmo_polarized_energy": -11.26, 
			 "cosmo_cavitation_energy": 21.95, 
			 "cosmo_dispersion_energy": -16.03, 
			 "cosmo_repulsion_energy": 1.31, 
			 "cosmo_total_nonelectrostatic_energy": 7.22, 
			 "SMD_solvation_energy": 7.76 
		},
		"coords": [
			{
				"x": 0.555608679,
				"y": 1.9698741874,
				"z": -0.2709366621,
				"element": "O" 
			},
			{
				"x": -0.6094351397,
				"y": 1.5907301712,
				"z": -0.2434534363,
				"element": "N" 
			},
			{
				"x": -1.593799883,
				"y": 2.2455018973,
				"z": 0.1036129806,
				"element": "O" 
			},
			{
				"x": -0.8872597291,
				"y": 0.2386202121,
				"z": -0.6557951325,
				"element": "C" 
			},
			{
				"x": -2.0792631301,
				"y": -0.4320907738,
				"z": -0.7215166346,
				"element": "C" 
			},
			{
				"x": -1.7430323514,
				"y": -1.725546304,
				"z": -1.1953352214,
				"element": "C" 
			},
			{
				"x": -0.3778243069,
				"y": -1.7312411071,
				"z": -1.3770947641,
				"element": "C" 
			},
			{
				"x": 0.1517080725,
				"y": -0.5161113217,
				"z": -1.0432904674,
				"element": "O" 
			},
			{
				"x": 0.5845256811,
				"y": -2.7313868655,
				"z": -1.8359958795,
				"element": "C" 
			},
			{
				"x": -0.2175389232,
				"y": -4.3031471136,
				"z": -2.2526876249,
				"element": "Cl" 
			},
			{
				"x": 1.7626742677,
				"y": -2.5820243444,
				"z": -1.9413574332,
				"element": "O" 
			},
			{
				"x": -3.0483197604,
				"y": -0.035897638,
				"z": -0.4623218181,
				"element": "H" 
			},
			{
				"x": -2.4101434766,
				"y": -2.5530809999,
				"z": -1.3822279064,
				"element": "H" 
			}
		],
		 "valence_orbital": [ 
			{
				"type": "occ",
				"energy": -0.33254,
				"method": "rhf"
			},
			{
				"type": "occ",
				"energy": -0.33103,
				"method": "rhf"
			},
			{
				"type": "occ",
				"energy": -0.32113,
				"method": "rhf"
			},
			{
				"type": "occ",
				"energy": -0.31734,
				"method": "rhf"
			},
			{
				"type": "occ",
				"energy": -0.29874,
				"method": "rhf"
			},
			{
				"type": "unocc",
				"energy": -0.12914,
				"method": "rhf"
			},
			{
				"type": "unocc",
				"energy": -0.07656,
				"method": "rhf"
			},
			{
				"type": "unocc",
				"energy": -0.0035,
				"method": "rhf"
			},
			{
				"type": "unocc",
				"energy": 0.01514,
				"method": "rhf"
			},
			{
				"type": "unocc",
				"energy": 0.04931,
				"method": "rhf"
			}
		],
		"cosmo_sigma_profile": { 
			"-0.025": 0.0,
			"-0.024": 0.0,
			"-0.023": 0.0,
			"-0.022": 0.0,
			"-0.021": 0.0,
			"-0.02": 0.0,
			"-0.019": 0.0,
			"-0.018": 0.0,
			"-0.017": 0.0,
			"-0.016": 0.0,
			"-0.015": 0.0,
			"-0.014": 0.0,
			"-0.013": 0.0,
			"-0.012": 0.0591317753777,
			"-0.011": 1.86563433247,
			"-0.01": 2.95755885331,
			"-0.009": 5.03750929411,
			"-0.008": 4.54312779373,
			"-0.007": 6.69208962592,
			"-0.006": 10.5206107261,
			"-0.005": 11.0981116364,
			"-0.004": 11.9664041595,
			"-0.003": 11.6177545272,
			"-0.002": 12.9696805822,
			"-0.001": 8.18445148367,
			"0.0": 7.14112648445,
			"0.001": 8.82689544895,
			"0.002": 10.0246468326,
			"0.003": 11.873484727,
			"0.004": 7.63958239355,
			"0.005": 8.05542112181,
			"0.006": 11.6223248066,
			"0.007": 14.8778152044,
			"0.008": 9.87889773846,
			"0.009": 2.78940853653,
			"0.01": 0.0513897816775,
			"0.011": 0.0,
			"0.012": 0.0,
			"0.013": 0.0,
			"0.014": 0.0,
			"0.015": 0.0,
			"0.016": 0.0,
			"0.017": 0.0,
			"0.018": 0.0,
			"0.019": 0.0,
			"0.02": 0.0,
			"0.021": 0.0,
			"0.022": 0.0,
			"0.023": 0.0,
			"0.024": 0.0,
			"0.025": 0.0
		}
	}
}
