{
	 "smiles": "CCCCOP(O)(=O)OCCCC", 
	 "Tm": 260.15, 
	 "num_atms": 32, 
	 "gaussian": { 
		 "optdone": 1, 
		 "sigma_profile": "yes", 
		 "theory": "DFT", 
		 "functional": "B3LYP", 
		 "basiset": "6-31G**", 
		 "properties": { 
			 "R2extent": 4461.364, 
			 "electric_dipole_moment_norm": 3.43707968339, 
			 "electric_quadrupole_moment_norm": 11.6013459004, 
			 "total_energy": -958.652829401, 
			 "HOMO_LUMO_gap": 0.33035, 
			 "cosmo_polarized_energy": -13.96, 
			 "cosmo_cavitation_energy": 35.96, 
			 "cosmo_dispersion_energy": -25.03, 
			 "cosmo_repulsion_energy": 2.08, 
			 "cosmo_total_nonelectrostatic_energy": 13.0, 
			 "SMD_solvation_energy": 7.86 
		},
		"coords": [
			{
				"x": -1.724940629,
				"y": -2.1201987029,
				"z": 2.034017399,
				"element": "C" 
			},
			{
				"x": -0.686566843,
				"y": -2.8513368367,
				"z": 2.8937912043,
				"element": "C" 
			},
			{
				"x": 0.6972767319,
				"y": -3.0344358012,
				"z": 2.2462759353,
				"element": "C" 
			},
			{
				"x": 1.5593122508,
				"y": -1.7842284515,
				"z": 2.1380499842,
				"element": "C" 
			},
			{
				"x": 1.0072963603,
				"y": -0.8931859246,
				"z": 1.1338841727,
				"element": "O" 
			},
			{
				"x": 1.6879165747,
				"y": 0.5448699379,
				"z": 0.9082414212,
				"element": "P" 
			},
			{
				"x": 3.0783607251,
				"y": 0.1344750253,
				"z": 0.1644875532,
				"element": "O" 
			},
			{
				"x": 1.8784558122,
				"y": 1.4248990104,
				"z": 2.0779614484,
				"element": "O" 
			},
			{
				"x": 0.7468959027,
				"y": 1.1630833991,
				"z": -0.2251040295,
				"element": "O" 
			},
			{
				"x": 0.4682527411,
				"y": 0.4551980159,
				"z": -1.4586686115,
				"element": "C" 
			},
			{
				"x": -0.3493475897,
				"y": 1.3736038049,
				"z": -2.3528401275,
				"element": "C" 
			},
			{
				"x": -0.7112147108,
				"y": 0.7116333216,
				"z": -3.6890637714,
				"element": "C" 
			},
			{
				"x": -1.5359426212,
				"y": 1.6270328961,
				"z": -4.599490759,
				"element": "C" 
			},
			{
				"x": -1.4210367638,
				"y": -1.0938497356,
				"z": 1.8176376462,
				"element": "H" 
			},
			{
				"x": -2.6943245237,
				"y": -2.0897846193,
				"z": 2.5427097207,
				"element": "H" 
			},
			{
				"x": -1.8692286264,
				"y": -2.6324659138,
				"z": 1.0754929563,
				"element": "H" 
			},
			{
				"x": -0.5640141475,
				"y": -2.3257723005,
				"z": 3.8507261344,
				"element": "H" 
			},
			{
				"x": -1.0733964327,
				"y": -3.8470486789,
				"z": 3.1456687318,
				"element": "H" 
			},
			{
				"x": 0.595315053,
				"y": -3.4795766968,
				"z": 1.2480372425,
				"element": "H" 
			},
			{
				"x": 1.2755827346,
				"y": -3.7504057009,
				"z": 2.8454980031,
				"element": "H" 
			},
			{
				"x": 2.5794621887,
				"y": -2.047427129,
				"z": 1.8359838622,
				"element": "H" 
			},
			{
				"x": 1.6037023096,
				"y": -1.2492277096,
				"z": 3.0935194163,
				"element": "H" 
			},
			{
				"x": 3.7657223506,
				"y": 0.7726641514,
				"z": 0.4025251449,
				"element": "H" 
			},
			{
				"x": 1.4171166922,
				"y": 0.1798243139,
				"z": -1.9334654483,
				"element": "H" 
			},
			{
				"x": -0.0803815365,
				"y": -0.4622174647,
				"z": -1.2204521875,
				"element": "H" 
			},
			{
				"x": -1.2612957734,
				"y": 1.6658593864,
				"z": -1.8181002419,
				"element": "H" 
			},
			{
				"x": 0.2202803743,
				"y": 2.2940780731,
				"z": -2.5303650587,
				"element": "H" 
			},
			{
				"x": -1.2704443932,
				"y": -0.2143097857,
				"z": -3.4986151219,
				"element": "H" 
			},
			{
				"x": 0.2081386791,
				"y": 0.4107084632,
				"z": -4.209443016,
				"element": "H" 
			},
			{
				"x": -2.477698467,
				"y": 1.9169513723,
				"z": -4.1204729582,
				"element": "H" 
			},
			{
				"x": -0.9890456571,
				"y": 2.5463868935,
				"z": -4.8365335648,
				"element": "H" 
			},
			{
				"x": -1.781008766,
				"y": 1.1318033865,
				"z": -5.5443930805,
				"element": "H" 
			}
		],
		 "valence_orbital": [ 
			{
				"type": "occ",
				"energy": -0.32399,
				"method": "rhf"
			},
			{
				"type": "occ",
				"energy": -0.31241,
				"method": "rhf"
			},
			{
				"type": "occ",
				"energy": -0.30084,
				"method": "rhf"
			},
			{
				"type": "occ",
				"energy": -0.29125,
				"method": "rhf"
			},
			{
				"type": "occ",
				"energy": -0.28407,
				"method": "rhf"
			},
			{
				"type": "unocc",
				"energy": 0.04628,
				"method": "rhf"
			},
			{
				"type": "unocc",
				"energy": 0.08363,
				"method": "rhf"
			},
			{
				"type": "unocc",
				"energy": 0.08795,
				"method": "rhf"
			},
			{
				"type": "unocc",
				"energy": 0.09422,
				"method": "rhf"
			},
			{
				"type": "unocc",
				"energy": 0.10768,
				"method": "rhf"
			}
		],
		"cosmo_sigma_profile": { 
			"-0.025": 0.0,
			"-0.024": 0.0,
			"-0.023": 0.0,
			"-0.022": 0.0,
			"-0.021": 0.0,
			"-0.02": 0.0,
			"-0.019": 0.512051221816,
			"-0.018": 1.12430864277,
			"-0.017": 0.903751233949,
			"-0.016": 0.622871036735,
			"-0.015": 0.770428085982,
			"-0.014": 0.888449961795,
			"-0.013": 1.12056847435,
			"-0.012": 0.322152279791,
			"-0.011": 0.81092240118,
			"-0.01": 0.710770066586,
			"-0.009": 0.484038748885,
			"-0.008": 0.564041727297,
			"-0.007": 0.997691868146,
			"-0.006": 1.30381753393,
			"-0.005": 7.69147531608,
			"-0.004": 18.3490725,
			"-0.003": 32.9814367995,
			"-0.002": 38.0623739201,
			"-0.001": 35.1220301053,
			"0.0": 36.7741327963,
			"0.001": 30.8500744229,
			"0.002": 15.7415960856,
			"0.003": 7.13999804626,
			"0.004": 5.84757804445,
			"0.005": 5.26747170737,
			"0.006": 3.67847682794,
			"0.007": 2.7115907043,
			"0.008": 3.50006413783,
			"0.009": 3.16330981743,
			"0.01": 3.44748168157,
			"0.011": 1.54261677784,
			"0.012": 1.61223386776,
			"0.013": 1.87635644526,
			"0.014": 6.92222866577,
			"0.015": 2.52145797424,
			"0.016": 0.0,
			"0.017": 0.0,
			"0.018": 0.0,
			"0.019": 0.0,
			"0.02": 0.0,
			"0.021": 0.0,
			"0.022": 0.0,
			"0.023": 0.0,
			"0.024": 0.0,
			"0.025": 0.0
		}
	}
}
