{
	 "smiles": "O=CC1=CC=CC(OC2=NC=CC=C2)=C1", 
	 "Tm": 389.15, 
	 "num_atms": 24, 
	 "gaussian": { 
		 "optdone": 1, 
		 "sigma_profile": "yes", 
		 "theory": "DFT", 
		 "functional": "B3LYP", 
		 "basiset": "6-31G**", 
		 "properties": { 
			 "R2extent": 3905.9225, 
			 "electric_dipole_moment_norm": 4.57830545617, 
			 "electric_quadrupole_moment_norm": 12.9402152215, 
			 "total_energy": -667.882499879, 
			 "HOMO_LUMO_gap": 0.17402, 
			 "cosmo_polarized_energy": -10.53, 
			 "cosmo_cavitation_energy": 29.58, 
			 "cosmo_dispersion_energy": -21.33, 
			 "cosmo_repulsion_energy": 1.67, 
			 "cosmo_total_nonelectrostatic_energy": 9.91, 
			 "SMD_solvation_energy": 5.7 
		},
		"coords": [
			{
				"x": 2.5943801805,
				"y": 4.0168005465,
				"z": 0.1366095827,
				"element": "O" 
			},
			{
				"x": 2.2802966196,
				"y": 2.8419792961,
				"z": 0.1509673529,
				"element": "C" 
			},
			{
				"x": 0.8865972566,
				"y": 2.3420158664,
				"z": 0.1026990154,
				"element": "C" 
			},
			{
				"x": -0.185854883,
				"y": 3.2448248083,
				"z": 0.0315230536,
				"element": "C" 
			},
			{
				"x": -1.487607944,
				"y": 2.759159101,
				"z": -0.0073777636,
				"element": "C" 
			},
			{
				"x": -1.7257532826,
				"y": 1.3809627283,
				"z": 0.0166782672,
				"element": "C" 
			},
			{
				"x": -0.6547774228,
				"y": 0.4903169264,
				"z": 0.0862507754,
				"element": "C" 
			},
			{
				"x": -0.9780468156,
				"y": -0.8521863657,
				"z": 0.2119566705,
				"element": "O" 
			},
			{
				"x": -0.3755297648,
				"y": -1.8182288314,
				"z": -0.5487625346,
				"element": "C" 
			},
			{
				"x": 0.4161858425,
				"y": -1.4741192063,
				"z": -1.5521318826,
				"element": "N" 
			},
			{
				"x": 0.9546312785,
				"y": -2.4660968413,
				"z": -2.2806143799,
				"element": "C" 
			},
			{
				"x": 0.7217905642,
				"y": -3.814566718,
				"z": -2.0361372455,
				"element": "C" 
			},
			{
				"x": -0.1189348687,
				"y": -4.1519617795,
				"z": -0.9678124811,
				"element": "C" 
			},
			{
				"x": -0.6831670245,
				"y": -3.1429031981,
				"z": -0.2009966874,
				"element": "C" 
			},
			{
				"x": 0.6564530817,
				"y": 0.9623381004,
				"z": 0.1348585433,
				"element": "C" 
			},
			{
				"x": 3.0550779999,
				"y": 2.04446524,
				"z": 0.2031452265,
				"element": "H" 
			},
			{
				"x": 0.0301206659,
				"y": 4.3077037703,
				"z": 0.0095556375,
				"element": "H" 
			},
			{
				"x": -2.32735199,
				"y": 3.4455059254,
				"z": -0.0601040414,
				"element": "H" 
			},
			{
				"x": -2.7346025071,
				"y": 0.982505226,
				"z": -0.0131160605,
				"element": "H" 
			},
			{
				"x": 1.6004044634,
				"y": -2.1530401471,
				"z": -3.0985598827,
				"element": "H" 
			},
			{
				"x": 1.181701462,
				"y": -4.575534381,
				"z": -2.6570570732,
				"element": "H" 
			},
			{
				"x": -0.3293337627,
				"y": -5.1921618612,
				"z": -0.7368973482,
				"element": "H" 
			},
			{
				"x": -1.3403633047,
				"y": -3.3433705337,
				"z": 0.6372482082,
				"element": "H" 
			},
			{
				"x": 1.4886841556,
				"y": 0.269392328,
				"z": 0.1883750474,
				"element": "H" 
			}
		],
		 "valence_orbital": [ 
			{
				"type": "occ",
				"energy": -0.27993,
				"method": "rhf"
			},
			{
				"type": "occ",
				"energy": -0.2638,
				"method": "rhf"
			},
			{
				"type": "occ",
				"energy": -0.26232,
				"method": "rhf"
			},
			{
				"type": "occ",
				"energy": -0.25254,
				"method": "rhf"
			},
			{
				"type": "occ",
				"energy": -0.23425,
				"method": "rhf"
			},
			{
				"type": "unocc",
				"energy": -0.06023,
				"method": "rhf"
			},
			{
				"type": "unocc",
				"energy": -0.03323,
				"method": "rhf"
			},
			{
				"type": "unocc",
				"energy": -0.016,
				"method": "rhf"
			},
			{
				"type": "unocc",
				"energy": -0.00134,
				"method": "rhf"
			},
			{
				"type": "unocc",
				"energy": 0.04402,
				"method": "rhf"
			}
		],
		"cosmo_sigma_profile": { 
			"-0.025": 0.0,
			"-0.024": 0.0,
			"-0.023": 0.0,
			"-0.022": 0.0,
			"-0.021": 0.0,
			"-0.02": 0.0,
			"-0.019": 0.0,
			"-0.018": 0.0,
			"-0.017": 0.0,
			"-0.016": 0.0,
			"-0.015": 0.0,
			"-0.014": 0.0,
			"-0.013": 0.0,
			"-0.012": 0.0,
			"-0.011": 0.0,
			"-0.01": 0.0,
			"-0.009": 0.0911778773397,
			"-0.008": 2.58769308856,
			"-0.007": 12.8777433532,
			"-0.006": 18.2780607147,
			"-0.005": 18.5311606094,
			"-0.004": 16.4690372928,
			"-0.003": 13.1218423275,
			"-0.002": 13.4409743973,
			"-0.001": 13.4481864425,
			"0.0": 16.7044754332,
			"0.001": 22.7019353383,
			"0.002": 26.7374228093,
			"0.003": 22.4157371725,
			"0.004": 7.83285609819,
			"0.005": 5.05208242564,
			"0.006": 3.66675213617,
			"0.007": 4.528092842,
			"0.008": 2.98205504516,
			"0.009": 3.57227661433,
			"0.01": 3.4984840017,
			"0.011": 5.18713300849,
			"0.012": 3.61569105183,
			"0.013": 1.08858309255,
			"0.014": 0.0514114934205,
			"0.015": 0.0,
			"0.016": 0.0,
			"0.017": 0.0,
			"0.018": 0.0,
			"0.019": 0.0,
			"0.02": 0.0,
			"0.021": 0.0,
			"0.022": 0.0,
			"0.023": 0.0,
			"0.024": 0.0,
			"0.025": 0.0
		}
	}
}
