{
	 "smiles": "NC(=O)C1=C(F)C=NC=C1", 
	 "Tm": 400.15, 
	 "num_atms": 15, 
	 "gaussian": { 
		 "optdone": 1, 
		 "sigma_profile": "yes", 
		 "theory": "DFT", 
		 "functional": "B3LYP", 
		 "basiset": "6-31G**", 
		 "properties": { 
			 "R2extent": 2546.8264, 
			 "electric_dipole_moment_norm": 4.08523331402, 
			 "electric_quadrupole_moment_norm": 12.8522530784, 
			 "total_energy": -516.213142838, 
			 "HOMO_LUMO_gap": 0.20014, 
			 "cosmo_polarized_energy": -15.35, 
			 "cosmo_cavitation_energy": 20.43, 
			 "cosmo_dispersion_energy": -15.0, 
			 "cosmo_repulsion_energy": 1.21, 
			 "cosmo_total_nonelectrostatic_energy": 6.63, 
			 "SMD_solvation_energy": 3.57 
		},
		"coords": [
			{
				"x": 1.7386918833,
				"y": -0.8870268921,
				"z": -1.8181281441,
				"element": "N" 
			},
			{
				"x": 1.7265643829,
				"y": -1.2257897844,
				"z": -0.4876111086,
				"element": "C" 
			},
			{
				"x": 2.6472172399,
				"y": -0.9719266331,
				"z": 0.2707953543,
				"element": "O" 
			},
			{
				"x": 0.4520523388,
				"y": -1.8846345433,
				"z": -0.0236583441,
				"element": "C" 
			},
			{
				"x": 0.4679461816,
				"y": -2.9063083518,
				"z": 0.9282359193,
				"element": "C" 
			},
			{
				"x": 1.6240811919,
				"y": -3.3850084264,
				"z": 1.4046820768,
				"element": "F" 
			},
			{
				"x": -0.7237458128,
				"y": -3.4731050064,
				"z": 1.3774572661,
				"element": "C" 
			},
			{
				"x": -1.9221878766,
				"y": -3.072847603,
				"z": 0.9453608923,
				"element": "N" 
			},
			{
				"x": -1.9555469587,
				"y": -2.0878311302,
				"z": 0.0388190677,
				"element": "C" 
			},
			{
				"x": -0.8113490087,
				"y": -1.4757951854,
				"z": -0.4713287628,
				"element": "C" 
			},
			{
				"x": 1.1187516502,
				"y": -1.3401768455,
				"z": -2.4715191241,
				"element": "H" 
			},
			{
				"x": 2.6099459746,
				"y": -0.5215539784,
				"z": -2.1755629808,
				"element": "H" 
			},
			{
				"x": -0.6859252945,
				"y": -4.2758144724,
				"z": 2.1104091963,
				"element": "H" 
			},
			{
				"x": -2.9417659498,
				"y": -1.7714033323,
				"z": -0.2932945035,
				"element": "H" 
			},
			{
				"x": -0.8973299419,
				"y": -0.6674778152,
				"z": -1.1907568047,
				"element": "H" 
			}
		],
		 "valence_orbital": [ 
			{
				"type": "occ",
				"energy": -0.30189,
				"method": "rhf"
			},
			{
				"type": "occ",
				"energy": -0.28499,
				"method": "rhf"
			},
			{
				"type": "occ",
				"energy": -0.27678,
				"method": "rhf"
			},
			{
				"type": "occ",
				"energy": -0.26673,
				"method": "rhf"
			},
			{
				"type": "occ",
				"energy": -0.2584,
				"method": "rhf"
			},
			{
				"type": "unocc",
				"energy": -0.05826,
				"method": "rhf"
			},
			{
				"type": "unocc",
				"energy": -0.0223,
				"method": "rhf"
			},
			{
				"type": "unocc",
				"energy": 0.0313,
				"method": "rhf"
			},
			{
				"type": "unocc",
				"energy": 0.07175,
				"method": "rhf"
			},
			{
				"type": "unocc",
				"energy": 0.09711,
				"method": "rhf"
			}
		],
		"cosmo_sigma_profile": { 
			"-0.025": 0.0,
			"-0.024": 0.0,
			"-0.023": 0.0,
			"-0.022": 0.0,
			"-0.021": 0.0,
			"-0.02": 0.0,
			"-0.019": 0.0,
			"-0.018": 0.0,
			"-0.017": 0.0,
			"-0.016": 0.0,
			"-0.015": 0.552184643563,
			"-0.014": 2.43082508299,
			"-0.013": 2.57170363864,
			"-0.012": 2.1561527869,
			"-0.011": 2.7782273205,
			"-0.01": 2.66626717823,
			"-0.009": 2.03763283879,
			"-0.008": 5.43301581605,
			"-0.007": 7.10865663402,
			"-0.006": 7.95055894643,
			"-0.005": 7.18663915394,
			"-0.004": 6.52862085133,
			"-0.003": 6.86711341107,
			"-0.002": 11.1834794914,
			"-0.001": 14.0500579047,
			"0.0": 12.7517139381,
			"0.001": 9.72785462987,
			"0.002": 5.10644189097,
			"0.003": 10.7843854802,
			"0.004": 8.23611950779,
			"0.005": 3.14575891291,
			"0.006": 4.1278076362,
			"0.007": 3.89226553506,
			"0.008": 2.19025284685,
			"0.009": 2.62419038175,
			"0.01": 2.85385743219,
			"0.011": 3.00221686742,
			"0.012": 5.26773590345,
			"0.013": 6.25094126504,
			"0.014": 1.22142952292,
			"0.015": 1.00340581338,
			"0.016": 0.228292628318,
			"0.017": 0.0,
			"0.018": 0.0,
			"0.019": 0.0,
			"0.02": 0.0,
			"0.021": 0.0,
			"0.022": 0.0,
			"0.023": 0.0,
			"0.024": 0.0,
			"0.025": 0.0
		}
	}
}
