{
	 "smiles": "NC(C(N)=O)C1=CC=CC=C1", 
	 "Tm": 400.15, 
	 "num_atms": 21, 
	 "gaussian": { 
		 "optdone": 1, 
		 "sigma_profile": "yes", 
		 "theory": "DFT", 
		 "functional": "B3LYP", 
		 "basiset": "6-31G**", 
		 "properties": { 
			 "R2extent": 2920.9339, 
			 "electric_dipole_moment_norm": 3.08115197451, 
			 "electric_quadrupole_moment_norm": 14.3924914876, 
			 "total_energy": -495.61981082, 
			 "HOMO_LUMO_gap": 0.21752, 
			 "cosmo_polarized_energy": -13.13, 
			 "cosmo_cavitation_energy": 24.35, 
			 "cosmo_dispersion_energy": -17.86, 
			 "cosmo_repulsion_energy": 1.47, 
			 "cosmo_total_nonelectrostatic_energy": 7.95, 
			 "SMD_solvation_energy": 4.16 
		},
		"coords": [
			{
				"x": 0.7454608292,
				"y": -1.5022275408,
				"z": 0.8964043375,
				"element": "N" 
			},
			{
				"x": -0.5506993007,
				"y": -0.8547256539,
				"z": 0.7434615773,
				"element": "C" 
			},
			{
				"x": -1.4212345206,
				"y": -1.3102869593,
				"z": 1.9476651857,
				"element": "C" 
			},
			{
				"x": -2.7674342523,
				"y": -1.2858487095,
				"z": 1.7616049123,
				"element": "N" 
			},
			{
				"x": -0.9012269366,
				"y": -1.5925167497,
				"z": 3.0196704849,
				"element": "O" 
			},
			{
				"x": -1.1777721918,
				"y": -1.1418256632,
				"z": -0.6145261898,
				"element": "C" 
			},
			{
				"x": -0.9978103192,
				"y": -2.3860988433,
				"z": -1.2345416496,
				"element": "C" 
			},
			{
				"x": -1.6040267378,
				"y": -2.6586682703,
				"z": -2.4603953696,
				"element": "C" 
			},
			{
				"x": -2.3981606927,
				"y": -1.6936603379,
				"z": -3.08664835,
				"element": "C" 
			},
			{
				"x": -2.5769322316,
				"y": -0.4492560294,
				"z": -2.4811943556,
				"element": "C" 
			},
			{
				"x": -1.9664983961,
				"y": -0.175575105,
				"z": -1.2543114757,
				"element": "C" 
			},
			{
				"x": 1.4744340985,
				"y": -0.9513813523,
				"z": 0.4549010927,
				"element": "H" 
			},
			{
				"x": 0.9416434286,
				"y": -1.5735219318,
				"z": 1.8926168496,
				"element": "H" 
			},
			{
				"x": -0.5094551071,
				"y": 0.2456022592,
				"z": 0.8585792217,
				"element": "H" 
			},
			{
				"x": -3.162103423,
				"y": -1.2231263114,
				"z": 0.8362403421,
				"element": "H" 
			},
			{
				"x": -3.3468362382,
				"y": -1.6029844512,
				"z": 2.5241196654,
				"element": "H" 
			},
			{
				"x": -0.3625011467,
				"y": -3.1178961344,
				"z": -0.7465063373,
				"element": "H" 
			},
			{
				"x": -1.45466892,
				"y": -3.6264813055,
				"z": -2.9313165658,
				"element": "H" 
			},
			{
				"x": -2.8661549655,
				"y": -1.9075926699,
				"z": -4.0433183086,
				"element": "H" 
			},
			{
				"x": -3.1801543891,
				"y": 0.3129782236,
				"z": -2.9665339558,
				"element": "H" 
			},
			{
				"x": -2.0941685875,
				"y": 0.8023935362,
				"z": -0.7943711114,
				"element": "H" 
			}
		],
		 "valence_orbital": [ 
			{
				"type": "occ",
				"energy": -0.27464,
				"method": "rhf"
			},
			{
				"type": "occ",
				"energy": -0.26801,
				"method": "rhf"
			},
			{
				"type": "occ",
				"energy": -0.25377,
				"method": "rhf"
			},
			{
				"type": "occ",
				"energy": -0.24697,
				"method": "rhf"
			},
			{
				"type": "occ",
				"energy": -0.22603,
				"method": "rhf"
			},
			{
				"type": "unocc",
				"energy": -0.00851,
				"method": "rhf"
			},
			{
				"type": "unocc",
				"energy": -0.00712,
				"method": "rhf"
			},
			{
				"type": "unocc",
				"energy": 0.02764,
				"method": "rhf"
			},
			{
				"type": "unocc",
				"energy": 0.08829,
				"method": "rhf"
			},
			{
				"type": "unocc",
				"energy": 0.09717,
				"method": "rhf"
			}
		],
		"cosmo_sigma_profile": { 
			"-0.025": 0.0,
			"-0.024": 0.0,
			"-0.023": 0.0,
			"-0.022": 0.0,
			"-0.021": 0.0,
			"-0.02": 0.0,
			"-0.019": 0.0,
			"-0.018": 0.0,
			"-0.017": 0.0,
			"-0.016": 0.0,
			"-0.015": 0.0444628382083,
			"-0.014": 0.835799848118,
			"-0.013": 1.50597309022,
			"-0.012": 1.50215943929,
			"-0.011": 1.76490999849,
			"-0.01": 3.75556845399,
			"-0.009": 2.78034863517,
			"-0.008": 3.42865482754,
			"-0.007": 3.99838969307,
			"-0.006": 9.72135652255,
			"-0.005": 14.7827978656,
			"-0.004": 16.9086776422,
			"-0.003": 15.2536681345,
			"-0.002": 11.7474485863,
			"-0.001": 10.2016462327,
			"0.0": 10.141104077,
			"0.001": 9.95019160193,
			"0.002": 10.3913937027,
			"0.003": 11.0345467377,
			"0.004": 11.0619394955,
			"0.005": 10.472468093,
			"0.006": 6.43276981257,
			"0.007": 2.94960047445,
			"0.008": 3.50544077853,
			"0.009": 1.70697193762,
			"0.01": 2.63637090613,
			"0.011": 2.24663543482,
			"0.012": 3.15025864317,
			"0.013": 5.16825123974,
			"0.014": 2.74058660011,
			"0.015": 0.546957205113,
			"0.016": 0.0,
			"0.017": 0.0,
			"0.018": 0.0,
			"0.019": 0.0,
			"0.02": 0.0,
			"0.021": 0.0,
			"0.022": 0.0,
			"0.023": 0.0,
			"0.024": 0.0,
			"0.025": 0.0
		}
	}
}
