{
	 "smiles": "CCOCCNC(=O)C1=CC=C(Br)C=C1", 
	 "Tm": 373.15, 
	 "num_atms": 29, 
	 "gaussian": { 
		 "optdone": 1, 
		 "sigma_profile": "yes", 
		 "theory": "DFT", 
		 "functional": "B3LYP", 
		 "basiset": "6-31G**", 
		 "properties": { 
			 "R2extent": 9541.3761, 
			 "electric_dipole_moment_norm": 3.15017118582, 
			 "electric_quadrupole_moment_norm": 10.4951440771, 
			 "total_energy": -3204.22099509, 
			 "HOMO_LUMO_gap": 0.20147, 
			 "cosmo_polarized_energy": -14.23, 
			 "cosmo_cavitation_energy": 35.42, 
			 "cosmo_dispersion_energy": -25.91, 
			 "cosmo_repulsion_energy": 2.08, 
			 "cosmo_total_nonelectrostatic_energy": 11.59, 
			 "SMD_solvation_energy": 4.88 
		},
		"coords": [
			{
				"x": 0.9424443165,
				"y": 5.0849343055,
				"z": 3.0172054756,
				"element": "C" 
			},
			{
				"x": -0.5265737538,
				"y": 4.6688763431,
				"z": 3.0740257376,
				"element": "C" 
			},
			{
				"x": -0.7206995413,
				"y": 3.2603188917,
				"z": 3.062929117,
				"element": "O" 
			},
			{
				"x": -0.5534659227,
				"y": 2.6500237032,
				"z": 1.7986073372,
				"element": "C" 
			},
			{
				"x": -0.8389437714,
				"y": 1.1576286713,
				"z": 1.982319477,
				"element": "C" 
			},
			{
				"x": -0.7825167607,
				"y": 0.4133625648,
				"z": 0.7327249476,
				"element": "N" 
			},
			{
				"x": 0.4086618215,
				"y": -0.0217380814,
				"z": 0.2138430483,
				"element": "C" 
			},
			{
				"x": 1.4801101644,
				"y": 0.1681209489,
				"z": 0.783652858,
				"element": "O" 
			},
			{
				"x": 0.3364947709,
				"y": -0.7550760898,
				"z": -1.0977472543,
				"element": "C" 
			},
			{
				"x": 1.5138117644,
				"y": -0.8343466995,
				"z": -1.8529084235,
				"element": "C" 
			},
			{
				"x": 1.5338145966,
				"y": -1.49469018,
				"z": -3.0781105642,
				"element": "C" 
			},
			{
				"x": 0.3633140402,
				"y": -2.0945063757,
				"z": -3.5441992421,
				"element": "C" 
			},
			{
				"x": 0.3780320829,
				"y": -3.0045774362,
				"z": -5.2227097448,
				"element": "Br" 
			},
			{
				"x": -0.815983951,
				"y": -2.049600543,
				"z": -2.8022010981,
				"element": "C" 
			},
			{
				"x": -0.8225486515,
				"y": -1.3784484412,
				"z": -1.5798172765,
				"element": "C" 
			},
			{
				"x": 1.4152092848,
				"y": 4.7947935382,
				"z": 2.0740646562,
				"element": "H" 
			},
			{
				"x": 1.029523765,
				"y": 6.1728134967,
				"z": 3.1116466977,
				"element": "H" 
			},
			{
				"x": 1.5009143431,
				"y": 4.6213497021,
				"z": 3.8357519666,
				"element": "H" 
			},
			{
				"x": -0.9756394949,
				"y": 5.0149367017,
				"z": 4.0110666499,
				"element": "H" 
			},
			{
				"x": -1.0896424303,
				"y": 5.1339261583,
				"z": 2.2477497802,
				"element": "H" 
			},
			{
				"x": -1.252322317,
				"y": 3.0843794857,
				"z": 1.0613874415,
				"element": "H" 
			},
			{
				"x": 0.4659653227,
				"y": 2.7722089127,
				"z": 1.4078862104,
				"element": "H" 
			},
			{
				"x": -0.0971579346,
				"y": 0.7340101921,
				"z": 2.6620215452,
				"element": "H" 
			},
			{
				"x": -1.8293567854,
				"y": 1.0277338753,
				"z": 2.4288872724,
				"element": "H" 
			},
			{
				"x": -1.5938217592,
				"y": 0.4258593534,
				"z": 0.1340001167,
				"element": "H" 
			},
			{
				"x": 2.4108330755,
				"y": -0.3712802987,
				"z": -1.4560811491,
				"element": "H" 
			},
			{
				"x": 2.4440089482,
				"y": -1.547526124,
				"z": -3.6644618353,
				"element": "H" 
			},
			{
				"x": -1.7107931064,
				"y": -2.5388944597,
				"z": -3.1693027298,
				"element": "H" 
			},
			{
				"x": -1.7355721164,
				"y": -1.3807921152,
				"z": -0.9914310176,
				"element": "H" 
			}
		],
		 "valence_orbital": [ 
			{
				"type": "occ",
				"energy": -0.27323,
				"method": "rhf"
			},
			{
				"type": "occ",
				"energy": -0.26489,
				"method": "rhf"
			},
			{
				"type": "occ",
				"energy": -0.25689,
				"method": "rhf"
			},
			{
				"type": "occ",
				"energy": -0.25099,
				"method": "rhf"
			},
			{
				"type": "occ",
				"energy": -0.24793,
				"method": "rhf"
			},
			{
				"type": "unocc",
				"energy": -0.04646,
				"method": "rhf"
			},
			{
				"type": "unocc",
				"energy": -0.02305,
				"method": "rhf"
			},
			{
				"type": "unocc",
				"energy": 0.00113,
				"method": "rhf"
			},
			{
				"type": "unocc",
				"energy": 0.04952,
				"method": "rhf"
			},
			{
				"type": "unocc",
				"energy": 0.0737,
				"method": "rhf"
			}
		],
		"cosmo_sigma_profile": { 
			"-0.025": 0.0,
			"-0.024": 0.0,
			"-0.023": 0.0,
			"-0.022": 0.0,
			"-0.021": 0.0,
			"-0.02": 0.0,
			"-0.019": 0.0,
			"-0.018": 0.0,
			"-0.017": 0.0,
			"-0.016": 0.0,
			"-0.015": 0.367971096101,
			"-0.014": 1.0734167521,
			"-0.013": 1.54296733628,
			"-0.012": 1.26253564562,
			"-0.011": 1.31484669113,
			"-0.01": 1.78821895147,
			"-0.009": 1.32564078171,
			"-0.008": 2.92221878846,
			"-0.007": 6.80706357992,
			"-0.006": 9.48663041524,
			"-0.005": 10.2219625152,
			"-0.004": 18.6848960209,
			"-0.003": 27.4549609991,
			"-0.002": 27.8774686306,
			"-0.001": 25.7517187763,
			"0.0": 25.4148774235,
			"0.001": 24.0782345706,
			"0.002": 24.7345284771,
			"0.003": 21.2465953328,
			"0.004": 15.1450415861,
			"0.005": 7.14614932314,
			"0.006": 3.19342430038,
			"0.007": 2.66462746894,
			"0.008": 2.49826886101,
			"0.009": 2.62593464094,
			"0.01": 3.32383207609,
			"0.011": 2.94693814833,
			"0.012": 2.87846120826,
			"0.013": 4.32932578794,
			"0.014": 3.14347036683,
			"0.015": 0.0,
			"0.016": 0.0,
			"0.017": 0.0,
			"0.018": 0.0,
			"0.019": 0.0,
			"0.02": 0.0,
			"0.021": 0.0,
			"0.022": 0.0,
			"0.023": 0.0,
			"0.024": 0.0,
			"0.025": 0.0
		}
	}
}
