{
	 "smiles": "OCCCCCCC(O)C(O)CCCCCCCC(O)=O", 
	 "Tm": 373.15, 
	 "num_atms": 53, 
	 "gaussian": { 
		 "optdone": 1, 
		 "sigma_profile": "yes", 
		 "theory": "DFT", 
		 "functional": "B3LYP", 
		 "basiset": "6-31G**", 
		 "properties": { 
			 "R2extent": 8913.228, 
			 "electric_dipole_moment_norm": 2.46201043661, 
			 "electric_quadrupole_moment_norm": 11.2073111258, 
			 "total_energy": -1005.13283889, 
			 "HOMO_LUMO_gap": 0.25541, 
			 "cosmo_polarized_energy": -18.88, 
			 "cosmo_cavitation_energy": 51.33, 
			 "cosmo_dispersion_energy": -32.54, 
			 "cosmo_repulsion_energy": 2.55, 
			 "cosmo_total_nonelectrostatic_energy": 21.34, 
			 "SMD_solvation_energy": 7.97 
		},
		"coords": [
			{
				"x": -2.3180517359,
				"y": 0.6163345457,
				"z": 2.6058456951,
				"element": "O" 
			},
			{
				"x": -3.049336849,
				"y": 0.0238167427,
				"z": 1.5218680867,
				"element": "C" 
			},
			{
				"x": -3.0749118964,
				"y": -1.490775086,
				"z": 1.7041330229,
				"element": "C" 
			},
			{
				"x": -1.6743488106,
				"y": -2.124292765,
				"z": 1.8276300507,
				"element": "C" 
			},
			{
				"x": -1.1580675102,
				"y": -2.1992908004,
				"z": 3.2792519026,
				"element": "C" 
			},
			{
				"x": 0.3330816029,
				"y": -2.5664696877,
				"z": 3.4190667107,
				"element": "C" 
			},
			{
				"x": 1.34131805,
				"y": -1.399416604,
				"z": 3.3791597181,
				"element": "C" 
			},
			{
				"x": 1.4238978322,
				"y": -0.5770533476,
				"z": 2.0782822749,
				"element": "C" 
			},
			{
				"x": 0.4839894446,
				"y": 0.4911925117,
				"z": 2.0379706306,
				"element": "O" 
			},
			{
				"x": 2.8135234278,
				"y": 0.0745621382,
				"z": 1.8928017033,
				"element": "C" 
			},
			{
				"x": 3.8083060011,
				"y": -0.9237492717,
				"z": 1.6507170567,
				"element": "O" 
			},
			{
				"x": 2.8722947687,
				"y": 1.0615756771,
				"z": 0.7222067116,
				"element": "C" 
			},
			{
				"x": 2.544744505,
				"y": 0.4566428051,
				"z": -0.649281345,
				"element": "C" 
			},
			{
				"x": 2.6406055685,
				"y": 1.4876985259,
				"z": -1.7817085122,
				"element": "C" 
			},
			{
				"x": 2.3983329819,
				"y": 0.9169904846,
				"z": -3.1906189492,
				"element": "C" 
			},
			{
				"x": 1.0443581566,
				"y": 0.2182556141,
				"z": -3.4082840188,
				"element": "C" 
			},
			{
				"x": -0.178206051,
				"y": 1.1119246505,
				"z": -3.1618035106,
				"element": "C" 
			},
			{
				"x": -1.5005898002,
				"y": 0.375545247,
				"z": -3.4610007807,
				"element": "C" 
			},
			{
				"x": -2.714777789,
				"y": 1.2374137928,
				"z": -3.2105456227,
				"element": "C" 
			},
			{
				"x": -2.8981933081,
				"y": 1.4848493098,
				"z": -1.8826220647,
				"element": "O" 
			},
			{
				"x": -3.456348711,
				"y": 1.6940988429,
				"z": -4.0515604515,
				"element": "O" 
			},
			{
				"x": -2.2268005974,
				"y": 1.5617102725,
				"z": 2.4290894392,
				"element": "H" 
			},
			{
				"x": -4.0776469027,
				"y": 0.4150038937,
				"z": 1.502423036,
				"element": "H" 
			},
			{
				"x": -2.5769605201,
				"y": 0.27701443,
				"z": 0.5623173766,
				"element": "H" 
			},
			{
				"x": -3.6055190098,
				"y": -1.904225481,
				"z": 0.8374644629,
				"element": "H" 
			},
			{
				"x": -3.6776027562,
				"y": -1.7421613823,
				"z": 2.5862933801,
				"element": "H" 
			},
			{
				"x": -1.6923458972,
				"y": -3.1416598012,
				"z": 1.4170962525,
				"element": "H" 
			},
			{
				"x": -0.9766229373,
				"y": -1.561739768,
				"z": 1.195948693,
				"element": "H" 
			},
			{
				"x": -1.7602946464,
				"y": -2.9530086921,
				"z": 3.8035649791,
				"element": "H" 
			},
			{
				"x": -1.3569777888,
				"y": -1.2540730022,
				"z": 3.7956263292,
				"element": "H" 
			},
			{
				"x": 0.6027783989,
				"y": -3.2997455476,
				"z": 2.6457156336,
				"element": "H" 
			},
			{
				"x": 0.4763016426,
				"y": -3.0808245495,
				"z": 4.3776313933,
				"element": "H" 
			},
			{
				"x": 1.141181561,
				"y": -0.6989995348,
				"z": 4.2015889219,
				"element": "H" 
			},
			{
				"x": 2.3287052773,
				"y": -1.8361711785,
				"z": 3.5833287573,
				"element": "H" 
			},
			{
				"x": 1.2796676303,
				"y": -1.2598400888,
				"z": 1.2246647869,
				"element": "H" 
			},
			{
				"x": -0.3914095142,
				"y": 0.220386792,
				"z": 2.3600131453,
				"element": "H" 
			},
			{
				"x": 3.0479728333,
				"y": 0.6319669811,
				"z": 2.8152639981,
				"element": "H" 
			},
			{
				"x": 3.9676266064,
				"y": -1.4025646966,
				"z": 2.4725581151,
				"element": "H" 
			},
			{
				"x": 2.1801055953,
				"y": 1.8808868345,
				"z": 0.939081041,
				"element": "H" 
			},
			{
				"x": 3.8854313848,
				"y": 1.4829159684,
				"z": 0.7026480055,
				"element": "H" 
			},
			{
				"x": 1.530252503,
				"y": 0.0421021678,
				"z": -0.6208935745,
				"element": "H" 
			},
			{
				"x": 3.2235962287,
				"y": -0.3814706304,
				"z": -0.8497612859,
				"element": "H" 
			},
			{
				"x": 3.6378053372,
				"y": 1.9480646211,
				"z": -1.7659830676,
				"element": "H" 
			},
			{
				"x": 1.9346852297,
				"y": 2.3061273174,
				"z": -1.5842752913,
				"element": "H" 
			},
			{
				"x": 3.1950278618,
				"y": 0.1978278573,
				"z": -3.4233352036,
				"element": "H" 
			},
			{
				"x": 2.5000527879,
				"y": 1.7293408347,
				"z": -3.9233122136,
				"element": "H" 
			},
			{
				"x": 1.008583575,
				"y": -0.1584366658,
				"z": -4.4394354208,
				"element": "H" 
			},
			{
				"x": 0.9758778133,
				"y": -0.6668983622,
				"z": -2.7624634149,
				"element": "H" 
			},
			{
				"x": -0.1938886035,
				"y": 1.4572542054,
				"z": -2.1228092214,
				"element": "H" 
			},
			{
				"x": -0.1146215376,
				"y": 2.0085515644,
				"z": -3.7924135261,
				"element": "H" 
			},
			{
				"x": -1.5696422914,
				"y": -0.5163871741,
				"z": -2.8268405648,
				"element": "H" 
			},
			{
				"x": -1.5393206952,
				"y": 0.0584410841,
				"z": -4.5060534645,
				"element": "H" 
			},
			{
				"x": -3.6780184464,
				"y": 2.062658405,
				"z": -1.829549806,
				"element": "H" 
			}
		],
		 "valence_orbital": [ 
			{
				"type": "occ",
				"energy": -0.28968,
				"method": "rhf"
			},
			{
				"type": "occ",
				"energy": -0.28511,
				"method": "rhf"
			},
			{
				"type": "occ",
				"energy": -0.27165,
				"method": "rhf"
			},
			{
				"type": "occ",
				"energy": -0.2557,
				"method": "rhf"
			},
			{
				"type": "occ",
				"energy": -0.24888,
				"method": "rhf"
			},
			{
				"type": "unocc",
				"energy": 0.00653,
				"method": "rhf"
			},
			{
				"type": "unocc",
				"energy": 0.05479,
				"method": "rhf"
			},
			{
				"type": "unocc",
				"energy": 0.06896,
				"method": "rhf"
			},
			{
				"type": "unocc",
				"energy": 0.07118,
				"method": "rhf"
			},
			{
				"type": "unocc",
				"energy": 0.08474,
				"method": "rhf"
			}
		],
		"cosmo_sigma_profile": { 
			"-0.025": 0.0,
			"-0.024": 0.0,
			"-0.023": 0.0,
			"-0.022": 0.0,
			"-0.021": 0.0,
			"-0.02": 0.0,
			"-0.019": 0.0,
			"-0.018": 0.290822569103,
			"-0.017": 0.816915152494,
			"-0.016": 1.76384044883,
			"-0.015": 2.22592170602,
			"-0.014": 2.2358590514,
			"-0.013": 2.32598911202,
			"-0.012": 2.2261303328,
			"-0.011": 2.26902609665,
			"-0.01": 2.87889282491,
			"-0.009": 2.63726180603,
			"-0.008": 2.34593790433,
			"-0.007": 2.56765973243,
			"-0.006": 3.58573838704,
			"-0.005": 6.09010116313,
			"-0.004": 11.1768442693,
			"-0.003": 26.5453405532,
			"-0.002": 60.5700052841,
			"-0.001": 70.2966430837,
			"0.0": 58.9219750944,
			"0.001": 38.1746045407,
			"0.002": 17.8778344891,
			"0.003": 11.4938423334,
			"0.004": 8.05171934929,
			"0.005": 6.40182650904,
			"0.006": 6.58252158559,
			"0.007": 6.14316239156,
			"0.008": 4.68984193316,
			"0.009": 5.39074791762,
			"0.01": 5.39510516122,
			"0.011": 6.9843717499,
			"0.012": 8.2096603252,
			"0.013": 4.68869632215,
			"0.014": 1.64826347976,
			"0.015": 0.103878998425,
			"0.016": 0.0,
			"0.017": 0.0,
			"0.018": 0.0,
			"0.019": 0.0,
			"0.02": 0.0,
			"0.021": 0.0,
			"0.022": 0.0,
			"0.023": 0.0,
			"0.024": 0.0,
			"0.025": 0.0
		}
	}
}
