{
	 "smiles": "CC1=NC2=C(C(=CS2)C2=CC=CC=C2)C(=O)N1NC(=O)C1=CC=C(F)C=C1", 
	 "Tm": 412.15, 
	 "num_atms": 41, 
	 "gaussian": { 
		 "optdone": 1, 
		 "sigma_profile": "yes", 
		 "theory": "DFT", 
		 "functional": "B3LYP", 
		 "basiset": "6-31G**", 
		 "properties": { 
			 "R2extent": 11329.4451, 
			 "electric_dipole_moment_norm": 2.45006188697, 
			 "electric_quadrupole_moment_norm": 18.774418359, 
			 "total_energy": -1583.28714214, 
			 "HOMO_LUMO_gap": 0.16511, 
			 "cosmo_polarized_energy": -18.06, 
			 "cosmo_cavitation_energy": 47.93, 
			 "cosmo_dispersion_energy": -32.67, 
			 "cosmo_repulsion_energy": 2.38, 
			 "cosmo_total_nonelectrostatic_energy": 17.64, 
			 "SMD_solvation_energy": 8.13 
		},
		"coords": [
			{
				"x": -1.747987728,
				"y": -1.7211041529,
				"z": -3.12886699,
				"element": "C" 
			},
			{
				"x": -1.3654341976,
				"y": -1.369925345,
				"z": -1.7223388571,
				"element": "C" 
			},
			{
				"x": -2.1975482072,
				"y": -1.6028250122,
				"z": -0.7483383925,
				"element": "N" 
			},
			{
				"x": -1.7729946877,
				"y": -1.284795084,
				"z": 0.5030537099,
				"element": "C" 
			},
			{
				"x": -0.5457505037,
				"y": -0.7298895436,
				"z": 0.8682130519,
				"element": "C" 
			},
			{
				"x": -0.3996383931,
				"y": -0.5686211199,
				"z": 2.3009928908,
				"element": "C" 
			},
			{
				"x": -1.5304621753,
				"y": -0.999736953,
				"z": 2.9477995742,
				"element": "C" 
			},
			{
				"x": -2.7739468526,
				"y": -1.6039154489,
				"z": 1.8925104802,
				"element": "S" 
			},
			{
				"x": 0.7650469066,
				"y": -0.0386492566,
				"z": 3.052502242,
				"element": "C" 
			},
			{
				"x": 1.1850758778,
				"y": -0.6959030161,
				"z": 4.2217205716,
				"element": "C" 
			},
			{
				"x": 2.232638845,
				"y": -0.1899563617,
				"z": 4.99033782,
				"element": "C" 
			},
			{
				"x": 2.8817103306,
				"y": 0.982693047,
				"z": 4.6021811122,
				"element": "C" 
			},
			{
				"x": 2.476792461,
				"y": 1.6413101388,
				"z": 3.4392318485,
				"element": "C" 
			},
			{
				"x": 1.4299825015,
				"y": 1.137262555,
				"z": 2.6700034606,
				"element": "C" 
			},
			{
				"x": 0.3968317623,
				"y": -0.4488642057,
				"z": -0.1954035811,
				"element": "C" 
			},
			{
				"x": 1.52042127,
				"y": 0.0269621907,
				"z": -0.1233937623,
				"element": "O" 
			},
			{
				"x": -0.125015259,
				"y": -0.7894095725,
				"z": -1.4953696306,
				"element": "N" 
			},
			{
				"x": 0.7497140028,
				"y": -0.6409233185,
				"z": -2.5644718693,
				"element": "N" 
			},
			{
				"x": 0.8830844054,
				"y": 0.4942380932,
				"z": -3.3712150998,
				"element": "C" 
			},
			{
				"x": 1.7763463847,
				"y": 0.5001809182,
				"z": -4.2010042054,
				"element": "O" 
			},
			{
				"x": -0.1273534142,
				"y": 1.5955092664,
				"z": -3.2765884781,
				"element": "C" 
			},
			{
				"x": -0.6468535096,
				"y": 2.0869255928,
				"z": -4.4847054696,
				"element": "C" 
			},
			{
				"x": -1.5492868098,
				"y": 3.1462166455,
				"z": -4.4915220644,
				"element": "C" 
			},
			{
				"x": -1.897479664,
				"y": 3.7305310807,
				"z": -3.2772318563,
				"element": "C" 
			},
			{
				"x": -2.7642754417,
				"y": 4.7601059396,
				"z": -3.2754103111,
				"element": "F" 
			},
			{
				"x": -1.3683614099,
				"y": 3.2940883301,
				"z": -2.0674667672,
				"element": "C" 
			},
			{
				"x": -0.4820706973,
				"y": 2.218371454,
				"z": -2.0713476833,
				"element": "C" 
			},
			{
				"x": -1.008458826,
				"y": -2.3838852523,
				"z": -3.5874145669,
				"element": "H" 
			},
			{
				"x": -2.7194775373,
				"y": -2.2132688066,
				"z": -3.0976455091,
				"element": "H" 
			},
			{
				"x": -1.8158271865,
				"y": -0.826769068,
				"z": -3.7560964224,
				"element": "H" 
			},
			{
				"x": -1.7097774632,
				"y": -0.9658308916,
				"z": 4.0133766817,
				"element": "H" 
			},
			{
				"x": 0.6982265069,
				"y": -1.6215542529,
				"z": 4.514684341,
				"element": "H" 
			},
			{
				"x": 2.5461949173,
				"y": -0.7176296515,
				"z": 5.886617519,
				"element": "H" 
			},
			{
				"x": 3.7007411723,
				"y": 1.377104402,
				"z": 5.1966802675,
				"element": "H" 
			},
			{
				"x": 2.9782810835,
				"y": 2.5529731394,
				"z": 3.1275404243,
				"element": "H" 
			},
			{
				"x": 1.1314011998,
				"y": 1.6532595253,
				"z": 1.7659789489,
				"element": "H" 
			},
			{
				"x": 1.6068398841,
				"y": -1.1772675663,
				"z": -2.4812213554,
				"element": "H" 
			},
			{
				"x": -0.3297048693,
				"y": 1.6321832074,
				"z": -5.4173043985,
				"element": "H" 
			},
			{
				"x": -1.9724136087,
				"y": 3.5303332455,
				"z": -5.4131225801,
				"element": "H" 
			},
			{
				"x": -1.6449131754,
				"y": 3.798731846,
				"z": -1.1483827685,
				"element": "H" 
			},
			{
				"x": -0.0291978945,
				"y": 1.8996432624,
				"z": -1.1404623253,
				"element": "H" 
			}
		],
		 "valence_orbital": [ 
			{
				"type": "occ",
				"energy": -0.27278,
				"method": "rhf"
			},
			{
				"type": "occ",
				"energy": -0.25561,
				"method": "rhf"
			},
			{
				"type": "occ",
				"energy": -0.25011,
				"method": "rhf"
			},
			{
				"type": "occ",
				"energy": -0.24727,
				"method": "rhf"
			},
			{
				"type": "occ",
				"energy": -0.22197,
				"method": "rhf"
			},
			{
				"type": "unocc",
				"energy": -0.05686,
				"method": "rhf"
			},
			{
				"type": "unocc",
				"energy": -0.04204,
				"method": "rhf"
			},
			{
				"type": "unocc",
				"energy": -0.03068,
				"method": "rhf"
			},
			{
				"type": "unocc",
				"energy": -0.02582,
				"method": "rhf"
			},
			{
				"type": "unocc",
				"energy": -0.01004,
				"method": "rhf"
			}
		],
		"cosmo_sigma_profile": { 
			"-0.025": 0.0,
			"-0.024": 0.0,
			"-0.023": 0.0,
			"-0.022": 0.0,
			"-0.021": 0.0,
			"-0.02": 0.0,
			"-0.019": 0.0,
			"-0.018": 0.0,
			"-0.017": 0.0,
			"-0.016": 0.0892600735996,
			"-0.015": 1.20819983398,
			"-0.014": 0.577599131595,
			"-0.013": 0.919765358572,
			"-0.012": 0.869800708105,
			"-0.011": 0.8613583813,
			"-0.01": 1.2753743556,
			"-0.009": 2.02491264571,
			"-0.008": 5.65495770648,
			"-0.007": 8.97348673376,
			"-0.006": 20.2896378957,
			"-0.005": 28.0191925035,
			"-0.004": 28.7533522652,
			"-0.003": 28.5044099716,
			"-0.002": 27.2114380844,
			"-0.001": 26.0512359802,
			"0.0": 32.6101913288,
			"0.001": 35.8019522323,
			"0.002": 32.952889153,
			"0.003": 26.196980617,
			"0.004": 23.2195653846,
			"0.005": 12.7326902465,
			"0.006": 7.77493225254,
			"0.007": 4.46489094867,
			"0.008": 5.71179779593,
			"0.009": 3.29333890083,
			"0.01": 4.50521081702,
			"0.011": 6.27808817979,
			"0.012": 9.39348187757,
			"0.013": 1.77863762817,
			"0.014": 0.0,
			"0.015": 0.0,
			"0.016": 0.0,
			"0.017": 0.0,
			"0.018": 0.0,
			"0.019": 0.0,
			"0.02": 0.0,
			"0.021": 0.0,
			"0.022": 0.0,
			"0.023": 0.0,
			"0.024": 0.0,
			"0.025": 0.0
		}
	}
}
