{
	 "smiles": "COC(=O)C1=CC=C(C)C(Cl)=C1", 
	 "Tm": 302.15, 
	 "num_atms": 21, 
	 "gaussian": { 
		 "optdone": 1, 
		 "sigma_profile": "yes", 
		 "theory": "DFT", 
		 "functional": "B3LYP", 
		 "basiset": "6-31G**", 
		 "properties": { 
			 "R2extent": 2949.7496, 
			 "electric_dipole_moment_norm": 0.410757118015, 
			 "electric_quadrupole_moment_norm": 17.6812593887, 
			 "total_energy": -959.042966575, 
			 "HOMO_LUMO_gap": 0.19928, 
			 "cosmo_polarized_energy": -7.05, 
			 "cosmo_cavitation_energy": 27.05, 
			 "cosmo_dispersion_energy": -19.89, 
			 "cosmo_repulsion_energy": 1.58, 
			 "cosmo_total_nonelectrostatic_energy": 8.75, 
			 "SMD_solvation_energy": 6.03 
		},
		"coords": [
			{
				"x": 3.3058560811,
				"y": 1.6968139665,
				"z": -1.6397295753,
				"element": "C" 
			},
			{
				"x": 2.2403036689,
				"y": 1.0946254726,
				"z": -0.8884028249,
				"element": "O" 
			},
			{
				"x": 1.0507147301,
				"y": 1.0286290842,
				"z": -1.5277825881,
				"element": "C" 
			},
			{
				"x": 0.8779871679,
				"y": 1.4438392173,
				"z": -2.6572646086,
				"element": "O" 
			},
			{
				"x": -0.0094979032,
				"y": 0.3939466629,
				"z": -0.6947590245,
				"element": "C" 
			},
			{
				"x": -1.2909855522,
				"y": 0.2638704318,
				"z": -1.2414058324,
				"element": "C" 
			},
			{
				"x": -2.3072189647,
				"y": -0.3229095047,
				"z": -0.4955263702,
				"element": "C" 
			},
			{
				"x": -2.0917445305,
				"y": -0.7976267433,
				"z": 0.8073704496,
				"element": "C" 
			},
			{
				"x": -3.2062860432,
				"y": -1.4296493242,
				"z": 1.5972978517,
				"element": "C" 
			},
			{
				"x": -0.7946137497,
				"y": -0.6524308236,
				"z": 1.3277593687,
				"element": "C" 
			},
			{
				"x": -0.442989047,
				"y": -1.2238933629,
				"z": 2.9584096324,
				"element": "Cl" 
			},
			{
				"x": 0.2391588275,
				"y": -0.069455458,
				"z": 0.6028798642,
				"element": "C" 
			},
			{
				"x": 3.4943832997,
				"y": 1.1346741768,
				"z": -2.5578471129,
				"element": "H" 
			},
			{
				"x": 3.0551282554,
				"y": 2.7271283725,
				"z": -1.9044514907,
				"element": "H" 
			},
			{
				"x": 4.1779972655,
				"y": 1.6695377369,
				"z": -0.986931405,
				"element": "H" 
			},
			{
				"x": -1.4679596529,
				"y": 0.6275428715,
				"z": -2.2475434929,
				"element": "H" 
			},
			{
				"x": -3.3004251137,
				"y": -0.4213319276,
				"z": -0.9249780591,
				"element": "H" 
			},
			{
				"x": -3.3924658518,
				"y": -0.8824095418,
				"z": 2.5276737408,
				"element": "H" 
			},
			{
				"x": -2.9567928404,
				"y": -2.4574183712,
				"z": 1.8822071361,
				"element": "H" 
			},
			{
				"x": -4.1313165132,
				"y": -1.4474760741,
				"z": 1.0164540127,
				"element": "H" 
			},
			{
				"x": 1.2258664664,
				"y": 0.0247931383,
				"z": 1.0380703282,
				"element": "H" 
			}
		],
		 "valence_orbital": [ 
			{
				"type": "occ",
				"energy": -0.31627,
				"method": "rhf"
			},
			{
				"type": "occ",
				"energy": -0.30467,
				"method": "rhf"
			},
			{
				"type": "occ",
				"energy": -0.27698,
				"method": "rhf"
			},
			{
				"type": "occ",
				"energy": -0.26313,
				"method": "rhf"
			},
			{
				"type": "occ",
				"energy": -0.24983,
				"method": "rhf"
			},
			{
				"type": "unocc",
				"energy": -0.05055,
				"method": "rhf"
			},
			{
				"type": "unocc",
				"energy": -0.01712,
				"method": "rhf"
			},
			{
				"type": "unocc",
				"energy": 0.02865,
				"method": "rhf"
			},
			{
				"type": "unocc",
				"energy": 0.05089,
				"method": "rhf"
			},
			{
				"type": "unocc",
				"energy": 0.10234,
				"method": "rhf"
			}
		],
		"cosmo_sigma_profile": { 
			"-0.025": 0.0,
			"-0.024": 0.0,
			"-0.023": 0.0,
			"-0.022": 0.0,
			"-0.021": 0.0,
			"-0.02": 0.0,
			"-0.019": 0.0,
			"-0.018": 0.0,
			"-0.017": 0.0,
			"-0.016": 0.0,
			"-0.015": 0.0,
			"-0.014": 0.0,
			"-0.013": 0.0,
			"-0.012": 0.0,
			"-0.011": 0.0,
			"-0.01": 0.0,
			"-0.009": 0.0,
			"-0.008": 0.0,
			"-0.007": 2.34814993228,
			"-0.006": 11.4174553514,
			"-0.005": 15.1295076081,
			"-0.004": 17.350478815,
			"-0.003": 19.4811000204,
			"-0.002": 18.9850064421,
			"-0.001": 20.0622907291,
			"0.0": 19.4808241699,
			"0.001": 20.3661880268,
			"0.002": 22.9327272224,
			"0.003": 15.6495433036,
			"0.004": 11.0805469644,
			"0.005": 8.3346380775,
			"0.006": 1.99754921036,
			"0.007": 0.722271578443,
			"0.008": 1.72810639948,
			"0.009": 1.60582691847,
			"0.01": 1.84123971303,
			"0.011": 3.29091784763,
			"0.012": 3.85156270447,
			"0.013": 0.100448283263,
			"0.014": 0.0,
			"0.015": 0.0,
			"0.016": 0.0,
			"0.017": 0.0,
			"0.018": 0.0,
			"0.019": 0.0,
			"0.02": 0.0,
			"0.021": 0.0,
			"0.022": 0.0,
			"0.023": 0.0,
			"0.024": 0.0,
			"0.025": 0.0
		}
	}
}
