{
	 "smiles": "CC(C)(C)NS(=O)(=O)C1=CN=C(N)C=C1", 
	 "Tm": 420.15, 
	 "num_atms": 30, 
	 "gaussian": { 
		 "optdone": 1, 
		 "sigma_profile": "yes", 
		 "theory": "DFT", 
		 "functional": "B3LYP", 
		 "basiset": "6-31G**", 
		 "properties": { 
			 "R2extent": 3986.5355, 
			 "electric_dipole_moment_norm": 6.15688153695, 
			 "electric_quadrupole_moment_norm": 14.6588598533, 
			 "total_energy": -1064.8371375, 
			 "HOMO_LUMO_gap": 0.19714, 
			 "cosmo_polarized_energy": -19.05, 
			 "cosmo_cavitation_energy": 33.61, 
			 "cosmo_dispersion_energy": -23.87, 
			 "cosmo_repulsion_energy": 1.83, 
			 "cosmo_total_nonelectrostatic_energy": 11.56, 
			 "SMD_solvation_energy": 3.55 
		},
		"coords": [
			{
				"x": -1.7687636752,
				"y": 1.1157358936,
				"z": 3.5106782805,
				"element": "C" 
			},
			{
				"x": -0.4751137067,
				"y": 1.1345056506,
				"z": 2.6774970442,
				"element": "C" 
			},
			{
				"x": 0.5298892705,
				"y": 2.1303289786,
				"z": 3.2874310514,
				"element": "C" 
			},
			{
				"x": 0.1232263826,
				"y": -0.2788594188,
				"z": 2.6238373284,
				"element": "C" 
			},
			{
				"x": -0.9107465277,
				"y": 1.5566234545,
				"z": 1.3100498461,
				"element": "N" 
			},
			{
				"x": 0.0982951896,
				"y": 1.5760654541,
				"z": -0.0473685826,
				"element": "S" 
			},
			{
				"x": 1.523051858,
				"y": 1.577511134,
				"z": 0.3156999439,
				"element": "O" 
			},
			{
				"x": -0.4647787955,
				"y": 2.6484116027,
				"z": -0.8782755774,
				"element": "O" 
			},
			{
				"x": -0.2318607897,
				"y": 0.0127294797,
				"z": -0.8307146255,
				"element": "C" 
			},
			{
				"x": 0.8093857496,
				"y": -0.8704031631,
				"z": -1.1113811245,
				"element": "C" 
			},
			{
				"x": 0.6329765014,
				"y": -2.0336333396,
				"z": -1.7431297658,
				"element": "N" 
			},
			{
				"x": -0.6112048929,
				"y": -2.3552438592,
				"z": -2.1385817004,
				"element": "C" 
			},
			{
				"x": -0.7388316394,
				"y": -3.5369181354,
				"z": -2.8186823648,
				"element": "N" 
			},
			{
				"x": -1.7293819443,
				"y": -1.516758688,
				"z": -1.9066937248,
				"element": "C" 
			},
			{
				"x": -1.5293563916,
				"y": -0.3203479826,
				"z": -1.2482977521,
				"element": "C" 
			},
			{
				"x": -2.4921182579,
				"y": 0.4097471087,
				"z": 3.0930369407,
				"element": "H" 
			},
			{
				"x": -1.5476367149,
				"y": 0.8228612621,
				"z": 4.5417360582,
				"element": "H" 
			},
			{
				"x": -2.2347489352,
				"y": 2.1076398701,
				"z": 3.5409681691,
				"element": "H" 
			},
			{
				"x": 0.7936307878,
				"y": 1.8292388711,
				"z": 4.307113434,
				"element": "H" 
			},
			{
				"x": 0.0958015968,
				"y": 3.1355492914,
				"z": 3.3380281753,
				"element": "H" 
			},
			{
				"x": 1.4410044563,
				"y": 2.1783209643,
				"z": 2.6884950902,
				"element": "H" 
			},
			{
				"x": -0.5763524704,
				"y": -0.9822721148,
				"z": 2.1630521234,
				"element": "H" 
			},
			{
				"x": 1.0608000685,
				"y": -0.2949884075,
				"z": 2.0639070395,
				"element": "H" 
			},
			{
				"x": 0.3343597687,
				"y": -0.621289219,
				"z": 3.6414095406,
				"element": "H" 
			},
			{
				"x": -1.3747511558,
				"y": 2.4628681903,
				"z": 1.3142416494,
				"element": "H" 
			},
			{
				"x": 1.8229907561,
				"y": -0.6246821898,
				"z": -0.806828071,
				"element": "H" 
			},
			{
				"x": 0.0619120141,
				"y": -4.1501153848,
				"z": -2.7914056611,
				"element": "H" 
			},
			{
				"x": -1.6454288112,
				"y": -3.9669363768,
				"z": -2.9033861375,
				"element": "H" 
			},
			{
				"x": -2.7171633854,
				"y": -1.809015397,
				"z": -2.2494109473,
				"element": "H" 
			},
			{
				"x": -2.3580863063,
				"y": 0.3519264705,
				"z": -1.0524256801,
				"element": "H" 
			}
		],
		 "valence_orbital": [ 
			{
				"type": "occ",
				"energy": -0.29435,
				"method": "rhf"
			},
			{
				"type": "occ",
				"energy": -0.29292,
				"method": "rhf"
			},
			{
				"type": "occ",
				"energy": -0.26692,
				"method": "rhf"
			},
			{
				"type": "occ",
				"energy": -0.26287,
				"method": "rhf"
			},
			{
				"type": "occ",
				"energy": -0.22814,
				"method": "rhf"
			},
			{
				"type": "unocc",
				"energy": -0.031,
				"method": "rhf"
			},
			{
				"type": "unocc",
				"energy": -0.02057,
				"method": "rhf"
			},
			{
				"type": "unocc",
				"energy": 0.05859,
				"method": "rhf"
			},
			{
				"type": "unocc",
				"energy": 0.0701,
				"method": "rhf"
			},
			{
				"type": "unocc",
				"energy": 0.08034,
				"method": "rhf"
			}
		],
		"cosmo_sigma_profile": { 
			"-0.025": 0.0,
			"-0.024": 0.0,
			"-0.023": 0.0,
			"-0.022": 0.0,
			"-0.021": 0.0,
			"-0.02": 0.0,
			"-0.019": 0.0,
			"-0.018": 0.0,
			"-0.017": 0.0,
			"-0.016": 0.0,
			"-0.015": 0.236466189703,
			"-0.014": 1.55147048746,
			"-0.013": 2.87739270695,
			"-0.012": 3.72932114397,
			"-0.011": 3.36434876696,
			"-0.01": 3.6320850265,
			"-0.009": 3.86425097745,
			"-0.008": 5.13792496501,
			"-0.007": 6.78067610494,
			"-0.006": 7.36092041153,
			"-0.005": 6.67343642264,
			"-0.004": 14.1673242457,
			"-0.003": 20.2062718957,
			"-0.002": 20.5294752195,
			"-0.001": 23.7854552306,
			"0.0": 31.3184488986,
			"0.001": 27.9584004886,
			"0.002": 14.533459822,
			"0.003": 8.16791908443,
			"0.004": 6.94734712661,
			"0.005": 6.77825800818,
			"0.006": 5.26425081928,
			"0.007": 4.93222408568,
			"0.008": 5.58304306321,
			"0.009": 5.39346993433,
			"0.01": 5.55646291209,
			"0.011": 8.88758637087,
			"0.012": 6.33916379087,
			"0.013": 1.12478398966,
			"0.014": 0.938957150364,
			"0.015": 0.255644407729,
			"0.016": 0.0,
			"0.017": 0.0,
			"0.018": 0.0,
			"0.019": 0.0,
			"0.02": 0.0,
			"0.021": 0.0,
			"0.022": 0.0,
			"0.023": 0.0,
			"0.024": 0.0,
			"0.025": 0.0
		}
	}
}
