{
	 "smiles": "O=P(C1OC(=CC(=C1)C1=CC=CC=C1)C1=CC=CC=C1)(C1=CC=CC=C1)C1=CC=CC=C1", 
	 "Tm": 425.15, 
	 "num_atms": 55, 
	 "gaussian": { 
		 "optdone": 1, 
		 "sigma_profile": "yes", 
		 "theory": "DFT", 
		 "functional": "B3LYP", 
		 "basiset": "6-31G**", 
		 "properties": { 
			 "R2extent": 15631.0398, 
			 "electric_dipole_moment_norm": 3.01304480053, 
			 "electric_quadrupole_moment_norm": 19.8003007232, 
			 "total_energy": -1610.73855362, 
			 "HOMO_LUMO_gap": 0.13587, 
			 "cosmo_polarized_energy": -22.26, 
			 "cosmo_cavitation_energy": 61.16, 
			 "cosmo_dispersion_energy": -38.99, 
			 "cosmo_repulsion_energy": 2.91, 
			 "cosmo_total_nonelectrostatic_energy": 25.08, 
			 "SMD_solvation_energy": 10.42 
		},
		"coords": [
			{
				"x": -0.2498809616,
				"y": -1.5270857666,
				"z": -1.4397257749,
				"element": "O" 
			},
			{
				"x": -0.500872487,
				"y": -1.8925983384,
				"z": -0.0043020828,
				"element": "P" 
			},
			{
				"x": -1.1897308349,
				"y": -0.5044234306,
				"z": 1.0951919404,
				"element": "C" 
			},
			{
				"x": -0.1580038618,
				"y": 0.4544675767,
				"z": 1.3781130118,
				"element": "O" 
			},
			{
				"x": -0.0114498507,
				"y": 1.5244529522,
				"z": 0.5271038217,
				"element": "C" 
			},
			{
				"x": -1.0169638864,
				"y": 1.9124622878,
				"z": -0.2891479207,
				"element": "C" 
			},
			{
				"x": -2.3177081191,
				"y": 1.2546191419,
				"z": -0.2156177227,
				"element": "C" 
			},
			{
				"x": -2.4163118292,
				"y": 0.109660782,
				"z": 0.4954214981,
				"element": "C" 
			},
			{
				"x": -3.4906773458,
				"y": 1.8721834773,
				"z": -0.8840800516,
				"element": "C" 
			},
			{
				"x": -3.3602833878,
				"y": 2.4738879395,
				"z": -2.1469373955,
				"element": "C" 
			},
			{
				"x": -4.4647568562,
				"y": 3.0333879262,
				"z": -2.7885952864,
				"element": "C" 
			},
			{
				"x": -5.7198373231,
				"y": 3.0113838394,
				"z": -2.1777453442,
				"element": "C" 
			},
			{
				"x": -5.8616209918,
				"y": 2.4229192876,
				"z": -0.9193067343,
				"element": "C" 
			},
			{
				"x": -4.7583044756,
				"y": 1.8616225869,
				"z": -0.2784995036,
				"element": "C" 
			},
			{
				"x": 1.2970752599,
				"y": 2.1840539362,
				"z": 0.6717635739,
				"element": "C" 
			},
			{
				"x": 1.4862110086,
				"y": 3.5203737335,
				"z": 0.2746838731,
				"element": "C" 
			},
			{
				"x": 2.7327274585,
				"y": 4.1272258476,
				"z": 0.3958102853,
				"element": "C" 
			},
			{
				"x": 3.812380075,
				"y": 3.418728576,
				"z": 0.9305642101,
				"element": "C" 
			},
			{
				"x": 3.6314545007,
				"y": 2.0981024966,
				"z": 1.3440081786,
				"element": "C" 
			},
			{
				"x": 2.3865453836,
				"y": 1.4838042621,
				"z": 1.2185139793,
				"element": "C" 
			},
			{
				"x": 1.010502226,
				"y": -2.4773323511,
				"z": 0.8461715882,
				"element": "C" 
			},
			{
				"x": 1.1644543167,
				"y": -2.5379282704,
				"z": 2.2401813806,
				"element": "C" 
			},
			{
				"x": 2.3549285588,
				"y": -3.0077358765,
				"z": 2.7967589079,
				"element": "C" 
			},
			{
				"x": 3.4022285552,
				"y": -3.4156012626,
				"z": 1.9674467457,
				"element": "C" 
			},
			{
				"x": 3.2615622027,
				"y": -3.3440182706,
				"z": 0.5802396939,
				"element": "C" 
			},
			{
				"x": 2.0736107557,
				"y": -2.8724876292,
				"z": 0.0207682023,
				"element": "C" 
			},
			{
				"x": -1.7750987093,
				"y": -3.1991673562,
				"z": 0.1612298353,
				"element": "C" 
			},
			{
				"x": -2.5714105431,
				"y": -3.4443761743,
				"z": -0.9671615929,
				"element": "C" 
			},
			{
				"x": -3.5901772546,
				"y": -4.3967563908,
				"z": -0.9138908241,
				"element": "C" 
			},
			{
				"x": -3.8206622428,
				"y": -5.1099201653,
				"z": 0.2639410301,
				"element": "C" 
			},
			{
				"x": -3.027299009,
				"y": -4.874947272,
				"z": 1.3897692216,
				"element": "C" 
			},
			{
				"x": -2.0077446102,
				"y": -3.9241541495,
				"z": 1.3397607965,
				"element": "C" 
			},
			{
				"x": -1.4221029226,
				"y": -0.9682151687,
				"z": 2.0620886769,
				"element": "H" 
			},
			{
				"x": -0.8757552801,
				"y": 2.7591384799,
				"z": -0.9463200271,
				"element": "H" 
			},
			{
				"x": -3.3501959308,
				"y": -0.4337703509,
				"z": 0.5863067936,
				"element": "H" 
			},
			{
				"x": -2.3943811891,
				"y": 2.4755485137,
				"z": -2.6430942803,
				"element": "H" 
			},
			{
				"x": -4.3444934029,
				"y": 3.4833675163,
				"z": -3.7700898946,
				"element": "H" 
			},
			{
				"x": -6.578594596,
				"y": 3.4524250946,
				"z": -2.6755624417,
				"element": "H" 
			},
			{
				"x": -6.8314948026,
				"y": 2.4106649217,
				"z": -0.4297777324,
				"element": "H" 
			},
			{
				"x": -4.8695485543,
				"y": 1.4304353547,
				"z": 0.7119437976,
				"element": "H" 
			},
			{
				"x": 0.6479334467,
				"y": 4.092796448,
				"z": -0.1089751137,
				"element": "H" 
			},
			{
				"x": 2.8591919137,
				"y": 5.1604056047,
				"z": 0.0850884419,
				"element": "H" 
			},
			{
				"x": 4.7832404881,
				"y": 3.8957091411,
				"z": 1.0295533062,
				"element": "H" 
			},
			{
				"x": 4.4640936683,
				"y": 1.5399379011,
				"z": 1.7627331212,
				"element": "H" 
			},
			{
				"x": 2.2498300572,
				"y": 0.4558833489,
				"z": 1.5325735855,
				"element": "H" 
			},
			{
				"x": 0.3700685089,
				"y": -2.2055454457,
				"z": 2.9018600774,
				"element": "H" 
			},
			{
				"x": 2.466671621,
				"y": -3.0485459584,
				"z": 3.8764454966,
				"element": "H" 
			},
			{
				"x": 4.328133143,
				"y": -3.7805149069,
				"z": 2.4029440486,
				"element": "H" 
			},
			{
				"x": 4.0787483872,
				"y": -3.6498238579,
				"z": -0.0667143831,
				"element": "H" 
			},
			{
				"x": 1.9576644513,
				"y": -2.7915194421,
				"z": -1.0555475921,
				"element": "H" 
			},
			{
				"x": -2.3712938624,
				"y": -2.8895927431,
				"z": -1.8786149787,
				"element": "H" 
			},
			{
				"x": -4.2011432224,
				"y": -4.5837854301,
				"z": -1.7923395043,
				"element": "H" 
			},
			{
				"x": -4.6128772073,
				"y": -5.852188325,
				"z": 0.3044826046,
				"element": "H" 
			},
			{
				"x": -3.198426731,
				"y": -5.436481242,
				"z": 2.3037915592,
				"element": "H" 
			},
			{
				"x": -1.383353705,
				"y": -3.7681333993,
				"z": 2.2147928984,
				"element": "H" 
			}
		],
		 "valence_orbital": [ 
			{
				"type": "occ",
				"energy": -0.24866,
				"method": "rhf"
			},
			{
				"type": "occ",
				"energy": -0.24769,
				"method": "rhf"
			},
			{
				"type": "occ",
				"energy": -0.24646,
				"method": "rhf"
			},
			{
				"type": "occ",
				"energy": -0.23441,
				"method": "rhf"
			},
			{
				"type": "occ",
				"energy": -0.18459,
				"method": "rhf"
			},
			{
				"type": "unocc",
				"energy": -0.04872,
				"method": "rhf"
			},
			{
				"type": "unocc",
				"energy": -0.03228,
				"method": "rhf"
			},
			{
				"type": "unocc",
				"energy": -0.01756,
				"method": "rhf"
			},
			{
				"type": "unocc",
				"energy": -0.01063,
				"method": "rhf"
			},
			{
				"type": "unocc",
				"energy": -0.0086,
				"method": "rhf"
			}
		],
		"cosmo_sigma_profile": { 
			"-0.025": 0.0,
			"-0.024": 0.0,
			"-0.023": 0.0,
			"-0.022": 0.0,
			"-0.021": 0.0,
			"-0.02": 0.0,
			"-0.019": 0.0,
			"-0.018": 0.0,
			"-0.017": 0.0,
			"-0.016": 0.0337973988288,
			"-0.015": 0.164616315889,
			"-0.014": 0.187507640813,
			"-0.013": 0.213755432955,
			"-0.012": 0.178689325487,
			"-0.011": 0.567333490638,
			"-0.01": 0.863557164815,
			"-0.009": 1.91099409165,
			"-0.008": 2.64657237622,
			"-0.007": 7.92204445582,
			"-0.006": 33.6199711557,
			"-0.005": 42.5586637467,
			"-0.004": 43.7087169366,
			"-0.003": 33.5955015285,
			"-0.002": 28.2518992172,
			"-0.001": 29.4074719614,
			"0.0": 35.4400210057,
			"0.001": 38.1027655213,
			"0.002": 40.3341946136,
			"0.003": 44.0225906939,
			"0.004": 43.1773853262,
			"0.005": 29.2565815323,
			"0.006": 8.39100413419,
			"0.007": 3.24037086336,
			"0.008": 2.99210822583,
			"0.009": 2.28897976904,
			"0.01": 2.37046647956,
			"0.011": 1.99538055948,
			"0.012": 1.76138255439,
			"0.013": 1.59118252407,
			"0.014": 1.43079245294,
			"0.015": 4.55198243898,
			"0.016": 1.76456371794,
			"0.017": 0.0,
			"0.018": 0.0,
			"0.019": 0.0,
			"0.02": 0.0,
			"0.021": 0.0,
			"0.022": 0.0,
			"0.023": 0.0,
			"0.024": 0.0,
			"0.025": 0.0
		}
	}
}
