{
	 "smiles": "CC(=O)NC1=CC(Cl)=C(Br)C=C1", 
	 "Tm": 399.15, 
	 "num_atms": 19, 
	 "gaussian": { 
		 "optdone": 1, 
		 "sigma_profile": "yes", 
		 "theory": "DFT", 
		 "functional": "B3LYP", 
		 "basiset": "6-31G**", 
		 "properties": { 
			 "R2extent": 4520.8303, 
			 "electric_dipole_moment_norm": 0.719868210161, 
			 "electric_quadrupole_moment_norm": 16.4139904326, 
			 "total_energy": -3470.65232608, 
			 "HOMO_LUMO_gap": 0.19549, 
			 "cosmo_polarized_energy": -12.04, 
			 "cosmo_cavitation_energy": 27.38, 
			 "cosmo_dispersion_energy": -20.58, 
			 "cosmo_repulsion_energy": 1.64, 
			 "cosmo_total_nonelectrostatic_energy": 8.44, 
			 "SMD_solvation_energy": 4.19 
		},
		"coords": [
			{
				"x": -2.5822144613,
				"y": 2.6316422964,
				"z": 0.7208239422,
				"element": "C" 
			},
			{
				"x": -2.3368356859,
				"y": 1.7089008756,
				"z": 1.8945099963,
				"element": "C" 
			},
			{
				"x": -2.8670339831,
				"y": 1.8902906902,
				"z": 2.9797843997,
				"element": "O" 
			},
			{
				"x": -1.4863663064,
				"y": 0.6145248783,
				"z": 1.7585599797,
				"element": "N" 
			},
			{
				"x": -0.7056284016,
				"y": 0.0601391164,
				"z": 0.7339222985,
				"element": "C" 
			},
			{
				"x": -0.5991583688,
				"y": 0.5669705257,
				"z": -0.5684842651,
				"element": "C" 
			},
			{
				"x": 0.2116336072,
				"y": -0.0693308624,
				"z": -1.5123068215,
				"element": "C" 
			},
			{
				"x": 0.2860318874,
				"y": 0.630105199,
				"z": -3.11224115,
				"element": "Cl" 
			},
			{
				"x": 0.932953851,
				"y": -1.220012432,
				"z": -1.1848435529,
				"element": "C" 
			},
			{
				"x": 2.0459708941,
				"y": -2.1169738812,
				"z": -2.4345822913,
				"element": "Br" 
			},
			{
				"x": 0.8267564673,
				"y": -1.7250279385,
				"z": 0.1135442861,
				"element": "C" 
			},
			{
				"x": 0.0249135933,
				"y": -1.1003593374,
				"z": 1.0560353925,
				"element": "C" 
			},
			{
				"x": -3.0276192542,
				"y": 2.0970623308,
				"z": -0.1240344128,
				"element": "H" 
			},
			{
				"x": -3.2716866686,
				"y": 3.404704206,
				"z": 1.0583548049,
				"element": "H" 
			},
			{
				"x": -1.6548838073,
				"y": 3.1018241156,
				"z": 0.3788766766,
				"element": "H" 
			},
			{
				"x": -1.4433364211,
				"y": 0.1148241122,
				"z": 2.6390974037,
				"element": "H" 
			},
			{
				"x": -1.1304569786,
				"y": 1.4509091361,
				"z": -0.882307781,
				"element": "H" 
			},
			{
				"x": 1.3814616442,
				"y": -2.617319812,
				"z": 0.3801253431,
				"element": "H" 
			},
			{
				"x": -0.0395016077,
				"y": -1.5143732187,
				"z": 2.0583657511,
				"element": "H" 
			}
		],
		 "valence_orbital": [ 
			{
				"type": "occ",
				"energy": -0.294,
				"method": "rhf"
			},
			{
				"type": "occ",
				"energy": -0.29174,
				"method": "rhf"
			},
			{
				"type": "occ",
				"energy": -0.26903,
				"method": "rhf"
			},
			{
				"type": "occ",
				"energy": -0.26873,
				"method": "rhf"
			},
			{
				"type": "occ",
				"energy": -0.23066,
				"method": "rhf"
			},
			{
				"type": "unocc",
				"energy": -0.03517,
				"method": "rhf"
			},
			{
				"type": "unocc",
				"energy": -0.0337,
				"method": "rhf"
			},
			{
				"type": "unocc",
				"energy": -0.01633,
				"method": "rhf"
			},
			{
				"type": "unocc",
				"energy": 0.02243,
				"method": "rhf"
			},
			{
				"type": "unocc",
				"energy": 0.04318,
				"method": "rhf"
			}
		],
		"cosmo_sigma_profile": { 
			"-0.025": 0.0,
			"-0.024": 0.0,
			"-0.023": 0.0,
			"-0.022": 0.0,
			"-0.021": 0.0,
			"-0.02": 0.0,
			"-0.019": 0.0,
			"-0.018": 0.0,
			"-0.017": 0.0,
			"-0.016": 0.0,
			"-0.015": 0.363454077902,
			"-0.014": 1.7536546215,
			"-0.013": 0.780631044781,
			"-0.012": 0.930619137439,
			"-0.011": 1.44834067004,
			"-0.01": 1.68397984221,
			"-0.009": 0.711054990443,
			"-0.008": 5.52434994433,
			"-0.007": 11.9422639686,
			"-0.006": 9.22781014861,
			"-0.005": 10.0579001165,
			"-0.004": 10.8360745766,
			"-0.003": 11.6788279655,
			"-0.002": 14.8993758435,
			"-0.001": 14.1550660608,
			"0.0": 17.0076597919,
			"0.001": 26.4629702266,
			"0.002": 22.0855543166,
			"0.003": 17.1152048764,
			"0.004": 19.0719850027,
			"0.005": 7.4590371529,
			"0.006": 2.23087701726,
			"0.007": 1.56524872895,
			"0.008": 0.755804701037,
			"0.009": 1.7167749885,
			"0.01": 1.31322187496,
			"0.011": 1.69805964805,
			"0.012": 3.9849499521,
			"0.013": 4.8888316493,
			"0.014": 1.25672069286,
			"0.015": 0.0265442461946,
			"0.016": 0.0,
			"0.017": 0.0,
			"0.018": 0.0,
			"0.019": 0.0,
			"0.02": 0.0,
			"0.021": 0.0,
			"0.022": 0.0,
			"0.023": 0.0,
			"0.024": 0.0,
			"0.025": 0.0
		}
	}
}
