{
	 "smiles": "NC1=NN=CS1", 
	 "Tm": 464.15, 
	 "num_atms": 9, 
	 "gaussian": { 
		 "optdone": 1, 
		 "sigma_profile": "yes", 
		 "theory": "DFT", 
		 "functional": "B3LYP", 
		 "basiset": "6-31G**", 
		 "properties": { 
			 "R2extent": 1125.5665, 
			 "electric_dipole_moment_norm": 3.57427753959, 
			 "electric_quadrupole_moment_norm": 13.6482709894, 
			 "total_energy": -640.423881873, 
			 "HOMO_LUMO_gap": 0.21521, 
			 "cosmo_polarized_energy": -13.82, 
			 "cosmo_cavitation_energy": 15.0, 
			 "cosmo_dispersion_energy": -12.13, 
			 "cosmo_repulsion_energy": 1.0, 
			 "cosmo_total_nonelectrostatic_energy": 3.87, 
			 "SMD_solvation_energy": 1.14 
		},
		"coords": [
			{
				"x": 1.3765883654,
				"y": -0.5856239756,
				"z": 0.4678854896,
				"element": "N" 
			},
			{
				"x": 0.3191848003,
				"y": -1.393054721,
				"z": 0.1282021778,
				"element": "C" 
			},
			{
				"x": -0.2297527484,
				"y": -2.2441780295,
				"z": 0.9548899122,
				"element": "N" 
			},
			{
				"x": -1.321891162,
				"y": -2.8731018056,
				"z": 0.4171385357,
				"element": "N" 
			},
			{
				"x": -1.57903134,
				"y": -2.5100253028,
				"z": -0.797485082,
				"element": "C" 
			},
			{
				"x": -0.4831091457,
				"y": -1.2913484077,
				"z": -1.4391375123,
				"element": "S" 
			},
			{
				"x": 1.8150271972,
				"y": -0.8622656949,
				"z": 1.3373269339,
				"element": "H" 
			},
			{
				"x": 2.0296450824,
				"y": -0.3490594933,
				"z": -0.2648657837,
				"element": "H" 
			},
			{
				"x": -2.3919610492,
				"y": -2.9103425697,
				"z": -1.3894546712,
				"element": "H" 
			}
		],
		 "valence_orbital": [ 
			{
				"type": "occ",
				"energy": -0.34995,
				"method": "rhf"
			},
			{
				"type": "occ",
				"energy": -0.30258,
				"method": "rhf"
			},
			{
				"type": "occ",
				"energy": -0.29309,
				"method": "rhf"
			},
			{
				"type": "occ",
				"energy": -0.26101,
				"method": "rhf"
			},
			{
				"type": "occ",
				"energy": -0.23773,
				"method": "rhf"
			},
			{
				"type": "unocc",
				"energy": -0.02252,
				"method": "rhf"
			},
			{
				"type": "unocc",
				"energy": -0.00391,
				"method": "rhf"
			},
			{
				"type": "unocc",
				"energy": 0.04189,
				"method": "rhf"
			},
			{
				"type": "unocc",
				"energy": 0.06269,
				"method": "rhf"
			},
			{
				"type": "unocc",
				"energy": 0.09852,
				"method": "rhf"
			}
		],
		"cosmo_sigma_profile": { 
			"-0.025": 0.0,
			"-0.024": 0.0,
			"-0.023": 0.0,
			"-0.022": 0.0,
			"-0.021": 0.0,
			"-0.02": 0.0,
			"-0.019": 0.0,
			"-0.018": 0.0,
			"-0.017": 0.0,
			"-0.016": 0.00317825815577,
			"-0.015": 1.16015976361,
			"-0.014": 2.89294503069,
			"-0.013": 2.55434165726,
			"-0.012": 2.4975028544,
			"-0.011": 3.36916078273,
			"-0.01": 4.38847335732,
			"-0.009": 4.30507463751,
			"-0.008": 3.07795679585,
			"-0.007": 3.93320990603,
			"-0.006": 2.89064701302,
			"-0.005": 3.34218147896,
			"-0.004": 3.62122027017,
			"-0.003": 4.36376242885,
			"-0.002": 4.49288168465,
			"-0.001": 7.82848790933,
			"0.0": 10.4214076727,
			"0.001": 9.25174946953,
			"0.002": 7.9869097681,
			"0.003": 5.39655704756,
			"0.004": 3.38293336667,
			"0.005": 2.63127477917,
			"0.006": 3.01722390523,
			"0.007": 3.12819776827,
			"0.008": 2.8985449026,
			"0.009": 1.63698511078,
			"0.01": 4.06109184254,
			"0.011": 2.90898253189,
			"0.012": 3.22103220752,
			"0.013": 3.36914367243,
			"0.014": 2.65644956935,
			"0.015": 1.76290044925,
			"0.016": 0.190296319883,
			"0.017": 0.0,
			"0.018": 0.0,
			"0.019": 0.0,
			"0.02": 0.0,
			"0.021": 0.0,
			"0.022": 0.0,
			"0.023": 0.0,
			"0.024": 0.0,
			"0.025": 0.0
		}
	}
}
