{
	 "smiles": "CC(C)C(CO)CCC(C)(O)C(O)C(C)C", 
	 "Tm": 333.15, 
	 "num_atms": 44, 
	 "gaussian": { 
		 "optdone": 1, 
		 "sigma_profile": "yes", 
		 "theory": "DFT", 
		 "functional": "B3LYP", 
		 "basiset": "6-31G**", 
		 "properties": { 
			 "R2extent": 6090.623, 
			 "electric_dipole_moment_norm": 1.23328047499, 
			 "electric_quadrupole_moment_norm": 12.3713647982, 
			 "total_energy": -737.933602302, 
			 "HOMO_LUMO_gap": 0.30107, 
			 "cosmo_polarized_energy": -12.3, 
			 "cosmo_cavitation_energy": 40.53, 
			 "cosmo_dispersion_energy": -27.63, 
			 "cosmo_repulsion_energy": 2.15, 
			 "cosmo_total_nonelectrostatic_energy": 15.05, 
			 "SMD_solvation_energy": 6.74 
		},
		"coords": [
			{
				"x": -4.6486601218,
				"y": 0.3873475901,
				"z": 0.0287393239,
				"element": "C" 
			},
			{
				"x": -4.5971903993,
				"y": -1.1444951966,
				"z": 0.1570280414,
				"element": "C" 
			},
			{
				"x": -5.5542067875,
				"y": -1.5792388155,
				"z": 1.2830778383,
				"element": "C" 
			},
			{
				"x": -3.1547640769,
				"y": -1.6965659294,
				"z": 0.3462910177,
				"element": "C" 
			},
			{
				"x": -3.1466666092,
				"y": -3.2375720488,
				"z": 0.2994409239,
				"element": "C" 
			},
			{
				"x": -1.8689199119,
				"y": -3.8062468476,
				"z": 0.5878710968,
				"element": "O" 
			},
			{
				"x": -2.1437922076,
				"y": -1.1497529283,
				"z": -0.696621042,
				"element": "C" 
			},
			{
				"x": -1.3896274554,
				"y": 0.1471177633,
				"z": -0.3065686022,
				"element": "C" 
			},
			{
				"x": 0.102392035,
				"y": -0.0019291755,
				"z": 0.1074743529,
				"element": "C" 
			},
			{
				"x": 0.2579169791,
				"y": -0.9748105186,
				"z": 1.2772068006,
				"element": "C" 
			},
			{
				"x": 0.5450694376,
				"y": 1.271539904,
				"z": 0.59113164,
				"element": "O" 
			},
			{
				"x": 0.9583798202,
				"y": -0.4022004377,
				"z": -1.1297973118,
				"element": "C" 
			},
			{
				"x": 0.8941742757,
				"y": 0.7479842294,
				"z": -1.9900352805,
				"element": "O" 
			},
			{
				"x": 2.4214367575,
				"y": -0.8408913439,
				"z": -0.8776947099,
				"element": "C" 
			},
			{
				"x": 3.3136221944,
				"y": 0.2627929846,
				"z": -0.2887132516,
				"element": "C" 
			},
			{
				"x": 3.0411683992,
				"y": -1.4005536544,
				"z": -2.1719993544,
				"element": "C" 
			},
			{
				"x": -5.6798264742,
				"y": 0.7173920092,
				"z": -0.1382001244,
				"element": "H" 
			},
			{
				"x": -4.0449999511,
				"y": 0.7596949128,
				"z": -0.8024811531,
				"element": "H" 
			},
			{
				"x": -4.2932088319,
				"y": 0.8734456531,
				"z": 0.9450351715,
				"element": "H" 
			},
			{
				"x": -4.9759639039,
				"y": -1.5638637715,
				"z": -0.7888543088,
				"element": "H" 
			},
			{
				"x": -5.6837287637,
				"y": -2.6631484899,
				"z": 1.3430712033,
				"element": "H" 
			},
			{
				"x": -6.5473930555,
				"y": -1.1436194746,
				"z": 1.1302595776,
				"element": "H" 
			},
			{
				"x": -5.1906825445,
				"y": -1.2307934838,
				"z": 2.2578541082,
				"element": "H" 
			},
			{
				"x": -2.815754015,
				"y": -1.4000074892,
				"z": 1.3525012071,
				"element": "H" 
			},
			{
				"x": -3.9030064914,
				"y": -3.6586348139,
				"z": 0.9735277342,
				"element": "H" 
			},
			{
				"x": -3.3937155395,
				"y": -3.5742821391,
				"z": -0.7146487768,
				"element": "H" 
			},
			{
				"x": -1.6799144517,
				"y": -3.6346945357,
				"z": 1.5195103809,
				"element": "H" 
			},
			{
				"x": -2.6761211197,
				"y": -0.9974192446,
				"z": -1.6442063234,
				"element": "H" 
			},
			{
				"x": -1.4187389677,
				"y": -1.9450923753,
				"z": -0.8950401774,
				"element": "H" 
			},
			{
				"x": -1.4160096257,
				"y": 0.8588169406,
				"z": -1.1378569752,
				"element": "H" 
			},
			{
				"x": -1.8814202308,
				"y": 0.6413834532,
				"z": 0.5366873173,
				"element": "H" 
			},
			{
				"x": -0.3816537193,
				"y": -0.6447323887,
				"z": 2.1019897907,
				"element": "H" 
			},
			{
				"x": 1.2863871686,
				"y": -0.9867276128,
				"z": 1.6450278659,
				"element": "H" 
			},
			{
				"x": -0.0319288102,
				"y": -1.9906338599,
				"z": 0.9951589087,
				"element": "H" 
			},
			{
				"x": 0.6831759934,
				"y": 1.8138036853,
				"z": -0.2007229573,
				"element": "H" 
			},
			{
				"x": 0.4524637369,
				"y": -1.2490347768,
				"z": -1.6190353513,
				"element": "H" 
			},
			{
				"x": 1.4141801815,
				"y": 0.5694648921,
				"z": -2.782432404,
				"element": "H" 
			},
			{
				"x": 2.3763470702,
				"y": -1.6741445488,
				"z": -0.1652605849,
				"element": "H" 
			},
			{
				"x": 2.9178638951,
				"y": 0.6432469725,
				"z": 0.6540052053,
				"element": "H" 
			},
			{
				"x": 3.381206502,
				"y": 1.11026767,
				"z": -0.9795359635,
				"element": "H" 
			},
			{
				"x": 4.3286886134,
				"y": -0.1147260455,
				"z": -0.1240481589,
				"element": "H" 
			},
			{
				"x": 2.4327648289,
				"y": -2.20443387,
				"z": -2.6014272938,
				"element": "H" 
			},
			{
				"x": 4.0406627656,
				"y": -1.8032711806,
				"z": -1.9798465305,
				"element": "H" 
			},
			{
				"x": 3.1635934113,
				"y": -0.6223816632,
				"z": -2.9379628703,
				"element": "H" 
			}
		],
		 "valence_orbital": [ 
			{
				"type": "occ",
				"energy": -0.30176,
				"method": "rhf"
			},
			{
				"type": "occ",
				"energy": -0.29985,
				"method": "rhf"
			},
			{
				"type": "occ",
				"energy": -0.27027,
				"method": "rhf"
			},
			{
				"type": "occ",
				"energy": -0.2628,
				"method": "rhf"
			},
			{
				"type": "occ",
				"energy": -0.24358,
				"method": "rhf"
			},
			{
				"type": "unocc",
				"energy": 0.05749,
				"method": "rhf"
			},
			{
				"type": "unocc",
				"energy": 0.07149,
				"method": "rhf"
			},
			{
				"type": "unocc",
				"energy": 0.08713,
				"method": "rhf"
			},
			{
				"type": "unocc",
				"energy": 0.09773,
				"method": "rhf"
			},
			{
				"type": "unocc",
				"energy": 0.10245,
				"method": "rhf"
			}
		],
		"cosmo_sigma_profile": { 
			"-0.025": 0.0,
			"-0.024": 0.0,
			"-0.023": 0.0,
			"-0.022": 0.0,
			"-0.021": 0.0,
			"-0.02": 0.0,
			"-0.019": 0.0,
			"-0.018": 0.0,
			"-0.017": 0.0,
			"-0.016": 0.0,
			"-0.015": 0.228288263661,
			"-0.014": 1.41965395558,
			"-0.013": 2.05542759986,
			"-0.012": 1.19535374709,
			"-0.011": 1.85881833362,
			"-0.01": 1.80649076322,
			"-0.009": 3.24223795813,
			"-0.008": 2.24230887883,
			"-0.007": 2.11866464519,
			"-0.006": 3.73794334268,
			"-0.005": 4.12369939869,
			"-0.004": 7.54392238057,
			"-0.003": 22.6788497925,
			"-0.002": 51.4702691444,
			"-0.001": 51.3345349829,
			"0.0": 40.1808897168,
			"0.001": 39.5694759632,
			"0.002": 25.8284994368,
			"0.003": 6.59872411331,
			"0.004": 6.29150163166,
			"0.005": 3.75986483678,
			"0.006": 3.42604614583,
			"0.007": 3.58155543711,
			"0.008": 3.79159981535,
			"0.009": 3.92308498774,
			"0.01": 2.96634975975,
			"0.011": 2.5663446445,
			"0.012": 2.26873885612,
			"0.013": 2.47002917977,
			"0.014": 2.64687977819,
			"0.015": 2.48885167698,
			"0.016": 0.0381578641098,
			"0.017": 0.0,
			"0.018": 0.0,
			"0.019": 0.0,
			"0.02": 0.0,
			"0.021": 0.0,
			"0.022": 0.0,
			"0.023": 0.0,
			"0.024": 0.0,
			"0.025": 0.0
		}
	}
}
