{
	 "smiles": "O=S(=O)(NC(=S)NC1=CC=CC=C1)C1=CC=CC=C1", 
	 "Tm": 417.15, 
	 "num_atms": 31, 
	 "gaussian": { 
		 "optdone": 1, 
		 "sigma_profile": "yes", 
		 "theory": "DFT", 
		 "functional": "B3LYP", 
		 "basiset": "6-31G**", 
		 "properties": { 
			 "R2extent": 6216.7722, 
			 "electric_dipole_moment_norm": 7.39419071299, 
			 "electric_quadrupole_moment_norm": 20.3332759653, 
			 "total_energy": -1558.87041312, 
			 "HOMO_LUMO_gap": 0.16294, 
			 "cosmo_polarized_energy": -19.09, 
			 "cosmo_cavitation_energy": 37.59, 
			 "cosmo_dispersion_energy": -26.25, 
			 "cosmo_repulsion_energy": 1.94, 
			 "cosmo_total_nonelectrostatic_energy": 13.27, 
			 "SMD_solvation_energy": 4.53 
		},
		"coords": [
			{
				"x": 1.2564437398,
				"y": -3.4637479133,
				"z": -1.0723328218,
				"element": "O" 
			},
			{
				"x": 0.5898342162,
				"y": -2.1962342137,
				"z": -1.3754905234,
				"element": "S" 
			},
			{
				"x": -0.2832677964,
				"y": -2.0200462743,
				"z": -2.532088646,
				"element": "O" 
			},
			{
				"x": 1.9220026784,
				"y": -1.0637015063,
				"z": -1.5079260908,
				"element": "N" 
			},
			{
				"x": 2.1999876376,
				"y": -0.3380717015,
				"z": -2.6793338451,
				"element": "C" 
			},
			{
				"x": 3.6845971448,
				"y": -0.483479155,
				"z": -3.4298826093,
				"element": "S" 
			},
			{
				"x": 1.2328623549,
				"y": 0.4928789335,
				"z": -3.1426491686,
				"element": "N" 
			},
			{
				"x": 0.1684162813,
				"y": 1.1353891431,
				"z": -2.4497128863,
				"element": "C" 
			},
			{
				"x": -1.0415174134,
				"y": 1.3328458178,
				"z": -3.1258848306,
				"element": "C" 
			},
			{
				"x": -2.0670452542,
				"y": 2.0554916561,
				"z": -2.5175327015,
				"element": "C" 
			},
			{
				"x": -1.8966662675,
				"y": 2.5726533098,
				"z": -1.2309366009,
				"element": "C" 
			},
			{
				"x": -0.6911125213,
				"y": 2.3652941639,
				"z": -0.5574801481,
				"element": "C" 
			},
			{
				"x": 0.3462908346,
				"y": 1.6561419191,
				"z": -1.1621055788,
				"element": "C" 
			},
			{
				"x": -0.2902008451,
				"y": -1.6916417449,
				"z": 0.0995425868,
				"element": "C" 
			},
			{
				"x": 0.2519075619,
				"y": -2.0087913113,
				"z": 1.3484101755,
				"element": "C" 
			},
			{
				"x": -0.4569377364,
				"y": -1.6594029748,
				"z": 2.4959058291,
				"element": "C" 
			},
			{
				"x": -1.6942150663,
				"y": -1.0173076413,
				"z": 2.3870736199,
				"element": "C" 
			},
			{
				"x": -2.2274897463,
				"y": -0.7211998076,
				"z": 1.131638706,
				"element": "C" 
			},
			{
				"x": -1.5252240647,
				"y": -1.0567201862,
				"z": -0.0270086077,
				"element": "C" 
			},
			{
				"x": 2.7549915866,
				"y": -1.5816716177,
				"z": -1.2351823713,
				"element": "H" 
			},
			{
				"x": 1.438468988,
				"y": 0.8473233961,
				"z": -4.067799464,
				"element": "H" 
			},
			{
				"x": -1.1717470232,
				"y": 0.9125334968,
				"z": -4.1183804077,
				"element": "H" 
			},
			{
				"x": -3.0011177076,
				"y": 2.2101189075,
				"z": -3.0494996235,
				"element": "H" 
			},
			{
				"x": -2.6957021552,
				"y": 3.136492987,
				"z": -0.7590959592,
				"element": "H" 
			},
			{
				"x": -0.5477059881,
				"y": 2.7701428457,
				"z": 0.4398721494,
				"element": "H" 
			},
			{
				"x": 1.2906298387,
				"y": 1.5142678321,
				"z": -0.6489727403,
				"element": "H" 
			},
			{
				"x": 1.1974015005,
				"y": -2.5356201287,
				"z": 1.4163124507,
				"element": "H" 
			},
			{
				"x": -0.0499326955,
				"y": -1.8988403837,
				"z": 3.4734178069,
				"element": "H" 
			},
			{
				"x": -2.2460761442,
				"y": -0.7544058825,
				"z": 3.2847529869,
				"element": "H" 
			},
			{
				"x": -3.1915295844,
				"y": -0.2291614394,
				"z": 1.0495444393,
				"element": "H" 
			},
			{
				"x": -1.9226463536,
				"y": -0.8365305265,
				"z": -1.0107751257,
				"element": "H" 
			}
		],
		 "valence_orbital": [ 
			{
				"type": "occ",
				"energy": -0.27903,
				"method": "rhf"
			},
			{
				"type": "occ",
				"energy": -0.26666,
				"method": "rhf"
			},
			{
				"type": "occ",
				"energy": -0.26021,
				"method": "rhf"
			},
			{
				"type": "occ",
				"energy": -0.23046,
				"method": "rhf"
			},
			{
				"type": "occ",
				"energy": -0.2173,
				"method": "rhf"
			},
			{
				"type": "unocc",
				"energy": -0.05436,
				"method": "rhf"
			},
			{
				"type": "unocc",
				"energy": -0.04893,
				"method": "rhf"
			},
			{
				"type": "unocc",
				"energy": -0.02913,
				"method": "rhf"
			},
			{
				"type": "unocc",
				"energy": -0.01913,
				"method": "rhf"
			},
			{
				"type": "unocc",
				"energy": -0.00879,
				"method": "rhf"
			}
		],
		"cosmo_sigma_profile": { 
			"-0.025": 0.0,
			"-0.024": 0.0,
			"-0.023": 0.0,
			"-0.022": 0.0,
			"-0.021": 0.0,
			"-0.02": 0.0,
			"-0.019": 0.0,
			"-0.018": 0.0,
			"-0.017": 0.0,
			"-0.016": 0.336778163428,
			"-0.015": 1.11124580131,
			"-0.014": 1.07313626325,
			"-0.013": 1.48716204158,
			"-0.012": 2.12574419584,
			"-0.011": 1.81929681438,
			"-0.01": 1.87979138877,
			"-0.009": 2.20860416143,
			"-0.008": 3.35825478328,
			"-0.007": 12.6258153009,
			"-0.006": 19.9065157542,
			"-0.005": 23.6597592959,
			"-0.004": 19.055956485,
			"-0.003": 18.4892934781,
			"-0.002": 15.2386391652,
			"-0.001": 16.4970391425,
			"0.0": 19.0812803362,
			"0.001": 21.3796728506,
			"0.002": 26.45063373,
			"0.003": 22.7910426229,
			"0.004": 12.0212228144,
			"0.005": 8.15216419979,
			"0.006": 8.14142729752,
			"0.007": 8.59197469647,
			"0.008": 10.7327497667,
			"0.009": 12.1649730955,
			"0.01": 10.9893475818,
			"0.011": 2.47135622603,
			"0.012": 0.00220874310443,
			"0.013": 0.0,
			"0.014": 0.0,
			"0.015": 0.0,
			"0.016": 0.0,
			"0.017": 0.0,
			"0.018": 0.0,
			"0.019": 0.0,
			"0.02": 0.0,
			"0.021": 0.0,
			"0.022": 0.0,
			"0.023": 0.0,
			"0.024": 0.0,
			"0.025": 0.0
		}
	}
}
