{
	 "smiles": "NC1=NNC(=C1)C1=CC=CO1", 
	 "Tm": 399.15, 
	 "num_atms": 18, 
	 "gaussian": { 
		 "optdone": 1, 
		 "sigma_profile": "yes", 
		 "theory": "DFT", 
		 "functional": "B3LYP", 
		 "basiset": "6-31G**", 
		 "properties": { 
			 "R2extent": 2851.6606, 
			 "electric_dipole_moment_norm": 2.27156905684, 
			 "electric_quadrupole_moment_norm": 9.2926217603, 
			 "total_energy": -510.396998902, 
			 "HOMO_LUMO_gap": 0.17312, 
			 "cosmo_polarized_energy": -12.7, 
			 "cosmo_cavitation_energy": 22.95, 
			 "cosmo_dispersion_energy": -17.27, 
			 "cosmo_repulsion_energy": 1.39, 
			 "cosmo_total_nonelectrostatic_energy": 7.07, 
			 "SMD_solvation_energy": 3.79 
		},
		"coords": [
			{
				"x": -0.9168025503,
				"y": -4.5110167383,
				"z": 1.1262074267,
				"element": "N" 
			},
			{
				"x": -0.131401996,
				"y": -3.4367716368,
				"z": 0.7011799196,
				"element": "C" 
			},
			{
				"x": 0.8596923174,
				"y": -2.9743541913,
				"z": 1.466790162,
				"element": "N" 
			},
			{
				"x": 1.3353017571,
				"y": -1.9029871464,
				"z": 0.7816274922,
				"element": "N" 
			},
			{
				"x": 0.6893096352,
				"y": -1.6886664786,
				"z": -0.3964371388,
				"element": "C" 
			},
			{
				"x": -0.2862780606,
				"y": -2.6756149485,
				"z": -0.4840534431,
				"element": "C" 
			},
			{
				"x": 1.045187684,
				"y": -0.6044444487,
				"z": -1.2802113963,
				"element": "C" 
			},
			{
				"x": 0.5672770691,
				"y": -0.1654899327,
				"z": -2.4866609659,
				"element": "C" 
			},
			{
				"x": 1.3577520343,
				"y": 0.9713606488,
				"z": -2.8470039868,
				"element": "C" 
			},
			{
				"x": 2.2583641679,
				"y": 1.1471781329,
				"z": -1.8414784625,
				"element": "C" 
			},
			{
				"x": 2.0843508623,
				"y": 0.1961998704,
				"z": -0.8770277916,
				"element": "O" 
			},
			{
				"x": -0.4857507512,
				"y": -4.9985852307,
				"z": 1.9028293133,
				"element": "H" 
			},
			{
				"x": -1.1479404185,
				"y": -5.1572490751,
				"z": 0.3821026943,
				"element": "H" 
			},
			{
				"x": 2.1015162157,
				"y": -1.3675615732,
				"z": 1.1556633569,
				"element": "H" 
			},
			{
				"x": -1.0096970162,
				"y": -2.8127705173,
				"z": -1.2733898771,
				"element": "H" 
			},
			{
				"x": -0.2481745634,
				"y": -0.5999695888,
				"z": -3.0458922754,
				"element": "H" 
			},
			{
				"x": 1.2642160764,
				"y": 1.5757712826,
				"z": -3.7376195999,
				"element": "H" 
			},
			{
				"x": 3.0487775368,
				"y": 1.8587715717,
				"z": -1.6621254277,
				"element": "H" 
			}
		],
		 "valence_orbital": [ 
			{
				"type": "occ",
				"energy": -0.2871,
				"method": "rhf"
			},
			{
				"type": "occ",
				"energy": -0.28187,
				"method": "rhf"
			},
			{
				"type": "occ",
				"energy": -0.27064,
				"method": "rhf"
			},
			{
				"type": "occ",
				"energy": -0.21212,
				"method": "rhf"
			},
			{
				"type": "occ",
				"energy": -0.1951,
				"method": "rhf"
			},
			{
				"type": "unocc",
				"energy": -0.02198,
				"method": "rhf"
			},
			{
				"type": "unocc",
				"energy": 0.049,
				"method": "rhf"
			},
			{
				"type": "unocc",
				"energy": 0.07567,
				"method": "rhf"
			},
			{
				"type": "unocc",
				"energy": 0.08949,
				"method": "rhf"
			},
			{
				"type": "unocc",
				"energy": 0.10068,
				"method": "rhf"
			}
		],
		"cosmo_sigma_profile": { 
			"-0.025": 0.0,
			"-0.024": 0.0,
			"-0.023": 0.0,
			"-0.022": 0.0,
			"-0.021": 0.0,
			"-0.02": 0.0,
			"-0.019": 0.0,
			"-0.018": 0.0,
			"-0.017": 0.0,
			"-0.016": 0.262810747473,
			"-0.015": 0.757261418617,
			"-0.014": 0.843820190399,
			"-0.013": 0.990952971278,
			"-0.012": 2.45673733738,
			"-0.011": 3.00861881097,
			"-0.01": 3.45104536458,
			"-0.009": 4.82435080142,
			"-0.008": 4.59240508672,
			"-0.007": 8.78871571664,
			"-0.006": 10.3411942788,
			"-0.005": 9.34052929138,
			"-0.004": 8.62322914571,
			"-0.003": 9.40666853045,
			"-0.002": 8.40616104514,
			"-0.001": 6.7053309667,
			"0.0": 8.46911281664,
			"0.001": 9.46753744667,
			"0.002": 13.5181016576,
			"0.003": 14.1771275598,
			"0.004": 14.9111177284,
			"0.005": 13.4860596776,
			"0.006": 6.61679925723,
			"0.007": 2.78995121741,
			"0.008": 2.37001754118,
			"0.009": 1.99361609595,
			"0.01": 2.62628093682,
			"0.011": 2.09938891952,
			"0.012": 1.79227653315,
			"0.013": 1.60348450291,
			"0.014": 1.83501906781,
			"0.015": 1.78764907502,
			"0.016": 1.29340598676,
			"0.017": 0.214164301934,
			"0.018": 0.0,
			"0.019": 0.0,
			"0.02": 0.0,
			"0.021": 0.0,
			"0.022": 0.0,
			"0.023": 0.0,
			"0.024": 0.0,
			"0.025": 0.0
		}
	}
}
