{
	 "smiles": "SC1=NN=C(N1CC1=CC=CC=C1)C1=CN=CC=C1", 
	 "Tm": 453.15, 
	 "num_atms": 31, 
	 "gaussian": { 
		 "optdone": 1, 
		 "sigma_profile": "yes", 
		 "theory": "DFT", 
		 "functional": "B3LYP", 
		 "basiset": "6-31G**", 
		 "properties": { 
			 "R2extent": 6222.369, 
			 "electric_dipole_moment_norm": 3.77911654888, 
			 "electric_quadrupole_moment_norm": 19.6440510746, 
			 "total_energy": -1157.88188867, 
			 "HOMO_LUMO_gap": 0.18569, 
			 "cosmo_polarized_energy": -18.01, 
			 "cosmo_cavitation_energy": 36.91, 
			 "cosmo_dispersion_energy": -25.75, 
			 "cosmo_repulsion_energy": 1.93, 
			 "cosmo_total_nonelectrostatic_energy": 13.1, 
			 "SMD_solvation_energy": 1.89 
		},
		"coords": [
			{
				"x": -1.444565,
				"y": 4.2390816511,
				"z": 0.2043845497,
				"element": "S" 
			},
			{
				"x": -2.0982186608,
				"y": 2.736044381,
				"z": 0.8723979122,
				"element": "C" 
			},
			{
				"x": -2.9539132657,
				"y": 2.6595574394,
				"z": 1.864787207,
				"element": "N" 
			},
			{
				"x": -3.2079668681,
				"y": 1.3213726295,
				"z": 2.0679656763,
				"element": "N" 
			},
			{
				"x": -2.5046334631,
				"y": 0.6312989404,
				"z": 1.1950230596,
				"element": "C" 
			},
			{
				"x": -1.7708036783,
				"y": 1.4922996964,
				"z": 0.391418728,
				"element": "N" 
			},
			{
				"x": -0.7053918719,
				"y": 1.1801245839,
				"z": -0.575086155,
				"element": "C" 
			},
			{
				"x": 0.5616591837,
				"y": 0.6385118736,
				"z": 0.0617459086,
				"element": "C" 
			},
			{
				"x": 1.275455868,
				"y": 1.4002242194,
				"z": 0.9973104027,
				"element": "C" 
			},
			{
				"x": 2.448840659,
				"y": 0.9030506925,
				"z": 1.561780687,
				"element": "C" 
			},
			{
				"x": 2.9264107915,
				"y": -0.3578869483,
				"z": 1.1939834886,
				"element": "C" 
			},
			{
				"x": 2.2229730132,
				"y": -1.1196305992,
				"z": 0.2614594943,
				"element": "C" 
			},
			{
				"x": 1.0440297496,
				"y": -0.6236626055,
				"z": -0.2996841132,
				"element": "C" 
			},
			{
				"x": -2.5249978352,
				"y": -0.8356817289,
				"z": 1.1194238924,
				"element": "C" 
			},
			{
				"x": -2.5720842889,
				"y": -1.5439082041,
				"z": -0.0915513188,
				"element": "C" 
			},
			{
				"x": -2.610239847,
				"y": -2.8763425481,
				"z": -0.1796076483,
				"element": "N" 
			},
			{
				"x": -2.6284609664,
				"y": -3.5696464523,
				"z": 0.9655069142,
				"element": "C" 
			},
			{
				"x": -2.6263551685,
				"y": -2.9699792905,
				"z": 2.2267658382,
				"element": "C" 
			},
			{
				"x": -2.5711244812,
				"y": -1.5828686069,
				"z": 2.3058356036,
				"element": "C" 
			},
			{
				"x": -2.1778255312,
				"y": 4.9962655072,
				"z": 1.041822672,
				"element": "H" 
			},
			{
				"x": -1.0904054115,
				"y": 0.4724929701,
				"z": -1.3103052453,
				"element": "H" 
			},
			{
				"x": -0.4984901032,
				"y": 2.107687676,
				"z": -1.1175412327,
				"element": "H" 
			},
			{
				"x": 0.9134182273,
				"y": 2.3836948113,
				"z": 1.2848672553,
				"element": "H" 
			},
			{
				"x": 2.9934871159,
				"y": 1.5016735445,
				"z": 2.2860824513,
				"element": "H" 
			},
			{
				"x": 3.8419694488,
				"y": -0.742785604,
				"z": 1.6335474061,
				"element": "H" 
			},
			{
				"x": 2.5852695722,
				"y": -2.1018517666,
				"z": -0.02736107,
				"element": "H" 
			},
			{
				"x": 0.4942683205,
				"y": -1.2259763172,
				"z": -1.0180761239,
				"element": "H" 
			},
			{
				"x": -2.6085434137,
				"y": -1.0091714985,
				"z": -1.0387285633,
				"element": "H" 
			},
			{
				"x": -2.6544869949,
				"y": -4.6534984686,
				"z": 0.8693779837,
				"element": "H" 
			},
			{
				"x": -2.6601841513,
				"y": -3.5794287216,
				"z": 3.1242413742,
				"element": "H" 
			},
			{
				"x": -2.5647909484,
				"y": -1.0661612559,
				"z": 3.2596129657,
				"element": "H" 
			}
		],
		 "valence_orbital": [ 
			{
				"type": "occ",
				"energy": -0.26455,
				"method": "rhf"
			},
			{
				"type": "occ",
				"energy": -0.2621,
				"method": "rhf"
			},
			{
				"type": "occ",
				"energy": -0.25981,
				"method": "rhf"
			},
			{
				"type": "occ",
				"energy": -0.25602,
				"method": "rhf"
			},
			{
				"type": "occ",
				"energy": -0.22733,
				"method": "rhf"
			},
			{
				"type": "unocc",
				"energy": -0.04164,
				"method": "rhf"
			},
			{
				"type": "unocc",
				"energy": -0.03092,
				"method": "rhf"
			},
			{
				"type": "unocc",
				"energy": -0.02311,
				"method": "rhf"
			},
			{
				"type": "unocc",
				"energy": -0.01242,
				"method": "rhf"
			},
			{
				"type": "unocc",
				"energy": 0.00304,
				"method": "rhf"
			}
		],
		"cosmo_sigma_profile": { 
			"-0.025": 0.0,
			"-0.024": 0.0,
			"-0.023": 0.0,
			"-0.022": 0.0,
			"-0.021": 0.0,
			"-0.02": 0.0,
			"-0.019": 0.0,
			"-0.018": 0.0,
			"-0.017": 0.0,
			"-0.016": 0.0,
			"-0.015": 0.0,
			"-0.014": 0.0,
			"-0.013": 0.0903084524921,
			"-0.012": 1.61454130374,
			"-0.011": 1.66081638615,
			"-0.01": 2.62572931479,
			"-0.009": 3.85579812772,
			"-0.008": 6.04772466844,
			"-0.007": 12.4738277077,
			"-0.006": 19.2089661035,
			"-0.005": 21.9311417493,
			"-0.004": 20.2496860092,
			"-0.003": 19.49440332,
			"-0.002": 18.3529138306,
			"-0.001": 19.0688339,
			"0.0": 19.8865130186,
			"0.001": 25.7173527648,
			"0.002": 25.2443307741,
			"0.003": 14.7556935134,
			"0.004": 14.9030093727,
			"0.005": 14.6034523457,
			"0.006": 5.33474555649,
			"0.007": 4.34682068915,
			"0.008": 2.88832615658,
			"0.009": 2.61254231781,
			"0.01": 2.6548829511,
			"0.011": 3.1503970036,
			"0.012": 3.17516157183,
			"0.013": 4.8353683325,
			"0.014": 3.6761565505,
			"0.015": 2.8954368186,
			"0.016": 1.96328823416,
			"0.017": 0.133436659798,
			"0.018": 0.0,
			"0.019": 0.0,
			"0.02": 0.0,
			"0.021": 0.0,
			"0.022": 0.0,
			"0.023": 0.0,
			"0.024": 0.0,
			"0.025": 0.0
		}
	}
}
