{
	 "smiles": "ClS(=O)(=O)CCCN1C(=O)C2=C(C=CC=C2)C1=O", 
	 "Tm": 333.15, 
	 "num_atms": 28, 
	 "gaussian": { 
		 "optdone": 1, 
		 "sigma_profile": "yes", 
		 "theory": "DFT", 
		 "functional": "B3LYP", 
		 "basiset": "6-31G**", 
		 "properties": { 
			 "R2extent": 5601.2594, 
			 "electric_dipole_moment_norm": 3.35917861686, 
			 "electric_quadrupole_moment_norm": 22.7385467761, 
			 "total_energy": -1639.19670848, 
			 "HOMO_LUMO_gap": 0.18516, 
			 "cosmo_polarized_energy": -17.04, 
			 "cosmo_cavitation_energy": 35.45, 
			 "cosmo_dispersion_energy": -24.94, 
			 "cosmo_repulsion_energy": 1.88, 
			 "cosmo_total_nonelectrostatic_energy": 12.38, 
			 "SMD_solvation_energy": 5.59 
		},
		"coords": [
			{
				"x": -0.5624147959,
				"y": 0.7678857342,
				"z": -3.7383629388,
				"element": "Cl" 
			},
			{
				"x": -0.0560312069,
				"y": -0.2810568287,
				"z": -1.9512126135,
				"element": "S" 
			},
			{
				"x": -0.9287704991,
				"y": 0.2289197741,
				"z": -0.8985723315,
				"element": "O" 
			},
			{
				"x": -0.0213910952,
				"y": -1.700981606,
				"z": -2.2812103858,
				"element": "O" 
			},
			{
				"x": 1.6473527024,
				"y": 0.3271860578,
				"z": -1.7349019994,
				"element": "C" 
			},
			{
				"x": 2.3368450059,
				"y": -0.3363008093,
				"z": -0.5225259915,
				"element": "C" 
			},
			{
				"x": 2.4613237495,
				"y": 0.5748788708,
				"z": 0.7080191762,
				"element": "C" 
			},
			{
				"x": 1.1914337526,
				"y": 1.001769807,
				"z": 1.2685967856,
				"element": "N" 
			},
			{
				"x": 0.5651022306,
				"y": 2.2201204543,
				"z": 0.9606114914,
				"element": "C" 
			},
			{
				"x": 0.9898581005,
				"y": 3.0383150027,
				"z": 0.1648543196,
				"element": "O" 
			},
			{
				"x": -0.6661179383,
				"y": 2.262188045,
				"z": 1.7987796584,
				"element": "C" 
			},
			{
				"x": -0.7286715394,
				"y": 1.0830961799,
				"z": 2.5462726569,
				"element": "C" 
			},
			{
				"x": -1.7759942443,
				"y": 0.8333987936,
				"z": 3.4203979432,
				"element": "C" 
			},
			{
				"x": -2.7732236581,
				"y": 1.812186139,
				"z": 3.5270815916,
				"element": "C" 
			},
			{
				"x": -2.7104024503,
				"y": 2.9938533001,
				"z": 2.777700558,
				"element": "C" 
			},
			{
				"x": -1.6484222824,
				"y": 3.2363493677,
				"z": 1.8962093181,
				"element": "C" 
			},
			{
				"x": 0.4664244191,
				"y": 0.2546508257,
				"z": 2.2158083859,
				"element": "C" 
			},
			{
				"x": 0.8053655242,
				"y": -0.8290547385,
				"z": 2.6474012802,
				"element": "O" 
			},
			{
				"x": 1.5694580679,
				"y": 1.4131471,
				"z": -1.6380774393,
				"element": "H" 
			},
			{
				"x": 2.1353051563,
				"y": 0.0753505281,
				"z": -2.6781772858,
				"element": "H" 
			},
			{
				"x": 1.838841572,
				"y": -1.2709037699,
				"z": -0.2462081476,
				"element": "H" 
			},
			{
				"x": 3.3493017117,
				"y": -0.6170371878,
				"z": -0.8324093082,
				"element": "H" 
			},
			{
				"x": 3.018276977,
				"y": 1.4809500982,
				"z": 0.4535334681,
				"element": "H" 
			},
			{
				"x": 3.0023015642,
				"y": 0.0372938566,
				"z": 1.4915485639,
				"element": "H" 
			},
			{
				"x": -1.8162207409,
				"y": -0.0868305612,
				"z": 3.9939597977,
				"element": "H" 
			},
			{
				"x": -3.610589841,
				"y": 1.65290147,
				"z": 4.199772715,
				"element": "H" 
			},
			{
				"x": -3.5000130352,
				"y": 3.7319747253,
				"z": 2.8812371364,
				"element": "H" 
			},
			{
				"x": -1.591927207,
				"y": 4.1463493711,
				"z": 1.3079735951,
				"element": "H" 
			}
		],
		 "valence_orbital": [ 
			{
				"type": "occ",
				"energy": -0.29697,
				"method": "rhf"
			},
			{
				"type": "occ",
				"energy": -0.2893,
				"method": "rhf"
			},
			{
				"type": "occ",
				"energy": -0.27861,
				"method": "rhf"
			},
			{
				"type": "occ",
				"energy": -0.27412,
				"method": "rhf"
			},
			{
				"type": "occ",
				"energy": -0.27042,
				"method": "rhf"
			},
			{
				"type": "unocc",
				"energy": -0.08526,
				"method": "rhf"
			},
			{
				"type": "unocc",
				"energy": -0.08173,
				"method": "rhf"
			},
			{
				"type": "unocc",
				"energy": -0.04203,
				"method": "rhf"
			},
			{
				"type": "unocc",
				"energy": 0.02591,
				"method": "rhf"
			},
			{
				"type": "unocc",
				"energy": 0.03059,
				"method": "rhf"
			}
		],
		"cosmo_sigma_profile": { 
			"-0.025": 0.0,
			"-0.024": 0.0,
			"-0.023": 0.0,
			"-0.022": 0.0,
			"-0.021": 0.0,
			"-0.02": 0.0,
			"-0.019": 0.0,
			"-0.018": 0.0,
			"-0.017": 0.0,
			"-0.016": 0.0,
			"-0.015": 0.0,
			"-0.014": 0.0,
			"-0.013": 0.0,
			"-0.012": 0.0,
			"-0.011": 0.238928227061,
			"-0.01": 2.29213176789,
			"-0.009": 2.55390200588,
			"-0.008": 5.4541191208,
			"-0.007": 19.2178416793,
			"-0.006": 23.4360724895,
			"-0.005": 20.4001641832,
			"-0.004": 17.8279543031,
			"-0.003": 15.4301109263,
			"-0.002": 14.2254130554,
			"-0.001": 15.8342195066,
			"0.0": 17.0169031976,
			"0.001": 20.5382556921,
			"0.002": 23.6068648043,
			"0.003": 20.5082195378,
			"0.004": 13.5545306522,
			"0.005": 6.18044406202,
			"0.006": 5.66729664578,
			"0.007": 7.03263725151,
			"0.008": 10.251441191,
			"0.009": 8.55894301384,
			"0.01": 5.81580592932,
			"0.011": 7.67886331797,
			"0.012": 2.51592343001,
			"0.013": 0.00503278260461,
			"0.014": 0.0,
			"0.015": 0.0,
			"0.016": 0.0,
			"0.017": 0.0,
			"0.018": 0.0,
			"0.019": 0.0,
			"0.02": 0.0,
			"0.021": 0.0,
			"0.022": 0.0,
			"0.023": 0.0,
			"0.024": 0.0,
			"0.025": 0.0
		}
	}
}
