{
	 "smiles": "CN(C)S(=O)(=O)C1=CC(=C(Cl)C=C1)[N+]([O-])=O", 
	 "Tm": 378.15, 
	 "num_atms": 25, 
	 "gaussian": { 
		 "optdone": 1, 
		 "sigma_profile": "yes", 
		 "theory": "DFT", 
		 "functional": "B3LYP", 
		 "basiset": "6-31G**", 
		 "properties": { 
			 "R2extent": 5762.0639, 
			 "electric_dipole_moment_norm": 5.29163962775, 
			 "electric_quadrupole_moment_norm": 24.0573264439, 
			 "total_energy": -1578.86083188, 
			 "HOMO_LUMO_gap": 0.16542, 
			 "cosmo_polarized_energy": -16.83, 
			 "cosmo_cavitation_energy": 32.69, 
			 "cosmo_dispersion_energy": -23.44, 
			 "cosmo_repulsion_energy": 1.77, 
			 "cosmo_total_nonelectrostatic_energy": 11.02, 
			 "SMD_solvation_energy": 6.2 
		},
		"coords": [
			{
				"x": -0.3589308924,
				"y": -2.0711860803,
				"z": -1.5774794533,
				"element": "C" 
			},
			{
				"x": 0.7117386313,
				"y": -1.1928901369,
				"z": -1.0996714353,
				"element": "N" 
			},
			{
				"x": 1.5318828873,
				"y": -1.7327519257,
				"z": -0.0113862507,
				"element": "C" 
			},
			{
				"x": 0.3771362337,
				"y": 0.4542438507,
				"z": -1.0530526552,
				"element": "S" 
			},
			{
				"x": -0.3387830403,
				"y": 0.7721347773,
				"z": -2.2885582738,
				"element": "O" 
			},
			{
				"x": 1.6165824864,
				"y": 1.1235511688,
				"z": -0.6618231468,
				"element": "O" 
			},
			{
				"x": -0.7972655831,
				"y": 0.7050486591,
				"z": 0.294808854,
				"element": "C" 
			},
			{
				"x": -0.3252577948,
				"y": 0.8951278633,
				"z": 1.5893585101,
				"element": "C" 
			},
			{
				"x": -1.2332966248,
				"y": 1.0687151996,
				"z": 2.6335309869,
				"element": "C" 
			},
			{
				"x": -2.6167977143,
				"y": 1.030567363,
				"z": 2.3958949196,
				"element": "C" 
			},
			{
				"x": -3.8109573631,
				"y": 1.1574612266,
				"z": 3.6516660035,
				"element": "Cl" 
			},
			{
				"x": -3.0703938221,
				"y": 0.8318440013,
				"z": 1.0868480494,
				"element": "C" 
			},
			{
				"x": -2.1706097583,
				"y": 0.6791492594,
				"z": 0.0367175524,
				"element": "C" 
			},
			{
				"x": -0.6486658789,
				"y": 1.2997229962,
				"z": 3.9690448249,
				"element": "N" 
			},
			{
				"x": -1.2438990481,
				"y": 2.0445857939,
				"z": 4.7379698704,
				"element": "O" 
			},
			{
				"x": 0.4221777349,
				"y": 0.7396574952,
				"z": 4.1998885215,
				"element": "O" 
			},
			{
				"x": 0.0951520807,
				"y": -3.0140663145,
				"z": -1.8946930906,
				"element": "H" 
			},
			{
				"x": -0.8449291298,
				"y": -1.6148270594,
				"z": -2.4391829497,
				"element": "H" 
			},
			{
				"x": -1.1074258249,
				"y": -2.2900351709,
				"z": -0.8004771012,
				"element": "H" 
			},
			{
				"x": 0.951656865,
				"y": -1.9221036574,
				"z": 0.9044454272,
				"element": "H" 
			},
			{
				"x": 1.9608049525,
				"y": -2.6794487094,
				"z": -0.3513865165,
				"element": "H" 
			},
			{
				"x": 2.3465541884,
				"y": -1.0428640943,
				"z": 0.2058218222,
				"element": "H" 
			},
			{
				"x": 0.7360546739,
				"y": 0.9390550267,
				"z": 1.8003081967,
				"element": "H" 
			},
			{
				"x": -4.1385695,
				"y": 0.8026427222,
				"z": 0.9043988073,
				"element": "H" 
			},
			{
				"x": -2.525658759,
				"y": 0.5600657455,
				"z": -0.980891473,
				"element": "H" 
			}
		],
		 "valence_orbital": [ 
			{
				"type": "occ",
				"energy": -0.31761,
				"method": "rhf"
			},
			{
				"type": "occ",
				"energy": -0.31356,
				"method": "rhf"
			},
			{
				"type": "occ",
				"energy": -0.29697,
				"method": "rhf"
			},
			{
				"type": "occ",
				"energy": -0.29339,
				"method": "rhf"
			},
			{
				"type": "occ",
				"energy": -0.27036,
				"method": "rhf"
			},
			{
				"type": "unocc",
				"energy": -0.10494,
				"method": "rhf"
			},
			{
				"type": "unocc",
				"energy": -0.06795,
				"method": "rhf"
			},
			{
				"type": "unocc",
				"energy": -0.03758,
				"method": "rhf"
			},
			{
				"type": "unocc",
				"energy": -0.00306,
				"method": "rhf"
			},
			{
				"type": "unocc",
				"energy": 0.0484,
				"method": "rhf"
			}
		],
		"cosmo_sigma_profile": { 
			"-0.025": 0.0,
			"-0.024": 0.0,
			"-0.023": 0.0,
			"-0.022": 0.0,
			"-0.021": 0.0,
			"-0.02": 0.0,
			"-0.019": 0.0,
			"-0.018": 0.0,
			"-0.017": 0.0,
			"-0.016": 0.0,
			"-0.015": 0.0,
			"-0.014": 0.0,
			"-0.013": 0.0,
			"-0.012": 0.0,
			"-0.011": 0.0,
			"-0.01": 0.441229049792,
			"-0.009": 4.26112755564,
			"-0.008": 5.67558753956,
			"-0.007": 8.24232052528,
			"-0.006": 12.962322054,
			"-0.005": 22.1923511857,
			"-0.004": 24.3950808388,
			"-0.003": 30.3215017666,
			"-0.002": 24.8317547351,
			"-0.001": 16.4398303524,
			"0.0": 9.87041394595,
			"0.001": 9.75949046314,
			"0.002": 11.9321634754,
			"0.003": 10.8721345165,
			"0.004": 7.60579377745,
			"0.005": 6.57093600204,
			"0.006": 11.5962658127,
			"0.007": 14.9720730493,
			"0.008": 8.38594864756,
			"0.009": 7.78177430718,
			"0.01": 6.91166686377,
			"0.011": 6.76231111532,
			"0.012": 0.413906467849,
			"0.013": 0.0,
			"0.014": 0.0,
			"0.015": 0.0,
			"0.016": 0.0,
			"0.017": 0.0,
			"0.018": 0.0,
			"0.019": 0.0,
			"0.02": 0.0,
			"0.021": 0.0,
			"0.022": 0.0,
			"0.023": 0.0,
			"0.024": 0.0,
			"0.025": 0.0
		}
	}
}
