{
	 "smiles": "ClS(=O)(=O)C1=CC=C(C=C1)C1=CC=CC=C1", 
	 "Tm": 388.15, 
	 "num_atms": 25, 
	 "gaussian": { 
		 "optdone": 1, 
		 "sigma_profile": "yes", 
		 "theory": "DFT", 
		 "functional": "B3LYP", 
		 "basiset": "6-31G**", 
		 "properties": { 
			 "R2extent": 7071.7766, 
			 "electric_dipole_moment_norm": 6.56612219046, 
			 "electric_quadrupole_moment_norm": 14.1133166998, 
			 "total_energy": -1471.46867107, 
			 "HOMO_LUMO_gap": 0.16201, 
			 "cosmo_polarized_energy": -10.32, 
			 "cosmo_cavitation_energy": 32.97, 
			 "cosmo_dispersion_energy": -24.52, 
			 "cosmo_repulsion_energy": 1.85, 
			 "cosmo_total_nonelectrostatic_energy": 10.3, 
			 "SMD_solvation_energy": 4.07 
		},
		"coords": [
			{
				"x": 3.7012477385,
				"y": -3.7226240662,
				"z": -0.1746648702,
				"element": "Cl" 
			},
			{
				"x": 1.7270368516,
				"y": -3.4568271653,
				"z": -0.9554359477,
				"element": "S" 
			},
			{
				"x": 1.849007838,
				"y": -3.5815783512,
				"z": -2.402746844,
				"element": "O" 
			},
			{
				"x": 0.8644493024,
				"y": -4.3286709215,
				"z": -0.1674267631,
				"element": "O" 
			},
			{
				"x": 1.402953667,
				"y": -1.756790722,
				"z": -0.5301274768,
				"element": "C" 
			},
			{
				"x": 0.8030501921,
				"y": -1.4680465573,
				"z": 0.6963902435,
				"element": "C" 
			},
			{
				"x": 0.5426565651,
				"y": -0.1389161912,
				"z": 1.0133101107,
				"element": "C" 
			},
			{
				"x": 0.873156384,
				"y": 0.9013943168,
				"z": 0.1249254306,
				"element": "C" 
			},
			{
				"x": 1.474533125,
				"y": 0.568295467,
				"z": -1.1032687049,
				"element": "C" 
			},
			{
				"x": 1.7457097518,
				"y": -0.7541243878,
				"z": -1.4384035019,
				"element": "C" 
			},
			{
				"x": 0.5915357652,
				"y": 2.3156935932,
				"z": 0.4735677535,
				"element": "C" 
			},
			{
				"x": 1.4894863338,
				"y": 3.3364775638,
				"z": 0.1173062493,
				"element": "C" 
			},
			{
				"x": 1.2260382183,
				"y": 4.6648334117,
				"z": 0.4468348459,
				"element": "C" 
			},
			{
				"x": 0.0584508366,
				"y": 4.9995937423,
				"z": 1.1354591339,
				"element": "C" 
			},
			{
				"x": -0.8432338675,
				"y": 3.9956484613,
				"z": 1.4938620473,
				"element": "C" 
			},
			{
				"x": -0.5788969966,
				"y": 2.6665275451,
				"z": 1.1679847634,
				"element": "C" 
			},
			{
				"x": 0.5482847934,
				"y": -2.268118316,
				"z": 1.3822837852,
				"element": "H" 
			},
			{
				"x": 0.097452119,
				"y": 0.0988336451,
				"z": 1.9738073523,
				"element": "H" 
			},
			{
				"x": 1.705857859,
				"y": 1.3531527139,
				"z": -1.8158384028,
				"element": "H" 
			},
			{
				"x": 2.1941708261,
				"y": -1.010365688,
				"z": -2.3916561844,
				"element": "H" 
			},
			{
				"x": 2.4132874245,
				"y": 3.083810251,
				"z": -0.3946001971,
				"element": "H" 
			},
			{
				"x": 1.9374685766,
				"y": 5.4380509964,
				"z": 0.1720258205,
				"element": "H" 
			},
			{
				"x": -0.1471635016,
				"y": 6.0348660865,
				"z": 1.390775456,
				"element": "H" 
			},
			{
				"x": -1.7583539749,
				"y": 4.2478819092,
				"z": 2.0215487899,
				"element": "H" 
			},
			{
				"x": -1.2998858272,
				"y": 1.897102663,
				"z": 1.4276871108,
				"element": "H" 
			}
		],
		 "valence_orbital": [ 
			{
				"type": "occ",
				"energy": -0.30955,
				"method": "rhf"
			},
			{
				"type": "occ",
				"energy": -0.30109,
				"method": "rhf"
			},
			{
				"type": "occ",
				"energy": -0.28623,
				"method": "rhf"
			},
			{
				"type": "occ",
				"energy": -0.26871,
				"method": "rhf"
			},
			{
				"type": "occ",
				"energy": -0.25181,
				"method": "rhf"
			},
			{
				"type": "unocc",
				"energy": -0.0898,
				"method": "rhf"
			},
			{
				"type": "unocc",
				"energy": -0.05329,
				"method": "rhf"
			},
			{
				"type": "unocc",
				"energy": -0.03642,
				"method": "rhf"
			},
			{
				"type": "unocc",
				"energy": -0.0198,
				"method": "rhf"
			},
			{
				"type": "unocc",
				"energy": -0.00338,
				"method": "rhf"
			}
		],
		"cosmo_sigma_profile": { 
			"-0.025": 0.0,
			"-0.024": 0.0,
			"-0.023": 0.0,
			"-0.022": 0.0,
			"-0.021": 0.0,
			"-0.02": 0.0,
			"-0.019": 0.0,
			"-0.018": 0.0,
			"-0.017": 0.0,
			"-0.016": 0.0,
			"-0.015": 0.0,
			"-0.014": 0.0,
			"-0.013": 0.0,
			"-0.012": 0.0,
			"-0.011": 0.0,
			"-0.01": 0.0,
			"-0.009": 0.4252943007,
			"-0.008": 3.74520121602,
			"-0.007": 9.79924315212,
			"-0.006": 17.731544677,
			"-0.005": 18.3657802628,
			"-0.004": 19.1703228503,
			"-0.003": 15.6549815775,
			"-0.002": 14.2682183832,
			"-0.001": 18.4239208071,
			"0.0": 21.8834025663,
			"0.001": 28.2571904096,
			"0.002": 21.6928510627,
			"0.003": 20.8687045664,
			"0.004": 21.1589152446,
			"0.005": 12.0990149225,
			"0.006": 3.86228737016,
			"0.007": 5.5315179975,
			"0.008": 9.76829837202,
			"0.009": 5.31536805988,
			"0.01": 0.0788708788877,
			"0.011": 0.0,
			"0.012": 0.0,
			"0.013": 0.0,
			"0.014": 0.0,
			"0.015": 0.0,
			"0.016": 0.0,
			"0.017": 0.0,
			"0.018": 0.0,
			"0.019": 0.0,
			"0.02": 0.0,
			"0.021": 0.0,
			"0.022": 0.0,
			"0.023": 0.0,
			"0.024": 0.0,
			"0.025": 0.0
		}
	}
}
