{
	 "smiles": "NC1=CC2=C(C=C1)N=C(NC(=O)CN1CCOCC1)S2", 
	 "Tm": 502.15, 
	 "num_atms": 36, 
	 "gaussian": { 
		 "optdone": 1, 
		 "sigma_profile": "yes", 
		 "theory": "DFT", 
		 "functional": "B3LYP", 
		 "basiset": "6-31G**", 
		 "properties": { 
			 "R2extent": 8874.3527, 
			 "electric_dipole_moment_norm": 5.75914925835, 
			 "electric_quadrupole_moment_norm": 14.4913342664, 
			 "total_energy": -1272.66040142, 
			 "HOMO_LUMO_gap": 0.16482, 
			 "cosmo_polarized_energy": -20.57, 
			 "cosmo_cavitation_energy": 40.22, 
			 "cosmo_dispersion_energy": -29.75, 
			 "cosmo_repulsion_energy": 2.24, 
			 "cosmo_total_nonelectrostatic_energy": 12.71, 
			 "SMD_solvation_energy": 3.3 
		},
		"coords": [
			{
				"x": -0.9735946188,
				"y": 6.4639541899,
				"z": -1.6967456863,
				"element": "N" 
			},
			{
				"x": -0.7270340716,
				"y": 5.1476207898,
				"z": -1.3001596053,
				"element": "C" 
			},
			{
				"x": 0.0001800933,
				"y": 4.2790605037,
				"z": -2.1295938004,
				"element": "C" 
			},
			{
				"x": 0.2764457057,
				"y": 2.9951164307,
				"z": -1.6689827398,
				"element": "C" 
			},
			{
				"x": -0.1515520031,
				"y": 2.5365318832,
				"z": -0.4015619882,
				"element": "C" 
			},
			{
				"x": -0.8767940453,
				"y": 3.4130169832,
				"z": 0.4145458256,
				"element": "C" 
			},
			{
				"x": -1.1570923207,
				"y": 4.6969987507,
				"z": -0.0316733605,
				"element": "C" 
			},
			{
				"x": 0.1932473068,
				"y": 1.2291812472,
				"z": -0.0808467636,
				"element": "N" 
			},
			{
				"x": 0.8598139151,
				"y": 0.6798484759,
				"z": -1.0398257726,
				"element": "C" 
			},
			{
				"x": 1.3607119381,
				"y": -0.6080500308,
				"z": -1.0639470921,
				"element": "N" 
			},
			{
				"x": 1.3301577911,
				"y": -1.6403958183,
				"z": -0.1099740702,
				"element": "C" 
			},
			{
				"x": 1.8861843538,
				"y": -2.6856417656,
				"z": -0.3925838209,
				"element": "O" 
			},
			{
				"x": 0.57426177,
				"y": -1.3784941902,
				"z": 1.187807969,
				"element": "C" 
			},
			{
				"x": 0.7565872929,
				"y": -2.4548676481,
				"z": 2.1436610537,
				"element": "N" 
			},
			{
				"x": 0.5172682232,
				"y": -2.0689009156,
				"z": 3.5386536101,
				"element": "C" 
			},
			{
				"x": -0.9712960635,
				"y": -2.0307945079,
				"z": 3.9039683542,
				"element": "C" 
			},
			{
				"x": -1.5915197618,
				"y": -3.2790609888,
				"z": 3.6149140167,
				"element": "O" 
			},
			{
				"x": -1.4483606363,
				"y": -3.6241798103,
				"z": 2.238836877,
				"element": "C" 
			},
			{
				"x": 0.0288017198,
				"y": -3.6965279852,
				"z": 1.8391745204,
				"element": "C" 
			},
			{
				"x": 1.1549165069,
				"y": 1.7050679153,
				"z": -2.482523981,
				"element": "S" 
			},
			{
				"x": -1.7706885908,
				"y": 6.9014980597,
				"z": -1.2554939082,
				"element": "H" 
			},
			{
				"x": -0.9643682848,
				"y": 6.6229378961,
				"z": -2.694846239,
				"element": "H" 
			},
			{
				"x": 0.3415358201,
				"y": 4.613226263,
				"z": -3.1048385025,
				"element": "H" 
			},
			{
				"x": -1.2144668954,
				"y": 3.0764232884,
				"z": 1.3892736689,
				"element": "H" 
			},
			{
				"x": -1.7148220125,
				"y": 5.3774622043,
				"z": 0.6062876852,
				"element": "H" 
			},
			{
				"x": 1.8718451688,
				"y": -0.8920649307,
				"z": -1.8908204071,
				"element": "H" 
			},
			{
				"x": -0.4707607154,
				"y": -1.1467098579,
				"z": 0.9132533074,
				"element": "H" 
			},
			{
				"x": 0.9492244199,
				"y": -0.4431737666,
				"z": 1.6139107444,
				"element": "H" 
			},
			{
				"x": 0.9890195997,
				"y": -1.0994331896,
				"z": 3.7364293196,
				"element": "H" 
			},
			{
				"x": 1.008369386,
				"y": -2.8141561334,
				"z": 4.1785394599,
				"element": "H" 
			},
			{
				"x": -1.108247329,
				"y": -1.8566957441,
				"z": 4.9764220621,
				"element": "H" 
			},
			{
				"x": -1.4823124442,
				"y": -1.217842574,
				"z": 3.3589451128,
				"element": "H" 
			},
			{
				"x": -1.9880058404,
				"y": -2.8926500815,
				"z": 1.6122016264,
				"element": "H" 
			},
			{
				"x": -1.9351929751,
				"y": -4.5964687736,
				"z": 2.1115232667,
				"element": "H" 
			},
			{
				"x": 0.1455184841,
				"y": -3.9307298743,
				"z": 0.7787308423,
				"element": "H" 
			},
			{
				"x": 0.5038191135,
				"y": -4.5069062947,
				"z": 2.4067384154,
				"element": "H" 
			}
		],
		 "valence_orbital": [ 
			{
				"type": "occ",
				"energy": -0.26708,
				"method": "rhf"
			},
			{
				"type": "occ",
				"energy": -0.26299,
				"method": "rhf"
			},
			{
				"type": "occ",
				"energy": -0.23936,
				"method": "rhf"
			},
			{
				"type": "occ",
				"energy": -0.19936,
				"method": "rhf"
			},
			{
				"type": "occ",
				"energy": -0.1956,
				"method": "rhf"
			},
			{
				"type": "unocc",
				"energy": -0.03078,
				"method": "rhf"
			},
			{
				"type": "unocc",
				"energy": -0.01068,
				"method": "rhf"
			},
			{
				"type": "unocc",
				"energy": -0.00996,
				"method": "rhf"
			},
			{
				"type": "unocc",
				"energy": 0.02051,
				"method": "rhf"
			},
			{
				"type": "unocc",
				"energy": 0.05072,
				"method": "rhf"
			}
		],
		"cosmo_sigma_profile": { 
			"-0.025": 0.0,
			"-0.024": 0.0,
			"-0.023": 0.0,
			"-0.022": 0.0,
			"-0.021": 0.0,
			"-0.02": 0.0,
			"-0.019": 0.0,
			"-0.018": 0.0,
			"-0.017": 0.0845386701494,
			"-0.016": 0.732049094787,
			"-0.015": 1.0176580695,
			"-0.014": 0.833874648482,
			"-0.013": 1.8277892469,
			"-0.012": 3.79381324591,
			"-0.011": 3.91477118459,
			"-0.01": 3.58701442585,
			"-0.009": 4.40258956003,
			"-0.008": 4.15444432281,
			"-0.007": 6.48140113203,
			"-0.006": 11.5432938714,
			"-0.005": 19.0061512953,
			"-0.004": 27.4288161942,
			"-0.003": 30.202088226,
			"-0.002": 25.8116840623,
			"-0.001": 21.5556517342,
			"0.0": 19.0337202147,
			"0.001": 16.23359899,
			"0.002": 15.7706170425,
			"0.003": 17.8628310992,
			"0.004": 18.2753030641,
			"0.005": 17.6532086114,
			"0.006": 7.34621132364,
			"0.007": 5.79676551849,
			"0.008": 5.86025770519,
			"0.009": 4.53282405124,
			"0.01": 3.63676381251,
			"0.011": 5.1117028116,
			"0.012": 7.22013172135,
			"0.013": 4.12096882407,
			"0.014": 2.59855178231,
			"0.015": 1.40644346012,
			"0.016": 0.759189096948,
			"0.017": 0.150332142365,
			"0.018": 0.0,
			"0.019": 0.0,
			"0.02": 0.0,
			"0.021": 0.0,
			"0.022": 0.0,
			"0.023": 0.0,
			"0.024": 0.0,
			"0.025": 0.0
		}
	}
}
