{
	 "smiles": "CCC1=NC(=CN1)C(O)=O", 
	 "Tm": 513.15, 
	 "num_atms": 18, 
	 "gaussian": { 
		 "optdone": 1, 
		 "sigma_profile": "yes", 
		 "theory": "DFT", 
		 "functional": "B3LYP", 
		 "basiset": "6-31G**", 
		 "properties": { 
			 "R2extent": 1859.6714, 
			 "electric_dipole_moment_norm": 7.53946194035, 
			 "electric_quadrupole_moment_norm": 14.5532610105, 
			 "total_energy": -493.435853348, 
			 "HOMO_LUMO_gap": 0.22492, 
			 "cosmo_polarized_energy": -18.66, 
			 "cosmo_cavitation_energy": 22.59, 
			 "cosmo_dispersion_energy": -16.66, 
			 "cosmo_repulsion_energy": 1.39, 
			 "cosmo_total_nonelectrostatic_energy": 7.32, 
			 "SMD_solvation_energy": 4.16 
		},
		"coords": [
			{
				"x": 1.8774257889,
				"y": 2.3796479503,
				"z": -0.2627168631,
				"element": "C" 
			},
			{
				"x": 0.5902790505,
				"y": 2.1015197651,
				"z": -1.061454733,
				"element": "C" 
			},
			{
				"x": 0.0417749732,
				"y": 0.7241354141,
				"z": -0.8492696406,
				"element": "C" 
			},
			{
				"x": -0.9811656291,
				"y": 0.397978482,
				"z": -0.086731287,
				"element": "N" 
			},
			{
				"x": -1.0995001999,
				"y": -0.9763820214,
				"z": -0.1681640088,
				"element": "C" 
			},
			{
				"x": -0.1324983151,
				"y": -1.4952351276,
				"z": -0.9931372616,
				"element": "C" 
			},
			{
				"x": 0.5869662739,
				"y": -0.4049786031,
				"z": -1.418923581,
				"element": "N" 
			},
			{
				"x": -2.1623946372,
				"y": -1.6941367216,
				"z": 0.5678233109,
				"element": "C" 
			},
			{
				"x": -2.9593869784,
				"y": -0.8761263526,
				"z": 1.290191411,
				"element": "O" 
			},
			{
				"x": -2.318028219,
				"y": -2.8949986635,
				"z": 0.538187889,
				"element": "O" 
			},
			{
				"x": 2.6857853771,
				"y": 1.6990252875,
				"z": -0.5505298992,
				"element": "H" 
			},
			{
				"x": 1.7015953441,
				"y": 2.2562134692,
				"z": 0.8096089449,
				"element": "H" 
			},
			{
				"x": 2.2236181988,
				"y": 3.4026019615,
				"z": -0.4379909707,
				"element": "H" 
			},
			{
				"x": 0.7745847491,
				"y": 2.2655876611,
				"z": -2.1310300281,
				"element": "H" 
			},
			{
				"x": -0.1926071523,
				"y": 2.8036132154,
				"z": -0.7630299306,
				"element": "H" 
			},
			{
				"x": 0.0835495258,
				"y": -2.5063413553,
				"z": -1.2985594869,
				"element": "H" 
			},
			{
				"x": 1.3754682321,
				"y": -0.4278599014,
				"z": -2.048844449,
				"element": "H" 
			},
			{
				"x": -2.6366663826,
				"y": 0.0347355401,
				"z": 1.1529705837,
				"element": "H" 
			}
		],
		 "valence_orbital": [ 
			{
				"type": "occ",
				"energy": -0.30435,
				"method": "rhf"
			},
			{
				"type": "occ",
				"energy": -0.30162,
				"method": "rhf"
			},
			{
				"type": "occ",
				"energy": -0.29559,
				"method": "rhf"
			},
			{
				"type": "occ",
				"energy": -0.25665,
				"method": "rhf"
			},
			{
				"type": "occ",
				"energy": -0.24327,
				"method": "rhf"
			},
			{
				"type": "unocc",
				"energy": -0.01835,
				"method": "rhf"
			},
			{
				"type": "unocc",
				"energy": 0.01019,
				"method": "rhf"
			},
			{
				"type": "unocc",
				"energy": 0.04919,
				"method": "rhf"
			},
			{
				"type": "unocc",
				"energy": 0.10255,
				"method": "rhf"
			},
			{
				"type": "unocc",
				"energy": 0.12266,
				"method": "rhf"
			}
		],
		"cosmo_sigma_profile": { 
			"-0.025": 0.0,
			"-0.024": 0.0,
			"-0.023": 0.0,
			"-0.022": 0.0,
			"-0.021": 0.0,
			"-0.02": 0.0,
			"-0.019": 0.0,
			"-0.018": 0.00932407734174,
			"-0.017": 1.22659994626,
			"-0.016": 1.56500760075,
			"-0.015": 1.4143756406,
			"-0.014": 1.03151263792,
			"-0.013": 1.57733266176,
			"-0.012": 1.76339249444,
			"-0.011": 2.51535517943,
			"-0.01": 3.36796197232,
			"-0.009": 3.25720262922,
			"-0.008": 4.15646316442,
			"-0.007": 2.72038746585,
			"-0.006": 4.06895075559,
			"-0.005": 6.97892436767,
			"-0.004": 9.00864407742,
			"-0.003": 13.5525104463,
			"-0.002": 16.9975322176,
			"-0.001": 14.6068711371,
			"0.0": 17.6515934382,
			"0.001": 11.7762182726,
			"0.002": 8.98928887472,
			"0.003": 5.76092091606,
			"0.004": 4.47393163851,
			"0.005": 3.33369145779,
			"0.006": 3.86861169074,
			"0.007": 3.71915022065,
			"0.008": 3.78962157621,
			"0.009": 4.08612062943,
			"0.01": 5.24964105408,
			"0.011": 5.7804448659,
			"0.012": 5.83664072537,
			"0.013": 3.86523061313,
			"0.014": 1.06927360067,
			"0.015": 0.0,
			"0.016": 0.0,
			"0.017": 0.0,
			"0.018": 0.0,
			"0.019": 0.0,
			"0.02": 0.0,
			"0.021": 0.0,
			"0.022": 0.0,
			"0.023": 0.0,
			"0.024": 0.0,
			"0.025": 0.0
		}
	}
}
