{
	 "smiles": "C1CCN(C1)C1=CC=NC=C1", 
	 "Tm": 329.15, 
	 "num_atms": 23, 
	 "gaussian": { 
		 "optdone": 1, 
		 "sigma_profile": "yes", 
		 "theory": "DFT", 
		 "functional": "B3LYP", 
		 "basiset": "6-31G**", 
		 "properties": { 
			 "R2extent": 2282.9044, 
			 "electric_dipole_moment_norm": 5.02159755456, 
			 "electric_quadrupole_moment_norm": 15.8377773349, 
			 "total_energy": -459.69180914, 
			 "HOMO_LUMO_gap": 0.2085, 
			 "cosmo_polarized_energy": -9.09, 
			 "cosmo_cavitation_energy": 24.72, 
			 "cosmo_dispersion_energy": -18.77, 
			 "cosmo_repulsion_energy": 1.49, 
			 "cosmo_total_nonelectrostatic_energy": 7.44, 
			 "SMD_solvation_energy": 1.53 
		},
		"coords": [
			{
				"x": -1.1269098336,
				"y": -0.9614819654,
				"z": 1.6368637225,
				"element": "C" 
			},
			{
				"x": -0.6173070659,
				"y": 0.4014201042,
				"z": 2.1324981267,
				"element": "C" 
			},
			{
				"x": -0.2327528048,
				"y": 1.1278331255,
				"z": 0.8348758409,
				"element": "C" 
			},
			{
				"x": 0.1607110443,
				"y": 0.042504911,
				"z": -0.0641148119,
				"element": "N" 
			},
			{
				"x": -0.1975773375,
				"y": -1.2775904036,
				"z": 0.4554388368,
				"element": "C" 
			},
			{
				"x": 0.7952606237,
				"y": 0.2406062018,
				"z": -1.2612672075,
				"element": "C" 
			},
			{
				"x": 1.0410020157,
				"y": 1.5357792656,
				"z": -1.7725646037,
				"element": "C" 
			},
			{
				"x": 1.6905642962,
				"y": 1.6709138575,
				"z": -2.9935345513,
				"element": "C" 
			},
			{
				"x": 2.117372535,
				"y": 0.6532772398,
				"z": -3.7554403036,
				"element": "N" 
			},
			{
				"x": 1.879902326,
				"y": -0.5717009435,
				"z": -3.2642266469,
				"element": "C" 
			},
			{
				"x": 1.2429903898,
				"y": -0.8381048602,
				"z": -2.0582730173,
				"element": "C" 
			},
			{
				"x": -1.1028322789,
				"y": -1.7380285123,
				"z": 2.4058379789,
				"element": "H" 
			},
			{
				"x": -2.1601671874,
				"y": -0.8715178873,
				"z": 1.2833933552,
				"element": "H" 
			},
			{
				"x": -1.3581709932,
				"y": 0.954130889,
				"z": 2.7160721814,
				"element": "H" 
			},
			{
				"x": 0.2707431958,
				"y": 0.2660751881,
				"z": 2.7599562902,
				"element": "H" 
			},
			{
				"x": 0.5926460505,
				"y": 1.8339704958,
				"z": 0.984567616,
				"element": "H" 
			},
			{
				"x": -1.0821140736,
				"y": 1.696358979,
				"z": 0.4247224076,
				"element": "H" 
			},
			{
				"x": -0.6950537747,
				"y": -1.8813781331,
				"z": -0.3128594269,
				"element": "H" 
			},
			{
				"x": 0.6956445978,
				"y": -1.8323485624,
				"z": 0.7829375282,
				"element": "H" 
			},
			{
				"x": 0.7228258606,
				"y": 2.4213163014,
				"z": -1.2346963488,
				"element": "H" 
			},
			{
				"x": 1.8768794422,
				"y": 2.6704387079,
				"z": -3.3854396823,
				"element": "H" 
			},
			{
				"x": 2.2251741441,
				"y": -1.4053045043,
				"z": -3.8751662081,
				"element": "H" 
			},
			{
				"x": 1.107368828,
				"y": -1.8652694946,
				"z": -1.7400810763,
				"element": "H" 
			}
		],
		 "valence_orbital": [ 
			{
				"type": "occ",
				"energy": -0.33983,
				"method": "rhf"
			},
			{
				"type": "occ",
				"energy": -0.3032,
				"method": "rhf"
			},
			{
				"type": "occ",
				"energy": -0.24555,
				"method": "rhf"
			},
			{
				"type": "occ",
				"energy": -0.23531,
				"method": "rhf"
			},
			{
				"type": "occ",
				"energy": -0.20159,
				"method": "rhf"
			},
			{
				"type": "unocc",
				"energy": 0.00691,
				"method": "rhf"
			},
			{
				"type": "unocc",
				"energy": 0.0103,
				"method": "rhf"
			},
			{
				"type": "unocc",
				"energy": 0.07338,
				"method": "rhf"
			},
			{
				"type": "unocc",
				"energy": 0.10598,
				"method": "rhf"
			},
			{
				"type": "unocc",
				"energy": 0.1082,
				"method": "rhf"
			}
		],
		"cosmo_sigma_profile": { 
			"-0.025": 0.0,
			"-0.024": 0.0,
			"-0.023": 0.0,
			"-0.022": 0.0,
			"-0.021": 0.0,
			"-0.02": 0.0,
			"-0.019": 0.0,
			"-0.018": 0.0,
			"-0.017": 0.0,
			"-0.016": 0.0,
			"-0.015": 0.0,
			"-0.014": 0.0,
			"-0.013": 0.0,
			"-0.012": 0.0,
			"-0.011": 0.0,
			"-0.01": 0.0,
			"-0.009": 0.0,
			"-0.008": 0.0,
			"-0.007": 0.00637794141536,
			"-0.006": 2.73011199973,
			"-0.005": 11.0018096382,
			"-0.004": 22.5716138814,
			"-0.003": 33.882629119,
			"-0.002": 28.7980759796,
			"-0.001": 18.168476511,
			"0.0": 14.5250838468,
			"0.001": 7.49435918333,
			"0.002": 6.91662897175,
			"0.003": 9.00099581932,
			"0.004": 10.6132435919,
			"0.005": 11.8547464055,
			"0.006": 2.67022805607,
			"0.007": 2.00681746396,
			"0.008": 1.24561441809,
			"0.009": 1.09046993464,
			"0.01": 2.20642756373,
			"0.011": 1.24655234245,
			"0.012": 0.984729086915,
			"0.013": 0.593108391772,
			"0.014": 0.893924506129,
			"0.015": 1.22923661754,
			"0.016": 1.15077536828,
			"0.017": 0.863083951761,
			"0.018": 0.788006721107,
			"0.019": 0.240160138545,
			"0.02": 0.0,
			"0.021": 0.0,
			"0.022": 0.0,
			"0.023": 0.0,
			"0.024": 0.0,
			"0.025": 0.0
		}
	}
}
