{
	 "smiles": "CCCOC(=O)C1=C(C)NC(=S)NC1C1=CC=CC=C1", 
	 "Tm": 442.15, 
	 "num_atms": 38, 
	 "gaussian": { 
		 "optdone": 1, 
		 "sigma_profile": "yes", 
		 "theory": "DFT", 
		 "functional": "B3LYP", 
		 "basiset": "6-31G**", 
		 "properties": { 
			 "R2extent": 7006.1821, 
			 "electric_dipole_moment_norm": 4.03073895086, 
			 "electric_quadrupole_moment_norm": 25.1536761796, 
			 "total_energy": -1240.62153865, 
			 "HOMO_LUMO_gap": 0.15682, 
			 "cosmo_polarized_energy": -18.29, 
			 "cosmo_cavitation_energy": 42.66, 
			 "cosmo_dispersion_energy": -28.97, 
			 "cosmo_repulsion_energy": 2.24, 
			 "cosmo_total_nonelectrostatic_energy": 15.93, 
			 "SMD_solvation_energy": 6.43 
		},
		"coords": [
			{
				"x": -3.8107286849,
				"y": 0.905973523,
				"z": -0.9919003399,
				"element": "C" 
			},
			{
				"x": -3.6450122701,
				"y": 0.4869546803,
				"z": 0.4717520493,
				"element": "C" 
			},
			{
				"x": -2.3337791464,
				"y": 0.9497578502,
				"z": 1.1009771703,
				"element": "C" 
			},
			{
				"x": -1.1814838122,
				"y": 0.4253784884,
				"z": 0.4004937702,
				"element": "O" 
			},
			{
				"x": -0.7400487299,
				"y": -0.8027332572,
				"z": 0.7837180393,
				"element": "C" 
			},
			{
				"x": -1.2982976549,
				"y": -1.4497185539,
				"z": 1.6562821576,
				"element": "O" 
			},
			{
				"x": 0.4550981189,
				"y": -1.1894557643,
				"z": 0.0080498337,
				"element": "C" 
			},
			{
				"x": 1.0273020967,
				"y": -2.4213722253,
				"z": 0.1100072233,
				"element": "C" 
			},
			{
				"x": 0.6109418504,
				"y": -3.5569171821,
				"z": 1.0028239571,
				"element": "C" 
			},
			{
				"x": 2.1211543038,
				"y": -2.7309750292,
				"z": -0.6875602855,
				"element": "N" 
			},
			{
				"x": 2.5637495693,
				"y": -1.9809873421,
				"z": -1.75776179,
				"element": "C" 
			},
			{
				"x": 3.765872136,
				"y": -2.5506963609,
				"z": -2.7762113731,
				"element": "S" 
			},
			{
				"x": 1.9293002495,
				"y": -0.803112196,
				"z": -1.9123941593,
				"element": "N" 
			},
			{
				"x": 1.0653187769,
				"y": -0.1416083687,
				"z": -0.9160222259,
				"element": "C" 
			},
			{
				"x": 1.828531782,
				"y": 0.9597471529,
				"z": -0.1768802599,
				"element": "C" 
			},
			{
				"x": 1.4924833513,
				"y": 2.3018752851,
				"z": -0.3816377951,
				"element": "C" 
			},
			{
				"x": 2.2008563634,
				"y": 3.3199924382,
				"z": 0.2599483071,
				"element": "C" 
			},
			{
				"x": 3.2572932544,
				"y": 3.002892483,
				"z": 1.1140238247,
				"element": "C" 
			},
			{
				"x": 3.6002692446,
				"y": 1.6645012932,
				"z": 1.3243581464,
				"element": "C" 
			},
			{
				"x": 2.8897857166,
				"y": 0.6501959774,
				"z": 0.6845544665,
				"element": "C" 
			},
			{
				"x": -3.78774628,
				"y": 1.9967666091,
				"z": -1.0986292853,
				"element": "H" 
			},
			{
				"x": -3.0097617602,
				"y": 0.4936799363,
				"z": -1.6129280034,
				"element": "H" 
			},
			{
				"x": -4.7638613323,
				"y": 0.5517982824,
				"z": -1.396323507,
				"element": "H" 
			},
			{
				"x": -3.7126643518,
				"y": -0.6016245978,
				"z": 0.5710414197,
				"element": "H" 
			},
			{
				"x": -4.4599209714,
				"y": 0.9060226975,
				"z": 1.0766816118,
				"element": "H" 
			},
			{
				"x": -2.2760489021,
				"y": 0.6453814647,
				"z": 2.1482196431,
				"element": "H" 
			},
			{
				"x": -2.2205383707,
				"y": 2.0353675484,
				"z": 1.0278812996,
				"element": "H" 
			},
			{
				"x": 0.3131914375,
				"y": -4.4181189219,
				"z": 0.3924192861,
				"element": "H" 
			},
			{
				"x": 1.4625491192,
				"y": -3.8702798829,
				"z": 1.6190192459,
				"element": "H" 
			},
			{
				"x": -0.2130707132,
				"y": -3.266670469,
				"z": 1.6474097542,
				"element": "H" 
			},
			{
				"x": 2.5419776863,
				"y": -3.6465557546,
				"z": -0.6157206329,
				"element": "H" 
			},
			{
				"x": 2.2908345877,
				"y": -0.2302920029,
				"z": -2.6626850118,
				"element": "H" 
			},
			{
				"x": 0.2578422133,
				"y": 0.3394105553,
				"z": -1.4746869875,
				"element": "H" 
			},
			{
				"x": 0.6650339953,
				"y": 2.5502318305,
				"z": -1.0416525433,
				"element": "H" 
			},
			{
				"x": 1.9269062712,
				"y": 4.3577878167,
				"z": 0.0924865641,
				"element": "H" 
			},
			{
				"x": 3.811162264,
				"y": 3.7923068973,
				"z": 1.6137979398,
				"element": "H" 
			},
			{
				"x": 4.4220787783,
				"y": 1.4112867582,
				"z": 1.987965226,
				"element": "H" 
			},
			{
				"x": 3.1629298132,
				"y": -0.3872916593,
				"z": 0.8551832643,
				"element": "H" 
			}
		],
		 "valence_orbital": [ 
			{
				"type": "occ",
				"energy": -0.2571,
				"method": "rhf"
			},
			{
				"type": "occ",
				"energy": -0.25571,
				"method": "rhf"
			},
			{
				"type": "occ",
				"energy": -0.24071,
				"method": "rhf"
			},
			{
				"type": "occ",
				"energy": -0.21666,
				"method": "rhf"
			},
			{
				"type": "occ",
				"energy": -0.21326,
				"method": "rhf"
			},
			{
				"type": "unocc",
				"energy": -0.05644,
				"method": "rhf"
			},
			{
				"type": "unocc",
				"energy": -0.01242,
				"method": "rhf"
			},
			{
				"type": "unocc",
				"energy": -0.00573,
				"method": "rhf"
			},
			{
				"type": "unocc",
				"energy": 0.01299,
				"method": "rhf"
			},
			{
				"type": "unocc",
				"energy": 0.05787,
				"method": "rhf"
			}
		],
		"cosmo_sigma_profile": { 
			"-0.025": 0.0,
			"-0.024": 0.0,
			"-0.023": 0.0,
			"-0.022": 0.0,
			"-0.021": 0.0,
			"-0.02": 0.0,
			"-0.019": 0.0,
			"-0.018": 0.0,
			"-0.017": 0.0,
			"-0.016": 0.0,
			"-0.015": 1.15558204921,
			"-0.014": 2.20111060286,
			"-0.013": 1.79934038131,
			"-0.012": 1.89522577412,
			"-0.011": 2.16425526113,
			"-0.01": 1.92387308602,
			"-0.009": 2.41087809451,
			"-0.008": 2.97303301373,
			"-0.007": 4.20521931005,
			"-0.006": 11.6920316948,
			"-0.005": 19.3384260782,
			"-0.004": 25.4014352754,
			"-0.003": 32.8253316654,
			"-0.002": 29.3471118354,
			"-0.001": 34.7299652515,
			"0.0": 31.2446479967,
			"0.001": 25.1736451401,
			"0.002": 16.6629549591,
			"0.003": 14.5739380814,
			"0.004": 13.9080903005,
			"0.005": 14.5783197362,
			"0.006": 10.5808181955,
			"0.007": 5.09916150669,
			"0.008": 5.64002675698,
			"0.009": 6.39179344097,
			"0.01": 9.26899317159,
			"0.011": 8.49639015471,
			"0.012": 4.09674175656,
			"0.013": 0.284271513534,
			"0.014": 0.0,
			"0.015": 0.0,
			"0.016": 0.0,
			"0.017": 0.0,
			"0.018": 0.0,
			"0.019": 0.0,
			"0.02": 0.0,
			"0.021": 0.0,
			"0.022": 0.0,
			"0.023": 0.0,
			"0.024": 0.0,
			"0.025": 0.0
		}
	}
}
