{
	 "smiles": "CC(C)(C)OC(=O)C1=CC=C(C=C1)C#N", 
	 "Tm": 348.15, 
	 "num_atms": 28, 
	 "gaussian": { 
		 "optdone": 1, 
		 "sigma_profile": "yes", 
		 "theory": "DFT", 
		 "functional": "B3LYP", 
		 "basiset": "6-31G**", 
		 "properties": { 
			 "R2extent": 4565.8739, 
			 "electric_dipole_moment_norm": 4.86494936048, 
			 "electric_quadrupole_moment_norm": 21.4790097288, 
			 "total_energy": -670.326689024, 
			 "HOMO_LUMO_gap": 0.19412, 
			 "cosmo_polarized_energy": -10.51, 
			 "cosmo_cavitation_energy": 32.68, 
			 "cosmo_dispersion_energy": -22.42, 
			 "cosmo_repulsion_energy": 1.75, 
			 "cosmo_total_nonelectrostatic_energy": 12.01, 
			 "SMD_solvation_energy": 8.03 
		},
		"coords": [
			{
				"x": 1.6847601626,
				"y": 0.2827498574,
				"z": -3.2768530977,
				"element": "C" 
			},
			{
				"x": 1.893500427,
				"y": -0.4485588877,
				"z": -1.9490801878,
				"element": "C" 
			},
			{
				"x": 1.8367634985,
				"y": -1.9666445039,
				"z": -2.1458403853,
				"element": "C" 
			},
			{
				"x": 3.1900510193,
				"y": 0.0060272068,
				"z": -1.2718194374,
				"element": "C" 
			},
			{
				"x": 0.7295125732,
				"y": -0.0031704066,
				"z": -1.1516671806,
				"element": "O" 
			},
			{
				"x": 0.5309161648,
				"y": -0.4246787636,
				"z": 0.1080630058,
				"element": "C" 
			},
			{
				"x": 1.2507957104,
				"y": -1.1902576854,
				"z": 0.7226990126,
				"element": "O" 
			},
			{
				"x": -0.7143259487,
				"y": 0.1665066863,
				"z": 0.6999149083,
				"element": "C" 
			},
			{
				"x": -1.0419171119,
				"y": -0.1918874264,
				"z": 2.014498608,
				"element": "C" 
			},
			{
				"x": -2.1823965945,
				"y": 0.32153495,
				"z": 2.6193792366,
				"element": "C" 
			},
			{
				"x": -3.0107366993,
				"y": 1.2057172917,
				"z": 1.9058529195,
				"element": "C" 
			},
			{
				"x": -2.6848516995,
				"y": 1.5671215061,
				"z": 0.5872880674,
				"element": "C" 
			},
			{
				"x": -1.5411523523,
				"y": 1.0479915996,
				"z": -0.0098531723,
				"element": "C" 
			},
			{
				"x": -4.190066058,
				"y": 1.7401582022,
				"z": 2.5235269503,
				"element": "C" 
			},
			{
				"x": -5.1464549483,
				"y": 2.1738770174,
				"z": 3.023814577,
				"element": "N" 
			},
			{
				"x": 0.7350943582,
				"y": -0.0089756951,
				"z": -3.7346807555,
				"element": "H" 
			},
			{
				"x": 2.493183138,
				"y": 0.0357943199,
				"z": -3.9711828202,
				"element": "H" 
			},
			{
				"x": 1.6782404472,
				"y": 1.3661185213,
				"z": -3.1256578377,
				"element": "H" 
			},
			{
				"x": 1.9737345965,
				"y": -2.4936114184,
				"z": -1.201373508,
				"element": "H" 
			},
			{
				"x": 0.8759727482,
				"y": -2.259110473,
				"z": -2.580783984,
				"element": "H" 
			},
			{
				"x": 2.6286030456,
				"y": -2.2726588151,
				"z": -2.8370234434,
				"element": "H" 
			},
			{
				"x": 3.1716661304,
				"y": 1.0866504126,
				"z": -1.0993989049,
				"element": "H" 
			},
			{
				"x": 4.0388241605,
				"y": -0.218239778,
				"z": -1.9257783786,
				"element": "H" 
			},
			{
				"x": 3.3382263979,
				"y": -0.5028051637,
				"z": -0.3191372697,
				"element": "H" 
			},
			{
				"x": -0.3870501151,
				"y": -0.8753251139,
				"z": 2.5434852493,
				"element": "H" 
			},
			{
				"x": -2.4404609639,
				"y": 0.0472993185,
				"z": 3.6365777817,
				"element": "H" 
			},
			{
				"x": -3.3293252155,
				"y": 2.2498409008,
				"z": 0.0440265076,
				"element": "H" 
			},
			{
				"x": -1.2827068714,
				"y": 1.3213363403,
				"z": -1.025696461,
				"element": "H" 
			}
		],
		 "valence_orbital": [ 
			{
				"type": "occ",
				"energy": -0.33432,
				"method": "rhf"
			},
			{
				"type": "occ",
				"energy": -0.307,
				"method": "rhf"
			},
			{
				"type": "occ",
				"energy": -0.28087,
				"method": "rhf"
			},
			{
				"type": "occ",
				"energy": -0.27874,
				"method": "rhf"
			},
			{
				"type": "occ",
				"energy": -0.27175,
				"method": "rhf"
			},
			{
				"type": "unocc",
				"energy": -0.07763,
				"method": "rhf"
			},
			{
				"type": "unocc",
				"energy": -0.02876,
				"method": "rhf"
			},
			{
				"type": "unocc",
				"energy": 0.01579,
				"method": "rhf"
			},
			{
				"type": "unocc",
				"energy": 0.03246,
				"method": "rhf"
			},
			{
				"type": "unocc",
				"energy": 0.0722,
				"method": "rhf"
			}
		],
		"cosmo_sigma_profile": { 
			"-0.025": 0.0,
			"-0.024": 0.0,
			"-0.023": 0.0,
			"-0.022": 0.0,
			"-0.021": 0.0,
			"-0.02": 0.0,
			"-0.019": 0.0,
			"-0.018": 0.0,
			"-0.017": 0.0,
			"-0.016": 0.0,
			"-0.015": 0.0,
			"-0.014": 0.0,
			"-0.013": 0.0,
			"-0.012": 0.0,
			"-0.011": 0.0,
			"-0.01": 0.0,
			"-0.009": 0.634835447565,
			"-0.008": 4.74459523456,
			"-0.007": 6.88873189351,
			"-0.006": 8.37856280999,
			"-0.005": 8.42786794281,
			"-0.004": 19.3968752086,
			"-0.003": 23.1468679034,
			"-0.002": 29.0346544715,
			"-0.001": 29.0554466394,
			"0.0": 40.5664845981,
			"0.001": 28.4189678029,
			"0.002": 10.5162461683,
			"0.003": 7.4041908449,
			"0.004": 5.54571844428,
			"0.005": 4.75177854238,
			"0.006": 5.00747268322,
			"0.007": 3.48241302566,
			"0.008": 5.41097041675,
			"0.009": 4.97154639943,
			"0.01": 4.76936101767,
			"0.011": 4.99924246159,
			"0.012": 3.69656186228,
			"0.013": 0.921768886125,
			"0.014": 0.0,
			"0.015": 0.0,
			"0.016": 0.0,
			"0.017": 0.0,
			"0.018": 0.0,
			"0.019": 0.0,
			"0.02": 0.0,
			"0.021": 0.0,
			"0.022": 0.0,
			"0.023": 0.0,
			"0.024": 0.0,
			"0.025": 0.0
		}
	}
}
