{
	 "smiles": "CN1C=NC(N)=C2N=CN=C12", 
	 "Tm": 573.15, 
	 "num_atms": 18, 
	 "gaussian": { 
		 "optdone": 1, 
		 "sigma_profile": "yes", 
		 "theory": "DFT", 
		 "functional": "B3LYP", 
		 "basiset": "6-31G**", 
		 "properties": { 
			 "R2extent": 1760.5568, 
			 "electric_dipole_moment_norm": 4.02070493322, 
			 "electric_quadrupole_moment_norm": 9.33079863999, 
			 "total_energy": -506.621664919, 
			 "HOMO_LUMO_gap": 0.17438, 
			 "cosmo_polarized_energy": -17.98, 
			 "cosmo_cavitation_energy": 22.15, 
			 "cosmo_dispersion_energy": -16.87, 
			 "cosmo_repulsion_energy": 1.34, 
			 "cosmo_total_nonelectrostatic_energy": 6.62, 
			 "SMD_solvation_energy": -0.48 
		},
		"coords": [
			{
				"x": -1.7473783887,
				"y": -0.1668320408,
				"z": -0.9832593211,
				"element": "C" 
			},
			{
				"x": -0.6131411203,
				"y": 0.4658963359,
				"z": -0.3103678443,
				"element": "N" 
			},
			{
				"x": -0.6935946971,
				"y": 1.6792260278,
				"z": 0.293568517,
				"element": "C" 
			},
			{
				"x": 0.2859262306,
				"y": 2.2967935405,
				"z": 0.9111072701,
				"element": "N" 
			},
			{
				"x": 1.5136049684,
				"y": 1.7003553153,
				"z": 0.9751643583,
				"element": "C" 
			},
			{
				"x": 2.4965594035,
				"y": 2.3640321012,
				"z": 1.6173201889,
				"element": "N" 
			},
			{
				"x": 1.7041155206,
				"y": 0.4473263382,
				"z": 0.3840699401,
				"element": "C" 
			},
			{
				"x": 2.7853581673,
				"y": -0.3859783094,
				"z": 0.2811283624,
				"element": "N" 
			},
			{
				"x": 2.2742863601,
				"y": -1.413907335,
				"z": -0.4064381331,
				"element": "C" 
			},
			{
				"x": 0.9523588124,
				"y": -1.3512174405,
				"z": -0.7756274378,
				"element": "N" 
			},
			{
				"x": 0.6085142451,
				"y": -0.1688508813,
				"z": -0.2679096831,
				"element": "C" 
			},
			{
				"x": -1.4991346603,
				"y": -0.3428915245,
				"z": -2.0321568877,
				"element": "H" 
			},
			{
				"x": -1.9614895897,
				"y": -1.1292888161,
				"z": -0.5135193905,
				"element": "H" 
			},
			{
				"x": -2.6182929888,
				"y": 0.4861201926,
				"z": -0.9102532994,
				"element": "H" 
			},
			{
				"x": -1.6658896202,
				"y": 2.1623213002,
				"z": 0.2483788289,
				"element": "H" 
			},
			{
				"x": 2.3072618648,
				"y": 3.2640134836,
				"z": 2.0262486625,
				"element": "H" 
			},
			{
				"x": 3.4117223246,
				"y": 1.9483950842,
				"z": 1.6805971755,
				"element": "H" 
			},
			{
				"x": 2.8756131679,
				"y": -2.2767133719,
				"z": -0.6704513066,
				"element": "H" 
			}
		],
		 "valence_orbital": [ 
			{
				"type": "occ",
				"energy": -0.28282,
				"method": "rhf"
			},
			{
				"type": "occ",
				"energy": -0.28108,
				"method": "rhf"
			},
			{
				"type": "occ",
				"energy": -0.24635,
				"method": "rhf"
			},
			{
				"type": "occ",
				"energy": -0.23887,
				"method": "rhf"
			},
			{
				"type": "occ",
				"energy": -0.21107,
				"method": "rhf"
			},
			{
				"type": "unocc",
				"energy": -0.03669,
				"method": "rhf"
			},
			{
				"type": "unocc",
				"energy": 0.00583,
				"method": "rhf"
			},
			{
				"type": "unocc",
				"energy": 0.08223,
				"method": "rhf"
			},
			{
				"type": "unocc",
				"energy": 0.08369,
				"method": "rhf"
			},
			{
				"type": "unocc",
				"energy": 0.08599,
				"method": "rhf"
			}
		],
		"cosmo_sigma_profile": { 
			"-0.025": 0.0,
			"-0.024": 0.0,
			"-0.023": 0.0,
			"-0.022": 0.0,
			"-0.021": 0.0,
			"-0.02": 0.0,
			"-0.019": 0.0,
			"-0.018": 0.0,
			"-0.017": 0.0,
			"-0.016": 0.0,
			"-0.015": 0.575505396121,
			"-0.014": 1.79209478435,
			"-0.013": 2.18248432539,
			"-0.012": 2.38427871413,
			"-0.011": 3.20295499014,
			"-0.01": 5.08403251949,
			"-0.009": 3.74960673723,
			"-0.008": 3.95832153855,
			"-0.007": 6.97260013461,
			"-0.006": 9.43903663066,
			"-0.005": 10.4374002411,
			"-0.004": 15.3025566237,
			"-0.003": 12.1000971103,
			"-0.002": 7.77923224553,
			"-0.001": 7.20627244788,
			"0.0": 7.40031297859,
			"0.001": 8.18565380614,
			"0.002": 9.36862220563,
			"0.003": 8.25879609685,
			"0.004": 8.13962634664,
			"0.005": 5.45282711246,
			"0.006": 5.22178134193,
			"0.007": 4.5810269036,
			"0.008": 3.44475452051,
			"0.009": 3.8319677158,
			"0.01": 3.35282522786,
			"0.011": 2.42236093258,
			"0.012": 3.3974892138,
			"0.013": 3.88524661459,
			"0.014": 2.39956392916,
			"0.015": 1.48418893969,
			"0.016": 2.07626752644,
			"0.017": 1.95265100368,
			"0.018": 0.282908541875,
			"0.019": 0.0,
			"0.02": 0.0,
			"0.021": 0.0,
			"0.022": 0.0,
			"0.023": 0.0,
			"0.024": 0.0,
			"0.025": 0.0
		}
	}
}
