{
	 "smiles": "CN1C=CC=C1C(=O)CCl", 
	 "Tm": 308.15, 
	 "num_atms": 18, 
	 "gaussian": { 
		 "optdone": 1, 
		 "sigma_profile": "yes", 
		 "theory": "DFT", 
		 "functional": "B3LYP", 
		 "basiset": "6-31G**", 
		 "properties": { 
			 "R2extent": 1884.4444, 
			 "electric_dipole_moment_norm": 3.20150061221, 
			 "electric_quadrupole_moment_norm": 9.31030421576, 
			 "total_energy": -861.724044415, 
			 "HOMO_LUMO_gap": 0.17398, 
			 "cosmo_polarized_energy": -9.35, 
			 "cosmo_cavitation_energy": 23.58, 
			 "cosmo_dispersion_energy": -17.2, 
			 "cosmo_repulsion_energy": 1.39, 
			 "cosmo_total_nonelectrostatic_energy": 7.76, 
			 "SMD_solvation_energy": 4.69 
		},
		"coords": [
			{
				"x": -0.8282303796,
				"y": -2.6691705334,
				"z": 0.6080536002,
				"element": "C" 
			},
			{
				"x": -0.9872210585,
				"y": -1.2270594798,
				"z": 0.7723077341,
				"element": "N" 
			},
			{
				"x": -1.8734669235,
				"y": -0.644327786,
				"z": 1.6233072364,
				"element": "C" 
			},
			{
				"x": -1.7663018006,
				"y": 0.7376678876,
				"z": 1.5283896805,
				"element": "C" 
			},
			{
				"x": -0.7695711896,
				"y": 1.0020066956,
				"z": 0.5753460771,
				"element": "C" 
			},
			{
				"x": -0.2857222762,
				"y": -0.2244652735,
				"z": 0.1069837914,
				"element": "C" 
			},
			{
				"x": 0.7562354504,
				"y": -0.5045116915,
				"z": -0.86323054,
				"element": "C" 
			},
			{
				"x": 1.1274930044,
				"y": -1.6375693036,
				"z": -1.1621294755,
				"element": "O" 
			},
			{
				"x": 1.454576957,
				"y": 0.6916406883,
				"z": -1.5201397809,
				"element": "C" 
			},
			{
				"x": 0.3937528116,
				"y": 1.5112910185,
				"z": -2.7470204725,
				"element": "Cl" 
			},
			{
				"x": -1.5438462853,
				"y": -3.1635298116,
				"z": 1.26802051,
				"element": "H" 
			},
			{
				"x": 0.1857723076,
				"y": -2.9788040434,
				"z": 0.8647646569,
				"element": "H" 
			},
			{
				"x": -1.017654472,
				"y": -2.9628181215,
				"z": -0.425409349,
				"element": "H" 
			},
			{
				"x": -2.5209967942,
				"y": -1.252433091,
				"z": 2.23939207,
				"element": "H" 
			},
			{
				"x": -2.3489708041,
				"y": 1.4575322562,
				"z": 2.0847461199,
				"element": "H" 
			},
			{
				"x": -0.4399092248,
				"y": 1.9740131872,
				"z": 0.2375549554,
				"element": "H" 
			},
			{
				"x": 1.7438924459,
				"y": 1.4533555949,
				"z": -0.7946050109,
				"element": "H" 
			},
			{
				"x": 2.3274682314,
				"y": 0.317381807,
				"z": -2.0518318033,
				"element": "H" 
			}
		],
		 "valence_orbital": [ 
			{
				"type": "occ",
				"energy": -0.30974,
				"method": "rhf"
			},
			{
				"type": "occ",
				"energy": -0.29972,
				"method": "rhf"
			},
			{
				"type": "occ",
				"energy": -0.253,
				"method": "rhf"
			},
			{
				"type": "occ",
				"energy": -0.25234,
				"method": "rhf"
			},
			{
				"type": "occ",
				"energy": -0.22997,
				"method": "rhf"
			},
			{
				"type": "unocc",
				"energy": -0.05599,
				"method": "rhf"
			},
			{
				"type": "unocc",
				"energy": 0.02122,
				"method": "rhf"
			},
			{
				"type": "unocc",
				"energy": 0.05343,
				"method": "rhf"
			},
			{
				"type": "unocc",
				"energy": 0.08785,
				"method": "rhf"
			},
			{
				"type": "unocc",
				"energy": 0.1005,
				"method": "rhf"
			}
		],
		"cosmo_sigma_profile": { 
			"-0.025": 0.0,
			"-0.024": 0.0,
			"-0.023": 0.0,
			"-0.022": 0.0,
			"-0.021": 0.0,
			"-0.02": 0.0,
			"-0.019": 0.0,
			"-0.018": 0.0,
			"-0.017": 0.0,
			"-0.016": 0.0,
			"-0.015": 0.0,
			"-0.014": 0.0,
			"-0.013": 0.0,
			"-0.012": 0.0,
			"-0.011": 0.0,
			"-0.01": 0.0,
			"-0.009": 1.82117724835,
			"-0.008": 7.38091729771,
			"-0.007": 8.43873319813,
			"-0.006": 11.3058183204,
			"-0.005": 13.3359601153,
			"-0.004": 12.9882398124,
			"-0.003": 14.512878746,
			"-0.002": 12.67038021,
			"-0.001": 10.4081593532,
			"0.0": 10.8543889693,
			"0.001": 10.6445103195,
			"0.002": 11.3090735122,
			"0.003": 11.0679609212,
			"0.004": 12.3302713244,
			"0.005": 16.5075374111,
			"0.006": 11.7480576192,
			"0.007": 1.06843383649,
			"0.008": 1.63062954456,
			"0.009": 1.74128460392,
			"0.01": 1.52806033933,
			"0.011": 2.41715895485,
			"0.012": 2.78170772995,
			"0.013": 1.36410174015,
			"0.014": 0.0687208604903,
			"0.015": 0.0,
			"0.016": 0.0,
			"0.017": 0.0,
			"0.018": 0.0,
			"0.019": 0.0,
			"0.02": 0.0,
			"0.021": 0.0,
			"0.022": 0.0,
			"0.023": 0.0,
			"0.024": 0.0,
			"0.025": 0.0
		}
	}
}
