{
	 "smiles": "FC1=CC=C(CC2CC(=O)NC2=O)C=C1", 
	 "Tm": 381.15, 
	 "num_atms": 25, 
	 "gaussian": { 
		 "optdone": 1, 
		 "sigma_profile": "yes", 
		 "theory": "DFT", 
		 "functional": "B3LYP", 
		 "basiset": "6-31G**", 
		 "properties": { 
			 "R2extent": 4948.8977, 
			 "electric_dipole_moment_norm": 0.838274227207, 
			 "electric_quadrupole_moment_norm": 14.5489940597, 
			 "total_energy": -730.268339739, 
			 "HOMO_LUMO_gap": 0.21874, 
			 "cosmo_polarized_energy": -15.3, 
			 "cosmo_cavitation_energy": 30.11, 
			 "cosmo_dispersion_energy": -21.21, 
			 "cosmo_repulsion_energy": 1.65, 
			 "cosmo_total_nonelectrostatic_energy": 10.55, 
			 "SMD_solvation_energy": 6.75 
		},
		"coords": [
			{
				"x": -2.638275781,
				"y": -2.5211240848,
				"z": -2.6341451147,
				"element": "F" 
			},
			{
				"x": -1.5273435473,
				"y": -2.1512941714,
				"z": -1.9635511463,
				"element": "C" 
			},
			{
				"x": -1.0041873283,
				"y": -0.8794103905,
				"z": -2.1729942879,
				"element": "C" 
			},
			{
				"x": 0.1449033623,
				"y": -0.5066104828,
				"z": -1.4780356354,
				"element": "C" 
			},
			{
				"x": 0.7721329662,
				"y": -1.3841679168,
				"z": -0.5803066055,
				"element": "C" 
			},
			{
				"x": 2.0043831606,
				"y": -0.9506518198,
				"z": 0.1847913242,
				"element": "C" 
			},
			{
				"x": 1.6900187583,
				"y": -0.0046717777,
				"z": 1.3636244,
				"element": "C" 
			},
			{
				"x": 0.9183291304,
				"y": -0.61763207,
				"z": 2.549760613,
				"element": "C" 
			},
			{
				"x": 1.6970883796,
				"y": -0.2189546483,
				"z": 3.801641363,
				"element": "C" 
			},
			{
				"x": 1.4037338051,
				"y": -0.4151504546,
				"z": 4.9595134662,
				"element": "O" 
			},
			{
				"x": 2.8605779407,
				"y": 0.4165576101,
				"z": 3.3665588287,
				"element": "N" 
			},
			{
				"x": 2.977983189,
				"y": 0.5498139892,
				"z": 1.9870703859,
				"element": "C" 
			},
			{
				"x": 3.9301107198,
				"y": 1.0253002945,
				"z": 1.4065977266,
				"element": "O" 
			},
			{
				"x": 0.2163731449,
				"y": -2.6578421621,
				"z": -0.4020467083,
				"element": "C" 
			},
			{
				"x": -0.9337484773,
				"y": -3.0518010248,
				"z": -1.0885060294,
				"element": "C" 
			},
			{
				"x": -1.4909811766,
				"y": -0.2082016122,
				"z": -2.8723040665,
				"element": "H" 
			},
			{
				"x": 0.5653257635,
				"y": 0.4823680629,
				"z": -1.6439633275,
				"element": "H" 
			},
			{
				"x": 2.7034308803,
				"y": -0.4276209166,
				"z": -0.476331483,
				"element": "H" 
			},
			{
				"x": 2.5336071126,
				"y": -1.8315983482,
				"z": 0.5673330933,
				"element": "H" 
			},
			{
				"x": 1.1469772124,
				"y": 0.8636166447,
				"z": 0.9697120627,
				"element": "H" 
			},
			{
				"x": -0.115129029,
				"y": -0.2745647258,
				"z": 2.6370545928,
				"element": "H" 
			},
			{
				"x": 0.8847048549,
				"y": -1.711717388,
				"z": 2.5051300423,
				"element": "H" 
			},
			{
				"x": 3.5728220808,
				"y": 0.7429626289,
				"z": 4.0079628859,
				"element": "H" 
			},
			{
				"x": 0.6933122904,
				"y": -3.3612677775,
				"z": 0.2757174516,
				"element": "H" 
			},
			{
				"x": -1.3661494122,
				"y": -4.0378374584,
				"z": -0.9574838318,
				"element": "H" 
			}
		],
		 "valence_orbital": [ 
			{
				"type": "occ",
				"energy": -0.29673,
				"method": "rhf"
			},
			{
				"type": "occ",
				"energy": -0.29075,
				"method": "rhf"
			},
			{
				"type": "occ",
				"energy": -0.26876,
				"method": "rhf"
			},
			{
				"type": "occ",
				"energy": -0.26329,
				"method": "rhf"
			},
			{
				"type": "occ",
				"energy": -0.2452,
				"method": "rhf"
			},
			{
				"type": "unocc",
				"energy": -0.02646,
				"method": "rhf"
			},
			{
				"type": "unocc",
				"energy": -0.02134,
				"method": "rhf"
			},
			{
				"type": "unocc",
				"energy": -0.00722,
				"method": "rhf"
			},
			{
				"type": "unocc",
				"energy": 0.02226,
				"method": "rhf"
			},
			{
				"type": "unocc",
				"energy": 0.06913,
				"method": "rhf"
			}
		],
		"cosmo_sigma_profile": { 
			"-0.025": 0.0,
			"-0.024": 0.0,
			"-0.023": 0.0,
			"-0.022": 0.0,
			"-0.021": 0.0,
			"-0.02": 0.0,
			"-0.019": 0.0,
			"-0.018": 0.0,
			"-0.017": 0.127455619859,
			"-0.016": 1.14249798483,
			"-0.015": 1.4123838371,
			"-0.014": 0.794429169936,
			"-0.013": 0.589062559899,
			"-0.012": 0.935043862456,
			"-0.011": 1.04475576625,
			"-0.01": 0.646804915432,
			"-0.009": 0.879377153849,
			"-0.008": 2.77416636735,
			"-0.007": 13.3279339761,
			"-0.006": 22.8059274518,
			"-0.005": 16.9832812081,
			"-0.004": 16.5427814706,
			"-0.003": 14.2477542346,
			"-0.002": 13.8476915482,
			"-0.001": 11.1921344544,
			"0.0": 11.4552736505,
			"0.001": 15.0530091289,
			"0.002": 13.0358440723,
			"0.003": 14.3124998802,
			"0.004": 20.1531984216,
			"0.005": 11.1432108881,
			"0.006": 2.29805499025,
			"0.007": 2.67919212198,
			"0.008": 2.15855404172,
			"0.009": 3.99731018055,
			"0.01": 3.07672967613,
			"0.011": 8.23561358714,
			"0.012": 9.95454252407,
			"0.013": 2.63393849881,
			"0.014": 0.0,
			"0.015": 0.0,
			"0.016": 0.0,
			"0.017": 0.0,
			"0.018": 0.0,
			"0.019": 0.0,
			"0.02": 0.0,
			"0.021": 0.0,
			"0.022": 0.0,
			"0.023": 0.0,
			"0.024": 0.0,
			"0.025": 0.0
		}
	}
}
