{
	 "smiles": "NC1CCC(CC2CCC(N)CC2)CC1", 
	 "Tm": 337.85, 
	 "num_atms": 41, 
	 "gaussian": { 
		 "optdone": 1, 
		 "sigma_profile": "yes", 
		 "theory": "DFT", 
		 "functional": "B3LYP", 
		 "basiset": "6-31G**", 
		 "properties": { 
			 "R2extent": 5438.4911, 
			 "electric_dipole_moment_norm": 0.241608505645, 
			 "electric_quadrupole_moment_norm": 17.4055189233, 
			 "total_energy": -620.573119433, 
			 "HOMO_LUMO_gap": 0.29988, 
			 "cosmo_polarized_energy": -9.48, 
			 "cosmo_cavitation_energy": 37.62, 
			 "cosmo_dispersion_energy": -26.84, 
			 "cosmo_repulsion_energy": 2.11, 
			 "cosmo_total_nonelectrostatic_energy": 12.89, 
			 "SMD_solvation_energy": 2.3 
		},
		"coords": [
			{
				"x": 5.0753808306,
				"y": 0.7953150549,
				"z": -2.0035582517,
				"element": "N" 
			},
			{
				"x": 3.6312984309,
				"y": 0.9553453693,
				"z": -1.7895488798,
				"element": "C" 
			},
			{
				"x": 3.2507247373,
				"y": 1.7929740341,
				"z": -0.5382397529,
				"element": "C" 
			},
			{
				"x": 1.8258797551,
				"y": 1.4973232982,
				"z": -0.0057077444,
				"element": "C" 
			},
			{
				"x": 0.885057155,
				"y": 1.0372171847,
				"z": -1.1332651856,
				"element": "C" 
			},
			{
				"x": -0.6037802248,
				"y": 0.9416253589,
				"z": -0.7270508847,
				"element": "C" 
			},
			{
				"x": -0.9352265994,
				"y": 0.0001574105,
				"z": 0.4640884268,
				"element": "C" 
			},
			{
				"x": -2.1950299268,
				"y": -0.8561217599,
				"z": 0.2052617768,
				"element": "C" 
			},
			{
				"x": -3.490518265,
				"y": -0.0304971906,
				"z": 0.2588054786,
				"element": "C" 
			},
			{
				"x": -3.6486784284,
				"y": 0.6996448317,
				"z": 1.6070310362,
				"element": "C" 
			},
			{
				"x": -4.8573420614,
				"y": 1.5254106354,
				"z": 1.7257061533,
				"element": "N" 
			},
			{
				"x": -2.4104404347,
				"y": 1.5614742336,
				"z": 1.8885224838,
				"element": "C" 
			},
			{
				"x": -1.1048821764,
				"y": 0.7529182149,
				"z": 1.8058819368,
				"element": "C" 
			},
			{
				"x": 1.4079884495,
				"y": -0.2801417685,
				"z": -1.7660443978,
				"element": "C" 
			},
			{
				"x": 2.9474776357,
				"y": -0.4135968664,
				"z": -1.7187344388,
				"element": "C" 
			},
			{
				"x": 5.5176677465,
				"y": 1.7117038871,
				"z": -2.0514966873,
				"element": "H" 
			},
			{
				"x": 5.4842313903,
				"y": 0.3350042773,
				"z": -1.1906663944,
				"element": "H" 
			},
			{
				"x": 3.2504955754,
				"y": 1.4698876884,
				"z": -2.6829026452,
				"element": "H" 
			},
			{
				"x": 3.9849024725,
				"y": 1.5840522511,
				"z": 0.2514839763,
				"element": "H" 
			},
			{
				"x": 3.3531143365,
				"y": 2.8596817078,
				"z": -0.7764953268,
				"element": "H" 
			},
			{
				"x": 1.8758471329,
				"y": 0.7168603669,
				"z": 0.7640412288,
				"element": "H" 
			},
			{
				"x": 1.4198380833,
				"y": 2.3872659914,
				"z": 0.4896663781,
				"element": "H" 
			},
			{
				"x": 0.9298650364,
				"y": 1.8124911081,
				"z": -1.9124594044,
				"element": "H" 
			},
			{
				"x": -1.1618051537,
				"y": 0.6134939196,
				"z": -1.6148027627,
				"element": "H" 
			},
			{
				"x": -0.9657628155,
				"y": 1.9551562903,
				"z": -0.513227158,
				"element": "H" 
			},
			{
				"x": -0.0965972527,
				"y": -0.6977016765,
				"z": 0.5865638856,
				"element": "H" 
			},
			{
				"x": -2.1083038816,
				"y": -1.3681314863,
				"z": -0.7611087774,
				"element": "H" 
			},
			{
				"x": -2.2505221498,
				"y": -1.6447971783,
				"z": 0.9692267677,
				"element": "H" 
			},
			{
				"x": -4.3592880567,
				"y": -0.679476786,
				"z": 0.0847158117,
				"element": "H" 
			},
			{
				"x": -3.4946348168,
				"y": 0.7168717269,
				"z": -0.5485833522,
				"element": "H" 
			},
			{
				"x": -3.7130766145,
				"y": -0.0642239469,
				"z": 2.3971918119,
				"element": "H" 
			},
			{
				"x": -4.8532849913,
				"y": 2.2318590199,
				"z": 0.99058076,
				"element": "H" 
			},
			{
				"x": -5.6817334883,
				"y": 0.9524576006,
				"z": 1.5538399398,
				"element": "H" 
			},
			{
				"x": -2.5122069347,
				"y": 2.026162488,
				"z": 2.8751000223,
				"element": "H" 
			},
			{
				"x": -2.388228133,
				"y": 2.3869780882,
				"z": 1.1613004433,
				"element": "H" 
			},
			{
				"x": -0.2486706802,
				"y": 1.4127430502,
				"z": 1.9839993334,
				"element": "H" 
			},
			{
				"x": -1.098720592,
				"y": 0.0157887612,
				"z": 2.6211300736,
				"element": "H" 
			},
			{
				"x": 0.9597233268,
				"y": -1.144058311,
				"z": -1.2610611786,
				"element": "H" 
			},
			{
				"x": 1.0636255857,
				"y": -0.3268773133,
				"z": -2.8067315532,
				"element": "H" 
			},
			{
				"x": 3.3095570837,
				"y": -1.0453298601,
				"z": -2.5358027035,
				"element": "H" 
			},
			{
				"x": 3.2543589138,
				"y": -0.9076097058,
				"z": -0.7849502454,
				"element": "H" 
			}
		],
		 "valence_orbital": [ 
			{
				"type": "occ",
				"energy": -0.29334,
				"method": "rhf"
			},
			{
				"type": "occ",
				"energy": -0.28833,
				"method": "rhf"
			},
			{
				"type": "occ",
				"energy": -0.28411,
				"method": "rhf"
			},
			{
				"type": "occ",
				"energy": -0.22674,
				"method": "rhf"
			},
			{
				"type": "occ",
				"energy": -0.22606,
				"method": "rhf"
			},
			{
				"type": "unocc",
				"energy": 0.07382,
				"method": "rhf"
			},
			{
				"type": "unocc",
				"energy": 0.08262,
				"method": "rhf"
			},
			{
				"type": "unocc",
				"energy": 0.08644,
				"method": "rhf"
			},
			{
				"type": "unocc",
				"energy": 0.08977,
				"method": "rhf"
			},
			{
				"type": "unocc",
				"energy": 0.10383,
				"method": "rhf"
			}
		],
		"cosmo_sigma_profile": { 
			"-0.025": 0.0,
			"-0.024": 0.0,
			"-0.023": 0.0,
			"-0.022": 0.0,
			"-0.021": 0.0,
			"-0.02": 0.0,
			"-0.019": 0.0,
			"-0.018": 0.0,
			"-0.017": 0.0,
			"-0.016": 0.0,
			"-0.015": 0.0,
			"-0.014": 0.0,
			"-0.013": 0.0,
			"-0.012": 0.0,
			"-0.011": 0.0,
			"-0.01": 0.0449299460535,
			"-0.009": 2.22028695697,
			"-0.008": 5.69513015207,
			"-0.007": 4.46616069632,
			"-0.006": 6.20536334686,
			"-0.005": 6.14910041793,
			"-0.004": 6.53043560692,
			"-0.003": 9.61232617674,
			"-0.002": 38.2466875891,
			"-0.001": 65.1546654492,
			"0.0": 57.6002768182,
			"0.001": 35.9835268789,
			"0.002": 18.8069850885,
			"0.003": 2.78824615454,
			"0.004": 2.56962843094,
			"0.005": 1.34242558975,
			"0.006": 2.18766062882,
			"0.007": 2.41469428382,
			"0.008": 1.18161744747,
			"0.009": 1.89025624813,
			"0.01": 1.86423148942,
			"0.011": 1.14561669738,
			"0.012": 1.36825308248,
			"0.013": 0.905775346098,
			"0.014": 1.74900429995,
			"0.015": 1.41415431247,
			"0.016": 0.732365684034,
			"0.017": 1.69099495611,
			"0.018": 1.29714819177,
			"0.019": 1.02688402895,
			"0.02": 0.873149799059,
			"0.021": 0.146157678979,
			"0.022": 0.0,
			"0.023": 0.0,
			"0.024": 0.0,
			"0.025": 0.0
		}
	}
}
