{
	 "smiles": "ClC1=CC2=C(OC3=C2C(Cl)=CC(Cl)=C3Cl)C(Cl)=C1", 
	 "Tm": 477.15, 
	 "num_atms": 21, 
	 "gaussian": { 
		 "optdone": 1, 
		 "sigma_profile": "yes", 
		 "theory": "DFT", 
		 "functional": "B3LYP", 
		 "basiset": "6-31G**", 
		 "properties": { 
			 "R2extent": 8479.6298, 
			 "electric_dipole_moment_norm": 1.08805300422, 
			 "electric_quadrupole_moment_norm": 4.59124500109, 
			 "total_energy": -2835.2660023, 
			 "HOMO_LUMO_gap": 0.1731, 
			 "cosmo_polarized_energy": -4.97, 
			 "cosmo_cavitation_energy": 35.27, 
			 "cosmo_dispersion_energy": -26.37, 
			 "cosmo_repulsion_energy": 2.03, 
			 "cosmo_total_nonelectrostatic_energy": 10.93, 
			 "SMD_solvation_energy": 4.57 
		},
		"coords": [
			{
				"x": -3.2876234747,
				"y": 4.2768625525,
				"z": 1.2753861808,
				"element": "Cl" 
			},
			{
				"x": -2.4634542532,
				"y": 3.0492108567,
				"z": 0.3306502762,
				"element": "C" 
			},
			{
				"x": -2.0940187325,
				"y": 1.8564258632,
				"z": 0.945833651,
				"element": "C" 
			},
			{
				"x": -1.4389242934,
				"y": 0.9034314392,
				"z": 0.1577666002,
				"element": "C" 
			},
			{
				"x": -1.1788295857,
				"y": 1.1708993481,
				"z": -1.1995567025,
				"element": "C" 
			},
			{
				"x": -0.5323835475,
				"y": 0.1308147393,
				"z": -1.8163728901,
				"element": "O" 
			},
			{
				"x": -0.3658985894,
				"y": -0.8282790483,
				"z": -0.8574464584,
				"element": "C" 
			},
			{
				"x": -0.8979048164,
				"y": -0.4251123705,
				"z": 0.3824691239,
				"element": "C" 
			},
			{
				"x": -0.7968369899,
				"y": -1.3128715795,
				"z": 1.4590560718,
				"element": "C" 
			},
			{
				"x": -1.4320392706,
				"y": -0.8874617158,
				"z": 3.0307060059,
				"element": "Cl" 
			},
			{
				"x": -0.1853020546,
				"y": -2.5483021753,
				"z": 1.2822802901,
				"element": "C" 
			},
			{
				"x": 0.3336760248,
				"y": -2.9156172075,
				"z": 0.0304025877,
				"element": "C" 
			},
			{
				"x": 1.086510908,
				"y": -4.4792582066,
				"z": -0.1181091267,
				"element": "Cl" 
			},
			{
				"x": 0.2537716379,
				"y": -2.0567345202,
				"z": -1.0745362098,
				"element": "C" 
			},
			{
				"x": 0.874942872,
				"y": -2.4540833776,
				"z": -2.6412718066,
				"element": "Cl" 
			},
			{
				"x": -1.5515470285,
				"y": 2.3651780475,
				"z": -1.8053028428,
				"element": "C" 
			},
			{
				"x": -1.2125833773,
				"y": 2.6598714015,
				"z": -3.4865591352,
				"element": "Cl" 
			},
			{
				"x": -2.2042645237,
				"y": 3.3161516148,
				"z": -1.0223065623,
				"element": "C" 
			},
			{
				"x": -2.3079652862,
				"y": 1.6800152363,
				"z": 1.9915220275,
				"element": "H" 
			},
			{
				"x": -0.1040038534,
				"y": -3.2397006942,
				"z": 2.1116143377,
				"element": "H" 
			},
			{
				"x": -2.5091217656,
				"y": 4.2580597962,
				"z": -1.4613254184,
				"element": "H" 
			}
		],
		 "valence_orbital": [ 
			{
				"type": "occ",
				"energy": -0.32543,
				"method": "rhf"
			},
			{
				"type": "occ",
				"energy": -0.29563,
				"method": "rhf"
			},
			{
				"type": "occ",
				"energy": -0.27359,
				"method": "rhf"
			},
			{
				"type": "occ",
				"energy": -0.25444,
				"method": "rhf"
			},
			{
				"type": "occ",
				"energy": -0.24646,
				"method": "rhf"
			},
			{
				"type": "unocc",
				"energy": -0.07336,
				"method": "rhf"
			},
			{
				"type": "unocc",
				"energy": -0.04013,
				"method": "rhf"
			},
			{
				"type": "unocc",
				"energy": -0.0241,
				"method": "rhf"
			},
			{
				"type": "unocc",
				"energy": -0.02201,
				"method": "rhf"
			},
			{
				"type": "unocc",
				"energy": -0.0049,
				"method": "rhf"
			}
		],
		"cosmo_sigma_profile": { 
			"-0.025": 0.0,
			"-0.024": 0.0,
			"-0.023": 0.0,
			"-0.022": 0.0,
			"-0.021": 0.0,
			"-0.02": 0.0,
			"-0.019": 0.0,
			"-0.018": 0.0,
			"-0.017": 0.0,
			"-0.016": 0.0,
			"-0.015": 0.0,
			"-0.014": 0.0,
			"-0.013": 0.0,
			"-0.012": 0.0,
			"-0.011": 0.0,
			"-0.01": 0.0735572187181,
			"-0.009": 2.5275353879,
			"-0.008": 2.50354830504,
			"-0.007": 4.12961668701,
			"-0.006": 4.20274813051,
			"-0.005": 5.53699022979,
			"-0.004": 12.0427742234,
			"-0.003": 19.638214214,
			"-0.002": 33.8500940354,
			"-0.001": 43.8813677883,
			"0.0": 38.7781859764,
			"0.001": 30.1634674461,
			"0.002": 29.1222136927,
			"0.003": 40.1565915217,
			"0.004": 24.288853049,
			"0.005": 4.66724500667,
			"0.006": 1.7759936415,
			"0.007": 0.336161844934,
			"0.008": 0.0,
			"0.009": 0.0,
			"0.01": 0.0,
			"0.011": 0.0,
			"0.012": 0.0,
			"0.013": 0.0,
			"0.014": 0.0,
			"0.015": 0.0,
			"0.016": 0.0,
			"0.017": 0.0,
			"0.018": 0.0,
			"0.019": 0.0,
			"0.02": 0.0,
			"0.021": 0.0,
			"0.022": 0.0,
			"0.023": 0.0,
			"0.024": 0.0,
			"0.025": 0.0
		}
	}
}
