{
	 "smiles": "CC1=CC=CC=C1N", 
	 "Tm": 256.85, 
	 "num_atms": 17, 
	 "gaussian": { 
		 "optdone": 1, 
		 "sigma_profile": "yes", 
		 "theory": "DFT", 
		 "functional": "B3LYP", 
		 "basiset": "6-31G**", 
		 "properties": { 
			 "R2extent": 2331.4088, 
			 "electric_dipole_moment_norm": 1.74958113844, 
			 "electric_quadrupole_moment_norm": 5.21453767749, 
			 "total_energy": -326.930076502, 
			 "HOMO_LUMO_gap": 0.20842, 
			 "cosmo_polarized_energy": -7.44, 
			 "cosmo_cavitation_energy": 19.77, 
			 "cosmo_dispersion_energy": -14.94, 
			 "cosmo_repulsion_energy": 1.24, 
			 "cosmo_total_nonelectrostatic_energy": 6.06, 
			 "SMD_solvation_energy": 3.36 
		},
		"coords": [
			{
				"x": 2.5726319708,
				"y": -2.3252924996,
				"z": -0.670012462,
				"element": "C" 
			},
			{
				"x": 1.2479241487,
				"y": -2.3128079037,
				"z": -1.3922065209,
				"element": "C" 
			},
			{
				"x": 0.9454326556,
				"y": -3.2640538495,
				"z": -2.369890071,
				"element": "C" 
			},
			{
				"x": -0.2693235457,
				"y": -3.2562566294,
				"z": -3.0579759452,
				"element": "C" 
			},
			{
				"x": -1.2090989389,
				"y": -2.2692924354,
				"z": -2.7607231671,
				"element": "C" 
			},
			{
				"x": -0.9355569723,
				"y": -1.312351231,
				"z": -1.7860855777,
				"element": "C" 
			},
			{
				"x": 0.2859381208,
				"y": -1.3199752083,
				"z": -1.0945175163,
				"element": "C" 
			},
			{
				"x": 0.5761645323,
				"y": -0.3168948519,
				"z": -0.1609505823,
				"element": "N" 
			},
			{
				"x": 3.2222616271,
				"y": -3.1154686374,
				"z": -1.0549041205,
				"element": "H" 
			},
			{
				"x": 3.1004602666,
				"y": -1.3697989357,
				"z": -0.7814661932,
				"element": "H" 
			},
			{
				"x": 2.4550725486,
				"y": -2.5018331954,
				"z": 0.4092850296,
				"element": "H" 
			},
			{
				"x": 1.6862320122,
				"y": -4.027710907,
				"z": -2.5961159102,
				"element": "H" 
			},
			{
				"x": -0.4754688772,
				"y": -4.007452093,
				"z": -3.8141028666,
				"element": "H" 
			},
			{
				"x": -2.1614656412,
				"y": -2.2429929852,
				"z": -3.2831290635,
				"element": "H" 
			},
			{
				"x": -1.6707195379,
				"y": -0.544424591,
				"z": -1.5549357314,
				"element": "H" 
			},
			{
				"x": -0.2355918069,
				"y": 0.1715098902,
				"z": 0.1924609396,
				"element": "H" 
			},
			{
				"x": 1.1958074374,
				"y": -0.5915039368,
				"z": 0.5889697587,
				"element": "H" 
			}
		],
		 "valence_orbital": [ 
			{
				"type": "occ",
				"energy": -0.33966,
				"method": "rhf"
			},
			{
				"type": "occ",
				"energy": -0.32882,
				"method": "rhf"
			},
			{
				"type": "occ",
				"energy": -0.30036,
				"method": "rhf"
			},
			{
				"type": "occ",
				"energy": -0.23305,
				"method": "rhf"
			},
			{
				"type": "occ",
				"energy": -0.19544,
				"method": "rhf"
			},
			{
				"type": "unocc",
				"energy": 0.01298,
				"method": "rhf"
			},
			{
				"type": "unocc",
				"energy": 0.02469,
				"method": "rhf"
			},
			{
				"type": "unocc",
				"energy": 0.07914,
				"method": "rhf"
			},
			{
				"type": "unocc",
				"energy": 0.10559,
				"method": "rhf"
			},
			{
				"type": "unocc",
				"energy": 0.11714,
				"method": "rhf"
			}
		],
		"cosmo_sigma_profile": { 
			"-0.025": 0.0,
			"-0.024": 0.0,
			"-0.023": 0.0,
			"-0.022": 0.0,
			"-0.021": 0.0,
			"-0.02": 0.0,
			"-0.019": 0.0,
			"-0.018": 0.0,
			"-0.017": 0.0,
			"-0.016": 0.0,
			"-0.015": 0.0,
			"-0.014": 0.0,
			"-0.013": 0.0,
			"-0.012": 1.17846068457,
			"-0.011": 2.10454603014,
			"-0.01": 2.847609512,
			"-0.009": 2.90329300427,
			"-0.008": 2.99096430358,
			"-0.007": 3.11564295308,
			"-0.006": 3.04910090008,
			"-0.005": 7.08715550229,
			"-0.004": 13.0040103503,
			"-0.003": 13.3786019929,
			"-0.002": 14.2052917876,
			"-0.001": 11.1321464754,
			"0.0": 12.2787795947,
			"0.001": 9.91621723499,
			"0.002": 7.68256928178,
			"0.003": 7.19790347899,
			"0.004": 6.76742908919,
			"0.005": 8.17938435338,
			"0.006": 8.6627244112,
			"0.007": 8.35548778116,
			"0.008": 5.67405737972,
			"0.009": 1.00853677945,
			"0.01": 0.254268478368,
			"0.011": 0.257524964483,
			"0.012": 1.25493766721,
			"0.013": 0.564017953907,
			"0.014": 0.572781797312,
			"0.015": 0.332467228658,
			"0.016": 0.0293677323072,
			"0.017": 0.0,
			"0.018": 0.0,
			"0.019": 0.0,
			"0.02": 0.0,
			"0.021": 0.0,
			"0.022": 0.0,
			"0.023": 0.0,
			"0.024": 0.0,
			"0.025": 0.0
		}
	}
}
