{
	 "smiles": "CCCCCCCCCCCCCCCC(=O)OCCOC(=O)CCCCCCCCCCCCCCC", 
	 "Tm": 345.15, 
	 "num_atms": 104, 
	 "gaussian": { 
		 "optdone": 1, 
		 "sigma_profile": "yes", 
		 "theory": "DFT", 
		 "functional": "B3LYP", 
		 "basiset": "6-31G**", 
		 "properties": { 
			 "R2extent": 28123.9359, 
			 "electric_dipole_moment_norm": 1.84044810304, 
			 "electric_quadrupole_moment_norm": 15.1969031483, 
			 "total_energy": -1636.40188431, 
			 "HOMO_LUMO_gap": 0.26811, 
			 "cosmo_polarized_energy": -11.45, 
			 "cosmo_cavitation_energy": 98.13, 
			 "cosmo_dispersion_energy": -52.53, 
			 "cosmo_repulsion_energy": 4.06, 
			 "cosmo_total_nonelectrostatic_energy": 49.66, 
			 "SMD_solvation_energy": 12.99 
		},
		"coords": [
			{
				"x": -5.0451526669,
				"y": 1.7937235589,
				"z": -3.9970243676,
				"element": "C" 
			},
			{
				"x": -6.2979338419,
				"y": 1.1303139677,
				"z": -3.4093557354,
				"element": "C" 
			},
			{
				"x": -6.7751815823,
				"y": 1.717887867,
				"z": -2.0630558351,
				"element": "C" 
			},
			{
				"x": -6.2000024189,
				"y": 1.0660215427,
				"z": -0.792586795,
				"element": "C" 
			},
			{
				"x": -4.6821348664,
				"y": 1.177050463,
				"z": -0.586662067,
				"element": "C" 
			},
			{
				"x": -4.2331215304,
				"y": 0.6767933856,
				"z": 0.7933873805,
				"element": "C" 
			},
			{
				"x": -2.7138251974,
				"y": 0.7447692583,
				"z": 1.0099733131,
				"element": "C" 
			},
			{
				"x": -2.2718517066,
				"y": 0.4400962561,
				"z": 2.4529336272,
				"element": "C" 
			},
			{
				"x": -2.5418480522,
				"y": -0.9922016221,
				"z": 2.9507371749,
				"element": "C" 
			},
			{
				"x": -1.6818382947,
				"y": -2.102299483,
				"z": 2.3178495516,
				"element": "C" 
			},
			{
				"x": -0.1806856453,
				"y": -1.9805616686,
				"z": 2.6372705153,
				"element": "C" 
			},
			{
				"x": 0.6101904763,
				"y": -3.2930646898,
				"z": 2.4945704049,
				"element": "C" 
			},
			{
				"x": 0.6725438884,
				"y": -3.9108959524,
				"z": 1.0873995427,
				"element": "C" 
			},
			{
				"x": 1.4402106512,
				"y": -3.0569532438,
				"z": 0.0671812263,
				"element": "C" 
			},
			{
				"x": 1.8135460307,
				"y": -3.7852478485,
				"z": -1.2458996706,
				"element": "C" 
			},
			{
				"x": 0.6900884187,
				"y": -3.9417396049,
				"z": -2.2487962661,
				"element": "C" 
			},
			{
				"x": 0.6855210777,
				"y": -3.4692377263,
				"z": -3.3661209623,
				"element": "O" 
			},
			{
				"x": -0.3237680938,
				"y": -4.6999348389,
				"z": -1.7557125022,
				"element": "O" 
			},
			{
				"x": -1.4524970891,
				"y": -4.9429116538,
				"z": -2.6158654689,
				"element": "C" 
			},
			{
				"x": -2.5572836833,
				"y": -3.9072920991,
				"z": -2.4540794026,
				"element": "C" 
			},
			{
				"x": -2.3373831336,
				"y": -2.7481492589,
				"z": -3.2764787515,
				"element": "O" 
			},
			{
				"x": -1.7567596888,
				"y": -1.6637086272,
				"z": -2.7110826994,
				"element": "C" 
			},
			{
				"x": -1.4554750699,
				"y": -1.5960656997,
				"z": -1.5356209011,
				"element": "O" 
			},
			{
				"x": -1.5887751989,
				"y": -0.5641224269,
				"z": -3.7388959668,
				"element": "C" 
			},
			{
				"x": -0.6993764457,
				"y": 0.5949093772,
				"z": -3.2775172616,
				"element": "C" 
			},
			{
				"x": 0.7960027239,
				"y": 0.2528218845,
				"z": -3.2444304545,
				"element": "C" 
			},
			{
				"x": 1.6736873484,
				"y": 1.4336116143,
				"z": -2.8104639733,
				"element": "C" 
			},
			{
				"x": 3.1703929581,
				"y": 1.0930732541,
				"z": -2.7840696866,
				"element": "C" 
			},
			{
				"x": 4.0965133933,
				"y": 2.2879401133,
				"z": -2.4963618925,
				"element": "C" 
			},
			{
				"x": 3.9437426492,
				"y": 2.9491165692,
				"z": -1.1150304225,
				"element": "C" 
			},
			{
				"x": 4.3065724648,
				"y": 2.0459941528,
				"z": 0.0722044742,
				"element": "C" 
			},
			{
				"x": 4.2640382046,
				"y": 2.7756337383,
				"z": 1.4215747339,
				"element": "C" 
			},
			{
				"x": 4.6547631135,
				"y": 1.8859857563,
				"z": 2.6107194479,
				"element": "C" 
			},
			{
				"x": 4.6407284434,
				"y": 2.6149500937,
				"z": 3.9684798884,
				"element": "C" 
			},
			{
				"x": 3.239785128,
				"y": 2.9349222859,
				"z": 4.5419455035,
				"element": "C" 
			},
			{
				"x": 2.6549151597,
				"y": 1.9412418343,
				"z": 5.5657137337,
				"element": "C" 
			},
			{
				"x": 2.3223448478,
				"y": 0.5154834496,
				"z": 5.0745425938,
				"element": "C" 
			},
			{
				"x": 3.477653791,
				"y": -0.492209013,
				"z": 5.1464977823,
				"element": "C" 
			},
			{
				"x": -4.7703438454,
				"y": 1.3390223905,
				"z": -4.9555689787,
				"element": "H" 
			},
			{
				"x": -5.2188218015,
				"y": 2.8607991714,
				"z": -4.1780197824,
				"element": "H" 
			},
			{
				"x": -4.1828674771,
				"y": 1.7144328341,
				"z": -3.3286200989,
				"element": "H" 
			},
			{
				"x": -6.1284921752,
				"y": 0.0505659,
				"z": -3.2953037492,
				"element": "H" 
			},
			{
				"x": -7.1076106465,
				"y": 1.2267994758,
				"z": -4.1436432927,
				"element": "H" 
			},
			{
				"x": -6.5674666857,
				"y": 2.7974355282,
				"z": -2.0461607413,
				"element": "H" 
			},
			{
				"x": -7.8674130565,
				"y": 1.6254664444,
				"z": -2.0090136261,
				"element": "H" 
			},
			{
				"x": -6.7006330069,
				"y": 1.517864122,
				"z": 0.0753387377,
				"element": "H" 
			},
			{
				"x": -6.4841320741,
				"y": 0.0036425798,
				"z": -0.7796959379,
				"element": "H" 
			},
			{
				"x": -4.3702743081,
				"y": 2.2242268483,
				"z": -0.7102874342,
				"element": "H" 
			},
			{
				"x": -4.1535685646,
				"y": 0.606221681,
				"z": -1.3611881503,
				"element": "H" 
			},
			{
				"x": -4.5853068962,
				"y": -0.3546238033,
				"z": 0.9290162874,
				"element": "H" 
			},
			{
				"x": -4.7372392702,
				"y": 1.2722003883,
				"z": 1.5691648913,
				"element": "H" 
			},
			{
				"x": -2.3702976653,
				"y": 1.7575858421,
				"z": 0.7556581632,
				"element": "H" 
			},
			{
				"x": -2.2129597689,
				"y": 0.0693508044,
				"z": 0.3052351582,
				"element": "H" 
			},
			{
				"x": -1.2015086875,
				"y": 0.661393102,
				"z": 2.5528425062,
				"element": "H" 
			},
			{
				"x": -2.7839973108,
				"y": 1.1412859216,
				"z": 3.1267622498,
				"element": "H" 
			},
			{
				"x": -3.6023249969,
				"y": -1.233911492,
				"z": 2.8044637087,
				"element": "H" 
			},
			{
				"x": -2.3805247654,
				"y": -1.0149371798,
				"z": 4.0376368982,
				"element": "H" 
			},
			{
				"x": -2.0447347785,
				"y": -3.0667162045,
				"z": 2.7013819884,
				"element": "H" 
			},
			{
				"x": -1.8328318657,
				"y": -2.1290329435,
				"z": 1.2317483956,
				"element": "H" 
			},
			{
				"x": -0.0680897285,
				"y": -1.6368431168,
				"z": 3.6751839976,
				"element": "H" 
			},
			{
				"x": 0.273984862,
				"y": -1.2000169217,
				"z": 2.0144053874,
				"element": "H" 
			},
			{
				"x": 1.6372137926,
				"y": -3.1262044031,
				"z": 2.8500368327,
				"element": "H" 
			},
			{
				"x": 0.1722464008,
				"y": -4.0341849358,
				"z": 3.1775493924,
				"element": "H" 
			},
			{
				"x": 1.1670855328,
				"y": -4.8891405769,
				"z": 1.1671352152,
				"element": "H" 
			},
			{
				"x": -0.3361640338,
				"y": -4.1138345955,
				"z": 0.7154338128,
				"element": "H" 
			},
			{
				"x": 2.3835255768,
				"y": -2.7289271944,
				"z": 0.5236997177,
				"element": "H" 
			},
			{
				"x": 0.8767003951,
				"y": -2.1484366704,
				"z": -0.1719838923,
				"element": "H" 
			},
			{
				"x": 2.6007025466,
				"y": -3.2379216066,
				"z": -1.7695245474,
				"element": "H" 
			},
			{
				"x": 2.2008680644,
				"y": -4.7845896576,
				"z": -1.0087487751,
				"element": "H" 
			},
			{
				"x": -1.1234145618,
				"y": -4.9845952591,
				"z": -3.6570085323,
				"element": "H" 
			},
			{
				"x": -1.8334878766,
				"y": -5.9202300675,
				"z": -2.3063816398,
				"element": "H" 
			},
			{
				"x": -2.6590298643,
				"y": -3.6113523651,
				"z": -1.4075332932,
				"element": "H" 
			},
			{
				"x": -3.498963444,
				"y": -4.3353950678,
				"z": -2.8101931085,
				"element": "H" 
			},
			{
				"x": -1.2073249156,
				"y": -1.0243916859,
				"z": -4.6570006124,
				"element": "H" 
			},
			{
				"x": -2.5988489157,
				"y": -0.2067307573,
				"z": -3.9790696943,
				"element": "H" 
			},
			{
				"x": -0.8611374728,
				"y": 1.4416670463,
				"z": -3.9567248008,
				"element": "H" 
			},
			{
				"x": -1.0261890278,
				"y": 0.9222943547,
				"z": -2.283782167,
				"element": "H" 
			},
			{
				"x": 1.1108089982,
				"y": -0.0872656308,
				"z": -4.2409900032,
				"element": "H" 
			},
			{
				"x": 0.9597650392,
				"y": -0.596953543,
				"z": -2.5717368246,
				"element": "H" 
			},
			{
				"x": 1.5086427813,
				"y": 2.2797736857,
				"z": -3.4940171048,
				"element": "H" 
			},
			{
				"x": 1.3486907503,
				"y": 1.7774784612,
				"z": -1.8193534451,
				"element": "H" 
			},
			{
				"x": 3.3472939462,
				"y": 0.2944352294,
				"z": -2.0511854173,
				"element": "H" 
			},
			{
				"x": 3.4509021321,
				"y": 0.6687912651,
				"z": -3.7577369153,
				"element": "H" 
			},
			{
				"x": 3.9318832975,
				"y": 3.0507915104,
				"z": -3.2698826854,
				"element": "H" 
			},
			{
				"x": 5.1388190945,
				"y": 1.9604310774,
				"z": -2.6135361571,
				"element": "H" 
			},
			{
				"x": 4.5875848982,
				"y": 3.8389808259,
				"z": -1.0879160071,
				"element": "H" 
			},
			{
				"x": 2.9182117825,
				"y": 3.3212969755,
				"z": -0.9882834833,
				"element": "H" 
			},
			{
				"x": 3.6280303695,
				"y": 1.1831654972,
				"z": 0.1093837212,
				"element": "H" 
			},
			{
				"x": 5.3138097035,
				"y": 1.6324617374,
				"z": -0.0838695358,
				"element": "H" 
			},
			{
				"x": 3.2570955461,
				"y": 3.1872002357,
				"z": 1.5754810354,
				"element": "H" 
			},
			{
				"x": 4.9409610763,
				"y": 3.6415557815,
				"z": 1.385696152,
				"element": "H" 
			},
			{
				"x": 5.6635964474,
				"y": 1.4893362593,
				"z": 2.4308897394,
				"element": "H" 
			},
			{
				"x": 3.9886802088,
				"y": 1.0141340575,
				"z": 2.6423272707,
				"element": "H" 
			},
			{
				"x": 5.2049870434,
				"y": 2.029892601,
				"z": 4.705589425,
				"element": "H" 
			},
			{
				"x": 5.2008378763,
				"y": 3.5520118096,
				"z": 3.8484094596,
				"element": "H" 
			},
			{
				"x": 3.2803229546,
				"y": 3.9131625282,
				"z": 5.0374899494,
				"element": "H" 
			},
			{
				"x": 2.5228741819,
				"y": 3.056434436,
				"z": 3.7184913961,
				"element": "H" 
			},
			{
				"x": 1.7315043041,
				"y": 2.3922376947,
				"z": 5.9518117044,
				"element": "H" 
			},
			{
				"x": 3.3333134155,
				"y": 1.8727107498,
				"z": 6.428614723,
				"element": "H" 
			},
			{
				"x": 1.9294526275,
				"y": 0.5627338798,
				"z": 4.0499307483,
				"element": "H" 
			},
			{
				"x": 1.49956553,
				"y": 0.1244566915,
				"z": 5.6868643915,
				"element": "H" 
			},
			{
				"x": 4.3240260167,
				"y": -0.2057671984,
				"z": 4.5165244221,
				"element": "H" 
			},
			{
				"x": 3.8485586198,
				"y": -0.5836925805,
				"z": 6.1740455836,
				"element": "H" 
			},
			{
				"x": 3.1498071131,
				"y": -1.4869769337,
				"z": 4.8247475598,
				"element": "H" 
			}
		],
		 "valence_orbital": [ 
			{
				"type": "occ",
				"energy": -0.29207,
				"method": "rhf"
			},
			{
				"type": "occ",
				"energy": -0.28897,
				"method": "rhf"
			},
			{
				"type": "occ",
				"energy": -0.287,
				"method": "rhf"
			},
			{
				"type": "occ",
				"energy": -0.2741,
				"method": "rhf"
			},
			{
				"type": "occ",
				"energy": -0.26679,
				"method": "rhf"
			},
			{
				"type": "unocc",
				"energy": 0.00132,
				"method": "rhf"
			},
			{
				"type": "unocc",
				"energy": 0.01893,
				"method": "rhf"
			},
			{
				"type": "unocc",
				"energy": 0.06336,
				"method": "rhf"
			},
			{
				"type": "unocc",
				"energy": 0.06883,
				"method": "rhf"
			},
			{
				"type": "unocc",
				"energy": 0.07888,
				"method": "rhf"
			}
		],
		"cosmo_sigma_profile": { 
			"-0.025": 0.0,
			"-0.024": 0.0,
			"-0.023": 0.0,
			"-0.022": 0.0,
			"-0.021": 0.0,
			"-0.02": 0.0,
			"-0.019": 0.0,
			"-0.018": 0.0,
			"-0.017": 0.0,
			"-0.016": 0.0,
			"-0.015": 0.0,
			"-0.014": 0.0,
			"-0.013": 0.0,
			"-0.012": 0.0,
			"-0.011": 0.0,
			"-0.01": 0.0,
			"-0.009": 0.0,
			"-0.008": 0.99218428848,
			"-0.007": 6.98538107605,
			"-0.006": 6.8408507061,
			"-0.005": 12.81304302,
			"-0.004": 14.6752309476,
			"-0.003": 25.3411717687,
			"-0.002": 85.1719548348,
			"-0.001": 165.352725816,
			"0.0": 167.726159174,
			"0.001": 134.771078653,
			"0.002": 66.0006440502,
			"0.003": 13.8816911893,
			"0.004": 11.2779882963,
			"0.005": 11.2130505735,
			"0.006": 9.05067922592,
			"0.007": 5.48875069915,
			"0.008": 3.92362765795,
			"0.009": 3.0135145746,
			"0.01": 1.80906577294,
			"0.011": 1.99183468601,
			"0.012": 2.24756057556,
			"0.013": 0.446232615196,
			"0.014": 0.0,
			"0.015": 0.0,
			"0.016": 0.0,
			"0.017": 0.0,
			"0.018": 0.0,
			"0.019": 0.0,
			"0.02": 0.0,
			"0.021": 0.0,
			"0.022": 0.0,
			"0.023": 0.0,
			"0.024": 0.0,
			"0.025": 0.0
		}
	}
}
