{
	 "smiles": "OC(=O)C1=CC=C(CN2C(=O)C=CC2=O)C=C1", 
	 "Tm": 437.15, 
	 "num_atms": 26, 
	 "gaussian": { 
		 "optdone": 1, 
		 "sigma_profile": "yes", 
		 "theory": "DFT", 
		 "functional": "B3LYP", 
		 "basiset": "6-31G**", 
		 "properties": { 
			 "R2extent": 6673.0562, 
			 "electric_dipole_moment_norm": 2.53844971784, 
			 "electric_quadrupole_moment_norm": 18.9356553697, 
			 "total_energy": -818.371027856, 
			 "HOMO_LUMO_gap": 0.15816, 
			 "cosmo_polarized_energy": -15.78, 
			 "cosmo_cavitation_energy": 32.33, 
			 "cosmo_dispersion_energy": -22.64, 
			 "cosmo_repulsion_energy": 1.74, 
			 "cosmo_total_nonelectrostatic_energy": 11.43, 
			 "SMD_solvation_energy": 8.0 
		},
		"coords": [
			{
				"x": -4.3633747195,
				"y": -4.594481624,
				"z": 1.2617670292,
				"element": "O" 
			},
			{
				"x": -4.3487392594,
				"y": -3.7434765523,
				"z": 0.2045554766,
				"element": "C" 
			},
			{
				"x": -5.2012076346,
				"y": -3.7776636432,
				"z": -0.6610911668,
				"element": "O" 
			},
			{
				"x": -3.2027081787,
				"y": -2.7966832866,
				"z": 0.2334916104,
				"element": "C" 
			},
			{
				"x": -3.0882532475,
				"y": -1.8710631366,
				"z": -0.8125306901,
				"element": "C" 
			},
			{
				"x": -2.0306824218,
				"y": -0.9673925316,
				"z": -0.8325616349,
				"element": "C" 
			},
			{
				"x": -1.072203324,
				"y": -0.9759613714,
				"z": 0.1904361371,
				"element": "C" 
			},
			{
				"x": 0.0726755873,
				"y": 0.0195460704,
				"z": 0.1758913998,
				"element": "C" 
			},
			{
				"x": -0.2457838676,
				"y": 1.2694100325,
				"z": 0.8636464034,
				"element": "N" 
			},
			{
				"x": -0.0532355806,
				"y": 1.495194998,
				"z": 2.2294390575,
				"element": "C" 
			},
			{
				"x": 0.4295121733,
				"y": 0.705974734,
				"z": 3.016640559,
				"element": "O" 
			},
			{
				"x": -0.5518001914,
				"y": 2.8893646246,
				"z": 2.4915481114,
				"element": "C" 
			},
			{
				"x": -1.0038888187,
				"y": 3.4054868901,
				"z": 1.3442707432,
				"element": "C" 
			},
			{
				"x": -0.8312522935,
				"y": 2.3834218958,
				"z": 0.254998888,
				"element": "C" 
			},
			{
				"x": -1.1217923521,
				"y": 2.4769693451,
				"z": -0.9206074246,
				"element": "O" 
			},
			{
				"x": -1.1931285747,
				"y": -1.8991755101,
				"z": 1.2373879217,
				"element": "C" 
			},
			{
				"x": -2.2501947825,
				"y": -2.8058509276,
				"z": 1.2617579077,
				"element": "C" 
			},
			{
				"x": -5.1456426997,
				"y": -5.1560295321,
				"z": 1.1354917509,
				"element": "H" 
			},
			{
				"x": -3.8361261347,
				"y": -1.8792110777,
				"z": -1.5981895672,
				"element": "H" 
			},
			{
				"x": -1.9462856478,
				"y": -0.2428073688,
				"z": -1.6374146724,
				"element": "H" 
			},
			{
				"x": 0.9517162288,
				"y": -0.3990104769,
				"z": 0.6717647735,
				"element": "H" 
			},
			{
				"x": 0.3386502613,
				"y": 0.283612384,
				"z": -0.8504038562,
				"element": "H" 
			},
			{
				"x": -0.5154143387,
				"y": 3.3325399821,
				"z": 3.4779371315,
				"element": "H" 
			},
			{
				"x": -1.4327572458,
				"y": 4.3796723054,
				"z": 1.1500685325,
				"element": "H" 
			},
			{
				"x": -0.4593569759,
				"y": -1.8964985363,
				"z": 2.0382807774,
				"element": "H" 
			},
			{
				"x": -2.3406259612,
				"y": -3.5213876868,
				"z": 2.0710248014,
				"element": "H" 
			}
		],
		 "valence_orbital": [ 
			{
				"type": "occ",
				"energy": -0.28324,
				"method": "rhf"
			},
			{
				"type": "occ",
				"energy": -0.27748,
				"method": "rhf"
			},
			{
				"type": "occ",
				"energy": -0.27688,
				"method": "rhf"
			},
			{
				"type": "occ",
				"energy": -0.26289,
				"method": "rhf"
			},
			{
				"type": "occ",
				"energy": -0.26028,
				"method": "rhf"
			},
			{
				"type": "unocc",
				"energy": -0.10212,
				"method": "rhf"
			},
			{
				"type": "unocc",
				"energy": -0.05235,
				"method": "rhf"
			},
			{
				"type": "unocc",
				"energy": -0.01303,
				"method": "rhf"
			},
			{
				"type": "unocc",
				"energy": 0.04275,
				"method": "rhf"
			},
			{
				"type": "unocc",
				"energy": 0.05517,
				"method": "rhf"
			}
		],
		"cosmo_sigma_profile": { 
			"-0.025": 0.0,
			"-0.024": 0.0,
			"-0.023": 0.0,
			"-0.022": 0.0,
			"-0.021": 0.0,
			"-0.02": 0.0,
			"-0.019": 0.0,
			"-0.018": 0.78788574426,
			"-0.017": 0.916580310394,
			"-0.016": 0.960363661029,
			"-0.015": 0.612401355355,
			"-0.014": 0.910651248549,
			"-0.013": 0.465785691577,
			"-0.012": 0.363469525091,
			"-0.011": 0.885085028515,
			"-0.01": 2.96222528935,
			"-0.009": 4.51491270845,
			"-0.008": 3.1354893541,
			"-0.007": 6.57929385002,
			"-0.006": 12.6019318489,
			"-0.005": 19.4189761625,
			"-0.004": 19.8941616596,
			"-0.003": 20.6223327389,
			"-0.002": 18.4924316825,
			"-0.001": 14.7863657806,
			"0.0": 16.923105143,
			"0.001": 18.8931518426,
			"0.002": 17.2979409392,
			"0.003": 18.2645830471,
			"0.004": 7.1370356654,
			"0.005": 5.72958363357,
			"0.006": 5.08476629841,
			"0.007": 7.53386626234,
			"0.008": 4.2226788446,
			"0.009": 5.50758064984,
			"0.01": 8.02049721569,
			"0.011": 10.2916777281,
			"0.012": 5.69709998227,
			"0.013": 0.0949793511905,
			"0.014": 0.0,
			"0.015": 0.0,
			"0.016": 0.0,
			"0.017": 0.0,
			"0.018": 0.0,
			"0.019": 0.0,
			"0.02": 0.0,
			"0.021": 0.0,
			"0.022": 0.0,
			"0.023": 0.0,
			"0.024": 0.0,
			"0.025": 0.0
		}
	}
}
