{
	 "smiles": "NC(=O)CCNC(=O)C1=C(N)C=CC=C1", 
	 "Tm": 471.15, 
	 "num_atms": 28, 
	 "gaussian": { 
		 "optdone": 1, 
		 "sigma_profile": "yes", 
		 "theory": "DFT", 
		 "functional": "B3LYP", 
		 "basiset": "6-31G**", 
		 "properties": { 
			 "R2extent": 4409.3344, 
			 "electric_dipole_moment_norm": 3.18493227244, 
			 "electric_quadrupole_moment_norm": 19.3245891103, 
			 "total_energy": -703.642186655, 
			 "HOMO_LUMO_gap": 0.16397, 
			 "cosmo_polarized_energy": -19.4, 
			 "cosmo_cavitation_energy": 31.06, 
			 "cosmo_dispersion_energy": -22.59, 
			 "cosmo_repulsion_energy": 1.8, 
			 "cosmo_total_nonelectrostatic_energy": 10.28, 
			 "SMD_solvation_energy": 6.61 
		},
		"coords": [
			{
				"x": -3.5461927055,
				"y": -1.2804032232,
				"z": -2.190627688,
				"element": "N" 
			},
			{
				"x": -2.944924006,
				"y": -2.236682599,
				"z": -2.9585300613,
				"element": "C" 
			},
			{
				"x": -3.2854403444,
				"y": -2.475934729,
				"z": -4.1077723953,
				"element": "O" 
			},
			{
				"x": -1.8196054287,
				"y": -3.0241920307,
				"z": -2.2766482885,
				"element": "C" 
			},
			{
				"x": -0.8584584779,
				"y": -2.2450300802,
				"z": -1.368140085,
				"element": "C" 
			},
			{
				"x": -1.5132669684,
				"y": -1.8025064604,
				"z": -0.1207342262,
				"element": "N" 
			},
			{
				"x": -0.9416170095,
				"y": -0.9051375309,
				"z": 0.7895562045,
				"element": "C" 
			},
			{
				"x": -1.0240718123,
				"y": -1.1685736986,
				"z": 1.9936711803,
				"element": "O" 
			},
			{
				"x": -0.3176687205,
				"y": 0.3429530818,
				"z": 0.2834743496,
				"element": "C" 
			},
			{
				"x": 0.6809401852,
				"y": 0.9969492201,
				"z": 1.0652647787,
				"element": "C" 
			},
			{
				"x": 1.1197288184,
				"y": 0.4786737103,
				"z": 2.2585509344,
				"element": "N" 
			},
			{
				"x": 1.2585067144,
				"y": 2.1808005176,
				"z": 0.5548308599,
				"element": "C" 
			},
			{
				"x": 0.8372799695,
				"y": 2.7281572525,
				"z": -0.6463338676,
				"element": "C" 
			},
			{
				"x": -0.1822481921,
				"y": 2.1196755863,
				"z": -1.3906733603,
				"element": "C" 
			},
			{
				"x": -0.7411460252,
				"y": 0.9399148921,
				"z": -0.9199243845,
				"element": "C" 
			},
			{
				"x": -3.2824008756,
				"y": -1.1505757061,
				"z": -1.2227089491,
				"element": "H" 
			},
			{
				"x": -4.3374774417,
				"y": -0.7910677467,
				"z": -2.5811383377,
				"element": "H" 
			},
			{
				"x": -1.2502737074,
				"y": -3.4892403475,
				"z": -3.0848396845,
				"element": "H" 
			},
			{
				"x": -2.2789102198,
				"y": -3.8460505806,
				"z": -1.7089904731,
				"element": "H" 
			},
			{
				"x": -0.4646032306,
				"y": -1.3735684428,
				"z": -1.890484138,
				"element": "H" 
			},
			{
				"x": -0.0007176476,
				"y": -2.890820759,
				"z": -1.1330700882,
				"element": "H" 
			},
			{
				"x": -1.8692043332,
				"y": -2.58672025,
				"z": 0.4210302513,
				"element": "H" 
			},
			{
				"x": 1.6614375777,
				"y": 1.0903210697,
				"z": 2.8491413364,
				"element": "H" 
			},
			{
				"x": 0.4763977521,
				"y": -0.1543467592,
				"z": 2.7183614597,
				"element": "H" 
			},
			{
				"x": 2.0368999679,
				"y": 2.6708325216,
				"z": 1.1344953786,
				"element": "H" 
			},
			{
				"x": 1.2952277587,
				"y": 3.6475461044,
				"z": -1.0009483498,
				"element": "H" 
			},
			{
				"x": -0.5343678934,
				"y": 2.5634246933,
				"z": -2.3158267632,
				"element": "H" 
			},
			{
				"x": -1.5497237041,
				"y": 0.4792022944,
				"z": -1.4780855931,
				"element": "H" 
			}
		],
		 "valence_orbital": [ 
			{
				"type": "occ",
				"energy": -0.26402,
				"method": "rhf"
			},
			{
				"type": "occ",
				"energy": -0.26058,
				"method": "rhf"
			},
			{
				"type": "occ",
				"energy": -0.25628,
				"method": "rhf"
			},
			{
				"type": "occ",
				"energy": -0.24342,
				"method": "rhf"
			},
			{
				"type": "occ",
				"energy": -0.20811,
				"method": "rhf"
			},
			{
				"type": "unocc",
				"energy": -0.04414,
				"method": "rhf"
			},
			{
				"type": "unocc",
				"energy": 0.00572,
				"method": "rhf"
			},
			{
				"type": "unocc",
				"energy": 0.02829,
				"method": "rhf"
			},
			{
				"type": "unocc",
				"energy": 0.04209,
				"method": "rhf"
			},
			{
				"type": "unocc",
				"energy": 0.0767,
				"method": "rhf"
			}
		],
		"cosmo_sigma_profile": { 
			"-0.025": 0.0,
			"-0.024": 0.0,
			"-0.023": 0.0,
			"-0.022": 0.0,
			"-0.021": 0.0,
			"-0.02": 0.0,
			"-0.019": 0.0,
			"-0.018": 0.0,
			"-0.017": 0.0,
			"-0.016": 0.0,
			"-0.015": 0.0,
			"-0.014": 0.282826452599,
			"-0.013": 2.25782233366,
			"-0.012": 3.60362612343,
			"-0.011": 3.9470301847,
			"-0.01": 3.97923973275,
			"-0.009": 4.64284642879,
			"-0.008": 6.6074837415,
			"-0.007": 5.96907090212,
			"-0.006": 11.397970778,
			"-0.005": 22.3101047488,
			"-0.004": 20.2056136761,
			"-0.003": 17.9438600733,
			"-0.002": 15.4326884241,
			"-0.001": 11.6730263148,
			"0.0": 10.2471693635,
			"0.001": 9.95236391427,
			"0.002": 9.98578969337,
			"0.003": 14.2377131426,
			"0.004": 14.7191596436,
			"0.005": 12.2791469053,
			"0.006": 7.3123907287,
			"0.007": 3.399238702,
			"0.008": 3.76805781134,
			"0.009": 3.36501284896,
			"0.01": 3.260710655,
			"0.011": 3.47527874333,
			"0.012": 5.39149394954,
			"0.013": 4.74909734735,
			"0.014": 6.21612023144,
			"0.015": 2.90210274967,
			"0.016": 0.0954452352186,
			"0.017": 0.0,
			"0.018": 0.0,
			"0.019": 0.0,
			"0.02": 0.0,
			"0.021": 0.0,
			"0.022": 0.0,
			"0.023": 0.0,
			"0.024": 0.0,
			"0.025": 0.0
		}
	}
}
