{
	 "smiles": "[O-][N+](=O)C1=C(C=CC2=C1C(=O)C1=C(Cl)C(Cl)=C(Cl)C(Cl)=C1C2=O)C(Br)Br", 
	 "Tm": 520.15, 
	 "num_atms": 29, 
	 "gaussian": { 
		 "optdone": 1, 
		 "sigma_profile": "yes", 
		 "theory": "DFT", 
		 "functional": "B3LYP", 
		 "basiset": "6-31G**", 
		 "properties": { 
			 "R2extent": 19166.6588, 
			 "electric_dipole_moment_norm": 4.54180663723, 
			 "electric_quadrupole_moment_norm": 19.7038946503, 
			 "total_energy": -7912.46733937, 
			 "HOMO_LUMO_gap": 0.14251, 
			 "cosmo_polarized_energy": -18.77, 
			 "cosmo_cavitation_energy": 46.02, 
			 "cosmo_dispersion_energy": -33.49, 
			 "cosmo_repulsion_energy": 2.47, 
			 "cosmo_total_nonelectrostatic_energy": 15.0, 
			 "SMD_solvation_energy": 7.16 
		},
		"coords": [
			{
				"x": -2.2094679201,
				"y": 1.1166049089,
				"z": 1.7696209567,
				"element": "O" 
			},
			{
				"x": -1.2781974479,
				"y": 0.7486294538,
				"z": 2.4746823943,
				"element": "N" 
			},
			{
				"x": -1.3289653542,
				"y": 0.4442649278,
				"z": 3.6570874461,
				"element": "O" 
			},
			{
				"x": 0.0516437428,
				"y": 0.6991084576,
				"z": 1.8205320827,
				"element": "C" 
			},
			{
				"x": 1.078096662,
				"y": 1.5620222281,
				"z": 2.2310782221,
				"element": "C" 
			},
			{
				"x": 2.297326933,
				"y": 1.4998838407,
				"z": 1.5298268694,
				"element": "C" 
			},
			{
				"x": 2.4900825126,
				"y": 0.6281112315,
				"z": 0.4694624936,
				"element": "C" 
			},
			{
				"x": 1.4446043721,
				"y": -0.2047946275,
				"z": 0.0627932422,
				"element": "C" 
			},
			{
				"x": 0.2227565563,
				"y": -0.1813172808,
				"z": 0.7427891023,
				"element": "C" 
			},
			{
				"x": -0.7951103596,
				"y": -1.2172855751,
				"z": 0.3879855233,
				"element": "C" 
			},
			{
				"x": -1.5544109882,
				"y": -1.6536400695,
				"z": 1.2314595879,
				"element": "O" 
			},
			{
				"x": -0.7762056512,
				"y": -1.7247615448,
				"z": -1.0302057172,
				"element": "C" 
			},
			{
				"x": -1.9417509011,
				"y": -2.2397434732,
				"z": -1.623941393,
				"element": "C" 
			},
			{
				"x": -3.4750763709,
				"y": -2.2085771537,
				"z": -0.8148251418,
				"element": "Cl" 
			},
			{
				"x": -1.8906009848,
				"y": -2.7533642881,
				"z": -2.9338567593,
				"element": "C" 
			},
			{
				"x": -3.3228527985,
				"y": -3.3741479032,
				"z": -3.6809075059,
				"element": "Cl" 
			},
			{
				"x": -0.6781128966,
				"y": -2.7614388672,
				"z": -3.6422520655,
				"element": "C" 
			},
			{
				"x": -0.6349645598,
				"y": -3.4026891375,
				"z": -5.2503444572,
				"element": "Cl" 
			},
			{
				"x": 0.4921160632,
				"y": -2.244410817,
				"z": -3.0533519232,
				"element": "C" 
			},
			{
				"x": 1.9435839856,
				"y": -2.2465007673,
				"z": -4.0036174717,
				"element": "Cl" 
			},
			{
				"x": 0.4470569046,
				"y": -1.7177496542,
				"z": -1.7476721639,
				"element": "C" 
			},
			{
				"x": 1.6670492437,
				"y": -1.1330918307,
				"z": -1.0878840338,
				"element": "C" 
			},
			{
				"x": 2.8048695759,
				"y": -1.3519320619,
				"z": -1.4680959393,
				"element": "O" 
			},
			{
				"x": 1.0208201572,
				"y": 2.5624553025,
				"z": 3.3569965961,
				"element": "C" 
			},
			{
				"x": 1.2634125011,
				"y": 1.7122255627,
				"z": 5.1206851618,
				"element": "Br" 
			},
			{
				"x": -0.5416128102,
				"y": 3.7505008053,
				"z": 3.3116522989,
				"element": "Br" 
			},
			{
				"x": 3.1064112047,
				"y": 2.157777433,
				"z": 1.8324882772,
				"element": "H" 
			},
			{
				"x": 3.4357953745,
				"y": 0.5783737172,
				"z": -0.0579711675,
				"element": "H" 
			},
			{
				"x": 1.8657032541,
				"y": 3.2373871826,
				"z": 3.2786854847,
				"element": "H" 
			}
		],
		 "valence_orbital": [ 
			{
				"type": "occ",
				"energy": -0.29046,
				"method": "rhf"
			},
			{
				"type": "occ",
				"energy": -0.28735,
				"method": "rhf"
			},
			{
				"type": "occ",
				"energy": -0.28474,
				"method": "rhf"
			},
			{
				"type": "occ",
				"energy": -0.27875,
				"method": "rhf"
			},
			{
				"type": "occ",
				"energy": -0.27527,
				"method": "rhf"
			},
			{
				"type": "unocc",
				"energy": -0.13276,
				"method": "rhf"
			},
			{
				"type": "unocc",
				"energy": -0.1062,
				"method": "rhf"
			},
			{
				"type": "unocc",
				"energy": -0.08227,
				"method": "rhf"
			},
			{
				"type": "unocc",
				"energy": -0.07072,
				"method": "rhf"
			},
			{
				"type": "unocc",
				"energy": -0.05531,
				"method": "rhf"
			}
		],
		"cosmo_sigma_profile": { 
			"-0.025": 0.0,
			"-0.024": 0.0,
			"-0.023": 0.0,
			"-0.022": 0.0,
			"-0.021": 0.0,
			"-0.02": 0.0,
			"-0.019": 0.0,
			"-0.018": 0.0,
			"-0.017": 0.0,
			"-0.016": 0.0,
			"-0.015": 0.0,
			"-0.014": 0.06860929796,
			"-0.013": 1.68286058624,
			"-0.012": 2.33773776952,
			"-0.011": 2.90731988539,
			"-0.01": 3.54306220548,
			"-0.009": 5.04737911688,
			"-0.008": 6.36977075845,
			"-0.007": 7.14564230193,
			"-0.006": 8.83501624623,
			"-0.005": 17.1198153358,
			"-0.004": 37.0754452537,
			"-0.003": 29.5422184101,
			"-0.002": 25.7613898482,
			"-0.001": 26.9867569153,
			"0.0": 23.0970696726,
			"0.001": 26.6033811523,
			"0.002": 42.2681644825,
			"0.003": 40.5384420826,
			"0.004": 22.1516938708,
			"0.005": 10.9065389979,
			"0.006": 14.8013321914,
			"0.007": 13.6054721076,
			"0.008": 9.34899379941,
			"0.009": 6.46881301965,
			"0.01": 3.14500482249,
			"0.011": 0.0129250008657,
			"0.012": 0.0,
			"0.013": 0.0,
			"0.014": 0.0,
			"0.015": 0.0,
			"0.016": 0.0,
			"0.017": 0.0,
			"0.018": 0.0,
			"0.019": 0.0,
			"0.02": 0.0,
			"0.021": 0.0,
			"0.022": 0.0,
			"0.023": 0.0,
			"0.024": 0.0,
			"0.025": 0.0
		}
	}
}
