{
	 "smiles": "CC1=CC(CS(Cl)(=O)=O)=CC=C1", 
	 "Tm": 321.65, 
	 "num_atms": 21, 
	 "gaussian": { 
		 "optdone": 1, 
		 "sigma_profile": "yes", 
		 "theory": "DFT", 
		 "functional": "B3LYP", 
		 "basiset": "6-31G**", 
		 "properties": { 
			 "R2extent": 3839.5078, 
			 "electric_dipole_moment_norm": 5.06596668465, 
			 "electric_quadrupole_moment_norm": 16.5112268524, 
			 "total_energy": -1319.04951615, 
			 "HOMO_LUMO_gap": 0.17381, 
			 "cosmo_polarized_energy": -11.38, 
			 "cosmo_cavitation_energy": 28.2, 
			 "cosmo_dispersion_energy": -20.55, 
			 "cosmo_repulsion_energy": 1.61, 
			 "cosmo_total_nonelectrostatic_energy": 9.25, 
			 "SMD_solvation_energy": 3.39 
		},
		"coords": [
			{
				"x": -2.0978098517,
				"y": -1.7995953267,
				"z": 0.5479099057,
				"element": "C" 
			},
			{
				"x": -1.3985683835,
				"y": -0.5206291679,
				"z": 0.1518079781,
				"element": "C" 
			},
			{
				"x": -0.0024120786,
				"y": -0.4386420293,
				"z": 0.1369064348,
				"element": "C" 
			},
			{
				"x": 0.6558957543,
				"y": 0.7362859795,
				"z": -0.2497214547,
				"element": "C" 
			},
			{
				"x": 2.1509082108,
				"y": 0.7944719538,
				"z": -0.2371913676,
				"element": "C" 
			},
			{
				"x": 2.9569090596,
				"y": 0.6866939033,
				"z": -1.8951389748,
				"element": "S" 
			},
			{
				"x": 2.4249311642,
				"y": -1.2988292481,
				"z": -2.4796012941,
				"element": "Cl" 
			},
			{
				"x": 4.4018314083,
				"y": 0.6968678593,
				"z": -1.693825949,
				"element": "O" 
			},
			{
				"x": 2.310141451,
				"y": 1.5983258013,
				"z": -2.8309933519,
				"element": "O" 
			},
			{
				"x": -0.0963549797,
				"y": 1.8538507378,
				"z": -0.6342545463,
				"element": "C" 
			},
			{
				"x": -1.4877663612,
				"y": 1.7852405712,
				"z": -0.6236684463,
				"element": "C" 
			},
			{
				"x": -2.1312820899,
				"y": 0.6109723218,
				"z": -0.2321996196,
				"element": "C" 
			},
			{
				"x": -2.9919874827,
				"y": -1.597621687,
				"z": 1.1458592352,
				"element": "H" 
			},
			{
				"x": -2.4193710445,
				"y": -2.3619832955,
				"z": -0.3371057566,
				"element": "H" 
			},
			{
				"x": -1.4411189177,
				"y": -2.4524386012,
				"z": 1.1295921862,
				"element": "H" 
			},
			{
				"x": 0.5845441655,
				"y": -1.3044757609,
				"z": 0.4335077541,
				"element": "H" 
			},
			{
				"x": 2.5392106268,
				"y": 1.7560616677,
				"z": 0.1152909544,
				"element": "H" 
			},
			{
				"x": 2.6173613572,
				"y": -0.0069827492,
				"z": 0.3385408632,
				"element": "H" 
			},
			{
				"x": 0.4047576455,
				"y": 2.7651909198,
				"z": -0.9455234051,
				"element": "H" 
			},
			{
				"x": -2.0731234087,
				"y": 2.6513080597,
				"z": -0.9175706926,
				"element": "H" 
			},
			{
				"x": -3.217696245,
				"y": 0.5714280906,
				"z": -0.221820453,
				"element": "H" 
			}
		],
		 "valence_orbital": [ 
			{
				"type": "occ",
				"energy": -0.3331,
				"method": "rhf"
			},
			{
				"type": "occ",
				"energy": -0.32786,
				"method": "rhf"
			},
			{
				"type": "occ",
				"energy": -0.31162,
				"method": "rhf"
			},
			{
				"type": "occ",
				"energy": -0.2651,
				"method": "rhf"
			},
			{
				"type": "occ",
				"energy": -0.25677,
				"method": "rhf"
			},
			{
				"type": "unocc",
				"energy": -0.08296,
				"method": "rhf"
			},
			{
				"type": "unocc",
				"energy": -0.02898,
				"method": "rhf"
			},
			{
				"type": "unocc",
				"energy": -0.01638,
				"method": "rhf"
			},
			{
				"type": "unocc",
				"energy": 0.05176,
				"method": "rhf"
			},
			{
				"type": "unocc",
				"energy": 0.06768,
				"method": "rhf"
			}
		],
		"cosmo_sigma_profile": { 
			"-0.025": 0.0,
			"-0.024": 0.0,
			"-0.023": 0.0,
			"-0.022": 0.0,
			"-0.021": 0.0,
			"-0.02": 0.0,
			"-0.019": 0.0,
			"-0.018": 0.0,
			"-0.017": 0.0,
			"-0.016": 0.0,
			"-0.015": 0.0,
			"-0.014": 0.0,
			"-0.013": 0.0,
			"-0.012": 0.862822536336,
			"-0.011": 1.8712409226,
			"-0.01": 4.27409634057,
			"-0.009": 4.32707345655,
			"-0.008": 4.29949586434,
			"-0.007": 4.5398469409,
			"-0.006": 10.3412921601,
			"-0.005": 10.9881427949,
			"-0.004": 17.4755728106,
			"-0.003": 14.1344741668,
			"-0.002": 13.8443857333,
			"-0.001": 15.938997869,
			"0.0": 18.5032125722,
			"0.001": 12.713687136,
			"0.002": 15.0249313574,
			"0.003": 18.3361507775,
			"0.004": 22.884979876,
			"0.005": 9.18571847501,
			"0.006": 3.50133319322,
			"0.007": 4.42327435137,
			"0.008": 10.3218237159,
			"0.009": 8.39002434994,
			"0.01": 0.535446793391,
			"0.011": 0.0,
			"0.012": 0.0,
			"0.013": 0.0,
			"0.014": 0.0,
			"0.015": 0.0,
			"0.016": 0.0,
			"0.017": 0.0,
			"0.018": 0.0,
			"0.019": 0.0,
			"0.02": 0.0,
			"0.021": 0.0,
			"0.022": 0.0,
			"0.023": 0.0,
			"0.024": 0.0,
			"0.025": 0.0
		}
	}
}
