{
	 "smiles": "CC(N)C1=CC=C(C=C1)N1C=NC=N1", 
	 "Tm": 352.15, 
	 "num_atms": 26, 
	 "gaussian": { 
		 "optdone": 1, 
		 "sigma_profile": "yes", 
		 "theory": "DFT", 
		 "functional": "B3LYP", 
		 "basiset": "6-31G**", 
		 "properties": { 
			 "R2extent": 4395.1448, 
			 "electric_dipole_moment_norm": 4.38598485178, 
			 "electric_quadrupole_moment_norm": 10.3177647085, 
			 "total_energy": -607.287513495, 
			 "HOMO_LUMO_gap": 0.20097, 
			 "cosmo_polarized_energy": -12.88, 
			 "cosmo_cavitation_energy": 29.79, 
			 "cosmo_dispersion_energy": -21.62, 
			 "cosmo_repulsion_energy": 1.69, 
			 "cosmo_total_nonelectrostatic_energy": 9.85, 
			 "SMD_solvation_energy": 2.64 
		},
		"coords": [
			{
				"x": 1.5520742311,
				"y": -0.2218106882,
				"z": -2.7306332447,
				"element": "C" 
			},
			{
				"x": 0.3936579359,
				"y": 0.7870320476,
				"z": -2.6591345008,
				"element": "C" 
			},
			{
				"x": -0.6781732271,
				"y": 0.3320793488,
				"z": -3.5537699964,
				"element": "N" 
			},
			{
				"x": -0.1319013713,
				"y": 0.9154758082,
				"z": -1.2360633336,
				"element": "C" 
			},
			{
				"x": 0.3659265112,
				"y": 1.9067502654,
				"z": -0.3828346084,
				"element": "C" 
			},
			{
				"x": -0.0760096889,
				"y": 2.0171247447,
				"z": 0.9342454671,
				"element": "C" 
			},
			{
				"x": -1.0255331629,
				"y": 1.1125841257,
				"z": 1.4181654226,
				"element": "C" 
			},
			{
				"x": -1.5439929547,
				"y": 0.1213740498,
				"z": 0.579796145,
				"element": "C" 
			},
			{
				"x": -1.098981312,
				"y": 0.0324840735,
				"z": -0.7364478628,
				"element": "C" 
			},
			{
				"x": -1.4721566542,
				"y": 1.1971060527,
				"z": 2.7651165651,
				"element": "N" 
			},
			{
				"x": -0.8400309933,
				"y": 1.708856543,
				"z": 3.8552086265,
				"element": "C" 
			},
			{
				"x": -1.5902405019,
				"y": 1.5773590211,
				"z": 4.9333926733,
				"element": "N" 
			},
			{
				"x": -2.7013632841,
				"y": 0.9569090451,
				"z": 4.442978258,
				"element": "C" 
			},
			{
				"x": -2.6838296178,
				"y": 0.7007659978,
				"z": 3.1448519165,
				"element": "N" 
			},
			{
				"x": 1.9515847779,
				"y": -0.2807094232,
				"z": -3.7501268507,
				"element": "H" 
			},
			{
				"x": 1.2040857226,
				"y": -1.2170788675,
				"z": -2.4392805638,
				"element": "H" 
			},
			{
				"x": 2.367731007,
				"y": 0.073010046,
				"z": -2.0644453879,
				"element": "H" 
			},
			{
				"x": 0.7986816111,
				"y": 1.7747155339,
				"z": -2.9452797684,
				"element": "H" 
			},
			{
				"x": -1.4174545181,
				"y": 1.029558389,
				"z": -3.5983848447,
				"element": "H" 
			},
			{
				"x": -0.3159162948,
				"y": 0.2240173126,
				"z": -4.4978604492,
				"element": "H" 
			},
			{
				"x": 1.0987525754,
				"y": 2.6182144809,
				"z": -0.7557713302,
				"element": "H" 
			},
			{
				"x": 0.2944466051,
				"y": 2.8183573464,
				"z": 1.565234461,
				"element": "H" 
			},
			{
				"x": -2.2910337432,
				"y": -0.5599510857,
				"z": 0.9692001424,
				"element": "H" 
			},
			{
				"x": -1.5040540454,
				"y": -0.7254389666,
				"z": -1.398602959,
				"element": "H" 
			},
			{
				"x": 0.1514754809,
				"y": 2.135474942,
				"z": 3.8165487287,
				"element": "H" 
			},
			{
				"x": -3.5483450885,
				"y": 0.6877398568,
				"z": 5.0589972942,
				"element": "H" 
			}
		],
		 "valence_orbital": [ 
			{
				"type": "occ",
				"energy": -0.27563,
				"method": "rhf"
			},
			{
				"type": "occ",
				"energy": -0.27367,
				"method": "rhf"
			},
			{
				"type": "occ",
				"energy": -0.2605,
				"method": "rhf"
			},
			{
				"type": "occ",
				"energy": -0.24748,
				"method": "rhf"
			},
			{
				"type": "occ",
				"energy": -0.2315,
				"method": "rhf"
			},
			{
				"type": "unocc",
				"energy": -0.03053,
				"method": "rhf"
			},
			{
				"type": "unocc",
				"energy": -0.01271,
				"method": "rhf"
			},
			{
				"type": "unocc",
				"energy": 0.02987,
				"method": "rhf"
			},
			{
				"type": "unocc",
				"energy": 0.05434,
				"method": "rhf"
			},
			{
				"type": "unocc",
				"energy": 0.07472,
				"method": "rhf"
			}
		],
		"cosmo_sigma_profile": { 
			"-0.025": 0.0,
			"-0.024": 0.0,
			"-0.023": 0.0,
			"-0.022": 0.0,
			"-0.021": 0.0,
			"-0.02": 0.0,
			"-0.019": 0.0,
			"-0.018": 0.0,
			"-0.017": 0.0,
			"-0.016": 0.0,
			"-0.015": 0.0,
			"-0.014": 0.0,
			"-0.013": 0.0,
			"-0.012": 0.0,
			"-0.011": 0.794592692729,
			"-0.01": 3.96806133968,
			"-0.009": 5.63963075511,
			"-0.008": 7.68457487969,
			"-0.007": 5.95355156605,
			"-0.006": 10.4369974101,
			"-0.005": 11.6556147828,
			"-0.004": 14.2421800916,
			"-0.003": 17.311972068,
			"-0.002": 20.8863500903,
			"-0.001": 18.1445633491,
			"0.0": 18.6934006186,
			"0.001": 19.8122999713,
			"0.002": 14.9999552723,
			"0.003": 14.203272437,
			"0.004": 15.2635548364,
			"0.005": 6.78597791389,
			"0.006": 3.92628605987,
			"0.007": 3.71253787718,
			"0.008": 3.70207448146,
			"0.009": 3.2282643644,
			"0.01": 3.21123045126,
			"0.011": 2.69036158252,
			"0.012": 2.71377720775,
			"0.013": 1.44813664858,
			"0.014": 1.88413411054,
			"0.015": 2.25976476311,
			"0.016": 1.10704259433,
			"0.017": 0.237907817344,
			"0.018": 0.0,
			"0.019": 0.0,
			"0.02": 0.0,
			"0.021": 0.0,
			"0.022": 0.0,
			"0.023": 0.0,
			"0.024": 0.0,
			"0.025": 0.0
		}
	}
}
