{
	 "smiles": "NC(=S)C1=CC=NC=C1", 
	 "Tm": 474.15, 
	 "num_atms": 15, 
	 "gaussian": { 
		 "optdone": 1, 
		 "sigma_profile": "yes", 
		 "theory": "DFT", 
		 "functional": "B3LYP", 
		 "basiset": "6-31G**", 
		 "properties": { 
			 "R2extent": 1829.2794, 
			 "electric_dipole_moment_norm": 4.01410542712, 
			 "electric_quadrupole_moment_norm": 14.422940297, 
			 "total_energy": -739.943641461, 
			 "HOMO_LUMO_gap": 0.14275, 
			 "cosmo_polarized_energy": -16.11, 
			 "cosmo_cavitation_energy": 21.0, 
			 "cosmo_dispersion_energy": -16.12, 
			 "cosmo_repulsion_energy": 1.27, 
			 "cosmo_total_nonelectrostatic_energy": 6.16, 
			 "SMD_solvation_energy": 1.45 
		},
		"coords": [
			{
				"x": 2.3594348209,
				"y": -1.0001621558,
				"z": -0.3932144793,
				"element": "N" 
			},
			{
				"x": 1.717495103,
				"y": 0.1811047993,
				"z": -0.5316372492,
				"element": "C" 
			},
			{
				"x": 1.8635484624,
				"y": 1.1153422807,
				"z": -1.9018806097,
				"element": "S" 
			},
			{
				"x": 0.8467336054,
				"y": 0.558237898,
				"z": 0.6218522641,
				"element": "C" 
			},
			{
				"x": 0.1860747576,
				"y": -0.4100067797,
				"z": 1.3928763057,
				"element": "C" 
			},
			{
				"x": -0.6149741234,
				"y": 0.0050498174,
				"z": 2.457367745,
				"element": "C" 
			},
			{
				"x": -0.7867465013,
				"y": 1.2848983278,
				"z": 2.8050657828,
				"element": "N" 
			},
			{
				"x": -0.1549768112,
				"y": 2.2043618485,
				"z": 2.0613354518,
				"element": "C" 
			},
			{
				"x": 0.6548757079,
				"y": 1.9009829763,
				"z": 0.9692173055,
				"element": "C" 
			},
			{
				"x": 2.9780084404,
				"y": -1.2978133262,
				"z": -1.1337527117,
				"element": "H" 
			},
			{
				"x": 2.4141592741,
				"y": -1.4681700248,
				"z": 0.4995246988,
				"element": "H" 
			},
			{
				"x": 0.2531663945,
				"y": -1.4660438891,
				"z": 1.1499924622,
				"element": "H" 
			},
			{
				"x": -1.1464858646,
				"y": -0.7320550623,
				"z": 3.0567327372,
				"element": "H" 
			},
			{
				"x": -0.305409609,
				"y": 3.2416376826,
				"z": 2.3539678459,
				"element": "H" 
			},
			{
				"x": 1.1341963434,
				"y": 2.6825356074,
				"z": 0.3908524511,
				"element": "H" 
			}
		],
		 "valence_orbital": [ 
			{
				"type": "occ",
				"energy": -0.29857,
				"method": "rhf"
			},
			{
				"type": "occ",
				"energy": -0.27504,
				"method": "rhf"
			},
			{
				"type": "occ",
				"energy": -0.26584,
				"method": "rhf"
			},
			{
				"type": "occ",
				"energy": -0.24195,
				"method": "rhf"
			},
			{
				"type": "occ",
				"energy": -0.21883,
				"method": "rhf"
			},
			{
				"type": "unocc",
				"energy": -0.07608,
				"method": "rhf"
			},
			{
				"type": "unocc",
				"energy": -0.02434,
				"method": "rhf"
			},
			{
				"type": "unocc",
				"energy": 0.00253,
				"method": "rhf"
			},
			{
				"type": "unocc",
				"energy": 0.06381,
				"method": "rhf"
			},
			{
				"type": "unocc",
				"energy": 0.08293,
				"method": "rhf"
			}
		],
		"cosmo_sigma_profile": { 
			"-0.025": 0.0,
			"-0.024": 0.0,
			"-0.023": 0.0,
			"-0.022": 0.0,
			"-0.021": 0.0,
			"-0.02": 0.0,
			"-0.019": 0.0,
			"-0.018": 0.0,
			"-0.017": 0.0,
			"-0.016": 0.672750717756,
			"-0.015": 2.87304237408,
			"-0.014": 2.1533958774,
			"-0.013": 2.65478430268,
			"-0.012": 2.56028697802,
			"-0.011": 2.92483258179,
			"-0.01": 1.94675742107,
			"-0.009": 1.83976486311,
			"-0.008": 2.79129522796,
			"-0.007": 6.70034116541,
			"-0.006": 9.41787882314,
			"-0.005": 8.572577096,
			"-0.004": 7.1988627951,
			"-0.003": 7.18271342398,
			"-0.002": 7.49463496334,
			"-0.001": 9.36958194977,
			"0.0": 10.4392626171,
			"0.001": 16.2872277501,
			"0.002": 10.0255520671,
			"0.003": 6.85919331618,
			"0.004": 6.3402936656,
			"0.005": 5.67303186034,
			"0.006": 5.48638537509,
			"0.007": 7.60394565104,
			"0.008": 7.63270348653,
			"0.009": 5.85117412177,
			"0.01": 4.33140288014,
			"0.011": 3.58373444116,
			"0.012": 1.49865615081,
			"0.013": 0.715200002969,
			"0.014": 1.06092200883,
			"0.015": 0.734947397371,
			"0.016": 0.633146952529,
			"0.017": 0.0710734347235,
			"0.018": 0.0,
			"0.019": 0.0,
			"0.02": 0.0,
			"0.021": 0.0,
			"0.022": 0.0,
			"0.023": 0.0,
			"0.024": 0.0,
			"0.025": 0.0
		}
	}
}
