{
	 "smiles": "ClC1=C(C=C2OCCOC2=C1)S(Cl)(=O)=O", 
	 "Tm": 413.15, 
	 "num_atms": 21, 
	 "gaussian": { 
		 "optdone": 1, 
		 "sigma_profile": "yes", 
		 "theory": "DFT", 
		 "functional": "B3LYP", 
		 "basiset": "6-31G**", 
		 "properties": { 
			 "R2extent": 7354.829, 
			 "electric_dipole_moment_norm": 8.15148285467, 
			 "electric_quadrupole_moment_norm": 15.7756240342, 
			 "total_energy": -1927.83566793, 
			 "HOMO_LUMO_gap": 0.16107, 
			 "cosmo_polarized_energy": -12.64, 
			 "cosmo_cavitation_energy": 29.95, 
			 "cosmo_dispersion_energy": -23.16, 
			 "cosmo_repulsion_energy": 1.76, 
			 "cosmo_total_nonelectrostatic_energy": 8.55, 
			 "SMD_solvation_energy": 4.0 
		},
		"coords": [
			{
				"x": -3.3151607792,
				"y": -2.2625993381,
				"z": 2.4423820498,
				"element": "Cl" 
			},
			{
				"x": -2.2576001878,
				"y": -1.1906581692,
				"z": 1.5650639633,
				"element": "C" 
			},
			{
				"x": -2.4378152957,
				"y": 0.2032904627,
				"z": 1.5265228224,
				"element": "C" 
			},
			{
				"x": -1.5783037986,
				"y": 1.0069465016,
				"z": 0.7709830832,
				"element": "C" 
			},
			{
				"x": -0.5208180508,
				"y": 0.4392968181,
				"z": 0.0714003636,
				"element": "C" 
			},
			{
				"x": 0.2972755975,
				"y": 1.2565366237,
				"z": -0.6577594589,
				"element": "O" 
			},
			{
				"x": 1.0953295912,
				"y": 0.5604980449,
				"z": -1.6200407562,
				"element": "C" 
			},
			{
				"x": 1.7303741807,
				"y": -0.663055068,
				"z": -0.9825090688,
				"element": "C" 
			},
			{
				"x": 0.7143479017,
				"y": -1.5600151469,
				"z": -0.5116236753,
				"element": "O" 
			},
			{
				"x": -0.3176600877,
				"y": -0.9528781449,
				"z": 0.1341422253,
				"element": "C" 
			},
			{
				"x": -1.1928201573,
				"y": -1.7546347267,
				"z": 0.8687099519,
				"element": "C" 
			},
			{
				"x": -3.7221251987,
				"y": 1.07781318,
				"z": 2.418075619,
				"element": "S" 
			},
			{
				"x": -5.4657605343,
				"y": 0.51728062,
				"z": 1.3319704629,
				"element": "Cl" 
			},
			{
				"x": -3.8757538695,
				"y": 0.5458218813,
				"z": 3.7635576967,
				"element": "O" 
			},
			{
				"x": -3.5480886609,
				"y": 2.5056046188,
				"z": 2.1785935834,
				"element": "O" 
			},
			{
				"x": -1.7322508763,
				"y": 2.0781216014,
				"z": 0.7253925716,
				"element": "H" 
			},
			{
				"x": 0.4716032335,
				"y": 0.2630644753,
				"z": -2.4731635985,
				"element": "H" 
			},
			{
				"x": 1.8539119084,
				"y": 1.2682948988,
				"z": -1.960883419,
				"element": "H" 
			},
			{
				"x": 2.3702523681,
				"y": -0.3649668041,
				"z": -0.1426536289,
				"element": "H" 
			},
			{
				"x": 2.3245249773,
				"y": -1.2277966505,
				"z": -1.7040243624,
				"element": "H" 
			},
			{
				"x": -1.0238622617,
				"y": -2.8245656779,
				"z": 0.8954635751,
				"element": "H" 
			}
		],
		 "valence_orbital": [ 
			{
				"type": "occ",
				"energy": -0.32262,
				"method": "rhf"
			},
			{
				"type": "occ",
				"energy": -0.31809,
				"method": "rhf"
			},
			{
				"type": "occ",
				"energy": -0.30802,
				"method": "rhf"
			},
			{
				"type": "occ",
				"energy": -0.27196,
				"method": "rhf"
			},
			{
				"type": "occ",
				"energy": -0.24552,
				"method": "rhf"
			},
			{
				"type": "unocc",
				"energy": -0.08445,
				"method": "rhf"
			},
			{
				"type": "unocc",
				"energy": -0.04282,
				"method": "rhf"
			},
			{
				"type": "unocc",
				"energy": -0.03492,
				"method": "rhf"
			},
			{
				"type": "unocc",
				"energy": 0.01043,
				"method": "rhf"
			},
			{
				"type": "unocc",
				"energy": 0.05733,
				"method": "rhf"
			}
		],
		"cosmo_sigma_profile": { 
			"-0.025": 0.0,
			"-0.024": 0.0,
			"-0.023": 0.0,
			"-0.022": 0.0,
			"-0.021": 0.0,
			"-0.02": 0.0,
			"-0.019": 0.0,
			"-0.018": 0.0,
			"-0.017": 0.0,
			"-0.016": 0.0,
			"-0.015": 0.0,
			"-0.014": 0.0,
			"-0.013": 0.0,
			"-0.012": 0.0,
			"-0.011": 0.0,
			"-0.01": 0.0304798390283,
			"-0.009": 1.04689046058,
			"-0.008": 8.07837298334,
			"-0.007": 15.9201270538,
			"-0.006": 13.8980910358,
			"-0.005": 11.8883319338,
			"-0.004": 12.1702823545,
			"-0.003": 10.8405106798,
			"-0.002": 15.6420996478,
			"-0.001": 22.5422148037,
			"0.0": 24.0436512322,
			"0.001": 13.8529917934,
			"0.002": 16.9283253183,
			"0.003": 24.4850695109,
			"0.004": 13.2227159067,
			"0.005": 6.10971728192,
			"0.006": 6.60507094879,
			"0.007": 8.82613111999,
			"0.008": 13.5871439138,
			"0.009": 5.18443266094,
			"0.01": 0.0196722199987,
			"0.011": 0.0,
			"0.012": 0.0,
			"0.013": 0.0,
			"0.014": 0.0,
			"0.015": 0.0,
			"0.016": 0.0,
			"0.017": 0.0,
			"0.018": 0.0,
			"0.019": 0.0,
			"0.02": 0.0,
			"0.021": 0.0,
			"0.022": 0.0,
			"0.023": 0.0,
			"0.024": 0.0,
			"0.025": 0.0
		}
	}
}
