{
	 "smiles": "S=C=NC1=CC2=NSN=C2C=C1", 
	 "Tm": 369.65, 
	 "num_atms": 15, 
	 "gaussian": { 
		 "optdone": 1, 
		 "sigma_profile": "yes", 
		 "theory": "DFT", 
		 "functional": "B3LYP", 
		 "basiset": "6-31G**", 
		 "properties": { 
			 "R2extent": 4087.7986, 
			 "electric_dipole_moment_norm": 1.99184012913, 
			 "electric_quadrupole_moment_norm": 11.8662159984, 
			 "total_energy": -1229.14886236, 
			 "HOMO_LUMO_gap": 0.13562, 
			 "cosmo_polarized_energy": -7.14, 
			 "cosmo_cavitation_energy": 25.02, 
			 "cosmo_dispersion_energy": -19.68, 
			 "cosmo_repulsion_energy": 1.46, 
			 "cosmo_total_nonelectrostatic_energy": 6.81, 
			 "SMD_solvation_energy": 1.52 
		},
		"coords": [
			{
				"x": -4.2304397592,
				"y": -1.4180722407,
				"z": -4.0403759883,
				"element": "S" 
			},
			{
				"x": -3.0720902822,
				"y": -1.1374992917,
				"z": -2.9865697017,
				"element": "C" 
			},
			{
				"x": -2.2076279294,
				"y": -0.9284805644,
				"z": -2.1985451667,
				"element": "N" 
			},
			{
				"x": -1.210516379,
				"y": -0.6882759734,
				"z": -1.29120749,
				"element": "C" 
			},
			{
				"x": -0.4673739645,
				"y": 0.4728469485,
				"z": -1.3625136685,
				"element": "C" 
			},
			{
				"x": 0.5527731188,
				"y": 0.6648018811,
				"z": -0.3931283118,
				"element": "C" 
			},
			{
				"x": 1.3677634183,
				"y": 1.7254002291,
				"z": -0.3085180023,
				"element": "N" 
			},
			{
				"x": 2.3506872359,
				"y": 1.4457767508,
				"z": 0.9782535326,
				"element": "S" 
			},
			{
				"x": 1.7840732538,
				"y": -0.0165504847,
				"z": 1.4712812467,
				"element": "N" 
			},
			{
				"x": 0.7935823456,
				"y": -0.334568319,
				"z": 0.6310175515,
				"element": "C" 
			},
			{
				"x": 0.0021286293,
				"y": -1.520914706,
				"z": 0.6686859068,
				"element": "C" 
			},
			{
				"x": -0.9735043427,
				"y": -1.6847515457,
				"z": -0.2733981688,
				"element": "C" 
			},
			{
				"x": -0.6503117429,
				"y": 1.2163874298,
				"z": -2.1284585395,
				"element": "H" 
			},
			{
				"x": 0.1854983579,
				"y": -2.26510937,
				"z": 1.4354428024,
				"element": "H" 
			},
			{
				"x": -1.5976419595,
				"y": -2.5716907437,
				"z": -0.2807660024,
				"element": "H" 
			}
		],
		 "valence_orbital": [ 
			{
				"type": "occ",
				"energy": -0.31302,
				"method": "rhf"
			},
			{
				"type": "occ",
				"energy": -0.29761,
				"method": "rhf"
			},
			{
				"type": "occ",
				"energy": -0.26961,
				"method": "rhf"
			},
			{
				"type": "occ",
				"energy": -0.26229,
				"method": "rhf"
			},
			{
				"type": "occ",
				"energy": -0.23961,
				"method": "rhf"
			},
			{
				"type": "unocc",
				"energy": -0.10399,
				"method": "rhf"
			},
			{
				"type": "unocc",
				"energy": -0.04181,
				"method": "rhf"
			},
			{
				"type": "unocc",
				"energy": -0.00994,
				"method": "rhf"
			},
			{
				"type": "unocc",
				"energy": -0.00756,
				"method": "rhf"
			},
			{
				"type": "unocc",
				"energy": 0.00183,
				"method": "rhf"
			}
		],
		"cosmo_sigma_profile": { 
			"-0.025": 0.0,
			"-0.024": 0.0,
			"-0.023": 0.0,
			"-0.022": 0.0,
			"-0.021": 0.0,
			"-0.02": 0.0,
			"-0.019": 0.0,
			"-0.018": 0.0,
			"-0.017": 0.0,
			"-0.016": 0.0,
			"-0.015": 0.0,
			"-0.014": 0.0,
			"-0.013": 0.0,
			"-0.012": 0.0,
			"-0.011": 0.0,
			"-0.01": 0.0,
			"-0.009": 1.54965573092,
			"-0.008": 5.82443396472,
			"-0.007": 5.5224183577,
			"-0.006": 6.47027020718,
			"-0.005": 8.16925195359,
			"-0.004": 11.3183218698,
			"-0.003": 16.0581008753,
			"-0.002": 27.0787908657,
			"-0.001": 26.6360480905,
			"0.0": 21.7549777997,
			"0.001": 14.1238295026,
			"0.002": 11.4529641352,
			"0.003": 8.87377855977,
			"0.004": 9.17940214634,
			"0.005": 13.6476919783,
			"0.006": 9.2726624833,
			"0.007": 2.2810181223,
			"0.008": 1.99322131476,
			"0.009": 1.68502113544,
			"0.01": 2.42275584742,
			"0.011": 1.90352525577,
			"0.012": 1.79998369654,
			"0.013": 0.98063167829,
			"0.014": 0.0,
			"0.015": 0.0,
			"0.016": 0.0,
			"0.017": 0.0,
			"0.018": 0.0,
			"0.019": 0.0,
			"0.02": 0.0,
			"0.021": 0.0,
			"0.022": 0.0,
			"0.023": 0.0,
			"0.024": 0.0,
			"0.025": 0.0
		}
	}
}
