{
	 "smiles": "COC1=CC(NC(=O)C2=C(C=CC=C2)N(C)C(=O)CCC(O)=O)=CC=C1", 
	 "Tm": 399.15, 
	 "num_atms": 46, 
	 "gaussian": { 
		 "optdone": 1, 
		 "sigma_profile": "yes", 
		 "theory": "DFT", 
		 "functional": "B3LYP", 
		 "basiset": "6-31G**", 
		 "properties": { 
			 "R2extent": 11213.3651, 
			 "electric_dipole_moment_norm": 7.64083399964, 
			 "electric_quadrupole_moment_norm": 49.3514263652, 
			 "total_energy": -1221.7319425, 
			 "HOMO_LUMO_gap": 0.1737, 
			 "cosmo_polarized_energy": -24.54, 
			 "cosmo_cavitation_energy": 48.99, 
			 "cosmo_dispersion_energy": -33.02, 
			 "cosmo_repulsion_energy": 2.52, 
			 "cosmo_total_nonelectrostatic_energy": 18.5, 
			 "SMD_solvation_energy": 10.91 
		},
		"coords": [
			{
				"x": -4.6667402153,
				"y": 0.748281546,
				"z": -4.0163617377,
				"element": "C" 
			},
			{
				"x": -4.3450901323,
				"y": 0.7858763379,
				"z": -2.6344044859,
				"element": "O" 
			},
			{
				"x": -3.0550360344,
				"y": 0.5386740599,
				"z": -2.2653378006,
				"element": "C" 
			},
			{
				"x": -2.8071446694,
				"y": 0.584581083,
				"z": -0.8868188228,
				"element": "C" 
			},
			{
				"x": -1.5206150085,
				"y": 0.356296056,
				"z": -0.3979859609,
				"element": "C" 
			},
			{
				"x": -1.31365466,
				"y": 0.4679127973,
				"z": 1.0057365822,
				"element": "N" 
			},
			{
				"x": -0.4599949091,
				"y": -0.2098922849,
				"z": 1.8436696789,
				"element": "C" 
			},
			{
				"x": -0.190849124,
				"y": 0.251175428,
				"z": 2.9518742007,
				"element": "O" 
			},
			{
				"x": 0.0438085529,
				"y": -1.5602420116,
				"z": 1.4134825177,
				"element": "C" 
			},
			{
				"x": 1.3671702184,
				"y": -1.951421458,
				"z": 1.6888344015,
				"element": "C" 
			},
			{
				"x": 1.8003879854,
				"y": -3.2369705778,
				"z": 1.3643581034,
				"element": "C" 
			},
			{
				"x": 0.9206804474,
				"y": -4.1562974739,
				"z": 0.792552205,
				"element": "C" 
			},
			{
				"x": -0.3978940385,
				"y": -3.7839368343,
				"z": 0.5326482096,
				"element": "C" 
			},
			{
				"x": -0.826678041,
				"y": -2.4920576999,
				"z": 0.833251273,
				"element": "C" 
			},
			{
				"x": 2.2947735122,
				"y": -1.0601168247,
				"z": 2.3365758268,
				"element": "N" 
			},
			{
				"x": 2.4487559081,
				"y": -1.2273556792,
				"z": 3.7877685105,
				"element": "C" 
			},
			{
				"x": 2.7427245169,
				"y": 0.029181657,
				"z": 1.6554215389,
				"element": "C" 
			},
			{
				"x": 2.4694935286,
				"y": 0.188475864,
				"z": 0.453569772,
				"element": "O" 
			},
			{
				"x": 3.5821298203,
				"y": 1.0477715033,
				"z": 2.4185780781,
				"element": "C" 
			},
			{
				"x": 3.8953835803,
				"y": 2.325442071,
				"z": 1.617059705,
				"element": "C" 
			},
			{
				"x": 4.9832423087,
				"y": 2.1745158986,
				"z": 0.5478803006,
				"element": "C" 
			},
			{
				"x": 4.6860599599,
				"y": 1.3631063305,
				"z": -0.4791992236,
				"element": "O" 
			},
			{
				"x": 6.0444652642,
				"y": 2.7533533306,
				"z": 0.6156533042,
				"element": "O" 
			},
			{
				"x": -0.4629010308,
				"y": 0.0802233838,
				"z": -1.278141605,
				"element": "C" 
			},
			{
				"x": -0.7318340755,
				"y": 0.013954329,
				"z": -2.6416675979,
				"element": "C" 
			},
			{
				"x": -2.0135624166,
				"y": 0.241402977,
				"z": -3.1522763714,
				"element": "C" 
			},
			{
				"x": -4.103786461,
				"y": 1.500200803,
				"z": -4.5838738428,
				"element": "H" 
			},
			{
				"x": -4.4785606852,
				"y": -0.2425160826,
				"z": -4.449477507,
				"element": "H" 
			},
			{
				"x": -5.7324158298,
				"y": 0.9722382819,
				"z": -4.0833209046,
				"element": "H" 
			},
			{
				"x": -3.6325494841,
				"y": 0.7945404928,
				"z": -0.2140938188,
				"element": "H" 
			},
			{
				"x": -1.7147087382,
				"y": 1.2803607356,
				"z": 1.4597626481,
				"element": "H" 
			},
			{
				"x": 2.8332273177,
				"y": -3.5070117335,
				"z": 1.5620084851,
				"element": "H" 
			},
			{
				"x": 1.2674581335,
				"y": -5.1558596527,
				"z": 0.5486457325,
				"element": "H" 
			},
			{
				"x": -1.0914721038,
				"y": -4.4941654544,
				"z": 0.0932154558,
				"element": "H" 
			},
			{
				"x": -1.8509981436,
				"y": -2.2014178908,
				"z": 0.6263452242,
				"element": "H" 
			},
			{
				"x": 2.3662685006,
				"y": -2.2902038928,
				"z": 4.0208197745,
				"element": "H" 
			},
			{
				"x": 1.6588788922,
				"y": -0.6845147304,
				"z": 4.3159323235,
				"element": "H" 
			},
			{
				"x": 3.4314973244,
				"y": -0.8863451628,
				"z": 4.1149796494,
				"element": "H" 
			},
			{
				"x": 4.5107876704,
				"y": 0.5760864637,
				"z": 2.7644549209,
				"element": "H" 
			},
			{
				"x": 3.0284058413,
				"y": 1.3282660359,
				"z": 3.3217027525,
				"element": "H" 
			},
			{
				"x": 4.2491330211,
				"y": 3.0942404481,
				"z": 2.3056710953,
				"element": "H" 
			},
			{
				"x": 2.9741299082,
				"y": 2.6852931252,
				"z": 1.1454714128,
				"element": "H" 
			},
			{
				"x": 3.7962498131,
				"y": 0.9618676859,
				"z": -0.3286489803,
				"element": "H" 
			},
			{
				"x": 0.5432676124,
				"y": -0.0550091323,
				"z": -0.8982098184,
				"element": "H" 
			},
			{
				"x": 0.0797629038,
				"y": -0.1988492814,
				"z": -3.3313824868,
				"element": "H" 
			},
			{
				"x": -2.1828567408,
				"y": 0.195065133,
				"z": -4.2210227181,
				"element": "H" 
			}
		],
		 "valence_orbital": [ 
			{
				"type": "occ",
				"energy": -0.2615,
				"method": "rhf"
			},
			{
				"type": "occ",
				"energy": -0.25723,
				"method": "rhf"
			},
			{
				"type": "occ",
				"energy": -0.24125,
				"method": "rhf"
			},
			{
				"type": "occ",
				"energy": -0.23858,
				"method": "rhf"
			},
			{
				"type": "occ",
				"energy": -0.22281,
				"method": "rhf"
			},
			{
				"type": "unocc",
				"energy": -0.04911,
				"method": "rhf"
			},
			{
				"type": "unocc",
				"energy": -0.02619,
				"method": "rhf"
			},
			{
				"type": "unocc",
				"energy": -0.00847,
				"method": "rhf"
			},
			{
				"type": "unocc",
				"energy": 0.00137,
				"method": "rhf"
			},
			{
				"type": "unocc",
				"energy": 0.00313,
				"method": "rhf"
			}
		],
		"cosmo_sigma_profile": { 
			"-0.025": 0.0,
			"-0.024": 0.0,
			"-0.023": 0.0,
			"-0.022": 0.0,
			"-0.021": 0.0,
			"-0.02": 0.0,
			"-0.019": 0.0,
			"-0.018": 0.0,
			"-0.017": 0.0,
			"-0.016": 0.0,
			"-0.015": 0.164154038537,
			"-0.014": 0.940562382547,
			"-0.013": 1.20804794442,
			"-0.012": 0.793404293497,
			"-0.011": 0.277268362575,
			"-0.01": 1.44967831829,
			"-0.009": 1.22103917681,
			"-0.008": 4.41022128497,
			"-0.007": 12.0555366946,
			"-0.006": 29.7442409986,
			"-0.005": 38.2130533894,
			"-0.004": 37.0046433123,
			"-0.003": 33.9621599544,
			"-0.002": 26.1585982263,
			"-0.001": 20.5163329273,
			"0.0": 18.1074828295,
			"0.001": 18.6228268016,
			"0.002": 20.7646836529,
			"0.003": 26.1692128851,
			"0.004": 23.250064669,
			"0.005": 15.5092771705,
			"0.006": 9.21097147729,
			"0.007": 6.10586697309,
			"0.008": 5.75221793045,
			"0.009": 5.89214830446,
			"0.01": 6.61070034686,
			"0.011": 6.07810563459,
			"0.012": 9.4541300221,
			"0.013": 7.02780041549,
			"0.014": 2.48818364677,
			"0.015": 0.0425326998295,
			"0.016": 0.0,
			"0.017": 0.0,
			"0.018": 0.0,
			"0.019": 0.0,
			"0.02": 0.0,
			"0.021": 0.0,
			"0.022": 0.0,
			"0.023": 0.0,
			"0.024": 0.0,
			"0.025": 0.0
		}
	}
}
