{
	 "smiles": "CC(=O)C1=C(O)C(=CC(=C1O)C(C)(C)C)C(C)(C)C", 
	 "Tm": 453.15, 
	 "num_atms": 43, 
	 "gaussian": { 
		 "optdone": 1, 
		 "sigma_profile": "yes", 
		 "theory": "DFT", 
		 "functional": "B3LYP", 
		 "basiset": "6-31G**", 
		 "properties": { 
			 "R2extent": 5642.1064, 
			 "electric_dipole_moment_norm": 2.4912041486, 
			 "electric_quadrupole_moment_norm": 10.135466751, 
			 "total_energy": -849.866952087, 
			 "HOMO_LUMO_gap": 0.14584, 
			 "cosmo_polarized_energy": -9.15, 
			 "cosmo_cavitation_energy": 40.81, 
			 "cosmo_dispersion_energy": -28.54, 
			 "cosmo_repulsion_energy": 2.17, 
			 "cosmo_total_nonelectrostatic_energy": 14.44, 
			 "SMD_solvation_energy": 8.2 
		},
		"coords": [
			{
				"x": -2.763433039,
				"y": -1.6633795693,
				"z": 1.7326282498,
				"element": "C" 
			},
			{
				"x": -2.3168450115,
				"y": -0.2792563884,
				"z": 1.2794564683,
				"element": "C" 
			},
			{
				"x": -3.0655560804,
				"y": 0.6592860152,
				"z": 1.6176562447,
				"element": "O" 
			},
			{
				"x": -1.0656739348,
				"y": -0.029936994,
				"z": 0.5502742037,
				"element": "C" 
			},
			{
				"x": -0.6189226954,
				"y": 1.332959978,
				"z": 0.4489927211,
				"element": "C" 
			},
			{
				"x": -1.4016769282,
				"y": 2.3304480432,
				"z": 0.877704164,
				"element": "O" 
			},
			{
				"x": 0.6552528469,
				"y": 1.6442659236,
				"z": -0.0740942459,
				"element": "C" 
			},
			{
				"x": 1.4264415402,
				"y": 0.5678516011,
				"z": -0.5099625386,
				"element": "C" 
			},
			{
				"x": 1.0386428053,
				"y": -0.7840039739,
				"z": -0.5043704572,
				"element": "C" 
			},
			{
				"x": -0.2322459524,
				"y": -1.0573238095,
				"z": 0.0124088142,
				"element": "C" 
			},
			{
				"x": -0.6468619642,
				"y": -2.3647122519,
				"z": -0.0157941887,
				"element": "O" 
			},
			{
				"x": 1.9616891344,
				"y": -1.8907302526,
				"z": -1.0672333353,
				"element": "C" 
			},
			{
				"x": 2.2685874244,
				"y": -2.9448986324,
				"z": 0.0254694141,
				"element": "C" 
			},
			{
				"x": 1.3013445486,
				"y": -2.5729736447,
				"z": -2.2911153738,
				"element": "C" 
			},
			{
				"x": 3.316220997,
				"y": -1.3211480558,
				"z": -1.5390221677,
				"element": "C" 
			},
			{
				"x": 1.1606452266,
				"y": 3.1009170878,
				"z": -0.1607114445,
				"element": "C" 
			},
			{
				"x": 2.5772156903,
				"y": 3.1811194159,
				"z": -0.7655731312,
				"element": "C" 
			},
			{
				"x": 1.2255240034,
				"y": 3.7284986402,
				"z": 1.2539856091,
				"element": "C" 
			},
			{
				"x": 0.223026651,
				"y": 3.9379363062,
				"z": -1.0661775373,
				"element": "C" 
			},
			{
				"x": -3.3044649176,
				"y": -2.1858356276,
				"z": 0.9298722613,
				"element": "H" 
			},
			{
				"x": -3.4798957602,
				"y": -1.5182732338,
				"z": 2.542443953,
				"element": "H" 
			},
			{
				"x": -1.9385891989,
				"y": -2.2938364908,
				"z": 2.0707453818,
				"element": "H" 
			},
			{
				"x": -2.2439230784,
				"y": 1.9058003942,
				"z": 1.2167978216,
				"element": "H" 
			},
			{
				"x": 2.4025575146,
				"y": 0.7939370064,
				"z": -0.91115155,
				"element": "H" 
			},
			{
				"x": -1.6072102649,
				"y": -2.4136962077,
				"z": 0.0237321698,
				"element": "H" 
			},
			{
				"x": 2.7681610235,
				"y": -2.4786933677,
				"z": 0.8817576284,
				"element": "H" 
			},
			{
				"x": 2.9387534878,
				"y": -3.7143986502,
				"z": -0.3748685158,
				"element": "H" 
			},
			{
				"x": 1.363506139,
				"y": -3.4366629107,
				"z": 0.383524227,
				"element": "H" 
			},
			{
				"x": 0.3574063374,
				"y": -3.0508654362,
				"z": -2.0271843421,
				"element": "H" 
			},
			{
				"x": 1.9700243221,
				"y": -3.3400600083,
				"z": -2.6986222272,
				"element": "H" 
			},
			{
				"x": 1.1083250589,
				"y": -1.8415649822,
				"z": -3.0834569341,
				"element": "H" 
			},
			{
				"x": 3.2029397286,
				"y": -0.6024235801,
				"z": -2.3575085297,
				"element": "H" 
			},
			{
				"x": 3.8666051737,
				"y": -0.8352204826,
				"z": -0.7263370114,
				"element": "H" 
			},
			{
				"x": 3.9385008595,
				"y": -2.1415169603,
				"z": -1.9103296688,
				"element": "H" 
			},
			{
				"x": 2.891098192,
				"y": 4.2290326921,
				"z": -0.8043915579,
				"element": "H" 
			},
			{
				"x": 3.3162319013,
				"y": 2.6412287536,
				"z": -0.1635914384,
				"element": "H" 
			},
			{
				"x": 2.6139643809,
				"y": 2.7914123425,
				"z": -1.788701351,
				"element": "H" 
			},
			{
				"x": 1.9149285514,
				"y": 3.167092974,
				"z": 1.894329801,
				"element": "H" 
			},
			{
				"x": 1.5927750522,
				"y": 4.7592560979,
				"z": 1.1888044095,
				"element": "H" 
			},
			{
				"x": 0.2459578346,
				"y": 3.7436539735,
				"z": 1.7325777701,
				"element": "H" 
			},
			{
				"x": 0.1963139992,
				"y": 3.5254249425,
				"z": -2.08089236,
				"element": "H" 
			},
			{
				"x": 0.590829152,
				"y": 4.9684065277,
				"z": -1.1329452709,
				"element": "H" 
			},
			{
				"x": -0.7953707508,
				"y": 3.9624827948,
				"z": -0.6775261356,
				"element": "H" 
			}
		],
		 "valence_orbital": [ 
			{
				"type": "occ",
				"energy": -0.30851,
				"method": "rhf"
			},
			{
				"type": "occ",
				"energy": -0.302,
				"method": "rhf"
			},
			{
				"type": "occ",
				"energy": -0.26571,
				"method": "rhf"
			},
			{
				"type": "occ",
				"energy": -0.24737,
				"method": "rhf"
			},
			{
				"type": "occ",
				"energy": -0.20782,
				"method": "rhf"
			},
			{
				"type": "unocc",
				"energy": -0.06198,
				"method": "rhf"
			},
			{
				"type": "unocc",
				"energy": 0.01317,
				"method": "rhf"
			},
			{
				"type": "unocc",
				"energy": 0.02989,
				"method": "rhf"
			},
			{
				"type": "unocc",
				"energy": 0.05815,
				"method": "rhf"
			},
			{
				"type": "unocc",
				"energy": 0.08973,
				"method": "rhf"
			}
		],
		"cosmo_sigma_profile": { 
			"-0.025": 0.0,
			"-0.024": 0.0,
			"-0.023": 0.0,
			"-0.022": 0.0,
			"-0.021": 0.0,
			"-0.02": 0.0,
			"-0.019": 0.0,
			"-0.018": 0.0923006829568,
			"-0.017": 0.651521517092,
			"-0.016": 0.94659069538,
			"-0.015": 1.23742887345,
			"-0.014": 0.669201020276,
			"-0.013": 0.766264685854,
			"-0.012": 0.949270570799,
			"-0.011": 1.07220450884,
			"-0.01": 1.26073923658,
			"-0.009": 1.49993180014,
			"-0.008": 1.32335242229,
			"-0.007": 1.93977937639,
			"-0.006": 3.01458936957,
			"-0.005": 5.94904168577,
			"-0.004": 8.01208026279,
			"-0.003": 22.1685485302,
			"-0.002": 45.8106554653,
			"-0.001": 38.1010919248,
			"0.0": 36.4558512938,
			"0.001": 41.9378582822,
			"0.002": 44.5538205704,
			"0.003": 21.5045289936,
			"0.004": 13.7649532568,
			"0.005": 7.84287239105,
			"0.006": 5.92775316437,
			"0.007": 2.71476997014,
			"0.008": 1.49443312648,
			"0.009": 1.54691003267,
			"0.01": 1.64201264875,
			"0.011": 1.41249149991,
			"0.012": 1.26818198116,
			"0.013": 0.183640480237,
			"0.014": 0.0,
			"0.015": 0.0,
			"0.016": 0.0,
			"0.017": 0.0,
			"0.018": 0.0,
			"0.019": 0.0,
			"0.02": 0.0,
			"0.021": 0.0,
			"0.022": 0.0,
			"0.023": 0.0,
			"0.024": 0.0,
			"0.025": 0.0
		}
	}
}
