{
	 "smiles": "CC1=NN=NN1C1=CC=C(Br)C=C1", 
	 "Tm": 390.15, 
	 "num_atms": 20, 
	 "gaussian": { 
		 "optdone": 1, 
		 "sigma_profile": "yes", 
		 "theory": "DFT", 
		 "functional": "B3LYP", 
		 "basiset": "6-31G**", 
		 "properties": { 
			 "R2extent": 5904.3513, 
			 "electric_dipole_moment_norm": 4.49475400217, 
			 "electric_quadrupole_moment_norm": 20.9969514997, 
			 "total_energy": -3099.42703572, 
			 "HOMO_LUMO_gap": 0.19306, 
			 "cosmo_polarized_energy": -13.77, 
			 "cosmo_cavitation_energy": 26.9, 
			 "cosmo_dispersion_energy": -20.43, 
			 "cosmo_repulsion_energy": 1.58, 
			 "cosmo_total_nonelectrostatic_energy": 8.05, 
			 "SMD_solvation_energy": 1.76 
		},
		"coords": [
			{
				"x": -2.0183298808,
				"y": -0.9613193007,
				"z": 1.0371227966,
				"element": "C" 
			},
			{
				"x": -0.956988037,
				"y": -1.9930164118,
				"z": 0.8563268554,
				"element": "C" 
			},
			{
				"x": -0.9498842291,
				"y": -3.1369143925,
				"z": 1.5166183988,
				"element": "N" 
			},
			{
				"x": 0.1495724779,
				"y": -3.8181536759,
				"z": 1.1041099895,
				"element": "N" 
			},
			{
				"x": 0.8086933969,
				"y": -3.1481817771,
				"z": 0.2280400018,
				"element": "N" 
			},
			{
				"x": 0.1374080567,
				"y": -1.9707317594,
				"z": 0.0375049747,
				"element": "N" 
			},
			{
				"x": 0.6556947032,
				"y": -1.0230537045,
				"z": -0.8957904946,
				"element": "C" 
			},
			{
				"x": 0.0214408714,
				"y": 0.1997709954,
				"z": -1.1383614819,
				"element": "C" 
			},
			{
				"x": 0.5627382764,
				"y": 1.0969187347,
				"z": -2.0594399395,
				"element": "C" 
			},
			{
				"x": 1.7347115004,
				"y": 0.7715060082,
				"z": -2.7354098148,
				"element": "C" 
			},
			{
				"x": 2.471829781,
				"y": 1.9992987405,
				"z": -3.9937282824,
				"element": "Br" 
			},
			{
				"x": 2.3737953425,
				"y": -0.4456872344,
				"z": -2.4995321208,
				"element": "C" 
			},
			{
				"x": 1.8365010676,
				"y": -1.3420745015,
				"z": -1.5818918863,
				"element": "C" 
			},
			{
				"x": -1.6104833057,
				"y": -0.0139226555,
				"z": 1.4036356781,
				"element": "H" 
			},
			{
				"x": -2.5638268597,
				"y": -0.7677635373,
				"z": 0.1080342382,
				"element": "H" 
			},
			{
				"x": -2.721073218,
				"y": -1.3452053133,
				"z": 1.7775916036,
				"element": "H" 
			},
			{
				"x": -0.888765525,
				"y": 0.4746100536,
				"z": -0.6261253618,
				"element": "H" 
			},
			{
				"x": 0.0690038847,
				"y": 2.0435860438,
				"z": -2.2452730024,
				"element": "H" 
			},
			{
				"x": 3.2864169908,
				"y": -0.6945488555,
				"z": -3.0285403978,
				"element": "H" 
			},
			{
				"x": 2.3230447058,
				"y": -2.2894174569,
				"z": -1.3903917543,
				"element": "H" 
			}
		],
		 "valence_orbital": [ 
			{
				"type": "occ",
				"energy": -0.29904,
				"method": "rhf"
			},
			{
				"type": "occ",
				"energy": -0.29641,
				"method": "rhf"
			},
			{
				"type": "occ",
				"energy": -0.28668,
				"method": "rhf"
			},
			{
				"type": "occ",
				"energy": -0.28621,
				"method": "rhf"
			},
			{
				"type": "occ",
				"energy": -0.2513,
				"method": "rhf"
			},
			{
				"type": "unocc",
				"energy": -0.05824,
				"method": "rhf"
			},
			{
				"type": "unocc",
				"energy": -0.03731,
				"method": "rhf"
			},
			{
				"type": "unocc",
				"energy": -0.00671,
				"method": "rhf"
			},
			{
				"type": "unocc",
				"energy": 0.00519,
				"method": "rhf"
			},
			{
				"type": "unocc",
				"energy": 0.02368,
				"method": "rhf"
			}
		],
		"cosmo_sigma_profile": { 
			"-0.025": 0.0,
			"-0.024": 0.0,
			"-0.023": 0.0,
			"-0.022": 0.0,
			"-0.021": 0.0,
			"-0.02": 0.0,
			"-0.019": 0.0,
			"-0.018": 0.0,
			"-0.017": 0.0,
			"-0.016": 0.0,
			"-0.015": 0.0,
			"-0.014": 0.0,
			"-0.013": 0.0,
			"-0.012": 0.0,
			"-0.011": 0.0,
			"-0.01": 0.0,
			"-0.009": 1.63832696315,
			"-0.008": 11.5120319066,
			"-0.007": 11.5293573476,
			"-0.006": 12.1705188912,
			"-0.005": 12.6833264613,
			"-0.004": 14.8617299602,
			"-0.003": 15.0473449222,
			"-0.002": 12.7139637094,
			"-0.001": 12.8450771858,
			"0.0": 13.4029906959,
			"0.001": 22.7367639581,
			"0.002": 20.369731625,
			"0.003": 9.23258690644,
			"0.004": 14.7019167979,
			"0.005": 4.19869620518,
			"0.006": 2.97908086024,
			"0.007": 3.96216426265,
			"0.008": 5.35704551327,
			"0.009": 4.30179725365,
			"0.01": 4.26804892511,
			"0.011": 2.74506450682,
			"0.012": 2.50795853507,
			"0.013": 2.33790072869,
			"0.014": 1.41082196826,
			"0.015": 0.805708572254,
			"0.016": 0.0,
			"0.017": 0.0,
			"0.018": 0.0,
			"0.019": 0.0,
			"0.02": 0.0,
			"0.021": 0.0,
			"0.022": 0.0,
			"0.023": 0.0,
			"0.024": 0.0,
			"0.025": 0.0
		}
	}
}
