{
	 "smiles": "FC(Cl)=C(F)Cl", 
	 "Tm": 143.15, 
	 "num_atms": 6, 
	 "gaussian": { 
		 "optdone": 1, 
		 "sigma_profile": "yes", 
		 "theory": "DFT", 
		 "functional": "B3LYP", 
		 "basiset": "6-31G**", 
		 "properties": { 
			 "R2extent": 1953.808, 
			 "electric_dipole_moment_norm": 0.0, 
			 "electric_quadrupole_moment_norm": 1.88205406936, 
			 "total_energy": -1196.21418951, 
			 "HOMO_LUMO_gap": 0.24253, 
			 "cosmo_polarized_energy": -1.0, 
			 "cosmo_cavitation_energy": 15.39, 
			 "cosmo_dispersion_energy": -11.49, 
			 "cosmo_repulsion_energy": 0.98, 
			 "cosmo_total_nonelectrostatic_energy": 4.88, 
			 "SMD_solvation_energy": 3.77 
		},
		"coords": [
			{
				"x": 2.6897546727,
				"y": -1.1510511573,
				"z": -0.3157546797,
				"element": "F" 
			},
			{
				"x": 1.5426030542,
				"y": -1.1944648949,
				"z": -0.9873899799,
				"element": "C" 
			},
			{
				"x": 0.4852703682,
				"y": -2.472931305,
				"z": -0.5319689915,
				"element": "Cl" 
			},
			{
				"x": 1.255288089,
				"y": -0.3032724379,
				"z": -1.938404744,
				"element": "C" 
			},
			{
				"x": 0.1082018889,
				"y": -0.34678309,
				"z": -2.6101474951,
				"element": "F" 
			},
			{
				"x": 2.312681927,
				"y": 0.9751028851,
				"z": -2.3939341098,
				"element": "Cl" 
			}
		],
		 "valence_orbital": [ 
			{
				"type": "occ",
				"energy": -0.37943,
				"method": "rhf"
			},
			{
				"type": "occ",
				"energy": -0.3685,
				"method": "rhf"
			},
			{
				"type": "occ",
				"energy": -0.36191,
				"method": "rhf"
			},
			{
				"type": "occ",
				"energy": -0.34596,
				"method": "rhf"
			},
			{
				"type": "occ",
				"energy": -0.2578,
				"method": "rhf"
			},
			{
				"type": "unocc",
				"energy": -0.01527,
				"method": "rhf"
			},
			{
				"type": "unocc",
				"energy": -0.00695,
				"method": "rhf"
			},
			{
				"type": "unocc",
				"energy": 0.04256,
				"method": "rhf"
			},
			{
				"type": "unocc",
				"energy": 0.07598,
				"method": "rhf"
			},
			{
				"type": "unocc",
				"energy": 0.19825,
				"method": "rhf"
			}
		],
		"cosmo_sigma_profile": { 
			"-0.025": 0.0,
			"-0.024": 0.0,
			"-0.023": 0.0,
			"-0.022": 0.0,
			"-0.021": 0.0,
			"-0.02": 0.0,
			"-0.019": 0.0,
			"-0.018": 0.0,
			"-0.017": 0.0,
			"-0.016": 0.0,
			"-0.015": 0.0,
			"-0.014": 0.0,
			"-0.013": 0.0,
			"-0.012": 0.0,
			"-0.011": 0.0,
			"-0.01": 0.0,
			"-0.009": 0.0,
			"-0.008": 0.0,
			"-0.007": 0.0,
			"-0.006": 0.145716166844,
			"-0.005": 2.17317645844,
			"-0.004": 4.62828430586,
			"-0.003": 16.4006054566,
			"-0.002": 12.1047267219,
			"-0.001": 10.687943629,
			"0.0": 14.4935178331,
			"0.001": 26.3621718961,
			"0.002": 40.5480120889,
			"0.003": 1.76045222615,
			"0.004": 0.0,
			"0.005": 0.0,
			"0.006": 0.0,
			"0.007": 0.0,
			"0.008": 0.0,
			"0.009": 0.0,
			"0.01": 0.0,
			"0.011": 0.0,
			"0.012": 0.0,
			"0.013": 0.0,
			"0.014": 0.0,
			"0.015": 0.0,
			"0.016": 0.0,
			"0.017": 0.0,
			"0.018": 0.0,
			"0.019": 0.0,
			"0.02": 0.0,
			"0.021": 0.0,
			"0.022": 0.0,
			"0.023": 0.0,
			"0.024": 0.0,
			"0.025": 0.0
		}
	}
}
