{
	 "smiles": "OC(=O)C1=CC=CC=C1N=NC1=CC=C(O)C=C1", 
	 "Tm": 479.15, 
	 "num_atms": 28, 
	 "gaussian": { 
		 "optdone": 1, 
		 "sigma_profile": "yes", 
		 "theory": "DFT", 
		 "functional": "B3LYP", 
		 "basiset": "6-31G**", 
		 "properties": { 
			 "R2extent": 5761.7337, 
			 "electric_dipole_moment_norm": 2.02131438673, 
			 "electric_quadrupole_moment_norm": 26.7919723654, 
			 "total_energy": -836.547914386, 
			 "HOMO_LUMO_gap": 0.13877, 
			 "cosmo_polarized_energy": -17.92, 
			 "cosmo_cavitation_energy": 34.25, 
			 "cosmo_dispersion_energy": -24.26, 
			 "cosmo_repulsion_energy": 1.88, 
			 "cosmo_total_nonelectrostatic_energy": 11.87, 
			 "SMD_solvation_energy": 6.32 
		},
		"coords": [
			{
				"x": 0.005206726,
				"y": -2.4149309074,
				"z": -0.1357806136,
				"element": "O" 
			},
			{
				"x": 0.3246365912,
				"y": -1.9136061218,
				"z": -1.3524881052,
				"element": "C" 
			},
			{
				"x": -0.3240651849,
				"y": -2.1595412747,
				"z": -2.3483458674,
				"element": "O" 
			},
			{
				"x": 1.6204984558,
				"y": -1.166777484,
				"z": -1.3587373892,
				"element": "C" 
			},
			{
				"x": 2.5310054935,
				"y": -1.5209045695,
				"z": -2.3601426113,
				"element": "C" 
			},
			{
				"x": 3.8083812498,
				"y": -0.962781318,
				"z": -2.403678159,
				"element": "C" 
			},
			{
				"x": 4.1934662019,
				"y": -0.0351197021,
				"z": -1.4333565242,
				"element": "C" 
			},
			{
				"x": 3.2924651312,
				"y": 0.3432479222,
				"z": -0.4421768571,
				"element": "C" 
			},
			{
				"x": 1.994973194,
				"y": -0.1863211578,
				"z": -0.4109220568,
				"element": "C" 
			},
			{
				"x": 1.1474781006,
				"y": 0.3490610893,
				"z": 0.585479696,
				"element": "N" 
			},
			{
				"x": -0.0709174007,
				"y": 0.3730274453,
				"z": 0.2605048596,
				"element": "N" 
			},
			{
				"x": -0.9516926829,
				"y": 0.8638836174,
				"z": 1.2451163375,
				"element": "C" 
			},
			{
				"x": -0.5779506793,
				"y": 1.226412452,
				"z": 2.554470246,
				"element": "C" 
			},
			{
				"x": -1.5266905512,
				"y": 1.6978275991,
				"z": 3.4448347484,
				"element": "C" 
			},
			{
				"x": -2.8693529442,
				"y": 1.8161712598,
				"z": 3.0432117501,
				"element": "C" 
			},
			{
				"x": -3.751932693,
				"y": 2.2849191257,
				"z": 3.9660440634,
				"element": "O" 
			},
			{
				"x": -3.2507729424,
				"y": 1.4563902358,
				"z": 1.7446737105,
				"element": "C" 
			},
			{
				"x": -2.2925886648,
				"y": 0.9818179496,
				"z": 0.8552693441,
				"element": "C" 
			},
			{
				"x": -0.8344173483,
				"y": -2.8878851308,
				"z": -0.260283423,
				"element": "H" 
			},
			{
				"x": 2.2253978701,
				"y": -2.2572592029,
				"z": -3.0964215001,
				"element": "H" 
			},
			{
				"x": 4.5024324655,
				"y": -1.2617214392,
				"z": -3.1831958801,
				"element": "H" 
			},
			{
				"x": 5.1898175878,
				"y": 0.3963191633,
				"z": -1.4523629468,
				"element": "H" 
			},
			{
				"x": 3.5557691262,
				"y": 1.0793614309,
				"z": 0.3103688227,
				"element": "H" 
			},
			{
				"x": 0.4614741975,
				"y": 1.1269514093,
				"z": 2.8457983837,
				"element": "H" 
			},
			{
				"x": -1.2616298619,
				"y": 1.9802112482,
				"z": 4.4584058348,
				"element": "H" 
			},
			{
				"x": -4.635600323,
				"y": 2.3218635895,
				"z": 3.5764975756,
				"element": "H" 
			},
			{
				"x": -4.2897326234,
				"y": 1.5479756478,
				"z": 1.4360005643,
				"element": "H" 
			},
			{
				"x": -2.5608584907,
				"y": 0.6966071228,
				"z": -0.1569840029,
				"element": "H" 
			}
		],
		 "valence_orbital": [ 
			{
				"type": "occ",
				"energy": -0.26572,
				"method": "rhf"
			},
			{
				"type": "occ",
				"energy": -0.26533,
				"method": "rhf"
			},
			{
				"type": "occ",
				"energy": -0.25388,
				"method": "rhf"
			},
			{
				"type": "occ",
				"energy": -0.23038,
				"method": "rhf"
			},
			{
				"type": "occ",
				"energy": -0.2182,
				"method": "rhf"
			},
			{
				"type": "unocc",
				"energy": -0.07943,
				"method": "rhf"
			},
			{
				"type": "unocc",
				"energy": -0.02521,
				"method": "rhf"
			},
			{
				"type": "unocc",
				"energy": -0.01274,
				"method": "rhf"
			},
			{
				"type": "unocc",
				"energy": 0.00383,
				"method": "rhf"
			},
			{
				"type": "unocc",
				"energy": 0.03319,
				"method": "rhf"
			}
		],
		"cosmo_sigma_profile": { 
			"-0.025": 0.0,
			"-0.024": 0.0,
			"-0.023": 0.0,
			"-0.022": 0.0,
			"-0.021": 0.0,
			"-0.02": 0.0,
			"-0.019": 0.29326254635,
			"-0.018": 1.51193095661,
			"-0.017": 2.32682956098,
			"-0.016": 2.22829399517,
			"-0.015": 1.16439427827,
			"-0.014": 1.76558075388,
			"-0.013": 1.50402786891,
			"-0.012": 1.51932500853,
			"-0.011": 2.42795524704,
			"-0.01": 1.82609703486,
			"-0.009": 1.47665292779,
			"-0.008": 1.7960437462,
			"-0.007": 8.63065458841,
			"-0.006": 15.5746049699,
			"-0.005": 16.4311310534,
			"-0.004": 15.9188314733,
			"-0.003": 11.2939128246,
			"-0.002": 12.3330546616,
			"-0.001": 10.4444309891,
			"0.0": 13.7542309124,
			"0.001": 20.3758974309,
			"0.002": 33.1562862462,
			"0.003": 34.8136071737,
			"0.004": 15.6517366018,
			"0.005": 7.62903303963,
			"0.006": 6.9620133146,
			"0.007": 6.72529257178,
			"0.008": 6.45511007957,
			"0.009": 5.15739718751,
			"0.01": 4.09492911135,
			"0.011": 4.6617758293,
			"0.012": 4.33247052584,
			"0.013": 0.487840667472,
			"0.014": 0.0,
			"0.015": 0.0,
			"0.016": 0.0,
			"0.017": 0.0,
			"0.018": 0.0,
			"0.019": 0.0,
			"0.02": 0.0,
			"0.021": 0.0,
			"0.022": 0.0,
			"0.023": 0.0,
			"0.024": 0.0,
			"0.025": 0.0
		}
	}
}
