{
	 "smiles": "NC1=C2CC(O)CC2=CC=C1", 
	 "Tm": 399.15, 
	 "num_atms": 22, 
	 "gaussian": { 
		 "optdone": 1, 
		 "sigma_profile": "yes", 
		 "theory": "DFT", 
		 "functional": "B3LYP", 
		 "basiset": "6-31G**", 
		 "properties": { 
			 "R2extent": 3152.3553, 
			 "electric_dipole_moment_norm": 2.97534270127, 
			 "electric_quadrupole_moment_norm": 14.6243473167, 
			 "total_energy": -479.563835114, 
			 "HOMO_LUMO_gap": 0.20897, 
			 "cosmo_polarized_energy": -12.37, 
			 "cosmo_cavitation_energy": 24.36, 
			 "cosmo_dispersion_energy": -18.36, 
			 "cosmo_repulsion_energy": 1.49, 
			 "cosmo_total_nonelectrostatic_energy": 7.48, 
			 "SMD_solvation_energy": 3.43 
		},
		"coords": [
			{
				"x": -4.5753069343,
				"y": 0.484513399,
				"z": 1.8388393545,
				"element": "N" 
			},
			{
				"x": -3.3045449552,
				"y": 1.0600019187,
				"z": 1.7432153811,
				"element": "C" 
			},
			{
				"x": -2.2155800281,
				"y": 0.336418135,
				"z": 1.2342008282,
				"element": "C" 
			},
			{
				"x": -2.192311395,
				"y": -1.0717720549,
				"z": 0.6835941939,
				"element": "C" 
			},
			{
				"x": -0.8461789445,
				"y": -1.1128487573,
				"z": -0.0893873134,
				"element": "C" 
			},
			{
				"x": -0.2158249617,
				"y": -2.3835641991,
				"z": -0.1215929307,
				"element": "O" 
			},
			{
				"x": 0.0549199109,
				"y": -0.1016447823,
				"z": 0.6447831334,
				"element": "C" 
			},
			{
				"x": -0.9318867209,
				"y": 0.8968157119,
				"z": 1.2077096263,
				"element": "C" 
			},
			{
				"x": -0.6982755526,
				"y": 2.1888649382,
				"z": 1.6737169304,
				"element": "C" 
			},
			{
				"x": -1.7841793133,
				"y": 2.9158321581,
				"z": 2.1722385724,
				"element": "C" 
			},
			{
				"x": -3.065182723,
				"y": 2.3667786413,
				"z": 2.2080800097,
				"element": "C" 
			},
			{
				"x": -4.7561964977,
				"y": -0.2656072275,
				"z": 1.18582092,
				"element": "H" 
			},
			{
				"x": -5.3393360475,
				"y": 1.1459913231,
				"z": 1.8702224268,
				"element": "H" 
			},
			{
				"x": -2.166293561,
				"y": -1.8213947961,
				"z": 1.4876580313,
				"element": "H" 
			},
			{
				"x": -3.0477032944,
				"y": -1.3175904773,
				"z": 0.0385763606,
				"element": "H" 
			},
			{
				"x": -1.0241554939,
				"y": -0.7446491092,
				"z": -1.112761114,
				"element": "H" 
			},
			{
				"x": -0.7613351983,
				"y": -2.9755252193,
				"z": -0.6547726246,
				"element": "H" 
			},
			{
				"x": 0.5841041823,
				"y": -0.6303410839,
				"z": 1.4499857621,
				"element": "H" 
			},
			{
				"x": 0.8141797936,
				"y": 0.3406997459,
				"z": -0.007643506,
				"element": "H" 
			},
			{
				"x": 0.2964473282,
				"y": 2.6240119898,
				"z": 1.6481326847,
				"element": "H" 
			},
			{
				"x": -1.6348113649,
				"y": 3.929009608,
				"z": 2.5358344181,
				"element": "H" 
			},
			{
				"x": -3.8942482286,
				"y": 2.9497001379,
				"z": 2.6028488552,
				"element": "H" 
			}
		],
		 "valence_orbital": [ 
			{
				"type": "occ",
				"energy": -0.31143,
				"method": "rhf"
			},
			{
				"type": "occ",
				"energy": -0.29603,
				"method": "rhf"
			},
			{
				"type": "occ",
				"energy": -0.26336,
				"method": "rhf"
			},
			{
				"type": "occ",
				"energy": -0.22556,
				"method": "rhf"
			},
			{
				"type": "occ",
				"energy": -0.19632,
				"method": "rhf"
			},
			{
				"type": "unocc",
				"energy": 0.01265,
				"method": "rhf"
			},
			{
				"type": "unocc",
				"energy": 0.02118,
				"method": "rhf"
			},
			{
				"type": "unocc",
				"energy": 0.07125,
				"method": "rhf"
			},
			{
				"type": "unocc",
				"energy": 0.08068,
				"method": "rhf"
			},
			{
				"type": "unocc",
				"energy": 0.11127,
				"method": "rhf"
			}
		],
		"cosmo_sigma_profile": { 
			"-0.025": 0.0,
			"-0.024": 0.0,
			"-0.023": 0.0,
			"-0.022": 0.0,
			"-0.021": 0.0,
			"-0.02": 0.0,
			"-0.019": 0.0,
			"-0.018": 0.0,
			"-0.017": 0.0,
			"-0.016": 0.159599047974,
			"-0.015": 1.16836503995,
			"-0.014": 0.772459790974,
			"-0.013": 1.04752467023,
			"-0.012": 2.36422923577,
			"-0.011": 3.13307444448,
			"-0.01": 3.07321407441,
			"-0.009": 3.47303459043,
			"-0.008": 4.99082577472,
			"-0.007": 3.28157498337,
			"-0.006": 4.86957753146,
			"-0.005": 6.32184498128,
			"-0.004": 13.5109148174,
			"-0.003": 18.7286356963,
			"-0.002": 17.0526994825,
			"-0.001": 15.5026576182,
			"0.0": 12.5494271119,
			"0.001": 9.04001268365,
			"0.002": 8.92151437771,
			"0.003": 7.23411001332,
			"0.004": 8.00008180785,
			"0.005": 7.042951457,
			"0.006": 9.51566357908,
			"0.007": 9.43759980036,
			"0.008": 5.79963345738,
			"0.009": 1.97523751951,
			"0.01": 2.50214842026,
			"0.011": 1.99920678423,
			"0.012": 1.37496452435,
			"0.013": 2.60287270044,
			"0.014": 2.88205446284,
			"0.015": 0.5903541846,
			"0.016": 0.00231075813051,
			"0.017": 0.0,
			"0.018": 0.0,
			"0.019": 0.0,
			"0.02": 0.0,
			"0.021": 0.0,
			"0.022": 0.0,
			"0.023": 0.0,
			"0.024": 0.0,
			"0.025": 0.0
		}
	}
}
