{
	 "smiles": "FC1=CC2=C(C=C1)N=C(Cl)S2", 
	 "Tm": 364.15, 
	 "num_atms": 14, 
	 "gaussian": { 
		 "optdone": 1, 
		 "sigma_profile": "yes", 
		 "theory": "DFT", 
		 "functional": "B3LYP", 
		 "basiset": "6-31G**", 
		 "properties": { 
			 "R2extent": 3127.4112, 
			 "electric_dipole_moment_norm": 1.07405471928, 
			 "electric_quadrupole_moment_norm": 6.13714407115, 
			 "total_energy": -1281.51459521, 
			 "HOMO_LUMO_gap": 0.19609, 
			 "cosmo_polarized_energy": -4.81, 
			 "cosmo_cavitation_energy": 22.74, 
			 "cosmo_dispersion_energy": -17.7, 
			 "cosmo_repulsion_energy": 1.34, 
			 "cosmo_total_nonelectrostatic_energy": 6.38, 
			 "SMD_solvation_energy": 1.93 
		},
		"coords": [
			{
				"x": 2.6270916316,
				"y": -2.4075988594,
				"z": 1.7096687204,
				"element": "F" 
			},
			{
				"x": 2.0914393849,
				"y": -1.4253317561,
				"z": 0.9580186987,
				"element": "C" 
			},
			{
				"x": 1.6924432215,
				"y": -0.2544652949,
				"z": 1.5876533745,
				"element": "C" 
			},
			{
				"x": 1.1428978724,
				"y": 0.7373178718,
				"z": 0.7735712354,
				"element": "C" 
			},
			{
				"x": 0.9988722304,
				"y": 0.5595372988,
				"z": -0.6250523803,
				"element": "C" 
			},
			{
				"x": 1.4162393077,
				"y": -0.6407199069,
				"z": -1.2174357115,
				"element": "C" 
			},
			{
				"x": 1.9648768897,
				"y": -1.6365075692,
				"z": -0.4200114499,
				"element": "C" 
			},
			{
				"x": 0.4362039258,
				"y": 1.6299153605,
				"z": -1.3096572805,
				"element": "N" 
			},
			{
				"x": 0.1603943788,
				"y": 2.5796889382,
				"z": -0.494601448,
				"element": "C" 
			},
			{
				"x": -0.553546142,
				"y": 4.0811023784,
				"z": -0.9740814401,
				"element": "Cl" 
			},
			{
				"x": 0.5383273665,
				"y": 2.3237800174,
				"z": 1.2200666673,
				"element": "S" 
			},
			{
				"x": 1.8132103089,
				"y": -0.1429666312,
				"z": 2.6587812496,
				"element": "H" 
			},
			{
				"x": 1.3041454889,
				"y": -0.772368947,
				"z": -2.2880175611,
				"element": "H" 
			},
			{
				"x": 2.3000041346,
				"y": -2.5789829004,
				"z": -0.8381026745,
				"element": "H" 
			}
		],
		 "valence_orbital": [ 
			{
				"type": "occ",
				"energy": -0.32741,
				"method": "rhf"
			},
			{
				"type": "occ",
				"energy": -0.32274,
				"method": "rhf"
			},
			{
				"type": "occ",
				"energy": -0.30242,
				"method": "rhf"
			},
			{
				"type": "occ",
				"energy": -0.25668,
				"method": "rhf"
			},
			{
				"type": "occ",
				"energy": -0.24417,
				"method": "rhf"
			},
			{
				"type": "unocc",
				"energy": -0.04808,
				"method": "rhf"
			},
			{
				"type": "unocc",
				"energy": -0.02712,
				"method": "rhf"
			},
			{
				"type": "unocc",
				"energy": -0.01802,
				"method": "rhf"
			},
			{
				"type": "unocc",
				"energy": 0.01697,
				"method": "rhf"
			},
			{
				"type": "unocc",
				"energy": 0.02064,
				"method": "rhf"
			}
		],
		"cosmo_sigma_profile": { 
			"-0.025": 0.0,
			"-0.024": 0.0,
			"-0.023": 0.0,
			"-0.022": 0.0,
			"-0.021": 0.0,
			"-0.02": 0.0,
			"-0.019": 0.0,
			"-0.018": 0.0,
			"-0.017": 0.0,
			"-0.016": 0.0,
			"-0.015": 0.0,
			"-0.014": 0.0,
			"-0.013": 0.0,
			"-0.012": 0.0,
			"-0.011": 0.0,
			"-0.01": 0.0085435354211,
			"-0.009": 2.11337168147,
			"-0.008": 4.63062448274,
			"-0.007": 4.83408299051,
			"-0.006": 6.1443625603,
			"-0.005": 5.88764335308,
			"-0.004": 6.61046809675,
			"-0.003": 12.1788842933,
			"-0.002": 14.5044270001,
			"-0.001": 16.52737285,
			"0.0": 24.0199827072,
			"0.001": 27.0904203348,
			"0.002": 26.1777230729,
			"0.003": 15.6967400269,
			"0.004": 12.0165463001,
			"0.005": 2.2923823266,
			"0.006": 2.02155012651,
			"0.007": 1.08406455161,
			"0.008": 0.976735391412,
			"0.009": 1.28340149873,
			"0.01": 0.810905571927,
			"0.011": 0.712954133824,
			"0.012": 1.10663036648,
			"0.013": 0.512459060386,
			"0.014": 0.00221668798989,
			"0.015": 0.0,
			"0.016": 0.0,
			"0.017": 0.0,
			"0.018": 0.0,
			"0.019": 0.0,
			"0.02": 0.0,
			"0.021": 0.0,
			"0.022": 0.0,
			"0.023": 0.0,
			"0.024": 0.0,
			"0.025": 0.0
		}
	}
}
