{
	 "smiles": "CN(C)C1=CC(=C(N)C=C1)[N+]([O-])=O", 
	 "Tm": 395.15, 
	 "num_atms": 24, 
	 "gaussian": { 
		 "optdone": 1, 
		 "sigma_profile": "yes", 
		 "theory": "DFT", 
		 "functional": "B3LYP", 
		 "basiset": "6-31G**", 
		 "properties": { 
			 "R2extent": 2964.8434, 
			 "electric_dipole_moment_norm": 5.39627836754, 
			 "electric_quadrupole_moment_norm": 13.1524356402, 
			 "total_energy": -626.081298199, 
			 "HOMO_LUMO_gap": 0.11057, 
			 "cosmo_polarized_energy": -12.88, 
			 "cosmo_cavitation_energy": 27.09, 
			 "cosmo_dispersion_energy": -20.29, 
			 "cosmo_repulsion_energy": 1.59, 
			 "cosmo_total_nonelectrostatic_energy": 8.39, 
			 "SMD_solvation_energy": 5.96 
		},
		"coords": [
			{
				"x": 4.1095807184,
				"y": 0.7820681931,
				"z": -0.559728924,
				"element": "C" 
			},
			{
				"x": 2.9235444194,
				"y": 0.8725832328,
				"z": 0.2769967197,
				"element": "N" 
			},
			{
				"x": 3.1319507459,
				"y": 1.19405468,
				"z": 1.679083078,
				"element": "C" 
			},
			{
				"x": 1.8073125613,
				"y": 0.0988747517,
				"z": -0.0577657044,
				"element": "C" 
			},
			{
				"x": 0.7906966338,
				"y": -0.1713454871,
				"z": 0.8580761965,
				"element": "C" 
			},
			{
				"x": -0.3524095502,
				"y": -0.9064933422,
				"z": 0.4977377745,
				"element": "C" 
			},
			{
				"x": -0.5352333946,
				"y": -1.4249326293,
				"z": -0.8087742625,
				"element": "C" 
			},
			{
				"x": -1.6426547003,
				"y": -2.1058512705,
				"z": -1.2323849801,
				"element": "N" 
			},
			{
				"x": 0.5207707816,
				"y": -1.1622921578,
				"z": -1.7135540813,
				"element": "C" 
			},
			{
				"x": 1.6426746796,
				"y": -0.440421289,
				"z": -1.3616616063,
				"element": "C" 
			},
			{
				"x": -1.3259919111,
				"y": -1.1356236717,
				"z": 1.546569749,
				"element": "N" 
			},
			{
				"x": -1.114197271,
				"y": -0.6625718355,
				"z": 2.6658516429,
				"element": "O" 
			},
			{
				"x": -2.3445061829,
				"y": -1.8067350641,
				"z": 1.2874178007,
				"element": "O" 
			},
			{
				"x": 3.8996088885,
				"y": 1.1213734491,
				"z": -1.5796256269,
				"element": "H" 
			},
			{
				"x": 4.8783032394,
				"y": 1.4431627908,
				"z": -0.1555333723,
				"element": "H" 
			},
			{
				"x": 4.5283192931,
				"y": -0.2363383415,
				"z": -0.6176320949,
				"element": "H" 
			},
			{
				"x": 4.0122048839,
				"y": 1.8329386632,
				"z": 1.7713346509,
				"element": "H" 
			},
			{
				"x": 3.2801971038,
				"y": 0.3042107023,
				"z": 2.3133054928,
				"element": "H" 
			},
			{
				"x": 2.2782262982,
				"y": 1.7524009106,
				"z": 2.0767809541,
				"element": "H" 
			},
			{
				"x": 0.8356741173,
				"y": 0.1668374491,
				"z": 1.881958915,
				"element": "H" 
			},
			{
				"x": -2.2913481046,
				"y": -2.4098785353,
				"z": -0.5207189795,
				"element": "H" 
			},
			{
				"x": -1.5795492696,
				"y": -2.6175553722,
				"z": -2.0975030872,
				"element": "H" 
			},
			{
				"x": 0.4346388081,
				"y": -1.5470750486,
				"z": -2.7264011036,
				"element": "H" 
			},
			{
				"x": 2.406187212,
				"y": -0.2897907781,
				"z": -2.1152291508,
				"element": "H" 
			}
		],
		 "valence_orbital": [ 
			{
				"type": "occ",
				"energy": -0.29352,
				"method": "rhf"
			},
			{
				"type": "occ",
				"energy": -0.27428,
				"method": "rhf"
			},
			{
				"type": "occ",
				"energy": -0.26655,
				"method": "rhf"
			},
			{
				"type": "occ",
				"energy": -0.25719,
				"method": "rhf"
			},
			{
				"type": "occ",
				"energy": -0.18349,
				"method": "rhf"
			},
			{
				"type": "unocc",
				"energy": -0.07292,
				"method": "rhf"
			},
			{
				"type": "unocc",
				"energy": 0.00533,
				"method": "rhf"
			},
			{
				"type": "unocc",
				"energy": 0.02691,
				"method": "rhf"
			},
			{
				"type": "unocc",
				"energy": 0.07901,
				"method": "rhf"
			},
			{
				"type": "unocc",
				"energy": 0.08721,
				"method": "rhf"
			}
		],
		"cosmo_sigma_profile": { 
			"-0.025": 0.0,
			"-0.024": 0.0,
			"-0.023": 0.0,
			"-0.022": 0.0,
			"-0.021": 0.0,
			"-0.02": 0.0,
			"-0.019": 0.0,
			"-0.018": 0.0,
			"-0.017": 0.0,
			"-0.016": 0.0,
			"-0.015": 0.0,
			"-0.014": 0.645496432356,
			"-0.013": 1.59789529393,
			"-0.012": 1.57932551603,
			"-0.011": 1.41538879199,
			"-0.01": 1.83345282596,
			"-0.009": 2.66136608882,
			"-0.008": 2.26717196777,
			"-0.007": 5.21110442402,
			"-0.006": 7.99646366025,
			"-0.005": 12.6969220699,
			"-0.004": 14.0427761817,
			"-0.003": 19.313878891,
			"-0.002": 21.4884345624,
			"-0.001": 21.0495118544,
			"0.0": 11.0894839906,
			"0.001": 10.9763784167,
			"0.002": 12.5424403574,
			"0.003": 13.6641861616,
			"0.004": 13.5924581609,
			"0.005": 6.33111171855,
			"0.006": 4.0369634227,
			"0.007": 4.85689998803,
			"0.008": 5.69488428953,
			"0.009": 8.29270772522,
			"0.01": 4.5911894373,
			"0.011": 3.8672990827,
			"0.012": 1.27357401531,
			"0.013": 0.0,
			"0.014": 0.0,
			"0.015": 0.0,
			"0.016": 0.0,
			"0.017": 0.0,
			"0.018": 0.0,
			"0.019": 0.0,
			"0.02": 0.0,
			"0.021": 0.0,
			"0.022": 0.0,
			"0.023": 0.0,
			"0.024": 0.0,
			"0.025": 0.0
		}
	}
}
