{
	 "smiles": "C1SCSCS1", 
	 "Tm": 493.15, 
	 "num_atms": 12, 
	 "gaussian": { 
		 "optdone": 1, 
		 "sigma_profile": "yes", 
		 "theory": "DFT", 
		 "functional": "B3LYP", 
		 "basiset": "6-31G**", 
		 "properties": { 
			 "R2extent": 1124.4655, 
			 "electric_dipole_moment_norm": 0.964686959588, 
			 "electric_quadrupole_moment_norm": 4.9880611985, 
			 "total_energy": -1312.48044967, 
			 "HOMO_LUMO_gap": 0.2154, 
			 "cosmo_polarized_energy": -7.11, 
			 "cosmo_cavitation_energy": 18.63, 
			 "cosmo_dispersion_energy": -16.0, 
			 "cosmo_repulsion_energy": 1.19, 
			 "cosmo_total_nonelectrostatic_energy": 3.82, 
			 "SMD_solvation_energy": 1.87 
		},
		"coords": [
			{
				"x": -1.0633957037,
				"y": -1.8695634107,
				"z": 0.0737819733,
				"element": "C" 
			},
			{
				"x": -2.3355334228,
				"y": -0.7904649841,
				"z": -0.7029021887,
				"element": "S" 
			},
			{
				"x": -1.4664359439,
				"y": 0.8252003736,
				"z": -0.5598284096,
				"element": "C" 
			},
			{
				"x": -0.5604326785,
				"y": 1.0751859445,
				"z": 1.0062945573,
				"element": "S" 
			},
			{
				"x": 0.9212122521,
				"y": 0.0254515751,
				"z": 0.6955778047,
				"element": "C" 
			},
			{
				"x": 0.6624385776,
				"y": -1.4604573911,
				"z": -0.3622377347,
				"element": "S" 
			},
			{
				"x": -1.1761739996,
				"y": -1.8560822411,
				"z": 1.1590680794,
				"element": "H" 
			},
			{
				"x": -1.2505454408,
				"y": -2.8823094006,
				"z": -0.2873262758,
				"element": "H" 
			},
			{
				"x": -0.7818042599,
				"y": 0.9552441886,
				"z": -1.399539112,
				"element": "H" 
			},
			{
				"x": -2.2350332017,
				"y": 1.5984605271,
				"z": -0.6088769315,
				"element": "H" 
			},
			{
				"x": 1.7027756637,
				"y": 0.6017188131,
				"z": 0.1945519751,
				"element": "H" 
			},
			{
				"x": 1.2797281576,
				"y": -0.2650839945,
				"z": 1.6860362625,
				"element": "H" 
			}
		],
		 "valence_orbital": [ 
			{
				"type": "occ",
				"energy": -0.33123,
				"method": "rhf"
			},
			{
				"type": "occ",
				"energy": -0.32242,
				"method": "rhf"
			},
			{
				"type": "occ",
				"energy": -0.24672,
				"method": "rhf"
			},
			{
				"type": "occ",
				"energy": -0.23713,
				"method": "rhf"
			},
			{
				"type": "occ",
				"energy": -0.22591,
				"method": "rhf"
			},
			{
				"type": "unocc",
				"energy": -0.01051,
				"method": "rhf"
			},
			{
				"type": "unocc",
				"energy": -0.00647,
				"method": "rhf"
			},
			{
				"type": "unocc",
				"energy": 0.06106,
				"method": "rhf"
			},
			{
				"type": "unocc",
				"energy": 0.0631,
				"method": "rhf"
			},
			{
				"type": "unocc",
				"energy": 0.07635,
				"method": "rhf"
			}
		],
		"cosmo_sigma_profile": { 
			"-0.025": 0.0,
			"-0.024": 0.0,
			"-0.023": 0.0,
			"-0.022": 0.0,
			"-0.021": 0.0,
			"-0.02": 0.0,
			"-0.019": 0.0,
			"-0.018": 0.0,
			"-0.017": 0.0,
			"-0.016": 0.0,
			"-0.015": 0.0,
			"-0.014": 0.0,
			"-0.013": 0.0,
			"-0.012": 0.0,
			"-0.011": 0.0,
			"-0.01": 0.0,
			"-0.009": 1.39459684608,
			"-0.008": 5.74576684107,
			"-0.007": 9.6342459611,
			"-0.006": 11.8132706486,
			"-0.005": 11.6176656989,
			"-0.004": 12.6558980254,
			"-0.003": 10.2828607465,
			"-0.002": 6.5901887054,
			"-0.001": 7.30661789418,
			"0.0": 5.85644395912,
			"0.001": 6.95488596865,
			"0.002": 6.94184671098,
			"0.003": 7.3491548985,
			"0.004": 9.28074893544,
			"0.005": 10.529096207,
			"0.006": 7.54915763031,
			"0.007": 8.15216761695,
			"0.008": 6.17151577937,
			"0.009": 5.12066274934,
			"0.01": 2.00706166958,
			"0.011": 0.247311530545,
			"0.012": 0.0,
			"0.013": 0.0,
			"0.014": 0.0,
			"0.015": 0.0,
			"0.016": 0.0,
			"0.017": 0.0,
			"0.018": 0.0,
			"0.019": 0.0,
			"0.02": 0.0,
			"0.021": 0.0,
			"0.022": 0.0,
			"0.023": 0.0,
			"0.024": 0.0,
			"0.025": 0.0
		}
	}
}
