{
	 "smiles": "CN(C)C(=O)CCN1C=C(Br)C=N1", 
	 "Tm": 338.15, 
	 "num_atms": 25, 
	 "gaussian": { 
		 "optdone": 1, 
		 "sigma_profile": "yes", 
		 "theory": "DFT", 
		 "functional": "B3LYP", 
		 "basiset": "6-31G**", 
		 "properties": { 
			 "R2extent": 6961.1138, 
			 "electric_dipole_moment_norm": 5.28879108115, 
			 "electric_quadrupole_moment_norm": 6.45495659707, 
			 "total_energy": -3122.95283669, 
			 "HOMO_LUMO_gap": 0.23753, 
			 "cosmo_polarized_energy": -12.02, 
			 "cosmo_cavitation_energy": 30.74, 
			 "cosmo_dispersion_energy": -22.41, 
			 "cosmo_repulsion_energy": 1.81, 
			 "cosmo_total_nonelectrostatic_energy": 10.13, 
			 "SMD_solvation_energy": 3.98 
		},
		"coords": [
			{
				"x": 0.784920614,
				"y": -2.6263700804,
				"z": 0.4925664748,
				"element": "C" 
			},
			{
				"x": 0.874500231,
				"y": -1.1725468293,
				"z": 0.5484502212,
				"element": "N" 
			},
			{
				"x": 0.983884972,
				"y": -0.6081625849,
				"z": 1.8837469802,
				"element": "C" 
			},
			{
				"x": 0.8599597925,
				"y": -0.459014165,
				"z": -0.6206139427,
				"element": "C" 
			},
			{
				"x": 0.8009854215,
				"y": -1.0120187884,
				"z": -1.7195820327,
				"element": "O" 
			},
			{
				"x": 0.9405077218,
				"y": 1.0704020206,
				"z": -0.5281241858,
				"element": "C" 
			},
			{
				"x": 0.7027353674,
				"y": 1.7340470445,
				"z": -1.8885516941,
				"element": "C" 
			},
			{
				"x": -0.7050151519,
				"y": 1.7692975064,
				"z": -2.2634443895,
				"element": "N" 
			},
			{
				"x": -1.4216816232,
				"y": 0.8264336979,
				"z": -2.9306796023,
				"element": "C" 
			},
			{
				"x": -2.7170797181,
				"y": 1.3058973243,
				"z": -2.9790082481,
				"element": "C" 
			},
			{
				"x": -4.2016420663,
				"y": 0.4686027163,
				"z": -3.7866316722,
				"element": "Br" 
			},
			{
				"x": -2.6909116871,
				"y": 2.5448123965,
				"z": -2.3079525878,
				"element": "C" 
			},
			{
				"x": -1.4628645236,
				"y": 2.8205135329,
				"z": -1.8707129961,
				"element": "N" 
			},
			{
				"x": 0.6863531153,
				"y": -2.9272010339,
				"z": -0.5485478415,
				"element": "H" 
			},
			{
				"x": -0.085350561,
				"y": -2.9758496087,
				"z": 1.0614808252,
				"element": "H" 
			},
			{
				"x": 1.6847146816,
				"y": -3.0841678551,
				"z": 0.9223058926,
				"element": "H" 
			},
			{
				"x": 1.8477231384,
				"y": -1.0380903974,
				"z": 2.4067857689,
				"element": "H" 
			},
			{
				"x": 1.1122751883,
				"y": 0.4715640393,
				"z": 1.8535773424,
				"element": "H" 
			},
			{
				"x": 0.0867222438,
				"y": -0.8323217425,
				"z": 2.475608349,
				"element": "H" 
			},
			{
				"x": 1.9376787437,
				"y": 1.3527565598,
				"z": -0.1657298269,
				"element": "H" 
			},
			{
				"x": 0.217321864,
				"y": 1.4693964378,
				"z": 0.1897750717,
				"element": "H" 
			},
			{
				"x": 1.2518417483,
				"y": 1.1998646785,
				"z": -2.6649945189,
				"element": "H" 
			},
			{
				"x": 1.0338506722,
				"y": 2.7735491874,
				"z": -1.8574596668,
				"element": "H" 
			},
			{
				"x": -0.9721352979,
				"y": -0.0898513637,
				"z": -3.2778536496,
				"element": "H" 
			},
			{
				"x": -3.5055948868,
				"y": 3.2346573074,
				"z": -2.139010071,
				"element": "H" 
			}
		],
		 "valence_orbital": [ 
			{
				"type": "occ",
				"energy": -0.27159,
				"method": "rhf"
			},
			{
				"type": "occ",
				"energy": -0.26087,
				"method": "rhf"
			},
			{
				"type": "occ",
				"energy": -0.25254,
				"method": "rhf"
			},
			{
				"type": "occ",
				"energy": -0.24765,
				"method": "rhf"
			},
			{
				"type": "occ",
				"energy": -0.2239,
				"method": "rhf"
			},
			{
				"type": "unocc",
				"energy": 0.01363,
				"method": "rhf"
			},
			{
				"type": "unocc",
				"energy": 0.0189,
				"method": "rhf"
			},
			{
				"type": "unocc",
				"energy": 0.02797,
				"method": "rhf"
			},
			{
				"type": "unocc",
				"energy": 0.06814,
				"method": "rhf"
			},
			{
				"type": "unocc",
				"energy": 0.07538,
				"method": "rhf"
			}
		],
		"cosmo_sigma_profile": { 
			"-0.025": 0.0,
			"-0.024": 0.0,
			"-0.023": 0.0,
			"-0.022": 0.0,
			"-0.021": 0.0,
			"-0.02": 0.0,
			"-0.019": 0.0,
			"-0.018": 0.0,
			"-0.017": 0.0,
			"-0.016": 0.0,
			"-0.015": 0.0,
			"-0.014": 0.0,
			"-0.013": 0.0,
			"-0.012": 0.0,
			"-0.011": 0.0,
			"-0.01": 0.0,
			"-0.009": 0.0,
			"-0.008": 1.24272357269,
			"-0.007": 6.83176013797,
			"-0.006": 12.7086941398,
			"-0.005": 22.0708690438,
			"-0.004": 24.5772552754,
			"-0.003": 24.9939160529,
			"-0.002": 24.7136966995,
			"-0.001": 15.7165501647,
			"0.0": 12.7593830752,
			"0.001": 12.34060761,
			"0.002": 14.3515423798,
			"0.003": 18.7411635233,
			"0.004": 18.9631440174,
			"0.005": 11.7499971112,
			"0.006": 3.25494440801,
			"0.007": 3.10914206885,
			"0.008": 3.16441867308,
			"0.009": 1.93437454698,
			"0.01": 2.7966307396,
			"0.011": 2.05759683124,
			"0.012": 2.92101687178,
			"0.013": 3.17447593308,
			"0.014": 1.95149944706,
			"0.015": 0.643497405566,
			"0.016": 0.0771765509715,
			"0.017": 0.0,
			"0.018": 0.0,
			"0.019": 0.0,
			"0.02": 0.0,
			"0.021": 0.0,
			"0.022": 0.0,
			"0.023": 0.0,
			"0.024": 0.0,
			"0.025": 0.0
		}
	}
}
