{
	 "smiles": "OC(=O)CCCNC(=O)C1=CC=CO1", 
	 "Tm": 365.15, 
	 "num_atms": 25, 
	 "gaussian": { 
		 "optdone": 1, 
		 "sigma_profile": "yes", 
		 "theory": "DFT", 
		 "functional": "B3LYP", 
		 "basiset": "6-31G**", 
		 "properties": { 
			 "R2extent": 3072.3274, 
			 "electric_dipole_moment_norm": 6.84793596203, 
			 "electric_quadrupole_moment_norm": 17.2593113849, 
			 "total_energy": -705.227786157, 
			 "HOMO_LUMO_gap": 0.20187, 
			 "cosmo_polarized_energy": -22.09, 
			 "cosmo_cavitation_energy": 28.65, 
			 "cosmo_dispersion_energy": -20.1, 
			 "cosmo_repulsion_energy": 1.58, 
			 "cosmo_total_nonelectrostatic_energy": 10.14, 
			 "SMD_solvation_energy": 7.29 
		},
		"coords": [
			{
				"x": -2.6666092029,
				"y": 1.5927638796,
				"z": 0.5082839827,
				"element": "O" 
			},
			{
				"x": -1.6966312715,
				"y": 2.5349987216,
				"z": 0.5820046101,
				"element": "C" 
			},
			{
				"x": -1.5769253233,
				"y": 3.2212425702,
				"z": 1.5681346323,
				"element": "O" 
			},
			{
				"x": -0.8053001784,
				"y": 2.7103062788,
				"z": -0.6483052238,
				"element": "C" 
			},
			{
				"x": 0.6743019111,
				"y": 2.4222536932,
				"z": -0.344070497,
				"element": "C" 
			},
			{
				"x": 1.002539279,
				"y": 0.9311943384,
				"z": -0.1959999077,
				"element": "C" 
			},
			{
				"x": 0.3312533671,
				"y": 0.3093091101,
				"z": 0.9466821063,
				"element": "N" 
			},
			{
				"x": -0.2959141137,
				"y": -0.9140651341,
				"z": 1.0087195648,
				"element": "C" 
			},
			{
				"x": -0.3326273134,
				"y": -1.5712083706,
				"z": 2.0437408697,
				"element": "O" 
			},
			{
				"x": -0.9944312062,
				"y": -1.4389673328,
				"z": -0.1899721252,
				"element": "C" 
			},
			{
				"x": -1.3824657789,
				"y": -2.7203877894,
				"z": -0.4557197571,
				"element": "C" 
			},
			{
				"x": -2.0769392609,
				"y": -2.6948092908,
				"z": -1.7046063008,
				"element": "C" 
			},
			{
				"x": -2.0798617796,
				"y": -1.3969310871,
				"z": -2.1134842813,
				"element": "C" 
			},
			{
				"x": -1.4254179871,
				"y": -0.6081040029,
				"z": -1.2067561407,
				"element": "O" 
			},
			{
				"x": -2.524302424,
				"y": 1.0331495858,
				"z": -0.2702328527,
				"element": "H" 
			},
			{
				"x": -1.1443756445,
				"y": 2.1015285757,
				"z": -1.4932194762,
				"element": "H" 
			},
			{
				"x": -0.9079360347,
				"y": 3.7607581648,
				"z": -0.9395679064,
				"element": "H" 
			},
			{
				"x": 1.2950620064,
				"y": 2.8240918785,
				"z": -1.1535144254,
				"element": "H" 
			},
			{
				"x": 0.9524979542,
				"y": 2.9630362878,
				"z": 0.5679603216,
				"element": "H" 
			},
			{
				"x": 2.0892204854,
				"y": 0.8117753132,
				"z": -0.085424253,
				"element": "H" 
			},
			{
				"x": 0.71612454,
				"y": 0.3935607752,
				"z": -1.1013335313,
				"element": "H" 
			},
			{
				"x": 0.6919669319,
				"y": 0.5654207373,
				"z": 1.8591811754,
				"element": "H" 
			},
			{
				"x": -1.1887253763,
				"y": -3.5695594357,
				"z": 0.1819114036,
				"element": "H" 
			},
			{
				"x": -2.5204848228,
				"y": -3.5308563912,
				"z": -2.2254882002,
				"element": "H" 
			},
			{
				"x": -2.4835187569,
				"y": -0.8866010757,
				"z": -2.9744237877,
				"element": "H" 
			}
		],
		 "valence_orbital": [ 
			{
				"type": "occ",
				"energy": -0.30232,
				"method": "rhf"
			},
			{
				"type": "occ",
				"energy": -0.27077,
				"method": "rhf"
			},
			{
				"type": "occ",
				"energy": -0.26061,
				"method": "rhf"
			},
			{
				"type": "occ",
				"energy": -0.25653,
				"method": "rhf"
			},
			{
				"type": "occ",
				"energy": -0.24776,
				"method": "rhf"
			},
			{
				"type": "unocc",
				"energy": -0.04589,
				"method": "rhf"
			},
			{
				"type": "unocc",
				"energy": 0.01609,
				"method": "rhf"
			},
			{
				"type": "unocc",
				"energy": 0.03018,
				"method": "rhf"
			},
			{
				"type": "unocc",
				"energy": 0.06297,
				"method": "rhf"
			},
			{
				"type": "unocc",
				"energy": 0.0816,
				"method": "rhf"
			}
		],
		"cosmo_sigma_profile": { 
			"-0.025": -0.664938850033,
			"-0.024": 0.00115693014885,
			"-0.023": 0.0229726561176,
			"-0.022": 0.00142293509968,
			"-0.021": 0.000230000633857,
			"-0.02": 0.0,
			"-0.019": 0.0,
			"-0.018": 0.0,
			"-0.017": 0.0,
			"-0.016": 0.0,
			"-0.015": 0.0,
			"-0.014": 0.111792865946,
			"-0.013": 1.5293308521,
			"-0.012": 1.81696433648,
			"-0.011": 1.92532256444,
			"-0.01": 3.78095940117,
			"-0.009": 4.2735479224,
			"-0.008": 6.55334792134,
			"-0.007": 8.33138697595,
			"-0.006": 9.15131621122,
			"-0.005": 18.1521936113,
			"-0.004": 25.4841092736,
			"-0.003": 20.8575754156,
			"-0.002": 16.5375044844,
			"-0.001": 11.3784121047,
			"0.0": 9.20673983246,
			"0.001": 9.60107600964,
			"0.002": 9.21156087043,
			"0.003": 11.1214710819,
			"0.004": 5.97287448376,
			"0.005": 3.90191561173,
			"0.006": 3.81126907733,
			"0.007": 3.67899405839,
			"0.008": 3.84151561799,
			"0.009": 4.19326502472,
			"0.01": 4.6732657694,
			"0.011": 7.04496235777,
			"0.012": 7.61802142066,
			"0.013": 9.34640395171,
			"0.014": 3.77263553528,
			"0.015": 0.0142476321668,
			"0.016": 0.0,
			"0.017": 4.00844856868,
			"0.018": -3.93155293368,
			"0.019": 2.08724238283,
			"0.02": -2.04746569883,
			"0.021": 0.0,
			"0.022": 0.0,
			"0.023": 0.0,
			"0.024": 1.18000816018,
			"0.025": -1.14110450615
		}
	}
}
