{
	 "smiles": "NC1=CC(NC(=O)CO)=CC=C1", 
	 "Tm": 424.15, 
	 "num_atms": 22, 
	 "gaussian": { 
		 "optdone": 1, 
		 "sigma_profile": "yes", 
		 "theory": "DFT", 
		 "functional": "B3LYP", 
		 "basiset": "6-31G**", 
		 "properties": { 
			 "R2extent": 2879.1488, 
			 "electric_dipole_moment_norm": 3.28192355182, 
			 "electric_quadrupole_moment_norm": 11.0601861698, 
			 "total_energy": -570.831164569, 
			 "HOMO_LUMO_gap": 0.19272, 
			 "cosmo_polarized_energy": -15.55, 
			 "cosmo_cavitation_energy": 25.99, 
			 "cosmo_dispersion_energy": -18.95, 
			 "cosmo_repulsion_energy": 1.54, 
			 "cosmo_total_nonelectrostatic_energy": 8.57, 
			 "SMD_solvation_energy": 5.15 
		},
		"coords": [
			{
				"x": -3.3497419618,
				"y": 0.7473742555,
				"z": 1.4279762712,
				"element": "N" 
			},
			{
				"x": -2.042441256,
				"y": 0.2889046385,
				"z": 1.2892912801,
				"element": "C" 
			},
			{
				"x": -1.546558499,
				"y": -0.05145705,
				"z": 0.0190989331,
				"element": "C" 
			},
			{
				"x": -0.2224799885,
				"y": -0.4751265562,
				"z": -0.129690212,
				"element": "C" 
			},
			{
				"x": 0.2937792986,
				"y": -0.8125407134,
				"z": -1.4099244773,
				"element": "N" 
			},
			{
				"x": -0.3354535968,
				"y": -1.3988725526,
				"z": -2.4793996037,
				"element": "C" 
			},
			{
				"x": 0.1325049853,
				"y": -1.328403239,
				"z": -3.61190876,
				"element": "O" 
			},
			{
				"x": -1.6340752208,
				"y": -2.1757358259,
				"z": -2.2625434837,
				"element": "C" 
			},
			{
				"x": -2.7064124769,
				"y": -1.4871909748,
				"z": -2.8927095069,
				"element": "O" 
			},
			{
				"x": 0.6379616176,
				"y": -0.5254453864,
				"z": 0.9745667076,
				"element": "C" 
			},
			{
				"x": 0.1477127295,
				"y": -0.1593700047,
				"z": 2.2273551708,
				"element": "C" 
			},
			{
				"x": -1.1768968115,
				"y": 0.2345995793,
				"z": 2.3964201277,
				"element": "C" 
			},
			{
				"x": -3.9944605458,
				"y": 0.4576491092,
				"z": 0.7060697406,
				"element": "H" 
			},
			{
				"x": -3.7451234357,
				"y": 0.6686073796,
				"z": 2.3540387635,
				"element": "H" 
			},
			{
				"x": -2.1895181956,
				"y": 0.0298577941,
				"z": -0.8526811943,
				"element": "H" 
			},
			{
				"x": 1.1917542272,
				"y": -0.413167605,
				"z": -1.6593933737,
				"element": "H" 
			},
			{
				"x": -1.8995436165,
				"y": -2.2963114023,
				"z": -1.2125280924,
				"element": "H" 
			},
			{
				"x": -1.4750384787,
				"y": -3.1699952543,
				"z": -2.7045017949,
				"element": "H" 
			},
			{
				"x": -2.4008259557,
				"y": -1.2894020178,
				"z": -3.7908510674,
				"element": "H" 
			},
			{
				"x": 1.6626778733,
				"y": -0.860648555,
				"z": 0.8499290777,
				"element": "H" 
			},
			{
				"x": 0.8059776925,
				"y": -0.1957636119,
				"z": 3.090720655,
				"element": "H" 
			},
			{
				"x": -1.5445983846,
				"y": 0.5125379933,
				"z": 3.3805648388,
				"element": "H" 
			}
		],
		 "valence_orbital": [ 
			{
				"type": "occ",
				"energy": -0.29097,
				"method": "rhf"
			},
			{
				"type": "occ",
				"energy": -0.2817,
				"method": "rhf"
			},
			{
				"type": "occ",
				"energy": -0.25022,
				"method": "rhf"
			},
			{
				"type": "occ",
				"energy": -0.23356,
				"method": "rhf"
			},
			{
				"type": "occ",
				"energy": -0.20775,
				"method": "rhf"
			},
			{
				"type": "unocc",
				"energy": -0.01503,
				"method": "rhf"
			},
			{
				"type": "unocc",
				"energy": 0.00444,
				"method": "rhf"
			},
			{
				"type": "unocc",
				"energy": 0.02488,
				"method": "rhf"
			},
			{
				"type": "unocc",
				"energy": 0.07731,
				"method": "rhf"
			},
			{
				"type": "unocc",
				"energy": 0.09628,
				"method": "rhf"
			}
		],
		"cosmo_sigma_profile": { 
			"-0.025": 0.0,
			"-0.024": 0.0,
			"-0.023": 0.0,
			"-0.022": 0.0,
			"-0.021": 0.0,
			"-0.02": 0.0,
			"-0.019": 0.0,
			"-0.018": 0.0,
			"-0.017": 0.0,
			"-0.016": 0.0,
			"-0.015": 0.401501757288,
			"-0.014": 1.23762819834,
			"-0.013": 2.67190605517,
			"-0.012": 3.49252529386,
			"-0.011": 4.87734263073,
			"-0.01": 4.4570795551,
			"-0.009": 3.47726175311,
			"-0.008": 5.33839761692,
			"-0.007": 4.83551646367,
			"-0.006": 8.4162102489,
			"-0.005": 14.5368869719,
			"-0.004": 13.7087178395,
			"-0.003": 13.2616506265,
			"-0.002": 11.5729028896,
			"-0.001": 11.2830825631,
			"0.0": 9.03595639201,
			"0.001": 11.1722638082,
			"0.002": 10.2114630164,
			"0.003": 9.06175671372,
			"0.004": 8.72145653415,
			"0.005": 10.3154078457,
			"0.006": 11.5517847168,
			"0.007": 4.64646598819,
			"0.008": 2.76973870918,
			"0.009": 2.96780860775,
			"0.01": 3.86299952712,
			"0.011": 2.97879286311,
			"0.012": 3.95394516625,
			"0.013": 7.614141673,
			"0.014": 2.84537253501,
			"0.015": 0.0242481215796,
			"0.016": 0.0,
			"0.017": 0.0,
			"0.018": 0.0,
			"0.019": 0.0,
			"0.02": 0.0,
			"0.021": 0.0,
			"0.022": 0.0,
			"0.023": 0.0,
			"0.024": 0.0,
			"0.025": 0.0
		}
	}
}
