{
	 "smiles": "CCOC1=C(O)C(Br)=CC(=C1)C#N", 
	 "Tm": 414.15, 
	 "num_atms": 21, 
	 "gaussian": { 
		 "optdone": 1, 
		 "sigma_profile": "yes", 
		 "theory": "DFT", 
		 "functional": "B3LYP", 
		 "basiset": "6-31G**", 
		 "properties": { 
			 "R2extent": 6993.1483, 
			 "electric_dipole_moment_norm": 5.80592000634, 
			 "electric_quadrupole_moment_norm": 18.502620392, 
			 "total_energy": -3124.35767607, 
			 "HOMO_LUMO_gap": 0.18797, 
			 "cosmo_polarized_energy": -12.92, 
			 "cosmo_cavitation_energy": 28.81, 
			 "cosmo_dispersion_energy": -20.93, 
			 "cosmo_repulsion_energy": 1.69, 
			 "cosmo_total_nonelectrostatic_energy": 9.57, 
			 "SMD_solvation_energy": 5.98 
		},
		"coords": [
			{
				"x": 1.4593312406,
				"y": -1.8300634499,
				"z": -0.7686986265,
				"element": "C" 
			},
			{
				"x": 0.2693572362,
				"y": -0.9680793812,
				"z": -0.3907755769,
				"element": "C" 
			},
			{
				"x": 0.7744156697,
				"y": 0.2684264393,
				"z": 0.1322509012,
				"element": "O" 
			},
			{
				"x": -0.112838164,
				"y": 1.222290611,
				"z": 0.5466903411,
				"element": "C" 
			},
			{
				"x": 0.5216868892,
				"y": 2.3893166419,
				"z": 1.0385355365,
				"element": "C" 
			},
			{
				"x": 1.8677592682,
				"y": 2.462858667,
				"z": 1.0580081692,
				"element": "O" 
			},
			{
				"x": -0.2676001759,
				"y": 3.4456405792,
				"z": 1.4957233393,
				"element": "C" 
			},
			{
				"x": 0.5730522749,
				"y": 5.0156560183,
				"z": 2.1573396085,
				"element": "Br" 
			},
			{
				"x": -1.6585158921,
				"y": 3.3617581962,
				"z": 1.4722568267,
				"element": "C" 
			},
			{
				"x": -2.2727018123,
				"y": 2.2029290539,
				"z": 0.9837568202,
				"element": "C" 
			},
			{
				"x": -1.4954196963,
				"y": 1.1227357206,
				"z": 0.5164697415,
				"element": "C" 
			},
			{
				"x": -3.7009459689,
				"y": 2.1075136304,
				"z": 0.9556770859,
				"element": "C" 
			},
			{
				"x": -4.8612049167,
				"y": 2.0209560781,
				"z": 0.929002925,
				"element": "N" 
			},
			{
				"x": 2.0706849123,
				"y": -1.3360207772,
				"z": -1.5289433131,
				"element": "H" 
			},
			{
				"x": 1.1114546047,
				"y": -2.7850610625,
				"z": -1.1731804931,
				"element": "H" 
			},
			{
				"x": 2.0846510993,
				"y": -2.0332007605,
				"z": 0.1050952913,
				"element": "H" 
			},
			{
				"x": -0.3494525172,
				"y": -1.457492762,
				"z": 0.3727798026,
				"element": "H" 
			},
			{
				"x": -0.3635680896,
				"y": -0.7596303094,
				"z": -1.2633737934,
				"element": "H" 
			},
			{
				"x": 2.2038906833,
				"y": 1.6256804181,
				"z": 0.6983537995,
				"element": "H" 
			},
			{
				"x": -2.2567420224,
				"y": 4.1900053772,
				"z": 1.8305343191,
				"element": "H" 
			},
			{
				"x": -1.9873946229,
				"y": 0.2344810714,
				"z": 0.1421972953,
				"element": "H" 
			}
		],
		 "valence_orbital": [ 
			{
				"type": "occ",
				"energy": -0.33083,
				"method": "rhf"
			},
			{
				"type": "occ",
				"energy": -0.30463,
				"method": "rhf"
			},
			{
				"type": "occ",
				"energy": -0.29192,
				"method": "rhf"
			},
			{
				"type": "occ",
				"energy": -0.25359,
				"method": "rhf"
			},
			{
				"type": "occ",
				"energy": -0.23396,
				"method": "rhf"
			},
			{
				"type": "unocc",
				"energy": -0.04599,
				"method": "rhf"
			},
			{
				"type": "unocc",
				"energy": -0.02262,
				"method": "rhf"
			},
			{
				"type": "unocc",
				"energy": -0.00311,
				"method": "rhf"
			},
			{
				"type": "unocc",
				"energy": 0.03628,
				"method": "rhf"
			},
			{
				"type": "unocc",
				"energy": 0.0681,
				"method": "rhf"
			}
		],
		"cosmo_sigma_profile": { 
			"-0.025": 0.0,
			"-0.024": 0.0,
			"-0.023": 0.0,
			"-0.022": 0.0,
			"-0.021": 0.0,
			"-0.02": 0.0,
			"-0.019": 0.0,
			"-0.018": 0.0,
			"-0.017": 0.0,
			"-0.016": 0.120824266401,
			"-0.015": 0.391221166102,
			"-0.014": 0.741254153711,
			"-0.013": 0.466946374858,
			"-0.012": 0.509247812423,
			"-0.011": 0.862440352527,
			"-0.01": 0.801326449676,
			"-0.009": 2.39283712777,
			"-0.008": 5.04673636122,
			"-0.007": 5.78070594202,
			"-0.006": 8.87811427477,
			"-0.005": 14.0995558025,
			"-0.004": 17.3557742797,
			"-0.003": 15.7862494775,
			"-0.002": 17.6195547657,
			"-0.001": 22.6808676647,
			"0.0": 23.9122995486,
			"0.001": 24.3061672797,
			"0.002": 11.2125566927,
			"0.003": 10.5514067592,
			"0.004": 12.4841428435,
			"0.005": 5.76109694214,
			"0.006": 3.90594432756,
			"0.007": 5.58616512242,
			"0.008": 5.47998494135,
			"0.009": 5.11622835232,
			"0.01": 5.1640056923,
			"0.011": 2.86303653756,
			"0.012": 2.49465872113,
			"0.013": 1.78652222166,
			"0.014": 0.0737222411793,
			"0.015": 0.0,
			"0.016": 0.0,
			"0.017": 0.0,
			"0.018": 0.0,
			"0.019": 0.0,
			"0.02": 0.0,
			"0.021": 0.0,
			"0.022": 0.0,
			"0.023": 0.0,
			"0.024": 0.0,
			"0.025": 0.0
		}
	}
}
