{
	 "smiles": "CC(C)CC1=CSC2=C1C(=O)NC(CC#N)=N2", 
	 "Tm": 492.15, 
	 "num_atms": 30, 
	 "gaussian": { 
		 "optdone": 1, 
		 "sigma_profile": "yes", 
		 "theory": "DFT", 
		 "functional": "B3LYP", 
		 "basiset": "6-31G**", 
		 "properties": { 
			 "R2extent": 5699.5901, 
			 "electric_dipole_moment_norm": 3.15637404152, 
			 "electric_quadrupole_moment_norm": 18.6354022235, 
			 "total_energy": -1102.79064881, 
			 "HOMO_LUMO_gap": 0.17122, 
			 "cosmo_polarized_energy": -15.72, 
			 "cosmo_cavitation_energy": 35.18, 
			 "cosmo_dispersion_energy": -25.06, 
			 "cosmo_repulsion_energy": 1.89, 
			 "cosmo_total_nonelectrostatic_energy": 12.01, 
			 "SMD_solvation_energy": 5.6 
		},
		"coords": [
			{
				"x": 2.3069735275,
				"y": -0.4593934601,
				"z": -3.0247806509,
				"element": "C" 
			},
			{
				"x": 2.3460470067,
				"y": 0.2754853853,
				"z": -1.6780791635,
				"element": "C" 
			},
			{
				"x": 1.8051997099,
				"y": 1.705901594,
				"z": -1.810611798,
				"element": "C" 
			},
			{
				"x": 1.6500956965,
				"y": -0.5269215266,
				"z": -0.5411516584,
				"element": "C" 
			},
			{
				"x": 0.1500635126,
				"y": -0.6767135819,
				"z": -0.6646856958,
				"element": "C" 
			},
			{
				"x": -0.4704470701,
				"y": -1.644484551,
				"z": -1.4088273282,
				"element": "C" 
			},
			{
				"x": -2.2128041469,
				"y": -1.569582601,
				"z": -1.3690472652,
				"element": "S" 
			},
			{
				"x": -2.1462767588,
				"y": -0.1948571055,
				"z": -0.3036235484,
				"element": "C" 
			},
			{
				"x": -0.8272139223,
				"y": 0.1628622291,
				"z": -0.0167546107,
				"element": "C" 
			},
			{
				"x": -0.6116236081,
				"y": 1.2719141515,
				"z": 0.8968830766,
				"element": "C" 
			},
			{
				"x": 0.4425131266,
				"y": 1.740728577,
				"z": 1.3057252699,
				"element": "O" 
			},
			{
				"x": -1.8393128935,
				"y": 1.8354322587,
				"z": 1.3376487601,
				"element": "N" 
			},
			{
				"x": -3.0797426544,
				"y": 1.4020431716,
				"z": 0.9700841434,
				"element": "C" 
			},
			{
				"x": -4.3011238991,
				"y": 2.0777257023,
				"z": 1.5757349073,
				"element": "C" 
			},
			{
				"x": -4.0525266965,
				"y": 3.4273663331,
				"z": 2.0833552253,
				"element": "C" 
			},
			{
				"x": -3.8162062984,
				"y": 4.4855734068,
				"z": 2.4968213522,
				"element": "N" 
			},
			{
				"x": -3.2809011631,
				"y": 0.404108378,
				"z": 0.1618382564,
				"element": "N" 
			},
			{
				"x": 2.8765742578,
				"y": 0.0896193276,
				"z": -3.7824014683,
				"element": "H" 
			},
			{
				"x": 1.280382274,
				"y": -0.5587644195,
				"z": -3.3946567674,
				"element": "H" 
			},
			{
				"x": 2.7377647033,
				"y": -1.4647755923,
				"z": -2.9487898351,
				"element": "H" 
			},
			{
				"x": 3.3992811348,
				"y": 0.3452903451,
				"z": -1.3711823875,
				"element": "H" 
			},
			{
				"x": 0.7691869745,
				"y": 1.7032765982,
				"z": -2.1695733419,
				"element": "H" 
			},
			{
				"x": 1.8254170124,
				"y": 2.2302211679,
				"z": -0.8515555282,
				"element": "H" 
			},
			{
				"x": 2.3994666053,
				"y": 2.2769868255,
				"z": -2.5322539489,
				"element": "H" 
			},
			{
				"x": 1.8683045394,
				"y": -0.0358279282,
				"z": 0.4100565336,
				"element": "H" 
			},
			{
				"x": 2.0985175847,
				"y": -1.5272021395,
				"z": -0.5062407749,
				"element": "H" 
			},
			{
				"x": 0.0060324581,
				"y": -2.4250795426,
				"z": -1.9861430479,
				"element": "H" 
			},
			{
				"x": -1.7366546258,
				"y": 2.6354337594,
				"z": 1.9546155218,
				"element": "H" 
			},
			{
				"x": -5.0851034594,
				"y": 2.1003810463,
				"z": 0.8135398823,
				"element": "H" 
			},
			{
				"x": -4.6789829275,
				"y": 1.4589521907,
				"z": 2.3999558903,
				"element": "H" 
			}
		],
		 "valence_orbital": [ 
			{
				"type": "occ",
				"energy": -0.30339,
				"method": "rhf"
			},
			{
				"type": "occ",
				"energy": -0.30139,
				"method": "rhf"
			},
			{
				"type": "occ",
				"energy": -0.27262,
				"method": "rhf"
			},
			{
				"type": "occ",
				"energy": -0.26249,
				"method": "rhf"
			},
			{
				"type": "occ",
				"energy": -0.228,
				"method": "rhf"
			},
			{
				"type": "unocc",
				"energy": -0.05678,
				"method": "rhf"
			},
			{
				"type": "unocc",
				"energy": -0.0228,
				"method": "rhf"
			},
			{
				"type": "unocc",
				"energy": 0.00139,
				"method": "rhf"
			},
			{
				"type": "unocc",
				"energy": 0.009,
				"method": "rhf"
			},
			{
				"type": "unocc",
				"energy": 0.01592,
				"method": "rhf"
			}
		],
		"cosmo_sigma_profile": { 
			"-0.025": 0.0,
			"-0.024": 0.0,
			"-0.023": 0.0,
			"-0.022": 0.0,
			"-0.021": 0.0,
			"-0.02": 0.0,
			"-0.019": 0.0,
			"-0.018": 0.0,
			"-0.017": 0.0,
			"-0.016": 0.0,
			"-0.015": 0.0349937927254,
			"-0.014": 0.336467043583,
			"-0.013": 1.45502893319,
			"-0.012": 1.02059908819,
			"-0.011": 5.23033440374,
			"-0.01": 6.61925442645,
			"-0.009": 5.94373808363,
			"-0.008": 7.66719943,
			"-0.007": 7.28790472081,
			"-0.006": 6.25207608169,
			"-0.005": 6.65086925062,
			"-0.004": 9.96918278644,
			"-0.003": 15.2028273017,
			"-0.002": 22.1040719559,
			"-0.001": 27.535116655,
			"0.0": 32.5350072132,
			"0.001": 32.7783836508,
			"0.002": 26.8857150559,
			"0.003": 13.9672061594,
			"0.004": 8.27788935338,
			"0.005": 4.55996992319,
			"0.006": 5.63071622983,
			"0.007": 5.5457169276,
			"0.008": 5.62220210789,
			"0.009": 4.85167545516,
			"0.01": 4.87644185592,
			"0.011": 4.62602736299,
			"0.012": 5.382740787,
			"0.013": 2.96146764312,
			"0.014": 0.169886440955,
			"0.015": 0.0,
			"0.016": 0.0,
			"0.017": 0.0,
			"0.018": 0.0,
			"0.019": 0.0,
			"0.02": 0.0,
			"0.021": 0.0,
			"0.022": 0.0,
			"0.023": 0.0,
			"0.024": 0.0,
			"0.025": 0.0
		}
	}
}
