{
	 "smiles": "CC(C)(C)C1=CC(=O)C(=CC1=O)C(C)(C)C", 
	 "Tm": 426.15, 
	 "num_atms": 36, 
	 "gaussian": { 
		 "optdone": 1, 
		 "sigma_profile": "yes", 
		 "theory": "DFT", 
		 "functional": "B3LYP", 
		 "basiset": "6-31G**", 
		 "properties": { 
			 "R2extent": 4992.1655, 
			 "electric_dipole_moment_norm": 0.0, 
			 "electric_quadrupole_moment_norm": 15.7695671088, 
			 "total_energy": -695.984770346, 
			 "HOMO_LUMO_gap": 0.13729, 
			 "cosmo_polarized_energy": -7.15, 
			 "cosmo_cavitation_energy": 36.0, 
			 "cosmo_dispersion_energy": -25.09, 
			 "cosmo_repulsion_energy": 1.92, 
			 "cosmo_total_nonelectrostatic_energy": 12.83, 
			 "SMD_solvation_energy": 7.51 
		},
		"coords": [
			{
				"x": 2.9989547646,
				"y": -2.5676173887,
				"z": 1.2075661683,
				"element": "C" 
			},
			{
				"x": 2.3991235519,
				"y": -1.6226957513,
				"z": 2.2657351742,
				"element": "C" 
			},
			{
				"x": 1.7700327433,
				"y": -2.4866035931,
				"z": 3.3885322934,
				"element": "C" 
			},
			{
				"x": 3.5449127638,
				"y": -0.7586826477,
				"z": 2.8516787152,
				"element": "C" 
			},
			{
				"x": 1.3284266311,
				"y": -0.7115040357,
				"z": 1.6587796517,
				"element": "C" 
			},
			{
				"x": 0.9624799885,
				"y": -0.7395160682,
				"z": 0.3608564922,
				"element": "C" 
			},
			{
				"x": -0.0702800035,
				"y": 0.1313758041,
				"z": -0.2518172249,
				"element": "C" 
			},
			{
				"x": -0.3083632282,
				"y": 0.0034233351,
				"z": -1.450709596,
				"element": "O" 
			},
			{
				"x": -0.7819348169,
				"y": 1.1317545023,
				"z": 0.6139165393,
				"element": "C" 
			},
			{
				"x": -0.4159756715,
				"y": 1.1597787196,
				"z": 1.9118358443,
				"element": "C" 
			},
			{
				"x": 0.6168478159,
				"y": 0.2889485271,
				"z": 2.5244902844,
				"element": "C" 
			},
			{
				"x": 0.8548499517,
				"y": 0.4168205771,
				"z": 3.7234072374,
				"element": "O" 
			},
			{
				"x": -1.8526772988,
				"y": 2.0429030288,
				"z": 0.0069760023,
				"element": "C" 
			},
			{
				"x": -2.4523373443,
				"y": 2.9879862467,
				"z": 1.0650973769,
				"element": "C" 
			},
			{
				"x": -1.2236961113,
				"y": 2.9066381713,
				"z": -1.1160153192,
				"element": "C" 
			},
			{
				"x": -2.9985755862,
				"y": 1.1788568358,
				"z": -0.5787058618,
				"element": "C" 
			},
			{
				"x": 2.2426703105,
				"y": -3.2287653463,
				"z": 0.771402171,
				"element": "H" 
			},
			{
				"x": 3.7577725392,
				"y": -3.2005101827,
				"z": 1.6777662853,
				"element": "H" 
			},
			{
				"x": 3.4857419123,
				"y": -2.0180072099,
				"z": 0.3949920466,
				"element": "H" 
			},
			{
				"x": 2.5327315151,
				"y": -3.1516747751,
				"z": 3.8080080612,
				"element": "H" 
			},
			{
				"x": 0.9613793216,
				"y": -3.1117908604,
				"z": 2.9943045101,
				"element": "H" 
			},
			{
				"x": 1.3726863192,
				"y": -1.8659117456,
				"z": 4.1921068809,
				"element": "H" 
			},
			{
				"x": 4.3188912315,
				"y": -1.4126149764,
				"z": 3.2679820881,
				"element": "H" 
			},
			{
				"x": 4.0094916208,
				"y": -0.1446446753,
				"z": 2.0723700393,
				"element": "H" 
			},
			{
				"x": 3.1828912116,
				"y": -0.1033210798,
				"z": 3.644342937,
				"element": "H" 
			},
			{
				"x": 1.410297868,
				"y": -1.4217953456,
				"z": -0.3528920026,
				"element": "H" 
			},
			{
				"x": -0.8638245264,
				"y": 1.8420282583,
				"z": 2.625593276,
				"element": "H" 
			},
			{
				"x": -2.93898309,
				"y": 2.4384982477,
				"z": 1.8778389924,
				"element": "H" 
			},
			{
				"x": -3.2112380893,
				"y": 3.6208001701,
				"z": 0.5949250573,
				"element": "H" 
			},
			{
				"x": -1.6959857513,
				"y": 3.6492090614,
				"z": 1.5010311389,
				"element": "H" 
			},
			{
				"x": -0.4149800062,
				"y": 3.5318592586,
				"z": -0.7219698756,
				"element": "H" 
			},
			{
				"x": -0.8264598811,
				"y": 2.2858229788,
				"z": -1.9195498229,
				"element": "H" 
			},
			{
				"x": -1.9864264324,
				"y": 3.5716701381,
				"z": -1.5354957275,
				"element": "H" 
			},
			{
				"x": -3.4630661649,
				"y": 0.5649271005,
				"z": 0.2007408045,
				"element": "H" 
			},
			{
				"x": -2.6366866935,
				"y": 0.5233896247,
				"z": -1.3713425564,
				"element": "H" 
			},
			{
				"x": -3.7725913648,
				"y": 1.8327650955,
				"z": -0.9949780812,
				"element": "H" 
			}
		],
		 "valence_orbital": [ 
			{
				"type": "occ",
				"energy": -0.33024,
				"method": "rhf"
			},
			{
				"type": "occ",
				"energy": -0.28774,
				"method": "rhf"
			},
			{
				"type": "occ",
				"energy": -0.27602,
				"method": "rhf"
			},
			{
				"type": "occ",
				"energy": -0.2654,
				"method": "rhf"
			},
			{
				"type": "occ",
				"energy": -0.25543,
				"method": "rhf"
			},
			{
				"type": "unocc",
				"energy": -0.11814,
				"method": "rhf"
			},
			{
				"type": "unocc",
				"energy": -0.01065,
				"method": "rhf"
			},
			{
				"type": "unocc",
				"energy": 0.01522,
				"method": "rhf"
			},
			{
				"type": "unocc",
				"energy": 0.08732,
				"method": "rhf"
			},
			{
				"type": "unocc",
				"energy": 0.08737,
				"method": "rhf"
			}
		],
		"cosmo_sigma_profile": { 
			"-0.025": 0.0,
			"-0.024": 0.0,
			"-0.023": 0.0,
			"-0.022": 0.0,
			"-0.021": 0.0,
			"-0.02": 0.0,
			"-0.019": 0.0,
			"-0.018": 0.0,
			"-0.017": 0.0,
			"-0.016": 0.0,
			"-0.015": 0.0,
			"-0.014": 0.0,
			"-0.013": 0.0,
			"-0.012": 0.0,
			"-0.011": 0.0,
			"-0.01": 0.0,
			"-0.009": 0.0,
			"-0.008": 0.0,
			"-0.007": 0.0347683095037,
			"-0.006": 2.04612417236,
			"-0.005": 4.79121922959,
			"-0.004": 13.802453436,
			"-0.003": 43.8211376582,
			"-0.002": 40.6130764751,
			"-0.001": 39.6801852865,
			"0.0": 40.5452391444,
			"0.001": 45.5470713025,
			"0.002": 12.6403335054,
			"0.003": 4.57146778406,
			"0.004": 3.53713229991,
			"0.005": 3.94843909611,
			"0.006": 3.44730620014,
			"0.007": 3.26024378716,
			"0.008": 3.21977758264,
			"0.009": 3.34685930798,
			"0.01": 4.18104516305,
			"0.011": 4.6165880049,
			"0.012": 2.75661157083,
			"0.013": 0.103855641776,
			"0.014": 0.0,
			"0.015": 0.0,
			"0.016": 0.0,
			"0.017": 0.0,
			"0.018": 0.0,
			"0.019": 0.0,
			"0.02": 0.0,
			"0.021": 0.0,
			"0.022": 0.0,
			"0.023": 0.0,
			"0.024": 0.0,
			"0.025": 0.0
		}
	}
}
