{
	 "smiles": "OC(C#C)(C1=CC=CC=C1)C1=CC=CC=C1", 
	 "Tm": 320.65, 
	 "num_atms": 28, 
	 "gaussian": { 
		 "optdone": 1, 
		 "sigma_profile": "yes", 
		 "theory": "DFT", 
		 "functional": "B3LYP", 
		 "basiset": "6-31G**", 
		 "properties": { 
			 "R2extent": 4200.1943, 
			 "electric_dipole_moment_norm": 1.28907194912, 
			 "electric_quadrupole_moment_norm": 2.09620860603, 
			 "total_energy": -653.964654489, 
			 "HOMO_LUMO_gap": 0.22423, 
			 "cosmo_polarized_energy": -9.65, 
			 "cosmo_cavitation_energy": 32.45, 
			 "cosmo_dispersion_energy": -22.16, 
			 "cosmo_repulsion_energy": 1.73, 
			 "cosmo_total_nonelectrostatic_energy": 12.02, 
			 "SMD_solvation_energy": 7.0 
		},
		"coords": [
			{
				"x": -1.4919670657,
				"y": -2.3713291037,
				"z": -0.1159406694,
				"element": "O" 
			},
			{
				"x": -0.88346718,
				"y": -1.0795081019,
				"z": -0.253906325,
				"element": "C" 
			},
			{
				"x": -0.983660118,
				"y": -0.3602204862,
				"z": 1.0344931946,
				"element": "C" 
			},
			{
				"x": -1.0908996365,
				"y": 0.2002219112,
				"z": 2.0993283995,
				"element": "C" 
			},
			{
				"x": 0.5799250112,
				"y": -1.2492721142,
				"z": -0.7064269894,
				"element": "C" 
			},
			{
				"x": 1.6398294236,
				"y": -0.5421450145,
				"z": -0.1322191967,
				"element": "C" 
			},
			{
				"x": 2.9464441751,
				"y": -0.7309219177,
				"z": -0.5925279314,
				"element": "C" 
			},
			{
				"x": 3.204140876,
				"y": -1.6307220599,
				"z": -1.625491139,
				"element": "C" 
			},
			{
				"x": 2.1475219144,
				"y": -2.3438809343,
				"z": -2.1998466243,
				"element": "C" 
			},
			{
				"x": 0.8449465527,
				"y": -2.1540523174,
				"z": -1.7447082103,
				"element": "C" 
			},
			{
				"x": -1.7038442113,
				"y": -0.3174542012,
				"z": -1.3139944963,
				"element": "C" 
			},
			{
				"x": -1.2280360361,
				"y": 0.8953726989,
				"z": -1.8270180455,
				"element": "C" 
			},
			{
				"x": -1.9736123917,
				"y": 1.604841303,
				"z": -2.7666726329,
				"element": "C" 
			},
			{
				"x": -3.2032905523,
				"y": 1.1088619245,
				"z": -3.2066908415,
				"element": "C" 
			},
			{
				"x": -3.6801086246,
				"y": -0.0981004067,
				"z": -2.6962082946,
				"element": "C" 
			},
			{
				"x": -2.937511671,
				"y": -0.8088554696,
				"z": -1.7499503829,
				"element": "C" 
			},
			{
				"x": -0.9952769651,
				"y": -2.8435153764,
				"z": 0.5661238607,
				"element": "H" 
			},
			{
				"x": -1.2007505398,
				"y": 0.6997239056,
				"z": 3.0341712791,
				"element": "H" 
			},
			{
				"x": 1.4442326254,
				"y": 0.1496873348,
				"z": 0.6805590518,
				"element": "H" 
			},
			{
				"x": 3.7613702388,
				"y": -0.175895801,
				"z": -0.1363093381,
				"element": "H" 
			},
			{
				"x": 4.2198467702,
				"y": -1.7788906644,
				"z": -1.9809823108,
				"element": "H" 
			},
			{
				"x": 2.3397299362,
				"y": -3.0486679539,
				"z": -3.0039879193,
				"element": "H" 
			},
			{
				"x": 0.0223705946,
				"y": -2.7087346387,
				"z": -2.1842590094,
				"element": "H" 
			},
			{
				"x": -0.2687423516,
				"y": 1.2815316786,
				"z": -1.495684511,
				"element": "H" 
			},
			{
				"x": -1.5917175279,
				"y": 2.5433856935,
				"z": -3.1584361384,
				"element": "H" 
			},
			{
				"x": -3.7830597894,
				"y": 1.6596669137,
				"z": -3.9419212333,
				"element": "H" 
			},
			{
				"x": -4.6355756225,
				"y": -0.4918936476,
				"z": -3.0317395779,
				"element": "H" 
			},
			{
				"x": -3.3084378346,
				"y": -1.7441331546,
				"z": -1.3494539683,
				"element": "H" 
			}
		],
		 "valence_orbital": [ 
			{
				"type": "occ",
				"energy": -0.27265,
				"method": "rhf"
			},
			{
				"type": "occ",
				"energy": -0.25147,
				"method": "rhf"
			},
			{
				"type": "occ",
				"energy": -0.25024,
				"method": "rhf"
			},
			{
				"type": "occ",
				"energy": -0.2439,
				"method": "rhf"
			},
			{
				"type": "occ",
				"energy": -0.23421,
				"method": "rhf"
			},
			{
				"type": "unocc",
				"energy": -0.00998,
				"method": "rhf"
			},
			{
				"type": "unocc",
				"energy": -0.0085,
				"method": "rhf"
			},
			{
				"type": "unocc",
				"energy": 0.00218,
				"method": "rhf"
			},
			{
				"type": "unocc",
				"energy": 0.00653,
				"method": "rhf"
			},
			{
				"type": "unocc",
				"energy": 0.04013,
				"method": "rhf"
			}
		],
		"cosmo_sigma_profile": { 
			"-0.025": 0.0,
			"-0.024": 0.0,
			"-0.023": 0.0,
			"-0.022": 0.0,
			"-0.021": 0.0,
			"-0.02": 0.0,
			"-0.019": 0.0,
			"-0.018": 0.0,
			"-0.017": 0.0463515000262,
			"-0.016": 0.798815660254,
			"-0.015": 0.755842715858,
			"-0.014": 0.832745015278,
			"-0.013": 0.60498401033,
			"-0.012": 1.83261795498,
			"-0.011": 1.8437111218,
			"-0.01": 1.27524313259,
			"-0.009": 2.01562089179,
			"-0.008": 2.56302660209,
			"-0.007": 1.43651504798,
			"-0.006": 9.1394559514,
			"-0.005": 18.0985779852,
			"-0.004": 21.6818961175,
			"-0.003": 21.5172735733,
			"-0.002": 16.8578105261,
			"-0.001": 14.9160161201,
			"0.0": 15.3871012442,
			"0.001": 16.9110147883,
			"0.002": 18.4366219938,
			"0.003": 20.9474551708,
			"0.004": 24.0042306042,
			"0.005": 26.2259169651,
			"0.006": 15.4510107826,
			"0.007": 2.81838901417,
			"0.008": 1.63721145389,
			"0.009": 1.51685176564,
			"0.01": 1.03988205375,
			"0.011": 0.0947007298611,
			"0.012": 0.0,
			"0.013": 0.0,
			"0.014": 0.0,
			"0.015": 0.0,
			"0.016": 0.0,
			"0.017": 0.0,
			"0.018": 0.0,
			"0.019": 0.0,
			"0.02": 0.0,
			"0.021": 0.0,
			"0.022": 0.0,
			"0.023": 0.0,
			"0.024": 0.0,
			"0.025": 0.0
		}
	}
}
