{
	 "smiles": "CC(C)C1=NN=C(CC#N)N1", 
	 "Tm": 422.15, 
	 "num_atms": 21, 
	 "gaussian": { 
		 "optdone": 1, 
		 "sigma_profile": "yes", 
		 "theory": "DFT", 
		 "functional": "B3LYP", 
		 "basiset": "6-31G**", 
		 "properties": { 
			 "R2extent": 2245.7248, 
			 "electric_dipole_moment_norm": 2.94522529359, 
			 "electric_quadrupole_moment_norm": 17.0821540515, 
			 "total_energy": -491.751359908, 
			 "HOMO_LUMO_gap": 0.2611, 
			 "cosmo_polarized_energy": -20.99, 
			 "cosmo_cavitation_energy": 26.04, 
			 "cosmo_dispersion_energy": -17.83, 
			 "cosmo_repulsion_energy": 1.47, 
			 "cosmo_total_nonelectrostatic_energy": 9.68, 
			 "SMD_solvation_energy": 3.67 
		},
		"coords": [
			{
				"x": -1.8957207386,
				"y": -0.1498983383,
				"z": -2.2961225141,
				"element": "C" 
			},
			{
				"x": -0.4155901991,
				"y": 0.0343975937,
				"z": -1.9088645659,
				"element": "C" 
			},
			{
				"x": 0.4091281724,
				"y": -1.2330056419,
				"z": -2.2045296717,
				"element": "C" 
			},
			{
				"x": -0.2658609645,
				"y": 0.4762745252,
				"z": -0.4820767419,
				"element": "C" 
			},
			{
				"x": 0.2358878067,
				"y": 1.6224696313,
				"z": -0.0794085341,
				"element": "N" 
			},
			{
				"x": 0.1805795693,
				"y": 1.6517909267,
				"z": 1.3028872786,
				"element": "N" 
			},
			{
				"x": -0.34751322,
				"y": 0.520350005,
				"z": 1.6946013662,
				"element": "C" 
			},
			{
				"x": -0.5471951692,
				"y": 0.1160725841,
				"z": 3.1295366757,
				"element": "C" 
			},
			{
				"x": -1.6812828706,
				"y": -0.7967111968,
				"z": 3.3030891614,
				"element": "C" 
			},
			{
				"x": -2.5634800913,
				"y": -1.5452327986,
				"z": 3.3934003711,
				"element": "N" 
			},
			{
				"x": -0.6453106374,
				"y": -0.2652875922,
				"z": 0.6128020291,
				"element": "N" 
			},
			{
				"x": -2.3614379973,
				"y": -0.9661724888,
				"z": -1.7309376307,
				"element": "H" 
			},
			{
				"x": -1.981930406,
				"y": -0.3972117659,
				"z": -3.358780462,
				"element": "H" 
			},
			{
				"x": -2.4709005466,
				"y": 0.7612765966,
				"z": -2.1092143626,
				"element": "H" 
			},
			{
				"x": -0.0036818264,
				"y": 0.8623790705,
				"z": -2.4953873153,
				"element": "H" 
			},
			{
				"x": 1.4636070155,
				"y": -1.0884461335,
				"z": -1.9526175091,
				"element": "H" 
			},
			{
				"x": 0.3433680866,
				"y": -1.4895855106,
				"z": -3.266422657,
				"element": "H" 
			},
			{
				"x": 0.0397816756,
				"y": -2.0950487581,
				"z": -1.6360368909,
				"element": "H" 
			},
			{
				"x": 0.3519889138,
				"y": -0.3755109211,
				"z": 3.5245125374,
				"element": "H" 
			},
			{
				"x": -0.7002147762,
				"y": 1.0229027002,
				"z": 3.7225289747,
				"element": "H" 
			},
			{
				"x": -1.1067217967,
				"y": -1.1637024872,
				"z": 0.6249404613,
				"element": "H" 
			}
		],
		 "valence_orbital": [ 
			{
				"type": "occ",
				"energy": -0.34633,
				"method": "rhf"
			},
			{
				"type": "occ",
				"energy": -0.30982,
				"method": "rhf"
			},
			{
				"type": "occ",
				"energy": -0.30956,
				"method": "rhf"
			},
			{
				"type": "occ",
				"energy": -0.25998,
				"method": "rhf"
			},
			{
				"type": "occ",
				"energy": -0.25877,
				"method": "rhf"
			},
			{
				"type": "unocc",
				"energy": 0.00233,
				"method": "rhf"
			},
			{
				"type": "unocc",
				"energy": 0.01396,
				"method": "rhf"
			},
			{
				"type": "unocc",
				"energy": 0.01963,
				"method": "rhf"
			},
			{
				"type": "unocc",
				"energy": 0.04077,
				"method": "rhf"
			},
			{
				"type": "unocc",
				"energy": 0.04801,
				"method": "rhf"
			}
		],
		"cosmo_sigma_profile": { 
			"-0.025": 0.0,
			"-0.024": 0.0,
			"-0.023": 0.0,
			"-0.022": 0.0,
			"-0.021": 0.0,
			"-0.02": 0.0,
			"-0.019": 0.0,
			"-0.018": 0.0,
			"-0.017": 0.0283742974873,
			"-0.016": 0.57438533163,
			"-0.015": 0.796950329706,
			"-0.014": 1.15133143345,
			"-0.013": 1.54807473028,
			"-0.012": 2.08339435821,
			"-0.011": 2.30327105516,
			"-0.01": 7.54813920597,
			"-0.009": 6.83581572669,
			"-0.008": 6.38635294446,
			"-0.007": 6.38898741493,
			"-0.006": 5.09979634048,
			"-0.005": 3.71634633077,
			"-0.004": 13.7003651006,
			"-0.003": 18.5404909519,
			"-0.002": 20.1274599127,
			"-0.001": 18.96441914,
			"0.0": 20.2865534593,
			"0.001": 9.46945015781,
			"0.002": 3.86060668279,
			"0.003": 3.75498054337,
			"0.004": 2.95122600558,
			"0.005": 4.44774871584,
			"0.006": 4.4033892493,
			"0.007": 3.73061985137,
			"0.008": 5.30704042017,
			"0.009": 4.58285049931,
			"0.01": 4.85252598301,
			"0.011": 4.72400397348,
			"0.012": 4.36978494603,
			"0.013": 3.79078734835,
			"0.014": 3.70291168033,
			"0.015": 2.3962287867,
			"0.016": 2.40642970118,
			"0.017": 1.47880344337,
			"0.018": 0.172862502388,
			"0.019": 0.0,
			"0.02": 0.0,
			"0.021": 0.0,
			"0.022": 0.0,
			"0.023": 0.0,
			"0.024": 0.0,
			"0.025": 0.0
		}
	}
}
