{
	 "smiles": "CC(=O)OC1=C(C)C2(CCC1C1C2C(=O)NC1=O)OC(C)=O", 
	 "Tm": 435.15, 
	 "num_atms": 39, 
	 "gaussian": { 
		 "optdone": 1, 
		 "sigma_profile": "yes", 
		 "theory": "DFT", 
		 "functional": "B3LYP", 
		 "basiset": "6-31G**", 
		 "properties": { 
			 "R2extent": 7162.07, 
			 "electric_dipole_moment_norm": 1.98534572556, 
			 "electric_quadrupole_moment_norm": 22.3960805098, 
			 "total_energy": -1087.97869486, 
			 "HOMO_LUMO_gap": 0.22593, 
			 "cosmo_polarized_energy": -21.06, 
			 "cosmo_cavitation_energy": 40.3, 
			 "cosmo_dispersion_energy": -27.16, 
			 "cosmo_repulsion_energy": 2.07, 
			 "cosmo_total_nonelectrostatic_energy": 15.22, 
			 "SMD_solvation_energy": 9.55 
		},
		"coords": [
			{
				"x": 4.7851975449,
				"y": -0.1953200816,
				"z": 1.3829251645,
				"element": "C" 
			},
			{
				"x": 3.3207266176,
				"y": -0.0015787843,
				"z": 1.6817193554,
				"element": "C" 
			},
			{
				"x": 2.8406337484,
				"y": 0.8709213357,
				"z": 2.3621086006,
				"element": "O" 
			},
			{
				"x": 2.58269696,
				"y": -0.9815037896,
				"z": 1.0625798633,
				"element": "O" 
			},
			{
				"x": 1.2062398598,
				"y": -1.0340668958,
				"z": 1.2909856615,
				"element": "C" 
			},
			{
				"x": 0.3029611409,
				"y": -0.2456481029,
				"z": 0.6915420636,
				"element": "C" 
			},
			{
				"x": 0.5912030165,
				"y": 0.9052779533,
				"z": -0.2237075163,
				"element": "C" 
			},
			{
				"x": -1.1117840104,
				"y": -0.6066515932,
				"z": 1.1507349468,
				"element": "C" 
			},
			{
				"x": -1.4131465875,
				"y": -2.1028595919,
				"z": 0.8476514818,
				"element": "C" 
			},
			{
				"x": -0.2910289641,
				"y": -2.9936698771,
				"z": 1.4439663709,
				"element": "C" 
			},
			{
				"x": 0.69356483,
				"y": -2.0958880539,
				"z": 2.2338851133,
				"element": "C" 
			},
			{
				"x": -0.140519457,
				"y": -1.4007482221,
				"z": 3.3505762547,
				"element": "C" 
			},
			{
				"x": -1.160210595,
				"y": -0.4371195455,
				"z": 2.6998671727,
				"element": "C" 
			},
			{
				"x": -0.7435522771,
				"y": 0.9605375255,
				"z": 3.1896036431,
				"element": "C" 
			},
			{
				"x": -1.1914073678,
				"y": 2.0357681327,
				"z": 2.8565512431,
				"element": "O" 
			},
			{
				"x": 0.2599296281,
				"y": 0.7756170525,
				"z": 4.1362792214,
				"element": "N" 
			},
			{
				"x": 0.7189655558,
				"y": -0.5282290591,
				"z": 4.2634914249,
				"element": "C" 
			},
			{
				"x": 1.6331415552,
				"y": -0.8930688233,
				"z": 4.9710485076,
				"element": "O" 
			},
			{
				"x": -2.1456406633,
				"y": 0.2666680894,
				"z": 0.6541001601,
				"element": "O" 
			},
			{
				"x": -2.5209784635,
				"y": 0.2825217894,
				"z": -0.6491617905,
				"element": "C" 
			},
			{
				"x": -3.6614478038,
				"y": 1.2547208871,
				"z": -0.8376091923,
				"element": "C" 
			},
			{
				"x": -2.0145905058,
				"y": -0.3799988781,
				"z": -1.5285719995,
				"element": "O" 
			},
			{
				"x": 5.3470900971,
				"y": 0.6605880893,
				"z": 1.7549223008,
				"element": "H" 
			},
			{
				"x": 5.1392563274,
				"y": -1.107082094,
				"z": 1.8743068503,
				"element": "H" 
			},
			{
				"x": 4.9432921683,
				"y": -0.319395612,
				"z": 0.308474071,
				"element": "H" 
			},
			{
				"x": 1.6663024957,
				"y": 1.0377129773,
				"z": -0.352943189,
				"element": "H" 
			},
			{
				"x": 0.1790289788,
				"y": 1.8314825735,
				"z": 0.1917995844,
				"element": "H" 
			},
			{
				"x": 0.1392925596,
				"y": 0.744646311,
				"z": -1.2060833433,
				"element": "H" 
			},
			{
				"x": -1.4875920037,
				"y": -2.2288128505,
				"z": -0.2308362933,
				"element": "H" 
			},
			{
				"x": -2.3895264563,
				"y": -2.3465912056,
				"z": 1.2812821787,
				"element": "H" 
			},
			{
				"x": -0.7086152961,
				"y": -3.7584784522,
				"z": 2.1076852188,
				"element": "H" 
			},
			{
				"x": 0.2523604596,
				"y": -3.5139448022,
				"z": 0.6507049261,
				"element": "H" 
			},
			{
				"x": 1.5136851315,
				"y": -2.6680126128,
				"z": 2.6723043781,
				"element": "H" 
			},
			{
				"x": -0.6189133329,
				"y": -2.1700100564,
				"z": 3.9652414136,
				"element": "H" 
			},
			{
				"x": -2.1874243355,
				"y": -0.6202565472,
				"z": 3.0320817097,
				"element": "H" 
			},
			{
				"x": 0.7570400566,
				"y": 1.5583152936,
				"z": 4.5429018504,
				"element": "H" 
			},
			{
				"x": -3.9145910568,
				"y": 1.3153808541,
				"z": -1.8955302195,
				"element": "H" 
			},
			{
				"x": -4.5325733825,
				"y": 0.9218083954,
				"z": -0.2651557323,
				"element": "H" 
			},
			{
				"x": -3.3800661728,
				"y": 2.2393682714,
				"z": -0.4544214553,
				"element": "H" 
			}
		],
		 "valence_orbital": [ 
			{
				"type": "occ",
				"energy": -0.28062,
				"method": "rhf"
			},
			{
				"type": "occ",
				"energy": -0.27862,
				"method": "rhf"
			},
			{
				"type": "occ",
				"energy": -0.27399,
				"method": "rhf"
			},
			{
				"type": "occ",
				"energy": -0.24989,
				"method": "rhf"
			},
			{
				"type": "occ",
				"energy": -0.24423,
				"method": "rhf"
			},
			{
				"type": "unocc",
				"energy": -0.0183,
				"method": "rhf"
			},
			{
				"type": "unocc",
				"energy": 0.0001,
				"method": "rhf"
			},
			{
				"type": "unocc",
				"energy": 0.00367,
				"method": "rhf"
			},
			{
				"type": "unocc",
				"energy": 0.01179,
				"method": "rhf"
			},
			{
				"type": "unocc",
				"energy": 0.01926,
				"method": "rhf"
			}
		],
		"cosmo_sigma_profile": { 
			"-0.025": 0.0,
			"-0.024": 0.0,
			"-0.023": 0.0,
			"-0.022": 0.0,
			"-0.021": 0.0,
			"-0.02": 0.0,
			"-0.019": 0.0,
			"-0.018": 0.0,
			"-0.017": 0.0221512492629,
			"-0.016": 1.2792778699,
			"-0.015": 0.722162131598,
			"-0.014": 0.652009680119,
			"-0.013": 0.717961571872,
			"-0.012": 0.871164506855,
			"-0.011": 0.48560700415,
			"-0.01": 0.851478259022,
			"-0.009": 0.793042086251,
			"-0.008": 3.62900824947,
			"-0.007": 15.54397708,
			"-0.006": 19.0566056131,
			"-0.005": 22.0661434295,
			"-0.004": 26.9667285246,
			"-0.003": 32.4285265298,
			"-0.002": 34.8298615666,
			"-0.001": 25.8256655175,
			"0.0": 16.6548924167,
			"0.001": 11.386960939,
			"0.002": 9.94976355926,
			"0.003": 11.3664140362,
			"0.004": 8.17566989343,
			"0.005": 8.75073505106,
			"0.006": 8.64114938298,
			"0.007": 5.90512561143,
			"0.008": 7.75431238353,
			"0.009": 7.73043041679,
			"0.01": 6.3690445615,
			"0.011": 11.5292828622,
			"0.012": 12.8876109277,
			"0.013": 2.62482718367,
			"0.014": 0.0,
			"0.015": 0.0,
			"0.016": 0.0,
			"0.017": 0.0,
			"0.018": 0.0,
			"0.019": 0.0,
			"0.02": 0.0,
			"0.021": 0.0,
			"0.022": 0.0,
			"0.023": 0.0,
			"0.024": 0.0,
			"0.025": 0.0
		}
	}
}
