{
	 "smiles": "CCSC(SCC)C(O)C(O)C(O)CO", 
	 "Tm": 400.15, 
	 "num_atms": 35, 
	 "gaussian": { 
		 "optdone": 1, 
		 "sigma_profile": "yes", 
		 "theory": "DFT", 
		 "functional": "B3LYP", 
		 "basiset": "6-31G**", 
		 "properties": { 
			 "R2extent": 4930.6155, 
			 "electric_dipole_moment_norm": 2.77279467866, 
			 "electric_quadrupole_moment_norm": 12.5505765625, 
			 "total_energy": -1452.26246064, 
			 "HOMO_LUMO_gap": 0.24111, 
			 "cosmo_polarized_energy": -15.57, 
			 "cosmo_cavitation_energy": 37.54, 
			 "cosmo_dispersion_energy": -26.71, 
			 "cosmo_repulsion_energy": 2.06, 
			 "cosmo_total_nonelectrostatic_energy": 12.89, 
			 "SMD_solvation_energy": 5.43 
		},
		"coords": [
			{
				"x": -2.8719458811,
				"y": -2.511561753,
				"z": -3.0838096494,
				"element": "C" 
			},
			{
				"x": -1.6359703204,
				"y": -2.2110591919,
				"z": -2.2360217944,
				"element": "C" 
			},
			{
				"x": -2.1787858003,
				"y": -1.9531142352,
				"z": -0.4910229686,
				"element": "S" 
			},
			{
				"x": -0.6321830525,
				"y": -1.6708063321,
				"z": 0.4563421923,
				"element": "C" 
			},
			{
				"x": 0.5217293336,
				"y": -3.1090850804,
				"z": 0.2153204651,
				"element": "S" 
			},
			{
				"x": 1.7929371817,
				"y": -2.8354966484,
				"z": 1.5314227088,
				"element": "C" 
			},
			{
				"x": 3.0983475247,
				"y": -2.2115537224,
				"z": 1.0380081061,
				"element": "C" 
			},
			{
				"x": 0.0882072545,
				"y": -0.3286648699,
				"z": 0.2108574354,
				"element": "C" 
			},
			{
				"x": 0.6509087197,
				"y": -0.2618667795,
				"z": -1.0975418214,
				"element": "O" 
			},
			{
				"x": -0.8319308306,
				"y": 0.8822991843,
				"z": 0.3809698811,
				"element": "C" 
			},
			{
				"x": -1.5509358902,
				"y": 0.6951750676,
				"z": 1.5910126927,
				"element": "O" 
			},
			{
				"x": -0.1196434712,
				"y": 2.2502451945,
				"z": 0.4518088325,
				"element": "C" 
			},
			{
				"x": -1.1510209219,
				"y": 3.2342633046,
				"z": 0.6077300662,
				"element": "O" 
			},
			{
				"x": 0.7834494319,
				"y": 2.6009991034,
				"z": -0.7298530016,
				"element": "C" 
			},
			{
				"x": 0.0991280722,
				"y": 2.4570708165,
				"z": -1.9687449535,
				"element": "O" 
			},
			{
				"x": -2.5775154058,
				"y": -2.669216364,
				"z": -4.1264545596,
				"element": "H" 
			},
			{
				"x": -3.5862231019,
				"y": -1.682836935,
				"z": -3.0569308129,
				"element": "H" 
			},
			{
				"x": -3.3838570074,
				"y": -3.4139518841,
				"z": -2.7362326694,
				"element": "H" 
			},
			{
				"x": -0.9344875599,
				"y": -3.0487618744,
				"z": -2.2749653664,
				"element": "H" 
			},
			{
				"x": -1.1251971092,
				"y": -1.3131638301,
				"z": -2.5877857211,
				"element": "H" 
			},
			{
				"x": -0.9814381038,
				"y": -1.6811608099,
				"z": 1.4910569803,
				"element": "H" 
			},
			{
				"x": 1.9791119406,
				"y": -3.8273204092,
				"z": 1.953434009,
				"element": "H" 
			},
			{
				"x": 1.331345172,
				"y": -2.2372406722,
				"z": 2.3230689649,
				"element": "H" 
			},
			{
				"x": 3.8062337006,
				"y": -2.1063230153,
				"z": 1.8684679985,
				"element": "H" 
			},
			{
				"x": 2.936768997,
				"y": -1.2204161592,
				"z": 0.6037971817,
				"element": "H" 
			},
			{
				"x": 3.5667272407,
				"y": -2.8388116132,
				"z": 0.2738637474,
				"element": "H" 
			},
			{
				"x": 0.885830085,
				"y": -0.255388821,
				"z": 0.9683542072,
				"element": "H" 
			},
			{
				"x": 1.0801119893,
				"y": -1.1193077931,
				"z": -1.2595143216,
				"element": "H" 
			},
			{
				"x": -1.5171578709,
				"y": 0.8955636299,
				"z": -0.4798407855,
				"element": "H" 
			},
			{
				"x": -2.0039146666,
				"y": 1.5389934109,
				"z": 1.743642671,
				"element": "H" 
			},
			{
				"x": 0.4647272705,
				"y": 2.2843336598,
				"z": 1.38017173,
				"element": "H" 
			},
			{
				"x": -1.5125737012,
				"y": 3.3732957179,
				"z": -0.2818697425,
				"element": "H" 
			},
			{
				"x": 1.6979741488,
				"y": 1.9965212246,
				"z": -0.7042324614,
				"element": "H" 
			},
			{
				"x": 1.0655873072,
				"y": 3.6554872056,
				"z": -0.639362818,
				"element": "H" 
			},
			{
				"x": 0.1178553249,
				"y": 1.5062612738,
				"z": -2.1587464228,
				"element": "H" 
			}
		],
		 "valence_orbital": [ 
			{
				"type": "occ",
				"energy": -0.28746,
				"method": "rhf"
			},
			{
				"type": "occ",
				"energy": -0.28019,
				"method": "rhf"
			},
			{
				"type": "occ",
				"energy": -0.25188,
				"method": "rhf"
			},
			{
				"type": "occ",
				"energy": -0.24041,
				"method": "rhf"
			},
			{
				"type": "occ",
				"energy": -0.22372,
				"method": "rhf"
			},
			{
				"type": "unocc",
				"energy": 0.01739,
				"method": "rhf"
			},
			{
				"type": "unocc",
				"energy": 0.02808,
				"method": "rhf"
			},
			{
				"type": "unocc",
				"energy": 0.05302,
				"method": "rhf"
			},
			{
				"type": "unocc",
				"energy": 0.06805,
				"method": "rhf"
			},
			{
				"type": "unocc",
				"energy": 0.07328,
				"method": "rhf"
			}
		],
		"cosmo_sigma_profile": { 
			"-0.025": 0.0,
			"-0.024": 0.0,
			"-0.023": 0.0,
			"-0.022": 0.0,
			"-0.021": 0.0,
			"-0.02": 0.0,
			"-0.019": 0.0,
			"-0.018": 0.0,
			"-0.017": 0.0,
			"-0.016": 0.0,
			"-0.015": 0.0,
			"-0.014": 0.230455433922,
			"-0.013": 0.553126811944,
			"-0.012": 0.971693957218,
			"-0.011": 1.18812660062,
			"-0.01": 2.15816315255,
			"-0.009": 1.61129880506,
			"-0.008": 2.85554338254,
			"-0.007": 6.39642075965,
			"-0.006": 9.03800138896,
			"-0.005": 16.5064159365,
			"-0.004": 26.8762414293,
			"-0.003": 34.9795806835,
			"-0.002": 35.2537124423,
			"-0.001": 27.5246518964,
			"0.0": 28.0870141905,
			"0.001": 15.9180043883,
			"0.002": 8.20837598564,
			"0.003": 9.25212111842,
			"0.004": 7.41236248007,
			"0.005": 8.88098034874,
			"0.006": 8.42005134036,
			"0.007": 7.57002749687,
			"0.008": 6.47931510171,
			"0.009": 6.55140541188,
			"0.01": 7.64087068574,
			"0.011": 4.88470182089,
			"0.012": 3.10883980045,
			"0.013": 2.49297577395,
			"0.014": 2.1799639753,
			"0.015": 0.396994685775,
			"0.016": 0.0,
			"0.017": 0.0,
			"0.018": 0.0,
			"0.019": 0.0,
			"0.02": 0.0,
			"0.021": 0.0,
			"0.022": 0.0,
			"0.023": 0.0,
			"0.024": 0.0,
			"0.025": 0.0
		}
	}
}
