{
	 "smiles": "NC(=S)C1=C(F)C=CC=C1", 
	 "Tm": 355.15, 
	 "num_atms": 16, 
	 "gaussian": { 
		 "optdone": 1, 
		 "sigma_profile": "yes", 
		 "theory": "DFT", 
		 "functional": "B3LYP", 
		 "basiset": "6-31G**", 
		 "properties": { 
			 "R2extent": 2571.4012, 
			 "electric_dipole_moment_norm": 4.1105706234, 
			 "electric_quadrupole_moment_norm": 11.0959691303, 
			 "total_energy": -823.143696672, 
			 "HOMO_LUMO_gap": 0.14207, 
			 "cosmo_polarized_energy": -11.82, 
			 "cosmo_cavitation_energy": 21.86, 
			 "cosmo_dispersion_energy": -16.99, 
			 "cosmo_repulsion_energy": 1.3, 
			 "cosmo_total_nonelectrostatic_energy": 6.17, 
			 "SMD_solvation_energy": 3.25 
		},
		"coords": [
			{
				"x": 1.8495166893,
				"y": -1.3728981073,
				"z": -2.3906914061,
				"element": "N" 
			},
			{
				"x": 0.8959757023,
				"y": -0.5720601419,
				"z": -1.8778632479,
				"element": "C" 
			},
			{
				"x": 1.004184358,
				"y": 1.089716902,
				"z": -2.0669979902,
				"element": "S" 
			},
			{
				"x": -0.2327633412,
				"y": -1.2368409353,
				"z": -1.1503105944,
				"element": "C" 
			},
			{
				"x": -0.3718548066,
				"y": -2.6225871546,
				"z": -0.9602838171,
				"element": "C" 
			},
			{
				"x": 0.5586049921,
				"y": -3.4936015957,
				"z": -1.450715352,
				"element": "F" 
			},
			{
				"x": -1.4348202126,
				"y": -3.199995528,
				"z": -0.2789438122,
				"element": "C" 
			},
			{
				"x": -2.4258615282,
				"y": -2.3784122461,
				"z": 0.251524313,
				"element": "C" 
			},
			{
				"x": -2.332575208,
				"y": -0.9937450173,
				"z": 0.0890126933,
				"element": "C" 
			},
			{
				"x": -1.2572676609,
				"y": -0.4433652836,
				"z": -0.5975597306,
				"element": "C" 
			},
			{
				"x": 1.8177595049,
				"y": -2.3758321934,
				"z": -2.2968573204,
				"element": "H" 
			},
			{
				"x": 2.6123509775,
				"y": -0.9316412424,
				"z": -2.8818599909,
				"element": "H" 
			},
			{
				"x": -1.4637151627,
				"y": -4.2793815216,
				"z": -0.1785088948,
				"element": "H" 
			},
			{
				"x": -3.2619311483,
				"y": -2.8185300273,
				"z": 0.7862980312,
				"element": "H" 
			},
			{
				"x": -3.0983574925,
				"y": -0.3423807285,
				"z": 0.4976292349,
				"element": "H" 
			},
			{
				"x": -1.171545663,
				"y": 0.6294548211,
				"z": -0.7314721158,
				"element": "H" 
			}
		],
		 "valence_orbital": [ 
			{
				"type": "occ",
				"energy": -0.34623,
				"method": "rhf"
			},
			{
				"type": "occ",
				"energy": -0.27583,
				"method": "rhf"
			},
			{
				"type": "occ",
				"energy": -0.26347,
				"method": "rhf"
			},
			{
				"type": "occ",
				"energy": -0.22472,
				"method": "rhf"
			},
			{
				"type": "occ",
				"energy": -0.20993,
				"method": "rhf"
			},
			{
				"type": "unocc",
				"energy": -0.06786,
				"method": "rhf"
			},
			{
				"type": "unocc",
				"energy": -0.01555,
				"method": "rhf"
			},
			{
				"type": "unocc",
				"energy": 0.02342,
				"method": "rhf"
			},
			{
				"type": "unocc",
				"energy": 0.07164,
				"method": "rhf"
			},
			{
				"type": "unocc",
				"energy": 0.08425,
				"method": "rhf"
			}
		],
		"cosmo_sigma_profile": { 
			"-0.025": 0.0,
			"-0.024": 0.0,
			"-0.023": 0.0,
			"-0.022": 0.0,
			"-0.021": 0.0,
			"-0.02": 0.0,
			"-0.019": 0.0,
			"-0.018": 0.0,
			"-0.017": 0.0,
			"-0.016": 0.0,
			"-0.015": 0.663115151712,
			"-0.014": 1.18381669965,
			"-0.013": 2.02598615792,
			"-0.012": 1.67261004133,
			"-0.011": 1.99871512804,
			"-0.01": 1.83048902538,
			"-0.009": 1.2511520496,
			"-0.008": 3.7313847574,
			"-0.007": 6.24633261082,
			"-0.006": 8.36283059361,
			"-0.005": 10.2814080831,
			"-0.004": 9.88639846831,
			"-0.003": 8.57674128893,
			"-0.002": 8.9054467116,
			"-0.001": 12.6862884511,
			"0.0": 11.4577954889,
			"0.001": 14.7438265859,
			"0.002": 18.4419271176,
			"0.003": 15.7082019274,
			"0.004": 5.11341667677,
			"0.005": 4.29657191105,
			"0.006": 3.56082758835,
			"0.007": 4.51378170833,
			"0.008": 5.51209531434,
			"0.009": 7.69642658372,
			"0.01": 5.02060457501,
			"0.011": 2.60513375688,
			"0.012": 0.62808597916,
			"0.013": 0.0,
			"0.014": 0.0,
			"0.015": 0.0,
			"0.016": 0.0,
			"0.017": 0.0,
			"0.018": 0.0,
			"0.019": 0.0,
			"0.02": 0.0,
			"0.021": 0.0,
			"0.022": 0.0,
			"0.023": 0.0,
			"0.024": 0.0,
			"0.025": 0.0
		}
	}
}
