{
	 "smiles": "CCCC(C)C(O)=O", 
	 "Tm": 188.15, 
	 "num_atms": 20, 
	 "gaussian": { 
		 "optdone": 1, 
		 "sigma_profile": "yes", 
		 "theory": "DFT", 
		 "functional": "B3LYP", 
		 "basiset": "6-31G**", 
		 "properties": { 
			 "R2extent": 1489.9803, 
			 "electric_dipole_moment_norm": 1.41811478379, 
			 "electric_quadrupole_moment_norm": 3.83671795289, 
			 "total_energy": -386.351462022, 
			 "HOMO_LUMO_gap": 0.28065, 
			 "cosmo_polarized_energy": -7.49, 
			 "cosmo_cavitation_energy": 22.66, 
			 "cosmo_dispersion_energy": -16.17, 
			 "cosmo_repulsion_energy": 1.39, 
			 "cosmo_total_nonelectrostatic_energy": 7.88, 
			 "SMD_solvation_energy": 5.02 
		},
		"coords": [
			{
				"x": -0.2126859569,
				"y": 2.6664136484,
				"z": 1.8449225594,
				"element": "C" 
			},
			{
				"x": 0.2952209015,
				"y": 2.1643309603,
				"z": 0.489615794,
				"element": "C" 
			},
			{
				"x": -0.4935277737,
				"y": 0.9541305503,
				"z": -0.0276416722,
				"element": "C" 
			},
			{
				"x": -0.0360856644,
				"y": 0.439495022,
				"z": -1.4002825615,
				"element": "C" 
			},
			{
				"x": -0.9929852304,
				"y": -0.6333546465,
				"z": -1.9650166419,
				"element": "C" 
			},
			{
				"x": 1.3627028724,
				"y": -0.1532011185,
				"z": -1.3313100651,
				"element": "C" 
			},
			{
				"x": 1.9727380131,
				"y": -0.1455660883,
				"z": -2.5438165555,
				"element": "O" 
			},
			{
				"x": 1.8931611977,
				"y": -0.6229427238,
				"z": -0.3472376195,
				"element": "O" 
			},
			{
				"x": -1.2645689791,
				"y": 2.9700312633,
				"z": 1.7887546872,
				"element": "H" 
			},
			{
				"x": 0.364088989,
				"y": 3.5298433378,
				"z": 2.1920151674,
				"element": "H" 
			},
			{
				"x": -0.1342421964,
				"y": 1.8852874743,
				"z": 2.6093200108,
				"element": "H" 
			},
			{
				"x": 0.2377822936,
				"y": 2.9777106432,
				"z": -0.2471387872,
				"element": "H" 
			},
			{
				"x": 1.3539873895,
				"y": 1.8937543859,
				"z": 0.5759398979,
				"element": "H" 
			},
			{
				"x": -0.4178555338,
				"y": 0.1331029333,
				"z": 0.6953500598,
				"element": "H" 
			},
			{
				"x": -1.5569491123,
				"y": 1.2183102536,
				"z": -0.0993901963,
				"element": "H" 
			},
			{
				"x": 0.0020002195,
				"y": 1.2704328939,
				"z": -2.1158355321,
				"element": "H" 
			},
			{
				"x": -0.6605420581,
				"y": -0.986016823,
				"z": -2.9451435841,
				"element": "H" 
			},
			{
				"x": -1.9995921458,
				"y": -0.2182715929,
				"z": -2.0726345313,
				"element": "H" 
			},
			{
				"x": -1.0509262324,
				"y": -1.4935782513,
				"z": -1.2899529726,
				"element": "H" 
			},
			{
				"x": 2.832679007,
				"y": -0.5802121218,
				"z": -2.4139174572,
				"element": "H" 
			}
		],
		 "valence_orbital": [ 
			{
				"type": "occ",
				"energy": -0.32993,
				"method": "rhf"
			},
			{
				"type": "occ",
				"energy": -0.32688,
				"method": "rhf"
			},
			{
				"type": "occ",
				"energy": -0.32164,
				"method": "rhf"
			},
			{
				"type": "occ",
				"energy": -0.31277,
				"method": "rhf"
			},
			{
				"type": "occ",
				"energy": -0.27057,
				"method": "rhf"
			},
			{
				"type": "unocc",
				"energy": 0.01008,
				"method": "rhf"
			},
			{
				"type": "unocc",
				"energy": 0.07848,
				"method": "rhf"
			},
			{
				"type": "unocc",
				"energy": 0.09557,
				"method": "rhf"
			},
			{
				"type": "unocc",
				"energy": 0.11411,
				"method": "rhf"
			},
			{
				"type": "unocc",
				"energy": 0.12581,
				"method": "rhf"
			}
		],
		"cosmo_sigma_profile": { 
			"-0.025": 0.0,
			"-0.024": 0.0,
			"-0.023": 0.0,
			"-0.022": 0.0,
			"-0.021": 0.0,
			"-0.02": 0.0,
			"-0.019": 0.0,
			"-0.018": 0.476972655523,
			"-0.017": 0.738535818543,
			"-0.016": 1.03671779522,
			"-0.015": 1.1320439097,
			"-0.014": 0.418079083131,
			"-0.013": 0.460865642156,
			"-0.012": 0.380527500968,
			"-0.011": 0.676602260044,
			"-0.01": 1.06846536361,
			"-0.009": 0.766439591224,
			"-0.008": 0.607088224432,
			"-0.007": 0.718929359066,
			"-0.006": 0.945604011305,
			"-0.005": 1.33515388193,
			"-0.004": 6.841626857,
			"-0.003": 17.039876596,
			"-0.002": 28.5673951916,
			"-0.001": 27.575407335,
			"0.0": 24.4536310046,
			"0.001": 20.2366283543,
			"0.002": 8.867074235,
			"0.003": 3.56141625433,
			"0.004": 2.43810295796,
			"0.005": 2.50543097286,
			"0.006": 3.21694897019,
			"0.007": 2.33733758809,
			"0.008": 2.94432772371,
			"0.009": 2.5618249901,
			"0.01": 2.62690918007,
			"0.011": 2.74429614418,
			"0.012": 4.80543567851,
			"0.013": 1.02030127149,
			"0.014": 0.0,
			"0.015": 0.0,
			"0.016": 0.0,
			"0.017": 0.0,
			"0.018": 0.0,
			"0.019": 0.0,
			"0.02": 0.0,
			"0.021": 0.0,
			"0.022": 0.0,
			"0.023": 0.0,
			"0.024": 0.0,
			"0.025": 0.0
		}
	}
}
