{
	 "smiles": "OC(=O)C1=CC=CC=C1C1=C2C=C(Br)C(=O)C(Br)=C2OC2=C(Br)C(O)=C(Br)C=C12", 
	 "Tm": 571.15, 
	 "num_atms": 37, 
	 "gaussian": { 
		 "optdone": 1, 
		 "sigma_profile": "yes", 
		 "theory": "DFT", 
		 "functional": "B3LYP", 
		 "basiset": "6-31G**", 
		 "properties": { 
			 "R2extent": 23795.2494, 
			 "electric_dipole_moment_norm": 9.94060629992, 
			 "electric_quadrupole_moment_norm": 31.4617182833, 
			 "total_energy": -11428.6565106, 
			 "HOMO_LUMO_gap": 0.10798, 
			 "cosmo_polarized_energy": -32.7, 
			 "cosmo_cavitation_energy": 51.92, 
			 "cosmo_dispersion_energy": -36.18, 
			 "cosmo_repulsion_energy": 2.74, 
			 "cosmo_total_nonelectrostatic_energy": 18.48, 
			 "SMD_solvation_energy": 6.43 
		},
		"coords": [
			{
				"x": 4.2054363659,
				"y": 0.4566720007,
				"z": -0.9241700982,
				"element": "O" 
			},
			{
				"x": 2.9208508182,
				"y": 0.1115386881,
				"z": -0.6497629993,
				"element": "C" 
			},
			{
				"x": 2.3813630661,
				"y": -0.7666458582,
				"z": -1.2779369381,
				"element": "O" 
			},
			{
				"x": 2.254648922,
				"y": 0.8681277599,
				"z": 0.4670013515,
				"element": "C" 
			},
			{
				"x": 3.0102604691,
				"y": 1.3433986877,
				"z": 1.54882109,
				"element": "C" 
			},
			{
				"x": 2.4035856975,
				"y": 2.0018744706,
				"z": 2.616989448,
				"element": "C" 
			},
			{
				"x": 1.0236315061,
				"y": 2.1969637792,
				"z": 2.6092245827,
				"element": "C" 
			},
			{
				"x": 0.2587590551,
				"y": 1.7206223742,
				"z": 1.5433293941,
				"element": "C" 
			},
			{
				"x": 0.8519504965,
				"y": 1.0429812325,
				"z": 0.4698045933,
				"element": "C" 
			},
			{
				"x": -0.0251204249,
				"y": 0.5669215424,
				"z": -0.6432486102,
				"element": "C" 
			},
			{
				"x": -0.8590927004,
				"y": -0.5203901988,
				"z": -0.4808626013,
				"element": "C" 
			},
			{
				"x": -0.9014122706,
				"y": -1.3138315088,
				"z": 0.7225818643,
				"element": "C" 
			},
			{
				"x": -1.7439745438,
				"y": -2.3645498476,
				"z": 0.8422598738,
				"element": "C" 
			},
			{
				"x": -1.7833876998,
				"y": -3.3868803991,
				"z": 2.436478596,
				"element": "Br" 
			},
			{
				"x": -2.676981854,
				"y": -2.7928623894,
				"z": -0.23447522,
				"element": "C" 
			},
			{
				"x": -3.4444839356,
				"y": -3.7379014999,
				"z": -0.1063238316,
				"element": "O" 
			},
			{
				"x": -2.5864376379,
				"y": -1.982241751,
				"z": -1.4581577254,
				"element": "C" 
			},
			{
				"x": -3.7159528767,
				"y": -2.4749809862,
				"z": -2.8910447853,
				"element": "Br" 
			},
			{
				"x": -1.7313941996,
				"y": -0.9253578772,
				"z": -1.5663462555,
				"element": "C" 
			},
			{
				"x": -1.7045325924,
				"y": -0.2322720017,
				"z": -2.7463992113,
				"element": "O" 
			},
			{
				"x": -0.9050244577,
				"y": 0.8439526193,
				"z": -2.9128684598,
				"element": "C" 
			},
			{
				"x": -0.9634057619,
				"y": 1.5027911369,
				"z": -4.1422653137,
				"element": "C" 
			},
			{
				"x": -2.114435406,
				"y": 0.8753469891,
				"z": -5.5186382542,
				"element": "Br" 
			},
			{
				"x": -0.1803293196,
				"y": 2.6408641576,
				"z": -4.3875438821,
				"element": "C" 
			},
			{
				"x": -0.2057639908,
				"y": 3.3021952234,
				"z": -5.5528963183,
				"element": "O" 
			},
			{
				"x": 0.6609309845,
				"y": 3.1079625558,
				"z": -3.3542072427,
				"element": "C" 
			},
			{
				"x": 1.7167729417,
				"y": 4.6589896315,
				"z": -3.6485338044,
				"element": "Br" 
			},
			{
				"x": 0.7192532035,
				"y": 2.4538941896,
				"z": -2.1393392542,
				"element": "C" 
			},
			{
				"x": -0.0500662145,
				"y": 1.3001162104,
				"z": -1.8886301263,
				"element": "C" 
			},
			{
				"x": 4.4441049063,
				"y": 1.2721497698,
				"z": -0.4615794248,
				"element": "H" 
			},
			{
				"x": 4.0804679575,
				"y": 1.1572739263,
				"z": 1.5815155399,
				"element": "H" 
			},
			{
				"x": 3.004417232,
				"y": 2.35086904,
				"z": 3.4507662752,
				"element": "H" 
			},
			{
				"x": 0.5379909844,
				"y": 2.7119130756,
				"z": 3.4322823254,
				"element": "H" 
			},
			{
				"x": -0.8162330748,
				"y": 1.8717009454,
				"z": 1.5389680357,
				"element": "H" 
			},
			{
				"x": -0.2378152114,
				"y": -1.0525633345,
				"z": 1.5365912972,
				"element": "H" 
			},
			{
				"x": -0.8289735403,
				"y": 2.8549214384,
				"z": -6.1520718979,
				"element": "H" 
			},
			{
				"x": 1.3672931064,
				"y": 2.8422362081,
				"z": -1.3644120124,
				"element": "H" 
			}
		],
		 "valence_orbital": [ 
			{
				"type": "occ",
				"energy": -0.27123,
				"method": "rhf"
			},
			{
				"type": "occ",
				"energy": -0.26707,
				"method": "rhf"
			},
			{
				"type": "occ",
				"energy": -0.25039,
				"method": "rhf"
			},
			{
				"type": "occ",
				"energy": -0.24356,
				"method": "rhf"
			},
			{
				"type": "occ",
				"energy": -0.2161,
				"method": "rhf"
			},
			{
				"type": "unocc",
				"energy": -0.10812,
				"method": "rhf"
			},
			{
				"type": "unocc",
				"energy": -0.07643,
				"method": "rhf"
			},
			{
				"type": "unocc",
				"energy": -0.05419,
				"method": "rhf"
			},
			{
				"type": "unocc",
				"energy": -0.04318,
				"method": "rhf"
			},
			{
				"type": "unocc",
				"energy": -0.03671,
				"method": "rhf"
			}
		],
		"cosmo_sigma_profile": { 
			"-0.025": 0.0,
			"-0.024": 0.0,
			"-0.023": 0.0,
			"-0.022": 0.0,
			"-0.021": 0.0,
			"-0.02": 0.0,
			"-0.019": 0.374528292392,
			"-0.018": 0.847706727562,
			"-0.017": 0.842948080488,
			"-0.016": 1.95680019562,
			"-0.015": 1.56979391046,
			"-0.014": 1.53055068598,
			"-0.013": 1.57165591365,
			"-0.012": 2.74325190525,
			"-0.011": 2.24903991952,
			"-0.01": 2.57160934423,
			"-0.009": 3.41597438915,
			"-0.008": 7.52908078146,
			"-0.007": 16.076310437,
			"-0.006": 17.5362799873,
			"-0.005": 20.5912419673,
			"-0.004": 23.5831901544,
			"-0.003": 31.8289909035,
			"-0.002": 35.5422559678,
			"-0.001": 31.1719484994,
			"0.0": 32.1014265904,
			"0.001": 33.515247535,
			"0.002": 30.2705627501,
			"0.003": 30.695082476,
			"0.004": 29.5749679982,
			"0.005": 15.3504821161,
			"0.006": 8.41978340743,
			"0.007": 8.16380361604,
			"0.008": 6.70879534158,
			"0.009": 7.94263489058,
			"0.01": 6.39658779008,
			"0.011": 6.2479354358,
			"0.012": 6.50085659801,
			"0.013": 5.86160759869,
			"0.014": 1.49666280358,
			"0.015": 0.0,
			"0.016": 0.0,
			"0.017": 0.0,
			"0.018": 0.0,
			"0.019": 0.0,
			"0.02": 0.0,
			"0.021": 0.0,
			"0.022": 0.0,
			"0.023": 0.0,
			"0.024": 0.0,
			"0.025": 0.0
		}
	}
}
