{
	 "smiles": "OC1=CC(=NC2=CC=C(Cl)C=C12)C(F)(F)F", 
	 "Tm": 557.15, 
	 "num_atms": 21, 
	 "gaussian": { 
		 "optdone": 1, 
		 "sigma_profile": "yes", 
		 "theory": "DFT", 
		 "functional": "B3LYP", 
		 "basiset": "6-31G**", 
		 "properties": { 
			 "R2extent": 5706.8731, 
			 "electric_dipole_moment_norm": 2.86692198882, 
			 "electric_quadrupole_moment_norm": 15.8923276417, 
			 "total_energy": -1273.77733462, 
			 "HOMO_LUMO_gap": 0.17145, 
			 "cosmo_polarized_energy": -11.65, 
			 "cosmo_cavitation_energy": 29.33, 
			 "cosmo_dispersion_energy": -21.4, 
			 "cosmo_repulsion_energy": 1.59, 
			 "cosmo_total_nonelectrostatic_energy": 9.52, 
			 "SMD_solvation_energy": 4.78 
		},
		"coords": [
			{
				"x": 2.442500156,
				"y": 1.407750767,
				"z": -0.477204751,
				"element": "O" 
			},
			{
				"x": 1.5044524915,
				"y": 0.4766426789,
				"z": -0.1860465041,
				"element": "C" 
			},
			{
				"x": 0.1747334407,
				"y": 0.5912694261,
				"z": -0.5418777927,
				"element": "C" 
			},
			{
				"x": -0.7035765464,
				"y": -0.4519550412,
				"z": -0.1774283185,
				"element": "C" 
			},
			{
				"x": -0.359512702,
				"y": -1.5377860237,
				"z": 0.4804617922,
				"element": "N" 
			},
			{
				"x": 0.9490790478,
				"y": -1.661946839,
				"z": 0.8366280061,
				"element": "C" 
			},
			{
				"x": 1.3502309511,
				"y": -2.824099432,
				"z": 1.5479544472,
				"element": "C" 
			},
			{
				"x": 2.6588046491,
				"y": -3.0003729277,
				"z": 1.9321277145,
				"element": "C" 
			},
			{
				"x": 3.6211835785,
				"y": -2.01108494,
				"z": 1.6153062285,
				"element": "C" 
			},
			{
				"x": 5.282689679,
				"y": -2.2667125862,
				"z": 2.1202329542,
				"element": "Cl" 
			},
			{
				"x": 3.284595814,
				"y": -0.8676343789,
				"z": 0.9282420153,
				"element": "C" 
			},
			{
				"x": 1.9388999354,
				"y": -0.677652946,
				"z": 0.5285063347,
				"element": "C" 
			},
			{
				"x": -2.1748810434,
				"y": -0.36603507,
				"z": -0.54797868,
				"element": "C" 
			},
			{
				"x": -2.5447564734,
				"y": -1.3967540602,
				"z": -1.3287113176,
				"element": "F" 
			},
			{
				"x": -2.4465735147,
				"y": 0.7754411931,
				"z": -1.2263359143,
				"element": "F" 
			},
			{
				"x": -2.9572040968,
				"y": -0.3805448456,
				"z": 0.5460464761,
				"element": "F" 
			},
			{
				"x": 2.0368693997,
				"y": 2.1409215609,
				"z": -0.9597504235,
				"element": "H" 
			},
			{
				"x": -0.1952839081,
				"y": 1.4532295125,
				"z": -1.0856319888,
				"element": "H" 
			},
			{
				"x": 0.5895672448,
				"y": -3.5630186597,
				"z": 1.7753539637,
				"element": "H" 
			},
			{
				"x": 2.9660370392,
				"y": -3.8871833286,
				"z": 2.475191967,
				"element": "H" 
			},
			{
				"x": 4.0290448579,
				"y": -0.1177740595,
				"z": 0.6914137911,
				"element": "H" 
			}
		],
		 "valence_orbital": [ 
			{
				"type": "occ",
				"energy": -0.32147,
				"method": "rhf"
			},
			{
				"type": "occ",
				"energy": -0.29751,
				"method": "rhf"
			},
			{
				"type": "occ",
				"energy": -0.27923,
				"method": "rhf"
			},
			{
				"type": "occ",
				"energy": -0.26779,
				"method": "rhf"
			},
			{
				"type": "occ",
				"energy": -0.2401,
				"method": "rhf"
			},
			{
				"type": "unocc",
				"energy": -0.06865,
				"method": "rhf"
			},
			{
				"type": "unocc",
				"energy": -0.04103,
				"method": "rhf"
			},
			{
				"type": "unocc",
				"energy": 0.00547,
				"method": "rhf"
			},
			{
				"type": "unocc",
				"energy": 0.02217,
				"method": "rhf"
			},
			{
				"type": "unocc",
				"energy": 0.04303,
				"method": "rhf"
			}
		],
		"cosmo_sigma_profile": { 
			"-0.025": 0.0,
			"-0.024": 0.0,
			"-0.023": 0.0,
			"-0.022": 0.0,
			"-0.021": 0.0,
			"-0.02": 0.294330131563,
			"-0.019": 1.38785048606,
			"-0.018": 1.06696814345,
			"-0.017": 1.3932371256,
			"-0.016": 0.902861915989,
			"-0.015": 0.932902973449,
			"-0.014": 0.722152859946,
			"-0.013": 1.28201828156,
			"-0.012": 1.23726659314,
			"-0.011": 0.96272804374,
			"-0.01": 1.15211489614,
			"-0.009": 0.991810626861,
			"-0.008": 2.90540246786,
			"-0.007": 5.44058746378,
			"-0.006": 4.90451361616,
			"-0.005": 6.97405665671,
			"-0.004": 7.71579777262,
			"-0.003": 8.59143464553,
			"-0.002": 12.9813503238,
			"-0.001": 20.0280398958,
			"0.0": 24.7160881974,
			"0.001": 29.5532915747,
			"0.002": 34.4789927454,
			"0.003": 33.0232059664,
			"0.004": 14.7025330895,
			"0.005": 6.73634012539,
			"0.006": 3.91109135564,
			"0.007": 3.74047945491,
			"0.008": 1.63293605338,
			"0.009": 1.08068912118,
			"0.01": 1.09936375572,
			"0.011": 0.710603822277,
			"0.012": 1.1371302775,
			"0.013": 0.484055848803,
			"0.014": 0.0,
			"0.015": 0.0,
			"0.016": 0.0,
			"0.017": 0.0,
			"0.018": 0.0,
			"0.019": 0.0,
			"0.02": 0.0,
			"0.021": 0.0,
			"0.022": 0.0,
			"0.023": 0.0,
			"0.024": 0.0,
			"0.025": 0.0
		}
	}
}
