{
	 "smiles": "CC1=CC(O)=CC(=O)N1C1CC1", 
	 "Tm": 538.15, 
	 "num_atms": 23, 
	 "gaussian": { 
		 "optdone": 1, 
		 "sigma_profile": "yes", 
		 "theory": "DFT", 
		 "functional": "B3LYP", 
		 "basiset": "6-31G**", 
		 "properties": { 
			 "R2extent": 2322.9848, 
			 "electric_dipole_moment_norm": 2.97508184929, 
			 "electric_quadrupole_moment_norm": 10.8333895642, 
			 "total_energy": -554.75771168, 
			 "HOMO_LUMO_gap": 0.18379, 
			 "cosmo_polarized_energy": -15.48, 
			 "cosmo_cavitation_energy": 25.71, 
			 "cosmo_dispersion_energy": -18.93, 
			 "cosmo_repulsion_energy": 1.5, 
			 "cosmo_total_nonelectrostatic_energy": 8.28, 
			 "SMD_solvation_energy": 4.92 
		},
		"coords": [
			{
				"x": 0.2164197692,
				"y": 1.2349264146,
				"z": -2.4992745549,
				"element": "C" 
			},
			{
				"x": 0.8744797508,
				"y": 0.7344069086,
				"z": -1.2412135862,
				"element": "C" 
			},
			{
				"x": 2.1910904467,
				"y": 0.3633312426,
				"z": -1.2469744193,
				"element": "C" 
			},
			{
				"x": 2.7801587891,
				"y": -0.1593498384,
				"z": -0.0621684177,
				"element": "C" 
			},
			{
				"x": 4.0973666075,
				"y": -0.4781299548,
				"z": -0.1504346828,
				"element": "O" 
			},
			{
				"x": 2.0284082112,
				"y": -0.3349941975,
				"z": 1.0680214792,
				"element": "C" 
			},
			{
				"x": 0.6250447927,
				"y": -0.0122397945,
				"z": 1.1027394408,
				"element": "C" 
			},
			{
				"x": -0.1222189873,
				"y": -0.2339599923,
				"z": 2.051787465,
				"element": "O" 
			},
			{
				"x": 0.1199994707,
				"y": 0.6265456236,
				"z": -0.0872077513,
				"element": "N" 
			},
			{
				"x": -1.2751384961,
				"y": 1.0234775052,
				"z": -0.0778790704,
				"element": "C" 
			},
			{
				"x": -1.8041067308,
				"y": 1.8436130796,
				"z": 1.0613196051,
				"element": "C" 
			},
			{
				"x": -1.6571815537,
				"y": 2.4745242234,
				"z": -0.2946672446,
				"element": "C" 
			},
			{
				"x": 0.9114221002,
				"y": 1.138877272,
				"z": -3.335222587,
				"element": "H" 
			},
			{
				"x": -0.6852910585,
				"y": 0.6600443144,
				"z": -2.7339319968,
				"element": "H" 
			},
			{
				"x": -0.0840333158,
				"y": 2.2833161727,
				"z": -2.4213020512,
				"element": "H" 
			},
			{
				"x": 2.7849572741,
				"y": 0.4459418178,
				"z": -2.1477684561,
				"element": "H" 
			},
			{
				"x": 4.392397183,
				"y": -0.8346192016,
				"z": 0.6987258895,
				"element": "H" 
			},
			{
				"x": 2.4372471707,
				"y": -0.7666802201,
				"z": 1.9758785212,
				"element": "H" 
			},
			{
				"x": -1.9473292986,
				"y": 0.2692459739,
				"z": -0.4826398696,
				"element": "H" 
			},
			{
				"x": -2.7928593442,
				"y": 1.5915605784,
				"z": 1.4297123335,
				"element": "H" 
			},
			{
				"x": -1.1011897593,
				"y": 2.1263757607,
				"z": 1.834615726,
				"element": "H" 
			},
			{
				"x": -0.8524626515,
				"y": 3.1924971245,
				"z": -0.4192363816,
				"element": "H" 
			},
			{
				"x": -2.5398803699,
				"y": 2.6793891874,
				"z": -0.8934793909,
				"element": "H" 
			}
		],
		 "valence_orbital": [ 
			{
				"type": "occ",
				"energy": -0.30647,
				"method": "rhf"
			},
			{
				"type": "occ",
				"energy": -0.29945,
				"method": "rhf"
			},
			{
				"type": "occ",
				"energy": -0.25362,
				"method": "rhf"
			},
			{
				"type": "occ",
				"energy": -0.23395,
				"method": "rhf"
			},
			{
				"type": "occ",
				"energy": -0.20427,
				"method": "rhf"
			},
			{
				"type": "unocc",
				"energy": -0.02048,
				"method": "rhf"
			},
			{
				"type": "unocc",
				"energy": 0.02968,
				"method": "rhf"
			},
			{
				"type": "unocc",
				"energy": 0.06825,
				"method": "rhf"
			},
			{
				"type": "unocc",
				"energy": 0.08679,
				"method": "rhf"
			},
			{
				"type": "unocc",
				"energy": 0.09407,
				"method": "rhf"
			}
		],
		"cosmo_sigma_profile": { 
			"-0.025": 0.0,
			"-0.024": 0.0,
			"-0.023": 0.0,
			"-0.022": 0.0,
			"-0.021": 0.0,
			"-0.02": 0.0,
			"-0.019": 0.0302237883868,
			"-0.018": 1.00660890381,
			"-0.017": 0.99315257922,
			"-0.016": 1.30448691588,
			"-0.015": 1.06049328137,
			"-0.014": 0.439628366946,
			"-0.013": 1.09653029473,
			"-0.012": 0.536338300062,
			"-0.011": 1.21451938416,
			"-0.01": 1.13395524856,
			"-0.009": 1.13252378192,
			"-0.008": 0.567059921656,
			"-0.007": 2.0214717454,
			"-0.006": 10.3061028587,
			"-0.005": 18.6466047127,
			"-0.004": 17.8118224563,
			"-0.003": 14.9072568774,
			"-0.002": 17.0816639729,
			"-0.001": 17.2262149959,
			"0.0": 14.2683528479,
			"0.001": 9.28544611699,
			"0.002": 11.5231086526,
			"0.003": 13.4576617418,
			"0.004": 10.9103402919,
			"0.005": 4.56106137048,
			"0.006": 2.7458256242,
			"0.007": 3.51272357649,
			"0.008": 2.07069444187,
			"0.009": 3.29112452325,
			"0.01": 3.31815879879,
			"0.011": 1.71110314514,
			"0.012": 2.08520577021,
			"0.013": 1.71128982367,
			"0.014": 2.9604882164,
			"0.015": 5.23786748331,
			"0.016": 1.72242217699,
			"0.017": 0.0258618848806,
			"0.018": 0.0,
			"0.019": 0.0,
			"0.02": 0.0,
			"0.021": 0.0,
			"0.022": 0.0,
			"0.023": 0.0,
			"0.024": 0.0,
			"0.025": 0.0
		}
	}
}
