{
	 "smiles": "COC(=O)CN1C=NC2=C1N=CN=C2N", 
	 "Tm": 502.15, 
	 "num_atms": 24, 
	 "gaussian": { 
		 "optdone": 1, 
		 "sigma_profile": "yes", 
		 "theory": "DFT", 
		 "functional": "B3LYP", 
		 "basiset": "6-31G**", 
		 "properties": { 
			 "R2extent": 4432.2883, 
			 "electric_dipole_moment_norm": 2.86141361743, 
			 "electric_quadrupole_moment_norm": 19.4153759778, 
			 "total_energy": -734.503804822, 
			 "HOMO_LUMO_gap": 0.19964, 
			 "cosmo_polarized_energy": -17.51, 
			 "cosmo_cavitation_energy": 29.34, 
			 "cosmo_dispersion_energy": -21.63, 
			 "cosmo_repulsion_energy": 1.7, 
			 "cosmo_total_nonelectrostatic_energy": 9.42, 
			 "SMD_solvation_energy": 2.28 
		},
		"coords": [
			{
				"x": -0.2689705694,
				"y": 1.2811746011,
				"z": 5.3984563621,
				"element": "C" 
			},
			{
				"x": -0.7154050847,
				"y": 0.561670256,
				"z": 4.2329624763,
				"element": "O" 
			},
			{
				"x": 0.2593149226,
				"y": 0.0458935836,
				"z": 3.4634630834,
				"element": "C" 
			},
			{
				"x": 1.4431011323,
				"y": 0.1515083217,
				"z": 3.6852647113,
				"element": "O" 
			},
			{
				"x": -0.3633584755,
				"y": -0.7258213502,
				"z": 2.3032700842,
				"element": "C" 
			},
			{
				"x": 0.5992887909,
				"y": -1.0923069209,
				"z": 1.2909258806,
				"element": "N" 
			},
			{
				"x": 1.7422931501,
				"y": -1.8656491895,
				"z": 1.4104285864,
				"element": "C" 
			},
			{
				"x": 2.4032520138,
				"y": -2.0082552998,
				"z": 0.2874320277,
				"element": "N" 
			},
			{
				"x": 1.6629370391,
				"y": -1.2838097651,
				"z": -0.6314632991,
				"element": "C" 
			},
			{
				"x": 0.5418462213,
				"y": -0.7029541343,
				"z": -0.0337891445,
				"element": "C" 
			},
			{
				"x": -0.3835810873,
				"y": 0.0610597825,
				"z": -0.6256345669,
				"element": "N" 
			},
			{
				"x": -0.1105479393,
				"y": 0.2325015302,
				"z": -1.9239127367,
				"element": "C" 
			},
			{
				"x": 0.9191594035,
				"y": -0.2522737643,
				"z": -2.6363522788,
				"element": "N" 
			},
			{
				"x": 1.8251966824,
				"y": -1.0248473243,
				"z": -2.0084906555,
				"element": "C" 
			},
			{
				"x": 2.8515502101,
				"y": -1.5449429889,
				"z": -2.7274070466,
				"element": "N" 
			},
			{
				"x": -1.1759305902,
				"y": 1.6148819195,
				"z": 5.9012445115,
				"element": "H" 
			},
			{
				"x": 0.3459011766,
				"y": 2.1353508898,
				"z": 5.1060153716,
				"element": "H" 
			},
			{
				"x": 0.3159790087,
				"y": 0.6280597764,
				"z": 6.0503858336,
				"element": "H" 
			},
			{
				"x": -0.8633086173,
				"y": -1.6116267281,
				"z": 2.7144158556,
				"element": "H" 
			},
			{
				"x": -1.1305496418,
				"y": -0.11476183,
				"z": 1.8208394194,
				"element": "H" 
			},
			{
				"x": 2.0361401768,
				"y": -2.2798677382,
				"z": 2.3645717655,
				"element": "H" 
			},
			{
				"x": -0.813466892,
				"y": 0.8485088962,
				"z": -2.4812909345,
				"element": "H" 
			},
			{
				"x": 3.6166681931,
				"y": -1.9825464626,
				"z": -2.2398489318,
				"element": "H" 
			},
			{
				"x": 2.9929907761,
				"y": -1.199646061,
				"z": -3.663386375,
				"element": "H" 
			}
		],
		 "valence_orbital": [ 
			{
				"type": "occ",
				"energy": -0.27948,
				"method": "rhf"
			},
			{
				"type": "occ",
				"energy": -0.27676,
				"method": "rhf"
			},
			{
				"type": "occ",
				"energy": -0.25787,
				"method": "rhf"
			},
			{
				"type": "occ",
				"energy": -0.24598,
				"method": "rhf"
			},
			{
				"type": "occ",
				"energy": -0.21476,
				"method": "rhf"
			},
			{
				"type": "unocc",
				"energy": -0.01512,
				"method": "rhf"
			},
			{
				"type": "unocc",
				"energy": -0.00535,
				"method": "rhf"
			},
			{
				"type": "unocc",
				"energy": 0.01155,
				"method": "rhf"
			},
			{
				"type": "unocc",
				"energy": 0.04207,
				"method": "rhf"
			},
			{
				"type": "unocc",
				"energy": 0.0901,
				"method": "rhf"
			}
		],
		"cosmo_sigma_profile": { 
			"-0.025": 0.0,
			"-0.024": 0.0,
			"-0.023": 0.0,
			"-0.022": 0.0,
			"-0.021": 0.0,
			"-0.02": 0.0,
			"-0.019": 0.0,
			"-0.018": 0.0,
			"-0.017": 0.0,
			"-0.016": 0.0,
			"-0.015": 0.0404741478763,
			"-0.014": 1.29455034177,
			"-0.013": 2.22444177527,
			"-0.012": 1.67320072503,
			"-0.011": 1.75881133142,
			"-0.01": 4.2481997778,
			"-0.009": 7.70830125674,
			"-0.008": 5.48015810669,
			"-0.007": 8.17029019324,
			"-0.006": 15.3342031478,
			"-0.005": 15.9915469066,
			"-0.004": 15.4161089421,
			"-0.003": 13.419411881,
			"-0.002": 11.3026709396,
			"-0.001": 11.5889439221,
			"0.0": 15.4451340073,
			"0.001": 15.5735557976,
			"0.002": 11.6120252565,
			"0.003": 9.52519940641,
			"0.004": 9.5135968425,
			"0.005": 8.55940744773,
			"0.006": 7.29435226444,
			"0.007": 7.50913414958,
			"0.008": 6.06191091194,
			"0.009": 5.52110820502,
			"0.01": 5.29607053496,
			"0.011": 6.79082373359,
			"0.012": 3.29727562702,
			"0.013": 2.40334351524,
			"0.014": 2.4118811846,
			"0.015": 1.76523300129,
			"0.016": 0.294394593988,
			"0.017": 0.0,
			"0.018": 0.0,
			"0.019": 0.0,
			"0.02": 0.0,
			"0.021": 0.0,
			"0.022": 0.0,
			"0.023": 0.0,
			"0.024": 0.0,
			"0.025": 0.0
		}
	}
}
