{
	 "smiles": "CC1=CC=C(C=C1)C1=NC2=C(C=CC=C2)C(=C1)C(O)=O", 
	 "Tm": 455.15, 
	 "num_atms": 33, 
	 "gaussian": { 
		 "optdone": 1, 
		 "sigma_profile": "yes", 
		 "theory": "DFT", 
		 "functional": "B3LYP", 
		 "basiset": "6-31G**", 
		 "properties": { 
			 "R2extent": 7930.8372, 
			 "electric_dipole_moment_norm": 0.860801382434, 
			 "electric_quadrupole_moment_norm": 16.8451450561, 
			 "total_energy": -860.881145098, 
			 "HOMO_LUMO_gap": 0.14082, 
			 "cosmo_polarized_energy": -11.68, 
			 "cosmo_cavitation_energy": 37.26, 
			 "cosmo_dispersion_energy": -27.36, 
			 "cosmo_repulsion_energy": 2.05, 
			 "cosmo_total_nonelectrostatic_energy": 11.95, 
			 "SMD_solvation_energy": 6.21 
		},
		"coords": [
			{
				"x": -3.2025424675,
				"y": 1.9267967519,
				"z": 3.3188101499,
				"element": "C" 
			},
			{
				"x": -2.2440014983,
				"y": 1.2365743115,
				"z": 2.3787885177,
				"element": "C" 
			},
			{
				"x": -2.2592744827,
				"y": 1.498674827,
				"z": 1.0038363715,
				"element": "C" 
			},
			{
				"x": -1.3943868314,
				"y": 0.839325566,
				"z": 0.1321160893,
				"element": "C" 
			},
			{
				"x": -0.4758845213,
				"y": -0.1084198403,
				"z": 0.6095833306,
				"element": "C" 
			},
			{
				"x": -0.450685778,
				"y": -0.3636935053,
				"z": 1.9917759427,
				"element": "C" 
			},
			{
				"x": -1.3184532977,
				"y": 0.2949377503,
				"z": 2.8545536978,
				"element": "C" 
			},
			{
				"x": 0.4639109636,
				"y": -0.8279826003,
				"z": -0.2889342777,
				"element": "C" 
			},
			{
				"x": 1.4752274357,
				"y": -1.4728311704,
				"z": 0.2745201507,
				"element": "N" 
			},
			{
				"x": 2.3627207438,
				"y": -2.1421348452,
				"z": -0.5069018735,
				"element": "C" 
			},
			{
				"x": 2.2733572181,
				"y": -2.2066169397,
				"z": -1.9419536541,
				"element": "C" 
			},
			{
				"x": 3.2823892469,
				"y": -2.9242232632,
				"z": -2.6410040974,
				"element": "C" 
			},
			{
				"x": 4.3078381676,
				"y": -3.545337409,
				"z": -1.960129393,
				"element": "C" 
			},
			{
				"x": 4.3866940807,
				"y": -3.488191256,
				"z": -0.5492273291,
				"element": "C" 
			},
			{
				"x": 3.4326500773,
				"y": -2.7993617714,
				"z": 0.1604627776,
				"element": "C" 
			},
			{
				"x": 1.1555028089,
				"y": -1.5183649616,
				"z": -2.524174536,
				"element": "C" 
			},
			{
				"x": 0.2800310656,
				"y": -0.8436528782,
				"z": -1.6983122964,
				"element": "C" 
			},
			{
				"x": 0.8014927667,
				"y": -1.4461984144,
				"z": -3.9808338931,
				"element": "C" 
			},
			{
				"x": 1.5367504035,
				"y": -2.2380668616,
				"z": -4.7960854074,
				"element": "O" 
			},
			{
				"x": -0.0884109664,
				"y": -0.7469043181,
				"z": -4.4238042126,
				"element": "O" 
			},
			{
				"x": -3.6006941344,
				"y": 2.8468355713,
				"z": 2.8813778858,
				"element": "H" 
			},
			{
				"x": -2.7187836307,
				"y": 2.1827783966,
				"z": 4.266967819,
				"element": "H" 
			},
			{
				"x": -4.0569243963,
				"y": 1.2806974749,
				"z": 3.5572610483,
				"element": "H" 
			},
			{
				"x": -2.9545155487,
				"y": 2.234459957,
				"z": 0.6073862441,
				"element": "H" 
			},
			{
				"x": -1.4288679969,
				"y": 1.0911721092,
				"z": -0.9228605167,
				"element": "H" 
			},
			{
				"x": 0.2648086243,
				"y": -1.085035275,
				"z": 2.369865886,
				"element": "H" 
			},
			{
				"x": -1.279432454,
				"y": 0.0763953469,
				"z": 3.9192241382,
				"element": "H" 
			},
			{
				"x": 3.2419412237,
				"y": -2.9827427911,
				"z": -3.7187106375,
				"element": "H" 
			},
			{
				"x": 5.0665956377,
				"y": -4.0863156316,
				"z": -2.5182245201,
				"element": "H" 
			},
			{
				"x": 5.2020487165,
				"y": -3.9856532871,
				"z": -0.0321949272,
				"element": "H" 
			},
			{
				"x": 3.4592632828,
				"y": -2.7257345744,
				"z": 1.2424825908,
				"element": "H" 
			},
			{
				"x": -0.5622215086,
				"y": -0.3438207714,
				"z": -2.1583483523,
				"element": "H" 
			},
			{
				"x": 1.1856570492,
				"y": -2.0842656975,
				"z": -5.6896127159,
				"element": "H" 
			}
		],
		 "valence_orbital": [ 
			{
				"type": "occ",
				"energy": -0.26892,
				"method": "rhf"
			},
			{
				"type": "occ",
				"energy": -0.2586,
				"method": "rhf"
			},
			{
				"type": "occ",
				"energy": -0.24854,
				"method": "rhf"
			},
			{
				"type": "occ",
				"energy": -0.23935,
				"method": "rhf"
			},
			{
				"type": "occ",
				"energy": -0.21993,
				"method": "rhf"
			},
			{
				"type": "unocc",
				"energy": -0.07911,
				"method": "rhf"
			},
			{
				"type": "unocc",
				"energy": -0.03539,
				"method": "rhf"
			},
			{
				"type": "unocc",
				"energy": -0.00684,
				"method": "rhf"
			},
			{
				"type": "unocc",
				"energy": 0.00173,
				"method": "rhf"
			},
			{
				"type": "unocc",
				"energy": 0.0132,
				"method": "rhf"
			}
		],
		"cosmo_sigma_profile": { 
			"-0.025": 0.0,
			"-0.024": 0.0,
			"-0.023": 0.0,
			"-0.022": 0.0,
			"-0.021": 0.0,
			"-0.02": 0.0,
			"-0.019": 0.2888028134,
			"-0.018": 1.08866742567,
			"-0.017": 0.845516438725,
			"-0.016": 0.649174202367,
			"-0.015": 0.43991317216,
			"-0.014": 0.586000679162,
			"-0.013": 0.859678872914,
			"-0.012": 1.2524868963,
			"-0.011": 1.07236155045,
			"-0.01": 0.426344366571,
			"-0.009": 0.366702981552,
			"-0.008": 1.95348125498,
			"-0.007": 3.35021870552,
			"-0.006": 8.86073463419,
			"-0.005": 15.0907157732,
			"-0.004": 25.5162712629,
			"-0.003": 22.9043981896,
			"-0.002": 22.7454955719,
			"-0.001": 26.1067304042,
			"0.0": 30.3168215282,
			"0.001": 24.138151424,
			"0.002": 24.1479376566,
			"0.003": 24.3424130867,
			"0.004": 22.3440897328,
			"0.005": 15.8179049628,
			"0.006": 5.23844156532,
			"0.007": 3.02342108163,
			"0.008": 2.81625233398,
			"0.009": 3.4140054282,
			"0.01": 3.07017345173,
			"0.011": 5.0288296652,
			"0.012": 1.16159493224,
			"0.013": 0.0,
			"0.014": 0.0,
			"0.015": 0.0,
			"0.016": 0.0,
			"0.017": 0.0,
			"0.018": 0.0,
			"0.019": 0.0,
			"0.02": 0.0,
			"0.021": 0.0,
			"0.022": 0.0,
			"0.023": 0.0,
			"0.024": 0.0,
			"0.0": 0.0
		}
	}
}
