{
	 "smiles": "CCOCCOCCO", 
	 "Tm": 195.15, 
	 "num_atms": 23, 
	 "gaussian": { 
		 "optdone": 1, 
		 "sigma_profile": "yes", 
		 "theory": "DFT", 
		 "functional": "B3LYP", 
		 "basiset": "6-31G**", 
		 "properties": { 
			 "R2extent": 2077.3361, 
			 "electric_dipole_moment_norm": 2.36378628899, 
			 "electric_quadrupole_moment_norm": 6.37472302457, 
			 "total_energy": -462.716025607, 
			 "HOMO_LUMO_gap": 0.32349, 
			 "cosmo_polarized_energy": -8.93, 
			 "cosmo_cavitation_energy": 23.91, 
			 "cosmo_dispersion_energy": -17.82, 
			 "cosmo_repulsion_energy": 1.49, 
			 "cosmo_total_nonelectrostatic_energy": 7.58, 
			 "SMD_solvation_energy": 4.21 
		},
		"coords": [
			{
				"x": 0.0491652551,
				"y": -2.1655756647,
				"z": 0.0927723552,
				"element": "C" 
			},
			{
				"x": 0.0194547227,
				"y": -0.8921867762,
				"z": -0.750885193,
				"element": "C" 
			},
			{
				"x": 0.1769234306,
				"y": 0.3152280722,
				"z": -0.003078632,
				"element": "O" 
			},
			{
				"x": 1.4644469448,
				"y": 0.5002770154,
				"z": 0.5677398716,
				"element": "C" 
			},
			{
				"x": 1.5601058029,
				"y": 1.9316707217,
				"z": 1.0894567276,
				"element": "C" 
			},
			{
				"x": 0.5457755447,
				"y": 2.2837883141,
				"z": 2.0114147368,
				"element": "O" 
			},
			{
				"x": 0.6099321171,
				"y": 1.685610674,
				"z": 3.3056064145,
				"element": "C" 
			},
			{
				"x": -0.6967476862,
				"y": 0.9414038188,
				"z": 3.5593126898,
				"element": "C" 
			},
			{
				"x": -0.8900524247,
				"y": -0.1166069738,
				"z": 2.6424441647,
				"element": "O" 
			},
			{
				"x": -0.2175384948,
				"y": -3.0249184005,
				"z": -0.5317827795,
				"element": "H" 
			},
			{
				"x": 1.0417591368,
				"y": -2.3579819511,
				"z": 0.5112806549,
				"element": "H" 
			},
			{
				"x": -0.6605692261,
				"y": -2.0990844853,
				"z": 0.9216709391,
				"element": "H" 
			},
			{
				"x": -0.9523462368,
				"y": -0.7888401924,
				"z": -1.2435283851,
				"element": "H" 
			},
			{
				"x": 0.7884196994,
				"y": -0.9341389301,
				"z": -1.5388542926,
				"element": "H" 
			},
			{
				"x": 1.6363199321,
				"y": -0.2210563769,
				"z": 1.3780832296,
				"element": "H" 
			},
			{
				"x": 2.2506512938,
				"y": 0.3492492071,
				"z": -0.1906821294,
				"element": "H" 
			},
			{
				"x": 2.5654185115,
				"y": 2.0814852071,
				"z": 1.516523426,
				"element": "H" 
			},
			{
				"x": 1.4409904903,
				"y": 2.6252057358,
				"z": 0.2511537293,
				"element": "H" 
			},
			{
				"x": 1.4551467166,
				"y": 0.9886053229,
				"z": 3.3814736579,
				"element": "H" 
			},
			{
				"x": 0.7534691153,
				"y": 2.4767674066,
				"z": 4.0562390293,
				"element": "H" 
			},
			{
				"x": -1.5254736309,
				"y": 1.6670451725,
				"z": 3.522342307,
				"element": "H" 
			},
			{
				"x": -0.6832116103,
				"y": 0.5052766172,
				"z": 4.5653946561,
				"element": "H" 
			},
			{
				"x": -0.8031394039,
				"y": 0.2529764655,
				"z": 1.7453028224,
				"element": "H" 
			}
		],
		 "valence_orbital": [ 
			{
				"type": "occ",
				"energy": -0.31488,
				"method": "rhf"
			},
			{
				"type": "occ",
				"energy": -0.30508,
				"method": "rhf"
			},
			{
				"type": "occ",
				"energy": -0.27086,
				"method": "rhf"
			},
			{
				"type": "occ",
				"energy": -0.25986,
				"method": "rhf"
			},
			{
				"type": "occ",
				"energy": -0.24181,
				"method": "rhf"
			},
			{
				"type": "unocc",
				"energy": 0.08168,
				"method": "rhf"
			},
			{
				"type": "unocc",
				"energy": 0.10596,
				"method": "rhf"
			},
			{
				"type": "unocc",
				"energy": 0.11072,
				"method": "rhf"
			},
			{
				"type": "unocc",
				"energy": 0.12098,
				"method": "rhf"
			},
			{
				"type": "unocc",
				"energy": 0.1299,
				"method": "rhf"
			}
		],
		"cosmo_sigma_profile": { 
			"-0.025": 0.0,
			"-0.024": 0.0,
			"-0.023": 0.0,
			"-0.022": 0.0,
			"-0.021": 0.0,
			"-0.02": 0.0,
			"-0.019": 0.0,
			"-0.018": 0.0,
			"-0.017": 0.0,
			"-0.016": 0.0,
			"-0.015": 0.0,
			"-0.014": 0.0,
			"-0.013": 0.0,
			"-0.012": 0.0,
			"-0.011": 0.0,
			"-0.01": 0.0,
			"-0.009": 0.0,
			"-0.008": 0.0,
			"-0.007": 0.0,
			"-0.006": 0.484895035057,
			"-0.005": 11.4576690369,
			"-0.004": 32.1911486623,
			"-0.003": 31.2378430642,
			"-0.002": 23.4323081139,
			"-0.001": 18.4346164397,
			"0.0": 13.0155041361,
			"0.001": 9.07350133561,
			"0.002": 4.3427528472,
			"0.003": 4.89931488346,
			"0.004": 4.85348730636,
			"0.005": 3.14276419909,
			"0.006": 3.40875687937,
			"0.007": 2.97911283804,
			"0.008": 3.50844606578,
			"0.009": 3.04365639203,
			"0.01": 3.50698287587,
			"0.011": 3.41459622703,
			"0.012": 3.47196585045,
			"0.013": 2.39097296102,
			"0.014": 1.90730424893,
			"0.015": 0.679296981571,
			"0.016": 0.0,
			"0.017": 0.0,
			"0.018": 0.0,
			"0.019": 0.0,
			"0.02": 0.0,
			"0.021": 0.0,
			"0.022": 0.0,
			"0.023": 0.0,
			"0.024": 0.0,
			"0.025": 0.0
		}
	}
}
