{
	 "smiles": "OC(=O)C1=NOC(=N1)C1=CC(F)=CC(F)=C1", 
	 "Tm": 410.15, 
	 "num_atms": 20, 
	 "gaussian": { 
		 "optdone": 1, 
		 "sigma_profile": "yes", 
		 "theory": "DFT", 
		 "functional": "B3LYP", 
		 "basiset": "6-31G**", 
		 "properties": { 
			 "R2extent": 4848.9473, 
			 "electric_dipole_moment_norm": 4.37115287539, 
			 "electric_quadrupole_moment_norm": 20.2339589505, 
			 "total_energy": -880.171593965, 
			 "HOMO_LUMO_gap": 0.1814, 
			 "cosmo_polarized_energy": -13.02, 
			 "cosmo_cavitation_energy": 28.09, 
			 "cosmo_dispersion_energy": -20.46, 
			 "cosmo_repulsion_energy": 1.53, 
			 "cosmo_total_nonelectrostatic_energy": 9.16, 
			 "SMD_solvation_energy": 5.7 
		},
		"coords": [
			{
				"x": 0.1854385213,
				"y": 2.8654424601,
				"z": 4.4317130349,
				"element": "O" 
			},
			{
				"x": 0.7216159272,
				"y": 1.7061600939,
				"z": 4.0010559621,
				"element": "C" 
			},
			{
				"x": 1.4816403245,
				"y": 1.0506419117,
				"z": 4.6624132416,
				"element": "O" 
			},
			{
				"x": 0.2835144722,
				"y": 1.3067805486,
				"z": 2.61893098,
				"element": "C" 
			},
			{
				"x": -0.5497545879,
				"y": 2.0645773623,
				"z": 1.9440320426,
				"element": "N" 
			},
			{
				"x": -0.7116364181,
				"y": 1.3823581333,
				"z": 0.7450999077,
				"element": "O" 
			},
			{
				"x": 0.0563751333,
				"y": 0.2680988646,
				"z": 0.8313497201,
				"element": "C" 
			},
			{
				"x": 0.6908147579,
				"y": 0.1759043601,
				"z": 1.9693363265,
				"element": "N" 
			},
			{
				"x": 0.0872942355,
				"y": -0.6563296025,
				"z": -0.2979081844,
				"element": "C" 
			},
			{
				"x": 0.8860908115,
				"y": -1.8048431109,
				"z": -0.1948235802,
				"element": "C" 
			},
			{
				"x": 0.913181197,
				"y": -2.6816066802,
				"z": -1.2702650735,
				"element": "C" 
			},
			{
				"x": 1.6718075836,
				"y": -3.7863260079,
				"z": -1.1902939189,
				"element": "F" 
			},
			{
				"x": 0.1825259876,
				"y": -2.4618898619,
				"z": -2.4345522583,
				"element": "C" 
			},
			{
				"x": -0.5968435122,
				"y": -1.311227204,
				"z": -2.4964230483,
				"element": "C" 
			},
			{
				"x": -1.3105664516,
				"y": -1.0783839113,
				"z": -3.6102167793,
				"element": "F" 
			},
			{
				"x": -0.6646347155,
				"y": -0.3971015636,
				"z": -1.4534224166,
				"element": "C" 
			},
			{
				"x": -0.4000424453,
				"y": 3.235830146,
				"z": 3.7488476565,
				"element": "H" 
			},
			{
				"x": 1.4655821348,
				"y": -2.0023382525,
				"z": 0.6985917381,
				"element": "H" 
			},
			{
				"x": 0.2193582918,
				"y": -3.1605960674,
				"z": -3.2613992158,
				"element": "H" 
			},
			{
				"x": -1.2848612475,
				"y": 0.4858483817,
				"z": -1.5447661349,
				"element": "H" 
			}
		],
		 "valence_orbital": [ 
			{
				"type": "occ",
				"energy": -0.33074,
				"method": "rhf"
			},
			{
				"type": "occ",
				"energy": -0.32977,
				"method": "rhf"
			},
			{
				"type": "occ",
				"energy": -0.29527,
				"method": "rhf"
			},
			{
				"type": "occ",
				"energy": -0.28008,
				"method": "rhf"
			},
			{
				"type": "occ",
				"energy": -0.27595,
				"method": "rhf"
			},
			{
				"type": "unocc",
				"energy": -0.09455,
				"method": "rhf"
			},
			{
				"type": "unocc",
				"energy": -0.06199,
				"method": "rhf"
			},
			{
				"type": "unocc",
				"energy": -0.02812,
				"method": "rhf"
			},
			{
				"type": "unocc",
				"energy": 0.02168,
				"method": "rhf"
			},
			{
				"type": "unocc",
				"energy": 0.04097,
				"method": "rhf"
			}
		],
		"cosmo_sigma_profile": { 
			"-0.025": 0.0,
			"-0.024": 0.0,
			"-0.023": 0.0,
			"-0.022": 0.0,
			"-0.021": 0.0,
			"-0.02": 0.0,
			"-0.019": 0.0,
			"-0.018": 0.0,
			"-0.017": 0.406602753,
			"-0.016": 1.08031889084,
			"-0.015": 0.416333252306,
			"-0.014": 0.216510201799,
			"-0.013": 0.821403110407,
			"-0.012": 1.42697928386,
			"-0.011": 0.579371456458,
			"-0.01": 1.67303430095,
			"-0.009": 3.91213161785,
			"-0.008": 6.61897617052,
			"-0.007": 8.18361918546,
			"-0.006": 8.80410815856,
			"-0.005": 11.2361343748,
			"-0.004": 10.7979817803,
			"-0.003": 10.7007758791,
			"-0.002": 17.4770620966,
			"-0.001": 29.0343611583,
			"0.0": 19.497890045,
			"0.001": 10.177492366,
			"0.002": 10.2043926256,
			"0.003": 22.2668309411,
			"0.004": 13.8561151959,
			"0.005": 4.75126430249,
			"0.006": 4.80929230332,
			"0.007": 4.85250712798,
			"0.008": 5.6188793227,
			"0.009": 5.68865605213,
			"0.01": 6.70328911648,
			"0.011": 5.04584473257,
			"0.012": 1.32954551845,
			"0.013": 0.0291562501781,
			"0.014": 0.0,
			"0.015": 0.0,
			"0.016": 0.0,
			"0.017": 0.0,
			"0.018": 0.0,
			"0.019": 0.0,
			"0.02": 0.0,
			"0.021": 0.0,
			"0.022": 0.0,
			"0.023": 0.0,
			"0.024": 0.0,
			"0.025": 0.0
		}
	}
}
