{
	 "smiles": "CC1=C(CC2=CC=CC=C2)C2=C(C=C1)C1CCC3CCCCC3(C)C1CC2", 
	 "Tm": 368.15, 
	 "num_atms": 61, 
	 "gaussian": { 
		 "optdone": 1, 
		 "sigma_profile": "yes", 
		 "theory": "DFT", 
		 "functional": "B3LYP", 
		 "basiset": "6-31G**", 
		 "properties": { 
			 "R2extent": 11718.5262, 
			 "electric_dipole_moment_norm": 0.440389668362, 
			 "electric_quadrupole_moment_norm": 2.98532785637, 
			 "total_energy": -1049.39429051, 
			 "HOMO_LUMO_gap": 0.22101, 
			 "cosmo_polarized_energy": -6.36, 
			 "cosmo_cavitation_energy": 54.04, 
			 "cosmo_dispersion_energy": -37.02, 
			 "cosmo_repulsion_energy": 2.75, 
			 "cosmo_total_nonelectrostatic_energy": 19.77, 
			 "SMD_solvation_energy": 7.05 
		},
		"coords": [
			{
				"x": 4.4097643913,
				"y": -2.7565282375,
				"z": 1.6389842977,
				"element": "C" 
			},
			{
				"x": 3.0026804536,
				"y": -2.383919077,
				"z": 1.2198490912,
				"element": "C" 
			},
			{
				"x": 2.6336484622,
				"y": -1.0499625467,
				"z": 0.9355228803,
				"element": "C" 
			},
			{
				"x": 3.6607932449,
				"y": 0.064519854,
				"z": 1.0533417185,
				"element": "C" 
			},
			{
				"x": 4.2386705725,
				"y": 0.5809358081,
				"z": -0.2612529179,
				"element": "C" 
			},
			{
				"x": 4.3334684963,
				"y": -0.2311517847,
				"z": -1.3986424766,
				"element": "C" 
			},
			{
				"x": 4.9115326084,
				"y": 0.2505899884,
				"z": -2.575297917,
				"element": "C" 
			},
			{
				"x": 5.4025951797,
				"y": 1.5551703953,
				"z": -2.6366192141,
				"element": "C" 
			},
			{
				"x": 5.3098695353,
				"y": 2.3760382559,
				"z": -1.5106243602,
				"element": "C" 
			},
			{
				"x": 4.7323194415,
				"y": 1.8913017998,
				"z": -0.3370991482,
				"element": "C" 
			},
			{
				"x": 1.3118454044,
				"y": -0.7617369984,
				"z": 0.5350789482,
				"element": "C" 
			},
			{
				"x": 0.3542489677,
				"y": -1.7867786593,
				"z": 0.4374634433,
				"element": "C" 
			},
			{
				"x": 0.7296085233,
				"y": -3.0974051037,
				"z": 0.7392998194,
				"element": "C" 
			},
			{
				"x": 2.0367455738,
				"y": -3.3907122511,
				"z": 1.1152680326,
				"element": "C" 
			},
			{
				"x": -1.0728080482,
				"y": -1.470020092,
				"z": 0.0269534658,
				"element": "C" 
			},
			{
				"x": -1.3113041647,
				"y": -1.4404684871,
				"z": -1.5223817769,
				"element": "C" 
			},
			{
				"x": -1.8106687904,
				"y": -0.0897553534,
				"z": -2.056474282,
				"element": "C" 
			},
			{
				"x": -3.016764637,
				"y": 0.5409172075,
				"z": -1.3115055,
				"element": "C" 
			},
			{
				"x": -3.0804412288,
				"y": 2.0421905412,
				"z": -1.6888959263,
				"element": "C" 
			},
			{
				"x": -4.0055429198,
				"y": 2.881902076,
				"z": -0.8071239073,
				"element": "C" 
			},
			{
				"x": -3.5503983833,
				"y": 2.7726511021,
				"z": 0.6499227073,
				"element": "C" 
			},
			{
				"x": -3.652352996,
				"y": 1.3182228301,
				"z": 1.1286554826,
				"element": "C" 
			},
			{
				"x": -3.0227176759,
				"y": 0.1962036033,
				"z": 0.2309827679,
				"element": "C" 
			},
			{
				"x": -3.9442171053,
				"y": -1.0376376451,
				"z": 0.4317767995,
				"element": "C" 
			},
			{
				"x": -1.5884070191,
				"y": -0.1818023609,
				"z": 0.7313047502,
				"element": "C" 
			},
			{
				"x": -0.5516666172,
				"y": 0.9847385547,
				"z": 0.6977234391,
				"element": "C" 
			},
			{
				"x": 0.8471312037,
				"y": 0.6232057166,
				"z": 0.1448392021,
				"element": "C" 
			},
			{
				"x": 4.6741126642,
				"y": -2.3374642292,
				"z": 2.6178455947,
				"element": "H" 
			},
			{
				"x": 4.5120114411,
				"y": -3.8425738169,
				"z": 1.7135919888,
				"element": "H" 
			},
			{
				"x": 5.1613305949,
				"y": -2.4023630919,
				"z": 0.924633312,
				"element": "H" 
			},
			{
				"x": 3.2273485871,
				"y": 0.9123396101,
				"z": 1.5961203631,
				"element": "H" 
			},
			{
				"x": 4.4928008697,
				"y": -0.2755323607,
				"z": 1.6790024981,
				"element": "H" 
			},
			{
				"x": 3.9421369222,
				"y": -1.2436950192,
				"z": -1.3644699894,
				"element": "H" 
			},
			{
				"x": 4.9739993809,
				"y": -0.3957744622,
				"z": -3.4466543195,
				"element": "H" 
			},
			{
				"x": 5.8488789099,
				"y": 1.9307516317,
				"z": -3.5530178271,
				"element": "H" 
			},
			{
				"x": 5.6829281225,
				"y": 3.3960267588,
				"z": -1.5471198141,
				"element": "H" 
			},
			{
				"x": 4.6622175994,
				"y": 2.5385539307,
				"z": 0.5345910975,
				"element": "H" 
			},
			{
				"x": -0.0074898314,
				"y": -3.8950551909,
				"z": 0.6774912661,
				"element": "H" 
			},
			{
				"x": 2.3149361915,
				"y": -4.4177051966,
				"z": 1.3389524822,
				"element": "H" 
			},
			{
				"x": -1.6742071979,
				"y": -2.2957240106,
				"z": 0.4170905784,
				"element": "H" 
			},
			{
				"x": -2.0356762122,
				"y": -2.22235348,
				"z": -1.7821053959,
				"element": "H" 
			},
			{
				"x": -0.3872725352,
				"y": -1.7069555166,
				"z": -2.0468952198,
				"element": "H" 
			},
			{
				"x": -2.0639609527,
				"y": -0.1923759365,
				"z": -3.1192622403,
				"element": "H" 
			},
			{
				"x": -0.9786173904,
				"y": 0.6227262304,
				"z": -2.0262441112,
				"element": "H" 
			},
			{
				"x": -3.9325662901,
				"y": 0.0903618428,
				"z": -1.7187941194,
				"element": "H" 
			},
			{
				"x": -2.0739966967,
				"y": 2.4794806378,
				"z": -1.6323736153,
				"element": "H" 
			},
			{
				"x": -3.3759918161,
				"y": 2.1174388605,
				"z": -2.7435083703,
				"element": "H" 
			},
			{
				"x": -5.0441790244,
				"y": 2.5323167998,
				"z": -0.8975919165,
				"element": "H" 
			},
			{
				"x": -3.9957655271,
				"y": 3.9261283382,
				"z": -1.1422828786,
				"element": "H" 
			},
			{
				"x": -2.5259915534,
				"y": 3.1549609714,
				"z": 0.7385865473,
				"element": "H" 
			},
			{
				"x": -4.1700178223,
				"y": 3.4022221584,
				"z": 1.3006170768,
				"element": "H" 
			},
			{
				"x": -3.2457591447,
				"y": 1.222422994,
				"z": 2.1437160285,
				"element": "H" 
			},
			{
				"x": -4.725073859,
				"y": 1.105127139,
				"z": 1.2235012964,
				"element": "H" 
			},
			{
				"x": -3.9401155592,
				"y": -1.366654631,
				"z": 1.478127401,
				"element": "H" 
			},
			{
				"x": -3.6624164502,
				"y": -1.8906550387,
				"z": -0.1899384469,
				"element": "H" 
			},
			{
				"x": -4.9760785446,
				"y": -0.7796320598,
				"z": 0.1711152219,
				"element": "H" 
			},
			{
				"x": -1.7045348023,
				"y": -0.4616916223,
				"z": 1.7863072307,
				"element": "H" 
			},
			{
				"x": -0.4288807662,
				"y": 1.3657251197,
				"z": 1.7177586577,
				"element": "H" 
			},
			{
				"x": -0.9283741033,
				"y": 1.8251418461,
				"z": 0.1120177891,
				"element": "H" 
			},
			{
				"x": 0.829824213,
				"y": 0.6756069244,
				"z": -0.951936446,
				"element": "H" 
			},
			{
				"x": 1.5582081102,
				"y": 1.3930647332,
				"z": 0.452178861,
				"element": "H" 
			}
		],
		 "valence_orbital": [ 
			{
				"type": "occ",
				"energy": -0.26858,
				"method": "rhf"
			},
			{
				"type": "occ",
				"energy": -0.24384,
				"method": "rhf"
			},
			{
				"type": "occ",
				"energy": -0.23701,
				"method": "rhf"
			},
			{
				"type": "occ",
				"energy": -0.22536,
				"method": "rhf"
			},
			{
				"type": "occ",
				"energy": -0.2198,
				"method": "rhf"
			},
			{
				"type": "unocc",
				"energy": 0.00121,
				"method": "rhf"
			},
			{
				"type": "unocc",
				"energy": 0.00533,
				"method": "rhf"
			},
			{
				"type": "unocc",
				"energy": 0.00596,
				"method": "rhf"
			},
			{
				"type": "unocc",
				"energy": 0.01364,
				"method": "rhf"
			},
			{
				"type": "unocc",
				"energy": 0.06971,
				"method": "rhf"
			}
		],
		"cosmo_sigma_profile": { 
			"-0.025": 0.0,
			"-0.024": 0.0,
			"-0.023": 0.0,
			"-0.022": 0.0,
			"-0.021": 0.0,
			"-0.02": 0.0,
			"-0.019": 0.0,
			"-0.018": 0.0,
			"-0.017": 0.0,
			"-0.016": 0.0,
			"-0.015": 0.0,
			"-0.014": 0.0,
			"-0.013": 0.0,
			"-0.012": 0.0,
			"-0.011": 0.0,
			"-0.01": 0.264749802023,
			"-0.009": 0.358458955977,
			"-0.008": 0.159770957198,
			"-0.007": 0.539559243081,
			"-0.006": 1.63539071166,
			"-0.005": 11.4510356311,
			"-0.004": 24.5375359888,
			"-0.003": 36.4106907106,
			"-0.002": 51.7413264371,
			"-0.001": 72.4806548521,
			"0.0": 64.4153726554,
			"0.001": 56.3453357471,
			"0.002": 32.872964534,
			"0.003": 17.7046901685,
			"0.004": 13.5244228913,
			"0.005": 13.4637597395,
			"0.006": 12.8753611696,
			"0.007": 7.82421032796,
			"0.008": 1.44020248283,
			"0.009": 0.0,
			"0.01": 0.0,
			"0.011": 0.0,
			"0.012": 0.0,
			"0.013": 0.0,
			"0.014": 0.0,
			"0.015": 0.0,
			"0.016": 0.0,
			"0.017": 0.0,
			"0.018": 0.0,
			"0.019": 0.0,
			"0.02": 0.0,
			"0.021": 0.0,
			"0.022": 0.0,
			"0.023": 0.0,
			"0.024": 0.0,
			"0.025": 0.0
		}
	}
}
