{
	 "smiles": "S=C(SSC(=S)N1CCCCC1)N1CCCCC1", 
	 "Tm": 411.15, 
	 "num_atms": 38, 
	 "gaussian": { 
		 "optdone": 1, 
		 "sigma_profile": "yes", 
		 "theory": "DFT", 
		 "functional": "B3LYP", 
		 "basiset": "6-31G**", 
		 "properties": { 
			 "R2extent": 9300.6679, 
			 "electric_dipole_moment_norm": 7.92718261049, 
			 "electric_quadrupole_moment_norm": 37.4353117248, 
			 "total_energy": -2171.58578784, 
			 "HOMO_LUMO_gap": 0.15762, 
			 "cosmo_polarized_energy": -18.27, 
			 "cosmo_cavitation_energy": 42.88, 
			 "cosmo_dispersion_energy": -31.93, 
			 "cosmo_repulsion_energy": 2.36, 
			 "cosmo_total_nonelectrostatic_energy": 13.3, 
			 "SMD_solvation_energy": 2.42 
		},
		"coords": [
			{
				"x": 1.6236749916,
				"y": -4.727787167,
				"z": 0.6355810362,
				"element": "S" 
			},
			{
				"x": 1.2348714685,
				"y": -3.1024190956,
				"z": 0.5488454315,
				"element": "C" 
			},
			{
				"x": 1.1914059021,
				"y": -2.692525213,
				"z": -1.2066100187,
				"element": "S" 
			},
			{
				"x": 0.4783263002,
				"y": -0.779806544,
				"z": -1.8202216563,
				"element": "S" 
			},
			{
				"x": -1.3493108081,
				"y": -0.8606456665,
				"z": -1.6678655356,
				"element": "C" 
			},
			{
				"x": -2.1070489075,
				"y": -1.9622337901,
				"z": -0.6728139544,
				"element": "S" 
			},
			{
				"x": -1.9795693703,
				"y": 0.0743053286,
				"z": -2.4131013619,
				"element": "N" 
			},
			{
				"x": -3.4589641136,
				"y": 0.1040130072,
				"z": -2.4612581905,
				"element": "C" 
			},
			{
				"x": -3.9435210235,
				"y": 0.6870404022,
				"z": -3.7896612865,
				"element": "C" 
			},
			{
				"x": -3.4693023,
				"y": 2.1393899264,
				"z": -4.0047277319,
				"element": "C" 
			},
			{
				"x": -2.1108949205,
				"y": 2.377217332,
				"z": -3.3121968407,
				"element": "C" 
			},
			{
				"x": -1.2761594526,
				"y": 1.0961504957,
				"z": -3.2188994366,
				"element": "C" 
			},
			{
				"x": 1.0146166298,
				"y": -2.2752766181,
				"z": 1.5725428843,
				"element": "N" 
			},
			{
				"x": 0.9526299132,
				"y": -0.8032061448,
				"z": 1.4573386919,
				"element": "C" 
			},
			{
				"x": 1.4332449006,
				"y": -0.1470912898,
				"z": 2.7545924015,
				"element": "C" 
			},
			{
				"x": 0.552518043,
				"y": -0.5281098759,
				"z": 3.9622509145,
				"element": "C" 
			},
			{
				"x": -0.0340190678,
				"y": -1.9454094882,
				"z": 3.7837738202,
				"element": "C" 
			},
			{
				"x": 0.8680186126,
				"y": -2.8415629613,
				"z": 2.9342133185,
				"element": "C" 
			},
			{
				"x": -3.8395571685,
				"y": 0.6828996191,
				"z": -1.6082820252,
				"element": "H" 
			},
			{
				"x": -3.811088519,
				"y": -0.9193217167,
				"z": -2.3286229213,
				"element": "H" 
			},
			{
				"x": -5.0361113534,
				"y": 0.6244392456,
				"z": -3.8170896944,
				"element": "H" 
			},
			{
				"x": -3.5781531935,
				"y": 0.0458693021,
				"z": -4.6003751642,
				"element": "H" 
			},
			{
				"x": -4.2069592708,
				"y": 2.8449382909,
				"z": -3.6074095102,
				"element": "H" 
			},
			{
				"x": -3.3916701016,
				"y": 2.3434763315,
				"z": -5.0780794795,
				"element": "H" 
			},
			{
				"x": -2.2641493757,
				"y": 2.7577632379,
				"z": -2.2957805618,
				"element": "H" 
			},
			{
				"x": -1.5259199813,
				"y": 3.1354055678,
				"z": -3.8428393232,
				"element": "H" 
			},
			{
				"x": -1.0552310216,
				"y": 0.6972068201,
				"z": -4.2182289887,
				"element": "H" 
			},
			{
				"x": -0.3199169932,
				"y": 1.3256043505,
				"z": -2.7445503494,
				"element": "H" 
			},
			{
				"x": 1.5912800426,
				"y": -0.4985420405,
				"z": 0.6299524338,
				"element": "H" 
			},
			{
				"x": -0.073198691,
				"y": -0.4988729725,
				"z": 1.2161977254,
				"element": "H" 
			},
			{
				"x": 2.471779566,
				"y": -0.4502607323,
				"z": 2.9312700715,
				"element": "H" 
			},
			{
				"x": 1.4486259343,
				"y": 0.9377243664,
				"z": 2.6068077712,
				"element": "H" 
			},
			{
				"x": -0.264263726,
				"y": 0.1922111811,
				"z": 4.0799127819,
				"element": "H" 
			},
			{
				"x": 1.1502284551,
				"y": -0.4729580989,
				"z": 4.8785828203,
				"element": "H" 
			},
			{
				"x": -1.0152139646,
				"y": -1.892382163,
				"z": 3.2988111112,
				"element": "H" 
			},
			{
				"x": -0.1911086337,
				"y": -2.4295840132,
				"z": 4.7530018475,
				"element": "H" 
			},
			{
				"x": 1.860418299,
				"y": -2.9604672502,
				"z": 3.3888488444,
				"element": "H" 
			},
			{
				"x": 0.444692899,
				"y": -3.8412919636,
				"z": 2.8280901253,
				"element": "H" 
			}
		],
		 "valence_orbital": [ 
			{
				"type": "occ",
				"energy": -0.24856,
				"method": "rhf"
			},
			{
				"type": "occ",
				"energy": -0.22457,
				"method": "rhf"
			},
			{
				"type": "occ",
				"energy": -0.22135,
				"method": "rhf"
			},
			{
				"type": "occ",
				"energy": -0.21078,
				"method": "rhf"
			},
			{
				"type": "occ",
				"energy": -0.20738,
				"method": "rhf"
			},
			{
				"type": "unocc",
				"energy": -0.04976,
				"method": "rhf"
			},
			{
				"type": "unocc",
				"energy": -0.02735,
				"method": "rhf"
			},
			{
				"type": "unocc",
				"energy": -0.02287,
				"method": "rhf"
			},
			{
				"type": "unocc",
				"energy": 0.02923,
				"method": "rhf"
			},
			{
				"type": "unocc",
				"energy": 0.04968,
				"method": "rhf"
			}
		],
		"cosmo_sigma_profile": { 
			"-0.025": 0.0,
			"-0.024": 0.0,
			"-0.023": 0.0,
			"-0.022": 0.0,
			"-0.021": 0.0,
			"-0.02": 0.0,
			"-0.019": 0.0,
			"-0.018": 0.0,
			"-0.017": 0.0,
			"-0.016": 0.0,
			"-0.015": 0.0,
			"-0.014": 0.0,
			"-0.013": 0.0,
			"-0.012": 0.0,
			"-0.011": 0.0,
			"-0.01": 0.0,
			"-0.009": 0.0,
			"-0.008": 0.0,
			"-0.007": 0.267165805002,
			"-0.006": 5.36600109298,
			"-0.005": 21.9702887679,
			"-0.004": 46.092037572,
			"-0.003": 56.6238496183,
			"-0.002": 40.6797492636,
			"-0.001": 30.2720093271,
			"0.0": 26.1781500426,
			"0.001": 13.1295382462,
			"0.002": 10.8988920886,
			"0.003": 11.6584610838,
			"0.004": 12.2107880635,
			"0.005": 14.1810427547,
			"0.006": 10.9405161748,
			"0.007": 11.7848636014,
			"0.008": 13.7759934933,
			"0.009": 12.0548122811,
			"0.01": 4.92779083979,
			"0.011": 0.538041002284,
			"0.012": 0.0,
			"0.013": 0.0,
			"0.014": 0.0,
			"0.015": 0.0,
			"0.016": 0.0,
			"0.017": 0.0,
			"0.018": 0.0,
			"0.019": 0.0,
			"0.02": 0.0,
			"0.021": 0.0,
			"0.022": 0.0,
			"0.023": 0.0,
			"0.024": 0.0,
			"0.025": 0.0
		}
	}
}
