{
	 "smiles": "FC1=C2CCCNC2=CC=C1", 
	 "Tm": 319.15, 
	 "num_atms": 21, 
	 "gaussian": { 
		 "optdone": 1, 
		 "sigma_profile": "yes", 
		 "theory": "DFT", 
		 "functional": "B3LYP", 
		 "basiset": "6-31G**", 
		 "properties": { 
			 "R2extent": 2424.9319, 
			 "electric_dipole_moment_norm": 2.5866663256, 
			 "electric_quadrupole_moment_norm": 6.68055428688, 
			 "total_energy": -503.582608102, 
			 "HOMO_LUMO_gap": 0.20162, 
			 "cosmo_polarized_energy": -6.2, 
			 "cosmo_cavitation_energy": 23.35, 
			 "cosmo_dispersion_energy": -17.78, 
			 "cosmo_repulsion_energy": 1.4, 
			 "cosmo_total_nonelectrostatic_energy": 6.97, 
			 "SMD_solvation_energy": 2.92 
		},
		"coords": [
			{
				"x": 2.4923754925,
				"y": 0.369681466,
				"z": -0.2577273214,
				"element": "F" 
			},
			{
				"x": 2.0344159037,
				"y": -0.9015023843,
				"z": -0.3839133005,
				"element": "C" 
			},
			{
				"x": 0.6884113607,
				"y": -1.1254841257,
				"z": -0.1064275194,
				"element": "C" 
			},
			{
				"x": -0.2228404202,
				"y": 0.0091011859,
				"z": 0.3149268518,
				"element": "C" 
			},
			{
				"x": -1.5107195705,
				"y": -0.5154230272,
				"z": 0.9653393436,
				"element": "C" 
			},
			{
				"x": -2.0932795038,
				"y": -1.666954317,
				"z": 0.1429801324,
				"element": "C" 
			},
			{
				"x": -1.1144851059,
				"y": -2.7440408274,
				"z": 0.0684669941,
				"element": "N" 
			},
			{
				"x": 0.210536005,
				"y": -2.4481051988,
				"z": -0.2401759491,
				"element": "C" 
			},
			{
				"x": 1.0915700887,
				"y": -3.4705182912,
				"z": -0.6423776195,
				"element": "C" 
			},
			{
				"x": 2.4272658385,
				"y": -3.1892240032,
				"z": -0.9085812216,
				"element": "C" 
			},
			{
				"x": 2.9244172254,
				"y": -1.889932832,
				"z": -0.7821479092,
				"element": "C" 
			},
			{
				"x": -0.4756496363,
				"y": 0.6230336043,
				"z": -0.5610730824,
				"element": "H" 
			},
			{
				"x": 0.3089848502,
				"y": 0.6763559668,
				"z": 1.0010131899,
				"element": "H" 
			},
			{
				"x": -1.2978947763,
				"y": -0.8822177048,
				"z": 1.9759899485,
				"element": "H" 
			},
			{
				"x": -2.2483609483,
				"y": 0.2888040488,
				"z": 1.0549590513,
				"element": "H" 
			},
			{
				"x": -2.9997358947,
				"y": -2.0594615762,
				"z": 0.615632433,
				"element": "H" 
			},
			{
				"x": -2.3779421987,
				"y": -1.2953649953,
				"z": -0.8572087845,
				"element": "H" 
			},
			{
				"x": -1.4530078008,
				"y": -3.611481046,
				"z": -0.3233597149,
				"element": "H" 
			},
			{
				"x": 0.7169107495,
				"y": -4.4864868358,
				"z": -0.7382542148,
				"element": "H" 
			},
			{
				"x": 3.0910807354,
				"y": -3.9904745507,
				"z": -1.2199678034,
				"element": "H" 
			},
			{
				"x": 3.9592476058,
				"y": -1.6387045561,
				"z": -0.9827935038,
				"element": "H" 
			}
		],
		 "valence_orbital": [ 
			{
				"type": "occ",
				"energy": -0.33215,
				"method": "rhf"
			},
			{
				"type": "occ",
				"energy": -0.32596,
				"method": "rhf"
			},
			{
				"type": "occ",
				"energy": -0.28715,
				"method": "rhf"
			},
			{
				"type": "occ",
				"energy": -0.22946,
				"method": "rhf"
			},
			{
				"type": "occ",
				"energy": -0.19263,
				"method": "rhf"
			},
			{
				"type": "unocc",
				"energy": 0.00899,
				"method": "rhf"
			},
			{
				"type": "unocc",
				"energy": 0.02185,
				"method": "rhf"
			},
			{
				"type": "unocc",
				"energy": 0.08198,
				"method": "rhf"
			},
			{
				"type": "unocc",
				"energy": 0.10052,
				"method": "rhf"
			},
			{
				"type": "unocc",
				"energy": 0.1102,
				"method": "rhf"
			}
		],
		"cosmo_sigma_profile": { 
			"-0.025": 0.0,
			"-0.024": 0.0,
			"-0.023": 0.0,
			"-0.022": 0.0,
			"-0.021": 0.0,
			"-0.02": 0.0,
			"-0.019": 0.0,
			"-0.018": 0.0,
			"-0.017": 0.0,
			"-0.016": 0.0,
			"-0.015": 0.0,
			"-0.014": 0.0,
			"-0.013": 0.238447421791,
			"-0.012": 1.2951303372,
			"-0.011": 1.3710087345,
			"-0.01": 1.21315124216,
			"-0.009": 1.20477327421,
			"-0.008": 1.34396279648,
			"-0.007": 1.70695396018,
			"-0.006": 3.86504764693,
			"-0.005": 7.72013451241,
			"-0.004": 10.2244205632,
			"-0.003": 21.6634490598,
			"-0.002": 22.3878922507,
			"-0.001": 19.425111893,
			"0.0": 14.1047242865,
			"0.001": 9.33894074139,
			"0.002": 10.330435347,
			"0.003": 11.0229633297,
			"0.004": 12.9383491652,
			"0.005": 16.6940126104,
			"0.006": 9.50203308652,
			"0.007": 3.88732582128,
			"0.008": 0.627374572719,
			"0.009": 0.57668278728,
			"0.01": 0.778574221395,
			"0.011": 0.453185272929,
			"0.012": 0.354278855785,
			"0.013": 0.00236602922668,
			"0.014": 0.0,
			"0.015": 0.0,
			"0.016": 0.0,
			"0.017": 0.0,
			"0.018": 0.0,
			"0.019": 0.0,
			"0.02": 0.0,
			"0.021": 0.0,
			"0.022": 0.0,
			"0.023": 0.0,
			"0.024": 0.0,
			"0.025": 0.0
		}
	}
}
