{
	 "smiles": "CC(C)C1=NC(O)=CC(=C1)C(O)=O", 
	 "Tm": 583.15, 
	 "num_atms": 24, 
	 "gaussian": { 
		 "optdone": 1, 
		 "sigma_profile": "yes", 
		 "theory": "DFT", 
		 "functional": "B3LYP", 
		 "basiset": "6-31G**", 
		 "properties": { 
			 "R2extent": 3509.1398, 
			 "electric_dipole_moment_norm": 3.75491013474, 
			 "electric_quadrupole_moment_norm": 11.5738683473, 
			 "total_energy": -630.036596301, 
			 "HOMO_LUMO_gap": 0.18229, 
			 "cosmo_polarized_energy": -14.97, 
			 "cosmo_cavitation_energy": 28.17, 
			 "cosmo_dispersion_energy": -20.18, 
			 "cosmo_repulsion_energy": 1.63, 
			 "cosmo_total_nonelectrostatic_energy": 9.62, 
			 "SMD_solvation_energy": 5.79 
		},
		"coords": [
			{
				"x": -0.9374433538,
				"y": 0.8929588161,
				"z": 2.8692945419,
				"element": "C" 
			},
			{
				"x": 0.105111896,
				"y": 0.6341064503,
				"z": 1.7661598641,
				"element": "C" 
			},
			{
				"x": 1.4067822936,
				"y": 1.4104105555,
				"z": 2.0376668957,
				"element": "C" 
			},
			{
				"x": -0.4570081545,
				"y": 0.9846786876,
				"z": 0.399764066,
				"element": "C" 
			},
			{
				"x": -0.8060725873,
				"y": 2.272884419,
				"z": 0.2048617724,
				"element": "N" 
			},
			{
				"x": -1.2962154349,
				"y": 2.6308115063,
				"z": -0.9747317724,
				"element": "C" 
			},
			{
				"x": -1.6226243603,
				"y": 3.9297913559,
				"z": -1.1513929552,
				"element": "O" 
			},
			{
				"x": -1.4934092004,
				"y": 1.7444824384,
				"z": -2.0448501255,
				"element": "C" 
			},
			{
				"x": -1.1421575758,
				"y": 0.4127318628,
				"z": -1.8394406996,
				"element": "C" 
			},
			{
				"x": -0.6044849837,
				"y": 0.0275932989,
				"z": -0.6035683192,
				"element": "C" 
			},
			{
				"x": -1.2876304314,
				"y": -0.6387642445,
				"z": -2.9065783932,
				"element": "C" 
			},
			{
				"x": -2.1982290085,
				"y": -0.3910533163,
				"z": -3.881755469,
				"element": "O" 
			},
			{
				"x": -0.6416678741,
				"y": -1.6584056099,
				"z": -2.917192665,
				"element": "O" 
			},
			{
				"x": -1.8447798171,
				"y": 0.3018889112,
				"z": 2.7079309699,
				"element": "H" 
			},
			{
				"x": -0.5300950428,
				"y": 0.6286426831,
				"z": 3.850558671,
				"element": "H" 
			},
			{
				"x": -1.2197688438,
				"y": 1.9498018799,
				"z": 2.8857733613,
				"element": "H" 
			},
			{
				"x": 0.3381824042,
				"y": -0.4377534455,
				"z": 1.7559264098,
				"element": "H" 
			},
			{
				"x": 1.2179931842,
				"y": 2.4878611438,
				"z": 2.0217552514,
				"element": "H" 
			},
			{
				"x": 1.8127456445,
				"y": 1.1449515888,
				"z": 3.0192045134,
				"element": "H" 
			},
			{
				"x": 2.1684047024,
				"y": 1.1881448015,
				"z": 1.2834208281,
				"element": "H" 
			},
			{
				"x": -1.4095743823,
				"y": 4.3762963506,
				"z": -0.3162818182,
				"element": "H" 
			},
			{
				"x": -1.8617915975,
				"y": 2.1303843223,
				"z": -2.9895419259,
				"element": "H" 
			},
			{
				"x": -0.3127086731,
				"y": -1.0043496482,
				"z": -0.4494714872,
				"element": "H" 
			},
			{
				"x": -2.7282588035,
				"y": 0.3863051922,
				"z": -3.6555115145,
				"element": "H" 
			}
		],
		 "valence_orbital": [ 
			{
				"type": "occ",
				"energy": -0.32376,
				"method": "rhf"
			},
			{
				"type": "occ",
				"energy": -0.29877,
				"method": "rhf"
			},
			{
				"type": "occ",
				"energy": -0.28639,
				"method": "rhf"
			},
			{
				"type": "occ",
				"energy": -0.27834,
				"method": "rhf"
			},
			{
				"type": "occ",
				"energy": -0.24861,
				"method": "rhf"
			},
			{
				"type": "unocc",
				"energy": -0.06632,
				"method": "rhf"
			},
			{
				"type": "unocc",
				"energy": -0.01512,
				"method": "rhf"
			},
			{
				"type": "unocc",
				"energy": 0.03928,
				"method": "rhf"
			},
			{
				"type": "unocc",
				"energy": 0.0611,
				"method": "rhf"
			},
			{
				"type": "unocc",
				"energy": 0.0793,
				"method": "rhf"
			}
		],
		"cosmo_sigma_profile": { 
			"-0.025": 0.0,
			"-0.024": 0.0,
			"-0.023": 0.0,
			"-0.022": 0.0,
			"-0.021": 0.0,
			"-0.02": 0.0,
			"-0.019": 0.391847120549,
			"-0.018": 0.776393026789,
			"-0.017": 1.71978521416,
			"-0.016": 2.26706546132,
			"-0.015": 1.70323393844,
			"-0.014": 1.45312681768,
			"-0.013": 1.75287226643,
			"-0.012": 1.82940778216,
			"-0.011": 2.21611055102,
			"-0.01": 1.52940449301,
			"-0.009": 2.66468656439,
			"-0.008": 2.12518293816,
			"-0.007": 2.06266068521,
			"-0.006": 3.93030548789,
			"-0.005": 5.62658355673,
			"-0.004": 8.99442634481,
			"-0.003": 15.3498191725,
			"-0.002": 19.3987967567,
			"-0.001": 23.2197827205,
			"0.0": 27.9953342342,
			"0.001": 26.6682553031,
			"0.002": 11.6861924281,
			"0.003": 6.03824166316,
			"0.004": 6.0421939092,
			"0.005": 6.66290197018,
			"0.006": 5.39048740875,
			"0.007": 5.15002744682,
			"0.008": 5.16562214016,
			"0.009": 6.13590543626,
			"0.01": 7.11271690124,
			"0.011": 5.81284966279,
			"0.012": 2.94593283557,
			"0.013": 0.514276940966,
			"0.014": 0.0,
			"0.015": 0.0,
			"0.016": 0.0,
			"0.017": 0.0,
			"0.018": 0.0,
			"0.019": 0.0,
			"0.02": 0.0,
			"0.021": 0.0,
			"0.022": 0.0,
			"0.023": 0.0,
			"0.024": 0.0,
			"0.025": 0.0
		}
	}
}
