{
	 "smiles": "ClCC(=O)N1CCC(=O)N1", 
	 "Tm": 418.65, 
	 "num_atms": 17, 
	 "gaussian": { 
		 "optdone": 1, 
		 "sigma_profile": "yes", 
		 "theory": "DFT", 
		 "functional": "B3LYP", 
		 "basiset": "6-31G**", 
		 "properties": { 
			 "R2extent": 3031.6911, 
			 "electric_dipole_moment_norm": 4.16013420577, 
			 "electric_quadrupole_moment_norm": 8.70160204962, 
			 "total_energy": -914.873771263, 
			 "HOMO_LUMO_gap": 0.19847, 
			 "cosmo_polarized_energy": -16.78, 
			 "cosmo_cavitation_energy": 22.73, 
			 "cosmo_dispersion_energy": -16.99, 
			 "cosmo_repulsion_energy": 1.41, 
			 "cosmo_total_nonelectrostatic_energy": 7.15, 
			 "SMD_solvation_energy": 4.66 
		},
		"coords": [
			{
				"x": -0.8867228415,
				"y": 3.4440362625,
				"z": -3.2464574499,
				"element": "Cl" 
			},
			{
				"x": -1.9053437313,
				"y": 2.4315993374,
				"z": -2.1336674755,
				"element": "C" 
			},
			{
				"x": -1.3961447714,
				"y": 1.0017843985,
				"z": -2.0143764953,
				"element": "C" 
			},
			{
				"x": -2.0240973791,
				"y": 0.0494192915,
				"z": -2.4743765244,
				"element": "O" 
			},
			{
				"x": -0.2378622514,
				"y": 0.8228569022,
				"z": -1.3315819094,
				"element": "N" 
			},
			{
				"x": 0.7725682885,
				"y": 1.7486795598,
				"z": -0.7983671639,
				"element": "C" 
			},
			{
				"x": 1.5828055027,
				"y": 0.8459626326,
				"z": 0.147758971,
				"element": "C" 
			},
			{
				"x": 1.298477519,
				"y": -0.5828741522,
				"z": -0.3404440773,
				"element": "C" 
			},
			{
				"x": 1.8411258651,
				"y": -1.612159076,
				"z": 0.0064249433,
				"element": "O" 
			},
			{
				"x": 0.2935010324,
				"y": -0.4734637274,
				"z": -1.2702789023,
				"element": "N" 
			},
			{
				"x": -2.9032643915,
				"y": 2.3824786847,
				"z": -2.56350724,
				"element": "H" 
			},
			{
				"x": -1.9332333557,
				"y": 2.9492120552,
				"z": -1.1728843533,
				"element": "H" 
			},
			{
				"x": 0.2879163543,
				"y": 2.5886868651,
				"z": -0.2985030856,
				"element": "H" 
			},
			{
				"x": 1.3921879003,
				"y": 2.1377931527,
				"z": -1.6136405246,
				"element": "H" 
			},
			{
				"x": 2.6539033854,
				"y": 1.0517007206,
				"z": 0.1287934013,
				"element": "H" 
			},
			{
				"x": 1.2427226929,
				"y": 0.9176422323,
				"z": 1.1863044119,
				"element": "H" 
			},
			{
				"x": -0.3163398189,
				"y": -1.2105551395,
				"z": -1.601796526,
				"element": "H" 
			}
		],
		 "valence_orbital": [ 
			{
				"type": "occ",
				"energy": -0.3246,
				"method": "rhf"
			},
			{
				"type": "occ",
				"energy": -0.31775,
				"method": "rhf"
			},
			{
				"type": "occ",
				"energy": -0.27617,
				"method": "rhf"
			},
			{
				"type": "occ",
				"energy": -0.26788,
				"method": "rhf"
			},
			{
				"type": "occ",
				"energy": -0.23237,
				"method": "rhf"
			},
			{
				"type": "unocc",
				"energy": -0.0339,
				"method": "rhf"
			},
			{
				"type": "unocc",
				"energy": 0.0079,
				"method": "rhf"
			},
			{
				"type": "unocc",
				"energy": 0.03742,
				"method": "rhf"
			},
			{
				"type": "unocc",
				"energy": 0.06928,
				"method": "rhf"
			},
			{
				"type": "unocc",
				"energy": 0.08426,
				"method": "rhf"
			}
		],
		"cosmo_sigma_profile": { 
			"-0.025": 0.0,
			"-0.024": 0.0,
			"-0.023": 0.0,
			"-0.022": 0.0,
			"-0.021": 0.0,
			"-0.02": 0.0,
			"-0.019": 0.0,
			"-0.018": 0.0,
			"-0.017": 0.0,
			"-0.016": 0.0,
			"-0.015": 0.745274306761,
			"-0.014": 0.501143209239,
			"-0.013": 0.192893749995,
			"-0.012": 0.703559599465,
			"-0.011": 1.44706150148,
			"-0.01": 3.47008605191,
			"-0.009": 4.74014988926,
			"-0.008": 5.98973301993,
			"-0.007": 14.735195011,
			"-0.006": 15.4957872023,
			"-0.005": 12.0251517556,
			"-0.004": 10.2897537051,
			"-0.003": 9.41109161968,
			"-0.002": 6.38775092582,
			"-0.001": 9.18500239642,
			"0.0": 8.95972615903,
			"0.001": 7.84266859772,
			"0.002": 7.7573277998,
			"0.003": 7.64893034879,
			"0.004": 8.78597555641,
			"0.005": 8.58308914714,
			"0.006": 4.7616553541,
			"0.007": 2.49152128319,
			"0.008": 1.96822238176,
			"0.009": 2.85310203489,
			"0.01": 3.58486761516,
			"0.011": 3.22240275888,
			"0.012": 8.32004971782,
			"0.013": 8.36639011648,
			"0.014": 1.732161221,
			"0.015": 0.0,
			"0.016": 0.0,
			"0.017": 0.0,
			"0.018": 0.0,
			"0.019": 0.0,
			"0.02": 0.0,
			"0.021": 0.0,
			"0.022": 0.0,
			"0.023": 0.0,
			"0.024": 0.0,
			"0.025": 0.0
		}
	}
}
