{
	 "smiles": "NC1=CC=CC=C1SCCS(=O)(=O)C1=CC=C(Cl)C=C1", 
	 "Tm": 409.15, 
	 "num_atms": 34, 
	 "gaussian": { 
		 "optdone": 1, 
		 "sigma_profile": "yes", 
		 "theory": "DFT", 
		 "functional": "B3LYP", 
		 "basiset": "6-31G**", 
		 "properties": { 
			 "R2extent": 8072.818, 
			 "electric_dipole_moment_norm": 5.34498061175, 
			 "electric_quadrupole_moment_norm": 19.0352448537, 
			 "total_energy": -2003.63514573, 
			 "HOMO_LUMO_gap": 0.16854, 
			 "cosmo_polarized_energy": -18.13, 
			 "cosmo_cavitation_energy": 42.24, 
			 "cosmo_dispersion_energy": -29.08, 
			 "cosmo_repulsion_energy": 2.16, 
			 "cosmo_total_nonelectrostatic_energy": 15.33, 
			 "SMD_solvation_energy": 5.47 
		},
		"coords": [
			{
				"x": -0.717791906,
				"y": -1.7638200691,
				"z": 3.2397384629,
				"element": "N" 
			},
			{
				"x": 0.1890227161,
				"y": -2.0806226033,
				"z": 2.234046445,
				"element": "C" 
			},
			{
				"x": 0.7413036267,
				"y": -3.371020595,
				"z": 2.1432712403,
				"element": "C" 
			},
			{
				"x": 1.6202512824,
				"y": -3.7023219498,
				"z": 1.117141024,
				"element": "C" 
			},
			{
				"x": 1.9753534245,
				"y": -2.7585042005,
				"z": 0.1501753308,
				"element": "C" 
			},
			{
				"x": 1.4256805105,
				"y": -1.4792730573,
				"z": 0.2194565891,
				"element": "C" 
			},
			{
				"x": 0.5338776376,
				"y": -1.1288451929,
				"z": 1.2414648056,
				"element": "C" 
			},
			{
				"x": -0.1097293648,
				"y": 0.5416297667,
				"z": 1.3257607225,
				"element": "S" 
			},
			{
				"x": -1.8661073348,
				"y": 0.2712822086,
				"z": 0.8231598269,
				"element": "C" 
			},
			{
				"x": -2.0813835696,
				"y": -0.1814886318,
				"z": -0.6153800956,
				"element": "C" 
			},
			{
				"x": -2.0004719517,
				"y": 1.1398828468,
				"z": -1.8847125574,
				"element": "S" 
			},
			{
				"x": -2.7320367836,
				"y": 0.60726452,
				"z": -3.0470804337,
				"element": "O" 
			},
			{
				"x": -2.3949696273,
				"y": 2.4071128905,
				"z": -1.2442898936,
				"element": "O" 
			},
			{
				"x": -0.276646049,
				"y": 1.2937001631,
				"z": -2.3828243117,
				"element": "C" 
			},
			{
				"x": 0.502569644,
				"y": 2.323922461,
				"z": -1.8568673644,
				"element": "C" 
			},
			{
				"x": 1.8265102925,
				"y": 2.4610403228,
				"z": -2.2710860216,
				"element": "C" 
			},
			{
				"x": 2.3439431047,
				"y": 1.5601004801,
				"z": -3.2036329707,
				"element": "C" 
			},
			{
				"x": 4.0104210639,
				"y": 1.7268525306,
				"z": -3.7229233702,
				"element": "Cl" 
			},
			{
				"x": 1.5629392097,
				"y": 0.5342246686,
				"z": -3.7412507783,
				"element": "C" 
			},
			{
				"x": 0.2372626567,
				"y": 0.4061323111,
				"z": -3.3303565802,
				"element": "C" 
			},
			{
				"x": -0.6752767629,
				"y": -2.3583359978,
				"z": 4.0561986564,
				"element": "H" 
			},
			{
				"x": -0.7464532732,
				"y": -0.7768343398,
				"z": 3.4709078989,
				"element": "H" 
			},
			{
				"x": 0.4763397415,
				"y": -4.1117250111,
				"z": 2.8939678373,
				"element": "H" 
			},
			{
				"x": 2.0353558459,
				"y": -4.7055276572,
				"z": 1.0774396246,
				"element": "H" 
			},
			{
				"x": 2.666552213,
				"y": -3.0145963694,
				"z": -0.6462232226,
				"element": "H" 
			},
			{
				"x": 1.6866123438,
				"y": -0.7297777628,
				"z": -0.5211875616,
				"element": "H" 
			},
			{
				"x": -2.3005781113,
				"y": -0.4726381545,
				"z": 1.4966275205,
				"element": "H" 
			},
			{
				"x": -2.3675982641,
				"y": 1.2274846452,
				"z": 0.9942291039,
				"element": "H" 
			},
			{
				"x": -1.3957359327,
				"y": -0.976937826,
				"z": -0.91966502,
				"element": "H" 
			},
			{
				"x": -3.1053046169,
				"y": -0.5477545028,
				"z": -0.7491813491,
				"element": "H" 
			},
			{
				"x": 0.0706413378,
				"y": 3.0129914927,
				"z": -1.1404457791,
				"element": "H" 
			},
			{
				"x": 2.4501837977,
				"y": 3.2560959554,
				"z": -1.8786433604,
				"element": "H" 
			},
			{
				"x": 1.9835102541,
				"y": -0.1410871582,
				"z": -4.4777021234,
				"element": "H" 
			},
			{
				"x": -0.3996471553,
				"y": -0.360606184,
				"z": -3.7585322952,
				"element": "H" 
			}
		],
		 "valence_orbital": [ 
			{
				"type": "occ",
				"energy": -0.28203,
				"method": "rhf"
			},
			{
				"type": "occ",
				"energy": -0.26792,
				"method": "rhf"
			},
			{
				"type": "occ",
				"energy": -0.26071,
				"method": "rhf"
			},
			{
				"type": "occ",
				"energy": -0.24017,
				"method": "rhf"
			},
			{
				"type": "occ",
				"energy": -0.2163,
				"method": "rhf"
			},
			{
				"type": "unocc",
				"energy": -0.04776,
				"method": "rhf"
			},
			{
				"type": "unocc",
				"energy": -0.03153,
				"method": "rhf"
			},
			{
				"type": "unocc",
				"energy": -0.02134,
				"method": "rhf"
			},
			{
				"type": "unocc",
				"energy": -7e-05,
				"method": "rhf"
			},
			{
				"type": "unocc",
				"energy": 0.01716,
				"method": "rhf"
			}
		],
		"cosmo_sigma_profile": { 
			"-0.025": 0.0,
			"-0.024": 0.0,
			"-0.023": 0.0,
			"-0.022": 0.0,
			"-0.021": 0.0,
			"-0.02": 0.0,
			"-0.019": 0.0,
			"-0.018": 0.0,
			"-0.017": 0.0,
			"-0.016": 0.0,
			"-0.015": 0.0,
			"-0.014": 0.0,
			"-0.013": 0.552162692271,
			"-0.012": 1.37670942395,
			"-0.011": 1.68461766983,
			"-0.01": 2.55277963677,
			"-0.009": 4.04851037855,
			"-0.008": 11.2440614408,
			"-0.007": 14.2655222233,
			"-0.006": 15.9797587615,
			"-0.005": 19.9667471318,
			"-0.004": 19.8539024337,
			"-0.003": 21.1674925003,
			"-0.002": 21.6090643424,
			"-0.001": 26.7307853715,
			"0.0": 26.7912738536,
			"0.001": 29.3231045729,
			"0.002": 20.187885368,
			"0.003": 20.0036230902,
			"0.004": 22.8779935378,
			"0.005": 16.3404355589,
			"0.006": 10.9527126887,
			"0.007": 3.93735299701,
			"0.008": 4.56081017926,
			"0.009": 4.36405879223,
			"0.01": 4.699996168,
			"0.011": 8.83573065625,
			"0.012": 6.76358088529,
			"0.013": 0.261565368441,
			"0.014": 0.0,
			"0.015": 0.0,
			"0.016": 0.0,
			"0.017": 0.0,
			"0.018": 0.0,
			"0.019": 0.0,
			"0.02": 0.0,
			"0.021": 0.0,
			"0.022": 0.0,
			"0.023": 0.0,
			"0.024": 0.0,
			"0.025": 0.0
		}
	}
}
