{
	 "smiles": "CCN(CCO)C1=CC=C(NS(=O)(=O)C2=CC=C(N)C=C2)C=C1", 
	 "Tm": 388.15, 
	 "num_atms": 44, 
	 "gaussian": { 
		 "optdone": 1, 
		 "sigma_profile": "yes", 
		 "theory": "DFT", 
		 "functional": "B3LYP", 
		 "basiset": "6-31G**", 
		 "properties": { 
			 "R2extent": 10210.1774, 
			 "electric_dipole_moment_norm": 6.33031069933, 
			 "electric_quadrupole_moment_norm": 47.809197305, 
			 "total_energy": -1410.39419667, 
			 "HOMO_LUMO_gap": 0.18718, 
			 "cosmo_polarized_energy": -25.55, 
			 "cosmo_cavitation_energy": 47.5, 
			 "cosmo_dispersion_energy": -32.34, 
			 "cosmo_repulsion_energy": 2.46, 
			 "cosmo_total_nonelectrostatic_energy": 17.62, 
			 "SMD_solvation_energy": 6.89 
		},
		"coords": [
			{
				"x": -3.531738907,
				"y": 0.5211190932,
				"z": -0.5984941805,
				"element": "C" 
			},
			{
				"x": -3.5492086983,
				"y": 1.3447244624,
				"z": 0.6878476035,
				"element": "C" 
			},
			{
				"x": -2.3112091164,
				"y": 2.1179511358,
				"z": 0.8807666218,
				"element": "N" 
			},
			{
				"x": -2.4234844917,
				"y": 3.1503417941,
				"z": 1.9343296309,
				"element": "C" 
			},
			{
				"x": -1.4773433432,
				"y": 4.3182458474,
				"z": 1.6396499927,
				"element": "C" 
			},
			{
				"x": -1.6371475407,
				"y": 4.7601282523,
				"z": 0.3023854182,
				"element": "O" 
			},
			{
				"x": -1.1022672067,
				"y": 1.3366424905,
				"z": 0.9786063721,
				"element": "C" 
			},
			{
				"x": -1.0236434741,
				"y": 0.1523801408,
				"z": 1.7273487348,
				"element": "C" 
			},
			{
				"x": 0.1653591983,
				"y": -0.5670890756,
				"z": 1.8219563788,
				"element": "C" 
			},
			{
				"x": 1.3104781081,
				"y": -0.1171240839,
				"z": 1.1493683106,
				"element": "C" 
			},
			{
				"x": 2.544503757,
				"y": -0.8105350398,
				"z": 1.26805967,
				"element": "N" 
			},
			{
				"x": 2.7306520314,
				"y": -2.460059432,
				"z": 0.8654410956,
				"element": "S" 
			},
			{
				"x": 4.1708250905,
				"y": -2.6806616866,
				"z": 1.0092689007,
				"element": "O" 
			},
			{
				"x": 1.7380431765,
				"y": -3.1970744716,
				"z": 1.6481967857,
				"element": "O" 
			},
			{
				"x": 2.3078043968,
				"y": -2.6346293321,
				"z": -0.8560960987,
				"element": "C" 
			},
			{
				"x": 3.3059747231,
				"y": -2.5093741567,
				"z": -1.8288984199,
				"element": "C" 
			},
			{
				"x": 2.9779659525,
				"y": -2.6139178322,
				"z": -3.1732088297,
				"element": "C" 
			},
			{
				"x": 1.6449284033,
				"y": -2.8432091499,
				"z": -3.5715598282,
				"element": "C" 
			},
			{
				"x": 1.326226715,
				"y": -2.995585788,
				"z": -4.9083530047,
				"element": "N" 
			},
			{
				"x": 0.6534885225,
				"y": -2.9726535542,
				"z": -2.5779179533,
				"element": "C" 
			},
			{
				"x": 0.9809820101,
				"y": -2.8711104844,
				"z": -1.2329036023,
				"element": "C" 
			},
			{
				"x": 1.2413034985,
				"y": 1.0634832672,
				"z": 0.3984980779,
				"element": "C" 
			},
			{
				"x": 0.0507541745,
				"y": 1.7821001823,
				"z": 0.3195879004,
				"element": "C" 
			},
			{
				"x": -2.7524595494,
				"y": -0.2455363436,
				"z": -0.5775001361,
				"element": "H" 
			},
			{
				"x": -3.3506028916,
				"y": 1.1665168724,
				"z": -1.4635986556,
				"element": "H" 
			},
			{
				"x": -4.4951185675,
				"y": 0.0196768326,
				"z": -0.7351113789,
				"element": "H" 
			},
			{
				"x": -4.3653230394,
				"y": 2.0731832755,
				"z": 0.6348249345,
				"element": "H" 
			},
			{
				"x": -3.7780859131,
				"y": 0.6925044601,
				"z": 1.5486953703,
				"element": "H" 
			},
			{
				"x": -2.2383666008,
				"y": 2.7461860099,
				"z": 2.943019938,
				"element": "H" 
			},
			{
				"x": -3.4526178744,
				"y": 3.5235650013,
				"z": 1.9071087548,
				"element": "H" 
			},
			{
				"x": -1.7092927734,
				"y": 5.1540438954,
				"z": 2.3102010196,
				"element": "H" 
			},
			{
				"x": -0.4362898402,
				"y": 4.0193711933,
				"z": 1.8360567012,
				"element": "H" 
			},
			{
				"x": -1.9114146147,
				"y": 3.9612339844,
				"z": -0.1799965786,
				"element": "H" 
			},
			{
				"x": -1.8961154462,
				"y": -0.2106135828,
				"z": 2.2618632024,
				"element": "H" 
			},
			{
				"x": 0.2213188995,
				"y": -1.4696262074,
				"z": 2.418579028,
				"element": "H" 
			},
			{
				"x": 3.3532200385,
				"y": -0.2979080338,
				"z": 0.9305634178,
				"element": "H" 
			},
			{
				"x": 4.3354413697,
				"y": -2.3526224145,
				"z": -1.5246752585,
				"element": "H" 
			},
			{
				"x": 3.7557245483,
				"y": -2.5321870414,
				"z": -3.9278549604,
				"element": "H" 
			},
			{
				"x": 1.9787975203,
				"y": -2.6237240155,
				"z": -5.5821557075,
				"element": "H" 
			},
			{
				"x": 0.3588888329,
				"y": -2.8719838231,
				"z": -5.1674533035,
				"element": "H" 
			},
			{
				"x": -0.3749711381,
				"y": -3.1667795533,
				"z": -2.870462074,
				"element": "H" 
			},
			{
				"x": 0.2180148209,
				"y": -2.9900835747,
				"z": -0.4720164198,
				"element": "H" 
			},
			{
				"x": 2.1208461339,
				"y": 1.4174610502,
				"z": -0.133604243,
				"element": "H" 
			},
			{
				"x": 0.0049591048,
				"y": 2.697029436,
				"z": -0.2626632269,
				"element": "H" 
			}
		],
		 "valence_orbital": [ 
			{
				"type": "occ",
				"energy": -0.262,
				"method": "rhf"
			},
			{
				"type": "occ",
				"energy": -0.25712,
				"method": "rhf"
			},
			{
				"type": "occ",
				"energy": -0.24523,
				"method": "rhf"
			},
			{
				"type": "occ",
				"energy": -0.22688,
				"method": "rhf"
			},
			{
				"type": "occ",
				"energy": -0.21516,
				"method": "rhf"
			},
			{
				"type": "unocc",
				"energy": -0.02798,
				"method": "rhf"
			},
			{
				"type": "unocc",
				"energy": -0.01921,
				"method": "rhf"
			},
			{
				"type": "unocc",
				"energy": -0.01137,
				"method": "rhf"
			},
			{
				"type": "unocc",
				"energy": -0.00546,
				"method": "rhf"
			},
			{
				"type": "unocc",
				"energy": 0.05821,
				"method": "rhf"
			}
		],
		"cosmo_sigma_profile": { 
			"-0.025": 0.0,
			"-0.024": 0.0,
			"-0.023": 0.0,
			"-0.022": 0.0,
			"-0.021": 0.0,
			"-0.02": 0.0,
			"-0.019": 0.0,
			"-0.018": 0.0,
			"-0.017": 0.0,
			"-0.016": 0.0231100381214,
			"-0.015": 0.718636718743,
			"-0.014": 1.86000766765,
			"-0.013": 3.42700454131,
			"-0.012": 4.49559558926,
			"-0.011": 3.95593818862,
			"-0.01": 4.42333450166,
			"-0.009": 4.6668475212,
			"-0.008": 4.91902761114,
			"-0.007": 8.36999410763,
			"-0.006": 12.4508359688,
			"-0.005": 18.8592895085,
			"-0.004": 26.0586939003,
			"-0.003": 29.3140329012,
			"-0.002": 33.0150681586,
			"-0.001": 32.9380238337,
			"0.0": 24.7419400258,
			"0.001": 24.570451938,
			"0.002": 21.4274857652,
			"0.003": 21.8369801293,
			"0.004": 28.5096245388,
			"0.005": 10.1487159965,
			"0.006": 6.43807017878,
			"0.007": 6.76944019899,
			"0.008": 6.03344214155,
			"0.009": 5.90139720233,
			"0.01": 8.5118520781,
			"0.011": 9.58056195183,
			"0.012": 4.83039856691,
			"0.013": 1.66062406923,
			"0.014": 2.08391345163,
			"0.015": 2.23290889623,
			"0.016": 0.0856652904471,
			"0.017": 0.0,
			"0.018": 0.0,
			"0.019": 0.0,
			"0.02": 0.0,
			"0.021": 0.0,
			"0.022": 0.0,
			"0.023": 0.0,
			"0.024": 0.0,
			"0.025": 0.0
		}
	}
}
