{
	 "smiles": "COC1=CC=C(NC(=O)C(C)=N/NC(N)=O)C=C1", 
	 "Tm": 500.15, 
	 "num_atms": 32, 
	 "gaussian": { 
		 "optdone": 1, 
		 "sigma_profile": "yes", 
		 "theory": "DFT", 
		 "functional": "B3LYP", 
		 "basiset": "6-31G**", 
		 "properties": { 
			 "R2extent": 7441.0533, 
			 "electric_dipole_moment_norm": 5.67625048866, 
			 "electric_quadrupole_moment_norm": 25.8735495375, 
			 "total_energy": -872.269903366, 
			 "HOMO_LUMO_gap": 0.16593, 
			 "cosmo_polarized_energy": -28.44, 
			 "cosmo_cavitation_energy": 37.5, 
			 "cosmo_dispersion_energy": -26.55, 
			 "cosmo_repulsion_energy": 2.1, 
			 "cosmo_total_nonelectrostatic_energy": 13.05, 
			 "SMD_solvation_energy": 8.61 
		},
		"coords": [
			{
				"x": 2.2886613424,
				"y": -4.5118089901,
				"z": 0.568200508,
				"element": "C" 
			},
			{
				"x": 1.2066931525,
				"y": -3.8756308161,
				"z": 1.2301368825,
				"element": "O" 
			},
			{
				"x": 0.8042841289,
				"y": -2.6527755295,
				"z": 0.7770901787,
				"element": "C" 
			},
			{
				"x": -0.2749070342,
				"y": -2.0733892605,
				"z": 1.4612064022,
				"element": "C" 
			},
			{
				"x": -0.7583324135,
				"y": -0.8322194542,
				"z": 1.0772526404,
				"element": "C" 
			},
			{
				"x": -0.1801741927,
				"y": -0.1350709789,
				"z": 0.0023670093,
				"element": "C" 
			},
			{
				"x": -0.7222173409,
				"y": 1.1342429279,
				"z": -0.318851127,
				"element": "N" 
			},
			{
				"x": -0.4332856929,
				"y": 1.9462843086,
				"z": -1.3922016654,
				"element": "C" 
			},
			{
				"x": 0.4140992219,
				"y": 1.7004782519,
				"z": -2.2423415581,
				"element": "O" 
			},
			{
				"x": -1.289029708,
				"y": 3.1995001626,
				"z": -1.4867190731,
				"element": "C" 
			},
			{
				"x": -1.7717887797,
				"y": 3.5324902331,
				"z": -2.8722275525,
				"element": "C" 
			},
			{
				"x": -1.5798986572,
				"y": 4.0143120949,
				"z": -0.5353370473,
				"element": "N" 
			},
			{
				"x": -1.1178053254,
				"y": 3.7973871544,
				"z": 0.7334827651,
				"element": "N" 
			},
			{
				"x": -1.3024325842,
				"y": 4.832382105,
				"z": 1.6737752265,
				"element": "C" 
			},
			{
				"x": -0.6227753427,
				"y": 4.5703550192,
				"z": 2.8552597716,
				"element": "N" 
			},
			{
				"x": -1.9579478208,
				"y": 5.8320629232,
				"z": 1.4770671122,
				"element": "O" 
			},
			{
				"x": 0.896176502,
				"y": -0.7112942468,
				"z": -0.6810259978,
				"element": "C" 
			},
			{
				"x": 1.3822319386,
				"y": -1.9630267175,
				"z": -0.2935237055,
				"element": "C" 
			},
			{
				"x": 3.2095049951,
				"y": -3.9178312323,
				"z": 0.6333843728,
				"element": "H" 
			},
			{
				"x": 2.4387726199,
				"y": -5.4629033857,
				"z": 1.0812105581,
				"element": "H" 
			},
			{
				"x": 2.060730896,
				"y": -4.7038217727,
				"z": -0.4882139401,
				"element": "H" 
			},
			{
				"x": -0.7199588532,
				"y": -2.6160298294,
				"z": 2.2884317042,
				"element": "H" 
			},
			{
				"x": -1.5995237282,
				"y": -0.3985835651,
				"z": 1.6141232409,
				"element": "H" 
			},
			{
				"x": -1.5159837944,
				"y": 1.4175246605,
				"z": 0.2417170873,
				"element": "H" 
			},
			{
				"x": -2.4151731722,
				"y": 2.7374715814,
				"z": -3.2679355416,
				"element": "H" 
			},
			{
				"x": -2.3273616002,
				"y": 4.4707437114,
				"z": -2.8505581325,
				"element": "H" 
			},
			{
				"x": -0.9181680542,
				"y": 3.6197945275,
				"z": -3.5512445984,
				"element": "H" 
			},
			{
				"x": -0.2989207424,
				"y": 3.2063010898,
				"z": 0.8600899867,
				"element": "H" 
			},
			{
				"x": -0.4822986044,
				"y": 3.6098529773,
				"z": 3.1362774082,
				"element": "H" 
			},
			{
				"x": -0.8840044679,
				"y": 5.195408413,
				"z": 3.6040844544,
				"element": "H" 
			},
			{
				"x": 1.3423574537,
				"y": -0.1837853874,
				"z": -1.512067738,
				"element": "H" 
			},
			{
				"x": 2.2156756582,
				"y": -2.3853209754,
				"z": -0.8421096321,
				"element": "H" 
			}
		],
		 "valence_orbital": [ 
			{
				"type": "occ",
				"energy": -0.26545,
				"method": "rhf"
			},
			{
				"type": "occ",
				"energy": -0.26278,
				"method": "rhf"
			},
			{
				"type": "occ",
				"energy": -0.25703,
				"method": "rhf"
			},
			{
				"type": "occ",
				"energy": -0.24331,
				"method": "rhf"
			},
			{
				"type": "occ",
				"energy": -0.21197,
				"method": "rhf"
			},
			{
				"type": "unocc",
				"energy": -0.04604,
				"method": "rhf"
			},
			{
				"type": "unocc",
				"energy": -0.01308,
				"method": "rhf"
			},
			{
				"type": "unocc",
				"energy": 0.00801,
				"method": "rhf"
			},
			{
				"type": "unocc",
				"energy": 0.03996,
				"method": "rhf"
			},
			{
				"type": "unocc",
				"energy": 0.05195,
				"method": "rhf"
			}
		],
		"cosmo_sigma_profile": { 
			"-0.025": 0.0,
			"-0.024": 0.0,
			"-0.023": 0.0,
			"-0.022": 0.0,
			"-0.021": 0.0,
			"-0.02": 0.0,
			"-0.019": 0.0,
			"-0.018": 0.0,
			"-0.017": 0.0,
			"-0.016": 0.294915434913,
			"-0.015": 2.21070176175,
			"-0.014": 3.61453459203,
			"-0.013": 5.46067298658,
			"-0.012": 4.56814991183,
			"-0.011": 4.53744737275,
			"-0.01": 5.26656400714,
			"-0.009": 4.69443998057,
			"-0.008": 3.39652606683,
			"-0.007": 5.33271837127,
			"-0.006": 12.8104370119,
			"-0.005": 20.3394266595,
			"-0.004": 21.244298433,
			"-0.003": 20.8884037055,
			"-0.002": 17.3378195123,
			"-0.001": 18.8719865666,
			"0.0": 15.8329144288,
			"0.001": 13.9167820269,
			"0.002": 12.7208173788,
			"0.003": 16.5006989353,
			"0.004": 18.7012216844,
			"0.005": 15.7599743255,
			"0.006": 6.5870667932,
			"0.007": 4.63480918466,
			"0.008": 5.22112028028,
			"0.009": 5.60282101643,
			"0.01": 5.88805050244,
			"0.011": 5.15981157434,
			"0.012": 4.91700423578,
			"0.013": 7.47728800862,
			"0.014": 3.62697663125,
			"0.015": 1.62672690911,
			"0.016": 1.21817672557,
			"0.017": 0.87932582033,
			"0.018": 0.635438168586,
			"0.019": 0.000322365072274,
			"0.02": 0.0,
			"0.021": 0.0,
			"0.022": 0.0,
			"0.023": 0.0,
			"0.024": 0.0,
			"0.025": 0.0
		}
	}
}
