{
	 "smiles": "OCC1=NC2=C(S1)C=CC(=C2)C(F)(F)F", 
	 "Tm": 370.15, 
	 "num_atms": 21, 
	 "gaussian": { 
		 "optdone": 1, 
		 "sigma_profile": "yes", 
		 "theory": "DFT", 
		 "functional": "B3LYP", 
		 "basiset": "6-31G**", 
		 "properties": { 
			 "R2extent": 5593.03, 
			 "electric_dipole_moment_norm": 2.50982551983, 
			 "electric_quadrupole_moment_norm": 14.1830443742, 
			 "total_energy": -1174.26115077, 
			 "HOMO_LUMO_gap": 0.20211, 
			 "cosmo_polarized_energy": -9.96, 
			 "cosmo_cavitation_energy": 28.73, 
			 "cosmo_dispersion_energy": -21.31, 
			 "cosmo_repulsion_energy": 1.56, 
			 "cosmo_total_nonelectrostatic_energy": 8.98, 
			 "SMD_solvation_energy": 3.87 
		},
		"coords": [
			{
				"x": 2.9880605862,
				"y": -2.8366492224,
				"z": 2.3549898303,
				"element": "O" 
			},
			{
				"x": 1.6548635675,
				"y": -3.3028414624,
				"z": 2.2693131725,
				"element": "C" 
			},
			{
				"x": 0.7209453598,
				"y": -2.2893978867,
				"z": 1.6560184313,
				"element": "C" 
			},
			{
				"x": -0.4115780362,
				"y": -2.5715883807,
				"z": 1.1039686481,
				"element": "N" 
			},
			{
				"x": -1.0544419384,
				"y": -1.4196338478,
				"z": 0.6746404294,
				"element": "C" 
			},
			{
				"x": -0.3520928056,
				"y": -0.2122402293,
				"z": 0.9097524386,
				"element": "C" 
			},
			{
				"x": 1.1649742181,
				"y": -0.5649984997,
				"z": 1.7086127217,
				"element": "S" 
			},
			{
				"x": -0.8780611046,
				"y": 1.021270091,
				"z": 0.51216735,
				"element": "C" 
			},
			{
				"x": -2.116449832,
				"y": 1.0369299424,
				"z": -0.1164395574,
				"element": "C" 
			},
			{
				"x": -2.8219527827,
				"y": -0.1596848154,
				"z": -0.350466543,
				"element": "C" 
			},
			{
				"x": -2.3021957087,
				"y": -1.388189198,
				"z": 0.0384380869,
				"element": "C" 
			},
			{
				"x": -4.1780233406,
				"y": -0.0778138411,
				"z": -0.9975483699,
				"element": "C" 
			},
			{
				"x": -4.1692651226,
				"y": 0.7550340854,
				"z": -2.0642316389,
				"element": "F" 
			},
			{
				"x": -4.614933981,
				"y": -1.2809766801,
				"z": -1.4253825337,
				"element": "F" 
			},
			{
				"x": -5.1094222631,
				"y": 0.4036523061,
				"z": -0.1410787017,
				"element": "F" 
			},
			{
				"x": 3.3449377742,
				"y": -2.7732226263,
				"z": 1.4588744084,
				"element": "H" 
			},
			{
				"x": 1.3387667722,
				"y": -3.5035367287,
				"z": 3.299292307,
				"element": "H" 
			},
			{
				"x": 1.5581683205,
				"y": -4.2421493846,
				"z": 1.7079232345,
				"element": "H" 
			},
			{
				"x": -0.3377659237,
				"y": 1.9456205595,
				"z": 0.6872798527,
				"element": "H" 
			},
			{
				"x": -2.5454070747,
				"y": 1.9796055017,
				"z": -0.4392187091,
				"element": "H" 
			},
			{
				"x": -2.8380266846,
				"y": -2.3118896828,
				"z": -0.1437048577,
				"element": "H" 
			}
		],
		 "valence_orbital": [ 
			{
				"type": "occ",
				"energy": -0.317,
				"method": "rhf"
			},
			{
				"type": "occ",
				"energy": -0.30631,
				"method": "rhf"
			},
			{
				"type": "occ",
				"energy": -0.28709,
				"method": "rhf"
			},
			{
				"type": "occ",
				"energy": -0.25414,
				"method": "rhf"
			},
			{
				"type": "occ",
				"energy": -0.25128,
				"method": "rhf"
			},
			{
				"type": "unocc",
				"energy": -0.04917,
				"method": "rhf"
			},
			{
				"type": "unocc",
				"energy": -0.03047,
				"method": "rhf"
			},
			{
				"type": "unocc",
				"energy": 0.00597,
				"method": "rhf"
			},
			{
				"type": "unocc",
				"energy": 0.01346,
				"method": "rhf"
			},
			{
				"type": "unocc",
				"energy": 0.0545,
				"method": "rhf"
			}
		],
		"cosmo_sigma_profile": { 
			"-0.025": 0.0,
			"-0.024": 0.0,
			"-0.023": 0.0,
			"-0.022": 0.0,
			"-0.021": 0.0,
			"-0.02": 0.0,
			"-0.019": 0.0,
			"-0.018": 0.0213587729878,
			"-0.017": 0.612543027904,
			"-0.016": 0.942450988493,
			"-0.015": 0.779225912211,
			"-0.014": 1.75625817812,
			"-0.013": 0.478619027071,
			"-0.012": 0.770412465366,
			"-0.011": 0.920857441294,
			"-0.01": 0.761427185163,
			"-0.009": 1.33591673093,
			"-0.008": 4.40499923512,
			"-0.007": 10.2125541834,
			"-0.006": 10.900128976,
			"-0.005": 10.1540831065,
			"-0.004": 9.328055613,
			"-0.003": 9.03996545207,
			"-0.002": 12.3765004824,
			"-0.001": 13.074452328,
			"0.0": 16.0986243997,
			"0.001": 25.6512617262,
			"0.002": 38.0195038769,
			"0.003": 37.4854974896,
			"0.004": 6.45344395589,
			"0.005": 3.4176421444,
			"0.006": 2.50151073833,
			"0.007": 1.75459483383,
			"0.008": 1.62513885044,
			"0.009": 2.50199870735,
			"0.01": 1.83943980531,
			"0.011": 2.29127057707,
			"0.012": 2.52837195836,
			"0.013": 1.99533267894,
			"0.014": 0.59259925271,
			"0.015": 0.0456754629457,
			"0.016": 0.0,
			"0.017": 0.0,
			"0.018": 0.0,
			"0.019": 0.0,
			"0.02": 0.0,
			"0.021": 0.0,
			"0.022": 0.0,
			"0.023": 0.0,
			"0.024": 0.0,
			"0.025": 0.0
		}
	}
}
