{
	 "smiles": "[O-][N+](=O)C1=CC=C(NC(=O)C(F)(F)C(F)(F)C(F)(F)C(F)(F)C(F)(F)C(F)(F)C(F)(F)C(F)(F)F)C(=C1)[N+]([O-])=O", 
	 "Tm": 398.15, 
	 "num_atms": 44, 
	 "gaussian": { 
		 "optdone": 1, 
		 "sigma_profile": "yes", 
		 "theory": "DFT", 
		 "functional": "B3LYP", 
		 "basiset": "6-31G**", 
		 "properties": { 
			 "R2extent": 27895.8502, 
			 "electric_dipole_moment_norm": 2.08979831802, 
			 "electric_quadrupole_moment_norm": 22.0669000557, 
			 "total_energy": -2811.39700229, 
			 "HOMO_LUMO_gap": 0.15696, 
			 "cosmo_polarized_energy": -13.25, 
			 "cosmo_cavitation_energy": 55.69, 
			 "cosmo_dispersion_energy": -36.72, 
			 "cosmo_repulsion_energy": 2.37, 
			 "cosmo_total_nonelectrostatic_energy": 21.34, 
			 "SMD_solvation_energy": 18.87 
		},
		"coords": [
			{
				"x": -4.4376595981,
				"y": 3.7910688487,
				"z": 5.4730169455,
				"element": "O" 
			},
			{
				"x": -3.2178084754,
				"y": 3.8369208,
				"z": 5.6205684138,
				"element": "N" 
			},
			{
				"x": -2.6373014089,
				"y": 4.2725258496,
				"z": 6.6123059093,
				"element": "O" 
			},
			{
				"x": -2.3892882557,
				"y": 3.3279352165,
				"z": 4.5181733439,
				"element": "C" 
			},
			{
				"x": -3.0021303979,
				"y": 2.8228780225,
				"z": 3.370525443,
				"element": "C" 
			},
			{
				"x": -2.222372746,
				"y": 2.3436215145,
				"z": 2.3308028162,
				"element": "C" 
			},
			{
				"x": -0.8127136961,
				"y": 2.3554072532,
				"z": 2.4108213285,
				"element": "C" 
			},
			{
				"x": -0.0163688815,
				"y": 1.8722677648,
				"z": 1.3798040358,
				"element": "N" 
			},
			{
				"x": -0.423845255,
				"y": 1.3470017067,
				"z": 0.1787486379,
				"element": "C" 
			},
			{
				"x": -1.558879593,
				"y": 1.2243664149,
				"z": -0.2319153374,
				"element": "O" 
			},
			{
				"x": 0.7765855161,
				"y": 0.891785377,
				"z": -0.7011698401,
				"element": "C" 
			},
			{
				"x": 1.8114742656,
				"y": 1.7694613646,
				"z": -0.5363337968,
				"element": "F" 
			},
			{
				"x": 0.3999823417,
				"y": 0.9090130836,
				"z": -1.991900892,
				"element": "F" 
			},
			{
				"x": 1.3681078018,
				"y": -0.5039992087,
				"z": -0.3574407551,
				"element": "C" 
			},
			{
				"x": 1.8413826394,
				"y": -0.419262413,
				"z": 0.9155460946,
				"element": "F" 
			},
			{
				"x": 2.406795645,
				"y": -0.7370461894,
				"z": -1.1875779121,
				"element": "F" 
			},
			{
				"x": 0.4235192863,
				"y": -1.7376875753,
				"z": -0.3668329103,
				"element": "C" 
			},
			{
				"x": -0.5618438037,
				"y": -1.4783462672,
				"z": 0.5351178584,
				"element": "F" 
			},
			{
				"x": 1.1427672773,
				"y": -2.7867152205,
				"z": 0.0871527696,
				"element": "F" 
			},
			{
				"x": -0.3091318065,
				"y": -2.1770380517,
				"z": -1.6710297701,
				"element": "C" 
			},
			{
				"x": -1.2110957881,
				"y": -1.2157277251,
				"z": -1.9691011063,
				"element": "F" 
			},
			{
				"x": -0.9711916115,
				"y": -3.3127555182,
				"z": -1.3486045654,
				"element": "F" 
			},
			{
				"x": 0.4680879045,
				"y": -2.4542629066,
				"z": -2.9990225455,
				"element": "C" 
			},
			{
				"x": -0.4940588735,
				"y": -2.8003984875,
				"z": -3.8913177894,
				"element": "F" 
			},
			{
				"x": 1.0561666044,
				"y": -1.3103568703,
				"z": -3.4114200354,
				"element": "F" 
			},
			{
				"x": 1.5203099808,
				"y": -3.590600892,
				"z": -2.9939815,
				"element": "C" 
			},
			{
				"x": 2.4680342864,
				"y": -3.2978250864,
				"z": -2.070882767,
				"element": "F" 
			},
			{
				"x": 0.9098681325,
				"y": -4.7448265484,
				"z": -2.6513172052,
				"element": "F" 
			},
			{
				"x": 2.3028804604,
				"y": -3.8225177496,
				"z": -4.3250552853,
				"element": "C" 
			},
			{
				"x": 3.1121939732,
				"y": -4.8805797996,
				"z": -4.0870160936,
				"element": "F" 
			},
			{
				"x": 3.0612837609,
				"y": -2.732912259,
				"z": -4.5736688689,
				"element": "F" 
			},
			{
				"x": 1.4927230398,
				"y": -4.1418569896,
				"z": -5.6076346721,
				"element": "C" 
			},
			{
				"x": 2.3262000907,
				"y": -4.6343976597,
				"z": -6.5307025344,
				"element": "F" 
			},
			{
				"x": 0.5403400086,
				"y": -5.0478312812,
				"z": -5.3553536322,
				"element": "F" 
			},
			{
				"x": 0.9298438748,
				"y": -3.0285977005,
				"z": -6.0923781412,
				"element": "F" 
			},
			{
				"x": -0.2256786301,
				"y": 2.8798915451,
				"z": 3.5983364021,
				"element": "C" 
			},
			{
				"x": -1.0122727693,
				"y": 3.3616082094,
				"z": 4.6428539016,
				"element": "C" 
			},
			{
				"x": 1.2266303144,
				"y": 2.9539737586,
				"z": 3.8110675395,
				"element": "N" 
			},
			{
				"x": 1.9843899068,
				"y": 2.5489542305,
				"z": 2.9130189817,
				"element": "O" 
			},
			{
				"x": 1.6302342833,
				"y": 3.4155835687,
				"z": 4.8695240738,
				"element": "O" 
			},
			{
				"x": -4.0832345999,
				"y": 2.8120396453,
				"z": 3.3063065519,
				"element": "H" 
			},
			{
				"x": -2.6825385194,
				"y": 1.9524725894,
				"z": 1.4354996118,
				"element": "H" 
			},
			{
				"x": 0.9851506549,
				"y": 1.9475370329,
				"z": 1.5668186473,
				"element": "H" 
			},
			{
				"x": -0.54613734,
				"y": 3.7550286031,
				"z": 5.5355486497,
				"element": "H" 
			}
		],
		 "valence_orbital": [ 
			{
				"type": "occ",
				"energy": -0.32671,
				"method": "rhf"
			},
			{
				"type": "occ",
				"energy": -0.31895,
				"method": "rhf"
			},
			{
				"type": "occ",
				"energy": -0.31237,
				"method": "rhf"
			},
			{
				"type": "occ",
				"energy": -0.3114,
				"method": "rhf"
			},
			{
				"type": "occ",
				"energy": -0.28652,
				"method": "rhf"
			},
			{
				"type": "unocc",
				"energy": -0.12956,
				"method": "rhf"
			},
			{
				"type": "unocc",
				"energy": -0.11302,
				"method": "rhf"
			},
			{
				"type": "unocc",
				"energy": -0.06023,
				"method": "rhf"
			},
			{
				"type": "unocc",
				"energy": -0.03921,
				"method": "rhf"
			},
			{
				"type": "unocc",
				"energy": -0.0068,
				"method": "rhf"
			}
		],
		"cosmo_sigma_profile": { 
			"-0.025": 0.0,
			"-0.024": 0.0,
			"-0.023": 0.0,
			"-0.022": 0.0,
			"-0.021": 0.0,
			"-0.02": 0.0,
			"-0.019": 0.0,
			"-0.018": 0.0,
			"-0.017": 0.0,
			"-0.016": 0.0,
			"-0.015": 0.0,
			"-0.014": 0.0,
			"-0.013": 0.0,
			"-0.012": 0.0,
			"-0.011": 0.0,
			"-0.01": 1.31205144413,
			"-0.009": 4.30410149409,
			"-0.008": 5.70214871788,
			"-0.007": 7.61847567267,
			"-0.006": 11.741378703,
			"-0.005": 16.5443488652,
			"-0.004": 23.8224609399,
			"-0.003": 24.6140575297,
			"-0.002": 26.6133261985,
			"-0.001": 46.3276210841,
			"0.0": 91.916744771,
			"0.001": 102.91089884,
			"0.002": 14.5152909206,
			"0.003": 6.886886032,
			"0.004": 8.79521827737,
			"0.005": 8.80471346541,
			"0.006": 13.5904351391,
			"0.007": 16.0247045222,
			"0.008": 10.649467686,
			"0.009": 6.61577596713,
			"0.01": 0.673947945265,
			"0.011": 0.0,
			"0.012": 0.0,
			"0.013": 0.0,
			"0.014": 0.0,
			"0.015": 0.0,
			"0.016": 0.0,
			"0.017": 0.0,
			"0.018": 0.0,
			"0.019": 0.0,
			"0.02": 0.0,
			"0.021": 0.0,
			"0.022": 0.0,
			"0.023": 0.0,
			"0.024": 0.0,
			"0.025": 0.0
		}
	}
}
