{
	 "smiles": "OC(=O)C1=C(C=CC=C1)C(=O)NC1=CC=C(C=C1)C1=CC=CC=C1", 
	 "Tm": 566.15, 
	 "num_atms": 39, 
	 "gaussian": { 
		 "optdone": 1, 
		 "sigma_profile": "yes", 
		 "theory": "DFT", 
		 "functional": "B3LYP", 
		 "basiset": "6-31G**", 
		 "properties": { 
			 "R2extent": 13335.9737, 
			 "electric_dipole_moment_norm": 4.19974033126, 
			 "electric_quadrupole_moment_norm": 22.3286321567, 
			 "total_energy": -1051.63147193, 
			 "HOMO_LUMO_gap": 0.1478, 
			 "cosmo_polarized_energy": -21.4, 
			 "cosmo_cavitation_energy": 44.69, 
			 "cosmo_dispersion_energy": -31.67, 
			 "cosmo_repulsion_energy": 2.38, 
			 "cosmo_total_nonelectrostatic_energy": 15.39, 
			 "SMD_solvation_energy": 8.71 
		},
		"coords": [
			{
				"x": 2.8724324242,
				"y": 1.9608417404,
				"z": -5.4385077278,
				"element": "O" 
			},
			{
				"x": 2.5597006707,
				"y": 1.3396638231,
				"z": -4.2748702307,
				"element": "C" 
			},
			{
				"x": 1.7709231912,
				"y": 1.8100399045,
				"z": -3.4812894357,
				"element": "O" 
			},
			{
				"x": 3.3079262698,
				"y": 0.0663468897,
				"z": -4.0785457773,
				"element": "C" 
			},
			{
				"x": 2.868158247,
				"y": -0.8585926244,
				"z": -3.11095243,
				"element": "C" 
			},
			{
				"x": 3.6320577544,
				"y": -2.0041293921,
				"z": -2.8676023529,
				"element": "C" 
			},
			{
				"x": 4.8131341495,
				"y": -2.2387370347,
				"z": -3.5749828766,
				"element": "C" 
			},
			{
				"x": 5.2394823961,
				"y": -1.3285002499,
				"z": -4.5417393002,
				"element": "C" 
			},
			{
				"x": 4.4880604134,
				"y": -0.1812337443,
				"z": -4.7914854273,
				"element": "C" 
			},
			{
				"x": 1.5203181582,
				"y": -0.7390443052,
				"z": -2.4230118855,
				"element": "C" 
			},
			{
				"x": 0.4829118368,
				"y": -0.9616335596,
				"z": -3.0274169215,
				"element": "O" 
			},
			{
				"x": 1.6151985458,
				"y": -0.4725765538,
				"z": -1.0778737068,
				"element": "N" 
			},
			{
				"x": 0.580698758,
				"y": -0.3261419335,
				"z": -0.1312360377,
				"element": "C" 
			},
			{
				"x": 0.9452854853,
				"y": 0.010404747,
				"z": 1.1815739588,
				"element": "C" 
			},
			{
				"x": -0.0206413133,
				"y": 0.1609256405,
				"z": 2.1687305492,
				"element": "C" 
			},
			{
				"x": -1.385155637,
				"y": -0.0180409136,
				"z": 1.8851476775,
				"element": "C" 
			},
			{
				"x": -1.7309333058,
				"y": -0.3526491592,
				"z": 0.5656548669,
				"element": "C" 
			},
			{
				"x": -0.7767446943,
				"y": -0.5080496342,
				"z": -0.4364022027,
				"element": "C" 
			},
			{
				"x": -2.4177409631,
				"y": 0.1412422519,
				"z": 2.938866329,
				"element": "C" 
			},
			{
				"x": -3.5487234099,
				"y": -0.6931230612,
				"z": 2.9755827049,
				"element": "C" 
			},
			{
				"x": -4.5197421647,
				"y": -0.5430877374,
				"z": 3.9645966265,
				"element": "C" 
			},
			{
				"x": -4.3813286104,
				"y": 0.4426327377,
				"z": 4.9437132013,
				"element": "C" 
			},
			{
				"x": -3.2629534119,
				"y": 1.2781759966,
				"z": 4.9219770986,
				"element": "C" 
			},
			{
				"x": -2.294165337,
				"y": 1.1302796509,
				"z": 3.9304091877,
				"element": "C" 
			},
			{
				"x": 2.3526165912,
				"y": 2.7815644522,
				"z": -5.4465617074,
				"element": "H" 
			},
			{
				"x": 3.2874545769,
				"y": -2.7259169931,
				"z": -2.1326412738,
				"element": "H" 
			},
			{
				"x": 5.3927508702,
				"y": -3.1350907916,
				"z": -3.3745383207,
				"element": "H" 
			},
			{
				"x": 6.154732145,
				"y": -1.5077974314,
				"z": -5.0974713931,
				"element": "H" 
			},
			{
				"x": 4.815584386,
				"y": 0.5392183111,
				"z": -5.5321738708,
				"element": "H" 
			},
			{
				"x": 2.542413507,
				"y": -0.2497085004,
				"z": -0.7441318651,
				"element": "H" 
			},
			{
				"x": 1.9954891448,
				"y": 0.1449749865,
				"z": 1.4319870477,
				"element": "H" 
			},
			{
				"x": 0.2915865679,
				"y": 0.3957352114,
				"z": 3.1818379571,
				"element": "H" 
			},
			{
				"x": -2.7786091348,
				"y": -0.4697618368,
				"z": 0.3046997065,
				"element": "H" 
			},
			{
				"x": -1.0648994371,
				"y": -0.7524406046,
				"z": -1.4488646509,
				"element": "H" 
			},
			{
				"x": -3.6531626932,
				"y": -1.4816318265,
				"z": 2.2360967136,
				"element": "H" 
			},
			{
				"x": -5.3816838684,
				"y": -1.2044957657,
				"z": 3.9758306128,
				"element": "H" 
			},
			{
				"x": -5.1371832296,
				"y": 0.5587763892,
				"z": 5.7150455983,
				"element": "H" 
			},
			{
				"x": -3.1489639307,
				"y": 2.0550637125,
				"z": 5.6730016297,
				"element": "H" 
			},
			{
				"x": -1.4439849481,
				"y": 1.8057972077,
				"z": 3.9062479284,
				"element": "H" 
			}
		],
		 "valence_orbital": [ 
			{
				"type": "occ",
				"energy": -0.25284,
				"method": "rhf"
			},
			{
				"type": "occ",
				"energy": -0.24899,
				"method": "rhf"
			},
			{
				"type": "occ",
				"energy": -0.24858,
				"method": "rhf"
			},
			{
				"type": "occ",
				"energy": -0.24567,
				"method": "rhf"
			},
			{
				"type": "occ",
				"energy": -0.20499,
				"method": "rhf"
			},
			{
				"type": "unocc",
				"energy": -0.05719,
				"method": "rhf"
			},
			{
				"type": "unocc",
				"energy": -0.02959,
				"method": "rhf"
			},
			{
				"type": "unocc",
				"energy": -0.02019,
				"method": "rhf"
			},
			{
				"type": "unocc",
				"energy": -0.00098,
				"method": "rhf"
			},
			{
				"type": "unocc",
				"energy": 0.00419,
				"method": "rhf"
			}
		],
		"cosmo_sigma_profile": { 
			"-0.025": 0.0,
			"-0.024": 0.0,
			"-0.023": 0.0,
			"-0.022": 0.0,
			"-0.021": 0.0,
			"-0.02": 0.0,
			"-0.019": 0.321941350374,
			"-0.018": 0.8684637475,
			"-0.017": 0.838458022469,
			"-0.016": 0.671089181568,
			"-0.015": 2.28211822002,
			"-0.014": 1.29919484393,
			"-0.013": 1.46707142506,
			"-0.012": 1.65369048103,
			"-0.011": 2.48341898124,
			"-0.01": 2.13440414902,
			"-0.009": 1.44337884394,
			"-0.008": 3.08207907581,
			"-0.007": 9.14382744105,
			"-0.006": 18.3106308789,
			"-0.005": 27.6236813289,
			"-0.004": 25.2031972804,
			"-0.003": 24.4638746838,
			"-0.002": 22.1145424722,
			"-0.001": 19.9628045315,
			"0.0": 19.2398891163,
			"0.001": 24.1305899472,
			"0.002": 26.5463283634,
			"0.003": 32.6903166718,
			"0.004": 24.1306592519,
			"0.005": 23.6319028965,
			"0.006": 12.0664106989,
			"0.007": 4.00613210429,
			"0.008": 3.77291004932,
			"0.009": 4.15475384237,
			"0.01": 4.68636787524,
			"0.011": 7.09422100903,
			"0.012": 4.52550539998,
			"0.013": 2.27409217744,
			"0.014": 0.417001744625,
			"0.015": 0.0,
			"0.016": 0.0,
			"0.017": 0.0,
			"0.018": 0.0,
			"0.019": 0.0,
			"0.02": 0.0,
			"0.021": 0.0,
			"0.022": 0.0,
			"0.023": 0.0,
			"0.024": 0.0,
			"0.025": 0.0
		}
	}
}
