{
	 "smiles": "CC1=C(C=O)C2=C(N1)C=CC=C2", 
	 "Tm": 477.15, 
	 "num_atms": 21, 
	 "gaussian": { 
		 "optdone": 1, 
		 "sigma_profile": "yes", 
		 "theory": "DFT", 
		 "functional": "B3LYP", 
		 "basiset": "6-31G**", 
		 "properties": { 
			 "R2extent": 2103.0659, 
			 "electric_dipole_moment_norm": 4.16309161682, 
			 "electric_quadrupole_moment_norm": 11.5366533683, 
			 "total_energy": -516.473190233, 
			 "HOMO_LUMO_gap": 0.17597, 
			 "cosmo_polarized_energy": -13.51, 
			 "cosmo_cavitation_energy": 25.04, 
			 "cosmo_dispersion_energy": -18.39, 
			 "cosmo_repulsion_energy": 1.44, 
			 "cosmo_total_nonelectrostatic_energy": 8.09, 
			 "SMD_solvation_energy": 4.88 
		},
		"coords": [
			{
				"x": -1.7458784017,
				"y": 0.8327109678,
				"z": 1.9497142688,
				"element": "C" 
			},
			{
				"x": -0.7413894303,
				"y": 0.4973742994,
				"z": 0.8980468101,
				"element": "C" 
			},
			{
				"x": -0.2662273597,
				"y": -0.7464805346,
				"z": 0.4856110585,
				"element": "C" 
			},
			{
				"x": -0.6895242956,
				"y": -2.0170838783,
				"z": 1.0397356,
				"element": "C" 
			},
			{
				"x": -1.5150550846,
				"y": -2.1538013997,
				"z": 1.93671616,
				"element": "O" 
			},
			{
				"x": 0.6989830185,
				"y": -0.5083854918,
				"z": -0.5689382185,
				"element": "C" 
			},
			{
				"x": 0.7654146718,
				"y": 0.8963124823,
				"z": -0.7503165145,
				"element": "C" 
			},
			{
				"x": -0.1210147831,
				"y": 1.4657185616,
				"z": 0.1563600425,
				"element": "N" 
			},
			{
				"x": 1.5991655135,
				"y": 1.5006557234,
				"z": -1.6925812171,
				"element": "C" 
			},
			{
				"x": 2.3889479403,
				"y": 0.6632202541,
				"z": -2.4747563427,
				"element": "C" 
			},
			{
				"x": 2.342083489,
				"y": -0.734922497,
				"z": -2.3149279508,
				"element": "C" 
			},
			{
				"x": 1.5078006829,
				"y": -1.3279620555,
				"z": -1.3728916007,
				"element": "C" 
			},
			{
				"x": -1.4288331175,
				"y": 0.4454103827,
				"z": 2.9221576723,
				"element": "H" 
			},
			{
				"x": -1.8965486554,
				"y": 1.9140565181,
				"z": 2.0275643021,
				"element": "H" 
			},
			{
				"x": -2.704727911,
				"y": 0.3533140953,
				"z": 1.7329724843,
				"element": "H" 
			},
			{
				"x": -0.2037878418,
				"y": -2.9100702528,
				"z": 0.5883904276,
				"element": "H" 
			},
			{
				"x": -0.289950757,
				"y": 2.4547587394,
				"z": 0.2599856786,
				"element": "H" 
			},
			{
				"x": 1.631837464,
				"y": 2.5799287101,
				"z": -1.8121690078,
				"element": "H" 
			},
			{
				"x": 3.050947348,
				"y": 1.0951051893,
				"z": -3.2191398224,
				"element": "H" 
			},
			{
				"x": 2.970972301,
				"y": -1.361072065,
				"z": -2.9409089185,
				"element": "H" 
			},
			{
				"x": 1.4857852087,
				"y": -2.4081877489,
				"z": -1.2646249119,
				"element": "H" 
			}
		],
		 "valence_orbital": [ 
			{
				"type": "occ",
				"energy": -0.33808,
				"method": "rhf"
			},
			{
				"type": "occ",
				"energy": -0.28009,
				"method": "rhf"
			},
			{
				"type": "occ",
				"energy": -0.23532,
				"method": "rhf"
			},
			{
				"type": "occ",
				"energy": -0.23109,
				"method": "rhf"
			},
			{
				"type": "occ",
				"energy": -0.2116,
				"method": "rhf"
			},
			{
				"type": "unocc",
				"energy": -0.03563,
				"method": "rhf"
			},
			{
				"type": "unocc",
				"energy": -0.0061,
				"method": "rhf"
			},
			{
				"type": "unocc",
				"energy": 0.01999,
				"method": "rhf"
			},
			{
				"type": "unocc",
				"energy": 0.06689,
				"method": "rhf"
			},
			{
				"type": "unocc",
				"energy": 0.09612,
				"method": "rhf"
			}
		],
		"cosmo_sigma_profile": { 
			"-0.025": 0.0,
			"-0.024": 0.0,
			"-0.023": 0.0,
			"-0.022": 0.0,
			"-0.021": 0.0,
			"-0.02": 0.0,
			"-0.019": 0.0,
			"-0.018": 0.0,
			"-0.017": 0.104091544159,
			"-0.016": 1.37720538334,
			"-0.015": 0.976177164556,
			"-0.014": 1.29572681007,
			"-0.013": 2.13403312116,
			"-0.012": 1.55028717489,
			"-0.011": 1.22147884521,
			"-0.01": 1.17848800455,
			"-0.009": 1.49964843795,
			"-0.008": 1.79291098545,
			"-0.007": 2.51475898584,
			"-0.006": 6.51323182734,
			"-0.005": 15.2302340551,
			"-0.004": 15.3273780104,
			"-0.003": 16.3806063942,
			"-0.002": 15.4971413896,
			"-0.001": 15.50991478,
			"0.0": 10.7854012411,
			"0.001": 10.6294067529,
			"0.002": 13.9880887287,
			"0.003": 12.8638672461,
			"0.004": 11.2245304823,
			"0.005": 10.543118965,
			"0.006": 10.1141388819,
			"0.007": 3.91762945856,
			"0.008": 1.51977700532,
			"0.009": 1.49068778077,
			"0.01": 1.71394719956,
			"0.011": 2.32636142059,
			"0.012": 2.60036358718,
			"0.013": 3.52272274962,
			"0.014": 1.99395135839,
			"0.015": 0.561198803198,
			"0.016": 0.0,
			"0.017": 0.0,
			"0.018": 0.0,
			"0.019": 0.0,
			"0.02": 0.0,
			"0.021": 0.0,
			"0.022": 0.0,
			"0.023": 0.0,
			"0.024": 0.0,
			"0.025": 0.0
		}
	}
}
