{
	 "smiles": "COC1=CC=C(C=C1N)S(F)(=O)=O", 
	 "Tm": 335.15, 
	 "num_atms": 21, 
	 "gaussian": { 
		 "optdone": 1, 
		 "sigma_profile": "yes", 
		 "theory": "DFT", 
		 "functional": "B3LYP", 
		 "basiset": "6-31G**", 
		 "properties": { 
			 "R2extent": 3265.887, 
			 "electric_dipole_moment_norm": 7.49182018538, 
			 "electric_quadrupole_moment_norm": 11.7859898978, 
			 "total_energy": -1049.9458449, 
			 "HOMO_LUMO_gap": 0.17829, 
			 "cosmo_polarized_energy": -14.14, 
			 "cosmo_cavitation_energy": 27.07, 
			 "cosmo_dispersion_energy": -20.62, 
			 "cosmo_repulsion_energy": 1.57, 
			 "cosmo_total_nonelectrostatic_energy": 8.02, 
			 "SMD_solvation_energy": 4.88 
		},
		"coords": [
			{
				"x": -2.5321208321,
				"y": 2.5813001119,
				"z": 1.9700528927,
				"element": "C" 
			},
			{
				"x": -1.3421130554,
				"y": 1.8452471994,
				"z": 2.2245469491,
				"element": "O" 
			},
			{
				"x": -0.7166924686,
				"y": 1.2337679443,
				"z": 1.1783259531,
				"element": "C" 
			},
			{
				"x": -1.1491854621,
				"y": 1.2726828028,
				"z": -0.1457303157,
				"element": "C" 
			},
			{
				"x": -0.423533563,
				"y": 0.6207427286,
				"z": -1.1469346986,
				"element": "C" 
			},
			{
				"x": 0.7355513366,
				"y": -0.0573950019,
				"z": -0.7849236034,
				"element": "C" 
			},
			{
				"x": 1.1918418425,
				"y": -0.1063327492,
				"z": 0.5375613328,
				"element": "C" 
			},
			{
				"x": 0.4688583256,
				"y": 0.5366883408,
				"z": 1.5418927807,
				"element": "C" 
			},
			{
				"x": 0.835504052,
				"y": 0.4841554234,
				"z": 2.8763196926,
				"element": "N" 
			},
			{
				"x": 1.6680490879,
				"y": -0.8918513567,
				"z": -2.0325048676,
				"element": "S" 
			},
			{
				"x": 0.9967557152,
				"y": -2.3714113125,
				"z": -1.9508271281,
				"element": "F" 
			},
			{
				"x": 3.044370242,
				"y": -1.0713189812,
				"z": -1.6033819926,
				"element": "O" 
			},
			{
				"x": 1.3248572992,
				"y": -0.3843876856,
				"z": -3.3491908,
				"element": "O" 
			},
			{
				"x": -2.3478848123,
				"y": 3.4131253702,
				"z": 1.2793624755,
				"element": "H" 
			},
			{
				"x": -3.3189932436,
				"y": 1.9364147073,
				"z": 1.5611161812,
				"element": "H" 
			},
			{
				"x": -2.853674591,
				"y": 2.9759414443,
				"z": 2.9344728183,
				"element": "H" 
			},
			{
				"x": -2.0483839525,
				"y": 1.8148164011,
				"z": -0.4116901495,
				"element": "H" 
			},
			{
				"x": -0.7441655775,
				"y": 0.6532017055,
				"z": -2.1809329135,
				"element": "H" 
			},
			{
				"x": 2.1084971868,
				"y": -0.6350698655,
				"z": 0.7759877107,
				"element": "H" 
			},
			{
				"x": 1.8098336763,
				"y": 0.2993058731,
				"z": 3.063928798,
				"element": "H" 
			},
			{
				"x": 0.4299287939,
				"y": 1.2018768999,
				"z": 3.4592488841,
				"element": "H" 
			}
		],
		 "valence_orbital": [ 
			{
				"type": "occ",
				"energy": -0.3284,
				"method": "rhf"
			},
			{
				"type": "occ",
				"energy": -0.32633,
				"method": "rhf"
			},
			{
				"type": "occ",
				"energy": -0.31237,
				"method": "rhf"
			},
			{
				"type": "occ",
				"energy": -0.26153,
				"method": "rhf"
			},
			{
				"type": "occ",
				"energy": -0.21796,
				"method": "rhf"
			},
			{
				"type": "unocc",
				"energy": -0.03967,
				"method": "rhf"
			},
			{
				"type": "unocc",
				"energy": -0.01269,
				"method": "rhf"
			},
			{
				"type": "unocc",
				"energy": 0.03955,
				"method": "rhf"
			},
			{
				"type": "unocc",
				"energy": 0.06568,
				"method": "rhf"
			},
			{
				"type": "unocc",
				"energy": 0.07422,
				"method": "rhf"
			}
		],
		"cosmo_sigma_profile": { 
			"-0.025": 0.0,
			"-0.024": 0.0,
			"-0.023": 0.0,
			"-0.022": 0.0,
			"-0.021": 0.0,
			"-0.02": 0.0,
			"-0.019": 0.0,
			"-0.018": 0.0,
			"-0.017": 0.0,
			"-0.016": 0.0,
			"-0.015": 0.0,
			"-0.014": 0.297660270295,
			"-0.013": 1.20985712161,
			"-0.012": 2.36519366553,
			"-0.011": 2.09177800233,
			"-0.01": 2.93400696684,
			"-0.009": 2.17317782266,
			"-0.008": 4.54649235476,
			"-0.007": 7.72560258451,
			"-0.006": 13.803183,
			"-0.005": 12.4509358908,
			"-0.004": 15.0024100181,
			"-0.003": 12.7662599523,
			"-0.002": 9.02071158529,
			"-0.001": 9.35094437016,
			"0.0": 11.9471987888,
			"0.001": 14.8625192869,
			"0.002": 21.3010917674,
			"0.003": 23.0327055136,
			"0.004": 8.89869741771,
			"0.005": 6.20338536271,
			"0.006": 4.99655434308,
			"0.007": 4.39484205106,
			"0.008": 7.72960432308,
			"0.009": 11.4005817824,
			"0.01": 4.07103531775,
			"0.011": 0.532239730734,
			"0.012": 0.82843862981,
			"0.013": 0.277756334623,
			"0.014": 0.0,
			"0.015": 0.0,
			"0.016": 0.0,
			"0.017": 0.0,
			"0.018": 0.0,
			"0.019": 0.0,
			"0.02": 0.0,
			"0.021": 0.0,
			"0.022": 0.0,
			"0.023": 0.0,
			"0.024": 0.0,
			"0.025": 0.0
		}
	}
}
