{
	 "smiles": "CC1=CC2=C(SC(=C2)S(Cl)(=O)=O)C=C1", 
	 "Tm": 356.15, 
	 "num_atms": 21, 
	 "gaussian": { 
		 "optdone": 1, 
		 "sigma_profile": "yes", 
		 "theory": "DFT", 
		 "functional": "B3LYP", 
		 "basiset": "6-31G**", 
		 "properties": { 
			 "R2extent": 5758.646, 
			 "electric_dipole_moment_norm": 6.75160994356, 
			 "electric_quadrupole_moment_norm": 15.2455448273, 
			 "total_energy": -1754.12330324, 
			 "HOMO_LUMO_gap": 0.15093, 
			 "cosmo_polarized_energy": -9.42, 
			 "cosmo_cavitation_energy": 30.46, 
			 "cosmo_dispersion_energy": -23.21, 
			 "cosmo_repulsion_energy": 1.73, 
			 "cosmo_total_nonelectrostatic_energy": 8.98, 
			 "SMD_solvation_energy": 3.29 
		},
		"coords": [
			{
				"x": 3.5840598744,
				"y": -0.6564844742,
				"z": 1.8049704374,
				"element": "C" 
			},
			{
				"x": 2.3449587759,
				"y": 0.0158428473,
				"z": 1.2632633584,
				"element": "C" 
			},
			{
				"x": 1.9832031304,
				"y": -0.1049412529,
				"z": -0.0716133033,
				"element": "C" 
			},
			{
				"x": 0.8198875744,
				"y": 0.5287640843,
				"z": -0.554837037,
				"element": "C" 
			},
			{
				"x": 0.0238487168,
				"y": 1.2922145984,
				"z": 0.3357583966,
				"element": "C" 
			},
			{
				"x": -1.3636084968,
				"y": 2.0095379426,
				"z": -0.4649464385,
				"element": "S" 
			},
			{
				"x": -0.8589704169,
				"y": 1.2657170489,
				"z": -1.9707408245,
				"element": "C" 
			},
			{
				"x": 0.2835465452,
				"y": 0.5253151651,
				"z": -1.8832955637,
				"element": "C" 
			},
			{
				"x": -1.7817272398,
				"y": 1.4756487719,
				"z": -3.453268401,
				"element": "S" 
			},
			{
				"x": -3.2541957263,
				"y": -0.0566487151,
				"z": -3.2794361624,
				"element": "Cl" 
			},
			{
				"x": -2.5085470178,
				"y": 2.7361868712,
				"z": -3.3891526252,
				"element": "O" 
			},
			{
				"x": -0.9436946235,
				"y": 1.1001248815,
				"z": -4.5839269759,
				"element": "O" 
			},
			{
				"x": 0.3796193369,
				"y": 1.4268541684,
				"z": 1.6832948623,
				"element": "C" 
			},
			{
				"x": 1.5282321636,
				"y": 0.7877931587,
				"z": 2.1259052828,
				"element": "C" 
			},
			{
				"x": 4.2791909119,
				"y": 0.0760013695,
				"z": 2.230734553,
				"element": "H" 
			},
			{
				"x": 4.114416942,
				"y": -1.2063499763,
				"z": 1.0233462835,
				"element": "H" 
			},
			{
				"x": 3.3344465443,
				"y": -1.3650026583,
				"z": 2.6029986869,
				"element": "H" 
			},
			{
				"x": 2.5945498396,
				"y": -0.6904362156,
				"z": -0.7529744397,
				"element": "H" 
			},
			{
				"x": 0.7201823989,
				"y": 0.0064788216,
				"z": -2.7281160306,
				"element": "H" 
			},
			{
				"x": -0.2259501741,
				"y": 2.0128420416,
				"z": 2.3672315946,
				"element": "H" 
			},
			{
				"x": 1.8125509408,
				"y": 0.8819415215,
				"z": 3.1708043465,
				"element": "H" 
			}
		],
		 "valence_orbital": [ 
			{
				"type": "occ",
				"energy": -0.32626,
				"method": "rhf"
			},
			{
				"type": "occ",
				"energy": -0.31292,
				"method": "rhf"
			},
			{
				"type": "occ",
				"energy": -0.3108,
				"method": "rhf"
			},
			{
				"type": "occ",
				"energy": -0.25977,
				"method": "rhf"
			},
			{
				"type": "occ",
				"energy": -0.2464,
				"method": "rhf"
			},
			{
				"type": "unocc",
				"energy": -0.09547,
				"method": "rhf"
			},
			{
				"type": "unocc",
				"energy": -0.05347,
				"method": "rhf"
			},
			{
				"type": "unocc",
				"energy": -0.02415,
				"method": "rhf"
			},
			{
				"type": "unocc",
				"energy": -0.00866,
				"method": "rhf"
			},
			{
				"type": "unocc",
				"energy": 0.00824,
				"method": "rhf"
			}
		],
		"cosmo_sigma_profile": { 
			"-0.025": 0.0,
			"-0.024": 0.0,
			"-0.023": 0.0,
			"-0.022": 0.0,
			"-0.021": 0.0,
			"-0.02": 0.0,
			"-0.019": 0.0,
			"-0.018": 0.0,
			"-0.017": 0.0,
			"-0.016": 0.0,
			"-0.015": 0.0,
			"-0.014": 0.0,
			"-0.013": 0.0,
			"-0.012": 0.0,
			"-0.011": 0.0,
			"-0.01": 0.617110315664,
			"-0.009": 2.19040194577,
			"-0.008": 4.18399345667,
			"-0.007": 6.94799448047,
			"-0.006": 9.62153163461,
			"-0.005": 12.4688692182,
			"-0.004": 15.7881661859,
			"-0.003": 14.938308135,
			"-0.002": 17.8988180172,
			"-0.001": 24.8511499895,
			"0.0": 28.1962993074,
			"0.001": 21.8518563686,
			"0.002": 22.46536091,
			"0.003": 29.4941791785,
			"0.004": 11.4062464454,
			"0.005": 3.04874637831,
			"0.006": 2.78161561479,
			"0.007": 7.91039915115,
			"0.008": 9.96056611598,
			"0.009": 2.80705924999,
			"0.01": 0.0,
			"0.011": 0.0,
			"0.012": 0.0,
			"0.013": 0.0,
			"0.014": 0.0,
			"0.015": 0.0,
			"0.016": 0.0,
			"0.017": 0.0,
			"0.018": 0.0,
			"0.019": 0.0,
			"0.02": 0.0,
			"0.021": 0.0,
			"0.022": 0.0,
			"0.023": 0.0,
			"0.024": 0.0,
			"0.025": 0.0
		}
	}
}
