{
	 "smiles": "OC(=O)C1=C(F)C=C(F)C(=C1)S(Cl)(=O)=O", 
	 "Tm": 403.15, 
	 "num_atms": 18, 
	 "gaussian": { 
		 "optdone": 1, 
		 "sigma_profile": "yes", 
		 "theory": "DFT", 
		 "functional": "B3LYP", 
		 "basiset": "6-31G**", 
		 "properties": { 
			 "R2extent": 4725.6681, 
			 "electric_dipole_moment_norm": 5.86126508358, 
			 "electric_quadrupole_moment_norm": 16.5643758497, 
			 "total_energy": -1627.42373321, 
			 "HOMO_LUMO_gap": 0.19825, 
			 "cosmo_polarized_energy": -16.51, 
			 "cosmo_cavitation_energy": 27.85, 
			 "cosmo_dispersion_energy": -20.8, 
			 "cosmo_repulsion_energy": 1.53, 
			 "cosmo_total_nonelectrostatic_energy": 8.59, 
			 "SMD_solvation_energy": 5.57 
		},
		"coords": [
			{
				"x": -1.2800606523,
				"y": 2.4124876189,
				"z": 2.249449683,
				"element": "O" 
			},
			{
				"x": -1.3254537464,
				"y": 1.1973975974,
				"z": 1.674172126,
				"element": "C" 
			},
			{
				"x": -1.751567301,
				"y": 0.2399592983,
				"z": 2.2740099635,
				"element": "O" 
			},
			{
				"x": -0.8260693405,
				"y": 1.0656618375,
				"z": 0.2538119119,
				"element": "C" 
			},
			{
				"x": -0.3128377535,
				"y": 2.092211607,
				"z": -0.5454609053,
				"element": "C" 
			},
			{
				"x": -0.2290253122,
				"y": 3.3525140511,
				"z": -0.0495671328,
				"element": "F" 
			},
			{
				"x": 0.1327406166,
				"y": 1.9053950441,
				"z": -1.8469391803,
				"element": "C" 
			},
			{
				"x": 0.0579425215,
				"y": 0.6272795848,
				"z": -2.3809855982,
				"element": "C" 
			},
			{
				"x": 0.4914590003,
				"y": 0.4204130681,
				"z": -3.6208683145,
				"element": "F" 
			},
			{
				"x": -0.451699772,
				"y": -0.4343662678,
				"z": -1.6207151223,
				"element": "C" 
			},
			{
				"x": -0.8840331712,
				"y": -0.211628087,
				"z": -0.3185889491,
				"element": "C" 
			},
			{
				"x": -0.6181695347,
				"y": -2.0771034452,
				"z": -2.3140103987,
				"element": "S" 
			},
			{
				"x": 1.4137398877,
				"y": -2.6508037834,
				"z": -2.4726817658,
				"element": "Cl" 
			},
			{
				"x": -1.2194786051,
				"y": -2.9329141773,
				"z": -1.3020476102,
				"element": "O" 
			},
			{
				"x": -1.1390192741,
				"y": -1.984246997,
				"z": -3.6685807641,
				"element": "O" 
			},
			{
				"x": -0.9150272378,
				"y": 3.0762990718,
				"z": 1.6450176379,
				"element": "H" 
			},
			{
				"x": 0.5272293789,
				"y": 2.7296985275,
				"z": -2.4282754184,
				"element": "H" 
			},
			{
				"x": -1.2784697044,
				"y": -1.0250545487,
				"z": 0.2807598374,
				"element": "H" 
			}
		],
		 "valence_orbital": [ 
			{
				"type": "occ",
				"energy": -0.33922,
				"method": "rhf"
			},
			{
				"type": "occ",
				"energy": -0.32765,
				"method": "rhf"
			},
			{
				"type": "occ",
				"energy": -0.31769,
				"method": "rhf"
			},
			{
				"type": "occ",
				"energy": -0.30586,
				"method": "rhf"
			},
			{
				"type": "occ",
				"energy": -0.30216,
				"method": "rhf"
			},
			{
				"type": "unocc",
				"energy": -0.10391,
				"method": "rhf"
			},
			{
				"type": "unocc",
				"energy": -0.0875,
				"method": "rhf"
			},
			{
				"type": "unocc",
				"energy": -0.07042,
				"method": "rhf"
			},
			{
				"type": "unocc",
				"energy": 0.00412,
				"method": "rhf"
			},
			{
				"type": "unocc",
				"energy": 0.02279,
				"method": "rhf"
			}
		],
		"cosmo_sigma_profile": { 
			"-0.025": 0.0,
			"-0.024": 0.0,
			"-0.023": 0.0,
			"-0.022": 0.0,
			"-0.021": 0.0,
			"-0.02": 0.0,
			"-0.019": 0.0,
			"-0.018": 0.0,
			"-0.017": 0.0,
			"-0.016": 0.0,
			"-0.015": 0.146225105015,
			"-0.014": 0.715112723067,
			"-0.013": 0.928313971779,
			"-0.012": 2.53920421863,
			"-0.011": 3.53107502841,
			"-0.01": 3.21750272441,
			"-0.009": 3.75920064491,
			"-0.008": 3.67253226191,
			"-0.007": 4.41234628652,
			"-0.006": 7.29982486808,
			"-0.005": 17.7714750917,
			"-0.004": 21.3637711206,
			"-0.003": 16.9532363993,
			"-0.002": 11.922798362,
			"-0.001": 10.5496144613,
			"0.0": 11.5953691892,
			"0.001": 19.5225187879,
			"0.002": 19.5884271501,
			"0.003": 11.9867874844,
			"0.004": 5.31383977857,
			"0.005": 6.50296129452,
			"0.006": 6.02874354606,
			"0.007": 12.3668206134,
			"0.008": 10.6572602172,
			"0.009": 4.60670073275,
			"0.01": 5.4052460365,
			"0.011": 3.98391954979,
			"0.012": 1.82487544869,
			"0.013": 0.125897859296,
			"0.014": 0.0,
			"0.015": 0.0,
			"0.016": 0.0,
			"0.017": 0.0,
			"0.018": 0.0,
			"0.019": 0.0,
			"0.02": 0.0,
			"0.021": 0.0,
			"0.022": 0.0,
			"0.023": 0.0,
			"0.024": 0.0,
			"0.025": 0.0
		}
	}
}
