{
	 "smiles": "CC1(C)C2CCC1(C)C(C2)=NNC(=O)CCl", 
	 "Tm": 459.15, 
	 "num_atms": 35, 
	 "gaussian": { 
		 "optdone": 1, 
		 "sigma_profile": "yes", 
		 "theory": "DFT", 
		 "functional": "B3LYP", 
		 "basiset": "6-31G**", 
		 "properties": { 
			 "R2extent": 5735.6327, 
			 "electric_dipole_moment_norm": 5.26587623098, 
			 "electric_quadrupole_moment_norm": 16.1093933331, 
			 "total_energy": -1113.63575462, 
			 "HOMO_LUMO_gap": 0.20808, 
			 "cosmo_polarized_energy": -12.68, 
			 "cosmo_cavitation_energy": 36.59, 
			 "cosmo_dispersion_energy": -25.17, 
			 "cosmo_repulsion_energy": 1.97, 
			 "cosmo_total_nonelectrostatic_energy": 13.39, 
			 "SMD_solvation_energy": 5.9 
		},
		"coords": [
			{
				"x": 1.3621093614,
				"y": 1.0414415705,
				"z": -3.1801288588,
				"element": "C" 
			},
			{
				"x": 1.4956701296,
				"y": 0.4925827699,
				"z": -1.7496853362,
				"element": "C" 
			},
			{
				"x": 2.9678171815,
				"y": 0.0877577464,
				"z": -1.5498366835,
				"element": "C" 
			},
			{
				"x": 0.9445434693,
				"y": 1.45961588,
				"z": -0.650966426,
				"element": "C" 
			},
			{
				"x": -0.563093192,
				"y": 1.5482343936,
				"z": -0.9926300302,
				"element": "C" 
			},
			{
				"x": -0.8953773124,
				"y": 0.105145688,
				"z": -1.4828895864,
				"element": "C" 
			},
			{
				"x": 0.4707862958,
				"y": -0.6527290778,
				"z": -1.3894830818,
				"element": "C" 
			},
			{
				"x": 0.5254236317,
				"y": -1.9555437122,
				"z": -2.1703460922,
				"element": "C" 
			},
			{
				"x": 0.7269251704,
				"y": -0.7792953159,
				"z": 0.1050583643,
				"element": "C" 
			},
			{
				"x": 1.0584804837,
				"y": 0.6108492633,
				"z": 0.6381233663,
				"element": "C" 
			},
			{
				"x": 0.6501709485,
				"y": -1.8935434704,
				"z": 0.7279709751,
				"element": "N" 
			},
			{
				"x": 0.882743408,
				"y": -1.8818503625,
				"z": 2.0794687603,
				"element": "N" 
			},
			{
				"x": 0.7855102933,
				"y": -3.008881919,
				"z": 2.8595244622,
				"element": "C" 
			},
			{
				"x": 1.0357380973,
				"y": -2.9709144932,
				"z": 4.0538634939,
				"element": "O" 
			},
			{
				"x": 0.3591708514,
				"y": -4.2881850636,
				"z": 2.151407524,
				"element": "C" 
			},
			{
				"x": -1.4457958627,
				"y": -4.3531401416,
				"z": 1.9743701185,
				"element": "Cl" 
			},
			{
				"x": 2.0171477861,
				"y": 1.9105036205,
				"z": -3.3102866907,
				"element": "H" 
			},
			{
				"x": 0.3494022205,
				"y": 1.3530081248,
				"z": -3.4417877274,
				"element": "H" 
			},
			{
				"x": 1.6746990167,
				"y": 0.2885860274,
				"z": -3.911527589,
				"element": "H" 
			},
			{
				"x": 3.1608177931,
				"y": -0.4034574915,
				"z": -0.5929343816,
				"element": "H" 
			},
			{
				"x": 3.6191118749,
				"y": 0.9668760349,
				"z": -1.6130694456,
				"element": "H" 
			},
			{
				"x": 3.2829966487,
				"y": -0.6066340223,
				"z": -2.3357397002,
				"element": "H" 
			},
			{
				"x": 1.4494156575,
				"y": 2.4275985759,
				"z": -0.5838119533,
				"element": "H" 
			},
			{
				"x": -1.1559216241,
				"y": 1.8421898847,
				"z": -0.1208686963,
				"element": "H" 
			},
			{
				"x": -0.7540952336,
				"y": 2.2927011493,
				"z": -1.7702147093,
				"element": "H" 
			},
			{
				"x": -1.659768663,
				"y": -0.3879842884,
				"z": -0.8759032012,
				"element": "H" 
			},
			{
				"x": -1.2558275223,
				"y": 0.1000106671,
				"z": -2.5163437282,
				"element": "H" 
			},
			{
				"x": -0.2223445098,
				"y": -2.6599377706,
				"z": -1.7944451718,
				"element": "H" 
			},
			{
				"x": 0.3258938165,
				"y": -1.7824664466,
				"z": -3.2328454643,
				"element": "H" 
			},
			{
				"x": 1.5031395662,
				"y": -2.4381548081,
				"z": -2.0765593649,
				"element": "H" 
			},
			{
				"x": 0.3610831587,
				"y": 0.9389517873,
				"z": 1.4194752335,
				"element": "H" 
			},
			{
				"x": 2.0661986483,
				"y": 0.6410687238,
				"z": 1.0716808379,
				"element": "H" 
			},
			{
				"x": 1.1305861361,
				"y": -1.0280246875,
				"z": 2.5729256653,
				"element": "H" 
			},
			{
				"x": 0.774927367,
				"y": -4.3629689971,
				"z": 1.1486053656,
				"element": "H" 
			},
			{
				"x": 0.6495149076,
				"y": -5.1290098389,
				"z": 2.7778297523,
				"element": "H" 
			}
		],
		 "valence_orbital": [ 
			{
				"type": "occ",
				"energy": -0.302,
				"method": "rhf"
			},
			{
				"type": "occ",
				"energy": -0.29325,
				"method": "rhf"
			},
			{
				"type": "occ",
				"energy": -0.28023,
				"method": "rhf"
			},
			{
				"type": "occ",
				"energy": -0.25836,
				"method": "rhf"
			},
			{
				"type": "occ",
				"energy": -0.23694,
				"method": "rhf"
			},
			{
				"type": "unocc",
				"energy": -0.02886,
				"method": "rhf"
			},
			{
				"type": "unocc",
				"energy": 0.00677,
				"method": "rhf"
			},
			{
				"type": "unocc",
				"energy": 0.0628,
				"method": "rhf"
			},
			{
				"type": "unocc",
				"energy": 0.0719,
				"method": "rhf"
			},
			{
				"type": "unocc",
				"energy": 0.07622,
				"method": "rhf"
			}
		],
		"cosmo_sigma_profile": { 
			"-0.025": 0.0,
			"-0.024": 0.0,
			"-0.023": 0.0,
			"-0.022": 0.0,
			"-0.021": 0.0,
			"-0.02": 0.0,
			"-0.019": 0.0,
			"-0.018": 0.0,
			"-0.017": 0.0,
			"-0.016": 0.0,
			"-0.015": 0.0,
			"-0.014": 0.308397805499,
			"-0.013": 1.04542055716,
			"-0.012": 0.719392944347,
			"-0.011": 1.73246576316,
			"-0.01": 1.0080779221,
			"-0.009": 1.69534294603,
			"-0.008": 3.14923337881,
			"-0.007": 4.72142335289,
			"-0.006": 8.84942782298,
			"-0.005": 8.52239864429,
			"-0.004": 11.8865079752,
			"-0.003": 25.5598153024,
			"-0.002": 39.5690235968,
			"-0.001": 37.4891587109,
			"0.0": 33.1081464218,
			"0.001": 33.0118886724,
			"0.002": 13.2402652439,
			"0.003": 8.52397038807,
			"0.004": 9.51089927073,
			"0.005": 10.67653369,
			"0.006": 9.0209104999,
			"0.007": 4.53613776195,
			"0.008": 3.37369768461,
			"0.009": 2.31960304021,
			"0.01": 1.3803321794,
			"0.011": 1.97843095132,
			"0.012": 4.2944893857,
			"0.013": 4.57831021975,
			"0.014": 0.724214621683,
			"0.015": 0.0,
			"0.016": 0.0,
			"0.017": 0.0,
			"0.018": 0.0,
			"0.019": 0.0,
			"0.02": 0.0,
			"0.021": 0.0,
			"0.022": 0.0,
			"0.023": 0.0,
			"0.024": 0.0,
			"0.025": 0.0
		}
	}
}
