{
	 "smiles": "CC(C)(C)OC1=CC=CC=C1", 
	 "Tm": 249.15, 
	 "num_atms": 25, 
	 "gaussian": { 
		 "optdone": 1, 
		 "sigma_profile": "yes", 
		 "theory": "DFT", 
		 "functional": "B3LYP", 
		 "basiset": "6-31G**", 
		 "properties": { 
			 "R2extent": 2394.4807, 
			 "electric_dipole_moment_norm": 1.3109606287, 
			 "electric_quadrupole_moment_norm": 5.66842258128, 
			 "total_energy": -464.72968131, 
			 "HOMO_LUMO_gap": 0.23246, 
			 "cosmo_polarized_energy": -5.05, 
			 "cosmo_cavitation_energy": 26.81, 
			 "cosmo_dispersion_energy": -19.06, 
			 "cosmo_repulsion_energy": 1.52, 
			 "cosmo_total_nonelectrostatic_energy": 9.27, 
			 "SMD_solvation_energy": 4.78 
		},
		"coords": [
			{
				"x": -1.5574276344,
				"y": -0.3196041223,
				"z": 0.2310104338,
				"element": "C" 
			},
			{
				"x": -1.2390033563,
				"y": 1.0507918461,
				"z": 0.8419552916,
				"element": "C" 
			},
			{
				"x": -1.7424904136,
				"y": 1.1314156455,
				"z": 2.2848163573,
				"element": "C" 
			},
			{
				"x": -1.8391022294,
				"y": 2.1786688237,
				"z": -0.0068232011,
				"element": "C" 
			},
			{
				"x": 0.2047991362,
				"y": 1.2277081582,
				"z": 0.9894180468,
				"element": "O" 
			},
			{
				"x": 1.0245857119,
				"y": 1.2157117927,
				"z": -0.117528754,
				"element": "C" 
			},
			{
				"x": 1.6219216934,
				"y": 0.0202825544,
				"z": -0.53686993,
				"element": "C" 
			},
			{
				"x": 2.5203476388,
				"y": 0.0246686893,
				"z": -1.6047183467,
				"element": "C" 
			},
			{
				"x": 2.8346230344,
				"y": 1.2180317557,
				"z": -2.2583505158,
				"element": "C" 
			},
			{
				"x": 2.2517156017,
				"y": 2.4122721273,
				"z": -1.8292509443,
				"element": "C" 
			},
			{
				"x": 1.352432926,
				"y": 2.4151701248,
				"z": -0.7621218558,
				"element": "C" 
			},
			{
				"x": -1.1668889365,
				"y": -0.4041877212,
				"z": -0.7869382248,
				"element": "H" 
			},
			{
				"x": -2.6410018953,
				"y": -0.4703827114,
				"z": 0.1893935847,
				"element": "H" 
			},
			{
				"x": -1.1239394063,
				"y": -1.1213197536,
				"z": 0.8365819607,
				"element": "H" 
			},
			{
				"x": -1.284033537,
				"y": 0.3451893656,
				"z": 2.8913067382,
				"element": "H" 
			},
			{
				"x": -1.4814955265,
				"y": 2.0982475614,
				"z": 2.7244473617,
				"element": "H" 
			},
			{
				"x": -2.829686675,
				"y": 1.0124294696,
				"z": 2.3213744123,
				"element": "H" 
			},
			{
				"x": -1.4560127327,
				"y": 2.155932222,
				"z": -1.0308521265,
				"element": "H" 
			},
			{
				"x": -1.6056422943,
				"y": 3.1547451449,
				"z": 0.4292465989,
				"element": "H" 
			},
			{
				"x": -2.9281616573,
				"y": 2.0763915265,
				"z": -0.0525755934,
				"element": "H" 
			},
			{
				"x": 1.3882207289,
				"y": -0.8979065527,
				"z": -0.0083673148,
				"element": "H" 
			},
			{
				"x": 2.9805159195,
				"y": -0.9071707983,
				"z": -1.9217228638,
				"element": "H" 
			},
			{
				"x": 3.5362708798,
				"y": 1.2190282954,
				"z": -3.0872206389,
				"element": "H" 
			},
			{
				"x": 2.5017669632,
				"y": 3.3478862498,
				"z": -2.3218682999,
				"element": "H" 
			},
			{
				"x": 0.9111860607,
				"y": 3.3405003064,
				"z": -0.407042176,
				"element": "H" 
			}
		],
		 "valence_orbital": [ 
			{
				"type": "occ",
				"energy": -0.33571,
				"method": "rhf"
			},
			{
				"type": "occ",
				"energy": -0.31504,
				"method": "rhf"
			},
			{
				"type": "occ",
				"energy": -0.26158,
				"method": "rhf"
			},
			{
				"type": "occ",
				"energy": -0.24657,
				"method": "rhf"
			},
			{
				"type": "occ",
				"energy": -0.23064,
				"method": "rhf"
			},
			{
				"type": "unocc",
				"energy": 0.00182,
				"method": "rhf"
			},
			{
				"type": "unocc",
				"energy": 0.00677,
				"method": "rhf"
			},
			{
				"type": "unocc",
				"energy": 0.08401,
				"method": "rhf"
			},
			{
				"type": "unocc",
				"energy": 0.09094,
				"method": "rhf"
			},
			{
				"type": "unocc",
				"energy": 0.11613,
				"method": "rhf"
			}
		],
		"cosmo_sigma_profile": { 
			"-0.025": 0.0,
			"-0.024": 0.0,
			"-0.023": 0.0,
			"-0.022": 0.0,
			"-0.021": 0.0,
			"-0.02": 0.0,
			"-0.019": 0.0,
			"-0.018": 0.0,
			"-0.017": 0.0,
			"-0.016": 0.0,
			"-0.015": 0.0,
			"-0.014": 0.0,
			"-0.013": 0.0,
			"-0.012": 0.0,
			"-0.011": 0.0,
			"-0.01": 0.0,
			"-0.009": 0.0,
			"-0.008": 0.0,
			"-0.007": 0.0,
			"-0.006": 2.74968875978,
			"-0.005": 9.12126605862,
			"-0.004": 16.8058239085,
			"-0.003": 27.6773981814,
			"-0.002": 26.0861334107,
			"-0.001": 22.9546622901,
			"0.0": 26.6504522199,
			"0.001": 23.5228799835,
			"0.002": 8.81931418211,
			"0.003": 8.53168874338,
			"0.004": 10.1011232829,
			"0.005": 10.3121500984,
			"0.006": 8.33456053965,
			"0.007": 2.03723980365,
			"0.008": 1.21521018922,
			"0.009": 0.925429327863,
			"0.01": 1.60285022808,
			"0.011": 1.09354524586,
			"0.012": 1.3531445242,
			"0.013": 0.14220111324,
			"0.014": 0.0,
			"0.015": 0.0,
			"0.016": 0.0,
			"0.017": 0.0,
			"0.018": 0.0,
			"0.019": 0.0,
			"0.02": 0.0,
			"0.021": 0.0,
			"0.022": 0.0,
			"0.023": 0.0,
			"0.024": 0.0,
			"0.025": 0.0
		}
	}
}
