{
	 "smiles": "CC1=CC=C(NC(N)=O)C=C1", 
	 "Tm": 453.15, 
	 "num_atms": 21, 
	 "gaussian": { 
		 "optdone": 1, 
		 "sigma_profile": "yes", 
		 "theory": "DFT", 
		 "functional": "B3LYP", 
		 "basiset": "6-31G**", 
		 "properties": { 
			 "R2extent": 2432.1601, 
			 "electric_dipole_moment_norm": 3.90596764067, 
			 "electric_quadrupole_moment_norm": 17.8050052884, 
			 "total_energy": -495.639464796, 
			 "HOMO_LUMO_gap": 0.20551, 
			 "cosmo_polarized_energy": -13.47, 
			 "cosmo_cavitation_energy": 24.8, 
			 "cosmo_dispersion_energy": -18.39, 
			 "cosmo_repulsion_energy": 1.5, 
			 "cosmo_total_nonelectrostatic_energy": 7.91, 
			 "SMD_solvation_energy": 5.32 
		},
		"coords": [
			{
				"x": -0.0723553927,
				"y": -3.5466401568,
				"z": 0.5698278976,
				"element": "C" 
			},
			{
				"x": 0.1808986455,
				"y": -2.0727599066,
				"z": 0.3581323577,
				"element": "C" 
			},
			{
				"x": -0.4060803802,
				"y": -1.3773586741,
				"z": -0.7048952431,
				"element": "C" 
			},
			{
				"x": -0.1656626375,
				"y": -0.0198036795,
				"z": -0.9193313449,
				"element": "C" 
			},
			{
				"x": 0.7082796347,
				"y": 0.6821602884,
				"z": -0.074972107,
				"element": "C" 
			},
			{
				"x": 0.9746757903,
				"y": 2.058745066,
				"z": -0.2269452601,
				"element": "N" 
			},
			{
				"x": 1.1312173144,
				"y": 2.8433550448,
				"z": -1.3642853517,
				"element": "C" 
			},
			{
				"x": 1.0321081219,
				"y": 2.1949998076,
				"z": -2.5812467387,
				"element": "N" 
			},
			{
				"x": 1.3253832294,
				"y": 4.0473540271,
				"z": -1.2675929259,
				"element": "O" 
			},
			{
				"x": 1.2970290757,
				"y": -0.0038953235,
				"z": 0.9993404349,
				"element": "C" 
			},
			{
				"x": 1.0269925453,
				"y": -1.3519198489,
				"z": 1.2128715278,
				"element": "C" 
			},
			{
				"x": -1.0126363346,
				"y": -3.8608136712,
				"z": 0.1071765569,
				"element": "H" 
			},
			{
				"x": -0.1209824914,
				"y": -3.7963843178,
				"z": 1.6344941387,
				"element": "H" 
			},
			{
				"x": 0.7269138909,
				"y": -4.1575131071,
				"z": 0.1310965066,
				"element": "H" 
			},
			{
				"x": -1.0877812533,
				"y": -1.8996767616,
				"z": -1.37191118,
				"element": "H" 
			},
			{
				"x": -0.6774561337,
				"y": 0.5015350533,
				"z": -1.7204320946,
				"element": "H" 
			},
			{
				"x": 1.1863975784,
				"y": 2.5853746233,
				"z": 0.6086880589,
				"element": "H" 
			},
			{
				"x": 1.2711807085,
				"y": 1.2144468602,
				"z": -2.6302381678,
				"element": "H" 
			},
			{
				"x": 1.3597673394,
				"y": 2.765544857,
				"z": -3.347028545,
				"element": "H" 
			},
			{
				"x": 1.9708583496,
				"y": 0.5281982283,
				"z": 1.6660019432,
				"element": "H" 
			},
			{
				"x": 1.4921523994,
				"y": -1.856448409,
				"z": 2.0563495364,
				"element": "H" 
			}
		],
		 "valence_orbital": [ 
			{
				"type": "occ",
				"energy": -0.29411,
				"method": "rhf"
			},
			{
				"type": "occ",
				"energy": -0.27063,
				"method": "rhf"
			},
			{
				"type": "occ",
				"energy": -0.2579,
				"method": "rhf"
			},
			{
				"type": "occ",
				"energy": -0.25345,
				"method": "rhf"
			},
			{
				"type": "occ",
				"energy": -0.21633,
				"method": "rhf"
			},
			{
				"type": "unocc",
				"energy": -0.01082,
				"method": "rhf"
			},
			{
				"type": "unocc",
				"energy": -0.00662,
				"method": "rhf"
			},
			{
				"type": "unocc",
				"energy": 0.06555,
				"method": "rhf"
			},
			{
				"type": "unocc",
				"energy": 0.08912,
				"method": "rhf"
			},
			{
				"type": "unocc",
				"energy": 0.09614,
				"method": "rhf"
			}
		],
		"cosmo_sigma_profile": { 
			"-0.025": 0.0,
			"-0.024": 0.0,
			"-0.023": 0.0,
			"-0.022": 0.0,
			"-0.021": 0.0,
			"-0.02": 0.0,
			"-0.019": 0.0,
			"-0.018": 0.0,
			"-0.017": 0.0,
			"-0.016": 0.0,
			"-0.015": 0.0,
			"-0.014": 0.701197798866,
			"-0.013": 2.51591263716,
			"-0.012": 2.76511580263,
			"-0.011": 2.939963269,
			"-0.01": 4.05243804738,
			"-0.009": 2.75868549624,
			"-0.008": 3.0059095244,
			"-0.007": 3.11139360967,
			"-0.006": 4.77645891028,
			"-0.005": 10.8561461129,
			"-0.004": 16.0397084786,
			"-0.003": 15.3032019366,
			"-0.002": 14.5321984895,
			"-0.001": 13.6264584302,
			"0.0": 16.8961363224,
			"0.001": 13.0837620086,
			"0.002": 9.8181087479,
			"0.003": 10.7708024087,
			"0.004": 9.69638528375,
			"0.005": 10.2286107025,
			"0.006": 7.92272034768,
			"0.007": 1.95791335627,
			"0.008": 1.44240995684,
			"0.009": 1.56460870471,
			"0.01": 1.01557163643,
			"0.011": 1.64824650487,
			"0.012": 1.75804061901,
			"0.013": 2.17317755011,
			"0.014": 6.58927353832,
			"0.015": 2.67271587973,
			"0.016": 0.00177617869449,
			"0.017": 0.0,
			"0.018": 0.0,
			"0.019": 0.0,
			"0.02": 0.0,
			"0.021": 0.0,
			"0.022": 0.0,
			"0.023": 0.0,
			"0.024": 0.0,
			"0.025": 0.0
		}
	}
}
