{
	 "smiles": "BrC1=CC2=C(OCC2=O)C=C1", 
	 "Tm": 385.15, 
	 "num_atms": 16, 
	 "gaussian": { 
		 "optdone": 1, 
		 "sigma_profile": "yes", 
		 "theory": "DFT", 
		 "functional": "B3LYP", 
		 "basiset": "6-31G**", 
		 "properties": { 
			 "R2extent": 3171.0332, 
			 "electric_dipole_moment_norm": 2.63095429265, 
			 "electric_quadrupole_moment_norm": 5.65873305343, 
			 "total_energy": -3029.70298875, 
			 "HOMO_LUMO_gap": 0.16287, 
			 "cosmo_polarized_energy": -8.63, 
			 "cosmo_cavitation_energy": 23.07, 
			 "cosmo_dispersion_energy": -17.76, 
			 "cosmo_repulsion_energy": 1.42, 
			 "cosmo_total_nonelectrostatic_energy": 6.73, 
			 "SMD_solvation_energy": 3.7 
		},
		"coords": [
			{
				"x": 1.7404522627,
				"y": 0.0102228198,
				"z": 2.9473707926,
				"element": "Br" 
			},
			{
				"x": 0.830292179,
				"y": 0.4160597856,
				"z": 1.3165617785,
				"element": "C" 
			},
			{
				"x": -0.5560774952,
				"y": 0.493950942,
				"z": 1.3012130164,
				"element": "C" 
			},
			{
				"x": -1.1682223697,
				"y": 0.7940850853,
				"z": 0.0812764842,
				"element": "C" 
			},
			{
				"x": -0.4144912277,
				"y": 1.0074490309,
				"z": -1.0776330238,
				"element": "C" 
			},
			{
				"x": -1.1572506987,
				"y": 1.2892828543,
				"z": -2.1808519996,
				"element": "O" 
			},
			{
				"x": -2.5467739739,
				"y": 1.2788173907,
				"z": -1.7901485365,
				"element": "C" 
			},
			{
				"x": -2.5829265966,
				"y": 0.950500858,
				"z": -0.2852989101,
				"element": "C" 
			},
			{
				"x": -3.5843906698,
				"y": 0.8552440469,
				"z": 0.3962498439,
				"element": "O" 
			},
			{
				"x": 0.9787963671,
				"y": 0.9295434063,
				"z": -1.0641779746,
				"element": "C" 
			},
			{
				"x": 1.5892025053,
				"y": 0.6303110705,
				"z": 0.1520419607,
				"element": "C" 
			},
			{
				"x": -1.1504527327,
				"y": 0.3305832679,
				"z": 2.1930587182,
				"element": "H" 
			},
			{
				"x": -2.983434043,
				"y": 2.261309355,
				"z": -1.995018884,
				"element": "H" 
			},
			{
				"x": -3.0777205959,
				"y": 0.5225400924,
				"z": -2.3767203962,
				"element": "H" 
			},
			{
				"x": 1.560711947,
				"y": 1.0953414812,
				"z": -1.9636477517,
				"element": "H" 
			},
			{
				"x": 2.6699851421,
				"y": 0.560258513,
				"z": 0.206824882,
				"element": "H" 
			}
		],
		 "valence_orbital": [ 
			{
				"type": "occ",
				"energy": -0.3009,
				"method": "rhf"
			},
			{
				"type": "occ",
				"energy": -0.29487,
				"method": "rhf"
			},
			{
				"type": "occ",
				"energy": -0.28237,
				"method": "rhf"
			},
			{
				"type": "occ",
				"energy": -0.26031,
				"method": "rhf"
			},
			{
				"type": "occ",
				"energy": -0.23692,
				"method": "rhf"
			},
			{
				"type": "unocc",
				"energy": -0.07405,
				"method": "rhf"
			},
			{
				"type": "unocc",
				"energy": -0.01709,
				"method": "rhf"
			},
			{
				"type": "unocc",
				"energy": -0.00105,
				"method": "rhf"
			},
			{
				"type": "unocc",
				"energy": 0.02661,
				"method": "rhf"
			},
			{
				"type": "unocc",
				"energy": 0.08779,
				"method": "rhf"
			}
		],
		"cosmo_sigma_profile": { 
			"-0.025": 0.0,
			"-0.024": 0.0,
			"-0.023": 0.0,
			"-0.022": 0.0,
			"-0.021": 0.0,
			"-0.02": 0.0,
			"-0.019": 0.0,
			"-0.018": 0.0,
			"-0.017": 0.0,
			"-0.016": 0.0,
			"-0.015": 0.0,
			"-0.014": 0.0,
			"-0.013": 0.0,
			"-0.012": 0.0,
			"-0.011": 0.0,
			"-0.01": 0.0,
			"-0.009": 2.97356229821,
			"-0.008": 9.73493105576,
			"-0.007": 10.2497842006,
			"-0.006": 9.94571557802,
			"-0.005": 9.59491028127,
			"-0.004": 8.99432255053,
			"-0.003": 9.54690481363,
			"-0.002": 9.6915382782,
			"-0.001": 12.2260788109,
			"0.0": 17.9335725207,
			"0.001": 21.5412228522,
			"0.002": 14.9825890142,
			"0.003": 9.16796218236,
			"0.004": 13.2505600433,
			"0.005": 7.78337698143,
			"0.006": 1.95407655302,
			"0.007": 1.60485319941,
			"0.008": 3.11068066421,
			"0.009": 3.51672132336,
			"0.01": 2.56033517249,
			"0.011": 4.28175991434,
			"0.012": 4.02570963517,
			"0.013": 0.525520455607,
			"0.014": 0.0,
			"0.015": 0.0,
			"0.016": 0.0,
			"0.017": 0.0,
			"0.018": 0.0,
			"0.019": 0.0,
			"0.02": 0.0,
			"0.021": 0.0,
			"0.022": 0.0,
			"0.023": 0.0,
			"0.024": 0.0,
			"0.025": 0.0
		}
	}
}
