{
	 "smiles": "COC(=O)C1=C(N)C=C(OC(F)F)C(OC)=C1", 
	 "Tm": 363.15, 
	 "num_atms": 28, 
	 "gaussian": { 
		 "optdone": 1, 
		 "sigma_profile": "yes", 
		 "theory": "DFT", 
		 "functional": "B3LYP", 
		 "basiset": "6-31G**", 
		 "properties": { 
			 "R2extent": 4894.5681, 
			 "electric_dipole_moment_norm": 1.80687599187, 
			 "electric_quadrupole_moment_norm": 11.6772566414, 
			 "total_energy": -943.015622527, 
			 "HOMO_LUMO_gap": 0.15066, 
			 "cosmo_polarized_energy": -12.67, 
			 "cosmo_cavitation_energy": 33.16, 
			 "cosmo_dispersion_energy": -23.76, 
			 "cosmo_repulsion_energy": 1.84, 
			 "cosmo_total_nonelectrostatic_energy": 11.24, 
			 "SMD_solvation_energy": 9.04 
		},
		"coords": [
			{
				"x": 3.3648312927,
				"y": 2.8804335075,
				"z": 0.6832353558,
				"element": "C" 
			},
			{
				"x": 2.1942620978,
				"y": 2.0522407176,
				"z": 0.6600329543,
				"element": "O" 
			},
			{
				"x": 1.9793555686,
				"y": 1.3828789824,
				"z": -0.4989425044,
				"element": "C" 
			},
			{
				"x": 2.7484004404,
				"y": 1.4936257553,
				"z": -1.4497094329,
				"element": "O" 
			},
			{
				"x": 0.7714864342,
				"y": 0.5424810928,
				"z": -0.4685483803,
				"element": "C" 
			},
			{
				"x": 0.398191723,
				"y": -0.2079553129,
				"z": -1.6161033896,
				"element": "C" 
			},
			{
				"x": 1.0766266817,
				"y": -0.1320201165,
				"z": -2.8030541293,
				"element": "N" 
			},
			{
				"x": -0.745912283,
				"y": -1.0326318409,
				"z": -1.5153375549,
				"element": "C" 
			},
			{
				"x": -1.4788235859,
				"y": -1.0968209818,
				"z": -0.3491974878,
				"element": "C" 
			},
			{
				"x": -2.5587355878,
				"y": -1.973663666,
				"z": -0.2491897399,
				"element": "O" 
			},
			{
				"x": -3.747130236,
				"y": -1.5760131182,
				"z": -0.7977720684,
				"element": "C" 
			},
			{
				"x": -3.6711901204,
				"y": -1.515609693,
				"z": -2.160280429,
				"element": "F" 
			},
			{
				"x": -4.1058638342,
				"y": -0.3374048773,
				"z": -0.3793337718,
				"element": "F" 
			},
			{
				"x": -1.1284132013,
				"y": -0.3425663296,
				"z": 0.7933881413,
				"element": "C" 
			},
			{
				"x": -1.9332594856,
				"y": -0.4862138772,
				"z": 1.8861732056,
				"element": "O" 
			},
			{
				"x": -1.6039269616,
				"y": 0.2662115046,
				"z": 3.0407317907,
				"element": "C" 
			},
			{
				"x": -0.0033818446,
				"y": 0.4610155791,
				"z": 0.7117161782,
				"element": "C" 
			},
			{
				"x": 3.3132346868,
				"y": 3.6462611753,
				"z": -0.0948084117,
				"element": "H" 
			},
			{
				"x": 3.3784663026,
				"y": 3.3401677802,
				"z": 1.6716754417,
				"element": "H" 
			},
			{
				"x": 4.2663074704,
				"y": 2.2824560508,
				"z": 0.5267329304,
				"element": "H" 
			},
			{
				"x": 1.9697312742,
				"y": 0.3441293955,
				"z": -2.7864072376,
				"element": "H" 
			},
			{
				"x": 0.9171278559,
				"y": -0.8496405164,
				"z": -3.4909660317,
				"element": "H" 
			},
			{
				"x": -1.0644899643,
				"y": -1.6285536624,
				"z": -2.3630899547,
				"element": "H" 
			},
			{
				"x": -4.5079720956,
				"y": -2.3053641311,
				"z": -0.5107660197,
				"element": "H" 
			},
			{
				"x": -0.6125362119,
				"y": -0.0011906046,
				"z": 3.4305237554,
				"element": "H" 
			},
			{
				"x": -1.6288266626,
				"y": 1.3458825085,
				"z": 2.8417745877,
				"element": "H" 
			},
			{
				"x": -2.3612167822,
				"y": 0.0205779143,
				"z": 3.7868262599,
				"element": "H" 
			},
			{
				"x": 0.3137570287,
				"y": 1.0512867642,
				"z": 1.5598959428,
				"element": "H" 
			}
		],
		 "valence_orbital": [ 
			{
				"type": "occ",
				"energy": -0.30125,
				"method": "rhf"
			},
			{
				"type": "occ",
				"energy": -0.27912,
				"method": "rhf"
			},
			{
				"type": "occ",
				"energy": -0.27364,
				"method": "rhf"
			},
			{
				"type": "occ",
				"energy": -0.25335,
				"method": "rhf"
			},
			{
				"type": "occ",
				"energy": -0.19101,
				"method": "rhf"
			},
			{
				"type": "unocc",
				"energy": -0.04035,
				"method": "rhf"
			},
			{
				"type": "unocc",
				"energy": 0.01843,
				"method": "rhf"
			},
			{
				"type": "unocc",
				"energy": 0.06255,
				"method": "rhf"
			},
			{
				"type": "unocc",
				"energy": 0.08704,
				"method": "rhf"
			},
			{
				"type": "unocc",
				"energy": 0.0996,
				"method": "rhf"
			}
		],
		"cosmo_sigma_profile": { 
			"-0.025": 0.0,
			"-0.024": 0.0,
			"-0.023": 0.0,
			"-0.022": 0.0,
			"-0.021": 0.0,
			"-0.02": 0.0,
			"-0.019": 0.0,
			"-0.018": 0.0,
			"-0.017": 0.0,
			"-0.016": 0.0,
			"-0.015": 0.0,
			"-0.014": 0.0946698303276,
			"-0.013": 1.57829616119,
			"-0.012": 1.39361324697,
			"-0.011": 2.7436167216,
			"-0.01": 4.26912155844,
			"-0.009": 3.6824564201,
			"-0.008": 3.9320122548,
			"-0.007": 3.78649807549,
			"-0.006": 12.1611089987,
			"-0.005": 19.7390074505,
			"-0.004": 18.6064288161,
			"-0.003": 21.2724538193,
			"-0.002": 13.224489755,
			"-0.001": 12.2313290935,
			"0.0": 12.6683209058,
			"0.001": 14.7492416111,
			"0.002": 22.4313616006,
			"0.003": 30.415865166,
			"0.004": 25.3601646109,
			"0.005": 8.58249347288,
			"0.006": 7.27055957159,
			"0.007": 4.46527562923,
			"0.008": 6.24393585776,
			"0.009": 4.25444793728,
			"0.01": 3.69001317572,
			"0.011": 3.13800271267,
			"0.012": 1.75556063951,
			"0.013": 0.0399282989723,
			"0.014": 0.0,
			"0.015": 0.0,
			"0.016": 0.0,
			"0.017": 0.0,
			"0.018": 0.0,
			"0.019": 0.0,
			"0.02": 0.0,
			"0.021": 0.0,
			"0.022": 0.0,
			"0.023": 0.0,
			"0.024": 0.0,
			"0.025": 0.0
		}
	}
}
