{
	 "smiles": "CC(CC(O)=O)NCCO", 
	 "Tm": 454.15, 
	 "num_atms": 23, 
	 "gaussian": { 
		 "optdone": 1, 
		 "sigma_profile": "yes", 
		 "theory": "DFT", 
		 "functional": "B3LYP", 
		 "basiset": "6-31G**", 
		 "properties": { 
			 "R2extent": 2030.3904, 
			 "electric_dipole_moment_norm": 3.09893611583, 
			 "electric_quadrupole_moment_norm": 9.81780332152, 
			 "total_energy": -516.901713299, 
			 "HOMO_LUMO_gap": 0.2364, 
			 "cosmo_polarized_energy": -13.27, 
			 "cosmo_cavitation_energy": 25.53, 
			 "cosmo_dispersion_energy": -18.01, 
			 "cosmo_repulsion_energy": 1.51, 
			 "cosmo_total_nonelectrostatic_energy": 9.03, 
			 "SMD_solvation_energy": 5.19 
		},
		"coords": [
			{
				"x": 1.2763018269,
				"y": 0.4262927811,
				"z": -0.4218152283,
				"element": "C" 
			},
			{
				"x": -0.1059367398,
				"y": 0.1737437892,
				"z": -1.0355479421,
				"element": "C" 
			},
			{
				"x": -0.3287043875,
				"y": -1.3208618512,
				"z": -1.3824866596,
				"element": "C" 
			},
			{
				"x": -0.6305061571,
				"y": -2.169679431,
				"z": -0.1658723801,
				"element": "C" 
			},
			{
				"x": 0.4883418701,
				"y": -2.6343776818,
				"z": 0.4393047375,
				"element": "O" 
			},
			{
				"x": -1.7441710262,
				"y": -2.4114440847,
				"z": 0.2489592312,
				"element": "O" 
			},
			{
				"x": -1.1683928059,
				"y": 0.6245438856,
				"z": -0.1260116338,
				"element": "N" 
			},
			{
				"x": -1.4791200054,
				"y": 2.0555139896,
				"z": -0.1689864057,
				"element": "C" 
			},
			{
				"x": -2.3230255082,
				"y": 2.4082638122,
				"z": 1.0572927361,
				"element": "C" 
			},
			{
				"x": -1.659402728,
				"y": 2.0335605802,
				"z": 2.246688209,
				"element": "O" 
			},
			{
				"x": 1.4022522813,
				"y": 1.4820505981,
				"z": -0.1650173124,
				"element": "H" 
			},
			{
				"x": 1.4099443112,
				"y": -0.1643356807,
				"z": 0.4879247308,
				"element": "H" 
			},
			{
				"x": 2.067499907,
				"y": 0.1596631415,
				"z": -1.1305237011,
				"element": "H" 
			},
			{
				"x": -0.1556808657,
				"y": 0.7130670559,
				"z": -1.9986980932,
				"element": "H" 
			},
			{
				"x": 0.5540573993,
				"y": -1.7067715453,
				"z": -1.8989635112,
				"element": "H" 
			},
			{
				"x": -1.1924540018,
				"y": -1.4147508334,
				"z": -2.0465498298,
				"element": "H" 
			},
			{
				"x": 0.1869083856,
				"y": -3.1319386205,
				"z": 1.2188698687,
				"element": "H" 
			},
			{
				"x": -2.0170927688,
				"y": 0.0851152709,
				"z": -0.2836061969,
				"element": "H" 
			},
			{
				"x": -1.9923550322,
				"y": 2.3637884522,
				"z": -1.0973412409,
				"element": "H" 
			},
			{
				"x": -0.5383433875,
				"y": 2.6133898109,
				"z": -0.1153327083,
				"element": "H" 
			},
			{
				"x": -2.5004841566,
				"y": 3.4886649277,
				"z": 1.0968863991,
				"element": "H" 
			},
			{
				"x": -3.3106458992,
				"y": 1.9184377181,
				"z": 0.9731705633,
				"element": "H" 
			},
			{
				"x": -1.2712905115,
				"y": 1.1668639156,
				"z": 2.0407563677,
				"element": "H" 
			}
		],
		 "valence_orbital": [ 
			{
				"type": "occ",
				"energy": -0.32244,
				"method": "rhf"
			},
			{
				"type": "occ",
				"energy": -0.31309,
				"method": "rhf"
			},
			{
				"type": "occ",
				"energy": -0.27971,
				"method": "rhf"
			},
			{
				"type": "occ",
				"energy": -0.25438,
				"method": "rhf"
			},
			{
				"type": "occ",
				"energy": -0.23667,
				"method": "rhf"
			},
			{
				"type": "unocc",
				"energy": -0.00027,
				"method": "rhf"
			},
			{
				"type": "unocc",
				"energy": 0.06813,
				"method": "rhf"
			},
			{
				"type": "unocc",
				"energy": 0.08485,
				"method": "rhf"
			},
			{
				"type": "unocc",
				"energy": 0.10641,
				"method": "rhf"
			},
			{
				"type": "unocc",
				"energy": 0.11861,
				"method": "rhf"
			}
		],
		"cosmo_sigma_profile": { 
			"-0.025": 0.0,
			"-0.024": 0.0,
			"-0.023": 0.0,
			"-0.022": 0.0,
			"-0.021": 0.0,
			"-0.02": 0.0,
			"-0.019": 0.00701820851951,
			"-0.018": 0.619526170358,
			"-0.017": 0.829042240863,
			"-0.016": 0.894595475293,
			"-0.015": 0.817121942237,
			"-0.014": 1.15085844947,
			"-0.013": 0.562822163575,
			"-0.012": 0.595250839041,
			"-0.011": 0.42489396022,
			"-0.01": 0.901526397441,
			"-0.009": 1.42392543328,
			"-0.008": 2.26921727086,
			"-0.007": 3.30680185949,
			"-0.006": 6.05844582086,
			"-0.005": 8.48620533542,
			"-0.004": 16.808896116,
			"-0.003": 29.7409709462,
			"-0.002": 24.1190414701,
			"-0.001": 16.5746294871,
			"0.0": 11.4322758614,
			"0.001": 11.3217221216,
			"0.002": 8.00628516772,
			"0.003": 5.66070754075,
			"0.004": 4.87151181935,
			"0.005": 5.128671373,
			"0.006": 4.57970714207,
			"0.007": 3.47261762595,
			"0.008": 3.71507076216,
			"0.009": 3.58721712385,
			"0.01": 3.4024322942,
			"0.011": 4.25209911014,
			"0.012": 5.81589083003,
			"0.013": 2.08893029409,
			"0.014": 2.14894715375,
			"0.015": 2.34607307776,
			"0.016": 0.240159022863,
			"0.017": 0.0,
			"0.018": 0.0,
			"0.019": 0.0,
			"0.02": 0.0,
			"0.021": 0.0,
			"0.022": 0.0,
			"0.023": 0.0,
			"0.024": 0.0,
			"0.025": 0.0
		}
	}
}
