{
	 "smiles": "CCOC(=O)C1=C(C)N=C(N)O1", 
	 "Tm": 493.15, 
	 "num_atms": 22, 
	 "gaussian": { 
		 "optdone": 1, 
		 "sigma_profile": "yes", 
		 "theory": "DFT", 
		 "functional": "B3LYP", 
		 "basiset": "6-31G**", 
		 "properties": { 
			 "R2extent": 2766.9732, 
			 "electric_dipole_moment_norm": 3.49598426913, 
			 "electric_quadrupole_moment_norm": 9.00378044601, 
			 "total_energy": -607.962729417, 
			 "HOMO_LUMO_gap": 0.18954, 
			 "cosmo_polarized_energy": -14.08, 
			 "cosmo_cavitation_energy": 26.84, 
			 "cosmo_dispersion_energy": -19.82, 
			 "cosmo_repulsion_energy": 1.65, 
			 "cosmo_total_nonelectrostatic_energy": 8.67, 
			 "SMD_solvation_energy": 4.64 
		},
		"coords": [
			{
				"x": 3.9572869942,
				"y": 0.5975831646,
				"z": 2.1757425931,
				"element": "C" 
			},
			{
				"x": 3.0201769987,
				"y": -0.3140887799,
				"z": 1.4061477265,
				"element": "C" 
			},
			{
				"x": 1.8513020864,
				"y": 0.4607764341,
				"z": 1.0614314499,
				"element": "O" 
			},
			{
				"x": 0.9027796028,
				"y": -0.2016755231,
				"z": 0.36029099,
				"element": "C" 
			},
			{
				"x": 0.9962614806,
				"y": -1.3733833248,
				"z": 0.0292172944,
				"element": "O" 
			},
			{
				"x": -0.2406938433,
				"y": 0.6392629693,
				"z": 0.0463278577,
				"element": "C" 
			},
			{
				"x": -1.4134660128,
				"y": 0.4041346682,
				"z": -0.6243295376,
				"element": "C" 
			},
			{
				"x": -1.8888672218,
				"y": -0.8528906923,
				"z": -1.26987055,
				"element": "C" 
			},
			{
				"x": -2.1783837287,
				"y": 1.558341259,
				"z": -0.6357814812,
				"element": "N" 
			},
			{
				"x": -1.4466476818,
				"y": 2.429725027,
				"z": 0.0115733836,
				"element": "C" 
			},
			{
				"x": -1.7304015669,
				"y": 3.7444441428,
				"z": 0.2284456204,
				"element": "N" 
			},
			{
				"x": -0.2649836587,
				"y": 1.9749306868,
				"z": 0.4637897921,
				"element": "O" 
			},
			{
				"x": 3.480510993,
				"y": 0.9683009051,
				"z": 3.0877328332,
				"element": "H" 
			},
			{
				"x": 4.2519846518,
				"y": 1.4578147717,
				"z": 1.5678620993,
				"element": "H" 
			},
			{
				"x": 4.8611746217,
				"y": 0.0485878459,
				"z": 2.4578915041,
				"element": "H" 
			},
			{
				"x": 2.7108548888,
				"y": -1.1808368199,
				"z": 1.9992588393,
				"element": "H" 
			},
			{
				"x": 3.4789654274,
				"y": -0.6942396795,
				"z": 0.4876990651,
				"element": "H" 
			},
			{
				"x": -1.1547929967,
				"y": -1.6485248098,
				"z": -1.1441763274,
				"element": "H" 
			},
			{
				"x": -2.8443804583,
				"y": -1.1623022158,
				"z": -0.8325356065,
				"element": "H" 
			},
			{
				"x": -2.0652639488,
				"y": -0.6832521259,
				"z": -2.3376978241,
				"element": "H" 
			},
			{
				"x": -1.2546179277,
				"y": 4.189551575,
				"z": 0.9989672383,
				"element": "H" 
			},
			{
				"x": -2.6995987,
				"y": 3.9936405216,
				"z": 0.1009130398,
				"element": "H" 
			}
		],
		 "valence_orbital": [ 
			{
				"type": "occ",
				"energy": -0.29972,
				"method": "rhf"
			},
			{
				"type": "occ",
				"energy": -0.29096,
				"method": "rhf"
			},
			{
				"type": "occ",
				"energy": -0.28808,
				"method": "rhf"
			},
			{
				"type": "occ",
				"energy": -0.26728,
				"method": "rhf"
			},
			{
				"type": "occ",
				"energy": -0.21642,
				"method": "rhf"
			},
			{
				"type": "unocc",
				"energy": -0.02688,
				"method": "rhf"
			},
			{
				"type": "unocc",
				"energy": 0.04788,
				"method": "rhf"
			},
			{
				"type": "unocc",
				"energy": 0.07126,
				"method": "rhf"
			},
			{
				"type": "unocc",
				"energy": 0.10529,
				"method": "rhf"
			},
			{
				"type": "unocc",
				"energy": 0.11022,
				"method": "rhf"
			}
		],
		"cosmo_sigma_profile": { 
			"-0.025": 0.0,
			"-0.024": 0.0,
			"-0.023": 0.0,
			"-0.022": 0.0,
			"-0.021": 0.0,
			"-0.02": 0.0,
			"-0.019": 0.0,
			"-0.018": 0.0,
			"-0.017": 0.0,
			"-0.016": 0.160440947514,
			"-0.015": 2.39335783949,
			"-0.014": 2.2429852629,
			"-0.013": 2.65809463076,
			"-0.012": 2.15756928496,
			"-0.011": 2.1095047405,
			"-0.01": 1.775725265,
			"-0.009": 1.86750757987,
			"-0.008": 2.05259043872,
			"-0.007": 1.53774509083,
			"-0.006": 2.17776189272,
			"-0.005": 10.394648503,
			"-0.004": 16.5471070943,
			"-0.003": 18.5043098515,
			"-0.002": 20.5608308501,
			"-0.001": 22.725542868,
			"0.0": 22.4993212982,
			"0.001": 14.2603397899,
			"0.002": 6.93798379416,
			"0.003": 8.63818934791,
			"0.004": 6.49756689244,
			"0.005": 5.42097603765,
			"0.006": 5.33767562944,
			"0.007": 6.04452514313,
			"0.008": 5.18958623662,
			"0.009": 4.26380660773,
			"0.01": 4.33890052617,
			"0.011": 4.08975977382,
			"0.012": 4.14963292809,
			"0.013": 2.38843549647,
			"0.014": 0.719398256127,
			"0.015": 0.984747328714,
			"0.016": 0.571620263917,
			"0.017": 0.0383260062166,
			"0.018": 0.0,
			"0.019": 0.0,
			"0.02": 0.0,
			"0.021": 0.0,
			"0.022": 0.0,
			"0.023": 0.0,
			"0.024": 0.0,
			"0.025": 0.0
		}
	}
}
