{
	 "smiles": "NCCC1=CNC2=C1C=CC(Cl)=C2", 
	 "Tm": 378.15, 
	 "num_atms": 24, 
	 "gaussian": { 
		 "optdone": 1, 
		 "sigma_profile": "yes", 
		 "theory": "DFT", 
		 "functional": "B3LYP", 
		 "basiset": "6-31G**", 
		 "properties": { 
			 "R2extent": 5054.376, 
			 "electric_dipole_moment_norm": 4.31856715358, 
			 "electric_quadrupole_moment_norm": 17.3010789398, 
			 "total_energy": -957.393427541, 
			 "HOMO_LUMO_gap": 0.18698, 
			 "cosmo_polarized_energy": -12.86, 
			 "cosmo_cavitation_energy": 29.34, 
			 "cosmo_dispersion_energy": -21.52, 
			 "cosmo_repulsion_energy": 1.73, 
			 "cosmo_total_nonelectrostatic_energy": 9.55, 
			 "SMD_solvation_energy": 3.14 
		},
		"coords": [
			{
				"x": -0.6977789321,
				"y": 3.1914558498,
				"z": 1.2963187037,
				"element": "N" 
			},
			{
				"x": -0.2131289577,
				"y": 2.0900222208,
				"z": 0.4591984576,
				"element": "C" 
			},
			{
				"x": -0.8712474471,
				"y": 2.1471640434,
				"z": -0.9309773571,
				"element": "C" 
			},
			{
				"x": -0.4953115584,
				"y": 0.9959255777,
				"z": -1.8186551682,
				"element": "C" 
			},
			{
				"x": 0.3948656389,
				"y": 1.0123061253,
				"z": -2.8626855692,
				"element": "C" 
			},
			{
				"x": 0.5002435995,
				"y": -0.2503618219,
				"z": -3.4237823804,
				"element": "N" 
			},
			{
				"x": -0.3325174855,
				"y": -1.1139147344,
				"z": -2.7473218933,
				"element": "C" 
			},
			{
				"x": -0.9767720447,
				"y": -0.3625614257,
				"z": -1.7251136094,
				"element": "C" 
			},
			{
				"x": -1.896411658,
				"y": -1.0171659872,
				"z": -0.8880202583,
				"element": "C" 
			},
			{
				"x": -2.1508279383,
				"y": -2.3700539858,
				"z": -1.072484547,
				"element": "C" 
			},
			{
				"x": -1.4883970915,
				"y": -3.0773377992,
				"z": -2.0939259095,
				"element": "C" 
			},
			{
				"x": -1.8365988186,
				"y": -4.7943097368,
				"z": -2.2949594886,
				"element": "Cl" 
			},
			{
				"x": -0.5745224,
				"y": -2.4769019615,
				"z": -2.9489826509,
				"element": "C" 
			},
			{
				"x": -0.3573644787,
				"y": 4.0779430838,
				"z": 0.9291594239,
				"element": "H" 
			},
			{
				"x": -0.3148041163,
				"y": 3.109887749,
				"z": 2.2348563342,
				"element": "H" 
			},
			{
				"x": 0.8831658348,
				"y": 2.0623819289,
				"z": 0.3281205978,
				"element": "H" 
			},
			{
				"x": -0.4884907633,
				"y": 1.1482816973,
				"z": 0.9479796909,
				"element": "H" 
			},
			{
				"x": -1.9579751552,
				"y": 2.1862024398,
				"z": -0.7884595008,
				"element": "H" 
			},
			{
				"x": -0.5910664891,
				"y": 3.0910248016,
				"z": -1.4175095835,
				"element": "H" 
			},
			{
				"x": 0.9693684099,
				"y": 1.836910819,
				"z": -3.2617025779,
				"element": "H" 
			},
			{
				"x": 1.0766453636,
				"y": -0.4910408123,
				"z": -4.2130584842,
				"element": "H" 
			},
			{
				"x": -2.4120082809,
				"y": -0.4740965396,
				"z": -0.1012254594,
				"element": "H" 
			},
			{
				"x": -2.8572109996,
				"y": -2.8925256676,
				"z": -0.4376074486,
				"element": "H" 
			},
			{
				"x": -0.0807542318,
				"y": -3.0450358642,
				"z": -3.7296613219,
				"element": "H" 
			}
		],
		 "valence_orbital": [ 
			{
				"type": "occ",
				"energy": -0.30279,
				"method": "rhf"
			},
			{
				"type": "occ",
				"energy": -0.26981,
				"method": "rhf"
			},
			{
				"type": "occ",
				"energy": -0.2333,
				"method": "rhf"
			},
			{
				"type": "occ",
				"energy": -0.2238,
				"method": "rhf"
			},
			{
				"type": "occ",
				"energy": -0.20248,
				"method": "rhf"
			},
			{
				"type": "unocc",
				"energy": -0.0155,
				"method": "rhf"
			},
			{
				"type": "unocc",
				"energy": 0.01973,
				"method": "rhf"
			},
			{
				"type": "unocc",
				"energy": 0.0382,
				"method": "rhf"
			},
			{
				"type": "unocc",
				"energy": 0.06303,
				"method": "rhf"
			},
			{
				"type": "unocc",
				"energy": 0.075,
				"method": "rhf"
			}
		],
		"cosmo_sigma_profile": { 
			"-0.025": 0.0,
			"-0.024": 0.0,
			"-0.023": 0.0,
			"-0.022": 0.0,
			"-0.021": 0.0,
			"-0.02": 0.0,
			"-0.019": 0.0,
			"-0.018": 0.0,
			"-0.017": 0.0,
			"-0.016": 0.420550343327,
			"-0.015": 1.86388916653,
			"-0.014": 1.08180707244,
			"-0.013": 1.75521203248,
			"-0.012": 1.09608597397,
			"-0.011": 1.0332813698,
			"-0.01": 2.35782424921,
			"-0.009": 3.81710617105,
			"-0.008": 6.03219337391,
			"-0.007": 7.75195781091,
			"-0.006": 8.12055580163,
			"-0.005": 10.8500612085,
			"-0.004": 10.3315145695,
			"-0.003": 15.9534756971,
			"-0.002": 15.6915678769,
			"-0.001": 16.6460299958,
			"0.0": 15.148944184,
			"0.001": 14.1283421531,
			"0.002": 12.717707248,
			"0.003": 19.7103383154,
			"0.004": 22.0831556794,
			"0.005": 27.6879054981,
			"0.006": 8.98322278958,
			"0.007": 1.05051782998,
			"0.008": 0.831085151751,
			"0.009": 0.573671691026,
			"0.01": 0.362473310487,
			"0.011": 0.568946067477,
			"0.012": 0.96714247468,
			"0.013": 0.433380687961,
			"0.014": 0.987024214913,
			"0.015": 0.787185705691,
			"0.016": 0.285851933758,
			"0.017": 0.402361971053,
			"0.018": 0.85459178443,
			"0.019": 0.55805468231,
			"0.02": 0.309603554816,
			"0.021": 0.0,
			"0.022": 0.0,
			"0.023": 0.0,
			"0.024": 0.0,
			"0.025": 0.0
		}
	}
}
