{
	 "smiles": "OC(=O)C1=C(C=CC(=C1)C(F)(F)F)N1CCOCC1", 
	 "Tm": 449.15, 
	 "num_atms": 31, 
	 "gaussian": { 
		 "optdone": 1, 
		 "sigma_profile": "yes", 
		 "theory": "DFT", 
		 "functional": "B3LYP", 
		 "basiset": "6-31G**", 
		 "properties": { 
			 "R2extent": 6711.6119, 
			 "electric_dipole_moment_norm": 6.1484282886, 
			 "electric_quadrupole_moment_norm": 16.1933454348, 
			 "total_energy": -1044.44382622, 
			 "HOMO_LUMO_gap": 0.19802, 
			 "cosmo_polarized_energy": -17.59, 
			 "cosmo_cavitation_energy": 35.0, 
			 "cosmo_dispersion_energy": -24.63, 
			 "cosmo_repulsion_energy": 1.8, 
			 "cosmo_total_nonelectrostatic_energy": 12.17, 
			 "SMD_solvation_energy": 8.11 
		},
		"coords": [
			{
				"x": 2.0612714783,
				"y": 2.3497920727,
				"z": 0.0230996993,
				"element": "O" 
			},
			{
				"x": 1.4900945957,
				"y": 2.3333459558,
				"z": 1.2318693063,
				"element": "C" 
			},
			{
				"x": 1.7391205497,
				"y": 3.1659825556,
				"z": 2.0772990592,
				"element": "O" 
			},
			{
				"x": 0.5128296984,
				"y": 1.2031219695,
				"z": 1.5034004869,
				"element": "C" 
			},
			{
				"x": 0.1033347302,
				"y": 0.2457114105,
				"z": 0.5526983347,
				"element": "C" 
			},
			{
				"x": -0.7792941502,
				"y": -0.7735956169,
				"z": 0.9363240198,
				"element": "C" 
			},
			{
				"x": -1.249532621,
				"y": -0.855238932,
				"z": 2.2424749049,
				"element": "C" 
			},
			{
				"x": -0.849281714,
				"y": 0.0984176726,
				"z": 3.1835821991,
				"element": "C" 
			},
			{
				"x": 0.0225297749,
				"y": 1.116559398,
				"z": 2.8119031638,
				"element": "C" 
			},
			{
				"x": -1.406768594,
				"y": 0.045541403,
				"z": 4.5822125598,
				"element": "C" 
			},
			{
				"x": -0.5853790927,
				"y": 0.6303307284,
				"z": 5.4760228357,
				"element": "F" 
			},
			{
				"x": -2.5999053894,
				"y": 0.677850392,
				"z": 4.6615060517,
				"element": "F" 
			},
			{
				"x": -1.612372018,
				"y": -1.2294671741,
				"z": 4.9844770265,
				"element": "F" 
			},
			{
				"x": 0.5796201054,
				"y": 0.3481222526,
				"z": -0.8092769521,
				"element": "N" 
			},
			{
				"x": -0.3882717455,
				"y": 1.0485123376,
				"z": -1.6967501833,
				"element": "C" 
			},
			{
				"x": 0.0781331244,
				"y": 0.9397980665,
				"z": -3.1424278081,
				"element": "C" 
			},
			{
				"x": 0.1265078636,
				"y": -0.4086130994,
				"z": -3.6094812523,
				"element": "O" 
			},
			{
				"x": 0.2500117348,
				"y": -1.3876998849,
				"z": -2.5862526466,
				"element": "C" 
			},
			{
				"x": 1.1126997739,
				"y": -0.9034046858,
				"z": -1.4229274451,
				"element": "C" 
			},
			{
				"x": 1.7050154876,
				"y": 1.5621336779,
				"z": -0.4848506688,
				"element": "H" 
			},
			{
				"x": -1.1018275875,
				"y": -1.5081617677,
				"z": 0.2049256946,
				"element": "H" 
			},
			{
				"x": -1.9237284268,
				"y": -1.6543958615,
				"z": 2.5316067076,
				"element": "H" 
			},
			{
				"x": 0.3576047417,
				"y": 1.8603682173,
				"z": 3.5254903295,
				"element": "H" 
			},
			{
				"x": -1.3991422535,
				"y": 0.6284742345,
				"z": -1.5932741538,
				"element": "H" 
			},
			{
				"x": -0.4338690276,
				"y": 2.1005842972,
				"z": -1.3976599844,
				"element": "H" 
			},
			{
				"x": 1.0704909554,
				"y": 1.4054921854,
				"z": -3.2410736127,
				"element": "H" 
			},
			{
				"x": -0.6122588368,
				"y": 1.4849976424,
				"z": -3.7942888157,
				"element": "H" 
			},
			{
				"x": -0.7447150779,
				"y": -1.6910781465,
				"z": -2.2215575131,
				"element": "H" 
			},
			{
				"x": 0.7103250312,
				"y": -2.2674904346,
				"z": -3.0472597011,
				"element": "H" 
			},
			{
				"x": 1.1905802032,
				"y": -1.6810467337,
				"z": -0.6586343557,
				"element": "H" 
			},
			{
				"x": 2.1264766864,
				"y": -0.7043441323,
				"z": -1.7901772864,
				"element": "H" 
			}
		],
		 "valence_orbital": [ 
			{
				"type": "occ",
				"energy": -0.28995,
				"method": "rhf"
			},
			{
				"type": "occ",
				"energy": -0.28128,
				"method": "rhf"
			},
			{
				"type": "occ",
				"energy": -0.27326,
				"method": "rhf"
			},
			{
				"type": "occ",
				"energy": -0.26809,
				"method": "rhf"
			},
			{
				"type": "occ",
				"energy": -0.26011,
				"method": "rhf"
			},
			{
				"type": "unocc",
				"energy": -0.06209,
				"method": "rhf"
			},
			{
				"type": "unocc",
				"energy": -0.04357,
				"method": "rhf"
			},
			{
				"type": "unocc",
				"energy": 0.04032,
				"method": "rhf"
			},
			{
				"type": "unocc",
				"energy": 0.05224,
				"method": "rhf"
			},
			{
				"type": "unocc",
				"energy": 0.07125,
				"method": "rhf"
			}
		],
		"cosmo_sigma_profile": { 
			"-0.025": 0.0,
			"-0.024": 0.0,
			"-0.023": 0.0,
			"-0.022": 0.0,
			"-0.021": 0.0,
			"-0.02": 0.0,
			"-0.019": 0.0,
			"-0.018": 0.0,
			"-0.017": 0.0,
			"-0.016": 0.0,
			"-0.015": 0.0,
			"-0.014": 0.0,
			"-0.013": 0.0,
			"-0.012": 0.0,
			"-0.011": 0.0,
			"-0.01": 0.00400460823023,
			"-0.009": 0.251569994674,
			"-0.008": 4.34024759385,
			"-0.007": 9.13076879086,
			"-0.006": 19.5160316502,
			"-0.005": 29.2811838783,
			"-0.004": 26.5499410361,
			"-0.003": 21.217844255,
			"-0.002": 16.2530508671,
			"-0.001": 14.1810430043,
			"0.0": 18.5350027215,
			"0.001": 21.401866731,
			"0.002": 24.5847064851,
			"0.003": 26.6747903292,
			"0.004": 4.2296705078,
			"0.005": 3.08068523878,
			"0.006": 3.28877757177,
			"0.007": 3.28774655594,
			"0.008": 3.76559458924,
			"0.009": 3.48235115877,
			"0.01": 4.64544320007,
			"0.011": 6.41963373679,
			"0.012": 8.36392636127,
			"0.013": 4.30009884499,
			"0.014": 1.13604279929,
			"0.015": 0.0,
			"0.016": 0.0,
			"0.017": 0.0,
			"0.018": 0.0,
			"0.019": 0.0,
			"0.02": 0.0,
			"0.021": 0.0,
			"0.022": 0.0,
			"0.023": 0.0,
			"0.024": 0.0,
			"0.025": 0.0
		}
	}
}
