{
	 "smiles": "CC(C)(OC1=CC=C(C=C1)C#N)C#C", 
	 "Tm": 304.15, 
	 "num_atms": 25, 
	 "gaussian": { 
		 "optdone": 1, 
		 "sigma_profile": "yes", 
		 "theory": "DFT", 
		 "functional": "B3LYP", 
		 "basiset": "6-31G**", 
		 "properties": { 
			 "R2extent": 3677.9004, 
			 "electric_dipole_moment_norm": 6.29551730122, 
			 "electric_quadrupole_moment_norm": 25.658280812, 
			 "total_energy": -593.787390471, 
			 "HOMO_LUMO_gap": 0.19919, 
			 "cosmo_polarized_energy": -11.33, 
			 "cosmo_cavitation_energy": 30.59, 
			 "cosmo_dispersion_energy": -20.47, 
			 "cosmo_repulsion_energy": 1.62, 
			 "cosmo_total_nonelectrostatic_energy": 11.74, 
			 "SMD_solvation_energy": 8.4 
		},
		"coords": [
			{
				"x": 1.8292601254,
				"y": -2.2318375056,
				"z": -1.4044508126,
				"element": "C" 
			},
			{
				"x": 0.9209399389,
				"y": -1.0253242948,
				"z": -1.1133808436,
				"element": "C" 
			},
			{
				"x": 1.3989827447,
				"y": 0.2105614644,
				"z": -1.8952106897,
				"element": "C" 
			},
			{
				"x": 1.0961824839,
				"y": -0.8237206606,
				"z": 0.3157330182,
				"element": "O" 
			},
			{
				"x": 0.4761804962,
				"y": 0.1553669413,
				"z": 1.0324098587,
				"element": "C" 
			},
			{
				"x": 1.0120567915,
				"y": 0.3579595121,
				"z": 2.3166823115,
				"element": "C" 
			},
			{
				"x": 0.4699272667,
				"y": 1.3093310347,
				"z": 3.1649846409,
				"element": "C" 
			},
			{
				"x": -0.6255995372,
				"y": 2.0885028912,
				"z": 2.7466275379,
				"element": "C" 
			},
			{
				"x": -1.160806614,
				"y": 1.8796512096,
				"z": 1.4666685563,
				"element": "C" 
			},
			{
				"x": -0.621570825,
				"y": 0.921664407,
				"z": 0.6121862038,
				"element": "C" 
			},
			{
				"x": -1.1874229798,
				"y": 3.0778002661,
				"z": 3.6154656433,
				"element": "C" 
			},
			{
				"x": -1.6434075683,
				"y": 3.882714171,
				"z": 4.3219680485,
				"element": "N" 
			},
			{
				"x": -0.4705863632,
				"y": -1.381286511,
				"z": -1.4487644827,
				"element": "C" 
			},
			{
				"x": -1.5883887663,
				"y": -1.7091191257,
				"z": -1.7673850845,
				"element": "C" 
			},
			{
				"x": 1.5077817421,
				"y": -3.0936020493,
				"z": -0.8160740928,
				"element": "H" 
			},
			{
				"x": 1.7841803397,
				"y": -2.4899988992,
				"z": -2.4650284691,
				"element": "H" 
			},
			{
				"x": 2.8598738081,
				"y": -1.9838887782,
				"z": -1.1370091888,
				"element": "H" 
			},
			{
				"x": 2.4384432471,
				"y": 0.4222234276,
				"z": -1.6296212972,
				"element": "H" 
			},
			{
				"x": 1.341659801,
				"y": 0.0133520758,
				"z": -2.968796955,
				"element": "H" 
			},
			{
				"x": 0.7964111232,
				"y": 1.0934191297,
				"z": -1.6772420499,
				"element": "H" 
			},
			{
				"x": 1.8579386101,
				"y": -0.248038055,
				"z": 2.6226308699,
				"element": "H" 
			},
			{
				"x": 0.8902791674,
				"y": 1.4606894042,
				"z": 4.1536102002,
				"element": "H" 
			},
			{
				"x": -2.0105198819,
				"y": 2.4702837421,
				"z": 1.1403670265,
				"element": "H" 
			},
			{
				"x": -1.0729479055,
				"y": 0.7605268732,
				"z": -0.3570191901,
				"element": "H" 
			},
			{
				"x": -2.5798472444,
				"y": -1.9958306708,
				"z": -2.0338507599,
				"element": "H" 
			}
		],
		 "valence_orbital": [ 
			{
				"type": "occ",
				"energy": -0.31748,
				"method": "rhf"
			},
			{
				"type": "occ",
				"energy": -0.29138,
				"method": "rhf"
			},
			{
				"type": "occ",
				"energy": -0.2856,
				"method": "rhf"
			},
			{
				"type": "occ",
				"energy": -0.27104,
				"method": "rhf"
			},
			{
				"type": "occ",
				"energy": -0.23534,
				"method": "rhf"
			},
			{
				"type": "unocc",
				"energy": -0.03615,
				"method": "rhf"
			},
			{
				"type": "unocc",
				"energy": -0.0199,
				"method": "rhf"
			},
			{
				"type": "unocc",
				"energy": 0.01658,
				"method": "rhf"
			},
			{
				"type": "unocc",
				"energy": 0.03405,
				"method": "rhf"
			},
			{
				"type": "unocc",
				"energy": 0.04559,
				"method": "rhf"
			}
		],
		"cosmo_sigma_profile": { 
			"-0.025": 0.0,
			"-0.024": 0.0,
			"-0.023": 0.0,
			"-0.022": 0.0,
			"-0.021": 0.0,
			"-0.02": 0.0,
			"-0.019": 0.0,
			"-0.018": 0.0,
			"-0.017": 0.0,
			"-0.016": 0.0,
			"-0.015": 0.0,
			"-0.014": 0.0,
			"-0.013": 0.060308832153,
			"-0.012": 1.15641614782,
			"-0.011": 0.932197830616,
			"-0.01": 1.07057877243,
			"-0.009": 1.0247168168,
			"-0.008": 4.56773160271,
			"-0.007": 5.96388798101,
			"-0.006": 10.8530572501,
			"-0.005": 16.9232355672,
			"-0.004": 18.4411429173,
			"-0.003": 16.1336138879,
			"-0.002": 19.2096289142,
			"-0.001": 25.9751705298,
			"0.0": 19.722404882,
			"0.001": 16.0966847209,
			"0.002": 23.4012316204,
			"0.003": 15.9650002778,
			"0.004": 9.21014004616,
			"0.005": 9.33705476101,
			"0.006": 6.58522947833,
			"0.007": 3.84176680413,
			"0.008": 4.16462433359,
			"0.009": 3.61560174466,
			"0.01": 3.59834649969,
			"0.011": 2.78954372996,
			"0.012": 2.747572964,
			"0.013": 1.95069865653,
			"0.014": 0.479770020833,
			"0.015": 0.0,
			"0.016": 0.0,
			"0.017": 0.0,
			"0.018": 0.0,
			"0.019": 0.0,
			"0.02": 0.0,
			"0.021": 0.0,
			"0.022": 0.0,
			"0.023": 0.0,
			"0.024": 0.0,
			"0.025": 0.0
		}
	}
}
