{
	 "smiles": "NC1=CC=C(C=C1)C1=C2C(=C3CCCN13)C(=O)NNC2=O", 
	 "Tm": 583.15, 
	 "num_atms": 35, 
	 "gaussian": { 
		 "optdone": 1, 
		 "sigma_profile": "yes", 
		 "theory": "DFT", 
		 "functional": "B3LYP", 
		 "basiset": "6-31G**", 
		 "properties": { 
			 "R2extent": 6697.7717, 
			 "electric_dipole_moment_norm": 4.36885855802, 
			 "electric_quadrupole_moment_norm": 15.6308042749, 
			 "total_energy": -949.490706269, 
			 "HOMO_LUMO_gap": 0.16065, 
			 "cosmo_polarized_energy": -25.95, 
			 "cosmo_cavitation_energy": 37.99, 
			 "cosmo_dispersion_energy": -27.9, 
			 "cosmo_repulsion_energy": 2.12, 
			 "cosmo_total_nonelectrostatic_energy": 12.21, 
			 "SMD_solvation_energy": 6.4 
		},
		"coords": [
			{
				"x": -5.0288790696,
				"y": -2.065723082,
				"z": 2.6254008841,
				"element": "N" 
			},
			{
				"x": -3.9404913467,
				"y": -1.4384197733,
				"z": 2.0239072559,
				"element": "C" 
			},
			{
				"x": -4.1030266561,
				"y": -0.6665832986,
				"z": 0.8608966221,
				"element": "C" 
			},
			{
				"x": -3.0033653337,
				"y": -0.0903484106,
				"z": 0.2358968886,
				"element": "C" 
			},
			{
				"x": -1.6981751968,
				"y": -0.2595578294,
				"z": 0.7345787951,
				"element": "C" 
			},
			{
				"x": -1.5461019297,
				"y": -1.0229492029,
				"z": 1.9076680775,
				"element": "C" 
			},
			{
				"x": -2.6403997207,
				"y": -1.5996879476,
				"z": 2.5361944766,
				"element": "C" 
			},
			{
				"x": -0.5391518492,
				"y": 0.3339346772,
				"z": 0.0565791225,
				"element": "C" 
			},
			{
				"x": 0.6424290473,
				"y": 0.9267229573,
				"z": 0.5284891523,
				"element": "C" 
			},
			{
				"x": 1.4258441457,
				"y": 1.3383063641,
				"z": -0.6027268688,
				"element": "C" 
			},
			{
				"x": 0.7212218188,
				"y": 0.9928875095,
				"z": -1.7337278238,
				"element": "C" 
			},
			{
				"x": 0.8086340733,
				"y": 1.0171407124,
				"z": -3.2260574548,
				"element": "C" 
			},
			{
				"x": -0.2436083763,
				"y": -0.0574772711,
				"z": -3.6181461761,
				"element": "C" 
			},
			{
				"x": -1.258263788,
				"y": -0.0772996758,
				"z": -2.4483671468,
				"element": "C" 
			},
			{
				"x": -0.4432234792,
				"y": 0.397439099,
				"z": -1.324141188,
				"element": "N" 
			},
			{
				"x": 2.6974134809,
				"y": 2.0345512266,
				"z": -0.4954712468,
				"element": "C" 
			},
			{
				"x": 3.35658889,
				"y": 2.4881828157,
				"z": -1.4274041892,
				"element": "O" 
			},
			{
				"x": 3.1513292115,
				"y": 2.1547891492,
				"z": 0.8155097756,
				"element": "N" 
			},
			{
				"x": 2.2965386282,
				"y": 1.9439949622,
				"z": 1.9313554869,
				"element": "N" 
			},
			{
				"x": 1.1387913413,
				"y": 1.1594788339,
				"z": 1.8808257371,
				"element": "C" 
			},
			{
				"x": 0.6590762949,
				"y": 0.7587923583,
				"z": 2.9396805816,
				"element": "O" 
			},
			{
				"x": -4.9090191806,
				"y": -2.2987811363,
				"z": 3.6014381026,
				"element": "H" 
			},
			{
				"x": -5.929526019,
				"y": -1.6457709615,
				"z": 2.4417701446,
				"element": "H" 
			},
			{
				"x": -5.0989714113,
				"y": -0.511319773,
				"z": 0.4531600101,
				"element": "H" 
			},
			{
				"x": -3.1733983525,
				"y": 0.5318200759,
				"z": -0.6369427346,
				"element": "H" 
			},
			{
				"x": -0.5605810296,
				"y": -1.1362893145,
				"z": 2.3404057341,
				"element": "H" 
			},
			{
				"x": -2.4912287375,
				"y": -2.1868083519,
				"z": 3.4390829512,
				"element": "H" 
			},
			{
				"x": 0.5402134304,
				"y": 2.0067896924,
				"z": -3.6187648615,
				"element": "H" 
			},
			{
				"x": 1.8129863959,
				"y": 0.7923582278,
				"z": -3.5911276179,
				"element": "H" 
			},
			{
				"x": -0.7306201944,
				"y": 0.147706478,
				"z": -4.5744053732,
				"element": "H" 
			},
			{
				"x": 0.2422569648,
				"y": -1.0352736889,
				"z": -3.6920725614,
				"element": "H" 
			},
			{
				"x": -2.0929051243,
				"y": 0.6102011192,
				"z": -2.628656547,
				"element": "H" 
			},
			{
				"x": -1.6707326432,
				"y": -1.0666790824,
				"z": -2.2388298807,
				"element": "H" 
			},
			{
				"x": 3.7699363074,
				"y": 2.9468818028,
				"z": 0.9482251696,
				"element": "H" 
			},
			{
				"x": 2.8208094078,
				"y": 1.7748907381,
				"z": 2.7822767026,
				"element": "H" 
			}
		],
		 "valence_orbital": [ 
			{
				"type": "occ",
				"energy": -0.24756,
				"method": "rhf"
			},
			{
				"type": "occ",
				"energy": -0.24274,
				"method": "rhf"
			},
			{
				"type": "occ",
				"energy": -0.23378,
				"method": "rhf"
			},
			{
				"type": "occ",
				"energy": -0.21526,
				"method": "rhf"
			},
			{
				"type": "occ",
				"energy": -0.18829,
				"method": "rhf"
			},
			{
				"type": "unocc",
				"energy": -0.02764,
				"method": "rhf"
			},
			{
				"type": "unocc",
				"energy": -0.0091,
				"method": "rhf"
			},
			{
				"type": "unocc",
				"energy": 0.0022,
				"method": "rhf"
			},
			{
				"type": "unocc",
				"energy": 0.02622,
				"method": "rhf"
			},
			{
				"type": "unocc",
				"energy": 0.0735,
				"method": "rhf"
			}
		],
		"cosmo_sigma_profile": { 
			"-0.025": 0.0,
			"-0.024": 0.0,
			"-0.023": 0.0,
			"-0.022": 0.0,
			"-0.021": 0.0,
			"-0.02": 0.0,
			"-0.019": 0.0,
			"-0.018": 0.0,
			"-0.017": 0.0,
			"-0.016": 0.340977919271,
			"-0.015": 3.01079578918,
			"-0.014": 2.69643277452,
			"-0.013": 3.12452617463,
			"-0.012": 3.81850810035,
			"-0.011": 4.18438672876,
			"-0.01": 4.27833986132,
			"-0.009": 5.00095104402,
			"-0.008": 4.31462486142,
			"-0.007": 7.54762634497,
			"-0.006": 12.7456440497,
			"-0.005": 21.1630662375,
			"-0.004": 25.694233517,
			"-0.003": 20.8031013148,
			"-0.002": 18.2008747614,
			"-0.001": 18.1229219438,
			"0.0": 13.0354412549,
			"0.001": 14.8394845251,
			"0.002": 16.3507399079,
			"0.003": 17.1566027729,
			"0.004": 11.0284169694,
			"0.005": 14.4855743451,
			"0.006": 14.0173788138,
			"0.007": 6.19238001498,
			"0.008": 6.07869513809,
			"0.009": 3.61671710631,
			"0.01": 4.03905794722,
			"0.011": 4.17059484934,
			"0.012": 5.28369125585,
			"0.013": 7.80554750502,
			"0.014": 7.91482265541,
			"0.015": 0.581498022089,
			"0.016": 0.0,
			"0.017": 0.0,
			"0.018": 0.0,
			"0.019": 0.0,
			"0.02": 0.0,
			"0.021": 0.0,
			"0.022": 0.0,
			"0.023": 0.0,
			"0.024": 0.0,
			"0.025": 0.0
		}
	}
}
