{
	 "smiles": "NNC(=O)CC1=NC=CC=C1", 
	 "Tm": 385.15, 
	 "num_atms": 20, 
	 "gaussian": { 
		 "optdone": 1, 
		 "sigma_profile": "yes", 
		 "theory": "DFT", 
		 "functional": "B3LYP", 
		 "basiset": "6-31G**", 
		 "properties": { 
			 "R2extent": 2122.7348, 
			 "electric_dipole_moment_norm": 3.71162924468, 
			 "electric_quadrupole_moment_norm": 14.3400996419, 
			 "total_energy": -511.626885994, 
			 "HOMO_LUMO_gap": 0.19465, 
			 "cosmo_polarized_energy": -13.58, 
			 "cosmo_cavitation_energy": 23.97, 
			 "cosmo_dispersion_energy": -17.53, 
			 "cosmo_repulsion_energy": 1.43, 
			 "cosmo_total_nonelectrostatic_energy": 7.87, 
			 "SMD_solvation_energy": 4.67 
		},
		"coords": [
			{
				"x": -0.3802036713,
				"y": -0.6194095668,
				"z": -2.4943597956,
				"element": "N" 
			},
			{
				"x": 0.9151532499,
				"y": -1.1715698221,
				"z": -2.4589507904,
				"element": "N" 
			},
			{
				"x": 1.5608699119,
				"y": -1.717696951,
				"z": -1.3825863606,
				"element": "C" 
			},
			{
				"x": 2.7479564453,
				"y": -2.0110434675,
				"z": -1.4248750293,
				"element": "O" 
			},
			{
				"x": 0.7197956263,
				"y": -1.9387376054,
				"z": -0.1143528954,
				"element": "C" 
			},
			{
				"x": 0.7294598394,
				"y": -0.7160779095,
				"z": 0.7803624851,
				"element": "C" 
			},
			{
				"x": -0.0366969733,
				"y": 0.3205744942,
				"z": 0.3942119544,
				"element": "N" 
			},
			{
				"x": -0.0431963245,
				"y": 1.4250281765,
				"z": 1.1498430847,
				"element": "C" 
			},
			{
				"x": 0.7030552036,
				"y": 1.5606207404,
				"z": 2.3196924318,
				"element": "C" 
			},
			{
				"x": 1.5035708856,
				"y": 0.4896855968,
				"z": 2.7149869078,
				"element": "C" 
			},
			{
				"x": 1.5194032114,
				"y": -0.6645681576,
				"z": 1.9349062627,
				"element": "C" 
			},
			{
				"x": -1.0675580919,
				"y": -1.3687970121,
				"z": -2.5438503171,
				"element": "H" 
			},
			{
				"x": -0.5348300804,
				"y": -0.0796830133,
				"z": -1.6401450704,
				"element": "H" 
			},
			{
				"x": 1.5093899024,
				"y": -0.9391459426,
				"z": -3.2445276247,
				"element": "H" 
			},
			{
				"x": 1.1721858068,
				"y": -2.7874381221,
				"z": 0.4009861077,
				"element": "H" 
			},
			{
				"x": -0.3142277865,
				"y": -2.187697632,
				"z": -0.370186427,
				"element": "H" 
			},
			{
				"x": -0.6757672082,
				"y": 2.238652789,
				"z": 0.8004584904,
				"element": "H" 
			},
			{
				"x": 0.6580897858,
				"y": 2.4786729005,
				"z": 2.8962556818,
				"element": "H" 
			},
			{
				"x": 2.1074583367,
				"y": 0.551583405,
				"z": 3.6157184912,
				"element": "H" 
			},
			{
				"x": 2.135091931,
				"y": -1.5154529003,
				"z": 2.2071124128,
				"element": "H" 
			}
		],
		 "valence_orbital": [ 
			{
				"type": "occ",
				"energy": -0.28952,
				"method": "rhf"
			},
			{
				"type": "occ",
				"energy": -0.27293,
				"method": "rhf"
			},
			{
				"type": "occ",
				"energy": -0.26414,
				"method": "rhf"
			},
			{
				"type": "occ",
				"energy": -0.24348,
				"method": "rhf"
			},
			{
				"type": "occ",
				"energy": -0.23252,
				"method": "rhf"
			},
			{
				"type": "unocc",
				"energy": -0.03787,
				"method": "rhf"
			},
			{
				"type": "unocc",
				"energy": -0.02243,
				"method": "rhf"
			},
			{
				"type": "unocc",
				"energy": 0.03261,
				"method": "rhf"
			},
			{
				"type": "unocc",
				"energy": 0.08617,
				"method": "rhf"
			},
			{
				"type": "unocc",
				"energy": 0.09195,
				"method": "rhf"
			}
		],
		"cosmo_sigma_profile": { 
			"-0.025": 0.0,
			"-0.024": 0.0,
			"-0.023": 0.0,
			"-0.022": 0.0,
			"-0.021": 0.0,
			"-0.02": 0.0,
			"-0.019": 0.0,
			"-0.018": 0.0,
			"-0.017": 0.0,
			"-0.016": 0.0,
			"-0.015": 0.0,
			"-0.014": 0.0503083422554,
			"-0.013": 0.868015849129,
			"-0.012": 0.904962607446,
			"-0.011": 2.43441930663,
			"-0.01": 2.47845974245,
			"-0.009": 2.66095741636,
			"-0.008": 3.0946015471,
			"-0.007": 10.1243105914,
			"-0.006": 14.0137666632,
			"-0.005": 13.8646504291,
			"-0.004": 11.9144828234,
			"-0.003": 11.4135041454,
			"-0.002": 10.3719012994,
			"-0.001": 9.94212755145,
			"0.0": 11.1869151033,
			"0.001": 14.0053596903,
			"0.002": 19.3884919476,
			"0.003": 13.8731774881,
			"0.004": 5.62035430035,
			"0.005": 2.51882027946,
			"0.006": 2.19087834034,
			"0.007": 3.35236485099,
			"0.008": 2.62052981989,
			"0.009": 2.05198587143,
			"0.01": 1.6457807074,
			"0.011": 1.71384298095,
			"0.012": 2.5117425818,
			"0.013": 4.91088040236,
			"0.014": 6.00489014808,
			"0.015": 1.80741839355,
			"0.016": 0.403493843804,
			"0.017": 0.32882055166,
			"0.018": 0.0,
			"0.019": 0.0,
			"0.02": 0.0,
			"0.021": 0.0,
			"0.022": 0.0,
			"0.023": 0.0,
			"0.024": 0.0,
			"0.025": 0.0
		}
	}
}
