{
	 "smiles": "COCC1=NC2=NC=NN2C(Cl)=C1", 
	 "Tm": 378.15, 
	 "num_atms": 20, 
	 "gaussian": { 
		 "optdone": 1, 
		 "sigma_profile": "yes", 
		 "theory": "DFT", 
		 "functional": "B3LYP", 
		 "basiset": "6-31G**", 
		 "properties": { 
			 "R2extent": 4693.5375, 
			 "electric_dipole_moment_norm": 2.85837841791, 
			 "electric_quadrupole_moment_norm": 8.74954331322, 
			 "total_energy": -1025.33821511, 
			 "HOMO_LUMO_gap": 0.18804, 
			 "cosmo_polarized_energy": -12.21, 
			 "cosmo_cavitation_energy": 26.47, 
			 "cosmo_dispersion_energy": -19.72, 
			 "cosmo_repulsion_energy": 1.56, 
			 "cosmo_total_nonelectrostatic_energy": 8.31, 
			 "SMD_solvation_energy": 0.83 
		},
		"coords": [
			{
				"x": -1.0917451222,
				"y": 0.3580819585,
				"z": -1.8277564386,
				"element": "C" 
			},
			{
				"x": 0.1342924212,
				"y": 0.5543180927,
				"z": -1.1382739075,
				"element": "O" 
			},
			{
				"x": -0.0338687156,
				"y": 1.0332395468,
				"z": 0.1789824955,
				"element": "C" 
			},
			{
				"x": -0.425575442,
				"y": -0.0466579555,
				"z": 1.1754102082,
				"element": "C" 
			},
			{
				"x": -1.0814399092,
				"y": 0.3456757946,
				"z": 2.2545100384,
				"element": "N" 
			},
			{
				"x": -1.3798538296,
				"y": -0.5967185017,
				"z": 3.1608834228,
				"element": "C" 
			},
			{
				"x": -2.0220124059,
				"y": -0.493555724,
				"z": 4.3212759895,
				"element": "N" 
			},
			{
				"x": -2.02873765,
				"y": -1.7628516222,
				"z": 4.7819233866,
				"element": "C" 
			},
			{
				"x": -1.4460968776,
				"y": -2.6952995602,
				"z": 4.0223196362,
				"element": "N" 
			},
			{
				"x": -1.0228269858,
				"y": -1.9512673384,
				"z": 2.9732220857,
				"element": "N" 
			},
			{
				"x": -0.3537204295,
				"y": -2.3502865632,
				"z": 1.8591018693,
				"element": "C" 
			},
			{
				"x": 0.0447833845,
				"y": -4.0186569045,
				"z": 1.7032660711,
				"element": "Cl" 
			},
			{
				"x": -0.0369261808,
				"y": -1.3934103593,
				"z": 0.9290693105,
				"element": "C" 
			},
			{
				"x": -1.6648420842,
				"y": 1.2939639163,
				"z": -1.8954829537,
				"element": "H" 
			},
			{
				"x": -0.8387431482,
				"y": 0.0211506646,
				"z": -2.8352128455,
				"element": "H" 
			},
			{
				"x": -1.7223539854,
				"y": -0.4028910303,
				"z": -1.3461152007,
				"element": "H" 
			},
			{
				"x": 0.9357112072,
				"y": 1.4486135029,
				"z": 0.4805562601,
				"element": "H" 
			},
			{
				"x": -0.773819567,
				"y": 1.8435392553,
				"z": 0.2376984673,
				"element": "H" 
			},
			{
				"x": -2.4813733338,
				"y": -2.0392048418,
				"z": 5.7250224012,
				"element": "H" 
			},
			{
				"x": 0.4959486539,
				"y": -1.6496823307,
				"z": 0.0236997035,
				"element": "H" 
			}
		],
		 "valence_orbital": [ 
			{
				"type": "occ",
				"energy": -0.29583,
				"method": "rhf"
			},
			{
				"type": "occ",
				"energy": -0.28815,
				"method": "rhf"
			},
			{
				"type": "occ",
				"energy": -0.27901,
				"method": "rhf"
			},
			{
				"type": "occ",
				"energy": -0.27507,
				"method": "rhf"
			},
			{
				"type": "occ",
				"energy": -0.25914,
				"method": "rhf"
			},
			{
				"type": "unocc",
				"energy": -0.0711,
				"method": "rhf"
			},
			{
				"type": "unocc",
				"energy": -0.03221,
				"method": "rhf"
			},
			{
				"type": "unocc",
				"energy": 0.00286,
				"method": "rhf"
			},
			{
				"type": "unocc",
				"energy": 0.04071,
				"method": "rhf"
			},
			{
				"type": "unocc",
				"energy": 0.08435,
				"method": "rhf"
			}
		],
		"cosmo_sigma_profile": { 
			"-0.025": 0.0,
			"-0.024": 0.0,
			"-0.023": 0.0,
			"-0.022": 0.0,
			"-0.021": 0.0,
			"-0.02": 0.0,
			"-0.019": 0.0,
			"-0.018": 0.0,
			"-0.017": 0.0,
			"-0.016": 0.0,
			"-0.015": 0.0,
			"-0.014": 0.0,
			"-0.013": 0.0,
			"-0.012": 0.0,
			"-0.011": 0.0,
			"-0.01": 0.806326693116,
			"-0.009": 2.23853600444,
			"-0.008": 2.75542127685,
			"-0.007": 7.33473466277,
			"-0.006": 9.9690367485,
			"-0.005": 18.6991354447,
			"-0.004": 22.3228107551,
			"-0.003": 25.189207192,
			"-0.002": 20.8887806397,
			"-0.001": 13.0410759804,
			"0.0": 12.9773344952,
			"0.001": 13.205293796,
			"0.002": 11.0387283771,
			"0.003": 6.67326979163,
			"0.004": 4.82022316343,
			"0.005": 4.1430447758,
			"0.006": 4.99686107327,
			"0.007": 4.63568217926,
			"0.008": 4.40819635039,
			"0.009": 4.59944837329,
			"0.01": 4.0798250856,
			"0.011": 4.91308821818,
			"0.012": 5.06360507775,
			"0.013": 3.13936989141,
			"0.014": 1.42269475936,
			"0.015": 1.09241903882,
			"0.016": 0.341200400013,
			"0.017": 0.0,
			"0.018": 0.0,
			"0.019": 0.0,
			"0.02": 0.0,
			"0.021": 0.0,
			"0.022": 0.0,
			"0.023": 0.0,
			"0.024": 0.0,
			"0.025": 0.0
		}
	}
}
