{
	 "smiles": "NC1=CC(=C(C=C1)N1C=NC=N1)C(F)(F)F", 
	 "Tm": 401.15, 
	 "num_atms": 23, 
	 "gaussian": { 
		 "optdone": 1, 
		 "sigma_profile": "yes", 
		 "theory": "DFT", 
		 "functional": "B3LYP", 
		 "basiset": "6-31G**", 
		 "properties": { 
			 "R2extent": 4427.0781, 
			 "electric_dipole_moment_norm": 6.53801636661, 
			 "electric_quadrupole_moment_norm": 7.32164277536, 
			 "total_energy": -865.687200662, 
			 "HOMO_LUMO_gap": 0.18992, 
			 "cosmo_polarized_energy": -16.77, 
			 "cosmo_cavitation_energy": 29.09, 
			 "cosmo_dispersion_energy": -20.5, 
			 "cosmo_repulsion_energy": 1.53, 
			 "cosmo_total_nonelectrostatic_energy": 10.12, 
			 "SMD_solvation_energy": 4.45 
		},
		"coords": [
			{
				"x": 2.789834127,
				"y": -2.2814845524,
				"z": 0.5522124991,
				"element": "N" 
			},
			{
				"x": 1.7617516003,
				"y": -1.496058225,
				"z": 0.0543557148,
				"element": "C" 
			},
			{
				"x": 1.971368834,
				"y": -0.6717154725,
				"z": -1.0659989423,
				"element": "C" 
			},
			{
				"x": 0.938956319,
				"y": 0.081633244,
				"z": -1.61651859,
				"element": "C" 
			},
			{
				"x": -0.3410951227,
				"y": 0.0355804337,
				"z": -1.0362964628,
				"element": "C" 
			},
			{
				"x": -0.5546822274,
				"y": -0.7833920478,
				"z": 0.0742298287,
				"element": "C" 
			},
			{
				"x": 0.4739018945,
				"y": -1.5457463875,
				"z": 0.6137340122,
				"element": "C" 
			},
			{
				"x": -1.437751517,
				"y": 0.7817171219,
				"z": -1.5553069384,
				"element": "N" 
			},
			{
				"x": -2.5865129133,
				"y": 0.3135265869,
				"z": -2.1088814365,
				"element": "C" 
			},
			{
				"x": -3.370158863,
				"y": 1.3131543927,
				"z": -2.4644838025,
				"element": "N" 
			},
			{
				"x": -2.6357324802,
				"y": 2.4048393859,
				"z": -2.103095125,
				"element": "C" 
			},
			{
				"x": -1.4624583012,
				"y": 2.1464271376,
				"z": -1.5480010461,
				"element": "N" 
			},
			{
				"x": 1.2424219233,
				"y": 0.9432360281,
				"z": -2.8242997074,
				"element": "C" 
			},
			{
				"x": 2.3961117016,
				"y": 0.5553327778,
				"z": -3.4205529276,
				"element": "F" 
			},
			{
				"x": 1.39005253,
				"y": 2.2393686511,
				"z": -2.4959363613,
				"element": "F" 
			},
			{
				"x": 0.2725637374,
				"y": 0.8622024348,
				"z": -3.7575805185,
				"element": "F" 
			},
			{
				"x": 2.6898279357,
				"y": -2.6026676925,
				"z": 1.5041057686,
				"element": "H" 
			},
			{
				"x": 3.7295615838,
				"y": -1.9863892087,
				"z": 0.3304817798,
				"element": "H" 
			},
			{
				"x": 2.9518270102,
				"y": -0.6347096002,
				"z": -1.527382642,
				"element": "H" 
			},
			{
				"x": -1.5418163779,
				"y": -0.8052057188,
				"z": 0.5245822881,
				"element": "H" 
			},
			{
				"x": 0.2829361802,
				"y": -2.1772597836,
				"z": 1.4769083318,
				"element": "H" 
			},
			{
				"x": -2.7848323587,
				"y": -0.7418148026,
				"z": -2.2341234066,
				"element": "H" 
			},
			{
				"x": -2.9774752154,
				"y": 3.420425297,
				"z": -2.2491523162,
				"element": "H" 
			}
		],
		 "valence_orbital": [ 
			{
				"type": "occ",
				"energy": -0.28905,
				"method": "rhf"
			},
			{
				"type": "occ",
				"energy": -0.27995,
				"method": "rhf"
			},
			{
				"type": "occ",
				"energy": -0.27156,
				"method": "rhf"
			},
			{
				"type": "occ",
				"energy": -0.26359,
				"method": "rhf"
			},
			{
				"type": "occ",
				"energy": -0.22689,
				"method": "rhf"
			},
			{
				"type": "unocc",
				"energy": -0.03697,
				"method": "rhf"
			},
			{
				"type": "unocc",
				"energy": -0.02076,
				"method": "rhf"
			},
			{
				"type": "unocc",
				"energy": 0.01367,
				"method": "rhf"
			},
			{
				"type": "unocc",
				"energy": 0.05867,
				"method": "rhf"
			},
			{
				"type": "unocc",
				"energy": 0.05978,
				"method": "rhf"
			}
		],
		"cosmo_sigma_profile": { 
			"-0.025": 0.0,
			"-0.024": 0.0,
			"-0.023": 0.0,
			"-0.022": 0.0,
			"-0.021": 0.0,
			"-0.02": 0.0,
			"-0.019": 0.0,
			"-0.018": 0.0,
			"-0.017": 0.0,
			"-0.016": 0.0,
			"-0.015": 0.0,
			"-0.014": 0.414495705989,
			"-0.013": 2.83149538042,
			"-0.012": 3.12503339655,
			"-0.011": 3.89506795019,
			"-0.01": 5.60687561288,
			"-0.009": 4.73335332884,
			"-0.008": 7.90020943822,
			"-0.007": 9.30250903682,
			"-0.006": 10.183594479,
			"-0.005": 8.95403453257,
			"-0.004": 8.35232545663,
			"-0.003": 8.79414032549,
			"-0.002": 7.48864744929,
			"-0.001": 12.2019889625,
			"0.0": 13.5170744521,
			"0.001": 16.8958637352,
			"0.002": 31.310403137,
			"0.003": 32.8722874941,
			"0.004": 9.43875623134,
			"0.005": 4.99173289755,
			"0.006": 5.41047739494,
			"0.007": 3.45683960899,
			"0.008": 4.19559004418,
			"0.009": 2.99829217897,
			"0.01": 2.79637660419,
			"0.011": 3.72747240285,
			"0.012": 2.53925251788,
			"0.013": 2.2621850517,
			"0.014": 1.3762807964,
			"0.015": 0.955796859214,
			"0.016": 1.13892300621,
			"0.017": 0.113820188895,
			"0.018": 0.0,
			"0.019": 0.0,
			"0.02": 0.0,
			"0.021": 0.0,
			"0.022": 0.0,
			"0.023": 0.0,
			"0.024": 0.0,
			"0.025": 0.0
		}
	}
}
