{
	 "smiles": "NC1=CC(OS(=O)(=O)C2=CC=CC=C2)=C(C=CC2=CC=C(N)C=C2OS(=O)(=O)C2=CC=CC=C2)C=C1", 
	 "Tm": 523.15, 
	 "num_atms": 58, 
	 "gaussian": { 
		 "optdone": 1, 
		 "sigma_profile": "yes", 
		 "theory": "DFT", 
		 "functional": "B3LYP", 
		 "basiset": "6-31G**", 
		 "properties": { 
			 "R2extent": 27455.9023, 
			 "electric_dipole_moment_norm": 0.0273071419229, 
			 "electric_quadrupole_moment_norm": 77.6215019583, 
			 "total_energy": -2361.09727513, 
			 "HOMO_LUMO_gap": 0.12838, 
			 "cosmo_polarized_energy": -35.5, 
			 "cosmo_cavitation_energy": 66.22, 
			 "cosmo_dispersion_energy": -44.05, 
			 "cosmo_repulsion_energy": 3.21, 
			 "cosmo_total_nonelectrostatic_energy": 25.39, 
			 "SMD_solvation_energy": 8.88 
		},
		"coords": [
			{
				"x": 6.4362731959,
				"y": 1.550935239,
				"z": 1.4391017366,
				"element": "N" 
			},
			{
				"x": 5.0582965404,
				"y": 1.3500333231,
				"z": 1.3648423407,
				"element": "C" 
			},
			{
				"x": 4.1719051342,
				"y": 2.1584249703,
				"z": 2.0903092659,
				"element": "C" 
			},
			{
				"x": 2.7976478391,
				"y": 1.9810640491,
				"z": 1.9617160939,
				"element": "C" 
			},
			{
				"x": 1.9757684568,
				"y": 2.7685149273,
				"z": 2.7883648548,
				"element": "O" 
			},
			{
				"x": 1.3800409753,
				"y": 4.2238250089,
				"z": 2.2339018119,
				"element": "S" 
			},
			{
				"x": 0.9686290964,
				"y": 4.0697739774,
				"z": 0.8417580505,
				"element": "O" 
			},
			{
				"x": 0.4434494465,
				"y": 4.611929627,
				"z": 3.2792632339,
				"element": "O" 
			},
			{
				"x": 2.8013186083,
				"y": 5.3066590237,
				"z": 2.2919888432,
				"element": "C" 
			},
			{
				"x": 3.5170057811,
				"y": 5.5561005142,
				"z": 1.119656736,
				"element": "C" 
			},
			{
				"x": 4.6245256862,
				"y": 6.4030683528,
				"z": 1.1780745867,
				"element": "C" 
			},
			{
				"x": 5.0005456554,
				"y": 6.9831169309,
				"z": 2.3915391188,
				"element": "C" 
			},
			{
				"x": 4.2699105635,
				"y": 6.7261337842,
				"z": 3.5555444803,
				"element": "C" 
			},
			{
				"x": 3.1598686737,
				"y": 5.8837356053,
				"z": 3.5131147091,
				"element": "C" 
			},
			{
				"x": 2.2236230128,
				"y": 0.9906410169,
				"z": 1.1406175869,
				"element": "C" 
			},
			{
				"x": 0.7770481991,
				"y": 0.7991954269,
				"z": 1.063597545,
				"element": "C" 
			},
			{
				"x": 0.1600983104,
				"y": -0.2870165363,
				"z": 0.5514001698,
				"element": "C" 
			},
			{
				"x": -1.2851601698,
				"y": -0.452450366,
				"z": 0.4142779035,
				"element": "C" 
			},
			{
				"x": -2.1943459234,
				"y": 0.621235169,
				"z": 0.5226359342,
				"element": "C" 
			},
			{
				"x": -3.5662246874,
				"y": 0.4516886381,
				"z": 0.4226488155,
				"element": "C" 
			},
			{
				"x": -4.1194994484,
				"y": -0.8239473387,
				"z": 0.2045529209,
				"element": "C" 
			},
			{
				"x": -5.4959695549,
				"y": -0.9946551164,
				"z": 0.0603734344,
				"element": "N" 
			},
			{
				"x": -3.2410477549,
				"y": -1.9087505914,
				"z": 0.0743920523,
				"element": "C" 
			},
			{
				"x": -1.8665332662,
				"y": -1.7114560934,
				"z": 0.1658409327,
				"element": "C" 
			},
			{
				"x": -1.05592013,
				"y": -2.8599829315,
				"z": 0.1143515033,
				"element": "O" 
			},
			{
				"x": -0.4231820787,
				"y": -3.373353687,
				"z": -1.340509972,
				"element": "S" 
			},
			{
				"x": 0.0248592077,
				"y": -2.2106244462,
				"z": -2.1010068644,
				"element": "O" 
			},
			{
				"x": 0.4894206277,
				"y": -4.4358477139,
				"z": -0.9419292925,
				"element": "O" 
			},
			{
				"x": -1.8293512511,
				"y": -4.0943097317,
				"z": -2.1765129329,
				"element": "C" 
			},
			{
				"x": -2.2119760344,
				"y": -5.3981131847,
				"z": -1.8502712935,
				"element": "C" 
			},
			{
				"x": -3.3102881076,
				"y": -5.9568249595,
				"z": -2.5023432037,
				"element": "C" 
			},
			{
				"x": -4.0056791295,
				"y": -5.2178991441,
				"z": -3.4642034981,
				"element": "C" 
			},
			{
				"x": -3.6058369187,
				"y": -3.9182929625,
				"z": -3.7827657438,
				"element": "C" 
			},
			{
				"x": -2.5096332255,
				"y": -3.3443620007,
				"z": -3.1375547423,
				"element": "C" 
			},
			{
				"x": 3.1411366317,
				"y": 0.2056123131,
				"z": 0.4105242663,
				"element": "C" 
			},
			{
				"x": 4.5133262945,
				"y": 0.371840469,
				"z": 0.5121953615,
				"element": "C" 
			},
			{
				"x": 6.9996226376,
				"y": 0.7467589121,
				"z": 1.1991003242,
				"element": "H" 
			},
			{
				"x": 6.7619704644,
				"y": 2.0016073557,
				"z": 2.2831043128,
				"element": "H" 
			},
			{
				"x": 4.543011846,
				"y": 2.918556108,
				"z": 2.7698925865,
				"element": "H" 
			},
			{
				"x": 3.2006842582,
				"y": 5.1018610559,
				"z": 0.1876965193,
				"element": "H" 
			},
			{
				"x": 5.1906403227,
				"y": 6.6099160725,
				"z": 0.2751970978,
				"element": "H" 
			},
			{
				"x": 5.8623643046,
				"y": 7.6429441113,
				"z": 2.4304057586,
				"element": "H" 
			},
			{
				"x": 4.5595986965,
				"y": 7.1877536361,
				"z": 4.4945725151,
				"element": "H" 
			},
			{
				"x": 2.5686147723,
				"y": 5.6847102102,
				"z": 4.4002222756,
				"element": "H" 
			},
			{
				"x": 0.1783351058,
				"y": 1.6059405484,
				"z": 1.469455152,
				"element": "H" 
			},
			{
				"x": 0.7582622453,
				"y": -1.1265300337,
				"z": 0.2176754849,
				"element": "H" 
			},
			{
				"x": -1.803850046,
				"y": 1.6221751434,
				"z": 0.6743601071,
				"element": "H" 
			},
			{
				"x": -4.2232694796,
				"y": 1.3135798429,
				"z": 0.5059545569,
				"element": "H" 
			},
			{
				"x": -6.0641263543,
				"y": -0.2882957281,
				"z": 0.5074802074,
				"element": "H" 
			},
			{
				"x": -5.8372605232,
				"y": -1.9275020532,
				"z": 0.2470003483,
				"element": "H" 
			},
			{
				"x": -3.618939015,
				"y": -2.913617265,
				"z": -0.0830451573,
				"element": "H" 
			},
			{
				"x": -1.6476355689,
				"y": -5.9595787647,
				"z": -1.1137804624,
				"element": "H" 
			},
			{
				"x": -3.6181970283,
				"y": -6.9707004242,
				"z": -2.26562866,
				"element": "H" 
			},
			{
				"x": -4.8584786023,
				"y": -5.6599077502,
				"z": -3.9711308006,
				"element": "H" 
			},
			{
				"x": -4.1444775013,
				"y": -3.3499730031,
				"z": -4.5346539022,
				"element": "H" 
			},
			{
				"x": -2.1751890221,
				"y": -2.3409744892,
				"z": -3.374838424,
				"element": "H" 
			},
			{
				"x": 2.7573992437,
				"y": -0.5472685219,
				"z": -0.2701649698,
				"element": "H" 
			},
			{
				"x": 5.1772689881,
				"y": -0.2542965253,
				"z": -0.0782616157,
				"element": "H" 
			}
		],
		 "valence_orbital": [ 
			{
				"type": "occ",
				"energy": -0.26008,
				"method": "rhf"
			},
			{
				"type": "occ",
				"energy": -0.24406,
				"method": "rhf"
			},
			{
				"type": "occ",
				"energy": -0.24376,
				"method": "rhf"
			},
			{
				"type": "occ",
				"energy": -0.21558,
				"method": "rhf"
			},
			{
				"type": "occ",
				"energy": -0.17396,
				"method": "rhf"
			},
			{
				"type": "unocc",
				"energy": -0.04558,
				"method": "rhf"
			},
			{
				"type": "unocc",
				"energy": -0.0454,
				"method": "rhf"
			},
			{
				"type": "unocc",
				"energy": -0.03399,
				"method": "rhf"
			},
			{
				"type": "unocc",
				"energy": -0.02376,
				"method": "rhf"
			},
			{
				"type": "unocc",
				"energy": -0.02326,
				"method": "rhf"
			}
		],
		"cosmo_sigma_profile": { 
			"-0.025": 0.0,
			"-0.024": 0.0,
			"-0.023": 0.0,
			"-0.022": 0.0,
			"-0.021": 0.0,
			"-0.02": 0.0,
			"-0.019": 0.0,
			"-0.018": 0.0,
			"-0.017": 0.0,
			"-0.016": 0.0,
			"-0.015": 0.0,
			"-0.014": 0.0,
			"-0.013": 2.99758765138,
			"-0.012": 6.24222284533,
			"-0.011": 5.90044227407,
			"-0.01": 7.21436896873,
			"-0.009": 6.62467931507,
			"-0.008": 8.43460391145,
			"-0.007": 25.0429750907,
			"-0.006": 34.9346652401,
			"-0.005": 31.9613025144,
			"-0.004": 29.1488455804,
			"-0.003": 27.9913897775,
			"-0.002": 29.2569170415,
			"-0.001": 27.9628953228,
			"0.0": 29.9026531257,
			"0.001": 34.5044426952,
			"0.002": 44.6722733326,
			"0.003": 36.4698882426,
			"0.004": 32.0628219027,
			"0.005": 24.6141362386,
			"0.006": 15.9033445455,
			"0.007": 10.6300246743,
			"0.008": 14.6394117951,
			"0.009": 20.1810300764,
			"0.01": 16.7360021181,
			"0.011": 3.68264449746,
			"0.012": 1.6339799391,
			"0.013": 1.02740210101,
			"0.014": 0.555901350044,
			"0.015": 0.0,
			"0.016": 0.0,
			"0.017": 0.0,
			"0.018": 0.0,
			"0.019": 0.0,
			"0.02": 0.0,
			"0.021": 0.0,
			"0.022": 0.0,
			"0.023": 0.0,
			"0.024": 0.0,
			"0.025": 0.0
		}
	}
}
