{
	 "smiles": "NS(=O)(=O)C=CC1=CC=CC=C1", 
	 "Tm": 412.15, 
	 "num_atms": 21, 
	 "gaussian": { 
		 "optdone": 1, 
		 "sigma_profile": "yes", 
		 "theory": "DFT", 
		 "functional": "B3LYP", 
		 "basiset": "6-31G**", 
		 "properties": { 
			 "R2extent": 4170.9122, 
			 "electric_dipole_moment_norm": 4.47797568662, 
			 "electric_quadrupole_moment_norm": 19.9991707883, 
			 "total_energy": -913.569580058, 
			 "HOMO_LUMO_gap": 0.18128, 
			 "cosmo_polarized_energy": -16.15, 
			 "cosmo_cavitation_energy": 26.22, 
			 "cosmo_dispersion_energy": -19.78, 
			 "cosmo_repulsion_energy": 1.53, 
			 "cosmo_total_nonelectrostatic_energy": 7.97, 
			 "SMD_solvation_energy": 4.47 
		},
		"coords": [
			{
				"x": -0.5137534416,
				"y": 3.9425819621,
				"z": -0.3484538421,
				"element": "N" 
			},
			{
				"x": -2.0285846535,
				"y": 3.7819119794,
				"z": 0.3904650374,
				"element": "S" 
			},
			{
				"x": -2.9375048847,
				"y": 4.8197451796,
				"z": -0.1069748848,
				"element": "O" 
			},
			{
				"x": -1.7467393527,
				"y": 3.6605733951,
				"z": 1.827482765,
				"element": "O" 
			},
			{
				"x": -2.6608550848,
				"y": 2.2631561655,
				"z": -0.2902501639,
				"element": "C" 
			},
			{
				"x": -2.0988255444,
				"y": 1.044416201,
				"z": -0.3767341812,
				"element": "C" 
			},
			{
				"x": -0.8136875451,
				"y": 0.4899272352,
				"z": 0.0599512595,
				"element": "C" 
			},
			{
				"x": -0.3517881588,
				"y": -0.6620352919,
				"z": -0.6068862972,
				"element": "C" 
			},
			{
				"x": 0.8585092348,
				"y": -1.2559237952,
				"z": -0.2610435105,
				"element": "C" 
			},
			{
				"x": 1.6202147569,
				"y": -0.7234810547,
				"z": 0.78133705,
				"element": "C" 
			},
			{
				"x": 1.1594871243,
				"y": 0.3998871428,
				"z": 1.472211709,
				"element": "C" 
			},
			{
				"x": -0.0435782387,
				"y": 1.0070544236,
				"z": 1.1191481308,
				"element": "C" 
			},
			{
				"x": -0.5878037362,
				"y": 4.5313855003,
				"z": -1.1744098819,
				"element": "H" 
			},
			{
				"x": 0.1358673697,
				"y": 4.3373971044,
				"z": 0.3267212884,
				"element": "H" 
			},
			{
				"x": -3.6550164487,
				"y": 2.4396187474,
				"z": -0.6867683126,
				"element": "H" 
			},
			{
				"x": -2.7213906596,
				"y": 0.3212372362,
				"z": -0.9054983526,
				"element": "H" 
			},
			{
				"x": -0.9479575342,
				"y": -1.0839146305,
				"z": -1.4121463596,
				"element": "H" 
			},
			{
				"x": 1.2018546498,
				"y": -2.1365868346,
				"z": -0.7957401457,
				"element": "H" 
			},
			{
				"x": 2.5602373401,
				"y": -1.1893958565,
				"z": 1.0626735741,
				"element": "H" 
			},
			{
				"x": 1.7374061638,
				"y": 0.8023347864,
				"z": 2.2991767148,
				"element": "H" 
			},
			{
				"x": -0.4060913566,
				"y": 1.8555104044,
				"z": 1.686938403,
				"element": "H" 
			}
		],
		 "valence_orbital": [ 
			{
				"type": "occ",
				"energy": -0.30825,
				"method": "rhf"
			},
			{
				"type": "occ",
				"energy": -0.29863,
				"method": "rhf"
			},
			{
				"type": "occ",
				"energy": -0.28626,
				"method": "rhf"
			},
			{
				"type": "occ",
				"energy": -0.26012,
				"method": "rhf"
			},
			{
				"type": "occ",
				"energy": -0.24498,
				"method": "rhf"
			},
			{
				"type": "unocc",
				"energy": -0.0637,
				"method": "rhf"
			},
			{
				"type": "unocc",
				"energy": -0.01063,
				"method": "rhf"
			},
			{
				"type": "unocc",
				"energy": 0.02269,
				"method": "rhf"
			},
			{
				"type": "unocc",
				"energy": 0.06261,
				"method": "rhf"
			},
			{
				"type": "unocc",
				"energy": 0.06852,
				"method": "rhf"
			}
		],
		"cosmo_sigma_profile": { 
			"-0.025": 0.0,
			"-0.024": 0.0,
			"-0.023": 0.0,
			"-0.022": 0.0,
			"-0.021": 0.0,
			"-0.02": 0.0,
			"-0.019": 0.0,
			"-0.018": 0.0,
			"-0.017": 0.0,
			"-0.016": 0.0,
			"-0.015": 0.928010487703,
			"-0.014": 2.73648398419,
			"-0.013": 2.39712549468,
			"-0.012": 2.63327705066,
			"-0.011": 2.28514640417,
			"-0.01": 1.68633225576,
			"-0.009": 2.59901429661,
			"-0.008": 6.48896985452,
			"-0.007": 7.9248754528,
			"-0.006": 12.6898999559,
			"-0.005": 12.2016229693,
			"-0.004": 13.7062448251,
			"-0.003": 11.1269430958,
			"-0.002": 10.3314537245,
			"-0.001": 10.2424911567,
			"0.0": 10.656160631,
			"0.001": 12.3415666993,
			"0.002": 13.299877138,
			"0.003": 12.5309119443,
			"0.004": 13.6238254167,
			"0.005": 8.78603958374,
			"0.006": 2.60556850813,
			"0.007": 3.75424422215,
			"0.008": 4.63350412416,
			"0.009": 4.06498607593,
			"0.01": 6.90728902942,
			"0.011": 10.4924542264,
			"0.012": 5.68366852372,
			"0.013": 0.0815353575406,
			"0.014": 0.0,
			"0.015": 0.0,
			"0.016": 0.0,
			"0.017": 0.0,
			"0.018": 0.0,
			"0.019": 0.0,
			"0.02": 0.0,
			"0.021": 0.0,
			"0.022": 0.0,
			"0.023": 0.0,
			"0.024": 0.0,
			"0.025": 0.0
		}
	}
}
