{
	 "smiles": "NNC1=C(Cl)C=C(C=C1)C#N", 
	 "Tm": 401.15, 
	 "num_atms": 17, 
	 "gaussian": { 
		 "optdone": 1, 
		 "sigma_profile": "yes", 
		 "theory": "DFT", 
		 "functional": "B3LYP", 
		 "basiset": "6-31G**", 
		 "properties": { 
			 "R2extent": 2438.0975, 
			 "electric_dipole_moment_norm": 7.44785616201, 
			 "electric_quadrupole_moment_norm": 12.6661983105, 
			 "total_energy": -894.758039365, 
			 "HOMO_LUMO_gap": 0.18584, 
			 "cosmo_polarized_energy": -14.5, 
			 "cosmo_cavitation_energy": 24.18, 
			 "cosmo_dispersion_energy": -17.67, 
			 "cosmo_repulsion_energy": 1.45, 
			 "cosmo_total_nonelectrostatic_energy": 7.96, 
			 "SMD_solvation_energy": 5.88 
		},
		"coords": [
			{
				"x": -1.3799653687,
				"y": 0.5780953413,
				"z": -2.4182704061,
				"element": "N" 
			},
			{
				"x": -0.7301739382,
				"y": 1.0199288848,
				"z": -1.2568312376,
				"element": "N" 
			},
			{
				"x": -0.3957453968,
				"y": 0.1013312955,
				"z": -0.2849504332,
				"element": "C" 
			},
			{
				"x": 0.0264261715,
				"y": 0.5295518149,
				"z": 0.9943064773,
				"element": "C" 
			},
			{
				"x": 0.0664492056,
				"y": 2.2567382024,
				"z": 1.3538721241,
				"element": "Cl" 
			},
			{
				"x": 0.4073807147,
				"y": -0.3666613463,
				"z": 1.9790302077,
				"element": "C" 
			},
			{
				"x": 0.3773001351,
				"y": -1.7465480445,
				"z": 1.7168191162,
				"element": "C" 
			},
			{
				"x": -0.0434479831,
				"y": -2.1911819052,
				"z": 0.4501693091,
				"element": "C" 
			},
			{
				"x": -0.4232613338,
				"y": -1.2869496492,
				"z": -0.5278050274,
				"element": "C" 
			},
			{
				"x": 0.7674483613,
				"y": -2.6788765753,
				"z": 2.7283942101,
				"element": "C" 
			},
			{
				"x": 1.0837794169,
				"y": -3.4406207143,
				"z": 3.550093804,
				"element": "N" 
			},
			{
				"x": -0.9589827843,
				"y": 1.0243208282,
				"z": -3.2272241197,
				"element": "H" 
			},
			{
				"x": -2.3725321106,
				"y": 0.8047976551,
				"z": -2.3919317359,
				"element": "H" 
			},
			{
				"x": -0.8889696885,
				"y": 1.9690251683,
				"z": -0.9408160348,
				"element": "H" 
			},
			{
				"x": 0.723889991,
				"y": 0.0009272846,
				"z": 2.9480891606,
				"element": "H" 
			},
			{
				"x": -0.0711896096,
				"y": -3.2551734141,
				"z": 0.2405139233,
				"element": "H" 
			},
			{
				"x": -0.7508057823,
				"y": -1.621404826,
				"z": -1.5040593376,
				"element": "H" 
			}
		],
		 "valence_orbital": [ 
			{
				"type": "occ",
				"energy": -0.32155,
				"method": "rhf"
			},
			{
				"type": "occ",
				"energy": -0.30718,
				"method": "rhf"
			},
			{
				"type": "occ",
				"energy": -0.29105,
				"method": "rhf"
			},
			{
				"type": "occ",
				"energy": -0.26527,
				"method": "rhf"
			},
			{
				"type": "occ",
				"energy": -0.22177,
				"method": "rhf"
			},
			{
				"type": "unocc",
				"energy": -0.03593,
				"method": "rhf"
			},
			{
				"type": "unocc",
				"energy": -0.02312,
				"method": "rhf"
			},
			{
				"type": "unocc",
				"energy": 0.01298,
				"method": "rhf"
			},
			{
				"type": "unocc",
				"energy": 0.04617,
				"method": "rhf"
			},
			{
				"type": "unocc",
				"energy": 0.05528,
				"method": "rhf"
			}
		],
		"cosmo_sigma_profile": { 
			"-0.025": 0.0,
			"-0.024": 0.0,
			"-0.023": 0.0,
			"-0.022": 0.0,
			"-0.021": 0.0,
			"-0.02": 0.0,
			"-0.019": 0.0,
			"-0.018": 0.0,
			"-0.017": 0.0,
			"-0.016": 0.0,
			"-0.015": 0.0,
			"-0.014": 0.0,
			"-0.013": 0.767401743802,
			"-0.012": 4.15738259636,
			"-0.011": 5.05990267754,
			"-0.01": 4.3679507834,
			"-0.009": 4.83381400166,
			"-0.008": 5.82132447999,
			"-0.007": 6.17526096613,
			"-0.006": 6.99229136941,
			"-0.005": 7.80583395731,
			"-0.004": 6.93063471829,
			"-0.003": 7.58548409023,
			"-0.002": 9.3626917087,
			"-0.001": 9.4996657945,
			"0.0": 15.7424258273,
			"0.001": 18.6956212268,
			"0.002": 21.0107229622,
			"0.003": 15.3985041131,
			"0.004": 12.396680888,
			"0.005": 5.34566134719,
			"0.006": 3.91375276959,
			"0.007": 3.05785611897,
			"0.008": 4.06638845889,
			"0.009": 4.2052895654,
			"0.01": 4.24925252241,
			"0.011": 3.46179389255,
			"0.012": 2.74057589501,
			"0.013": 2.18567428754,
			"0.014": 0.72595130266,
			"0.015": 0.0,
			"0.016": 0.0,
			"0.017": 0.0,
			"0.018": 0.0,
			"0.019": 0.0,
			"0.02": 0.0,
			"0.021": 0.0,
			"0.022": 0.0,
			"0.023": 0.0,
			"0.024": 0.0,
			"0.025": 0.0
		}
	}
}
