{
	 "smiles": "NC1=CC(F)=C(OCC2=CC(F)=CC=C2)C=C1", 
	 "Tm": 317.15, 
	 "num_atms": 28, 
	 "gaussian": { 
		 "optdone": 1, 
		 "sigma_profile": "yes", 
		 "theory": "DFT", 
		 "functional": "B3LYP", 
		 "basiset": "6-31G**", 
		 "properties": { 
			 "R2extent": 6832.2243, 
			 "electric_dipole_moment_norm": 4.14220796677, 
			 "electric_quadrupole_moment_norm": 24.6212600248, 
			 "total_energy": -831.643171864, 
			 "HOMO_LUMO_gap": 0.19549, 
			 "cosmo_polarized_energy": -11.69, 
			 "cosmo_cavitation_energy": 33.63, 
			 "cosmo_dispersion_energy": -24.09, 
			 "cosmo_repulsion_energy": 1.82, 
			 "cosmo_total_nonelectrostatic_energy": 11.36, 
			 "SMD_solvation_energy": 6.62 
		},
		"coords": [
			{
				"x": 4.5476589442,
				"y": 1.6241087875,
				"z": -4.7143705185,
				"element": "N" 
			},
			{
				"x": 3.6412548669,
				"y": 1.5192016071,
				"z": -3.6571499907,
				"element": "C" 
			},
			{
				"x": 3.9566318097,
				"y": 0.7557399031,
				"z": -2.5205224782,
				"element": "C" 
			},
			{
				"x": 3.074998223,
				"y": 0.717725785,
				"z": -1.4513936848,
				"element": "C" 
			},
			{
				"x": 3.4103202368,
				"y": -0.014877537,
				"z": -0.3633410242,
				"element": "F" 
			},
			{
				"x": 1.8541094682,
				"y": 1.4003025548,
				"z": -1.458434856,
				"element": "C" 
			},
			{
				"x": 0.9984170505,
				"y": 1.4055700856,
				"z": -0.3811743725,
				"element": "O" 
			},
			{
				"x": 0.4616427638,
				"y": 0.1345789356,
				"z": 0.0018818466,
				"element": "C" 
			},
			{
				"x": -0.6442791775,
				"y": 0.3362395114,
				"z": 1.0111618879,
				"element": "C" 
			},
			{
				"x": -1.354622664,
				"y": 1.5387068053,
				"z": 1.0690004585,
				"element": "C" 
			},
			{
				"x": -2.3934987087,
				"y": 1.6622231977,
				"z": 1.9834407218,
				"element": "C" 
			},
			{
				"x": -3.0724699756,
				"y": 2.8290141839,
				"z": 2.0381556077,
				"element": "F" 
			},
			{
				"x": -2.7616757738,
				"y": 0.6323865895,
				"z": 2.8410928228,
				"element": "C" 
			},
			{
				"x": -2.0465315078,
				"y": -0.5645535397,
				"z": 2.7754197072,
				"element": "C" 
			},
			{
				"x": -0.9928188852,
				"y": -0.7118130284,
				"z": 1.8730443408,
				"element": "C" 
			},
			{
				"x": 1.5482844328,
				"y": 2.1517244863,
				"z": -2.5944848148,
				"element": "C" 
			},
			{
				"x": 2.4236082292,
				"y": 2.2211039458,
				"z": -3.6755556938,
				"element": "C" 
			},
			{
				"x": 5.1941730115,
				"y": 0.8527603475,
				"z": -4.8056544437,
				"element": "H" 
			},
			{
				"x": 4.138464999,
				"y": 1.8770971372,
				"z": -5.603176488,
				"element": "H" 
			},
			{
				"x": 4.8888726562,
				"y": 0.2044010109,
				"z": -2.448442528,
				"element": "H" 
			},
			{
				"x": 0.0679500099,
				"y": -0.3738676524,
				"z": -0.8920254945,
				"element": "H" 
			},
			{
				"x": 1.2479880834,
				"y": -0.5011802608,
				"z": 0.423641327,
				"element": "H" 
			},
			{
				"x": -1.0941560551,
				"y": 2.3697213694,
				"z": 0.425369484,
				"element": "H" 
			},
			{
				"x": -3.5795947236,
				"y": 0.7777645126,
				"z": 3.5381679967,
				"element": "H" 
			},
			{
				"x": -2.3084393077,
				"y": -1.3825242433,
				"z": 3.4400440989,
				"element": "H" 
			},
			{
				"x": -0.4353437271,
				"y": -1.6442294685,
				"z": 1.8408188512,
				"element": "H" 
			},
			{
				"x": 0.6066838724,
				"y": 2.6914060945,
				"z": -2.6104713196,
				"element": "H" 
			},
			{
				"x": 2.1633718486,
				"y": 2.8225688793,
				"z": -4.542141444,
				"element": "H" 
			}
		],
		 "valence_orbital": [ 
			{
				"type": "occ",
				"energy": -0.27923,
				"method": "rhf"
			},
			{
				"type": "occ",
				"energy": -0.24965,
				"method": "rhf"
			},
			{
				"type": "occ",
				"energy": -0.24842,
				"method": "rhf"
			},
			{
				"type": "occ",
				"energy": -0.23739,
				"method": "rhf"
			},
			{
				"type": "occ",
				"energy": -0.20166,
				"method": "rhf"
			},
			{
				"type": "unocc",
				"energy": -0.00617,
				"method": "rhf"
			},
			{
				"type": "unocc",
				"energy": -0.00257,
				"method": "rhf"
			},
			{
				"type": "unocc",
				"energy": 0.00459,
				"method": "rhf"
			},
			{
				"type": "unocc",
				"energy": 0.0161,
				"method": "rhf"
			},
			{
				"type": "unocc",
				"energy": 0.07221,
				"method": "rhf"
			}
		],
		"cosmo_sigma_profile": { 
			"-0.025": 0.0,
			"-0.024": 0.0,
			"-0.023": 0.0,
			"-0.022": 0.0,
			"-0.021": 0.0,
			"-0.02": 0.0,
			"-0.019": 0.0,
			"-0.018": 0.0,
			"-0.017": 0.0,
			"-0.016": 0.0,
			"-0.015": 0.0,
			"-0.014": 0.0,
			"-0.013": 0.581800385449,
			"-0.012": 2.89805892106,
			"-0.011": 3.0756640048,
			"-0.01": 3.06032850271,
			"-0.009": 3.36177314487,
			"-0.008": 3.06930689169,
			"-0.007": 6.23459059897,
			"-0.006": 15.7267738767,
			"-0.005": 15.6676714351,
			"-0.004": 17.4192651913,
			"-0.003": 15.4979818538,
			"-0.002": 11.3985046797,
			"-0.001": 13.4660956945,
			"0.0": 14.5133315265,
			"0.001": 20.9603124729,
			"0.002": 22.830474691,
			"0.003": 23.9894999464,
			"0.004": 37.3768579673,
			"0.005": 23.0325093086,
			"0.006": 4.07074594331,
			"0.007": 2.3960621667,
			"0.008": 1.86283889264,
			"0.009": 1.61449176168,
			"0.01": 1.51656188208,
			"0.011": 1.16809398504,
			"0.012": 0.776425537899,
			"0.013": 0.644448136078,
			"0.014": 0.441263814388,
			"0.015": 0.131793952838,
			"0.016": 0.0,
			"0.017": 0.0,
			"0.018": 0.0,
			"0.019": 0.0,
			"0.02": 0.0,
			"0.021": 0.0,
			"0.022": 0.0,
			"0.023": 0.0,
			"0.024": 0.0,
			"0.025": 0.0
		}
	}
}
