{
	 "smiles": "CC1=CN=C(NC(=O)C2CCNCC2)C=C1", 
	 "Tm": 419.15, 
	 "num_atms": 33, 
	 "gaussian": { 
		 "optdone": 1, 
		 "sigma_profile": "yes", 
		 "theory": "DFT", 
		 "functional": "B3LYP", 
		 "basiset": "6-31G**", 
		 "properties": { 
			 "R2extent": 4979.2443, 
			 "electric_dipole_moment_norm": 4.35265343095, 
			 "electric_quadrupole_moment_norm": 12.980255417, 
			 "total_energy": -707.010053608, 
			 "HOMO_LUMO_gap": 0.1833, 
			 "cosmo_polarized_energy": -14.09, 
			 "cosmo_cavitation_energy": 33.84, 
			 "cosmo_dispersion_energy": -24.97, 
			 "cosmo_repulsion_energy": 1.94, 
			 "cosmo_total_nonelectrostatic_energy": 10.81, 
			 "SMD_solvation_energy": 2.7 
		},
		"coords": [
			{
				"x": -3.5113586605,
				"y": 3.8094199512,
				"z": -1.3528677527,
				"element": "C" 
			},
			{
				"x": -2.3185525515,
				"y": 3.1256411508,
				"z": -0.7345057926,
				"element": "C" 
			},
			{
				"x": -2.132499082,
				"y": 3.0732099088,
				"z": 0.6497526887,
				"element": "C" 
			},
			{
				"x": -1.1063081781,
				"y": 2.4747067143,
				"z": 1.2580940945,
				"element": "N" 
			},
			{
				"x": -0.1722013579,
				"y": 1.8750074669,
				"z": 0.5036729151,
				"element": "C" 
			},
			{
				"x": 0.8515415548,
				"y": 1.310294134,
				"z": 1.2747426544,
				"element": "N" 
			},
			{
				"x": 1.9830044263,
				"y": 0.5265635525,
				"z": 1.0576553166,
				"element": "C" 
			},
			{
				"x": 2.786532938,
				"y": 0.4325664816,
				"z": 1.9750438689,
				"element": "O" 
			},
			{
				"x": 2.1941394718,
				"y": -0.1754128949,
				"z": -0.2860167137,
				"element": "C" 
			},
			{
				"x": 1.0118338026,
				"y": -1.1074686369,
				"z": -0.7065717277,
				"element": "C" 
			},
			{
				"x": 1.3195831426,
				"y": -2.5829586653,
				"z": -0.3823743753,
				"element": "C" 
			},
			{
				"x": 2.0725451509,
				"y": -2.6251799068,
				"z": 0.8637586026,
				"element": "N" 
			},
			{
				"x": 3.4616135931,
				"y": -2.1868527299,
				"z": 0.6843279017,
				"element": "C" 
			},
			{
				"x": 3.514146848,
				"y": -0.9675410129,
				"z": -0.2641481563,
				"element": "C" 
			},
			{
				"x": -0.2398270653,
				"y": 1.8837935876,
				"z": -0.9005460197,
				"element": "C" 
			},
			{
				"x": -1.3239172915,
				"y": 2.5094261385,
				"z": -1.5040187308,
				"element": "C" 
			},
			{
				"x": -3.2070552412,
				"y": 4.5879969037,
				"z": -2.0616738767,
				"element": "H" 
			},
			{
				"x": -4.1350090402,
				"y": 4.2815760688,
				"z": -0.5884178903,
				"element": "H" 
			},
			{
				"x": -4.141808441,
				"y": 3.1007341742,
				"z": -1.9027904958,
				"element": "H" 
			},
			{
				"x": -2.8581107953,
				"y": 3.546402103,
				"z": 1.3112340135,
				"element": "H" 
			},
			{
				"x": 0.788762327,
				"y": 1.6030843369,
				"z": 2.2440697822,
				"element": "H" 
			},
			{
				"x": 2.3015593697,
				"y": 0.6213509304,
				"z": -1.0335920638,
				"element": "H" 
			},
			{
				"x": 0.8123986287,
				"y": -1.0017784501,
				"z": -1.7791654247,
				"element": "H" 
			},
			{
				"x": 0.0996236114,
				"y": -0.8119361815,
				"z": -0.1825767857,
				"element": "H" 
			},
			{
				"x": 1.8524657527,
				"y": -3.0559594551,
				"z": -1.2304147117,
				"element": "H" 
			},
			{
				"x": 0.3823634569,
				"y": -3.1346544966,
				"z": -0.256086838,
				"element": "H" 
			},
			{
				"x": 2.0419083946,
				"y": -3.5470242722,
				"z": 1.2861081282,
				"element": "H" 
			},
			{
				"x": 3.8600654282,
				"y": -1.9089368089,
				"z": 1.6629004017,
				"element": "H" 
			},
			{
				"x": 4.1059944443,
				"y": -2.9813657052,
				"z": 0.2647113196,
				"element": "H" 
			},
			{
				"x": 4.3404519574,
				"y": -0.3142250948,
				"z": 0.0255154957,
				"element": "H" 
			},
			{
				"x": 3.7104199773,
				"y": -1.3006760923,
				"z": -1.289922133,
				"element": "H" 
			},
			{
				"x": 0.5281502612,
				"y": 1.4312153056,
				"z": -1.5105744475,
				"element": "H" 
			},
			{
				"x": -1.389556833,
				"y": 2.5245814944,
				"z": -2.5895232472,
				"element": "H" 
			}
		],
		 "valence_orbital": [ 
			{
				"type": "occ",
				"energy": -0.28421,
				"method": "rhf"
			},
			{
				"type": "occ",
				"energy": -0.26577,
				"method": "rhf"
			},
			{
				"type": "occ",
				"energy": -0.24711,
				"method": "rhf"
			},
			{
				"type": "occ",
				"energy": -0.22056,
				"method": "rhf"
			},
			{
				"type": "occ",
				"energy": -0.21012,
				"method": "rhf"
			},
			{
				"type": "unocc",
				"energy": -0.02682,
				"method": "rhf"
			},
			{
				"type": "unocc",
				"energy": -0.01487,
				"method": "rhf"
			},
			{
				"type": "unocc",
				"energy": 0.03872,
				"method": "rhf"
			},
			{
				"type": "unocc",
				"energy": 0.07315,
				"method": "rhf"
			},
			{
				"type": "unocc",
				"energy": 0.0956,
				"method": "rhf"
			}
		],
		"cosmo_sigma_profile": { 
			"-0.025": 0.0,
			"-0.024": 0.0,
			"-0.023": 0.0,
			"-0.022": 0.0,
			"-0.021": 0.0,
			"-0.02": 0.0,
			"-0.019": 0.0,
			"-0.018": 0.0,
			"-0.017": 0.0,
			"-0.016": 0.0,
			"-0.015": 0.0,
			"-0.014": 0.0,
			"-0.013": 0.0,
			"-0.012": 0.533343202683,
			"-0.011": 0.456232299622,
			"-0.01": 1.38624073584,
			"-0.009": 1.81754609587,
			"-0.008": 3.85795067353,
			"-0.007": 5.9462767925,
			"-0.006": 8.74569126777,
			"-0.005": 13.2330497984,
			"-0.004": 18.2084376025,
			"-0.003": 25.5361220885,
			"-0.002": 31.6300313988,
			"-0.001": 34.9158090269,
			"0.0": 31.7187135737,
			"0.001": 16.8751735362,
			"0.002": 13.759634595,
			"0.003": 12.9490820179,
			"0.004": 5.21054088343,
			"0.005": 4.7547411685,
			"0.006": 2.52786090366,
			"0.007": 3.09259583969,
			"0.008": 3.92038804572,
			"0.009": 3.61179513587,
			"0.01": 2.2836692929,
			"0.011": 3.18241651272,
			"0.012": 4.78840863343,
			"0.013": 6.00928706726,
			"0.014": 2.84779442409,
			"0.015": 0.737878421863,
			"0.016": 0.391511635294,
			"0.017": 0.0,
			"0.018": 0.0,
			"0.019": 0.0,
			"0.02": 0.0,
			"0.021": 0.0,
			"0.022": 0.0,
			"0.023": 0.0,
			"0.024": 0.0,
			"0.025": 0.0
		}
	}
}
