{
	 "smiles": "NC1=CN(CC(=O)NC2CCCC2)N=C1", 
	 "Tm": 382.15, 
	 "num_atms": 31, 
	 "gaussian": { 
		 "optdone": 1, 
		 "sigma_profile": "yes", 
		 "theory": "DFT", 
		 "functional": "B3LYP", 
		 "basiset": "6-31G**", 
		 "properties": { 
			 "R2extent": 4147.3702, 
			 "electric_dipole_moment_norm": 2.73223850533, 
			 "electric_quadrupole_moment_norm": 16.6415267205, 
			 "total_energy": -684.92241348, 
			 "HOMO_LUMO_gap": 0.20472, 
			 "cosmo_polarized_energy": -16.84, 
			 "cosmo_cavitation_energy": 33.42, 
			 "cosmo_dispersion_energy": -23.46, 
			 "cosmo_repulsion_energy": 1.88, 
			 "cosmo_total_nonelectrostatic_energy": 11.84, 
			 "SMD_solvation_energy": 4.98 
		},
		"coords": [
			{
				"x": -0.1299515392,
				"y": 4.7436266433,
				"z": -0.7122744167,
				"element": "N" 
			},
			{
				"x": -0.35951846,
				"y": 3.35817536,
				"z": -0.6694471951,
				"element": "C" 
			},
			{
				"x": -1.1405026878,
				"y": 2.6432988678,
				"z": 0.2255066872,
				"element": "C" 
			},
			{
				"x": -1.1300551281,
				"y": 1.3429736722,
				"z": -0.201085613,
				"element": "N" 
			},
			{
				"x": -1.7450639747,
				"y": 0.203512865,
				"z": 0.4569626982,
				"element": "C" 
			},
			{
				"x": -1.052010151,
				"y": -0.1204415276,
				"z": 1.7932562413,
				"element": "C" 
			},
			{
				"x": -1.4895664242,
				"y": 0.3508597345,
				"z": 2.8383159891,
				"element": "O" 
			},
			{
				"x": 0.0641777626,
				"y": -0.9002262313,
				"z": 1.7565122622,
				"element": "N" 
			},
			{
				"x": 0.7100914402,
				"y": -1.5360086988,
				"z": 0.5995819614,
				"element": "C" 
			},
			{
				"x": 2.2074970746,
				"y": -1.7760017748,
				"z": 0.8984189057,
				"element": "C" 
			},
			{
				"x": 2.299749173,
				"y": -3.1793043809,
				"z": 1.5691588906,
				"element": "C" 
			},
			{
				"x": 0.888905464,
				"y": -3.8140809254,
				"z": 1.4227676793,
				"element": "C" 
			},
			{
				"x": 0.1846614668,
				"y": -2.966395636,
				"z": 0.3476934977,
				"element": "C" 
			},
			{
				"x": -0.3787635328,
				"y": 1.1674837601,
				"z": -1.3038238074,
				"element": "N" 
			},
			{
				"x": 0.0864442892,
				"y": 2.3851156863,
				"z": -1.5975154087,
				"element": "C" 
			},
			{
				"x": -0.208213829,
				"y": 5.1849864988,
				"z": 0.195893207,
				"element": "H" 
			},
			{
				"x": 0.7677314281,
				"y": 4.9757018079,
				"z": -1.1199604454,
				"element": "H" 
			},
			{
				"x": -1.6842028423,
				"y": 2.9401490947,
				"z": 1.1098270698,
				"element": "H" 
			},
			{
				"x": -2.7832179239,
				"y": 0.4390828408,
				"z": 0.702114929,
				"element": "H" 
			},
			{
				"x": -1.7210754887,
				"y": -0.6206602841,
				"z": -0.2565601402,
				"element": "H" 
			},
			{
				"x": 0.4691833647,
				"y": -1.048143382,
				"z": 2.6728134863,
				"element": "H" 
			},
			{
				"x": 0.5777182508,
				"y": -0.8814962815,
				"z": -0.2644071177,
				"element": "H" 
			},
			{
				"x": 2.753742532,
				"y": -1.7725077554,
				"z": -0.0497019517,
				"element": "H" 
			},
			{
				"x": 2.6306444574,
				"y": -0.972373612,
				"z": 1.5085865574,
				"element": "H" 
			},
			{
				"x": 2.5978952473,
				"y": -3.1111909476,
				"z": 2.6201685666,
				"element": "H" 
			},
			{
				"x": 3.0603245772,
				"y": -3.7892819239,
				"z": 1.0723223251,
				"element": "H" 
			},
			{
				"x": 0.3383336303,
				"y": -3.7377831445,
				"z": 2.3671988891,
				"element": "H" 
			},
			{
				"x": 0.9280357231,
				"y": -4.87605538,
				"z": 1.1641085251,
				"element": "H" 
			},
			{
				"x": 0.4973166186,
				"y": -3.2829166992,
				"z": -0.65552363,
				"element": "H" 
			},
			{
				"x": -0.9070655968,
				"y": -3.0311051191,
				"z": 0.3905647896,
				"element": "H" 
			},
			{
				"x": 0.7119550785,
				"y": 2.5292068725,
				"z": -2.468873432,
				"element": "H" 
			}
		],
		 "valence_orbital": [ 
			{
				"type": "occ",
				"energy": -0.28495,
				"method": "rhf"
			},
			{
				"type": "occ",
				"energy": -0.25431,
				"method": "rhf"
			},
			{
				"type": "occ",
				"energy": -0.24597,
				"method": "rhf"
			},
			{
				"type": "occ",
				"energy": -0.23616,
				"method": "rhf"
			},
			{
				"type": "occ",
				"energy": -0.19359,
				"method": "rhf"
			},
			{
				"type": "unocc",
				"energy": 0.01113,
				"method": "rhf"
			},
			{
				"type": "unocc",
				"energy": 0.02988,
				"method": "rhf"
			},
			{
				"type": "unocc",
				"energy": 0.06608,
				"method": "rhf"
			},
			{
				"type": "unocc",
				"energy": 0.07499,
				"method": "rhf"
			},
			{
				"type": "unocc",
				"energy": 0.08767,
				"method": "rhf"
			}
		],
		"cosmo_sigma_profile": { 
			"-0.025": 0.0,
			"-0.024": 0.0,
			"-0.023": 0.0,
			"-0.022": 0.0,
			"-0.021": 0.0,
			"-0.02": 0.0,
			"-0.019": 0.0,
			"-0.018": 0.0,
			"-0.017": 0.0,
			"-0.016": 0.0,
			"-0.015": 0.0,
			"-0.014": 0.0,
			"-0.013": 0.332988518781,
			"-0.012": 2.31508905458,
			"-0.011": 4.00208994606,
			"-0.01": 3.44048528845,
			"-0.009": 3.9501798444,
			"-0.008": 5.96021260896,
			"-0.007": 8.21391469058,
			"-0.006": 11.6985449641,
			"-0.005": 12.2665190318,
			"-0.004": 14.4105069492,
			"-0.003": 23.7544525375,
			"-0.002": 24.3072601941,
			"-0.001": 24.0834376434,
			"0.0": 22.549193672,
			"0.001": 22.1060577346,
			"0.002": 11.5239098017,
			"0.003": 7.75830820699,
			"0.004": 7.09568566638,
			"0.005": 8.60821987035,
			"0.006": 7.37093447707,
			"0.007": 5.23723001144,
			"0.008": 4.02946404244,
			"0.009": 2.61558129824,
			"0.01": 2.81960469228,
			"0.011": 3.00037216483,
			"0.012": 3.71434737113,
			"0.013": 5.21933233619,
			"0.014": 6.13458403802,
			"0.015": 2.13737073801,
			"0.016": 0.765908486809,
			"0.017": 0.122353622545,
			"0.018": 0.0,
			"0.019": 0.0,
			"0.02": 0.0,
			"0.021": 0.0,
			"0.022": 0.0,
			"0.023": 0.0,
			"0.024": 0.0,
			"0.025": 0.0
		}
	}
}
