{
	 "smiles": "CC1=NN(C2=C1C(C)=CC(C)=N2)C1=CC=C(N)C=C1", 
	 "Tm": 378.15, 
	 "num_atms": 35, 
	 "gaussian": { 
		 "optdone": 1, 
		 "sigma_profile": "yes", 
		 "theory": "DFT", 
		 "functional": "B3LYP", 
		 "basiset": "6-31G**", 
		 "properties": { 
			 "R2extent": 6093.191, 
			 "electric_dipole_moment_norm": 1.76816764759, 
			 "electric_quadrupole_moment_norm": 24.3048301634, 
			 "total_energy": -800.264262874, 
			 "HOMO_LUMO_gap": 0.14461, 
			 "cosmo_polarized_energy": -13.58, 
			 "cosmo_cavitation_energy": 38.08, 
			 "cosmo_dispersion_energy": -27.6, 
			 "cosmo_repulsion_energy": 2.11, 
			 "cosmo_total_nonelectrostatic_energy": 12.59, 
			 "SMD_solvation_energy": 4.77 
		},
		"coords": [
			{
				"x": 1.2490627211,
				"y": 2.2658949126,
				"z": -2.7543877877,
				"element": "C" 
			},
			{
				"x": 0.784567277,
				"y": 1.2098407101,
				"z": -1.7987191709,
				"element": "C" 
			},
			{
				"x": 0.1998633683,
				"y": 1.5605097257,
				"z": -0.6672736666,
				"element": "N" 
			},
			{
				"x": -0.123422876,
				"y": 0.4179218235,
				"z": 0.0154170316,
				"element": "N" 
			},
			{
				"x": 0.2664090046,
				"y": -0.6920745851,
				"z": -0.7011848652,
				"element": "C" 
			},
			{
				"x": 0.8647118816,
				"y": -0.2165505185,
				"z": -1.8949591678,
				"element": "C" 
			},
			{
				"x": 1.3538709316,
				"y": -1.1685590391,
				"z": -2.8142397881,
				"element": "C" 
			},
			{
				"x": 2.0080812785,
				"y": -0.7794801366,
				"z": -4.114516961,
				"element": "C" 
			},
			{
				"x": 1.1960875275,
				"y": -2.4993184705,
				"z": -2.4483475583,
				"element": "C" 
			},
			{
				"x": 0.5808359678,
				"y": -2.8676257278,
				"z": -1.225357141,
				"element": "C" 
			},
			{
				"x": 0.4296835792,
				"y": -4.3258303377,
				"z": -0.8677361994,
				"element": "C" 
			},
			{
				"x": 0.1146405641,
				"y": -1.9776384011,
				"z": -0.3480311341,
				"element": "N" 
			},
			{
				"x": -0.7732290339,
				"y": 0.5302001601,
				"z": 1.278710184,
				"element": "C" 
			},
			{
				"x": -1.1216606077,
				"y": -0.5994773061,
				"z": 2.0301627358,
				"element": "C" 
			},
			{
				"x": -1.752865399,
				"y": -0.4488572056,
				"z": 3.2618891623,
				"element": "C" 
			},
			{
				"x": -2.0543845912,
				"y": 0.8200203564,
				"z": 3.77921028,
				"element": "C" 
			},
			{
				"x": -2.7413259116,
				"y": 0.9622915845,
				"z": 4.990689138,
				"element": "N" 
			},
			{
				"x": -1.6992457197,
				"y": 1.943073054,
				"z": 3.0137302205,
				"element": "C" 
			},
			{
				"x": -1.0689294101,
				"y": 1.8037964764,
				"z": 1.7831893349,
				"element": "C" 
			},
			{
				"x": 2.3300140853,
				"y": 2.2108566524,
				"z": -2.9254754394,
				"element": "H" 
			},
			{
				"x": 0.758914818,
				"y": 2.1735652831,
				"z": -3.7300363788,
				"element": "H" 
			},
			{
				"x": 1.0157115459,
				"y": 3.2508115748,
				"z": -2.3443280165,
				"element": "H" 
			},
			{
				"x": 1.3271422575,
				"y": -0.1940305924,
				"z": -4.7419403199,
				"element": "H" 
			},
			{
				"x": 2.3144867617,
				"y": -1.6629334004,
				"z": -4.6801801842,
				"element": "H" 
			},
			{
				"x": 2.896181958,
				"y": -0.1614576387,
				"z": -3.9428681982,
				"element": "H" 
			},
			{
				"x": 1.550512398,
				"y": -3.2842234352,
				"z": -3.1108374634,
				"element": "H" 
			},
			{
				"x": 1.4047376348,
				"y": -4.8244384755,
				"z": -0.820225436,
				"element": "H" 
			},
			{
				"x": -0.16736181,
				"y": -4.8569057204,
				"z": -1.6181284904,
				"element": "H" 
			},
			{
				"x": -0.0608249644,
				"y": -4.4217227179,
				"z": 0.1020452656,
				"element": "H" 
			},
			{
				"x": -0.8955650988,
				"y": -1.5859619736,
				"z": 1.6487042606,
				"element": "H" 
			},
			{
				"x": -2.0200969169,
				"y": -1.336399917,
				"z": 3.830616584,
				"element": "H" 
			},
			{
				"x": -2.6338952699,
				"y": 0.185647149,
				"z": 5.6293076131,
				"element": "H" 
			},
			{
				"x": -2.5913218421,
				"y": 1.8460865928,
				"z": 5.4586518024,
				"element": "H" 
			},
			{
				"x": -1.9243420097,
				"y": 2.9395374427,
				"z": 3.3864142636,
				"element": "H" 
			},
			{
				"x": -0.7978440995,
				"y": 2.6765321011,
				"z": 1.2033354905,
				"element": "H" 
			}
		],
		 "valence_orbital": [ 
			{
				"type": "occ",
				"energy": -0.25549,
				"method": "rhf"
			},
			{
				"type": "occ",
				"energy": -0.24017,
				"method": "rhf"
			},
			{
				"type": "occ",
				"energy": -0.23747,
				"method": "rhf"
			},
			{
				"type": "occ",
				"energy": -0.23311,
				"method": "rhf"
			},
			{
				"type": "occ",
				"energy": -0.17893,
				"method": "rhf"
			},
			{
				"type": "unocc",
				"energy": -0.03432,
				"method": "rhf"
			},
			{
				"type": "unocc",
				"energy": -4e-05,
				"method": "rhf"
			},
			{
				"type": "unocc",
				"energy": 0.01029,
				"method": "rhf"
			},
			{
				"type": "unocc",
				"energy": 0.0359,
				"method": "rhf"
			},
			{
				"type": "unocc",
				"energy": 0.06718,
				"method": "rhf"
			}
		],
		"cosmo_sigma_profile": { 
			"-0.025": 0.0,
			"-0.024": 0.0,
			"-0.023": 0.0,
			"-0.022": 0.0,
			"-0.021": 0.0,
			"-0.02": 0.0,
			"-0.019": 0.0,
			"-0.018": 0.0,
			"-0.017": 0.0,
			"-0.016": 0.0,
			"-0.015": 0.0,
			"-0.014": 0.0,
			"-0.013": 0.126235248646,
			"-0.012": 2.27535183267,
			"-0.011": 2.63919871759,
			"-0.01": 3.01081648298,
			"-0.009": 2.8223428426,
			"-0.008": 3.72232620114,
			"-0.007": 3.05938009161,
			"-0.006": 5.86139363369,
			"-0.005": 18.4200000363,
			"-0.004": 26.4801763745,
			"-0.003": 26.2079316408,
			"-0.002": 23.3762376116,
			"-0.001": 28.4876052768,
			"0.0": 23.7669211196,
			"0.001": 20.0341001639,
			"0.002": 23.6603773311,
			"0.003": 19.7171454647,
			"0.004": 17.5629885659,
			"0.005": 14.6985306151,
			"0.006": 15.897550368,
			"0.007": 6.64205014252,
			"0.008": 3.85621865223,
			"0.009": 2.80940206661,
			"0.01": 3.10150905069,
			"0.011": 1.84670839683,
			"0.012": 0.836861891558,
			"0.013": 0.261308206162,
			"0.014": 0.885936415247,
			"0.015": 0.389561441871,
			"0.016": 0.0,
			"0.017": 0.0,
			"0.018": 0.0,
			"0.019": 0.0,
			"0.02": 0.0,
			"0.021": 0.0,
			"0.022": 0.0,
			"0.023": 0.0,
			"0.024": 0.0,
			"0.025": 0.0
		}
	}
}
