{
	 "smiles": "CC1=NC2=C(C=CC=C2)C2=C(N)C3=C(C=CC=C3)N12", 
	 "Tm": 474.15, 
	 "num_atms": 32, 
	 "gaussian": { 
		 "optdone": 1, 
		 "sigma_profile": "yes", 
		 "theory": "DFT", 
		 "functional": "B3LYP", 
		 "basiset": "6-31G**", 
		 "properties": { 
			 "R2extent": 5137.9813, 
			 "electric_dipole_moment_norm": 2.1281074174, 
			 "electric_quadrupole_moment_norm": 13.2660598303, 
			 "total_energy": -781.815284152, 
			 "HOMO_LUMO_gap": 0.13927, 
			 "cosmo_polarized_energy": -12.71, 
			 "cosmo_cavitation_energy": 34.23, 
			 "cosmo_dispersion_energy": -25.71, 
			 "cosmo_repulsion_energy": 1.9, 
			 "cosmo_total_nonelectrostatic_energy": 10.41, 
			 "SMD_solvation_energy": 3.83 
		},
		"coords": [
			{
				"x": -1.7654735967,
				"y": -0.2203161072,
				"z": -2.5526372207,
				"element": "C" 
			},
			{
				"x": -1.5958629316,
				"y": 0.0703858988,
				"z": -1.0887677827,
				"element": "C" 
			},
			{
				"x": -2.4316347183,
				"y": 0.8842314205,
				"z": -0.5318453407,
				"element": "N" 
			},
			{
				"x": -2.3067264365,
				"y": 1.2031099904,
				"z": 0.8173818656,
				"element": "C" 
			},
			{
				"x": -1.2963886634,
				"y": 0.6369450489,
				"z": 1.6368844588,
				"element": "C" 
			},
			{
				"x": -1.2044924971,
				"y": 1.0377077893,
				"z": 2.9846531687,
				"element": "C" 
			},
			{
				"x": -2.1060448372,
				"y": 1.958335829,
				"z": 3.5066794175,
				"element": "C" 
			},
			{
				"x": -3.1177343408,
				"y": 2.4986404998,
				"z": 2.7004875089,
				"element": "C" 
			},
			{
				"x": -3.2121529402,
				"y": 2.1251190756,
				"z": 1.3655885166,
				"element": "C" 
			},
			{
				"x": -0.4086080537,
				"y": -0.3123067409,
				"z": 1.01531195,
				"element": "C" 
			},
			{
				"x": 0.6206472602,
				"y": -1.0991341441,
				"z": 1.4900717274,
				"element": "C" 
			},
			{
				"x": 1.0787557576,
				"y": -1.1658138965,
				"z": 2.8216067609,
				"element": "N" 
			},
			{
				"x": 1.1643085128,
				"y": -1.8144401384,
				"z": 0.3742682655,
				"element": "C" 
			},
			{
				"x": 0.4277370879,
				"y": -1.4506951358,
				"z": -0.7887012154,
				"element": "C" 
			},
			{
				"x": 0.7553553452,
				"y": -1.9970479568,
				"z": -2.0383586025,
				"element": "C" 
			},
			{
				"x": 1.8096652642,
				"y": -2.9020811955,
				"z": -2.108246527,
				"element": "C" 
			},
			{
				"x": 2.5380466638,
				"y": -3.2730169824,
				"z": -0.962219157,
				"element": "C" 
			},
			{
				"x": 2.2226207759,
				"y": -2.7350815231,
				"z": 0.2757963494,
				"element": "C" 
			},
			{
				"x": -0.5574605097,
				"y": -0.5403888573,
				"z": -0.3860157859,
				"element": "N" 
			},
			{
				"x": -1.9120286003,
				"y": -1.2892260302,
				"z": -2.7386246533,
				"element": "H" 
			},
			{
				"x": -0.8958888675,
				"y": 0.1083998643,
				"z": -3.1315225403,
				"element": "H" 
			},
			{
				"x": -2.6438011992,
				"y": 0.3266597911,
				"z": -2.8929244437,
				"element": "H" 
			},
			{
				"x": -0.4022755739,
				"y": 0.6526361742,
				"z": 3.6031664905,
				"element": "H" 
			},
			{
				"x": -2.0198696379,
				"y": 2.2618976876,
				"z": 4.546015351,
				"element": "H" 
			},
			{
				"x": -3.8223828767,
				"y": 3.2127839976,
				"z": 3.1163156825,
				"element": "H" 
			},
			{
				"x": -3.9753741618,
				"y": 2.5344948854,
				"z": 0.7116765123,
				"element": "H" 
			},
			{
				"x": 1.8328841841,
				"y": -1.8342377966,
				"z": 2.926289746,
				"element": "H" 
			},
			{
				"x": 0.3409329384,
				"y": -1.4054237386,
				"z": 3.4769216036,
				"element": "H" 
			},
			{
				"x": 0.2233532913,
				"y": -1.7348171839,
				"z": -2.9411023092,
				"element": "H" 
			},
			{
				"x": 2.0734008902,
				"y": -3.3275372833,
				"z": -3.0716987147,
				"element": "H" 
			},
			{
				"x": 3.353609184,
				"y": -3.9843221568,
				"z": -1.0521422297,
				"element": "H" 
			},
			{
				"x": 2.7901832868,
				"y": -3.0219610848,
				"z": 1.1574911474,
				"element": "H" 
			}
		],
		 "valence_orbital": [ 
			{
				"type": "occ",
				"energy": -0.26063,
				"method": "rhf"
			},
			{
				"type": "occ",
				"energy": -0.25649,
				"method": "rhf"
			},
			{
				"type": "occ",
				"energy": -0.24292,
				"method": "rhf"
			},
			{
				"type": "occ",
				"energy": -0.21957,
				"method": "rhf"
			},
			{
				"type": "occ",
				"energy": -0.17376,
				"method": "rhf"
			},
			{
				"type": "unocc",
				"energy": -0.03449,
				"method": "rhf"
			},
			{
				"type": "unocc",
				"energy": -0.02967,
				"method": "rhf"
			},
			{
				"type": "unocc",
				"energy": 0.01281,
				"method": "rhf"
			},
			{
				"type": "unocc",
				"energy": 0.01777,
				"method": "rhf"
			},
			{
				"type": "unocc",
				"energy": 0.05479,
				"method": "rhf"
			}
		],
		"cosmo_sigma_profile": { 
			"-0.025": 0.0,
			"-0.024": 0.0,
			"-0.023": 0.0,
			"-0.022": 0.0,
			"-0.021": 0.0,
			"-0.02": 0.0,
			"-0.019": 0.0,
			"-0.018": 0.0,
			"-0.017": 0.0,
			"-0.016": 0.0,
			"-0.015": 0.0,
			"-0.014": 0.0,
			"-0.013": 0.0,
			"-0.012": 1.30350914926,
			"-0.011": 3.20462738565,
			"-0.01": 2.89908471506,
			"-0.009": 3.44583028295,
			"-0.008": 2.78802987033,
			"-0.007": 5.16241216027,
			"-0.006": 13.5394157557,
			"-0.005": 21.034343658,
			"-0.004": 21.1679679516,
			"-0.003": 20.7947764423,
			"-0.002": 19.0329426567,
			"-0.001": 18.911562127,
			"0.0": 13.0314994624,
			"0.001": 15.3748343034,
			"0.002": 17.7309651163,
			"0.003": 19.6047504444,
			"0.004": 25.3745032105,
			"0.005": 22.2392940285,
			"0.006": 12.4120652474,
			"0.007": 2.51956896123,
			"0.008": 2.2435002776,
			"0.009": 2.28934251482,
			"0.01": 1.83365119446,
			"0.011": 1.66759470125,
			"0.012": 1.8684431137,
			"0.013": 1.16390593292,
			"0.014": 0.931951052874,
			"0.015": 1.02343920327,
			"0.016": 0.0782527171788,
			"0.017": 0.0,
			"0.018": 0.0,
			"0.019": 0.0,
			"0.02": 0.0,
			"0.021": 0.0,
			"0.022": 0.0,
			"0.023": 0.0,
			"0.024": 0.0,
			"0.025": 0.0
		}
	}
}
