{
	 "smiles": "CN1CSC(=S)N(C)C1", 
	 "Tm": 379.15, 
	 "num_atms": 19, 
	 "gaussian": { 
		 "optdone": 1, 
		 "sigma_profile": "yes", 
		 "theory": "DFT", 
		 "functional": "B3LYP", 
		 "basiset": "6-31G**", 
		 "properties": { 
			 "R2extent": 2145.2183, 
			 "electric_dipole_moment_norm": 5.92407853594, 
			 "electric_quadrupole_moment_norm": 20.4022455306, 
			 "total_energy": -1102.4216896, 
			 "HOMO_LUMO_gap": 0.17778, 
			 "cosmo_polarized_energy": -16.1, 
			 "cosmo_cavitation_energy": 23.78, 
			 "cosmo_dispersion_energy": -18.47, 
			 "cosmo_repulsion_energy": 1.4, 
			 "cosmo_total_nonelectrostatic_energy": 6.71, 
			 "SMD_solvation_energy": 0.41 
		},
		"coords": [
			{
				"x": -2.2032524251,
				"y": 1.116147849,
				"z": -0.1322514771,
				"element": "C" 
			},
			{
				"x": -1.6611854543,
				"y": -0.2426154708,
				"z": -0.1951079326,
				"element": "N" 
			},
			{
				"x": -2.0467230683,
				"y": -1.1047653932,
				"z": 0.8858590156,
				"element": "C" 
			},
			{
				"x": -1.184972563,
				"y": -0.6928114508,
				"z": 2.5096266629,
				"element": "S" 
			},
			{
				"x": 0.3469740125,
				"y": 0.0494419891,
				"z": 1.9827090775,
				"element": "C" 
			},
			{
				"x": 1.3731132923,
				"y": 0.5173997379,
				"z": 3.2163227167,
				"element": "S" 
			},
			{
				"x": 0.600667166,
				"y": 0.2403729298,
				"z": 0.6645066707,
				"element": "N" 
			},
			{
				"x": 1.8836361246,
				"y": 0.8299237294,
				"z": 0.2725077915,
				"element": "C" 
			},
			{
				"x": -0.2471470461,
				"y": -0.311686863,
				"z": -0.4306765879,
				"element": "C" 
			},
			{
				"x": -1.8463554321,
				"y": 1.6950740159,
				"z": 0.7310062697,
				"element": "H" 
			},
			{
				"x": -3.2942649183,
				"y": 1.0604636464,
				"z": -0.0854559768,
				"element": "H" 
			},
			{
				"x": -1.9299996146,
				"y": 1.6490801247,
				"z": -1.0475630879,
				"element": "H" 
			},
			{
				"x": -3.1172291314,
				"y": -1.0213558853,
				"z": 1.0860598002,
				"element": "H" 
			},
			{
				"x": -1.8111720544,
				"y": -2.1416239557,
				"z": 0.6341156441,
				"element": "H" 
			},
			{
				"x": 2.0359952338,
				"y": 1.779242462,
				"z": 0.7901301644,
				"element": "H" 
			},
			{
				"x": 2.7192136044,
				"y": 0.1715132308,
				"z": 0.5316404795,
				"element": "H" 
			},
			{
				"x": 1.8731146607,
				"y": 0.995559087,
				"z": -0.8070927487,
				"element": "H" 
			},
			{
				"x": 0.0274918658,
				"y": -1.3602875633,
				"z": -0.6074171602,
				"element": "H" 
			},
			{
				"x": -0.0037042527,
				"y": 0.2604277803,
				"z": -1.3287193214,
				"element": "H" 
			}
		],
		 "valence_orbital": [ 
			{
				"type": "occ",
				"energy": -0.34352,
				"method": "rhf"
			},
			{
				"type": "occ",
				"energy": -0.25205,
				"method": "rhf"
			},
			{
				"type": "occ",
				"energy": -0.24668,
				"method": "rhf"
			},
			{
				"type": "occ",
				"energy": -0.21614,
				"method": "rhf"
			},
			{
				"type": "occ",
				"energy": -0.2046,
				"method": "rhf"
			},
			{
				"type": "unocc",
				"energy": -0.02682,
				"method": "rhf"
			},
			{
				"type": "unocc",
				"energy": 0.02812,
				"method": "rhf"
			},
			{
				"type": "unocc",
				"energy": 0.04527,
				"method": "rhf"
			},
			{
				"type": "unocc",
				"energy": 0.07069,
				"method": "rhf"
			},
			{
				"type": "unocc",
				"energy": 0.09634,
				"method": "rhf"
			}
		],
		"cosmo_sigma_profile": { 
			"-0.025": 0.0,
			"-0.024": 0.0,
			"-0.023": 0.0,
			"-0.022": 0.0,
			"-0.021": 0.0,
			"-0.02": 0.0,
			"-0.019": 0.0,
			"-0.018": 0.0,
			"-0.017": 0.0,
			"-0.016": 0.0,
			"-0.015": 0.0,
			"-0.014": 0.0,
			"-0.013": 0.0,
			"-0.012": 0.0,
			"-0.011": 0.0,
			"-0.01": 0.0,
			"-0.009": 1.9044044246,
			"-0.008": 8.34647976342,
			"-0.007": 12.9326342021,
			"-0.006": 12.0561886408,
			"-0.005": 16.2819048698,
			"-0.004": 15.292201712,
			"-0.003": 16.614812679,
			"-0.002": 16.0333123114,
			"-0.001": 12.0402436255,
			"0.0": 5.49446736781,
			"0.001": 4.80718283319,
			"0.002": 4.39617267418,
			"0.003": 5.7472874117,
			"0.004": 5.85675495774,
			"0.005": 7.08999649926,
			"0.006": 7.6289277272,
			"0.007": 9.36487550382,
			"0.008": 7.75475666782,
			"0.009": 8.03540243278,
			"0.01": 8.38594381433,
			"0.011": 3.50189046325,
			"0.012": 1.81452611623,
			"0.013": 0.103153726105,
			"0.014": 0.0,
			"0.015": 0.0,
			"0.016": 0.0,
			"0.017": 0.0,
			"0.018": 0.0,
			"0.019": 0.0,
			"0.02": 0.0,
			"0.021": 0.0,
			"0.022": 0.0,
			"0.023": 0.0,
			"0.024": 0.0,
			"0.025": 0.0
		}
	}
}
