{
	 "smiles": "FC(F)(F)C1=CC(Cl)=C(C=C1)C#N", 
	 "Tm": 356.15, 
	 "num_atms": 16, 
	 "gaussian": { 
		 "optdone": 1, 
		 "sigma_profile": "yes", 
		 "theory": "DFT", 
		 "functional": "B3LYP", 
		 "basiset": "6-31G**", 
		 "properties": { 
			 "R2extent": 4132.0293, 
			 "electric_dipole_moment_norm": 2.73966584276, 
			 "electric_quadrupole_moment_norm": 17.6366601356, 
			 "total_energy": -1121.10778056, 
			 "HOMO_LUMO_gap": 0.19773, 
			 "cosmo_polarized_energy": -8.47, 
			 "cosmo_cavitation_energy": 25.34, 
			 "cosmo_dispersion_energy": -17.56, 
			 "cosmo_repulsion_energy": 1.33, 
			 "cosmo_total_nonelectrostatic_energy": 9.12, 
			 "SMD_solvation_energy": 6.59 
		},
		"coords": [
			{
				"x": 2.3823626871,
				"y": -0.8339705964,
				"z": -1.0116955688,
				"element": "F" 
			},
			{
				"x": 1.8269660336,
				"y": -1.7063273401,
				"z": -0.1432630757,
				"element": "C" 
			},
			{
				"x": 2.8317484761,
				"y": -2.2717023972,
				"z": 0.5556972016,
				"element": "F" 
			},
			{
				"x": 1.2352768199,
				"y": -2.6735573611,
				"z": -0.8741686279,
				"element": "F" 
			},
			{
				"x": 0.8351004411,
				"y": -1.0152942891,
				"z": 0.7607279606,
				"element": "C" 
			},
			{
				"x": 1.2518241218,
				"y": -0.5369296117,
				"z": 2.0029852469,
				"element": "C" 
			},
			{
				"x": 0.3497651173,
				"y": 0.1464995822,
				"z": 2.8143923657,
				"element": "C" 
			},
			{
				"x": 0.8816387224,
				"y": 0.7346626098,
				"z": 4.3657877958,
				"element": "Cl" 
			},
			{
				"x": -0.9758850086,
				"y": 0.3571031892,
				"z": 2.3892876731,
				"element": "C" 
			},
			{
				"x": -1.3754008785,
				"y": -0.1354103196,
				"z": 1.1338854808,
				"element": "C" 
			},
			{
				"x": -0.4775248171,
				"y": -0.8175611549,
				"z": 0.3231811759,
				"element": "C" 
			},
			{
				"x": -1.9253915289,
				"y": 1.0547822682,
				"z": 3.2034889302,
				"element": "C" 
			},
			{
				"x": -2.7248666996,
				"y": 1.6156933149,
				"z": 3.8342310891,
				"element": "N" 
			},
			{
				"x": 2.2670318056,
				"y": -0.6998067525,
				"z": 2.3431648931,
				"element": "H" 
			},
			{
				"x": -2.3982015784,
				"y": 0.0242690798,
				"z": 0.811121171,
				"element": "H" 
			},
			{
				"x": -0.7934437138,
				"y": -1.2023502216,
				"z": -0.6396237113,
				"element": "H" 
			}
		],
		 "valence_orbital": [ 
			{
				"type": "occ",
				"energy": -0.36479,
				"method": "rhf"
			},
			{
				"type": "occ",
				"energy": -0.35092,
				"method": "rhf"
			},
			{
				"type": "occ",
				"energy": -0.33732,
				"method": "rhf"
			},
			{
				"type": "occ",
				"energy": -0.29651,
				"method": "rhf"
			},
			{
				"type": "occ",
				"energy": -0.28194,
				"method": "rhf"
			},
			{
				"type": "unocc",
				"energy": -0.08421,
				"method": "rhf"
			},
			{
				"type": "unocc",
				"energy": -0.05193,
				"method": "rhf"
			},
			{
				"type": "unocc",
				"energy": 0.00215,
				"method": "rhf"
			},
			{
				"type": "unocc",
				"energy": 0.01935,
				"method": "rhf"
			},
			{
				"type": "unocc",
				"energy": 0.04308,
				"method": "rhf"
			}
		],
		"cosmo_sigma_profile": { 
			"-0.025": 0.0,
			"-0.024": 0.0,
			"-0.023": 0.0,
			"-0.022": 0.0,
			"-0.021": 0.0,
			"-0.02": 0.0,
			"-0.019": 0.0,
			"-0.018": 0.0,
			"-0.017": 0.0,
			"-0.016": 0.0,
			"-0.015": 0.0,
			"-0.014": 0.0,
			"-0.013": 0.0,
			"-0.012": 0.0,
			"-0.011": 0.0,
			"-0.01": 0.651906692202,
			"-0.009": 4.63078803829,
			"-0.008": 5.67741202302,
			"-0.007": 6.72872152033,
			"-0.006": 5.69759035996,
			"-0.005": 5.50020445208,
			"-0.004": 9.46677680034,
			"-0.003": 15.3836988832,
			"-0.002": 19.513983452,
			"-0.001": 22.8045605226,
			"0.0": 15.8579724663,
			"0.001": 15.8909243882,
			"0.002": 33.9337204032,
			"0.003": 21.0078515721,
			"0.004": 2.72482739077,
			"0.005": 3.00041689463,
			"0.006": 2.99044821662,
			"0.007": 3.18995701815,
			"0.008": 3.51223707493,
			"0.009": 3.02979675894,
			"0.01": 2.80355097969,
			"0.011": 2.24998210525,
			"0.012": 1.8076446014,
			"0.013": 0.154234806667,
			"0.014": 0.0,
			"0.015": 0.0,
			"0.016": 0.0,
			"0.017": 0.0,
			"0.018": 0.0,
			"0.019": 0.0,
			"0.02": 0.0,
			"0.021": 0.0,
			"0.022": 0.0,
			"0.023": 0.0,
			"0.024": 0.0,
			"0.025": 0.0
		}
	}
}
