{
	 "smiles": "CS(=O)(=O)NC1=CC(Br)=CC=C1", 
	 "Tm": 387.15, 
	 "num_atms": 20, 
	 "gaussian": { 
		 "optdone": 1, 
		 "sigma_profile": "yes", 
		 "theory": "DFT", 
		 "functional": "B3LYP", 
		 "basiset": "6-31G**", 
		 "properties": { 
			 "R2extent": 5201.6084, 
			 "electric_dipole_moment_norm": 3.41207398806, 
			 "electric_quadrupole_moment_norm": 17.1015200947, 
			 "total_energy": -3446.29087741, 
			 "HOMO_LUMO_gap": 0.21525, 
			 "cosmo_polarized_energy": -15.85, 
			 "cosmo_cavitation_energy": 27.76, 
			 "cosmo_dispersion_energy": -21.12, 
			 "cosmo_repulsion_energy": 1.64, 
			 "cosmo_total_nonelectrostatic_energy": 8.27, 
			 "SMD_solvation_energy": 3.26 
		},
		"coords": [
			{
				"x": 1.7188363069,
				"y": -1.0654579904,
				"z": -1.0322440322,
				"element": "C" 
			},
			{
				"x": 0.1088291832,
				"y": -1.8526899639,
				"z": -0.8151928697,
				"element": "S" 
			},
			{
				"x": 0.1091240641,
				"y": -2.4823344461,
				"z": 0.5034048612,
				"element": "O" 
			},
			{
				"x": -0.2200649261,
				"y": -2.5955145885,
				"z": -2.0299141389,
				"element": "O" 
			},
			{
				"x": -1.0057365897,
				"y": -0.5767603899,
				"z": -0.7988011784,
				"element": "N" 
			},
			{
				"x": -0.9710728198,
				"y": 0.5210525159,
				"z": 0.0957528321,
				"element": "C" 
			},
			{
				"x": -1.2387506435,
				"y": 1.8026109054,
				"z": -0.4085316212,
				"element": "C" 
			},
			{
				"x": -1.2573748686,
				"y": 2.8878768745,
				"z": 0.4623579904,
				"element": "C" 
			},
			{
				"x": -1.6397661703,
				"y": 4.6247985427,
				"z": -0.2375213149,
				"element": "Br" 
			},
			{
				"x": -0.9903861556,
				"y": 2.7394346705,
				"z": 1.821465419,
				"element": "C" 
			},
			{
				"x": -0.7153522208,
				"y": 1.4590373743,
				"z": 2.3047517782,
				"element": "C" 
			},
			{
				"x": -0.7155442261,
				"y": 0.3471152721,
				"z": 1.4643044229,
				"element": "C" 
			},
			{
				"x": 1.7469937167,
				"y": -0.5775025277,
				"z": -2.0071662565,
				"element": "H" 
			},
			{
				"x": 2.4670285251,
				"y": -1.8581500224,
				"z": -0.9795720953,
				"element": "H" 
			},
			{
				"x": 1.8724169244,
				"y": -0.3469387674,
				"z": -0.2257961211,
				"element": "H" 
			},
			{
				"x": -1.3294939988,
				"y": -0.3816686756,
				"z": -1.7397384889,
				"element": "H" 
			},
			{
				"x": -1.4330222607,
				"y": 1.9496197207,
				"z": -1.4658078151,
				"element": "H" 
			},
			{
				"x": -1.0029846518,
				"y": 3.5980927455,
				"z": 2.4818602916,
				"element": "H" 
			},
			{
				"x": -0.5156920875,
				"y": 1.3225174182,
				"z": 3.3633863094,
				"element": "H" 
			},
			{
				"x": -0.534787101,
				"y": -0.6467386678,
				"z": 1.8545020274,
				"element": "H" 
			}
		],
		 "valence_orbital": [ 
			{
				"type": "occ",
				"energy": -0.31527,
				"method": "rhf"
			},
			{
				"type": "occ",
				"energy": -0.3078,
				"method": "rhf"
			},
			{
				"type": "occ",
				"energy": -0.29603,
				"method": "rhf"
			},
			{
				"type": "occ",
				"energy": -0.26044,
				"method": "rhf"
			},
			{
				"type": "occ",
				"energy": -0.2424,
				"method": "rhf"
			},
			{
				"type": "unocc",
				"energy": -0.02715,
				"method": "rhf"
			},
			{
				"type": "unocc",
				"energy": -0.02459,
				"method": "rhf"
			},
			{
				"type": "unocc",
				"energy": -0.00389,
				"method": "rhf"
			},
			{
				"type": "unocc",
				"energy": 0.05097,
				"method": "rhf"
			},
			{
				"type": "unocc",
				"energy": 0.06345,
				"method": "rhf"
			}
		],
		"cosmo_sigma_profile": { 
			"-0.025": 0.0,
			"-0.024": 0.0,
			"-0.023": 0.0,
			"-0.022": 0.0,
			"-0.021": 0.0,
			"-0.02": 0.0,
			"-0.019": 0.0,
			"-0.018": 0.0,
			"-0.017": 0.0,
			"-0.016": 0.935032159087,
			"-0.015": 1.02030763481,
			"-0.014": 1.3023298649,
			"-0.013": 1.51409687026,
			"-0.012": 1.2235003243,
			"-0.011": 1.86413335204,
			"-0.01": 1.75216768488,
			"-0.009": 4.76325607491,
			"-0.008": 6.86177820977,
			"-0.007": 9.2964315563,
			"-0.006": 10.6571286709,
			"-0.005": 15.524867385,
			"-0.004": 14.1244403303,
			"-0.003": 11.0318176676,
			"-0.002": 9.52103864217,
			"-0.001": 8.66164257861,
			"0.0": 11.2564820798,
			"0.001": 13.1253471108,
			"0.002": 20.2052778572,
			"0.003": 21.6477728393,
			"0.004": 17.8279607575,
			"0.005": 7.76813757732,
			"0.006": 3.488968084,
			"0.007": 4.16729377133,
			"0.008": 3.23126827947,
			"0.009": 3.56010211393,
			"0.01": 7.54882611744,
			"0.011": 9.72330286213,
			"0.012": 1.6280469139,
			"0.013": 0.0,
			"0.014": 0.0,
			"0.015": 0.0,
			"0.016": 0.0,
			"0.017": 0.0,
			"0.018": 0.0,
			"0.019": 0.0,
			"0.02": 0.0,
			"0.021": 0.0,
			"0.022": 0.0,
			"0.023": 0.0,
			"0.024": 0.0,
			"0.025": 0.0
		}
	}
}
