{
	 "smiles": "CCCCC1=CC=C(C=C1)N=NC1=CC=C(OC(=O)CC)C=C1", 
	 "Tm": 358.65, 
	 "num_atms": 45, 
	 "gaussian": { 
		 "optdone": 1, 
		 "sigma_profile": "yes", 
		 "theory": "DFT", 
		 "functional": "B3LYP", 
		 "basiset": "6-31G**", 
		 "properties": { 
			 "R2extent": 14541.8678, 
			 "electric_dipole_moment_norm": 4.08623507645, 
			 "electric_quadrupole_moment_norm": 24.3819921776, 
			 "total_energy": -997.197080254, 
			 "HOMO_LUMO_gap": 0.1347, 
			 "cosmo_polarized_energy": -12.83, 
			 "cosmo_cavitation_energy": 49.0, 
			 "cosmo_dispersion_energy": -33.16, 
			 "cosmo_repulsion_energy": 2.6, 
			 "cosmo_total_nonelectrostatic_energy": 18.43, 
			 "SMD_solvation_energy": 6.94 
		},
		"coords": [
			{
				"x": -3.4389317947,
				"y": 1.8163110714,
				"z": -4.47937908,
				"element": "C" 
			},
			{
				"x": -1.9242349163,
				"y": 1.9920872176,
				"z": -4.3182577593,
				"element": "C" 
			},
			{
				"x": -1.1927177756,
				"y": 0.7432685416,
				"z": -3.800428693,
				"element": "C" 
			},
			{
				"x": -1.5288093623,
				"y": 0.3328427487,
				"z": -2.3472757402,
				"element": "C" 
			},
			{
				"x": -1.1024725462,
				"y": 1.3461227551,
				"z": -1.3060567571,
				"element": "C" 
			},
			{
				"x": 0.2534451593,
				"y": 1.5002689072,
				"z": -0.9729969982,
				"element": "C" 
			},
			{
				"x": 0.6690289124,
				"y": 2.4243672842,
				"z": -0.0201274436,
				"element": "C" 
			},
			{
				"x": -0.2781890832,
				"y": 3.2412788502,
				"z": 0.6178466448,
				"element": "C" 
			},
			{
				"x": -1.6275916897,
				"y": 3.1357727841,
				"z": 0.2594986241,
				"element": "C" 
			},
			{
				"x": -2.0329965684,
				"y": 2.1776574736,
				"z": -0.6671343737,
				"element": "C" 
			},
			{
				"x": 0.0697792143,
				"y": 4.3240084102,
				"z": 1.4903187055,
				"element": "N" 
			},
			{
				"x": 0.8984692136,
				"y": 4.2366431268,
				"z": 2.42267744,
				"element": "N" 
			},
			{
				"x": 1.4598008512,
				"y": 3.0015567877,
				"z": 2.886784707,
				"element": "C" 
			},
			{
				"x": 0.6875737037,
				"y": 1.8716896734,
				"z": 3.1968675488,
				"element": "C" 
			},
			{
				"x": 1.2861210149,
				"y": 0.7678768542,
				"z": 3.7951128711,
				"element": "C" 
			},
			{
				"x": 2.6547082895,
				"y": 0.779725737,
				"z": 4.0699186437,
				"element": "C" 
			},
			{
				"x": 3.1484034551,
				"y": -0.3483233238,
				"z": 4.7217750198,
				"element": "O" 
			},
			{
				"x": 4.367033099,
				"y": -0.8929309428,
				"z": 4.3969708725,
				"element": "C" 
			},
			{
				"x": 5.1052342261,
				"y": -0.4498030116,
				"z": 3.5517753042,
				"element": "O" 
			},
			{
				"x": 4.6249677874,
				"y": -2.1168661254,
				"z": 5.2499339567,
				"element": "C" 
			},
			{
				"x": 3.5992527216,
				"y": -3.2395130293,
				"z": 5.0221638631,
				"element": "C" 
			},
			{
				"x": 3.4327099807,
				"y": 1.9049969939,
				"z": 3.7880604344,
				"element": "C" 
			},
			{
				"x": 2.8201311056,
				"y": 3.0201092582,
				"z": 3.2226899089,
				"element": "C" 
			},
			{
				"x": -3.8968131149,
				"y": 2.7188623783,
				"z": -4.8970086245,
				"element": "H" 
			},
			{
				"x": -3.6714020164,
				"y": 0.9834048311,
				"z": -5.1534205533,
				"element": "H" 
			},
			{
				"x": -3.9341317053,
				"y": 1.6138649995,
				"z": -3.523700653,
				"element": "H" 
			},
			{
				"x": -1.4936969074,
				"y": 2.2635722024,
				"z": -5.2903429299,
				"element": "H" 
			},
			{
				"x": -1.7203771571,
				"y": 2.837679422,
				"z": -3.6496441554,
				"element": "H" 
			},
			{
				"x": -1.4187735087,
				"y": -0.1064132961,
				"z": -4.4589799682,
				"element": "H" 
			},
			{
				"x": -0.1102087644,
				"y": 0.908253201,
				"z": -3.8732451815,
				"element": "H" 
			},
			{
				"x": -2.6042786635,
				"y": 0.1450026028,
				"z": -2.2542240448,
				"element": "H" 
			},
			{
				"x": -1.0322231576,
				"y": -0.6236609077,
				"z": -2.140459419,
				"element": "H" 
			},
			{
				"x": 0.9973472828,
				"y": 0.8773951619,
				"z": -1.4642294167,
				"element": "H" 
			},
			{
				"x": 1.7216283422,
				"y": 2.5225617457,
				"z": 0.2216959639,
				"element": "H" 
			},
			{
				"x": -2.3457118589,
				"y": 3.8051986657,
				"z": 0.7232531249,
				"element": "H" 
			},
			{
				"x": -3.0882059818,
				"y": 2.0851057778,
				"z": -0.9111966102,
				"element": "H" 
			},
			{
				"x": -0.3749963795,
				"y": 1.8623118017,
				"z": 2.9821237342,
				"element": "H" 
			},
			{
				"x": 0.7044537826,
				"y": -0.1102907426,
				"z": 4.0553547943,
				"element": "H" 
			},
			{
				"x": 4.6030375686,
				"y": -1.8068477975,
				"z": 6.3014001244,
				"element": "H" 
			},
			{
				"x": 5.636822025,
				"y": -2.4550137614,
				"z": 5.0161849888,
				"element": "H" 
			},
			{
				"x": 3.840587043,
				"y": -4.1029322919,
				"z": 5.6485207372,
				"element": "H" 
			},
			{
				"x": 3.6019420831,
				"y": -3.5697196316,
				"z": 3.9788172023,
				"element": "H" 
			},
			{
				"x": 2.5901775939,
				"y": -2.9042526076,
				"z": 5.273360115,
				"element": "H" 
			},
			{
				"x": 4.4901621182,
				"y": 1.9124749011,
				"z": 4.0148021588,
				"element": "H" 
			},
			{
				"x": 3.3929463782,
				"y": 3.9211953033,
				"z": 3.027500913,
				"element": "H" 
			}
		],
		 "valence_orbital": [ 
			{
				"type": "occ",
				"energy": -0.26471,
				"method": "rhf"
			},
			{
				"type": "occ",
				"energy": -0.25889,
				"method": "rhf"
			},
			{
				"type": "occ",
				"energy": -0.24926,
				"method": "rhf"
			},
			{
				"type": "occ",
				"energy": -0.24738,
				"method": "rhf"
			},
			{
				"type": "occ",
				"energy": -0.20568,
				"method": "rhf"
			},
			{
				"type": "unocc",
				"energy": -0.07098,
				"method": "rhf"
			},
			{
				"type": "unocc",
				"energy": -0.01639,
				"method": "rhf"
			},
			{
				"type": "unocc",
				"energy": -0.0128,
				"method": "rhf"
			},
			{
				"type": "unocc",
				"energy": -0.00387,
				"method": "rhf"
			},
			{
				"type": "unocc",
				"energy": 0.00831,
				"method": "rhf"
			}
		],
		"cosmo_sigma_profile": { 
			"-0.025": 0.0,
			"-0.024": 0.0,
			"-0.023": 0.0,
			"-0.022": 0.0,
			"-0.021": 0.0,
			"-0.02": 0.0,
			"-0.019": 0.0,
			"-0.018": 0.0,
			"-0.017": 0.0,
			"-0.016": 0.0,
			"-0.015": 0.0,
			"-0.014": 0.0,
			"-0.013": 0.0,
			"-0.012": 0.0,
			"-0.011": 0.0,
			"-0.01": 0.0,
			"-0.009": 0.0,
			"-0.008": 0.0910803857782,
			"-0.007": 3.92596242556,
			"-0.006": 15.0639465872,
			"-0.005": 23.6381643437,
			"-0.004": 30.875897681,
			"-0.003": 36.7588780658,
			"-0.002": 42.6726721512,
			"-0.001": 41.7088844251,
			"0.0": 45.1719482621,
			"0.001": 38.1412509487,
			"0.002": 26.985762543,
			"0.003": 23.1910932462,
			"0.004": 17.2628348838,
			"0.005": 8.35833736578,
			"0.006": 3.71153166924,
			"0.007": 3.47937845674,
			"0.008": 3.83370579693,
			"0.009": 3.92558942916,
			"0.01": 3.79741677028,
			"0.011": 6.39974793253,
			"0.012": 4.65902330568,
			"0.013": 2.25626580431,
			"0.014": 1.2240175461,
			"0.015": 0.0811866882625,
			"0.016": 0.0,
			"0.017": 0.0,
			"0.018": 0.0,
			"0.019": 0.0,
			"0.02": 0.0,
			"0.021": 0.0,
			"0.022": 0.0,
			"0.023": 0.0,
			"0.024": 0.0,
			"0.025": 0.0
		}
	}
}
