{
	 "smiles": "NC1=NC=NC2=C1C=CN2C1OC(CO)C(O)C1O", 
	 "Tm": 520.15, 
	 "num_atms": 33, 
	 "gaussian": { 
		 "optdone": 1, 
		 "sigma_profile": "yes", 
		 "theory": "DFT", 
		 "functional": "B3LYP", 
		 "basiset": "6-31G**", 
		 "properties": { 
			 "R2extent": 5572.717, 
			 "electric_dipole_moment_norm": 3.22288176947, 
			 "electric_quadrupole_moment_norm": 19.8953643108, 
			 "total_energy": -947.484557751, 
			 "HOMO_LUMO_gap": 0.18817, 
			 "cosmo_polarized_energy": -25.14, 
			 "cosmo_cavitation_energy": 35.07, 
			 "cosmo_dispersion_energy": -25.67, 
			 "cosmo_repulsion_energy": 1.97, 
			 "cosmo_total_nonelectrostatic_energy": 11.37, 
			 "SMD_solvation_energy": 2.65 
		},
		"coords": [
			{
				"x": 0.8238623872,
				"y": 3.3186287559,
				"z": 3.0851654078,
				"element": "N" 
			},
			{
				"x": 1.1358479398,
				"y": 2.0452759156,
				"z": 2.6938835878,
				"element": "C" 
			},
			{
				"x": 2.1934448695,
				"y": 1.4672389989,
				"z": 3.2800851234,
				"element": "N" 
			},
			{
				"x": 2.5367639187,
				"y": 0.2271610784,
				"z": 2.8863797736,
				"element": "C" 
			},
			{
				"x": 1.9591504696,
				"y": -0.5365270607,
				"z": 1.9626790439,
				"element": "N" 
			},
			{
				"x": 0.9063906249,
				"y": 0.0661091136,
				"z": 1.3904499507,
				"element": "C" 
			},
			{
				"x": 0.4128890376,
				"y": 1.3553317575,
				"z": 1.6914740615,
				"element": "C" 
			},
			{
				"x": -0.737006559,
				"y": 1.5725673307,
				"z": 0.8657152439,
				"element": "C" 
			},
			{
				"x": -0.8981214508,
				"y": 0.4357059709,
				"z": 0.1111993255,
				"element": "C" 
			},
			{
				"x": 0.1021314906,
				"y": -0.4822222794,
				"z": 0.4200981838,
				"element": "N" 
			},
			{
				"x": 0.3608025527,
				"y": -1.7580929826,
				"z": -0.2472958966,
				"element": "C" 
			},
			{
				"x": -0.8357048727,
				"y": -2.2621921915,
				"z": -0.8040608097,
				"element": "O" 
			},
			{
				"x": -0.8802522323,
				"y": -2.0712955983,
				"z": -2.2488405514,
				"element": "C" 
			},
			{
				"x": -1.0448377871,
				"y": -3.4550743126,
				"z": -2.8767364778,
				"element": "C" 
			},
			{
				"x": -2.1527930427,
				"y": -4.1353594679,
				"z": -2.329087761,
				"element": "O" 
			},
			{
				"x": 0.413053096,
				"y": -1.3513831656,
				"z": -2.6410887689,
				"element": "C" 
			},
			{
				"x": 0.2863031255,
				"y": 0.0534303711,
				"z": -2.8489293432,
				"element": "O" 
			},
			{
				"x": 1.3534937058,
				"y": -1.6437925886,
				"z": -1.4466207437,
				"element": "C" 
			},
			{
				"x": 2.3731739053,
				"y": -0.7017302894,
				"z": -1.3097786631,
				"element": "O" 
			},
			{
				"x": -0.1050882107,
				"y": 3.6689476392,
				"z": 2.9141033877,
				"element": "H" 
			},
			{
				"x": 1.282811512,
				"y": 3.6366738506,
				"z": 3.9263510795,
				"element": "H" 
			},
			{
				"x": 3.3958703176,
				"y": -0.2028219541,
				"z": 3.3976454062,
				"element": "H" 
			},
			{
				"x": -1.390074577,
				"y": 2.433813596,
				"z": 0.8431368482,
				"element": "H" 
			},
			{
				"x": -1.710424695,
				"y": 0.1537159166,
				"z": -0.5425024644,
				"element": "H" 
			},
			{
				"x": 0.7305764981,
				"y": -2.4409274708,
				"z": 0.5205416893,
				"element": "H" 
			},
			{
				"x": -1.7627237036,
				"y": -1.4636143196,
				"z": -2.4828743021,
				"element": "H" 
			},
			{
				"x": -1.225874298,
				"y": -3.3518540348,
				"z": -3.9520741686,
				"element": "H" 
			},
			{
				"x": -0.1090484553,
				"y": -4.0260237448,
				"z": -2.7475869804,
				"element": "H" 
			},
			{
				"x": -2.0398467075,
				"y": -4.1009286825,
				"z": -1.3679481252,
				"element": "H" 
			},
			{
				"x": 0.8235731645,
				"y": -1.7376665475,
				"z": -3.5779641442,
				"element": "H" 
			},
			{
				"x": -0.1947512733,
				"y": 0.4473937759,
				"z": -2.10342076,
				"element": "H" 
			},
			{
				"x": 1.8077895573,
				"y": -2.6340644659,
				"z": -1.5745432733,
				"element": "H" 
			},
			{
				"x": 2.0596196922,
				"y": 0.0963770858,
				"z": -1.7672548795,
				"element": "H" 
			}
		],
		 "valence_orbital": [ 
			{
				"type": "occ",
				"energy": -0.27136,
				"method": "rhf"
			},
			{
				"type": "occ",
				"energy": -0.26658,
				"method": "rhf"
			},
			{
				"type": "occ",
				"energy": -0.25126,
				"method": "rhf"
			},
			{
				"type": "occ",
				"energy": -0.24578,
				"method": "rhf"
			},
			{
				"type": "occ",
				"energy": -0.21134,
				"method": "rhf"
			},
			{
				"type": "unocc",
				"energy": -0.02317,
				"method": "rhf"
			},
			{
				"type": "unocc",
				"energy": 0.00976,
				"method": "rhf"
			},
			{
				"type": "unocc",
				"energy": 0.03871,
				"method": "rhf"
			},
			{
				"type": "unocc",
				"energy": 0.06742,
				"method": "rhf"
			},
			{
				"type": "unocc",
				"energy": 0.06803,
				"method": "rhf"
			}
		],
		"cosmo_sigma_profile": { 
			"-0.025": 0.0,
			"-0.024": 0.0,
			"-0.023": 0.0,
			"-0.022": 0.0,
			"-0.021": 0.0,
			"-0.02": 0.0,
			"-0.019": 0.0,
			"-0.018": 0.0,
			"-0.017": 0.0,
			"-0.016": 0.0,
			"-0.015": 0.035919205763,
			"-0.014": 0.924678308865,
			"-0.013": 3.02394660584,
			"-0.012": 4.37191043581,
			"-0.011": 4.41142251206,
			"-0.01": 5.26145435066,
			"-0.009": 6.67988682024,
			"-0.008": 8.02283037477,
			"-0.007": 17.1269137048,
			"-0.006": 20.2034841685,
			"-0.005": 16.087559448,
			"-0.004": 14.7298710094,
			"-0.003": 13.3733585123,
			"-0.002": 11.760879467,
			"-0.001": 10.7171594296,
			"0.0": 11.8547422122,
			"0.001": 15.6218202911,
			"0.002": 15.1314787917,
			"0.003": 15.5628890182,
			"0.004": 12.6701010912,
			"0.005": 8.90079990368,
			"0.006": 7.87154969646,
			"0.007": 7.94006248972,
			"0.008": 6.78573348194,
			"0.009": 5.82459725987,
			"0.01": 5.30797354804,
			"0.011": 5.6430383047,
			"0.012": 7.20773055724,
			"0.013": 6.11798273538,
			"0.014": 5.36787297915,
			"0.015": 1.55725441833,
			"0.016": 0.343406907347,
			"0.017": 0.0,
			"0.018": 0.0,
			"0.019": 0.0,
			"0.02": 0.0,
			"0.021": 0.0,
			"0.022": 0.0,
			"0.023": 0.0,
			"0.024": 0.0,
			"0.025": 0.0
		}
	}
}
