{
	 "smiles": "CN1N=C(C)C2=C1N=CC(C(N)=O)=C2Cl", 
	 "Tm": 548.15, 
	 "num_atms": 24, 
	 "gaussian": { 
		 "optdone": 1, 
		 "sigma_profile": "yes", 
		 "theory": "DFT", 
		 "functional": "B3LYP", 
		 "basiset": "6-31G**", 
		 "properties": { 
			 "R2extent": 3752.5264, 
			 "electric_dipole_moment_norm": 3.61188658737, 
			 "electric_quadrupole_moment_norm": 16.8468266282, 
			 "total_energy": -1102.81149311, 
			 "HOMO_LUMO_gap": 0.17385, 
			 "cosmo_polarized_energy": -15.99, 
			 "cosmo_cavitation_energy": 30.14, 
			 "cosmo_dispersion_energy": -22.16, 
			 "cosmo_repulsion_energy": 1.74, 
			 "cosmo_total_nonelectrostatic_energy": 9.72, 
			 "SMD_solvation_energy": 3.48 
		},
		"coords": [
			{
				"x": -2.4601982205,
				"y": -0.6816886259,
				"z": -2.7761119002,
				"element": "C" 
			},
			{
				"x": -1.2821067937,
				"y": -0.0951780491,
				"z": -2.1707714189,
				"element": "N" 
			},
			{
				"x": -0.697425722,
				"y": 1.0130774912,
				"z": -2.7070353873,
				"element": "N" 
			},
			{
				"x": 0.3480220931,
				"y": 1.3218783852,
				"z": -1.9544510982,
				"element": "C" 
			},
			{
				"x": 1.2010147254,
				"y": 2.5029959157,
				"z": -2.2965346433,
				"element": "C" 
			},
			{
				"x": 0.4675468687,
				"y": 0.3819129078,
				"z": -0.8754870102,
				"element": "C" 
			},
			{
				"x": -0.617887572,
				"y": -0.5177806913,
				"z": -1.0623335255,
				"element": "C" 
			},
			{
				"x": -0.9333511016,
				"y": -1.5720788023,
				"z": -0.3010924554,
				"element": "N" 
			},
			{
				"x": -0.1167686909,
				"y": -1.7538066911,
				"z": 0.7296951631,
				"element": "C" 
			},
			{
				"x": 1.0084490236,
				"y": -0.9477224251,
				"z": 1.0547448226,
				"element": "C" 
			},
			{
				"x": 1.8660961867,
				"y": -1.3384391749,
				"z": 2.2295655853,
				"element": "C" 
			},
			{
				"x": 1.1582836531,
				"y": -1.7624267425,
				"z": 3.3313504255,
				"element": "N" 
			},
			{
				"x": 3.0860711039,
				"y": -1.3401069404,
				"z": 2.1991352499,
				"element": "O" 
			},
			{
				"x": 1.3017820666,
				"y": 0.1390414023,
				"z": 0.2227911595,
				"element": "C" 
			},
			{
				"x": 2.6329414252,
				"y": 1.2190177041,
				"z": 0.5432042905,
				"element": "Cl" 
			},
			{
				"x": -2.2466945767,
				"y": -0.978590263,
				"z": -3.8063958275,
				"element": "H" 
			},
			{
				"x": -2.7329491918,
				"y": -1.5584825298,
				"z": -2.1879481266,
				"element": "H" 
			},
			{
				"x": -3.2850530391,
				"y": 0.0362060321,
				"z": -2.7744801419,
				"element": "H" 
			},
			{
				"x": 0.8052807962,
				"y": 2.9810439395,
				"z": -3.1950303115,
				"element": "H" 
			},
			{
				"x": 2.2383382911,
				"y": 2.2067146498,
				"z": -2.4816742869,
				"element": "H" 
			},
			{
				"x": 1.2154100323,
				"y": 3.23574928,
				"z": -1.4835139257,
				"element": "H" 
			},
			{
				"x": -0.3276794196,
				"y": -2.6141834517,
				"z": 1.3609140073,
				"element": "H" 
			},
			{
				"x": 0.2015128181,
				"y": -1.4747310279,
				"z": 3.4678769291,
				"element": "H" 
			},
			{
				"x": 1.7077652441,
				"y": -1.9566222926,
				"z": 4.1565824262,
				"element": "H" 
			}
		],
		 "valence_orbital": [ 
			{
				"type": "occ",
				"energy": -0.28563,
				"method": "rhf"
			},
			{
				"type": "occ",
				"energy": -0.27446,
				"method": "rhf"
			},
			{
				"type": "occ",
				"energy": -0.26361,
				"method": "rhf"
			},
			{
				"type": "occ",
				"energy": -0.25278,
				"method": "rhf"
			},
			{
				"type": "occ",
				"energy": -0.23341,
				"method": "rhf"
			},
			{
				"type": "unocc",
				"energy": -0.05956,
				"method": "rhf"
			},
			{
				"type": "unocc",
				"energy": -0.02584,
				"method": "rhf"
			},
			{
				"type": "unocc",
				"energy": 0.02643,
				"method": "rhf"
			},
			{
				"type": "unocc",
				"energy": 0.03369,
				"method": "rhf"
			},
			{
				"type": "unocc",
				"energy": 0.04779,
				"method": "rhf"
			}
		],
		"cosmo_sigma_profile": { 
			"-0.025": 0.0,
			"-0.024": 0.0,
			"-0.023": 0.0,
			"-0.022": 0.0,
			"-0.021": 0.0,
			"-0.02": 0.0,
			"-0.019": 0.0,
			"-0.018": 0.0,
			"-0.017": 0.0,
			"-0.016": 0.0,
			"-0.015": 0.383809024174,
			"-0.014": 2.21223153044,
			"-0.013": 2.27489078742,
			"-0.012": 2.0629318113,
			"-0.011": 2.6315649674,
			"-0.01": 3.15103902791,
			"-0.009": 2.2825944832,
			"-0.008": 1.84320486029,
			"-0.007": 4.07274498418,
			"-0.006": 8.05552656197,
			"-0.005": 11.2873157463,
			"-0.004": 16.1056978605,
			"-0.003": 20.9774749193,
			"-0.002": 21.0200882167,
			"-0.001": 30.8177287788,
			"0.0": 22.5643250979,
			"0.001": 16.6787965207,
			"0.002": 11.134125474,
			"0.003": 10.7507595557,
			"0.004": 7.34876818991,
			"0.005": 5.56639197669,
			"0.006": 5.6698196797,
			"0.007": 4.26094052083,
			"0.008": 3.34842359626,
			"0.009": 3.9285562375,
			"0.01": 3.83514160516,
			"0.011": 4.16357314331,
			"0.012": 4.55845411127,
			"0.013": 6.28570841853,
			"0.014": 3.10380674757,
			"0.015": 0.11392657895,
			"0.016": 0.0,
			"0.017": 0.0,
			"0.018": 0.0,
			"0.019": 0.0,
			"0.02": 0.0,
			"0.021": 0.0,
			"0.022": 0.0,
			"0.023": 0.0,
			"0.024": 0.0,
			"0.025": 0.0
		}
	}
}
