{
	 "smiles": "CC1=C(CC(O)=O)C(=O)N2N=CC=C2N1", 
	 "Tm": 567.15, 
	 "num_atms": 24, 
	 "gaussian": { 
		 "optdone": 1, 
		 "sigma_profile": "yes", 
		 "theory": "DFT", 
		 "functional": "B3LYP", 
		 "basiset": "6-31G**", 
		 "properties": { 
			 "R2extent": 4624.4291, 
			 "electric_dipole_moment_norm": 8.60550671605, 
			 "electric_quadrupole_moment_norm": 22.2346289895, 
			 "total_energy": -738.312660081, 
			 "HOMO_LUMO_gap": 0.17614, 
			 "cosmo_polarized_energy": -27.87, 
			 "cosmo_cavitation_energy": 29.11, 
			 "cosmo_dispersion_energy": -20.78, 
			 "cosmo_repulsion_energy": 1.59, 
			 "cosmo_total_nonelectrostatic_energy": 9.92, 
			 "SMD_solvation_energy": 5.68 
		},
		"coords": [
			{
				"x": 0.6806055481,
				"y": 2.3104536376,
				"z": 0.7251716551,
				"element": "C" 
			},
			{
				"x": 0.9448046898,
				"y": 0.851389103,
				"z": 0.4666074042,
				"element": "C" 
			},
			{
				"x": 2.1997785254,
				"y": 0.3031169043,
				"z": 0.3775557155,
				"element": "C" 
			},
			{
				"x": 3.4640907856,
				"y": 1.1265854231,
				"z": 0.4851270264,
				"element": "C" 
			},
			{
				"x": 4.0722791926,
				"y": 1.074348016,
				"z": 1.894511658,
				"element": "C" 
			},
			{
				"x": 4.6054917511,
				"y": -0.1060313791,
				"z": 2.2435268299,
				"element": "O" 
			},
			{
				"x": 4.056362629,
				"y": 2.0227289152,
				"z": 2.6465949051,
				"element": "O" 
			},
			{
				"x": 2.3928797806,
				"y": -1.1301094195,
				"z": 0.2206726628,
				"element": "C" 
			},
			{
				"x": 3.4856383318,
				"y": -1.6943923505,
				"z": 0.2665389164,
				"element": "O" 
			},
			{
				"x": 1.2007407128,
				"y": -1.8525050294,
				"z": 0.0160179132,
				"element": "N" 
			},
			{
				"x": 1.1491021557,
				"y": -3.1955232589,
				"z": -0.208531025,
				"element": "N" 
			},
			{
				"x": -0.1492289648,
				"y": -3.4525850849,
				"z": -0.3075471941,
				"element": "C" 
			},
			{
				"x": -0.970162016,
				"y": -2.3087490809,
				"z": -0.1458882561,
				"element": "C" 
			},
			{
				"x": -0.0604993988,
				"y": -1.2926590613,
				"z": 0.0625476027,
				"element": "C" 
			},
			{
				"x": -0.1627294201,
				"y": 0.0552759373,
				"z": 0.3083104887,
				"element": "N" 
			},
			{
				"x": 0.8269017521,
				"y": 2.9034925853,
				"z": -0.1849058592,
				"element": "H" 
			},
			{
				"x": 1.3607815827,
				"y": 2.69251679,
				"z": 1.4893216737,
				"element": "H" 
			},
			{
				"x": -0.3449154418,
				"y": 2.4725993754,
				"z": 1.0698125357,
				"element": "H" 
			},
			{
				"x": 3.2812741831,
				"y": 2.174037144,
				"z": 0.2488332445,
				"element": "H" 
			},
			{
				"x": 4.1932570454,
				"y": 0.7345698123,
				"z": -0.2326059596,
				"element": "H" 
			},
			{
				"x": 4.4502467762,
				"y": -0.7678422078,
				"z": 1.5315499486,
				"element": "H" 
			},
			{
				"x": -0.471882674,
				"y": -4.4682704256,
				"z": -0.4961003715,
				"element": "H" 
			},
			{
				"x": -2.0468245028,
				"y": -2.241443213,
				"z": -0.174147061,
				"element": "H" 
			},
			{
				"x": -1.0830930237,
				"y": 0.4582968674,
				"z": 0.3998255459,
				"element": "H" 
			}
		],
		 "valence_orbital": [ 
			{
				"type": "occ",
				"energy": -0.28964,
				"method": "rhf"
			},
			{
				"type": "occ",
				"energy": -0.28587,
				"method": "rhf"
			},
			{
				"type": "occ",
				"energy": -0.28131,
				"method": "rhf"
			},
			{
				"type": "occ",
				"energy": -0.25802,
				"method": "rhf"
			},
			{
				"type": "occ",
				"energy": -0.23006,
				"method": "rhf"
			},
			{
				"type": "unocc",
				"energy": -0.05392,
				"method": "rhf"
			},
			{
				"type": "unocc",
				"energy": -0.02047,
				"method": "rhf"
			},
			{
				"type": "unocc",
				"energy": 0.02255,
				"method": "rhf"
			},
			{
				"type": "unocc",
				"energy": 0.03711,
				"method": "rhf"
			},
			{
				"type": "unocc",
				"energy": 0.05281,
				"method": "rhf"
			}
		],
		"cosmo_sigma_profile": { 
			"-0.025": 0.0,
			"-0.024": 0.0,
			"-0.023": 0.0,
			"-0.022": 0.0,
			"-0.021": 0.0,
			"-0.02": 0.0,
			"-0.019": 0.00401070235053,
			"-0.018": 0.90253414524,
			"-0.017": 1.55579418964,
			"-0.016": 1.41373153921,
			"-0.015": 1.49097986948,
			"-0.014": 1.57011949453,
			"-0.013": 1.75515715274,
			"-0.012": 0.716619223816,
			"-0.011": 1.39969357588,
			"-0.01": 1.65893717561,
			"-0.009": 1.83775304404,
			"-0.008": 5.96251808836,
			"-0.007": 7.59646264805,
			"-0.006": 13.9711117711,
			"-0.005": 14.9653101005,
			"-0.004": 17.2390093557,
			"-0.003": 22.6011714415,
			"-0.002": 20.5702407654,
			"-0.001": 11.3140700735,
			"0.0": 13.733163752,
			"0.001": 11.829344436,
			"0.002": 7.46421649243,
			"0.003": 9.51230758274,
			"0.004": 5.65398929967,
			"0.005": 4.38370541478,
			"0.006": 4.79106076766,
			"0.007": 4.70931178195,
			"0.008": 5.05974446279,
			"0.009": 5.56141720465,
			"0.01": 7.93072916499,
			"0.011": 8.42943172265,
			"0.012": 5.77142150619,
			"0.013": 3.09070514286,
			"0.014": 2.46269889287,
			"0.015": 1.38450484366,
			"0.016": 1.86876852603,
			"0.017": 0.658043108585,
			"0.018": 0.0,
			"0.019": 0.0,
			"0.02": 0.0,
			"0.021": 0.0,
			"0.022": 0.0,
			"0.023": 0.0,
			"0.024": 0.0,
			"0.025": 0.0
		}
	}
}
