{
	 "smiles": "CC1=CC=C(C=C1)N1C=CC=C1C=O", 
	 "Tm": 322.15, 
	 "num_atms": 25, 
	 "gaussian": { 
		 "optdone": 1, 
		 "sigma_profile": "yes", 
		 "theory": "DFT", 
		 "functional": "B3LYP", 
		 "basiset": "6-31G**", 
		 "properties": { 
			 "R2extent": 3790.6695, 
			 "electric_dipole_moment_norm": 5.23802094211, 
			 "electric_quadrupole_moment_norm": 14.1021784186, 
			 "total_energy": -593.867891018, 
			 "HOMO_LUMO_gap": 0.18074, 
			 "cosmo_polarized_energy": -10.65, 
			 "cosmo_cavitation_energy": 29.37, 
			 "cosmo_dispersion_energy": -20.82, 
			 "cosmo_repulsion_energy": 1.63, 
			 "cosmo_total_nonelectrostatic_energy": 10.18, 
			 "SMD_solvation_energy": 6.49 
		},
		"coords": [
			{
				"x": -3.9169282452,
				"y": 1.3083278732,
				"z": 0.4738916599,
				"element": "C" 
			},
			{
				"x": -2.5638406713,
				"y": 0.9822963306,
				"z": -0.1122938837,
				"element": "C" 
			},
			{
				"x": -1.7172956834,
				"y": 1.9979862103,
				"z": -0.578826001,
				"element": "C" 
			},
			{
				"x": -0.4820794808,
				"y": 1.7060444226,
				"z": -1.1528169867,
				"element": "C" 
			},
			{
				"x": -0.05794745,
				"y": 0.3763766152,
				"z": -1.2508551086,
				"element": "C" 
			},
			{
				"x": -0.8844499543,
				"y": -0.6497723605,
				"z": -0.7845894073,
				"element": "C" 
			},
			{
				"x": -2.125461385,
				"y": -0.3431133768,
				"z": -0.228436195,
				"element": "C" 
			},
			{
				"x": 1.1974916048,
				"y": 0.0558790349,
				"z": -1.8502100376,
				"element": "N" 
			},
			{
				"x": 1.34512791,
				"y": -0.8053988159,
				"z": -2.9060694255,
				"element": "C" 
			},
			{
				"x": 2.6832939916,
				"y": -0.8581702063,
				"z": -3.2625582249,
				"element": "C" 
			},
			{
				"x": 3.3792454927,
				"y": 0.0024552138,
				"z": -2.3914962817,
				"element": "C" 
			},
			{
				"x": 2.4563512229,
				"y": 0.5668044201,
				"z": -1.5160443964,
				"element": "C" 
			},
			{
				"x": 2.7196225334,
				"y": 1.4303762607,
				"z": -0.3754913371,
				"element": "C" 
			},
			{
				"x": 3.8266577483,
				"y": 1.8767550888,
				"z": -0.110017796,
				"element": "O" 
			},
			{
				"x": -3.8926910589,
				"y": 2.2441068742,
				"z": 1.0404553211,
				"element": "H" 
			},
			{
				"x": -4.6712002786,
				"y": 1.4256084424,
				"z": -0.3142004987,
				"element": "H" 
			},
			{
				"x": -4.2645612091,
				"y": 0.5159211566,
				"z": 1.1427944576,
				"element": "H" 
			},
			{
				"x": -2.0332888841,
				"y": 3.0351392846,
				"z": -0.5027833431,
				"element": "H" 
			},
			{
				"x": 0.1494485993,
				"y": 2.5010372779,
				"z": -1.5359193329,
				"element": "H" 
			},
			{
				"x": -0.5439948859,
				"y": -1.6788357833,
				"z": -0.8425361624,
				"element": "H" 
			},
			{
				"x": -2.7572872926,
				"y": -1.1493942092,
				"z": 0.134833705,
				"element": "H" 
			},
			{
				"x": 0.4799896826,
				"y": -1.2839549136,
				"z": -3.3413764988,
				"element": "H" 
			},
			{
				"x": 3.0963817988,
				"y": -1.4498780516,
				"z": -4.0671734626,
				"element": "H" 
			},
			{
				"x": 4.4406648697,
				"y": 0.2012996019,
				"z": -2.3579282372,
				"element": "H" 
			},
			{
				"x": 1.8448510251,
				"y": 1.6607036096,
				"z": 0.2670474736,
				"element": "H" 
			}
		],
		 "valence_orbital": [ 
			{
				"type": "occ",
				"energy": -0.276,
				"method": "rhf"
			},
			{
				"type": "occ",
				"energy": -0.26869,
				"method": "rhf"
			},
			{
				"type": "occ",
				"energy": -0.24228,
				"method": "rhf"
			},
			{
				"type": "occ",
				"energy": -0.23386,
				"method": "rhf"
			},
			{
				"type": "occ",
				"energy": -0.22419,
				"method": "rhf"
			},
			{
				"type": "unocc",
				"energy": -0.04345,
				"method": "rhf"
			},
			{
				"type": "unocc",
				"energy": -0.02016,
				"method": "rhf"
			},
			{
				"type": "unocc",
				"energy": -0.01653,
				"method": "rhf"
			},
			{
				"type": "unocc",
				"energy": 0.0524,
				"method": "rhf"
			},
			{
				"type": "unocc",
				"energy": 0.08354,
				"method": "rhf"
			}
		],
		"cosmo_sigma_profile": { 
			"-0.025": 0.0,
			"-0.024": 0.0,
			"-0.023": 0.0,
			"-0.022": 0.0,
			"-0.021": 0.0,
			"-0.02": 0.0,
			"-0.019": 0.0,
			"-0.018": 0.0,
			"-0.017": 0.0,
			"-0.016": 0.0,
			"-0.015": 0.0,
			"-0.014": 0.0,
			"-0.013": 0.0,
			"-0.012": 0.0,
			"-0.011": 0.0,
			"-0.01": 0.0,
			"-0.009": 0.314375607314,
			"-0.008": 1.52887914658,
			"-0.007": 5.30020872324,
			"-0.006": 12.650240821,
			"-0.005": 19.1648635583,
			"-0.004": 24.2091272296,
			"-0.003": 19.1091969683,
			"-0.002": 19.1012899633,
			"-0.001": 21.1039002036,
			"0.0": 18.5475551816,
			"0.001": 16.4769123615,
			"0.002": 12.8173194851,
			"0.003": 13.3669481224,
			"0.004": 17.8504525714,
			"0.005": 11.2415388788,
			"0.006": 3.51873223161,
			"0.007": 1.06748459397,
			"0.008": 1.98295920867,
			"0.009": 2.08792845345,
			"0.01": 1.68306518324,
			"0.011": 2.71316442351,
			"0.012": 4.80078542363,
			"0.013": 3.44613378881,
			"0.014": 0.934436999071,
			"0.015": 0.0,
			"0.016": 0.0,
			"0.017": 0.0,
			"0.018": 0.0,
			"0.019": 0.0,
			"0.02": 0.0,
			"0.021": 0.0,
			"0.022": 0.0,
			"0.023": 0.0,
			"0.024": 0.0,
			"0.025": 0.0
		}
	}
}
