{
	 "smiles": "NC1=CN=C(C=C1)N1C=C(C=N1)S(N)(=O)=O", 
	 "Tm": 492.15, 
	 "num_atms": 25, 
	 "gaussian": { 
		 "optdone": 1, 
		 "sigma_profile": "yes", 
		 "theory": "DFT", 
		 "functional": "B3LYP", 
		 "basiset": "6-31G**", 
		 "properties": { 
			 "R2extent": 5828.7192, 
			 "electric_dipole_moment_norm": 8.81856041199, 
			 "electric_quadrupole_moment_norm": 26.7480375473, 
			 "total_energy": -1132.56449725, 
			 "HOMO_LUMO_gap": 0.18453, 
			 "cosmo_polarized_energy": -31.28, 
			 "cosmo_cavitation_energy": 32.19, 
			 "cosmo_dispersion_energy": -23.98, 
			 "cosmo_repulsion_energy": 1.83, 
			 "cosmo_total_nonelectrostatic_energy": 10.04, 
			 "SMD_solvation_energy": 3.33 
		},
		"coords": [
			{
				"x": 3.8381744429,
				"y": 1.6544280122,
				"z": -3.1271784522,
				"element": "N" 
			},
			{
				"x": 2.7449642207,
				"y": 1.2812955347,
				"z": -2.361781435,
				"element": "C" 
			},
			{
				"x": 1.9308546391,
				"y": 0.1926116793,
				"z": -2.7359563149,
				"element": "C" 
			},
			{
				"x": 0.8490599698,
				"y": -0.1928073145,
				"z": -2.0656227473,
				"element": "N" 
			},
			{
				"x": 0.5001318932,
				"y": 0.5044420373,
				"z": -0.989266941,
				"element": "C" 
			},
			{
				"x": 1.212314243,
				"y": 1.614603496,
				"z": -0.5277969967,
				"element": "C" 
			},
			{
				"x": 2.35583788,
				"y": 1.9972598816,
				"z": -1.2178812639,
				"element": "C" 
			},
			{
				"x": -0.6629625197,
				"y": 0.0639814639,
				"z": -0.2865662794,
				"element": "N" 
			},
			{
				"x": -0.8276944059,
				"y": 0.0151800699,
				"z": 1.0613429611,
				"element": "C" 
			},
			{
				"x": -2.1145451475,
				"y": -0.44217184,
				"z": 1.275775533,
				"element": "C" 
			},
			{
				"x": -2.6555942088,
				"y": -0.6422709901,
				"z": -0.0194262689,
				"element": "C" 
			},
			{
				"x": -1.7750390286,
				"y": -0.3367054855,
				"z": -0.9616754959,
				"element": "N" 
			},
			{
				"x": -2.865514904,
				"y": -0.7080753718,
				"z": 2.8493606612,
				"element": "S" 
			},
			{
				"x": -2.7790673705,
				"y": -2.356532717,
				"z": 3.173251176,
				"element": "N" 
			},
			{
				"x": -2.0042488343,
				"y": -0.064483733,
				"z": 3.8404591203,
				"element": "O" 
			},
			{
				"x": -4.2900372952,
				"y": -0.4157326692,
				"z": 2.7135251537,
				"element": "O" 
			},
			{
				"x": 4.5555608882,
				"y": 2.1899350491,
				"z": -2.6602584111,
				"element": "H" 
			},
			{
				"x": 4.2118299925,
				"y": 0.9497525383,
				"z": -3.7467116478,
				"element": "H" 
			},
			{
				"x": 2.1842490455,
				"y": -0.3917101341,
				"z": -3.6203371683,
				"element": "H" 
			},
			{
				"x": 0.8713817336,
				"y": 2.1775819051,
				"z": 0.3343626598,
				"element": "H" 
			},
			{
				"x": 2.9298992106,
				"y": 2.8593539304,
				"z": -0.889485389,
				"element": "H" 
			},
			{
				"x": -0.0524218037,
				"y": 0.2878916876,
				"z": 1.7602269375,
				"element": "H" 
			},
			{
				"x": -3.6505406972,
				"y": -0.970755326,
				"z": -0.2863741503,
				"element": "H" 
			},
			{
				"x": -3.3478235152,
				"y": -2.9069389381,
				"z": 2.5373146605,
				"element": "H" 
			},
			{
				"x": -1.8233684286,
				"y": -2.6928327663,
				"z": 3.2387000984,
				"element": "H" 
			}
		],
		 "valence_orbital": [ 
			{
				"type": "occ",
				"energy": -0.29005,
				"method": "rhf"
			},
			{
				"type": "occ",
				"energy": -0.28058,
				"method": "rhf"
			},
			{
				"type": "occ",
				"energy": -0.27518,
				"method": "rhf"
			},
			{
				"type": "occ",
				"energy": -0.26369,
				"method": "rhf"
			},
			{
				"type": "occ",
				"energy": -0.22556,
				"method": "rhf"
			},
			{
				"type": "unocc",
				"energy": -0.04103,
				"method": "rhf"
			},
			{
				"type": "unocc",
				"energy": -0.03138,
				"method": "rhf"
			},
			{
				"type": "unocc",
				"energy": 0.01015,
				"method": "rhf"
			},
			{
				"type": "unocc",
				"energy": 0.02232,
				"method": "rhf"
			},
			{
				"type": "unocc",
				"energy": 0.05773,
				"method": "rhf"
			}
		],
		"cosmo_sigma_profile": { 
			"-0.025": 0.0,
			"-0.024": 0.0,
			"-0.023": 0.0,
			"-0.022": 0.0,
			"-0.021": 0.0,
			"-0.02": 0.0,
			"-0.019": 0.0,
			"-0.018": 0.0,
			"-0.017": 0.0,
			"-0.016": 0.223171483549,
			"-0.015": 2.21743395705,
			"-0.014": 3.51195802101,
			"-0.013": 5.66327988502,
			"-0.012": 6.33422840013,
			"-0.011": 5.76999774504,
			"-0.01": 7.84100024762,
			"-0.009": 8.45798809563,
			"-0.008": 10.5817386062,
			"-0.007": 11.4472716369,
			"-0.006": 11.7506136666,
			"-0.005": 9.2442548634,
			"-0.004": 6.97352961308,
			"-0.003": 8.89357575496,
			"-0.002": 9.62739509121,
			"-0.001": 10.5590171533,
			"0.0": 12.7377563045,
			"0.001": 18.2980939721,
			"0.002": 16.0269998236,
			"0.003": 10.5636042417,
			"0.004": 7.40597881177,
			"0.005": 5.11601906406,
			"0.006": 6.22000366466,
			"0.007": 8.21541390095,
			"0.008": 7.30051048184,
			"0.009": 7.36356144372,
			"0.01": 9.53735766958,
			"0.011": 13.6149061873,
			"0.012": 8.05642963526,
			"0.013": 2.17517124939,
			"0.014": 1.5233245251,
			"0.015": 1.90996728629,
			"0.016": 1.90969668662,
			"0.017": 0.418428978817,
			"0.018": 0.0,
			"0.019": 0.0,
			"0.02": 0.0,
			"0.021": 0.0,
			"0.022": 0.0,
			"0.023": 0.0,
			"0.024": 0.0,
			"0.025": 0.0
		}
	}
}
