{
	 "smiles": "NC(=O)C1=CC=CC=C1CO", 
	 "Tm": 423.15, 
	 "num_atms": 20, 
	 "gaussian": { 
		 "optdone": 1, 
		 "sigma_profile": "yes", 
		 "theory": "DFT", 
		 "functional": "B3LYP", 
		 "basiset": "6-31G**", 
		 "properties": { 
			 "R2extent": 3187.1387, 
			 "electric_dipole_moment_norm": 4.55108931576, 
			 "electric_quadrupole_moment_norm": 12.3252177478, 
			 "total_energy": -515.481815559, 
			 "HOMO_LUMO_gap": 0.20764, 
			 "cosmo_polarized_energy": -15.68, 
			 "cosmo_cavitation_energy": 23.61, 
			 "cosmo_dispersion_energy": -17.64, 
			 "cosmo_repulsion_energy": 1.43, 
			 "cosmo_total_nonelectrostatic_energy": 7.4, 
			 "SMD_solvation_energy": 4.75 
		},
		"coords": [
			{
				"x": 1.3636761903,
				"y": 3.892621242,
				"z": -0.853295126,
				"element": "N" 
			},
			{
				"x": 0.9589014527,
				"y": 2.5809449284,
				"z": -0.7586359287,
				"element": "C" 
			},
			{
				"x": 1.5934174643,
				"y": 1.7663328015,
				"z": -0.095566057,
				"element": "O" 
			},
			{
				"x": -0.2718645871,
				"y": 2.2151387196,
				"z": -1.5359639902,
				"element": "C" 
			},
			{
				"x": -0.605516483,
				"y": 2.9264597741,
				"z": -2.6996827285,
				"element": "C" 
			},
			{
				"x": -1.72732784,
				"y": 2.5911522913,
				"z": -3.4539854651,
				"element": "C" 
			},
			{
				"x": -2.5324938213,
				"y": 1.5298572435,
				"z": -3.0426731872,
				"element": "C" 
			},
			{
				"x": -2.2065838038,
				"y": 0.8121311604,
				"z": -1.8920238425,
				"element": "C" 
			},
			{
				"x": -1.0806542421,
				"y": 1.1304968077,
				"z": -1.1240948463,
				"element": "C" 
			},
			{
				"x": -0.7793065148,
				"y": 0.2916418509,
				"z": 0.1132532757,
				"element": "C" 
			},
			{
				"x": -1.8762517643,
				"y": -0.5183521585,
				"z": 0.5195219929,
				"element": "O" 
			},
			{
				"x": 2.1314700223,
				"y": 4.1535544843,
				"z": -0.2514835129,
				"element": "H" 
			},
			{
				"x": 0.7081807183,
				"y": 4.6149325583,
				"z": -1.1066091547,
				"element": "H" 
			},
			{
				"x": 0.0438583636,
				"y": 3.7286461933,
				"z": -3.0372627059,
				"element": "H" 
			},
			{
				"x": -1.9622861798,
				"y": 3.1463890536,
				"z": -4.3571627171,
				"element": "H" 
			},
			{
				"x": -3.4089828449,
				"y": 1.2521935358,
				"z": -3.6216079362,
				"element": "H" 
			},
			{
				"x": -2.8212521209,
				"y": -0.0222339307,
				"z": -1.572485354,
				"element": "H" 
			},
			{
				"x": 0.0425195263,
				"y": -0.3959555926,
				"z": -0.1036346251,
				"element": "H" 
			},
			{
				"x": -0.4243973079,
				"y": 0.9284349399,
				"z": 0.931831482,
				"element": "H" 
			},
			{
				"x": -2.5651062278,
				"y": 0.0690140971,
				"z": 0.8573604269,
				"element": "H" 
			}
		],
		 "valence_orbital": [ 
			{
				"type": "occ",
				"energy": -0.28045,
				"method": "rhf"
			},
			{
				"type": "occ",
				"energy": -0.26927,
				"method": "rhf"
			},
			{
				"type": "occ",
				"energy": -0.25912,
				"method": "rhf"
			},
			{
				"type": "occ",
				"energy": -0.25312,
				"method": "rhf"
			},
			{
				"type": "occ",
				"energy": -0.24428,
				"method": "rhf"
			},
			{
				"type": "unocc",
				"energy": -0.03664,
				"method": "rhf"
			},
			{
				"type": "unocc",
				"energy": -0.0077,
				"method": "rhf"
			},
			{
				"type": "unocc",
				"energy": 0.05346,
				"method": "rhf"
			},
			{
				"type": "unocc",
				"energy": 0.0789,
				"method": "rhf"
			},
			{
				"type": "unocc",
				"energy": 0.08551,
				"method": "rhf"
			}
		],
		"cosmo_sigma_profile": { 
			"-0.025": 0.0,
			"-0.024": 0.0,
			"-0.023": 0.0,
			"-0.022": 0.0,
			"-0.021": 0.0,
			"-0.02": 0.0,
			"-0.019": 0.0,
			"-0.018": 0.0,
			"-0.017": 0.0,
			"-0.016": 0.285762777308,
			"-0.015": 1.15309825034,
			"-0.014": 1.76104901659,
			"-0.013": 3.47822935992,
			"-0.012": 3.02199017394,
			"-0.011": 3.12122303378,
			"-0.01": 3.49502485745,
			"-0.009": 2.90014290568,
			"-0.008": 3.24472968503,
			"-0.007": 4.12439068497,
			"-0.006": 7.79366184554,
			"-0.005": 8.63333952133,
			"-0.004": 13.6851494537,
			"-0.003": 12.8749735417,
			"-0.002": 10.4591166791,
			"-0.001": 8.52608951402,
			"0.0": 10.1645339122,
			"0.001": 11.3150106935,
			"0.002": 10.7386228124,
			"0.003": 12.4843583512,
			"0.004": 13.4836607139,
			"0.005": 9.77064365433,
			"0.006": 3.16932430675,
			"0.007": 3.15531157966,
			"0.008": 2.79409457416,
			"0.009": 2.45562173304,
			"0.01": 2.39423833805,
			"0.011": 3.70142656108,
			"0.012": 3.07156789909,
			"0.013": 4.83526815377,
			"0.014": 4.43377041239,
			"0.015": 0.320000240108,
			"0.016": 0.0,
			"0.017": 0.0,
			"0.018": 0.0,
			"0.019": 0.0,
			"0.02": 0.0,
			"0.021": 0.0,
			"0.022": 0.0,
			"0.023": 0.0,
			"0.024": 0.0,
			"0.025": 0.0
		}
	}
}
