{
	 "smiles": "COC1=CC=C(C(O)=O)C(F)=C1F", 
	 "Tm": 496.15, 
	 "num_atms": 19, 
	 "gaussian": { 
		 "optdone": 1, 
		 "sigma_profile": "yes", 
		 "theory": "DFT", 
		 "functional": "B3LYP", 
		 "basiset": "6-31G**", 
		 "properties": { 
			 "R2extent": 3016.6749, 
			 "electric_dipole_moment_norm": 5.59176597597, 
			 "electric_quadrupole_moment_norm": 11.9339082735, 
			 "total_energy": -733.792344533, 
			 "HOMO_LUMO_gap": 0.19619, 
			 "cosmo_polarized_energy": -11.54, 
			 "cosmo_cavitation_energy": 24.46, 
			 "cosmo_dispersion_energy": -18.25, 
			 "cosmo_repulsion_energy": 1.39, 
			 "cosmo_total_nonelectrostatic_energy": 7.6, 
			 "SMD_solvation_energy": 7.05 
		},
		"coords": [
			{
				"x": 4.1460912118,
				"y": 0.0953126538,
				"z": -1.7747291217,
				"element": "C" 
			},
			{
				"x": 3.8862789236,
				"y": -0.0283042848,
				"z": -0.3709446094,
				"element": "O" 
			},
			{
				"x": 2.6400088094,
				"y": -0.2241700389,
				"z": 0.1085537201,
				"element": "C" 
			},
			{
				"x": 2.5300338519,
				"y": -0.3271546401,
				"z": 1.5087163987,
				"element": "C" 
			},
			{
				"x": 1.3063941852,
				"y": -0.5283499823,
				"z": 2.1209679358,
				"element": "C" 
			},
			{
				"x": 0.1165422195,
				"y": -0.6396094665,
				"z": 1.379601257,
				"element": "C" 
			},
			{
				"x": -1.1626187931,
				"y": -0.8571606619,
				"z": 2.1357558632,
				"element": "C" 
			},
			{
				"x": -2.3066028083,
				"y": -0.9648031972,
				"z": 1.4268511945,
				"element": "O" 
			},
			{
				"x": -1.1810534848,
				"y": -0.9356493405,
				"z": 3.3431349529,
				"element": "O" 
			},
			{
				"x": 0.2397889279,
				"y": -0.5359267331,
				"z": -0.0046386497,
				"element": "C" 
			},
			{
				"x": -0.8489180848,
				"y": -0.6293256633,
				"z": -0.8169417207,
				"element": "F" 
			},
			{
				"x": 1.4603362418,
				"y": -0.3335043236,
				"z": -0.643059818,
				"element": "C" 
			},
			{
				"x": 1.4524342838,
				"y": -0.2495511667,
				"z": -1.9913859389,
				"element": "F" 
			},
			{
				"x": 3.6261263143,
				"y": 0.9560019028,
				"z": -2.2032306029,
				"element": "H" 
			},
			{
				"x": 5.2239264197,
				"y": 0.2430742804,
				"z": -1.8480395898,
				"element": "H" 
			},
			{
				"x": 3.860686467,
				"y": -0.8107433762,
				"z": -2.3154231904,
				"element": "H" 
			},
			{
				"x": 3.4430862865,
				"y": -0.2423696821,
				"z": 2.0874335235,
				"element": "H" 
			},
			{
				"x": 1.2260581907,
				"y": -0.6070654482,
				"z": 3.1991475022,
				"element": "H" 
			},
			{
				"x": -2.132099162,
				"y": -0.8819008315,
				"z": 0.4768308935,
				"element": "H" 
			}
		],
		 "valence_orbital": [ 
			{
				"type": "occ",
				"energy": -0.34466,
				"method": "rhf"
			},
			{
				"type": "occ",
				"energy": -0.31027,
				"method": "rhf"
			},
			{
				"type": "occ",
				"energy": -0.27569,
				"method": "rhf"
			},
			{
				"type": "occ",
				"energy": -0.27038,
				"method": "rhf"
			},
			{
				"type": "occ",
				"energy": -0.24868,
				"method": "rhf"
			},
			{
				"type": "unocc",
				"energy": -0.05249,
				"method": "rhf"
			},
			{
				"type": "unocc",
				"energy": -0.02257,
				"method": "rhf"
			},
			{
				"type": "unocc",
				"energy": 0.03158,
				"method": "rhf"
			},
			{
				"type": "unocc",
				"energy": 0.05288,
				"method": "rhf"
			},
			{
				"type": "unocc",
				"energy": 0.09743,
				"method": "rhf"
			}
		],
		"cosmo_sigma_profile": { 
			"-0.025": 0.0,
			"-0.024": 0.0,
			"-0.023": 0.0,
			"-0.022": 0.0,
			"-0.021": 0.0,
			"-0.02": 0.0,
			"-0.019": 0.0,
			"-0.018": 0.0,
			"-0.017": 0.0,
			"-0.016": 0.0,
			"-0.015": 0.0,
			"-0.014": 0.097949340001,
			"-0.013": 0.47867153145,
			"-0.012": 0.986890442855,
			"-0.011": 0.783935989555,
			"-0.01": 1.92280778796,
			"-0.009": 1.91157658156,
			"-0.008": 1.66888648638,
			"-0.007": 5.27110251022,
			"-0.006": 13.3065227093,
			"-0.005": 12.6125476073,
			"-0.004": 15.4509726136,
			"-0.003": 15.3776471285,
			"-0.002": 17.1852294334,
			"-0.001": 12.6005047117,
			"0.0": 14.7146722063,
			"0.001": 14.8071341899,
			"0.002": 15.8880733064,
			"0.003": 12.8268709065,
			"0.004": 4.86959030784,
			"0.005": 3.49921001163,
			"0.006": 2.95650637536,
			"0.007": 3.62985215916,
			"0.008": 4.72940145829,
			"0.009": 3.34826843322,
			"0.01": 4.32151975838,
			"0.011": 5.63263497945,
			"0.012": 4.12508739301,
			"0.013": 1.68462033788,
			"0.014": 0.0647257188572,
			"0.015": 0.0,
			"0.016": 0.0,
			"0.017": 0.0,
			"0.018": 0.0,
			"0.019": 0.0,
			"0.02": 0.0,
			"0.021": 0.0,
			"0.022": 0.0,
			"0.023": 0.0,
			"0.024": 0.0,
			"0.025": 0.0
		}
	}
}
