{
	 "smiles": "O=C(C=CC=CC1=CC=CC=C1)C1=CC=CC=C1", 
	 "Tm": 374.15, 
	 "num_atms": 32, 
	 "gaussian": { 
		 "optdone": 1, 
		 "sigma_profile": "yes", 
		 "theory": "DFT", 
		 "functional": "B3LYP", 
		 "basiset": "6-31G**", 
		 "properties": { 
			 "R2extent": 5849.6963, 
			 "electric_dipole_moment_norm": 1.78790882877, 
			 "electric_quadrupole_moment_norm": 10.0581237788, 
			 "total_energy": -731.42827339, 
			 "HOMO_LUMO_gap": 0.13725, 
			 "cosmo_polarized_energy": -12.21, 
			 "cosmo_cavitation_energy": 36.02, 
			 "cosmo_dispersion_energy": -25.34, 
			 "cosmo_repulsion_energy": 1.96, 
			 "cosmo_total_nonelectrostatic_energy": 12.64, 
			 "SMD_solvation_energy": 6.38 
		},
		"coords": [
			{
				"x": -0.1195093303,
				"y": 0.4323457371,
				"z": -0.8023926487,
				"element": "O" 
			},
			{
				"x": 0.0920063034,
				"y": 1.638950413,
				"z": -0.7046019127,
				"element": "C" 
			},
			{
				"x": -0.9384851735,
				"y": 2.6459866735,
				"z": -1.0349374234,
				"element": "C" 
			},
			{
				"x": -2.1869848512,
				"y": 2.4100929108,
				"z": -1.5105729246,
				"element": "C" 
			},
			{
				"x": -2.9366630714,
				"y": 1.1940692966,
				"z": -1.8088793052,
				"element": "C" 
			},
			{
				"x": -3.1805805217,
				"y": 0.042228279,
				"z": -1.1398555945,
				"element": "C" 
			},
			{
				"x": -2.8552218464,
				"y": -0.4133442024,
				"z": 0.2116066049,
				"element": "C" 
			},
			{
				"x": -3.0639588334,
				"y": -1.7734147144,
				"z": 0.5118584084,
				"element": "C" 
			},
			{
				"x": -2.8093506143,
				"y": -2.2815390276,
				"z": 1.7831684831,
				"element": "C" 
			},
			{
				"x": -2.3610434559,
				"y": -1.4315622102,
				"z": 2.7955170771,
				"element": "C" 
			},
			{
				"x": -2.170195832,
				"y": -0.0739560573,
				"z": 2.5218801563,
				"element": "C" 
			},
			{
				"x": -2.4098665084,
				"y": 0.4294795045,
				"z": 1.2472727562,
				"element": "C" 
			},
			{
				"x": 1.4542520054,
				"y": 2.1209760716,
				"z": -0.2772407312,
				"element": "C" 
			},
			{
				"x": 1.7274845598,
				"y": 3.4317594285,
				"z": 0.144702859,
				"element": "C" 
			},
			{
				"x": 3.013359834,
				"y": 3.7926141194,
				"z": 0.5492438062,
				"element": "C" 
			},
			{
				"x": 4.0441334412,
				"y": 2.8520909194,
				"z": 0.5294537633,
				"element": "C" 
			},
			{
				"x": 3.7820020463,
				"y": 1.5425287013,
				"z": 0.1153327793,
				"element": "C" 
			},
			{
				"x": 2.4974088746,
				"y": 1.1802211196,
				"z": -0.2771832355,
				"element": "C" 
			},
			{
				"x": -0.6354424597,
				"y": 3.6870770689,
				"z": -0.9975180191,
				"element": "H" 
			},
			{
				"x": -2.7182290418,
				"y": 3.3077230516,
				"z": -1.8359375664,
				"element": "H" 
			},
			{
				"x": -3.467165553,
				"y": 1.2811259441,
				"z": -2.7589800977,
				"element": "H" 
			},
			{
				"x": -3.7876419227,
				"y": -0.6754624958,
				"z": -1.6916305694,
				"element": "H" 
			},
			{
				"x": -3.4239713957,
				"y": -2.4368780741,
				"z": -0.2705773464,
				"element": "H" 
			},
			{
				"x": -2.96758054,
				"y": -3.3370062318,
				"z": 1.9855145299,
				"element": "H" 
			},
			{
				"x": -2.1674506515,
				"y": -1.8207486397,
				"z": 3.7910313592,
				"element": "H" 
			},
			{
				"x": -1.8316180708,
				"y": 0.5952116832,
				"z": 3.307953522,
				"element": "H" 
			},
			{
				"x": -2.2676092871,
				"y": 1.485571318,
				"z": 1.0523828586,
				"element": "H" 
			},
			{
				"x": 0.9390956623,
				"y": 4.1758169842,
				"z": 0.1851275437,
				"element": "H" 
			},
			{
				"x": 3.2087871699,
				"y": 4.8083733933,
				"z": 0.8808240937,
				"element": "H" 
			},
			{
				"x": 5.0460327148,
				"y": 3.1363958113,
				"z": 0.8386967668,
				"element": "H" 
			},
			{
				"x": 4.5805566103,
				"y": 0.8061742292,
				"z": 0.1022180095,
				"element": "H" 
			},
			{
				"x": 2.2675497387,
				"y": 0.1672989953,
				"z": -0.5898780023,
				"element": "H" 
			}
		],
		 "valence_orbital": [ 
			{
				"type": "occ",
				"energy": -0.2552,
				"method": "rhf"
			},
			{
				"type": "occ",
				"energy": -0.2518,
				"method": "rhf"
			},
			{
				"type": "occ",
				"energy": -0.24432,
				"method": "rhf"
			},
			{
				"type": "occ",
				"energy": -0.23677,
				"method": "rhf"
			},
			{
				"type": "occ",
				"energy": -0.21343,
				"method": "rhf"
			},
			{
				"type": "unocc",
				"energy": -0.07618,
				"method": "rhf"
			},
			{
				"type": "unocc",
				"energy": -0.02812,
				"method": "rhf"
			},
			{
				"type": "unocc",
				"energy": -0.00416,
				"method": "rhf"
			},
			{
				"type": "unocc",
				"energy": 0.00634,
				"method": "rhf"
			},
			{
				"type": "unocc",
				"energy": 0.01128,
				"method": "rhf"
			}
		],
		"cosmo_sigma_profile": { 
			"-0.025": 0.0,
			"-0.024": 0.0,
			"-0.023": 0.0,
			"-0.022": 0.0,
			"-0.021": 0.0,
			"-0.02": 0.0,
			"-0.019": 0.0,
			"-0.018": 0.0,
			"-0.017": 0.0,
			"-0.016": 0.0,
			"-0.015": 0.0,
			"-0.014": 0.0,
			"-0.013": 0.0,
			"-0.012": 0.0,
			"-0.011": 0.0,
			"-0.01": 0.0,
			"-0.009": 0.0492634312846,
			"-0.008": 1.67798471869,
			"-0.007": 3.81592728271,
			"-0.006": 20.5238711808,
			"-0.005": 28.0443075023,
			"-0.004": 25.8760249569,
			"-0.003": 23.3290905492,
			"-0.002": 19.0542341878,
			"-0.001": 21.6833534743,
			"0.0": 16.8937460507,
			"0.001": 20.1329529945,
			"0.002": 20.9990494785,
			"0.003": 21.2102881993,
			"0.004": 22.6297177387,
			"0.005": 17.9643375404,
			"0.006": 6.10963674548,
			"0.007": 2.95012498835,
			"0.008": 1.95232189972,
			"0.009": 2.52358309918,
			"0.01": 2.14520834837,
			"0.011": 2.71626338008,
			"0.012": 4.04787505558,
			"0.013": 2.62081685542,
			"0.014": 0.0995571337481,
			"0.015": 0.0,
			"0.016": 0.0,
			"0.017": 0.0,
			"0.018": 0.0,
			"0.019": 0.0,
			"0.02": 0.0,
			"0.021": 0.0,
			"0.022": 0.0,
			"0.023": 0.0,
			"0.024": 0.0,
			"0.025": 0.0
		}
	}
}
