{
	 "smiles": "CN(C)C1=CC=C(C=C1)C1C2=C(NC3=C1C(=O)CC(C)(C)C3)C1=C(C=CC=C1)C=C2", 
	 "Tm": 544.15, 
	 "num_atms": 58, 
	 "gaussian": { 
		 "optdone": 1, 
		 "sigma_profile": "yes", 
		 "theory": "DFT", 
		 "functional": "B3LYP", 
		 "basiset": "6-31G**", 
		 "properties": { 
			 "R2extent": 13975.5422, 
			 "electric_dipole_moment_norm": 4.22421948649, 
			 "electric_quadrupole_moment_norm": 15.9044071232, 
			 "total_energy": -1230.50837853, 
			 "HOMO_LUMO_gap": 0.13217, 
			 "cosmo_polarized_energy": -20.28, 
			 "cosmo_cavitation_energy": 56.71, 
			 "cosmo_dispersion_energy": -38.98, 
			 "cosmo_repulsion_energy": 2.9, 
			 "cosmo_total_nonelectrostatic_energy": 20.62, 
			 "SMD_solvation_energy": 8.15 
		},
		"coords": [
			{
				"x": 5.9548691846,
				"y": -2.0172536989,
				"z": 2.2241679292,
				"element": "C" 
			},
			{
				"x": 5.4529126435,
				"y": -1.0614540989,
				"z": 1.2519998288,
				"element": "N" 
			},
			{
				"x": 6.287393156,
				"y": -0.7808780623,
				"z": 0.0969420281,
				"element": "C" 
			},
			{
				"x": 4.0754977988,
				"y": -0.8584179037,
				"z": 1.1548197299,
				"element": "C" 
			},
			{
				"x": 3.5098629678,
				"y": -0.1430487209,
				"z": 0.075959746,
				"element": "C" 
			},
			{
				"x": 2.1389880026,
				"y": 0.0891774399,
				"z": 0.008945192,
				"element": "C" 
			},
			{
				"x": 1.2615868869,
				"y": -0.3792315116,
				"z": 0.9937027043,
				"element": "C" 
			},
			{
				"x": 1.8182898796,
				"y": -1.1038397113,
				"z": 2.0541544923,
				"element": "C" 
			},
			{
				"x": 3.186425053,
				"y": -1.345646096,
				"z": 2.1381519622,
				"element": "C" 
			},
			{
				"x": -0.2542176543,
				"y": -0.1505064352,
				"z": 0.9126631562,
				"element": "C" 
			},
			{
				"x": -0.5921433809,
				"y": 1.2574773784,
				"z": 0.4446215361,
				"element": "C" 
			},
			{
				"x": -1.0319406606,
				"y": 1.5017926944,
				"z": -0.8490559108,
				"element": "C" 
			},
			{
				"x": -1.2816150272,
				"y": 0.4121117838,
				"z": -1.6990616936,
				"element": "N" 
			},
			{
				"x": -1.3585189084,
				"y": -0.8786988777,
				"z": -1.2270730491,
				"element": "C" 
			},
			{
				"x": -0.9288280714,
				"y": -1.1887630737,
				"z": 0.0288097757,
				"element": "C" 
			},
			{
				"x": -1.1299888694,
				"y": -2.5337163218,
				"z": 0.5642425571,
				"element": "C" 
			},
			{
				"x": -0.8789434464,
				"y": -2.8151886098,
				"z": 1.7358516355,
				"element": "O" 
			},
			{
				"x": -1.646648596,
				"y": -3.6084349547,
				"z": -0.3905956443,
				"element": "C" 
			},
			{
				"x": -2.6070747513,
				"y": -3.0899574322,
				"z": -1.4813227421,
				"element": "C" 
			},
			{
				"x": -3.9413459405,
				"y": -2.6427334362,
				"z": -0.8511653328,
				"element": "C" 
			},
			{
				"x": -2.8839988159,
				"y": -4.199841,
				"z": -2.5091944419,
				"element": "C" 
			},
			{
				"x": -1.9200721843,
				"y": -1.8983969947,
				"z": -2.1880529605,
				"element": "C" 
			},
			{
				"x": -1.2582026763,
				"y": 2.8383735251,
				"z": -1.3217077907,
				"element": "C" 
			},
			{
				"x": -1.0681441005,
				"y": 3.9228124058,
				"z": -0.40331477,
				"element": "C" 
			},
			{
				"x": -1.3020913516,
				"y": 5.2508256402,
				"z": -0.848376132,
				"element": "C" 
			},
			{
				"x": -1.6974766274,
				"y": 5.513205034,
				"z": -2.1405935619,
				"element": "C" 
			},
			{
				"x": -1.8709896383,
				"y": 4.4470081836,
				"z": -3.0519360759,
				"element": "C" 
			},
			{
				"x": -1.6565715645,
				"y": 3.1454688507,
				"z": -2.6510553111,
				"element": "C" 
			},
			{
				"x": -0.6507561945,
				"y": 3.6461281125,
				"z": 0.92610727,
				"element": "C" 
			},
			{
				"x": -0.4133644522,
				"y": 2.3536406424,
				"z": 1.3238492487,
				"element": "C" 
			},
			{
				"x": 7.0454831387,
				"y": -2.0339449863,
				"z": 2.178166887,
				"element": "H" 
			},
			{
				"x": 5.5867917503,
				"y": -3.0425329625,
				"z": 2.0559581681,
				"element": "H" 
			},
			{
				"x": 5.6756753503,
				"y": -1.7235295398,
				"z": 3.2418572647,
				"element": "H" 
			},
			{
				"x": 7.3302830211,
				"y": -0.9765077302,
				"z": 0.3536245265,
				"element": "H" 
			},
			{
				"x": 6.2150094319,
				"y": 0.273437827,
				"z": -0.1919895453,
				"element": "H" 
			},
			{
				"x": 6.029588908,
				"y": -1.3907431605,
				"z": -0.7845965291,
				"element": "H" 
			},
			{
				"x": 4.1389398365,
				"y": 0.2424825575,
				"z": -0.7172311159,
				"element": "H" 
			},
			{
				"x": 1.7511814839,
				"y": 0.6570688271,
				"z": -0.8326257952,
				"element": "H" 
			},
			{
				"x": 1.1603795248,
				"y": -1.5143393164,
				"z": 2.8139260942,
				"element": "H" 
			},
			{
				"x": 3.5577177676,
				"y": -1.9206327611,
				"z": 2.9777113752,
				"element": "H" 
			},
			{
				"x": -0.6435751847,
				"y": -0.2860673401,
				"z": 1.928612113,
				"element": "H" 
			},
			{
				"x": -1.7483214091,
				"y": 0.6024391782,
				"z": -2.5712421239,
				"element": "H" 
			},
			{
				"x": -0.7643494019,
				"y": -4.0583598441,
				"z": -0.870186363,
				"element": "H" 
			},
			{
				"x": -2.1122867853,
				"y": -4.3938663087,
				"z": 0.2129537735,
				"element": "H" 
			},
			{
				"x": -3.7982750727,
				"y": -1.8410495374,
				"z": -0.1210561696,
				"element": "H" 
			},
			{
				"x": -4.6343145969,
				"y": -2.2817591316,
				"z": -1.6199243562,
				"element": "H" 
			},
			{
				"x": -4.4221782348,
				"y": -3.4813625252,
				"z": -0.3366752205,
				"element": "H" 
			},
			{
				"x": -1.9580927669,
				"y": -4.5503824343,
				"z": -2.9789482172,
				"element": "H" 
			},
			{
				"x": -3.5522864381,
				"y": -3.8462578687,
				"z": -3.3032569329,
				"element": "H" 
			},
			{
				"x": -3.3631237559,
				"y": -5.0607568447,
				"z": -2.0307598958,
				"element": "H" 
			},
			{
				"x": -1.098316311,
				"y": -2.2750573777,
				"z": -2.8147379829,
				"element": "H" 
			},
			{
				"x": -2.6313971539,
				"y": -1.4142318997,
				"z": -2.8719743841,
				"element": "H" 
			},
			{
				"x": -1.1580278586,
				"y": 6.0640258605,
				"z": -0.1416383792,
				"element": "H" 
			},
			{
				"x": -1.8705994479,
				"y": 6.5352147136,
				"z": -2.4644134317,
				"element": "H" 
			},
			{
				"x": -2.1700584882,
				"y": 4.6540465052,
				"z": -4.075271335,
				"element": "H" 
			},
			{
				"x": -1.7765466962,
				"y": 2.3575751918,
				"z": -3.3897324915,
				"element": "H" 
			},
			{
				"x": -0.5118223635,
				"y": 4.4729368657,
				"z": 1.6168435576,
				"element": "H" 
			},
			{
				"x": -0.0703709081,
				"y": 2.147739291,
				"z": 2.3341231334,
				"element": "H" 
			}
		],
		 "valence_orbital": [ 
			{
				"type": "occ",
				"energy": -0.22957,
				"method": "rhf"
			},
			{
				"type": "occ",
				"energy": -0.2277,
				"method": "rhf"
			},
			{
				"type": "occ",
				"energy": -0.22023,
				"method": "rhf"
			},
			{
				"type": "occ",
				"energy": -0.18803,
				"method": "rhf"
			},
			{
				"type": "occ",
				"energy": -0.17561,
				"method": "rhf"
			},
			{
				"type": "unocc",
				"energy": -0.04344,
				"method": "rhf"
			},
			{
				"type": "unocc",
				"energy": -0.01716,
				"method": "rhf"
			},
			{
				"type": "unocc",
				"energy": -0.0096,
				"method": "rhf"
			},
			{
				"type": "unocc",
				"energy": 0.01907,
				"method": "rhf"
			},
			{
				"type": "unocc",
				"energy": 0.02911,
				"method": "rhf"
			}
		],
		"cosmo_sigma_profile": { 
			"-0.025": 0.0,
			"-0.024": 0.0,
			"-0.023": 0.0,
			"-0.022": 0.0,
			"-0.021": 0.0,
			"-0.02": 0.0,
			"-0.019": 0.0,
			"-0.018": 0.0,
			"-0.017": 0.0,
			"-0.016": 0.0285377746943,
			"-0.015": 0.702583460631,
			"-0.014": 1.20256929714,
			"-0.013": 1.21455398159,
			"-0.012": 1.18566900292,
			"-0.011": 1.3693246944,
			"-0.01": 1.76400897778,
			"-0.009": 1.46297759257,
			"-0.008": 1.67395577326,
			"-0.007": 1.95958736617,
			"-0.006": 11.2476505495,
			"-0.005": 26.5194371865,
			"-0.004": 35.8164203623,
			"-0.003": 51.6383439859,
			"-0.002": 48.6955726878,
			"-0.001": 47.6562710534,
			"0.0": 37.0636787401,
			"0.001": 32.0943140757,
			"0.002": 24.9230294169,
			"0.003": 21.5501568199,
			"0.004": 26.6973662735,
			"0.005": 24.0628455344,
			"0.006": 13.7746170383,
			"0.007": 11.3478985598,
			"0.008": 6.77816941543,
			"0.009": 2.6719770468,
			"0.01": 1.4952517384,
			"0.011": 1.40616973521,
			"0.012": 2.297001391,
			"0.013": 2.49369568612,
			"0.014": 2.57297736855,
			"0.015": 1.72195399245,
			"0.016": 0.248648381864,
			"0.017": 0.0,
			"0.018": 0.0,
			"0.019": 0.0,
			"0.02": 0.0,
			"0.021": 0.0,
			"0.022": 0.0,
			"0.023": 0.0,
			"0.024": 0.0,
			"0.025": 0.0
		}
	}
}
