{
	 "smiles": "CCC(C)(O)C(O)=O", 
	 "Tm": 347.15, 
	 "num_atms": 18, 
	 "gaussian": { 
		 "optdone": 1, 
		 "sigma_profile": "yes", 
		 "theory": "DFT", 
		 "functional": "B3LYP", 
		 "basiset": "6-31G**", 
		 "properties": { 
			 "R2extent": 1315.9745, 
			 "electric_dipole_moment_norm": 2.24002958909, 
			 "electric_quadrupole_moment_norm": 6.29518264231, 
			 "total_energy": -422.252404117, 
			 "HOMO_LUMO_gap": 0.26244, 
			 "cosmo_polarized_energy": -9.25, 
			 "cosmo_cavitation_energy": 20.68, 
			 "cosmo_dispersion_energy": -14.96, 
			 "cosmo_repulsion_energy": 1.26, 
			 "cosmo_total_nonelectrostatic_energy": 6.98, 
			 "SMD_solvation_energy": 4.87 
		},
		"coords": [
			{
				"x": 1.6783794257,
				"y": 0.2466111323,
				"z": -1.0879551009,
				"element": "C" 
			},
			{
				"x": 0.4326806875,
				"y": -0.1576753096,
				"z": -0.2963457219,
				"element": "C" 
			},
			{
				"x": -0.2918910577,
				"y": 1.0304124063,
				"z": 0.378053563,
				"element": "C" 
			},
			{
				"x": -1.529567757,
				"y": 0.5514266682,
				"z": 1.1599866382,
				"element": "C" 
			},
			{
				"x": 0.6023230898,
				"y": 1.6742425598,
				"z": 1.2697864386,
				"element": "O" 
			},
			{
				"x": -0.7256067642,
				"y": 2.0596256678,
				"z": -0.6691620549,
				"element": "C" 
			},
			{
				"x": -1.5433762581,
				"y": 1.5612252931,
				"z": -1.6150212961,
				"element": "O" 
			},
			{
				"x": -0.3752986478,
				"y": 3.2236379857,
				"z": -0.6453178744,
				"element": "O" 
			},
			{
				"x": 1.4244900156,
				"y": 0.862052394,
				"z": -1.9587637209,
				"element": "H" 
			},
			{
				"x": 2.3610200607,
				"y": 0.8182236703,
				"z": -0.4539977551,
				"element": "H" 
			},
			{
				"x": 2.2083181431,
				"y": -0.6371989088,
				"z": -1.4556425929,
				"element": "H" 
			},
			{
				"x": 0.7148237995,
				"y": -0.8433333633,
				"z": 0.5110969574,
				"element": "H" 
			},
			{
				"x": -0.2777584052,
				"y": -0.6893847014,
				"z": -0.9383938297,
				"element": "H" 
			},
			{
				"x": -2.0279273962,
				"y": 1.399158808,
				"z": 1.6393646399,
				"element": "H" 
			},
			{
				"x": -2.2440601967,
				"y": 0.0387354721,
				"z": 0.5106388423,
				"element": "H" 
			},
			{
				"x": -1.2027209638,
				"y": -0.1361969481,
				"z": 1.94474389,
				"element": "H" 
			},
			{
				"x": 0.6336115738,
				"y": 2.6068153521,
				"z": 0.9992040149,
				"element": "H" 
			},
			{
				"x": -1.7598393491,
				"y": 2.2977218215,
				"z": -2.2118750378,
				"element": "H" 
			}
		],
		 "valence_orbital": [ 
			{
				"type": "occ",
				"energy": -0.34525,
				"method": "rhf"
			},
			{
				"type": "occ",
				"energy": -0.33686,
				"method": "rhf"
			},
			{
				"type": "occ",
				"energy": -0.33389,
				"method": "rhf"
			},
			{
				"type": "occ",
				"energy": -0.29041,
				"method": "rhf"
			},
			{
				"type": "occ",
				"energy": -0.26626,
				"method": "rhf"
			},
			{
				"type": "unocc",
				"energy": -0.00382,
				"method": "rhf"
			},
			{
				"type": "unocc",
				"energy": 0.05996,
				"method": "rhf"
			},
			{
				"type": "unocc",
				"energy": 0.0992,
				"method": "rhf"
			},
			{
				"type": "unocc",
				"energy": 0.12393,
				"method": "rhf"
			},
			{
				"type": "unocc",
				"energy": 0.13233,
				"method": "rhf"
			}
		],
		"cosmo_sigma_profile": { 
			"-0.025": 0.0,
			"-0.024": 0.0,
			"-0.023": 0.0,
			"-0.022": 0.0,
			"-0.021": 0.0,
			"-0.02": 0.0,
			"-0.019": 0.523150689393,
			"-0.018": 0.956063789257,
			"-0.017": 0.907684825939,
			"-0.016": 0.766026687208,
			"-0.015": 0.813201042278,
			"-0.014": 1.27236152359,
			"-0.013": 0.734749947495,
			"-0.012": 0.422302256051,
			"-0.011": 0.453035745793,
			"-0.01": 1.10888435544,
			"-0.009": 1.13804732662,
			"-0.008": 1.99499624061,
			"-0.007": 1.52708300778,
			"-0.006": 0.595813380778,
			"-0.005": 2.89930810864,
			"-0.004": 10.8042857215,
			"-0.003": 17.1402542889,
			"-0.002": 16.5424662122,
			"-0.001": 19.9551956295,
			"0.0": 21.1155901924,
			"0.001": 14.8414743508,
			"0.002": 5.82651107375,
			"0.003": 3.30988809856,
			"0.004": 3.99443867554,
			"0.005": 4.49119541199,
			"0.006": 3.55086752096,
			"0.007": 4.37044744008,
			"0.008": 2.78905846693,
			"0.009": 2.75995022746,
			"0.01": 4.52169124015,
			"0.011": 3.82772898391,
			"0.012": 1.44450371975,
			"0.013": 1.47568613719,
			"0.014": 1.34578019741,
			"0.015": 0.0992723101734,
			"0.016": 0.0,
			"0.017": 0.0,
			"0.018": 0.0,
			"0.019": 0.0,
			"0.02": 0.0,
			"0.021": 0.0,
			"0.022": 0.0,
			"0.023": 0.0,
			"0.024": 0.0,
			"0.025": 0.0
		}
	}
}
