{
	 "smiles": "CO[Si](OC)(OC)OC", 
	 "Tm": 277.65, 
	 "num_atms": 21, 
	 "gaussian": { 
		 "optdone": 1, 
		 "sigma_profile": "yes", 
		 "theory": "DFT", 
		 "functional": "B3LYP", 
		 "basiset": "6-31G**", 
		 "properties": { 
			 "R2extent": 1841.2851, 
			 "electric_dipole_moment_norm": 0.00142126704036, 
			 "electric_quadrupole_moment_norm": 1.54594240837, 
			 "total_energy": -750.187628458, 
			 "HOMO_LUMO_gap": 0.33676, 
			 "cosmo_polarized_energy": -7.09, 
			 "cosmo_cavitation_energy": 25.93, 
			 "cosmo_dispersion_energy": -16.43, 
			 "cosmo_repulsion_energy": 1.5, 
			 "cosmo_total_nonelectrostatic_energy": 11.01, 
			 "SMD_solvation_energy": 6.85 
		},
		"coords": [
			{
				"x": -0.66623626,
				"y": 3.0596853037,
				"z": -0.8617275449,
				"element": "C" 
			},
			{
				"x": -0.3692438205,
				"y": 1.6676344741,
				"z": -0.83860098,
				"element": "O" 
			},
			{
				"x": 0.3692037035,
				"y": 0.9050828962,
				"z": 0.4170318934,
				"element": "Si" 
			},
			{
				"x": 1.6251100285,
				"y": 1.8609929837,
				"z": 0.8775673675,
				"element": "O" 
			},
			{
				"x": 2.3658220101,
				"y": 1.6804283679,
				"z": 2.079758785,
				"element": "C" 
			},
			{
				"x": 0.7895609162,
				"y": -0.5910354372,
				"z": -0.11969173,
				"element": "O" 
			},
			{
				"x": 1.3950441389,
				"y": -0.8442473961,
				"z": -1.3829402872,
				"element": "C" 
			},
			{
				"x": -0.5687784572,
				"y": 0.6829617787,
				"z": 1.748998714,
				"element": "O" 
			},
			{
				"x": -1.6193648537,
				"y": -0.2739521408,
				"z": 1.8334943458,
				"element": "C" 
			},
			{
				"x": -0.995698593,
				"y": 3.3187251437,
				"z": -1.8719674294,
				"element": "H" 
			},
			{
				"x": 0.2151530301,
				"y": 3.6590079628,
				"z": -0.6091039989,
				"element": "H" 
			},
			{
				"x": -1.472603765,
				"y": 3.3034539082,
				"z": -0.1589097194,
				"element": "H" 
			},
			{
				"x": 2.9942104526,
				"y": 0.7827560989,
				"z": 2.0257154334,
				"element": "H" 
			},
			{
				"x": 3.0144936652,
				"y": 2.5511046185,
				"z": 2.2116465382,
				"element": "H" 
			},
			{
				"x": 1.7023752727,
				"y": 1.5950839235,
				"z": 2.9471730556,
				"element": "H" 
			},
			{
				"x": 2.4319517596,
				"y": -0.4864468429,
				"z": -1.4028046018,
				"element": "H" 
			},
			{
				"x": 0.8396445693,
				"y": -0.3619418581,
				"z": -2.1945802771,
				"element": "H" 
			},
			{
				"x": 1.3975188294,
				"y": -1.9256880293,
				"z": -1.546444682,
				"element": "H" 
			},
			{
				"x": -2.4741089035,
				"y": 0.0219461777,
				"z": 1.212638966,
				"element": "H" 
			},
			{
				"x": -1.9479181149,
				"y": -0.324838564,
				"z": 2.8754681912,
				"element": "H" 
			},
			{
				"x": -1.2803356083,
				"y": -1.2664133691,
				"z": 1.5173779607,
				"element": "H" 
			}
		],
		 "valence_orbital": [ 
			{
				"type": "occ",
				"energy": -0.30803,
				"method": "rhf"
			},
			{
				"type": "occ",
				"energy": -0.29527,
				"method": "rhf"
			},
			{
				"type": "occ",
				"energy": -0.28653,
				"method": "rhf"
			},
			{
				"type": "occ",
				"energy": -0.27578,
				"method": "rhf"
			},
			{
				"type": "occ",
				"energy": -0.27574,
				"method": "rhf"
			},
			{
				"type": "unocc",
				"energy": 0.06102,
				"method": "rhf"
			},
			{
				"type": "unocc",
				"energy": 0.09638,
				"method": "rhf"
			},
			{
				"type": "unocc",
				"energy": 0.10291,
				"method": "rhf"
			},
			{
				"type": "unocc",
				"energy": 0.10297,
				"method": "rhf"
			},
			{
				"type": "unocc",
				"energy": 0.13018,
				"method": "rhf"
			}
		],
		"cosmo_sigma_profile": { 
			"-0.025": 0.0,
			"-0.024": 0.0,
			"-0.023": 0.0,
			"-0.022": 0.0,
			"-0.021": 0.0,
			"-0.02": 0.0,
			"-0.019": 0.0,
			"-0.018": 0.0,
			"-0.017": 0.0,
			"-0.016": 0.0,
			"-0.015": 0.0,
			"-0.014": 0.0,
			"-0.013": 0.0,
			"-0.012": 0.0,
			"-0.011": 0.0,
			"-0.01": 0.0,
			"-0.009": 0.0,
			"-0.008": 0.0,
			"-0.007": 0.0,
			"-0.006": 0.3522344712,
			"-0.005": 13.0208318605,
			"-0.004": 26.2613420069,
			"-0.003": 34.3814405412,
			"-0.002": 30.5266116016,
			"-0.001": 14.5990886263,
			"0.0": 11.1591180442,
			"0.001": 9.12330158073,
			"0.002": 7.68549095512,
			"0.003": 8.15428458422,
			"0.004": 7.90953585847,
			"0.005": 7.71179000249,
			"0.006": 6.14480499352,
			"0.007": 5.85501785636,
			"0.008": 4.58449691977,
			"0.009": 4.33617885431,
			"0.01": 2.79969810552,
			"0.011": 2.59888911572,
			"0.012": 1.86422357581,
			"0.013": 0.079545827122,
			"0.014": 0.0,
			"0.015": 0.0,
			"0.016": 0.0,
			"0.017": 0.0,
			"0.018": 0.0,
			"0.019": 0.0,
			"0.02": 0.0,
			"0.021": 0.0,
			"0.022": 0.0,
			"0.023": 0.0,
			"0.024": 0.0,
			"0.025": 0.0
		}
	}
}
