{
	 "smiles": "COC(=O)CS(N)(=O)=O", 
	 "Tm": 331.15, 
	 "num_atms": 16, 
	 "gaussian": { 
		 "optdone": 1, 
		 "sigma_profile": "yes", 
		 "theory": "DFT", 
		 "functional": "B3LYP", 
		 "basiset": "6-31G**", 
		 "properties": { 
			 "R2extent": 1725.0378, 
			 "electric_dipole_moment_norm": 4.6051634553, 
			 "electric_quadrupole_moment_norm": 18.8409173256, 
			 "total_energy": -872.303025409, 
			 "HOMO_LUMO_gap": 0.28456, 
			 "cosmo_polarized_energy": -21.05, 
			 "cosmo_cavitation_energy": 22.13, 
			 "cosmo_dispersion_energy": -16.79, 
			 "cosmo_repulsion_energy": 1.36, 
			 "cosmo_total_nonelectrostatic_energy": 6.7, 
			 "SMD_solvation_energy": 5.13 
		},
		"coords": [
			{
				"x": -3.392388586,
				"y": -1.2903921288,
				"z": -1.2085499769,
				"element": "C" 
			},
			{
				"x": -2.3125220022,
				"y": -0.3424643151,
				"z": -1.0957250618,
				"element": "O" 
			},
			{
				"x": -1.1676087409,
				"y": -0.8385226633,
				"z": -0.5865688774,
				"element": "C" 
			},
			{
				"x": -1.0077091528,
				"y": -1.9818936439,
				"z": -0.2368016927,
				"element": "O" 
			},
			{
				"x": -0.1317729105,
				"y": 0.2744446945,
				"z": -0.5311771843,
				"element": "C" 
			},
			{
				"x": 1.4601117269,
				"y": -0.2806283358,
				"z": 0.1420648378,
				"element": "S" 
			},
			{
				"x": 2.3212658876,
				"y": 1.1801023261,
				"z": 0.0492836683,
				"element": "N" 
			},
			{
				"x": 2.0691739133,
				"y": -1.2074987413,
				"z": -0.8106187212,
				"element": "O" 
			},
			{
				"x": 1.2813468251,
				"y": -0.5925265706,
				"z": 1.5592555174,
				"element": "O" 
			},
			{
				"x": -4.227462302,
				"y": -0.7327778717,
				"z": -1.6308707482,
				"element": "H" 
			},
			{
				"x": -3.652628644,
				"y": -1.6908745294,
				"z": -0.2260008077,
				"element": "H" 
			},
			{
				"x": -3.1079735888,
				"y": -2.1163068964,
				"z": -1.8646616284,
				"element": "H" 
			},
			{
				"x": -0.4873175317,
				"y": 1.0940661961,
				"z": 0.0978573173,
				"element": "H" 
			},
			{
				"x": 0.0545073037,
				"y": 0.6709476178,
				"z": -1.5321578034,
				"element": "H" 
			},
			{
				"x": 2.6111222511,
				"y": 1.4550650855,
				"z": 0.9844611328,
				"element": "H" 
			},
			{
				"x": 3.1250555513,
				"y": 1.0539597764,
				"z": -0.5607899715,
				"element": "H" 
			}
		],
		 "valence_orbital": [ 
			{
				"type": "occ",
				"energy": -0.32101,
				"method": "rhf"
			},
			{
				"type": "occ",
				"energy": -0.31411,
				"method": "rhf"
			},
			{
				"type": "occ",
				"energy": -0.30589,
				"method": "rhf"
			},
			{
				"type": "occ",
				"energy": -0.29645,
				"method": "rhf"
			},
			{
				"type": "occ",
				"energy": -0.28991,
				"method": "rhf"
			},
			{
				"type": "unocc",
				"energy": -0.00535,
				"method": "rhf"
			},
			{
				"type": "unocc",
				"energy": 0.04983,
				"method": "rhf"
			},
			{
				"type": "unocc",
				"energy": 0.06524,
				"method": "rhf"
			},
			{
				"type": "unocc",
				"energy": 0.07877,
				"method": "rhf"
			},
			{
				"type": "unocc",
				"energy": 0.08785,
				"method": "rhf"
			}
		],
		"cosmo_sigma_profile": { 
			"-0.025": 0.0,
			"-0.024": 0.0,
			"-0.023": 0.0,
			"-0.022": 0.0,
			"-0.021": 0.0,
			"-0.02": 0.0,
			"-0.019": 0.0,
			"-0.018": 0.0,
			"-0.017": 0.0,
			"-0.016": 0.0,
			"-0.015": 1.43766600897,
			"-0.014": 2.58689132889,
			"-0.013": 2.60807365624,
			"-0.012": 2.09231199948,
			"-0.011": 3.57690582142,
			"-0.01": 6.00405262654,
			"-0.009": 4.91170200627,
			"-0.008": 5.06949079333,
			"-0.007": 8.17662898354,
			"-0.006": 11.5208324119,
			"-0.005": 10.7930450559,
			"-0.004": 13.9774172708,
			"-0.003": 9.28524568675,
			"-0.002": 6.69941779301,
			"-0.001": 5.86570586057,
			"0.0": 4.24465614862,
			"0.001": 4.26732789605,
			"0.002": 4.13750506739,
			"0.003": 4.36790967252,
			"0.004": 2.87263086325,
			"0.005": 4.910304971,
			"0.006": 4.32527033853,
			"0.007": 5.98101094061,
			"0.008": 5.46042285624,
			"0.009": 5.30136345532,
			"0.01": 15.5791518518,
			"0.011": 16.178902468,
			"0.012": 2.39949866507,
			"0.013": 0.0,
			"0.014": 0.0,
			"0.015": 0.0,
			"0.016": 0.0,
			"0.017": 0.0,
			"0.018": 0.0,
			"0.019": 0.0,
			"0.02": 0.0,
			"0.021": 0.0,
			"0.022": 0.0,
			"0.023": 0.0,
			"0.024": 0.0,
			"0.025": 0.0
		}
	}
}
