{
	 "smiles": "[O-][N+](=O)C1=CC=CC(NC2=NC(Cl)=C(C#N)C(=C2)C(F)(F)F)=C1", 
	 "Tm": 551.15, 
	 "num_atms": 29, 
	 "gaussian": { 
		 "optdone": 1, 
		 "sigma_profile": "yes", 
		 "theory": "DFT", 
		 "functional": "B3LYP", 
		 "basiset": "6-31G**", 
		 "properties": { 
			 "R2extent": 10413.9585, 
			 "electric_dipole_moment_norm": 8.07245171803, 
			 "electric_quadrupole_moment_norm": 22.6969787044, 
			 "total_energy": -1628.05218194, 
			 "HOMO_LUMO_gap": 0.14124, 
			 "cosmo_polarized_energy": -19.99, 
			 "cosmo_cavitation_energy": 39.93, 
			 "cosmo_dispersion_energy": -27.22, 
			 "cosmo_repulsion_energy": 2.01, 
			 "cosmo_total_nonelectrostatic_energy": 14.71, 
			 "SMD_solvation_energy": 9.48 
		},
		"coords": [
			{
				"x": -1.0941715666,
				"y": -4.4602072099,
				"z": 3.1484556816,
				"element": "O" 
			},
			{
				"x": -0.5199994229,
				"y": -3.8152199435,
				"z": 2.27440048,
				"element": "N" 
			},
			{
				"x": -0.0272853275,
				"y": -4.2921754181,
				"z": 1.2535772971,
				"element": "O" 
			},
			{
				"x": -0.4158842289,
				"y": -2.3541154138,
				"z": 2.4642235431,
				"element": "C" 
			},
			{
				"x": -0.977005416,
				"y": -1.7832022529,
				"z": 3.6017912142,
				"element": "C" 
			},
			{
				"x": -0.8466675215,
				"y": -0.404347183,
				"z": 3.7676667813,
				"element": "C" 
			},
			{
				"x": -0.1948313437,
				"y": 0.3672919138,
				"z": 2.8094343258,
				"element": "C" 
			},
			{
				"x": 0.3608598766,
				"y": -0.2291539999,
				"z": 1.6632170542,
				"element": "C" 
			},
			{
				"x": 1.0477560148,
				"y": 0.5927865748,
				"z": 0.753635108,
				"element": "N" 
			},
			{
				"x": 1.190712548,
				"y": 0.4889783015,
				"z": -0.6090387883,
				"element": "C" 
			},
			{
				"x": 2.0662986179,
				"y": 1.3698537763,
				"z": -1.1269555327,
				"element": "N" 
			},
			{
				"x": 2.2697710395,
				"y": 1.379680443,
				"z": -2.4258881454,
				"element": "C" 
			},
			{
				"x": 3.4175385905,
				"y": 2.5557384513,
				"z": -3.0157400591,
				"element": "Cl" 
			},
			{
				"x": 1.631151208,
				"y": 0.5179328664,
				"z": -3.3426799387,
				"element": "C" 
			},
			{
				"x": 1.9089800464,
				"y": 0.5711001764,
				"z": -4.7404965268,
				"element": "C" 
			},
			{
				"x": 2.1406612875,
				"y": 0.6200669969,
				"z": -5.8791215547,
				"element": "N" 
			},
			{
				"x": 0.6984873794,
				"y": -0.3862314565,
				"z": -2.7850129018,
				"element": "C" 
			},
			{
				"x": 0.4677428232,
				"y": -0.4085864668,
				"z": -1.4223893623,
				"element": "C" 
			},
			{
				"x": -0.0712558572,
				"y": -1.3337900317,
				"z": -3.6871614026,
				"element": "C" 
			},
			{
				"x": 0.7659103579,
				"y": -2.1494987652,
				"z": -4.3510582323,
				"element": "F" 
			},
			{
				"x": -0.922208915,
				"y": -2.1036943042,
				"z": -2.9803318902,
				"element": "F" 
			},
			{
				"x": -0.7930967784,
				"y": -0.6516881143,
				"z": -4.5941260749,
				"element": "F" 
			},
			{
				"x": 0.2630288489,
				"y": -1.6159995836,
				"z": 1.4991899242,
				"element": "C" 
			},
			{
				"x": -1.4899611387,
				"y": -2.4079300893,
				"z": 4.3211020505,
				"element": "H" 
			},
			{
				"x": -1.2686302934,
				"y": 0.0752511718,
				"z": 4.6447696665,
				"element": "H" 
			},
			{
				"x": -0.1172820316,
				"y": 1.4431752421,
				"z": 2.9380401876,
				"element": "H" 
			},
			{
				"x": 1.5224255566,
				"y": 1.402915588,
				"z": 1.131543204,
				"element": "H" 
			},
			{
				"x": -0.2686323052,
				"y": -1.0827919045,
				"z": -1.0111344987,
				"element": "H" 
			},
			{
				"x": 0.7205879514,
				"y": -2.1364393652,
				"z": 0.6692883903,
				"element": "H" 
			}
		],
		 "valence_orbital": [ 
			{
				"type": "occ",
				"energy": -0.31443,
				"method": "rhf"
			},
			{
				"type": "occ",
				"energy": -0.30767,
				"method": "rhf"
			},
			{
				"type": "occ",
				"energy": -0.30417,
				"method": "rhf"
			},
			{
				"type": "occ",
				"energy": -0.2946,
				"method": "rhf"
			},
			{
				"type": "occ",
				"energy": -0.24818,
				"method": "rhf"
			},
			{
				"type": "unocc",
				"energy": -0.10694,
				"method": "rhf"
			},
			{
				"type": "unocc",
				"energy": -0.08588,
				"method": "rhf"
			},
			{
				"type": "unocc",
				"energy": -0.06868,
				"method": "rhf"
			},
			{
				"type": "unocc",
				"energy": -0.03981,
				"method": "rhf"
			},
			{
				"type": "unocc",
				"energy": -0.01892,
				"method": "rhf"
			}
		],
		"cosmo_sigma_profile": { 
			"-0.025": 0.0,
			"-0.024": 0.0,
			"-0.023": 0.0,
			"-0.022": 0.0,
			"-0.021": 0.0,
			"-0.02": 0.0,
			"-0.019": 0.0,
			"-0.018": 0.0,
			"-0.017": 0.0,
			"-0.016": 0.608171248871,
			"-0.015": 1.19359293826,
			"-0.014": 1.2890512769,
			"-0.013": 1.22392762036,
			"-0.012": 1.22407360284,
			"-0.011": 1.12025274839,
			"-0.01": 1.13077496447,
			"-0.009": 2.31500487312,
			"-0.008": 7.27496591679,
			"-0.007": 11.6478398236,
			"-0.006": 12.7984934962,
			"-0.005": 14.4817060235,
			"-0.004": 21.4169351852,
			"-0.003": 25.8375504701,
			"-0.002": 21.3896458367,
			"-0.001": 23.056839558,
			"0.0": 25.0005788026,
			"0.001": 31.3144818347,
			"0.002": 38.892028309,
			"0.003": 16.6593615216,
			"0.004": 9.46495601431,
			"0.005": 7.67705114539,
			"0.006": 7.72234698009,
			"0.007": 13.5926859578,
			"0.008": 10.1081273406,
			"0.009": 8.02335588146,
			"0.01": 5.01155954082,
			"0.011": 2.61622577843,
			"0.012": 1.92060135952,
			"0.013": 0.20279880845,
			"0.014": 0.0,
			"0.015": 0.0,
			"0.016": 0.0,
			"0.017": 0.0,
			"0.018": 0.0,
			"0.019": 0.0,
			"0.02": 0.0,
			"0.021": 0.0,
			"0.022": 0.0,
			"0.023": 0.0,
			"0.024": 0.0,
			"0.025": 0.0
		}
	}
}
