{
	 "smiles": "NC1CCC(N)CC1", 
	 "Tm": 342.65, 
	 "num_atms": 22, 
	 "gaussian": { 
		 "optdone": 1, 
		 "sigma_profile": "yes", 
		 "theory": "DFT", 
		 "functional": "B3LYP", 
		 "basiset": "6-31G**", 
		 "properties": { 
			 "R2extent": 1054.3876, 
			 "electric_dipole_moment_norm": 0.0, 
			 "electric_quadrupole_moment_norm": 9.43431869771, 
			 "total_energy": -346.582903382, 
			 "HOMO_LUMO_gap": 0.28464, 
			 "cosmo_polarized_energy": -9.1, 
			 "cosmo_cavitation_energy": 21.63, 
			 "cosmo_dispersion_energy": -16.53, 
			 "cosmo_repulsion_energy": 1.37, 
			 "cosmo_total_nonelectrostatic_energy": 6.47, 
			 "SMD_solvation_energy": 0.64 
		},
		"coords": [
			{
				"x": 1.6444541668,
				"y": -1.6765548235,
				"z": 0.260241448,
				"element": "N" 
			},
			{
				"x": 0.2591734141,
				"y": -1.1809381438,
				"z": 0.2048900317,
				"element": "C" 
			},
			{
				"x": 0.0593923251,
				"y": -0.3363534537,
				"z": -1.068317898,
				"element": "C" 
			},
			{
				"x": 0.7383100776,
				"y": 1.0412223499,
				"z": -0.9758683118,
				"element": "C" 
			},
			{
				"x": 0.2827632145,
				"y": 1.8451288526,
				"z": 0.2663191853,
				"element": "C" 
			},
			{
				"x": -1.1025180705,
				"y": 2.3407452031,
				"z": 0.2109678291,
				"element": "N" 
			},
			{
				"x": 0.4825441219,
				"y": 1.000544351,
				"z": 1.5395270568,
				"element": "C" 
			},
			{
				"x": -0.1963737676,
				"y": -0.3770312808,
				"z": 1.4470774441,
				"element": "C" 
			},
			{
				"x": 2.2952512263,
				"y": -0.901038559,
				"z": 0.3609521965,
				"element": "H" 
			},
			{
				"x": 1.7671088481,
				"y": -2.2516271797,
				"z": 1.0913266751,
				"element": "H" 
			},
			{
				"x": -0.375363756,
				"y": -2.0731572859,
				"z": 0.1232464505,
				"element": "H" 
			},
			{
				"x": 0.4405989099,
				"y": -0.8927095384,
				"z": -1.9305311389,
				"element": "H" 
			},
			{
				"x": -1.0179277041,
				"y": -0.1973753164,
				"z": -1.2302850932,
				"element": "H" 
			},
			{
				"x": 0.5338011493,
				"y": 1.6212522783,
				"z": -1.8852687348,
				"element": "H" 
			},
			{
				"x": 1.8297396708,
				"y": 0.9154285378,
				"z": -0.9418854087,
				"element": "H" 
			},
			{
				"x": 0.9172997324,
				"y": 2.7373483692,
				"z": 0.3479629061,
				"element": "H" 
			},
			{
				"x": -1.225171937,
				"y": 2.9158190154,
				"z": -0.6201163415,
				"element": "H" 
			},
			{
				"x": -1.7533146378,
				"y": 1.5652288494,
				"z": 0.1102553172,
				"element": "H" 
			},
			{
				"x": 0.1013374853,
				"y": 1.5569006238,
				"z": 2.4017401201,
				"element": "H" 
			},
			{
				"x": 1.5598642148,
				"y": 0.8615659903,
				"z": 1.7014942631,
				"element": "H" 
			},
			{
				"x": 0.0081346677,
				"y": -0.9570612404,
				"z": 2.3564780328,
				"element": "H" 
			},
			{
				"x": -1.2878033516,
				"y": -0.2512375992,
				"z": 1.4130939705,
				"element": "H" 
			}
		],
		 "valence_orbital": [ 
			{
				"type": "occ",
				"energy": -0.32918,
				"method": "rhf"
			},
			{
				"type": "occ",
				"energy": -0.30704,
				"method": "rhf"
			},
			{
				"type": "occ",
				"energy": -0.29569,
				"method": "rhf"
			},
			{
				"type": "occ",
				"energy": -0.2316,
				"method": "rhf"
			},
			{
				"type": "occ",
				"energy": -0.22652,
				"method": "rhf"
			},
			{
				"type": "unocc",
				"energy": 0.05812,
				"method": "rhf"
			},
			{
				"type": "unocc",
				"energy": 0.08477,
				"method": "rhf"
			},
			{
				"type": "unocc",
				"energy": 0.11013,
				"method": "rhf"
			},
			{
				"type": "unocc",
				"energy": 0.12989,
				"method": "rhf"
			},
			{
				"type": "unocc",
				"energy": 0.13597,
				"method": "rhf"
			}
		],
		"cosmo_sigma_profile": { 
			"-0.025": 0.0,
			"-0.024": 0.0,
			"-0.023": 0.0,
			"-0.022": 0.0,
			"-0.021": 0.0,
			"-0.02": 0.0,
			"-0.019": 0.0,
			"-0.018": 0.0,
			"-0.017": 0.0,
			"-0.016": 0.0,
			"-0.015": 0.0,
			"-0.014": 0.0,
			"-0.013": 0.0,
			"-0.012": 0.0,
			"-0.011": 0.0,
			"-0.01": 0.0191498726322,
			"-0.009": 2.04626612592,
			"-0.008": 5.39036091326,
			"-0.007": 5.7390753009,
			"-0.006": 7.95607842778,
			"-0.005": 6.68149972323,
			"-0.004": 8.32217773177,
			"-0.003": 10.6298548427,
			"-0.002": 21.210581371,
			"-0.001": 21.7046584046,
			"0.0": 20.5346763367,
			"0.001": 21.2996537858,
			"0.002": 5.59874733275,
			"0.003": 3.43173482918,
			"0.004": 2.75544626346,
			"0.005": 2.05295338625,
			"0.006": 1.16892174782,
			"0.007": 0.954128279837,
			"0.008": 1.16329206203,
			"0.009": 2.10210649892,
			"0.01": 2.34671047397,
			"0.011": 1.199433725,
			"0.012": 1.12780838285,
			"0.013": 0.987124329694,
			"0.014": 1.20942935904,
			"0.015": 1.72210515547,
			"0.016": 0.739689909992,
			"0.017": 1.31320377794,
			"0.018": 1.58552370895,
			"0.019": 0.814038734963,
			"0.02": 0.896957661042,
			"0.021": 0.156160559559,
			"0.022": 0.0,
			"0.023": 0.0,
			"0.024": 0.0,
			"0.025": 0.0
		}
	}
}
