{
	 "smiles": "O=C(CC(N1CCCCC1)C1=CC=CO1)CC1=CC=CC=C1", 
	 "Tm": 403.15, 
	 "num_atms": 45, 
	 "gaussian": { 
		 "optdone": 1, 
		 "sigma_profile": "yes", 
		 "theory": "DFT", 
		 "functional": "B3LYP", 
		 "basiset": "6-31G**", 
		 "properties": { 
			 "R2extent": 7745.2578, 
			 "electric_dipole_moment_norm": 3.71572400886, 
			 "electric_quadrupole_moment_norm": 16.1555917679, 
			 "total_energy": -943.05322138, 
			 "HOMO_LUMO_gap": 0.21525, 
			 "cosmo_polarized_energy": -14.3, 
			 "cosmo_cavitation_energy": 45.87, 
			 "cosmo_dispersion_energy": -30.09, 
			 "cosmo_repulsion_energy": 2.3, 
			 "cosmo_total_nonelectrostatic_energy": 18.08, 
			 "SMD_solvation_energy": 7.73 
		},
		"coords": [
			{
				"x": -1.5525089525,
				"y": 0.0844909472,
				"z": 2.5196436255,
				"element": "O" 
			},
			{
				"x": -0.9840321729,
				"y": -0.7323125228,
				"z": 1.8232602106,
				"element": "C" 
			},
			{
				"x": -1.7185319004,
				"y": -1.994509475,
				"z": 1.3567702535,
				"element": "C" 
			},
			{
				"x": -2.0195903632,
				"y": -2.120409626,
				"z": -0.1706710818,
				"element": "C" 
			},
			{
				"x": -0.8059807666,
				"y": -2.3461247423,
				"z": -0.9885250586,
				"element": "N" 
			},
			{
				"x": -1.0399051415,
				"y": -2.175885156,
				"z": -2.4333543175,
				"element": "C" 
			},
			{
				"x": 0.2677721355,
				"y": -2.2865736077,
				"z": -3.2234282523,
				"element": "C" 
			},
			{
				"x": 0.9631977532,
				"y": -3.6275542802,
				"z": -2.9668234145,
				"element": "C" 
			},
			{
				"x": 1.1216092271,
				"y": -3.8444162407,
				"z": -1.4584331961,
				"element": "C" 
			},
			{
				"x": -0.2156843892,
				"y": -3.6684462753,
				"z": -0.7312291554,
				"element": "C" 
			},
			{
				"x": -2.8241495811,
				"y": -0.9436474145,
				"z": -0.6358910436,
				"element": "C" 
			},
			{
				"x": -4.1211868144,
				"y": -0.8180111064,
				"z": -1.0384849675,
				"element": "C" 
			},
			{
				"x": -4.3369700516,
				"y": 0.5744162197,
				"z": -1.3077639794,
				"element": "C" 
			},
			{
				"x": -3.1546514322,
				"y": 1.1943752616,
				"z": -1.0503037603,
				"element": "C" 
			},
			{
				"x": -2.2206194227,
				"y": 0.2866827203,
				"z": -0.6400095008,
				"element": "O" 
			},
			{
				"x": 0.4811746165,
				"y": -0.5942456234,
				"z": 1.4060199122,
				"element": "C" 
			},
			{
				"x": 1.1418412186,
				"y": 0.6976317703,
				"z": 1.8165510676,
				"element": "C" 
			},
			{
				"x": 0.8240605429,
				"y": 1.8938775359,
				"z": 1.1586494788,
				"element": "C" 
			},
			{
				"x": 1.4343365781,
				"y": 3.0927171576,
				"z": 1.5236938097,
				"element": "C" 
			},
			{
				"x": 2.3762122601,
				"y": 3.1158834202,
				"z": 2.5554359699,
				"element": "C" 
			},
			{
				"x": 2.6997565165,
				"y": 1.9318598809,
				"z": 3.2182104467,
				"element": "C" 
			},
			{
				"x": 2.0849021849,
				"y": 0.7334571926,
				"z": 2.8494630286,
				"element": "C" 
			},
			{
				"x": -1.1574783536,
				"y": -2.8737724521,
				"z": 1.692114312,
				"element": "H" 
			},
			{
				"x": -2.6780656536,
				"y": -1.9994177995,
				"z": 1.8798353145,
				"element": "H" 
			},
			{
				"x": -2.7034773659,
				"y": -2.9857223074,
				"z": -0.2688576232,
				"element": "H" 
			},
			{
				"x": -1.7614903046,
				"y": -2.9294114725,
				"z": -2.8091471277,
				"element": "H" 
			},
			{
				"x": -1.4844990914,
				"y": -1.1947013534,
				"z": -2.6057670285,
				"element": "H" 
			},
			{
				"x": 0.0515650776,
				"y": -2.1559781908,
				"z": -4.290259492,
				"element": "H" 
			},
			{
				"x": 0.9286706787,
				"y": -1.4636929466,
				"z": -2.9235463971,
				"element": "H" 
			},
			{
				"x": 0.3554894449,
				"y": -4.4401333351,
				"z": -3.389491107,
				"element": "H" 
			},
			{
				"x": 1.9361369776,
				"y": -3.6663059427,
				"z": -3.469848905,
				"element": "H" 
			},
			{
				"x": 1.8399500141,
				"y": -3.1203228003,
				"z": -1.0542046653,
				"element": "H" 
			},
			{
				"x": 1.515464886,
				"y": -4.84506606,
				"z": -1.2446738113,
				"element": "H" 
			},
			{
				"x": -0.0536337236,
				"y": -3.7908907186,
				"z": 0.3422923003,
				"element": "H" 
			},
			{
				"x": -0.9133388873,
				"y": -4.4734820417,
				"z": -1.042379503,
				"element": "H" 
			},
			{
				"x": -4.8385524658,
				"y": -1.6209598018,
				"z": -1.131994602,
				"element": "H" 
			},
			{
				"x": -5.249757902,
				"y": 1.0437687115,
				"z": -1.6449870216,
				"element": "H" 
			},
			{
				"x": -2.822703568,
				"y": 2.2195000153,
				"z": -1.1003718233,
				"element": "H" 
			},
			{
				"x": 0.5095494807,
				"y": -0.7466490314,
				"z": 0.3192385542,
				"element": "H" 
			},
			{
				"x": 1.0176841715,
				"y": -1.4555589727,
				"z": 1.8288016381,
				"element": "H" 
			},
			{
				"x": 0.0898187776,
				"y": 1.8775222899,
				"z": 0.3578121868,
				"element": "H" 
			},
			{
				"x": 1.1762874919,
				"y": 4.010791127,
				"z": 1.0026871546,
				"element": "H" 
			},
			{
				"x": 2.8537171976,
				"y": 4.0496100105,
				"z": 2.8389684864,
				"element": "H" 
			},
			{
				"x": 3.4312348152,
				"y": 1.9386568723,
				"z": 4.0216919048,
				"element": "H" 
			},
			{
				"x": 2.3421762574,
				"y": -0.1859398356,
				"z": 3.3705071799,
				"element": "H" 
			}
		],
		 "valence_orbital": [ 
			{
				"type": "occ",
				"energy": -0.24139,
				"method": "rhf"
			},
			{
				"type": "occ",
				"energy": -0.23601,
				"method": "rhf"
			},
			{
				"type": "occ",
				"energy": -0.2273,
				"method": "rhf"
			},
			{
				"type": "occ",
				"energy": -0.22422,
				"method": "rhf"
			},
			{
				"type": "occ",
				"energy": -0.2228,
				"method": "rhf"
			},
			{
				"type": "unocc",
				"energy": -0.00755,
				"method": "rhf"
			},
			{
				"type": "unocc",
				"energy": 0.00997,
				"method": "rhf"
			},
			{
				"type": "unocc",
				"energy": 0.01137,
				"method": "rhf"
			},
			{
				"type": "unocc",
				"energy": 0.01517,
				"method": "rhf"
			},
			{
				"type": "unocc",
				"energy": 0.06904,
				"method": "rhf"
			}
		],
		"cosmo_sigma_profile": { 
			"-0.025": 0.0,
			"-0.024": 0.0,
			"-0.023": 0.0,
			"-0.022": 0.0,
			"-0.021": 0.0,
			"-0.02": 0.0,
			"-0.019": 0.0,
			"-0.018": 0.0,
			"-0.017": 0.0,
			"-0.016": 0.0,
			"-0.015": 0.0,
			"-0.014": 0.0,
			"-0.013": 0.0,
			"-0.012": 0.0,
			"-0.011": 0.0,
			"-0.01": 0.0,
			"-0.009": 0.417970031293,
			"-0.008": 2.08480755151,
			"-0.007": 7.62671918423,
			"-0.006": 11.7866804618,
			"-0.005": 20.49978556,
			"-0.004": 27.3254724537,
			"-0.003": 31.1402246065,
			"-0.002": 42.2455817446,
			"-0.001": 48.955159797,
			"0.0": 36.6733801077,
			"0.001": 26.3381140647,
			"0.002": 17.8588931551,
			"0.003": 15.4191829581,
			"0.004": 16.6033925729,
			"0.005": 17.05539764,
			"0.006": 14.312254409,
			"0.007": 5.96133476014,
			"0.008": 2.9009234631,
			"0.009": 1.99686144196,
			"0.01": 1.98973330681,
			"0.011": 3.14628935598,
			"0.012": 4.71021683931,
			"0.013": 3.09798410347,
			"0.014": 0.348760901153,
			"0.015": 0.0,
			"0.016": 0.0,
			"0.017": 0.0,
			"0.018": 0.0,
			"0.019": 0.0,
			"0.02": 0.0,
			"0.021": 0.0,
			"0.022": 0.0,
			"0.023": 0.0,
			"0.024": 0.0,
			"0.025": 0.0
		}
	}
}
