{
	 "smiles": "OC(=O)C1=C(Cl)N=CS1", 
	 "Tm": 519.15, 
	 "num_atms": 11, 
	 "gaussian": { 
		 "optdone": 1, 
		 "sigma_profile": "yes", 
		 "theory": "DFT", 
		 "functional": "B3LYP", 
		 "basiset": "6-31G**", 
		 "properties": { 
			 "R2extent": 3300.6982, 
			 "electric_dipole_moment_norm": 0.738161682831, 
			 "electric_quadrupole_moment_norm": 17.2938589239, 
			 "total_energy": -1217.20019815, 
			 "HOMO_LUMO_gap": 0.187, 
			 "cosmo_polarized_energy": -10.8, 
			 "cosmo_cavitation_energy": 19.72, 
			 "cosmo_dispersion_energy": -15.55, 
			 "cosmo_repulsion_energy": 1.23, 
			 "cosmo_total_nonelectrostatic_energy": 5.41, 
			 "SMD_solvation_energy": 3.13 
		},
		"coords": [
			{
				"x": -0.0688430047,
				"y": -2.0337455307,
				"z": 1.8959413313,
				"element": "O" 
			},
			{
				"x": 0.342478669,
				"y": -0.7665636917,
				"z": 1.6978282981,
				"element": "C" 
			},
			{
				"x": 1.4226816011,
				"y": -0.4839207873,
				"z": 1.2141135369,
				"element": "O" 
			},
			{
				"x": -0.6349669915,
				"y": 0.2490045439,
				"z": 2.1189476667,
				"element": "C" 
			},
			{
				"x": -1.8971656397,
				"y": 0.1962466587,
				"z": 2.6800219213,
				"element": "C" 
			},
			{
				"x": -2.7669931985,
				"y": -1.2422628266,
				"z": 3.0843499173,
				"element": "Cl" 
			},
			{
				"x": -2.5048592298,
				"y": 1.3899604158,
				"z": 2.9348655979,
				"element": "N" 
			},
			{
				"x": -1.7217854982,
				"y": 2.372026547,
				"z": 2.5748074456,
				"element": "C" 
			},
			{
				"x": -0.1931634443,
				"y": 1.9220938142,
				"z": 1.9015912804,
				"element": "S" 
			},
			{
				"x": 0.6558857532,
				"y": -2.6000798326,
				"z": 1.5809067583,
				"element": "H" 
			},
			{
				"x": -1.9954690165,
				"y": 3.4152406894,
				"z": 2.683226246,
				"element": "H" 
			}
		],
		 "valence_orbital": [ 
			{
				"type": "occ",
				"energy": -0.32512,
				"method": "rhf"
			},
			{
				"type": "occ",
				"energy": -0.3168,
				"method": "rhf"
			},
			{
				"type": "occ",
				"energy": -0.30538,
				"method": "rhf"
			},
			{
				"type": "occ",
				"energy": -0.28685,
				"method": "rhf"
			},
			{
				"type": "occ",
				"energy": -0.26611,
				"method": "rhf"
			},
			{
				"type": "unocc",
				"energy": -0.07911,
				"method": "rhf"
			},
			{
				"type": "unocc",
				"energy": -0.01429,
				"method": "rhf"
			},
			{
				"type": "unocc",
				"energy": -0.00573,
				"method": "rhf"
			},
			{
				"type": "unocc",
				"energy": 0.04197,
				"method": "rhf"
			},
			{
				"type": "unocc",
				"energy": 0.06547,
				"method": "rhf"
			}
		],
		"cosmo_sigma_profile": { 
			"-0.025": 0.0,
			"-0.024": 0.0,
			"-0.023": 0.0,
			"-0.022": 0.0,
			"-0.021": 0.0,
			"-0.02": 0.0274420615366,
			"-0.019": 0.612032680287,
			"-0.018": 1.38425853829,
			"-0.017": 0.486934261057,
			"-0.016": 0.582395398761,
			"-0.015": 0.706970980391,
			"-0.014": 1.14527377563,
			"-0.013": 0.763193519638,
			"-0.012": 1.70680552317,
			"-0.011": 3.06099738219,
			"-0.01": 2.30956969747,
			"-0.009": 3.01600349673,
			"-0.008": 2.12322000526,
			"-0.007": 3.05291703409,
			"-0.006": 2.65198393318,
			"-0.005": 3.0956812706,
			"-0.004": 6.68450663073,
			"-0.003": 11.9178470558,
			"-0.002": 17.0841252962,
			"-0.001": 13.6585222324,
			"0.0": 14.6548862369,
			"0.001": 10.8441815269,
			"0.002": 9.13468450988,
			"0.003": 11.0712375661,
			"0.004": 7.86973322292,
			"0.005": 4.4736136301,
			"0.006": 5.11315570837,
			"0.007": 5.58601828659,
			"0.008": 3.88148140278,
			"0.009": 2.73444486232,
			"0.01": 3.99359388298,
			"0.011": 6.18052938078,
			"0.012": 1.23017549994,
			"0.013": 0.815949692264,
			"0.014": 0.0778323047722,
			"0.015": 0.0,
			"0.016": 0.0,
			"0.017": 0.0,
			"0.018": 0.0,
			"0.019": 0.0,
			"0.02": 0.0,
			"0.021": 0.0,
			"0.022": 0.0,
			"0.023": 0.0,
			"0.024": 0.0,
			"0.025": 0.0
		}
	}
}
