{
	 "smiles": "CCCCC1=CC=C(C=C1)C(O)=O", 
	 "Tm": 379.15, 
	 "num_atms": 27, 
	 "gaussian": { 
		 "optdone": 1, 
		 "sigma_profile": "yes", 
		 "theory": "DFT", 
		 "functional": "B3LYP", 
		 "basiset": "6-31G**", 
		 "properties": { 
			 "R2extent": 4305.667, 
			 "electric_dipole_moment_norm": 5.3542795986, 
			 "electric_quadrupole_moment_norm": 24.5930159671, 
			 "total_energy": -578.082776788, 
			 "HOMO_LUMO_gap": 0.20812, 
			 "cosmo_polarized_energy": -13.46, 
			 "cosmo_cavitation_energy": 30.38, 
			 "cosmo_dispersion_energy": -21.73, 
			 "cosmo_repulsion_energy": 1.74, 
			 "cosmo_total_nonelectrostatic_energy": 10.39, 
			 "SMD_solvation_energy": 5.96 
		},
		"coords": [
			{
				"x": -1.9908254801,
				"y": 0.906958829,
				"z": 3.783292377,
				"element": "C" 
			},
			{
				"x": -0.9755350067,
				"y": -0.238759607,
				"z": 3.6955223844,
				"element": "C" 
			},
			{
				"x": -0.1992445522,
				"y": -0.3048329846,
				"z": 2.3704563096,
				"element": "C" 
			},
			{
				"x": -1.0732908013,
				"y": -0.6381318585,
				"z": 1.1415833308,
				"element": "C" 
			},
			{
				"x": -0.2675182603,
				"y": -0.7407798808,
				"z": -0.1337726956,
				"element": "C" 
			},
			{
				"x": -0.0042193708,
				"y": 0.3964386343,
				"z": -0.9135514388,
				"element": "C" 
			},
			{
				"x": 0.7711095607,
				"y": 0.3152691274,
				"z": -2.0649144637,
				"element": "C" 
			},
			{
				"x": 1.2930275203,
				"y": -0.9165928387,
				"z": -2.4830712537,
				"element": "C" 
			},
			{
				"x": 1.044648913,
				"y": -2.0558883919,
				"z": -1.7046697834,
				"element": "C" 
			},
			{
				"x": 0.2756118674,
				"y": -1.9652261313,
				"z": -0.5462923643,
				"element": "C" 
			},
			{
				"x": 2.1184642739,
				"y": -0.9371352148,
				"z": -3.7323410543,
				"element": "C" 
			},
			{
				"x": 2.2790228174,
				"y": -2.1444204973,
				"z": -4.3415905774,
				"element": "O" 
			},
			{
				"x": 2.6319365578,
				"y": 0.0486400249,
				"z": -4.2079369996,
				"element": "O" 
			},
			{
				"x": -1.5059334231,
				"y": 1.8767582824,
				"z": 3.6216313876,
				"element": "H" 
			},
			{
				"x": -2.4661209237,
				"y": 0.9348772569,
				"z": 4.7691097642,
				"element": "H" 
			},
			{
				"x": -2.7892097394,
				"y": 0.8076191674,
				"z": 3.0405043743,
				"element": "H" 
			},
			{
				"x": -1.4872677152,
				"y": -1.1965328169,
				"z": 3.8629530713,
				"element": "H" 
			},
			{
				"x": -0.2515435734,
				"y": -0.1362054428,
				"z": 4.5135980897,
				"element": "H" 
			},
			{
				"x": 0.5900148528,
				"y": -1.062790348,
				"z": 2.4516396964,
				"element": "H" 
			},
			{
				"x": 0.3137151074,
				"y": 0.6505588631,
				"z": 2.1959861936,
				"element": "H" 
			},
			{
				"x": -1.5966590734,
				"y": -1.585289079,
				"z": 1.3239147611,
				"element": "H" 
			},
			{
				"x": -1.8457504162,
				"y": 0.1292959235,
				"z": 1.0194215239,
				"element": "H" 
			},
			{
				"x": -0.4153369741,
				"y": 1.3563262494,
				"z": -0.6109317103,
				"element": "H" 
			},
			{
				"x": 0.9825120572,
				"y": 1.1948425366,
				"z": -2.6635896235,
				"element": "H" 
			},
			{
				"x": 1.476903955,
				"y": -3.0182098777,
				"z": -1.9702955908,
				"element": "H" 
			},
			{
				"x": 0.0966971151,
				"y": -2.857097453,
				"z": 0.0488734678,
				"element": "H" 
			},
			{
				"x": 1.6832907117,
				"y": -2.7963924726,
				"z": -3.9477291763,
				"element": "H" 
			}
		],
		 "valence_orbital": [ 
			{
				"type": "occ",
				"energy": -0.33206,
				"method": "rhf"
			},
			{
				"type": "occ",
				"energy": -0.31138,
				"method": "rhf"
			},
			{
				"type": "occ",
				"energy": -0.27127,
				"method": "rhf"
			},
			{
				"type": "occ",
				"energy": -0.26695,
				"method": "rhf"
			},
			{
				"type": "occ",
				"energy": -0.25485,
				"method": "rhf"
			},
			{
				"type": "unocc",
				"energy": -0.04673,
				"method": "rhf"
			},
			{
				"type": "unocc",
				"energy": -0.01894,
				"method": "rhf"
			},
			{
				"type": "unocc",
				"energy": 0.04996,
				"method": "rhf"
			},
			{
				"type": "unocc",
				"energy": 0.06354,
				"method": "rhf"
			},
			{
				"type": "unocc",
				"energy": 0.08144,
				"method": "rhf"
			}
		],
		"cosmo_sigma_profile": { 
			"-0.025": 0.0,
			"-0.024": 0.0,
			"-0.023": 0.0,
			"-0.022": 0.0,
			"-0.021": 0.0,
			"-0.02": 0.0,
			"-0.019": 0.103516166963,
			"-0.018": 0.592554342606,
			"-0.017": 1.00133389831,
			"-0.016": 0.801753782874,
			"-0.015": 0.880048198567,
			"-0.014": 0.852920388131,
			"-0.013": 1.40880509175,
			"-0.012": 1.41290093719,
			"-0.011": 0.985781954157,
			"-0.01": 0.823407508714,
			"-0.009": 1.18044841124,
			"-0.008": 1.43180161109,
			"-0.007": 2.26405861622,
			"-0.006": 6.08085442818,
			"-0.005": 9.74853754276,
			"-0.004": 11.3766922332,
			"-0.003": 17.1285544599,
			"-0.002": 29.4455176648,
			"-0.001": 28.9582520835,
			"0.0": 29.9437917019,
			"0.001": 24.0507813878,
			"0.002": 14.7127328039,
			"0.003": 10.8714796885,
			"0.004": 12.0239426433,
			"0.005": 2.29910407705,
			"0.006": 2.92219679952,
			"0.007": 2.80634313957,
			"0.008": 2.33016413007,
			"0.009": 2.60687120985,
			"0.01": 4.70743525769,
			"0.011": 5.21595892215,
			"0.012": 5.58616172133,
			"0.013": 2.17865328333,
			"0.014": 0.183948888883,
			"0.015": 0.0,
			"0.016": 0.0,
			"0.017": 0.0,
			"0.018": 0.0,
			"0.019": 0.0,
			"0.02": 0.0,
			"0.021": 0.0,
			"0.022": 0.0,
			"0.023": 0.0,
			"0.024": 0.0,
			"0.025": 0.0
		}
	}
}
