{
	 "smiles": "OC(COC1=CC=CC=C1)COC1=CC=CC=C1", 
	 "Tm": 354.95, 
	 "num_atms": 34, 
	 "gaussian": { 
		 "optdone": 1, 
		 "sigma_profile": "yes", 
		 "theory": "DFT", 
		 "functional": "B3LYP", 
		 "basiset": "6-31G**", 
		 "properties": { 
			 "R2extent": 7482.6687, 
			 "electric_dipole_moment_norm": 1.90150052327, 
			 "electric_quadrupole_moment_norm": 15.4422132167, 
			 "total_energy": -806.882722605, 
			 "HOMO_LUMO_gap": 0.21735, 
			 "cosmo_polarized_energy": -12.99, 
			 "cosmo_cavitation_energy": 37.84, 
			 "cosmo_dispersion_energy": -26.55, 
			 "cosmo_repulsion_energy": 2.06, 
			 "cosmo_total_nonelectrostatic_energy": 13.34, 
			 "SMD_solvation_energy": 6.45 
		},
		"coords": [
			{
				"x": 1.6822236946,
				"y": -2.9485578894,
				"z": -2.7504850818,
				"element": "O" 
			},
			{
				"x": 0.6254755252,
				"y": -2.0183943998,
				"z": -2.8731291926,
				"element": "C" 
			},
			{
				"x": 1.1598701507,
				"y": -0.6132196249,
				"z": -3.1718571003,
				"element": "C" 
			},
			{
				"x": 2.0693077429,
				"y": -0.2485104453,
				"z": -2.1436057896,
				"element": "O" 
			},
			{
				"x": 2.7383442311,
				"y": 0.9400706022,
				"z": -2.2454002181,
				"element": "C" 
			},
			{
				"x": 2.5689739019,
				"y": 1.8583280472,
				"z": -3.2880159344,
				"element": "C" 
			},
			{
				"x": 3.3094597033,
				"y": 3.0453319097,
				"z": -3.2843530366,
				"element": "C" 
			},
			{
				"x": 4.2097416171,
				"y": 3.325273835,
				"z": -2.2592547684,
				"element": "C" 
			},
			{
				"x": 4.3702944649,
				"y": 2.4014483175,
				"z": -1.2203406583,
				"element": "C" 
			},
			{
				"x": 3.6424367487,
				"y": 1.2170628173,
				"z": -1.2093916702,
				"element": "C" 
			},
			{
				"x": -0.3343486759,
				"y": -2.1142146839,
				"z": -1.6819864989,
				"element": "C" 
			},
			{
				"x": 0.4080151996,
				"y": -1.915865373,
				"z": -0.4874360706,
				"element": "O" 
			},
			{
				"x": -0.2311472046,
				"y": -2.0412087377,
				"z": 0.7152358131,
				"element": "C" 
			},
			{
				"x": -1.594078565,
				"y": -2.323152174,
				"z": 0.8630596835,
				"element": "C" 
			},
			{
				"x": -2.1383262403,
				"y": -2.4263848619,
				"z": 2.1477532397,
				"element": "C" 
			},
			{
				"x": -1.3443811457,
				"y": -2.2517533505,
				"z": 3.2786135978,
				"element": "C" 
			},
			{
				"x": 0.0168796778,
				"y": -1.9682301017,
				"z": 3.1199836582,
				"element": "C" 
			},
			{
				"x": 0.5732840924,
				"y": -1.8628017141,
				"z": 1.8503531512,
				"element": "C" 
			},
			{
				"x": 2.1842905871,
				"y": -2.6723658861,
				"z": -1.9698072443,
				"element": "H" 
			},
			{
				"x": 0.0475828603,
				"y": -2.3202810131,
				"z": -3.756793647,
				"element": "H" 
			},
			{
				"x": 0.3332585364,
				"y": 0.1097557628,
				"z": -3.2378314012,
				"element": "H" 
			},
			{
				"x": 1.6778544216,
				"y": -0.6376148287,
				"z": -4.1400839216,
				"element": "H" 
			},
			{
				"x": 1.8732831802,
				"y": 1.6648964419,
				"z": -4.0958450588,
				"element": "H" 
			},
			{
				"x": 3.1730048624,
				"y": 3.7532073744,
				"z": -4.0972478184,
				"element": "H" 
			},
			{
				"x": 4.7794616884,
				"y": 4.2492504485,
				"z": -2.2655370356,
				"element": "H" 
			},
			{
				"x": 5.0677299356,
				"y": 2.6055710925,
				"z": -0.4127620388,
				"element": "H" 
			},
			{
				"x": 3.7526188274,
				"y": 0.4901836263,
				"z": -0.4112256062,
				"element": "H" 
			},
			{
				"x": -0.7871921992,
				"y": -3.1148654436,
				"z": -1.6810381673,
				"element": "H" 
			},
			{
				"x": -1.1384619301,
				"y": -1.3687247667,
				"z": -1.7714510038,
				"element": "H" 
			},
			{
				"x": -2.2333481353,
				"y": -2.4611247121,
				"z": -0.000814699,
				"element": "H" 
			},
			{
				"x": -3.1970461597,
				"y": -2.6459047038,
				"z": 2.2546705015,
				"element": "H" 
			},
			{
				"x": -1.7763180995,
				"y": -2.3337478935,
				"z": 4.2711156317,
				"element": "H" 
			},
			{
				"x": 0.6493981076,
				"y": -1.8281530871,
				"z": 3.9920866921,
				"element": "H" 
			},
			{
				"x": 1.6261585981,
				"y": -1.6418045847,
				"z": 1.708321693,
				"element": "H" 
			}
		],
		 "valence_orbital": [ 
			{
				"type": "occ",
				"energy": -0.27314,
				"method": "rhf"
			},
			{
				"type": "occ",
				"energy": -0.24921,
				"method": "rhf"
			},
			{
				"type": "occ",
				"energy": -0.24909,
				"method": "rhf"
			},
			{
				"type": "occ",
				"energy": -0.22066,
				"method": "rhf"
			},
			{
				"type": "occ",
				"energy": -0.21742,
				"method": "rhf"
			},
			{
				"type": "unocc",
				"energy": -7e-05,
				"method": "rhf"
			},
			{
				"type": "unocc",
				"energy": 0.00047,
				"method": "rhf"
			},
			{
				"type": "unocc",
				"energy": 0.0132,
				"method": "rhf"
			},
			{
				"type": "unocc",
				"energy": 0.01507,
				"method": "rhf"
			},
			{
				"type": "unocc",
				"energy": 0.07647,
				"method": "rhf"
			}
		],
		"cosmo_sigma_profile": { 
			"-0.025": 0.0,
			"-0.024": 0.0,
			"-0.023": 0.0,
			"-0.022": 0.0,
			"-0.021": 0.0,
			"-0.02": 0.0,
			"-0.019": 0.0,
			"-0.018": 0.0,
			"-0.017": 0.0,
			"-0.016": 0.0,
			"-0.015": 0.0,
			"-0.014": 0.0,
			"-0.013": 0.23657101755,
			"-0.012": 0.485707208991,
			"-0.011": 0.164119747036,
			"-0.01": 0.821209562717,
			"-0.009": 0.537350442728,
			"-0.008": 0.402768494661,
			"-0.007": 4.29267599192,
			"-0.006": 23.912958415,
			"-0.005": 35.4011343499,
			"-0.004": 27.1120504376,
			"-0.003": 24.6205058675,
			"-0.002": 17.0174227895,
			"-0.001": 14.4098148672,
			"0.0": 16.2029501621,
			"0.001": 14.2451422985,
			"0.002": 16.7665288811,
			"0.003": 19.5376578314,
			"0.004": 24.9273973919,
			"0.005": 21.2271238578,
			"0.006": 19.5661031466,
			"0.007": 4.91913479346,
			"0.008": 2.50586456443,
			"0.009": 1.55991311471,
			"0.01": 1.8888110831,
			"0.011": 2.15506139642,
			"0.012": 1.40414818114,
			"0.013": 2.37450309763,
			"0.014": 1.57026706464,
			"0.015": 0.0,
			"0.016": 0.0,
			"0.017": 0.0,
			"0.018": 0.0,
			"0.019": 0.0,
			"0.02": 0.0,
			"0.021": 0.0,
			"0.022": 0.0,
			"0.023": 0.0,
			"0.024": 0.0,
			"0.025": 0.0
		}
	}
}
