{
	 "smiles": "BrCC1=CC=C(OC2CCOCC2)C=C1", 
	 "Tm": 330.15, 
	 "num_atms": 30, 
	 "gaussian": { 
		 "optdone": 1, 
		 "sigma_profile": "yes", 
		 "theory": "DFT", 
		 "functional": "B3LYP", 
		 "basiset": "6-31G**", 
		 "properties": { 
			 "R2extent": 8774.1708, 
			 "electric_dipole_moment_norm": 2.94894933663, 
			 "electric_quadrupole_moment_norm": 15.2701148372, 
			 "total_energy": -3188.15411471, 
			 "HOMO_LUMO_gap": 0.19139, 
			 "cosmo_polarized_energy": -10.52, 
			 "cosmo_cavitation_energy": 34.36, 
			 "cosmo_dispersion_energy": -25.42, 
			 "cosmo_repulsion_energy": 2.02, 
			 "cosmo_total_nonelectrostatic_energy": 10.96, 
			 "SMD_solvation_energy": 4.23 
		},
		"coords": [
			{
				"x": -0.4432611159,
				"y": 4.8703301292,
				"z": 3.763558337,
				"element": "Br" 
			},
			{
				"x": -1.499560913,
				"y": 4.5888498183,
				"z": 2.0637449413,
				"element": "C" 
			},
			{
				"x": -1.0047993037,
				"y": 3.4385141131,
				"z": 1.2593843638,
				"element": "C" 
			},
			{
				"x": 0.0159428341,
				"y": 3.6065888371,
				"z": 0.30842144,
				"element": "C" 
			},
			{
				"x": 0.4688787586,
				"y": 2.5393244851,
				"z": -0.4523229614,
				"element": "C" 
			},
			{
				"x": -0.0871709453,
				"y": 1.2605103365,
				"z": -0.280787805,
				"element": "C" 
			},
			{
				"x": 0.4232109786,
				"y": 0.2905618149,
				"z": -1.0909591336,
				"element": "O" 
			},
			{
				"x": -0.0619717806,
				"y": -1.0570281703,
				"z": -1.0122156387,
				"element": "C" 
			},
			{
				"x": 0.311707325,
				"y": -1.7377993271,
				"z": -2.327130562,
				"element": "C" 
			},
			{
				"x": -0.2465803268,
				"y": -3.1777652608,
				"z": -2.3402427124,
				"element": "C" 
			},
			{
				"x": -0.4301049727,
				"y": -3.7062707498,
				"z": -1.0282313066,
				"element": "O" 
			},
			{
				"x": 0.6244015773,
				"y": -3.3349075301,
				"z": -0.1502337051,
				"element": "C" 
			},
			{
				"x": 0.5653021359,
				"y": -1.8240270204,
				"z": 0.1709124162,
				"element": "C" 
			},
			{
				"x": -1.1023418587,
				"y": 1.074277982,
				"z": 0.6673384098,
				"element": "C" 
			},
			{
				"x": -1.5473889553,
				"y": 2.159632459,
				"z": 1.4224713159,
				"element": "C" 
			},
			{
				"x": -1.4055317993,
				"y": 5.5420550196,
				"z": 1.5469965636,
				"element": "H" 
			},
			{
				"x": -2.520222489,
				"y": 4.4536147084,
				"z": 2.4161706896,
				"element": "H" 
			},
			{
				"x": 0.4601699104,
				"y": 4.5885323816,
				"z": 0.1672690113,
				"element": "H" 
			},
			{
				"x": 1.2517118459,
				"y": 2.6660954537,
				"z": -1.192772573,
				"element": "H" 
			},
			{
				"x": -1.1547608364,
				"y": -1.0424900521,
				"z": -0.9203650963,
				"element": "H" 
			},
			{
				"x": -0.0804198287,
				"y": -1.1661662535,
				"z": -3.173474797,
				"element": "H" 
			},
			{
				"x": 1.4039645011,
				"y": -1.7346728708,
				"z": -2.4190588255,
				"element": "H" 
			},
			{
				"x": -1.2376476838,
				"y": -3.2052699624,
				"z": -2.8040687849,
				"element": "H" 
			},
			{
				"x": 0.4164794098,
				"y": -3.8345640075,
				"z": -2.9253524009,
				"element": "H" 
			},
			{
				"x": 1.5986667355,
				"y": -3.6004701549,
				"z": -0.5909247816,
				"element": "H" 
			},
			{
				"x": 0.4999652162,
				"y": -3.9369374412,
				"z": 0.7534473182,
				"element": "H" 
			},
			{
				"x": -0.0035763371,
				"y": -1.6456156869,
				"z": 1.0878696356,
				"element": "H" 
			},
			{
				"x": 1.5759198194,
				"y": -1.433226078,
				"z": 0.3346981855,
				"element": "H" 
			},
			{
				"x": -1.548207417,
				"y": 0.1002922985,
				"z": 0.8273377281,
				"element": "H" 
			},
			{
				"x": -2.3315744845,
				"y": 2.0014307287,
				"z": 2.1585207281,
				"element": "H" 
			}
		],
		 "valence_orbital": [ 
			{
				"type": "occ",
				"energy": -0.26483,
				"method": "rhf"
			},
			{
				"type": "occ",
				"energy": -0.26407,
				"method": "rhf"
			},
			{
				"type": "occ",
				"energy": -0.2575,
				"method": "rhf"
			},
			{
				"type": "occ",
				"energy": -0.25477,
				"method": "rhf"
			},
			{
				"type": "occ",
				"energy": -0.22043,
				"method": "rhf"
			},
			{
				"type": "unocc",
				"energy": -0.02904,
				"method": "rhf"
			},
			{
				"type": "unocc",
				"energy": -0.00874,
				"method": "rhf"
			},
			{
				"type": "unocc",
				"energy": 0.03815,
				"method": "rhf"
			},
			{
				"type": "unocc",
				"energy": 0.06686,
				"method": "rhf"
			},
			{
				"type": "unocc",
				"energy": 0.08505,
				"method": "rhf"
			}
		],
		"cosmo_sigma_profile": { 
			"-0.025": 0.0,
			"-0.024": 0.0,
			"-0.023": 0.0,
			"-0.022": 0.0,
			"-0.021": 0.0,
			"-0.02": 0.0,
			"-0.019": 0.0,
			"-0.018": 0.0,
			"-0.017": 0.0,
			"-0.016": 0.0,
			"-0.015": 0.0,
			"-0.014": 0.0,
			"-0.013": 0.0,
			"-0.012": 0.0,
			"-0.011": 0.0,
			"-0.01": 0.0,
			"-0.009": 0.0,
			"-0.008": 1.09464119031,
			"-0.007": 8.76175943466,
			"-0.006": 13.019006516,
			"-0.005": 15.920616546,
			"-0.004": 34.4235082726,
			"-0.003": 31.8745441234,
			"-0.002": 24.1567778501,
			"-0.001": 17.4488214467,
			"0.0": 14.9602298766,
			"0.001": 12.0584612047,
			"0.002": 14.1273907597,
			"0.003": 13.9237948706,
			"0.004": 17.2800959179,
			"0.005": 18.4459844036,
			"0.006": 11.7755219398,
			"0.007": 12.7413867262,
			"0.008": 2.24879989092,
			"0.009": 3.04736202324,
			"0.01": 1.25306479632,
			"0.011": 1.25578058557,
			"0.012": 1.3903664108,
			"0.013": 1.6450357098,
			"0.014": 0.839869767553,
			"0.015": 0.0,
			"0.016": 0.0,
			"0.017": 0.0,
			"0.018": 0.0,
			"0.019": 0.0,
			"0.02": 0.0,
			"0.021": 0.0,
			"0.022": 0.0,
			"0.023": 0.0,
			"0.024": 0.0,
			"0.025": 0.0
		}
	}
}
