{
	 "smiles": "CC(=O)NC1=C(OCC2=CC=C(O2)C(O)=O)C=CC=C1", 
	 "Tm": 453.15, 
	 "num_atms": 33, 
	 "gaussian": { 
		 "optdone": 1, 
		 "sigma_profile": "yes", 
		 "theory": "DFT", 
		 "functional": "B3LYP", 
		 "basiset": "6-31G**", 
		 "properties": { 
			 "R2extent": 7214.997, 
			 "electric_dipole_moment_norm": 7.02312575639, 
			 "electric_quadrupole_moment_norm": 30.1937002004, 
			 "total_energy": -972.18646699, 
			 "HOMO_LUMO_gap": 0.18668, 
			 "cosmo_polarized_energy": -21.65, 
			 "cosmo_cavitation_energy": 38.51, 
			 "cosmo_dispersion_energy": -26.86, 
			 "cosmo_repulsion_energy": 2.07, 
			 "cosmo_total_nonelectrostatic_energy": 13.72, 
			 "SMD_solvation_energy": 9.0 
		},
		"coords": [
			{
				"x": -1.055988771,
				"y": 4.0584572214,
				"z": -1.1761864456,
				"element": "C" 
			},
			{
				"x": -0.0850878698,
				"y": 2.9043518164,
				"z": -1.3662896963,
				"element": "C" 
			},
			{
				"x": 0.8024825701,
				"y": 2.6640486424,
				"z": -0.5574265498,
				"element": "O" 
			},
			{
				"x": -0.3035595147,
				"y": 2.1508545245,
				"z": -2.4948422781,
				"element": "N" 
			},
			{
				"x": 0.4308608411,
				"y": 0.9916581482,
				"z": -2.8605597323,
				"element": "C" 
			},
			{
				"x": 0.5279751858,
				"y": -0.1119267471,
				"z": -1.9911756637,
				"element": "C" 
			},
			{
				"x": -0.1534688524,
				"y": -0.0747352157,
				"z": -0.8022279376,
				"element": "O" 
			},
			{
				"x": 0.6610474049,
				"y": -0.199681055,
				"z": 0.3841087586,
				"element": "C" 
			},
			{
				"x": -0.1498019894,
				"y": 0.1863125233,
				"z": 1.5670078292,
				"element": "C" 
			},
			{
				"x": -0.3456232861,
				"y": 1.3807896627,
				"z": 2.2059014947,
				"element": "C" 
			},
			{
				"x": -1.2524308225,
				"y": 1.1307581294,
				"z": 3.2754881087,
				"element": "C" 
			},
			{
				"x": -1.5556454253,
				"y": -0.2021188706,
				"z": 3.2205256365,
				"element": "C" 
			},
			{
				"x": -0.8855360234,
				"y": -0.7926029562,
				"z": 2.1778234183,
				"element": "O" 
			},
			{
				"x": -2.4279159659,
				"y": -1.0458249008,
				"z": 4.0518544605,
				"element": "C" 
			},
			{
				"x": -2.4961145887,
				"y": -2.3505966344,
				"z": 3.6866848998,
				"element": "O" 
			},
			{
				"x": -3.0480545681,
				"y": -0.6170154446,
				"z": 4.9977711188,
				"element": "O" 
			},
			{
				"x": 1.2556686505,
				"y": -1.2384180988,
				"z": -2.3879191087,
				"element": "C" 
			},
			{
				"x": 1.8520780531,
				"y": -1.2909223725,
				"z": -3.6471133701,
				"element": "C" 
			},
			{
				"x": 1.7256084623,
				"y": -0.2135082819,
				"z": -4.5252087115,
				"element": "C" 
			},
			{
				"x": 1.022090349,
				"y": 0.9214394068,
				"z": -4.1262926711,
				"element": "C" 
			},
			{
				"x": -1.5665439074,
				"y": 4.3605895427,
				"z": -2.0951630972,
				"element": "H" 
			},
			{
				"x": -1.8143683389,
				"y": 3.7617657417,
				"z": -0.444022251,
				"element": "H" 
			},
			{
				"x": -0.5111061491,
				"y": 4.9108280169,
				"z": -0.7667363328,
				"element": "H" 
			},
			{
				"x": -0.9835267002,
				"y": 2.4894266622,
				"z": -3.1597290742,
				"element": "H" 
			},
			{
				"x": 1.5144593847,
				"y": 0.4765208844,
				"z": 0.29919289,
				"element": "H" 
			},
			{
				"x": 1.0133642086,
				"y": -1.2324260313,
				"z": 0.4968823666,
				"element": "H" 
			},
			{
				"x": 0.1061272681,
				"y": 2.3158375115,
				"z": 1.9081448229,
				"element": "H" 
			},
			{
				"x": -1.6405360762,
				"y": 1.8288758458,
				"z": 4.0021399955,
				"element": "H" 
			},
			{
				"x": -1.9401623246,
				"y": -2.4979986657,
				"z": 2.9053930706,
				"element": "H" 
			},
			{
				"x": 1.3199644545,
				"y": -2.0873861832,
				"z": -1.7146928164,
				"element": "H" 
			},
			{
				"x": 2.403715133,
				"y": -2.1777511322,
				"z": -3.9442613095,
				"element": "H" 
			},
			{
				"x": 2.1808476468,
				"y": -0.2497405407,
				"z": -5.5098825956,
				"element": "H" 
			},
			{
				"x": 0.9397815614,
				"y": 1.7782388505,
				"z": -4.7895892292,
				"element": "H" 
			}
		],
		 "valence_orbital": [ 
			{
				"type": "occ",
				"energy": -0.27136,
				"method": "rhf"
			},
			{
				"type": "occ",
				"energy": -0.26231,
				"method": "rhf"
			},
			{
				"type": "occ",
				"energy": -0.2517,
				"method": "rhf"
			},
			{
				"type": "occ",
				"energy": -0.24577,
				"method": "rhf"
			},
			{
				"type": "occ",
				"energy": -0.23323,
				"method": "rhf"
			},
			{
				"type": "unocc",
				"energy": -0.04655,
				"method": "rhf"
			},
			{
				"type": "unocc",
				"energy": -0.022,
				"method": "rhf"
			},
			{
				"type": "unocc",
				"energy": -0.00893,
				"method": "rhf"
			},
			{
				"type": "unocc",
				"energy": 0.02394,
				"method": "rhf"
			},
			{
				"type": "unocc",
				"energy": 0.02911,
				"method": "rhf"
			}
		],
		"cosmo_sigma_profile": { 
			"-0.025": 0.0,
			"-0.024": 0.0,
			"-0.023": 0.0,
			"-0.022": 0.0,
			"-0.021": 0.0,
			"-0.02": 0.0,
			"-0.019": 0.0,
			"-0.018": 0.0,
			"-0.017": 0.179237743834,
			"-0.016": 0.694366137352,
			"-0.015": 1.52454052079,
			"-0.014": 1.76751368116,
			"-0.013": 2.0181670948,
			"-0.012": 1.7416150334,
			"-0.011": 2.2527717228,
			"-0.01": 2.57867404681,
			"-0.009": 2.94222481446,
			"-0.008": 5.10474013275,
			"-0.007": 8.17497992275,
			"-0.006": 18.4238749182,
			"-0.005": 21.4408624187,
			"-0.004": 21.8932372076,
			"-0.003": 21.7197224106,
			"-0.002": 21.4488050555,
			"-0.001": 21.4677850614,
			"0.0": 19.5554667612,
			"0.001": 18.1513722623,
			"0.002": 18.1097777044,
			"0.003": 17.4672341888,
			"0.004": 13.6872833014,
			"0.005": 14.2163249697,
			"0.006": 6.41557235779,
			"0.007": 6.12288198254,
			"0.008": 5.53364930141,
			"0.009": 7.05845269814,
			"0.01": 7.37578812946,
			"0.011": 7.1924588326,
			"0.012": 6.83683233867,
			"0.013": 3.68571494804,
			"0.014": 0.740648685741,
			"0.015": 0.0,
			"0.016": 0.0,
			"0.017": 0.0,
			"0.018": 0.0,
			"0.019": 0.0,
			"0.02": 0.0,
			"0.021": 0.0,
			"0.022": 0.0,
			"0.023": 0.0,
			"0.024": 0.0,
			"0.025": 0.0
		}
	}
}
