{
	 "smiles": "OC1=CC=CN=C1O", 
	 "Tm": 518.15, 
	 "num_atms": 13, 
	 "gaussian": { 
		 "optdone": 1, 
		 "sigma_profile": "yes", 
		 "theory": "DFT", 
		 "functional": "B3LYP", 
		 "basiset": "6-31G**", 
		 "properties": { 
			 "R2extent": 1049.3384, 
			 "electric_dipole_moment_norm": 2.38032813074, 
			 "electric_quadrupole_moment_norm": 8.95426659476, 
			 "total_energy": -398.733978775, 
			 "HOMO_LUMO_gap": 0.20176, 
			 "cosmo_polarized_energy": -12.79, 
			 "cosmo_cavitation_energy": 17.35, 
			 "cosmo_dispersion_energy": -13.36, 
			 "cosmo_repulsion_energy": 1.12, 
			 "cosmo_total_nonelectrostatic_energy": 5.11, 
			 "SMD_solvation_energy": 2.67 
		},
		"coords": [
			{
				"x": -1.7752500968,
				"y": -0.8068327038,
				"z": 1.4779664808,
				"element": "O" 
			},
			{
				"x": -0.4767779939,
				"y": -0.4680753148,
				"z": 1.2432683316,
				"element": "C" 
			},
			{
				"x": 0.5954741981,
				"y": -1.3474203093,
				"z": 1.2971489061,
				"element": "C" 
			},
			{
				"x": 1.8911271213,
				"y": -0.8789500247,
				"z": 1.035024731,
				"element": "C" 
			},
			{
				"x": 2.0550474354,
				"y": 0.4632396445,
				"z": 0.7276701355,
				"element": "C" 
			},
			{
				"x": 1.024839745,
				"y": 1.3270494742,
				"z": 0.6718758393,
				"element": "N" 
			},
			{
				"x": -0.1946890147,
				"y": 0.8807835048,
				"z": 0.9197371138,
				"element": "C" 
			},
			{
				"x": -1.226813535,
				"y": 1.7520886877,
				"z": 0.8626153037,
				"element": "O" 
			},
			{
				"x": -1.8207838792,
				"y": -1.749717103,
				"z": 1.6850825239,
				"element": "H" 
			},
			{
				"x": 0.4224766596,
				"y": -2.3934248101,
				"z": 1.5423382379,
				"element": "H" 
			},
			{
				"x": 2.7424331715,
				"y": -1.5499812882,
				"z": 1.0720188329,
				"element": "H" 
			},
			{
				"x": 3.0381590533,
				"y": 0.8762809158,
				"z": 0.5164546466,
				"element": "H" 
			},
			{
				"x": -0.8301428647,
				"y": 2.6067593268,
				"z": 0.6303989167,
				"element": "H" 
			}
		],
		 "valence_orbital": [ 
			{
				"type": "occ",
				"energy": -0.36118,
				"method": "rhf"
			},
			{
				"type": "occ",
				"energy": -0.34342,
				"method": "rhf"
			},
			{
				"type": "occ",
				"energy": -0.27023,
				"method": "rhf"
			},
			{
				"type": "occ",
				"energy": -0.269,
				"method": "rhf"
			},
			{
				"type": "occ",
				"energy": -0.21588,
				"method": "rhf"
			},
			{
				"type": "unocc",
				"energy": -0.01412,
				"method": "rhf"
			},
			{
				"type": "unocc",
				"energy": 0.01,
				"method": "rhf"
			},
			{
				"type": "unocc",
				"energy": 0.06318,
				"method": "rhf"
			},
			{
				"type": "unocc",
				"energy": 0.09243,
				"method": "rhf"
			},
			{
				"type": "unocc",
				"energy": 0.10399,
				"method": "rhf"
			}
		],
		"cosmo_sigma_profile": { 
			"-0.025": 0.0,
			"-0.024": 0.0,
			"-0.023": 0.0,
			"-0.022": 0.0,
			"-0.021": 0.0,
			"-0.02": 0.0,
			"-0.019": 0.127975884402,
			"-0.018": 0.804829317013,
			"-0.017": 1.88653542388,
			"-0.016": 1.5376078294,
			"-0.015": 2.15638424491,
			"-0.014": 1.50803587518,
			"-0.013": 1.38568090589,
			"-0.012": 1.25589540097,
			"-0.011": 1.86243251624,
			"-0.01": 2.48036600468,
			"-0.009": 1.88091692186,
			"-0.008": 1.93330728538,
			"-0.007": 2.59369843626,
			"-0.006": 6.41179738815,
			"-0.005": 8.69941864618,
			"-0.004": 7.20294662286,
			"-0.003": 5.27658366617,
			"-0.002": 4.07478950386,
			"-0.001": 3.89485372343,
			"0.0": 7.71588351212,
			"0.001": 9.89765005836,
			"0.002": 11.341705279,
			"0.003": 10.4243368886,
			"0.004": 10.0819794421,
			"0.005": 4.58639505359,
			"0.006": 2.82508337412,
			"0.007": 3.18316748035,
			"0.008": 3.50672416836,
			"0.009": 4.23272133227,
			"0.01": 2.66769844535,
			"0.011": 3.72291620624,
			"0.012": 4.10602449916,
			"0.013": 2.51386368989,
			"0.014": 0.668749129262,
			"0.015": 0.00378854152061,
			"0.016": 0.0,
			"0.017": 0.0,
			"0.018": 0.0,
			"0.019": 0.0,
			"0.02": 0.0,
			"0.021": 0.0,
			"0.022": 0.0,
			"0.023": 0.0,
			"0.024": 0.0,
			"0.025": 0.0
		}
	}
}
