{
	 "smiles": "NC(=NO)C1=CN=C(OC2=CC=C(F)C=C2)C=C1", 
	 "Tm": 468.15, 
	 "num_atms": 28, 
	 "gaussian": { 
		 "optdone": 1, 
		 "sigma_profile": "yes", 
		 "theory": "DFT", 
		 "functional": "B3LYP", 
		 "basiset": "6-31G**", 
		 "properties": { 
			 "R2extent": 8072.0949, 
			 "electric_dipole_moment_norm": 2.77042348387, 
			 "electric_quadrupole_moment_norm": 8.78092937393, 
			 "total_energy": -877.770102493, 
			 "HOMO_LUMO_gap": 0.17779, 
			 "cosmo_polarized_energy": -16.87, 
			 "cosmo_cavitation_energy": 34.26, 
			 "cosmo_dispersion_energy": -24.66, 
			 "cosmo_repulsion_energy": 1.9, 
			 "cosmo_total_nonelectrostatic_energy": 11.5, 
			 "SMD_solvation_energy": 5.14 
		},
		"coords": [
			{
				"x": -1.6131445183,
				"y": 0.8274766291,
				"z": 2.5177059766,
				"element": "N" 
			},
			{
				"x": -1.913259847,
				"y": 1.0236933478,
				"z": 1.160532142,
				"element": "C" 
			},
			{
				"x": -3.068075661,
				"y": 1.5438067363,
				"z": 0.9117491644,
				"element": "N" 
			},
			{
				"x": -3.393585059,
				"y": 1.5330136752,
				"z": -0.4641483907,
				"element": "O" 
			},
			{
				"x": -0.8851027012,
				"y": 0.5446503189,
				"z": 0.2077550184,
				"element": "C" 
			},
			{
				"x": -0.6635483754,
				"y": 1.1418265278,
				"z": -1.0450941684,
				"element": "C" 
			},
			{
				"x": 0.285424976,
				"y": 0.7510869731,
				"z": -1.8972043827,
				"element": "N" 
			},
			{
				"x": 1.0602176376,
				"y": -0.2705179523,
				"z": -1.5454804449,
				"element": "C" 
			},
			{
				"x": 1.9983461345,
				"y": -0.5798450139,
				"z": -2.494243315,
				"element": "O" 
			},
			{
				"x": 2.8012517631,
				"y": -1.7008325353,
				"z": -2.3370637302,
				"element": "C" 
			},
			{
				"x": 2.3103686543,
				"y": -2.9654830006,
				"z": -2.6690298061,
				"element": "C" 
			},
			{
				"x": 3.1506036508,
				"y": -4.0753591713,
				"z": -2.5860976551,
				"element": "C" 
			},
			{
				"x": 4.4680690165,
				"y": -3.892005979,
				"z": -2.1777154685,
				"element": "C" 
			},
			{
				"x": 5.2829461995,
				"y": -4.9643055459,
				"z": -2.0999289841,
				"element": "F" 
			},
			{
				"x": 4.9715559945,
				"y": -2.6373957096,
				"z": -1.8516643333,
				"element": "C" 
			},
			{
				"x": 4.1253107226,
				"y": -1.5308783944,
				"z": -1.9318034189,
				"element": "C" 
			},
			{
				"x": 0.9458035616,
				"y": -0.9492732649,
				"z": -0.3239755358,
				"element": "C" 
			},
			{
				"x": -0.0407990933,
				"y": -0.522411482,
				"z": 0.5549988239,
				"element": "C" 
			},
			{
				"x": -2.3411305438,
				"y": 1.2084151731,
				"z": 3.1126459392,
				"element": "H" 
			},
			{
				"x": -0.6974107367,
				"y": 1.1731332019,
				"z": 2.7842544825,
				"element": "H" 
			},
			{
				"x": -4.2785773501,
				"y": 1.9187932649,
				"z": -0.4546504504,
				"element": "H" 
			},
			{
				"x": -1.2825419615,
				"y": 1.9715688773,
				"z": -1.366909479,
				"element": "H" 
			},
			{
				"x": 1.28174176,
				"y": -3.0704159884,
				"z": -2.9975721071,
				"element": "H" 
			},
			{
				"x": 2.8016699463,
				"y": -5.0703099066,
				"z": -2.8397449308,
				"element": "H" 
			},
			{
				"x": 6.0068940846,
				"y": -2.5381806815,
				"z": -1.5447380425,
				"element": "H" 
			},
			{
				"x": 4.4836743972,
				"y": -0.535009337,
				"z": -1.694052294,
				"element": "H" 
			},
			{
				"x": 1.6008938036,
				"y": -1.7744342032,
				"z": -0.0741600346,
				"element": "H" 
			},
			{
				"x": -0.1733964553,
				"y": -1.0190065593,
				"z": 1.5107354251,
				"element": "H" 
			}
		],
		 "valence_orbital": [ 
			{
				"type": "occ",
				"energy": -0.26999,
				"method": "rhf"
			},
			{
				"type": "occ",
				"energy": -0.26502,
				"method": "rhf"
			},
			{
				"type": "occ",
				"energy": -0.25148,
				"method": "rhf"
			},
			{
				"type": "occ",
				"energy": -0.24191,
				"method": "rhf"
			},
			{
				"type": "occ",
				"energy": -0.21214,
				"method": "rhf"
			},
			{
				"type": "unocc",
				"energy": -0.03435,
				"method": "rhf"
			},
			{
				"type": "unocc",
				"energy": -0.02624,
				"method": "rhf"
			},
			{
				"type": "unocc",
				"energy": -0.01746,
				"method": "rhf"
			},
			{
				"type": "unocc",
				"energy": -0.0063,
				"method": "rhf"
			},
			{
				"type": "unocc",
				"energy": 0.0527,
				"method": "rhf"
			}
		],
		"cosmo_sigma_profile": { 
			"-0.025": 0.0,
			"-0.024": 0.0,
			"-0.023": 0.0,
			"-0.022": 0.0,
			"-0.021": 0.0,
			"-0.02": 0.0,
			"-0.019": 0.0,
			"-0.018": 0.0,
			"-0.017": 0.48543938355,
			"-0.016": 0.814169233212,
			"-0.015": 1.21589169057,
			"-0.014": 0.811428096025,
			"-0.013": 1.1975222853,
			"-0.012": 2.66728085376,
			"-0.011": 3.08482653549,
			"-0.01": 3.48488910893,
			"-0.009": 3.10559485871,
			"-0.008": 5.41187103063,
			"-0.007": 11.8491034712,
			"-0.006": 13.5757549495,
			"-0.005": 15.9512604121,
			"-0.004": 10.715503158,
			"-0.003": 14.8130480958,
			"-0.002": 14.3527600597,
			"-0.001": 16.5854694642,
			"0.0": 21.2426849655,
			"0.001": 24.6726416732,
			"0.002": 24.5986655333,
			"0.003": 17.8516084465,
			"0.004": 16.8190594208,
			"0.005": 8.55453487958,
			"0.006": 7.0380028946,
			"0.007": 6.0424187763,
			"0.008": 5.64184130931,
			"0.009": 5.11614947895,
			"0.01": 4.49147912024,
			"0.011": 4.22156862352,
			"0.012": 2.90129717224,
			"0.013": 2.48068166309,
			"0.014": 1.32638666653,
			"0.015": 1.01649785079,
			"0.016": 0.45815331475,
			"0.017": 0.0,
			"0.018": 0.0,
			"0.019": 0.0,
			"0.02": 0.0,
			"0.021": 0.0,
			"0.022": 0.0,
			"0.023": 0.0,
			"0.024": 0.0,
			"0.025": 0.0
		}
	}
}
