{
	 "smiles": "CCOC(=O)C(=CC1=CC=CC=C1)C#N", 
	 "Tm": 324.15, 
	 "num_atms": 26, 
	 "gaussian": { 
		 "optdone": 1, 
		 "sigma_profile": "yes", 
		 "theory": "DFT", 
		 "functional": "B3LYP", 
		 "basiset": "6-31G**", 
		 "properties": { 
			 "R2extent": 4779.9646, 
			 "electric_dipole_moment_norm": 2.70765490785, 
			 "electric_quadrupole_moment_norm": 18.7062857372, 
			 "total_energy": -669.092442866, 
			 "HOMO_LUMO_gap": 0.15709, 
			 "cosmo_polarized_energy": -11.48, 
			 "cosmo_cavitation_energy": 31.77, 
			 "cosmo_dispersion_energy": -22.28, 
			 "cosmo_repulsion_energy": 1.76, 
			 "cosmo_total_nonelectrostatic_energy": 11.24, 
			 "SMD_solvation_energy": 7.76 
		},
		"coords": [
			{
				"x": 3.054566944,
				"y": 0.6534661634,
				"z": 4.9862465024,
				"element": "C" 
			},
			{
				"x": 3.5182338201,
				"y": -0.2622056788,
				"z": 3.8640637449,
				"element": "C" 
			},
			{
				"x": 2.8930785121,
				"y": 0.0933787611,
				"z": 2.6048673769,
				"element": "O" 
			},
			{
				"x": 1.6810299933,
				"y": -0.4323180929,
				"z": 2.3608438582,
				"element": "C" 
			},
			{
				"x": 1.0861613442,
				"y": -1.1814997643,
				"z": 3.1113635753,
				"element": "O" 
			},
			{
				"x": 1.1491170129,
				"y": 0.0178196315,
				"z": 1.0331964622,
				"element": "C" 
			},
			{
				"x": -0.0743078516,
				"y": -0.4518340525,
				"z": 0.6648592546,
				"element": "C" 
			},
			{
				"x": -0.8873142885,
				"y": -0.2373619259,
				"z": -0.5219782757,
				"element": "C" 
			},
			{
				"x": -0.5224153544,
				"y": 0.5755413299,
				"z": -1.6173203134,
				"element": "C" 
			},
			{
				"x": -1.3780634106,
				"y": 0.7117590155,
				"z": -2.7055394486,
				"element": "C" 
			},
			{
				"x": -2.608450357,
				"y": 0.0477234226,
				"z": -2.7309623122,
				"element": "C" 
			},
			{
				"x": -2.985132802,
				"y": -0.7604372817,
				"z": -1.6560644317,
				"element": "C" 
			},
			{
				"x": -2.1332949985,
				"y": -0.9000480738,
				"z": -0.565543987,
				"element": "C" 
			},
			{
				"x": 1.9558772517,
				"y": 0.9018317604,
				"z": 0.2538586023,
				"element": "C" 
			},
			{
				"x": 2.6087448477,
				"y": 1.6234379353,
				"z": -0.38585287,
				"element": "N" 
			},
			{
				"x": 3.5996904594,
				"y": 0.415025312,
				"z": 5.9055201257,
				"element": "H" 
			},
			{
				"x": 1.9869430896,
				"y": 0.5197183169,
				"z": 5.1768758086,
				"element": "H" 
			},
			{
				"x": 3.243380902,
				"y": 1.7013580318,
				"z": 4.7362792618,
				"element": "H" 
			},
			{
				"x": 3.2913901868,
				"y": -1.3079389781,
				"z": 4.0840544454,
				"element": "H" 
			},
			{
				"x": 4.5872831566,
				"y": -0.1525658108,
				"z": 3.6701365784,
				"element": "H" 
			},
			{
				"x": -0.5128327563,
				"y": -1.1122099605,
				"z": 1.4109034011,
				"element": "H" 
			},
			{
				"x": 0.4254020115,
				"y": 1.0985800493,
				"z": -1.6185778915,
				"element": "H" 
			},
			{
				"x": -1.083485862,
				"y": 1.3403952128,
				"z": -3.5404131084,
				"element": "H" 
			},
			{
				"x": -3.2695811107,
				"y": 0.1604491659,
				"z": -3.585286888,
				"element": "H" 
			},
			{
				"x": -3.9388528609,
				"y": -1.2791856281,
				"z": -1.6687404421,
				"element": "H" 
			},
			{
				"x": -2.4251678795,
				"y": -1.5286788609,
				"z": 0.2714109709,
				"element": "H" 
			}
		],
		 "valence_orbital": [ 
			{
				"type": "occ",
				"energy": -0.31272,
				"method": "rhf"
			},
			{
				"type": "occ",
				"energy": -0.30448,
				"method": "rhf"
			},
			{
				"type": "occ",
				"energy": -0.28309,
				"method": "rhf"
			},
			{
				"type": "occ",
				"energy": -0.26956,
				"method": "rhf"
			},
			{
				"type": "occ",
				"energy": -0.24754,
				"method": "rhf"
			},
			{
				"type": "unocc",
				"energy": -0.09045,
				"method": "rhf"
			},
			{
				"type": "unocc",
				"energy": -0.01809,
				"method": "rhf"
			},
			{
				"type": "unocc",
				"energy": 0.00891,
				"method": "rhf"
			},
			{
				"type": "unocc",
				"energy": 0.02362,
				"method": "rhf"
			},
			{
				"type": "unocc",
				"energy": 0.02937,
				"method": "rhf"
			}
		],
		"cosmo_sigma_profile": { 
			"-0.025": 0.0,
			"-0.024": 0.0,
			"-0.023": 0.0,
			"-0.022": 0.0,
			"-0.021": 0.0,
			"-0.02": 0.0,
			"-0.019": 0.0,
			"-0.018": 0.0,
			"-0.017": 0.0,
			"-0.016": 0.0,
			"-0.015": 0.0,
			"-0.014": 0.0,
			"-0.013": 0.0,
			"-0.012": 0.0,
			"-0.011": 0.0,
			"-0.01": 0.0521469352808,
			"-0.009": 1.11512424739,
			"-0.008": 2.32310595685,
			"-0.007": 6.37563507529,
			"-0.006": 13.2142861267,
			"-0.005": 17.5433190763,
			"-0.004": 21.7041505618,
			"-0.003": 24.0224253754,
			"-0.002": 26.5044750328,
			"-0.001": 26.2571010092,
			"0.0": 20.2366674704,
			"0.001": 14.6592583759,
			"0.002": 14.832354552,
			"0.003": 17.9366089266,
			"0.004": 7.52271298139,
			"0.005": 4.27342890234,
			"0.006": 4.92739797125,
			"0.007": 5.59414744099,
			"0.008": 6.00082528408,
			"0.009": 4.27716652907,
			"0.01": 5.19662056906,
			"0.011": 5.91159568749,
			"0.012": 3.63614373703,
			"0.013": 0.979908711479,
			"0.014": 0.0,
			"0.015": 0.0,
			"0.016": 0.0,
			"0.017": 0.0,
			"0.018": 0.0,
			"0.019": 0.0,
			"0.02": 0.0,
			"0.021": 0.0,
			"0.022": 0.0,
			"0.023": 0.0,
			"0.024": 0.0,
			"0.025": 0.0
		}
	}
}
