{
	 "smiles": "NCCC1=CCCCC1", 
	 "Tm": 218.15, 
	 "num_atms": 24, 
	 "gaussian": { 
		 "optdone": 1, 
		 "sigma_profile": "yes", 
		 "theory": "DFT", 
		 "functional": "B3LYP", 
		 "basiset": "6-31G**", 
		 "properties": { 
			 "R2extent": 2011.5618, 
			 "electric_dipole_moment_norm": 1.45780696939, 
			 "electric_quadrupole_moment_norm": 8.12926625102, 
			 "total_energy": -368.63676191, 
			 "HOMO_LUMO_gap": 0.24259, 
			 "cosmo_polarized_energy": -5.37, 
			 "cosmo_cavitation_energy": 24.6, 
			 "cosmo_dispersion_energy": -18.0, 
			 "cosmo_repulsion_energy": 1.5, 
			 "cosmo_total_nonelectrostatic_energy": 8.1, 
			 "SMD_solvation_energy": 2.01 
		},
		"coords": [
			{
				"x": 2.8988538586,
				"y": 2.3248487852,
				"z": 0.6006994879,
				"element": "N" 
			},
			{
				"x": 3.3813614794,
				"y": 1.2522099306,
				"z": 1.4705529992,
				"element": "C" 
			},
			{
				"x": 3.1518211544,
				"y": -0.2084788395,
				"z": 1.0061001095,
				"element": "C" 
			},
			{
				"x": 1.6944258413,
				"y": -0.5775595903,
				"z": 0.7974693265,
				"element": "C" 
			},
			{
				"x": 0.9202198786,
				"y": -0.9601163491,
				"z": 1.824346676,
				"element": "C" 
			},
			{
				"x": -0.5535263709,
				"y": -1.2684767779,
				"z": 1.7224953246,
				"element": "C" 
			},
			{
				"x": -1.1568166046,
				"y": -0.7872925743,
				"z": 0.3950367254,
				"element": "C" 
			},
			{
				"x": -0.2317984027,
				"y": -1.1450099426,
				"z": -0.7740076602,
				"element": "C" 
			},
			{
				"x": 1.1413245138,
				"y": -0.4763782284,
				"z": -0.6125041293,
				"element": "C" 
			},
			{
				"x": 3.2866604802,
				"y": 2.223307146,
				"z": -0.3348931617,
				"element": "H" 
			},
			{
				"x": 1.8884436525,
				"y": 2.2655085366,
				"z": 0.5035490435,
				"element": "H" 
			},
			{
				"x": 4.4579848732,
				"y": 1.4017113679,
				"z": 1.6233876439,
				"element": "H" 
			},
			{
				"x": 2.9065182081,
				"y": 1.385012928,
				"z": 2.4499575431,
				"element": "H" 
			},
			{
				"x": 3.5957011102,
				"y": -0.869806726,
				"z": 1.7619237175,
				"element": "H" 
			},
			{
				"x": 3.7155891188,
				"y": -0.3766539035,
				"z": 0.0777316391,
				"element": "H" 
			},
			{
				"x": 1.3700564996,
				"y": -1.0580678861,
				"z": 2.8130727459,
				"element": "H" 
			},
			{
				"x": -0.7097959635,
				"y": -2.3530735381,
				"z": 1.8340073859,
				"element": "H" 
			},
			{
				"x": -1.0840916011,
				"y": -0.8111928443,
				"z": 2.5684605634,
				"element": "H" 
			},
			{
				"x": -1.2888947552,
				"y": 0.3026629839,
				"z": 0.4299874069,
				"element": "H" 
			},
			{
				"x": -2.1527702179,
				"y": -1.2210851105,
				"z": 0.2498828762,
				"element": "H" 
			},
			{
				"x": -0.1004999584,
				"y": -2.2349592897,
				"z": -0.805284769,
				"element": "H" 
			},
			{
				"x": -0.6812044737,
				"y": -0.8550658682,
				"z": -1.7307745328,
				"element": "H" 
			},
			{
				"x": 1.8606887249,
				"y": -0.9252392852,
				"z": -1.3114826196,
				"element": "H" 
			},
			{
				"x": 1.0823489544,
				"y": 0.5829950755,
				"z": -0.9072143419,
				"element": "H" 
			}
		],
		 "valence_orbital": [ 
			{
				"type": "occ",
				"energy": -0.32427,
				"method": "rhf"
			},
			{
				"type": "occ",
				"energy": -0.31173,
				"method": "rhf"
			},
			{
				"type": "occ",
				"energy": -0.29786,
				"method": "rhf"
			},
			{
				"type": "occ",
				"energy": -0.24164,
				"method": "rhf"
			},
			{
				"type": "occ",
				"energy": -0.21678,
				"method": "rhf"
			},
			{
				"type": "unocc",
				"energy": 0.02581,
				"method": "rhf"
			},
			{
				"type": "unocc",
				"energy": 0.07431,
				"method": "rhf"
			},
			{
				"type": "unocc",
				"energy": 0.10026,
				"method": "rhf"
			},
			{
				"type": "unocc",
				"energy": 0.1203,
				"method": "rhf"
			},
			{
				"type": "unocc",
				"energy": 0.12142,
				"method": "rhf"
			}
		],
		"cosmo_sigma_profile": { 
			"-0.025": 0.0,
			"-0.024": 0.0,
			"-0.023": 0.0,
			"-0.022": 0.0,
			"-0.021": 0.0,
			"-0.02": 0.0,
			"-0.019": 0.0,
			"-0.018": 0.0,
			"-0.017": 0.0,
			"-0.016": 0.0,
			"-0.015": 0.0,
			"-0.014": 0.0,
			"-0.013": 0.0,
			"-0.012": 0.0,
			"-0.011": 0.0,
			"-0.01": 0.085968586928,
			"-0.009": 0.875230628945,
			"-0.008": 2.2460802072,
			"-0.007": 2.36088896527,
			"-0.006": 3.2626573562,
			"-0.005": 3.52473621734,
			"-0.004": 3.85857134841,
			"-0.003": 13.3803905043,
			"-0.002": 31.8593866201,
			"-0.001": 35.5219440173,
			"0.0": 34.2181825981,
			"0.001": 24.41647965,
			"0.002": 8.3946462787,
			"0.003": 5.41710923424,
			"0.004": 3.75811047184,
			"0.005": 2.64333909116,
			"0.006": 2.67759632835,
			"0.007": 1.61197895336,
			"0.008": 1.32770043077,
			"0.009": 0.325200277286,
			"0.01": 0.970362792084,
			"0.011": 0.453794717938,
			"0.012": 0.944335130187,
			"0.013": 0.810326005716,
			"0.014": 0.399466486414,
			"0.015": 0.634284792505,
			"0.016": 0.846879482958,
			"0.017": 0.553315748083,
			"0.018": 0.525453413897,
			"0.019": 0.752072916323,
			"0.02": 0.509839655495,
			"0.021": 0.000987431560166,
			"0.022": 0.0,
			"0.023": 0.0,
			"0.024": 0.0,
			"0.025": 0.0
		}
	}
}
