{
	 "smiles": "OCC1OC(OCC2OC(O)C(O)C(O)C2O)C(O)C(O)C1O", 
	 "Tm": 359.15, 
	 "num_atms": 45, 
	 "gaussian": { 
		 "optdone": 1, 
		 "sigma_profile": "yes", 
		 "theory": "DFT", 
		 "functional": "B3LYP", 
		 "basiset": "6-31G**", 
		 "properties": { 
			 "R2extent": 7015.7913, 
			 "electric_dipole_moment_norm": 3.7842744549, 
			 "electric_quadrupole_moment_norm": 13.2148459972, 
			 "total_energy": -1297.90277235, 
			 "HOMO_LUMO_gap": 0.28793, 
			 "cosmo_polarized_energy": -30.81, 
			 "cosmo_cavitation_energy": 41.76, 
			 "cosmo_dispersion_energy": -29.76, 
			 "cosmo_repulsion_energy": 2.23, 
			 "cosmo_total_nonelectrostatic_energy": 14.23, 
			 "SMD_solvation_energy": 6.07 
		},
		"coords": [
			{
				"x": 3.2542937464,
				"y": -0.2101517906,
				"z": -0.1546510298,
				"element": "O" 
			},
			{
				"x": 2.9861684007,
				"y": 0.0841525025,
				"z": -1.5324119412,
				"element": "C" 
			},
			{
				"x": 2.0426316127,
				"y": 1.2756751052,
				"z": -1.6048665323,
				"element": "C" 
			},
			{
				"x": 0.8919428768,
				"y": 0.9449449391,
				"z": -0.8137923561,
				"element": "O" 
			},
			{
				"x": -0.0274787742,
				"y": 2.0279252802,
				"z": -0.6659743777,
				"element": "C" 
			},
			{
				"x": -1.0471881343,
				"y": 1.6572251817,
				"z": 0.2054582663,
				"element": "O" 
			},
			{
				"x": -2.0425327194,
				"y": 0.7039522755,
				"z": -0.2019972901,
				"element": "C" 
			},
			{
				"x": -1.8721298206,
				"y": -0.6774458165,
				"z": 0.4395468171,
				"element": "C" 
			},
			{
				"x": -0.6534610668,
				"y": -1.2183921463,
				"z": -0.0619371711,
				"element": "O" 
			},
			{
				"x": 0.1398494626,
				"y": -2.1104932662,
				"z": 0.7353325984,
				"element": "C" 
			},
			{
				"x": 1.315986987,
				"y": -2.3316973519,
				"z": 0.0406443978,
				"element": "O" 
			},
			{
				"x": 0.3938298175,
				"y": -1.5700158486,
				"z": 2.1751873873,
				"element": "C" 
			},
			{
				"x": 0.1498343936,
				"y": -2.6402277408,
				"z": 3.0729716166,
				"element": "O" 
			},
			{
				"x": -0.5213151139,
				"y": -0.3826640815,
				"z": 2.5183108801,
				"element": "C" 
			},
			{
				"x": -0.6460352446,
				"y": -0.2526012507,
				"z": 3.9501345475,
				"element": "O" 
			},
			{
				"x": -1.9173500767,
				"y": -0.6640831643,
				"z": 1.9806302888,
				"element": "C" 
			},
			{
				"x": -2.8646822043,
				"y": 0.2938036748,
				"z": 2.4132797309,
				"element": "O" 
			},
			{
				"x": -0.4898024349,
				"y": 2.5328027951,
				"z": -2.0623653927,
				"element": "C" 
			},
			{
				"x": -0.0000920502,
				"y": 3.8691141889,
				"z": -2.1734393533,
				"element": "O" 
			},
			{
				"x": 0.0988217352,
				"y": 1.6490584719,
				"z": -3.1734256375,
				"element": "C" 
			},
			{
				"x": -0.4263982579,
				"y": 0.3209176349,
				"z": -3.150788513,
				"element": "O" 
			},
			{
				"x": 1.6365656235,
				"y": 1.5983177641,
				"z": -3.083007716,
				"element": "C" 
			},
			{
				"x": 2.1244731082,
				"y": 0.6591035422,
				"z": -4.0284037318,
				"element": "O" 
			},
			{
				"x": 4.0101952407,
				"y": -0.8114280752,
				"z": -0.1273886793,
				"element": "H" 
			},
			{
				"x": 3.9048526149,
				"y": 0.3309686992,
				"z": -2.0761047515,
				"element": "H" 
			},
			{
				"x": 2.5274388561,
				"y": -0.7814835494,
				"z": -2.0228718024,
				"element": "H" 
			},
			{
				"x": 2.5306585825,
				"y": 2.1524259025,
				"z": -1.152871373,
				"element": "H" 
			},
			{
				"x": 0.4809513416,
				"y": 2.8672665455,
				"z": -0.1713789872,
				"element": "H" 
			},
			{
				"x": -2.0400787009,
				"y": 0.5682090906,
				"z": -1.2875248107,
				"element": "H" 
			},
			{
				"x": -3.0082506475,
				"y": 1.1125847687,
				"z": 0.1040313845,
				"element": "H" 
			},
			{
				"x": -2.7217741298,
				"y": -1.2799879108,
				"z": 0.0758531687,
				"element": "H" 
			},
			{
				"x": -0.3667442453,
				"y": -3.0798846567,
				"z": 0.8307145415,
				"element": "H" 
			},
			{
				"x": 1.8574327775,
				"y": -1.5193004579,
				"z": 0.0905062854,
				"element": "H" 
			},
			{
				"x": 1.446156267,
				"y": -1.2478248084,
				"z": 2.2376741962,
				"element": "H" 
			},
			{
				"x": -0.0500452689,
				"y": -2.2195577738,
				"z": 3.9246738739,
				"element": "H" 
			},
			{
				"x": -0.1457797056,
				"y": 0.5448783346,
				"z": 2.081282387,
				"element": "H" 
			},
			{
				"x": 0.044010811,
				"y": 0.3465366941,
				"z": 4.2611263431,
				"element": "H" 
			},
			{
				"x": -2.2037968612,
				"y": -1.6673818921,
				"z": 2.3354978894,
				"element": "H" 
			},
			{
				"x": -2.6749859025,
				"y": 0.4318223154,
				"z": 3.35315123,
				"element": "H" 
			},
			{
				"x": -1.585206325,
				"y": 2.5143018839,
				"z": -2.1215593703,
				"element": "H" 
			},
			{
				"x": -0.3681631962,
				"y": 4.26139553,
				"z": -2.9759479534,
				"element": "H" 
			},
			{
				"x": -0.1826534072,
				"y": 2.0525147677,
				"z": -4.1534298285,
				"element": "H" 
			},
			{
				"x": -0.2009694544,
				"y": -0.0666864309,
				"z": -2.2840077814,
				"element": "H" 
			},
			{
				"x": 2.0506594705,
				"y": 2.5721413219,
				"z": -3.3582896424,
				"element": "H" 
			},
			{
				"x": 1.4318600164,
				"y": -0.0196311976,
				"z": -4.0975718076,
				"element": "H" 
			}
		],
		 "valence_orbital": [ 
			{
				"type": "occ",
				"energy": -0.27227,
				"method": "rhf"
			},
			{
				"type": "occ",
				"energy": -0.26355,
				"method": "rhf"
			},
			{
				"type": "occ",
				"energy": -0.25571,
				"method": "rhf"
			},
			{
				"type": "occ",
				"energy": -0.24968,
				"method": "rhf"
			},
			{
				"type": "occ",
				"energy": -0.24264,
				"method": "rhf"
			},
			{
				"type": "unocc",
				"energy": 0.04529,
				"method": "rhf"
			},
			{
				"type": "unocc",
				"energy": 0.0472,
				"method": "rhf"
			},
			{
				"type": "unocc",
				"energy": 0.0535,
				"method": "rhf"
			},
			{
				"type": "unocc",
				"energy": 0.07399,
				"method": "rhf"
			},
			{
				"type": "unocc",
				"energy": 0.09505,
				"method": "rhf"
			}
		],
		"cosmo_sigma_profile": { 
			"-0.025": 0.0,
			"-0.024": 0.0,
			"-0.023": 0.0,
			"-0.022": 0.0,
			"-0.021": 0.0,
			"-0.02": 0.0,
			"-0.019": 0.0,
			"-0.018": 0.0295748992751,
			"-0.017": 1.41638002008,
			"-0.016": 4.12533180941,
			"-0.015": 2.6184559648,
			"-0.014": 3.42573278739,
			"-0.013": 2.87347227811,
			"-0.012": 3.81487829719,
			"-0.011": 4.2291129557,
			"-0.01": 4.30570655989,
			"-0.009": 6.43286074577,
			"-0.008": 6.29251779749,
			"-0.007": 8.04036097383,
			"-0.006": 12.1055707889,
			"-0.005": 27.1698321679,
			"-0.004": 26.6232459914,
			"-0.003": 21.5467851022,
			"-0.002": 18.197965364,
			"-0.001": 17.1292294673,
			"0.0": 13.6437959929,
			"0.001": 12.6571942941,
			"0.002": 11.2246095591,
			"0.003": 10.9708519928,
			"0.004": 11.5140592984,
			"0.005": 10.0388390435,
			"0.006": 10.9226862503,
			"0.007": 9.52667866458,
			"0.008": 10.4852482493,
			"0.009": 8.08172336102,
			"0.01": 10.4406373746,
			"0.011": 10.3218898232,
			"0.012": 9.09360930696,
			"0.013": 8.43428997773,
			"0.014": 3.97546714113,
			"0.015": 0.117328891561,
			"0.016": 0.0,
			"0.017": 0.0,
			"0.018": 0.0,
			"0.019": 0.0,
			"0.02": 0.0,
			"0.021": 0.0,
			"0.022": 0.0,
			"0.023": 0.0,
			"0.024": 0.0,
			"0.025": 0.0
		}
	}
}
