{
	 "smiles": "CCCCCCC(O)CCCCCCCCCCC(O)=O", 
	 "Tm": 350.9, 
	 "num_atms": 57, 
	 "gaussian": { 
		 "optdone": 1, 
		 "sigma_profile": "yes", 
		 "theory": "DFT", 
		 "functional": "B3LYP", 
		 "basiset": "6-31G**", 
		 "properties": { 
			 "R2extent": 8754.3388, 
			 "electric_dipole_moment_norm": 6.31882542012, 
			 "electric_quadrupole_moment_norm": 25.6544042714, 
			 "total_energy": -933.328813958, 
			 "HOMO_LUMO_gap": 0.26522, 
			 "cosmo_polarized_energy": -15.76, 
			 "cosmo_cavitation_energy": 52.66, 
			 "cosmo_dispersion_energy": -33.19, 
			 "cosmo_repulsion_energy": 2.59, 
			 "cosmo_total_nonelectrostatic_energy": 22.06, 
			 "SMD_solvation_energy": 7.69 
		},
		"coords": [
			{
				"x": -3.889582475,
				"y": -0.8373700908,
				"z": 3.7625493354,
				"element": "C" 
			},
			{
				"x": -2.4824087759,
				"y": -1.2051771332,
				"z": 4.2479142817,
				"element": "C" 
			},
			{
				"x": -1.3173611802,
				"y": -0.6677249994,
				"z": 3.3981830027,
				"element": "C" 
			},
			{
				"x": -1.1933521752,
				"y": 0.8716372185,
				"z": 3.3531379274,
				"element": "C" 
			},
			{
				"x": -1.9737252217,
				"y": 1.6049255534,
				"z": 2.2311448464,
				"element": "C" 
			},
			{
				"x": -1.1531306255,
				"y": 2.0343048314,
				"z": 0.9970729535,
				"element": "C" 
			},
			{
				"x": -0.6983022892,
				"y": 0.9723191323,
				"z": -0.0190702973,
				"element": "C" 
			},
			{
				"x": 0.2319588437,
				"y": 0.0315853456,
				"z": 0.5738441094,
				"element": "O" 
			},
			{
				"x": -1.8493024051,
				"y": 0.1805244182,
				"z": -0.643200508,
				"element": "C" 
			},
			{
				"x": -1.5003224732,
				"y": -0.8205116077,
				"z": -1.7617365996,
				"element": "C" 
			},
			{
				"x": -1.1574512858,
				"y": -0.2535288963,
				"z": -3.1572808236,
				"element": "C" 
			},
			{
				"x": 0.2078933991,
				"y": 0.4397424502,
				"z": -3.35410062,
				"element": "C" 
			},
			{
				"x": 1.3881157976,
				"y": -0.3833429629,
				"z": -2.8259540663,
				"element": "C" 
			},
			{
				"x": 2.772186959,
				"y": 0.2133678531,
				"z": -3.1101097191,
				"element": "C" 
			},
			{
				"x": 3.9566571185,
				"y": -0.6079608495,
				"z": -2.5599541985,
				"element": "C" 
			},
			{
				"x": 3.9598286514,
				"y": -0.8062341234,
				"z": -1.0267853236,
				"element": "C" 
			},
			{
				"x": 3.1976410687,
				"y": -2.05140818,
				"z": -0.5417083188,
				"element": "C" 
			},
			{
				"x": 2.9700846013,
				"y": -2.0796236342,
				"z": 0.9855304431,
				"element": "C" 
			},
			{
				"x": 1.9069730075,
				"y": -3.1061014639,
				"z": 1.362034179,
				"element": "C" 
			},
			{
				"x": 0.623141521,
				"y": -2.7342895158,
				"z": 1.1391190022,
				"element": "O" 
			},
			{
				"x": 2.1621354885,
				"y": -4.2091343035,
				"z": 1.7846304789,
				"element": "O" 
			},
			{
				"x": -4.0554714002,
				"y": -1.1714208488,
				"z": 2.731417663,
				"element": "H" 
			},
			{
				"x": -4.6535968992,
				"y": -1.3115001483,
				"z": 4.3878973097,
				"element": "H" 
			},
			{
				"x": -4.0674220432,
				"y": 0.2427514868,
				"z": 3.7961989706,
				"element": "H" 
			},
			{
				"x": -2.3574998116,
				"y": -0.8548161676,
				"z": 5.2822272118,
				"element": "H" 
			},
			{
				"x": -2.3974717028,
				"y": -2.2983728816,
				"z": 4.2877939442,
				"element": "H" 
			},
			{
				"x": -1.3845166676,
				"y": -1.0697159188,
				"z": 2.3817938431,
				"element": "H" 
			},
			{
				"x": -0.3912362428,
				"y": -1.084303864,
				"z": 3.8129594139,
				"element": "H" 
			},
			{
				"x": -0.1330250859,
				"y": 1.147538012,
				"z": 3.2745405399,
				"element": "H" 
			},
			{
				"x": -1.5152992231,
				"y": 1.2680394009,
				"z": 4.3251538294,
				"element": "H" 
			},
			{
				"x": -2.8341625289,
				"y": 1.0068014809,
				"z": 1.9149799586,
				"element": "H" 
			},
			{
				"x": -2.3983588299,
				"y": 2.5267352022,
				"z": 2.6470093053,
				"element": "H" 
			},
			{
				"x": -1.7359502321,
				"y": 2.7707491291,
				"z": 0.4277436258,
				"element": "H" 
			},
			{
				"x": -0.2601229576,
				"y": 2.5790491931,
				"z": 1.3418471718,
				"element": "H" 
			},
			{
				"x": -0.1644773945,
				"y": 1.5086296354,
				"z": -0.8149715634,
				"element": "H" 
			},
			{
				"x": 0.8979840906,
				"y": 0.5438046638,
				"z": 1.0502569568,
				"element": "H" 
			},
			{
				"x": -2.5761534592,
				"y": 0.910169405,
				"z": -1.0252333102,
				"element": "H" 
			},
			{
				"x": -2.3562182463,
				"y": -0.3679796122,
				"z": 0.1588383466,
				"element": "H" 
			},
			{
				"x": -0.7087141431,
				"y": -1.4937333556,
				"z": -1.4157843747,
				"element": "H" 
			},
			{
				"x": -2.3823501577,
				"y": -1.4597409894,
				"z": -1.8915183467,
				"element": "H" 
			},
			{
				"x": -1.9559463773,
				"y": 0.4347871455,
				"z": -3.4673098945,
				"element": "H" 
			},
			{
				"x": -1.2030650227,
				"y": -1.0958883762,
				"z": -3.860639632,
				"element": "H" 
			},
			{
				"x": 0.2125292648,
				"y": 1.4292320595,
				"z": -2.8776916164,
				"element": "H" 
			},
			{
				"x": 0.3393193346,
				"y": 0.6317376109,
				"z": -4.4278707838,
				"element": "H" 
			},
			{
				"x": 1.2654078792,
				"y": -0.4911234499,
				"z": -1.7454953634,
				"element": "H" 
			},
			{
				"x": 1.3379696126,
				"y": -1.3981400947,
				"z": -3.2476623641,
				"element": "H" 
			},
			{
				"x": 2.9019998624,
				"y": 0.335501243,
				"z": -4.1941727296,
				"element": "H" 
			},
			{
				"x": 2.8202454441,
				"y": 1.2270221236,
				"z": -2.6851365091,
				"element": "H" 
			},
			{
				"x": 3.9841861376,
				"y": -1.5894854064,
				"z": -3.0534945829,
				"element": "H" 
			},
			{
				"x": 4.8826276883,
				"y": -0.0996205573,
				"z": -2.8551013339,
				"element": "H" 
			},
			{
				"x": 4.9940891111,
				"y": -0.8659539936,
				"z": -0.6648528659,
				"element": "H" 
			},
			{
				"x": 3.5302770477,
				"y": 0.0889756529,
				"z": -0.552976338,
				"element": "H" 
			},
			{
				"x": 2.2262639606,
				"y": -2.1083043312,
				"z": -1.0378350547,
				"element": "H" 
			},
			{
				"x": 3.7399071788,
				"y": -2.9574199439,
				"z": -0.8374011882,
				"element": "H" 
			},
			{
				"x": 2.6570846727,
				"y": -1.0844676143,
				"z": 1.3270369479,
				"element": "H" 
			},
			{
				"x": 3.8899219011,
				"y": -2.3372634399,
				"z": 1.5157707691,
				"element": "H" 
			},
			{
				"x": 0.54116769,
				"y": -1.7969714931,
				"z": 0.8703219587,
				"element": "H" 
			}
		],
		 "valence_orbital": [ 
			{
				"type": "occ",
				"energy": -0.30558,
				"method": "rhf"
			},
			{
				"type": "occ",
				"energy": -0.30391,
				"method": "rhf"
			},
			{
				"type": "occ",
				"energy": -0.28934,
				"method": "rhf"
			},
			{
				"type": "occ",
				"energy": -0.28479,
				"method": "rhf"
			},
			{
				"type": "occ",
				"energy": -0.24597,
				"method": "rhf"
			},
			{
				"type": "unocc",
				"energy": 0.01925,
				"method": "rhf"
			},
			{
				"type": "unocc",
				"energy": 0.03396,
				"method": "rhf"
			},
			{
				"type": "unocc",
				"energy": 0.07094,
				"method": "rhf"
			},
			{
				"type": "unocc",
				"energy": 0.07693,
				"method": "rhf"
			},
			{
				"type": "unocc",
				"energy": 0.08583,
				"method": "rhf"
			}
		],
		"cosmo_sigma_profile": { 
			"-0.025": 0.0,
			"-0.024": 0.0,
			"-0.023": 0.0,
			"-0.022": 0.0,
			"-0.021": 0.0,
			"-0.02": 0.0,
			"-0.019": 0.0,
			"-0.018": 0.0,
			"-0.017": 0.0,
			"-0.016": 0.0,
			"-0.015": 0.10693781287,
			"-0.014": 0.579146322374,
			"-0.013": 1.05674156027,
			"-0.012": 1.0284591037,
			"-0.011": 1.67076039164,
			"-0.01": 1.32424620587,
			"-0.009": 2.5281479415,
			"-0.008": 1.95622330776,
			"-0.007": 1.57208212595,
			"-0.006": 2.88814599276,
			"-0.005": 4.25733515209,
			"-0.004": 7.21223235009,
			"-0.003": 23.2061295838,
			"-0.002": 61.1668075388,
			"-0.001": 86.9374711124,
			"0.0": 85.4243380273,
			"0.001": 58.9034307936,
			"0.002": 22.4724031031,
			"0.003": 3.47373942714,
			"0.004": 2.5969940954,
			"0.005": 2.41650156079,
			"0.006": 2.98922476801,
			"0.007": 2.01304658232,
			"0.008": 1.95899364213,
			"0.009": 2.32323698495,
			"0.01": 3.2280354469,
			"0.011": 3.48152449465,
			"0.012": 6.94189936713,
			"0.013": 5.6039923806,
			"0.014": 2.09135469218,
			"0.015": 0.0283040598152,
			"0.016": 0.0,
			"0.017": 0.0,
			"0.018": 0.0,
			"0.019": 0.0,
			"0.02": 0.0,
			"0.021": 0.0,
			"0.022": 0.0,
			"0.023": 0.0,
			"0.024": 0.0,
			"0.025": 0.0
		}
	}
}
