{
	 "smiles": "SC1=NN=C(O1)C1COC2=C(O1)C=CC=C2", 
	 "Tm": 426.15, 
	 "num_atms": 24, 
	 "gaussian": { 
		 "optdone": 1, 
		 "sigma_profile": "yes", 
		 "theory": "DFT", 
		 "functional": "B3LYP", 
		 "basiset": "6-31G**", 
		 "properties": { 
			 "R2extent": 4116.827, 
			 "electric_dipole_moment_norm": 3.52973586831, 
			 "electric_quadrupole_moment_norm": 18.8569774784, 
			 "total_energy": -1119.17646932, 
			 "HOMO_LUMO_gap": 0.19681, 
			 "cosmo_polarized_energy": -14.56, 
			 "cosmo_cavitation_energy": 30.57, 
			 "cosmo_dispersion_energy": -22.62, 
			 "cosmo_repulsion_energy": 1.73, 
			 "cosmo_total_nonelectrostatic_energy": 9.69, 
			 "SMD_solvation_energy": 3.14 
		},
		"coords": [
			{
				"x": -2.9503535181,
				"y": -2.8159866676,
				"z": 1.8139906192,
				"element": "S" 
			},
			{
				"x": -2.7557119932,
				"y": -1.3289253841,
				"z": 0.9027169435,
				"element": "C" 
			},
			{
				"x": -3.6807405703,
				"y": -0.6828541626,
				"z": 0.2661476697,
				"element": "N" 
			},
			{
				"x": -3.0393657639,
				"y": 0.4151873519,
				"z": -0.3177956707,
				"element": "N" 
			},
			{
				"x": -1.7939034721,
				"y": 0.3433824479,
				"z": 0.0228301068,
				"element": "C" 
			},
			{
				"x": -1.5271242203,
				"y": -0.7470584361,
				"z": 0.8072156498,
				"element": "O" 
			},
			{
				"x": -0.7014268392,
				"y": 1.2984504954,
				"z": -0.3447080634,
				"element": "C" 
			},
			{
				"x": -0.1376558338,
				"y": 2.088333702,
				"z": 0.8422759824,
				"element": "C" 
			},
			{
				"x": 0.5515454121,
				"y": 1.2347843273,
				"z": 1.7448413083,
				"element": "O" 
			},
			{
				"x": 1.4640821899,
				"y": 0.411987856,
				"z": 1.1243714248,
				"element": "C" 
			},
			{
				"x": 1.36318215,
				"y": 0.1156521009,
				"z": -0.2428031602,
				"element": "C" 
			},
			{
				"x": 0.3594199458,
				"y": 0.6333478977,
				"z": -1.0357625011,
				"element": "O" 
			},
			{
				"x": 2.301378179,
				"y": -0.7235416563,
				"z": -0.8439327687,
				"element": "C" 
			},
			{
				"x": 3.3305825294,
				"y": -1.2752451515,
				"z": -0.0826229177,
				"element": "C" 
			},
			{
				"x": 3.4207513367,
				"y": -0.994392545,
				"z": 1.2839200788,
				"element": "C" 
			},
			{
				"x": 2.4902471479,
				"y": -0.1479515849,
				"z": 1.8848588132,
				"element": "C" 
			},
			{
				"x": -1.6661776663,
				"y": -2.8590466215,
				"z": 2.2179954201,
				"element": "H" 
			},
			{
				"x": -1.1475539258,
				"y": 1.9937094292,
				"z": -1.0612968066,
				"element": "H" 
			},
			{
				"x": -0.938847501,
				"y": 2.5689822522,
				"z": 1.4074701447,
				"element": "H" 
			},
			{
				"x": 0.5415736773,
				"y": 2.8587561117,
				"z": 0.4523793452,
				"element": "H" 
			},
			{
				"x": 2.200593423,
				"y": -0.9331120015,
				"z": -1.9039402839,
				"element": "H" 
			},
			{
				"x": 4.0570640591,
				"y": -1.9276872495,
				"z": -0.5566861326,
				"element": "H" 
			},
			{
				"x": 4.2184713923,
				"y": -1.4257089854,
				"z": 1.8804099145,
				"element": "H" 
			},
			{
				"x": 2.5397698616,
				"y": 0.0974364739,
				"z": 2.9409248841,
				"element": "H" 
			}
		],
		 "valence_orbital": [ 
			{
				"type": "occ",
				"energy": -0.31466,
				"method": "rhf"
			},
			{
				"type": "occ",
				"energy": -0.28983,
				"method": "rhf"
			},
			{
				"type": "occ",
				"energy": -0.25607,
				"method": "rhf"
			},
			{
				"type": "occ",
				"energy": -0.24463,
				"method": "rhf"
			},
			{
				"type": "occ",
				"energy": -0.22225,
				"method": "rhf"
			},
			{
				"type": "unocc",
				"energy": -0.02544,
				"method": "rhf"
			},
			{
				"type": "unocc",
				"energy": -0.00805,
				"method": "rhf"
			},
			{
				"type": "unocc",
				"energy": -0.00535,
				"method": "rhf"
			},
			{
				"type": "unocc",
				"energy": 0.00707,
				"method": "rhf"
			},
			{
				"type": "unocc",
				"energy": 0.01957,
				"method": "rhf"
			}
		],
		"cosmo_sigma_profile": { 
			"-0.025": 0.0,
			"-0.024": 0.0,
			"-0.023": 0.0,
			"-0.022": 0.0,
			"-0.021": 0.0,
			"-0.02": 0.0,
			"-0.019": 0.0,
			"-0.018": 0.0,
			"-0.017": 0.0,
			"-0.016": 0.0,
			"-0.015": 0.0,
			"-0.014": 0.309653660517,
			"-0.013": 2.13281879131,
			"-0.012": 1.57599676201,
			"-0.011": 1.35569884979,
			"-0.01": 3.10939259055,
			"-0.009": 4.99843451722,
			"-0.008": 8.20765802915,
			"-0.007": 9.40084143741,
			"-0.006": 12.7238883259,
			"-0.005": 15.3840915083,
			"-0.004": 16.6888029213,
			"-0.003": 13.4277768246,
			"-0.002": 13.1799847302,
			"-0.001": 14.3020384929,
			"0.0": 13.7543913392,
			"0.001": 14.8711890484,
			"0.002": 16.3906426624,
			"0.003": 17.0619772466,
			"0.004": 17.9191194129,
			"0.005": 15.5780096256,
			"0.006": 7.03696495509,
			"0.007": 5.17145215374,
			"0.008": 5.35055151424,
			"0.009": 3.60071104368,
			"0.01": 4.56616542711,
			"0.011": 3.34328338258,
			"0.012": 2.68680412184,
			"0.013": 2.31527415955,
			"0.014": 1.59632788617,
			"0.015": 0.166100115556,
			"0.016": 0.0,
			"0.017": 0.0,
			"0.018": 0.0,
			"0.019": 0.0,
			"0.02": 0.0,
			"0.021": 0.0,
			"0.022": 0.0,
			"0.023": 0.0,
			"0.024": 0.0,
			"0.025": 0.0
		}
	}
}
