{
	 "smiles": "CC(C)N(C(C)C)S(=O)(=O)C1=CN=C(NN)C=C1", 
	 "Tm": 433.15, 
	 "num_atms": 38, 
	 "gaussian": { 
		 "optdone": 1, 
		 "sigma_profile": "yes", 
		 "theory": "DFT", 
		 "functional": "B3LYP", 
		 "basiset": "6-31G**", 
		 "properties": { 
			 "R2extent": 6338.08, 
			 "electric_dipole_moment_norm": 4.10277107575, 
			 "electric_quadrupole_moment_norm": 19.8572637108, 
			 "total_energy": -1198.7729681, 
			 "HOMO_LUMO_gap": 0.19001, 
			 "cosmo_polarized_energy": -18.8, 
			 "cosmo_cavitation_energy": 40.26, 
			 "cosmo_dispersion_energy": -27.6, 
			 "cosmo_repulsion_energy": 2.08, 
			 "cosmo_total_nonelectrostatic_energy": 14.75, 
			 "SMD_solvation_energy": 5.34 
		},
		"coords": [
			{
				"x": 0.755916775,
				"y": -2.2464667613,
				"z": -2.7732659248,
				"element": "C" 
			},
			{
				"x": 1.0727388009,
				"y": -0.7834535766,
				"z": -2.4212504363,
				"element": "C" 
			},
			{
				"x": 0.7318192256,
				"y": 0.1758491399,
				"z": -3.5687672109,
				"element": "C" 
			},
			{
				"x": 0.5056158779,
				"y": -0.3088027821,
				"z": -1.1205844625,
				"element": "N" 
			},
			{
				"x": 1.4040741814,
				"y": -0.2431770969,
				"z": 0.0662719999,
				"element": "C" 
			},
			{
				"x": 2.0442527063,
				"y": -1.5892293761,
				"z": 0.4350455474,
				"element": "C" 
			},
			{
				"x": 2.4422238657,
				"y": 0.8723880302,
				"z": -0.11292996,
				"element": "C" 
			},
			{
				"x": -1.1168362564,
				"y": -0.581110047,
				"z": -0.7685016273,
				"element": "S" 
			},
			{
				"x": -1.8209936981,
				"y": -0.6850487518,
				"z": -2.05269227,
				"element": "O" 
			},
			{
				"x": -1.280513317,
				"y": -1.6427357529,
				"z": 0.2391900907,
				"element": "O" 
			},
			{
				"x": -1.5996717655,
				"y": 0.9419745816,
				"z": 0.0328676625,
				"element": "C" 
			},
			{
				"x": -1.501594653,
				"y": 2.1688177309,
				"z": -0.6332223874,
				"element": "C" 
			},
			{
				"x": -1.9121180903,
				"y": 3.3191886368,
				"z": -0.1090840602,
				"element": "N" 
			},
			{
				"x": -2.4554473476,
				"y": 3.2944066958,
				"z": 1.1267906957,
				"element": "C" 
			},
			{
				"x": -2.832445279,
				"y": 4.5216748846,
				"z": 1.61077282,
				"element": "N" 
			},
			{
				"x": -3.6562216543,
				"y": 4.7145452238,
				"z": 2.724057867,
				"element": "N" 
			},
			{
				"x": -2.6062894861,
				"y": 2.1061110969,
				"z": 1.8738593577,
				"element": "C" 
			},
			{
				"x": -2.17203324,
				"y": 0.9172874543,
				"z": 1.3081110157,
				"element": "C" 
			},
			{
				"x": 1.0068146561,
				"y": -2.9188513451,
				"z": -1.9488513303,
				"element": "H" 
			},
			{
				"x": -0.301196347,
				"y": -2.3727951562,
				"z": -3.0135683238,
				"element": "H" 
			},
			{
				"x": 1.3451019204,
				"y": -2.5451697732,
				"z": -3.6471233604,
				"element": "H" 
			},
			{
				"x": 2.1527410317,
				"y": -0.717777546,
				"z": -2.2562370736,
				"element": "H" 
			},
			{
				"x": 1.0253897188,
				"y": 1.1992661127,
				"z": -3.3156536374,
				"element": "H" 
			},
			{
				"x": -0.3377407699,
				"y": 0.1592793085,
				"z": -3.7855766135,
				"element": "H" 
			},
			{
				"x": 1.2733790957,
				"y": -0.1198020919,
				"z": -4.4740063055,
				"element": "H" 
			},
			{
				"x": 0.7615120948,
				"y": 0.0528556879,
				"z": 0.9018243225,
				"element": "H" 
			},
			{
				"x": 2.7283530047,
				"y": -1.9397286101,
				"z": -0.3449665926,
				"element": "H" 
			},
			{
				"x": 1.2739457166,
				"y": -2.3464263735,
				"z": 0.5969593636,
				"element": "H" 
			},
			{
				"x": 2.6259651892,
				"y": -1.4842121911,
				"z": 1.3571409254,
				"element": "H" 
			},
			{
				"x": 1.9533607116,
				"y": 1.8254786144,
				"z": -0.332137088,
				"element": "H" 
			},
			{
				"x": 3.0278250107,
				"y": 0.9856311736,
				"z": 0.8052037628,
				"element": "H" 
			},
			{
				"x": 3.1461560394,
				"y": 0.6532707554,
				"z": -0.9225413602,
				"element": "H" 
			},
			{
				"x": -1.0715543869,
				"y": 2.2174252963,
				"z": -1.6309787471,
				"element": "H" 
			},
			{
				"x": -2.8313210233,
				"y": 5.274726784,
				"z": 0.9364836926,
				"element": "H" 
			},
			{
				"x": -3.134076537,
				"y": 4.5290929238,
				"z": 3.5769977098,
				"element": "H" 
			},
			{
				"x": -4.4609846096,
				"y": 4.0889986575,
				"z": 2.6931828975,
				"element": "H" 
			},
			{
				"x": -3.0447778388,
				"y": 2.1235268382,
				"z": 2.8645787853,
				"element": "H" 
			},
			{
				"x": -2.2661693224,
				"y": -0.0274083953,
				"z": 1.8332002559,
				"element": "H" 
			}
		],
		 "valence_orbital": [ 
			{
				"type": "occ",
				"energy": -0.29036,
				"method": "rhf"
			},
			{
				"type": "occ",
				"energy": -0.28604,
				"method": "rhf"
			},
			{
				"type": "occ",
				"energy": -0.26964,
				"method": "rhf"
			},
			{
				"type": "occ",
				"energy": -0.24441,
				"method": "rhf"
			},
			{
				"type": "occ",
				"energy": -0.22433,
				"method": "rhf"
			},
			{
				"type": "unocc",
				"energy": -0.03432,
				"method": "rhf"
			},
			{
				"type": "unocc",
				"energy": -0.02519,
				"method": "rhf"
			},
			{
				"type": "unocc",
				"energy": 0.0591,
				"method": "rhf"
			},
			{
				"type": "unocc",
				"energy": 0.0684,
				"method": "rhf"
			},
			{
				"type": "unocc",
				"energy": 0.07501,
				"method": "rhf"
			}
		],
		"cosmo_sigma_profile": { 
			"-0.025": 0.0,
			"-0.024": 0.0,
			"-0.023": 0.0,
			"-0.022": 0.0,
			"-0.021": 0.0,
			"-0.02": 0.0,
			"-0.019": 0.0,
			"-0.018": 0.0,
			"-0.017": 0.0,
			"-0.016": 0.0,
			"-0.015": 0.0,
			"-0.014": 0.0562980153138,
			"-0.013": 0.615382005673,
			"-0.012": 1.91244158029,
			"-0.011": 4.3072321649,
			"-0.01": 5.41664825537,
			"-0.009": 4.45589520445,
			"-0.008": 4.3754933735,
			"-0.007": 5.845934507,
			"-0.006": 7.53600999077,
			"-0.005": 10.5668707008,
			"-0.004": 18.0006700108,
			"-0.003": 29.0916479578,
			"-0.002": 30.648279064,
			"-0.001": 34.1906339376,
			"0.0": 38.9888570893,
			"0.001": 34.8724457791,
			"0.002": 16.0781820351,
			"0.003": 8.47730197701,
			"0.004": 7.16497939249,
			"0.005": 6.66341102304,
			"0.006": 5.90555567412,
			"0.007": 5.3060588167,
			"0.008": 3.87367810969,
			"0.009": 5.61473366625,
			"0.01": 6.59166378878,
			"0.011": 7.27218010259,
			"0.012": 6.67072042461,
			"0.013": 2.33025648941,
			"0.014": 1.22259716909,
			"0.015": 0.711804731963,
			"0.016": 0.380989437228,
			"0.017": 0.00462006250307,
			"0.018": 0.0,
			"0.019": 0.0,
			"0.02": 0.0,
			"0.021": 0.0,
			"0.022": 0.0,
			"0.023": 0.0,
			"0.024": 0.0,
			"0.025": 0.0
		}
	}
}
