{
	 "smiles": "OC(=O)CC[N+]([O-])=O", 
	 "Tm": 336.15, 
	 "num_atms": 13, 
	 "gaussian": { 
		 "optdone": 1, 
		 "sigma_profile": "yes", 
		 "theory": "DFT", 
		 "functional": "B3LYP", 
		 "basiset": "6-31G**", 
		 "properties": { 
			 "R2extent": 1445.4891, 
			 "electric_dipole_moment_norm": 2.71564202354, 
			 "electric_quadrupole_moment_norm": 14.1053056791, 
			 "total_energy": -472.883040656, 
			 "HOMO_LUMO_gap": 0.22106, 
			 "cosmo_polarized_energy": -18.72, 
			 "cosmo_cavitation_energy": 18.6, 
			 "cosmo_dispersion_energy": -13.31, 
			 "cosmo_repulsion_energy": 1.15, 
			 "cosmo_total_nonelectrostatic_energy": 6.44, 
			 "SMD_solvation_energy": 6.67 
		},
		"coords": [
			{
				"x": 3.0243626026,
				"y": -1.5438866572,
				"z": -0.3266914876,
				"element": "O" 
			},
			{
				"x": 1.719239307,
				"y": -1.9064063067,
				"z": -0.3138832098,
				"element": "C" 
			},
			{
				"x": 1.3958650454,
				"y": -3.049690372,
				"z": -0.5136375958,
				"element": "O" 
			},
			{
				"x": 0.7272620968,
				"y": -0.782105338,
				"z": -0.0359032109,
				"element": "C" 
			},
			{
				"x": -0.7043161064,
				"y": -1.3144656206,
				"z": -0.0481754472,
				"element": "C" 
			},
			{
				"x": -1.6421045939,
				"y": -0.170515605,
				"z": 0.2296691052,
				"element": "N" 
			},
			{
				"x": -1.9044200884,
				"y": 0.0624256419,
				"z": 1.4058483812,
				"element": "O" 
			},
			{
				"x": -2.0386266496,
				"y": 0.472945829,
				"z": -0.7373864442,
				"element": "O" 
			},
			{
				"x": 3.123649347,
				"y": -0.597065673,
				"z": -0.1511384495,
				"element": "H" 
			},
			{
				"x": 0.8411084132,
				"y": 0.0028151529,
				"z": -0.7940942377,
				"element": "H" 
			},
			{
				"x": 0.9498998142,
				"y": -0.3295522425,
				"z": 0.9385342315,
				"element": "H" 
			},
			{
				"x": -0.8624331076,
				"y": -2.0555548116,
				"z": 0.733318813,
				"element": "H" 
			},
			{
				"x": -0.9723860802,
				"y": -1.7192439973,
				"z": -1.0224604482,
				"element": "H" 
			}
		],
		 "valence_orbital": [ 
			{
				"type": "occ",
				"energy": -0.33994,
				"method": "rhf"
			},
			{
				"type": "occ",
				"energy": -0.32156,
				"method": "rhf"
			},
			{
				"type": "occ",
				"energy": -0.31154,
				"method": "rhf"
			},
			{
				"type": "occ",
				"energy": -0.3013,
				"method": "rhf"
			},
			{
				"type": "occ",
				"energy": -0.29832,
				"method": "rhf"
			},
			{
				"type": "unocc",
				"energy": -0.07726,
				"method": "rhf"
			},
			{
				"type": "unocc",
				"energy": -0.014,
				"method": "rhf"
			},
			{
				"type": "unocc",
				"energy": 0.03314,
				"method": "rhf"
			},
			{
				"type": "unocc",
				"energy": 0.08237,
				"method": "rhf"
			},
			{
				"type": "unocc",
				"energy": 0.10171,
				"method": "rhf"
			}
		],
		"cosmo_sigma_profile": { 
			"-0.025": 0.0,
			"-0.024": 0.0,
			"-0.023": 0.0,
			"-0.022": 0.0,
			"-0.021": 0.0,
			"-0.02": 0.486477273729,
			"-0.019": 1.16033671611,
			"-0.018": 1.17160914346,
			"-0.017": 1.42174516384,
			"-0.016": 1.32534389301,
			"-0.015": 1.0165407268,
			"-0.014": 0.997200166975,
			"-0.013": 1.20127535771,
			"-0.012": 1.4441628234,
			"-0.011": 1.08410171287,
			"-0.01": 2.61417910273,
			"-0.009": 4.46475704653,
			"-0.008": 11.9437767655,
			"-0.007": 10.6128505585,
			"-0.006": 7.69245926792,
			"-0.005": 5.79220416562,
			"-0.004": 4.01571192831,
			"-0.003": 4.53987676368,
			"-0.002": 3.21235915081,
			"-0.001": 2.68917344088,
			"0.0": 4.20178112987,
			"0.001": 4.79250727989,
			"0.002": 2.60213644274,
			"0.003": 3.21459519779,
			"0.004": 4.56921270239,
			"0.005": 5.37383622354,
			"0.006": 5.37225198689,
			"0.007": 11.4526144976,
			"0.008": 12.6941701519,
			"0.009": 7.96799219327,
			"0.01": 7.48858720724,
			"0.011": 5.31046531289,
			"0.012": 2.42730003746,
			"0.013": 0.478049979096,
			"0.014": 0.0,
			"0.015": 0.0,
			"0.016": 0.0,
			"0.017": 0.0,
			"0.018": 0.0,
			"0.019": 0.0,
			"0.02": 0.0,
			"0.021": 0.0,
			"0.022": 0.0,
			"0.023": 0.0,
			"0.024": 0.0,
			"0.025": 0.0
		}
	}
}
