{
	 "smiles": "NS(=O)(=O)N1CCCC2=C1C=CC=C2", 
	 "Tm": 399.15, 
	 "num_atms": 26, 
	 "gaussian": { 
		 "optdone": 1, 
		 "sigma_profile": "yes", 
		 "theory": "DFT", 
		 "functional": "B3LYP", 
		 "basiset": "6-31G**", 
		 "properties": { 
			 "R2extent": 3074.633, 
			 "electric_dipole_moment_norm": 3.16362472332, 
			 "electric_quadrupole_moment_norm": 12.6076064893, 
			 "total_energy": -1008.26181292, 
			 "HOMO_LUMO_gap": 0.21837, 
			 "cosmo_polarized_energy": -15.17, 
			 "cosmo_cavitation_energy": 28.78, 
			 "cosmo_dispersion_energy": -22.05, 
			 "cosmo_repulsion_energy": 1.68, 
			 "cosmo_total_nonelectrostatic_energy": 8.4, 
			 "SMD_solvation_energy": 3.45 
		},
		"coords": [
			{
				"x": 3.0301726358,
				"y": 0.1570296376,
				"z": -1.479979325,
				"element": "N" 
			},
			{
				"x": 2.0304342478,
				"y": -0.1659023959,
				"z": -0.1566246441,
				"element": "S" 
			},
			{
				"x": 1.4024386405,
				"y": -1.4806653557,
				"z": -0.2612468356,
				"element": "O" 
			},
			{
				"x": 2.8498584889,
				"y": 0.1656515365,
				"z": 1.0118113585,
				"element": "O" 
			},
			{
				"x": 0.8354342193,
				"y": 1.0027835409,
				"z": -0.4771318159,
				"element": "N" 
			},
			{
				"x": 1.3008921855,
				"y": 2.3982861581,
				"z": -0.2955481857,
				"element": "C" 
			},
			{
				"x": 1.0721853574,
				"y": 2.8815840169,
				"z": 1.1363894672,
				"element": "C" 
			},
			{
				"x": -0.4249870895,
				"y": 2.8386272494,
				"z": 1.457949051,
				"element": "C" 
			},
			{
				"x": -1.1253752817,
				"y": 1.6136506215,
				"z": 0.8978095267,
				"element": "C" 
			},
			{
				"x": -0.5092558731,
				"y": 0.7442767711,
				"z": -0.0225914385,
				"element": "C" 
			},
			{
				"x": -1.2295125785,
				"y": -0.329233196,
				"z": -0.5695561353,
				"element": "C" 
			},
			{
				"x": -2.540856716,
				"y": -0.5697591304,
				"z": -0.1773503044,
				"element": "C" 
			},
			{
				"x": -3.1610111346,
				"y": 0.2770419702,
				"z": 0.7451787065,
				"element": "C" 
			},
			{
				"x": -2.4552009644,
				"y": 1.3579840641,
				"z": 1.2620215703,
				"element": "C" 
			},
			{
				"x": 2.6690538688,
				"y": -0.2920527234,
				"z": -2.3180210771,
				"element": "H" 
			},
			{
				"x": 3.9666044135,
				"y": -0.1731762188,
				"z": -1.2599003288,
				"element": "H" 
			},
			{
				"x": 0.7330357614,
				"y": 3.0069505942,
				"z": -1.0095922965,
				"element": "H" 
			},
			{
				"x": 2.3504222323,
				"y": 2.4461521308,
				"z": -0.587061089,
				"element": "H" 
			},
			{
				"x": 1.4595962169,
				"y": 3.8994543232,
				"z": 1.2556002597,
				"element": "H" 
			},
			{
				"x": 1.6377122379,
				"y": 2.2342431811,
				"z": 1.8129578225,
				"element": "H" 
			},
			{
				"x": -0.5864731577,
				"y": 2.8896931165,
				"z": 2.5409055354,
				"element": "H" 
			},
			{
				"x": -0.9120912937,
				"y": 3.7310617764,
				"z": 1.0395086386,
				"element": "H" 
			},
			{
				"x": -0.7452446716,
				"y": -0.975445386,
				"z": -1.2898290624,
				"element": "H" 
			},
			{
				"x": -3.0814350574,
				"y": -1.4104932753,
				"z": -0.6017240362,
				"element": "H" 
			},
			{
				"x": -4.187429614,
				"y": 0.0990694486,
				"z": 1.052111775,
				"element": "H" 
			},
			{
				"x": -2.9359670736,
				"y": 2.0275875442,
				"z": 1.971712863,
				"element": "H" 
			}
		],
		 "valence_orbital": [ 
			{
				"type": "occ",
				"energy": -0.30574,
				"method": "rhf"
			},
			{
				"type": "occ",
				"energy": -0.29801,
				"method": "rhf"
			},
			{
				"type": "occ",
				"energy": -0.27936,
				"method": "rhf"
			},
			{
				"type": "occ",
				"energy": -0.24111,
				"method": "rhf"
			},
			{
				"type": "occ",
				"energy": -0.22318,
				"method": "rhf"
			},
			{
				"type": "unocc",
				"energy": -0.00481,
				"method": "rhf"
			},
			{
				"type": "unocc",
				"energy": -0.00151,
				"method": "rhf"
			},
			{
				"type": "unocc",
				"energy": 0.05113,
				"method": "rhf"
			},
			{
				"type": "unocc",
				"energy": 0.07855,
				"method": "rhf"
			},
			{
				"type": "unocc",
				"energy": 0.08857,
				"method": "rhf"
			}
		],
		"cosmo_sigma_profile": { 
			"-0.025": 0.0,
			"-0.024": 0.0,
			"-0.023": 0.0,
			"-0.022": 0.0,
			"-0.021": 0.0,
			"-0.02": 0.0,
			"-0.019": 0.0,
			"-0.018": 0.0,
			"-0.017": 0.0,
			"-0.016": 0.109719843423,
			"-0.015": 2.17311385127,
			"-0.014": 2.8842641273,
			"-0.013": 2.54621821993,
			"-0.012": 2.96536289712,
			"-0.011": 1.86648319117,
			"-0.01": 1.52288124883,
			"-0.009": 1.37241128858,
			"-0.008": 1.2665912642,
			"-0.007": 1.76313098675,
			"-0.006": 4.42073933349,
			"-0.005": 13.7091445279,
			"-0.004": 22.5784678746,
			"-0.003": 23.7236571908,
			"-0.002": 19.8475971227,
			"-0.001": 16.6574882816,
			"0.0": 11.6270624065,
			"0.001": 10.5191879356,
			"0.002": 9.59016121194,
			"0.003": 10.073263217,
			"0.004": 12.3593409588,
			"0.005": 12.6828344113,
			"0.006": 9.70626534808,
			"0.007": 4.02644898909,
			"0.008": 4.8959337748,
			"0.009": 5.25325708245,
			"0.01": 7.02122928248,
			"0.011": 8.37229519091,
			"0.012": 1.70014959436,
			"0.013": 0.0,
			"0.014": 0.0,
			"0.015": 0.0,
			"0.016": 0.0,
			"0.017": 0.0,
			"0.018": 0.0,
			"0.019": 0.0,
			"0.02": 0.0,
			"0.021": 0.0,
			"0.022": 0.0,
			"0.023": 0.0,
			"0.024": 0.0,
			"0.025": 0.0
		}
	}
}
