{
	 "smiles": "CC1=C(Br)C=C(C=C1)S(Cl)(=O)=O", 
	 "Tm": 343.15, 
	 "num_atms": 18, 
	 "gaussian": { 
		 "optdone": 1, 
		 "sigma_profile": "yes", 
		 "theory": "DFT", 
		 "functional": "B3LYP", 
		 "basiset": "6-31G**", 
		 "properties": { 
			 "R2extent": 4553.0929, 
			 "electric_dipole_moment_norm": 5.44475329193, 
			 "electric_quadrupole_moment_norm": 11.3832653215, 
			 "total_energy": -3850.52958535, 
			 "HOMO_LUMO_gap": 0.17767, 
			 "cosmo_polarized_energy": -8.66, 
			 "cosmo_cavitation_energy": 27.98, 
			 "cosmo_dispersion_energy": -21.23, 
			 "cosmo_repulsion_energy": 1.65, 
			 "cosmo_total_nonelectrostatic_energy": 8.4, 
			 "SMD_solvation_energy": 2.46 
		},
		"coords": [
			{
				"x": 2.3467685294,
				"y": 2.2954411755,
				"z": -0.1480369862,
				"element": "C" 
			},
			{
				"x": 1.2409419786,
				"y": 1.4018465721,
				"z": 0.3441912696,
				"element": "C" 
			},
			{
				"x": 1.3863254977,
				"y": 0.0051434894,
				"z": 0.4243730447,
				"element": "C" 
			},
			{
				"x": 3.0296929636,
				"y": -0.8180684532,
				"z": -0.094031026,
				"element": "Br" 
			},
			{
				"x": 0.3632258781,
				"y": -0.821367705,
				"z": 0.8789520409,
				"element": "C" 
			},
			{
				"x": -0.8373639367,
				"y": -0.2270715183,
				"z": 1.2637634582,
				"element": "C" 
			},
			{
				"x": -1.0349131759,
				"y": 1.151120022,
				"z": 1.2073556339,
				"element": "C" 
			},
			{
				"x": 0.0114146167,
				"y": 1.9456669563,
				"z": 0.7477350192,
				"element": "C" 
			},
			{
				"x": -2.1545027295,
				"y": -1.2719922222,
				"z": 1.8661797453,
				"element": "S" 
			},
			{
				"x": -3.2108883996,
				"y": -1.6969530144,
				"z": 0.061532147,
				"element": "Cl" 
			},
			{
				"x": -3.059055673,
				"y": -0.477168228,
				"z": 2.6869384816,
				"element": "O" 
			},
			{
				"x": -1.5974942722,
				"y": -2.5402300939,
				"z": 2.3183547901,
				"element": "O" 
			},
			{
				"x": 2.0357204261,
				"y": 3.3422332684,
				"z": -0.1367561362,
				"element": "H" 
			},
			{
				"x": 3.2420318657,
				"y": 2.1916240185,
				"z": 0.4739878651,
				"element": "H" 
			},
			{
				"x": 2.6405893325,
				"y": 2.0304997057,
				"z": -1.1690845343,
				"element": "H" 
			},
			{
				"x": 0.4965380548,
				"y": -1.8942193214,
				"z": 0.9423822915,
				"element": "H" 
			},
			{
				"x": -1.9762085791,
				"y": 1.5853961353,
				"z": 1.5236241385,
				"element": "H" 
			},
			{
				"x": -0.1218223773,
				"y": 3.0222992133,
				"z": 0.7008387571,
				"element": "H" 
			}
		],
		 "valence_orbital": [ 
			{
				"type": "occ",
				"energy": -0.33066,
				"method": "rhf"
			},
			{
				"type": "occ",
				"energy": -0.31556,
				"method": "rhf"
			},
			{
				"type": "occ",
				"energy": -0.30762,
				"method": "rhf"
			},
			{
				"type": "occ",
				"energy": -0.29054,
				"method": "rhf"
			},
			{
				"type": "occ",
				"energy": -0.27097,
				"method": "rhf"
			},
			{
				"type": "unocc",
				"energy": -0.0933,
				"method": "rhf"
			},
			{
				"type": "unocc",
				"energy": -0.04951,
				"method": "rhf"
			},
			{
				"type": "unocc",
				"energy": -0.04584,
				"method": "rhf"
			},
			{
				"type": "unocc",
				"energy": -0.01416,
				"method": "rhf"
			},
			{
				"type": "unocc",
				"energy": 0.05311,
				"method": "rhf"
			}
		],
		"cosmo_sigma_profile": { 
			"-0.025": 0.0,
			"-0.024": 0.0,
			"-0.023": 0.0,
			"-0.022": 0.0,
			"-0.021": 0.0,
			"-0.02": 0.0,
			"-0.019": 0.0,
			"-0.018": 0.0,
			"-0.017": 0.0,
			"-0.016": 0.0,
			"-0.015": 0.0,
			"-0.014": 0.0,
			"-0.013": 0.0,
			"-0.012": 0.0,
			"-0.011": 0.0,
			"-0.01": 0.0,
			"-0.009": 1.08688183796,
			"-0.008": 4.51280187692,
			"-0.007": 6.98889076437,
			"-0.006": 8.73843360654,
			"-0.005": 11.5871288902,
			"-0.004": 13.0811234364,
			"-0.003": 15.1820299259,
			"-0.002": 20.2917961285,
			"-0.001": 25.1560702098,
			"0.0": 25.9408240759,
			"0.001": 18.7128118054,
			"0.002": 15.9241898317,
			"0.003": 22.2832745628,
			"0.004": 14.4069726569,
			"0.005": 3.23332383828,
			"0.006": 3.02311655416,
			"0.007": 6.74262846501,
			"0.008": 9.56974968922,
			"0.009": 3.72321721713,
			"0.01": 0.0,
			"0.011": 0.0,
			"0.012": 0.0,
			"0.013": 0.0,
			"0.014": 0.0,
			"0.015": 0.0,
			"0.016": 0.0,
			"0.017": 0.0,
			"0.018": 0.0,
			"0.019": 0.0,
			"0.02": 0.0,
			"0.021": 0.0,
			"0.022": 0.0,
			"0.023": 0.0,
			"0.024": 0.0,
			"0.025": 0.0
		}
	}
}
