{
	 "smiles": "CCC(C)OC(=O)C1=C(C)NC(=O)NC1C1=CC=CO1", 
	 "Tm": 458.15, 
	 "num_atms": 38, 
	 "gaussian": { 
		 "optdone": 1, 
		 "sigma_profile": "yes", 
		 "theory": "DFT", 
		 "functional": "B3LYP", 
		 "basiset": "6-31G**", 
		 "properties": { 
			 "R2extent": 6736.0532, 
			 "electric_dipole_moment_norm": 3.92149369118, 
			 "electric_quadrupole_moment_norm": 14.518530084, 
			 "total_energy": -954.756967181, 
			 "HOMO_LUMO_gap": 0.1811, 
			 "cosmo_polarized_energy": -18.29, 
			 "cosmo_cavitation_energy": 41.51, 
			 "cosmo_dispersion_energy": -27.89, 
			 "cosmo_repulsion_energy": 2.18, 
			 "cosmo_total_nonelectrostatic_energy": 15.8, 
			 "SMD_solvation_energy": 8.76 
		},
		"coords": [
			{
				"x": -1.5277092136,
				"y": -5.4776241921,
				"z": 1.2624518222,
				"element": "C" 
			},
			{
				"x": -0.7181076629,
				"y": -4.2956792906,
				"z": 0.7166824726,
				"element": "C" 
			},
			{
				"x": -0.8374723906,
				"y": -3.0250016404,
				"z": 1.5652583305,
				"element": "C" 
			},
			{
				"x": -0.2332213014,
				"y": -3.1352566678,
				"z": 2.9588724539,
				"element": "C" 
			},
			{
				"x": -0.1141668453,
				"y": -1.9450294537,
				"z": 0.9044601694,
				"element": "O" 
			},
			{
				"x": -0.7861393364,
				"y": -1.2516283106,
				"z": -0.0518932437,
				"element": "C" 
			},
			{
				"x": -1.9423858954,
				"y": -1.4990310695,
				"z": -0.3605858386,
				"element": "O" 
			},
			{
				"x": -0.006234129,
				"y": -0.1839401025,
				"z": -0.6912156644,
				"element": "C" 
			},
			{
				"x": 1.2970273666,
				"y": 0.1369732939,
				"z": -0.4487074157,
				"element": "C" 
			},
			{
				"x": 2.2127844948,
				"y": -0.480589734,
				"z": 0.5781238656,
				"element": "C" 
			},
			{
				"x": 1.8919796628,
				"y": 1.1195911841,
				"z": -1.2202484546,
				"element": "N" 
			},
			{
				"x": 1.3948480339,
				"y": 1.6056640951,
				"z": -2.4404642528,
				"element": "C" 
			},
			{
				"x": 2.0704790023,
				"y": 2.3355504209,
				"z": -3.1487922681,
				"element": "O" 
			},
			{
				"x": 0.1523975247,
				"y": 1.1275074365,
				"z": -2.747869277,
				"element": "N" 
			},
			{
				"x": -0.7775563822,
				"y": 0.6193456515,
				"z": -1.7231026012,
				"element": "C" 
			},
			{
				"x": -1.5822421623,
				"y": 1.7265582397,
				"z": -1.0950642801,
				"element": "C" 
			},
			{
				"x": -1.5785598662,
				"y": 2.3518639383,
				"z": 0.1167692129,
				"element": "C" 
			},
			{
				"x": -2.5820543737,
				"y": 3.3751547821,
				"z": 0.0515961282,
				"element": "C" 
			},
			{
				"x": -3.1188064671,
				"y": 3.2995084714,
				"z": -1.195876382,
				"element": "C" 
			},
			{
				"x": -2.5239676516,
				"y": 2.2998067446,
				"z": -1.9092959652,
				"element": "O" 
			},
			{
				"x": -2.5861384475,
				"y": -5.215666441,
				"z": 1.3710105141,
				"element": "H" 
			},
			{
				"x": -1.4682582919,
				"y": -6.3310106623,
				"z": 0.58016519,
				"element": "H" 
			},
			{
				"x": -1.1631087815,
				"y": -5.813219464,
				"z": 2.2385838556,
				"element": "H" 
			},
			{
				"x": 0.3426258268,
				"y": -4.5665539179,
				"z": 0.6355015361,
				"element": "H" 
			},
			{
				"x": -1.0685301948,
				"y": -4.0540510876,
				"z": -0.2916732615,
				"element": "H" 
			},
			{
				"x": -1.8890389821,
				"y": -2.72847939,
				"z": 1.6223385579,
				"element": "H" 
			},
			{
				"x": -0.3119540165,
				"y": -2.1812775754,
				"z": 3.488015832,
				"element": "H" 
			},
			{
				"x": 0.8241510503,
				"y": -3.415934395,
				"z": 2.9062238056,
				"element": "H" 
			},
			{
				"x": -0.7595839845,
				"y": -3.8921653428,
				"z": 3.546766132,
				"element": "H" 
			},
			{
				"x": 1.7408960658,
				"y": -0.5127734389,
				"z": 1.5595543239,
				"element": "H" 
			},
			{
				"x": 2.4536047213,
				"y": -1.5125989809,
				"z": 0.3085096129,
				"element": "H" 
			},
			{
				"x": 3.1462514819,
				"y": 0.0852271357,
				"z": 0.6480273307,
				"element": "H" 
			},
			{
				"x": 2.8532339301,
				"y": 1.3775387587,
				"z": -1.0511931185,
				"element": "H" 
			},
			{
				"x": -0.2562487383,
				"y": 1.5689559207,
				"z": -3.5606132258,
				"element": "H" 
			},
			{
				"x": -1.4789364528,
				"y": -0.0520354862,
				"z": -2.2264863294,
				"element": "H" 
			},
			{
				"x": -0.9444516635,
				"y": 2.1088491118,
				"z": 0.9562746802,
				"element": "H" 
			},
			{
				"x": -2.863032017,
				"y": 4.0678818965,
				"z": 0.8318167575,
				"element": "H" 
			},
			{
				"x": -3.8934739133,
				"y": 3.8477695616,
				"z": -1.7092210051,
				"element": "H" 
			}
		],
		 "valence_orbital": [ 
			{
				"type": "occ",
				"energy": -0.27295,
				"method": "rhf"
			},
			{
				"type": "occ",
				"energy": -0.26843,
				"method": "rhf"
			},
			{
				"type": "occ",
				"energy": -0.25676,
				"method": "rhf"
			},
			{
				"type": "occ",
				"energy": -0.22989,
				"method": "rhf"
			},
			{
				"type": "occ",
				"energy": -0.21981,
				"method": "rhf"
			},
			{
				"type": "unocc",
				"energy": -0.03871,
				"method": "rhf"
			},
			{
				"type": "unocc",
				"energy": 0.013,
				"method": "rhf"
			},
			{
				"type": "unocc",
				"energy": 0.05265,
				"method": "rhf"
			},
			{
				"type": "unocc",
				"energy": 0.06977,
				"method": "rhf"
			},
			{
				"type": "unocc",
				"energy": 0.07695,
				"method": "rhf"
			}
		],
		"cosmo_sigma_profile": { 
			"-0.025": 0.0,
			"-0.024": 0.0,
			"-0.023": 0.0,
			"-0.022": 0.0,
			"-0.021": 0.0,
			"-0.02": 0.0,
			"-0.019": 0.0,
			"-0.018": 0.0,
			"-0.017": 0.0,
			"-0.016": 0.163323999306,
			"-0.015": 1.068590004,
			"-0.014": 1.89456063005,
			"-0.013": 2.10830923027,
			"-0.012": 1.37303441468,
			"-0.011": 2.51780010053,
			"-0.01": 1.45208454966,
			"-0.009": 3.2891994033,
			"-0.008": 4.63807113869,
			"-0.007": 5.49824674054,
			"-0.006": 7.69207491689,
			"-0.005": 11.6215224983,
			"-0.004": 18.885828958,
			"-0.003": 32.1730287526,
			"-0.002": 37.109093919,
			"-0.001": 36.747095942,
			"0.0": 35.6369608987,
			"0.001": 27.6647886825,
			"0.002": 15.4332481131,
			"0.003": 16.429000848,
			"0.004": 11.758785073,
			"0.005": 9.51984834621,
			"0.006": 7.71422914086,
			"0.007": 4.93851489418,
			"0.008": 3.54779353018,
			"0.009": 2.48200716714,
			"0.01": 3.44521859629,
			"0.011": 2.8829528415,
			"0.012": 5.41073353535,
			"0.013": 9.02626257093,
			"0.014": 2.88895747752,
			"0.015": 0.0671602376758,
			"0.016": 0.0,
			"0.017": 0.0,
			"0.018": 0.0,
			"0.019": 0.0,
			"0.02": 0.0,
			"0.021": 0.0,
			"0.022": 0.0,
			"0.023": 0.0,
			"0.024": 0.0,
			"0.025": 0.0
		}
	}
}
