{
	 "smiles": "O=C1NC(=O)C(=O)N1C1CC1", 
	 "Tm": 389.15, 
	 "num_atms": 17, 
	 "gaussian": { 
		 "optdone": 1, 
		 "sigma_profile": "yes", 
		 "theory": "DFT", 
		 "functional": "B3LYP", 
		 "basiset": "6-31G**", 
		 "properties": { 
			 "R2extent": 2088.0766, 
			 "electric_dipole_moment_norm": 2.6891689813, 
			 "electric_quadrupole_moment_norm": 18.3489431355, 
			 "total_energy": -567.42761004, 
			 "HOMO_LUMO_gap": 0.18644, 
			 "cosmo_polarized_energy": -15.62, 
			 "cosmo_cavitation_energy": 22.27, 
			 "cosmo_dispersion_energy": -16.12, 
			 "cosmo_repulsion_energy": 1.32, 
			 "cosmo_total_nonelectrostatic_energy": 7.47, 
			 "SMD_solvation_energy": 6.0 
		},
		"coords": [
			{
				"x": 0.8811047838,
				"y": -0.7544918345,
				"z": -0.5028508973,
				"element": "O" 
			},
			{
				"x": 0.0181272526,
				"y": -0.7839049477,
				"z": 0.3402720878,
				"element": "C" 
			},
			{
				"x": -0.1130948022,
				"y": -1.7292909882,
				"z": 1.3664031171,
				"element": "N" 
			},
			{
				"x": -1.2220663662,
				"y": -1.5100229292,
				"z": 2.1672995536,
				"element": "C" 
			},
			{
				"x": -1.5942712123,
				"y": -2.1480330729,
				"z": 3.1201403686,
				"element": "O" 
			},
			{
				"x": -1.8850544231,
				"y": -0.2505246772,
				"z": 1.5516478146,
				"element": "C" 
			},
			{
				"x": -2.9017052213,
				"y": 0.2861797278,
				"z": 1.9166522342,
				"element": "O" 
			},
			{
				"x": -1.0526026487,
				"y": 0.1173737414,
				"z": 0.4944842008,
				"element": "N" 
			},
			{
				"x": -1.3019803404,
				"y": 1.2052461874,
				"z": -0.4165239451,
				"element": "C" 
			},
			{
				"x": -0.249195041,
				"y": 2.2706477667,
				"z": -0.581411788,
				"element": "C" 
			},
			{
				"x": -1.5233794452,
				"y": 2.5814486858,
				"z": 0.1557570204,
				"element": "C" 
			},
			{
				"x": 0.5462315451,
				"y": -2.4868272266,
				"z": 1.4813142378,
				"element": "H" 
			},
			{
				"x": -1.8777200127,
				"y": 0.9164755453,
				"z": -1.291659322,
				"element": "H" 
			},
			{
				"x": 0.6631732003,
				"y": 2.1615569286,
				"z": -0.0055368151,
				"element": "H" 
			},
			{
				"x": -0.1038978704,
				"y": 2.667577993,
				"z": -1.5805166284,
				"element": "H" 
			},
			{
				"x": -1.4817057951,
				"y": 2.6858464116,
				"z": 1.2340454161,
				"element": "H" 
			},
			{
				"x": -2.276563603,
				"y": 3.1970426885,
				"z": -0.3244166549,
				"element": "H" 
			}
		],
		 "valence_orbital": [ 
			{
				"type": "occ",
				"energy": -0.32312,
				"method": "rhf"
			},
			{
				"type": "occ",
				"energy": -0.31533,
				"method": "rhf"
			},
			{
				"type": "occ",
				"energy": -0.30075,
				"method": "rhf"
			},
			{
				"type": "occ",
				"energy": -0.29125,
				"method": "rhf"
			},
			{
				"type": "occ",
				"energy": -0.27372,
				"method": "rhf"
			},
			{
				"type": "unocc",
				"energy": -0.08728,
				"method": "rhf"
			},
			{
				"type": "unocc",
				"energy": 0.02775,
				"method": "rhf"
			},
			{
				"type": "unocc",
				"energy": 0.06537,
				"method": "rhf"
			},
			{
				"type": "unocc",
				"energy": 0.06986,
				"method": "rhf"
			},
			{
				"type": "unocc",
				"energy": 0.08933,
				"method": "rhf"
			}
		],
		"cosmo_sigma_profile": { 
			"-0.025": 0.0,
			"-0.024": 0.0,
			"-0.023": 0.0,
			"-0.022": 0.0,
			"-0.021": 0.0,
			"-0.02": 0.0,
			"-0.019": 0.0,
			"-0.018": 0.742770529535,
			"-0.017": 1.37022097324,
			"-0.016": 1.57329924319,
			"-0.015": 0.855598804543,
			"-0.014": 0.765146383381,
			"-0.013": 0.862988548115,
			"-0.012": 1.16379290768,
			"-0.011": 0.638645761881,
			"-0.01": 2.64665985893,
			"-0.009": 2.18308675193,
			"-0.008": 3.40504495649,
			"-0.007": 7.38092429577,
			"-0.006": 15.3812396943,
			"-0.005": 15.0865014692,
			"-0.004": 13.5695958581,
			"-0.003": 10.1545687223,
			"-0.002": 8.39949772634,
			"-0.001": 8.17795095367,
			"0.0": 7.79119669303,
			"0.001": 5.6978321665,
			"0.002": 5.28721904793,
			"0.003": 6.53344239533,
			"0.004": 5.23962366435,
			"0.005": 3.11242110849,
			"0.006": 4.9636649471,
			"0.007": 5.20252158958,
			"0.008": 6.47110880464,
			"0.009": 9.6416028892,
			"0.01": 15.4373935,
			"0.011": 8.04561121676,
			"0.012": 0.11787661455,
			"0.013": 0.0,
			"0.014": 0.0,
			"0.015": 0.0,
			"0.016": 0.0,
			"0.017": 0.0,
			"0.018": 0.0,
			"0.019": 0.0,
			"0.02": 0.0,
			"0.021": 0.0,
			"0.022": 0.0,
			"0.023": 0.0,
			"0.024": 0.0,
			"0.025": 0.0
		}
	}
}
