{
	 "smiles": "OCC1=CC(OCC(F)(F)F)=CC=C1", 
	 "Tm": 304.15, 
	 "num_atms": 23, 
	 "gaussian": { 
		 "optdone": 1, 
		 "sigma_profile": "yes", 
		 "theory": "DFT", 
		 "functional": "B3LYP", 
		 "basiset": "6-31G**", 
		 "properties": { 
			 "R2extent": 4119.7131, 
			 "electric_dipole_moment_norm": 1.62638020155, 
			 "electric_quadrupole_moment_norm": 9.78858995055, 
			 "total_energy": -798.333537719, 
			 "HOMO_LUMO_gap": 0.2197, 
			 "cosmo_polarized_energy": -9.73, 
			 "cosmo_cavitation_energy": 28.3, 
			 "cosmo_dispersion_energy": -19.93, 
			 "cosmo_repulsion_energy": 1.53, 
			 "cosmo_total_nonelectrostatic_energy": 9.9, 
			 "SMD_solvation_energy": 6.23 
		},
		"coords": [
			{
				"x": -0.8391306023,
				"y": 1.0876324435,
				"z": 1.4189971146,
				"element": "O" 
			},
			{
				"x": -1.1788431627,
				"y": 1.4455937009,
				"z": 0.0880723767,
				"element": "C" 
			},
			{
				"x": -0.2785204781,
				"y": 0.8259434652,
				"z": -0.9666148721,
				"element": "C" 
			},
			{
				"x": 0.3789061802,
				"y": -0.3796421859,
				"z": -0.6890262484,
				"element": "C" 
			},
			{
				"x": 1.1862701474,
				"y": -0.9696660211,
				"z": -1.6634051686,
				"element": "C" 
			},
			{
				"x": 1.8737683104,
				"y": -2.1544325614,
				"z": -1.5035908346,
				"element": "O" 
			},
			{
				"x": 1.5460602685,
				"y": -3.0309748605,
				"z": -0.4503511082,
				"element": "C" 
			},
			{
				"x": 2.4602447953,
				"y": -2.8544195396,
				"z": 0.7557634246,
				"element": "C" 
			},
			{
				"x": 2.3281902313,
				"y": -1.6417676657,
				"z": 1.333625305,
				"element": "F" 
			},
			{
				"x": 3.7527898873,
				"y": -3.007129558,
				"z": 0.4231061917,
				"element": "F" 
			},
			{
				"x": 2.1521880351,
				"y": -3.7880298377,
				"z": 1.6832717545,
				"element": "F" 
			},
			{
				"x": 1.351268239,
				"y": -0.3585868422,
				"z": -2.911930747,
				"element": "C" 
			},
			{
				"x": 0.70252844,
				"y": 0.8434422319,
				"z": -3.1767538474,
				"element": "C" 
			},
			{
				"x": -0.1118526591,
				"y": 1.4393197317,
				"z": -2.2105992,
				"element": "C" 
			},
			{
				"x": 0.0683571463,
				"y": 1.3809651675,
				"z": 1.5778357845,
				"element": "H" 
			},
			{
				"x": -1.2001509127,
				"y": 2.5385730065,
				"z": -0.045085337,
				"element": "H" 
			},
			{
				"x": -2.2083456589,
				"y": 1.0924121769,
				"z": -0.0481954733,
				"element": "H" 
			},
			{
				"x": 0.2699511898,
				"y": -0.8055395725,
				"z": 0.2999264065,
				"element": "H" 
			},
			{
				"x": 1.7014835749,
				"y": -4.0485264147,
				"z": -0.8202093037,
				"element": "H" 
			},
			{
				"x": 0.5063329709,
				"y": -2.931801924,
				"z": -0.1228437667,
				"element": "H" 
			},
			{
				"x": 1.9865601019,
				"y": -0.8379336887,
				"z": -3.6490620788,
				"element": "H" 
			},
			{
				"x": 0.835816676,
				"y": 1.320584707,
				"z": -4.1434507832,
				"element": "H" 
			},
			{
				"x": -0.6085727206,
				"y": 2.3826840407,
				"z": -2.4220795892,
				"element": "H" 
			}
		],
		 "valence_orbital": [ 
			{
				"type": "occ",
				"energy": -0.32721,
				"method": "rhf"
			},
			{
				"type": "occ",
				"energy": -0.32303,
				"method": "rhf"
			},
			{
				"type": "occ",
				"energy": -0.28117,
				"method": "rhf"
			},
			{
				"type": "occ",
				"energy": -0.25024,
				"method": "rhf"
			},
			{
				"type": "occ",
				"energy": -0.22856,
				"method": "rhf"
			},
			{
				"type": "unocc",
				"energy": -0.00886,
				"method": "rhf"
			},
			{
				"type": "unocc",
				"energy": 0.00277,
				"method": "rhf"
			},
			{
				"type": "unocc",
				"energy": 0.08277,
				"method": "rhf"
			},
			{
				"type": "unocc",
				"energy": 0.08519,
				"method": "rhf"
			},
			{
				"type": "unocc",
				"energy": 0.09793,
				"method": "rhf"
			}
		],
		"cosmo_sigma_profile": { 
			"-0.025": 0.0,
			"-0.024": 0.0,
			"-0.023": 0.0,
			"-0.022": 0.0,
			"-0.021": 0.0,
			"-0.02": 0.0,
			"-0.019": 0.0,
			"-0.018": 0.0,
			"-0.017": 0.0,
			"-0.016": 0.160903978776,
			"-0.015": 0.976951172442,
			"-0.014": 0.943924769364,
			"-0.013": 0.602489357649,
			"-0.012": 0.757922447158,
			"-0.011": 0.819683682202,
			"-0.01": 1.54565842934,
			"-0.009": 4.32953296081,
			"-0.008": 5.05577218568,
			"-0.007": 5.65187734794,
			"-0.006": 8.40196752575,
			"-0.005": 15.2028108148,
			"-0.004": 15.9014331225,
			"-0.003": 12.5311444818,
			"-0.002": 10.612527188,
			"-0.001": 10.5538444093,
			"0.0": 12.4670859376,
			"0.001": 14.0421411911,
			"0.002": 29.0248898913,
			"0.003": 32.7956703396,
			"0.004": 12.1271150575,
			"0.005": 10.899904355,
			"0.006": 5.66480303546,
			"0.007": 2.63969028324,
			"0.008": 1.91234201441,
			"0.009": 2.00700525458,
			"0.01": 1.32666260077,
			"0.011": 1.40581539475,
			"0.012": 1.09354917831,
			"0.013": 1.80433413052,
			"0.014": 1.61039857728,
			"0.015": 0.0,
			"0.016": 0.0,
			"0.017": 0.0,
			"0.018": 0.0,
			"0.019": 0.0,
			"0.02": 0.0,
			"0.021": 0.0,
			"0.022": 0.0,
			"0.023": 0.0,
			"0.024": 0.0,
			"0.025": 0.0
		}
	}
}
