{
	 "smiles": "OC(=O)C1=C(Br)C=C(F)C=C1", 
	 "Tm": 444.15, 
	 "num_atms": 15, 
	 "gaussian": { 
		 "optdone": 1, 
		 "sigma_profile": "yes", 
		 "theory": "DFT", 
		 "functional": "B3LYP", 
		 "basiset": "6-31G**", 
		 "properties": { 
			 "R2extent": 2526.4939, 
			 "electric_dipole_moment_norm": 0.292597829794, 
			 "electric_quadrupole_moment_norm": 6.22473350594, 
			 "total_energy": -3090.84871097, 
			 "HOMO_LUMO_gap": 0.20005, 
			 "cosmo_polarized_energy": -8.45, 
			 "cosmo_cavitation_energy": 22.69, 
			 "cosmo_dispersion_energy": -17.2, 
			 "cosmo_repulsion_energy": 1.35, 
			 "cosmo_total_nonelectrostatic_energy": 6.84, 
			 "SMD_solvation_energy": 4.72 
		},
		"coords": [
			{
				"x": 1.0749394837,
				"y": 0.3610551893,
				"z": 2.3853276575,
				"element": "O" 
			},
			{
				"x": 1.5555223006,
				"y": -0.7309516779,
				"z": 1.7616391132,
				"element": "C" 
			},
			{
				"x": 2.4226971197,
				"y": -1.4225260499,
				"z": 2.2629322857,
				"element": "O" 
			},
			{
				"x": 0.9525334909,
				"y": -1.0275953368,
				"z": 0.4252322749,
				"element": "C" 
			},
			{
				"x": -0.0478338619,
				"y": -0.3115674562,
				"z": -0.2648866175,
				"element": "C" 
			},
			{
				"x": -0.8982426289,
				"y": 1.2713210463,
				"z": 0.3784312032,
				"element": "Br" 
			},
			{
				"x": -0.4923427294,
				"y": -0.741038816,
				"z": -1.5167921256,
				"element": "C" 
			},
			{
				"x": 0.0595093552,
				"y": -1.8833176488,
				"z": -2.0806784316,
				"element": "C" 
			},
			{
				"x": -0.380568394,
				"y": -2.2811728229,
				"z": -3.2852662067,
				"element": "F" 
			},
			{
				"x": 1.0473389885,
				"y": -2.6203614291,
				"z": -1.4371883327,
				"element": "C" 
			},
			{
				"x": 1.4765844239,
				"y": -2.1790526511,
				"z": -0.1949805621,
				"element": "C" 
			},
			{
				"x": 1.5614317748,
				"y": 0.4132369077,
				"z": 3.2255858799,
				"element": "H" 
			},
			{
				"x": -1.259612707,
				"y": -0.1956300253,
				"z": -2.0511684224,
				"element": "H" 
			},
			{
				"x": 1.4577538371,
				"y": -3.5079054122,
				"z": -1.9046681598,
				"element": "H" 
			},
			{
				"x": 2.2445895467,
				"y": -2.7192938171,
				"z": 0.346380444,
				"element": "H" 
			}
		],
		 "valence_orbital": [ 
			{
				"type": "occ",
				"energy": -0.3186,
				"method": "rhf"
			},
			{
				"type": "occ",
				"energy": -0.29283,
				"method": "rhf"
			},
			{
				"type": "occ",
				"energy": -0.28224,
				"method": "rhf"
			},
			{
				"type": "occ",
				"energy": -0.27124,
				"method": "rhf"
			},
			{
				"type": "occ",
				"energy": -0.25913,
				"method": "rhf"
			},
			{
				"type": "unocc",
				"energy": -0.05908,
				"method": "rhf"
			},
			{
				"type": "unocc",
				"energy": -0.03251,
				"method": "rhf"
			},
			{
				"type": "unocc",
				"energy": -0.00614,
				"method": "rhf"
			},
			{
				"type": "unocc",
				"energy": 0.04714,
				"method": "rhf"
			},
			{
				"type": "unocc",
				"energy": 0.07611,
				"method": "rhf"
			}
		],
		"cosmo_sigma_profile": { 
			"-0.025": 0.0,
			"-0.024": 0.0,
			"-0.023": 0.0,
			"-0.022": 0.0,
			"-0.021": 0.0,
			"-0.02": 0.0,
			"-0.019": 0.208878116069,
			"-0.018": 1.05366992217,
			"-0.017": 0.799549813941,
			"-0.016": 0.432854441433,
			"-0.015": 1.11944099755,
			"-0.014": 0.496296500907,
			"-0.013": 0.505581615512,
			"-0.012": 0.592460381297,
			"-0.011": 1.44415456039,
			"-0.01": 0.341074165226,
			"-0.009": 1.32902243779,
			"-0.008": 4.43532880321,
			"-0.007": 4.59365131224,
			"-0.006": 6.72636490874,
			"-0.005": 5.67841015211,
			"-0.004": 6.65066677176,
			"-0.003": 9.51890273217,
			"-0.002": 13.6086618357,
			"-0.001": 16.404485231,
			"0.0": 25.1246068632,
			"0.001": 18.820964492,
			"0.002": 10.7349400767,
			"0.003": 17.8852298633,
			"0.004": 12.4674264848,
			"0.005": 4.1596377592,
			"0.006": 3.06633334923,
			"0.007": 4.06413652551,
			"0.008": 3.39549316191,
			"0.009": 1.50703839536,
			"0.01": 2.55004598176,
			"0.011": 3.94973981215,
			"0.012": 2.22600658974,
			"0.013": 0.0,
			"0.014": 0.0,
			"0.015": 0.0,
			"0.016": 0.0,
			"0.017": 0.0,
			"0.018": 0.0,
			"0.019": 0.0,
			"0.02": 0.0,
			"0.021": 0.0,
			"0.022": 0.0,
			"0.023": 0.0,
			"0.024": 0.0,
			"0.025": 0.0
		}
	}
}
