{
	 "smiles": "OC(=O)CC1=CC=C(C=C1)C#N", 
	 "Tm": 424.15, 
	 "num_atms": 19, 
	 "gaussian": { 
		 "optdone": 1, 
		 "sigma_profile": "yes", 
		 "theory": "DFT", 
		 "functional": "B3LYP", 
		 "basiset": "6-31G**", 
		 "properties": { 
			 "R2extent": 3385.0247, 
			 "electric_dipole_moment_norm": 5.69818781719, 
			 "electric_quadrupole_moment_norm": 19.6647492374, 
			 "total_energy": -552.37566204, 
			 "HOMO_LUMO_gap": 0.20951, 
			 "cosmo_polarized_energy": -16.32, 
			 "cosmo_cavitation_energy": 25.52, 
			 "cosmo_dispersion_energy": -17.63, 
			 "cosmo_repulsion_energy": 1.43, 
			 "cosmo_total_nonelectrostatic_energy": 9.33, 
			 "SMD_solvation_energy": 7.01 
		},
		"coords": [
			{
				"x": 1.8370229915,
				"y": -0.0452331465,
				"z": 3.7485984294,
				"element": "O" 
			},
			{
				"x": 1.8369679218,
				"y": 0.2742558797,
				"z": 2.431889632,
				"element": "C" 
			},
			{
				"x": 2.7652859719,
				"y": 0.0387798237,
				"z": 1.6955060629,
				"element": "O" 
			},
			{
				"x": 0.5266222926,
				"y": 0.9521349796,
				"z": 2.0508800068,
				"element": "C" 
			},
			{
				"x": 0.4510906425,
				"y": 1.3387667431,
				"z": 0.5947763499,
				"element": "C" 
			},
			{
				"x": -0.0635446258,
				"y": 0.4464967626,
				"z": -0.3543402527,
				"element": "C" 
			},
			{
				"x": -0.1289923832,
				"y": 0.7917083927,
				"z": -1.7001187429,
				"element": "C" 
			},
			{
				"x": 0.3250760831,
				"y": 2.0529504971,
				"z": -2.1197034497,
				"element": "C" 
			},
			{
				"x": 0.8432911462,
				"y": 2.9551454551,
				"z": -1.1760456049,
				"element": "C" 
			},
			{
				"x": 0.9014435205,
				"y": 2.5937563288,
				"z": 0.1658041576,
				"element": "C" 
			},
			{
				"x": 0.2539684469,
				"y": 2.4202263093,
				"z": -3.5040391343,
				"element": "C" 
			},
			{
				"x": 0.1942645802,
				"y": 2.7189917092,
				"z": -4.626778164,
				"element": "N" 
			},
			{
				"x": 2.6932083791,
				"y": -0.4702752419,
				"z": 3.9250871851,
				"element": "H" 
			},
			{
				"x": -0.2851030841,
				"y": 0.2682812915,
				"z": 2.3243322004,
				"element": "H" 
			},
			{
				"x": 0.4113113812,
				"y": 1.8263450808,
				"z": 2.7018937407,
				"element": "H" 
			},
			{
				"x": -0.4167421514,
				"y": -0.5307754223,
				"z": -0.037021832,
				"element": "H" 
			},
			{
				"x": -0.5301974493,
				"y": 0.095997039,
				"z": -2.4293495621,
				"element": "H" 
			},
			{
				"x": 1.1926217358,
				"y": 3.9294694134,
				"z": -1.5007267301,
				"element": "H" 
			},
			{
				"x": 1.3034046003,
				"y": 3.2967781052,
				"z": 0.8901557077,
				"element": "H" 
			}
		],
		 "valence_orbital": [ 
			{
				"type": "occ",
				"energy": -0.33249,
				"method": "rhf"
			},
			{
				"type": "occ",
				"energy": -0.32886,
				"method": "rhf"
			},
			{
				"type": "occ",
				"energy": -0.28973,
				"method": "rhf"
			},
			{
				"type": "occ",
				"energy": -0.27644,
				"method": "rhf"
			},
			{
				"type": "occ",
				"energy": -0.26268,
				"method": "rhf"
			},
			{
				"type": "unocc",
				"energy": -0.05317,
				"method": "rhf"
			},
			{
				"type": "unocc",
				"energy": -0.0276,
				"method": "rhf"
			},
			{
				"type": "unocc",
				"energy": -0.00086,
				"method": "rhf"
			},
			{
				"type": "unocc",
				"energy": 0.03778,
				"method": "rhf"
			},
			{
				"type": "unocc",
				"energy": 0.06386,
				"method": "rhf"
			}
		],
		"cosmo_sigma_profile": { 
			"-0.025": 0.0,
			"-0.024": 0.0,
			"-0.023": 0.0,
			"-0.022": 0.0,
			"-0.021": 0.0,
			"-0.02": 0.0,
			"-0.019": 0.0934800736165,
			"-0.018": 0.964885604843,
			"-0.017": 0.695799396192,
			"-0.016": 1.08065000368,
			"-0.015": 0.760210694868,
			"-0.014": 0.813125693045,
			"-0.013": 0.0160932237521,
			"-0.012": 0.537193475606,
			"-0.011": 1.1649231603,
			"-0.01": 0.590023530005,
			"-0.009": 0.369208679531,
			"-0.008": 8.65976957696,
			"-0.007": 17.1901433293,
			"-0.006": 14.4325544274,
			"-0.005": 11.173705602,
			"-0.004": 9.55818852556,
			"-0.003": 12.2217734759,
			"-0.002": 10.3830358258,
			"-0.001": 11.9421628052,
			"0.0": 11.4336078623,
			"0.001": 11.138728344,
			"0.002": 14.3340092428,
			"0.003": 8.88531532311,
			"0.004": 4.86662365229,
			"0.005": 6.37587662478,
			"0.006": 5.78795925989,
			"0.007": 4.67462282218,
			"0.008": 6.83215090885,
			"0.009": 7.10987653741,
			"0.01": 6.20258824955,
			"0.011": 7.39110715316,
			"0.012": 5.63941464683,
			"0.013": 1.67018534167,
			"0.014": 0.0347966654873,
			"0.015": 0.0,
			"0.016": 0.0,
			"0.017": 0.0,
			"0.018": 0.0,
			"0.019": 0.0,
			"0.02": 0.0,
			"0.021": 0.0,
			"0.022": 0.0,
			"0.023": 0.0,
			"0.024": 0.0,
			"0.025": 0.0
		}
	}
}
