{
	 "smiles": "OC(=O)C1=C(F)C=C(Br)C=C1F", 
	 "Tm": 476.15, 
	 "num_atms": 15, 
	 "gaussian": { 
		 "optdone": 1, 
		 "sigma_profile": "yes", 
		 "theory": "DFT", 
		 "functional": "B3LYP", 
		 "basiset": "6-31G**", 
		 "properties": { 
			 "R2extent": 4977.7048, 
			 "electric_dipole_moment_norm": 4.62916812073, 
			 "electric_quadrupole_moment_norm": 7.63433836491, 
			 "total_energy": -3190.07128514, 
			 "HOMO_LUMO_gap": 0.20303, 
			 "cosmo_polarized_energy": -12.05, 
			 "cosmo_cavitation_energy": 23.3, 
			 "cosmo_dispersion_energy": -17.75, 
			 "cosmo_repulsion_energy": 1.36, 
			 "cosmo_total_nonelectrostatic_energy": 6.92, 
			 "SMD_solvation_energy": 4.88 
		},
		"coords": [
			{
				"x": -0.2717919868,
				"y": -2.3593967544,
				"z": -0.7299835464,
				"element": "O" 
			},
			{
				"x": -0.3515212665,
				"y": -1.6111663505,
				"z": 0.3908764213,
				"element": "C" 
			},
			{
				"x": -1.2169082345,
				"y": -1.8251674575,
				"z": 1.2032784692,
				"element": "O" 
			},
			{
				"x": 0.6776130365,
				"y": -0.5172066457,
				"z": 0.5683282948,
				"element": "C" 
			},
			{
				"x": 0.6562963233,
				"y": 0.3044386001,
				"z": 1.7151710475,
				"element": "C" 
			},
			{
				"x": -0.2702532237,
				"y": 0.1254545845,
				"z": 2.6533957434,
				"element": "F" 
			},
			{
				"x": 1.5737499016,
				"y": 1.3271832254,
				"z": 1.9383304578,
				"element": "C" 
			},
			{
				"x": 2.5643425974,
				"y": 1.5590865755,
				"z": 0.9905461339,
				"element": "C" 
			},
			{
				"x": 3.8266794476,
				"y": 2.9483472537,
				"z": 1.2737271191,
				"element": "Br" 
			},
			{
				"x": 2.6467442849,
				"y": 0.7873317407,
				"z": -0.1664013393,
				"element": "C" 
			},
			{
				"x": 1.7080914094,
				"y": -0.2163890891,
				"z": -0.3366425657,
				"element": "C" 
			},
			{
				"x": 1.8242045292,
				"y": -0.9479153496,
				"z": -1.4817562428,
				"element": "F" 
			},
			{
				"x": 0.4665987304,
				"y": -2.0802674641,
				"z": -1.2915914882,
				"element": "H" 
			},
			{
				"x": 1.4948658798,
				"y": 1.9168517131,
				"z": 2.8425146025,
				"element": "H" 
			},
			{
				"x": 3.4082885714,
				"y": 0.9487154179,
				"z": -0.9180931071,
				"element": "H" 
			}
		],
		 "valence_orbital": [ 
			{
				"type": "occ",
				"energy": -0.31728,
				"method": "rhf"
			},
			{
				"type": "occ",
				"energy": -0.31556,
				"method": "rhf"
			},
			{
				"type": "occ",
				"energy": -0.28435,
				"method": "rhf"
			},
			{
				"type": "occ",
				"energy": -0.27921,
				"method": "rhf"
			},
			{
				"type": "occ",
				"energy": -0.27686,
				"method": "rhf"
			},
			{
				"type": "unocc",
				"energy": -0.07383,
				"method": "rhf"
			},
			{
				"type": "unocc",
				"energy": -0.03826,
				"method": "rhf"
			},
			{
				"type": "unocc",
				"energy": -0.02569,
				"method": "rhf"
			},
			{
				"type": "unocc",
				"energy": 0.03111,
				"method": "rhf"
			},
			{
				"type": "unocc",
				"energy": 0.06928,
				"method": "rhf"
			}
		],
		"cosmo_sigma_profile": { 
			"-0.025": 0.0,
			"-0.024": 0.0,
			"-0.023": 0.0,
			"-0.022": 0.0,
			"-0.021": 0.0,
			"-0.02": 0.0,
			"-0.019": 0.0,
			"-0.018": 0.0,
			"-0.017": 0.0,
			"-0.016": 0.0,
			"-0.015": 0.0,
			"-0.014": 0.10797978835,
			"-0.013": 0.586256866965,
			"-0.012": 0.886284110801,
			"-0.011": 1.27494235661,
			"-0.01": 3.30813638186,
			"-0.009": 4.23510579283,
			"-0.008": 4.87548592645,
			"-0.007": 4.70113541297,
			"-0.006": 5.67181483577,
			"-0.005": 7.69059852976,
			"-0.004": 10.0374800969,
			"-0.003": 17.7680158509,
			"-0.002": 18.7197448527,
			"-0.001": 19.2118703047,
			"0.0": 13.4762446879,
			"0.001": 12.8143643274,
			"0.002": 13.1384299622,
			"0.003": 17.7772444371,
			"0.004": 4.81716268171,
			"0.005": 3.10396272574,
			"0.006": 2.03743306327,
			"0.007": 2.57210086147,
			"0.008": 3.61389258738,
			"0.009": 3.32911873122,
			"0.01": 5.3047229673,
			"0.011": 6.58500292838,
			"0.012": 3.66967646473,
			"0.013": 0.860300001704,
			"0.014": 0.0,
			"0.015": 0.0,
			"0.016": 0.0,
			"0.017": 0.0,
			"0.018": 0.0,
			"0.019": 0.0,
			"0.02": 0.0,
			"0.021": 0.0,
			"0.022": 0.0,
			"0.023": 0.0,
			"0.024": 0.0,
			"0.025": 0.0
		}
	}
}
