{
	 "smiles": "OC1=CC=CC(=C1)C(F)(F)F", 
	 "Tm": 271.25, 
	 "num_atms": 16, 
	 "gaussian": { 
		 "optdone": 1, 
		 "sigma_profile": "yes", 
		 "theory": "DFT", 
		 "functional": "B3LYP", 
		 "basiset": "6-31G**", 
		 "properties": { 
			 "R2extent": 3037.5099, 
			 "electric_dipole_moment_norm": 3.82791094332, 
			 "electric_quadrupole_moment_norm": 17.5419000963, 
			 "total_energy": -644.505493653, 
			 "HOMO_LUMO_gap": 0.21048, 
			 "cosmo_polarized_energy": -8.41, 
			 "cosmo_cavitation_energy": 21.78, 
			 "cosmo_dispersion_energy": -15.74, 
			 "cosmo_repulsion_energy": 1.21, 
			 "cosmo_total_nonelectrostatic_energy": 7.25, 
			 "SMD_solvation_energy": 5.32 
		},
		"coords": [
			{
				"x": -4.5095992271,
				"y": 0.3275952152,
				"z": -2.7169399073,
				"element": "O" 
			},
			{
				"x": -3.5924289053,
				"y": 0.1652992984,
				"z": -1.7208739546,
				"element": "C" 
			},
			{
				"x": -3.8779143906,
				"y": 0.4245529735,
				"z": -0.3758745209,
				"element": "C" 
			},
			{
				"x": -2.8921946874,
				"y": 0.2320865969,
				"z": 0.5928022742,
				"element": "C" 
			},
			{
				"x": -1.6224170888,
				"y": -0.21522697,
				"z": 0.2349716976,
				"element": "C" 
			},
			{
				"x": -1.347804299,
				"y": -0.4703785265,
				"z": -1.112972434,
				"element": "C" 
			},
			{
				"x": -2.3210637246,
				"y": -0.2842159354,
				"z": -2.0922736648,
				"element": "C" 
			},
			{
				"x": 0.0386637329,
				"y": -0.8959334837,
				"z": -1.5188811092,
				"element": "C" 
			},
			{
				"x": 0.62458585,
				"y": -1.6632983788,
				"z": -0.5725588093,
				"element": "F" 
			},
			{
				"x": 0.0376459356,
				"y": -1.601785003,
				"z": -2.6706790667,
				"element": "F" 
			},
			{
				"x": 0.8487570926,
				"y": 0.1713263086,
				"z": -1.7123468364,
				"element": "F" 
			},
			{
				"x": -5.3428991526,
				"y": 0.6365575134,
				"z": -2.3384012907,
				"element": "H" 
			},
			{
				"x": -4.8678427107,
				"y": 0.7721697276,
				"z": -0.08807122,
				"element": "H" 
			},
			{
				"x": -3.1224457464,
				"y": 0.4309290573,
				"z": 1.6350601059,
				"element": "H" 
			},
			{
				"x": -0.8573362409,
				"y": -0.3739606397,
				"z": 0.9859950843,
				"element": "H" 
			},
			{
				"x": -2.1148064378,
				"y": -0.4886177538,
				"z": -3.136156348,
				"element": "H" 
			}
		],
		 "valence_orbital": [ 
			{
				"type": "occ",
				"energy": -0.3714,
				"method": "rhf"
			},
			{
				"type": "occ",
				"energy": -0.35143,
				"method": "rhf"
			},
			{
				"type": "occ",
				"energy": -0.34775,
				"method": "rhf"
			},
			{
				"type": "occ",
				"energy": -0.26964,
				"method": "rhf"
			},
			{
				"type": "occ",
				"energy": -0.23694,
				"method": "rhf"
			},
			{
				"type": "unocc",
				"energy": -0.02646,
				"method": "rhf"
			},
			{
				"type": "unocc",
				"energy": -0.00412,
				"method": "rhf"
			},
			{
				"type": "unocc",
				"energy": 0.05997,
				"method": "rhf"
			},
			{
				"type": "unocc",
				"energy": 0.08991,
				"method": "rhf"
			},
			{
				"type": "unocc",
				"energy": 0.13281,
				"method": "rhf"
			}
		],
		"cosmo_sigma_profile": { 
			"-0.025": 0.0,
			"-0.024": 0.0,
			"-0.023": 0.0,
			"-0.022": 0.0,
			"-0.021": 0.0,
			"-0.02": 0.0,
			"-0.019": 0.0413061851485,
			"-0.018": 0.982688205248,
			"-0.017": 0.98281814794,
			"-0.016": 1.06700259677,
			"-0.015": 1.32237581769,
			"-0.014": 1.03049809072,
			"-0.013": 0.498584641455,
			"-0.012": 1.03105345062,
			"-0.011": 1.42189841005,
			"-0.01": 0.838290205133,
			"-0.009": 1.36831083965,
			"-0.008": 0.829328969971,
			"-0.007": 4.0781025376,
			"-0.006": 7.44192429985,
			"-0.005": 8.15586445686,
			"-0.004": 6.82168957009,
			"-0.003": 6.28498769319,
			"-0.002": 7.1830721591,
			"-0.001": 7.78432236478,
			"0.0": 10.7426206895,
			"0.001": 13.750703051,
			"0.002": 25.6766742007,
			"0.003": 41.9843199836,
			"0.004": 12.3090528532,
			"0.005": 1.95162099152,
			"0.006": 1.05746274069,
			"0.007": 1.78924492812,
			"0.008": 1.59311621547,
			"0.009": 1.00917013708,
			"0.01": 1.94484069825,
			"0.011": 1.5407681139,
			"0.012": 0.0362091360706,
			"0.013": 0.0,
			"0.014": 0.0,
			"0.015": 0.0,
			"0.016": 0.0,
			"0.017": 0.0,
			"0.018": 0.0,
			"0.019": 0.0,
			"0.02": 0.0,
			"0.021": 0.0,
			"0.022": 0.0,
			"0.023": 0.0,
			"0.024": 0.0,
			"0.025": 0.0
		}
	}
}
