{
	 "smiles": "CC1=C2NC(=O)C=CC2=CC=C1Cl", 
	 "Tm": 543.15, 
	 "num_atms": 21, 
	 "gaussian": { 
		 "optdone": 1, 
		 "sigma_profile": "yes", 
		 "theory": "DFT", 
		 "functional": "B3LYP", 
		 "basiset": "6-31G**", 
		 "properties": { 
			 "R2extent": 3731.0136, 
			 "electric_dipole_moment_norm": 2.64755874156, 
			 "electric_quadrupole_moment_norm": 18.0758232006, 
			 "total_energy": -976.083798384, 
			 "HOMO_LUMO_gap": 0.16407, 
			 "cosmo_polarized_energy": -12.02, 
			 "cosmo_cavitation_energy": 26.36, 
			 "cosmo_dispersion_energy": -19.85, 
			 "cosmo_repulsion_energy": 1.54, 
			 "cosmo_total_nonelectrostatic_energy": 8.05, 
			 "SMD_solvation_energy": 4.69 
		},
		"coords": [
			{
				"x": -1.5215702352,
				"y": 0.1460371344,
				"z": -1.868329556,
				"element": "C" 
			},
			{
				"x": -0.3802567217,
				"y": -0.7775298923,
				"z": -1.5254801793,
				"element": "C" 
			},
			{
				"x": -0.3449539538,
				"y": -1.4038808324,
				"z": -0.2536232634,
				"element": "C" 
			},
			{
				"x": -1.3477754349,
				"y": -1.1715354243,
				"z": 0.6669623717,
				"element": "N" 
			},
			{
				"x": -1.4437514801,
				"y": -1.7177229361,
				"z": 1.9547557152,
				"element": "C" 
			},
			{
				"x": -2.3898815066,
				"y": -1.4296529833,
				"z": 2.6787226527,
				"element": "O" 
			},
			{
				"x": -0.3443296383,
				"y": -2.6157427552,
				"z": 2.3026272986,
				"element": "C" 
			},
			{
				"x": 0.6607765213,
				"y": -2.8731232691,
				"z": 1.4314143611,
				"element": "C" 
			},
			{
				"x": 0.7033088867,
				"y": -2.2795654528,
				"z": 0.1191500972,
				"element": "C" 
			},
			{
				"x": 1.7344969463,
				"y": -2.5303062099,
				"z": -0.802577327,
				"element": "C" 
			},
			{
				"x": 1.7278793143,
				"y": -1.9346546432,
				"z": -2.0498625895,
				"element": "C" 
			},
			{
				"x": 0.6746804711,
				"y": -1.0706283118,
				"z": -2.3910845646,
				"element": "C" 
			},
			{
				"x": 0.7356307849,
				"y": -0.3496706179,
				"z": -3.9975825915,
				"element": "Cl" 
			},
			{
				"x": -2.484756,
				"y": -0.3776128442,
				"z": -1.8200003676,
				"element": "H" 
			},
			{
				"x": -1.4185528811,
				"y": 0.5515145803,
				"z": -2.8734180039,
				"element": "H" 
			},
			{
				"x": -1.5695199981,
				"y": 0.9936380754,
				"z": -1.1729558875,
				"element": "H" 
			},
			{
				"x": -2.1115078814,
				"y": -0.5511474771,
				"z": 0.4330238935,
				"element": "H" 
			},
			{
				"x": -0.3843224495,
				"y": -3.0575603437,
				"z": 3.2913055694,
				"element": "H" 
			},
			{
				"x": 1.4689094655,
				"y": -3.5448016704,
				"z": 1.7115777913,
				"element": "H" 
			},
			{
				"x": 2.5422634999,
				"y": -3.2009797469,
				"z": -0.5240631402,
				"element": "H" 
			},
			{
				"x": 2.5186322908,
				"y": -2.1224743794,
				"z": -2.7660622801,
				"element": "H" 
			}
		],
		 "valence_orbital": [ 
			{
				"type": "occ",
				"energy": -0.32162,
				"method": "rhf"
			},
			{
				"type": "occ",
				"energy": -0.29887,
				"method": "rhf"
			},
			{
				"type": "occ",
				"energy": -0.25608,
				"method": "rhf"
			},
			{
				"type": "occ",
				"energy": -0.24828,
				"method": "rhf"
			},
			{
				"type": "occ",
				"energy": -0.22552,
				"method": "rhf"
			},
			{
				"type": "unocc",
				"energy": -0.06145,
				"method": "rhf"
			},
			{
				"type": "unocc",
				"energy": -0.01893,
				"method": "rhf"
			},
			{
				"type": "unocc",
				"energy": 0.00527,
				"method": "rhf"
			},
			{
				"type": "unocc",
				"energy": 0.02065,
				"method": "rhf"
			},
			{
				"type": "unocc",
				"energy": 0.07423,
				"method": "rhf"
			}
		],
		"cosmo_sigma_profile": { 
			"-0.025": 0.0,
			"-0.024": 0.0,
			"-0.023": 0.0,
			"-0.022": 0.0,
			"-0.021": 0.0,
			"-0.02": 0.0,
			"-0.019": 0.0,
			"-0.018": 0.0,
			"-0.017": 0.0,
			"-0.016": 0.0,
			"-0.015": 0.0,
			"-0.014": 0.220581355753,
			"-0.013": 1.16722783255,
			"-0.012": 1.22944848447,
			"-0.011": 1.13033256311,
			"-0.01": 1.4273420673,
			"-0.009": 1.33930339937,
			"-0.008": 4.13168273456,
			"-0.007": 10.258480006,
			"-0.006": 11.3324917089,
			"-0.005": 10.5330034393,
			"-0.004": 10.0349344368,
			"-0.003": 10.4382838028,
			"-0.002": 12.6925112113,
			"-0.001": 21.4788312378,
			"0.0": 21.508615581,
			"0.001": 22.239158148,
			"0.002": 22.8088739633,
			"0.003": 14.6007729725,
			"0.004": 10.3582721487,
			"0.005": 4.43458482241,
			"0.006": 0.969297581361,
			"0.007": 0.831226713579,
			"0.008": 1.74728142266,
			"0.009": 1.23517435904,
			"0.01": 0.8419266748,
			"0.011": 1.75569132523,
			"0.012": 1.66306707365,
			"0.013": 3.48159399809,
			"0.014": 6.15406626411,
			"0.015": 1.42626986447,
			"0.016": 0.0,
			"0.017": 0.0,
			"0.018": 0.0,
			"0.019": 0.0,
			"0.02": 0.0,
			"0.021": 0.0,
			"0.022": 0.0,
			"0.023": 0.0,
			"0.024": 0.0,
			"0.025": 0.0
		}
	}
}
