{
	 "smiles": "CCC(C(O)=O)C1=CC=C(CC(C)C)C=C1", 
	 "Tm": 325.15, 
	 "num_atms": 36, 
	 "gaussian": { 
		 "optdone": 1, 
		 "sigma_profile": "yes", 
		 "theory": "DFT", 
		 "functional": "B3LYP", 
		 "basiset": "6-31G**", 
		 "properties": { 
			 "R2extent": 5122.5907, 
			 "electric_dipole_moment_norm": 4.96544967651, 
			 "electric_quadrupole_moment_norm": 23.201454641, 
			 "total_energy": -696.029351794, 
			 "HOMO_LUMO_gap": 0.22357, 
			 "cosmo_polarized_energy": -11.97, 
			 "cosmo_cavitation_energy": 37.44, 
			 "cosmo_dispersion_energy": -25.25, 
			 "cosmo_repulsion_energy": 2.01, 
			 "cosmo_total_nonelectrostatic_energy": 14.2, 
			 "SMD_solvation_energy": 7.19 
		},
		"coords": [
			{
				"x": -1.5682638199,
				"y": -1.9053956613,
				"z": 3.2428083604,
				"element": "C" 
			},
			{
				"x": -2.6313025813,
				"y": -1.2331908398,
				"z": 2.3712428275,
				"element": "C" 
			},
			{
				"x": -2.2404702436,
				"y": -1.1536598943,
				"z": 0.8814091191,
				"element": "C" 
			},
			{
				"x": -3.456860428,
				"y": -0.7409200642,
				"z": 0.025107128,
				"element": "C" 
			},
			{
				"x": -3.1725046186,
				"y": -0.2923173446,
				"z": -1.2217941784,
				"element": "O" 
			},
			{
				"x": -4.6029722619,
				"y": -0.8465337054,
				"z": 0.3872059324,
				"element": "O" 
			},
			{
				"x": -1.0165719548,
				"y": -0.2904843,
				"z": 0.6071646974,
				"element": "C" 
			},
			{
				"x": -1.0212942611,
				"y": 1.0847607142,
				"z": 0.8950134368,
				"element": "C" 
			},
			{
				"x": 0.1018638124,
				"y": 1.8712617047,
				"z": 0.6511729451,
				"element": "C" 
			},
			{
				"x": 1.274366129,
				"y": 1.323768232,
				"z": 0.1053901475,
				"element": "C" 
			},
			{
				"x": 2.4901797202,
				"y": 2.1855101332,
				"z": -0.1655171824,
				"element": "C" 
			},
			{
				"x": 2.5604862186,
				"y": 2.8433856346,
				"z": -1.5738150549,
				"element": "C" 
			},
			{
				"x": 2.649863219,
				"y": 1.8073195162,
				"z": -2.702778098,
				"element": "C" 
			},
			{
				"x": 1.4129272467,
				"y": 3.8327667181,
				"z": -1.819640135,
				"element": "C" 
			},
			{
				"x": 1.2776382592,
				"y": -0.0484182851,
				"z": -0.1769850163,
				"element": "C" 
			},
			{
				"x": 0.1534646464,
				"y": -0.8402811346,
				"z": 0.0659720336,
				"element": "C" 
			},
			{
				"x": -1.8956823289,
				"y": -1.9487997316,
				"z": 4.2861997772,
				"element": "H" 
			},
			{
				"x": -1.3764203864,
				"y": -2.9334964484,
				"z": 2.9136313907,
				"element": "H" 
			},
			{
				"x": -0.6171457768,
				"y": -1.3641838733,
				"z": 3.2130506365,
				"element": "H" 
			},
			{
				"x": -2.8352034577,
				"y": -0.221355135,
				"z": 2.7415007119,
				"element": "H" 
			},
			{
				"x": -3.5794915355,
				"y": -1.7739086095,
				"z": 2.435268505,
				"element": "H" 
			},
			{
				"x": -2.0040690687,
				"y": -2.1746214772,
				"z": 0.5436624143,
				"element": "H" 
			},
			{
				"x": -2.2106765712,
				"y": -0.2016117691,
				"z": -1.3163311615,
				"element": "H" 
			},
			{
				"x": -1.9122870102,
				"y": 1.5439424676,
				"z": 1.3159950115,
				"element": "H" 
			},
			{
				"x": 0.0717801136,
				"y": 2.9300517591,
				"z": 0.8944215838,
				"element": "H" 
			},
			{
				"x": 2.5347968725,
				"y": 2.9840141523,
				"z": 0.5852610483,
				"element": "H" 
			},
			{
				"x": 3.3937695386,
				"y": 1.5789256546,
				"z": -0.0283015167,
				"element": "H" 
			},
			{
				"x": 3.4978898295,
				"y": 3.4176110432,
				"z": -1.5780516848,
				"element": "H" 
			},
			{
				"x": 3.4966446926,
				"y": 1.1268433894,
				"z": -2.5576848675,
				"element": "H" 
			},
			{
				"x": 1.7395140083,
				"y": 1.2011661413,
				"z": -2.7619948003,
				"element": "H" 
			},
			{
				"x": 2.782422509,
				"y": 2.300872607,
				"z": -3.6714053836,
				"element": "H" 
			},
			{
				"x": 1.5389038202,
				"y": 4.3399196352,
				"z": -2.7821133918,
				"element": "H" 
			},
			{
				"x": 0.4429081803,
				"y": 3.3245071592,
				"z": -1.8380976444,
				"element": "H" 
			},
			{
				"x": 1.3726557724,
				"y": 4.6029797006,
				"z": -1.0410639423,
				"element": "H" 
			},
			{
				"x": 2.1746080933,
				"y": -0.5085810051,
				"z": -0.5830272005,
				"element": "H" 
			},
			{
				"x": 0.1911336226,
				"y": -1.9044470839,
				"z": -0.1553764487,
				"element": "H" 
			}
		],
		 "valence_orbital": [ 
			{
				"type": "occ",
				"energy": -0.32149,
				"method": "rhf"
			},
			{
				"type": "occ",
				"energy": -0.30805,
				"method": "rhf"
			},
			{
				"type": "occ",
				"energy": -0.27159,
				"method": "rhf"
			},
			{
				"type": "occ",
				"energy": -0.26375,
				"method": "rhf"
			},
			{
				"type": "occ",
				"energy": -0.24434,
				"method": "rhf"
			},
			{
				"type": "unocc",
				"energy": -0.02077,
				"method": "rhf"
			},
			{
				"type": "unocc",
				"energy": -0.01723,
				"method": "rhf"
			},
			{
				"type": "unocc",
				"energy": 0.01485,
				"method": "rhf"
			},
			{
				"type": "unocc",
				"energy": 0.07206,
				"method": "rhf"
			},
			{
				"type": "unocc",
				"energy": 0.08449,
				"method": "rhf"
			}
		],
		"cosmo_sigma_profile": { 
			"-0.025": 0.0,
			"-0.024": 0.0,
			"-0.023": 0.0,
			"-0.022": 0.0,
			"-0.021": 0.0,
			"-0.02": 0.0,
			"-0.019": 0.0,
			"-0.018": 0.0,
			"-0.017": 0.0,
			"-0.016": 0.0,
			"-0.015": 0.0,
			"-0.014": 0.377367190059,
			"-0.013": 0.762659523041,
			"-0.012": 0.615048480254,
			"-0.011": 0.939962126816,
			"-0.01": 1.47983374282,
			"-0.009": 1.27414126289,
			"-0.008": 1.38658928757,
			"-0.007": 4.69505282936,
			"-0.006": 8.56368628834,
			"-0.005": 11.0955115306,
			"-0.004": 13.3419614154,
			"-0.003": 26.7031487021,
			"-0.002": 36.1494472878,
			"-0.001": 37.3933279746,
			"0.0": 37.0740124333,
			"0.001": 36.8019960561,
			"0.002": 21.4553524575,
			"0.003": 9.6542569043,
			"0.004": 6.04569018748,
			"0.005": 6.83465960845,
			"0.006": 2.99920937419,
			"0.007": 2.43822836354,
			"0.008": 2.73525844432,
			"0.009": 3.30146423053,
			"0.01": 4.64486143833,
			"0.011": 5.2492816744,
			"0.012": 5.50966571609,
			"0.013": 2.01000772972,
			"0.014": 0.150491966052,
			"0.015": 0.0,
			"0.016": 0.0,
			"0.017": 0.0,
			"0.018": 0.0,
			"0.019": 0.0,
			"0.02": 0.0,
			"0.021": 0.0,
			"0.022": 0.0,
			"0.023": 0.0,
			"0.024": 0.0,
			"0.025": 0.0
		}
	}
}
