{
	 "smiles": "O=C(CCC1=CC=CC=C1)C1=CC=CC=C1", 
	 "Tm": 343.15, 
	 "num_atms": 30, 
	 "gaussian": { 
		 "optdone": 1, 
		 "sigma_profile": "yes", 
		 "theory": "DFT", 
		 "functional": "B3LYP", 
		 "basiset": "6-31G**", 
		 "properties": { 
			 "R2extent": 5543.1781, 
			 "electric_dipole_moment_norm": 2.93099554077, 
			 "electric_quadrupole_moment_norm": 8.87085456425, 
			 "total_energy": -655.267555721, 
			 "HOMO_LUMO_gap": 0.17619, 
			 "cosmo_polarized_energy": -9.22, 
			 "cosmo_cavitation_energy": 33.57, 
			 "cosmo_dispersion_energy": -24.05, 
			 "cosmo_repulsion_energy": 1.87, 
			 "cosmo_total_nonelectrostatic_energy": 11.39, 
			 "SMD_solvation_energy": 5.71 
		},
		"coords": [
			{
				"x": -0.2911839042,
				"y": -2.2770937478,
				"z": 1.7768724493,
				"element": "O" 
			},
			{
				"x": -0.6020626546,
				"y": -1.1043156931,
				"z": 1.620428727,
				"element": "C" 
			},
			{
				"x": -2.015219767,
				"y": -0.7155382016,
				"z": 1.1916980944,
				"element": "C" 
			},
			{
				"x": -2.8884497981,
				"y": -1.9072206841,
				"z": 0.7543145713,
				"element": "C" 
			},
			{
				"x": -2.6188902728,
				"y": -2.375970043,
				"z": -0.6629739608,
				"element": "C" 
			},
			{
				"x": -3.3299304342,
				"y": -1.8214449414,
				"z": -1.7368470668,
				"element": "C" 
			},
			{
				"x": -3.0833674999,
				"y": -2.226522638,
				"z": -3.049459393,
				"element": "C" 
			},
			{
				"x": -2.1180015072,
				"y": -3.2006131476,
				"z": -3.3099195965,
				"element": "C" 
			},
			{
				"x": -1.4049658756,
				"y": -3.7626992871,
				"z": -2.2492480762,
				"element": "C" 
			},
			{
				"x": -1.6523369947,
				"y": -3.3540781516,
				"z": -0.937692139,
				"element": "C" 
			},
			{
				"x": 0.39714991,
				"y": -0.0167594074,
				"z": 1.8875520675,
				"element": "C" 
			},
			{
				"x": 1.6939320221,
				"y": -0.3956842952,
				"z": 2.2712948403,
				"element": "C" 
			},
			{
				"x": 2.6623770529,
				"y": 0.5669996062,
				"z": 2.5377187668,
				"element": "C" 
			},
			{
				"x": 2.3468406123,
				"y": 1.9248162031,
				"z": 2.4280453256,
				"element": "C" 
			},
			{
				"x": 1.0601374714,
				"y": 2.3134366975,
				"z": 2.0507304243,
				"element": "C" 
			},
			{
				"x": 0.089841759,
				"y": 1.3485601017,
				"z": 1.7801670909,
				"element": "C" 
			},
			{
				"x": -2.4773144882,
				"y": -0.2055552797,
				"z": 2.0496885199,
				"element": "H" 
			},
			{
				"x": -1.9634266026,
				"y": 0.0322153928,
				"z": 0.3917421418,
				"element": "H" 
			},
			{
				"x": -3.9385645619,
				"y": -1.6055455933,
				"z": 0.8354773667,
				"element": "H" 
			},
			{
				"x": -2.7301305196,
				"y": -2.7289746656,
				"z": 1.4584035924,
				"element": "H" 
			},
			{
				"x": -4.0914489874,
				"y": -1.0691505784,
				"z": -1.5412272269,
				"element": "H" 
			},
			{
				"x": -3.6490863086,
				"y": -1.7865884623,
				"z": -3.8663595826,
				"element": "H" 
			},
			{
				"x": -1.9260959447,
				"y": -3.5214445729,
				"z": -4.3299845775,
				"element": "H" 
			},
			{
				"x": -0.6539485008,
				"y": -4.5240592175,
				"z": -2.4421551879,
				"element": "H" 
			},
			{
				"x": -1.0898791584,
				"y": -3.7834540987,
				"z": -0.1148630647,
				"element": "H" 
			},
			{
				"x": 1.9134504141,
				"y": -1.4549307158,
				"z": 2.352014772,
				"element": "H" 
			},
			{
				"x": 3.6630228665,
				"y": 0.2631831708,
				"z": 2.8312356884,
				"element": "H" 
			},
			{
				"x": 3.1020269704,
				"y": 2.6775248667,
				"z": 2.6361383966,
				"element": "H" 
			},
			{
				"x": 0.8122443217,
				"y": 3.3674242469,
				"z": 1.9660428435,
				"element": "H" 
			},
			{
				"x": -0.9054196196,
				"y": 1.6670831363,
				"z": 1.4886641934,
				"element": "H" 
			}
		],
		 "valence_orbital": [ 
			{
				"type": "occ",
				"energy": -0.26212,
				"method": "rhf"
			},
			{
				"type": "occ",
				"energy": -0.25882,
				"method": "rhf"
			},
			{
				"type": "occ",
				"energy": -0.25197,
				"method": "rhf"
			},
			{
				"type": "occ",
				"energy": -0.24008,
				"method": "rhf"
			},
			{
				"type": "occ",
				"energy": -0.23268,
				"method": "rhf"
			},
			{
				"type": "unocc",
				"energy": -0.05649,
				"method": "rhf"
			},
			{
				"type": "unocc",
				"energy": -0.01024,
				"method": "rhf"
			},
			{
				"type": "unocc",
				"energy": 0.00662,
				"method": "rhf"
			},
			{
				"type": "unocc",
				"energy": 0.00834,
				"method": "rhf"
			},
			{
				"type": "unocc",
				"energy": 0.03878,
				"method": "rhf"
			}
		],
		"cosmo_sigma_profile": { 
			"-0.025": 0.0,
			"-0.024": 0.0,
			"-0.023": 0.0,
			"-0.022": 0.0,
			"-0.021": 0.0,
			"-0.02": 0.0,
			"-0.019": 0.0,
			"-0.018": 0.0,
			"-0.017": 0.0,
			"-0.016": 0.0,
			"-0.015": 0.0,
			"-0.014": 0.0,
			"-0.013": 0.0,
			"-0.012": 0.0,
			"-0.011": 0.0,
			"-0.01": 0.0,
			"-0.009": 0.0,
			"-0.008": 0.0,
			"-0.007": 2.39850293426,
			"-0.006": 13.6262387114,
			"-0.005": 23.2006368978,
			"-0.004": 26.4812221242,
			"-0.003": 26.3989310821,
			"-0.002": 22.7824590842,
			"-0.001": 19.0874248426,
			"0.0": 18.0954922904,
			"0.001": 16.7128374524,
			"0.002": 18.7998273027,
			"0.003": 18.2372526127,
			"0.004": 23.1042523343,
			"0.005": 13.6287555303,
			"0.006": 9.79917358078,
			"0.007": 5.97832562004,
			"0.008": 1.85355551242,
			"0.009": 1.53927951394,
			"0.01": 1.87415218568,
			"0.011": 2.23550332383,
			"0.012": 1.79610172306,
			"0.013": 0.0492572569817,
			"0.014": 0.0,
			"0.015": 0.0,
			"0.016": 0.0,
			"0.017": 0.0,
			"0.018": 0.0,
			"0.019": 0.0,
			"0.02": 0.0,
			"0.021": 0.0,
			"0.022": 0.0,
			"0.023": 0.0,
			"0.024": 0.0,
			"0.025": 0.0
		}
	}
}
