{
	 "smiles": "NC1=CC(Cl)=C(OCC2=CC(F)=CC=C2)C=C1", 
	 "Tm": 353.15, 
	 "num_atms": 28, 
	 "gaussian": { 
		 "optdone": 1, 
		 "sigma_profile": "yes", 
		 "theory": "DFT", 
		 "functional": "B3LYP", 
		 "basiset": "6-31G**", 
		 "properties": { 
			 "R2extent": 5449.7226, 
			 "electric_dipole_moment_norm": 4.07653697395, 
			 "electric_quadrupole_moment_norm": 11.3311114208, 
			 "total_energy": -1192.00287064, 
			 "HOMO_LUMO_gap": 0.18599, 
			 "cosmo_polarized_energy": -12.35, 
			 "cosmo_cavitation_energy": 34.7, 
			 "cosmo_dispersion_energy": -24.27, 
			 "cosmo_repulsion_energy": 1.88, 
			 "cosmo_total_nonelectrostatic_energy": 12.32, 
			 "SMD_solvation_energy": 6.06 
		},
		"coords": [
			{
				"x": -3.8694670376,
				"y": -0.7934656122,
				"z": 2.5528333553,
				"element": "N" 
			},
			{
				"x": -2.8346007902,
				"y": -0.6272865132,
				"z": 1.6303504464,
				"element": "C" 
			},
			{
				"x": -2.6734119447,
				"y": -1.5330719654,
				"z": 0.569556671,
				"element": "C" 
			},
			{
				"x": -1.677954294,
				"y": -1.3282661217,
				"z": -0.3819993221,
				"element": "C" 
			},
			{
				"x": -1.5294107768,
				"y": -2.4754467867,
				"z": -1.7048773779,
				"element": "Cl" 
			},
			{
				"x": -0.81024106,
				"y": -0.2286689008,
				"z": -0.3130372397,
				"element": "C" 
			},
			{
				"x": 0.1341604116,
				"y": 0.0085844614,
				"z": -1.2870676605,
				"element": "O" 
			},
			{
				"x": 1.379192379,
				"y": -0.6962415482,
				"z": -1.1403916049,
				"element": "C" 
			},
			{
				"x": 2.3125819006,
				"y": -0.0581046933,
				"z": -0.1325611965,
				"element": "C" 
			},
			{
				"x": 2.56700827,
				"y": 1.318766676,
				"z": -0.1933205041,
				"element": "C" 
			},
			{
				"x": 3.4503506338,
				"y": 1.8823803917,
				"z": 0.7161938818,
				"element": "C" 
			},
			{
				"x": 3.6906231998,
				"y": 3.2099255234,
				"z": 0.6551593326,
				"element": "F" 
			},
			{
				"x": 4.1018321642,
				"y": 1.127986192,
				"z": 1.688293261,
				"element": "C" 
			},
			{
				"x": 3.8445929217,
				"y": -0.2409413103,
				"z": 1.7423023149,
				"element": "C" 
			},
			{
				"x": 2.9525572598,
				"y": -0.8305016152,
				"z": 0.8421433949,
				"element": "C" 
			},
			{
				"x": -0.9821536626,
				"y": 0.6688015135,
				"z": 0.7450475485,
				"element": "C" 
			},
			{
				"x": -1.9740436868,
				"y": 0.4813115548,
				"z": 1.7015632896,
				"element": "C" 
			},
			{
				"x": -3.7207615404,
				"y": -0.3466968022,
				"z": 3.4470581256,
				"element": "H" 
			},
			{
				"x": -4.2061101805,
				"y": -1.7405556353,
				"z": 2.6577185681,
				"element": "H" 
			},
			{
				"x": -3.3308601651,
				"y": -2.3913838744,
				"z": 0.475557613,
				"element": "H" 
			},
			{
				"x": 1.8258631232,
				"y": -0.6703774543,
				"z": -2.1398986017,
				"element": "H" 
			},
			{
				"x": 1.1967612333,
				"y": -1.7453619947,
				"z": -0.8825257135,
				"element": "H" 
			},
			{
				"x": 2.0790782745,
				"y": 1.9455859675,
				"z": -0.9322739155,
				"element": "H" 
			},
			{
				"x": 4.7851944439,
				"y": 1.6137075027,
				"z": 2.3762676012,
				"element": "H" 
			},
			{
				"x": 4.3364094284,
				"y": -0.8495264203,
				"z": 2.4953625328,
				"element": "H" 
			},
			{
				"x": 2.7523976709,
				"y": -1.8968798466,
				"z": 0.8986231763,
				"element": "H" 
			},
			{
				"x": -0.3201312263,
				"y": 1.5259798837,
				"z": 0.8008774313,
				"element": "H" 
			},
			{
				"x": -2.0887569498,
				"y": 1.2004474281,
				"z": 2.5081445921,
				"element": "H" 
			}
		],
		 "valence_orbital": [ 
			{
				"type": "occ",
				"energy": -0.27889,
				"method": "rhf"
			},
			{
				"type": "occ",
				"energy": -0.25626,
				"method": "rhf"
			},
			{
				"type": "occ",
				"energy": -0.24665,
				"method": "rhf"
			},
			{
				"type": "occ",
				"energy": -0.24507,
				"method": "rhf"
			},
			{
				"type": "occ",
				"energy": -0.20488,
				"method": "rhf"
			},
			{
				"type": "unocc",
				"energy": -0.01889,
				"method": "rhf"
			},
			{
				"type": "unocc",
				"energy": -0.00881,
				"method": "rhf"
			},
			{
				"type": "unocc",
				"energy": 0.00015,
				"method": "rhf"
			},
			{
				"type": "unocc",
				"energy": 0.01209,
				"method": "rhf"
			},
			{
				"type": "unocc",
				"energy": 0.03366,
				"method": "rhf"
			}
		],
		"cosmo_sigma_profile": { 
			"-0.025": 0.0,
			"-0.024": 0.0,
			"-0.023": 0.0,
			"-0.022": 0.0,
			"-0.021": 0.0,
			"-0.02": 0.0,
			"-0.019": 0.0,
			"-0.018": 0.0,
			"-0.017": 0.0,
			"-0.016": 0.0,
			"-0.015": 0.0,
			"-0.014": 0.0,
			"-0.013": 0.957629670961,
			"-0.012": 3.17946447517,
			"-0.011": 2.70720225045,
			"-0.01": 3.70899738248,
			"-0.009": 2.90223567808,
			"-0.008": 3.32346113862,
			"-0.007": 6.93312314333,
			"-0.006": 15.7683334274,
			"-0.005": 16.566225175,
			"-0.004": 16.8268283847,
			"-0.003": 17.4598494296,
			"-0.002": 13.2029627389,
			"-0.001": 13.2538046434,
			"0.0": 16.8370983769,
			"0.001": 20.1120911949,
			"0.002": 22.9294109972,
			"0.003": 27.0833063701,
			"0.004": 35.9970060266,
			"0.005": 22.6886799504,
			"0.006": 3.92820225933,
			"0.007": 2.04238781854,
			"0.008": 2.67169786425,
			"0.009": 1.59584611225,
			"0.01": 2.41906384204,
			"0.011": 1.60626056898,
			"0.012": 1.2326406546,
			"0.013": 0.795828270129,
			"0.014": 0.451957444276,
			"0.015": 0.0423301013968,
			"0.016": 0.0,
			"0.017": 0.0,
			"0.018": 0.0,
			"0.019": 0.0,
			"0.02": 0.0,
			"0.021": 0.0,
			"0.022": 0.0,
			"0.023": 0.0,
			"0.024": 0.0,
			"0.025": 0.0
		}
	}
}
