{
	 "smiles": "CC(C)(C)OC(=O)N1CCN(C(C1)C(O)=O)C(N)=O", 
	 "Tm": 432.15, 
	 "num_atms": 38, 
	 "gaussian": { 
		 "optdone": 1, 
		 "sigma_profile": "yes", 
		 "theory": "DFT", 
		 "functional": "B3LYP", 
		 "basiset": "6-31G**", 
		 "properties": { 
			 "R2extent": 6581.2254, 
			 "electric_dipole_moment_norm": 2.44349518927, 
			 "electric_quadrupole_moment_norm": 27.2569661692, 
			 "total_energy": -971.067433697, 
			 "HOMO_LUMO_gap": 0.22897, 
			 "cosmo_polarized_energy": -22.39, 
			 "cosmo_cavitation_energy": 39.64, 
			 "cosmo_dispersion_energy": -26.65, 
			 "cosmo_repulsion_energy": 2.06, 
			 "cosmo_total_nonelectrostatic_energy": 15.04, 
			 "SMD_solvation_energy": 8.66 
		},
		"coords": [
			{
				"x": -1.3117313511,
				"y": 1.9002600438,
				"z": -2.8390717535,
				"element": "C" 
			},
			{
				"x": -0.7699670944,
				"y": 1.8042875438,
				"z": -1.4097071107,
				"element": "C" 
			},
			{
				"x": -1.4403144053,
				"y": 2.8328846182,
				"z": -0.4954524786,
				"element": "C" 
			},
			{
				"x": 0.7551772913,
				"y": 1.9387175528,
				"z": -1.3483416323,
				"element": "C" 
			},
			{
				"x": -1.1800361199,
				"y": 0.5282812868,
				"z": -0.7999308039,
				"element": "O" 
			},
			{
				"x": -0.7086287823,
				"y": -0.6490869805,
				"z": -1.2595499859,
				"element": "C" 
			},
			{
				"x": -0.0939519521,
				"y": -0.818673938,
				"z": -2.303621442,
				"element": "O" 
			},
			{
				"x": -1.0287198252,
				"y": -1.6743671838,
				"z": -0.3968233457,
				"element": "N" 
			},
			{
				"x": -0.6398517393,
				"y": -3.0384875442,
				"z": -0.7199532145,
				"element": "C" 
			},
			{
				"x": 0.3492659422,
				"y": -3.5851119802,
				"z": 0.3195732009,
				"element": "C" 
			},
			{
				"x": -0.1625527475,
				"y": -3.3696882188,
				"z": 1.6732340917,
				"element": "N" 
			},
			{
				"x": -0.6221565894,
				"y": -2.0274234171,
				"z": 1.997091736,
				"element": "C" 
			},
			{
				"x": -1.6021433272,
				"y": -1.5063407224,
				"z": 0.9329855775,
				"element": "C" 
			},
			{
				"x": 0.5164364118,
				"y": -1.0165668808,
				"z": 2.2031311016,
				"element": "C" 
			},
			{
				"x": 1.7220616102,
				"y": -1.6001672213,
				"z": 2.3854755382,
				"element": "O" 
			},
			{
				"x": 0.358632175,
				"y": 0.1842548614,
				"z": 2.2357554582,
				"element": "O" 
			},
			{
				"x": -0.0208486583,
				"y": -4.2605239561,
				"z": 2.7270859726,
				"element": "C" 
			},
			{
				"x": 0.660050005,
				"y": -5.4381426367,
				"z": 2.4392284746,
				"element": "N" 
			},
			{
				"x": -0.5170243296,
				"y": -4.0543833295,
				"z": 3.8297291282,
				"element": "O" 
			},
			{
				"x": -0.8543604274,
				"y": 1.1462982925,
				"z": -3.4798489348,
				"element": "H" 
			},
			{
				"x": -1.0976153908,
				"y": 2.8936637423,
				"z": -3.2471352092,
				"element": "H" 
			},
			{
				"x": -2.3971108281,
				"y": 1.7583189317,
				"z": -2.8435358215,
				"element": "H" 
			},
			{
				"x": -2.5268939237,
				"y": 2.7051806936,
				"z": -0.5029716135,
				"element": "H" 
			},
			{
				"x": -1.0845094062,
				"y": 2.7187222529,
				"z": 0.5323244453,
				"element": "H" 
			},
			{
				"x": -1.2091961598,
				"y": 3.8463204738,
				"z": -0.8370142668,
				"element": "H" 
			},
			{
				"x": 1.2397037465,
				"y": 1.2051358758,
				"z": -1.9940014662,
				"element": "H" 
			},
			{
				"x": 1.1005388058,
				"y": 1.7960891508,
				"z": -0.3195666771,
				"element": "H" 
			},
			{
				"x": 1.0490335203,
				"y": 2.9417620333,
				"z": -1.6739905053,
				"element": "H" 
			},
			{
				"x": -0.1899435944,
				"y": -3.0383421635,
				"z": -1.7127405813,
				"element": "H" 
			},
			{
				"x": -1.5364019938,
				"y": -3.6737365471,
				"z": -0.7315789328,
				"element": "H" 
			},
			{
				"x": 0.4669322483,
				"y": -4.6574263274,
				"z": 0.1528520124,
				"element": "H" 
			},
			{
				"x": 1.326940821,
				"y": -3.0976569171,
				"z": 0.1918180088,
				"element": "H" 
			},
			{
				"x": -1.1343509667,
				"y": -2.101965377,
				"z": 2.9621468012,
				"element": "H" 
			},
			{
				"x": -2.5326683087,
				"y": -2.0839686593,
				"z": 1.0045086655,
				"element": "H" 
			},
			{
				"x": -1.8157604968,
				"y": -0.455922978,
				"z": 1.1089249589,
				"element": "H" 
			},
			{
				"x": 2.3474045613,
				"y": -0.8737644305,
				"z": 2.5497728904,
				"element": "H" 
			},
			{
				"x": 0.8164158477,
				"y": -5.9764745873,
				"z": 3.2802511701,
				"element": "H" 
			},
			{
				"x": 1.4705454311,
				"y": -5.382055357,
				"z": 1.8384465438,
				"element": "H" 
			}
		],
		 "valence_orbital": [ 
			{
				"type": "occ",
				"energy": -0.2814,
				"method": "rhf"
			},
			{
				"type": "occ",
				"energy": -0.26203,
				"method": "rhf"
			},
			{
				"type": "occ",
				"energy": -0.25666,
				"method": "rhf"
			},
			{
				"type": "occ",
				"energy": -0.25451,
				"method": "rhf"
			},
			{
				"type": "occ",
				"energy": -0.23209,
				"method": "rhf"
			},
			{
				"type": "unocc",
				"energy": -0.00312,
				"method": "rhf"
			},
			{
				"type": "unocc",
				"energy": 0.04367,
				"method": "rhf"
			},
			{
				"type": "unocc",
				"energy": 0.05175,
				"method": "rhf"
			},
			{
				"type": "unocc",
				"energy": 0.06444,
				"method": "rhf"
			},
			{
				"type": "unocc",
				"energy": 0.07991,
				"method": "rhf"
			}
		],
		"cosmo_sigma_profile": { 
			"-0.025": 0.0,
			"-0.024": 0.0,
			"-0.023": 0.0,
			"-0.022": 0.0,
			"-0.021": 0.0,
			"-0.02": 0.0,
			"-0.019": 0.167281601227,
			"-0.018": 0.946749040284,
			"-0.017": 0.939173357735,
			"-0.016": 0.8085655309,
			"-0.015": 0.798722371003,
			"-0.014": 1.50124260287,
			"-0.013": 2.46790556355,
			"-0.012": 3.99371555752,
			"-0.011": 2.78539119339,
			"-0.01": 3.25487243063,
			"-0.009": 2.62652042309,
			"-0.008": 3.32263651743,
			"-0.007": 5.79764490832,
			"-0.006": 9.19053732589,
			"-0.005": 16.7018853066,
			"-0.004": 25.5331369465,
			"-0.003": 24.6321494351,
			"-0.002": 23.1534868169,
			"-0.001": 23.9363999176,
			"0.0": 31.7517884802,
			"0.001": 24.0158506317,
			"0.002": 14.8198806926,
			"0.003": 11.5193926366,
			"0.004": 10.5745286482,
			"0.005": 9.172782701,
			"0.006": 9.17239327911,
			"0.007": 8.92327870091,
			"0.008": 4.92240565393,
			"0.009": 3.59630672842,
			"0.01": 5.06984413876,
			"0.011": 6.40939591485,
			"0.012": 4.51898397915,
			"0.013": 5.66880027959,
			"0.014": 5.71662246339,
			"0.015": 0.707923410167,
			"0.016": 0.0,
			"0.017": 0.0,
			"0.018": 0.0,
			"0.019": 0.0,
			"0.02": 0.0,
			"0.021": 0.0,
			"0.022": 0.0,
			"0.023": 0.0,
			"0.024": 0.0,
			"0.025": 0.0
		}
	}
}
