{
	 "smiles": "O=C1CCCC2=C(N1)C=CC=C2", 
	 "Tm": 403.15, 
	 "num_atms": 23, 
	 "gaussian": { 
		 "optdone": 1, 
		 "sigma_profile": "yes", 
		 "theory": "DFT", 
		 "functional": "B3LYP", 
		 "basiset": "6-31G**", 
		 "properties": { 
			 "R2extent": 2091.525, 
			 "electric_dipole_moment_norm": 3.00906394083, 
			 "electric_quadrupole_moment_norm": 12.573249195, 
			 "total_energy": -517.69147558, 
			 "HOMO_LUMO_gap": 0.20213, 
			 "cosmo_polarized_energy": -10.48, 
			 "cosmo_cavitation_energy": 25.21, 
			 "cosmo_dispersion_energy": -19.07, 
			 "cosmo_repulsion_energy": 1.5, 
			 "cosmo_total_nonelectrostatic_energy": 7.65, 
			 "SMD_solvation_energy": 4.31 
		},
		"coords": [
			{
				"x": -1.7930820452,
				"y": -0.8325631562,
				"z": 2.7511024928,
				"element": "O" 
			},
			{
				"x": -1.1972586732,
				"y": -0.8377020043,
				"z": 1.6803969793,
				"element": "C" 
			},
			{
				"x": -1.4526778052,
				"y": -1.9594913816,
				"z": 0.6859985229,
				"element": "C" 
			},
			{
				"x": -1.0024730212,
				"y": -1.816540714,
				"z": -0.7668180994,
				"element": "C" 
			},
			{
				"x": 0.5098708713,
				"y": -1.583709329,
				"z": -0.91087765,
				"element": "C" 
			},
			{
				"x": 0.927185701,
				"y": -0.1437024733,
				"z": -0.7268239683,
				"element": "C" 
			},
			{
				"x": 0.5271956374,
				"y": 0.6312146515,
				"z": 0.3810107593,
				"element": "C" 
			},
			{
				"x": -0.2783727452,
				"y": 0.1738137841,
				"z": 1.4476016813,
				"element": "N" 
			},
			{
				"x": 0.9779570081,
				"y": 1.9591541751,
				"z": 0.4926807028,
				"element": "C" 
			},
			{
				"x": 1.804283346,
				"y": 2.5274398199,
				"z": -0.469659443,
				"element": "C" 
			},
			{
				"x": 2.1931864681,
				"y": 1.7753698179,
				"z": -1.5776428806,
				"element": "C" 
			},
			{
				"x": 1.7474171687,
				"y": 0.4603777629,
				"z": -1.6890316301,
				"element": "C" 
			},
			{
				"x": -0.9791388962,
				"y": -2.8474646592,
				"z": 1.126686601,
				"element": "H" 
			},
			{
				"x": -2.5294244219,
				"y": -2.1445332368,
				"z": 0.7446363197,
				"element": "H" 
			},
			{
				"x": -1.5493334351,
				"y": -1.0080104947,
				"z": -1.2663290908,
				"element": "H" 
			},
			{
				"x": -1.276712951,
				"y": -2.7415138622,
				"z": -1.2869216597,
				"element": "H" 
			},
			{
				"x": 0.8411133692,
				"y": -1.9099640185,
				"z": -1.9018480994,
				"element": "H" 
			},
			{
				"x": 1.0376864353,
				"y": -2.2246417557,
				"z": -0.1884884754,
				"element": "H" 
			},
			{
				"x": -0.2944026254,
				"y": 0.8006114926,
				"z": 2.2444533454,
				"element": "H" 
			},
			{
				"x": 0.6644279688,
				"y": 2.5494587021,
				"z": 1.3504933849,
				"element": "H" 
			},
			{
				"x": 2.1342882493,
				"y": 3.5555298524,
				"z": -0.3540268072,
				"element": "H" 
			},
			{
				"x": 2.8326581495,
				"y": 2.2036676136,
				"z": -2.3430229018,
				"element": "H" 
			},
			{
				"x": 2.048206247,
				"y": -0.1343005868,
				"z": -2.548070084,
				"element": "H" 
			}
		],
		 "valence_orbital": [ 
			{
				"type": "occ",
				"energy": -0.33658,
				"method": "rhf"
			},
			{
				"type": "occ",
				"energy": -0.30075,
				"method": "rhf"
			},
			{
				"type": "occ",
				"energy": -0.25112,
				"method": "rhf"
			},
			{
				"type": "occ",
				"energy": -0.24962,
				"method": "rhf"
			},
			{
				"type": "occ",
				"energy": -0.21676,
				"method": "rhf"
			},
			{
				"type": "unocc",
				"energy": -0.01463,
				"method": "rhf"
			},
			{
				"type": "unocc",
				"energy": -0.00592,
				"method": "rhf"
			},
			{
				"type": "unocc",
				"energy": 0.03979,
				"method": "rhf"
			},
			{
				"type": "unocc",
				"energy": 0.07916,
				"method": "rhf"
			},
			{
				"type": "unocc",
				"energy": 0.09243,
				"method": "rhf"
			}
		],
		"cosmo_sigma_profile": { 
			"-0.025": 0.0,
			"-0.024": 0.0,
			"-0.023": 0.0,
			"-0.022": 0.0,
			"-0.021": 0.0,
			"-0.02": 0.0,
			"-0.019": 0.0,
			"-0.018": 0.0,
			"-0.017": 0.0,
			"-0.016": 0.0,
			"-0.015": 0.0,
			"-0.014": 0.300157905405,
			"-0.013": 1.03469567167,
			"-0.012": 1.06673810777,
			"-0.011": 1.37596649505,
			"-0.01": 0.948800543607,
			"-0.009": 1.06240268491,
			"-0.008": 1.16231039853,
			"-0.007": 1.22340483887,
			"-0.006": 5.12964629686,
			"-0.005": 16.1459552147,
			"-0.004": 20.837586968,
			"-0.003": 24.9625611878,
			"-0.002": 20.285240711,
			"-0.001": 16.8862402862,
			"0.0": 13.5588955772,
			"0.001": 9.33538380008,
			"0.002": 9.95487235804,
			"0.003": 9.51254929187,
			"0.004": 8.10475320969,
			"0.005": 9.1274802583,
			"0.006": 8.27195599762,
			"0.007": 1.78399684114,
			"0.008": 1.26757638477,
			"0.009": 0.552292003511,
			"0.01": 1.96491770259,
			"0.011": 1.38455154997,
			"0.012": 1.82869569797,
			"0.013": 4.47419383286,
			"0.014": 4.68441503258,
			"0.015": 0.902342202306,
			"0.016": 0.0,
			"0.017": 0.0,
			"0.018": 0.0,
			"0.019": 0.0,
			"0.02": 0.0,
			"0.021": 0.0,
			"0.022": 0.0,
			"0.023": 0.0,
			"0.024": 0.0,
			"0.025": 0.0
		}
	}
}
