{
	 "smiles": "CC(N)=S", 
	 "Tm": 387.15, 
	 "num_atms": 9, 
	 "gaussian": { 
		 "optdone": 1, 
		 "sigma_profile": "yes", 
		 "theory": "DFT", 
		 "functional": "B3LYP", 
		 "basiset": "6-31G**", 
		 "properties": { 
			 "R2extent": 584.8345, 
			 "electric_dipole_moment_norm": 4.80255322927, 
			 "electric_quadrupole_moment_norm": 6.57551770433, 
			 "total_energy": -532.173737242, 
			 "HOMO_LUMO_gap": 0.17678, 
			 "cosmo_polarized_energy": -15.13, 
			 "cosmo_cavitation_energy": 14.2, 
			 "cosmo_dispersion_energy": -11.15, 
			 "cosmo_repulsion_energy": 0.97, 
			 "cosmo_total_nonelectrostatic_energy": 4.02, 
			 "SMD_solvation_energy": 1.97 
		},
		"coords": [
			{
				"x": -1.7573222114,
				"y": -1.9261582609,
				"z": -0.7072608891,
				"element": "C" 
			},
			{
				"x": -0.4614004256,
				"y": -1.2845794726,
				"z": -0.2599450669,
				"element": "C" 
			},
			{
				"x": 0.6408992265,
				"y": -1.7270835964,
				"z": -0.8950523526,
				"element": "N" 
			},
			{
				"x": -0.3989375446,
				"y": -0.1197234085,
				"z": 0.9272785379,
				"element": "S" 
			},
			{
				"x": -1.6170509354,
				"y": -2.6722262564,
				"z": -1.4971669896,
				"element": "H" 
			},
			{
				"x": -2.2397226824,
				"y": -2.4044564596,
				"z": 0.1486580153,
				"element": "H" 
			},
			{
				"x": -2.4391077646,
				"y": -1.1526412783,
				"z": -1.0690754712,
				"element": "H" 
			},
			{
				"x": 1.5390226047,
				"y": -1.3396084249,
				"z": -0.6436503885,
				"element": "H" 
			},
			{
				"x": 0.5992197328,
				"y": -2.4335228423,
				"z": -1.6142853954,
				"element": "H" 
			}
		],
		 "valence_orbital": [ 
			{
				"type": "occ",
				"energy": -0.40814,
				"method": "rhf"
			},
			{
				"type": "occ",
				"energy": -0.35685,
				"method": "rhf"
			},
			{
				"type": "occ",
				"energy": -0.35497,
				"method": "rhf"
			},
			{
				"type": "occ",
				"energy": -0.22812,
				"method": "rhf"
			},
			{
				"type": "occ",
				"energy": -0.20476,
				"method": "rhf"
			},
			{
				"type": "unocc",
				"energy": -0.02798,
				"method": "rhf"
			},
			{
				"type": "unocc",
				"energy": 0.05778,
				"method": "rhf"
			},
			{
				"type": "unocc",
				"energy": 0.09059,
				"method": "rhf"
			},
			{
				"type": "unocc",
				"energy": 0.12322,
				"method": "rhf"
			},
			{
				"type": "unocc",
				"energy": 0.1415,
				"method": "rhf"
			}
		],
		"cosmo_sigma_profile": { 
			"-0.025": 0.0,
			"-0.024": 0.0,
			"-0.023": 0.0,
			"-0.022": 0.0,
			"-0.021": 0.0,
			"-0.02": 0.0,
			"-0.019": 0.0,
			"-0.018": 0.0,
			"-0.017": 0.0,
			"-0.016": 0.48292710313,
			"-0.015": 2.17224224584,
			"-0.014": 3.25442095993,
			"-0.013": 2.5877396152,
			"-0.012": 2.66512646005,
			"-0.011": 2.17806733466,
			"-0.01": 2.32645007448,
			"-0.009": 2.01469157142,
			"-0.008": 1.68963701912,
			"-0.007": 1.37066403767,
			"-0.006": 5.13982992603,
			"-0.005": 5.8476579424,
			"-0.004": 7.1784221582,
			"-0.003": 7.32525340191,
			"-0.002": 9.36310690046,
			"-0.001": 5.30553244291,
			"0.0": 3.80335200845,
			"0.001": 2.51659196391,
			"0.002": 3.4440573818,
			"0.003": 2.9601355549,
			"0.004": 3.2377316176,
			"0.005": 3.03908556871,
			"0.006": 3.59225150256,
			"0.007": 4.1946778574,
			"0.008": 3.93413571031,
			"0.009": 5.35290246146,
			"0.01": 7.28624950906,
			"0.011": 4.22070487683,
			"0.012": 3.76342275398,
			"0.013": 2.08047040181,
			"0.014": 0.244972906803,
			"0.015": 0.0,
			"0.016": 0.0,
			"0.017": 0.0,
			"0.018": 0.0,
			"0.019": 0.0,
			"0.02": 0.0,
			"0.021": 0.0,
			"0.022": 0.0,
			"0.023": 0.0,
			"0.024": 0.0,
			"0.025": 0.0
		}
	}
}
