{
	 "smiles": "OC(=O)C1=CN=C(OC2CCCC2)C=C1", 
	 "Tm": 439.15, 
	 "num_atms": 28, 
	 "gaussian": { 
		 "optdone": 1, 
		 "sigma_profile": "yes", 
		 "theory": "DFT", 
		 "functional": "B3LYP", 
		 "basiset": "6-31G**", 
		 "properties": { 
			 "R2extent": 5079.5313, 
			 "electric_dipole_moment_norm": 5.11548990225, 
			 "electric_quadrupole_moment_norm": 28.1744298574, 
			 "total_energy": -707.441304901, 
			 "HOMO_LUMO_gap": 0.1972, 
			 "cosmo_polarized_energy": -15.35, 
			 "cosmo_cavitation_energy": 31.16, 
			 "cosmo_dispersion_energy": -22.91, 
			 "cosmo_repulsion_energy": 1.81, 
			 "cosmo_total_nonelectrostatic_energy": 10.07, 
			 "SMD_solvation_energy": 5.34 
		},
		"coords": [
			{
				"x": -4.7738939177,
				"y": 2.8571723326,
				"z": -2.08222778,
				"element": "O" 
			},
			{
				"x": -3.9062444295,
				"y": 3.036758911,
				"z": -1.046601484,
				"element": "C" 
			},
			{
				"x": -4.1889230465,
				"y": 3.8020000404,
				"z": -0.1540347427,
				"element": "O" 
			},
			{
				"x": -2.6363330517,
				"y": 2.256249399,
				"z": -1.0882143555,
				"element": "C" 
			},
			{
				"x": -1.898760315,
				"y": 2.1343204543,
				"z": 0.0933668973,
				"element": "C" 
			},
			{
				"x": -0.7474995525,
				"y": 1.4628467814,
				"z": 0.1935027977,
				"element": "N" 
			},
			{
				"x": -0.2641719115,
				"y": 0.8913653931,
				"z": -0.9113407136,
				"element": "C" 
			},
			{
				"x": 0.8964920109,
				"y": 0.2195122885,
				"z": -0.8703966553,
				"element": "O" 
			},
			{
				"x": 1.6151906775,
				"y": 0.1209574664,
				"z": 0.3937357488,
				"element": "C" 
			},
			{
				"x": 3.0302589917,
				"y": -0.3374122144,
				"z": 0.039830986,
				"element": "C" 
			},
			{
				"x": 2.9129619728,
				"y": -1.8647299511,
				"z": -0.1919460191,
				"element": "C" 
			},
			{
				"x": 1.6228236602,
				"y": -2.3110571701,
				"z": 0.5623516182,
				"element": "C" 
			},
			{
				"x": 1.0636210763,
				"y": -1.0348317836,
				"z": 1.2350768469,
				"element": "C" 
			},
			{
				"x": -0.9059967239,
				"y": 0.9639063391,
				"z": -2.1658114615,
				"element": "C" 
			},
			{
				"x": -2.1004351137,
				"y": 1.653424316,
				"z": -2.2429783614,
				"element": "C" 
			},
			{
				"x": -4.5050953126,
				"y": 2.1018366239,
				"z": -2.6222848492,
				"element": "H" 
			},
			{
				"x": -2.2745257464,
				"y": 2.6044743117,
				"z": 0.998259546,
				"element": "H" 
			},
			{
				"x": 1.5639456497,
				"y": 1.0884060084,
				"z": 0.8958955532,
				"element": "H" 
			},
			{
				"x": 3.6773392085,
				"y": -0.1243482561,
				"z": 0.898475701,
				"element": "H" 
			},
			{
				"x": 3.4330940189,
				"y": 0.2062664702,
				"z": -0.8189236064,
				"element": "H" 
			},
			{
				"x": 2.8228562017,
				"y": -2.0808613613,
				"z": -1.260332346,
				"element": "H" 
			},
			{
				"x": 3.8033143588,
				"y": -2.3913614707,
				"z": 0.1638239466,
				"element": "H" 
			},
			{
				"x": 0.8930849805,
				"y": -2.7162214368,
				"z": -0.1448940295,
				"element": "H" 
			},
			{
				"x": 1.8216237588,
				"y": -3.0971071834,
				"z": 1.2965586734,
				"element": "H" 
			},
			{
				"x": 1.4595241633,
				"y": -0.9270023546,
				"z": 2.2522148346,
				"element": "H" 
			},
			{
				"x": -0.0257583211,
				"y": -1.0116185914,
				"z": 1.3098391126,
				"element": "H" 
			},
			{
				"x": -0.4482741006,
				"y": 0.4961170359,
				"z": -3.0294872642,
				"element": "H" 
			},
			{
				"x": -2.5915191866,
				"y": 1.7486376018,
				"z": -3.2089585939,
				"element": "H" 
			}
		],
		 "valence_orbital": [ 
			{
				"type": "occ",
				"energy": -0.31244,
				"method": "rhf"
			},
			{
				"type": "occ",
				"energy": -0.30484,
				"method": "rhf"
			},
			{
				"type": "occ",
				"energy": -0.28286,
				"method": "rhf"
			},
			{
				"type": "occ",
				"energy": -0.26817,
				"method": "rhf"
			},
			{
				"type": "occ",
				"energy": -0.24453,
				"method": "rhf"
			},
			{
				"type": "unocc",
				"energy": -0.04733,
				"method": "rhf"
			},
			{
				"type": "unocc",
				"energy": -0.03828,
				"method": "rhf"
			},
			{
				"type": "unocc",
				"energy": 0.0478,
				"method": "rhf"
			},
			{
				"type": "unocc",
				"energy": 0.05784,
				"method": "rhf"
			},
			{
				"type": "unocc",
				"energy": 0.07814,
				"method": "rhf"
			}
		],
		"cosmo_sigma_profile": { 
			"-0.025": 0.0,
			"-0.024": 0.0,
			"-0.023": 0.0,
			"-0.022": 0.0,
			"-0.021": 0.0,
			"-0.02": 0.0,
			"-0.019": 0.52040949978,
			"-0.018": 0.986109666252,
			"-0.017": 1.08080930888,
			"-0.016": 0.944691164589,
			"-0.015": 0.867992312167,
			"-0.014": 1.12328767278,
			"-0.013": 1.09636822674,
			"-0.012": 1.58764035877,
			"-0.011": 1.09318365629,
			"-0.01": 1.29305378498,
			"-0.009": 1.53403265873,
			"-0.008": 2.79431138647,
			"-0.007": 5.02733710409,
			"-0.006": 4.73908245362,
			"-0.005": 4.35238765957,
			"-0.004": 12.7172272707,
			"-0.003": 20.6143725672,
			"-0.002": 27.1244538464,
			"-0.001": 31.9617594412,
			"0.0": 31.0562316063,
			"0.001": 26.4512143454,
			"0.002": 11.8817398415,
			"0.003": 6.49193299447,
			"0.004": 6.21503211949,
			"0.005": 5.35318047979,
			"0.006": 4.99024726915,
			"0.007": 4.75550115022,
			"0.008": 4.31775458247,
			"0.009": 4.684386262,
			"0.01": 5.02574294862,
			"0.011": 5.95007601768,
			"0.012": 5.53033262866,
			"0.013": 1.7990655667,
			"0.014": 0.155869737382,
			"0.015": 0.0,
			"0.016": 0.0,
			"0.017": 0.0,
			"0.018": 0.0,
			"0.019": 0.0,
			"0.02": 0.0,
			"0.021": 0.0,
			"0.022": 0.0,
			"0.023": 0.0,
			"0.024": 0.0,
			"0.025": 0.0
		}
	}
}
