{
	 "smiles": "NNC1=C(C=C(C=C1)S(=O)(=O)NC1=CC=C(Cl)C=C1)[N+]([O-])=O", 
	 "Tm": 461.15, 
	 "num_atms": 33, 
	 "gaussian": { 
		 "optdone": 1, 
		 "sigma_profile": "yes", 
		 "theory": "DFT", 
		 "functional": "B3LYP", 
		 "basiset": "6-31G**", 
		 "properties": { 
			 "R2extent": 9601.2205, 
			 "electric_dipole_moment_norm": 6.89797386556, 
			 "electric_quadrupole_moment_norm": 22.573845899, 
			 "total_energy": -1841.98578492, 
			 "HOMO_LUMO_gap": 0.13362, 
			 "cosmo_polarized_energy": -26.07, 
			 "cosmo_cavitation_energy": 41.73, 
			 "cosmo_dispersion_energy": -29.32, 
			 "cosmo_repulsion_energy": 2.22, 
			 "cosmo_total_nonelectrostatic_energy": 14.63, 
			 "SMD_solvation_energy": 8.28 
		},
		"coords": [
			{
				"x": -0.0374513164,
				"y": 4.0502059448,
				"z": -1.7352029013,
				"element": "N" 
			},
			{
				"x": -0.5663262507,
				"y": 3.0562635467,
				"z": -0.9064312327,
				"element": "N" 
			},
			{
				"x": 0.1668702059,
				"y": 2.1993832515,
				"z": -0.1512826379,
				"element": "C" 
			},
			{
				"x": -0.4187973629,
				"y": 1.2103516717,
				"z": 0.7016840817,
				"element": "C" 
			},
			{
				"x": 0.3700067989,
				"y": 0.3468058001,
				"z": 1.4650103446,
				"element": "C" 
			},
			{
				"x": 1.7516912679,
				"y": 0.4302598108,
				"z": 1.402189098,
				"element": "C" 
			},
			{
				"x": 2.3607950628,
				"y": 1.3941038821,
				"z": 0.580645756,
				"element": "C" 
			},
			{
				"x": 1.5875750476,
				"y": 2.2534133787,
				"z": -0.1722590664,
				"element": "C" 
			},
			{
				"x": 2.7637720907,
				"y": -0.690595587,
				"z": 2.3568162959,
				"element": "S" 
			},
			{
				"x": 4.0915652991,
				"y": -0.0893922518,
				"z": 2.4855160167,
				"element": "O" 
			},
			{
				"x": 1.9724758526,
				"y": -1.1257429215,
				"z": 3.5052476996,
				"element": "O" 
			},
			{
				"x": 3.0404122689,
				"y": -2.0615673017,
				"z": 1.3904092487,
				"element": "N" 
			},
			{
				"x": 2.0044493471,
				"y": -2.8817427153,
				"z": 0.8688726833,
				"element": "C" 
			},
			{
				"x": 1.9846644901,
				"y": -3.1793073792,
				"z": -0.5003311864,
				"element": "C" 
			},
			{
				"x": 1.0165155393,
				"y": -4.0315455853,
				"z": -1.0269994658,
				"element": "C" 
			},
			{
				"x": 0.0446397297,
				"y": -4.564507766,
				"z": -0.1816730829,
				"element": "C" 
			},
			{
				"x": -1.1891218759,
				"y": -5.6259937233,
				"z": -0.8413075337,
				"element": "Cl" 
			},
			{
				"x": 0.0449610386,
				"y": -4.2686266225,
				"z": 1.1815480377,
				"element": "C" 
			},
			{
				"x": 1.0328067372,
				"y": -3.4412343308,
				"z": 1.7112498541,
				"element": "C" 
			},
			{
				"x": -1.8598847663,
				"y": 1.0548251204,
				"z": 0.834541848,
				"element": "N" 
			},
			{
				"x": -2.2875065903,
				"y": 0.1897639585,
				"z": 1.5945039352,
				"element": "O" 
			},
			{
				"x": -2.6019904964,
				"y": 1.8022502996,
				"z": 0.1721951964,
				"element": "O" 
			},
			{
				"x": 0.5222939791,
				"y": 4.7070419327,
				"z": -1.1944549136,
				"element": "H" 
			},
			{
				"x": 0.5471391194,
				"y": 3.6376364257,
				"z": -2.4595749057,
				"element": "H" 
			},
			{
				"x": -1.5741228054,
				"y": 2.9904559318,
				"z": -0.8508096361,
				"element": "H" 
			},
			{
				"x": -0.1233638193,
				"y": -0.3667978799,
				"z": 2.1118651698,
				"element": "H" 
			},
			{
				"x": 3.4427310263,
				"y": 1.4736852957,
				"z": 0.5614397532,
				"element": "H" 
			},
			{
				"x": 2.0681803595,
				"y": 2.9999771201,
				"z": -0.7920241735,
				"element": "H" 
			},
			{
				"x": 3.8105062154,
				"y": -1.8774425646,
				"z": 0.7557507704,
				"element": "H" 
			},
			{
				"x": 2.7331211809,
				"y": -2.7471610588,
				"z": -1.1595809871,
				"element": "H" 
			},
			{
				"x": 1.0091850844,
				"y": -4.2684516779,
				"z": -2.0850131851,
				"element": "H" 
			},
			{
				"x": -0.7111445611,
				"y": -4.6973448357,
				"z": 1.8296924411,
				"element": "H" 
			},
			{
				"x": 1.0591521033,
				"y": -3.2293691697,
				"z": 2.7731666774,
				"element": "H" 
			}
		],
		 "valence_orbital": [ 
			{
				"type": "occ",
				"energy": -0.30147,
				"method": "rhf"
			},
			{
				"type": "occ",
				"energy": -0.29412,
				"method": "rhf"
			},
			{
				"type": "occ",
				"energy": -0.27462,
				"method": "rhf"
			},
			{
				"type": "occ",
				"energy": -0.24979,
				"method": "rhf"
			},
			{
				"type": "occ",
				"energy": -0.23537,
				"method": "rhf"
			},
			{
				"type": "unocc",
				"energy": -0.10175,
				"method": "rhf"
			},
			{
				"type": "unocc",
				"energy": -0.04856,
				"method": "rhf"
			},
			{
				"type": "unocc",
				"energy": -0.02656,
				"method": "rhf"
			},
			{
				"type": "unocc",
				"energy": -0.02117,
				"method": "rhf"
			},
			{
				"type": "unocc",
				"energy": -0.02029,
				"method": "rhf"
			}
		],
		"cosmo_sigma_profile": { 
			"-0.025": 0.0,
			"-0.024": 0.0,
			"-0.023": 0.0,
			"-0.022": 0.0,
			"-0.021": 0.0,
			"-0.02": 0.0,
			"-0.019": 0.0,
			"-0.018": 0.0,
			"-0.017": 0.0,
			"-0.016": 0.723513482367,
			"-0.015": 1.17843606259,
			"-0.014": 1.307557884,
			"-0.013": 2.24107193234,
			"-0.012": 5.71780983771,
			"-0.011": 6.70730226187,
			"-0.01": 4.85124840311,
			"-0.009": 4.59699063741,
			"-0.008": 7.70121655423,
			"-0.007": 12.9043984801,
			"-0.006": 13.7710754455,
			"-0.005": 13.8729494657,
			"-0.004": 14.285755003,
			"-0.003": 16.3233518598,
			"-0.002": 20.956570786,
			"-0.001": 24.8610373599,
			"0.0": 26.7063523344,
			"0.001": 22.8835459851,
			"0.002": 23.7728206589,
			"0.003": 22.6212367088,
			"0.004": 18.6836301657,
			"0.005": 11.7236604976,
			"0.006": 7.79421036381,
			"0.007": 10.4471666223,
			"0.008": 10.4573733203,
			"0.009": 8.57063183845,
			"0.01": 11.7604730908,
			"0.011": 6.81473686149,
			"0.012": 0.605663770575,
			"0.013": 0.653552467713,
			"0.014": 0.766124979906,
			"0.015": 0.473438847912,
			"0.016": 0.100515670823,
			"0.017": 0.0,
			"0.018": 0.0,
			"0.019": 0.0,
			"0.02": 0.0,
			"0.021": 0.0,
			"0.022": 0.0,
			"0.023": 0.0,
			"0.024": 0.0,
			"0.025": 0.0
		}
	}
}
