{
	 "smiles": "OC(=O)CS(=O)(=O)CC(O)=O", 
	 "Tm": 455.15, 
	 "num_atms": 17, 
	 "gaussian": { 
		 "optdone": 1, 
		 "sigma_profile": "yes", 
		 "theory": "DFT", 
		 "functional": "B3LYP", 
		 "basiset": "6-31G**", 
		 "properties": { 
			 "R2extent": 2494.5869, 
			 "electric_dipole_moment_norm": 4.88037972396, 
			 "electric_quadrupole_moment_norm": 19.6734085827, 
			 "total_energy": -1005.5213202, 
			 "HOMO_LUMO_gap": 0.23048, 
			 "cosmo_polarized_energy": -24.67, 
			 "cosmo_cavitation_energy": 23.07, 
			 "cosmo_dispersion_energy": -17.46, 
			 "cosmo_repulsion_energy": 1.38, 
			 "cosmo_total_nonelectrostatic_energy": 6.99, 
			 "SMD_solvation_energy": 5.61 
		},
		"coords": [
			{
				"x": -0.251274033,
				"y": 0.2274987253,
				"z": -2.4986079208,
				"element": "O" 
			},
			{
				"x": 0.1829098952,
				"y": 0.3654355703,
				"z": -1.2360145214,
				"element": "C" 
			},
			{
				"x": 1.3274480211,
				"y": 0.6121710681,
				"z": -0.9310728692,
				"element": "O" 
			},
			{
				"x": -0.9345125307,
				"y": 0.1407236137,
				"z": -0.2393318643,
				"element": "C" 
			},
			{
				"x": -0.8703077502,
				"y": 1.2808450781,
				"z": 1.1844294769,
				"element": "S" 
			},
			{
				"x": -1.9645396732,
				"y": 0.8737326582,
				"z": 2.0714272527,
				"element": "O" 
			},
			{
				"x": -0.8251762063,
				"y": 2.6610420107,
				"z": 0.6435203039,
				"element": "O" 
			},
			{
				"x": 0.7063017063,
				"y": 0.9728415145,
				"z": 2.0508223168,
				"element": "C" 
			},
			{
				"x": 1.9733153241,
				"y": 1.7711516793,
				"z": 1.6743292102,
				"element": "C" 
			},
			{
				"x": 1.8213223694,
				"y": 2.9709663015,
				"z": 1.118374841,
				"element": "O" 
			},
			{
				"x": 3.0451406181,
				"y": 1.3184451296,
				"z": 1.9873280389,
				"element": "O" 
			},
			{
				"x": 0.5176512236,
				"y": 0.3618958459,
				"z": -3.0805300877,
				"element": "H" 
			},
			{
				"x": -0.8883374062,
				"y": -0.8764765783,
				"z": 0.1604921344,
				"element": "H" 
			},
			{
				"x": -1.9212171027,
				"y": 0.3011894337,
				"z": -0.6785505515,
				"element": "H" 
			},
			{
				"x": 0.4451871183,
				"y": 1.2063520392,
				"z": 3.0892533296,
				"element": "H" 
			},
			{
				"x": 0.9322634503,
				"y": -0.0918517029,
				"z": 1.9880314552,
				"element": "H" 
			},
			{
				"x": 0.8801249759,
				"y": 3.1331376132,
				"z": 0.8869994554,
				"element": "H" 
			}
		],
		 "valence_orbital": [ 
			{
				"type": "occ",
				"energy": -0.33737,
				"method": "rhf"
			},
			{
				"type": "occ",
				"energy": -0.32997,
				"method": "rhf"
			},
			{
				"type": "occ",
				"energy": -0.32047,
				"method": "rhf"
			},
			{
				"type": "occ",
				"energy": -0.31407,
				"method": "rhf"
			},
			{
				"type": "occ",
				"energy": -0.27545,
				"method": "rhf"
			},
			{
				"type": "unocc",
				"energy": -0.04497,
				"method": "rhf"
			},
			{
				"type": "unocc",
				"energy": -0.00022,
				"method": "rhf"
			},
			{
				"type": "unocc",
				"energy": 0.02365,
				"method": "rhf"
			},
			{
				"type": "unocc",
				"energy": 0.0348,
				"method": "rhf"
			},
			{
				"type": "unocc",
				"energy": 0.04471,
				"method": "rhf"
			}
		],
		"cosmo_sigma_profile": { 
			"-0.025": 0.0,
			"-0.024": 0.0,
			"-0.023": 0.0,
			"-0.022": 0.0,
			"-0.021": 0.0,
			"-0.02": 0.252296391024,
			"-0.019": 1.16690762665,
			"-0.018": 1.04004091934,
			"-0.017": 0.557793893324,
			"-0.016": 1.52079440086,
			"-0.015": 1.38377192931,
			"-0.014": 0.959119300541,
			"-0.013": 2.48217328027,
			"-0.012": 7.06482779604,
			"-0.011": 7.73403756225,
			"-0.01": 6.53149911518,
			"-0.009": 6.65484874959,
			"-0.008": 7.30866450159,
			"-0.007": 7.37032324966,
			"-0.006": 5.11359999417,
			"-0.005": 5.28730488747,
			"-0.004": 5.92806697414,
			"-0.003": 6.74483042187,
			"-0.002": 5.48413832508,
			"-0.001": 6.32497950063,
			"0.0": 4.41517329391,
			"0.001": 4.10020160874,
			"0.002": 5.08884247125,
			"0.003": 6.52059824293,
			"0.004": 4.69195811295,
			"0.005": 5.14809086687,
			"0.006": 7.31199890355,
			"0.007": 10.0457894788,
			"0.008": 9.57041934065,
			"0.009": 11.8777867049,
			"0.01": 15.3218343856,
			"0.011": 8.36288542005,
			"0.012": 3.41861690832,
			"0.013": 0.284375429522,
			"0.014": 0.0,
			"0.015": 0.0,
			"0.016": 0.0,
			"0.017": 0.0,
			"0.018": 0.0,
			"0.019": 0.0,
			"0.02": 0.0,
			"0.021": 0.0,
			"0.022": 0.0,
			"0.023": 0.0,
			"0.024": 0.0,
			"0.025": 0.0
		}
	}
}
