{
	 "smiles": "CCCCCCCCCCCCCCCC(CCCC)C1=CC=CC=C1", 
	 "Tm": 303.35, 
	 "num_atms": 72, 
	 "gaussian": { 
		 "optdone": 1, 
		 "sigma_profile": "yes", 
		 "theory": "DFT", 
		 "functional": "B3LYP", 
		 "basiset": "6-31G**", 
		 "properties": { 
			 "R2extent": 19587.9387, 
			 "electric_dipole_moment_norm": 0.151994309104, 
			 "electric_quadrupole_moment_norm": 5.08592023728, 
			 "total_energy": -1018.55227157, 
			 "HOMO_LUMO_gap": 0.2369, 
			 "cosmo_polarized_energy": -3.89, 
			 "cosmo_cavitation_energy": 68.27, 
			 "cosmo_dispersion_energy": -44.15, 
			 "cosmo_repulsion_energy": 3.55, 
			 "cosmo_total_nonelectrostatic_energy": 27.67, 
			 "SMD_solvation_energy": 9.03 
		},
		"coords": [
			{
				"x": -4.9944315494,
				"y": -6.2033492756,
				"z": -0.5576749312,
				"element": "C" 
			},
			{
				"x": -5.5841283243,
				"y": -5.4182256901,
				"z": -1.7357273395,
				"element": "C" 
			},
			{
				"x": -4.7319245243,
				"y": -4.2252110958,
				"z": -2.2021395831,
				"element": "C" 
			},
			{
				"x": -4.6187635399,
				"y": -3.0855622526,
				"z": -1.1781692898,
				"element": "C" 
			},
			{
				"x": -3.7638555374,
				"y": -1.8908696335,
				"z": -1.6376846724,
				"element": "C" 
			},
			{
				"x": -4.3648187903,
				"y": -1.0806060436,
				"z": -2.7967189151,
				"element": "C" 
			},
			{
				"x": -3.5050850545,
				"y": 0.109500112,
				"z": -3.2573708093,
				"element": "C" 
			},
			{
				"x": -3.3664383104,
				"y": 1.2375497356,
				"z": -2.2234540119,
				"element": "C" 
			},
			{
				"x": -2.6608312201,
				"y": 2.498812459,
				"z": -2.753831674,
				"element": "C" 
			},
			{
				"x": -1.1958390141,
				"y": 2.3207716809,
				"z": -3.1910760632,
				"element": "C" 
			},
			{
				"x": -0.2357282275,
				"y": 1.9050379922,
				"z": -2.0670232928,
				"element": "C" 
			},
			{
				"x": 1.2261847657,
				"y": 1.8357539796,
				"z": -2.5311254889,
				"element": "C" 
			},
			{
				"x": 2.2660798209,
				"y": 1.5043042462,
				"z": -1.4454812342,
				"element": "C" 
			},
			{
				"x": 2.1323217961,
				"y": 0.097940925,
				"z": -0.8143611221,
				"element": "C" 
			},
			{
				"x": 1.2584760637,
				"y": 0.0097399773,
				"z": 0.4601190645,
				"element": "C" 
			},
			{
				"x": 1.9988062151,
				"y": 0.0903858427,
				"z": 1.8284329961,
				"element": "C" 
			},
			{
				"x": 2.8627603649,
				"y": -1.1615941888,
				"z": 2.0897903276,
				"element": "C" 
			},
			{
				"x": 3.40070024,
				"y": -1.2720677228,
				"z": 3.5229067811,
				"element": "C" 
			},
			{
				"x": 4.2195601448,
				"y": -2.5464832066,
				"z": 3.7660168563,
				"element": "C" 
			},
			{
				"x": 4.7461075984,
				"y": -2.6608219256,
				"z": 5.2002251224,
				"element": "C" 
			},
			{
				"x": 2.7346462786,
				"y": 1.4141964422,
				"z": 2.0145342118,
				"element": "C" 
			},
			{
				"x": 2.0455954576,
				"y": 2.5146604635,
				"z": 2.547424819,
				"element": "C" 
			},
			{
				"x": 2.6621087841,
				"y": 3.7571349502,
				"z": 2.6957525253,
				"element": "C" 
			},
			{
				"x": 3.9953236027,
				"y": 3.9261684519,
				"z": 2.3172457738,
				"element": "C" 
			},
			{
				"x": 4.6989616074,
				"y": 2.8412556972,
				"z": 1.7933811486,
				"element": "C" 
			},
			{
				"x": 4.0752432549,
				"y": 1.6005123859,
				"z": 1.6450913935,
				"element": "C" 
			},
			{
				"x": -3.9911391741,
				"y": -6.5760695417,
				"z": -0.7957927615,
				"element": "H" 
			},
			{
				"x": -4.9131010564,
				"y": -5.5897376338,
				"z": 0.345292952,
				"element": "H" 
			},
			{
				"x": -5.6186494761,
				"y": -7.0682217952,
				"z": -0.3094639053,
				"element": "H" 
			},
			{
				"x": -6.5889099592,
				"y": -5.0611210933,
				"z": -1.4704084376,
				"element": "H" 
			},
			{
				"x": -5.7215939569,
				"y": -6.1022946824,
				"z": -2.5830308373,
				"element": "H" 
			},
			{
				"x": -5.1616595305,
				"y": -3.8377194634,
				"z": -3.1341048943,
				"element": "H" 
			},
			{
				"x": -3.7227203967,
				"y": -4.5807628075,
				"z": -2.4576892841,
				"element": "H" 
			},
			{
				"x": -4.1907685459,
				"y": -3.4773143715,
				"z": -0.2471113117,
				"element": "H" 
			},
			{
				"x": -5.6276897592,
				"y": -2.7304052906,
				"z": -0.921294194,
				"element": "H" 
			},
			{
				"x": -3.6062960178,
				"y": -1.2287746363,
				"z": -0.7773529061,
				"element": "H" 
			},
			{
				"x": -2.7661365149,
				"y": -2.2512045323,
				"z": -1.9291059391,
				"element": "H" 
			},
			{
				"x": -4.5278481022,
				"y": -1.7412198954,
				"z": -3.6571699249,
				"element": "H" 
			},
			{
				"x": -5.3595975963,
				"y": -0.7153793577,
				"z": -2.5016998355,
				"element": "H" 
			},
			{
				"x": -3.9466220249,
				"y": 0.527722626,
				"z": -4.172764959,
				"element": "H" 
			},
			{
				"x": -2.5112382948,
				"y": -0.2601556683,
				"z": -3.5443115554,
				"element": "H" 
			},
			{
				"x": -4.370727228,
				"y": 1.5236334922,
				"z": -1.8807555824,
				"element": "H" 
			},
			{
				"x": -2.8415599801,
				"y": 0.8695678827,
				"z": -1.3334949953,
				"element": "H" 
			},
			{
				"x": -2.7030772055,
				"y": 3.2764026108,
				"z": -1.9786814726,
				"element": "H" 
			},
			{
				"x": -3.235296863,
				"y": 2.8896086388,
				"z": -3.605135047,
				"element": "H" 
			},
			{
				"x": -1.1352923009,
				"y": 1.5889463676,
				"z": -4.0079015842,
				"element": "H" 
			},
			{
				"x": -0.8469608066,
				"y": 3.2708735648,
				"z": -3.6184233821,
				"element": "H" 
			},
			{
				"x": -0.3208513596,
				"y": 2.6208986976,
				"z": -1.236195762,
				"element": "H" 
			},
			{
				"x": -0.541028074,
				"y": 0.9315196262,
				"z": -1.6644039171,
				"element": "H" 
			},
			{
				"x": 1.3081072314,
				"y": 1.0944180514,
				"z": -3.3398126066,
				"element": "H" 
			},
			{
				"x": 1.4944044328,
				"y": 2.8012967223,
				"z": -2.982457112,
				"element": "H" 
			},
			{
				"x": 2.2342299912,
				"y": 2.2682366408,
				"z": -0.6599482424,
				"element": "H" 
			},
			{
				"x": 3.2590163785,
				"y": 1.5920463164,
				"z": -1.9042336186,
				"element": "H" 
			},
			{
				"x": 1.7254760674,
				"y": -0.5843869929,
				"z": -1.5723570914,
				"element": "H" 
			},
			{
				"x": 3.1325120852,
				"y": -0.2906069419,
				"z": -0.5910925955,
				"element": "H" 
			},
			{
				"x": 0.5005479024,
				"y": 0.8001923455,
				"z": 0.4372914887,
				"element": "H" 
			},
			{
				"x": 0.7054936972,
				"y": -0.9386942984,
				"z": 0.457330873,
				"element": "H" 
			},
			{
				"x": 1.2015309827,
				"y": 0.0749819357,
				"z": 2.5856465525,
				"element": "H" 
			},
			{
				"x": 2.2466278137,
				"y": -2.0447680012,
				"z": 1.8723770677,
				"element": "H" 
			},
			{
				"x": 3.7014918779,
				"y": -1.2091666202,
				"z": 1.3831831792,
				"element": "H" 
			},
			{
				"x": 4.0172868411,
				"y": -0.3947668394,
				"z": 3.7558600372,
				"element": "H" 
			},
			{
				"x": 2.5568189777,
				"y": -1.2445229366,
				"z": 4.2274663397,
				"element": "H" 
			},
			{
				"x": 5.064032565,
				"y": -2.5734757916,
				"z": 3.0635153572,
				"element": "H" 
			},
			{
				"x": 3.6034318608,
				"y": -3.4253604221,
				"z": 3.5309822251,
				"element": "H" 
			},
			{
				"x": 5.3936820032,
				"y": -1.8134754483,
				"z": 5.4529222796,
				"element": "H" 
			},
			{
				"x": 3.9233655236,
				"y": -2.6730366691,
				"z": 5.9243399002,
				"element": "H" 
			},
			{
				"x": 5.3274288899,
				"y": -3.577846941,
				"z": 5.342560728,
				"element": "H" 
			},
			{
				"x": 1.0081364047,
				"y": 2.3920208198,
				"z": 2.8511899051,
				"element": "H" 
			},
			{
				"x": 2.1034671292,
				"y": 4.590650222,
				"z": 3.1129050286,
				"element": "H" 
			},
			{
				"x": 4.4813859678,
				"y": 4.8904658435,
				"z": 2.4347109567,
				"element": "H" 
			},
			{
				"x": 5.7388352062,
				"y": 2.957645689,
				"z": 1.5000784428,
				"element": "H" 
			},
			{
				"x": 4.6454224912,
				"y": 0.7708262729,
				"z": 1.2384578488,
				"element": "H" 
			}
		],
		 "valence_orbital": [ 
			{
				"type": "occ",
				"energy": -0.29582,
				"method": "rhf"
			},
			{
				"type": "occ",
				"energy": -0.29399,
				"method": "rhf"
			},
			{
				"type": "occ",
				"energy": -0.28973,
				"method": "rhf"
			},
			{
				"type": "occ",
				"energy": -0.24457,
				"method": "rhf"
			},
			{
				"type": "occ",
				"energy": -0.23441,
				"method": "rhf"
			},
			{
				"type": "unocc",
				"energy": 0.00249,
				"method": "rhf"
			},
			{
				"type": "unocc",
				"energy": 0.00406,
				"method": "rhf"
			},
			{
				"type": "unocc",
				"energy": 0.07777,
				"method": "rhf"
			},
			{
				"type": "unocc",
				"energy": 0.08674,
				"method": "rhf"
			},
			{
				"type": "unocc",
				"energy": 0.09193,
				"method": "rhf"
			}
		],
		"cosmo_sigma_profile": { 
			"-0.025": 0.0,
			"-0.024": 0.0,
			"-0.023": 0.0,
			"-0.022": 0.0,
			"-0.021": 0.0,
			"-0.02": 0.0,
			"-0.019": 0.0,
			"-0.018": 0.0,
			"-0.017": 0.0,
			"-0.016": 0.0,
			"-0.015": 0.0,
			"-0.014": 0.0,
			"-0.013": 0.0,
			"-0.012": 0.0,
			"-0.011": 0.0,
			"-0.01": 0.0,
			"-0.009": 0.0,
			"-0.008": 0.0,
			"-0.007": 0.0,
			"-0.006": 0.639986620145,
			"-0.005": 8.02463743062,
			"-0.004": 12.4300890291,
			"-0.003": 17.671035499,
			"-0.002": 58.4690490635,
			"-0.001": 110.192099653,
			"0.0": 122.822844065,
			"0.001": 106.084133942,
			"0.002": 50.4642622466,
			"0.003": 10.6071241851,
			"0.004": 8.9980459789,
			"0.005": 8.93258664767,
			"0.006": 6.44294950807,
			"0.007": 2.36317787356,
			"0.008": 0.00742398251142,
			"0.009": 0.0,
			"0.01": 0.0,
			"0.011": 0.0,
			"0.012": 0.0,
			"0.013": 0.0,
			"0.014": 0.0,
			"0.015": 0.0,
			"0.016": 0.0,
			"0.017": 0.0,
			"0.018": 0.0,
			"0.019": 0.0,
			"0.02": 0.0,
			"0.021": 0.0,
			"0.022": 0.0,
			"0.023": 0.0,
			"0.024": 0.0,
			"0.025": 0.0
		}
	}
}
