{
	 "smiles": "OC(=O)C1=C(OCC=C)C=CC(=C1)C(F)(F)F", 
	 "Tm": 332.15, 
	 "num_atms": 26, 
	 "gaussian": { 
		 "optdone": 1, 
		 "sigma_profile": "yes", 
		 "theory": "DFT", 
		 "functional": "B3LYP", 
		 "basiset": "6-31G**", 
		 "properties": { 
			 "R2extent": 4931.1438, 
			 "electric_dipole_moment_norm": 6.7333033869, 
			 "electric_quadrupole_moment_norm": 12.339129139, 
			 "total_energy": -949.771093257, 
			 "HOMO_LUMO_gap": 0.20837, 
			 "cosmo_polarized_energy": -13.71, 
			 "cosmo_cavitation_energy": 32.84, 
			 "cosmo_dispersion_energy": -22.0, 
			 "cosmo_repulsion_energy": 1.65, 
			 "cosmo_total_nonelectrostatic_energy": 12.49, 
			 "SMD_solvation_energy": 8.67 
		},
		"coords": [
			{
				"x": -1.524610771,
				"y": -2.5538363421,
				"z": 1.791308655,
				"element": "O" 
			},
			{
				"x": -1.5997794539,
				"y": -1.2442797182,
				"z": 2.0896266343,
				"element": "C" 
			},
			{
				"x": -2.162339493,
				"y": -0.8609313831,
				"z": 3.0908613436,
				"element": "O" 
			},
			{
				"x": -0.9532530854,
				"y": -0.2758201561,
				"z": 1.1251391941,
				"element": "C" 
			},
			{
				"x": -0.1809389066,
				"y": -0.6364217445,
				"z": 0.0056202463,
				"element": "C" 
			},
			{
				"x": -0.0336809605,
				"y": -1.9774339103,
				"z": -0.308932552,
				"element": "O" 
			},
			{
				"x": 1.3222044026,
				"y": -2.5051347754,
				"z": -0.3936428901,
				"element": "C" 
			},
			{
				"x": 1.9755665267,
				"y": -2.5864747787,
				"z": 0.9533930514,
				"element": "C" 
			},
			{
				"x": 3.155690586,
				"y": -2.0354672611,
				"z": 1.2351669634,
				"element": "C" 
			},
			{
				"x": 0.3751028748,
				"y": 0.3437695704,
				"z": -0.8222434208,
				"element": "C" 
			},
			{
				"x": 0.1774410141,
				"y": 1.6891725928,
				"z": -0.5371866806,
				"element": "C" 
			},
			{
				"x": -0.5832985996,
				"y": 2.0632099632,
				"z": 0.5764517699,
				"element": "C" 
			},
			{
				"x": -1.1425037752,
				"y": 1.0861929726,
				"z": 1.3924129893,
				"element": "C" 
			},
			{
				"x": -0.747781105,
				"y": 3.5219734072,
				"z": 0.9093665579,
				"element": "C" 
			},
			{
				"x": -0.8278468457,
				"y": 4.2786537427,
				"z": -0.2094281567,
				"element": "F" 
			},
			{
				"x": 0.3042007469,
				"y": 3.9896749957,
				"z": 1.6206884094,
				"element": "F" 
			},
			{
				"x": -1.8562143432,
				"y": 3.7523281127,
				"z": 1.6405951418,
				"element": "F" 
			},
			{
				"x": -1.0566185031,
				"y": -2.6560623354,
				"z": 0.9374402127,
				"element": "H" 
			},
			{
				"x": 1.179468051,
				"y": -3.4961626108,
				"z": -0.8347069517,
				"element": "H" 
			},
			{
				"x": 1.914198909,
				"y": -1.9013097056,
				"z": -1.0885185401,
				"element": "H" 
			},
			{
				"x": 1.4279865842,
				"y": -3.1397650439,
				"z": 1.7148369814,
				"element": "H" 
			},
			{
				"x": 3.6103483122,
				"y": -2.1341982661,
				"z": 2.2158934343,
				"element": "H" 
			},
			{
				"x": 3.7157442878,
				"y": -1.4715504783,
				"z": 0.4928018313,
				"element": "H" 
			},
			{
				"x": 0.9390028922,
				"y": 0.0485987397,
				"z": -1.7004878222,
				"element": "H" 
			},
			{
				"x": 0.5962190181,
				"y": 2.4494772946,
				"z": -1.1877888526,
				"element": "H" 
			},
			{
				"x": -1.7386083634,
				"y": 1.3488971181,
				"z": 2.2586324508,
				"element": "H" 
			}
		],
		 "valence_orbital": [ 
			{
				"type": "occ",
				"energy": -0.31004,
				"method": "rhf"
			},
			{
				"type": "occ",
				"energy": -0.29442,
				"method": "rhf"
			},
			{
				"type": "occ",
				"energy": -0.28176,
				"method": "rhf"
			},
			{
				"type": "occ",
				"energy": -0.27219,
				"method": "rhf"
			},
			{
				"type": "occ",
				"energy": -0.26892,
				"method": "rhf"
			},
			{
				"type": "unocc",
				"energy": -0.06055,
				"method": "rhf"
			},
			{
				"type": "unocc",
				"energy": -0.03793,
				"method": "rhf"
			},
			{
				"type": "unocc",
				"energy": -0.02069,
				"method": "rhf"
			},
			{
				"type": "unocc",
				"energy": 0.03995,
				"method": "rhf"
			},
			{
				"type": "unocc",
				"energy": 0.07087,
				"method": "rhf"
			}
		],
		"cosmo_sigma_profile": { 
			"-0.025": 0.0,
			"-0.024": 0.0,
			"-0.023": 0.0,
			"-0.022": 0.0,
			"-0.021": 0.0,
			"-0.02": 0.0,
			"-0.019": 0.0,
			"-0.018": 0.0,
			"-0.017": 0.0,
			"-0.016": 0.0,
			"-0.015": 0.0,
			"-0.014": 0.0,
			"-0.013": 0.163950486299,
			"-0.012": 0.0839901457014,
			"-0.011": 0.497033302894,
			"-0.01": 2.03905079507,
			"-0.009": 5.70787139193,
			"-0.008": 10.0344094241,
			"-0.007": 13.4514187571,
			"-0.006": 14.8655659561,
			"-0.005": 16.0550351,
			"-0.004": 13.1713016402,
			"-0.003": 13.8819784242,
			"-0.002": 17.1171636413,
			"-0.001": 22.4846093959,
			"0.0": 23.4731117654,
			"0.001": 15.9435842608,
			"0.002": 27.9535347355,
			"0.003": 26.1535948622,
			"0.004": 5.98110218346,
			"0.005": 3.98693647293,
			"0.006": 4.5002404947,
			"0.007": 4.11870880978,
			"0.008": 3.39475689411,
			"0.009": 5.29102059659,
			"0.01": 5.50260441531,
			"0.011": 4.66995297163,
			"0.012": 2.31445118956,
			"0.013": 0.558027922207,
			"0.014": 0.0290972041628,
			"0.015": 0.0066959838372,
			"0.016": 0.0,
			"0.017": 0.0,
			"0.018": 0.0,
			"0.019": 0.0,
			"0.02": 0.0,
			"0.021": 0.0,
			"0.022": 0.0,
			"0.023": 0.0,
			"0.024": 0.0,
			"0.025": 0.0
		}
	}
}
