{
	 "smiles": "CC(C)NC(=O)CN1CCNCC1", 
	 "Tm": 358.15, 
	 "num_atms": 32, 
	 "gaussian": { 
		 "optdone": 1, 
		 "sigma_profile": "yes", 
		 "theory": "DFT", 
		 "functional": "B3LYP", 
		 "basiset": "6-31G**", 
		 "properties": { 
			 "R2extent": 3838.3691, 
			 "electric_dipole_moment_norm": 3.76910938286, 
			 "electric_quadrupole_moment_norm": 13.6567813093, 
			 "total_energy": -593.882330097, 
			 "HOMO_LUMO_gap": 0.21871, 
			 "cosmo_polarized_energy": -13.34, 
			 "cosmo_cavitation_energy": 31.77, 
			 "cosmo_dispersion_energy": -23.08, 
			 "cosmo_repulsion_energy": 1.87, 
			 "cosmo_total_nonelectrostatic_energy": 10.56, 
			 "SMD_solvation_energy": 0.47 
		},
		"coords": [
			{
				"x": 3.8201676627,
				"y": -0.606711068,
				"z": 2.461657056,
				"element": "C" 
			},
			{
				"x": 2.9860180165,
				"y": 0.6464557221,
				"z": 2.7625826458,
				"element": "C" 
			},
			{
				"x": 3.187289429,
				"y": 1.7457302727,
				"z": 1.7099592223,
				"element": "C" 
			},
			{
				"x": 1.558147331,
				"y": 0.3185646893,
				"z": 2.934080764,
				"element": "N" 
			},
			{
				"x": 0.7566829789,
				"y": -0.2202049111,
				"z": 1.9713745162,
				"element": "C" 
			},
			{
				"x": 1.1412202211,
				"y": -0.4609536856,
				"z": 0.8292605083,
				"element": "O" 
			},
			{
				"x": -0.6837581478,
				"y": -0.5388853756,
				"z": 2.4508556013,
				"element": "C" 
			},
			{
				"x": -1.6612439464,
				"y": -0.7951050501,
				"z": 1.4293562973,
				"element": "N" 
			},
			{
				"x": -1.9989298389,
				"y": 0.3567471009,
				"z": 0.5926830969,
				"element": "C" 
			},
			{
				"x": -2.982053028,
				"y": -0.0948520317,
				"z": -0.491525626,
				"element": "C" 
			},
			{
				"x": -2.4269473311,
				"y": -1.1160781838,
				"z": -1.3957387419,
				"element": "N" 
			},
			{
				"x": -1.3320872549,
				"y": -1.9028865144,
				"z": -0.7931081628,
				"element": "C" 
			},
			{
				"x": -1.5664236303,
				"y": -2.0786747899,
				"z": 0.7085171873,
				"element": "C" 
			},
			{
				"x": 3.6910400744,
				"y": -1.3578444061,
				"z": 3.2473132529,
				"element": "H" 
			},
			{
				"x": 3.5154383752,
				"y": -1.0433292516,
				"z": 1.5083907124,
				"element": "H" 
			},
			{
				"x": 4.8827635217,
				"y": -0.3482924532,
				"z": 2.4065709593,
				"element": "H" 
			},
			{
				"x": 3.3004960233,
				"y": 1.0423509936,
				"z": 3.7359554027,
				"element": "H" 
			},
			{
				"x": 4.2453838702,
				"y": 2.0213366838,
				"z": 1.6504580892,
				"element": "H" 
			},
			{
				"x": 2.8593594762,
				"y": 1.3939534232,
				"z": 0.7298668438,
				"element": "H" 
			},
			{
				"x": 2.613898159,
				"y": 2.641263608,
				"z": 1.9691864633,
				"element": "H" 
			},
			{
				"x": 1.1484593355,
				"y": 0.4897460616,
				"z": 3.8403928324,
				"element": "H" 
			},
			{
				"x": -0.6179699196,
				"y": -1.411356498,
				"z": 3.11590223,
				"element": "H" 
			},
			{
				"x": -1.033922443,
				"y": 0.2947652672,
				"z": 3.0786229841,
				"element": "H" 
			},
			{
				"x": -1.1121612061,
				"y": 0.8129098667,
				"z": 0.1192282363,
				"element": "H" 
			},
			{
				"x": -2.4650259133,
				"y": 1.1273217583,
				"z": 1.2246243956,
				"element": "H" 
			},
			{
				"x": -3.3088269094,
				"y": 0.7665354063,
				"z": -1.0831482051,
				"element": "H" 
			},
			{
				"x": -3.8767121123,
				"y": -0.4939261555,
				"z": 0.006753064,
				"element": "H" 
			},
			{
				"x": -2.0759057742,
				"y": -0.6637797473,
				"z": -2.2334892466,
				"element": "H" 
			},
			{
				"x": -0.3473585204,
				"y": -1.4350492247,
				"z": -0.9209741345,
				"element": "H" 
			},
			{
				"x": -1.2992887008,
				"y": -2.8928450302,
				"z": -1.2677871788,
				"element": "H" 
			},
			{
				"x": -2.4906969655,
				"y": -2.6566323121,
				"z": 0.8613896918,
				"element": "H" 
			},
			{
				"x": -0.7430528326,
				"y": -2.6693741648,
				"z": 1.1206892425,
				"element": "H" 
			}
		],
		 "valence_orbital": [ 
			{
				"type": "occ",
				"energy": -0.32006,
				"method": "rhf"
			},
			{
				"type": "occ",
				"energy": -0.25181,
				"method": "rhf"
			},
			{
				"type": "occ",
				"energy": -0.25077,
				"method": "rhf"
			},
			{
				"type": "occ",
				"energy": -0.19894,
				"method": "rhf"
			},
			{
				"type": "occ",
				"energy": -0.19074,
				"method": "rhf"
			},
			{
				"type": "unocc",
				"energy": 0.02797,
				"method": "rhf"
			},
			{
				"type": "unocc",
				"energy": 0.06405,
				"method": "rhf"
			},
			{
				"type": "unocc",
				"energy": 0.08649,
				"method": "rhf"
			},
			{
				"type": "unocc",
				"energy": 0.11041,
				"method": "rhf"
			},
			{
				"type": "unocc",
				"energy": 0.11792,
				"method": "rhf"
			}
		],
		"cosmo_sigma_profile": { 
			"-0.025": 0.0,
			"-0.024": 0.0,
			"-0.023": 0.0,
			"-0.022": 0.0,
			"-0.021": 0.0,
			"-0.02": 0.0,
			"-0.019": 0.0,
			"-0.018": 0.0,
			"-0.017": 0.0,
			"-0.016": 0.0,
			"-0.015": 0.0,
			"-0.014": 0.499926266888,
			"-0.013": 1.26790262424,
			"-0.012": 1.48297998048,
			"-0.011": 1.63482947288,
			"-0.01": 2.13589449272,
			"-0.009": 2.55456499829,
			"-0.008": 2.76660217407,
			"-0.007": 3.2648277601,
			"-0.006": 4.21754240924,
			"-0.005": 10.6695179483,
			"-0.004": 11.6299918786,
			"-0.003": 23.9855386917,
			"-0.002": 30.0175584135,
			"-0.001": 31.3517369842,
			"0.0": 29.2724009185,
			"0.001": 25.1442423792,
			"0.002": 14.3658134981,
			"0.003": 7.99659643399,
			"0.004": 4.43742667358,
			"0.005": 4.85426072337,
			"0.006": 4.46535164995,
			"0.007": 3.9214419063,
			"0.008": 3.60796803674,
			"0.009": 3.93802927773,
			"0.01": 2.44324421132,
			"0.011": 2.71475496482,
			"0.012": 2.85892897975,
			"0.013": 2.94760678805,
			"0.014": 1.63863155154,
			"0.015": 0.783553822879,
			"0.016": 0.353251212159,
			"0.017": 0.52396573291,
			"0.018": 0.59482973224,
			"0.019": 0.475154069391,
			"0.02": 0.0560209713123,
			"0.021": 0.0,
			"0.022": 0.0,
			"0.023": 0.0,
			"0.024": 0.0,
			"0.025": 0.0
		}
	}
}
