{
	 "smiles": "CC1=CC(C(=O)CCl)=C(C)N1C1=CC(=C(Cl)C=C1)C(F)(F)F", 
	 "Tm": 413.15, 
	 "num_atms": 34, 
	 "gaussian": { 
		 "optdone": 1, 
		 "sigma_profile": "yes", 
		 "theory": "DFT", 
		 "functional": "B3LYP", 
		 "basiset": "6-31G**", 
		 "properties": { 
			 "R2extent": 11772.6873, 
			 "electric_dipole_moment_norm": 2.64259839363, 
			 "electric_quadrupole_moment_norm": 21.785768846, 
			 "total_energy": -1928.71753459, 
			 "HOMO_LUMO_gap": 0.1591, 
			 "cosmo_polarized_energy": -12.89, 
			 "cosmo_cavitation_energy": 43.1, 
			 "cosmo_dispersion_energy": -29.05, 
			 "cosmo_repulsion_energy": 2.19, 
			 "cosmo_total_nonelectrostatic_energy": 16.24, 
			 "SMD_solvation_energy": 8.52 
		},
		"coords": [
			{
				"x": 1.1688953204,
				"y": -2.3325745125,
				"z": 2.5186309672,
				"element": "C" 
			},
			{
				"x": 0.6762366143,
				"y": -2.102576491,
				"z": 1.126364845,
				"element": "C" 
			},
			{
				"x": 0.3815507576,
				"y": -2.9910059468,
				"z": 0.1296379763,
				"element": "C" 
			},
			{
				"x": -0.095686429,
				"y": -2.2549339731,
				"z": -1.0086048337,
				"element": "C" 
			},
			{
				"x": -0.4914379017,
				"y": -2.7950961658,
				"z": -2.3084808619,
				"element": "C" 
			},
			{
				"x": -0.8554543323,
				"y": -2.1139718978,
				"z": -3.2624887517,
				"element": "O" 
			},
			{
				"x": -0.4040187529,
				"y": -4.3139923993,
				"z": -2.5138261985,
				"element": "C" 
			},
			{
				"x": -1.6792557206,
				"y": -5.2062086515,
				"z": -1.5735792195,
				"element": "Cl" 
			},
			{
				"x": -0.0814803621,
				"y": -0.9017462707,
				"z": -0.6625092253,
				"element": "C" 
			},
			{
				"x": -0.4436870966,
				"y": 0.3112312259,
				"z": -1.4568537557,
				"element": "C" 
			},
			{
				"x": 0.3879035731,
				"y": -0.82052234,
				"z": 0.6318852834,
				"element": "N" 
			},
			{
				"x": 0.5536455827,
				"y": 0.3916838651,
				"z": 1.3683859356,
				"element": "C" 
			},
			{
				"x": 1.8338880048,
				"y": 0.8988044116,
				"z": 1.5959998261,
				"element": "C" 
			},
			{
				"x": 2.0206260651,
				"y": 2.0769819162,
				"z": 2.3230537528,
				"element": "C" 
			},
			{
				"x": 0.8933117897,
				"y": 2.7535009503,
				"z": 2.8160416834,
				"element": "C" 
			},
			{
				"x": 1.0385157914,
				"y": 4.2359330649,
				"z": 3.7323199407,
				"element": "Cl" 
			},
			{
				"x": -0.3885281986,
				"y": 2.2525608436,
				"z": 2.5857212803,
				"element": "C" 
			},
			{
				"x": -0.5592642926,
				"y": 1.0715864939,
				"z": 1.8680513801,
				"element": "C" 
			},
			{
				"x": 3.4291626671,
				"y": 2.5855767982,
				"z": 2.5465670775,
				"element": "C" 
			},
			{
				"x": 3.6076843938,
				"y": 3.8108606514,
				"z": 2.0166758604,
				"element": "F" 
			},
			{
				"x": 4.3393700232,
				"y": 1.7667386391,
				"z": 1.974708476,
				"element": "F" 
			},
			{
				"x": 3.7294305589,
				"y": 2.6591752012,
				"z": 3.8579858619,
				"element": "F" 
			},
			{
				"x": 0.4863632667,
				"y": -1.9210003906,
				"z": 3.271727565,
				"element": "H" 
			},
			{
				"x": 1.2520347662,
				"y": -3.4071797484,
				"z": 2.6955700386,
				"element": "H" 
			},
			{
				"x": 2.1549620996,
				"y": -1.8884206092,
				"z": 2.6988498558,
				"element": "H" 
			},
			{
				"x": 0.4680822227,
				"y": -4.0646018043,
				"z": 0.2136714532,
				"element": "H" 
			},
			{
				"x": -0.5792940995,
				"y": -4.5237402917,
				"z": -3.5672707563,
				"element": "H" 
			},
			{
				"x": 0.5595641171,
				"y": -4.7167151484,
				"z": -2.1958607616,
				"element": "H" 
			},
			{
				"x": -0.6518731894,
				"y": 0.0070633521,
				"z": -2.4813402295,
				"element": "H" 
			},
			{
				"x": -1.3358913858,
				"y": 0.8093578654,
				"z": -1.0584063041,
				"element": "H" 
			},
			{
				"x": 0.3669708921,
				"y": 1.0490228204,
				"z": -1.4537533885,
				"element": "H" 
			},
			{
				"x": 2.6952375682,
				"y": 0.3764343465,
				"z": 1.1986130765,
				"element": "H" 
			},
			{
				"x": -1.2459266299,
				"y": 2.7877236548,
				"z": 2.9774102919,
				"element": "H" 
			},
			{
				"x": -1.5539376835,
				"y": 0.6720505405,
				"z": 1.7000018584,
				"element": "H" 
			}
		],
		 "valence_orbital": [ 
			{
				"type": "occ",
				"energy": -0.29903,
				"method": "rhf"
			},
			{
				"type": "occ",
				"energy": -0.28042,
				"method": "rhf"
			},
			{
				"type": "occ",
				"energy": -0.25559,
				"method": "rhf"
			},
			{
				"type": "occ",
				"energy": -0.24731,
				"method": "rhf"
			},
			{
				"type": "occ",
				"energy": -0.21909,
				"method": "rhf"
			},
			{
				"type": "unocc",
				"energy": -0.05999,
				"method": "rhf"
			},
			{
				"type": "unocc",
				"energy": -0.05337,
				"method": "rhf"
			},
			{
				"type": "unocc",
				"energy": -0.04499,
				"method": "rhf"
			},
			{
				"type": "unocc",
				"energy": 0.00655,
				"method": "rhf"
			},
			{
				"type": "unocc",
				"energy": 0.01953,
				"method": "rhf"
			}
		],
		"cosmo_sigma_profile": { 
			"-0.025": 0.0,
			"-0.024": 0.0,
			"-0.023": 0.0,
			"-0.022": 0.0,
			"-0.021": 0.0,
			"-0.02": 0.0,
			"-0.019": 0.0,
			"-0.018": 0.0,
			"-0.017": 0.0,
			"-0.016": 0.0,
			"-0.015": 0.0,
			"-0.014": 0.0,
			"-0.013": 0.0,
			"-0.012": 0.0,
			"-0.011": 0.0,
			"-0.01": 0.0,
			"-0.009": 1.2370255101,
			"-0.008": 7.59622329733,
			"-0.007": 11.0203336802,
			"-0.006": 12.1947200163,
			"-0.005": 19.2580279112,
			"-0.004": 23.4576163108,
			"-0.003": 24.8626433304,
			"-0.002": 23.207606432,
			"-0.001": 35.9096434835,
			"0.0": 32.2331163197,
			"0.001": 25.2717811164,
			"0.002": 37.53264906,
			"0.003": 36.7493217276,
			"0.004": 17.45259772,
			"0.005": 13.9710053336,
			"0.006": 12.5892295503,
			"0.007": 2.31094637449,
			"0.008": 1.55674862868,
			"0.009": 1.55559443344,
			"0.01": 1.94766373645,
			"0.011": 2.65768766336,
			"0.012": 2.54360843112,
			"0.013": 1.53208239748,
			"0.014": 0.0205836333961,
			"0.015": 0.0,
			"0.016": 0.0,
			"0.017": 0.0,
			"0.018": 0.0,
			"0.019": 0.0,
			"0.02": 0.0,
			"0.021": 0.0,
			"0.022": 0.0,
			"0.023": 0.0,
			"0.024": 0.0,
			"0.025": 0.0
		}
	}
}
