{
	 "smiles": "NC1=NC=NC2=C1N=CN2CCC#N", 
	 "Tm": 528.15, 
	 "num_atms": 22, 
	 "gaussian": { 
		 "optdone": 1, 
		 "sigma_profile": "yes", 
		 "theory": "DFT", 
		 "functional": "B3LYP", 
		 "basiset": "6-31G**", 
		 "properties": { 
			 "R2extent": 2755.5069, 
			 "electric_dipole_moment_norm": 4.62372816999, 
			 "electric_quadrupole_moment_norm": 24.3192129396, 
			 "total_energy": -638.181597322, 
			 "HOMO_LUMO_gap": 0.19816, 
			 "cosmo_polarized_energy": -23.49, 
			 "cosmo_cavitation_energy": 27.86, 
			 "cosmo_dispersion_energy": -19.47, 
			 "cosmo_repulsion_energy": 1.54, 
			 "cosmo_total_nonelectrostatic_energy": 9.94, 
			 "SMD_solvation_energy": 1.93 
		},
		"coords": [
			{
				"x": -2.3796019877,
				"y": -0.7204470234,
				"z": -3.2461913675,
				"element": "N" 
			},
			{
				"x": -2.1232938099,
				"y": -0.297641761,
				"z": -1.9837841002,
				"element": "C" 
			},
			{
				"x": -3.0694976368,
				"y": 0.3980679365,
				"z": -1.327826169,
				"element": "N" 
			},
			{
				"x": -2.8209673878,
				"y": 0.7853520407,
				"z": -0.0660852819,
				"element": "C" 
			},
			{
				"x": -1.7232448205,
				"y": 0.581600224,
				"z": 0.6700238136,
				"element": "N" 
			},
			{
				"x": -0.801133878,
				"y": -0.1010853802,
				"z": -0.0164904296,
				"element": "C" 
			},
			{
				"x": -0.9079622451,
				"y": -0.581904973,
				"z": -1.3241011711,
				"element": "C" 
			},
			{
				"x": 0.2379716867,
				"y": -1.2584155402,
				"z": -1.7060990511,
				"element": "N" 
			},
			{
				"x": 1.0137277072,
				"y": -1.1855365639,
				"z": -0.6522897195,
				"element": "C" 
			},
			{
				"x": 0.4531098035,
				"y": -0.4972091126,
				"z": 0.4116708521,
				"element": "N" 
			},
			{
				"x": 1.0223883583,
				"y": -0.2218607733,
				"z": 1.7187095865,
				"element": "C" 
			},
			{
				"x": 2.2152621622,
				"y": 0.7579860554,
				"z": 1.6783649281,
				"element": "C" 
			},
			{
				"x": 1.8731370843,
				"y": 2.081490924,
				"z": 1.1515076708,
				"element": "C" 
			},
			{
				"x": 1.6116911875,
				"y": 3.1318654568,
				"z": 0.7342045516,
				"element": "N" 
			},
			{
				"x": -3.201812495,
				"y": -0.3614684601,
				"z": -3.7050829634,
				"element": "H" 
			},
			{
				"x": -1.6282635536,
				"y": -1.099174494,
				"z": -3.7997542887,
				"element": "H" 
			},
			{
				"x": -3.6225155871,
				"y": 1.3400144934,
				"z": 0.4172203163,
				"element": "H" 
			},
			{
				"x": 2.004330361,
				"y": -1.6169734992,
				"z": -0.5812214955,
				"element": "H" 
			},
			{
				"x": 0.2130834369,
				"y": 0.1894904328,
				"z": 2.3260334956,
				"element": "H" 
			},
			{
				"x": 1.3587901125,
				"y": -1.1564145895,
				"z": 2.1795700762,
				"element": "H" 
			},
			{
				"x": 2.6068115832,
				"y": 0.8757867919,
				"z": 2.6955408091,
				"element": "H" 
			},
			{
				"x": 3.0282899181,
				"y": 0.343277815,
				"z": 1.0715799374,
				"element": "H" 
			}
		],
		 "valence_orbital": [ 
			{
				"type": "occ",
				"energy": -0.28879,
				"method": "rhf"
			},
			{
				"type": "occ",
				"energy": -0.28308,
				"method": "rhf"
			},
			{
				"type": "occ",
				"energy": -0.26339,
				"method": "rhf"
			},
			{
				"type": "occ",
				"energy": -0.24997,
				"method": "rhf"
			},
			{
				"type": "occ",
				"energy": -0.22054,
				"method": "rhf"
			},
			{
				"type": "unocc",
				"energy": -0.02238,
				"method": "rhf"
			},
			{
				"type": "unocc",
				"energy": 0.00622,
				"method": "rhf"
			},
			{
				"type": "unocc",
				"energy": 0.02015,
				"method": "rhf"
			},
			{
				"type": "unocc",
				"energy": 0.0284,
				"method": "rhf"
			},
			{
				"type": "unocc",
				"energy": 0.0331,
				"method": "rhf"
			}
		],
		"cosmo_sigma_profile": { 
			"-0.025": 0.0,
			"-0.024": 0.0,
			"-0.023": 0.0,
			"-0.022": 0.0,
			"-0.021": 0.0,
			"-0.02": 0.0,
			"-0.019": 0.0,
			"-0.018": 0.0,
			"-0.017": 0.0,
			"-0.016": 0.0,
			"-0.015": 0.0250504346766,
			"-0.014": 1.54959771821,
			"-0.013": 2.10914075879,
			"-0.012": 1.96923964362,
			"-0.011": 3.37089932837,
			"-0.01": 6.47528150942,
			"-0.009": 12.3356130881,
			"-0.008": 14.3358672825,
			"-0.007": 10.6311788407,
			"-0.006": 10.9785302374,
			"-0.005": 10.078463225,
			"-0.004": 6.3435139582,
			"-0.003": 7.42484873718,
			"-0.002": 7.49162604942,
			"-0.001": 10.0379063189,
			"0.0": 13.5086935221,
			"0.001": 13.4129412914,
			"0.002": 11.2788143372,
			"0.003": 9.18712276803,
			"0.004": 9.14802308467,
			"0.005": 7.54732500342,
			"0.006": 6.9593157169,
			"0.007": 7.81213574614,
			"0.008": 7.64371737947,
			"0.009": 7.17363869569,
			"0.01": 6.13551691705,
			"0.011": 4.60309748549,
			"0.012": 5.65383813246,
			"0.013": 4.208496043,
			"0.014": 2.42250655895,
			"0.015": 1.79564463473,
			"0.016": 0.299650881863,
			"0.017": 0.0,
			"0.018": 0.0,
			"0.019": 0.0,
			"0.02": 0.0,
			"0.021": 0.0,
			"0.022": 0.0,
			"0.023": 0.0,
			"0.024": 0.0,
			"0.025": 0.0
		}
	}
}
