{
	 "smiles": "S(SC1=CC=CC2=C1N=CC=C2)C1=CC=CC2=C1N=CC=C2", 
	 "Tm": 479.15, 
	 "num_atms": 34, 
	 "gaussian": { 
		 "optdone": 1, 
		 "sigma_profile": "yes", 
		 "theory": "DFT", 
		 "functional": "B3LYP", 
		 "basiset": "6-31G**", 
		 "properties": { 
			 "R2extent": 8114.6604, 
			 "electric_dipole_moment_norm": 4.11543167238, 
			 "electric_quadrupole_moment_norm": 26.4018337469, 
			 "total_energy": -1599.03007146, 
			 "HOMO_LUMO_gap": 0.14079, 
			 "cosmo_polarized_energy": -17.43, 
			 "cosmo_cavitation_energy": 41.47, 
			 "cosmo_dispersion_energy": -29.45, 
			 "cosmo_repulsion_energy": 2.13, 
			 "cosmo_total_nonelectrostatic_energy": 14.15, 
			 "SMD_solvation_energy": 4.19 
		},
		"coords": [
			{
				"x": -2.5216082631,
				"y": -0.9659667706,
				"z": 0.0311655523,
				"element": "S" 
			},
			{
				"x": -2.645387424,
				"y": 1.0720160765,
				"z": -0.5024269925,
				"element": "S" 
			},
			{
				"x": -1.7523953686,
				"y": 1.1861400092,
				"z": -2.0501526934,
				"element": "C" 
			},
			{
				"x": -2.475437108,
				"y": 1.4672768751,
				"z": -3.1962768268,
				"element": "C" 
			},
			{
				"x": -1.8336586925,
				"y": 1.6811250972,
				"z": -4.4392642409,
				"element": "C" 
			},
			{
				"x": -0.4648792239,
				"y": 1.5948543301,
				"z": -4.5364279392,
				"element": "C" 
			},
			{
				"x": 0.3169006286,
				"y": 1.3036835895,
				"z": -3.3872725257,
				"element": "C" 
			},
			{
				"x": -0.321630363,
				"y": 1.1020154661,
				"z": -2.1191483697,
				"element": "C" 
			},
			{
				"x": 0.3874262938,
				"y": 0.8359246967,
				"z": -0.989428955,
				"element": "N" 
			},
			{
				"x": 1.7002718402,
				"y": 0.7594816667,
				"z": -1.0777552933,
				"element": "C" 
			},
			{
				"x": 2.4288662712,
				"y": 0.935453487,
				"z": -2.2791979733,
				"element": "C" 
			},
			{
				"x": 1.7312690373,
				"y": 1.2087644258,
				"z": -3.4316194046,
				"element": "C" 
			},
			{
				"x": -1.2720773589,
				"y": -1.0687529872,
				"z": 1.3025384108,
				"element": "C" 
			},
			{
				"x": -0.2076615576,
				"y": -1.9298695623,
				"z": 1.109986814,
				"element": "C" 
			},
			{
				"x": 0.7500410718,
				"y": -2.149924117,
				"z": 2.1279642173,
				"element": "C" 
			},
			{
				"x": 0.6546090245,
				"y": -1.4837269051,
				"z": 3.3277259817,
				"element": "C" 
			},
			{
				"x": -0.4183920618,
				"y": -0.5843700306,
				"z": 3.5627374461,
				"element": "C" 
			},
			{
				"x": -1.411067102,
				"y": -0.3761791121,
				"z": 2.5497788196,
				"element": "C" 
			},
			{
				"x": -2.4722531696,
				"y": 0.4540541981,
				"z": 2.7376297182,
				"element": "N" 
			},
			{
				"x": -2.5715417686,
				"y": 1.0919001716,
				"z": 3.8862416177,
				"element": "C" 
			},
			{
				"x": -1.6403675801,
				"y": 0.9696920872,
				"z": 4.9466994976,
				"element": "C" 
			},
			{
				"x": -0.567640347,
				"y": 0.1267630598,
				"z": 4.7809397832,
				"element": "C" 
			},
			{
				"x": -3.5576054674,
				"y": 1.521094319,
				"z": -3.134630931,
				"element": "H" 
			},
			{
				"x": -2.4335793138,
				"y": 1.9019013753,
				"z": -5.3170939377,
				"element": "H" 
			},
			{
				"x": 0.0365037785,
				"y": 1.7465121229,
				"z": -5.4889186176,
				"element": "H" 
			},
			{
				"x": 2.2320302142,
				"y": 0.5454682902,
				"z": -0.1510728286,
				"element": "H" 
			},
			{
				"x": 3.511408232,
				"y": 0.8565699519,
				"z": -2.275526809,
				"element": "H" 
			},
			{
				"x": 2.2439248641,
				"y": 1.3552826244,
				"z": -4.3791491191,
				"element": "H" 
			},
			{
				"x": -0.1050120872,
				"y": -2.4377609715,
				"z": 0.1566688487,
				"element": "H" 
			},
			{
				"x": 1.5702568265,
				"y": -2.8384526136,
				"z": 1.9468474692,
				"element": "H" 
			},
			{
				"x": 1.3947003977,
				"y": -1.6354880179,
				"z": 4.1093522946,
				"element": "H" 
			},
			{
				"x": -3.4358811821,
				"y": 1.7450726609,
				"z": 4.0013931014,
				"element": "H" 
			},
			{
				"x": -1.7862519926,
				"y": 1.5298165703,
				"z": 5.8648628061,
				"element": "H" 
			},
			{
				"x": 0.1704189514,
				"y": -0.0070720636,
				"z": 5.5680310789,
				"element": "H" 
			}
		],
		 "valence_orbital": [ 
			{
				"type": "occ",
				"energy": -0.25151,
				"method": "rhf"
			},
			{
				"type": "occ",
				"energy": -0.24422,
				"method": "rhf"
			},
			{
				"type": "occ",
				"energy": -0.23469,
				"method": "rhf"
			},
			{
				"type": "occ",
				"energy": -0.22507,
				"method": "rhf"
			},
			{
				"type": "occ",
				"energy": -0.20761,
				"method": "rhf"
			},
			{
				"type": "unocc",
				"energy": -0.06682,
				"method": "rhf"
			},
			{
				"type": "unocc",
				"energy": -0.05258,
				"method": "rhf"
			},
			{
				"type": "unocc",
				"energy": -0.02455,
				"method": "rhf"
			},
			{
				"type": "unocc",
				"energy": -0.01809,
				"method": "rhf"
			},
			{
				"type": "unocc",
				"energy": -0.01303,
				"method": "rhf"
			}
		],
		"cosmo_sigma_profile": { 
			"-0.025": 0.0,
			"-0.024": 0.0,
			"-0.023": 0.0,
			"-0.022": 0.0,
			"-0.021": 0.0,
			"-0.02": 0.0,
			"-0.019": 0.0,
			"-0.018": 0.0,
			"-0.017": 0.0,
			"-0.016": 0.0,
			"-0.015": 0.0,
			"-0.014": 0.0,
			"-0.013": 0.0,
			"-0.012": 0.0,
			"-0.011": 0.0,
			"-0.01": 0.0,
			"-0.009": 0.0,
			"-0.008": 3.02947429741,
			"-0.007": 19.0715117935,
			"-0.006": 25.9759938154,
			"-0.005": 26.2444082512,
			"-0.004": 19.3213413407,
			"-0.003": 16.4271846365,
			"-0.002": 15.5584335121,
			"-0.001": 19.1144349564,
			"0.0": 23.6955439716,
			"0.001": 40.6691932441,
			"0.002": 42.7137018986,
			"0.003": 26.4626483443,
			"0.004": 13.7227576897,
			"0.005": 11.0615776507,
			"0.006": 7.86267199162,
			"0.007": 6.24079217341,
			"0.008": 5.28465258361,
			"0.009": 4.40555140068,
			"0.01": 3.66920611224,
			"0.011": 1.88847711897,
			"0.012": 2.23911627537,
			"0.013": 2.04038618533,
			"0.014": 1.55894922009,
			"0.015": 0.182332541481,
			"0.016": 0.0,
			"0.017": 0.0,
			"0.018": 0.0,
			"0.019": 0.0,
			"0.02": 0.0,
			"0.021": 0.0,
			"0.022": 0.0,
			"0.023": 0.0,
			"0.024": 0.0,
			"0.025": 0.0
		}
	}
}
