{
	 "smiles": "[O-][N+](=O)C1=CC=C(OC2=CC=C(C=C2)N=C=S)C=C1", 
	 "Tm": 396.15, 
	 "num_atms": 27, 
	 "gaussian": { 
		 "optdone": 1, 
		 "sigma_profile": "yes", 
		 "theory": "DFT", 
		 "functional": "B3LYP", 
		 "basiset": "6-31G**", 
		 "properties": { 
			 "R2extent": 12254.9307, 
			 "electric_dipole_moment_norm": 3.02984644165, 
			 "electric_quadrupole_moment_norm": 38.1907998459, 
			 "total_energy": -1233.45174191, 
			 "HOMO_LUMO_gap": 0.1452, 
			 "cosmo_polarized_energy": -13.09, 
			 "cosmo_cavitation_energy": 36.78, 
			 "cosmo_dispersion_energy": -26.72, 
			 "cosmo_repulsion_energy": 2.02, 
			 "cosmo_total_nonelectrostatic_energy": 12.08, 
			 "SMD_solvation_energy": 9.36 
		},
		"coords": [
			{
				"x": -0.4339446224,
				"y": 1.5089612188,
				"z": 4.3676311643,
				"element": "O" 
			},
			{
				"x": 0.0569690302,
				"y": 0.4828980645,
				"z": 3.8954046642,
				"element": "N" 
			},
			{
				"x": 0.4592672561,
				"y": -0.4720858533,
				"z": 4.5611902846,
				"element": "O" 
			},
			{
				"x": 0.1713491239,
				"y": 0.3925144259,
				"z": 2.4372987092,
				"element": "C" 
			},
			{
				"x": 0.7326698381,
				"y": -0.7503003487,
				"z": 1.8694992875,
				"element": "C" 
			},
			{
				"x": 0.8418268617,
				"y": -0.8414797706,
				"z": 0.4861032484,
				"element": "C" 
			},
			{
				"x": 0.3814085132,
				"y": 0.2153075128,
				"z": -0.3113123139,
				"element": "C" 
			},
			{
				"x": 0.4951992858,
				"y": 0.2365152018,
				"z": -1.6774518441,
				"element": "O" 
			},
			{
				"x": 0.5848987901,
				"y": -0.9333899306,
				"z": -2.4109407335,
				"element": "C" 
			},
			{
				"x": 1.5915962731,
				"y": -1.006214749,
				"z": -3.3750397711,
				"element": "C" 
			},
			{
				"x": 1.675676784,
				"y": -2.1188689069,
				"z": -4.2050747675,
				"element": "C" 
			},
			{
				"x": 0.7505858899,
				"y": -3.1672354902,
				"z": -4.0659601767,
				"element": "C" 
			},
			{
				"x": -0.2622604278,
				"y": -3.0838746995,
				"z": -3.0946821476,
				"element": "C" 
			},
			{
				"x": -0.3479144343,
				"y": -1.9658276244,
				"z": -2.2723575854,
				"element": "C" 
			},
			{
				"x": 0.832873196,
				"y": -4.2686771871,
				"z": -4.8782418904,
				"element": "N" 
			},
			{
				"x": 0.9042613248,
				"y": -5.2228129371,
				"z": -5.5816928101,
				"element": "C" 
			},
			{
				"x": 0.9932123571,
				"y": -6.5014363387,
				"z": -6.5272290024,
				"element": "S" 
			},
			{
				"x": -0.1763771964,
				"y": 1.3620037893,
				"z": 0.2707302488,
				"element": "C" 
			},
			{
				"x": -0.2814575348,
				"y": 1.4537915297,
				"z": 1.6514653222,
				"element": "C" 
			},
			{
				"x": 1.0818363676,
				"y": -1.54622741,
				"z": 2.5153885945,
				"element": "H" 
			},
			{
				"x": 1.2860996992,
				"y": -1.7184852824,
				"z": 0.0305775503,
				"element": "H" 
			},
			{
				"x": 2.2952113785,
				"y": -0.1860245427,
				"z": -3.4670640734,
				"element": "H" 
			},
			{
				"x": 2.4521228566,
				"y": -2.1895093088,
				"z": -4.9587543446,
				"element": "H" 
			},
			{
				"x": -0.9783321853,
				"y": -3.8929564355,
				"z": -3.0016099092,
				"element": "H" 
			},
			{
				"x": -1.1367672733,
				"y": -1.8906519413,
				"z": -1.5317104867,
				"element": "H" 
			},
			{
				"x": -0.5177719828,
				"y": 2.1635341902,
				"z": -0.3748397828,
				"element": "H" 
			},
			{
				"x": -0.7099391687,
				"y": 2.3250328239,
				"z": 2.1306725654,
				"element": "H" 
			}
		],
		 "valence_orbital": [ 
			{
				"type": "occ",
				"energy": -0.29129,
				"method": "rhf"
			},
			{
				"type": "occ",
				"energy": -0.28722,
				"method": "rhf"
			},
			{
				"type": "occ",
				"energy": -0.26586,
				"method": "rhf"
			},
			{
				"type": "occ",
				"energy": -0.25982,
				"method": "rhf"
			},
			{
				"type": "occ",
				"energy": -0.23523,
				"method": "rhf"
			},
			{
				"type": "unocc",
				"energy": -0.09003,
				"method": "rhf"
			},
			{
				"type": "unocc",
				"energy": -0.05813,
				"method": "rhf"
			},
			{
				"type": "unocc",
				"energy": -0.04389,
				"method": "rhf"
			},
			{
				"type": "unocc",
				"energy": -0.03212,
				"method": "rhf"
			},
			{
				"type": "unocc",
				"energy": -0.00384,
				"method": "rhf"
			}
		],
		"cosmo_sigma_profile": { 
			"-0.025": 0.0,
			"-0.024": 0.0,
			"-0.023": 0.0,
			"-0.022": 0.0,
			"-0.021": 0.0,
			"-0.02": 0.0,
			"-0.019": 0.0,
			"-0.018": 0.0,
			"-0.017": 0.0,
			"-0.016": 0.0,
			"-0.015": 0.0,
			"-0.014": 0.0,
			"-0.013": 0.0,
			"-0.012": 0.0,
			"-0.011": 0.0,
			"-0.01": 0.0,
			"-0.009": 0.0189509163934,
			"-0.008": 8.7547618717,
			"-0.007": 15.5951894681,
			"-0.006": 16.9536985581,
			"-0.005": 14.2067588633,
			"-0.004": 15.592388309,
			"-0.003": 15.9701066373,
			"-0.002": 20.9561900342,
			"-0.001": 30.8499940652,
			"0.0": 29.5993815595,
			"0.001": 33.0593404726,
			"0.002": 23.0471351076,
			"0.003": 10.7501024325,
			"0.004": 9.21873408798,
			"0.005": 12.6668885794,
			"0.006": 17.4065811222,
			"0.007": 8.45141778057,
			"0.008": 9.15540339817,
			"0.009": 4.78481993171,
			"0.01": 3.53628211598,
			"0.011": 0.573783703542,
			"0.012": 0.0,
			"0.013": 0.0,
			"0.014": 0.0,
			"0.015": 0.0,
			"0.016": 0.0,
			"0.017": 0.0,
			"0.018": 0.0,
			"0.019": 0.0,
			"0.02": 0.0,
			"0.021": 0.0,
			"0.022": 0.0,
			"0.023": 0.0,
			"0.024": 0.0,
			"0.025": 0.0
		}
	}
}
