{
	 "smiles": "CC1=NC(=CC(N)=N1)C1CC1", 
	 "Tm": 433.15, 
	 "num_atms": 22, 
	 "gaussian": { 
		 "optdone": 1, 
		 "sigma_profile": "yes", 
		 "theory": "DFT", 
		 "functional": "B3LYP", 
		 "basiset": "6-31G**", 
		 "properties": { 
			 "R2extent": 2343.241, 
			 "electric_dipole_moment_norm": 2.75162461466, 
			 "electric_quadrupole_moment_norm": 10.1514335283, 
			 "total_energy": -475.734076526, 
			 "HOMO_LUMO_gap": 0.21694, 
			 "cosmo_polarized_energy": -10.94, 
			 "cosmo_cavitation_energy": 25.38, 
			 "cosmo_dispersion_energy": -18.75, 
			 "cosmo_repulsion_energy": 1.54, 
			 "cosmo_total_nonelectrostatic_energy": 8.17, 
			 "SMD_solvation_energy": 1.87 
		},
		"coords": [
			{
				"x": -2.7887843193,
				"y": -1.4412881874,
				"z": 0.4057682588,
				"element": "C" 
			},
			{
				"x": -1.5054505943,
				"y": -1.4520040839,
				"z": -0.3840026123,
				"element": "C" 
			},
			{
				"x": -0.6276944934,
				"y": -0.4748466771,
				"z": -0.1414837698,
				"element": "N" 
			},
			{
				"x": 0.5182445585,
				"y": -0.4928784419,
				"z": -0.8594161407,
				"element": "C" 
			},
			{
				"x": 0.7693745977,
				"y": -1.4789978088,
				"z": -1.804401256,
				"element": "C" 
			},
			{
				"x": -0.2227613393,
				"y": -2.4622636932,
				"z": -1.9797795543,
				"element": "C" 
			},
			{
				"x": -0.0974153285,
				"y": -3.4606615615,
				"z": -2.9111130673,
				"element": "N" 
			},
			{
				"x": -1.3595960501,
				"y": -2.451890923,
				"z": -1.2663898006,
				"element": "N" 
			},
			{
				"x": 1.5003251068,
				"y": 0.587992085,
				"z": -0.5951584174,
				"element": "C" 
			},
			{
				"x": 1.6477189905,
				"y": 1.1357209271,
				"z": 0.8154199099,
				"element": "C" 
			},
			{
				"x": 1.0021846347,
				"y": 1.9790002698,
				"z": -0.2373560193,
				"element": "C" 
			},
			{
				"x": -2.7820905695,
				"y": -0.6246507683,
				"z": 1.1284233283,
				"element": "H" 
			},
			{
				"x": -2.9222835202,
				"y": -2.3943120696,
				"z": 0.9273758965,
				"element": "H" 
			},
			{
				"x": -3.6452371387,
				"y": -1.3234153067,
				"z": -0.2667096907,
				"element": "H" 
			},
			{
				"x": 1.6864491071,
				"y": -1.4884613969,
				"z": -2.3849805531,
				"element": "H" 
			},
			{
				"x": -0.7568977483,
				"y": -4.2197056153,
				"z": -2.8231944085,
				"element": "H" 
			},
			{
				"x": 0.8211730784,
				"y": -3.6952411003,
				"z": -3.2523207143,
				"element": "H" 
			},
			{
				"x": 2.4051135569,
				"y": 0.5332736293,
				"z": -1.1942070647,
				"element": "H" 
			},
			{
				"x": 2.6499102296,
				"y": 1.386405056,
				"z": 1.1498398262,
				"element": "H" 
			},
			{
				"x": 0.9997477282,
				"y": 0.6945343345,
				"z": 1.5653024479,
				"element": "H" 
			},
			{
				"x": 1.5496617844,
				"y": 2.8236182177,
				"z": -0.6446677608,
				"element": "H" 
			},
			{
				"x": -0.0748922712,
				"y": 2.0982731147,
				"z": -0.1874488378,
				"element": "H" 
			}
		],
		 "valence_orbital": [ 
			{
				"type": "occ",
				"energy": -0.29603,
				"method": "rhf"
			},
			{
				"type": "occ",
				"energy": -0.28304,
				"method": "rhf"
			},
			{
				"type": "occ",
				"energy": -0.24978,
				"method": "rhf"
			},
			{
				"type": "occ",
				"energy": -0.23721,
				"method": "rhf"
			},
			{
				"type": "occ",
				"energy": -0.22683,
				"method": "rhf"
			},
			{
				"type": "unocc",
				"energy": -0.00989,
				"method": "rhf"
			},
			{
				"type": "unocc",
				"energy": 0.00475,
				"method": "rhf"
			},
			{
				"type": "unocc",
				"energy": 0.08258,
				"method": "rhf"
			},
			{
				"type": "unocc",
				"energy": 0.09689,
				"method": "rhf"
			},
			{
				"type": "unocc",
				"energy": 0.12821,
				"method": "rhf"
			}
		],
		"cosmo_sigma_profile": { 
			"-0.025": 0.0,
			"-0.024": 0.0,
			"-0.023": 0.0,
			"-0.022": 0.0,
			"-0.021": 0.0,
			"-0.02": 0.0,
			"-0.019": 0.0,
			"-0.018": 0.0,
			"-0.017": 0.0,
			"-0.016": 0.0,
			"-0.015": 0.0,
			"-0.014": 0.892031423188,
			"-0.013": 1.82891581452,
			"-0.012": 2.4195417965,
			"-0.011": 2.87323323169,
			"-0.01": 2.03636522812,
			"-0.009": 2.93836967727,
			"-0.008": 2.11261079583,
			"-0.007": 2.825763765,
			"-0.006": 4.8771577608,
			"-0.005": 8.92813815384,
			"-0.004": 14.9134366062,
			"-0.003": 13.2706938157,
			"-0.002": 15.2546632066,
			"-0.001": 14.6251563716,
			"0.0": 18.288883479,
			"0.001": 16.6229086865,
			"0.002": 13.6478253923,
			"0.003": 18.3560762018,
			"0.004": 12.8315105134,
			"0.005": 6.58863539687,
			"0.006": 4.69077560882,
			"0.007": 3.89469830287,
			"0.008": 3.6465007843,
			"0.009": 3.2817082305,
			"0.01": 2.98951781165,
			"0.011": 1.50930131377,
			"0.012": 1.91016781141,
			"0.013": 0.854794301755,
			"0.014": 0.657009885328,
			"0.015": 0.666893487574,
			"0.016": 0.153500606236,
			"0.017": 0.0,
			"0.018": 0.0,
			"0.019": 0.0,
			"0.02": 0.0,
			"0.021": 0.0,
			"0.022": 0.0,
			"0.023": 0.0,
			"0.024": 0.0,
			"0.025": 0.0
		}
	}
}
