{
	 "smiles": "FC(F)(F)C(=O)NC1=CC=C(C=C1)S(Cl)(=O)=O", 
	 "Tm": 426.15, 
	 "num_atms": 22, 
	 "gaussian": { 
		 "optdone": 1, 
		 "sigma_profile": "yes", 
		 "theory": "DFT", 
		 "functional": "B3LYP", 
		 "basiset": "6-31G**", 
		 "properties": { 
			 "R2extent": 6607.7683, 
			 "electric_dipole_moment_norm": 3.09710072487, 
			 "electric_quadrupole_moment_norm": 34.2615667571, 
			 "total_energy": -1746.11962302, 
			 "HOMO_LUMO_gap": 0.17647, 
			 "cosmo_polarized_energy": -15.95, 
			 "cosmo_cavitation_energy": 32.24, 
			 "cosmo_dispersion_energy": -23.32, 
			 "cosmo_repulsion_energy": 1.72, 
			 "cosmo_total_nonelectrostatic_energy": 10.64, 
			 "SMD_solvation_energy": 6.08 
		},
		"coords": [
			{
				"x": 1.5787080037,
				"y": 2.0392707311,
				"z": 0.437787443,
				"element": "F" 
			},
			{
				"x": 1.1690220913,
				"y": 2.8333936654,
				"z": -0.5700291498,
				"element": "C" 
			},
			{
				"x": 1.6113428989,
				"y": 2.2990062049,
				"z": -1.7333174573,
				"element": "F" 
			},
			{
				"x": 1.7337958549,
				"y": 4.0274476797,
				"z": -0.4235035794,
				"element": "F" 
			},
			{
				"x": -0.3725162165,
				"y": 2.9865989868,
				"z": -0.5999780555,
				"element": "C" 
			},
			{
				"x": -0.8524280842,
				"y": 4.0788616433,
				"z": -0.8261446688,
				"element": "O" 
			},
			{
				"x": -1.1638745744,
				"y": 1.8892684775,
				"z": -0.3440048031,
				"element": "N" 
			},
			{
				"x": -0.909707132,
				"y": 0.523546534,
				"z": -0.0812532311,
				"element": "C" 
			},
			{
				"x": -1.7618477972,
				"y": -0.1228160531,
				"z": 0.8295974905,
				"element": "C" 
			},
			{
				"x": -1.6103637648,
				"y": -1.4771333685,
				"z": 1.0991470795,
				"element": "C" 
			},
			{
				"x": -0.5923711002,
				"y": -2.1781539058,
				"z": 0.4514630214,
				"element": "C" 
			},
			{
				"x": 0.2586992055,
				"y": -1.5584765954,
				"z": -0.4639490183,
				"element": "C" 
			},
			{
				"x": 0.0889803408,
				"y": -0.2066799167,
				"z": -0.7428051987,
				"element": "C" 
			},
			{
				"x": -0.3962407777,
				"y": -3.9195004167,
				"z": 0.7795483736,
				"element": "S" 
			},
			{
				"x": 0.9781622958,
				"y": -3.8899723872,
				"z": 2.410784098,
				"element": "Cl" 
			},
			{
				"x": -1.6446421946,
				"y": -4.4506101358,
				"z": 1.3121333649,
				"element": "O" 
			},
			{
				"x": 0.3089156364,
				"y": -4.5425875886,
				"z": -0.3331251736,
				"element": "O" 
			},
			{
				"x": -2.1346737877,
				"y": 2.1749625424,
				"z": -0.2756265646,
				"element": "H" 
			},
			{
				"x": -2.5390078276,
				"y": 0.4443673857,
				"z": 1.3331823187,
				"element": "H" 
			},
			{
				"x": -2.2674681562,
				"y": -1.983621539,
				"z": 1.7968358173,
				"element": "H" 
			},
			{
				"x": 1.0229548596,
				"y": -2.1340224226,
				"z": -0.97383818,
				"element": "H" 
			},
			{
				"x": 0.7185602261,
				"y": 0.2697504787,
				"z": -1.4814039268,
				"element": "H" 
			}
		],
		 "valence_orbital": [ 
			{
				"type": "occ",
				"energy": -0.33118,
				"method": "rhf"
			},
			{
				"type": "occ",
				"energy": -0.31851,
				"method": "rhf"
			},
			{
				"type": "occ",
				"energy": -0.30645,
				"method": "rhf"
			},
			{
				"type": "occ",
				"energy": -0.30281,
				"method": "rhf"
			},
			{
				"type": "occ",
				"energy": -0.27507,
				"method": "rhf"
			},
			{
				"type": "unocc",
				"energy": -0.0986,
				"method": "rhf"
			},
			{
				"type": "unocc",
				"energy": -0.06311,
				"method": "rhf"
			},
			{
				"type": "unocc",
				"energy": -0.0523,
				"method": "rhf"
			},
			{
				"type": "unocc",
				"energy": -0.02905,
				"method": "rhf"
			},
			{
				"type": "unocc",
				"energy": 0.03938,
				"method": "rhf"
			}
		],
		"cosmo_sigma_profile": { 
			"-0.025": 0.0,
			"-0.024": 0.0,
			"-0.023": 0.0,
			"-0.022": 0.0,
			"-0.021": 0.0,
			"-0.02": 0.0,
			"-0.019": 0.0,
			"-0.018": 0.0,
			"-0.017": 0.470650035987,
			"-0.016": 1.43140308429,
			"-0.015": 1.00411362037,
			"-0.014": 0.826545734973,
			"-0.013": 1.49349829378,
			"-0.012": 1.45980760236,
			"-0.011": 1.33900160313,
			"-0.01": 1.21621626604,
			"-0.009": 4.16024346919,
			"-0.008": 7.74447194158,
			"-0.007": 8.87523604495,
			"-0.006": 9.61358192276,
			"-0.005": 10.2889256978,
			"-0.004": 9.86386454176,
			"-0.003": 12.3965264709,
			"-0.002": 15.950413096,
			"-0.001": 19.3453119595,
			"0.0": 28.0728835246,
			"0.001": 32.927448081,
			"0.002": 22.8447185831,
			"0.003": 17.0525538417,
			"0.004": 11.4269420148,
			"0.005": 3.31290830095,
			"0.006": 4.78002796507,
			"0.007": 8.56360550797,
			"0.008": 10.8822279378,
			"0.009": 6.80659109393,
			"0.01": 4.12070288972,
			"0.011": 4.01389485004,
			"0.012": 0.193419263839,
			"0.013": 0.0,
			"0.014": 0.0,
			"0.015": 0.0,
			"0.016": 0.0,
			"0.017": 0.0,
			"0.018": 0.0,
			"0.019": 0.0,
			"0.02": 0.0,
			"0.021": 0.0,
			"0.022": 0.0,
			"0.023": 0.0,
			"0.024": 0.0,
			"0.025": 0.0
		}
	}
}
