{
	 "smiles": "CC(=O)C1=C(O)C(CC2=C(O)C3=C(OC(C)(C)C=C3)C(C(=O)C=CC3=CC=CC=C3)=C2O)=C(O)C(C)=C1O", 
	 "Tm": 485.15, 
	 "num_atms": 66, 
	 "gaussian": { 
		 "optdone": 1, 
		 "sigma_profile": "yes", 
		 "theory": "DFT", 
		 "functional": "B3LYP", 
		 "basiset": "6-31G**", 
		 "properties": { 
			 "R2extent": 27643.4261, 
			 "electric_dipole_moment_norm": 6.68515135281, 
			 "electric_quadrupole_moment_norm": 24.3132503611, 
			 "total_energy": -1761.86997245, 
			 "HOMO_LUMO_gap": 0.11732, 
			 "cosmo_polarized_energy": -27.51, 
			 "cosmo_cavitation_energy": 66.81, 
			 "cosmo_dispersion_energy": -46.06, 
			 "cosmo_repulsion_energy": 3.35, 
			 "cosmo_total_nonelectrostatic_energy": 24.1, 
			 "SMD_solvation_energy": 12.81 
		},
		"coords": [
			{
				"x": -0.0027953919,
				"y": 7.2988679769,
				"z": -1.9915794705,
				"element": "C" 
			},
			{
				"x": -0.3895125832,
				"y": 6.1795831077,
				"z": -1.0312393487,
				"element": "C" 
			},
			{
				"x": 0.5225236147,
				"y": 5.7895697131,
				"z": -0.270933609,
				"element": "O" 
			},
			{
				"x": -1.715416634,
				"y": 5.5747608455,
				"z": -1.0064662904,
				"element": "C" 
			},
			{
				"x": -1.9150711403,
				"y": 4.4306317558,
				"z": -0.1548713222,
				"element": "C" 
			},
			{
				"x": -0.9402082732,
				"y": 3.9968851025,
				"z": 0.6478174379,
				"element": "O" 
			},
			{
				"x": -3.1265750363,
				"y": 3.7253875328,
				"z": -0.1222133856,
				"element": "C" 
			},
			{
				"x": -3.3134666706,
				"y": 2.6104631984,
				"z": 0.9007314585,
				"element": "C" 
			},
			{
				"x": -2.7043852842,
				"y": 1.2594017947,
				"z": 0.5546628494,
				"element": "C" 
			},
			{
				"x": -3.1871268464,
				"y": 0.4827672373,
				"z": -0.4874908601,
				"element": "C" 
			},
			{
				"x": -4.3036669215,
				"y": 0.9476710716,
				"z": -1.1436768017,
				"element": "O" 
			},
			{
				"x": -2.6048395359,
				"y": -0.7389709788,
				"z": -0.8834047219,
				"element": "C" 
			},
			{
				"x": -1.4727559976,
				"y": -1.1913219823,
				"z": -0.1859413256,
				"element": "C" 
			},
			{
				"x": -0.886550192,
				"y": -2.3535251661,
				"z": -0.5776290454,
				"element": "O" 
			},
			{
				"x": -1.0247973955,
				"y": -2.8045826776,
				"z": -1.9661673623,
				"element": "C" 
			},
			{
				"x": -0.0566692774,
				"y": -1.9864000544,
				"z": -2.834532918,
				"element": "C" 
			},
			{
				"x": -0.6258448916,
				"y": -4.2799379843,
				"z": -1.9255586272,
				"element": "C" 
			},
			{
				"x": -2.45772105,
				"y": -2.6242405359,
				"z": -2.4083929664,
				"element": "C" 
			},
			{
				"x": -3.1731700254,
				"y": -1.6096226725,
				"z": -1.9042745075,
				"element": "C" 
			},
			{
				"x": -0.973044816,
				"y": -0.5054632374,
				"z": 0.9530094149,
				"element": "C" 
			},
			{
				"x": 0.1385714539,
				"y": -0.9585683976,
				"z": 1.8139051435,
				"element": "C" 
			},
			{
				"x": 0.5773851461,
				"y": -0.1925109331,
				"z": 2.708973954,
				"element": "O" 
			},
			{
				"x": 0.7373130855,
				"y": -2.3045132763,
				"z": 1.7059934057,
				"element": "C" 
			},
			{
				"x": 1.8181632561,
				"y": -2.6215900812,
				"z": 2.4503284589,
				"element": "C" 
			},
			{
				"x": 2.5212483464,
				"y": -3.9030816962,
				"z": 2.4868182133,
				"element": "C" 
			},
			{
				"x": 2.0885723175,
				"y": -5.0442572673,
				"z": 1.7813258725,
				"element": "C" 
			},
			{
				"x": 2.8007583246,
				"y": -6.2365339928,
				"z": 1.8520916122,
				"element": "C" 
			},
			{
				"x": 3.9616693079,
				"y": -6.3215923413,
				"z": 2.6286597722,
				"element": "C" 
			},
			{
				"x": 4.4026821691,
				"y": -5.2029409197,
				"z": 3.3369326381,
				"element": "C" 
			},
			{
				"x": 3.6881654904,
				"y": -4.0086940277,
				"z": 3.2670776334,
				"element": "C" 
			},
			{
				"x": -1.6194834426,
				"y": 0.7390786072,
				"z": 1.2968334788,
				"element": "C" 
			},
			{
				"x": -1.2070144,
				"y": 1.4451184776,
				"z": 2.3407208886,
				"element": "O" 
			},
			{
				"x": -4.1578605828,
				"y": 4.1589924301,
				"z": -0.9728354034,
				"element": "C" 
			},
			{
				"x": -5.3480741372,
				"y": 3.5060234932,
				"z": -1.0166105645,
				"element": "O" 
			},
			{
				"x": -4.0437611028,
				"y": 5.3021703211,
				"z": -1.7927261661,
				"element": "C" 
			},
			{
				"x": -5.1877774807,
				"y": 5.7746346783,
				"z": -2.6561216358,
				"element": "C" 
			},
			{
				"x": -2.8394065968,
				"y": 5.9969610856,
				"z": -1.7832501193,
				"element": "C" 
			},
			{
				"x": -2.8235194999,
				"y": 7.0969489798,
				"z": -2.5950434235,
				"element": "O" 
			},
			{
				"x": 1.0808052403,
				"y": 7.4122712834,
				"z": -1.9412310091,
				"element": "H" 
			},
			{
				"x": -0.4385138839,
				"y": 8.2596042633,
				"z": -1.6807757631,
				"element": "H" 
			},
			{
				"x": -0.2932700827,
				"y": 7.0876150259,
				"z": -3.0254211337,
				"element": "H" 
			},
			{
				"x": -0.161312249,
				"y": 4.607866742,
				"z": 0.4998898041,
				"element": "H" 
			},
			{
				"x": -4.3845977487,
				"y": 2.4896042408,
				"z": 1.1004156208,
				"element": "H" 
			},
			{
				"x": -2.8572725269,
				"y": 2.9351464508,
				"z": 1.8369166349,
				"element": "H" 
			},
			{
				"x": -4.3679642867,
				"y": 0.5490650131,
				"z": -2.020658409,
				"element": "H" 
			},
			{
				"x": -0.317860587,
				"y": -0.925289493,
				"z": -2.8083586787,
				"element": "H" 
			},
			{
				"x": -0.1072913618,
				"y": -2.3241960598,
				"z": -3.8744604182,
				"element": "H" 
			},
			{
				"x": 0.9709174488,
				"y": -2.1054698991,
				"z": -2.4768987886,
				"element": "H" 
			},
			{
				"x": -1.2990720057,
				"y": -4.841177507,
				"z": -1.2718965544,
				"element": "H" 
			},
			{
				"x": -0.6778582807,
				"y": -4.7098540995,
				"z": -2.9304190823,
				"element": "H" 
			},
			{
				"x": 0.398439485,
				"y": -4.3893743177,
				"z": -1.5579408337,
				"element": "H" 
			},
			{
				"x": -2.8718939478,
				"y": -3.3237766655,
				"z": -3.1278973339,
				"element": "H" 
			},
			{
				"x": -4.2120562246,
				"y": -1.4763925707,
				"z": -2.2007234927,
				"element": "H" 
			},
			{
				"x": 0.2851075476,
				"y": -3.0095561138,
				"z": 1.0269543427,
				"element": "H" 
			},
			{
				"x": 2.2188203239,
				"y": -1.8393756854,
				"z": 3.0920961606,
				"element": "H" 
			},
			{
				"x": 1.1847885247,
				"y": -4.997267762,
				"z": 1.1818882487,
				"element": "H" 
			},
			{
				"x": 2.4507818362,
				"y": -7.1063503235,
				"z": 1.3034456263,
				"element": "H" 
			},
			{
				"x": 4.514503183,
				"y": -7.2549754859,
				"z": 2.6816787111,
				"element": "H" 
			},
			{
				"x": 5.3012028558,
				"y": -5.2606729248,
				"z": 3.9443184847,
				"element": "H" 
			},
			{
				"x": 4.0321170833,
				"y": -3.1384472729,
				"z": 3.819824941,
				"element": "H" 
			},
			{
				"x": -0.3872787188,
				"y": 0.9681114118,
				"z": 2.6913504738,
				"element": "H" 
			},
			{
				"x": -5.1884482151,
				"y": 2.5705297927,
				"z": -0.8039172356,
				"element": "H" 
			},
			{
				"x": -6.0077375315,
				"y": 5.0574867923,
				"z": -2.6281351895,
				"element": "H" 
			},
			{
				"x": -4.8699651414,
				"y": 5.9088743452,
				"z": -3.6953036981,
				"element": "H" 
			},
			{
				"x": -5.5669159147,
				"y": 6.7455461809,
				"z": -2.3166398638,
				"element": "H" 
			},
			{
				"x": -2.050112128,
				"y": 7.6410854517,
				"z": -2.4203239207,
				"element": "H" 
			}
		],
		 "valence_orbital": [ 
			{
				"type": "occ",
				"energy": -0.23522,
				"method": "rhf"
			},
			{
				"type": "occ",
				"energy": -0.22733,
				"method": "rhf"
			},
			{
				"type": "occ",
				"energy": -0.21813,
				"method": "rhf"
			},
			{
				"type": "occ",
				"energy": -0.20132,
				"method": "rhf"
			},
			{
				"type": "occ",
				"energy": -0.19565,
				"method": "rhf"
			},
			{
				"type": "unocc",
				"energy": -0.07833,
				"method": "rhf"
			},
			{
				"type": "unocc",
				"energy": -0.04275,
				"method": "rhf"
			},
			{
				"type": "unocc",
				"energy": -0.03333,
				"method": "rhf"
			},
			{
				"type": "unocc",
				"energy": -0.01802,
				"method": "rhf"
			},
			{
				"type": "unocc",
				"energy": -0.00819,
				"method": "rhf"
			}
		],
		"cosmo_sigma_profile": { 
			"-0.025": 0.0,
			"-0.024": 0.0,
			"-0.023": 0.0,
			"-0.022": 0.0,
			"-0.021": 0.0,
			"-0.02": 0.0,
			"-0.019": 0.0949870508287,
			"-0.018": 0.723618200822,
			"-0.017": 0.667945622909,
			"-0.016": 1.65455377032,
			"-0.015": 1.6196110474,
			"-0.014": 2.44169956025,
			"-0.013": 1.89242893492,
			"-0.012": 2.18853061595,
			"-0.011": 2.37354986839,
			"-0.01": 2.40847929822,
			"-0.009": 2.56774892785,
			"-0.008": 3.74289197154,
			"-0.007": 8.34998399469,
			"-0.006": 19.7989902283,
			"-0.005": 27.3727653574,
			"-0.004": 37.4552770574,
			"-0.003": 37.6967237614,
			"-0.002": 39.5339926716,
			"-0.001": 45.8380699463,
			"0.0": 49.1880694882,
			"0.001": 43.7790966113,
			"0.002": 49.2884970997,
			"0.003": 45.739379664,
			"0.004": 33.0306298748,
			"0.005": 19.5941839276,
			"0.006": 10.0919579957,
			"0.007": 8.78533178475,
			"0.008": 7.36707157123,
			"0.009": 9.60948864553,
			"0.01": 7.65509245954,
			"0.011": 5.52359829514,
			"0.012": 2.33309441238,
			"0.013": 1.10459480754,
			"0.014": 0.485099614063,
			"0.015": 0.0,
			"0.016": 0.0,
			"0.017": 0.0,
			"0.018": 0.0,
			"0.019": 0.0,
			"0.02": 0.0,
			"0.021": 0.0,
			"0.022": 0.0,
			"0.023": 0.0,
			"0.024": 0.0,
			"0.025": 0.0
		}
	}
}
