{
	 "smiles": "NC1CCS(=O)(=O)C2=C1C=C(Cl)C=C2", 
	 "Tm": 331.15, 
	 "num_atms": 24, 
	 "gaussian": { 
		 "optdone": 1, 
		 "sigma_profile": "yes", 
		 "theory": "DFT", 
		 "functional": "B3LYP", 
		 "basiset": "6-31G**", 
		 "properties": { 
			 "R2extent": 4143.5456, 
			 "electric_dipole_moment_norm": 5.38950279339, 
			 "electric_quadrupole_moment_norm": 19.9922904341, 
			 "total_energy": -1412.4928391, 
			 "HOMO_LUMO_gap": 0.21323, 
			 "cosmo_polarized_energy": -20.25, 
			 "cosmo_cavitation_energy": 29.5, 
			 "cosmo_dispersion_energy": -22.47, 
			 "cosmo_repulsion_energy": 1.71, 
			 "cosmo_total_nonelectrostatic_energy": 8.73, 
			 "SMD_solvation_energy": 2.56 
		},
		"coords": [
			{
				"x": 1.318723739,
				"y": 2.597318942,
				"z": 0.3446450405,
				"element": "N" 
			},
			{
				"x": 1.1586568497,
				"y": 1.1484414823,
				"z": 0.1814589689,
				"element": "C" 
			},
			{
				"x": 2.2954765128,
				"y": 0.4331869103,
				"z": 0.9248973249,
				"element": "C" 
			},
			{
				"x": 2.2324914692,
				"y": -1.0814599198,
				"z": 0.7399639985,
				"element": "C" 
			},
			{
				"x": 0.7976510106,
				"y": -1.7515199437,
				"z": 1.6105975314,
				"element": "S" 
			},
			{
				"x": 0.4587086673,
				"y": -3.0738602007,
				"z": 1.0618104682,
				"element": "O" 
			},
			{
				"x": 1.0509381636,
				"y": -1.6044352543,
				"z": 3.0538876995,
				"element": "O" 
			},
			{
				"x": -0.4977469357,
				"y": -0.5883777458,
				"z": 1.1491983235,
				"element": "C" 
			},
			{
				"x": -0.2339128114,
				"y": 0.6928822439,
				"z": 0.6345791928,
				"element": "C" 
			},
			{
				"x": -1.3285970379,
				"y": 1.5488346281,
				"z": 0.4531456091,
				"element": "C" 
			},
			{
				"x": -2.6206310304,
				"y": 1.1274026851,
				"z": 0.7542664188,
				"element": "C" 
			},
			{
				"x": -3.9579061771,
				"y": 2.2366757525,
				"z": 0.5104933638,
				"element": "Cl" 
			},
			{
				"x": -2.8761427709,
				"y": -0.1550742425,
				"z": 1.2393212299,
				"element": "C" 
			},
			{
				"x": -1.7991245628,
				"y": -1.0097030136,
				"z": 1.4399104419,
				"element": "C" 
			},
			{
				"x": 0.8310389183,
				"y": 3.0980738287,
				"z": -0.3930004661,
				"element": "H" 
			},
			{
				"x": 2.3005363301,
				"y": 2.8395797886,
				"z": 0.2380710312,
				"element": "H" 
			},
			{
				"x": 1.2390119321,
				"y": 0.8388809364,
				"z": -0.8789536823,
				"element": "H" 
			},
			{
				"x": 2.2655397608,
				"y": 0.6871192919,
				"z": 1.9897009385,
				"element": "H" 
			},
			{
				"x": 3.2540165978,
				"y": 0.7921618698,
				"z": 0.5308595239,
				"element": "H" 
			},
			{
				"x": 2.1455519378,
				"y": -1.3752150699,
				"z": -0.3102468819,
				"element": "H" 
			},
			{
				"x": 3.0884502526,
				"y": -1.5951172787,
				"z": 1.185728668,
				"element": "H" 
			},
			{
				"x": -1.179671397,
				"y": 2.5579792863,
				"z": 0.0909962068,
				"element": "H" 
			},
			{
				"x": -3.8896286944,
				"y": -0.4707240616,
				"z": 1.4578079825,
				"element": "H" 
			},
			{
				"x": -1.9628307242,
				"y": -2.0132509151,
				"z": 1.8192610676,
				"element": "H" 
			}
		],
		 "valence_orbital": [ 
			{
				"type": "occ",
				"energy": -0.29769,
				"method": "rhf"
			},
			{
				"type": "occ",
				"energy": -0.28782,
				"method": "rhf"
			},
			{
				"type": "occ",
				"energy": -0.27576,
				"method": "rhf"
			},
			{
				"type": "occ",
				"energy": -0.26674,
				"method": "rhf"
			},
			{
				"type": "occ",
				"energy": -0.2565,
				"method": "rhf"
			},
			{
				"type": "unocc",
				"energy": -0.04327,
				"method": "rhf"
			},
			{
				"type": "unocc",
				"energy": -0.03326,
				"method": "rhf"
			},
			{
				"type": "unocc",
				"energy": 0.01745,
				"method": "rhf"
			},
			{
				"type": "unocc",
				"energy": 0.05208,
				"method": "rhf"
			},
			{
				"type": "unocc",
				"energy": 0.06561,
				"method": "rhf"
			}
		],
		"cosmo_sigma_profile": { 
			"-0.025": 0.0,
			"-0.024": 0.0,
			"-0.023": 0.0,
			"-0.022": 0.0,
			"-0.021": 0.0,
			"-0.02": 0.0,
			"-0.019": 0.0,
			"-0.018": 0.0,
			"-0.017": 0.0,
			"-0.016": 0.0,
			"-0.015": 0.0,
			"-0.014": 0.0,
			"-0.013": 0.0,
			"-0.012": 0.582918757207,
			"-0.011": 2.64353969608,
			"-0.01": 3.7623207003,
			"-0.009": 6.63853339447,
			"-0.008": 13.0602342935,
			"-0.007": 13.1101307325,
			"-0.006": 14.7058512641,
			"-0.005": 16.1082553053,
			"-0.004": 12.3809817968,
			"-0.003": 11.2373060638,
			"-0.002": 9.13454043684,
			"-0.001": 11.085855166,
			"0.0": 13.7417614365,
			"0.001": 19.6899273204,
			"0.002": 16.1404257102,
			"0.003": 11.3038583283,
			"0.004": 13.3285857304,
			"0.005": 4.67461771509,
			"0.006": 2.90421053101,
			"0.007": 2.53470641478,
			"0.008": 2.71513103324,
			"0.009": 5.11786045953,
			"0.01": 4.64446270055,
			"0.011": 11.7808129138,
			"0.012": 9.04725448085,
			"0.013": 1.57661511995,
			"0.014": 0.424448287419,
			"0.015": 0.394068540251,
			"0.016": 0.675550349334,
			"0.017": 0.288839405429,
			"0.018": 0.502525704986,
			"0.019": 0.0,
			"0.02": 0.0,
			"0.021": 0.0,
			"0.022": 0.0,
			"0.023": 0.0,
			"0.024": 0.0,
			"0.025": 0.0
		}
	}
}
