{
	 "smiles": "COC1=CC(=CC=C1)C1=NOC(Cl)=N1", 
	 "Tm": 330.15, 
	 "num_atms": 21, 
	 "gaussian": { 
		 "optdone": 1, 
		 "sigma_profile": "yes", 
		 "theory": "DFT", 
		 "functional": "B3LYP", 
		 "basiset": "6-31G**", 
		 "properties": { 
			 "R2extent": 5419.0187, 
			 "electric_dipole_moment_norm": 1.98857920637, 
			 "electric_quadrupole_moment_norm": 8.12577750249, 
			 "total_energy": -1067.25782922, 
			 "HOMO_LUMO_gap": 0.17204, 
			 "cosmo_polarized_energy": -7.0, 
			 "cosmo_cavitation_energy": 28.2, 
			 "cosmo_dispersion_energy": -21.14, 
			 "cosmo_repulsion_energy": 1.66, 
			 "cosmo_total_nonelectrostatic_energy": 8.72, 
			 "SMD_solvation_energy": 4.02 
		},
		"coords": [
			{
				"x": -2.1094777247,
				"y": 1.3249125409,
				"z": 0.1577851386,
				"element": "C" 
			},
			{
				"x": -1.1416300069,
				"y": 1.1251943447,
				"z": 1.1780191643,
				"element": "O" 
			},
			{
				"x": -0.0786754971,
				"y": 0.3155518295,
				"z": 0.9106941186,
				"element": "C" 
			},
			{
				"x": 0.1296793812,
				"y": -0.3384976293,
				"z": -0.3064826026,
				"element": "C" 
			},
			{
				"x": 1.2636607361,
				"y": -1.1505241444,
				"z": -0.469881869,
				"element": "C" 
			},
			{
				"x": 2.1848379328,
				"y": -1.3106757891,
				"z": 0.5719750776,
				"element": "C" 
			},
			{
				"x": 1.9628587572,
				"y": -0.6510301836,
				"z": 1.7812211036,
				"element": "C" 
			},
			{
				"x": 0.8437878898,
				"y": 0.1563976431,
				"z": 1.9566994766,
				"element": "C" 
			},
			{
				"x": 1.4657385166,
				"y": -1.8296858685,
				"z": -1.7561189055,
				"element": "C" 
			},
			{
				"x": 2.4976695165,
				"y": -2.6101506486,
				"z": -2.0026941757,
				"element": "N" 
			},
			{
				"x": 2.2821782036,
				"y": -3.0334651455,
				"z": -3.3307591069,
				"element": "O" 
			},
			{
				"x": 1.1417837955,
				"y": -2.4484111503,
				"z": -3.7103071914,
				"element": "C" 
			},
			{
				"x": 0.5939615588,
				"y": -2.763711965,
				"z": -5.2956354674,
				"element": "Cl" 
			},
			{
				"x": 0.5815419324,
				"y": -1.7020690565,
				"z": -2.8170017205,
				"element": "N" 
			},
			{
				"x": -2.5908684132,
				"y": 0.3826408855,
				"z": -0.1329698195,
				"element": "H" 
			},
			{
				"x": -2.8582959516,
				"y": 1.995462547,
				"z": 0.5816672571,
				"element": "H" 
			},
			{
				"x": -1.6685137467,
				"y": 1.7914499781,
				"z": -0.7321828741,
				"element": "H" 
			},
			{
				"x": -0.5605611987,
				"y": -0.2382260995,
				"z": -1.1336475406,
				"element": "H" 
			},
			{
				"x": 3.055920263,
				"y": -1.9406570957,
				"z": 0.4318484833,
				"element": "H" 
			},
			{
				"x": 2.6705960662,
				"y": -0.7677633412,
				"z": 2.5964269555,
				"element": "H" 
			},
			{
				"x": 0.6594079892,
				"y": 0.6748583487,
				"z": 2.891844498,
				"element": "H" 
			}
		],
		 "valence_orbital": [ 
			{
				"type": "occ",
				"energy": -0.32399,
				"method": "rhf"
			},
			{
				"type": "occ",
				"energy": -0.31075,
				"method": "rhf"
			},
			{
				"type": "occ",
				"energy": -0.29691,
				"method": "rhf"
			},
			{
				"type": "occ",
				"energy": -0.25533,
				"method": "rhf"
			},
			{
				"type": "occ",
				"energy": -0.22746,
				"method": "rhf"
			},
			{
				"type": "unocc",
				"energy": -0.05542,
				"method": "rhf"
			},
			{
				"type": "unocc",
				"energy": -0.01946,
				"method": "rhf"
			},
			{
				"type": "unocc",
				"energy": 0.00393,
				"method": "rhf"
			},
			{
				"type": "unocc",
				"energy": 0.00447,
				"method": "rhf"
			},
			{
				"type": "unocc",
				"energy": 0.06363,
				"method": "rhf"
			}
		],
		"cosmo_sigma_profile": { 
			"-0.025": 0.0,
			"-0.024": 0.0,
			"-0.023": 0.0,
			"-0.022": 0.0,
			"-0.021": 0.0,
			"-0.02": 0.0,
			"-0.019": 0.0,
			"-0.018": 0.0,
			"-0.017": 0.0,
			"-0.016": 0.0,
			"-0.015": 0.0,
			"-0.014": 0.0,
			"-0.013": 0.0,
			"-0.012": 0.0,
			"-0.011": 0.0,
			"-0.01": 0.0,
			"-0.009": 0.0,
			"-0.008": 0.0,
			"-0.007": 2.07206536368,
			"-0.006": 15.1406695401,
			"-0.005": 20.0506674024,
			"-0.004": 19.4003447563,
			"-0.003": 18.1804048268,
			"-0.002": 14.7018546818,
			"-0.001": 16.1873404337,
			"0.0": 20.3863740063,
			"0.001": 25.5214907018,
			"0.002": 16.2483301559,
			"0.003": 17.7742955254,
			"0.004": 15.0608183301,
			"0.005": 8.47700968692,
			"0.006": 4.52985943092,
			"0.007": 3.88626733634,
			"0.008": 3.47164079514,
			"0.009": 3.9601412773,
			"0.01": 3.26741904446,
			"0.011": 1.26859973204,
			"0.012": 0.0775483244009,
			"0.013": 0.0,
			"0.014": 0.0,
			"0.015": 0.0,
			"0.016": 0.0,
			"0.017": 0.0,
			"0.018": 0.0,
			"0.019": 0.0,
			"0.02": 0.0,
			"0.021": 0.0,
			"0.022": 0.0,
			"0.023": 0.0,
			"0.024": 0.0,
			"0.025": 0.0
		}
	}
}
