{
	 "smiles": "CN1C=NN=C1SC1=C(Cl)C=C(N)C=C1", 
	 "Tm": 442.15, 
	 "num_atms": 24, 
	 "gaussian": { 
		 "optdone": 1, 
		 "sigma_profile": "yes", 
		 "theory": "DFT", 
		 "functional": "B3LYP", 
		 "basiset": "6-31G**", 
		 "properties": { 
			 "R2extent": 4287.2679, 
			 "electric_dipole_moment_norm": 5.55492603101, 
			 "electric_quadrupole_moment_norm": 25.1261870257, 
			 "total_energy": -1425.7346914, 
			 "HOMO_LUMO_gap": 0.19681, 
			 "cosmo_polarized_energy": -21.13, 
			 "cosmo_cavitation_energy": 32.05, 
			 "cosmo_dispersion_energy": -23.14, 
			 "cosmo_repulsion_energy": 1.77, 
			 "cosmo_total_nonelectrostatic_energy": 10.68, 
			 "SMD_solvation_energy": 3.64 
		},
		"coords": [
			{
				"x": 0.2506041375,
				"y": -1.9952554773,
				"z": 2.6356520096,
				"element": "C" 
			},
			{
				"x": -0.6192938617,
				"y": -2.2636787962,
				"z": 1.4982155927,
				"element": "N" 
			},
			{
				"x": -0.8062590466,
				"y": -3.454364952,
				"z": 0.8598319642,
				"element": "C" 
			},
			{
				"x": -1.6832544894,
				"y": -3.34209421,
				"z": -0.1126552809,
				"element": "N" 
			},
			{
				"x": -2.1122760824,
				"y": -2.0359802912,
				"z": -0.1190247463,
				"element": "N" 
			},
			{
				"x": -1.4698881639,
				"y": -1.3987481299,
				"z": 0.8403077311,
				"element": "C" 
			},
			{
				"x": -1.6654389484,
				"y": 0.3078920033,
				"z": 1.2540650967,
				"element": "S" 
			},
			{
				"x": -0.6791274671,
				"y": 1.0903668817,
				"z": -0.0314634075,
				"element": "C" 
			},
			{
				"x": 0.350541459,
				"y": 1.995967845,
				"z": 0.2608788704,
				"element": "C" 
			},
			{
				"x": 0.795006668,
				"y": 2.3677558025,
				"z": 1.9235550535,
				"element": "Cl" 
			},
			{
				"x": 1.0674989634,
				"y": 2.6377492047,
				"z": -0.7461546982,
				"element": "C" 
			},
			{
				"x": 0.7798204422,
				"y": 2.3779034222,
				"z": -2.0956001341,
				"element": "C" 
			},
			{
				"x": 1.4572766438,
				"y": 3.0494487592,
				"z": -3.1041652687,
				"element": "N" 
			},
			{
				"x": -0.2470554536,
				"y": 1.4641377117,
				"z": -2.3993470782,
				"element": "C" 
			},
			{
				"x": -0.9647371041,
				"y": 0.8490499948,
				"z": -1.384730814,
				"element": "C" 
			},
			{
				"x": 1.1704642009,
				"y": -2.5744103472,
				"z": 2.5317944762,
				"element": "H" 
			},
			{
				"x": -0.2412801527,
				"y": -2.2641036714,
				"z": 3.5753283704,
				"element": "H" 
			},
			{
				"x": 0.4928018463,
				"y": -0.9324684216,
				"z": 2.6548121339,
				"element": "H" 
			},
			{
				"x": -0.2874896486,
				"y": -4.3615253666,
				"z": 1.1380474477,
				"element": "H" 
			},
			{
				"x": 1.8513009552,
				"y": 3.3383958235,
				"z": -0.477919322,
				"element": "H" 
			},
			{
				"x": 2.3591899747,
				"y": 3.4326274012,
				"z": -2.8605639066,
				"element": "H" 
			},
			{
				"x": 1.4496518562,
				"y": 2.6090616561,
				"z": -4.0127932857,
				"element": "H" 
			},
			{
				"x": -0.4894496497,
				"y": 1.250995495,
				"z": -3.4368236981,
				"element": "H" 
			},
			{
				"x": -1.752307079,
				"y": 0.1429776627,
				"z": -1.628447106,
				"element": "H" 
			}
		],
		 "valence_orbital": [ 
			{
				"type": "occ",
				"energy": -0.26565,
				"method": "rhf"
			},
			{
				"type": "occ",
				"energy": -0.2557,
				"method": "rhf"
			},
			{
				"type": "occ",
				"energy": -0.25222,
				"method": "rhf"
			},
			{
				"type": "occ",
				"energy": -0.24933,
				"method": "rhf"
			},
			{
				"type": "occ",
				"energy": -0.21208,
				"method": "rhf"
			},
			{
				"type": "unocc",
				"energy": -0.01527,
				"method": "rhf"
			},
			{
				"type": "unocc",
				"energy": -0.01259,
				"method": "rhf"
			},
			{
				"type": "unocc",
				"energy": -0.00914,
				"method": "rhf"
			},
			{
				"type": "unocc",
				"energy": 0.02365,
				"method": "rhf"
			},
			{
				"type": "unocc",
				"energy": 0.03597,
				"method": "rhf"
			}
		],
		"cosmo_sigma_profile": { 
			"-0.025": 0.0,
			"-0.024": 0.0,
			"-0.023": 0.0,
			"-0.022": 0.0,
			"-0.021": 0.0,
			"-0.02": 0.0,
			"-0.019": 0.0,
			"-0.018": 0.0,
			"-0.017": 0.0,
			"-0.016": 0.0,
			"-0.015": 0.0,
			"-0.014": 0.139695033112,
			"-0.013": 2.27016483011,
			"-0.012": 3.07465774966,
			"-0.011": 4.32019159499,
			"-0.01": 6.3978801034,
			"-0.009": 5.25308902972,
			"-0.008": 8.06025032668,
			"-0.007": 9.6959849323,
			"-0.006": 10.9260533351,
			"-0.005": 14.0752337868,
			"-0.004": 16.0832275051,
			"-0.003": 13.5760799179,
			"-0.002": 12.65356438,
			"-0.001": 14.0990616031,
			"0.0": 13.5510752939,
			"0.001": 15.7530247069,
			"0.002": 18.5925970418,
			"0.003": 23.1160257233,
			"0.004": 23.5173227518,
			"0.005": 9.469648084,
			"0.006": 5.06310511236,
			"0.007": 5.17484146607,
			"0.008": 2.65027689922,
			"0.009": 2.73115326094,
			"0.01": 3.12476092485,
			"0.011": 3.46543746891,
			"0.012": 2.84189736837,
			"0.013": 3.53739150101,
			"0.014": 3.46666240012,
			"0.015": 1.9439594126,
			"0.016": 1.6486261078,
			"0.017": 0.329119293169,
			"0.018": 0.0,
			"0.019": 0.0,
			"0.02": 0.0,
			"0.021": 0.0,
			"0.022": 0.0,
			"0.023": 0.0,
			"0.024": 0.0,
			"0.025": 0.0
		}
	}
}
