{
	 "smiles": "OC(=O)CC1=CC=CC=C1C(O)=O", 
	 "Tm": 453.15, 
	 "num_atms": 21, 
	 "gaussian": { 
		 "optdone": 1, 
		 "sigma_profile": "yes", 
		 "theory": "DFT", 
		 "functional": "B3LYP", 
		 "basiset": "6-31G**", 
		 "properties": { 
			 "R2extent": 3318.0773, 
			 "electric_dipole_moment_norm": 3.31644729492, 
			 "electric_quadrupole_moment_norm": 24.8590975902, 
			 "total_energy": -648.703237886, 
			 "HOMO_LUMO_gap": 0.18708, 
			 "cosmo_polarized_energy": -17.01, 
			 "cosmo_cavitation_energy": 25.41, 
			 "cosmo_dispersion_energy": -18.6, 
			 "cosmo_repulsion_energy": 1.46, 
			 "cosmo_total_nonelectrostatic_energy": 8.28, 
			 "SMD_solvation_energy": 6.54 
		},
		"coords": [
			{
				"x": -3.7347208927,
				"y": 1.7622810519,
				"z": 0.1280148416,
				"element": "O" 
			},
			{
				"x": -2.4915404138,
				"y": 2.25650705,
				"z": 0.2929127577,
				"element": "C" 
			},
			{
				"x": -2.1773689589,
				"y": 3.3325997571,
				"z": -0.1537507558,
				"element": "O" 
			},
			{
				"x": -1.5096791976,
				"y": 1.3505272287,
				"z": 1.0551296856,
				"element": "C" 
			},
			{
				"x": -0.9986222567,
				"y": 0.2146542935,
				"z": 0.180682922,
				"element": "C" 
			},
			{
				"x": 0.0394628229,
				"y": 0.5295967037,
				"z": -0.7091036371,
				"element": "C" 
			},
			{
				"x": 0.614385539,
				"y": -0.4289079233,
				"z": -1.5388386057,
				"element": "C" 
			},
			{
				"x": 0.1712440447,
				"y": -1.7522316802,
				"z": -1.4873004842,
				"element": "C" 
			},
			{
				"x": -0.8546464294,
				"y": -2.0900673585,
				"z": -0.6155968347,
				"element": "C" 
			},
			{
				"x": -1.462900041,
				"y": -1.1220228835,
				"z": 0.2059111567,
				"element": "C" 
			},
			{
				"x": -2.5713707774,
				"y": -1.6529579065,
				"z": 1.0448241201,
				"element": "C" 
			},
			{
				"x": -3.4626149033,
				"y": -0.7067305244,
				"z": 1.4946847103,
				"element": "O" 
			},
			{
				"x": -2.7512000334,
				"y": -2.8214651199,
				"z": 1.3085230794,
				"element": "O" 
			},
			{
				"x": -3.8029391581,
				"y": 0.8903625585,
				"z": 0.5576603274,
				"element": "H" 
			},
			{
				"x": -1.9759751406,
				"y": 0.9776710735,
				"z": 1.9678848039,
				"element": "H" 
			},
			{
				"x": -0.6685700589,
				"y": 1.98693587,
				"z": 1.3339113555,
				"element": "H" 
			},
			{
				"x": 0.3959762462,
				"y": 1.5549940039,
				"z": -0.7425240603,
				"element": "H" 
			},
			{
				"x": 1.4130017954,
				"y": -0.1438514609,
				"z": -2.2173946734,
				"element": "H" 
			},
			{
				"x": 0.6208149773,
				"y": -2.5110781739,
				"z": -2.1198097355,
				"element": "H" 
			},
			{
				"x": -1.2179441483,
				"y": -3.1096651368,
				"z": -0.5519875183,
				"element": "H" 
			},
			{
				"x": -4.1321930153,
				"y": -1.1969514229,
				"z": 2.0020665449,
				"element": "H" 
			}
		],
		 "valence_orbital": [ 
			{
				"type": "occ",
				"energy": -0.30703,
				"method": "rhf"
			},
			{
				"type": "occ",
				"energy": -0.30468,
				"method": "rhf"
			},
			{
				"type": "occ",
				"energy": -0.28197,
				"method": "rhf"
			},
			{
				"type": "occ",
				"energy": -0.27428,
				"method": "rhf"
			},
			{
				"type": "occ",
				"energy": -0.25455,
				"method": "rhf"
			},
			{
				"type": "unocc",
				"energy": -0.06747,
				"method": "rhf"
			},
			{
				"type": "unocc",
				"energy": -0.02702,
				"method": "rhf"
			},
			{
				"type": "unocc",
				"energy": 0.01874,
				"method": "rhf"
			},
			{
				"type": "unocc",
				"energy": 0.02999,
				"method": "rhf"
			},
			{
				"type": "unocc",
				"energy": 0.05206,
				"method": "rhf"
			}
		],
		"cosmo_sigma_profile": { 
			"-0.025": 0.0,
			"-0.024": 0.0,
			"-0.023": 0.0,
			"-0.022": 0.0,
			"-0.021": 0.0,
			"-0.02": 0.0487189493528,
			"-0.019": 0.692715424224,
			"-0.018": 1.10030910074,
			"-0.017": 0.922537255998,
			"-0.016": 0.743725265707,
			"-0.015": 0.553872455261,
			"-0.014": 0.813562150683,
			"-0.013": 0.763416060635,
			"-0.012": 0.891943973715,
			"-0.011": 0.491638218402,
			"-0.01": 0.902787880547,
			"-0.009": 1.86674384657,
			"-0.008": 3.8069983347,
			"-0.007": 7.58617940436,
			"-0.006": 15.7996326334,
			"-0.005": 16.9074713618,
			"-0.004": 15.3975527867,
			"-0.003": 13.7770705378,
			"-0.002": 10.4735447414,
			"-0.001": 10.7120330146,
			"0.0": 9.70183863366,
			"0.001": 11.9343463026,
			"0.002": 12.8832697038,
			"0.003": 14.1928874649,
			"0.004": 4.95012919264,
			"0.005": 3.26074758435,
			"0.006": 3.66595782424,
			"0.007": 2.80014655898,
			"0.008": 4.490258087,
			"0.009": 5.02429064567,
			"0.01": 6.70095430098,
			"0.011": 10.5693681292,
			"0.012": 5.83223514949,
			"0.013": 2.70776422263,
			"0.014": 0.116327623218,
			"0.015": 0.0,
			"0.016": 0.0,
			"0.017": 0.0,
			"0.018": 0.0,
			"0.019": 0.0,
			"0.02": 0.0,
			"0.021": 0.0,
			"0.022": 0.0,
			"0.023": 0.0,
			"0.024": 0.0,
			"0.025": 0.0
		}
	}
}
