{
	 "smiles": "CCOC1=C(C=CC=C1)C(=O)CBr", 
	 "Tm": 348.15, 
	 "num_atms": 24, 
	 "gaussian": { 
		 "optdone": 1, 
		 "sigma_profile": "yes", 
		 "theory": "DFT", 
		 "functional": "B3LYP", 
		 "basiset": "6-31G**", 
		 "properties": { 
			 "R2extent": 5797.5919, 
			 "electric_dipole_moment_norm": 6.41297113201, 
			 "electric_quadrupole_moment_norm": 16.227245146, 
			 "total_energy": -3109.5377945, 
			 "HOMO_LUMO_gap": 0.18174, 
			 "cosmo_polarized_energy": -12.05, 
			 "cosmo_cavitation_energy": 29.91, 
			 "cosmo_dispersion_energy": -21.81, 
			 "cosmo_repulsion_energy": 1.74, 
			 "cosmo_total_nonelectrostatic_energy": 9.83, 
			 "SMD_solvation_energy": 4.77 
		},
		"coords": [
			{
				"x": 1.9728490167,
				"y": -3.2415242506,
				"z": -0.2347076764,
				"element": "C" 
			},
			{
				"x": 1.6097603738,
				"y": -1.8227431308,
				"z": -0.635188846,
				"element": "C" 
			},
			{
				"x": 0.4001336185,
				"y": -1.4744618314,
				"z": 0.0493577701,
				"element": "O" 
			},
			{
				"x": -0.1497049362,
				"y": -0.2413216739,
				"z": -0.135635681,
				"element": "C" 
			},
			{
				"x": -1.3468980536,
				"y": 0.0586793842,
				"z": 0.5621207443,
				"element": "C" 
			},
			{
				"x": -1.9208031487,
				"y": 1.3280548327,
				"z": 0.3773761558,
				"element": "C" 
			},
			{
				"x": -1.3525353689,
				"y": 2.2803268583,
				"z": -0.4589363253,
				"element": "C" 
			},
			{
				"x": -0.1742657647,
				"y": 1.9680719103,
				"z": -1.1379682189,
				"element": "C" 
			},
			{
				"x": 0.42487213,
				"y": 0.7199738445,
				"z": -0.9805718542,
				"element": "C" 
			},
			{
				"x": -2.0906197441,
				"y": -0.8542828542,
				"z": 1.5026798298,
				"element": "C" 
			},
			{
				"x": -3.113248425,
				"y": -0.4694777126,
				"z": 2.040152067,
				"element": "O" 
			},
			{
				"x": -1.5393536478,
				"y": -2.2548001829,
				"z": 1.7625781893,
				"element": "C" 
			},
			{
				"x": -2.6381239057,
				"y": -3.2917100688,
				"z": 3.0068390561,
				"element": "Br" 
			},
			{
				"x": 2.8950485756,
				"y": -3.5444927271,
				"z": -0.7395566587,
				"element": "H" 
			},
			{
				"x": 1.1804883982,
				"y": -3.9405773563,
				"z": -0.5161032132,
				"element": "H" 
			},
			{
				"x": 2.131647078,
				"y": -3.3130969673,
				"z": 0.8448050451,
				"element": "H" 
			},
			{
				"x": 1.4535398744,
				"y": -1.7484309892,
				"z": -1.7194327456,
				"element": "H" 
			},
			{
				"x": 2.4058675216,
				"y": -1.1199106052,
				"z": -0.3563405201,
				"element": "H" 
			},
			{
				"x": -2.8358685327,
				"y": 1.533592466,
				"z": 0.9217495328,
				"element": "H" 
			},
			{
				"x": -1.8199392735,
				"y": 3.2520335475,
				"z": -0.5807834009,
				"element": "H" 
			},
			{
				"x": 0.2885582317,
				"y": 2.6967925395,
				"z": -1.7975352723,
				"element": "H" 
			},
			{
				"x": 1.3387657755,
				"y": 0.5001776399,
				"z": -1.5174817235,
				"element": "H" 
			},
			{
				"x": -0.5365298391,
				"y": -2.2037194817,
				"z": 2.1846414948,
				"element": "H" 
			},
			{
				"x": -1.4777399541,
				"y": -2.8244531907,
				"z": 0.8362422511,
				"element": "H" 
			}
		],
		 "valence_orbital": [ 
			{
				"type": "occ",
				"energy": -0.2662,
				"method": "rhf"
			},
			{
				"type": "occ",
				"energy": -0.26247,
				"method": "rhf"
			},
			{
				"type": "occ",
				"energy": -0.26105,
				"method": "rhf"
			},
			{
				"type": "occ",
				"energy": -0.25623,
				"method": "rhf"
			},
			{
				"type": "occ",
				"energy": -0.23912,
				"method": "rhf"
			},
			{
				"type": "unocc",
				"energy": -0.05738,
				"method": "rhf"
			},
			{
				"type": "unocc",
				"energy": -0.00331,
				"method": "rhf"
			},
			{
				"type": "unocc",
				"energy": 0.01581,
				"method": "rhf"
			},
			{
				"type": "unocc",
				"energy": 0.03245,
				"method": "rhf"
			},
			{
				"type": "unocc",
				"energy": 0.07589,
				"method": "rhf"
			}
		],
		"cosmo_sigma_profile": { 
			"-0.025": 0.0,
			"-0.024": 0.0,
			"-0.023": 0.0,
			"-0.022": 0.0,
			"-0.021": 0.0,
			"-0.02": 0.0,
			"-0.019": 0.0,
			"-0.018": 0.0,
			"-0.017": 0.0,
			"-0.016": 0.0,
			"-0.015": 0.0,
			"-0.014": 0.0,
			"-0.013": 0.0,
			"-0.012": 0.0,
			"-0.011": 0.0,
			"-0.01": 0.0,
			"-0.009": 0.012766516943,
			"-0.008": 2.6407341057,
			"-0.007": 6.44350164332,
			"-0.006": 12.4066006992,
			"-0.005": 18.1679664141,
			"-0.004": 23.6570150635,
			"-0.003": 19.7395910532,
			"-0.002": 19.7793085571,
			"-0.001": 17.9669874226,
			"0.0": 20.1806956155,
			"0.001": 17.656608723,
			"0.002": 14.2167827369,
			"0.003": 15.2393673751,
			"0.004": 14.0988550119,
			"0.005": 9.60597636347,
			"0.006": 10.1558764639,
			"0.007": 3.23767576453,
			"0.008": 2.1717478572,
			"0.009": 2.87894974712,
			"0.01": 2.45562194206,
			"0.011": 3.79238620171,
			"0.012": 2.70968938123,
			"0.013": 1.62519778813,
			"0.014": 0.11618189859,
			"0.015": 0.0,
			"0.016": 0.0,
			"0.017": 0.0,
			"0.018": 0.0,
			"0.019": 0.0,
			"0.02": 0.0,
			"0.021": 0.0,
			"0.022": 0.0,
			"0.023": 0.0,
			"0.024": 0.0,
			"0.025": 0.0
		}
	}
}
