{
	 "smiles": "NC(=O)C1=CN(CCC#N)N=C1", 
	 "Tm": 453.15, 
	 "num_atms": 20, 
	 "gaussian": { 
		 "optdone": 1, 
		 "sigma_profile": "yes", 
		 "theory": "DFT", 
		 "functional": "B3LYP", 
		 "basiset": "6-31G**", 
		 "properties": { 
			 "R2extent": 2645.0741, 
			 "electric_dipole_moment_norm": 8.33684898448, 
			 "electric_quadrupole_moment_norm": 5.79723594741, 
			 "total_energy": -565.767573489, 
			 "HOMO_LUMO_gap": 0.2276, 
			 "cosmo_polarized_energy": -29.06, 
			 "cosmo_cavitation_energy": 26.3, 
			 "cosmo_dispersion_energy": -18.08, 
			 "cosmo_repulsion_energy": 1.47, 
			 "cosmo_total_nonelectrostatic_energy": 9.7, 
			 "SMD_solvation_energy": 6.1 
		},
		"coords": [
			{
				"x": -0.8369264532,
				"y": 0.624371394,
				"z": -3.9352020724,
				"element": "N" 
			},
			{
				"x": 0.2677212685,
				"y": 0.9467748258,
				"z": -3.1727341839,
				"element": "C" 
			},
			{
				"x": 1.0425376805,
				"y": 1.8374753336,
				"z": -3.496325767,
				"element": "O" 
			},
			{
				"x": 0.4377070658,
				"y": 0.1794340422,
				"z": -1.9182892568,
				"element": "C" 
			},
			{
				"x": -0.4329853342,
				"y": -0.6673919721,
				"z": -1.2474393468,
				"element": "C" 
			},
			{
				"x": 0.2236522502,
				"y": -1.1086715567,
				"z": -0.1430111851,
				"element": "N" 
			},
			{
				"x": -0.2846336417,
				"y": -1.9528525788,
				"z": 0.9212936974,
				"element": "C" 
			},
			{
				"x": -1.0527409141,
				"y": -1.1800376139,
				"z": 2.0170144414,
				"element": "C" 
			},
			{
				"x": -0.2181081943,
				"y": -0.2780107424,
				"z": 2.8144208781,
				"element": "C" 
			},
			{
				"x": 0.4233229551,
				"y": 0.4307830248,
				"z": 3.4714404288,
				"element": "N" 
			},
			{
				"x": 1.4774222052,
				"y": -0.5932435003,
				"z": -0.0464050512,
				"element": "N" 
			},
			{
				"x": 1.6047478901,
				"y": 0.1855934795,
				"z": -1.1119664682,
				"element": "C" 
			},
			{
				"x": -1.2311376214,
				"y": -0.3022996563,
				"z": -3.8745731932,
				"element": "H" 
			},
			{
				"x": -0.8630741531,
				"y": 1.0604485186,
				"z": -4.8465248073,
				"element": "H" 
			},
			{
				"x": -1.4509237285,
				"y": -0.9658517851,
				"z": -1.4562958237,
				"element": "H" 
			},
			{
				"x": -0.9600667728,
				"y": -2.6935392627,
				"z": 0.4835802857,
				"element": "H" 
			},
			{
				"x": 0.5720252849,
				"y": -2.4745843456,
				"z": 1.3507449753,
				"element": "H" 
			},
			{
				"x": -1.5165156421,
				"y": -1.9067296088,
				"z": 2.6947293009,
				"element": "H" 
			},
			{
				"x": -1.8647719866,
				"y": -0.6000182802,
				"z": 1.5642070192,
				"element": "H" 
			},
			{
				"x": 2.5214478418,
				"y": 0.7272502842,
				"z": -1.2963638714,
				"element": "H" 
			}
		],
		 "valence_orbital": [ 
			{
				"type": "occ",
				"energy": -0.30125,
				"method": "rhf"
			},
			{
				"type": "occ",
				"energy": -0.27608,
				"method": "rhf"
			},
			{
				"type": "occ",
				"energy": -0.26862,
				"method": "rhf"
			},
			{
				"type": "occ",
				"energy": -0.26196,
				"method": "rhf"
			},
			{
				"type": "occ",
				"energy": -0.25216,
				"method": "rhf"
			},
			{
				"type": "unocc",
				"energy": -0.02456,
				"method": "rhf"
			},
			{
				"type": "unocc",
				"energy": 0.00963,
				"method": "rhf"
			},
			{
				"type": "unocc",
				"energy": 0.02233,
				"method": "rhf"
			},
			{
				"type": "unocc",
				"energy": 0.03019,
				"method": "rhf"
			},
			{
				"type": "unocc",
				"energy": 0.06633,
				"method": "rhf"
			}
		],
		"cosmo_sigma_profile": { 
			"-0.025": 0.0,
			"-0.024": 0.0,
			"-0.023": 0.0,
			"-0.022": 0.0,
			"-0.021": 0.0,
			"-0.02": 0.0,
			"-0.019": 0.0,
			"-0.018": 0.0,
			"-0.017": 0.0,
			"-0.016": 0.0,
			"-0.015": 0.118722288967,
			"-0.014": 1.19810505669,
			"-0.013": 2.75565454756,
			"-0.012": 2.6032166277,
			"-0.011": 4.72928612139,
			"-0.01": 6.54580302775,
			"-0.009": 14.3049520706,
			"-0.008": 14.5125498382,
			"-0.007": 12.4290727273,
			"-0.006": 9.97907156185,
			"-0.005": 9.13572970848,
			"-0.004": 5.78118913827,
			"-0.003": 5.50512451466,
			"-0.002": 5.64315825076,
			"-0.001": 7.29229671984,
			"0.0": 7.62373063636,
			"0.001": 10.0215535895,
			"0.002": 9.53699563187,
			"0.003": 8.75819463413,
			"0.004": 7.26861662614,
			"0.005": 6.19026131107,
			"0.006": 6.4465437325,
			"0.007": 5.71091195627,
			"0.008": 7.83388001393,
			"0.009": 7.6488978333,
			"0.01": 6.14651469053,
			"0.011": 5.26322914425,
			"0.012": 5.88810915421,
			"0.013": 7.06431680458,
			"0.014": 5.53792704345,
			"0.015": 0.722518456892,
			"0.016": 0.0,
			"0.017": 0.0,
			"0.018": 0.0,
			"0.019": 0.0,
			"0.02": 0.0,
			"0.021": 0.0,
			"0.022": 0.0,
			"0.023": 0.0,
			"0.024": 0.0,
			"0.025": 0.0
		}
	}
}
