{
	 "smiles": "OC(=O)CC1=CSC(CC2=CC=CC=C2)=N1", 
	 "Tm": 402.15, 
	 "num_atms": 27, 
	 "gaussian": { 
		 "optdone": 1, 
		 "sigma_profile": "yes", 
		 "theory": "DFT", 
		 "functional": "B3LYP", 
		 "basiset": "6-31G**", 
		 "properties": { 
			 "R2extent": 5203.064, 
			 "electric_dipole_moment_norm": 6.38335256742, 
			 "electric_quadrupole_moment_norm": 25.1375071908, 
			 "total_energy": -1067.30860623, 
			 "HOMO_LUMO_gap": 0.1963, 
			 "cosmo_polarized_energy": -14.67, 
			 "cosmo_cavitation_energy": 33.44, 
			 "cosmo_dispersion_energy": -24.03, 
			 "cosmo_repulsion_energy": 1.86, 
			 "cosmo_total_nonelectrostatic_energy": 11.27, 
			 "SMD_solvation_energy": 5.79 
		},
		"coords": [
			{
				"x": 1.047253587,
				"y": -3.1732223881,
				"z": -1.7039602106,
				"element": "O" 
			},
			{
				"x": 0.1433856822,
				"y": -3.9005109217,
				"z": -1.0286480426,
				"element": "C" 
			},
			{
				"x": 0.1347735713,
				"y": -5.1075981075,
				"z": -1.064650375,
				"element": "O" 
			},
			{
				"x": -0.9368724175,
				"y": -3.1073182566,
				"z": -0.2678712789,
				"element": "C" 
			},
			{
				"x": -0.4823613745,
				"y": -1.8339254241,
				"z": 0.3914603839,
				"element": "C" 
			},
			{
				"x": -0.7625078299,
				"y": -1.4207894653,
				"z": 1.6614976428,
				"element": "C" 
			},
			{
				"x": -0.0476455334,
				"y": 0.1316578198,
				"z": 1.9593420486,
				"element": "S" 
			},
			{
				"x": 0.6084029816,
				"y": 0.1214044885,
				"z": 0.3354543132,
				"element": "C" 
			},
			{
				"x": 1.4260345023,
				"y": 1.2593129,
				"z": -0.215401867,
				"element": "C" 
			},
			{
				"x": 0.5982434825,
				"y": 2.4894110582,
				"z": -0.5626436087,
				"element": "C" 
			},
			{
				"x": -0.3883948313,
				"y": 2.4204529176,
				"z": -1.5559726519,
				"element": "C" 
			},
			{
				"x": -1.1439353838,
				"y": 3.5455109799,
				"z": -1.8821442536,
				"element": "C" 
			},
			{
				"x": -0.9247055832,
				"y": 4.7556510154,
				"z": -1.2183031573,
				"element": "C" 
			},
			{
				"x": 0.0546003971,
				"y": 4.8325903784,
				"z": -0.2282897678,
				"element": "C" 
			},
			{
				"x": 0.8110564719,
				"y": 3.7041274725,
				"z": 0.0973170139,
				"element": "C" 
			},
			{
				"x": 0.2917710763,
				"y": -0.9497046679,
				"z": -0.3421488154,
				"element": "N" 
			},
			{
				"x": 0.9284977987,
				"y": -2.2168276005,
				"z": -1.4952085529,
				"element": "H" 
			},
			{
				"x": -1.385659121,
				"y": -3.7872575105,
				"z": 0.4568493262,
				"element": "H" 
			},
			{
				"x": -1.7134195164,
				"y": -2.8696594768,
				"z": -1.0096185023,
				"element": "H" 
			},
			{
				"x": -1.335372508,
				"y": -1.9309006951,
				"z": 2.4224732022,
				"element": "H" 
			},
			{
				"x": 1.9284091388,
				"y": 0.8746574536,
				"z": -1.1091772201,
				"element": "H" 
			},
			{
				"x": 2.2067385012,
				"y": 1.5329925678,
				"z": 0.5019048268,
				"element": "H" 
			},
			{
				"x": -0.5631198125,
				"y": 1.4796137721,
				"z": -2.0714817685,
				"element": "H" 
			},
			{
				"x": -1.9034922548,
				"y": 3.479027835,
				"z": -2.6558433343,
				"element": "H" 
			},
			{
				"x": -1.5131664175,
				"y": 5.6320720018,
				"z": -1.4734912369,
				"element": "H" 
			},
			{
				"x": 0.2328458635,
				"y": 5.7693978936,
				"z": 0.2918002793,
				"element": "H" 
			},
			{
				"x": 1.5759395294,
				"y": 3.7709339598,
				"z": 0.8672556068,
				"element": "H" 
			}
		],
		 "valence_orbital": [ 
			{
				"type": "occ",
				"energy": -0.29441,
				"method": "rhf"
			},
			{
				"type": "occ",
				"energy": -0.27209,
				"method": "rhf"
			},
			{
				"type": "occ",
				"energy": -0.26152,
				"method": "rhf"
			},
			{
				"type": "occ",
				"energy": -0.25628,
				"method": "rhf"
			},
			{
				"type": "occ",
				"energy": -0.24387,
				"method": "rhf"
			},
			{
				"type": "unocc",
				"energy": -0.04757,
				"method": "rhf"
			},
			{
				"type": "unocc",
				"energy": -0.01814,
				"method": "rhf"
			},
			{
				"type": "unocc",
				"energy": -0.0105,
				"method": "rhf"
			},
			{
				"type": "unocc",
				"energy": 0.00326,
				"method": "rhf"
			},
			{
				"type": "unocc",
				"energy": 0.01889,
				"method": "rhf"
			}
		],
		"cosmo_sigma_profile": { 
			"-0.025": 0.0,
			"-0.024": 0.0,
			"-0.023": 0.0,
			"-0.022": 0.0,
			"-0.021": 0.0,
			"-0.02": 0.0,
			"-0.019": 0.0,
			"-0.018": 0.0,
			"-0.017": 0.0,
			"-0.016": 0.0,
			"-0.015": 0.0,
			"-0.014": 0.0,
			"-0.013": 0.0,
			"-0.012": 0.0,
			"-0.011": 0.0,
			"-0.01": 0.405140046362,
			"-0.009": 2.34245611347,
			"-0.008": 5.17502323254,
			"-0.007": 9.7839961965,
			"-0.006": 15.9975120965,
			"-0.005": 20.265537491,
			"-0.004": 21.8857072232,
			"-0.003": 24.3167062188,
			"-0.002": 18.1247611689,
			"-0.001": 18.4851936127,
			"0.0": 18.8847408504,
			"0.001": 21.6503204651,
			"0.002": 20.4691577169,
			"0.003": 14.0966659833,
			"0.004": 10.7182292426,
			"0.005": 11.2550717361,
			"0.006": 8.37332306519,
			"0.007": 1.72365855563,
			"0.008": 2.35360209181,
			"0.009": 3.05399353357,
			"0.01": 4.02894132052,
			"0.011": 5.1906137874,
			"0.012": 6.69364491125,
			"0.013": 3.71811478623,
			"0.014": 0.585392653014,
			"0.015": 0.0,
			"0.016": 0.0,
			"0.017": 0.0,
			"0.018": 0.0,
			"0.019": 0.0,
			"0.02": 0.0,
			"0.021": 0.0,
			"0.022": 0.0,
			"0.023": 0.0,
			"0.024": 0.0,
			"0.025": 0.0
		}
	}
}
