{
	 "smiles": "COC1=C2O[C@H]3[C@@H](O)C=C[C@H]4[C@H]5CC(C=C1)=C2[C@@]34CC[N+]5(C)[O-]", 
	 "Tm": 505.15, 
	 "num_atms": 44, 
	 "gaussian": { 
		 "optdone": 1, 
		 "sigma_profile": "yes", 
		 "theory": "DFT", 
		 "functional": "B3LYP", 
		 "basiset": "6-31G**", 
		 "properties": { 
			 "R2extent": 6353.1595, 
			 "electric_dipole_moment_norm": 4.24063527552, 
			 "electric_quadrupole_moment_norm": 14.9241656802, 
			 "total_energy": -1054.08202766, 
			 "HOMO_LUMO_gap": 0.19068, 
			 "cosmo_polarized_energy": -22.2, 
			 "cosmo_cavitation_energy": 40.75, 
			 "cosmo_dispersion_energy": -29.14, 
			 "cosmo_repulsion_energy": 2.15, 
			 "cosmo_total_nonelectrostatic_energy": 13.76, 
			 "SMD_solvation_energy": 7.98 
		},
		"coords": [
			{
				"x": -0.841489523,
				"y": 4.6978073769,
				"z": -1.2125424149,
				"element": "C" 
			},
			{
				"x": -2.0353067506,
				"y": 3.9849362369,
				"z": -0.880638871,
				"element": "O" 
			},
			{
				"x": -1.9597599633,
				"y": 2.6187325999,
				"z": -0.8797014212,
				"element": "C" 
			},
			{
				"x": -0.9323606609,
				"y": 1.8679697365,
				"z": -0.301658238,
				"element": "C" 
			},
			{
				"x": 0.1427618649,
				"y": 2.3443563285,
				"z": 0.4176586167,
				"element": "O" 
			},
			{
				"x": 0.793159526,
				"y": 1.191899809,
				"z": 1.0673649728,
				"element": "C" 
			},
			{
				"x": 0.4708524801,
				"y": 1.2262570324,
				"z": 2.5872245026,
				"element": "C" 
			},
			{
				"x": 0.4206377463,
				"y": 2.5596795234,
				"z": 3.0590045749,
				"element": "O" 
			},
			{
				"x": -0.7554801266,
				"y": 0.4168624968,
				"z": 2.9582060647,
				"element": "C" 
			},
			{
				"x": -1.0420548926,
				"y": -0.7453077757,
				"z": 2.3637072418,
				"element": "C" 
			},
			{
				"x": -0.1881784093,
				"y": -1.2493389091,
				"z": 1.229555941,
				"element": "C" 
			},
			{
				"x": -0.8862644919,
				"y": -2.2708359355,
				"z": 0.3029463179,
				"element": "C" 
			},
			{
				"x": -2.1279878786,
				"y": -1.7157826299,
				"z": -0.440438162,
				"element": "C" 
			},
			{
				"x": -2.0603926147,
				"y": -0.236424591,
				"z": -0.771625638,
				"element": "C" 
			},
			{
				"x": -3.1125251932,
				"y": 0.501250515,
				"z": -1.3396574868,
				"element": "C" 
			},
			{
				"x": -3.0370074121,
				"y": 1.8930413919,
				"z": -1.420324716,
				"element": "C" 
			},
			{
				"x": -0.9607423714,
				"y": 0.4838271706,
				"z": -0.3355690062,
				"element": "C" 
			},
			{
				"x": 0.272414953,
				"y": -0.0726246929,
				"z": 0.3322423097,
				"element": "C" 
			},
			{
				"x": 1.3037915233,
				"y": -0.6001306321,
				"z": -0.6950039366,
				"element": "C" 
			},
			{
				"x": 0.7458342406,
				"y": -1.7453448509,
				"z": -1.5296094386,
				"element": "C" 
			},
			{
				"x": 0.2296879767,
				"y": -2.8416187761,
				"z": -0.6161056585,
				"element": "N" 
			},
			{
				"x": -0.2831981326,
				"y": -3.983910818,
				"z": -1.4399536689,
				"element": "C" 
			},
			{
				"x": 1.2459700671,
				"y": -3.3161042058,
				"z": 0.1546776847,
				"element": "O" 
			},
			{
				"x": -1.113809414,
				"y": 5.754825314,
				"z": -1.2134268718,
				"element": "H" 
			},
			{
				"x": -0.0445949845,
				"y": 4.5231781395,
				"z": -0.4840357074,
				"element": "H" 
			},
			{
				"x": -0.4832607755,
				"y": 4.4159407979,
				"z": -2.2110462112,
				"element": "H" 
			},
			{
				"x": 1.8636569323,
				"y": 1.3530165294,
				"z": 0.9216202729,
				"element": "H" 
			},
			{
				"x": 1.3331527641,
				"y": 0.7663285035,
				"z": 3.0928720786,
				"element": "H" 
			},
			{
				"x": -0.0631668124,
				"y": 3.0609741152,
				"z": 2.3852464817,
				"element": "H" 
			},
			{
				"x": -1.3373784412,
				"y": 0.7945044134,
				"z": 3.7949235822,
				"element": "H" 
			},
			{
				"x": -1.8847465056,
				"y": -1.346972419,
				"z": 2.7001733574,
				"element": "H" 
			},
			{
				"x": 0.6853359419,
				"y": -1.7936753479,
				"z": 1.6100373845,
				"element": "H" 
			},
			{
				"x": -1.1686909079,
				"y": -3.1479703311,
				"z": 0.8903510563,
				"element": "H" 
			},
			{
				"x": -2.9863119079,
				"y": -1.8693501576,
				"z": 0.2271760297,
				"element": "H" 
			},
			{
				"x": -2.3542910905,
				"y": -2.3182026543,
				"z": -1.3266641288,
				"element": "H" 
			},
			{
				"x": -4.0017894165,
				"y": -0.0050167159,
				"z": -1.706478588,
				"element": "H" 
			},
			{
				"x": -3.8458201917,
				"y": 2.465920988,
				"z": -1.8628703744,
				"element": "H" 
			},
			{
				"x": 2.1846923837,
				"y": -0.9680350816,
				"z": -0.1615638731,
				"element": "H" 
			},
			{
				"x": 1.6136233311,
				"y": 0.2069876779,
				"z": -1.3684990839,
				"element": "H" 
			},
			{
				"x": -0.0616893781,
				"y": -1.41066086,
				"z": -2.1887800606,
				"element": "H" 
			},
			{
				"x": 1.5306206331,
				"y": -2.2163466077,
				"z": -2.1237349933,
				"element": "H" 
			},
			{
				"x": -1.0485448202,
				"y": -3.6825421312,
				"z": -2.1597769891,
				"element": "H" 
			},
			{
				"x": -0.6689293479,
				"y": -4.7295074208,
				"z": -0.745281293,
				"element": "H" 
			},
			{
				"x": 0.5870800508,
				"y": -4.3914931524,
				"z": -1.952001639,
				"element": "H" 
			}
		],
		 "valence_orbital": [ 
			{
				"type": "occ",
				"energy": -0.25267,
				"method": "rhf"
			},
			{
				"type": "occ",
				"energy": -0.23017,
				"method": "rhf"
			},
			{
				"type": "occ",
				"energy": -0.21277,
				"method": "rhf"
			},
			{
				"type": "occ",
				"energy": -0.19679,
				"method": "rhf"
			},
			{
				"type": "occ",
				"energy": -0.19428,
				"method": "rhf"
			},
			{
				"type": "unocc",
				"energy": -0.0036,
				"method": "rhf"
			},
			{
				"type": "unocc",
				"energy": -0.00257,
				"method": "rhf"
			},
			{
				"type": "unocc",
				"energy": 0.01655,
				"method": "rhf"
			},
			{
				"type": "unocc",
				"energy": 0.06527,
				"method": "rhf"
			},
			{
				"type": "unocc",
				"energy": 0.06879,
				"method": "rhf"
			}
		],
		"cosmo_sigma_profile": { 
			"-0.025": 0.0,
			"-0.024": 0.0,
			"-0.023": 0.0,
			"-0.022": 0.0,
			"-0.021": 0.0,
			"-0.02": 0.0,
			"-0.019": 0.0,
			"-0.018": 0.0,
			"-0.017": 0.0,
			"-0.016": 0.0,
			"-0.015": 0.0,
			"-0.014": 0.0,
			"-0.013": 0.0,
			"-0.012": 0.120662729014,
			"-0.011": 0.585067789261,
			"-0.01": 0.713426899123,
			"-0.009": 1.38596164719,
			"-0.008": 2.35906831756,
			"-0.007": 5.32921374233,
			"-0.006": 25.0655664399,
			"-0.005": 34.4089902169,
			"-0.004": 35.4762339009,
			"-0.003": 39.4782980789,
			"-0.002": 25.6270716175,
			"-0.001": 18.9188310875,
			"0.0": 13.0911199359,
			"0.001": 13.8429869672,
			"0.002": 13.6042896668,
			"0.003": 12.9866717828,
			"0.004": 13.7966877455,
			"0.005": 12.3962407926,
			"0.006": 9.35707515563,
			"0.007": 4.81522475357,
			"0.008": 4.01743512222,
			"0.009": 3.97939551088,
			"0.01": 3.16455951567,
			"0.011": 3.64414709184,
			"0.012": 2.957814081,
			"0.013": 2.83859580225,
			"0.014": 3.27896101215,
			"0.015": 1.44841831543,
			"0.016": 2.70604461296,
			"0.017": 2.45542186781,
			"0.018": 2.52954301491,
			"0.019": 1.99660447857,
			"0.02": 0.136094195204,
			"0.021": 0.0,
			"0.022": 0.0,
			"0.023": 0.0,
			"0.024": 0.0,
			"0.025": 0.0
		}
	}
}
