{
	 "smiles": "FC(C(F)C(F)(F)C(F)(F)F)C(F)(F)F", 
	 "Tm": 193.15, 
	 "num_atms": 17, 
	 "gaussian": { 
		 "optdone": 1, 
		 "sigma_profile": "yes", 
		 "theory": "DFT", 
		 "functional": "B3LYP", 
		 "basiset": "6-31G**", 
		 "properties": { 
			 "R2extent": 4417.1276, 
			 "electric_dipole_moment_norm": 0.369443608687, 
			 "electric_quadrupole_moment_norm": 5.36215636288, 
			 "total_energy": -1190.11491556, 
			 "HOMO_LUMO_gap": 0.36951, 
			 "cosmo_polarized_energy": -4.56, 
			 "cosmo_cavitation_energy": 25.35, 
			 "cosmo_dispersion_energy": -16.89, 
			 "cosmo_repulsion_energy": 1.14, 
			 "cosmo_total_nonelectrostatic_energy": 9.6, 
			 "SMD_solvation_energy": 7.87 
		},
		"coords": [
			{
				"x": -1.8085946645,
				"y": -0.0624379558,
				"z": -2.9083426193,
				"element": "F" 
			},
			{
				"x": -0.5463879428,
				"y": -0.1143105294,
				"z": -2.3481394407,
				"element": "C" 
			},
			{
				"x": -0.5514266129,
				"y": -1.2407460537,
				"z": -1.3101745438,
				"element": "C" 
			},
			{
				"x": 0.7512643473,
				"y": -1.5551557588,
				"z": -0.9807844044,
				"element": "F" 
			},
			{
				"x": -1.2359699879,
				"y": -0.8714853173,
				"z": 0.0148698929,
				"element": "C" 
			},
			{
				"x": -1.1088568027,
				"y": -1.931559914,
				"z": 0.8514414173,
				"element": "F" 
			},
			{
				"x": -0.5980743652,
				"y": 0.1949503794,
				"z": 0.5689752447,
				"element": "F" 
			},
			{
				"x": -2.7406185148,
				"y": -0.5240266407,
				"z": -0.0579059806,
				"element": "C" 
			},
			{
				"x": -3.3880043181,
				"y": -1.4352977647,
				"z": -0.8035816385,
				"element": "F" 
			},
			{
				"x": -3.2656963002,
				"y": -0.523402334,
				"z": 1.1716029218,
				"element": "F" 
			},
			{
				"x": -2.9173513298,
				"y": 0.6896053872,
				"z": -0.5976602801,
				"element": "F" 
			},
			{
				"x": 0.4502451214,
				"y": -0.3675634068,
				"z": -3.4852390696,
				"element": "C" 
			},
			{
				"x": 0.3388448271,
				"y": -1.6204711284,
				"z": -3.9647200011,
				"element": "F" 
			},
			{
				"x": 1.7097236027,
				"y": -0.1809374776,
				"z": -3.0629560164,
				"element": "F" 
			},
			{
				"x": 0.2100806925,
				"y": 0.4878685116,
				"z": -4.4913804318,
				"element": "F" 
			},
			{
				"x": -0.3075535746,
				"y": 0.85102554,
				"z": -1.8919301816,
				"element": "H" 
			},
			{
				"x": -1.0429241777,
				"y": -2.1182555371,
				"z": -1.739874869,
				"element": "H" 
			}
		],
		 "valence_orbital": [ 
			{
				"type": "occ",
				"energy": -0.41948,
				"method": "rhf"
			},
			{
				"type": "occ",
				"energy": -0.40499,
				"method": "rhf"
			},
			{
				"type": "occ",
				"energy": -0.37993,
				"method": "rhf"
			},
			{
				"type": "occ",
				"energy": -0.37128,
				"method": "rhf"
			},
			{
				"type": "occ",
				"energy": -0.35667,
				"method": "rhf"
			},
			{
				"type": "unocc",
				"energy": 0.01284,
				"method": "rhf"
			},
			{
				"type": "unocc",
				"energy": 0.05996,
				"method": "rhf"
			},
			{
				"type": "unocc",
				"energy": 0.08157,
				"method": "rhf"
			},
			{
				"type": "unocc",
				"energy": 0.09243,
				"method": "rhf"
			},
			{
				"type": "unocc",
				"energy": 0.10914,
				"method": "rhf"
			}
		],
		"cosmo_sigma_profile": { 
			"-0.025": 0.0,
			"-0.024": 0.0,
			"-0.023": 0.0,
			"-0.022": 0.0,
			"-0.021": 0.0,
			"-0.02": 0.0,
			"-0.019": 0.0,
			"-0.018": 0.0,
			"-0.017": 0.0,
			"-0.016": 0.0,
			"-0.015": 0.0,
			"-0.014": 0.0,
			"-0.013": 0.0,
			"-0.012": 0.315623180175,
			"-0.011": 2.07726264679,
			"-0.01": 3.47566846474,
			"-0.009": 3.16598610036,
			"-0.008": 3.27128269935,
			"-0.007": 3.90004102964,
			"-0.006": 3.46261493872,
			"-0.005": 3.35951040308,
			"-0.004": 4.06165937632,
			"-0.003": 4.64077601981,
			"-0.002": 7.85947407151,
			"-0.001": 13.6154607354,
			"0.0": 20.2387090127,
			"0.001": 49.2620335665,
			"0.002": 55.1046847423,
			"0.003": 21.0218313318,
			"0.004": 4.05788553575,
			"0.005": 0.0,
			"0.006": 0.0,
			"0.007": 0.0,
			"0.008": 0.0,
			"0.009": 0.0,
			"0.01": 0.0,
			"0.011": 0.0,
			"0.012": 0.0,
			"0.013": 0.0,
			"0.014": 0.0,
			"0.015": 0.0,
			"0.016": 0.0,
			"0.017": 0.0,
			"0.018": 0.0,
			"0.019": 0.0,
			"0.02": 0.0,
			"0.021": 0.0,
			"0.022": 0.0,
			"0.023": 0.0,
			"0.024": 0.0,
			"0.025": 0.0
		}
	}
}
