{
	 "smiles": "CCOC(=O)NN(C(=O)OCC)C1=C(N=C2SCCN12)C1=CC=CC=C1", 
	 "Tm": 453.15, 
	 "num_atms": 46, 
	 "gaussian": { 
		 "optdone": 1, 
		 "sigma_profile": "yes", 
		 "theory": "DFT", 
		 "functional": "B3LYP", 
		 "basiset": "6-31G**", 
		 "properties": { 
			 "R2extent": 9907.1347, 
			 "electric_dipole_moment_norm": 2.57546629953, 
			 "electric_quadrupole_moment_norm": 31.2374713865, 
			 "total_energy": -1577.95553364, 
			 "HOMO_LUMO_gap": 0.17466, 
			 "cosmo_polarized_energy": -22.54, 
			 "cosmo_cavitation_energy": 51.23, 
			 "cosmo_dispersion_energy": -33.16, 
			 "cosmo_repulsion_energy": 2.56, 
			 "cosmo_total_nonelectrostatic_energy": 20.63, 
			 "SMD_solvation_energy": 8.85 
		},
		"coords": [
			{
				"x": -3.1861474641,
				"y": -1.607623489,
				"z": 0.996352524,
				"element": "C" 
			},
			{
				"x": -2.895269291,
				"y": -1.3842333517,
				"z": -0.4748843658,
				"element": "C" 
			},
			{
				"x": -1.5360671285,
				"y": -0.8860404609,
				"z": -0.5857375995,
				"element": "O" 
			},
			{
				"x": -0.9816206452,
				"y": -0.9851495942,
				"z": -1.8008068864,
				"element": "C" 
			},
			{
				"x": -1.4995878045,
				"y": -1.4488617257,
				"z": -2.7942155589,
				"element": "O" 
			},
			{
				"x": 0.3585047671,
				"y": -0.5721951113,
				"z": -1.8028724908,
				"element": "N" 
			},
			{
				"x": 0.8404683526,
				"y": 0.3209731087,
				"z": -0.8333616753,
				"element": "N" 
			},
			{
				"x": 0.7818037332,
				"y": 1.6724365337,
				"z": -1.1750604982,
				"element": "C" 
			},
			{
				"x": 0.2211577235,
				"y": 2.0667366622,
				"z": -2.1806087526,
				"element": "O" 
			},
			{
				"x": 1.4134528496,
				"y": 2.4283303351,
				"z": -0.2673981345,
				"element": "O" 
			},
			{
				"x": 1.3810415445,
				"y": 3.8602194778,
				"z": -0.498382869,
				"element": "C" 
			},
			{
				"x": 2.5095549122,
				"y": 4.2962997157,
				"z": -1.4184531057,
				"element": "C" 
			},
			{
				"x": 1.5413216966,
				"y": -0.2205583927,
				"z": 0.2555546277,
				"element": "C" 
			},
			{
				"x": 1.4005550801,
				"y": -0.1167537296,
				"z": 1.6348843095,
				"element": "C" 
			},
			{
				"x": 2.418836562,
				"y": -0.8321551616,
				"z": 2.2595714254,
				"element": "N" 
			},
			{
				"x": 3.1215361516,
				"y": -1.3506107664,
				"z": 1.2899776122,
				"element": "C" 
			},
			{
				"x": 4.472175027,
				"y": -2.4927792351,
				"z": 1.2408116231,
				"element": "S" 
			},
			{
				"x": 4.6573226415,
				"y": -2.1392177351,
				"z": -0.5717558468,
				"element": "C" 
			},
			{
				"x": 3.2765090161,
				"y": -1.6805794409,
				"z": -1.0856296058,
				"element": "C" 
			},
			{
				"x": 2.6785649193,
				"y": -0.9980724218,
				"z": 0.0506373383,
				"element": "N" 
			},
			{
				"x": 0.4427121315,
				"y": 0.6413044696,
				"z": 2.4558413421,
				"element": "C" 
			},
			{
				"x": 0.6969979435,
				"y": 0.7808543689,
				"z": 3.832230297,
				"element": "C" 
			},
			{
				"x": -0.1769803249,
				"y": 1.4920659037,
				"z": 4.6513224391,
				"element": "C" 
			},
			{
				"x": -1.3249695137,
				"y": 2.0807940667,
				"z": 4.1172106349,
				"element": "C" 
			},
			{
				"x": -1.5918810285,
				"y": 1.9421669503,
				"z": 2.7534262888,
				"element": "C" 
			},
			{
				"x": -0.7208788808,
				"y": 1.2303513888,
				"z": 1.9292133304,
				"element": "C" 
			},
			{
				"x": -3.0664569809,
				"y": -0.6851125878,
				"z": 1.57004918,
				"element": "H" 
			},
			{
				"x": -4.2155443228,
				"y": -1.9607254605,
				"z": 1.1146022585,
				"element": "H" 
			},
			{
				"x": -2.51281966,
				"y": -2.3599618695,
				"z": 1.4163289201,
				"element": "H" 
			},
			{
				"x": -2.9769686232,
				"y": -2.3030008779,
				"z": -1.0604299026,
				"element": "H" 
			},
			{
				"x": -3.5671081567,
				"y": -0.6420377052,
				"z": -0.9187314899,
				"element": "H" 
			},
			{
				"x": 0.6429174655,
				"y": -0.3160532748,
				"z": -2.74231218,
				"element": "H" 
			},
			{
				"x": 0.4057965638,
				"y": 4.1261810015,
				"z": -0.9118016852,
				"element": "H" 
			},
			{
				"x": 1.4830681218,
				"y": 4.2893217004,
				"z": 0.5002715741,
				"element": "H" 
			},
			{
				"x": 2.3799026226,
				"y": 3.867880114,
				"z": -2.4154898038,
				"element": "H" 
			},
			{
				"x": 2.5086767535,
				"y": 5.3873311168,
				"z": -1.5121486695,
				"element": "H" 
			},
			{
				"x": 3.4800088258,
				"y": 3.9874735803,
				"z": -1.0189721162,
				"element": "H" 
			},
			{
				"x": 5.0001650113,
				"y": -3.0424770646,
				"z": -1.0773871348,
				"element": "H" 
			},
			{
				"x": 5.4021917455,
				"y": -1.3499414234,
				"z": -0.6977586162,
				"element": "H" 
			},
			{
				"x": 3.3826433408,
				"y": -1.0060587583,
				"z": -1.9398002102,
				"element": "H" 
			},
			{
				"x": 2.6518824457,
				"y": -2.5293708152,
				"z": -1.3875426893,
				"element": "H" 
			},
			{
				"x": 1.5890938056,
				"y": 0.3209530265,
				"z": 4.2418529212,
				"element": "H" 
			},
			{
				"x": 0.0414610548,
				"y": 1.5882778736,
				"z": 5.7114114092,
				"element": "H" 
			},
			{
				"x": -2.004827429,
				"y": 2.6382048048,
				"z": 4.7553494323,
				"element": "H" 
			},
			{
				"x": -2.4852200234,
				"y": 2.3899171428,
				"z": 2.3258416361,
				"element": "H" 
			},
			{
				"x": -0.9643755311,
				"y": 1.1057971113,
				"z": 0.8819007632,
				"element": "H" 
			}
		],
		 "valence_orbital": [ 
			{
				"type": "occ",
				"energy": -0.27388,
				"method": "rhf"
			},
			{
				"type": "occ",
				"energy": -0.25922,
				"method": "rhf"
			},
			{
				"type": "occ",
				"energy": -0.24143,
				"method": "rhf"
			},
			{
				"type": "occ",
				"energy": -0.23858,
				"method": "rhf"
			},
			{
				"type": "occ",
				"energy": -0.19508,
				"method": "rhf"
			},
			{
				"type": "unocc",
				"energy": -0.02042,
				"method": "rhf"
			},
			{
				"type": "unocc",
				"energy": -2e-05,
				"method": "rhf"
			},
			{
				"type": "unocc",
				"energy": 0.00799,
				"method": "rhf"
			},
			{
				"type": "unocc",
				"energy": 0.0227,
				"method": "rhf"
			},
			{
				"type": "unocc",
				"energy": 0.03256,
				"method": "rhf"
			}
		],
		"cosmo_sigma_profile": { 
			"-0.025": 0.0,
			"-0.024": 0.0,
			"-0.023": 0.0,
			"-0.022": 0.0,
			"-0.021": 0.0,
			"-0.02": 0.0,
			"-0.019": 0.0,
			"-0.018": 0.0,
			"-0.017": 0.0,
			"-0.016": 0.0,
			"-0.015": 0.126806920383,
			"-0.014": 0.574410427088,
			"-0.013": 0.699636683244,
			"-0.012": 1.01086612098,
			"-0.011": 0.96680387654,
			"-0.01": 1.47529601031,
			"-0.009": 2.08375056405,
			"-0.008": 6.60497390403,
			"-0.007": 12.3315018367,
			"-0.006": 18.0935740242,
			"-0.005": 28.3016721647,
			"-0.004": 40.3392855297,
			"-0.003": 36.6332176704,
			"-0.002": 30.9311374359,
			"-0.001": 31.860742558,
			"0.0": 31.9197517891,
			"0.001": 23.0186381984,
			"0.002": 19.8204560705,
			"0.003": 19.9649817144,
			"0.004": 20.6536922034,
			"0.005": 21.7979145835,
			"0.006": 17.7200369223,
			"0.007": 9.54214074676,
			"0.008": 5.10459688022,
			"0.009": 4.41041327574,
			"0.01": 4.53477561854,
			"0.011": 7.22740459537,
			"0.012": 9.23961987183,
			"0.013": 1.35205110366,
			"0.014": 0.638424185071,
			"0.015": 0.0506719798358,
			"0.016": 0.0,
			"0.017": 0.0,
			"0.018": 0.0,
			"0.019": 0.0,
			"0.02": 0.0,
			"0.021": 0.0,
			"0.022": 0.0,
			"0.023": 0.0,
			"0.024": 0.0,
			"0.025": 0.0
		}
	}
}
