{
	 "smiles": "NC(CCl)=NO", 
	 "Tm": 358.15, 
	 "num_atms": 11, 
	 "gaussian": { 
		 "optdone": 1, 
		 "sigma_profile": "yes", 
		 "theory": "DFT", 
		 "functional": "B3LYP", 
		 "basiset": "6-31G**", 
		 "properties": { 
			 "R2extent": 1323.4053, 
			 "electric_dipole_moment_norm": 1.21424134751, 
			 "electric_quadrupole_moment_norm": 8.870596963, 
			 "total_energy": -724.095243454, 
			 "HOMO_LUMO_gap": 0.21477, 
			 "cosmo_polarized_energy": -10.03, 
			 "cosmo_cavitation_energy": 16.76, 
			 "cosmo_dispersion_energy": -12.87, 
			 "cosmo_repulsion_energy": 1.15, 
			 "cosmo_total_nonelectrostatic_energy": 5.04, 
			 "SMD_solvation_energy": 2.71 
		},
		"coords": [
			{
				"x": -1.4787595183,
				"y": -0.3361543907,
				"z": 0.0057503272,
				"element": "N" 
			},
			{
				"x": -0.4971744608,
				"y": 0.1241271986,
				"z": 0.8505882624,
				"element": "C" 
			},
			{
				"x": 0.0562367706,
				"y": -0.8102728236,
				"z": 1.8795760772,
				"element": "C" 
			},
			{
				"x": -1.2375979957,
				"y": -1.3873571745,
				"z": 3.0404791089,
				"element": "Cl" 
			},
			{
				"x": 0.0746348253,
				"y": 1.2792476678,
				"z": 0.7858175975,
				"element": "N" 
			},
			{
				"x": -0.5057163706,
				"y": 2.0322221023,
				"z": -0.2686619835,
				"element": "O" 
			},
			{
				"x": -2.1081944729,
				"y": -1.0215113955,
				"z": 0.4003810606,
				"element": "H" 
			},
			{
				"x": -1.9285318287,
				"y": 0.3913048475,
				"z": -0.5338548131,
				"element": "H" 
			},
			{
				"x": 0.4591661392,
				"y": -1.7159719188,
				"z": 1.4236384558,
				"element": "H" 
			},
			{
				"x": 0.8183286228,
				"y": -0.3015792048,
				"z": 2.4651914492,
				"element": "H" 
			},
			{
				"x": -0.0409917111,
				"y": 2.8747450917,
				"z": -0.1948055423,
				"element": "H" 
			}
		],
		 "valence_orbital": [ 
			{
				"type": "occ",
				"energy": -0.32605,
				"method": "rhf"
			},
			{
				"type": "occ",
				"energy": -0.30633,
				"method": "rhf"
			},
			{
				"type": "occ",
				"energy": -0.30442,
				"method": "rhf"
			},
			{
				"type": "occ",
				"energy": -0.28354,
				"method": "rhf"
			},
			{
				"type": "occ",
				"energy": -0.225,
				"method": "rhf"
			},
			{
				"type": "unocc",
				"energy": -0.01023,
				"method": "rhf"
			},
			{
				"type": "unocc",
				"energy": 0.04825,
				"method": "rhf"
			},
			{
				"type": "unocc",
				"energy": 0.07097,
				"method": "rhf"
			},
			{
				"type": "unocc",
				"energy": 0.10115,
				"method": "rhf"
			},
			{
				"type": "unocc",
				"energy": 0.13501,
				"method": "rhf"
			}
		],
		"cosmo_sigma_profile": { 
			"-0.025": 0.0,
			"-0.024": 0.0,
			"-0.023": 0.0,
			"-0.022": 0.0,
			"-0.021": 0.0,
			"-0.02": 0.0,
			"-0.019": 0.0,
			"-0.018": 0.0850837758629,
			"-0.017": 0.65990496578,
			"-0.016": 1.01356623669,
			"-0.015": 0.863550023148,
			"-0.014": 1.03731102642,
			"-0.013": 0.917516353432,
			"-0.012": 1.96994290231,
			"-0.011": 2.32664853393,
			"-0.01": 2.90095448693,
			"-0.009": 3.07177082814,
			"-0.008": 5.35265397674,
			"-0.007": 8.00053407507,
			"-0.006": 5.89208002414,
			"-0.005": 4.8621885824,
			"-0.004": 4.09150264798,
			"-0.003": 5.19541611222,
			"-0.002": 3.71578552312,
			"-0.001": 5.14537320455,
			"0.0": 6.24649514239,
			"0.001": 6.88198621248,
			"0.002": 7.20347214523,
			"0.003": 8.63578830909,
			"0.004": 7.4107970573,
			"0.005": 9.24875716346,
			"0.006": 12.0146850158,
			"0.007": 4.89213333166,
			"0.008": 3.87907104391,
			"0.009": 3.44050831283,
			"0.01": 2.7664225475,
			"0.011": 1.86001790268,
			"0.012": 1.17567687738,
			"0.013": 0.957755711872,
			"0.014": 0.524369162528,
			"0.015": 0.0,
			"0.016": 0.0,
			"0.017": 0.0,
			"0.018": 0.0,
			"0.019": 0.0,
			"0.02": 0.0,
			"0.021": 0.0,
			"0.022": 0.0,
			"0.023": 0.0,
			"0.024": 0.0,
			"0.025": 0.0
		}
	}
}
