{
	 "smiles": "CCCCCCCCCCCCCC(C)=C", 
	 "Tm": 266.15, 
	 "num_atms": 48, 
	 "gaussian": { 
		 "optdone": 1, 
		 "sigma_profile": "yes", 
		 "theory": "DFT", 
		 "functional": "B3LYP", 
		 "basiset": "6-31G**", 
		 "properties": { 
			 "R2extent": 5711.2042, 
			 "electric_dipole_moment_norm": 0.582498223173, 
			 "electric_quadrupole_moment_norm": 2.59849522609, 
			 "total_energy": -629.013499329, 
			 "HOMO_LUMO_gap": 0.26551, 
			 "cosmo_polarized_energy": -2.22, 
			 "cosmo_cavitation_energy": 46.76, 
			 "cosmo_dispersion_energy": -28.62, 
			 "cosmo_repulsion_energy": 2.26, 
			 "cosmo_total_nonelectrostatic_energy": 20.4, 
			 "SMD_solvation_energy": 6.65 
		},
		"coords": [
			{
				"x": -1.7246696041,
				"y": 0.9335953053,
				"z": -2.171571028,
				"element": "C" 
			},
			{
				"x": -1.9903123645,
				"y": -0.1297985944,
				"z": -1.0999796197,
				"element": "C" 
			},
			{
				"x": -3.0652264802,
				"y": 0.2527671524,
				"z": -0.0681306911,
				"element": "C" 
			},
			{
				"x": -2.7599923946,
				"y": 1.4952278424,
				"z": 0.789945044,
				"element": "C" 
			},
			{
				"x": -1.4702855458,
				"y": 1.4328985286,
				"z": 1.6279602848,
				"element": "C" 
			},
			{
				"x": -1.4346540359,
				"y": 0.2914234476,
				"z": 2.6551213037,
				"element": "C" 
			},
			{
				"x": -0.2515752669,
				"y": 0.3572078846,
				"z": 3.6379070019,
				"element": "C" 
			},
			{
				"x": 1.1531749843,
				"y": 0.2674150118,
				"z": 3.0142874736,
				"element": "C" 
			},
			{
				"x": 1.4358008784,
				"y": -1.0470423388,
				"z": 2.2709369133,
				"element": "C" 
			},
			{
				"x": 2.905704232,
				"y": -1.2368486216,
				"z": 1.8548730969,
				"element": "C" 
			},
			{
				"x": 3.471313473,
				"y": -0.1857893253,
				"z": 0.8809107652,
				"element": "C" 
			},
			{
				"x": 2.7725943242,
				"y": -0.0836285508,
				"z": -0.4864238488,
				"element": "C" 
			},
			{
				"x": 2.8756340708,
				"y": -1.3616419021,
				"z": -1.3448060744,
				"element": "C" 
			},
			{
				"x": 2.2675498776,
				"y": -1.2289396477,
				"z": -2.7265219754,
				"element": "C" 
			},
			{
				"x": 2.9750126602,
				"y": -0.3153978272,
				"z": -3.6987620461,
				"element": "C" 
			},
			{
				"x": 1.1639647647,
				"y": -1.9017768161,
				"z": -3.0728845802,
				"element": "C" 
			},
			{
				"x": -2.6392065032,
				"y": 1.1730255961,
				"z": -2.7272184163,
				"element": "H" 
			},
			{
				"x": -0.976311081,
				"y": 0.5812774232,
				"z": -2.8884954912,
				"element": "H" 
			},
			{
				"x": -1.3496683911,
				"y": 1.8666349245,
				"z": -1.7375682168,
				"element": "H" 
			},
			{
				"x": -1.049100569,
				"y": -0.368278859,
				"z": -0.5879707712,
				"element": "H" 
			},
			{
				"x": -2.3009613223,
				"y": -1.0603462649,
				"z": -1.5922930876,
				"element": "H" 
			},
			{
				"x": -3.2427346426,
				"y": -0.60758843,
				"z": 0.5897712837,
				"element": "H" 
			},
			{
				"x": -4.0140519927,
				"y": 0.4250470665,
				"z": -0.5950206294,
				"element": "H" 
			},
			{
				"x": -2.7149868227,
				"y": 2.3811232229,
				"z": 0.1437472967,
				"element": "H" 
			},
			{
				"x": -3.610517302,
				"y": 1.66259744,
				"z": 1.4651576314,
				"element": "H" 
			},
			{
				"x": -1.3579695446,
				"y": 2.3890417555,
				"z": 2.1582196923,
				"element": "H" 
			},
			{
				"x": -0.6020366403,
				"y": 1.3602767685,
				"z": 0.9606784447,
				"element": "H" 
			},
			{
				"x": -2.3660472086,
				"y": 0.3125193377,
				"z": 3.2381825836,
				"element": "H" 
			},
			{
				"x": -1.4299746998,
				"y": -0.6760864158,
				"z": 2.1380203199,
				"element": "H" 
			},
			{
				"x": -0.320868817,
				"y": 1.2939631863,
				"z": 4.2080318383,
				"element": "H" 
			},
			{
				"x": -0.3613006984,
				"y": -0.4527560943,
				"z": 4.3723014555,
				"element": "H" 
			},
			{
				"x": 1.8929112781,
				"y": 0.3822091229,
				"z": 3.8190268351,
				"element": "H" 
			},
			{
				"x": 1.3115489971,
				"y": 1.1191984685,
				"z": 2.34133304,
				"element": "H" 
			},
			{
				"x": 1.1522205957,
				"y": -1.8875217143,
				"z": 2.9197326085,
				"element": "H" 
			},
			{
				"x": 0.7887993492,
				"y": -1.1231335738,
				"z": 1.3876984706,
				"element": "H" 
			},
			{
				"x": 3.528930036,
				"y": -1.2319584658,
				"z": 2.7597007821,
				"element": "H" 
			},
			{
				"x": 3.0227782989,
				"y": -2.2378669863,
				"z": 1.4204692472,
				"element": "H" 
			},
			{
				"x": 3.4448587771,
				"y": 0.8013395941,
				"z": 1.3591637843,
				"element": "H" 
			},
			{
				"x": 4.5348262039,
				"y": -0.4070716663,
				"z": 0.7153773605,
				"element": "H" 
			},
			{
				"x": 3.217366668,
				"y": 0.7571549173,
				"z": -1.0326466083,
				"element": "H" 
			},
			{
				"x": 1.7130689968,
				"y": 0.1702848573,
				"z": -0.3553984498,
				"element": "H" 
			},
			{
				"x": 3.9394753436,
				"y": -1.6272620634,
				"z": -1.4435895319,
				"element": "H" 
			},
			{
				"x": 2.3937248356,
				"y": -2.1948753458,
				"z": -0.8222043305,
				"element": "H" 
			},
			{
				"x": 4.0174120242,
				"y": -0.6293695677,
				"z": -3.8413137828,
				"element": "H" 
			},
			{
				"x": 2.4842996581,
				"y": -0.3099018976,
				"z": -4.6756632772,
				"element": "H" 
			},
			{
				"x": 3.0086157654,
				"y": 0.7181925386,
				"z": -3.3337380609,
				"element": "H" 
			},
			{
				"x": 0.6620121673,
				"y": -2.570003291,
				"z": -2.3782273283,
				"element": "H" 
			},
			{
				"x": 0.7274536671,
				"y": -1.8128371326,
				"z": -4.064226712,
				"element": "H" 
			}
		],
		 "valence_orbital": [ 
			{
				"type": "occ",
				"energy": -0.30363,
				"method": "rhf"
			},
			{
				"type": "occ",
				"energy": -0.30088,
				"method": "rhf"
			},
			{
				"type": "occ",
				"energy": -0.299,
				"method": "rhf"
			},
			{
				"type": "occ",
				"energy": -0.29542,
				"method": "rhf"
			},
			{
				"type": "occ",
				"energy": -0.2395,
				"method": "rhf"
			},
			{
				"type": "unocc",
				"energy": 0.02601,
				"method": "rhf"
			},
			{
				"type": "unocc",
				"energy": 0.05368,
				"method": "rhf"
			},
			{
				"type": "unocc",
				"energy": 0.09026,
				"method": "rhf"
			},
			{
				"type": "unocc",
				"energy": 0.09763,
				"method": "rhf"
			},
			{
				"type": "unocc",
				"energy": 0.09987,
				"method": "rhf"
			}
		],
		"cosmo_sigma_profile": { 
			"-0.025": 0.0,
			"-0.024": 0.0,
			"-0.023": 0.0,
			"-0.022": 0.0,
			"-0.021": 0.0,
			"-0.02": 0.0,
			"-0.019": 0.0,
			"-0.018": 0.0,
			"-0.017": 0.0,
			"-0.016": 0.0,
			"-0.015": 0.0,
			"-0.014": 0.0,
			"-0.013": 0.0,
			"-0.012": 0.0,
			"-0.011": 0.0,
			"-0.01": 0.0,
			"-0.009": 0.0,
			"-0.008": 0.0,
			"-0.007": 0.0,
			"-0.006": 0.0,
			"-0.005": 0.0202365952283,
			"-0.004": 3.85715134803,
			"-0.003": 15.4686708564,
			"-0.002": 43.1738382182,
			"-0.001": 83.828978006,
			"0.0": 80.1597884817,
			"0.001": 75.1179323823,
			"0.002": 35.2495671969,
			"0.003": 10.0271774528,
			"0.004": 5.46686020317,
			"0.005": 2.47713592228,
			"0.006": 1.53068852343,
			"0.007": 1.43021588719,
			"0.008": 0.343170587472,
			"0.009": 0.0,
			"0.01": 0.0,
			"0.011": 0.0,
			"0.012": 0.0,
			"0.013": 0.0,
			"0.014": 0.0,
			"0.015": 0.0,
			"0.016": 0.0,
			"0.017": 0.0,
			"0.018": 0.0,
			"0.019": 0.0,
			"0.02": 0.0,
			"0.021": 0.0,
			"0.022": 0.0,
			"0.023": 0.0,
			"0.024": 0.0,
			"0.025": 0.0
		}
	}
}
