{
	 "smiles": "CC1=CC=C(C=C1)S(=O)(=O)NC1=C(C=CC(Cl)=C1)C(O)=O", 
	 "Tm": 479.15, 
	 "num_atms": 33, 
	 "gaussian": { 
		 "optdone": 1, 
		 "sigma_profile": "yes", 
		 "theory": "DFT", 
		 "functional": "B3LYP", 
		 "basiset": "6-31G**", 
		 "properties": { 
			 "R2extent": 8025.2888, 
			 "electric_dipole_moment_norm": 5.23589678088, 
			 "electric_quadrupole_moment_norm": 22.4773865612, 
			 "total_energy": -1754.70752342, 
			 "HOMO_LUMO_gap": 0.17706, 
			 "cosmo_polarized_energy": -17.47, 
			 "cosmo_cavitation_energy": 40.91, 
			 "cosmo_dispersion_energy": -28.52, 
			 "cosmo_repulsion_energy": 2.16, 
			 "cosmo_total_nonelectrostatic_energy": 14.55, 
			 "SMD_solvation_energy": 6.92 
		},
		"coords": [
			{
				"x": 0.6882460528,
				"y": -3.8457281398,
				"z": 2.5117724012,
				"element": "C" 
			},
			{
				"x": 1.0606643647,
				"y": -2.7732264593,
				"z": 1.5173296948,
				"element": "C" 
			},
			{
				"x": 1.4570011745,
				"y": -1.499155383,
				"z": 1.9549276346,
				"element": "C" 
			},
			{
				"x": 1.7774519142,
				"y": -0.4934789399,
				"z": 1.0483105234,
				"element": "C" 
			},
			{
				"x": 1.7036527361,
				"y": -0.7647310593,
				"z": -0.3211412857,
				"element": "C" 
			},
			{
				"x": 1.3263029863,
				"y": -2.0253962619,
				"z": -0.7858311698,
				"element": "C" 
			},
			{
				"x": 1.0073645429,
				"y": -3.0191700365,
				"z": 0.1389301861,
				"element": "C" 
			},
			{
				"x": 2.0963595416,
				"y": 0.5346236363,
				"z": -1.4884719266,
				"element": "S" 
			},
			{
				"x": 3.0416744786,
				"y": 1.4569402529,
				"z": -0.8615980253,
				"element": "O" 
			},
			{
				"x": 2.3575966082,
				"y": -0.0911671943,
				"z": -2.7843394847,
				"element": "O" 
			},
			{
				"x": 0.6860306608,
				"y": 1.478853608,
				"z": -1.6237712243,
				"element": "N" 
			},
			{
				"x": -0.5751604997,
				"y": 1.037985133,
				"z": -2.0498928329,
				"element": "C" 
			},
			{
				"x": -1.7756686953,
				"y": 1.5487629539,
				"z": -1.4818334543,
				"element": "C" 
			},
			{
				"x": -3.0097347653,
				"y": 1.0897948825,
				"z": -1.9764644035,
				"element": "C" 
			},
			{
				"x": -3.098102003,
				"y": 0.1468767129,
				"z": -2.9865077427,
				"element": "C" 
			},
			{
				"x": -1.9063778022,
				"y": -0.3378509748,
				"z": -3.5314185886,
				"element": "C" 
			},
			{
				"x": -1.9777753914,
				"y": -1.5177774405,
				"z": -4.8258912541,
				"element": "Cl" 
			},
			{
				"x": -0.6637459836,
				"y": 0.0980348191,
				"z": -3.0929717921,
				"element": "C" 
			},
			{
				"x": -1.8823092419,
				"y": 2.5484921537,
				"z": -0.3891007583,
				"element": "C" 
			},
			{
				"x": -0.688345607,
				"y": 3.0386186653,
				"z": 0.0618658652,
				"element": "O" 
			},
			{
				"x": -2.9258559475,
				"y": 2.9353172075,
				"z": 0.0958921242,
				"element": "O" 
			},
			{
				"x": 1.3209313207,
				"y": -3.8013858114,
				"z": 3.4033361866,
				"element": "H" 
			},
			{
				"x": -0.350231891,
				"y": -3.7257025618,
				"z": 2.8444026496,
				"element": "H" 
			},
			{
				"x": 0.779679546,
				"y": -4.8446955468,
				"z": 2.0770658212,
				"element": "H" 
			},
			{
				"x": 1.5236475792,
				"y": -1.2966268957,
				"z": 3.020575819,
				"element": "H" 
			},
			{
				"x": 2.105059714,
				"y": 0.4820455512,
				"z": 1.3915919348,
				"element": "H" 
			},
			{
				"x": 1.3076700366,
				"y": -2.2274498315,
				"z": -1.8504613691,
				"element": "H" 
			},
			{
				"x": 0.7202435418,
				"y": -4.0043315387,
				"z": -0.2182351046,
				"element": "H" 
			},
			{
				"x": 0.6805357871,
				"y": 2.2049889809,
				"z": -0.9132013234,
				"element": "H" 
			},
			{
				"x": -3.9072018584,
				"y": 1.5000707233,
				"z": -1.527334675,
				"element": "H" 
			},
			{
				"x": -4.0566204137,
				"y": -0.201323487,
				"z": -3.3517608602,
				"element": "H" 
			},
			{
				"x": 0.241186571,
				"y": -0.2611608358,
				"z": -3.5643781738,
				"element": "H" 
			},
			{
				"x": -0.9072690572,
				"y": 3.6817531177,
				"z": 0.7566046083,
				"element": "H" 
			}
		],
		 "valence_orbital": [ 
			{
				"type": "occ",
				"energy": -0.29704,
				"method": "rhf"
			},
			{
				"type": "occ",
				"energy": -0.27652,
				"method": "rhf"
			},
			{
				"type": "occ",
				"energy": -0.27106,
				"method": "rhf"
			},
			{
				"type": "occ",
				"energy": -0.26525,
				"method": "rhf"
			},
			{
				"type": "occ",
				"energy": -0.24295,
				"method": "rhf"
			},
			{
				"type": "unocc",
				"energy": -0.06589,
				"method": "rhf"
			},
			{
				"type": "unocc",
				"energy": -0.04628,
				"method": "rhf"
			},
			{
				"type": "unocc",
				"energy": -0.02662,
				"method": "rhf"
			},
			{
				"type": "unocc",
				"energy": -0.02206,
				"method": "rhf"
			},
			{
				"type": "unocc",
				"energy": 0.02149,
				"method": "rhf"
			}
		],
		"cosmo_sigma_profile": { 
			"-0.025": 0.0,
			"-0.024": 0.0,
			"-0.023": 0.0,
			"-0.022": 0.0,
			"-0.021": 0.0,
			"-0.02": 0.0,
			"-0.019": 0.554942230524,
			"-0.018": 0.930741469042,
			"-0.017": 0.640877208777,
			"-0.016": 1.1409484691,
			"-0.015": 0.81200858529,
			"-0.014": 0.645969500144,
			"-0.013": 0.469952241653,
			"-0.012": 1.17767482626,
			"-0.011": 0.533787504695,
			"-0.01": 0.326696854425,
			"-0.009": 0.988710190103,
			"-0.008": 2.58562869624,
			"-0.007": 8.64430226321,
			"-0.006": 15.6912990562,
			"-0.005": 20.2645028632,
			"-0.004": 21.8496104569,
			"-0.003": 23.2197872479,
			"-0.002": 25.2735504707,
			"-0.001": 27.0786609779,
			"0.0": 31.6536379805,
			"0.001": 33.3525337828,
			"0.002": 27.0145972887,
			"0.003": 23.8919823441,
			"0.004": 15.571474961,
			"0.005": 4.92588643471,
			"0.006": 4.07872122178,
			"0.007": 4.07580644245,
			"0.008": 5.09051834488,
			"0.009": 6.34714145544,
			"0.01": 10.6610593647,
			"0.011": 10.0071760718,
			"0.012": 0.853021301894,
			"0.013": 0.0,
			"0.014": 0.0,
			"0.015": 0.0,
			"0.016": 0.0,
			"0.017": 0.0,
			"0.018": 0.0,
			"0.019": 0.0,
			"0.02": 0.0,
			"0.021": 0.0,
			"0.022": 0.0,
			"0.023": 0.0,
			"0.024": 0.0,
			"0.025": 0.0
		}
	}
}
