{
	 "smiles": "OC(=O)CN1C(=O)CSC2=C1C=CC=C2", 
	 "Tm": 425.15, 
	 "num_atms": 24, 
	 "gaussian": { 
		 "optdone": 1, 
		 "sigma_profile": "yes", 
		 "theory": "DFT", 
		 "functional": "B3LYP", 
		 "basiset": "6-31G**", 
		 "properties": { 
			 "R2extent": 3552.8446, 
			 "electric_dipole_moment_norm": 2.93367619379, 
			 "electric_quadrupole_moment_norm": 7.06398150337, 
			 "total_energy": -1065.1218257, 
			 "HOMO_LUMO_gap": 0.18845, 
			 "cosmo_polarized_energy": -14.76, 
			 "cosmo_cavitation_energy": 29.3, 
			 "cosmo_dispersion_energy": -21.69, 
			 "cosmo_repulsion_energy": 1.64, 
			 "cosmo_total_nonelectrostatic_energy": 9.26, 
			 "SMD_solvation_energy": 6.08 
		},
		"coords": [
			{
				"x": 1.0381834551,
				"y": -3.5160835747,
				"z": 0.2093821116,
				"element": "O" 
			},
			{
				"x": -0.2959541238,
				"y": -3.4283127755,
				"z": 0.0349471533,
				"element": "C" 
			},
			{
				"x": -0.9467585322,
				"y": -4.2452751569,
				"z": -0.5769910177,
				"element": "O" 
			},
			{
				"x": -0.9058051622,
				"y": -2.2138589201,
				"z": 0.7240378743,
				"element": "C" 
			},
			{
				"x": -0.0114338907,
				"y": -1.0789198502,
				"z": 0.9086949828,
				"element": "N" 
			},
			{
				"x": 0.6277549938,
				"y": -1.0032959447,
				"z": 2.1426845924,
				"element": "C" 
			},
			{
				"x": 0.3880330668,
				"y": -1.7919500217,
				"z": 3.0437489055,
				"element": "O" 
			},
			{
				"x": 1.6600350263,
				"y": 0.0959071073,
				"z": 2.3021414306,
				"element": "C" 
			},
			{
				"x": 1.022274629,
				"y": 1.6969845168,
				"z": 1.7031270749,
				"element": "S" 
			},
			{
				"x": 0.6532557223,
				"y": 1.1406599213,
				"z": 0.0570204805,
				"element": "C" 
			},
			{
				"x": 0.2005374884,
				"y": -0.1782445376,
				"z": -0.1689947378,
				"element": "C" 
			},
			{
				"x": -0.0914142391,
				"y": -0.567928527,
				"z": -1.4863671777,
				"element": "C" 
			},
			{
				"x": 0.0296204836,
				"y": 0.3325658665,
				"z": -2.5431994544,
				"element": "C" 
			},
			{
				"x": 0.4615784896,
				"y": 1.6376409284,
				"z": -2.3117867491,
				"element": "C" 
			},
			{
				"x": 0.7842381311,
				"y": 2.0291235703,
				"z": -1.0143974533,
				"element": "C" 
			},
			{
				"x": 1.3170342646,
				"y": -4.3377491839,
				"z": -0.2291545034,
				"element": "H" 
			},
			{
				"x": -1.7930895829,
				"y": -1.9188535583,
				"z": 0.1622222704,
				"element": "H" 
			},
			{
				"x": -1.2121329832,
				"y": -2.539976258,
				"z": 1.7220350245,
				"element": "H" 
			},
			{
				"x": 2.5776291417,
				"y": -0.1628913107,
				"z": 1.7625127666,
				"element": "H" 
			},
			{
				"x": 1.8823732529,
				"y": 0.189221061,
				"z": 3.3646041433,
				"element": "H" 
			},
			{
				"x": -0.4277396534,
				"y": -1.5759916763,
				"z": -1.697673191,
				"element": "H" 
			},
			{
				"x": -0.210904273,
				"y": 0.0033660569,
				"z": -3.5492670064,
				"element": "H" 
			},
			{
				"x": 0.5611529391,
				"y": 2.3411621692,
				"z": -3.1322036017,
				"element": "H" 
			},
			{
				"x": 1.1445313566,
				"y": 3.0345000979,
				"z": -0.8182239181,
				"element": "H" 
			}
		],
		 "valence_orbital": [ 
			{
				"type": "occ",
				"energy": -0.29894,
				"method": "rhf"
			},
			{
				"type": "occ",
				"energy": -0.28514,
				"method": "rhf"
			},
			{
				"type": "occ",
				"energy": -0.26909,
				"method": "rhf"
			},
			{
				"type": "occ",
				"energy": -0.23966,
				"method": "rhf"
			},
			{
				"type": "occ",
				"energy": -0.22163,
				"method": "rhf"
			},
			{
				"type": "unocc",
				"energy": -0.03318,
				"method": "rhf"
			},
			{
				"type": "unocc",
				"energy": -0.02014,
				"method": "rhf"
			},
			{
				"type": "unocc",
				"energy": -0.00255,
				"method": "rhf"
			},
			{
				"type": "unocc",
				"energy": 0.01463,
				"method": "rhf"
			},
			{
				"type": "unocc",
				"energy": 0.03053,
				"method": "rhf"
			}
		],
		"cosmo_sigma_profile": { 
			"-0.025": 0.0,
			"-0.024": 0.0,
			"-0.023": 0.0,
			"-0.022": 0.0,
			"-0.021": 0.0,
			"-0.02": 0.0,
			"-0.019": 0.40607136754,
			"-0.018": 1.03606175653,
			"-0.017": 0.780771508615,
			"-0.016": 0.839165052028,
			"-0.015": 1.18080537757,
			"-0.014": 0.478341646039,
			"-0.013": 0.204868958014,
			"-0.012": 0.75138317973,
			"-0.011": 1.01235722311,
			"-0.01": 0.561844471514,
			"-0.009": 1.32707863867,
			"-0.008": 7.42769574971,
			"-0.007": 10.9446108372,
			"-0.006": 16.7939812051,
			"-0.005": 17.7893391018,
			"-0.004": 15.8132851591,
			"-0.003": 12.1971030247,
			"-0.002": 11.3828968798,
			"-0.001": 11.2142011485,
			"0.0": 12.0343959101,
			"0.001": 14.4680108553,
			"0.002": 13.5836066021,
			"0.003": 17.1404910539,
			"0.004": 17.2762470908,
			"0.005": 8.84256983707,
			"0.006": 7.27689858737,
			"0.007": 6.42746286332,
			"0.008": 4.01830875043,
			"0.009": 2.8531154393,
			"0.01": 4.38736056159,
			"0.011": 7.75433543481,
			"0.012": 6.2827075531,
			"0.013": 1.36462126874,
			"0.014": 0.0580671888756,
			"0.015": 0.0,
			"0.016": 0.0,
			"0.017": 0.0,
			"0.018": 0.0,
			"0.019": 0.0,
			"0.02": 0.0,
			"0.021": 0.0,
			"0.022": 0.0,
			"0.023": 0.0,
			"0.024": 0.0,
			"0.025": 0.0
		}
	}
}
