{
	 "smiles": "C1N(N=C1C1=CC=CC=C1)C1=CC=CC=C1", 
	 "Tm": 411.15, 
	 "num_atms": 28, 
	 "gaussian": { 
		 "optdone": 1, 
		 "sigma_profile": "yes", 
		 "theory": "DFT", 
		 "functional": "B3LYP", 
		 "basiset": "6-31G**", 
		 "properties": { 
			 "R2extent": 5663.2395, 
			 "electric_dipole_moment_norm": 2.8040395254, 
			 "electric_quadrupole_moment_norm": 9.30130835636, 
			 "total_energy": -650.15534117, 
			 "HOMO_LUMO_gap": 0.1415, 
			 "cosmo_polarized_energy": -10.25, 
			 "cosmo_cavitation_energy": 32.41, 
			 "cosmo_dispersion_energy": -23.67, 
			 "cosmo_repulsion_energy": 1.82, 
			 "cosmo_total_nonelectrostatic_energy": 10.56, 
			 "SMD_solvation_energy": 2.47 
		},
		"coords": [
			{
				"x": -0.5971531071,
				"y": -0.4501847451,
				"z": 0.0021924954,
				"element": "C" 
			},
			{
				"x": -0.6897615673,
				"y": 0.8813486648,
				"z": 0.6574836145,
				"element": "N" 
			},
			{
				"x": 0.6034238082,
				"y": 0.7118898883,
				"z": 1.2288190611,
				"element": "N" 
			},
			{
				"x": 0.7904269053,
				"y": -0.4187039163,
				"z": 0.5960527747,
				"element": "C" 
			},
			{
				"x": 1.9801234478,
				"y": -1.2422214111,
				"z": 0.5086002413,
				"element": "C" 
			},
			{
				"x": 1.9554874028,
				"y": -2.4529263088,
				"z": -0.2043749876,
				"element": "C" 
			},
			{
				"x": 3.0954051014,
				"y": -3.2514443406,
				"z": -0.2780353584,
				"element": "C" 
			},
			{
				"x": 4.271626056,
				"y": -2.8537646574,
				"z": 0.3604645407,
				"element": "C" 
			},
			{
				"x": 4.3038832453,
				"y": -1.6498107086,
				"z": 1.0731896922,
				"element": "C" 
			},
			{
				"x": 3.1712155762,
				"y": -0.8467381391,
				"z": 1.147303674,
				"element": "C" 
			},
			{
				"x": -1.7653503884,
				"y": 1.3424422825,
				"z": 1.4312341161,
				"element": "C" 
			},
			{
				"x": -1.5429503326,
				"y": 2.0622632139,
				"z": 2.6155426526,
				"element": "C" 
			},
			{
				"x": -2.6274176251,
				"y": 2.5734348885,
				"z": 3.3253084229,
				"element": "C" 
			},
			{
				"x": -3.9364962332,
				"y": 2.3718269915,
				"z": 2.8805902849,
				"element": "C" 
			},
			{
				"x": -4.1523106753,
				"y": 1.6514137841,
				"z": 1.7038670345,
				"element": "C" 
			},
			{
				"x": -3.0785896095,
				"y": 1.1409775037,
				"z": 0.9768698574,
				"element": "C" 
			},
			{
				"x": -1.2750923845,
				"y": -1.1930810574,
				"z": 0.4345584809,
				"element": "H" 
			},
			{
				"x": -0.6962187824,
				"y": -0.4294327336,
				"z": -1.0874593967,
				"element": "H" 
			},
			{
				"x": 1.0402673916,
				"y": -2.7677324001,
				"z": -0.698965678,
				"element": "H" 
			},
			{
				"x": 3.0653198436,
				"y": -4.1845889841,
				"z": -0.8330022516,
				"element": "H" 
			},
			{
				"x": 5.1595274791,
				"y": -3.4764919109,
				"z": 0.30323269,
				"element": "H" 
			},
			{
				"x": 5.2184893778,
				"y": -1.337094353,
				"z": 1.5687043018,
				"element": "H" 
			},
			{
				"x": 3.1895724476,
				"y": 0.09175256,
				"z": 1.6923353887,
				"element": "H" 
			},
			{
				"x": -0.526474179,
				"y": 2.2042840092,
				"z": 2.9639144936,
				"element": "H" 
			},
			{
				"x": -2.4452785283,
				"y": 3.1284228823,
				"z": 4.241615478,
				"element": "H" 
			},
			{
				"x": -4.775753383,
				"y": 2.7691257201,
				"z": 3.4429901262,
				"element": "H" 
			},
			{
				"x": -5.1640902528,
				"y": 1.4855804561,
				"z": 1.3441244167,
				"element": "H" 
			},
			{
				"x": -3.2537310343,
				"y": 0.5950528212,
				"z": 0.0538438343,
				"element": "H" 
			}
		],
		 "valence_orbital": [ 
			{
				"type": "occ",
				"energy": -0.28157,
				"method": "rhf"
			},
			{
				"type": "occ",
				"energy": -0.25933,
				"method": "rhf"
			},
			{
				"type": "occ",
				"energy": -0.24772,
				"method": "rhf"
			},
			{
				"type": "occ",
				"energy": -0.24326,
				"method": "rhf"
			},
			{
				"type": "occ",
				"energy": -0.19194,
				"method": "rhf"
			},
			{
				"type": "unocc",
				"energy": -0.05044,
				"method": "rhf"
			},
			{
				"type": "unocc",
				"energy": -0.0081,
				"method": "rhf"
			},
			{
				"type": "unocc",
				"energy": 0.0054,
				"method": "rhf"
			},
			{
				"type": "unocc",
				"energy": 0.01731,
				"method": "rhf"
			},
			{
				"type": "unocc",
				"energy": 0.04391,
				"method": "rhf"
			}
		],
		"cosmo_sigma_profile": { 
			"-0.025": 0.0,
			"-0.024": 0.0,
			"-0.023": 0.0,
			"-0.022": 0.0,
			"-0.021": 0.0,
			"-0.02": 0.0,
			"-0.019": 0.0,
			"-0.018": 0.0,
			"-0.017": 0.0,
			"-0.016": 0.0,
			"-0.015": 0.0,
			"-0.014": 0.0,
			"-0.013": 0.0,
			"-0.012": 0.0,
			"-0.011": 0.0,
			"-0.01": 0.0,
			"-0.009": 0.0,
			"-0.008": 1.36407041954,
			"-0.007": 6.2024960216,
			"-0.006": 19.8120537823,
			"-0.005": 24.9227066189,
			"-0.004": 23.136568103,
			"-0.003": 21.0557249641,
			"-0.002": 15.217267363,
			"-0.001": 13.815879378,
			"0.0": 13.5069759265,
			"0.001": 15.1507473603,
			"0.002": 18.0204572157,
			"0.003": 19.8810891967,
			"0.004": 22.3809343765,
			"0.005": 18.8590387812,
			"0.006": 11.361805273,
			"0.007": 5.85311663297,
			"0.008": 2.9027649011,
			"0.009": 2.4640433408,
			"0.01": 1.89925892519,
			"0.011": 1.04067502245,
			"0.012": 0.628071798868,
			"0.013": 0.683163982933,
			"0.014": 0.0680335901894,
			"0.015": 0.0,
			"0.016": 0.0,
			"0.017": 0.0,
			"0.018": 0.0,
			"0.019": 0.0,
			"0.02": 0.0,
			"0.021": 0.0,
			"0.022": 0.0,
			"0.023": 0.0,
			"0.024": 0.0,
			"0.025": 0.0
		}
	}
}
