{
	 "smiles": "COC1=CC2=C(C=C(CCCN)N2)C(OC)=C1", 
	 "Tm": 387.15, 
	 "num_atms": 35, 
	 "gaussian": { 
		 "optdone": 1, 
		 "sigma_profile": "yes", 
		 "theory": "DFT", 
		 "functional": "B3LYP", 
		 "basiset": "6-31G**", 
		 "properties": { 
			 "R2extent": 6018.4806, 
			 "electric_dipole_moment_norm": 6.20569781813, 
			 "electric_quadrupole_moment_norm": 8.34436020735, 
			 "total_energy": -766.167254083, 
			 "HOMO_LUMO_gap": 0.1868, 
			 "cosmo_polarized_energy": -14.42, 
			 "cosmo_cavitation_energy": 37.01, 
			 "cosmo_dispersion_energy": -26.69, 
			 "cosmo_repulsion_energy": 2.11, 
			 "cosmo_total_nonelectrostatic_energy": 12.43, 
			 "SMD_solvation_energy": 6.62 
		},
		"coords": [
			{
				"x": 0.7929658735,
				"y": -4.527705178,
				"z": -1.5165313964,
				"element": "C" 
			},
			{
				"x": 1.6272105884,
				"y": -4.1662361965,
				"z": -0.434198144,
				"element": "O" 
			},
			{
				"x": 1.6971318778,
				"y": -2.8387039865,
				"z": -0.0924877992,
				"element": "C" 
			},
			{
				"x": 0.9964076178,
				"y": -1.825392495,
				"z": -0.7414030391,
				"element": "C" 
			},
			{
				"x": 1.1806203497,
				"y": -0.5177364246,
				"z": -0.2605134113,
				"element": "C" 
			},
			{
				"x": 2.0289776288,
				"y": -0.2031014135,
				"z": 0.834254635,
				"element": "C" 
			},
			{
				"x": 1.9180720541,
				"y": 1.2113770894,
				"z": 1.0554396294,
				"element": "C" 
			},
			{
				"x": 1.0429513304,
				"y": 1.703080408,
				"z": 0.1150292489,
				"element": "C" 
			},
			{
				"x": 0.5947855724,
				"y": 3.1155128472,
				"z": -0.11979393,
				"element": "C" 
			},
			{
				"x": -0.9321836374,
				"y": 3.3845803631,
				"z": -0.1255014696,
				"element": "C" 
			},
			{
				"x": -1.6637647409,
				"y": 3.1650272379,
				"z": -1.4581149772,
				"element": "C" 
			},
			{
				"x": -1.7998960776,
				"y": 1.7418875063,
				"z": -1.8240279507,
				"element": "N" 
			},
			{
				"x": 0.6140309973,
				"y": 0.6601755916,
				"z": -0.6910037851,
				"element": "N" 
			},
			{
				"x": 2.7291124616,
				"y": -1.2615935404,
				"z": 1.4498115933,
				"element": "C" 
			},
			{
				"x": 3.552510002,
				"y": -1.0338962882,
				"z": 2.5361762708,
				"element": "O" 
			},
			{
				"x": 4.7954837889,
				"y": -0.4167140303,
				"z": 2.2143462129,
				"element": "C" 
			},
			{
				"x": 2.5632265708,
				"y": -2.5572564609,
				"z": 0.9903819065,
				"element": "C" 
			},
			{
				"x": 0.8818389066,
				"y": -5.6106618177,
				"z": -1.6228396931,
				"element": "H" 
			},
			{
				"x": 1.1081619946,
				"y": -4.0474498611,
				"z": -2.4533050608,
				"element": "H" 
			},
			{
				"x": -0.2582997039,
				"y": -4.2708150069,
				"z": -1.3254142839,
				"element": "H" 
			},
			{
				"x": 0.3355378073,
				"y": -2.0219346984,
				"z": -1.5766596363,
				"element": "H" 
			},
			{
				"x": 2.4160450935,
				"y": 1.7920867504,
				"z": 1.8188910007,
				"element": "H" 
			},
			{
				"x": 1.0472039186,
				"y": 3.7244557629,
				"z": 0.6694894517,
				"element": "H" 
			},
			{
				"x": 1.0130858172,
				"y": 3.4918317438,
				"z": -1.0662319069,
				"element": "H" 
			},
			{
				"x": -1.0872984864,
				"y": 4.4377172243,
				"z": 0.1398074953,
				"element": "H" 
			},
			{
				"x": -1.4163599276,
				"y": 2.7989790774,
				"z": 0.6672149651,
				"element": "H" 
			},
			{
				"x": -1.0998343974,
				"y": 3.6574430683,
				"z": -2.2598733034,
				"element": "H" 
			},
			{
				"x": -2.6406684438,
				"y": 3.6718886073,
				"z": -1.4047527596,
				"element": "H" 
			},
			{
				"x": -2.4515579562,
				"y": 1.2882544529,
				"z": -1.1859011135,
				"element": "H" 
			},
			{
				"x": -2.2071420023,
				"y": 1.6607983046,
				"z": -2.752679849,
				"element": "H" 
			},
			{
				"x": -0.1595161221,
				"y": 0.7838438226,
				"z": -1.3501735485,
				"element": "H" 
			},
			{
				"x": 5.3213803761,
				"y": -0.2602976023,
				"z": 3.159308888,
				"element": "H" 
			},
			{
				"x": 4.6558127824,
				"y": 0.5495120881,
				"z": 1.7138686982,
				"element": "H" 
			},
			{
				"x": 5.4025916003,
				"y": -1.0629113698,
				"z": 1.565730603,
				"element": "H" 
			},
			{
				"x": 3.0944764857,
				"y": -3.3739455758,
				"z": 1.4654564588,
				"element": "H" 
			}
		],
		 "valence_orbital": [ 
			{
				"type": "occ",
				"energy": -0.26811,
				"method": "rhf"
			},
			{
				"type": "occ",
				"energy": -0.25239,
				"method": "rhf"
			},
			{
				"type": "occ",
				"energy": -0.23948,
				"method": "rhf"
			},
			{
				"type": "occ",
				"energy": -0.19326,
				"method": "rhf"
			},
			{
				"type": "occ",
				"energy": -0.16977,
				"method": "rhf"
			},
			{
				"type": "unocc",
				"energy": 0.01703,
				"method": "rhf"
			},
			{
				"type": "unocc",
				"energy": 0.0491,
				"method": "rhf"
			},
			{
				"type": "unocc",
				"energy": 0.06007,
				"method": "rhf"
			},
			{
				"type": "unocc",
				"energy": 0.08383,
				"method": "rhf"
			},
			{
				"type": "unocc",
				"energy": 0.10543,
				"method": "rhf"
			}
		],
		"cosmo_sigma_profile": { 
			"-0.025": 0.0,
			"-0.024": 0.0,
			"-0.023": 0.0,
			"-0.022": 0.0,
			"-0.021": 0.0,
			"-0.02": 0.0,
			"-0.019": 0.0,
			"-0.018": 0.0,
			"-0.017": 0.0,
			"-0.016": 0.0,
			"-0.015": 0.0,
			"-0.014": 0.0,
			"-0.013": 0.0,
			"-0.012": 0.0,
			"-0.011": 0.548639400632,
			"-0.01": 2.58642897027,
			"-0.009": 3.53097935604,
			"-0.008": 2.40211825593,
			"-0.007": 3.29143579928,
			"-0.006": 7.05896663975,
			"-0.005": 15.343923451,
			"-0.004": 26.433494237,
			"-0.003": 40.8407266467,
			"-0.002": 35.991735064,
			"-0.001": 25.7177683144,
			"0.0": 18.916903886,
			"0.001": 13.0862169342,
			"0.002": 10.3737752384,
			"0.003": 10.2111192042,
			"0.004": 9.79187284015,
			"0.005": 14.398783695,
			"0.006": 21.6509781163,
			"0.007": 11.8164551653,
			"0.008": 5.22348749111,
			"0.009": 2.71413021153,
			"0.01": 3.00886997812,
			"0.011": 2.83847233756,
			"0.012": 2.10555706575,
			"0.013": 0.546091176434,
			"0.014": 0.0,
			"0.015": 0.0,
			"0.016": 0.0,
			"0.017": 0.0,
			"0.018": 0.0,
			"0.019": 0.0,
			"0.02": 0.0,
			"0.021": 0.0,
			"0.022": 0.0,
			"0.023": 0.0,
			"0.024": 0.0,
			"0.025": 0.0
		}
	}
}
