{
	 "smiles": "C[C@H]1CC2=CC=CC=C2N1CN1N=NC2=C1C=CC=C2", 
	 "Tm": 343.0, 
	 "num_atms": 36, 
	 "gaussian": { 
		 "optdone": 1, 
		 "sigma_profile": "yes", 
		 "theory": "DFT", 
		 "functional": "B3LYP", 
		 "basiset": "6-31G**", 
		 "properties": { 
			 "R2extent": 6637.1055, 
			 "electric_dipole_moment_norm": 3.22981159977, 
			 "electric_quadrupole_moment_norm": 20.5724627216, 
			 "total_energy": -838.324558259, 
			 "HOMO_LUMO_gap": 0.16048, 
			 "cosmo_polarized_energy": -12.62, 
			 "cosmo_cavitation_energy": 38.19, 
			 "cosmo_dispersion_energy": -26.79, 
			 "cosmo_repulsion_energy": 2.01, 
			 "cosmo_total_nonelectrostatic_energy": 13.41, 
			 "SMD_solvation_energy": 3.67 
		},
		"coords": [
			{
				"x": 1.0027378213,
				"y": -0.8368282423,
				"z": 2.3840260057,
				"element": "C" 
			},
			{
				"x": 0.1288436214,
				"y": -1.0798155516,
				"z": 1.1565023652,
				"element": "C" 
			},
			{
				"x": -1.3928660604,
				"y": -0.9810244041,
				"z": 1.4313544108,
				"element": "C" 
			},
			{
				"x": -1.9401082212,
				"y": -0.3653864876,
				"z": 0.1647785653,
				"element": "C" 
			},
			{
				"x": -3.2441571018,
				"y": -0.2248540112,
				"z": -0.283987273,
				"element": "C" 
			},
			{
				"x": -3.4908939373,
				"y": 0.4455834125,
				"z": -1.4916541914,
				"element": "C" 
			},
			{
				"x": -2.4261925199,
				"y": 0.9731810256,
				"z": -2.2211759404,
				"element": "C" 
			},
			{
				"x": -1.1033975736,
				"y": 0.8435156594,
				"z": -1.7766083427,
				"element": "C" 
			},
			{
				"x": -0.8697403232,
				"y": 0.1624999658,
				"z": -0.5792504871,
				"element": "C" 
			},
			{
				"x": 0.3489146789,
				"y": -0.0839417819,
				"z": 0.0745441223,
				"element": "N" 
			},
			{
				"x": 1.5993097133,
				"y": -0.0950865365,
				"z": -0.6318690816,
				"element": "C" 
			},
			{
				"x": 2.5979626805,
				"y": 0.8140101683,
				"z": -0.0712924325,
				"element": "N" 
			},
			{
				"x": 3.7764301636,
				"y": 0.309646045,
				"z": 0.4053107079,
				"element": "N" 
			},
			{
				"x": 4.5148305421,
				"y": 1.2768026868,
				"z": 0.8388410495,
				"element": "N" 
			},
			{
				"x": 3.8297429873,
				"y": 2.4612279767,
				"z": 0.6570692814,
				"element": "C" 
			},
			{
				"x": 2.579464247,
				"y": 2.1744840682,
				"z": 0.0701169191,
				"element": "C" 
			},
			{
				"x": 1.6457551384,
				"y": 3.1793035017,
				"z": -0.2292987186,
				"element": "C" 
			},
			{
				"x": 2.0253164636,
				"y": 4.478862584,
				"z": 0.0736391111,
				"element": "C" 
			},
			{
				"x": 3.2807041601,
				"y": 4.7804648067,
				"z": 0.6574388576,
				"element": "C" 
			},
			{
				"x": 4.1947832066,
				"y": 3.7837436071,
				"z": 0.9582386699,
				"element": "C" 
			},
			{
				"x": 0.7747880818,
				"y": -1.5810273175,
				"z": 3.1545715959,
				"element": "H" 
			},
			{
				"x": 0.8132139636,
				"y": 0.1590218166,
				"z": 2.7970159138,
				"element": "H" 
			},
			{
				"x": 2.0678807307,
				"y": -0.9130309199,
				"z": 2.1485989934,
				"element": "H" 
			},
			{
				"x": 0.3570033438,
				"y": -2.0805432194,
				"z": 0.7488161226,
				"element": "H" 
			},
			{
				"x": -1.5761099652,
				"y": -0.3213660863,
				"z": 2.2911806146,
				"element": "H" 
			},
			{
				"x": -1.8269937057,
				"y": -1.9558263718,
				"z": 1.6730981186,
				"element": "H" 
			},
			{
				"x": -4.0691410182,
				"y": -0.6353013493,
				"z": 0.2929148057,
				"element": "H" 
			},
			{
				"x": -4.5077784755,
				"y": 0.5545467965,
				"z": -1.8553520556,
				"element": "H" 
			},
			{
				"x": -2.6179569309,
				"y": 1.4944864569,
				"z": -3.1548365033,
				"element": "H" 
			},
			{
				"x": -0.2930546709,
				"y": 1.2647410606,
				"z": -2.3638044243,
				"element": "H" 
			},
			{
				"x": 2.0794062897,
				"y": -1.080977472,
				"z": -0.6018182335,
				"element": "H" 
			},
			{
				"x": 1.4323598778,
				"y": 0.1713561155,
				"z": -1.6790066649,
				"element": "H" 
			},
			{
				"x": 0.6761475012,
				"y": 2.9564569664,
				"z": -0.6608278893,
				"element": "H" 
			},
			{
				"x": 1.3370687511,
				"y": 5.2919206212,
				"z": -0.1382230031,
				"element": "H" 
			},
			{
				"x": 3.5230796934,
				"y": 5.8163298068,
				"z": 0.8742350173,
				"element": "H" 
			},
			{
				"x": 5.1573468466,
				"y": 4.0007246033,
				"z": 1.4090139936,
				"element": "H" 
			}
		],
		 "valence_orbital": [ 
			{
				"type": "occ",
				"energy": -0.26558,
				"method": "rhf"
			},
			{
				"type": "occ",
				"energy": -0.24933,
				"method": "rhf"
			},
			{
				"type": "occ",
				"energy": -0.24844,
				"method": "rhf"
			},
			{
				"type": "occ",
				"energy": -0.23517,
				"method": "rhf"
			},
			{
				"type": "occ",
				"energy": -0.20112,
				"method": "rhf"
			},
			{
				"type": "unocc",
				"energy": -0.04064,
				"method": "rhf"
			},
			{
				"type": "unocc",
				"energy": -0.00704,
				"method": "rhf"
			},
			{
				"type": "unocc",
				"energy": 0.01025,
				"method": "rhf"
			},
			{
				"type": "unocc",
				"energy": 0.01156,
				"method": "rhf"
			},
			{
				"type": "unocc",
				"energy": 0.03748,
				"method": "rhf"
			}
		],
		"cosmo_sigma_profile": { 
			"-0.025": 0.0,
			"-0.024": 0.0,
			"-0.023": 0.0,
			"-0.022": 0.0,
			"-0.021": 0.0,
			"-0.02": 0.0,
			"-0.019": 0.0,
			"-0.018": 0.0,
			"-0.017": 0.0,
			"-0.016": 0.0,
			"-0.015": 0.0,
			"-0.014": 0.0,
			"-0.013": 0.0,
			"-0.012": 0.00531851118429,
			"-0.011": 0.162757253253,
			"-0.01": 0.385630347334,
			"-0.009": 1.64546550094,
			"-0.008": 2.62963115372,
			"-0.007": 6.8376281178,
			"-0.006": 13.9747075176,
			"-0.005": 19.6451290952,
			"-0.004": 28.0277102502,
			"-0.003": 30.7930690749,
			"-0.002": 26.7509292971,
			"-0.001": 24.3645514625,
			"0.0": 25.5779958179,
			"0.001": 20.0006756715,
			"0.002": 17.5506705967,
			"0.003": 21.7169160431,
			"0.004": 18.420644281,
			"0.005": 11.4912921183,
			"0.006": 9.33473023,
			"0.007": 7.44265331322,
			"0.008": 3.04892910689,
			"0.009": 1.62166359754,
			"0.01": 3.28443089633,
			"0.011": 3.37408493327,
			"0.012": 2.10783965278,
			"0.013": 1.78584242849,
			"0.014": 1.28595187831,
			"0.015": 0.893698548054,
			"0.016": 0.343440354946,
			"0.017": 0.0,
			"0.018": 0.0,
			"0.019": 0.0,
			"0.02": 0.0,
			"0.021": 0.0,
			"0.022": 0.0,
			"0.023": 0.0,
			"0.024": 0.0,
			"0.025": 0.0
		}
	}
}
