{
	 "smiles": "CC1=C(CC2=NNN=N2)C=CC=C1", 
	 "Tm": 430.15, 
	 "num_atms": 23, 
	 "gaussian": { 
		 "optdone": 1, 
		 "sigma_profile": "yes", 
		 "theory": "DFT", 
		 "functional": "B3LYP", 
		 "basiset": "6-31G**", 
		 "properties": { 
			 "R2extent": 2986.6679, 
			 "electric_dipole_moment_norm": 1.82124084624, 
			 "electric_quadrupole_moment_norm": 13.2514463422, 
			 "total_energy": -567.948351859, 
			 "HOMO_LUMO_gap": 0.20515, 
			 "cosmo_polarized_energy": -12.41, 
			 "cosmo_cavitation_energy": 26.95, 
			 "cosmo_dispersion_energy": -19.63, 
			 "cosmo_repulsion_energy": 1.55, 
			 "cosmo_total_nonelectrostatic_energy": 8.87, 
			 "SMD_solvation_energy": 2.23 
		},
		"coords": [
			{
				"x": -0.6074526467,
				"y": -1.4075391931,
				"z": -0.8899562118,
				"element": "C" 
			},
			{
				"x": -1.0304688251,
				"y": -0.7372747313,
				"z": 0.3979700825,
				"element": "C" 
			},
			{
				"x": -0.3375917423,
				"y": 0.3753593623,
				"z": 0.9196654713,
				"element": "C" 
			},
			{
				"x": 0.8876485566,
				"y": 0.9550815206,
				"z": 0.2203334842,
				"element": "C" 
			},
			{
				"x": 2.1738384481,
				"y": 0.3174904144,
				"z": 0.6582188019,
				"element": "C" 
			},
			{
				"x": 2.9678583688,
				"y": 0.8202651851,
				"z": 1.6027183118,
				"element": "N" 
			},
			{
				"x": 3.9284333685,
				"y": -0.0990630656,
				"z": 1.643873395,
				"element": "N" 
			},
			{
				"x": 3.7730471317,
				"y": -1.1081396428,
				"z": 0.7955548247,
				"element": "N" 
			},
			{
				"x": 2.6569568203,
				"y": -0.8556503658,
				"z": 0.1595954988,
				"element": "N" 
			},
			{
				"x": -0.7693532996,
				"y": 0.9613522119,
				"z": 2.1151629398,
				"element": "C" 
			},
			{
				"x": -1.8757716251,
				"y": 0.4676910327,
				"z": 2.8055053448,
				"element": "C" 
			},
			{
				"x": -2.5661597157,
				"y": -0.6300636286,
				"z": 2.2941422063,
				"element": "C" 
			},
			{
				"x": -2.1418460964,
				"y": -1.218644692,
				"z": 1.1029280248,
				"element": "C" 
			},
			{
				"x": 0.4370990806,
				"y": -1.7323539455,
				"z": -0.8534299563,
				"element": "H" 
			},
			{
				"x": -1.2316607525,
				"y": -2.2816886722,
				"z": -1.0933691484,
				"element": "H" 
			},
			{
				"x": -0.7048426895,
				"y": -0.7300484431,
				"z": -1.7481500228,
				"element": "H" 
			},
			{
				"x": 0.8038862263,
				"y": 0.8436476762,
				"z": -0.8640842096,
				"element": "H" 
			},
			{
				"x": 0.9575197654,
				"y": 2.024561667,
				"z": 0.436398633,
				"element": "H" 
			},
			{
				"x": 4.7244975987,
				"y": -0.033020238,
				"z": 2.2634911175,
				"element": "H" 
			},
			{
				"x": -0.2257666995,
				"y": 1.8166948795,
				"z": 2.5093302915,
				"element": "H" 
			},
			{
				"x": -2.1946900714,
				"y": 0.9384983042,
				"z": 3.7309275454,
				"element": "H" 
			},
			{
				"x": -3.4318053087,
				"y": -1.0271098053,
				"z": 2.8168680138,
				"element": "H" 
			},
			{
				"x": -2.6824758925,
				"y": -2.0742458305,
				"z": 0.7058055617,
				"element": "H" 
			}
		],
		 "valence_orbital": [ 
			{
				"type": "occ",
				"energy": -0.32016,
				"method": "rhf"
			},
			{
				"type": "occ",
				"energy": -0.29357,
				"method": "rhf"
			},
			{
				"type": "occ",
				"energy": -0.29022,
				"method": "rhf"
			},
			{
				"type": "occ",
				"energy": -0.24261,
				"method": "rhf"
			},
			{
				"type": "occ",
				"energy": -0.23513,
				"method": "rhf"
			},
			{
				"type": "unocc",
				"energy": -0.02998,
				"method": "rhf"
			},
			{
				"type": "unocc",
				"energy": -0.00265,
				"method": "rhf"
			},
			{
				"type": "unocc",
				"energy": 0.00543,
				"method": "rhf"
			},
			{
				"type": "unocc",
				"energy": 0.03314,
				"method": "rhf"
			},
			{
				"type": "unocc",
				"energy": 0.06484,
				"method": "rhf"
			}
		],
		"cosmo_sigma_profile": { 
			"-0.025": 0.0,
			"-0.024": 0.0,
			"-0.023": 0.0,
			"-0.022": 0.0,
			"-0.021": 0.0,
			"-0.02": 0.217399504014,
			"-0.019": 1.90019985746,
			"-0.018": 1.99647927412,
			"-0.017": 0.748424826602,
			"-0.016": 0.264784733317,
			"-0.015": 1.72844333762,
			"-0.014": 1.09587789087,
			"-0.013": 0.193642966124,
			"-0.012": 0.747876947691,
			"-0.011": 0.952755309035,
			"-0.01": 0.686535231173,
			"-0.009": 0.761701609303,
			"-0.008": 0.758062685257,
			"-0.007": 0.563915829057,
			"-0.006": 5.64990686624,
			"-0.005": 14.9957606571,
			"-0.004": 17.2652832944,
			"-0.003": 20.3371106772,
			"-0.002": 16.8334393635,
			"-0.001": 13.7516614012,
			"0.0": 15.1938288149,
			"0.001": 16.7522559724,
			"0.002": 11.1640567886,
			"0.003": 12.2009196064,
			"0.004": 11.9878260019,
			"0.005": 12.3753771393,
			"0.006": 9.65602382448,
			"0.007": 5.41699981937,
			"0.008": 4.71752719485,
			"0.009": 4.643133376,
			"0.01": 3.15786210646,
			"0.011": 3.42805330655,
			"0.012": 2.54633093643,
			"0.013": 0.302556369177,
			"0.014": 0.0,
			"0.015": 0.0,
			"0.016": 0.0,
			"0.017": 0.0,
			"0.018": 0.0,
			"0.019": 0.0,
			"0.02": 0.0,
			"0.021": 0.0,
			"0.022": 0.0,
			"0.023": 0.0,
			"0.024": 0.0,
			"0.025": 0.0
		}
	}
}
