{
	 "smiles": "FC1=C(Cl)C(F)=C(Cl)C(F)=C1Cl", 
	 "Tm": 336.15, 
	 "num_atms": 12, 
	 "gaussian": { 
		 "optdone": 1, 
		 "sigma_profile": "yes", 
		 "theory": "DFT", 
		 "functional": "B3LYP", 
		 "basiset": "6-31G**", 
		 "properties": { 
			 "R2extent": 3312.2176, 
			 "electric_dipole_moment_norm": 0.0, 
			 "electric_quadrupole_moment_norm": 2.09865260346, 
			 "total_energy": -1908.68867473, 
			 "HOMO_LUMO_gap": 0.2241, 
			 "cosmo_polarized_energy": -2.56, 
			 "cosmo_cavitation_energy": 23.92, 
			 "cosmo_dispersion_energy": -17.81, 
			 "cosmo_repulsion_energy": 1.37, 
			 "cosmo_total_nonelectrostatic_energy": 7.48, 
			 "SMD_solvation_energy": 4.77 
		},
		"coords": [
			{
				"x": -1.0716008849,
				"y": 1.3338693698,
				"z": -1.7657358666,
				"element": "F" 
			},
			{
				"x": -0.8251073866,
				"y": 0.3118573558,
				"z": -0.9495099111,
				"element": "C" 
			},
			{
				"x": 0.4089989544,
				"y": -0.3382094061,
				"z": -1.0186028509,
				"element": "C" 
			},
			{
				"x": 1.6126433781,
				"y": 0.173891465,
				"z": -2.1522109935,
				"element": "Cl" 
			},
			{
				"x": 0.6540826798,
				"y": -1.4090227916,
				"z": -0.1562478895,
				"element": "C" 
			},
			{
				"x": 1.8261067848,
				"y": -2.0373197513,
				"z": -0.2117299588,
				"element": "F" 
			},
			{
				"x": -0.307850284,
				"y": -1.8327439365,
				"z": 0.7632697849,
				"element": "C" 
			},
			{
				"x": 0.0127407263,
				"y": -3.1618319898,
				"z": 1.8248055598,
				"element": "Cl" 
			},
			{
				"x": -1.5331875483,
				"y": -1.1644016735,
				"z": 0.8105948251,
				"element": "C" 
			},
			{
				"x": -2.4586972074,
				"y": -1.5581023329,
				"z": 1.6823132549,
				"element": "F" 
			},
			{
				"x": -1.8053545499,
				"y": -0.0905922066,
				"z": -0.0398394163,
				"element": "C" 
			},
			{
				"x": -3.3295746623,
				"y": 0.7265058977,
				"z": 0.032293462,
				"element": "Cl" 
			}
		],
		 "valence_orbital": [ 
			{
				"type": "occ",
				"energy": -0.34693,
				"method": "rhf"
			},
			{
				"type": "occ",
				"energy": -0.33691,
				"method": "rhf"
			},
			{
				"type": "occ",
				"energy": -0.32883,
				"method": "rhf"
			},
			{
				"type": "occ",
				"energy": -0.26939,
				"method": "rhf"
			},
			{
				"type": "occ",
				"energy": -0.26939,
				"method": "rhf"
			},
			{
				"type": "unocc",
				"energy": -0.04529,
				"method": "rhf"
			},
			{
				"type": "unocc",
				"energy": -0.04529,
				"method": "rhf"
			},
			{
				"type": "unocc",
				"energy": -0.04291,
				"method": "rhf"
			},
			{
				"type": "unocc",
				"energy": 0.02365,
				"method": "rhf"
			},
			{
				"type": "unocc",
				"energy": 0.02366,
				"method": "rhf"
			}
		],
		"cosmo_sigma_profile": { 
			"-0.025": 0.0,
			"-0.024": 0.0,
			"-0.023": 0.0,
			"-0.022": 0.0,
			"-0.021": 0.0,
			"-0.02": 0.0,
			"-0.019": 0.0,
			"-0.018": 0.0,
			"-0.017": 0.0,
			"-0.016": 0.0,
			"-0.015": 0.0,
			"-0.014": 0.0,
			"-0.013": 0.0,
			"-0.012": 0.0,
			"-0.011": 0.0,
			"-0.01": 0.0,
			"-0.009": 0.0,
			"-0.008": 0.0,
			"-0.007": 0.00391829275459,
			"-0.006": 0.638926733908,
			"-0.005": 4.51886957046,
			"-0.004": 24.4899212472,
			"-0.003": 19.7912238173,
			"-0.002": 15.7370191687,
			"-0.001": 13.4554784656,
			"0.0": 15.1896972064,
			"0.001": 22.558599058,
			"0.002": 47.9001615287,
			"0.003": 36.5431369029,
			"0.004": 0.532059141226,
			"0.005": 0.0,
			"0.006": 0.0,
			"0.007": 0.0,
			"0.008": 0.0,
			"0.009": 0.0,
			"0.01": 0.0,
			"0.011": 0.0,
			"0.012": 0.0,
			"0.013": 0.0,
			"0.014": 0.0,
			"0.015": 0.0,
			"0.016": 0.0,
			"0.017": 0.0,
			"0.018": 0.0,
			"0.019": 0.0,
			"0.02": 0.0,
			"0.021": 0.0,
			"0.022": 0.0,
			"0.023": 0.0,
			"0.024": 0.0,
			"0.025": 0.0
		}
	}
}
