{
	 "smiles": "CN1C=CN=C(N)C1=O", 
	 "Tm": 436.15, 
	 "num_atms": 16, 
	 "gaussian": { 
		 "optdone": 1, 
		 "sigma_profile": "yes", 
		 "theory": "DFT", 
		 "functional": "B3LYP", 
		 "basiset": "6-31G**", 
		 "properties": { 
			 "R2extent": 1112.3199, 
			 "electric_dipole_moment_norm": 1.73610229537, 
			 "electric_quadrupole_moment_norm": 10.4904057329, 
			 "total_energy": -434.237800625, 
			 "HOMO_LUMO_gap": 0.16614, 
			 "cosmo_polarized_energy": -11.87, 
			 "cosmo_cavitation_energy": 19.72, 
			 "cosmo_dispersion_energy": -15.12, 
			 "cosmo_repulsion_energy": 1.24, 
			 "cosmo_total_nonelectrostatic_energy": 5.84, 
			 "SMD_solvation_energy": 3.15 
		},
		"coords": [
			{
				"x": 1.1816750874,
				"y": -0.1535651231,
				"z": 2.3181639729,
				"element": "C" 
			},
			{
				"x": 0.3052712091,
				"y": 0.0855091913,
				"z": 1.1719959135,
				"element": "N" 
			},
			{
				"x": -0.2284957992,
				"y": 1.3498131957,
				"z": 0.9602767543,
				"element": "C" 
			},
			{
				"x": -1.0515635508,
				"y": 1.5650940163,
				"z": -0.0969640136,
				"element": "C" 
			},
			{
				"x": -1.3925899534,
				"y": 0.5861741665,
				"z": -0.9951809319,
				"element": "N" 
			},
			{
				"x": -0.8785553918,
				"y": -0.6024214692,
				"z": -0.8009910758,
				"element": "C" 
			},
			{
				"x": -1.1236536966,
				"y": -1.6323922727,
				"z": -1.6486759282,
				"element": "N" 
			},
			{
				"x": 0.0212571867,
				"y": -0.9675128105,
				"z": 0.3245798752,
				"element": "C" 
			},
			{
				"x": 0.4572490804,
				"y": -2.1141162143,
				"z": 0.4756239669,
				"element": "O" 
			},
			{
				"x": 0.6460277765,
				"y": 0.0454398914,
				"z": 3.251326549,
				"element": "H" 
			},
			{
				"x": 1.4911506928,
				"y": -1.1967335602,
				"z": 2.2870566784,
				"element": "H" 
			},
			{
				"x": 2.0601749554,
				"y": 0.4961122295,
				"z": 2.2621537611,
				"element": "H" 
			},
			{
				"x": 0.0497340666,
				"y": 2.1142402971,
				"z": 1.6748444982,
				"element": "H" 
			},
			{
				"x": -1.4763659593,
				"y": 2.5489441249,
				"z": -0.2674053944,
				"element": "H" 
			},
			{
				"x": -1.8265384418,
				"y": -1.5233056162,
				"z": -2.3607507803,
				"element": "H" 
			},
			{
				"x": -0.800877262,
				"y": -2.5456800465,
				"z": -1.3677538452,
				"element": "H" 
			}
		],
		 "valence_orbital": [ 
			{
				"type": "occ",
				"energy": -0.33756,
				"method": "rhf"
			},
			{
				"type": "occ",
				"energy": -0.29332,
				"method": "rhf"
			},
			{
				"type": "occ",
				"energy": -0.27065,
				"method": "rhf"
			},
			{
				"type": "occ",
				"energy": -0.24004,
				"method": "rhf"
			},
			{
				"type": "occ",
				"energy": -0.19552,
				"method": "rhf"
			},
			{
				"type": "unocc",
				"energy": -0.02938,
				"method": "rhf"
			},
			{
				"type": "unocc",
				"energy": 0.01765,
				"method": "rhf"
			},
			{
				"type": "unocc",
				"energy": 0.09618,
				"method": "rhf"
			},
			{
				"type": "unocc",
				"energy": 0.1033,
				"method": "rhf"
			},
			{
				"type": "unocc",
				"energy": 0.11905,
				"method": "rhf"
			}
		],
		"cosmo_sigma_profile": { 
			"-0.025": 0.0,
			"-0.024": 0.0,
			"-0.023": 0.0,
			"-0.022": 0.0,
			"-0.021": 0.0,
			"-0.02": 0.0,
			"-0.019": 0.0,
			"-0.018": 0.0,
			"-0.017": 0.0,
			"-0.016": 0.0,
			"-0.015": 0.0,
			"-0.014": 0.602534534442,
			"-0.013": 1.04758134412,
			"-0.012": 1.7562686215,
			"-0.011": 1.59188642193,
			"-0.01": 1.73670259264,
			"-0.009": 2.22690103314,
			"-0.008": 4.34957999618,
			"-0.007": 5.74495072307,
			"-0.006": 11.8789676352,
			"-0.005": 10.114162347,
			"-0.004": 9.33506055257,
			"-0.003": 12.5334226726,
			"-0.002": 11.7426594262,
			"-0.001": 9.41345109974,
			"0.0": 8.78632054243,
			"0.001": 6.84906615711,
			"0.002": 7.35970772565,
			"0.003": 7.87974728992,
			"0.004": 7.46781616783,
			"0.005": 4.52368865515,
			"0.006": 4.39556508016,
			"0.007": 3.04616544103,
			"0.008": 3.21210328022,
			"0.009": 2.84338773429,
			"0.01": 2.15191928753,
			"0.011": 2.84488480538,
			"0.012": 2.82134302039,
			"0.013": 5.14325122322,
			"0.014": 2.10559460396,
			"0.015": 0.797915054123,
			"0.016": 0.574701297353,
			"0.017": 0.0242433099752,
			"0.018": 0.0,
			"0.019": 0.0,
			"0.02": 0.0,
			"0.021": 0.0,
			"0.022": 0.0,
			"0.023": 0.0,
			"0.024": 0.0,
			"0.025": 0.0
		}
	}
}
