{
	 "smiles": "CN(C)C1(CCOCC1)C#N", 
	 "Tm": 324.65, 
	 "num_atms": 25, 
	 "gaussian": { 
		 "optdone": 1, 
		 "sigma_profile": "yes", 
		 "theory": "DFT", 
		 "functional": "B3LYP", 
		 "basiset": "6-31G**", 
		 "properties": { 
			 "R2extent": 1760.0123, 
			 "electric_dipole_moment_norm": 3.49006342349, 
			 "electric_quadrupole_moment_norm": 9.22260539924, 
			 "total_energy": -497.968861318, 
			 "HOMO_LUMO_gap": 0.25317, 
			 "cosmo_polarized_energy": -10.35, 
			 "cosmo_cavitation_energy": 25.73, 
			 "cosmo_dispersion_energy": -18.58, 
			 "cosmo_repulsion_energy": 1.47, 
			 "cosmo_total_nonelectrostatic_energy": 8.62, 
			 "SMD_solvation_energy": 3.53 
		},
		"coords": [
			{
				"x": 1.7862747287,
				"y": -1.2265985842,
				"z": 1.1115392802,
				"element": "C" 
			},
			{
				"x": 1.6322516147,
				"y": -0.2428746088,
				"z": 0.0397796408,
				"element": "N" 
			},
			{
				"x": 2.4545045182,
				"y": -0.5999057856,
				"z": -1.112663225,
				"element": "C" 
			},
			{
				"x": 0.2261595205,
				"y": 0.115589668,
				"z": -0.2530307349,
				"element": "C" 
			},
			{
				"x": -0.6841455298,
				"y": -1.066612336,
				"z": -0.7088581257,
				"element": "C" 
			},
			{
				"x": -2.0862785893,
				"y": -0.5855656887,
				"z": -1.1033412012,
				"element": "C" 
			},
			{
				"x": -2.0374502567,
				"y": 0.422288752,
				"z": -2.1029753752,
				"element": "O" 
			},
			{
				"x": -1.326641447,
				"y": 1.569208143,
				"z": -1.6570573765,
				"element": "C" 
			},
			{
				"x": 0.1320075796,
				"y": 1.2254174173,
				"z": -1.3352835883,
				"element": "C" 
			},
			{
				"x": -0.3349169592,
				"y": 0.6836963466,
				"z": 1.0021887017,
				"element": "C" 
			},
			{
				"x": -0.8065503853,
				"y": 1.1271953728,
				"z": 1.9659112787,
				"element": "N" 
			},
			{
				"x": 2.83792866,
				"y": -1.2544864614,
				"z": 1.4126906777,
				"element": "H" 
			},
			{
				"x": 1.1993413278,
				"y": -0.930645647,
				"z": 1.9843810285,
				"element": "H" 
			},
			{
				"x": 1.493029741,
				"y": -2.2518844355,
				"z": 0.8252435841,
				"element": "H" 
			},
			{
				"x": 2.1249948751,
				"y": -1.5108522488,
				"z": -1.6439911831,
				"element": "H" 
			},
			{
				"x": 3.4722237061,
				"y": -0.7819912056,
				"z": -0.7551380768,
				"element": "H" 
			},
			{
				"x": 2.5093134147,
				"y": 0.2188284896,
				"z": -1.8319504314,
				"element": "H" 
			},
			{
				"x": -0.7617948511,
				"y": -1.8206756435,
				"z": 0.0808488085,
				"element": "H" 
			},
			{
				"x": -0.211213959,
				"y": -1.5365607175,
				"z": -1.5778408017,
				"element": "H" 
			},
			{
				"x": -2.6219403022,
				"y": -0.2155733193,
				"z": -0.2141246471,
				"element": "H" 
			},
			{
				"x": -2.6667588245,
				"y": -1.4105727023,
				"z": -1.5261734406,
				"element": "H" 
			},
			{
				"x": -1.3698311285,
				"y": 2.2958411883,
				"z": -2.4731281694,
				"element": "H" 
			},
			{
				"x": -1.8237628357,
				"y": 2.0131418287,
				"z": -0.7801494616,
				"element": "H" 
			},
			{
				"x": 0.6838860816,
				"y": 2.1119053793,
				"z": -1.0065312023,
				"element": "H" 
			},
			{
				"x": 0.5925693001,
				"y": 0.8558867986,
				"z": -2.2548459594,
				"element": "H" 
			}
		],
		 "valence_orbital": [ 
			{
				"type": "occ",
				"energy": -0.33067,
				"method": "rhf"
			},
			{
				"type": "occ",
				"energy": -0.31952,
				"method": "rhf"
			},
			{
				"type": "occ",
				"energy": -0.31222,
				"method": "rhf"
			},
			{
				"type": "occ",
				"energy": -0.26129,
				"method": "rhf"
			},
			{
				"type": "occ",
				"energy": -0.22592,
				"method": "rhf"
			},
			{
				"type": "unocc",
				"energy": 0.02725,
				"method": "rhf"
			},
			{
				"type": "unocc",
				"energy": 0.03659,
				"method": "rhf"
			},
			{
				"type": "unocc",
				"energy": 0.07271,
				"method": "rhf"
			},
			{
				"type": "unocc",
				"energy": 0.09113,
				"method": "rhf"
			},
			{
				"type": "unocc",
				"energy": 0.11542,
				"method": "rhf"
			}
		],
		"cosmo_sigma_profile": { 
			"-0.025": 0.0,
			"-0.024": 0.0,
			"-0.023": 0.0,
			"-0.022": 0.0,
			"-0.021": 0.0,
			"-0.02": 0.0,
			"-0.019": 0.0,
			"-0.018": 0.0,
			"-0.017": 0.0,
			"-0.016": 0.0,
			"-0.015": 0.0,
			"-0.014": 0.0,
			"-0.013": 0.0,
			"-0.012": 0.0,
			"-0.011": 0.0,
			"-0.01": 0.0,
			"-0.009": 0.0,
			"-0.008": 0.0,
			"-0.007": 0.0,
			"-0.006": 2.93231678432,
			"-0.005": 18.6193963324,
			"-0.004": 30.1488316441,
			"-0.003": 33.2350597855,
			"-0.002": 26.1540126188,
			"-0.001": 22.0392585111,
			"0.0": 9.88238392932,
			"0.001": 5.01536426997,
			"0.002": 3.3263019058,
			"0.003": 5.63144378865,
			"0.004": 4.90063242089,
			"0.005": 3.60920655404,
			"0.006": 3.53634365678,
			"0.007": 4.66687485168,
			"0.008": 4.51200817504,
			"0.009": 4.48810804035,
			"0.01": 4.61106263445,
			"0.011": 4.97014652927,
			"0.012": 4.01972492958,
			"0.013": 3.84517518902,
			"0.014": 0.491349896943,
			"0.015": 0.0,
			"0.016": 0.0,
			"0.017": 0.0,
			"0.018": 0.0,
			"0.019": 0.0,
			"0.02": 0.0,
			"0.021": 0.0,
			"0.022": 0.0,
			"0.023": 0.0,
			"0.024": 0.0,
			"0.025": 0.0
		}
	}
}
