{
	 "smiles": "OCC(Br)(CO)[N+]([O-])=O", 
	 "Tm": 402.15, 
	 "num_atms": 15, 
	 "gaussian": { 
		 "optdone": 1, 
		 "sigma_profile": "yes", 
		 "theory": "DFT", 
		 "functional": "B3LYP", 
		 "basiset": "6-31G**", 
		 "properties": { 
			 "R2extent": 2267.5343, 
			 "electric_dipole_moment_norm": 1.5138077553, 
			 "electric_quadrupole_moment_norm": 8.34876843612, 
			 "total_energy": -3044.85976013, 
			 "HOMO_LUMO_gap": 0.19024, 
			 "cosmo_polarized_energy": -10.66, 
			 "cosmo_cavitation_energy": 20.94, 
			 "cosmo_dispersion_energy": -15.68, 
			 "cosmo_repulsion_energy": 1.28, 
			 "cosmo_total_nonelectrostatic_energy": 6.55, 
			 "SMD_solvation_energy": 4.44 
		},
		"coords": [
			{
				"x": -0.5337031577,
				"y": -0.9169136226,
				"z": 0.5564146684,
				"element": "O" 
			},
			{
				"x": 0.4923887738,
				"y": 0.016718317,
				"z": 0.7457653063,
				"element": "C" 
			},
			{
				"x": 0.168268032,
				"y": 1.3750842752,
				"z": 0.0599321876,
				"element": "C" 
			},
			{
				"x": 0.5813476439,
				"y": 1.3488030984,
				"z": -1.8590812662,
				"element": "Br" 
			},
			{
				"x": -1.3035235246,
				"y": 1.7744782057,
				"z": 0.2300284983,
				"element": "C" 
			},
			{
				"x": -1.7548654557,
				"y": 1.5431983016,
				"z": 1.5513348789,
				"element": "O" 
			},
			{
				"x": 1.0904527242,
				"y": 2.4021949031,
				"z": 0.7275247431,
				"element": "N" 
			},
			{
				"x": 2.2828426585,
				"y": 2.3514680759,
				"z": 0.4859214487,
				"element": "O" 
			},
			{
				"x": 0.5585691438,
				"y": 3.1574049091,
				"z": 1.547479786,
				"element": "O" 
			},
			{
				"x": -1.2629198798,
				"y": -0.6456067649,
				"z": 1.1349621808,
				"element": "H" 
			},
			{
				"x": 0.6668449609,
				"y": 0.2258459695,
				"z": 1.8109337457,
				"element": "H" 
			},
			{
				"x": 1.4125368719,
				"y": -0.3878700935,
				"z": 0.321392658,
				"element": "H" 
			},
			{
				"x": -1.8874100938,
				"y": 1.1257056556,
				"z": -0.4235047193,
				"element": "H" 
			},
			{
				"x": -1.4444279762,
				"y": 2.811893099,
				"z": -0.0917092534,
				"element": "H" 
			},
			{
				"x": -1.3126007212,
				"y": 2.2022956708,
				"z": 2.1077051372,
				"element": "H" 
			}
		],
		 "valence_orbital": [ 
			{
				"type": "occ",
				"energy": -0.32771,
				"method": "rhf"
			},
			{
				"type": "occ",
				"energy": -0.31435,
				"method": "rhf"
			},
			{
				"type": "occ",
				"energy": -0.31162,
				"method": "rhf"
			},
			{
				"type": "occ",
				"energy": -0.29761,
				"method": "rhf"
			},
			{
				"type": "occ",
				"energy": -0.28975,
				"method": "rhf"
			},
			{
				"type": "unocc",
				"energy": -0.09951,
				"method": "rhf"
			},
			{
				"type": "unocc",
				"energy": -0.02517,
				"method": "rhf"
			},
			{
				"type": "unocc",
				"energy": 0.05298,
				"method": "rhf"
			},
			{
				"type": "unocc",
				"energy": 0.07521,
				"method": "rhf"
			},
			{
				"type": "unocc",
				"energy": 0.10503,
				"method": "rhf"
			}
		],
		"cosmo_sigma_profile": { 
			"-0.025": 0.0,
			"-0.024": 0.0,
			"-0.023": 0.0,
			"-0.022": 0.0,
			"-0.021": 0.0,
			"-0.02": 0.0,
			"-0.019": 0.0,
			"-0.018": 0.0,
			"-0.017": 0.0,
			"-0.016": 0.0,
			"-0.015": 0.0,
			"-0.014": 0.0982530599827,
			"-0.013": 0.876712740324,
			"-0.012": 1.12734474833,
			"-0.011": 1.61511303647,
			"-0.01": 3.08790651611,
			"-0.009": 3.34909004062,
			"-0.008": 5.57128590915,
			"-0.007": 9.85732935816,
			"-0.006": 10.0323061486,
			"-0.005": 9.43446299686,
			"-0.004": 11.6174699624,
			"-0.003": 8.24524238022,
			"-0.002": 7.40164051793,
			"-0.001": 7.42922909504,
			"0.0": 6.75114972703,
			"0.001": 8.61542727026,
			"0.002": 8.48134203477,
			"0.003": 12.546041455,
			"0.004": 9.67451569996,
			"0.005": 6.82396302327,
			"0.006": 10.5411999272,
			"0.007": 8.45809419585,
			"0.008": 5.20241888086,
			"0.009": 2.90001749392,
			"0.01": 1.94886194459,
			"0.011": 2.11868954251,
			"0.012": 2.91416409955,
			"0.013": 1.03049324612,
			"0.014": 0.0,
			"0.015": 0.0,
			"0.016": 0.0,
			"0.017": 0.0,
			"0.018": 0.0,
			"0.019": 0.0,
			"0.02": 0.0,
			"0.021": 0.0,
			"0.022": 0.0,
			"0.023": 0.0,
			"0.024": 0.0,
			"0.025": 0.0
		}
	}
}
