{
	 "smiles": "CC1=CN2C(S1)=NC(C)=C2C=O", 
	 "Tm": 427.15, 
	 "num_atms": 20, 
	 "gaussian": { 
		 "optdone": 1, 
		 "sigma_profile": "yes", 
		 "theory": "DFT", 
		 "functional": "B3LYP", 
		 "basiset": "6-31G**", 
		 "properties": { 
			 "R2extent": 2535.8592, 
			 "electric_dipole_moment_norm": 1.6171732282, 
			 "electric_quadrupole_moment_norm": 15.3005320117, 
			 "total_energy": -892.574636927, 
			 "HOMO_LUMO_gap": 0.17451, 
			 "cosmo_polarized_energy": -9.9, 
			 "cosmo_cavitation_energy": 26.02, 
			 "cosmo_dispersion_energy": -19.52, 
			 "cosmo_repulsion_energy": 1.5, 
			 "cosmo_total_nonelectrostatic_energy": 8.0, 
			 "SMD_solvation_energy": 3.74 
		},
		"coords": [
			{
				"x": -2.0961821724,
				"y": -0.1047300837,
				"z": -2.4509557082,
				"element": "C" 
			},
			{
				"x": -1.3406962792,
				"y": -0.1038708093,
				"z": -1.1594773713,
				"element": "C" 
			},
			{
				"x": -0.1601579388,
				"y": -0.7091427576,
				"z": -0.8861330941,
				"element": "C" 
			},
			{
				"x": 0.2522218352,
				"y": -0.4982111932,
				"z": 0.4245590237,
				"element": "N" 
			},
			{
				"x": -0.5829720626,
				"y": 0.2625893059,
				"z": 1.1881390642,
				"element": "C" 
			},
			{
				"x": -1.9726760554,
				"y": 0.7651617876,
				"z": 0.2622698252,
				"element": "S" 
			},
			{
				"x": -0.1524896366,
				"y": 0.4393558526,
				"z": 2.4311891104,
				"element": "N" 
			},
			{
				"x": 1.0294396809,
				"y": -0.2446438458,
				"z": 2.4802713062,
				"element": "C" 
			},
			{
				"x": 1.8373587564,
				"y": -0.2854614054,
				"z": 3.7414366843,
				"element": "C" 
			},
			{
				"x": 1.3251997515,
				"y": -0.8487740463,
				"z": 1.2469085888,
				"element": "C" 
			},
			{
				"x": 2.4212358769,
				"y": -1.6582752506,
				"z": 0.7881934391,
				"element": "C" 
			},
			{
				"x": 2.5201212351,
				"y": -2.112205963,
				"z": -0.3491770046,
				"element": "O" 
			},
			{
				"x": -2.2270368527,
				"y": 0.9094592049,
				"z": -2.844257538,
				"element": "H" 
			},
			{
				"x": -1.5498525507,
				"y": -0.6881590605,
				"z": -3.1967333986,
				"element": "H" 
			},
			{
				"x": -3.0916653094,
				"y": -0.5480407095,
				"z": -2.337469411,
				"element": "H" 
			},
			{
				"x": 0.460584699,
				"y": -1.304383143,
				"z": -1.539402217,
				"element": "H" 
			},
			{
				"x": 1.3207343039,
				"y": 0.2889114076,
				"z": 4.5122417329,
				"element": "H" 
			},
			{
				"x": 1.9707917258,
				"y": -1.3103715605,
				"z": 4.1043740146,
				"element": "H" 
			},
			{
				"x": 2.8342679051,
				"y": 0.1454186541,
				"z": 3.5983238967,
				"element": "H" 
			},
			{
				"x": 3.2005730882,
				"y": -1.8546263844,
				"z": 1.5529990566,
				"element": "H" 
			}
		],
		 "valence_orbital": [ 
			{
				"type": "occ",
				"energy": -0.32039,
				"method": "rhf"
			},
			{
				"type": "occ",
				"energy": -0.29116,
				"method": "rhf"
			},
			{
				"type": "occ",
				"energy": -0.25146,
				"method": "rhf"
			},
			{
				"type": "occ",
				"energy": -0.23726,
				"method": "rhf"
			},
			{
				"type": "occ",
				"energy": -0.22818,
				"method": "rhf"
			},
			{
				"type": "unocc",
				"energy": -0.05367,
				"method": "rhf"
			},
			{
				"type": "unocc",
				"energy": -0.00235,
				"method": "rhf"
			},
			{
				"type": "unocc",
				"energy": 0.00024,
				"method": "rhf"
			},
			{
				"type": "unocc",
				"energy": 0.04497,
				"method": "rhf"
			},
			{
				"type": "unocc",
				"energy": 0.06676,
				"method": "rhf"
			}
		],
		"cosmo_sigma_profile": { 
			"-0.025": 0.0,
			"-0.024": 0.0,
			"-0.023": 0.0,
			"-0.022": 0.0,
			"-0.021": 0.0,
			"-0.02": 0.0,
			"-0.019": 0.0,
			"-0.018": 0.0,
			"-0.017": 0.0,
			"-0.016": 0.0,
			"-0.015": 0.0,
			"-0.014": 0.0,
			"-0.013": 0.0,
			"-0.012": 0.0,
			"-0.011": 0.0,
			"-0.01": 0.0,
			"-0.009": 0.231638876747,
			"-0.008": 1.00873212721,
			"-0.007": 2.37150470085,
			"-0.006": 11.0853389503,
			"-0.005": 20.3121695872,
			"-0.004": 15.6600781712,
			"-0.003": 16.5358592485,
			"-0.002": 22.527955157,
			"-0.001": 26.5769938827,
			"0.0": 22.6528716959,
			"0.001": 18.3561426623,
			"0.002": 10.7718680049,
			"0.003": 7.7217628964,
			"0.004": 4.49966780059,
			"0.005": 2.95723687911,
			"0.006": 2.98087900405,
			"0.007": 2.97873274441,
			"0.008": 2.2841631468,
			"0.009": 2.74587065934,
			"0.01": 2.83787079148,
			"0.011": 3.42527993879,
			"0.012": 3.78836067787,
			"0.013": 3.16716545997,
			"0.014": 1.36700578138,
			"0.015": 1.11741992348,
			"0.016": 0.56443682225,
			"0.017": 0.0645761492652,
			"0.018": 0.0,
			"0.019": 0.0,
			"0.02": 0.0,
			"0.021": 0.0,
			"0.022": 0.0,
			"0.023": 0.0,
			"0.024": 0.0,
			"0.025": 0.0
		}
	}
}
