{
	 "smiles": "OC1=CC=C(C=C1)C(=O)N1CCCC1", 
	 "Tm": 442.15, 
	 "num_atms": 27, 
	 "gaussian": { 
		 "optdone": 1, 
		 "sigma_profile": "yes", 
		 "theory": "DFT", 
		 "functional": "B3LYP", 
		 "basiset": "6-31G**", 
		 "properties": { 
			 "R2extent": 3815.9568, 
			 "electric_dipole_moment_norm": 2.88807572442, 
			 "electric_quadrupole_moment_norm": 25.201537511, 
			 "total_energy": -632.217383951, 
			 "HOMO_LUMO_gap": 0.2041, 
			 "cosmo_polarized_energy": -15.29, 
			 "cosmo_cavitation_energy": 29.48, 
			 "cosmo_dispersion_energy": -21.87, 
			 "cosmo_repulsion_energy": 1.73, 
			 "cosmo_total_nonelectrostatic_energy": 9.33, 
			 "SMD_solvation_energy": 4.59 
		},
		"coords": [
			{
				"x": 1.1902238637,
				"y": 4.1343127117,
				"z": -1.3427184914,
				"element": "O" 
			},
			{
				"x": 0.4425340743,
				"y": 3.0096071643,
				"z": -1.1537394084,
				"element": "C" 
			},
			{
				"x": -0.802871368,
				"y": 3.0278939052,
				"z": -0.5123065298,
				"element": "C" 
			},
			{
				"x": -1.5181209204,
				"y": 1.8460589922,
				"z": -0.3563680059,
				"element": "C" 
			},
			{
				"x": -1.0010571927,
				"y": 0.6225944751,
				"z": -0.8057213052,
				"element": "C" 
			},
			{
				"x": 0.2411101761,
				"y": 0.6237341178,
				"z": -1.4590781143,
				"element": "C" 
			},
			{
				"x": 0.9588702434,
				"y": 1.8023136996,
				"z": -1.6374516406,
				"element": "C" 
			},
			{
				"x": -1.8732049972,
				"y": -0.5879950838,
				"z": -0.6427562349,
				"element": "C" 
			},
			{
				"x": -3.1011842129,
				"y": -0.4800802392,
				"z": -0.6695564,
				"element": "O" 
			},
			{
				"x": -1.2872533689,
				"y": -1.8185132644,
				"z": -0.4745357609,
				"element": "N" 
			},
			{
				"x": 0.0749248827,
				"y": -2.105558352,
				"z": 0.0083807274,
				"element": "C" 
			},
			{
				"x": -0.1069683265,
				"y": -3.365380939,
				"z": 0.8676218038,
				"element": "C" 
			},
			{
				"x": -1.2370543344,
				"y": -4.1099501853,
				"z": 0.1390874956,
				"element": "C" 
			},
			{
				"x": -2.1805248708,
				"y": -2.9784874656,
				"z": -0.2917803319,
				"element": "C" 
			},
			{
				"x": 0.7167107374,
				"y": 4.8946249594,
				"z": -0.9804883101,
				"element": "H" 
			},
			{
				"x": -1.212191669,
				"y": 3.9675424617,
				"z": -0.1464415543,
				"element": "H" 
			},
			{
				"x": -2.4982106634,
				"y": 1.8511375626,
				"z": 0.1084165359,
				"element": "H" 
			},
			{
				"x": 0.6447379297,
				"y": -0.2985300915,
				"z": -1.8630500651,
				"element": "H" 
			},
			{
				"x": 1.9126654241,
				"y": 1.809379533,
				"z": -2.154432151,
				"element": "H" 
			},
			{
				"x": 0.4820474684,
				"y": -1.257521669,
				"z": 0.5635281735,
				"element": "H" 
			},
			{
				"x": 0.7554727267,
				"y": -2.3159920636,
				"z": -0.8289557921,
				"element": "H" 
			},
			{
				"x": -0.4282472636,
				"y": -3.0849642797,
				"z": 1.8773872698,
				"element": "H" 
			},
			{
				"x": 0.8151442995,
				"y": -3.9467458241,
				"z": 0.9557013693,
				"element": "H" 
			},
			{
				"x": -1.7399693221,
				"y": -4.8522224361,
				"z": 0.7646016266,
				"element": "H" 
			},
			{
				"x": -0.837606085,
				"y": -4.6303862882,
				"z": -0.7392771219,
				"element": "H" 
			},
			{
				"x": -2.7260875289,
				"y": -3.1933936411,
				"z": -1.2154542409,
				"element": "H" 
			},
			{
				"x": -2.9289897022,
				"y": -2.7461777599,
				"z": 0.4750864566,
				"element": "H" 
			}
		],
		 "valence_orbital": [ 
			{
				"type": "occ",
				"energy": -0.32465,
				"method": "rhf"
			},
			{
				"type": "occ",
				"energy": -0.25646,
				"method": "rhf"
			},
			{
				"type": "occ",
				"energy": -0.24193,
				"method": "rhf"
			},
			{
				"type": "occ",
				"energy": -0.22916,
				"method": "rhf"
			},
			{
				"type": "occ",
				"energy": -0.22117,
				"method": "rhf"
			},
			{
				"type": "unocc",
				"energy": -0.01707,
				"method": "rhf"
			},
			{
				"type": "unocc",
				"energy": -0.00536,
				"method": "rhf"
			},
			{
				"type": "unocc",
				"energy": 0.06498,
				"method": "rhf"
			},
			{
				"type": "unocc",
				"energy": 0.06723,
				"method": "rhf"
			},
			{
				"type": "unocc",
				"energy": 0.08042,
				"method": "rhf"
			}
		],
		"cosmo_sigma_profile": { 
			"-0.025": 0.0,
			"-0.024": 0.0,
			"-0.023": 0.0,
			"-0.022": 0.0,
			"-0.021": 0.0,
			"-0.02": 0.0,
			"-0.019": 0.0,
			"-0.018": 0.556204079736,
			"-0.017": 1.25944721788,
			"-0.016": 1.1948789482,
			"-0.015": 1.04785347812,
			"-0.014": 0.981864556301,
			"-0.013": 1.09971021607,
			"-0.012": 0.783187702891,
			"-0.011": 1.13238260198,
			"-0.01": 0.788157827624,
			"-0.009": 1.23198080183,
			"-0.008": 0.987845083455,
			"-0.007": 2.25569629332,
			"-0.006": 6.24624325568,
			"-0.005": 10.0275443353,
			"-0.004": 19.498902155,
			"-0.003": 29.7102886225,
			"-0.002": 28.666114688,
			"-0.001": 20.0097652026,
			"0.0": 17.5298829836,
			"0.001": 10.1378523891,
			"0.002": 11.2274791779,
			"0.003": 12.6835422178,
			"0.004": 14.20460699,
			"0.005": 8.83126846931,
			"0.006": 3.34954489791,
			"0.007": 3.01001996917,
			"0.008": 2.69190874305,
			"0.009": 2.99150946346,
			"0.01": 3.50994813749,
			"0.011": 3.45877806798,
			"0.012": 1.55817325786,
			"0.013": 1.85239679646,
			"0.014": 4.69740539753,
			"0.015": 2.99975950528,
			"0.016": 0.108881202608,
			"0.017": 0.0,
			"0.018": 0.0,
			"0.019": 0.0,
			"0.02": 0.0,
			"0.021": 0.0,
			"0.022": 0.0,
			"0.023": 0.0,
			"0.024": 0.0,
			"0.025": 0.0
		}
	}
}
