{
	 "smiles": "CN1CCN(CC2=CC=C(N)C=C2)CC1", 
	 "Tm": 370.15, 
	 "num_atms": 34, 
	 "gaussian": { 
		 "optdone": 1, 
		 "sigma_profile": "yes", 
		 "theory": "DFT", 
		 "functional": "B3LYP", 
		 "basiset": "6-31G**", 
		 "properties": { 
			 "R2extent": 4923.9775, 
			 "electric_dipole_moment_norm": 1.7824728385, 
			 "electric_quadrupole_moment_norm": 18.6493276772, 
			 "total_energy": -632.958011932, 
			 "HOMO_LUMO_gap": 0.19786, 
			 "cosmo_polarized_energy": -10.55, 
			 "cosmo_cavitation_energy": 34.45, 
			 "cosmo_dispersion_energy": -24.48, 
			 "cosmo_repulsion_energy": 1.92, 
			 "cosmo_total_nonelectrostatic_energy": 11.89, 
			 "SMD_solvation_energy": 2.07 
		},
		"coords": [
			{
				"x": 3.4402677829,
				"y": 1.811281966,
				"z": -1.1258227149,
				"element": "C" 
			},
			{
				"x": 3.3278860869,
				"y": 1.4033992536,
				"z": 0.2722232704,
				"element": "N" 
			},
			{
				"x": 2.8399705226,
				"y": 0.041010511,
				"z": 0.4442120995,
				"element": "C" 
			},
			{
				"x": 1.3543863238,
				"y": -0.1488610912,
				"z": 0.033745391,
				"element": "C" 
			},
			{
				"x": 0.6259569891,
				"y": 1.1201832235,
				"z": 0.1549296973,
				"element": "N" 
			},
			{
				"x": -0.8231485759,
				"y": 0.9408025213,
				"z": 0.0990319202,
				"element": "C" 
			},
			{
				"x": -1.3098804733,
				"y": 0.4384402622,
				"z": -1.2461232106,
				"element": "C" 
			},
			{
				"x": -0.9667866685,
				"y": 1.1095749242,
				"z": -2.4285629315,
				"element": "C" 
			},
			{
				"x": -1.4310911548,
				"y": 0.6792471157,
				"z": -3.666445907,
				"element": "C" 
			},
			{
				"x": -2.2684265374,
				"y": -0.4470352626,
				"z": -3.7660772892,
				"element": "C" 
			},
			{
				"x": -2.7857426272,
				"y": -0.845522923,
				"z": -5.0025954315,
				"element": "N" 
			},
			{
				"x": -2.6147849189,
				"y": -1.123557232,
				"z": -2.586159151,
				"element": "C" 
			},
			{
				"x": -2.1375345232,
				"y": -0.683287407,
				"z": -1.352477493,
				"element": "C" 
			},
			{
				"x": 1.0774996915,
				"y": 1.8736488897,
				"z": 1.3199966712,
				"element": "C" 
			},
			{
				"x": 2.5469953421,
				"y": 2.3251498722,
				"z": 1.1106944343,
				"element": "C" 
			},
			{
				"x": 3.9189750991,
				"y": 2.7951766751,
				"z": -1.1776167186,
				"element": "H" 
			},
			{
				"x": 4.0907202215,
				"y": 1.1030565092,
				"z": -1.6519335886,
				"element": "H" 
			},
			{
				"x": 2.4798197963,
				"y": 1.866957423,
				"z": -1.6622960895,
				"element": "H" 
			},
			{
				"x": 3.4755474388,
				"y": -0.6472155147,
				"z": -0.1236377301,
				"element": "H" 
			},
			{
				"x": 2.9635155051,
				"y": -0.2216279087,
				"z": 1.5026678542,
				"element": "H" 
			},
			{
				"x": 0.9040185209,
				"y": -0.9364352231,
				"z": 0.6713475237,
				"element": "H" 
			},
			{
				"x": 1.2694458603,
				"y": -0.4953947026,
				"z": -1.0011034588,
				"element": "H" 
			},
			{
				"x": -1.1830227377,
				"y": 0.2536302214,
				"z": 0.8911012262,
				"element": "H" 
			},
			{
				"x": -1.2765282463,
				"y": 1.9191071824,
				"z": 0.309789047,
				"element": "H" 
			},
			{
				"x": -0.3141357251,
				"y": 1.9763421133,
				"z": -2.3706963056,
				"element": "H" 
			},
			{
				"x": -1.1530403069,
				"y": 1.2193400865,
				"z": -4.5687951387,
				"element": "H" 
			},
			{
				"x": -3.0624915856,
				"y": -1.8164416905,
				"z": -5.0551224982,
				"element": "H" 
			},
			{
				"x": -2.2317315756,
				"y": -0.5731056601,
				"z": -5.8031506388,
				"element": "H" 
			},
			{
				"x": -3.2593836753,
				"y": -1.9979724707,
				"z": -2.6384288523,
				"element": "H" 
			},
			{
				"x": -2.4151460973,
				"y": -1.2289779694,
				"z": -0.4533819511,
				"element": "H" 
			},
			{
				"x": 0.9861258033,
				"y": 1.2838394383,
				"z": 2.2545812264,
				"element": "H" 
			},
			{
				"x": 0.4334598073,
				"y": 2.7509095206,
				"z": 1.4463850082,
				"element": "H" 
			},
			{
				"x": 3.029701321,
				"y": 2.4259057228,
				"z": 2.0940034939,
				"element": "H" 
			},
			{
				"x": 2.5669833165,
				"y": 3.3132316237,
				"z": 0.6413182354,
				"element": "H" 
			}
		],
		 "valence_orbital": [ 
			{
				"type": "occ",
				"energy": -0.29517,
				"method": "rhf"
			},
			{
				"type": "occ",
				"energy": -0.24101,
				"method": "rhf"
			},
			{
				"type": "occ",
				"energy": -0.20772,
				"method": "rhf"
			},
			{
				"type": "occ",
				"energy": -0.1954,
				"method": "rhf"
			},
			{
				"type": "occ",
				"energy": -0.19089,
				"method": "rhf"
			},
			{
				"type": "unocc",
				"energy": 0.00697,
				"method": "rhf"
			},
			{
				"type": "unocc",
				"energy": 0.01985,
				"method": "rhf"
			},
			{
				"type": "unocc",
				"energy": 0.08156,
				"method": "rhf"
			},
			{
				"type": "unocc",
				"energy": 0.08426,
				"method": "rhf"
			},
			{
				"type": "unocc",
				"energy": 0.10891,
				"method": "rhf"
			}
		],
		"cosmo_sigma_profile": { 
			"-0.025": 0.0,
			"-0.024": 0.0,
			"-0.023": 0.0,
			"-0.022": 0.0,
			"-0.021": 0.0,
			"-0.02": 0.0,
			"-0.019": 0.0,
			"-0.018": 0.0,
			"-0.017": 0.0,
			"-0.016": 0.0,
			"-0.015": 0.0,
			"-0.014": 0.0,
			"-0.013": 0.0115745967001,
			"-0.012": 1.90745819689,
			"-0.011": 2.65796859533,
			"-0.01": 3.17920436023,
			"-0.009": 2.61618455188,
			"-0.008": 2.63512969528,
			"-0.007": 3.60200053415,
			"-0.006": 3.80126682643,
			"-0.005": 5.11451716714,
			"-0.004": 15.0598995258,
			"-0.003": 28.8756717004,
			"-0.002": 34.9382236953,
			"-0.001": 40.4110107715,
			"0.0": 30.0330749346,
			"0.001": 16.6520733782,
			"0.002": 11.2454143426,
			"0.003": 10.4730765134,
			"0.004": 9.55969052131,
			"0.005": 8.90822438854,
			"0.006": 11.6379060243,
			"0.007": 9.63107114264,
			"0.008": 3.62323291069,
			"0.009": 2.44683826015,
			"0.01": 1.81138836873,
			"0.011": 0.968826682833,
			"0.012": 2.03044266407,
			"0.013": 1.27138704536,
			"0.014": 0.77360296097,
			"0.015": 0.896878407474,
			"0.016": 0.721433541931,
			"0.017": 0.296230724135,
			"0.018": 0.0,
			"0.019": 0.0,
			"0.02": 0.0,
			"0.021": 0.0,
			"0.022": 0.0,
			"0.023": 0.0,
			"0.024": 0.0,
			"0.025": 0.0
		}
	}
}
