{
	 "smiles": "OC(=O)C1=CC2=C(CCC2)C=C1", 
	 "Tm": 447.15, 
	 "num_atms": 22, 
	 "gaussian": { 
		 "optdone": 1, 
		 "sigma_profile": "yes", 
		 "theory": "DFT", 
		 "functional": "B3LYP", 
		 "basiset": "6-31G**", 
		 "properties": { 
			 "R2extent": 2408.9975, 
			 "electric_dipole_moment_norm": 5.28453952015, 
			 "electric_quadrupole_moment_norm": 20.0371826927, 
			 "total_energy": -537.559591354, 
			 "HOMO_LUMO_gap": 0.20611, 
			 "cosmo_polarized_energy": -13.11, 
			 "cosmo_cavitation_energy": 25.13, 
			 "cosmo_dispersion_energy": -18.92, 
			 "cosmo_repulsion_energy": 1.51, 
			 "cosmo_total_nonelectrostatic_energy": 7.72, 
			 "SMD_solvation_energy": 4.76 
		},
		"coords": [
			{
				"x": 3.4417012609,
				"y": 0.3536939403,
				"z": 2.211187031,
				"element": "O" 
			},
			{
				"x": 2.9981889431,
				"y": 0.2868845926,
				"z": 0.9250740108,
				"element": "C" 
			},
			{
				"x": 3.7806665583,
				"y": 0.4207880464,
				"z": 0.0130535937,
				"element": "O" 
			},
			{
				"x": 1.5321450596,
				"y": 0.0489965566,
				"z": 0.7283161721,
				"element": "C" 
			},
			{
				"x": 0.9832349883,
				"y": 0.3922050145,
				"z": -0.5178950449,
				"element": "C" 
			},
			{
				"x": -0.3733412888,
				"y": 0.1976738593,
				"z": -0.7444999044,
				"element": "C" 
			},
			{
				"x": -1.1896668643,
				"y": -0.3598282755,
				"z": 0.253874803,
				"element": "C" 
			},
			{
				"x": -2.6141250414,
				"y": -0.4911562243,
				"z": -0.2406016847,
				"element": "C" 
			},
			{
				"x": -2.6467068753,
				"y": 0.4471433567,
				"z": -1.4742229757,
				"element": "C" 
			},
			{
				"x": -1.1855281007,
				"y": 0.4858456927,
				"z": -1.9902012778,
				"element": "C" 
			},
			{
				"x": -0.6472899207,
				"y": -0.728714001,
				"z": 1.4831166034,
				"element": "C" 
			},
			{
				"x": 0.7135194334,
				"y": -0.5193244048,
				"z": 1.7173517192,
				"element": "C" 
			},
			{
				"x": 2.6895154598,
				"y": 0.3971882096,
				"z": 2.8174034994,
				"element": "H" 
			},
			{
				"x": 1.6394227192,
				"y": 0.8113570707,
				"z": -1.2741220415,
				"element": "H" 
			},
			{
				"x": -3.3602226196,
				"y": -0.2286846341,
				"z": 0.5166932999,
				"element": "H" 
			},
			{
				"x": -2.8136275981,
				"y": -1.5318537245,
				"z": -0.5334175286,
				"element": "H" 
			},
			{
				"x": -2.9436435485,
				"y": 1.4522311223,
				"z": -1.1546525579,
				"element": "H" 
			},
			{
				"x": -3.3594738364,
				"y": 0.1219353907,
				"z": -2.2367002126,
				"element": "H" 
			},
			{
				"x": -0.9253495889,
				"y": 1.4378839645,
				"z": -2.4636571216,
				"element": "H" 
			},
			{
				"x": -1.0127449867,
				"y": -0.2984833886,
				"z": -2.7404085864,
				"element": "H" 
			},
			{
				"x": -1.2686740214,
				"y": -1.1763358209,
				"z": 2.2540587329,
				"element": "H" 
			},
			{
				"x": 1.135299868,
				"y": -0.8413463432,
				"z": 2.6667494706,
				"element": "H" 
			}
		],
		 "valence_orbital": [ 
			{
				"type": "occ",
				"energy": -0.3387,
				"method": "rhf"
			},
			{
				"type": "occ",
				"energy": -0.30994,
				"method": "rhf"
			},
			{
				"type": "occ",
				"energy": -0.27003,
				"method": "rhf"
			},
			{
				"type": "occ",
				"energy": -0.25877,
				"method": "rhf"
			},
			{
				"type": "occ",
				"energy": -0.25006,
				"method": "rhf"
			},
			{
				"type": "unocc",
				"energy": -0.04395,
				"method": "rhf"
			},
			{
				"type": "unocc",
				"energy": -0.01842,
				"method": "rhf"
			},
			{
				"type": "unocc",
				"energy": 0.05302,
				"method": "rhf"
			},
			{
				"type": "unocc",
				"energy": 0.06689,
				"method": "rhf"
			},
			{
				"type": "unocc",
				"energy": 0.08996,
				"method": "rhf"
			}
		],
		"cosmo_sigma_profile": { 
			"-0.025": 0.0,
			"-0.024": 0.0,
			"-0.023": 0.0,
			"-0.022": 0.0,
			"-0.021": 0.0,
			"-0.02": 0.0,
			"-0.019": 0.0508924840504,
			"-0.018": 0.500039723439,
			"-0.017": 1.00189082718,
			"-0.016": 0.876482733436,
			"-0.015": 1.2972025606,
			"-0.014": 0.582278617743,
			"-0.013": 0.654509176955,
			"-0.012": 1.19857702643,
			"-0.011": 1.88251832808,
			"-0.01": 0.573886777324,
			"-0.009": 1.05998559972,
			"-0.008": 1.61789333914,
			"-0.007": 2.05601661636,
			"-0.006": 4.53912277178,
			"-0.005": 6.03117192111,
			"-0.004": 13.8446311936,
			"-0.003": 22.0026483057,
			"-0.002": 26.2388891185,
			"-0.001": 21.4499488557,
			"0.0": 17.9135372327,
			"0.001": 11.6073215189,
			"0.002": 8.15475073127,
			"0.003": 11.0212963854,
			"0.004": 11.3961960745,
			"0.005": 3.09544099948,
			"0.006": 2.93916010804,
			"0.007": 2.1646692004,
			"0.008": 2.56487946928,
			"0.009": 3.06690822469,
			"0.01": 4.30582063429,
			"0.011": 5.39622329644,
			"0.012": 5.52327753761,
			"0.013": 2.2879683148,
			"0.014": 0.276509059397,
			"0.015": 0.0,
			"0.016": 0.0,
			"0.017": 0.0,
			"0.018": 0.0,
			"0.019": 0.0,
			"0.02": 0.0,
			"0.021": 0.0,
			"0.022": 0.0,
			"0.023": 0.0,
			"0.024": 0.0,
			"0.025": 0.0
		}
	}
}
