{
	 "smiles": "OC(=O)C(SC1=C(F)C=C(F)C=C1)C1=CC=CC=C1", 
	 "Tm": 383.15, 
	 "num_atms": 29, 
	 "gaussian": { 
		 "optdone": 1, 
		 "sigma_profile": "yes", 
		 "theory": "DFT", 
		 "functional": "B3LYP", 
		 "basiset": "6-31G**", 
		 "properties": { 
			 "R2extent": 5547.8888, 
			 "electric_dipole_moment_norm": 5.31429598254, 
			 "electric_quadrupole_moment_norm": 22.6113357356, 
			 "total_energy": -1287.82085467, 
			 "HOMO_LUMO_gap": 0.18901, 
			 "cosmo_polarized_energy": -15.86, 
			 "cosmo_cavitation_energy": 35.98, 
			 "cosmo_dispersion_energy": -24.52, 
			 "cosmo_repulsion_energy": 1.83, 
			 "cosmo_total_nonelectrostatic_energy": 13.29, 
			 "SMD_solvation_energy": 7.64 
		},
		"coords": [
			{
				"x": -0.4373566381,
				"y": -4.1861936981,
				"z": 1.5972094053,
				"element": "O" 
			},
			{
				"x": 0.6746593795,
				"y": -3.4983151993,
				"z": 1.2508472118,
				"element": "C" 
			},
			{
				"x": 1.7663860809,
				"y": -3.8640814174,
				"z": 1.6049421177,
				"element": "O" 
			},
			{
				"x": 0.4216539865,
				"y": -2.2797539446,
				"z": 0.347897752,
				"element": "C" 
			},
			{
				"x": 2.0337377272,
				"y": -1.3531156421,
				"z": 0.2731726954,
				"element": "S" 
			},
			{
				"x": 1.5908688615,
				"y": 0.0522249064,
				"z": -0.7309809007,
				"element": "C" 
			},
			{
				"x": 1.0381204475,
				"y": -0.0628418706,
				"z": -2.0122785751,
				"element": "C" 
			},
			{
				"x": 0.7231903882,
				"y": -1.2883159521,
				"z": -2.4893730819,
				"element": "F" 
			},
			{
				"x": 0.777886297,
				"y": 1.0317642013,
				"z": -2.8250483799,
				"element": "C" 
			},
			{
				"x": 1.1122170525,
				"y": 2.2904740259,
				"z": -2.3373876536,
				"element": "C" 
			},
			{
				"x": 0.8755431745,
				"y": 3.3647010086,
				"z": -3.1128810018,
				"element": "F" 
			},
			{
				"x": 1.6735217791,
				"y": 2.4691817092,
				"z": -1.078202607,
				"element": "C" 
			},
			{
				"x": 1.8963768793,
				"y": 1.3461974378,
				"z": -0.2824129547,
				"element": "C" 
			},
			{
				"x": -0.7697026044,
				"y": -1.4506998288,
				"z": 0.7770257637,
				"element": "C" 
			},
			{
				"x": -0.8641554993,
				"y": -0.9386780367,
				"z": 2.0820297288,
				"element": "C" 
			},
			{
				"x": -1.9743887291,
				"y": -0.1915141291,
				"z": 2.4673032814,
				"element": "C" 
			},
			{
				"x": -3.0046016026,
				"y": 0.0605384608,
				"z": 1.5553393682,
				"element": "C" 
			},
			{
				"x": -2.9177203695,
				"y": -0.4381419595,
				"z": 0.2561954164,
				"element": "C" 
			},
			{
				"x": -1.8051822233,
				"y": -1.189533493,
				"z": -0.131079453,
				"element": "C" 
			},
			{
				"x": -1.2268215037,
				"y": -3.701846798,
				"z": 1.3075147646,
				"element": "H" 
			},
			{
				"x": 0.2347605245,
				"y": -2.6743752949,
				"z": -0.6556259557,
				"element": "H" 
			},
			{
				"x": 0.3421900318,
				"y": 0.9044769501,
				"z": -3.808586231,
				"element": "H" 
			},
			{
				"x": 1.9140864911,
				"y": 3.4677906936,
				"z": -0.7321217797,
				"element": "H" 
			},
			{
				"x": 2.3173682762,
				"y": 1.4646404521,
				"z": 0.7104256729,
				"element": "H" 
			},
			{
				"x": -0.060225623,
				"y": -1.1241275415,
				"z": 2.7893080015,
				"element": "H" 
			},
			{
				"x": -2.0376757676,
				"y": 0.1958323218,
				"z": 3.4799160494,
				"element": "H" 
			},
			{
				"x": -3.8685505403,
				"y": 0.6444973151,
				"z": 1.8585892346,
				"element": "H" 
			},
			{
				"x": -3.7109585484,
				"y": -0.2415003145,
				"z": -0.4590193832,
				"element": "H" 
			},
			{
				"x": -1.7297277279,
				"y": -1.5657843626,
				"z": -1.1479185065,
				"element": "H" 
			}
		],
		 "valence_orbital": [ 
			{
				"type": "occ",
				"energy": -0.27782,
				"method": "rhf"
			},
			{
				"type": "occ",
				"energy": -0.2708,
				"method": "rhf"
			},
			{
				"type": "occ",
				"energy": -0.26811,
				"method": "rhf"
			},
			{
				"type": "occ",
				"energy": -0.26286,
				"method": "rhf"
			},
			{
				"type": "occ",
				"energy": -0.22753,
				"method": "rhf"
			},
			{
				"type": "unocc",
				"energy": -0.03852,
				"method": "rhf"
			},
			{
				"type": "unocc",
				"energy": -0.02807,
				"method": "rhf"
			},
			{
				"type": "unocc",
				"energy": -0.02273,
				"method": "rhf"
			},
			{
				"type": "unocc",
				"energy": -0.01639,
				"method": "rhf"
			},
			{
				"type": "unocc",
				"energy": 0.00249,
				"method": "rhf"
			}
		],
		"cosmo_sigma_profile": { 
			"-0.025": 0.0,
			"-0.024": 0.0,
			"-0.023": 0.0,
			"-0.022": 0.0,
			"-0.021": 0.0,
			"-0.02": 0.0,
			"-0.019": 0.0,
			"-0.018": 0.0,
			"-0.017": 0.0519062789633,
			"-0.016": 0.365873931144,
			"-0.015": 0.964259429318,
			"-0.014": 1.02458706181,
			"-0.013": 0.691364486594,
			"-0.012": 1.39999641392,
			"-0.011": 1.58391097736,
			"-0.01": 2.02275751235,
			"-0.009": 3.23795341547,
			"-0.008": 6.00442320545,
			"-0.007": 7.79634469339,
			"-0.006": 18.9431469105,
			"-0.005": 17.1160297667,
			"-0.004": 16.5055559976,
			"-0.003": 15.9152426628,
			"-0.002": 14.5330516605,
			"-0.001": 18.6208487982,
			"0.0": 23.4980733321,
			"0.001": 24.8009933384,
			"0.002": 22.4432712481,
			"0.003": 25.7171485941,
			"0.004": 24.4986976585,
			"0.005": 7.98599764337,
			"0.006": 4.82751181841,
			"0.007": 5.64929137662,
			"0.008": 5.88811852787,
			"0.009": 5.39987982264,
			"0.01": 5.54839054953,
			"0.011": 5.6808149575,
			"0.012": 1.85624070917,
			"0.013": 0.0158319075361,
			"0.014": 0.0,
			"0.015": 0.0,
			"0.016": 0.0,
			"0.017": 0.0,
			"0.018": 0.0,
			"0.019": 0.0,
			"0.02": 0.0,
			"0.021": 0.0,
			"0.022": 0.0,
			"0.023": 0.0,
			"0.024": 0.0,
			"0.025": 0.0
		}
	}
}
