{
	 "smiles": "CC1=CC=C(C=C1)C(=O)NC1=CC(C=O)=CC=C1", 
	 "Tm": 404.15, 
	 "num_atms": 31, 
	 "gaussian": { 
		 "optdone": 1, 
		 "sigma_profile": "yes", 
		 "theory": "DFT", 
		 "functional": "B3LYP", 
		 "basiset": "6-31G**", 
		 "properties": { 
			 "R2extent": 7484.189, 
			 "electric_dipole_moment_norm": 2.37694024746, 
			 "electric_quadrupole_moment_norm": 21.2296028338, 
			 "total_energy": -784.65331212, 
			 "HOMO_LUMO_gap": 0.16795, 
			 "cosmo_polarized_energy": -15.19, 
			 "cosmo_cavitation_energy": 36.06, 
			 "cosmo_dispersion_energy": -26.05, 
			 "cosmo_repulsion_energy": 1.97, 
			 "cosmo_total_nonelectrostatic_energy": 11.98, 
			 "SMD_solvation_energy": 7.56 
		},
		"coords": [
			{
				"x": 3.3205951517,
				"y": -4.2088912634,
				"z": 1.2118489637,
				"element": "C" 
			},
			{
				"x": 2.273471839,
				"y": -3.3423527772,
				"z": 0.5552810179,
				"element": "C" 
			},
			{
				"x": 1.9214971211,
				"y": -3.5330073483,
				"z": -0.7898837879,
				"element": "C" 
			},
			{
				"x": 0.9749359135,
				"y": -2.7230316374,
				"z": -1.4069408782,
				"element": "C" 
			},
			{
				"x": 0.3568474246,
				"y": -1.6824199648,
				"z": -0.6992349951,
				"element": "C" 
			},
			{
				"x": 0.6894039542,
				"y": -1.4970545592,
				"z": 0.6499459591,
				"element": "C" 
			},
			{
				"x": 1.6335962775,
				"y": -2.318044179,
				"z": 1.2647122283,
				"element": "C" 
			},
			{
				"x": -0.6573419496,
				"y": -0.8579498105,
				"z": -1.4374280669,
				"element": "C" 
			},
			{
				"x": -1.2218412337,
				"y": -1.2813108649,
				"z": -2.4408468529,
				"element": "O" 
			},
			{
				"x": -0.8818496391,
				"y": 0.4001128733,
				"z": -0.9116705767,
				"element": "N" 
			},
			{
				"x": -1.77834873,
				"y": 1.3926823709,
				"z": -1.3497952043,
				"element": "C" 
			},
			{
				"x": -1.7651205497,
				"y": 2.6163400374,
				"z": -0.6731106471,
				"element": "C" 
			},
			{
				"x": -2.6348531411,
				"y": 3.6449646654,
				"z": -1.0479029577,
				"element": "C" 
			},
			{
				"x": -2.6037082692,
				"y": 4.9320517028,
				"z": -0.3175242174,
				"element": "C" 
			},
			{
				"x": -1.8615266985,
				"y": 5.1812148235,
				"z": 0.6143090215,
				"element": "O" 
			},
			{
				"x": -3.5316766019,
				"y": 3.4588736519,
				"z": -2.1069423116,
				"element": "C" 
			},
			{
				"x": -3.5446262423,
				"y": 2.2386399729,
				"z": -2.7802186243,
				"element": "C" 
			},
			{
				"x": -2.680809213,
				"y": 1.205812362,
				"z": -2.4160644556,
				"element": "C" 
			},
			{
				"x": 3.2204870644,
				"y": -4.2042542673,
				"z": 2.3008412044,
				"element": "H" 
			},
			{
				"x": 3.2545786137,
				"y": -5.2456149166,
				"z": 0.8676143992,
				"element": "H" 
			},
			{
				"x": 4.3306681324,
				"y": -3.8528083851,
				"z": 0.973561409,
				"element": "H" 
			},
			{
				"x": 2.3945476429,
				"y": -4.3307350718,
				"z": -1.3571335612,
				"element": "H" 
			},
			{
				"x": 0.6921869599,
				"y": -2.8799668385,
				"z": -2.4423099966,
				"element": "H" 
			},
			{
				"x": 0.1862976265,
				"y": -0.7429024673,
				"z": 1.2496921874,
				"element": "H" 
			},
			{
				"x": 1.8684368476,
				"y": -2.1672971918,
				"z": 2.3151442202,
				"element": "H" 
			},
			{
				"x": -0.2676381848,
				"y": 0.686135063,
				"z": -0.1635985224,
				"element": "H" 
			},
			{
				"x": -1.0847110992,
				"y": 2.798589229,
				"z": 0.1550977277,
				"element": "H" 
			},
			{
				"x": -3.3298197085,
				"y": 5.6899977863,
				"z": -0.6865623503,
				"element": "H" 
			},
			{
				"x": -4.2057908944,
				"y": 4.2616015243,
				"z": -2.3943650639,
				"element": "H" 
			},
			{
				"x": -4.2337948293,
				"y": 2.0795173168,
				"z": -3.6042377552,
				"element": "H" 
			},
			{
				"x": -2.6842935845,
				"y": 0.2616081636,
				"z": -2.9415775133,
				"element": "H" 
			}
		],
		 "valence_orbital": [ 
			{
				"type": "occ",
				"energy": -0.26365,
				"method": "rhf"
			},
			{
				"type": "occ",
				"energy": -0.26271,
				"method": "rhf"
			},
			{
				"type": "occ",
				"energy": -0.25588,
				"method": "rhf"
			},
			{
				"type": "occ",
				"energy": -0.25178,
				"method": "rhf"
			},
			{
				"type": "occ",
				"energy": -0.23066,
				"method": "rhf"
			},
			{
				"type": "unocc",
				"energy": -0.06271,
				"method": "rhf"
			},
			{
				"type": "unocc",
				"energy": -0.04761,
				"method": "rhf"
			},
			{
				"type": "unocc",
				"energy": -0.01556,
				"method": "rhf"
			},
			{
				"type": "unocc",
				"energy": -0.00382,
				"method": "rhf"
			},
			{
				"type": "unocc",
				"energy": 0.03654,
				"method": "rhf"
			}
		],
		"cosmo_sigma_profile": { 
			"-0.025": 0.0,
			"-0.024": 0.0,
			"-0.023": 0.0,
			"-0.022": 0.0,
			"-0.021": 0.0,
			"-0.02": 0.0,
			"-0.019": 0.0,
			"-0.018": 0.0,
			"-0.017": 0.0,
			"-0.016": 0.0522865948207,
			"-0.015": 0.913387994396,
			"-0.014": 1.27347132628,
			"-0.013": 1.31782508716,
			"-0.012": 1.45434195044,
			"-0.011": 1.66884161286,
			"-0.01": 1.46844016349,
			"-0.009": 1.71030506519,
			"-0.008": 2.71454342673,
			"-0.007": 7.44751280717,
			"-0.006": 12.3840092853,
			"-0.005": 19.257222409,
			"-0.004": 23.4011443103,
			"-0.003": 20.4226913829,
			"-0.002": 19.2253769462,
			"-0.001": 22.7093790086,
			"0.0": 23.2139298003,
			"0.001": 22.2047592276,
			"0.002": 22.3509622861,
			"0.003": 24.1001345099,
			"0.004": 19.0834012987,
			"0.005": 8.32783356685,
			"0.006": 2.71070083138,
			"0.007": 3.32197416744,
			"0.008": 4.22665800402,
			"0.009": 2.63221451516,
			"0.01": 4.9270497336,
			"0.011": 6.28389106568,
			"0.012": 5.27812710232,
			"0.013": 2.76335498322,
			"0.014": 0.116547331986,
			"0.015": 0.0,
			"0.016": 0.0,
			"0.017": 0.0,
			"0.018": 0.0,
			"0.019": 0.0,
			"0.02": 0.0,
			"0.021": 0.0,
			"0.022": 0.0,
			"0.023": 0.0,
			"0.024": 0.0,
			"0.025": 0.0
		}
	}
}
