{
	 "smiles": "COC(=O)C1=C(OC)C=C(CBr)C=C1", 
	 "Tm": 318.15, 
	 "num_atms": 25, 
	 "gaussian": { 
		 "optdone": 1, 
		 "sigma_profile": "yes", 
		 "theory": "DFT", 
		 "functional": "B3LYP", 
		 "basiset": "6-31G**", 
		 "properties": { 
			 "R2extent": 5621.7199, 
			 "electric_dipole_moment_norm": 3.81744317836, 
			 "electric_quadrupole_moment_norm": 8.41754668178, 
			 "total_energy": -3184.76409943, 
			 "HOMO_LUMO_gap": 0.18981, 
			 "cosmo_polarized_energy": -11.93, 
			 "cosmo_cavitation_energy": 31.7, 
			 "cosmo_dispersion_energy": -22.68, 
			 "cosmo_repulsion_energy": 1.81, 
			 "cosmo_total_nonelectrostatic_energy": 10.83, 
			 "SMD_solvation_energy": 6.45 
		},
		"coords": [
			{
				"x": -4.3291554426,
				"y": 0.317143301,
				"z": -0.645411179,
				"element": "C" 
			},
			{
				"x": -2.8931332703,
				"y": 0.3463889975,
				"z": -0.5975774254,
				"element": "O" 
			},
			{
				"x": -2.3238147371,
				"y": -0.7097443324,
				"z": 0.0181526975,
				"element": "C" 
			},
			{
				"x": -2.9741694805,
				"y": -1.6327186495,
				"z": 0.4721962238,
				"element": "O" 
			},
			{
				"x": -0.8295580321,
				"y": -0.6636284804,
				"z": 0.065631737,
				"element": "C" 
			},
			{
				"x": -0.021925223,
				"y": 0.4626217972,
				"z": -0.2005955906,
				"element": "C" 
			},
			{
				"x": -0.5494940367,
				"y": 1.6960722816,
				"z": -0.4852717588,
				"element": "O" 
			},
			{
				"x": -0.6559755197,
				"y": 2.0107644622,
				"z": -1.8739383152,
				"element": "C" 
			},
			{
				"x": 1.3688916076,
				"y": 0.3562214004,
				"z": -0.1032650306,
				"element": "C" 
			},
			{
				"x": 1.9855835726,
				"y": -0.8458555007,
				"z": 0.2526826173,
				"element": "C" 
			},
			{
				"x": 3.4755442681,
				"y": -0.9379209324,
				"z": 0.334308889,
				"element": "C" 
			},
			{
				"x": 4.1541092186,
				"y": -0.5358201614,
				"z": 2.1756527564,
				"element": "Br" 
			},
			{
				"x": 1.1819063655,
				"y": -1.9619685346,
				"z": 0.5281586807,
				"element": "C" 
			},
			{
				"x": -0.1989949783,
				"y": -1.8621655192,
				"z": 0.4422182442,
				"element": "C" 
			},
			{
				"x": -4.6225421396,
				"y": 1.235686239,
				"z": -1.1533692227,
				"element": "H" 
			},
			{
				"x": -4.6798101226,
				"y": -0.5584416951,
				"z": -1.1976749648,
				"element": "H" 
			},
			{
				"x": -4.7467137217,
				"y": 0.2858789726,
				"z": 0.3637152178,
				"element": "H" 
			},
			{
				"x": -1.3612211434,
				"y": 1.3397062469,
				"z": -2.3756696164,
				"element": "H" 
			},
			{
				"x": 0.3216907532,
				"y": 1.9551789305,
				"z": -2.3705634155,
				"element": "H" 
			},
			{
				"x": -1.0293531882,
				"y": 3.0350452743,
				"z": -1.9284839314,
				"element": "H" 
			},
			{
				"x": 1.9611440899,
				"y": 1.2476446507,
				"z": -0.2885150561,
				"element": "H" 
			},
			{
				"x": 3.8442544355,
				"y": -1.9402843789,
				"z": 0.1243360765,
				"element": "H" 
			},
			{
				"x": 3.9774911308,
				"y": -0.2128971957,
				"z": -0.3035214206,
				"element": "H" 
			},
			{
				"x": 1.641905982,
				"y": -2.9016324822,
				"z": 0.819842144,
				"element": "H" 
			},
			{
				"x": -0.8335603881,
				"y": -2.7129746913,
				"z": 0.6642616428,
				"element": "H" 
			}
		],
		 "valence_orbital": [ 
			{
				"type": "occ",
				"energy": -0.27904,
				"method": "rhf"
			},
			{
				"type": "occ",
				"energy": -0.27414,
				"method": "rhf"
			},
			{
				"type": "occ",
				"energy": -0.27266,
				"method": "rhf"
			},
			{
				"type": "occ",
				"energy": -0.25858,
				"method": "rhf"
			},
			{
				"type": "occ",
				"energy": -0.25179,
				"method": "rhf"
			},
			{
				"type": "unocc",
				"energy": -0.06198,
				"method": "rhf"
			},
			{
				"type": "unocc",
				"energy": -0.01313,
				"method": "rhf"
			},
			{
				"type": "unocc",
				"energy": 0.00047,
				"method": "rhf"
			},
			{
				"type": "unocc",
				"energy": 0.05735,
				"method": "rhf"
			},
			{
				"type": "unocc",
				"energy": 0.08811,
				"method": "rhf"
			}
		],
		"cosmo_sigma_profile": { 
			"-0.025": 0.0,
			"-0.024": 0.0,
			"-0.023": 0.0,
			"-0.022": 0.0,
			"-0.021": 0.0,
			"-0.02": 0.0,
			"-0.019": 0.0,
			"-0.018": 0.0,
			"-0.017": 0.0,
			"-0.016": 0.0,
			"-0.015": 0.0,
			"-0.014": 0.0,
			"-0.013": 0.0,
			"-0.012": 0.0,
			"-0.011": 0.0,
			"-0.01": 0.0,
			"-0.009": 0.153553219757,
			"-0.008": 5.72715189018,
			"-0.007": 8.9683861572,
			"-0.006": 12.3232640453,
			"-0.005": 19.9512132013,
			"-0.004": 22.8981787694,
			"-0.003": 24.6071431037,
			"-0.002": 22.3578545966,
			"-0.001": 15.2144941392,
			"0.0": 14.950177504,
			"0.001": 14.9270731751,
			"0.002": 18.8063139331,
			"0.003": 15.0566177038,
			"0.004": 10.6606907787,
			"0.005": 11.0390707626,
			"0.006": 14.1684302216,
			"0.007": 4.12171239629,
			"0.008": 3.08096679781,
			"0.009": 2.7724573107,
			"0.01": 3.44812915064,
			"0.011": 4.64155187313,
			"0.012": 5.26232527441,
			"0.013": 0.183976041626,
			"0.014": 0.0,
			"0.015": 0.0,
			"0.016": 0.0,
			"0.017": 0.0,
			"0.018": 0.0,
			"0.019": 0.0,
			"0.02": 0.0,
			"0.021": 0.0,
			"0.022": 0.0,
			"0.023": 0.0,
			"0.024": 0.0,
			"0.025": 0.0
		}
	}
}
