{
	 "smiles": "CCOC(=O)C1=C(N)SC=C1C1CCCCC1", 
	 "Tm": 383.15, 
	 "num_atms": 36, 
	 "gaussian": { 
		 "optdone": 1, 
		 "sigma_profile": "yes", 
		 "theory": "DFT", 
		 "functional": "B3LYP", 
		 "basiset": "6-31G**", 
		 "properties": { 
			 "R2extent": 4995.8133, 
			 "electric_dipole_moment_norm": 0.68212243769, 
			 "electric_quadrupole_moment_norm": 8.8690863543, 
			 "total_energy": -1110.24109489, 
			 "HOMO_LUMO_gap": 0.17866, 
			 "cosmo_polarized_energy": -8.61, 
			 "cosmo_cavitation_energy": 37.21, 
			 "cosmo_dispersion_energy": -27.04, 
			 "cosmo_repulsion_energy": 2.08, 
			 "cosmo_total_nonelectrostatic_energy": 12.25, 
			 "SMD_solvation_energy": 6.0 
		},
		"coords": [
			{
				"x": 3.1777542977,
				"y": 2.5943654418,
				"z": 0.0439335278,
				"element": "C" 
			},
			{
				"x": 2.0988819478,
				"y": 2.6501251056,
				"z": 1.1093937568,
				"element": "C" 
			},
			{
				"x": 1.0553684191,
				"y": 1.7305924147,
				"z": 0.7191543292,
				"element": "O" 
			},
			{
				"x": -0.0125931938,
				"y": 1.6612684563,
				"z": 1.5505015585,
				"element": "C" 
			},
			{
				"x": -0.0587659477,
				"y": 2.3506252585,
				"z": 2.571995559,
				"element": "O" 
			},
			{
				"x": -1.0579571073,
				"y": 0.7274199037,
				"z": 1.1401809479,
				"element": "C" 
			},
			{
				"x": -2.1964998644,
				"y": 0.6266631077,
				"z": 1.9520381168,
				"element": "C" 
			},
			{
				"x": -2.4838009424,
				"y": 1.3473010621,
				"z": 3.0647553675,
				"element": "N" 
			},
			{
				"x": -3.3341971904,
				"y": -0.5358329131,
				"z": 1.3220634069,
				"element": "S" 
			},
			{
				"x": -2.2753884823,
				"y": -0.8874760102,
				"z": -0.0308374693,
				"element": "C" 
			},
			{
				"x": -1.1227110549,
				"y": -0.1641916219,
				"z": -0.0192512192,
				"element": "C" 
			},
			{
				"x": -0.0181919965,
				"y": -0.316774226,
				"z": -1.0584895483,
				"element": "C" 
			},
			{
				"x": -0.4996799605,
				"y": -0.8329362387,
				"z": -2.4547345104,
				"element": "C" 
			},
			{
				"x": 0.0549067657,
				"y": -2.2203023184,
				"z": -2.8347809318,
				"element": "C" 
			},
			{
				"x": -0.0427660816,
				"y": -3.2127561966,
				"z": -1.6683330132,
				"element": "C" 
			},
			{
				"x": 0.7183013043,
				"y": -2.7043827975,
				"z": -0.4118558172,
				"element": "C" 
			},
			{
				"x": 1.1209424053,
				"y": -1.2229626891,
				"z": -0.5209133,
				"element": "C" 
			},
			{
				"x": 3.9921117821,
				"y": 3.2772144908,
				"z": 0.3059803521,
				"element": "H" 
			},
			{
				"x": 3.5906126054,
				"y": 1.5853086546,
				"z": -0.0444840431,
				"element": "H" 
			},
			{
				"x": 2.7817813322,
				"y": 2.8916487464,
				"z": -0.9315414833,
				"element": "H" 
			},
			{
				"x": 1.670932369,
				"y": 3.6524624501,
				"z": 1.2082168558,
				"element": "H" 
			},
			{
				"x": 2.4794686792,
				"y": 2.3592481847,
				"z": 2.0935564081,
				"element": "H" 
			},
			{
				"x": -1.7118474854,
				"y": 1.9137467364,
				"z": 3.4065545562,
				"element": "H" 
			},
			{
				"x": -3.1927009977,
				"y": 1.0232183031,
				"z": 3.7024062849,
				"element": "H" 
			},
			{
				"x": -2.5973874277,
				"y": -1.626857123,
				"z": -0.7474785313,
				"element": "H" 
			},
			{
				"x": 0.4118107927,
				"y": 0.6759865575,
				"z": -1.1959090004,
				"element": "H" 
			},
			{
				"x": -1.5931914208,
				"y": -0.8586608108,
				"z": -2.4906274606,
				"element": "H" 
			},
			{
				"x": -0.2000388712,
				"y": -0.1094840914,
				"z": -3.2215330556,
				"element": "H" 
			},
			{
				"x": 1.1035241744,
				"y": -2.1290929379,
				"z": -3.1463555604,
				"element": "H" 
			},
			{
				"x": -0.4861366836,
				"y": -2.6040672371,
				"z": -3.707939352,
				"element": "H" 
			},
			{
				"x": -1.1017337576,
				"y": -3.3639319827,
				"z": -1.4242369263,
				"element": "H" 
			},
			{
				"x": 0.3366785155,
				"y": -4.1936071901,
				"z": -1.9764433146,
				"element": "H" 
			},
			{
				"x": 0.0953727324,
				"y": -2.8465438946,
				"z": 0.477496632,
				"element": "H" 
			},
			{
				"x": 1.6240893525,
				"y": -3.3003382617,
				"z": -0.2497043655,
				"element": "H" 
			},
			{
				"x": 1.4625481237,
				"y": -0.8522175006,
				"z": 0.449501609,
				"element": "H" 
			},
			{
				"x": 1.9756028668,
				"y": -1.1240788328,
				"z": -1.202380366,
				"element": "H" 
			}
		],
		 "valence_orbital": [ 
			{
				"type": "occ",
				"energy": -0.29026,
				"method": "rhf"
			},
			{
				"type": "occ",
				"energy": -0.28618,
				"method": "rhf"
			},
			{
				"type": "occ",
				"energy": -0.26858,
				"method": "rhf"
			},
			{
				"type": "occ",
				"energy": -0.24168,
				"method": "rhf"
			},
			{
				"type": "occ",
				"energy": -0.19318,
				"method": "rhf"
			},
			{
				"type": "unocc",
				"energy": -0.01452,
				"method": "rhf"
			},
			{
				"type": "unocc",
				"energy": 0.01604,
				"method": "rhf"
			},
			{
				"type": "unocc",
				"energy": 0.02005,
				"method": "rhf"
			},
			{
				"type": "unocc",
				"energy": 0.07771,
				"method": "rhf"
			},
			{
				"type": "unocc",
				"energy": 0.09074,
				"method": "rhf"
			}
		],
		"cosmo_sigma_profile": { 
			"-0.025": 0.0,
			"-0.024": 0.0,
			"-0.023": 0.0,
			"-0.022": 0.0,
			"-0.021": 0.0,
			"-0.02": 0.0,
			"-0.019": 0.0,
			"-0.018": 0.0,
			"-0.017": 0.0,
			"-0.016": 0.0,
			"-0.015": 0.53721629867,
			"-0.014": 1.39941819158,
			"-0.013": 1.20005090506,
			"-0.012": 0.930547237058,
			"-0.011": 1.15612959717,
			"-0.01": 1.60885414194,
			"-0.009": 2.66520876072,
			"-0.008": 1.48644945137,
			"-0.007": 2.54756723741,
			"-0.006": 4.0684285191,
			"-0.005": 7.87342943661,
			"-0.004": 14.0454149123,
			"-0.003": 16.1847100056,
			"-0.002": 32.4270965815,
			"-0.001": 35.7747052822,
			"0.0": 43.3669295696,
			"0.001": 38.1097458929,
			"0.002": 26.9196746096,
			"0.003": 17.5363301314,
			"0.004": 16.3614685904,
			"0.005": 9.95677198057,
			"0.006": 3.98114519844,
			"0.007": 2.77676882225,
			"0.008": 1.79948001531,
			"0.009": 2.09032152915,
			"0.01": 1.72097077973,
			"0.011": 1.64437156532,
			"0.012": 1.81062618543,
			"0.013": 0.902167300575,
			"0.014": 0.0,
			"0.015": 0.0,
			"0.016": 0.0,
			"0.017": 0.0,
			"0.018": 0.0,
			"0.019": 0.0,
			"0.02": 0.0,
			"0.021": 0.0,
			"0.022": 0.0,
			"0.023": 0.0,
			"0.024": 0.0,
			"0.025": 0.0
		}
	}
}
