{
	 "smiles": "CC1=CC=C(C=C1)C(C=O)C=O", 
	 "Tm": 404.15, 
	 "num_atms": 22, 
	 "gaussian": { 
		 "optdone": 1, 
		 "sigma_profile": "yes", 
		 "theory": "DFT", 
		 "functional": "B3LYP", 
		 "basiset": "6-31G**", 
		 "properties": { 
			 "R2extent": 3324.7712, 
			 "electric_dipole_moment_norm": 3.59403263341, 
			 "electric_quadrupole_moment_norm": 14.1365855032, 
			 "total_energy": -537.511362063, 
			 "HOMO_LUMO_gap": 0.19586, 
			 "cosmo_polarized_energy": -12.09, 
			 "cosmo_cavitation_energy": 26.64, 
			 "cosmo_dispersion_energy": -18.61, 
			 "cosmo_repulsion_energy": 1.51, 
			 "cosmo_total_nonelectrostatic_energy": 9.54, 
			 "SMD_solvation_energy": 6.56 
		},
		"coords": [
			{
				"x": 2.0541525848,
				"y": -0.0861054234,
				"z": 2.9020697044,
				"element": "C" 
			},
			{
				"x": 1.2333062898,
				"y": -0.7813113084,
				"z": 1.8419052063,
				"element": "C" 
			},
			{
				"x": 1.3570663742,
				"y": -0.432769552,
				"z": 0.4897355862,
				"element": "C" 
			},
			{
				"x": 0.5826342785,
				"y": -1.0496860881,
				"z": -0.4899764541,
				"element": "C" 
			},
			{
				"x": -0.3388796253,
				"y": -2.047737648,
				"z": -0.1436026776,
				"element": "C" 
			},
			{
				"x": -0.4669103418,
				"y": -2.4002890033,
				"z": 1.2041647306,
				"element": "C" 
			},
			{
				"x": 0.309540877,
				"y": -1.7777382525,
				"z": 2.1810018647,
				"element": "C" 
			},
			{
				"x": -1.200988369,
				"y": -2.7022915807,
				"z": -1.204498378,
				"element": "C" 
			},
			{
				"x": -0.4462635339,
				"y": -3.3933582569,
				"z": -2.3431094541,
				"element": "C" 
			},
			{
				"x": 0.7536913209,
				"y": -3.4008879887,
				"z": -2.4749927994,
				"element": "O" 
			},
			{
				"x": -2.1723857789,
				"y": -1.6728998767,
				"z": -1.7899616124,
				"element": "C" 
			},
			{
				"x": -2.2027186101,
				"y": -1.3523381189,
				"z": -2.9566734106,
				"element": "O" 
			},
			{
				"x": 3.03291556,
				"y": 0.2148529273,
				"z": 2.5166861713,
				"element": "H" 
			},
			{
				"x": 1.5522226041,
				"y": 0.8222405865,
				"z": 3.2586705388,
				"element": "H" 
			},
			{
				"x": 2.215133172,
				"y": -0.7309719006,
				"z": 3.7710162122,
				"element": "H" 
			},
			{
				"x": 2.0729441512,
				"y": 0.331868844,
				"z": 0.1986976951,
				"element": "H" 
			},
			{
				"x": 0.7055949753,
				"y": -0.7673027349,
				"z": -1.5307209225,
				"element": "H" 
			},
			{
				"x": -1.171617559,
				"y": -3.1762159237,
				"z": 1.4942348787,
				"element": "H" 
			},
			{
				"x": 0.1982374034,
				"y": -2.0737441273,
				"z": 3.2211808699,
				"element": "H" 
			},
			{
				"x": -1.8316260633,
				"y": -3.4711158197,
				"z": -0.728676669,
				"element": "H" 
			},
			{
				"x": -1.1098096351,
				"y": -3.9140540723,
				"z": -3.0652301189,
				"element": "H" 
			},
			{
				"x": -2.8483400749,
				"y": -1.2087446817,
				"z": -1.0401209615,
				"element": "H" 
			}
		],
		 "valence_orbital": [ 
			{
				"type": "occ",
				"energy": -0.3429,
				"method": "rhf"
			},
			{
				"type": "occ",
				"energy": -0.27737,
				"method": "rhf"
			},
			{
				"type": "occ",
				"energy": -0.26346,
				"method": "rhf"
			},
			{
				"type": "occ",
				"energy": -0.25364,
				"method": "rhf"
			},
			{
				"type": "occ",
				"energy": -0.24026,
				"method": "rhf"
			},
			{
				"type": "unocc",
				"energy": -0.0444,
				"method": "rhf"
			},
			{
				"type": "unocc",
				"energy": -0.02909,
				"method": "rhf"
			},
			{
				"type": "unocc",
				"energy": -0.00947,
				"method": "rhf"
			},
			{
				"type": "unocc",
				"energy": -0.00046,
				"method": "rhf"
			},
			{
				"type": "unocc",
				"energy": 0.08636,
				"method": "rhf"
			}
		],
		"cosmo_sigma_profile": { 
			"-0.025": 0.0,
			"-0.024": 0.0,
			"-0.023": 0.0,
			"-0.022": 0.0,
			"-0.021": 0.0,
			"-0.02": 0.0,
			"-0.019": 0.0,
			"-0.018": 0.0,
			"-0.017": 0.0,
			"-0.016": 0.0,
			"-0.015": 0.0,
			"-0.014": 0.0,
			"-0.013": 0.0,
			"-0.012": 0.0,
			"-0.011": 0.0,
			"-0.01": 0.528304385498,
			"-0.009": 5.94553041852,
			"-0.008": 6.19206588279,
			"-0.007": 9.403228343,
			"-0.006": 9.76641206034,
			"-0.005": 12.9453874759,
			"-0.004": 19.3737389694,
			"-0.003": 15.9797888507,
			"-0.002": 15.6416362486,
			"-0.001": 14.5915049582,
			"0.0": 15.2150411923,
			"0.001": 11.2145296118,
			"0.002": 8.77870988379,
			"0.003": 9.56248597132,
			"0.004": 9.47940642867,
			"0.005": 9.92406440993,
			"0.006": 7.70274248536,
			"0.007": 4.38097020376,
			"0.008": 3.05893355985,
			"0.009": 6.50608865668,
			"0.01": 7.94946711149,
			"0.011": 6.22144319353,
			"0.012": 1.28018641759,
			"0.013": 0.0,
			"0.014": 0.0,
			"0.015": 0.0,
			"0.016": 0.0,
			"0.017": 0.0,
			"0.018": 0.0,
			"0.019": 0.0,
			"0.02": 0.0,
			"0.021": 0.0,
			"0.022": 0.0,
			"0.023": 0.0,
			"0.024": 0.0,
			"0.025": 0.0
		}
	}
}
