{
	 "smiles": "FC1=C(F)C(F)=C(OC(=O)C2=CC=CC(OC3=NC=CC=C3)=C2)C(F)=C1F", 
	 "Tm": 334.15, 
	 "num_atms": 35, 
	 "gaussian": { 
		 "optdone": 1, 
		 "sigma_profile": "yes", 
		 "theory": "DFT", 
		 "functional": "B3LYP", 
		 "basiset": "6-31G**", 
		 "properties": { 
			 "R2extent": 13690.8571, 
			 "electric_dipole_moment_norm": 4.61287938169, 
			 "electric_quadrupole_moment_norm": 8.84190108235, 
			 "total_energy": -1470.28596489, 
			 "HOMO_LUMO_gap": 0.17661, 
			 "cosmo_polarized_energy": -10.29, 
			 "cosmo_cavitation_energy": 45.53, 
			 "cosmo_dispersion_energy": -30.73, 
			 "cosmo_repulsion_energy": 2.23, 
			 "cosmo_total_nonelectrostatic_energy": 17.02, 
			 "SMD_solvation_energy": 10.55 
		},
		"coords": [
			{
				"x": -6.1807815725,
				"y": -1.8887540047,
				"z": -1.9074775788,
				"element": "F" 
			},
			{
				"x": -5.1493020452,
				"y": -1.3758847788,
				"z": -1.2312746385,
				"element": "C" 
			},
			{
				"x": -4.7948562199,
				"y": -1.9072105624,
				"z": 0.006827032,
				"element": "C" 
			},
			{
				"x": -5.4897741988,
				"y": -2.9280323135,
				"z": 0.5194620346,
				"element": "F" 
			},
			{
				"x": -3.7195301287,
				"y": -1.3680078077,
				"z": 0.7101850781,
				"element": "C" 
			},
			{
				"x": -3.3925928577,
				"y": -1.875279464,
				"z": 1.9023413388,
				"element": "F" 
			},
			{
				"x": -2.9844869033,
				"y": -0.3092994071,
				"z": 0.1776355388,
				"element": "C" 
			},
			{
				"x": -1.88224314,
				"y": 0.1581352699,
				"z": 0.8560194908,
				"element": "O" 
			},
			{
				"x": -1.9851071211,
				"y": 1.4220201868,
				"z": 1.4251014734,
				"element": "C" 
			},
			{
				"x": -2.9968289141,
				"y": 2.0758426358,
				"z": 1.3602976409,
				"element": "O" 
			},
			{
				"x": -0.7268792149,
				"y": 1.8211110086,
				"z": 2.0989444356,
				"element": "C" 
			},
			{
				"x": -0.7027899737,
				"y": 3.0760665728,
				"z": 2.7266262224,
				"element": "C" 
			},
			{
				"x": 0.4513160894,
				"y": 3.4943384588,
				"z": 3.3803788831,
				"element": "C" 
			},
			{
				"x": 1.5814762637,
				"y": 2.6742736892,
				"z": 3.4045520654,
				"element": "C" 
			},
			{
				"x": 1.5480683535,
				"y": 1.4294907985,
				"z": 2.7760534557,
				"element": "C" 
			},
			{
				"x": 2.6687168295,
				"y": 0.6294510058,
				"z": 2.930823114,
				"element": "O" 
			},
			{
				"x": 3.2586505168,
				"y": 0.002413884,
				"z": 1.864401583,
				"element": "C" 
			},
			{
				"x": 2.887379737,
				"y": 0.3083749239,
				"z": 0.631709045,
				"element": "N" 
			},
			{
				"x": 3.5212153706,
				"y": -0.3149399962,
				"z": -0.3752721298,
				"element": "C" 
			},
			{
				"x": 4.5345269061,
				"y": -1.2477809052,
				"z": -0.1860597586,
				"element": "C" 
			},
			{
				"x": 4.9083947821,
				"y": -1.5533255603,
				"z": 1.1286639458,
				"element": "C" 
			},
			{
				"x": 4.2635421422,
				"y": -0.9234865102,
				"z": 2.183515434,
				"element": "C" 
			},
			{
				"x": 0.3981612243,
				"y": 0.987751767,
				"z": 2.1240809899,
				"element": "C" 
			},
			{
				"x": -3.3469267571,
				"y": 0.2161713398,
				"z": -1.0632311558,
				"element": "C" 
			},
			{
				"x": -2.651800647,
				"y": 1.2309940458,
				"z": -1.583064522,
				"element": "F" 
			},
			{
				"x": -4.426262568,
				"y": -0.311088202,
				"z": -1.7668922197,
				"element": "C" 
			},
			{
				"x": -4.7675715987,
				"y": 0.1955003776,
				"z": -2.9559539269,
				"element": "F" 
			},
			{
				"x": -1.590247642,
				"y": 3.6974620618,
				"z": 2.6896641785,
				"element": "H" 
			},
			{
				"x": 0.4790429675,
				"y": 4.4621252148,
				"z": 3.8711409081,
				"element": "H" 
			},
			{
				"x": 2.4921793414,
				"y": 2.9816371821,
				"z": 3.9078705844,
				"element": "H" 
			},
			{
				"x": 3.1946720101,
				"y": -0.0440235367,
				"z": -1.3772165769,
				"element": "H" 
			},
			{
				"x": 5.014700288,
				"y": -1.7208689872,
				"z": -1.0356191074,
				"element": "H" 
			},
			{
				"x": 5.6935818396,
				"y": -2.2772304156,
				"z": 1.3261698995,
				"element": "H" 
			},
			{
				"x": 4.5088315841,
				"y": -1.1206594416,
				"z": 3.2206645936,
				"element": "H" 
			},
			{
				"x": 0.377325257,
				"y": 0.0213114702,
				"z": 1.6405326489,
				"element": "H" 
			}
		],
		 "valence_orbital": [ 
			{
				"type": "occ",
				"energy": -0.27007,
				"method": "rhf"
			},
			{
				"type": "occ",
				"energy": -0.26432,
				"method": "rhf"
			},
			{
				"type": "occ",
				"energy": -0.26111,
				"method": "rhf"
			},
			{
				"type": "occ",
				"energy": -0.2584,
				"method": "rhf"
			},
			{
				"type": "occ",
				"energy": -0.23697,
				"method": "rhf"
			},
			{
				"type": "unocc",
				"energy": -0.06036,
				"method": "rhf"
			},
			{
				"type": "unocc",
				"energy": -0.03386,
				"method": "rhf"
			},
			{
				"type": "unocc",
				"energy": -0.02451,
				"method": "rhf"
			},
			{
				"type": "unocc",
				"energy": -0.01808,
				"method": "rhf"
			},
			{
				"type": "unocc",
				"energy": -0.01779,
				"method": "rhf"
			}
		],
		"cosmo_sigma_profile": { 
			"-0.025": 0.0,
			"-0.024": 0.0,
			"-0.023": 0.0,
			"-0.022": 0.0,
			"-0.021": 0.0,
			"-0.02": 0.0,
			"-0.019": 0.0,
			"-0.018": 0.0,
			"-0.017": 0.0,
			"-0.016": 0.0,
			"-0.015": 0.0,
			"-0.014": 0.0,
			"-0.013": 0.0,
			"-0.012": 0.0,
			"-0.011": 0.0,
			"-0.01": 0.0,
			"-0.009": 0.0,
			"-0.008": 1.6283994091,
			"-0.007": 10.8991772039,
			"-0.006": 15.8381934672,
			"-0.005": 18.8503101732,
			"-0.004": 31.1397988613,
			"-0.003": 26.9976468925,
			"-0.002": 22.1566220387,
			"-0.001": 25.0462713192,
			"0.0": 29.2776773454,
			"0.001": 39.5578369537,
			"0.002": 73.3633091083,
			"0.003": 40.1224678917,
			"0.004": 5.99249314059,
			"0.005": 5.40474996262,
			"0.006": 4.62125462139,
			"0.007": 4.45229755641,
			"0.008": 2.9839849913,
			"0.009": 3.57833259261,
			"0.01": 4.82460822012,
			"0.011": 1.53539522001,
			"0.012": 1.00567915131,
			"0.013": 0.445272615597,
			"0.014": 0.0,
			"0.015": 0.0,
			"0.016": 0.0,
			"0.017": 0.0,
			"0.018": 0.0,
			"0.019": 0.0,
			"0.02": 0.0,
			"0.021": 0.0,
			"0.022": 0.0,
			"0.023": 0.0,
			"0.024": 0.0,
			"0.025": 0.0
		}
	}
}
