{
	 "smiles": "CN(C)S(=O)(=O)C1=CC=C(O)C=C1", 
	 "Tm": 369.15, 
	 "num_atms": 24, 
	 "gaussian": { 
		 "optdone": 1, 
		 "sigma_profile": "yes", 
		 "theory": "DFT", 
		 "functional": "B3LYP", 
		 "basiset": "6-31G**", 
		 "properties": { 
			 "R2extent": 3165.3278, 
			 "electric_dipole_moment_norm": 5.9686903329, 
			 "electric_quadrupole_moment_norm": 15.1645199459, 
			 "total_energy": -990.013177549, 
			 "HOMO_LUMO_gap": 0.21284, 
			 "cosmo_polarized_energy": -18.35, 
			 "cosmo_cavitation_energy": 28.45, 
			 "cosmo_dispersion_energy": -20.94, 
			 "cosmo_repulsion_energy": 1.6, 
			 "cosmo_total_nonelectrostatic_energy": 9.12, 
			 "SMD_solvation_energy": 3.74 
		},
		"coords": [
			{
				"x": -2.6865323014,
				"y": -0.3203685802,
				"z": 0.5065027358,
				"element": "C" 
			},
			{
				"x": -1.3391810333,
				"y": -0.7754405151,
				"z": 0.8532521751,
				"element": "N" 
			},
			{
				"x": -0.7716895035,
				"y": -0.161510646,
				"z": 2.0550476472,
				"element": "C" 
			},
			{
				"x": -0.272488414,
				"y": -0.995976593,
				"z": -0.444127837,
				"element": "S" 
			},
			{
				"x": -1.0333477127,
				"y": -1.7067894289,
				"z": -1.4746129561,
				"element": "O" 
			},
			{
				"x": 0.9580124005,
				"y": -1.5407756055,
				"z": 0.1339511359,
				"element": "O" 
			},
			{
				"x": 0.1132092905,
				"y": 0.6301450767,
				"z": -1.0908338003,
				"element": "C" 
			},
			{
				"x": 1.1885735735,
				"y": 1.354604092,
				"z": -0.5607362846,
				"element": "C" 
			},
			{
				"x": 1.4673048839,
				"y": 2.6292388734,
				"z": -1.0381346404,
				"element": "C" 
			},
			{
				"x": 0.6714205605,
				"y": 3.1840208448,
				"z": -2.0502996527,
				"element": "C" 
			},
			{
				"x": 0.992573237,
				"y": 4.4346221875,
				"z": -2.4773303878,
				"element": "O" 
			},
			{
				"x": -0.3973567748,
				"y": 2.453303932,
				"z": -2.5862148517,
				"element": "C" 
			},
			{
				"x": -0.6762320346,
				"y": 1.1763000239,
				"z": -2.1063687574,
				"element": "C" 
			},
			{
				"x": -2.729673978,
				"y": 0.7574927466,
				"z": 0.2836151788,
				"element": "H" 
			},
			{
				"x": -3.3420073572,
				"y": -0.5233883699,
				"z": 1.3585073292,
				"element": "H" 
			},
			{
				"x": -3.0488474279,
				"y": -0.8861464829,
				"z": -0.3513884763,
				"element": "H" 
			},
			{
				"x": -0.6554416688,
				"y": 0.9299158248,
				"z": 1.963473654,
				"element": "H" 
			},
			{
				"x": -1.4461558916,
				"y": -0.3682088657,
				"z": 2.8912052435,
				"element": "H" 
			},
			{
				"x": 0.1951867958,
				"y": -0.6156620427,
				"z": 2.2700744185,
				"element": "H" 
			},
			{
				"x": 1.8156814272,
				"y": 0.9033378989,
				"z": 0.2002254621,
				"element": "H" 
			},
			{
				"x": 2.3003274611,
				"y": 3.2063818008,
				"z": -0.6515286013,
				"element": "H" 
			},
			{
				"x": 0.3905164373,
				"y": 4.6997762841,
				"z": -3.1851683299,
				"element": "H" 
			},
			{
				"x": -1.0023443509,
				"y": 2.8787232908,
				"z": -3.3838057828,
				"element": "H" 
			},
			{
				"x": -1.4829076187,
				"y": 0.5911042537,
				"z": -2.533804622,
				"element": "H" 
			}
		],
		 "valence_orbital": [ 
			{
				"type": "occ",
				"energy": -0.29828,
				"method": "rhf"
			},
			{
				"type": "occ",
				"energy": -0.29552,
				"method": "rhf"
			},
			{
				"type": "occ",
				"energy": -0.2748,
				"method": "rhf"
			},
			{
				"type": "occ",
				"energy": -0.26288,
				"method": "rhf"
			},
			{
				"type": "occ",
				"energy": -0.23978,
				"method": "rhf"
			},
			{
				"type": "unocc",
				"energy": -0.02694,
				"method": "rhf"
			},
			{
				"type": "unocc",
				"energy": -0.02483,
				"method": "rhf"
			},
			{
				"type": "unocc",
				"energy": 0.05199,
				"method": "rhf"
			},
			{
				"type": "unocc",
				"energy": 0.06524,
				"method": "rhf"
			},
			{
				"type": "unocc",
				"energy": 0.08528,
				"method": "rhf"
			}
		],
		"cosmo_sigma_profile": { 
			"-0.025": 0.0,
			"-0.024": 0.0,
			"-0.023": 0.0,
			"-0.022": 0.0,
			"-0.021": 0.0,
			"-0.02": 0.0,
			"-0.019": 0.0831298927045,
			"-0.018": 1.15981804031,
			"-0.017": 1.45966758089,
			"-0.016": 0.799569373499,
			"-0.015": 1.10525606145,
			"-0.014": 1.34272008685,
			"-0.013": 1.09831183075,
			"-0.012": 0.752061820643,
			"-0.011": 0.915047796852,
			"-0.01": 1.16847723977,
			"-0.009": 1.07300266079,
			"-0.008": 1.83762105745,
			"-0.007": 6.50608082194,
			"-0.006": 11.5798532294,
			"-0.005": 13.2648221055,
			"-0.004": 19.399074935,
			"-0.003": 22.9393894637,
			"-0.002": 22.2442714765,
			"-0.001": 10.3067677539,
			"0.0": 8.37831924603,
			"0.001": 10.5452155992,
			"0.002": 17.3470941001,
			"0.003": 14.7106646161,
			"0.004": 5.7268163371,
			"0.005": 4.80385154111,
			"0.006": 5.75200228926,
			"0.007": 5.83716830223,
			"0.008": 5.48600161195,
			"0.009": 6.02788185959,
			"0.01": 7.83204266213,
			"0.011": 8.38852630108,
			"0.012": 5.49851908092,
			"0.013": 0.0668009462044,
			"0.014": 0.0,
			"0.015": 0.0,
			"0.016": 0.0,
			"0.017": 0.0,
			"0.018": 0.0,
			"0.019": 0.0,
			"0.02": 0.0,
			"0.021": 0.0,
			"0.022": 0.0,
			"0.023": 0.0,
			"0.024": 0.0,
			"0.025": 0.0
		}
	}
}
