{
	 "smiles": "OC(=O)C1=CC(F)=CC(F)=C1", 
	 "Tm": 395.15, 
	 "num_atms": 15, 
	 "gaussian": { 
		 "optdone": 1, 
		 "sigma_profile": "yes", 
		 "theory": "DFT", 
		 "functional": "B3LYP", 
		 "basiset": "6-31G**", 
		 "properties": { 
			 "R2extent": 2301.4244, 
			 "electric_dipole_moment_norm": 3.50672550537, 
			 "electric_quadrupole_moment_norm": 7.65218540745, 
			 "total_energy": -619.274896397, 
			 "HOMO_LUMO_gap": 0.20334, 
			 "cosmo_polarized_energy": -12.73, 
			 "cosmo_cavitation_energy": 21.25, 
			 "cosmo_dispersion_energy": -15.41, 
			 "cosmo_repulsion_energy": 1.18, 
			 "cosmo_total_nonelectrostatic_energy": 7.02, 
			 "SMD_solvation_energy": 5.95 
		},
		"coords": [
			{
				"x": -1.0906860882,
				"y": 0.6245696552,
				"z": -2.1579158211,
				"element": "O" 
			},
			{
				"x": -0.029058261,
				"y": 0.9401404498,
				"z": -1.3720928905,
				"element": "C" 
			},
			{
				"x": 0.322832872,
				"y": 2.0886569873,
				"z": -1.2549169152,
				"element": "O" 
			},
			{
				"x": 0.6591133873,
				"y": -0.2022284623,
				"z": -0.6770172114,
				"element": "C" 
			},
			{
				"x": 0.0207989414,
				"y": -1.4258294656,
				"z": -0.4302790911,
				"element": "C" 
			},
			{
				"x": 0.7271029012,
				"y": -2.4231665959,
				"z": 0.2331642815,
				"element": "C" 
			},
			{
				"x": 0.1159356847,
				"y": -3.5947421548,
				"z": 0.4820379097,
				"element": "F" 
			},
			{
				"x": 2.040031242,
				"y": -2.2526075499,
				"z": 0.6551797112,
				"element": "C" 
			},
			{
				"x": 2.6375657576,
				"y": -1.0211737766,
				"z": 0.4012017648,
				"element": "C" 
			},
			{
				"x": 3.9051278892,
				"y": -0.8320115576,
				"z": 0.8041987007,
				"element": "F" 
			},
			{
				"x": 1.9737784263,
				"y": 0.0110069165,
				"z": -0.2478127836,
				"element": "C" 
			},
			{
				"x": -1.1416965232,
				"y": -0.3323781891,
				"z": -2.2892820777,
				"element": "H" 
			},
			{
				"x": -1.0158851492,
				"y": -1.6111143652,
				"z": -0.6910634151,
				"element": "H" 
			},
			{
				"x": 2.5737696327,
				"y": -3.0432401717,
				"z": 1.1681135112,
				"element": "H" 
			},
			{
				"x": 2.4560692871,
				"y": 0.9651182799,
				"z": -0.4210156738,
				"element": "H" 
			}
		],
		 "valence_orbital": [ 
			{
				"type": "occ",
				"energy": -0.37507,
				"method": "rhf"
			},
			{
				"type": "occ",
				"energy": -0.32786,
				"method": "rhf"
			},
			{
				"type": "occ",
				"energy": -0.29085,
				"method": "rhf"
			},
			{
				"type": "occ",
				"energy": -0.28046,
				"method": "rhf"
			},
			{
				"type": "occ",
				"energy": -0.27043,
				"method": "rhf"
			},
			{
				"type": "unocc",
				"energy": -0.06709,
				"method": "rhf"
			},
			{
				"type": "unocc",
				"energy": -0.02596,
				"method": "rhf"
			},
			{
				"type": "unocc",
				"energy": 0.03655,
				"method": "rhf"
			},
			{
				"type": "unocc",
				"energy": 0.04915,
				"method": "rhf"
			},
			{
				"type": "unocc",
				"energy": 0.08345,
				"method": "rhf"
			}
		],
		"cosmo_sigma_profile": { 
			"-0.025": 0.0,
			"-0.024": 0.0,
			"-0.023": 0.0,
			"-0.022": 0.0,
			"-0.021": 0.0,
			"-0.02": 0.000483590260686,
			"-0.019": 0.459249831517,
			"-0.018": 1.26528268228,
			"-0.017": 0.783365406597,
			"-0.016": 1.40491242862,
			"-0.015": 0.888580952108,
			"-0.014": 1.11733481142,
			"-0.013": 1.14388876098,
			"-0.012": 1.45581791819,
			"-0.011": 1.023997853,
			"-0.01": 1.55836280661,
			"-0.009": 3.01798417453,
			"-0.008": 4.26756909321,
			"-0.007": 4.66580217281,
			"-0.006": 4.36406024099,
			"-0.005": 5.39496628709,
			"-0.004": 5.63499581716,
			"-0.003": 7.20972611949,
			"-0.002": 9.22581576737,
			"-0.001": 20.9357919389,
			"0.0": 19.5285257015,
			"0.001": 10.8991768718,
			"0.002": 7.88417528384,
			"0.003": 16.6745516967,
			"0.004": 12.62213349,
			"0.005": 2.59409476924,
			"0.006": 2.20118717208,
			"0.007": 2.38067138672,
			"0.008": 3.21832340224,
			"0.009": 3.46941566542,
			"0.01": 5.43246648788,
			"0.011": 5.49142971343,
			"0.012": 2.83701643789,
			"0.013": 0.494297428132,
			"0.014": 0.0,
			"0.015": 0.0,
			"0.016": 0.0,
			"0.017": 0.0,
			"0.018": 0.0,
			"0.019": 0.0,
			"0.02": 0.0,
			"0.021": 0.0,
			"0.022": 0.0,
			"0.023": 0.0,
			"0.024": 0.0,
			"0.025": 0.0
		}
	}
}
