{
	 "smiles": "CCC1=CC(C(O)=O)=C(N=C1)C1=NC(C)(C(C)C)C(=O)N1", 
	 "Tm": 444.15, 
	 "num_atms": 40, 
	 "gaussian": { 
		 "optdone": 1, 
		 "sigma_profile": "yes", 
		 "theory": "DFT", 
		 "functional": "B3LYP", 
		 "basiset": "6-31G**", 
		 "properties": { 
			 "R2extent": 7725.2928, 
			 "electric_dipole_moment_norm": 4.72737636433, 
			 "electric_quadrupole_moment_norm": 18.0111898052, 
			 "total_energy": -973.020797598, 
			 "HOMO_LUMO_gap": 0.17155, 
			 "cosmo_polarized_energy": -17.9, 
			 "cosmo_cavitation_energy": 42.87, 
			 "cosmo_dispersion_energy": -29.02, 
			 "cosmo_repulsion_energy": 2.24, 
			 "cosmo_total_nonelectrostatic_energy": 16.09, 
			 "SMD_solvation_energy": 6.79 
		},
		"coords": [
			{
				"x": 5.8740671251,
				"y": 2.1968472471,
				"z": -2.0039929892,
				"element": "C" 
			},
			{
				"x": 4.6534504259,
				"y": 2.0177791428,
				"z": -2.9258826415,
				"element": "C" 
			},
			{
				"x": 3.4579251405,
				"y": 1.4398752449,
				"z": -2.2061020627,
				"element": "C" 
			},
			{
				"x": 3.3130781839,
				"y": 0.0658306327,
				"z": -1.9949755772,
				"element": "C" 
			},
			{
				"x": 2.2081456462,
				"y": -0.4374551222,
				"z": -1.3066667204,
				"element": "C" 
			},
			{
				"x": 2.1044348687,
				"y": -1.9306045698,
				"z": -1.1787277183,
				"element": "C" 
			},
			{
				"x": 1.0263049474,
				"y": -2.4276793225,
				"z": -1.8185425282,
				"element": "O" 
			},
			{
				"x": 2.9561025428,
				"y": -2.6198739157,
				"z": -0.6640843305,
				"element": "O" 
			},
			{
				"x": 1.2888954931,
				"y": 0.4882916313,
				"z": -0.7790493712,
				"element": "C" 
			},
			{
				"x": 1.4073393482,
				"y": 1.8096685705,
				"z": -0.986432261,
				"element": "N" 
			},
			{
				"x": 2.446565149,
				"y": 2.2600433168,
				"z": -1.6902155053,
				"element": "C" 
			},
			{
				"x": 0.1689199829,
				"y": 0.1016140761,
				"z": 0.1044019342,
				"element": "C" 
			},
			{
				"x": -0.0125115396,
				"y": -1.0559380166,
				"z": 0.6299490118,
				"element": "N" 
			},
			{
				"x": -1.2230160713,
				"y": -0.9644714238,
				"z": 1.4728074932,
				"element": "C" 
			},
			{
				"x": -0.8563334807,
				"y": -1.2731029172,
				"z": 2.933708758,
				"element": "C" 
			},
			{
				"x": -2.3298724733,
				"y": -1.9081559259,
				"z": 0.8867477388,
				"element": "C" 
			},
			{
				"x": -1.8226887922,
				"y": -3.3461882147,
				"z": 0.7021933533,
				"element": "C" 
			},
			{
				"x": -3.6302733645,
				"y": -1.8836842329,
				"z": 1.7049515033,
				"element": "C" 
			},
			{
				"x": -1.6670998993,
				"y": 0.517110948,
				"z": 1.3576726091,
				"element": "C" 
			},
			{
				"x": -2.5805963366,
				"y": 1.0987687051,
				"z": 1.9117569039,
				"element": "O" 
			},
			{
				"x": -0.7635613195,
				"y": 1.070331056,
				"z": 0.4658278237,
				"element": "N" 
			},
			{
				"x": 5.6447641455,
				"y": 2.8744105689,
				"z": -1.1755764053,
				"element": "H" 
			},
			{
				"x": 6.7198099557,
				"y": 2.6127919437,
				"z": -2.5601890299,
				"element": "H" 
			},
			{
				"x": 6.1877248387,
				"y": 1.2401949092,
				"z": -1.5743849409,
				"element": "H" 
			},
			{
				"x": 4.923904193,
				"y": 1.3642610546,
				"z": -3.7635501046,
				"element": "H" 
			},
			{
				"x": 4.3801191285,
				"y": 2.9861732133,
				"z": -3.3605431867,
				"element": "H" 
			},
			{
				"x": 4.0545086701,
				"y": -0.6290030411,
				"z": -2.3802273815,
				"element": "H" 
			},
			{
				"x": 1.0441211058,
				"y": -3.3886959353,
				"z": -1.671687881,
				"element": "H" 
			},
			{
				"x": 2.4851180364,
				"y": 3.3369114585,
				"z": -1.8495175899,
				"element": "H" 
			},
			{
				"x": -1.7096853752,
				"y": -1.0781114473,
				"z": 3.5873712467,
				"element": "H" 
			},
			{
				"x": -0.0263674339,
				"y": -0.6378289993,
				"z": 3.2560391239,
				"element": "H" 
			},
			{
				"x": -0.5435343348,
				"y": -2.3139425914,
				"z": 3.0429079003,
				"element": "H" 
			},
			{
				"x": -2.5524678706,
				"y": -1.5106889982,
				"z": -0.1136972365,
				"element": "H" 
			},
			{
				"x": -1.6041181351,
				"y": -3.8241895817,
				"z": 1.6632858803,
				"element": "H" 
			},
			{
				"x": -2.5912847268,
				"y": -3.9487306473,
				"z": 0.2062335928,
				"element": "H" 
			},
			{
				"x": -0.9151136933,
				"y": -3.368048661,
				"z": 0.0962033003,
				"element": "H" 
			},
			{
				"x": -3.4979248109,
				"y": -2.3764667888,
				"z": 2.6743975468,
				"element": "H" 
			},
			{
				"x": -4.413517436,
				"y": -2.4286390833,
				"z": 1.1672414851,
				"element": "H" 
			},
			{
				"x": -3.9779776299,
				"y": -0.8645703664,
				"z": 1.8859718829,
				"element": "H" 
			},
			{
				"x": -0.7035542039,
				"y": 2.0400660829,
				"z": 0.1892763733,
				"element": "H" 
			}
		],
		 "valence_orbital": [ 
			{
				"type": "occ",
				"energy": -0.29023,
				"method": "rhf"
			},
			{
				"type": "occ",
				"energy": -0.27671,
				"method": "rhf"
			},
			{
				"type": "occ",
				"energy": -0.27055,
				"method": "rhf"
			},
			{
				"type": "occ",
				"energy": -0.24278,
				"method": "rhf"
			},
			{
				"type": "occ",
				"energy": -0.23862,
				"method": "rhf"
			},
			{
				"type": "unocc",
				"energy": -0.06707,
				"method": "rhf"
			},
			{
				"type": "unocc",
				"energy": -0.04958,
				"method": "rhf"
			},
			{
				"type": "unocc",
				"energy": 0.00744,
				"method": "rhf"
			},
			{
				"type": "unocc",
				"energy": 0.01567,
				"method": "rhf"
			},
			{
				"type": "unocc",
				"energy": 0.05456,
				"method": "rhf"
			}
		],
		"cosmo_sigma_profile": { 
			"-0.025": 0.0,
			"-0.024": 0.0,
			"-0.023": 0.0,
			"-0.022": 0.0,
			"-0.021": 0.0,
			"-0.02": 0.0,
			"-0.019": 0.0012536540912,
			"-0.018": 0.562038801075,
			"-0.017": 0.828058275308,
			"-0.016": 0.451639989169,
			"-0.015": 1.16300492566,
			"-0.014": 1.04826649379,
			"-0.013": 1.65968082049,
			"-0.012": 1.0034928269,
			"-0.011": 1.17472855513,
			"-0.01": 1.73515853388,
			"-0.009": 1.11965495567,
			"-0.008": 2.89276575438,
			"-0.007": 7.13158055174,
			"-0.006": 8.05576995102,
			"-0.005": 11.6973641408,
			"-0.004": 21.2840711381,
			"-0.003": 31.901088445,
			"-0.002": 40.3419514873,
			"-0.001": 43.0828781784,
			"0.0": 41.6384654319,
			"0.001": 30.4078829927,
			"0.002": 14.7773743192,
			"0.003": 8.49010766376,
			"0.004": 7.17796185369,
			"0.005": 6.89543079336,
			"0.006": 6.67044744157,
			"0.007": 6.81736819434,
			"0.008": 7.89413799628,
			"0.009": 5.98738692014,
			"0.01": 5.23317727852,
			"0.011": 8.06505828382,
			"0.012": 6.82813232806,
			"0.013": 2.94657073154,
			"0.014": 0.129537823122,
			"0.015": 0.0,
			"0.016": 0.0,
			"0.017": 0.0,
			"0.018": 0.0,
			"0.019": 0.0,
			"0.02": 0.0,
			"0.021": 0.0,
			"0.022": 0.0,
			"0.023": 0.0,
			"0.024": 0.0,
			"0.025": 0.0
		}
	}
}
