{
	 "smiles": "[O-][N+](=O)C1=CC(Cl)=C(C=C1)N=C=O", 
	 "Tm": 334.15, 
	 "num_atms": 16, 
	 "gaussian": { 
		 "optdone": 1, 
		 "sigma_profile": "yes", 
		 "theory": "DFT", 
		 "functional": "B3LYP", 
		 "basiset": "6-31G**", 
		 "properties": { 
			 "R2extent": 3386.7955, 
			 "electric_dipole_moment_norm": 2.41295425982, 
			 "electric_quadrupole_moment_norm": 14.2794663843, 
			 "total_energy": -1063.81439983, 
			 "HOMO_LUMO_gap": 0.16486, 
			 "cosmo_polarized_energy": -8.17, 
			 "cosmo_cavitation_energy": 24.8, 
			 "cosmo_dispersion_energy": -18.06, 
			 "cosmo_repulsion_energy": 1.42, 
			 "cosmo_total_nonelectrostatic_energy": 8.16, 
			 "SMD_solvation_energy": 8.37 
		},
		"coords": [
			{
				"x": -2.558518331,
				"y": -1.8480765504,
				"z": -0.8023112147,
				"element": "O" 
			},
			{
				"x": -1.8652915049,
				"y": -0.9530036558,
				"z": -1.2833130115,
				"element": "N" 
			},
			{
				"x": -1.9147461604,
				"y": -0.5722162154,
				"z": -2.4520692743,
				"element": "O" 
			},
			{
				"x": -0.9047242582,
				"y": -0.2886994858,
				"z": -0.3912562562,
				"element": "C" 
			},
			{
				"x": -0.1074049204,
				"y": 0.7282069941,
				"z": -0.9094236655,
				"element": "C" 
			},
			{
				"x": 0.8013728621,
				"y": 1.3580180103,
				"z": -0.0687810944,
				"element": "C" 
			},
			{
				"x": 1.8073027454,
				"y": 2.6349063418,
				"z": -0.7062282135,
				"element": "Cl" 
			},
			{
				"x": 0.9178086565,
				"y": 0.9768830977,
				"z": 1.2879260459,
				"element": "C" 
			},
			{
				"x": 0.0933067307,
				"y": -0.0546850569,
				"z": 1.7692913763,
				"element": "C" 
			},
			{
				"x": -0.8181935789,
				"y": -0.6914720317,
				"z": 0.939912416,
				"element": "C" 
			},
			{
				"x": 1.8000255178,
				"y": 1.5624551316,
				"z": 2.173792681,
				"element": "N" 
			},
			{
				"x": 2.6504446265,
				"y": 2.4316993421,
				"z": 2.2040558391,
				"element": "C" 
			},
			{
				"x": 3.4895727047,
				"y": 3.2249615914,
				"z": 2.4080326114,
				"element": "O" 
			},
			{
				"x": -0.2031800376,
				"y": 1.0134319548,
				"z": -1.9488429919,
				"element": "H" 
			},
			{
				"x": 0.1904515008,
				"y": -0.3393123115,
				"z": 2.8106949458,
				"element": "H" 
			},
			{
				"x": -1.4574265532,
				"y": -1.4866971563,
				"z": 1.3010198064,
				"element": "H" 
			}
		],
		 "valence_orbital": [ 
			{
				"type": "occ",
				"energy": -0.32095,
				"method": "rhf"
			},
			{
				"type": "occ",
				"energy": -0.31875,
				"method": "rhf"
			},
			{
				"type": "occ",
				"energy": -0.30267,
				"method": "rhf"
			},
			{
				"type": "occ",
				"energy": -0.28985,
				"method": "rhf"
			},
			{
				"type": "occ",
				"energy": -0.26961,
				"method": "rhf"
			},
			{
				"type": "unocc",
				"energy": -0.10475,
				"method": "rhf"
			},
			{
				"type": "unocc",
				"energy": -0.05007,
				"method": "rhf"
			},
			{
				"type": "unocc",
				"energy": -0.02965,
				"method": "rhf"
			},
			{
				"type": "unocc",
				"energy": -0.01745,
				"method": "rhf"
			},
			{
				"type": "unocc",
				"energy": 0.01211,
				"method": "rhf"
			}
		],
		"cosmo_sigma_profile": { 
			"-0.025": 0.0,
			"-0.024": 0.0,
			"-0.023": 0.0,
			"-0.022": 0.0,
			"-0.021": 0.0,
			"-0.02": 0.0,
			"-0.019": 0.0,
			"-0.018": 0.0,
			"-0.017": 0.0,
			"-0.016": 0.0,
			"-0.015": 0.0,
			"-0.014": 0.0,
			"-0.013": 0.0,
			"-0.012": 0.0,
			"-0.011": 0.0,
			"-0.01": 0.0,
			"-0.009": 1.7447533613,
			"-0.008": 4.84302681423,
			"-0.007": 6.07636198353,
			"-0.006": 7.91778612102,
			"-0.005": 8.07197346897,
			"-0.004": 14.4972333168,
			"-0.003": 17.3467641003,
			"-0.002": 21.1906845965,
			"-0.001": 25.2961382812,
			"0.0": 18.3518404188,
			"0.001": 11.9190220347,
			"0.002": 11.4302517553,
			"0.003": 9.90265856485,
			"0.004": 5.2119298144,
			"0.005": 6.27694212861,
			"0.006": 10.3984408131,
			"0.007": 11.7483381459,
			"0.008": 5.93432635201,
			"0.009": 4.14162783245,
			"0.01": 1.52198617687,
			"0.011": 0.0,
			"0.012": 0.0,
			"0.013": 0.0,
			"0.014": 0.0,
			"0.015": 0.0,
			"0.016": 0.0,
			"0.017": 0.0,
			"0.018": 0.0,
			"0.019": 0.0,
			"0.02": 0.0,
			"0.021": 0.0,
			"0.022": 0.0,
			"0.023": 0.0,
			"0.024": 0.0,
			"0.025": 0.0
		}
	}
}
