{
	 "smiles": "CC(CCC1=C(C2=CC=C(C)O2)C2=C(O1)C(Br)=CC(Br)=C2)=NO", 
	 "Tm": 431.15, 
	 "num_atms": 38, 
	 "gaussian": { 
		 "optdone": 1, 
		 "sigma_profile": "yes", 
		 "theory": "DFT", 
		 "functional": "B3LYP", 
		 "basiset": "6-31G**", 
		 "properties": { 
			 "R2extent": 14716.7535, 
			 "electric_dipole_moment_norm": 3.74707350742, 
			 "electric_quadrupole_moment_norm": 8.67845576701, 
			 "total_energy": -6080.0134179, 
			 "HOMO_LUMO_gap": 0.16175, 
			 "cosmo_polarized_energy": -12.69, 
			 "cosmo_cavitation_energy": 47.47, 
			 "cosmo_dispersion_energy": -32.29, 
			 "cosmo_repulsion_energy": 2.52, 
			 "cosmo_total_nonelectrostatic_energy": 17.7, 
			 "SMD_solvation_energy": 6.12 
		},
		"coords": [
			{
				"x": 0.6845132344,
				"y": -1.8828284285,
				"z": 4.4577679673,
				"element": "C" 
			},
			{
				"x": 1.0247469951,
				"y": -0.6876642015,
				"z": 3.6068225087,
				"element": "C" 
			},
			{
				"x": -0.0805032771,
				"y": 0.2446907847,
				"z": 3.1631952356,
				"element": "C" 
			},
			{
				"x": -1.2045985475,
				"y": -0.4345386216,
				"z": 2.333948217,
				"element": "C" 
			},
			{
				"x": -0.7548696298,
				"y": -1.0403475039,
				"z": 1.0504135152,
				"element": "C" 
			},
			{
				"x": -0.7204624839,
				"y": -0.5832257638,
				"z": -0.2428153268,
				"element": "C" 
			},
			{
				"x": -1.1218286658,
				"y": 0.7221662328,
				"z": -0.7245968281,
				"element": "C" 
			},
			{
				"x": -1.2830438056,
				"y": 1.9540370399,
				"z": -0.1450881135,
				"element": "C" 
			},
			{
				"x": -1.7156931733,
				"y": 2.841173207,
				"z": -1.1804196767,
				"element": "C" 
			},
			{
				"x": -1.7838740708,
				"y": 2.1071691083,
				"z": -2.3284899036,
				"element": "C" 
			},
			{
				"x": -2.1485933072,
				"y": 2.4245320891,
				"z": -3.7354026936,
				"element": "C" 
			},
			{
				"x": -1.4248984163,
				"y": 0.8124781979,
				"z": -2.0635267008,
				"element": "O" 
			},
			{
				"x": -0.196145059,
				"y": -1.6808237487,
				"z": -1.0389277074,
				"element": "C" 
			},
			{
				"x": 0.0556056409,
				"y": -2.7165939306,
				"z": -0.1228817111,
				"element": "C" 
			},
			{
				"x": -0.2794572337,
				"y": -2.3328398192,
				"z": 1.1385479609,
				"element": "O" 
			},
			{
				"x": 0.5730821776,
				"y": -3.9466102071,
				"z": -0.5102112078,
				"element": "C" 
			},
			{
				"x": 0.8913257245,
				"y": -5.317479373,
				"z": 0.7637739533,
				"element": "Br" 
			},
			{
				"x": 0.8496178501,
				"y": -4.1430477041,
				"z": -1.860275828,
				"element": "C" 
			},
			{
				"x": 0.6001937509,
				"y": -3.1074175467,
				"z": -2.7753382322,
				"element": "C" 
			},
			{
				"x": 0.9968099343,
				"y": -3.4240339895,
				"z": -4.6209262895,
				"element": "Br" 
			},
			{
				"x": 0.0804906105,
				"y": -1.8747448905,
				"z": -2.3994104942,
				"element": "C" 
			},
			{
				"x": 2.2693114559,
				"y": -0.535392828,
				"z": 3.3350789729,
				"element": "N" 
			},
			{
				"x": 2.5226904751,
				"y": 0.5970003363,
				"z": 2.5331837975,
				"element": "O" 
			},
			{
				"x": 0.1011642988,
				"y": -1.5841144099,
				"z": 5.3374015178,
				"element": "H" 
			},
			{
				"x": 1.6001397243,
				"y": -2.3757046909,
				"z": 4.7892025418,
				"element": "H" 
			},
			{
				"x": 0.0881056142,
				"y": -2.6080895558,
				"z": 3.8934699684,
				"element": "H" 
			},
			{
				"x": -0.5476968042,
				"y": 0.6707128921,
				"z": 4.0616619147,
				"element": "H" 
			},
			{
				"x": 0.3524119688,
				"y": 1.0683683995,
				"z": 2.5946376095,
				"element": "H" 
			},
			{
				"x": -1.9680271198,
				"y": 0.3168916963,
				"z": 2.1069001355,
				"element": "H" 
			},
			{
				"x": -1.6894449619,
				"y": -1.2148600249,
				"z": 2.9307970428,
				"element": "H" 
			},
			{
				"x": -1.0846677606,
				"y": 2.209314184,
				"z": 0.885043895,
				"element": "H" 
			},
			{
				"x": -1.9376478483,
				"y": 3.8944821997,
				"z": -1.0848103081,
				"element": "H" 
			},
			{
				"x": -1.3153841483,
				"y": 2.2285358601,
				"z": -4.4204003842,
				"element": "H" 
			},
			{
				"x": -2.4183054601,
				"y": 3.4797138944,
				"z": -3.8190425616,
				"element": "H" 
			},
			{
				"x": -3.0005947638,
				"y": 1.8241828408,
				"z": -4.0748435391,
				"element": "H" 
			},
			{
				"x": 1.2526650732,
				"y": -5.0882119259,
				"z": -2.1997005873,
				"element": "H" 
			},
			{
				"x": -0.1088431613,
				"y": -1.0974322301,
				"z": -3.1269132088,
				"element": "H" 
			},
			{
				"x": 3.4802051697,
				"y": 0.544752431,
				"z": 2.4191745486,
				"element": "H" 
			}
		],
		 "valence_orbital": [ 
			{
				"type": "occ",
				"energy": -0.26634,
				"method": "rhf"
			},
			{
				"type": "occ",
				"energy": -0.24702,
				"method": "rhf"
			},
			{
				"type": "occ",
				"energy": -0.24346,
				"method": "rhf"
			},
			{
				"type": "occ",
				"energy": -0.23472,
				"method": "rhf"
			},
			{
				"type": "occ",
				"energy": -0.20138,
				"method": "rhf"
			},
			{
				"type": "unocc",
				"energy": -0.03963,
				"method": "rhf"
			},
			{
				"type": "unocc",
				"energy": -0.01195,
				"method": "rhf"
			},
			{
				"type": "unocc",
				"energy": -0.00818,
				"method": "rhf"
			},
			{
				"type": "unocc",
				"energy": -0.00561,
				"method": "rhf"
			},
			{
				"type": "unocc",
				"energy": 0.00921,
				"method": "rhf"
			}
		],
		"cosmo_sigma_profile": { 
			"-0.025": 0.0,
			"-0.024": 0.0,
			"-0.023": 0.0,
			"-0.022": 0.0,
			"-0.021": 0.0,
			"-0.02": 0.0,
			"-0.019": 0.0,
			"-0.018": 0.0,
			"-0.017": 0.605719317264,
			"-0.016": 0.831885152904,
			"-0.015": 0.959146604643,
			"-0.014": 0.711160847282,
			"-0.013": 0.91439456721,
			"-0.012": 0.669113636195,
			"-0.011": 0.333119689003,
			"-0.01": 0.467959250168,
			"-0.009": 0.482120594267,
			"-0.008": 1.79240789654,
			"-0.007": 4.94440368129,
			"-0.006": 10.6165462317,
			"-0.005": 27.0329020182,
			"-0.004": 29.0926697346,
			"-0.003": 27.6731020124,
			"-0.002": 28.608918495,
			"-0.001": 33.6323601437,
			"0.0": 35.1278666688,
			"0.001": 35.90220949,
			"0.002": 40.574049702,
			"0.003": 31.422134808,
			"0.004": 32.9734126276,
			"0.005": 16.6514338984,
			"0.006": 7.29181234116,
			"0.007": 4.11786158855,
			"0.008": 2.59068939644,
			"0.009": 3.73856848025,
			"0.01": 2.26676547454,
			"0.011": 1.38338026637,
			"0.012": 0.683854070963,
			"0.013": 0.646317576022,
			"0.014": 0.578190027675,
			"0.015": 0.0442088318763,
			"0.016": 0.0,
			"0.017": 0.0,
			"0.018": 0.0,
			"0.019": 0.0,
			"0.02": 0.0,
			"0.021": 0.0,
			"0.022": 0.0,
			"0.023": 0.0,
			"0.024": 0.0,
			"0.025": 0.0
		}
	}
}
