{
	 "smiles": "NC1=NC(CO)=NN1", 
	 "Tm": 467.15, 
	 "num_atms": 14, 
	 "gaussian": { 
		 "optdone": 1, 
		 "sigma_profile": "yes", 
		 "theory": "DFT", 
		 "functional": "B3LYP", 
		 "basiset": "6-31G**", 
		 "properties": { 
			 "R2extent": 1258.8502, 
			 "electric_dipole_moment_norm": 3.29500752351, 
			 "electric_quadrupole_moment_norm": 16.5254969716, 
			 "total_energy": -412.137331711, 
			 "HOMO_LUMO_gap": 0.24875, 
			 "cosmo_polarized_energy": -22.0, 
			 "cosmo_cavitation_energy": 18.56, 
			 "cosmo_dispersion_energy": -14.23, 
			 "cosmo_repulsion_energy": 1.24, 
			 "cosmo_total_nonelectrostatic_energy": 5.56, 
			 "SMD_solvation_energy": 0.53 
		},
		"coords": [
			{
				"x": -2.2748488265,
				"y": 2.5792246771,
				"z": -1.1183374013,
				"element": "N" 
			},
			{
				"x": -1.5153914178,
				"y": 1.4846453835,
				"z": -0.7465942791,
				"element": "C" 
			},
			{
				"x": -1.214083822,
				"y": 0.4497345183,
				"z": -1.5097957927,
				"element": "N" 
			},
			{
				"x": -0.3915014093,
				"y": -0.2946652906,
				"z": -0.7037979234,
				"element": "C" 
			},
			{
				"x": 0.223940276,
				"y": -1.586175078,
				"z": -1.1389949319,
				"element": "C" 
			},
			{
				"x": 1.2199837452,
				"y": -1.3155914005,
				"z": -2.1209703701,
				"element": "O" 
			},
			{
				"x": -0.1807507937,
				"y": 0.2019221581,
				"z": 0.5034616299,
				"element": "N" 
			},
			{
				"x": -0.9165201945,
				"y": 1.3577898867,
				"z": 0.4645461685,
				"element": "N" 
			},
			{
				"x": -2.72880723,
				"y": 2.4194571446,
				"z": -2.0086665365,
				"element": "H" 
			},
			{
				"x": -2.9259027371,
				"y": 2.9124374047,
				"z": -0.4185226585,
				"element": "H" 
			},
			{
				"x": -0.5683516354,
				"y": -2.2320247302,
				"z": -1.5464819082,
				"element": "H" 
			},
			{
				"x": 0.6457860568,
				"y": -2.0765068649,
				"z": -0.2502666327,
				"element": "H" 
			},
			{
				"x": 1.4935888937,
				"y": -2.1618287925,
				"z": -2.4961099285,
				"element": "H" 
			},
			{
				"x": -0.8878409052,
				"y": 2.0014809837,
				"z": 1.2396305643,
				"element": "H" 
			}
		],
		 "valence_orbital": [ 
			{
				"type": "occ",
				"energy": -0.31657,
				"method": "rhf"
			},
			{
				"type": "occ",
				"energy": -0.28202,
				"method": "rhf"
			},
			{
				"type": "occ",
				"energy": -0.26585,
				"method": "rhf"
			},
			{
				"type": "occ",
				"energy": -0.25688,
				"method": "rhf"
			},
			{
				"type": "occ",
				"energy": -0.22514,
				"method": "rhf"
			},
			{
				"type": "unocc",
				"energy": 0.02361,
				"method": "rhf"
			},
			{
				"type": "unocc",
				"energy": 0.05467,
				"method": "rhf"
			},
			{
				"type": "unocc",
				"energy": 0.06632,
				"method": "rhf"
			},
			{
				"type": "unocc",
				"energy": 0.09751,
				"method": "rhf"
			},
			{
				"type": "unocc",
				"energy": 0.1099,
				"method": "rhf"
			}
		],
		"cosmo_sigma_profile": { 
			"-0.025": 0.0,
			"-0.024": 0.0,
			"-0.023": 0.0,
			"-0.022": 0.0,
			"-0.021": 0.0,
			"-0.02": 0.0,
			"-0.019": 0.0,
			"-0.018": 0.0,
			"-0.017": 1.2570146088,
			"-0.016": 2.40777613418,
			"-0.015": 3.77939802107,
			"-0.014": 4.11120785241,
			"-0.013": 4.67983846933,
			"-0.012": 3.19582259708,
			"-0.011": 4.85418246233,
			"-0.01": 4.17144651788,
			"-0.009": 3.92562372487,
			"-0.008": 1.85169671763,
			"-0.007": 2.87505296706,
			"-0.006": 3.09129071942,
			"-0.005": 6.47654982572,
			"-0.004": 7.82609348619,
			"-0.003": 6.18593210371,
			"-0.002": 5.42760634975,
			"-0.001": 4.56851848937,
			"0.0": 4.94390172857,
			"0.001": 5.8493625335,
			"0.002": 5.38194424415,
			"0.003": 5.2869735921,
			"0.004": 5.23101312017,
			"0.005": 4.03340455514,
			"0.006": 4.61915809796,
			"0.007": 3.80049693366,
			"0.008": 4.55378919741,
			"0.009": 4.64117035495,
			"0.01": 4.29495952175,
			"0.011": 3.906333216,
			"0.012": 4.20516117187,
			"0.013": 5.17607528669,
			"0.014": 4.65346063271,
			"0.015": 2.85621323581,
			"0.016": 1.45246698393,
			"0.017": 0.525049757546,
			"0.018": 0.0147655572856,
			"0.019": 0.0,
			"0.02": 0.0,
			"0.021": 0.0,
			"0.022": 0.0,
			"0.023": 0.0,
			"0.024": 0.0,
			"0.025": 0.0
		}
	}
}
