{
	 "smiles": "CC1=NC2=C(N1)C=CC(=C2)[N+]([O-])=O", 
	 "Tm": 497.15, 
	 "num_atms": 20, 
	 "gaussian": { 
		 "optdone": 1, 
		 "sigma_profile": "yes", 
		 "theory": "DFT", 
		 "functional": "B3LYP", 
		 "basiset": "6-31G**", 
		 "properties": { 
			 "R2extent": 4300.4934, 
			 "electric_dipole_moment_norm": 8.24805934387, 
			 "electric_quadrupole_moment_norm": 26.7633873349, 
			 "total_energy": -623.694063393, 
			 "HOMO_LUMO_gap": 0.16977, 
			 "cosmo_polarized_energy": -18.07, 
			 "cosmo_cavitation_energy": 25.19, 
			 "cosmo_dispersion_energy": -18.9, 
			 "cosmo_repulsion_energy": 1.49, 
			 "cosmo_total_nonelectrostatic_energy": 7.78, 
			 "SMD_solvation_energy": 4.51 
		},
		"coords": [
			{
				"x": 1.6772594179,
				"y": 0.196896808,
				"z": 2.2336053438,
				"element": "C" 
			},
			{
				"x": 0.4964976646,
				"y": 0.5550812223,
				"z": 1.393849781,
				"element": "C" 
			},
			{
				"x": -0.5941171126,
				"y": -0.1593909239,
				"z": 1.2696656437,
				"element": "N" 
			},
			{
				"x": -1.4040856818,
				"y": 0.5573523467,
				"z": 0.4000230303,
				"element": "C" 
			},
			{
				"x": -0.7571077838,
				"y": 1.7534999259,
				"z": -0.0076253409,
				"element": "C" 
			},
			{
				"x": 0.4563044315,
				"y": 1.7229417877,
				"z": 0.645040145,
				"element": "N" 
			},
			{
				"x": -1.3455404001,
				"y": 2.6685902653,
				"z": -0.8852393971,
				"element": "C" 
			},
			{
				"x": -2.6150061281,
				"y": 2.362929653,
				"z": -1.3576287954,
				"element": "C" 
			},
			{
				"x": -3.25314143,
				"y": 1.1763355322,
				"z": -0.9512689521,
				"element": "C" 
			},
			{
				"x": -2.6790570866,
				"y": 0.2565853053,
				"z": -0.0782617341,
				"element": "C" 
			},
			{
				"x": -4.5950607137,
				"y": 0.89650914,
				"z": -1.4774618199,
				"element": "N" 
			},
			{
				"x": -5.1479216739,
				"y": -0.1434655646,
				"z": -1.117964293,
				"element": "O" 
			},
			{
				"x": -5.0930287363,
				"y": 1.7182874195,
				"z": -2.2494375857,
				"element": "O" 
			},
			{
				"x": 1.8679280166,
				"y": 0.9554066645,
				"z": 3.001414642,
				"element": "H" 
			},
			{
				"x": 1.4803364408,
				"y": -0.7561805344,
				"z": 2.7247113601,
				"element": "H" 
			},
			{
				"x": 2.5852604346,
				"y": 0.0993003297,
				"z": 1.6276075984,
				"element": "H" 
			},
			{
				"x": 1.1844198172,
				"y": 2.4187917681,
				"z": 0.5915412192,
				"element": "H" 
			},
			{
				"x": -0.8429638294,
				"y": 3.58047889,
				"z": -1.1911614151,
				"element": "H" 
			},
			{
				"x": -3.1354452506,
				"y": 3.021951882,
				"z": -2.0401521621,
				"element": "H" 
			},
			{
				"x": -3.2063303965,
				"y": -0.6440019175,
				"z": 0.2077427319,
				"element": "H" 
			}
		],
		 "valence_orbital": [ 
			{
				"type": "occ",
				"energy": -0.29673,
				"method": "rhf"
			},
			{
				"type": "occ",
				"energy": -0.28834,
				"method": "rhf"
			},
			{
				"type": "occ",
				"energy": -0.2787,
				"method": "rhf"
			},
			{
				"type": "occ",
				"energy": -0.25373,
				"method": "rhf"
			},
			{
				"type": "occ",
				"energy": -0.24513,
				"method": "rhf"
			},
			{
				"type": "unocc",
				"energy": -0.07536,
				"method": "rhf"
			},
			{
				"type": "unocc",
				"energy": -0.03335,
				"method": "rhf"
			},
			{
				"type": "unocc",
				"energy": 0.02139,
				"method": "rhf"
			},
			{
				"type": "unocc",
				"energy": 0.03898,
				"method": "rhf"
			},
			{
				"type": "unocc",
				"energy": 0.05623,
				"method": "rhf"
			}
		],
		"cosmo_sigma_profile": { 
			"-0.025": 0.0,
			"-0.024": 0.0,
			"-0.023": 0.0,
			"-0.022": 0.0,
			"-0.021": 0.0,
			"-0.02": 0.0,
			"-0.019": 0.0,
			"-0.018": 0.0,
			"-0.017": 1.1170609753,
			"-0.016": 1.75429948034,
			"-0.015": 1.67515356966,
			"-0.014": 1.21574995571,
			"-0.013": 1.29768868648,
			"-0.012": 1.25132228376,
			"-0.011": 1.31474198414,
			"-0.01": 1.31724959547,
			"-0.009": 1.40597561353,
			"-0.008": 3.98652711652,
			"-0.007": 5.56473228952,
			"-0.006": 11.3656429765,
			"-0.005": 11.0830793063,
			"-0.004": 11.7960458548,
			"-0.003": 12.1553854889,
			"-0.002": 12.9641318835,
			"-0.001": 14.6935082227,
			"0.0": 17.234118782,
			"0.001": 16.245004271,
			"0.002": 14.3799238392,
			"0.003": 7.7343875979,
			"0.004": 4.86448840174,
			"0.005": 5.23054843022,
			"0.006": 3.88564714543,
			"0.007": 6.52123040231,
			"0.008": 11.9433995263,
			"0.009": 5.63071518174,
			"0.01": 4.84838871984,
			"0.011": 2.40724117041,
			"0.012": 0.962727081075,
			"0.013": 0.976697444545,
			"0.014": 0.819550337343,
			"0.015": 1.19214034941,
			"0.016": 0.689422800555,
			"0.017": 0.569430356816,
			"0.018": 0.0,
			"0.019": 0.0,
			"0.02": 0.0,
			"0.021": 0.0,
			"0.022": 0.0,
			"0.023": 0.0,
			"0.024": 0.0,
			"0.025": 0.0
		}
	}
}
