{
	 "smiles": "NC1=NN2C=C(Br)C=CC2=N1", 
	 "Tm": 457.15, 
	 "num_atms": 16, 
	 "gaussian": { 
		 "optdone": 1, 
		 "sigma_profile": "yes", 
		 "theory": "DFT", 
		 "functional": "B3LYP", 
		 "basiset": "6-31G**", 
		 "properties": { 
			 "R2extent": 5757.207, 
			 "electric_dipole_moment_norm": 1.08569578612, 
			 "electric_quadrupole_moment_norm": 8.20907893615, 
			 "total_energy": -3022.05014732, 
			 "HOMO_LUMO_gap": 0.17441, 
			 "cosmo_polarized_energy": -11.37, 
			 "cosmo_cavitation_energy": 23.14, 
			 "cosmo_dispersion_energy": -18.09, 
			 "cosmo_repulsion_energy": 1.45, 
			 "cosmo_total_nonelectrostatic_energy": 6.5, 
			 "SMD_solvation_energy": 0.06 
		},
		"coords": [
			{
				"x": -1.4747489437,
				"y": -2.3628860338,
				"z": -2.5387102975,
				"element": "N" 
			},
			{
				"x": -0.5919549558,
				"y": -2.1452725198,
				"z": -1.5146495946,
				"element": "C" 
			},
			{
				"x": 0.6658287998,
				"y": -2.6207813609,
				"z": -1.562169107,
				"element": "N" 
			},
			{
				"x": 1.1798556265,
				"y": -2.1321010625,
				"z": -0.4026673812,
				"element": "N" 
			},
			{
				"x": 2.4470378774,
				"y": -2.319110587,
				"z": 0.0497200634,
				"element": "C" 
			},
			{
				"x": 2.7879941121,
				"y": -1.7495353137,
				"z": 1.2533931184,
				"element": "C" 
			},
			{
				"x": 4.55494034,
				"y": -1.9904638029,
				"z": 1.9192093354,
				"element": "Br" 
			},
			{
				"x": 1.8493201484,
				"y": -0.9930476968,
				"z": 1.9951925457,
				"element": "C" 
			},
			{
				"x": 0.5686701768,
				"y": -0.8173128565,
				"z": 1.513559446,
				"element": "C" 
			},
			{
				"x": 0.2088552365,
				"y": -1.3981106167,
				"z": 0.2805010434,
				"element": "C" 
			},
			{
				"x": -0.9232289653,
				"y": -1.4066492671,
				"z": -0.4267527428,
				"element": "N" 
			},
			{
				"x": -1.2658295521,
				"y": -3.1475189643,
				"z": -3.1376606249,
				"element": "H" 
			},
			{
				"x": -2.4459620943,
				"y": -2.2535027293,
				"z": -2.2886078733,
				"element": "H" 
			},
			{
				"x": 3.1069097883,
				"y": -2.9071143196,
				"z": -0.5727046014,
				"element": "H" 
			},
			{
				"x": 2.1477665328,
				"y": -0.5553223877,
				"z": 2.9404082572,
				"element": "H" 
			},
			{
				"x": -0.1719541274,
				"y": -0.2430704815,
				"z": 2.0569384134,
				"element": "H" 
			}
		],
		 "valence_orbital": [ 
			{
				"type": "occ",
				"energy": -0.29988,
				"method": "rhf"
			},
			{
				"type": "occ",
				"energy": -0.28607,
				"method": "rhf"
			},
			{
				"type": "occ",
				"energy": -0.28071,
				"method": "rhf"
			},
			{
				"type": "occ",
				"energy": -0.2372,
				"method": "rhf"
			},
			{
				"type": "occ",
				"energy": -0.22016,
				"method": "rhf"
			},
			{
				"type": "unocc",
				"energy": -0.04575,
				"method": "rhf"
			},
			{
				"type": "unocc",
				"energy": -0.0123,
				"method": "rhf"
			},
			{
				"type": "unocc",
				"energy": -0.00629,
				"method": "rhf"
			},
			{
				"type": "unocc",
				"energy": 0.06718,
				"method": "rhf"
			},
			{
				"type": "unocc",
				"energy": 0.09041,
				"method": "rhf"
			}
		],
		"cosmo_sigma_profile": { 
			"-0.025": 0.0,
			"-0.024": 0.0,
			"-0.023": 0.0,
			"-0.022": 0.0,
			"-0.021": 0.0,
			"-0.02": 0.0,
			"-0.019": 0.0,
			"-0.018": 0.0,
			"-0.017": 0.0,
			"-0.016": 0.0,
			"-0.015": 0.0,
			"-0.014": 0.874247612892,
			"-0.013": 2.72698934773,
			"-0.012": 1.21812307526,
			"-0.011": 3.02264895653,
			"-0.01": 3.60480312655,
			"-0.009": 3.45701512927,
			"-0.008": 6.17763922196,
			"-0.007": 7.02090893395,
			"-0.006": 5.96706217615,
			"-0.005": 7.2442524324,
			"-0.004": 8.07119678924,
			"-0.003": 9.05729086878,
			"-0.002": 12.5119119788,
			"-0.001": 14.4149461846,
			"0.0": 16.2979414634,
			"0.001": 17.9342535565,
			"0.002": 13.3449773474,
			"0.003": 12.9189858053,
			"0.004": 12.0444588425,
			"0.005": 3.81431063455,
			"0.006": 4.60621690548,
			"0.007": 2.45600534615,
			"0.008": 3.54488671218,
			"0.009": 3.42078934858,
			"0.01": 2.32434138025,
			"0.011": 2.69777841916,
			"0.012": 2.63333631238,
			"0.013": 1.9586641537,
			"0.014": 1.8077773704,
			"0.015": 1.33320699622,
			"0.016": 0.9131314478,
			"0.017": 0.136596995116,
			"0.018": 0.0,
			"0.019": 0.0,
			"0.02": 0.0,
			"0.021": 0.0,
			"0.022": 0.0,
			"0.023": 0.0,
			"0.024": 0.0,
			"0.025": 0.0
		}
	}
}
