{
	 "smiles": "CON(C)C(=O)NC1=CC=C(Br)C=C1", 
	 "Tm": 368.15, 
	 "num_atms": 25, 
	 "gaussian": { 
		 "optdone": 1, 
		 "sigma_profile": "yes", 
		 "theory": "DFT", 
		 "functional": "B3LYP", 
		 "basiset": "6-31G**", 
		 "properties": { 
			 "R2extent": 5589.5823, 
			 "electric_dipole_moment_norm": 1.64173753688, 
			 "electric_quadrupole_moment_norm": 14.5787868298, 
			 "total_energy": -3180.88996158, 
			 "HOMO_LUMO_gap": 0.20458, 
			 "cosmo_polarized_energy": -11.93, 
			 "cosmo_cavitation_energy": 31.04, 
			 "cosmo_dispersion_energy": -22.32, 
			 "cosmo_repulsion_energy": 1.77, 
			 "cosmo_total_nonelectrostatic_energy": 10.5, 
			 "SMD_solvation_energy": 5.91 
		},
		"coords": [
			{
				"x": 1.1049746162,
				"y": 0.9793280983,
				"z": -1.6760746901,
				"element": "C" 
			},
			{
				"x": -0.3080512369,
				"y": 0.7939244067,
				"z": -1.6643867621,
				"element": "O" 
			},
			{
				"x": -0.9641030867,
				"y": 1.9316279582,
				"z": -1.1013594957,
				"element": "N" 
			},
			{
				"x": -1.2411352664,
				"y": 2.9296504864,
				"z": -2.1356106494,
				"element": "C" 
			},
			{
				"x": -2.087609471,
				"y": 1.5558986207,
				"z": -0.3400662152,
				"element": "C" 
			},
			{
				"x": -3.1124334953,
				"y": 2.2242614658,
				"z": -0.3449991164,
				"element": "O" 
			},
			{
				"x": -1.9892993099,
				"y": 0.4024982864,
				"z": 0.4176987624,
				"element": "N" 
			},
			{
				"x": -0.8571587052,
				"y": -0.2138336255,
				"z": 1.0064234695,
				"element": "C" 
			},
			{
				"x": -0.8439335599,
				"y": -1.6075412696,
				"z": 1.140707969,
				"element": "C" 
			},
			{
				"x": 0.2090712542,
				"y": -2.2500985786,
				"z": 1.789479148,
				"element": "C" 
			},
			{
				"x": 1.2639612396,
				"y": -1.4923465835,
				"z": 2.294794861,
				"element": "C" 
			},
			{
				"x": 2.7193901284,
				"y": -2.3663446578,
				"z": 3.172980585,
				"element": "Br" 
			},
			{
				"x": 1.2683652546,
				"y": -0.1036542601,
				"z": 2.1717140165,
				"element": "C" 
			},
			{
				"x": 0.2012446233,
				"y": 0.5336127334,
				"z": 1.5403061381,
				"element": "C" 
			},
			{
				"x": 1.4997838159,
				"y": 1.1438853148,
				"z": -0.6697771073,
				"element": "H" 
			},
			{
				"x": 1.5066651106,
				"y": 0.0479280778,
				"z": -2.0819203177,
				"element": "H" 
			},
			{
				"x": 1.40248461,
				"y": 1.8091352132,
				"z": -2.3296291553,
				"element": "H" 
			},
			{
				"x": -0.2931006266,
				"y": 3.2611916903,
				"z": -2.5636204346,
				"element": "H" 
			},
			{
				"x": -1.8838500255,
				"y": 2.5267834657,
				"z": -2.9266113871,
				"element": "H" 
			},
			{
				"x": -1.7397328057,
				"y": 3.777074735,
				"z": -1.6677962269,
				"element": "H" 
			},
			{
				"x": -2.8848537718,
				"y": 0.1830434622,
				"z": 0.834026067,
				"element": "H" 
			},
			{
				"x": -1.6608436704,
				"y": -2.189845441,
				"z": 0.7252703595,
				"element": "H" 
			},
			{
				"x": 0.2137235873,
				"y": -3.3293251215,
				"z": 1.891066006,
				"element": "H" 
			},
			{
				"x": 2.0860939058,
				"y": 0.4772885206,
				"z": 2.5832317222,
				"element": "H" 
			},
			{
				"x": 0.1852468854,
				"y": 1.615457002,
				"z": 1.4635524534,
				"element": "H" 
			}
		],
		 "valence_orbital": [ 
			{
				"type": "occ",
				"energy": -0.28405,
				"method": "rhf"
			},
			{
				"type": "occ",
				"energy": -0.27137,
				"method": "rhf"
			},
			{
				"type": "occ",
				"energy": -0.2631,
				"method": "rhf"
			},
			{
				"type": "occ",
				"energy": -0.2455,
				"method": "rhf"
			},
			{
				"type": "occ",
				"energy": -0.22866,
				"method": "rhf"
			},
			{
				"type": "unocc",
				"energy": -0.02408,
				"method": "rhf"
			},
			{
				"type": "unocc",
				"energy": -0.02156,
				"method": "rhf"
			},
			{
				"type": "unocc",
				"energy": 0.00374,
				"method": "rhf"
			},
			{
				"type": "unocc",
				"energy": 0.02659,
				"method": "rhf"
			},
			{
				"type": "unocc",
				"energy": 0.092,
				"method": "rhf"
			}
		],
		"cosmo_sigma_profile": { 
			"-0.025": 0.0,
			"-0.024": 0.0,
			"-0.023": 0.0,
			"-0.022": 0.0,
			"-0.021": 0.0,
			"-0.02": 0.0,
			"-0.019": 0.0,
			"-0.018": 0.0,
			"-0.017": 0.0,
			"-0.016": 0.0,
			"-0.015": 0.177765432741,
			"-0.014": 1.24562350439,
			"-0.013": 0.671171140559,
			"-0.012": 1.2357349945,
			"-0.011": 0.718599956336,
			"-0.01": 0.883229708957,
			"-0.009": 0.92880668289,
			"-0.008": 1.49337475153,
			"-0.007": 7.65518278666,
			"-0.006": 12.7766825465,
			"-0.005": 16.6314935964,
			"-0.004": 19.9229189982,
			"-0.003": 22.3763722029,
			"-0.002": 21.1059648382,
			"-0.001": 16.7328393351,
			"0.0": 15.0002335075,
			"0.001": 16.0112243687,
			"0.002": 18.3470058865,
			"0.003": 22.442286113,
			"0.004": 16.4547167712,
			"0.005": 11.3932678514,
			"0.006": 3.36560348071,
			"0.007": 2.93554044055,
			"0.008": 2.1457288257,
			"0.009": 2.76261479744,
			"0.01": 3.32904245566,
			"0.011": 1.87494039296,
			"0.012": 2.52517004961,
			"0.013": 5.63732475046,
			"0.014": 1.10929629263,
			"0.015": 0.0,
			"0.016": 0.0,
			"0.017": 0.0,
			"0.018": 0.0,
			"0.019": 0.0,
			"0.02": 0.0,
			"0.021": 0.0,
			"0.022": 0.0,
			"0.023": 0.0,
			"0.024": 0.0,
			"0.025": 0.0
		}
	}
}
