{
	 "smiles": "NNC(=O)CC1=CSC=C1", 
	 "Tm": 358.65, 
	 "num_atms": 18, 
	 "gaussian": { 
		 "optdone": 1, 
		 "sigma_profile": "yes", 
		 "theory": "DFT", 
		 "functional": "B3LYP", 
		 "basiset": "6-31G**", 
		 "properties": { 
			 "R2extent": 1992.182, 
			 "electric_dipole_moment_norm": 3.527682232, 
			 "electric_quadrupole_moment_norm": 7.23530859259, 
			 "total_energy": -816.33443817, 
			 "HOMO_LUMO_gap": 0.21357, 
			 "cosmo_polarized_energy": -14.0, 
			 "cosmo_cavitation_energy": 23.66, 
			 "cosmo_dispersion_energy": -17.52, 
			 "cosmo_repulsion_energy": 1.39, 
			 "cosmo_total_nonelectrostatic_energy": 7.53, 
			 "SMD_solvation_energy": 5.2 
		},
		"coords": [
			{
				"x": 0.1227854481,
				"y": -0.3554344038,
				"z": 2.6130873223,
				"element": "N" 
			},
			{
				"x": -0.9845222101,
				"y": -1.1714234432,
				"z": 2.3321161779,
				"element": "N" 
			},
			{
				"x": -1.7609534123,
				"y": -1.1491274874,
				"z": 1.1990178721,
				"element": "C" 
			},
			{
				"x": -2.5626298136,
				"y": -2.0432751889,
				"z": 0.9642763172,
				"element": "O" 
			},
			{
				"x": -1.5511354893,
				"y": 0.0316247902,
				"z": 0.2505236362,
				"element": "C" 
			},
			{
				"x": -0.3561252488,
				"y": -0.1860593699,
				"z": -0.6582119557,
				"element": "C" 
			},
			{
				"x": -0.1025964265,
				"y": -1.3618026688,
				"z": -1.3201680481,
				"element": "C" 
			},
			{
				"x": 1.3291164222,
				"y": -1.2662881027,
				"z": -2.2885210189,
				"element": "S" 
			},
			{
				"x": 1.6071082789,
				"y": 0.3733030275,
				"z": -1.802378193,
				"element": "C" 
			},
			{
				"x": 0.6383353434,
				"y": 0.8089535428,
				"z": -0.9407396294,
				"element": "C" 
			},
			{
				"x": -0.1852776183,
				"y": 0.5809674379,
				"z": 2.8614179739,
				"element": "H" 
			},
			{
				"x": 0.7379323148,
				"y": -0.2989825179,
				"z": 1.8045279582,
				"element": "H" 
			},
			{
				"x": -1.0504365199,
				"y": -2.0160214681,
				"z": 2.8861256034,
				"element": "H" 
			},
			{
				"x": -1.4236133359,
				"y": 0.9650459829,
				"z": 0.8079726612,
				"element": "H" 
			},
			{
				"x": -2.4715219289,
				"y": 0.1140289131,
				"z": -0.334108516,
				"element": "H" 
			},
			{
				"x": -0.6873470307,
				"y": -2.271042047,
				"z": -1.2878876941,
				"element": "H" 
			},
			{
				"x": 2.462213072,
				"y": 0.9161894259,
				"z": -2.1801054962,
				"element": "H" 
			},
			{
				"x": 0.617968155,
				"y": 1.8106435773,
				"z": -0.523944971,
				"element": "H" 
			}
		],
		 "valence_orbital": [ 
			{
				"type": "occ",
				"energy": -0.29115,
				"method": "rhf"
			},
			{
				"type": "occ",
				"energy": -0.25991,
				"method": "rhf"
			},
			{
				"type": "occ",
				"energy": -0.25718,
				"method": "rhf"
			},
			{
				"type": "occ",
				"energy": -0.24678,
				"method": "rhf"
			},
			{
				"type": "occ",
				"energy": -0.23498,
				"method": "rhf"
			},
			{
				"type": "unocc",
				"energy": -0.02141,
				"method": "rhf"
			},
			{
				"type": "unocc",
				"energy": 0.01994,
				"method": "rhf"
			},
			{
				"type": "unocc",
				"energy": 0.02581,
				"method": "rhf"
			},
			{
				"type": "unocc",
				"energy": 0.05401,
				"method": "rhf"
			},
			{
				"type": "unocc",
				"energy": 0.07104,
				"method": "rhf"
			}
		],
		"cosmo_sigma_profile": { 
			"-0.025": 0.0,
			"-0.024": 0.0,
			"-0.023": 0.0,
			"-0.022": 0.0,
			"-0.021": 0.0,
			"-0.02": 0.0,
			"-0.019": 0.0,
			"-0.018": 0.0,
			"-0.017": 0.0,
			"-0.016": 0.0,
			"-0.015": 0.0,
			"-0.014": 0.0861471724519,
			"-0.013": 0.967555395429,
			"-0.012": 1.68712885183,
			"-0.011": 2.64330531853,
			"-0.01": 2.86277086612,
			"-0.009": 3.41561044546,
			"-0.008": 6.40301799237,
			"-0.007": 9.85075939501,
			"-0.006": 10.4585298704,
			"-0.005": 11.6441824063,
			"-0.004": 9.2439741616,
			"-0.003": 12.595195361,
			"-0.002": 10.9908118485,
			"-0.001": 9.41253182017,
			"0.0": 10.9218145036,
			"0.001": 11.2033308451,
			"0.002": 12.8676051256,
			"0.003": 12.8185001764,
			"0.004": 15.5344609566,
			"0.005": 8.02049932811,
			"0.006": 2.60889570799,
			"0.007": 1.75917579674,
			"0.008": 1.91168803569,
			"0.009": 1.74521691482,
			"0.01": 1.8584309227,
			"0.011": 1.98962021951,
			"0.012": 2.86965586501,
			"0.013": 3.90671143085,
			"0.014": 5.32968378372,
			"0.015": 1.65989405216,
			"0.016": 0.337782795291,
			"0.017": 0.0234385690246,
			"0.018": 0.0,
			"0.019": 0.0,
			"0.02": 0.0,
			"0.021": 0.0,
			"0.022": 0.0,
			"0.023": 0.0,
			"0.024": 0.0,
			"0.025": 0.0
		}
	}
}
