{
	 "smiles": "COC1=C(F)C=CC(=C1)C(C)=O", 
	 "Tm": 326.15, 
	 "num_atms": 21, 
	 "gaussian": { 
		 "optdone": 1, 
		 "sigma_profile": "yes", 
		 "theory": "DFT", 
		 "functional": "B3LYP", 
		 "basiset": "6-31G**", 
		 "properties": { 
			 "R2extent": 2640.5012, 
			 "electric_dipole_moment_norm": 3.17877176752, 
			 "electric_quadrupole_moment_norm": 5.67315167522, 
			 "total_energy": -598.648185708, 
			 "HOMO_LUMO_gap": 0.17641, 
			 "cosmo_polarized_energy": -8.39, 
			 "cosmo_cavitation_energy": 25.52, 
			 "cosmo_dispersion_energy": -18.63, 
			 "cosmo_repulsion_energy": 1.46, 
			 "cosmo_total_nonelectrostatic_energy": 8.34, 
			 "SMD_solvation_energy": 6.34 
		},
		"coords": [
			{
				"x": 2.5740636248,
				"y": 1.0630989511,
				"z": 2.6084218173,
				"element": "C" 
			},
			{
				"x": 1.4550486653,
				"y": 1.0477003421,
				"z": 1.7200663612,
				"element": "O" 
			},
			{
				"x": 1.0663126847,
				"y": -0.090304364,
				"z": 1.0847702914,
				"element": "C" 
			},
			{
				"x": 1.6515430561,
				"y": -1.3626052629,
				"z": 1.1802964068,
				"element": "C" 
			},
			{
				"x": 2.7309468922,
				"y": -1.5677810553,
				"z": 1.9737240625,
				"element": "F" 
			},
			{
				"x": 1.1536223277,
				"y": -2.453550145,
				"z": 0.4723483583,
				"element": "C" 
			},
			{
				"x": 0.050788969,
				"y": -2.3020084733,
				"z": -0.3555404443,
				"element": "C" 
			},
			{
				"x": -0.5603840073,
				"y": -1.0434995577,
				"z": -0.47583195,
				"element": "C" 
			},
			{
				"x": -0.0466974319,
				"y": 0.0403989969,
				"z": 0.2427668875,
				"element": "C" 
			},
			{
				"x": -1.7498708326,
				"y": -0.916904471,
				"z": -1.3797684307,
				"element": "C" 
			},
			{
				"x": -2.4240299237,
				"y": 0.4372256405,
				"z": -1.523252308,
				"element": "C" 
			},
			{
				"x": -2.1695407349,
				"y": -1.8881516125,
				"z": -1.9909771713,
				"element": "O" 
			},
			{
				"x": 2.6422365193,
				"y": 2.0943018894,
				"z": 2.9585054693,
				"element": "H" 
			},
			{
				"x": 3.5008869647,
				"y": 0.788641683,
				"z": 2.0967126004,
				"element": "H" 
			},
			{
				"x": 2.4223879092,
				"y": 0.3964887164,
				"z": 3.4621506766,
				"element": "H" 
			},
			{
				"x": 1.6539800242,
				"y": -3.4089223907,
				"z": 0.5923285075,
				"element": "H" 
			},
			{
				"x": -0.3554372314,
				"y": -3.1352831914,
				"z": -0.9167992761,
				"element": "H" 
			},
			{
				"x": -0.4897005286,
				"y": 1.0278254172,
				"z": 0.1773405618,
				"element": "H" 
			},
			{
				"x": -3.2616524166,
				"y": 0.3375183972,
				"z": -2.2139323488,
				"element": "H" 
			},
			{
				"x": -2.7907656585,
				"y": 0.7985551628,
				"z": -0.5561914956,
				"element": "H" 
			},
			{
				"x": -1.7232388716,
				"y": 1.186855327,
				"z": -1.9069385761,
				"element": "H" 
			}
		],
		 "valence_orbital": [ 
			{
				"type": "occ",
				"energy": -0.33441,
				"method": "rhf"
			},
			{
				"type": "occ",
				"energy": -0.32455,
				"method": "rhf"
			},
			{
				"type": "occ",
				"energy": -0.26009,
				"method": "rhf"
			},
			{
				"type": "occ",
				"energy": -0.24794,
				"method": "rhf"
			},
			{
				"type": "occ",
				"energy": -0.22911,
				"method": "rhf"
			},
			{
				"type": "unocc",
				"energy": -0.0527,
				"method": "rhf"
			},
			{
				"type": "unocc",
				"energy": -0.0093,
				"method": "rhf"
			},
			{
				"type": "unocc",
				"energy": 0.04559,
				"method": "rhf"
			},
			{
				"type": "unocc",
				"energy": 0.07042,
				"method": "rhf"
			},
			{
				"type": "unocc",
				"energy": 0.10494,
				"method": "rhf"
			}
		],
		"cosmo_sigma_profile": { 
			"-0.025": 0.0,
			"-0.024": 0.0,
			"-0.023": 0.0,
			"-0.022": 0.0,
			"-0.021": 0.0,
			"-0.02": 0.0,
			"-0.019": 0.0,
			"-0.018": 0.0,
			"-0.017": 0.0,
			"-0.016": 0.0,
			"-0.015": 0.0,
			"-0.014": 0.0,
			"-0.013": 0.0,
			"-0.012": 0.0,
			"-0.011": 0.0,
			"-0.01": 0.0,
			"-0.009": 0.0,
			"-0.008": 0.578805097258,
			"-0.007": 4.16376783401,
			"-0.006": 12.3436402461,
			"-0.005": 18.2499353666,
			"-0.004": 17.4665812424,
			"-0.003": 19.2161082972,
			"-0.002": 15.2455269778,
			"-0.001": 16.2945505608,
			"0.0": 15.0183717758,
			"0.001": 14.1808565944,
			"0.002": 18.0981884563,
			"0.003": 16.0667849524,
			"0.004": 9.89008286595,
			"0.005": 3.64219399384,
			"0.006": 2.83245317728,
			"0.007": 2.91203808605,
			"0.008": 2.67878714538,
			"0.009": 3.30316479073,
			"0.01": 2.8063390883,
			"0.011": 2.83735615316,
			"0.012": 3.96646566517,
			"0.013": 1.50499087784,
			"0.014": 0.120235545283,
			"0.015": 0.0,
			"0.016": 0.0,
			"0.017": 0.0,
			"0.018": 0.0,
			"0.019": 0.0,
			"0.02": 0.0,
			"0.021": 0.0,
			"0.022": 0.0,
			"0.023": 0.0,
			"0.024": 0.0,
			"0.025": 0.0
		}
	}
}
