{
	 "smiles": "BrC1=CC=C(C=C)C=C1", 
	 "Tm": 279.5, 
	 "num_atms": 16, 
	 "gaussian": { 
		 "optdone": 1, 
		 "sigma_profile": "yes", 
		 "theory": "DFT", 
		 "functional": "B3LYP", 
		 "basiset": "6-31G**", 
		 "properties": { 
			 "R2extent": 4523.5267, 
			 "electric_dipole_moment_norm": 1.723326333, 
			 "electric_quadrupole_moment_norm": 9.01699584285, 
			 "total_energy": -2880.45621147, 
			 "HOMO_LUMO_gap": 0.18241, 
			 "cosmo_polarized_energy": -4.41, 
			 "cosmo_cavitation_energy": 22.44, 
			 "cosmo_dispersion_energy": -16.86, 
			 "cosmo_repulsion_energy": 1.36, 
			 "cosmo_total_nonelectrostatic_energy": 6.95, 
			 "SMD_solvation_energy": 3.36 
		},
		"coords": [
			{
				"x": -4.8088592193,
				"y": 1.49063641,
				"z": -0.5270519641,
				"element": "Br" 
			},
			{
				"x": -2.9031748965,
				"y": 1.3714991707,
				"z": -0.454248621,
				"element": "C" 
			},
			{
				"x": -2.2973420534,
				"y": 0.120415627,
				"z": -0.3234965228,
				"element": "C" 
			},
			{
				"x": -0.9101177621,
				"y": 0.0360708125,
				"z": -0.2706580169,
				"element": "C" 
			},
			{
				"x": -0.103648584,
				"y": 1.1867659605,
				"z": -0.3463015301,
				"element": "C" 
			},
			{
				"x": 1.3664187967,
				"y": 1.1473151013,
				"z": -0.2945581994,
				"element": "C" 
			},
			{
				"x": 2.1489128089,
				"y": 0.068157792,
				"z": -0.1708742075,
				"element": "C" 
			},
			{
				"x": -0.7477497787,
				"y": 2.428620813,
				"z": -0.4776386985,
				"element": "C" 
			},
			{
				"x": -2.1367417772,
				"y": 2.5313432009,
				"z": -0.5321308332,
				"element": "C" 
			},
			{
				"x": -2.9061399833,
				"y": -0.7746897995,
				"z": -0.2640773798,
				"element": "H" 
			},
			{
				"x": -0.4518977221,
				"y": -0.9426388533,
				"z": -0.1690363219,
				"element": "H" 
			},
			{
				"x": 1.8465418338,
				"y": 2.1226511832,
				"z": -0.3672695271,
				"element": "H" 
			},
			{
				"x": 3.2291610083,
				"y": 0.1648941055,
				"z": -0.1442636327,
				"element": "H" 
			},
			{
				"x": 1.7550930216,
				"y": -0.9408912889,
				"z": -0.0919943954,
				"element": "H" 
			},
			{
				"x": -0.1491474801,
				"y": 3.3338625278,
				"z": -0.5384049858,
				"element": "H" 
			},
			{
				"x": -2.6162082127,
				"y": 3.4982872374,
				"z": -0.6335951638,
				"element": "H" 
			}
		],
		 "valence_orbital": [ 
			{
				"type": "occ",
				"energy": -0.33131,
				"method": "rhf"
			},
			{
				"type": "occ",
				"energy": -0.28706,
				"method": "rhf"
			},
			{
				"type": "occ",
				"energy": -0.28219,
				"method": "rhf"
			},
			{
				"type": "occ",
				"energy": -0.2649,
				"method": "rhf"
			},
			{
				"type": "occ",
				"energy": -0.22535,
				"method": "rhf"
			},
			{
				"type": "unocc",
				"energy": -0.04294,
				"method": "rhf"
			},
			{
				"type": "unocc",
				"energy": -0.01375,
				"method": "rhf"
			},
			{
				"type": "unocc",
				"energy": 0.0076,
				"method": "rhf"
			},
			{
				"type": "unocc",
				"energy": 0.04873,
				"method": "rhf"
			},
			{
				"type": "unocc",
				"energy": 0.10399,
				"method": "rhf"
			}
		],
		"cosmo_sigma_profile": { 
			"-0.025": 0.0,
			"-0.024": 0.0,
			"-0.023": 0.0,
			"-0.022": 0.0,
			"-0.021": 0.0,
			"-0.02": 0.0,
			"-0.019": 0.0,
			"-0.018": 0.0,
			"-0.017": 0.0,
			"-0.016": 0.0,
			"-0.015": 0.0,
			"-0.014": 0.0,
			"-0.013": 0.0,
			"-0.012": 0.0,
			"-0.011": 0.0,
			"-0.01": 0.0,
			"-0.009": 0.0,
			"-0.008": 0.291509720115,
			"-0.007": 5.60120017286,
			"-0.006": 12.3011158001,
			"-0.005": 13.1391749226,
			"-0.004": 10.4527384834,
			"-0.003": 12.4747932137,
			"-0.002": 10.852145933,
			"-0.001": 11.6764499183,
			"0.0": 12.530939793,
			"0.001": 13.785630932,
			"0.002": 19.013515993,
			"0.003": 23.0516889222,
			"0.004": 25.1714107038,
			"0.005": 10.4947342937,
			"0.006": 2.32732377784,
			"0.007": 0.359225337421,
			"0.008": 0.0,
			"0.009": 0.0,
			"0.01": 0.0,
			"0.011": 0.0,
			"0.012": 0.0,
			"0.013": 0.0,
			"0.014": 0.0,
			"0.015": 0.0,
			"0.016": 0.0,
			"0.017": 0.0,
			"0.018": 0.0,
			"0.019": 0.0,
			"0.02": 0.0,
			"0.021": 0.0,
			"0.022": 0.0,
			"0.023": 0.0,
			"0.024": 0.0,
			"0.025": 0.0
		}
	}
}
