{
	 "smiles": "OCC1=CC=CC(=C1)C1=CC=CC=C1", 
	 "Tm": 328.15, 
	 "num_atms": 26, 
	 "gaussian": { 
		 "optdone": 1, 
		 "sigma_profile": "yes", 
		 "theory": "DFT", 
		 "functional": "B3LYP", 
		 "basiset": "6-31G**", 
		 "properties": { 
			 "R2extent": 4114.0286, 
			 "electric_dipole_moment_norm": 1.6661517818, 
			 "electric_quadrupole_moment_norm": 11.7876629121, 
			 "total_energy": -577.835568342, 
			 "HOMO_LUMO_gap": 0.19677, 
			 "cosmo_polarized_energy": -9.75, 
			 "cosmo_cavitation_energy": 29.52, 
			 "cosmo_dispersion_energy": -21.76, 
			 "cosmo_repulsion_energy": 1.71, 
			 "cosmo_total_nonelectrostatic_energy": 9.47, 
			 "SMD_solvation_energy": 4.87 
		},
		"coords": [
			{
				"x": -2.2876035274,
				"y": 2.9525536494,
				"z": 1.0297859784,
				"element": "O" 
			},
			{
				"x": -0.9586979997,
				"y": 2.5706278636,
				"z": 1.3535299494,
				"element": "C" 
			},
			{
				"x": -0.4428514341,
				"y": 1.5850213576,
				"z": 0.3276424933,
				"element": "C" 
			},
			{
				"x": -1.0250178288,
				"y": 1.4910494379,
				"z": -0.9397420753,
				"element": "C" 
			},
			{
				"x": -0.5096128642,
				"y": 0.5918934004,
				"z": -1.8748628116,
				"element": "C" 
			},
			{
				"x": 0.5850708668,
				"y": -0.2098905347,
				"z": -1.5598240787,
				"element": "C" 
			},
			{
				"x": 1.1850517823,
				"y": -0.1319830053,
				"z": -0.2911854487,
				"element": "C" 
			},
			{
				"x": 0.6500289303,
				"y": 0.771059636,
				"z": 0.6402115211,
				"element": "C" 
			},
			{
				"x": 2.3482621573,
				"y": -0.9876505197,
				"z": 0.0589619717,
				"element": "C" 
			},
			{
				"x": 3.404320771,
				"y": -0.4887168284,
				"z": 0.840748551,
				"element": "C" 
			},
			{
				"x": 4.4952582836,
				"y": -1.2920153166,
				"z": 1.1702962022,
				"element": "C" 
			},
			{
				"x": 4.5564720826,
				"y": -2.6132235163,
				"z": 0.7232250368,
				"element": "C" 
			},
			{
				"x": 3.51581274,
				"y": -3.1230521371,
				"z": -0.0555578922,
				"element": "C" 
			},
			{
				"x": 2.4242534825,
				"y": -2.3197647899,
				"z": -0.3828409262,
				"element": "C" 
			},
			{
				"x": -2.5378934831,
				"y": 3.6807907658,
				"z": 1.6104374263,
				"element": "H" 
			},
			{
				"x": -0.2927101719,
				"y": 3.4505031503,
				"z": 1.3716241424,
				"element": "H" 
			},
			{
				"x": -0.9049044785,
				"y": 2.1127629747,
				"z": 2.3546674975,
				"element": "H" 
			},
			{
				"x": -1.8803518429,
				"y": 2.1133684753,
				"z": -1.1763591442,
				"element": "H" 
			},
			{
				"x": -0.9611208047,
				"y": 0.5223242547,
				"z": -2.8607814308,
				"element": "H" 
			},
			{
				"x": 0.9938396718,
				"y": -0.8856769026,
				"z": -2.305094133,
				"element": "H" 
			},
			{
				"x": 1.0793928041,
				"y": 0.8162731315,
				"z": 1.638524033,
				"element": "H" 
			},
			{
				"x": 3.3799106453,
				"y": 0.545882786,
				"z": 1.1703840218,
				"element": "H" 
			},
			{
				"x": 5.3035823124,
				"y": -0.8818927703,
				"z": 1.7694244822,
				"element": "H" 
			},
			{
				"x": 5.406611748,
				"y": -3.2390911471,
				"z": 0.9788563868,
				"element": "H" 
			},
			{
				"x": 3.5488531412,
				"y": -4.1523030946,
				"z": -0.4020270081,
				"element": "H" 
			},
			{
				"x": 1.6075430163,
				"y": -2.7344503204,
				"z": -0.9663447452,
				"element": "H" 
			}
		],
		 "valence_orbital": [ 
			{
				"type": "occ",
				"energy": -0.27817,
				"method": "rhf"
			},
			{
				"type": "occ",
				"energy": -0.2671,
				"method": "rhf"
			},
			{
				"type": "occ",
				"energy": -0.24765,
				"method": "rhf"
			},
			{
				"type": "occ",
				"energy": -0.23755,
				"method": "rhf"
			},
			{
				"type": "occ",
				"energy": -0.21932,
				"method": "rhf"
			},
			{
				"type": "unocc",
				"energy": -0.02255,
				"method": "rhf"
			},
			{
				"type": "unocc",
				"energy": -0.00102,
				"method": "rhf"
			},
			{
				"type": "unocc",
				"energy": 0.00262,
				"method": "rhf"
			},
			{
				"type": "unocc",
				"energy": 0.03402,
				"method": "rhf"
			},
			{
				"type": "unocc",
				"energy": 0.07399,
				"method": "rhf"
			}
		],
		"cosmo_sigma_profile": { 
			"-0.025": 0.0,
			"-0.024": 0.0,
			"-0.023": 0.0,
			"-0.022": 0.0,
			"-0.021": 0.0,
			"-0.02": 0.0,
			"-0.019": 0.0,
			"-0.018": 0.0,
			"-0.017": 0.0,
			"-0.016": 0.74305459702,
			"-0.015": 1.27691834996,
			"-0.014": 0.679235183642,
			"-0.013": 1.07903038675,
			"-0.012": 0.911539114452,
			"-0.011": 1.0350218201,
			"-0.01": 0.660939680675,
			"-0.009": 0.398107703695,
			"-0.008": 1.05227164941,
			"-0.007": 1.36411241973,
			"-0.006": 5.55649119631,
			"-0.005": 21.5098552919,
			"-0.004": 26.3834832339,
			"-0.003": 22.4744025759,
			"-0.002": 16.4260291793,
			"-0.001": 13.5879468095,
			"0.0": 11.4635834535,
			"0.001": 12.5765818594,
			"0.002": 14.7675321961,
			"0.003": 17.2155324588,
			"0.004": 17.9427955607,
			"0.005": 19.2956873712,
			"0.006": 15.405619473,
			"0.007": 2.58790338428,
			"0.008": 1.39191035839,
			"0.009": 1.62772432688,
			"0.01": 1.78032816775,
			"0.011": 1.26195002222,
			"0.012": 1.29893653794,
			"0.013": 0.755912493455,
			"0.014": 0.566126394893,
			"0.015": 0.0203475323092,
			"0.016": 0.0,
			"0.017": 0.0,
			"0.018": 0.0,
			"0.019": 0.0,
			"0.02": 0.0,
			"0.021": 0.0,
			"0.022": 0.0,
			"0.023": 0.0,
			"0.024": 0.0,
			"0.025": 0.0
		}
	}
}
