{
	 "smiles": "COC1=CC=C(SC)C=C1", 
	 "Tm": 295.65, 
	 "num_atms": 20, 
	 "gaussian": { 
		 "optdone": 1, 
		 "sigma_profile": "yes", 
		 "theory": "DFT", 
		 "functional": "B3LYP", 
		 "basiset": "6-31G**", 
		 "properties": { 
			 "R2extent": 3226.0146, 
			 "electric_dipole_moment_norm": 2.65576253833, 
			 "electric_quadrupole_moment_norm": 10.6655585376, 
			 "total_energy": -784.276375563, 
			 "HOMO_LUMO_gap": 0.21257, 
			 "cosmo_polarized_energy": -7.0, 
			 "cosmo_cavitation_energy": 25.19, 
			 "cosmo_dispersion_energy": -18.84, 
			 "cosmo_repulsion_energy": 1.49, 
			 "cosmo_total_nonelectrostatic_energy": 7.83, 
			 "SMD_solvation_energy": 5.21 
		},
		"coords": [
			{
				"x": -0.1256559082,
				"y": -0.1982912124,
				"z": -2.7333587752,
				"element": "C" 
			},
			{
				"x": 0.1104584066,
				"y": -0.5667256675,
				"z": -1.383312712,
				"element": "O" 
			},
			{
				"x": -0.2061429098,
				"y": 0.3269387444,
				"z": -0.4039566841,
				"element": "C" 
			},
			{
				"x": -0.7478633492,
				"y": 1.5981177484,
				"z": -0.6304843002,
				"element": "C" 
			},
			{
				"x": -1.0323058787,
				"y": 2.4302390111,
				"z": 0.4556557587,
				"element": "C" 
			},
			{
				"x": -0.7843726717,
				"y": 2.017190769,
				"z": 1.7678376965,
				"element": "C" 
			},
			{
				"x": -1.1912008388,
				"y": 3.0828542731,
				"z": 3.1519301529,
				"element": "S" 
			},
			{
				"x": 0.4204796963,
				"y": 3.9124396116,
				"z": 3.4394454532,
				"element": "C" 
			},
			{
				"x": -0.2503033468,
				"y": 0.7349671322,
				"z": 1.9810782695,
				"element": "C" 
			},
			{
				"x": 0.0405404881,
				"y": -0.0998387977,
				"z": 0.9106861554,
				"element": "C" 
			},
			{
				"x": 0.4582865557,
				"y": 0.6857419778,
				"z": -3.0201083507,
				"element": "H" 
			},
			{
				"x": 0.1922277379,
				"y": -1.0491714042,
				"z": -3.337714232,
				"element": "H" 
			},
			{
				"x": -1.1892047545,
				"y": -0.0011054655,
				"z": -2.9192335645,
				"element": "H" 
			},
			{
				"x": -0.9531683038,
				"y": 1.9479121737,
				"z": -1.6352831428,
				"element": "H" 
			},
			{
				"x": -1.4568929799,
				"y": 3.4135605626,
				"z": 0.278172697,
				"element": "H" 
			},
			{
				"x": 0.2762977486,
				"y": 4.5901896688,
				"z": 4.2845818836,
				"element": "H" 
			},
			{
				"x": 0.7246818528,
				"y": 4.4902486565,
				"z": 2.5639611785,
				"element": "H" 
			},
			{
				"x": 1.1955918071,
				"y": 3.1856627949,
				"z": 3.6922659755,
				"element": "H" 
			},
			{
				"x": -0.0690431944,
				"y": 0.3944328998,
				"z": 2.9959294552,
				"element": "H" 
			},
			{
				"x": 0.4530898425,
				"y": -1.0917634767,
				"z": 1.0640070856,
				"element": "H" 
			}
		],
		 "valence_orbital": [ 
			{
				"type": "occ",
				"energy": -0.32756,
				"method": "rhf"
			},
			{
				"type": "occ",
				"energy": -0.30425,
				"method": "rhf"
			},
			{
				"type": "occ",
				"energy": -0.25501,
				"method": "rhf"
			},
			{
				"type": "occ",
				"energy": -0.22313,
				"method": "rhf"
			},
			{
				"type": "occ",
				"energy": -0.21868,
				"method": "rhf"
			},
			{
				"type": "unocc",
				"energy": -0.00611,
				"method": "rhf"
			},
			{
				"type": "unocc",
				"energy": -0.00324,
				"method": "rhf"
			},
			{
				"type": "unocc",
				"energy": 0.05825,
				"method": "rhf"
			},
			{
				"type": "unocc",
				"energy": 0.07807,
				"method": "rhf"
			},
			{
				"type": "unocc",
				"energy": 0.10068,
				"method": "rhf"
			}
		],
		"cosmo_sigma_profile": { 
			"-0.025": 0.0,
			"-0.024": 0.0,
			"-0.023": 0.0,
			"-0.022": 0.0,
			"-0.021": 0.0,
			"-0.02": 0.0,
			"-0.019": 0.0,
			"-0.018": 0.0,
			"-0.017": 0.0,
			"-0.016": 0.0,
			"-0.015": 0.0,
			"-0.014": 0.0,
			"-0.013": 0.0,
			"-0.012": 0.0,
			"-0.011": 0.0,
			"-0.01": 0.0,
			"-0.009": 0.0,
			"-0.008": 0.0,
			"-0.007": 1.05321465346,
			"-0.006": 12.0491222813,
			"-0.005": 19.3627825361,
			"-0.004": 19.9841540548,
			"-0.003": 19.7667860668,
			"-0.002": 16.3087917474,
			"-0.001": 17.1136412869,
			"0.0": 10.750445128,
			"0.001": 9.87295204925,
			"0.002": 12.8160284273,
			"0.003": 14.9368054203,
			"0.004": 14.4365342392,
			"0.005": 13.1706015197,
			"0.006": 5.58919100814,
			"0.007": 3.67880571397,
			"0.008": 3.35316829631,
			"0.009": 3.6206375119,
			"0.01": 3.38199128133,
			"0.011": 0.641219486836,
			"0.012": 0.0,
			"0.013": 0.0,
			"0.014": 0.0,
			"0.015": 0.0,
			"0.016": 0.0,
			"0.017": 0.0,
			"0.018": 0.0,
			"0.019": 0.0,
			"0.02": 0.0,
			"0.021": 0.0,
			"0.022": 0.0,
			"0.023": 0.0,
			"0.024": 0.0,
			"0.025": 0.0
		}
	}
}
