{
	 "smiles": "CSC1=NC=C(C=C1)C(O)=O", 
	 "Tm": 456.15, 
	 "num_atms": 18, 
	 "gaussian": { 
		 "optdone": 1, 
		 "sigma_profile": "yes", 
		 "theory": "DFT", 
		 "functional": "B3LYP", 
		 "basiset": "6-31G**", 
		 "properties": { 
			 "R2extent": 3064.678, 
			 "electric_dipole_moment_norm": 3.98882012756, 
			 "electric_quadrupole_moment_norm": 15.883269523, 
			 "total_energy": -874.355945556, 
			 "HOMO_LUMO_gap": 0.17506, 
			 "cosmo_polarized_energy": -14.53, 
			 "cosmo_cavitation_energy": 24.36, 
			 "cosmo_dispersion_energy": -18.57, 
			 "cosmo_repulsion_energy": 1.44, 
			 "cosmo_total_nonelectrostatic_energy": 7.23, 
			 "SMD_solvation_energy": 4.58 
		},
		"coords": [
			{
				"x": 1.5359423058,
				"y": 0.641837483,
				"z": -2.6034914683,
				"element": "C" 
			},
			{
				"x": 2.7103323407,
				"y": -0.0060822875,
				"z": -1.3686461772,
				"element": "S" 
			},
			{
				"x": 1.6427690007,
				"y": -0.3129700147,
				"z": 0.0130746688,
				"element": "C" 
			},
			{
				"x": 0.3410819646,
				"y": -0.0335781508,
				"z": -0.0985160255,
				"element": "N" 
			},
			{
				"x": -0.4389693524,
				"y": -0.2608298935,
				"z": 0.9644604369,
				"element": "C" 
			},
			{
				"x": 0.0221166348,
				"y": -0.7653888291,
				"z": 2.1819827949,
				"element": "C" 
			},
			{
				"x": 1.3902980853,
				"y": -1.0825823223,
				"z": 2.2702316275,
				"element": "C" 
			},
			{
				"x": 2.2137908393,
				"y": -0.8515929778,
				"z": 1.1858835866,
				"element": "C" 
			},
			{
				"x": -0.8495252132,
				"y": -1.0362492227,
				"z": 3.3646735791,
				"element": "C" 
			},
			{
				"x": -2.0699803165,
				"y": -0.4368626526,
				"z": 3.3860453171,
				"element": "O" 
			},
			{
				"x": -0.5133501114,
				"y": -1.754489579,
				"z": 4.2772538194,
				"element": "O" 
			},
			{
				"x": 2.1315206881,
				"y": 0.8490083411,
				"z": -3.4948579801,
				"element": "H" 
			},
			{
				"x": 0.7681759198,
				"y": -0.0987071029,
				"z": -2.8278915457,
				"element": "H" 
			},
			{
				"x": 1.0664627886,
				"y": 1.5576399162,
				"z": -2.2441664922,
				"element": "H" 
			},
			{
				"x": -1.4970207459,
				"y": -0.0489939208,
				"z": 0.8056427539,
				"element": "H" 
			},
			{
				"x": 1.7696547747,
				"y": -1.504486118,
				"z": 3.1949954767,
				"element": "H" 
			},
			{
				"x": 3.2740643448,
				"y": -1.0790901631,
				"z": 1.2262745587,
				"element": "H" 
			},
			{
				"x": -2.1371639479,
				"y": 0.2270174945,
				"z": 2.6861510695,
				"element": "H" 
			}
		],
		 "valence_orbital": [ 
			{
				"type": "occ",
				"energy": -0.30952,
				"method": "rhf"
			},
			{
				"type": "occ",
				"energy": -0.30509,
				"method": "rhf"
			},
			{
				"type": "occ",
				"energy": -0.29034,
				"method": "rhf"
			},
			{
				"type": "occ",
				"energy": -0.27235,
				"method": "rhf"
			},
			{
				"type": "occ",
				"energy": -0.23545,
				"method": "rhf"
			},
			{
				"type": "unocc",
				"energy": -0.06039,
				"method": "rhf"
			},
			{
				"type": "unocc",
				"energy": -0.04374,
				"method": "rhf"
			},
			{
				"type": "unocc",
				"energy": 0.0204,
				"method": "rhf"
			},
			{
				"type": "unocc",
				"energy": 0.03706,
				"method": "rhf"
			},
			{
				"type": "unocc",
				"energy": 0.05642,
				"method": "rhf"
			}
		],
		"cosmo_sigma_profile": { 
			"-0.025": 0.0,
			"-0.024": 0.0,
			"-0.023": 0.0,
			"-0.022": 0.0,
			"-0.021": 0.0,
			"-0.02": 0.0091619423485,
			"-0.019": 0.836725423013,
			"-0.018": 1.15243766912,
			"-0.017": 0.922307455806,
			"-0.016": 0.881651667333,
			"-0.015": 0.88432335883,
			"-0.014": 0.467356032668,
			"-0.013": 1.47767486882,
			"-0.012": 1.76237416968,
			"-0.011": 0.866617220689,
			"-0.01": 1.23473333816,
			"-0.009": 1.70695353371,
			"-0.008": 3.47449664908,
			"-0.007": 7.83342134219,
			"-0.006": 9.19885719374,
			"-0.005": 9.0575948648,
			"-0.004": 11.5967302329,
			"-0.003": 12.482554965,
			"-0.002": 14.1548434694,
			"-0.001": 14.0633927292,
			"0.0": 15.9014986715,
			"0.001": 16.9080932672,
			"0.002": 8.60481655391,
			"0.003": 8.75068596969,
			"0.004": 7.19934958053,
			"0.005": 7.18828993386,
			"0.006": 5.96582680529,
			"0.007": 6.62221830692,
			"0.008": 4.59750555424,
			"0.009": 4.44709909446,
			"0.01": 5.26526139381,
			"0.011": 6.25626375634,
			"0.012": 3.97367879552,
			"0.013": 1.29006833821,
			"0.014": 0.0,
			"0.015": 0.0,
			"0.016": 0.0,
			"0.017": 0.0,
			"0.018": 0.0,
			"0.019": 0.0,
			"0.02": 0.0,
			"0.021": 0.0,
			"0.022": 0.0,
			"0.023": 0.0,
			"0.024": 0.0,
			"0.025": 0.0
		}
	}
}
