{
	 "smiles": "COC(=O)C1=C(C)NC(C(=O)CCl)=C1C", 
	 "Tm": 440.15, 
	 "num_atms": 27, 
	 "gaussian": { 
		 "optdone": 1, 
		 "sigma_profile": "yes", 
		 "theory": "DFT", 
		 "functional": "B3LYP", 
		 "basiset": "6-31G**", 
		 "properties": { 
			 "R2extent": 5105.3872, 
			 "electric_dipole_moment_norm": 2.04866823571, 
			 "electric_quadrupole_moment_norm": 20.2100507607, 
			 "total_energy": -1128.93598283, 
			 "HOMO_LUMO_gap": 0.16987, 
			 "cosmo_polarized_energy": -13.9, 
			 "cosmo_cavitation_energy": 32.55, 
			 "cosmo_dispersion_energy": -23.28, 
			 "cosmo_repulsion_energy": 1.84, 
			 "cosmo_total_nonelectrostatic_energy": 11.11, 
			 "SMD_solvation_energy": 7.17 
		},
		"coords": [
			{
				"x": 4.0710391859,
				"y": 0.1228507177,
				"z": -0.644108236,
				"element": "C" 
			},
			{
				"x": 2.7734435144,
				"y": -0.480254042,
				"z": -0.5330250096,
				"element": "O" 
			},
			{
				"x": 1.8333713329,
				"y": 0.2854116875,
				"z": 0.0733999504,
				"element": "C" 
			},
			{
				"x": 2.0714156285,
				"y": 1.4064211048,
				"z": 0.4939750805,
				"element": "O" 
			},
			{
				"x": 0.5283549498,
				"y": -0.3773394381,
				"z": 0.1648026934,
				"element": "C" 
			},
			{
				"x": -0.5750776247,
				"y": 0.246773549,
				"z": 0.7715144205,
				"element": "C" 
			},
			{
				"x": -0.7006460416,
				"y": 1.5786586933,
				"z": 1.4347389736,
				"element": "C" 
			},
			{
				"x": -1.6169960795,
				"y": -0.6053407525,
				"z": 0.6773866062,
				"element": "N" 
			},
			{
				"x": -1.2352527806,
				"y": -1.7940452093,
				"z": 0.0483321261,
				"element": "C" 
			},
			{
				"x": -2.1709696578,
				"y": -2.8705049286,
				"z": -0.2310700918,
				"element": "C" 
			},
			{
				"x": -1.8517004297,
				"y": -3.9339799406,
				"z": -0.7549037605,
				"element": "O" 
			},
			{
				"x": -3.6732746664,
				"y": -2.6652883238,
				"z": 0.0380999708,
				"element": "C" 
			},
			{
				"x": -4.09801268,
				"y": -2.2764922562,
				"z": 1.7708272374,
				"element": "Cl" 
			},
			{
				"x": 0.1178556162,
				"y": -1.6676796182,
				"z": -0.2879156426,
				"element": "C" 
			},
			{
				"x": 0.9497498858,
				"y": -2.6880364656,
				"z": -1.0045645873,
				"element": "C" 
			},
			{
				"x": 4.0207744168,
				"y": 1.0453350231,
				"z": -1.2281639762,
				"element": "H" 
			},
			{
				"x": 4.4753369718,
				"y": 0.3563716353,
				"z": 0.344123546,
				"element": "H" 
			},
			{
				"x": 4.6950931412,
				"y": -0.6154289117,
				"z": -1.1479282711,
				"element": "H" 
			},
			{
				"x": 0.015109926,
				"y": 1.6724562916,
				"z": 2.2556502922,
				"element": "H" 
			},
			{
				"x": -1.7126946828,
				"y": 1.7279287453,
				"z": 1.8232917677,
				"element": "H" 
			},
			{
				"x": -0.4658304102,
				"y": 2.3844218072,
				"z": 0.7338338656,
				"element": "H" 
			},
			{
				"x": -2.5070188106,
				"y": -0.4657215517,
				"z": 1.1356607375,
				"element": "H" 
			},
			{
				"x": -4.0764729715,
				"y": -1.848610805,
				"z": -0.5661532364,
				"element": "H" 
			},
			{
				"x": -4.1770774068,
				"y": -3.5978270696,
				"z": -0.2066129998,
				"element": "H" 
			},
			{
				"x": 1.7939921233,
				"y": -2.998841147,
				"z": -0.3806424659,
				"element": "H" 
			},
			{
				"x": 0.3494956457,
				"y": -3.5604990903,
				"z": -1.2553516862,
				"element": "H" 
			},
			{
				"x": 1.3828919038,
				"y": -2.2628397048,
				"z": -1.9149973045,
				"element": "H" 
			}
		],
		 "valence_orbital": [ 
			{
				"type": "occ",
				"energy": -0.29814,
				"method": "rhf"
			},
			{
				"type": "occ",
				"energy": -0.2711,
				"method": "rhf"
			},
			{
				"type": "occ",
				"energy": -0.25839,
				"method": "rhf"
			},
			{
				"type": "occ",
				"energy": -0.25607,
				"method": "rhf"
			},
			{
				"type": "occ",
				"energy": -0.22962,
				"method": "rhf"
			},
			{
				"type": "unocc",
				"energy": -0.05975,
				"method": "rhf"
			},
			{
				"type": "unocc",
				"energy": -0.01784,
				"method": "rhf"
			},
			{
				"type": "unocc",
				"energy": 0.00842,
				"method": "rhf"
			},
			{
				"type": "unocc",
				"energy": 0.06663,
				"method": "rhf"
			},
			{
				"type": "unocc",
				"energy": 0.08839,
				"method": "rhf"
			}
		],
		"cosmo_sigma_profile": { 
			"-0.025": 0.0,
			"-0.024": 0.0,
			"-0.023": 0.0,
			"-0.022": 0.0,
			"-0.021": 0.0,
			"-0.02": 0.0,
			"-0.019": 0.0,
			"-0.018": 0.0,
			"-0.017": 0.0,
			"-0.016": 0.0,
			"-0.015": 0.0,
			"-0.014": 0.00966249630621,
			"-0.013": 1.12981644736,
			"-0.012": 1.47103244157,
			"-0.011": 2.14147653345,
			"-0.01": 1.79845901058,
			"-0.009": 4.16507557563,
			"-0.008": 4.75681183433,
			"-0.007": 5.2453440956,
			"-0.006": 9.3500616531,
			"-0.005": 14.2736065199,
			"-0.004": 17.3102889872,
			"-0.003": 18.951803038,
			"-0.002": 21.0326090579,
			"-0.001": 24.3163136162,
			"0.0": 23.2213827314,
			"0.001": 22.2825326533,
			"0.002": 19.2248762015,
			"0.003": 14.4344467556,
			"0.004": 12.2226602718,
			"0.005": 11.5197827633,
			"0.006": 5.13426929122,
			"0.007": 2.92197459655,
			"0.008": 2.95403824668,
			"0.009": 3.61498417491,
			"0.01": 4.38019704421,
			"0.011": 4.50093465966,
			"0.012": 5.42347985997,
			"0.013": 2.38881022791,
			"0.014": 0.0,
			"0.015": 0.0,
			"0.016": 0.0,
			"0.017": 0.0,
			"0.018": 0.0,
			"0.019": 0.0,
			"0.02": 0.0,
			"0.021": 0.0,
			"0.022": 0.0,
			"0.023": 0.0,
			"0.024": 0.0,
			"0.025": 0.0
		}
	}
}
