{
	 "smiles": "CC(C)(C)OC(=O)NCC1=NN=C(S)N1C1CC1", 
	 "Tm": 467.15, 
	 "num_atms": 36, 
	 "gaussian": { 
		 "optdone": 1, 
		 "sigma_profile": "yes", 
		 "theory": "DFT", 
		 "functional": "B3LYP", 
		 "basiset": "6-31G**", 
		 "properties": { 
			 "R2extent": 6781.0858, 
			 "electric_dipole_moment_norm": 4.7702076286, 
			 "electric_quadrupole_moment_norm": 13.6384491021, 
			 "total_energy": -1197.63687169, 
			 "HOMO_LUMO_gap": 0.23701, 
			 "cosmo_polarized_energy": -19.72, 
			 "cosmo_cavitation_energy": 40.31, 
			 "cosmo_dispersion_energy": -27.16, 
			 "cosmo_repulsion_energy": 2.06, 
			 "cosmo_total_nonelectrostatic_energy": 15.22, 
			 "SMD_solvation_energy": 4.78 
		},
		"coords": [
			{
				"x": 2.5327869966,
				"y": 0.9864002851,
				"z": 2.857429694,
				"element": "C" 
			},
			{
				"x": 1.0288566547,
				"y": 0.7363635448,
				"z": 3.0093021019,
				"element": "C" 
			},
			{
				"x": 0.7578782206,
				"y": -0.7004714244,
				"z": 3.4622998731,
				"element": "C" 
			},
			{
				"x": 0.367736164,
				"y": 1.7388904117,
				"z": 3.9610638309,
				"element": "C" 
			},
			{
				"x": 0.3712825467,
				"y": 0.7863568145,
				"z": 1.6908565056,
				"element": "O" 
			},
			{
				"x": 0.3683402751,
				"y": 1.928481688,
				"z": 0.9623814062,
				"element": "C" 
			},
			{
				"x": 0.9176530074,
				"y": 2.9758661274,
				"z": 1.261515047,
				"element": "O" 
			},
			{
				"x": -0.3244335583,
				"y": 1.7664419339,
				"z": -0.212511968,
				"element": "N" 
			},
			{
				"x": -1.1952250866,
				"y": 0.6472996583,
				"z": -0.5616235778,
				"element": "C" 
			},
			{
				"x": -1.1072444138,
				"y": 0.3079080264,
				"z": -2.0164240351,
				"element": "C" 
			},
			{
				"x": -2.0897107915,
				"y": 0.462682208,
				"z": -2.8696134693,
				"element": "N" 
			},
			{
				"x": -1.6320628418,
				"y": 0.0938657725,
				"z": -4.1209499856,
				"element": "N" 
			},
			{
				"x": -0.3776676152,
				"y": -0.2638376514,
				"z": -3.9760771359,
				"element": "C" 
			},
			{
				"x": 0.6981602614,
				"y": -0.7783274834,
				"z": -5.2806108568,
				"element": "S" 
			},
			{
				"x": 0.0199564734,
				"y": -0.1720608731,
				"z": -2.6627826912,
				"element": "N" 
			},
			{
				"x": 1.3343753336,
				"y": -0.3865800312,
				"z": -2.1131176984,
				"element": "C" 
			},
			{
				"x": 2.0410563788,
				"y": -1.6973129744,
				"z": -2.3659362724,
				"element": "C" 
			},
			{
				"x": 1.5157086925,
				"y": -1.3784289741,
				"z": -0.9922583165,
				"element": "C" 
			},
			{
				"x": 2.968804254,
				"y": 0.2746097419,
				"z": 2.1485398021,
				"element": "H" 
			},
			{
				"x": 3.0275404683,
				"y": 0.8444870876,
				"z": 3.8237176686,
				"element": "H" 
			},
			{
				"x": 2.7257473826,
				"y": 1.9999942626,
				"z": 2.5061724103,
				"element": "H" 
			},
			{
				"x": 1.1940628939,
				"y": -1.4182460767,
				"z": 2.7610580799,
				"element": "H" 
			},
			{
				"x": -0.3175766546,
				"y": -0.8898724333,
				"z": 3.526555729,
				"element": "H" 
			},
			{
				"x": 1.198491105,
				"y": -0.8719428304,
				"z": 4.4487645328,
				"element": "H" 
			},
			{
				"x": -0.7105949847,
				"y": 1.5582730732,
				"z": 4.0139024509,
				"element": "H" 
			},
			{
				"x": 0.7816853868,
				"y": 1.616333138,
				"z": 4.9670929795,
				"element": "H" 
			},
			{
				"x": 0.5402024226,
				"y": 2.7633858079,
				"z": 3.6311072129,
				"element": "H" 
			},
			{
				"x": -0.4525735682,
				"y": 2.6342912563,
				"z": -0.714169206,
				"element": "H" 
			},
			{
				"x": -0.9089131417,
				"y": -0.1959708838,
				"z": 0.0671099095,
				"element": "H" 
			},
			{
				"x": -2.2494421334,
				"y": 0.8745409789,
				"z": -0.363451895,
				"element": "H" 
			},
			{
				"x": -0.255335675,
				"y": -0.5917208651,
				"z": -6.213326688,
				"element": "H" 
			},
			{
				"x": 1.9415634982,
				"y": 0.5140385717,
				"z": -2.0817316977,
				"element": "H" 
			},
			{
				"x": 3.1095271748,
				"y": -1.6546608567,
				"z": -2.5494270273,
				"element": "H" 
			},
			{
				"x": 1.5143906134,
				"y": -2.4532987437,
				"z": -2.9382108092,
				"element": "H" 
			},
			{
				"x": 0.640578951,
				"y": -1.9265798603,
				"z": -0.6598305691,
				"element": "H" 
			},
			{
				"x": 2.2093953092,
				"y": -1.1111984267,
				"z": -0.202715335,
				"element": "H" 
			}
		],
		 "valence_orbital": [ 
			{
				"type": "occ",
				"energy": -0.28795,
				"method": "rhf"
			},
			{
				"type": "occ",
				"energy": -0.26934,
				"method": "rhf"
			},
			{
				"type": "occ",
				"energy": -0.26152,
				"method": "rhf"
			},
			{
				"type": "occ",
				"energy": -0.25547,
				"method": "rhf"
			},
			{
				"type": "occ",
				"energy": -0.23144,
				"method": "rhf"
			},
			{
				"type": "unocc",
				"energy": 0.00557,
				"method": "rhf"
			},
			{
				"type": "unocc",
				"energy": 0.00986,
				"method": "rhf"
			},
			{
				"type": "unocc",
				"energy": 0.03842,
				"method": "rhf"
			},
			{
				"type": "unocc",
				"energy": 0.04825,
				"method": "rhf"
			},
			{
				"type": "unocc",
				"energy": 0.05878,
				"method": "rhf"
			}
		],
		"cosmo_sigma_profile": { 
			"-0.025": 0.0,
			"-0.024": 0.0,
			"-0.023": 0.0,
			"-0.022": 0.0,
			"-0.021": 0.0,
			"-0.02": 0.0,
			"-0.019": 0.0,
			"-0.018": 0.0,
			"-0.017": 0.0,
			"-0.016": 0.0,
			"-0.015": 0.0451919756844,
			"-0.014": 0.797694861587,
			"-0.013": 1.40043665454,
			"-0.012": 1.33334925905,
			"-0.011": 2.45998526136,
			"-0.01": 2.71602884402,
			"-0.009": 1.94606089094,
			"-0.008": 3.47952554192,
			"-0.007": 6.92470590292,
			"-0.006": 14.0740660045,
			"-0.005": 18.0083256169,
			"-0.004": 26.4945018761,
			"-0.003": 27.1859251934,
			"-0.002": 29.2444348562,
			"-0.001": 29.8880352184,
			"0.0": 35.3345296575,
			"0.001": 29.6618347596,
			"0.002": 16.3981341589,
			"0.003": 12.0097439663,
			"0.004": 9.54564658973,
			"0.005": 6.10447699083,
			"0.006": 5.19628596857,
			"0.007": 4.75509362768,
			"0.008": 3.1356409086,
			"0.009": 2.9054833373,
			"0.01": 2.63215106163,
			"0.011": 4.25637438791,
			"0.012": 4.25196475448,
			"0.013": 7.27280539421,
			"0.014": 4.4296733596,
			"0.015": 2.67234189621,
			"0.016": 1.94809509934,
			"0.017": 0.535456531155,
			"0.018": 0.0,
			"0.019": 0.0,
			"0.02": 0.0,
			"0.021": 0.0,
			"0.022": 0.0,
			"0.023": 0.0,
			"0.024": 0.0,
			"0.025": 0.0
		}
	}
}
