{
	 "smiles": "SC1=NN=C(NCC2CCCO2)S1", 
	 "Tm": 397.15, 
	 "num_atms": 24, 
	 "gaussian": { 
		 "optdone": 1, 
		 "sigma_profile": "yes", 
		 "theory": "DFT", 
		 "functional": "B3LYP", 
		 "basiset": "6-31G**", 
		 "properties": { 
			 "R2extent": 4701.9965, 
			 "electric_dipole_moment_norm": 3.98449762078, 
			 "electric_quadrupole_moment_norm": 23.6357203935, 
			 "total_energy": -1309.1743845, 
			 "HOMO_LUMO_gap": 0.19022, 
			 "cosmo_polarized_energy": -16.01, 
			 "cosmo_cavitation_energy": 30.39, 
			 "cosmo_dispersion_energy": -23.19, 
			 "cosmo_repulsion_energy": 1.78, 
			 "cosmo_total_nonelectrostatic_energy": 8.98, 
			 "SMD_solvation_energy": 1.33 
		},
		"coords": [
			{
				"x": -2.797970009,
				"y": 0.5147381512,
				"z": -4.3987523898,
				"element": "S" 
			},
			{
				"x": -2.5014742855,
				"y": 0.0001608536,
				"z": -2.7321051207,
				"element": "C" 
			},
			{
				"x": -3.4468374904,
				"y": -0.2129306691,
				"z": -1.8714514206,
				"element": "N" 
			},
			{
				"x": -3.006531653,
				"y": -0.4813623626,
				"z": -0.6103190704,
				"element": "N" 
			},
			{
				"x": -1.6930388573,
				"y": -0.4931371415,
				"z": -0.5179678993,
				"element": "C" 
			},
			{
				"x": -1.0526984923,
				"y": -0.8498735894,
				"z": 0.626809488,
				"element": "N" 
			},
			{
				"x": 0.3226907448,
				"y": -0.5277237251,
				"z": 0.9777999961,
				"element": "C" 
			},
			{
				"x": 0.4714457972,
				"y": 0.7726067086,
				"z": 1.7800717867,
				"element": "C" 
			},
			{
				"x": 0.2172389637,
				"y": 2.0822182636,
				"z": 1.0214653617,
				"element": "C" 
			},
			{
				"x": 1.1147797202,
				"y": 3.0627327551,
				"z": 1.7911471759,
				"element": "C" 
			},
			{
				"x": 2.324143522,
				"y": 2.1818131236,
				"z": 2.1299735837,
				"element": "C" 
			},
			{
				"x": 1.8286521392,
				"y": 0.8376501623,
				"z": 2.229650093,
				"element": "O" 
			},
			{
				"x": -0.8687362243,
				"y": -0.1129266244,
				"z": -2.0297982703,
				"element": "S" 
			},
			{
				"x": -2.2186225573,
				"y": -0.5444398298,
				"z": -5.0049896619,
				"element": "H" 
			},
			{
				"x": -1.6948017182,
				"y": -1.0511080426,
				"z": 1.3835314417,
				"element": "H" 
			},
			{
				"x": 0.7332298655,
				"y": -1.3496651745,
				"z": 1.5731090298,
				"element": "H" 
			},
			{
				"x": 0.922793906,
				"y": -0.4697108561,
				"z": 0.0646194917,
				"element": "H" 
			},
			{
				"x": -0.1992436255,
				"y": 0.7169300562,
				"z": 2.6558914945,
				"element": "H" 
			},
			{
				"x": 0.5559219204,
				"y": 1.9908492914,
				"z": -0.0171911609,
				"element": "H" 
			},
			{
				"x": -0.8367950535,
				"y": 2.3703909251,
				"z": 1.0089364644,
				"element": "H" 
			},
			{
				"x": 1.3850510914,
				"y": 3.9494499091,
				"z": 1.2114843081,
				"element": "H" 
			},
			{
				"x": 0.6150507326,
				"y": 3.398063937,
				"z": 2.7066903615,
				"element": "H" 
			},
			{
				"x": 2.8021189916,
				"y": 2.4532043592,
				"z": 3.0777962688,
				"element": "H" 
			},
			{
				"x": 3.0865325716,
				"y": 2.2261695189,
				"z": 1.3392986485,
				"element": "H" 
			}
		],
		 "valence_orbital": [ 
			{
				"type": "occ",
				"energy": -0.29439,
				"method": "rhf"
			},
			{
				"type": "occ",
				"energy": -0.27072,
				"method": "rhf"
			},
			{
				"type": "occ",
				"energy": -0.25859,
				"method": "rhf"
			},
			{
				"type": "occ",
				"energy": -0.25749,
				"method": "rhf"
			},
			{
				"type": "occ",
				"energy": -0.22281,
				"method": "rhf"
			},
			{
				"type": "unocc",
				"energy": -0.03259,
				"method": "rhf"
			},
			{
				"type": "unocc",
				"energy": -0.00716,
				"method": "rhf"
			},
			{
				"type": "unocc",
				"energy": 0.02213,
				"method": "rhf"
			},
			{
				"type": "unocc",
				"energy": 0.04391,
				"method": "rhf"
			},
			{
				"type": "unocc",
				"energy": 0.05401,
				"method": "rhf"
			}
		],
		"cosmo_sigma_profile": { 
			"-0.025": 0.0,
			"-0.024": 0.0,
			"-0.023": 0.0,
			"-0.022": 0.0,
			"-0.021": 0.0,
			"-0.02": 0.0,
			"-0.019": 0.0,
			"-0.018": 0.0,
			"-0.017": 0.0,
			"-0.016": 0.0,
			"-0.015": 0.427286005323,
			"-0.014": 1.26526241415,
			"-0.013": 0.768588644831,
			"-0.012": 1.36515101884,
			"-0.011": 4.29589438966,
			"-0.01": 3.26407828269,
			"-0.009": 2.43643972207,
			"-0.008": 3.61057216668,
			"-0.007": 3.95706056116,
			"-0.006": 7.9240346216,
			"-0.005": 8.16214027793,
			"-0.004": 17.0954580816,
			"-0.003": 28.3081098193,
			"-0.002": 28.456046628,
			"-0.001": 23.1200140412,
			"0.0": 21.4015496473,
			"0.001": 13.6576754964,
			"0.002": 11.2891007024,
			"0.003": 9.91405931048,
			"0.004": 6.3981319458,
			"0.005": 6.41487523647,
			"0.006": 5.12318593196,
			"0.007": 5.25475300475,
			"0.008": 4.71126433681,
			"0.009": 4.39376087182,
			"0.01": 3.68268644281,
			"0.011": 4.07558617857,
			"0.012": 4.27573289723,
			"0.013": 4.91615792072,
			"0.014": 3.01993107972,
			"0.015": 1.22506594565,
			"0.016": 0.0655850630898,
			"0.017": 0.0,
			"0.018": 0.0,
			"0.019": 0.0,
			"0.02": 0.0,
			"0.021": 0.0,
			"0.022": 0.0,
			"0.023": 0.0,
			"0.024": 0.0,
			"0.025": 0.0
		}
	}
}
