{
	 "smiles": "ClS(=O)(=O)C1=CC2=NSN=C2C=C1", 
	 "Tm": 344.65, 
	 "num_atms": 16, 
	 "gaussian": { 
		 "optdone": 1, 
		 "sigma_profile": "yes", 
		 "theory": "DFT", 
		 "functional": "B3LYP", 
		 "basiset": "6-31G**", 
		 "properties": { 
			 "R2extent": 4736.0882, 
			 "electric_dipole_moment_norm": 3.99626429181, 
			 "electric_quadrupole_moment_norm": 4.85259561884, 
			 "total_energy": -1746.8645983, 
			 "HOMO_LUMO_gap": 0.15626, 
			 "cosmo_polarized_energy": -9.6, 
			 "cosmo_cavitation_energy": 26.3, 
			 "cosmo_dispersion_energy": -20.77, 
			 "cosmo_repulsion_energy": 1.52, 
			 "cosmo_total_nonelectrostatic_energy": 7.05, 
			 "SMD_solvation_energy": -0.19 
		},
		"coords": [
			{
				"x": 0.5533294842,
				"y": 2.5131766629,
				"z": -3.0565114146,
				"element": "Cl" 
			},
			{
				"x": 0.617608596,
				"y": 1.8136820441,
				"z": -1.04526594,
				"element": "S" 
			},
			{
				"x": -0.0950966705,
				"y": 2.8038727834,
				"z": -0.2485182428,
				"element": "O" 
			},
			{
				"x": 2.0004207084,
				"y": 1.4422841739,
				"z": -0.7784863887,
				"element": "O" 
			},
			{
				"x": -0.3852844416,
				"y": 0.3347803849,
				"z": -1.1708157121,
				"element": "C" 
			},
			{
				"x": 0.2606588349,
				"y": -0.8714797107,
				"z": -1.2552645163,
				"element": "C" 
			},
			{
				"x": -0.564433364,
				"y": -2.0282396562,
				"z": -1.331358238,
				"element": "C" 
			},
			{
				"x": -0.1348060007,
				"y": -3.2945247563,
				"z": -1.4170528075,
				"element": "N" 
			},
			{
				"x": -1.4814161827,
				"y": -4.226165366,
				"z": -1.4815080672,
				"element": "S" 
			},
			{
				"x": -2.6481163651,
				"y": -3.0736062684,
				"z": -1.4018578045,
				"element": "N" 
			},
			{
				"x": -2.0089240755,
				"y": -1.8997913358,
				"z": -1.3217490543,
				"element": "C" 
			},
			{
				"x": -2.6177456901,
				"y": -0.6133273881,
				"z": -1.2295244012,
				"element": "C" 
			},
			{
				"x": -1.8082716373,
				"y": 0.4879887364,
				"z": -1.1525604293,
				"element": "C" 
			},
			{
				"x": 1.3410964115,
				"y": -0.9506296585,
				"z": -1.2608815274,
				"element": "H" 
			},
			{
				"x": -3.6983815467,
				"y": -0.5298040386,
				"z": -1.2148192836,
				"element": "H" 
			},
			{
				"x": -2.2275380608,
				"y": 1.4838833931,
				"z": -1.0662261723,
				"element": "H" 
			}
		],
		 "valence_orbital": [ 
			{
				"type": "occ",
				"energy": -0.33928,
				"method": "rhf"
			},
			{
				"type": "occ",
				"energy": -0.32781,
				"method": "rhf"
			},
			{
				"type": "occ",
				"energy": -0.32151,
				"method": "rhf"
			},
			{
				"type": "occ",
				"energy": -0.2976,
				"method": "rhf"
			},
			{
				"type": "occ",
				"energy": -0.27836,
				"method": "rhf"
			},
			{
				"type": "unocc",
				"energy": -0.1221,
				"method": "rhf"
			},
			{
				"type": "unocc",
				"energy": -0.08967,
				"method": "rhf"
			},
			{
				"type": "unocc",
				"energy": -0.03735,
				"method": "rhf"
			},
			{
				"type": "unocc",
				"energy": -0.0256,
				"method": "rhf"
			},
			{
				"type": "unocc",
				"energy": -0.01274,
				"method": "rhf"
			}
		],
		"cosmo_sigma_profile": { 
			"-0.025": 0.0,
			"-0.024": 0.0,
			"-0.023": 0.0,
			"-0.022": 0.0,
			"-0.021": 0.0,
			"-0.02": 0.0,
			"-0.019": 0.0,
			"-0.018": 0.0,
			"-0.017": 0.0,
			"-0.016": 0.0,
			"-0.015": 0.0,
			"-0.014": 0.0,
			"-0.013": 0.0,
			"-0.012": 0.0,
			"-0.011": 0.0,
			"-0.01": 0.432970052774,
			"-0.009": 4.21371766069,
			"-0.008": 4.73247350363,
			"-0.007": 5.7052034743,
			"-0.006": 9.09229308562,
			"-0.005": 10.7892519615,
			"-0.004": 16.1623969661,
			"-0.003": 22.8035192567,
			"-0.002": 23.1162019077,
			"-0.001": 16.9162417284,
			"0.0": 14.8956847526,
			"0.001": 12.6353623897,
			"0.002": 13.2400951897,
			"0.003": 15.8809145384,
			"0.004": 7.25956825166,
			"0.005": 5.34501991614,
			"0.006": 6.50806521676,
			"0.007": 8.8595556989,
			"0.008": 10.809216221,
			"0.009": 3.95575649722,
			"0.01": 2.38379994589,
			"0.011": 1.67925802577,
			"0.012": 1.16804984787,
			"0.013": 0.000423679957071,
			"0.014": 0.0,
			"0.015": 0.0,
			"0.016": 0.0,
			"0.017": 0.0,
			"0.018": 0.0,
			"0.019": 0.0,
			"0.02": 0.0,
			"0.021": 0.0,
			"0.022": 0.0,
			"0.023": 0.0,
			"0.024": 0.0,
			"0.025": 0.0
		}
	}
}
