{
	 "smiles": "CC1=C(C(N)=O)C(=CC=C1)[N+]([O-])=O", 
	 "Tm": 432.15, 
	 "num_atms": 21, 
	 "gaussian": { 
		 "optdone": 1, 
		 "sigma_profile": "yes", 
		 "theory": "DFT", 
		 "functional": "B3LYP", 
		 "basiset": "6-31G**", 
		 "properties": { 
			 "R2extent": 2222.8525, 
			 "electric_dipole_moment_norm": 4.91559859834, 
			 "electric_quadrupole_moment_norm": 10.4999269807, 
			 "total_energy": -644.762021658, 
			 "HOMO_LUMO_gap": 0.16097, 
			 "cosmo_polarized_energy": -15.34, 
			 "cosmo_cavitation_energy": 25.84, 
			 "cosmo_dispersion_energy": -18.48, 
			 "cosmo_repulsion_energy": 1.47, 
			 "cosmo_total_nonelectrostatic_energy": 8.83, 
			 "SMD_solvation_energy": 7.13 
		},
		"coords": [
			{
				"x": 2.7170056268,
				"y": -1.8650936792,
				"z": 0.4259396662,
				"element": "C" 
			},
			{
				"x": 1.2361858851,
				"y": -1.7658321093,
				"z": 0.1432833956,
				"element": "C" 
			},
			{
				"x": 0.5683591241,
				"y": -0.5255983984,
				"z": 0.2342130066,
				"element": "C" 
			},
			{
				"x": 1.4204428841,
				"y": 0.6997420745,
				"z": 0.5381087503,
				"element": "C" 
			},
			{
				"x": 1.5344896343,
				"y": 1.025374777,
				"z": 1.8649806016,
				"element": "N" 
			},
			{
				"x": 2.0772105546,
				"y": 1.2254629667,
				"z": -0.3443884799,
				"element": "O" 
			},
			{
				"x": -0.7954401904,
				"y": -0.4827641306,
				"z": -0.084383353,
				"element": "C" 
			},
			{
				"x": -1.5130768808,
				"y": -1.6145469935,
				"z": -0.4734527229,
				"element": "C" 
			},
			{
				"x": -0.8511492529,
				"y": -2.8332669361,
				"z": -0.5388036629,
				"element": "C" 
			},
			{
				"x": 0.5084783059,
				"y": -2.9013613652,
				"z": -0.2308656672,
				"element": "C" 
			},
			{
				"x": -1.5451331735,
				"y": 0.783577873,
				"z": -0.0017012001,
				"element": "N" 
			},
			{
				"x": -1.0022297429,
				"y": 1.7371537654,
				"z": 0.5596587118,
				"element": "O" 
			},
			{
				"x": -2.6749131346,
				"y": 0.815084669,
				"z": -0.4834923918,
				"element": "O" 
			},
			{
				"x": 3.286337957,
				"y": -1.2744460609,
				"z": -0.2985717408,
				"element": "H" 
			},
			{
				"x": 2.9591689953,
				"y": -1.472445855,
				"z": 1.4186377451,
				"element": "H" 
			},
			{
				"x": 3.0562136599,
				"y": -2.9020442111,
				"z": 0.3723973091,
				"element": "H" 
			},
			{
				"x": 0.7415862618,
				"y": 0.8352327632,
				"z": 2.461570817,
				"element": "H" 
			},
			{
				"x": 2.0054382175,
				"y": 1.9044758782,
				"z": 2.0404374859,
				"element": "H" 
			},
			{
				"x": -2.5639391367,
				"y": -1.514498348,
				"z": -0.7119176958,
				"element": "H" 
			},
			{
				"x": -1.3910985872,
				"y": -3.7283662266,
				"z": -0.8304915936,
				"element": "H" 
			},
			{
				"x": 1.0235629926,
				"y": -3.8562404531,
				"z": -0.289158981,
				"element": "H" 
			}
		],
		 "valence_orbital": [ 
			{
				"type": "occ",
				"energy": -0.29933,
				"method": "rhf"
			},
			{
				"type": "occ",
				"energy": -0.28679,
				"method": "rhf"
			},
			{
				"type": "occ",
				"energy": -0.28087,
				"method": "rhf"
			},
			{
				"type": "occ",
				"energy": -0.27332,
				"method": "rhf"
			},
			{
				"type": "occ",
				"energy": -0.25459,
				"method": "rhf"
			},
			{
				"type": "unocc",
				"energy": -0.09362,
				"method": "rhf"
			},
			{
				"type": "unocc",
				"energy": -0.03191,
				"method": "rhf"
			},
			{
				"type": "unocc",
				"energy": -0.00352,
				"method": "rhf"
			},
			{
				"type": "unocc",
				"energy": 0.01454,
				"method": "rhf"
			},
			{
				"type": "unocc",
				"energy": 0.07932,
				"method": "rhf"
			}
		],
		"cosmo_sigma_profile": { 
			"-0.025": 0.0,
			"-0.024": 0.0,
			"-0.023": 0.0,
			"-0.022": 0.0,
			"-0.021": 0.0,
			"-0.02": 0.0,
			"-0.019": 0.0,
			"-0.018": 0.0,
			"-0.017": 0.0,
			"-0.016": 0.0,
			"-0.015": 0.0608674255845,
			"-0.014": 1.6817754001,
			"-0.013": 2.01090388808,
			"-0.012": 2.44215983537,
			"-0.011": 2.52886898423,
			"-0.01": 2.23579234575,
			"-0.009": 2.28359725709,
			"-0.008": 2.8090651819,
			"-0.007": 9.25109349925,
			"-0.006": 11.0619629161,
			"-0.005": 10.8574745905,
			"-0.004": 10.7810439739,
			"-0.003": 13.0074036553,
			"-0.002": 13.4081994726,
			"-0.001": 19.066656382,
			"0.0": 15.6602666047,
			"0.001": 13.0776560328,
			"0.002": 13.435285402,
			"0.003": 6.97043090093,
			"0.004": 5.42593337723,
			"0.005": 4.9589861892,
			"0.006": 6.01762474036,
			"0.007": 9.87182417821,
			"0.008": 6.64438718439,
			"0.009": 5.50289364462,
			"0.01": 3.30172594272,
			"0.011": 2.01944399885,
			"0.012": 3.71231703248,
			"0.013": 4.58537622379,
			"0.014": 0.882582213971,
			"0.015": 0.0,
			"0.016": 0.0,
			"0.017": 0.0,
			"0.018": 0.0,
			"0.019": 0.0,
			"0.02": 0.0,
			"0.021": 0.0,
			"0.022": 0.0,
			"0.023": 0.0,
			"0.024": 0.0,
			"0.025": 0.0
		}
	}
}
