{
	 "smiles": "CC(C)C1=C(C)C=C(OCC(O)=O)C=C1", 
	 "Tm": 392.15, 
	 "num_atms": 31, 
	 "gaussian": { 
		 "optdone": 1, 
		 "sigma_profile": "yes", 
		 "theory": "DFT", 
		 "functional": "B3LYP", 
		 "basiset": "6-31G**", 
		 "properties": { 
			 "R2extent": 4802.3212, 
			 "electric_dipole_moment_norm": 1.88001483505, 
			 "electric_quadrupole_moment_norm": 8.26294143027, 
			 "total_energy": -692.601183712, 
			 "HOMO_LUMO_gap": 0.22308, 
			 "cosmo_polarized_energy": -12.19, 
			 "cosmo_cavitation_energy": 33.57, 
			 "cosmo_dispersion_energy": -23.65, 
			 "cosmo_repulsion_energy": 1.88, 
			 "cosmo_total_nonelectrostatic_energy": 11.8, 
			 "SMD_solvation_energy": 7.23 
		},
		"coords": [
			{
				"x": -2.3201928892,
				"y": -1.2604804117,
				"z": -3.267803722,
				"element": "C" 
			},
			{
				"x": -1.3573683589,
				"y": -0.0674672021,
				"z": -3.1126930971,
				"element": "C" 
			},
			{
				"x": -1.941640412,
				"y": 1.220064029,
				"z": -3.7303524662,
				"element": "C" 
			},
			{
				"x": -0.8209443954,
				"y": 0.1473493796,
				"z": -1.6945018265,
				"element": "C" 
			},
			{
				"x": -1.6180614088,
				"y": 0.3382055125,
				"z": -0.5390209975,
				"element": "C" 
			},
			{
				"x": -3.133325546,
				"y": 0.3063077515,
				"z": -0.5422933747,
				"element": "C" 
			},
			{
				"x": -0.9891946336,
				"y": 0.5548557626,
				"z": 0.694478682,
				"element": "C" 
			},
			{
				"x": 0.3977339811,
				"y": 0.5742995071,
				"z": 0.8135550568,
				"element": "C" 
			},
			{
				"x": 0.960912455,
				"y": 0.7191525754,
				"z": 2.0745714185,
				"element": "O" 
			},
			{
				"x": 1.6458531823,
				"y": 1.9232241941,
				"z": 2.3198646701,
				"element": "C" 
			},
			{
				"x": 0.7096510085,
				"y": 3.0529011151,
				"z": 2.7385581613,
				"element": "C" 
			},
			{
				"x": 1.4215339304,
				"y": 4.1854264611,
				"z": 2.9574180205,
				"element": "O" 
			},
			{
				"x": -0.4876041406,
				"y": 2.9812620099,
				"z": 2.874000818,
				"element": "O" 
			},
			{
				"x": 1.1953227089,
				"y": 0.3809843628,
				"z": -0.3113905268,
				"element": "C" 
			},
			{
				"x": 0.5741125354,
				"y": 0.1772865861,
				"z": -1.5420544637,
				"element": "C" 
			},
			{
				"x": -3.2992082679,
				"y": -1.0713936965,
				"z": -2.8210884276,
				"element": "H" 
			},
			{
				"x": -2.4837005363,
				"y": -1.4704857789,
				"z": -4.330726994,
				"element": "H" 
			},
			{
				"x": -1.9071925198,
				"y": -2.1633772553,
				"z": -2.8067729967,
				"element": "H" 
			},
			{
				"x": -0.4758819778,
				"y": -0.3165042953,
				"z": -3.7176264425,
				"element": "H" 
			},
			{
				"x": -2.8471149559,
				"y": 1.5542942123,
				"z": -3.2152529186,
				"element": "H" 
			},
			{
				"x": -2.2044325492,
				"y": 1.0531447067,
				"z": -4.7811732721,
				"element": "H" 
			},
			{
				"x": -1.2153627722,
				"y": 2.0375934887,
				"z": -3.6880869298,
				"element": "H" 
			},
			{
				"x": -3.5119850223,
				"y": -0.7217877422,
				"z": -0.5772840669,
				"element": "H" 
			},
			{
				"x": -3.5683276577,
				"y": 0.839598456,
				"z": -1.3903416565,
				"element": "H" 
			},
			{
				"x": -3.5230189888,
				"y": 0.7635294646,
				"z": 0.3711002771,
				"element": "H" 
			},
			{
				"x": -1.5774036487,
				"y": 0.7294094692,
				"z": 1.5888790874,
				"element": "H" 
			},
			{
				"x": 2.3486454061,
				"y": 1.7446879274,
				"z": 3.1409462209,
				"element": "H" 
			},
			{
				"x": 2.2316817055,
				"y": 2.2613478435,
				"z": 1.4546749278,
				"element": "H" 
			},
			{
				"x": 0.7811101058,
				"y": 4.8635831777,
				"z": 3.230754671,
				"element": "H" 
			},
			{
				"x": 2.2777858629,
				"y": 0.3701073699,
				"z": -0.224316998,
				"element": "H" 
			},
			{
				"x": 1.197217799,
				"y": 0.0239810192,
				"z": -2.4199208344,
				"element": "H" 
			}
		],
		 "valence_orbital": [ 
			{
				"type": "occ",
				"energy": -0.31579,
				"method": "rhf"
			},
			{
				"type": "occ",
				"energy": -0.29316,
				"method": "rhf"
			},
			{
				"type": "occ",
				"energy": -0.27358,
				"method": "rhf"
			},
			{
				"type": "occ",
				"energy": -0.23832,
				"method": "rhf"
			},
			{
				"type": "occ",
				"energy": -0.22277,
				"method": "rhf"
			},
			{
				"type": "unocc",
				"energy": 0.00031,
				"method": "rhf"
			},
			{
				"type": "unocc",
				"energy": 0.00582,
				"method": "rhf"
			},
			{
				"type": "unocc",
				"energy": 0.01045,
				"method": "rhf"
			},
			{
				"type": "unocc",
				"energy": 0.07124,
				"method": "rhf"
			},
			{
				"type": "unocc",
				"energy": 0.08812,
				"method": "rhf"
			}
		],
		"cosmo_sigma_profile": { 
			"-0.025": 0.0,
			"-0.024": 0.0,
			"-0.023": 0.0,
			"-0.022": 0.0,
			"-0.021": 0.0,
			"-0.02": 0.0,
			"-0.019": 0.0992843808463,
			"-0.018": 1.08356460901,
			"-0.017": 0.84062134498,
			"-0.016": 0.66582521997,
			"-0.015": 1.12778248091,
			"-0.014": 0.765599745766,
			"-0.013": 0.548480864355,
			"-0.012": 0.46938749536,
			"-0.011": 0.890494177824,
			"-0.01": 0.42579290056,
			"-0.009": 0.640524341744,
			"-0.008": 3.73041690505,
			"-0.007": 5.21663784685,
			"-0.006": 8.75368177828,
			"-0.005": 10.5319407002,
			"-0.004": 16.4390022143,
			"-0.003": 23.1711669751,
			"-0.002": 25.9035345196,
			"-0.001": 25.6455700165,
			"0.0": 27.9020556431,
			"0.001": 26.4921782861,
			"0.002": 13.7365183986,
			"0.003": 9.42863278799,
			"0.004": 10.8367695032,
			"0.005": 12.4634508239,
			"0.006": 10.0162239561,
			"0.007": 4.26750701719,
			"0.008": 4.41619350429,
			"0.009": 5.03185184038,
			"0.01": 5.17775565027,
			"0.011": 5.58441489378,
			"0.012": 1.27578029372,
			"0.013": 0.0,
			"0.014": 0.0,
			"0.015": 0.0,
			"0.016": 0.0,
			"0.017": 0.0,
			"0.018": 0.0,
			"0.019": 0.0,
			"0.02": 0.0,
			"0.021": 0.0,
			"0.022": 0.0,
			"0.023": 0.0,
			"0.024": 0.0,
			"0.025": 0.0
		}
	}
}
