{
	 "smiles": "OC1=NSC(NC2=CC=CC=C2Cl)=C1C#N", 
	 "Tm": 373.15, 
	 "num_atms": 22, 
	 "gaussian": { 
		 "optdone": 1, 
		 "sigma_profile": "yes", 
		 "theory": "DFT", 
		 "functional": "B3LYP", 
		 "basiset": "6-31G**", 
		 "properties": { 
			 "R2extent": 4871.7917, 
			 "electric_dipole_moment_norm": 5.08812662775, 
			 "electric_quadrupole_moment_norm": 17.8112091998, 
			 "total_energy": -1482.5057866, 
			 "HOMO_LUMO_gap": 0.17178, 
			 "cosmo_polarized_energy": -14.53, 
			 "cosmo_cavitation_energy": 31.38, 
			 "cosmo_dispersion_energy": -23.02, 
			 "cosmo_repulsion_energy": 1.74, 
			 "cosmo_total_nonelectrostatic_energy": 10.09, 
			 "SMD_solvation_energy": 5.22 
		},
		"coords": [
			{
				"x": -1.170613186,
				"y": -0.8163116133,
				"z": 4.6443542304,
				"element": "O" 
			},
			{
				"x": -1.0656335357,
				"y": -0.1936734071,
				"z": 3.4595426085,
				"element": "C" 
			},
			{
				"x": -1.4529774306,
				"y": 1.0440931921,
				"z": 3.2973004321,
				"element": "N" 
			},
			{
				"x": -1.1857665144,
				"y": 1.5009055437,
				"z": 1.6901058674,
				"element": "S" 
			},
			{
				"x": -0.5081834513,
				"y": -0.0409406114,
				"z": 1.2126282149,
				"element": "C" 
			},
			{
				"x": -0.0996453896,
				"y": -0.4156871483,
				"z": -0.0305952964,
				"element": "N" 
			},
			{
				"x": 0.006964689,
				"y": 0.340417851,
				"z": -1.2045577122,
				"element": "C" 
			},
			{
				"x": 0.1451911535,
				"y": 1.7370135967,
				"z": -1.2039168475,
				"element": "C" 
			},
			{
				"x": 0.2432536415,
				"y": 2.4443497237,
				"z": -2.4001693215,
				"element": "C" 
			},
			{
				"x": 0.2278863665,
				"y": 1.775489889,
				"z": -3.6231414946,
				"element": "C" 
			},
			{
				"x": 0.1194067245,
				"y": 0.384852077,
				"z": -3.6437687661,
				"element": "C" 
			},
			{
				"x": 0.0085896725,
				"y": -0.320574058,
				"z": -2.4503821148,
				"element": "C" 
			},
			{
				"x": -0.1263693555,
				"y": -2.0735755671,
				"z": -2.5057699197,
				"element": "Cl" 
			},
			{
				"x": -0.5106740229,
				"y": -0.8806140272,
				"z": 2.3279105314,
				"element": "C" 
			},
			{
				"x": -0.0417567054,
				"y": -2.2155663642,
				"z": 2.301551157,
				"element": "C" 
			},
			{
				"x": 0.3560193187,
				"y": -3.3076589508,
				"z": 2.2126569171,
				"element": "N" 
			},
			{
				"x": -1.5637451397,
				"y": -0.1871226914,
				"z": 5.2690095915,
				"element": "H" 
			},
			{
				"x": 0.0776642039,
				"y": -1.4098065911,
				"z": -0.1362735894,
				"element": "H" 
			},
			{
				"x": 0.2156425321,
				"y": 2.2697712831,
				"z": -0.2631581064,
				"element": "H" 
			},
			{
				"x": 0.3468163065,
				"y": 3.5242469654,
				"z": -2.3678630108,
				"element": "H" 
			},
			{
				"x": 0.3061663171,
				"y": 2.3242644436,
				"z": -4.5557296011,
				"element": "H" 
			},
			{
				"x": 0.1140638054,
				"y": -0.1608735353,
				"z": -4.5807337698,
				"element": "H" 
			}
		],
		 "valence_orbital": [ 
			{
				"type": "occ",
				"energy": -0.3141,
				"method": "rhf"
			},
			{
				"type": "occ",
				"energy": -0.2852,
				"method": "rhf"
			},
			{
				"type": "occ",
				"energy": -0.27004,
				"method": "rhf"
			},
			{
				"type": "occ",
				"energy": -0.25542,
				"method": "rhf"
			},
			{
				"type": "occ",
				"energy": -0.22769,
				"method": "rhf"
			},
			{
				"type": "unocc",
				"energy": -0.05591,
				"method": "rhf"
			},
			{
				"type": "unocc",
				"energy": -0.03711,
				"method": "rhf"
			},
			{
				"type": "unocc",
				"energy": -0.01152,
				"method": "rhf"
			},
			{
				"type": "unocc",
				"energy": -0.0047,
				"method": "rhf"
			},
			{
				"type": "unocc",
				"energy": 0.0074,
				"method": "rhf"
			}
		],
		"cosmo_sigma_profile": { 
			"-0.025": 0.0,
			"-0.024": 0.0,
			"-0.023": 0.0,
			"-0.022": 0.0,
			"-0.021": 0.0,
			"-0.02": 0.0,
			"-0.019": 0.370918498353,
			"-0.018": 1.02592444595,
			"-0.017": 0.871155042853,
			"-0.016": 0.679463878769,
			"-0.015": 0.88046295454,
			"-0.014": 0.600074047535,
			"-0.013": 0.493437534178,
			"-0.012": 1.21065563308,
			"-0.011": 1.15469025919,
			"-0.01": 1.63718602364,
			"-0.009": 2.76658741409,
			"-0.008": 3.33021757225,
			"-0.007": 8.66851093009,
			"-0.006": 12.095486408,
			"-0.005": 11.5697909004,
			"-0.004": 10.5343494684,
			"-0.003": 15.4710973649,
			"-0.002": 22.646785469,
			"-0.001": 25.8530688441,
			"0.0": 20.4553112922,
			"0.001": 20.1716373409,
			"0.002": 22.2785229099,
			"0.003": 20.5714391401,
			"0.004": 13.7145012191,
			"0.005": 5.34090209403,
			"0.006": 5.41609707479,
			"0.007": 4.6694968406,
			"0.008": 6.02196643952,
			"0.009": 4.17130610616,
			"0.01": 4.52291021616,
			"0.011": 4.2462914273,
			"0.012": 3.04133316155,
			"0.013": 2.28012546342,
			"0.014": 0.0087443978601,
			"0.015": 0.0,
			"0.016": 0.0,
			"0.017": 0.0,
			"0.018": 0.0,
			"0.019": 0.0,
			"0.02": 0.0,
			"0.021": 0.0,
			"0.022": 0.0,
			"0.023": 0.0,
			"0.024": 0.0,
			"0.025": 0.0
		}
	}
}
