{
	 "smiles": "CCOCCCNC1=NN=C(S)S1", 
	 "Tm": 337.15, 
	 "num_atms": 26, 
	 "gaussian": { 
		 "optdone": 1, 
		 "sigma_profile": "yes", 
		 "theory": "DFT", 
		 "functional": "B3LYP", 
		 "basiset": "6-31G**", 
		 "properties": { 
			 "R2extent": 6802.2297, 
			 "electric_dipole_moment_norm": 5.87110239563, 
			 "electric_quadrupole_moment_norm": 24.9381171268, 
			 "total_energy": -1310.38455921, 
			 "HOMO_LUMO_gap": 0.19309, 
			 "cosmo_polarized_energy": -16.51, 
			 "cosmo_cavitation_energy": 33.11, 
			 "cosmo_dispersion_energy": -24.49, 
			 "cosmo_repulsion_energy": 1.91, 
			 "cosmo_total_nonelectrostatic_energy": 10.54, 
			 "SMD_solvation_energy": 2.66 
		},
		"coords": [
			{
				"x": -1.8569622062,
				"y": -0.0008478937,
				"z": 2.452081771,
				"element": "C" 
			},
			{
				"x": -2.2576937112,
				"y": -0.4701025379,
				"z": 1.0630790758,
				"element": "C" 
			},
			{
				"x": -1.5216806764,
				"y": 0.2862725244,
				"z": 0.1105838734,
				"element": "O" 
			},
			{
				"x": -1.8476920954,
				"y": 0.0160914626,
				"z": -1.2437457243,
				"element": "C" 
			},
			{
				"x": -1.1406010739,
				"y": -1.2323407368,
				"z": -1.7880416223,
				"element": "C" 
			},
			{
				"x": 0.3854339998,
				"y": -1.1186853687,
				"z": -1.7427288706,
				"element": "C" 
			},
			{
				"x": 0.8617035579,
				"y": -0.1233757268,
				"z": -2.6998382225,
				"element": "N" 
			},
			{
				"x": 2.1211739417,
				"y": 0.3962738868,
				"z": -2.6838493967,
				"element": "C" 
			},
			{
				"x": 2.6710155871,
				"y": 0.9422830417,
				"z": -3.7480024809,
				"element": "N" 
			},
			{
				"x": 3.8914429896,
				"y": 1.4899327985,
				"z": -3.4894671891,
				"element": "N" 
			},
			{
				"x": 4.2878969758,
				"y": 1.3492096306,
				"z": -2.2626153274,
				"element": "C" 
			},
			{
				"x": 5.8869824154,
				"y": 1.8482245945,
				"z": -1.690750059,
				"element": "S" 
			},
			{
				"x": 3.1285179809,
				"y": 0.4668731276,
				"z": -1.2423645927,
				"element": "S" 
			},
			{
				"x": -2.4113543683,
				"y": -0.5536844567,
				"z": 3.2168777809,
				"element": "H" 
			},
			{
				"x": -0.7872040807,
				"y": -0.1584324219,
				"z": 2.6177669382,
				"element": "H" 
			},
			{
				"x": -2.0673968511,
				"y": 1.0657831759,
				"z": 2.5704679334,
				"element": "H" 
			},
			{
				"x": -3.3385165421,
				"y": -0.3234289408,
				"z": 0.9009823805,
				"element": "H" 
			},
			{
				"x": -2.0586881135,
				"y": -1.5485302339,
				"z": 0.9551535495,
				"element": "H" 
			},
			{
				"x": -2.9371504773,
				"y": -0.0862706922,
				"z": -1.3671352574,
				"element": "H" 
			},
			{
				"x": -1.526006065,
				"y": 0.8957595087,
				"z": -1.8104556923,
				"element": "H" 
			},
			{
				"x": -1.4748310716,
				"y": -1.4149638164,
				"z": -2.8189682439,
				"element": "H" 
			},
			{
				"x": -1.4375622242,
				"y": -2.1163884858,
				"z": -1.2127421869,
				"element": "H" 
			},
			{
				"x": 0.8483583339,
				"y": -2.1003034324,
				"z": -1.9248220666,
				"element": "H" 
			},
			{
				"x": 0.6762214121,
				"y": -0.7929634739,
				"z": -0.7388584778,
				"element": "H" 
			},
			{
				"x": 0.4978295786,
				"y": -0.1919910363,
				"z": -3.6438527651,
				"element": "H" 
			},
			{
				"x": 5.463562784,
				"y": 2.7661055031,
				"z": -0.794455127,
				"element": "H" 
			}
		],
		 "valence_orbital": [ 
			{
				"type": "occ",
				"energy": -0.29115,
				"method": "rhf"
			},
			{
				"type": "occ",
				"energy": -0.26736,
				"method": "rhf"
			},
			{
				"type": "occ",
				"energy": -0.26309,
				"method": "rhf"
			},
			{
				"type": "occ",
				"energy": -0.25488,
				"method": "rhf"
			},
			{
				"type": "occ",
				"energy": -0.22244,
				"method": "rhf"
			},
			{
				"type": "unocc",
				"energy": -0.02935,
				"method": "rhf"
			},
			{
				"type": "unocc",
				"energy": -0.00272,
				"method": "rhf"
			},
			{
				"type": "unocc",
				"energy": 0.02619,
				"method": "rhf"
			},
			{
				"type": "unocc",
				"energy": 0.04431,
				"method": "rhf"
			},
			{
				"type": "unocc",
				"energy": 0.0581,
				"method": "rhf"
			}
		],
		"cosmo_sigma_profile": { 
			"-0.025": 0.0,
			"-0.024": 0.0,
			"-0.023": 0.0,
			"-0.022": 0.0,
			"-0.021": 0.0,
			"-0.02": 0.0,
			"-0.019": 0.0,
			"-0.018": 0.0,
			"-0.017": 0.0,
			"-0.016": 0.0,
			"-0.015": 0.0106453715059,
			"-0.014": 0.59352710933,
			"-0.013": 1.20554225206,
			"-0.012": 1.39248193867,
			"-0.011": 4.28721204642,
			"-0.01": 3.21660576774,
			"-0.009": 2.6629373881,
			"-0.008": 3.01466471154,
			"-0.007": 2.99934292492,
			"-0.006": 2.71184978549,
			"-0.005": 8.79986608364,
			"-0.004": 23.6930264388,
			"-0.003": 33.2913616882,
			"-0.002": 30.1049300629,
			"-0.001": 27.3903970655,
			"0.0": 23.2339166785,
			"0.001": 18.868506759,
			"0.002": 13.7130303921,
			"0.003": 10.785035179,
			"0.004": 7.2251130569,
			"0.005": 6.01758220662,
			"0.006": 5.60648251211,
			"0.007": 5.35279207284,
			"0.008": 4.54403958794,
			"0.009": 4.37261984014,
			"0.01": 4.04304823106,
			"0.011": 3.86510790747,
			"0.012": 4.09321072396,
			"0.013": 3.85493020697,
			"0.014": 2.89987164476,
			"0.015": 1.37307725677,
			"0.016": 0.0137682700485,
			"0.017": 0.0,
			"0.018": 0.0,
			"0.019": 0.0,
			"0.02": 0.0,
			"0.021": 0.0,
			"0.022": 0.0,
			"0.023": 0.0,
			"0.024": 0.0,
			"0.025": 0.0
		}
	}
}
