{
	 "smiles": "CC(C)(C)C(O)C(OC1=CC=C(C=C1)C1=CC=CC=C1)N1C=NC=N1", 
	 "Tm": 412.15, 
	 "num_atms": 48, 
	 "gaussian": { 
		 "optdone": 1, 
		 "sigma_profile": "yes", 
		 "theory": "DFT", 
		 "functional": "B3LYP", 
		 "basiset": "6-31G**", 
		 "properties": { 
			 "R2extent": 12564.3308, 
			 "electric_dipole_moment_norm": 2.9069099212, 
			 "electric_quadrupole_moment_norm": 22.6302145684, 
			 "total_energy": -1090.66955099, 
			 "HOMO_LUMO_gap": 0.19451, 
			 "cosmo_polarized_energy": -16.47, 
			 "cosmo_cavitation_energy": 49.21, 
			 "cosmo_dispersion_energy": -33.44, 
			 "cosmo_repulsion_energy": 2.49, 
			 "cosmo_total_nonelectrostatic_energy": 18.27, 
			 "SMD_solvation_energy": 6.78 
		},
		"coords": [
			{
				"x": -5.014181872,
				"y": -1.8884255196,
				"z": -0.0548970948,
				"element": "C" 
			},
			{
				"x": -3.6364034344,
				"y": -1.5084289988,
				"z": 0.5407017465,
				"element": "C" 
			},
			{
				"x": -3.8125380427,
				"y": -1.2561222193,
				"z": 2.0516379221,
				"element": "C" 
			},
			{
				"x": -2.6710889598,
				"y": -2.6875614576,
				"z": 0.3116276683,
				"element": "C" 
			},
			{
				"x": -3.1516271927,
				"y": -0.2380057305,
				"z": -0.2259304657,
				"element": "C" 
			},
			{
				"x": -3.9172366586,
				"y": 0.9244730663,
				"z": 0.0933118756,
				"element": "O" 
			},
			{
				"x": -1.6983908613,
				"y": 0.27621014,
				"z": -0.1007919295,
				"element": "C" 
			},
			{
				"x": -0.8309088946,
				"y": -0.6070279766,
				"z": -0.7561007884,
				"element": "O" 
			},
			{
				"x": 0.3839784387,
				"y": -0.083670223,
				"z": -1.1901206473,
				"element": "C" 
			},
			{
				"x": 1.5560750213,
				"y": -0.4517836215,
				"z": -0.5317102719,
				"element": "C" 
			},
			{
				"x": 2.7809448701,
				"y": 0.014158483,
				"z": -1.0047687986,
				"element": "C" 
			},
			{
				"x": 2.8600759,
				"y": 0.8552511886,
				"z": -2.1282895711,
				"element": "C" 
			},
			{
				"x": 1.661969036,
				"y": 1.2096594285,
				"z": -2.7718385623,
				"element": "C" 
			},
			{
				"x": 0.431758908,
				"y": 0.7422978828,
				"z": -2.3140668748,
				"element": "C" 
			},
			{
				"x": 4.1697621765,
				"y": 1.3521683954,
				"z": -2.622571042,
				"element": "C" 
			},
			{
				"x": 4.4285665854,
				"y": 1.4618153362,
				"z": -3.9996073474,
				"element": "C" 
			},
			{
				"x": 5.657383476,
				"y": 1.9299673631,
				"z": -4.4629602728,
				"element": "C" 
			},
			{
				"x": 6.6563935552,
				"y": 2.2970378516,
				"z": -3.5593738062,
				"element": "C" 
			},
			{
				"x": 6.4144646597,
				"y": 2.1924307512,
				"z": -2.1883089275,
				"element": "C" 
			},
			{
				"x": 5.1847399022,
				"y": 1.7263659953,
				"z": -1.7253268599,
				"element": "C" 
			},
			{
				"x": -1.2381469565,
				"y": 0.5547017267,
				"z": 1.2680267434,
				"element": "N" 
			},
			{
				"x": -1.3896855353,
				"y": 1.7033016441,
				"z": 1.9685701888,
				"element": "C" 
			},
			{
				"x": -0.868851499,
				"y": 1.5830870844,
				"z": 3.1780400888,
				"element": "N" 
			},
			{
				"x": -0.3966446723,
				"y": 0.3057060392,
				"z": 3.1646522999,
				"element": "C" 
			},
			{
				"x": -0.595527277,
				"y": -0.3644509785,
				"z": 2.0372475829,
				"element": "N" 
			},
			{
				"x": -5.3868860603,
				"y": -2.8029547979,
				"z": 0.4166771383,
				"element": "H" 
			},
			{
				"x": -5.7788470295,
				"y": -1.1187058177,
				"z": 0.1159620848,
				"element": "H" 
			},
			{
				"x": -4.9518476731,
				"y": -2.0693420059,
				"z": -1.1339055839,
				"element": "H" 
			},
			{
				"x": -2.853661973,
				"y": -1.1303102946,
				"z": 2.5556779174,
				"element": "H" 
			},
			{
				"x": -4.4196306157,
				"y": -0.3661602001,
				"z": 2.2410160963,
				"element": "H" 
			},
			{
				"x": -4.3184870759,
				"y": -2.112783105,
				"z": 2.5100358964,
				"element": "H" 
			},
			{
				"x": -3.089257484,
				"y": -3.5943323171,
				"z": 0.7628069463,
				"element": "H" 
			},
			{
				"x": -1.6957260631,
				"y": -2.4977010481,
				"z": 0.7627332703,
				"element": "H" 
			},
			{
				"x": -2.5191103286,
				"y": -2.8828233174,
				"z": -0.7551409179,
				"element": "H" 
			},
			{
				"x": -3.2408664239,
				"y": -0.4646622338,
				"z": -1.3011394042,
				"element": "H" 
			},
			{
				"x": -4.8525575051,
				"y": 0.6895505611,
				"z": 0.0683221946,
				"element": "H" 
			},
			{
				"x": -1.7066570636,
				"y": 1.2565250195,
				"z": -0.5936229196,
				"element": "H" 
			},
			{
				"x": 1.4878777993,
				"y": -1.0934021223,
				"z": 0.3392082253,
				"element": "H" 
			},
			{
				"x": 3.693907848,
				"y": -0.2954976484,
				"z": -0.5052592556,
				"element": "H" 
			},
			{
				"x": 1.6922480039,
				"y": 1.8714838273,
				"z": -3.6320261489,
				"element": "H" 
			},
			{
				"x": -0.4872299216,
				"y": 1.0096452415,
				"z": -2.8275462329,
				"element": "H" 
			},
			{
				"x": 3.6688183431,
				"y": 1.1525092523,
				"z": -4.7115144503,
				"element": "H" 
			},
			{
				"x": 5.837880762,
				"y": 1.9988564781,
				"z": -5.5320850684,
				"element": "H" 
			},
			{
				"x": 7.614069059,
				"y": 2.6608828386,
				"z": -3.9201161712,
				"element": "H" 
			},
			{
				"x": 7.1815712429,
				"y": 2.4832764994,
				"z": -1.4761017967,
				"element": "H" 
			},
			{
				"x": 4.9975254856,
				"y": 1.6750958655,
				"z": -0.6567384899,
				"element": "H" 
			},
			{
				"x": -1.886744242,
				"y": 2.5727329987,
				"z": 1.5628827372,
				"element": "H" 
			},
			{
				"x": 0.1143302428,
				"y": -0.1454393247,
				"z": 4.0044210767,
				"element": "H" 
			}
		],
		 "valence_orbital": [ 
			{
				"type": "occ",
				"energy": -0.26846,
				"method": "rhf"
			},
			{
				"type": "occ",
				"energy": -0.26291,
				"method": "rhf"
			},
			{
				"type": "occ",
				"energy": -0.2564,
				"method": "rhf"
			},
			{
				"type": "occ",
				"energy": -0.25113,
				"method": "rhf"
			},
			{
				"type": "occ",
				"energy": -0.22278,
				"method": "rhf"
			},
			{
				"type": "unocc",
				"energy": -0.02827,
				"method": "rhf"
			},
			{
				"type": "unocc",
				"energy": -0.00979,
				"method": "rhf"
			},
			{
				"type": "unocc",
				"energy": -0.00214,
				"method": "rhf"
			},
			{
				"type": "unocc",
				"energy": 0.00478,
				"method": "rhf"
			},
			{
				"type": "unocc",
				"energy": 0.02732,
				"method": "rhf"
			}
		],
		"cosmo_sigma_profile": { 
			"-0.025": 0.0,
			"-0.024": 0.0,
			"-0.023": 0.0,
			"-0.022": 0.0,
			"-0.021": 0.0,
			"-0.02": 0.0,
			"-0.019": 0.0,
			"-0.018": 0.0,
			"-0.017": 0.0,
			"-0.016": 0.0,
			"-0.015": 0.205360371974,
			"-0.014": 1.14078985386,
			"-0.013": 0.588766026204,
			"-0.012": 0.647364984828,
			"-0.011": 1.77763959237,
			"-0.01": 2.62707926099,
			"-0.009": 3.29965573401,
			"-0.008": 5.69697885513,
			"-0.007": 8.31004186291,
			"-0.006": 14.5241167326,
			"-0.005": 23.299885703,
			"-0.004": 29.5354902966,
			"-0.003": 31.6455045141,
			"-0.002": 29.5009271942,
			"-0.001": 25.7281476599,
			"0.0": 31.2815808378,
			"0.001": 35.7404539435,
			"0.002": 30.4320881942,
			"0.003": 30.4344889035,
			"0.004": 25.6302805959,
			"0.005": 19.0409039215,
			"0.006": 11.5055595715,
			"0.007": 6.68546716422,
			"0.008": 5.32127671725,
			"0.009": 3.78259694324,
			"0.01": 2.67964075059,
			"0.011": 2.20079845473,
			"0.012": 1.54627183537,
			"0.013": 1.26756922685,
			"0.014": 1.02711347968,
			"0.015": 1.05798294076,
			"0.016": 1.09549571541,
			"0.017": 0.212270374462,
			"0.018": 0.0,
			"0.019": 0.0,
			"0.02": 0.0,
			"0.021": 0.0,
			"0.022": 0.0,
			"0.023": 0.0,
			"0.024": 0.0,
			"0.025": 0.0
		}
	}
}
