{
	 "smiles": "CC(OCC(=O)C1=CC=CC=C1)=C(C#N)C1=CC=CC=C1", 
	 "Tm": 384.15, 
	 "num_atms": 36, 
	 "gaussian": { 
		 "optdone": 1, 
		 "sigma_profile": "yes", 
		 "theory": "DFT", 
		 "functional": "B3LYP", 
		 "basiset": "6-31G**", 
		 "properties": { 
			 "R2extent": 6393.8358, 
			 "electric_dipole_moment_norm": 5.30372379937, 
			 "electric_quadrupole_moment_norm": 25.1404254377, 
			 "total_energy": -900.11459195, 
			 "HOMO_LUMO_gap": 0.14408, 
			 "cosmo_polarized_energy": -15.63, 
			 "cosmo_cavitation_energy": 41.12, 
			 "cosmo_dispersion_energy": -26.81, 
			 "cosmo_repulsion_energy": 2.05, 
			 "cosmo_total_nonelectrostatic_energy": 16.36, 
			 "SMD_solvation_energy": 8.73 
		},
		"coords": [
			{
				"x": -2.6026043334,
				"y": 0.3164995063,
				"z": -2.7560402106,
				"element": "C" 
			},
			{
				"x": -1.6547575234,
				"y": -0.336672404,
				"z": -1.7921055621,
				"element": "C" 
			},
			{
				"x": -0.3199215505,
				"y": -0.1005390631,
				"z": -1.9320829775,
				"element": "O" 
			},
			{
				"x": 0.1466915678,
				"y": 1.0315444651,
				"z": -2.6723074525,
				"element": "C" 
			},
			{
				"x": -0.0667066871,
				"y": 2.3971478932,
				"z": -1.9883831154,
				"element": "C" 
			},
			{
				"x": -0.5656874694,
				"y": 3.2894783328,
				"z": -2.6602148039,
				"element": "O" 
			},
			{
				"x": 0.3753048487,
				"y": 2.6204442666,
				"z": -0.5843040112,
				"element": "C" 
			},
			{
				"x": 0.1676481956,
				"y": 3.8983634557,
				"z": -0.0344802126,
				"element": "C" 
			},
			{
				"x": 0.5800786045,
				"y": 4.1813874671,
				"z": 1.2623413846,
				"element": "C" 
			},
			{
				"x": 1.2058232838,
				"y": 3.1909173449,
				"z": 2.0271586996,
				"element": "C" 
			},
			{
				"x": 1.4149450724,
				"y": 1.9191147256,
				"z": 1.4908365542,
				"element": "C" 
			},
			{
				"x": 1.0025820241,
				"y": 1.6301435446,
				"z": 0.1905440532,
				"element": "C" 
			},
			{
				"x": -2.0370229722,
				"y": -1.1997418017,
				"z": -0.8035331952,
				"element": "C" 
			},
			{
				"x": -3.4380479334,
				"y": -1.4568196037,
				"z": -0.6582189064,
				"element": "C" 
			},
			{
				"x": -4.5724815334,
				"y": -1.6781383561,
				"z": -0.5087828815,
				"element": "N" 
			},
			{
				"x": -1.1403892196,
				"y": -1.8826121776,
				"z": 0.1712871064,
				"element": "C" 
			},
			{
				"x": 0.1510013961,
				"y": -2.3235511296,
				"z": -0.1694374474,
				"element": "C" 
			},
			{
				"x": 0.9526491535,
				"y": -2.9686296529,
				"z": 0.7719708898,
				"element": "C" 
			},
			{
				"x": 0.4842457724,
				"y": -3.1939005028,
				"z": 2.0675730636,
				"element": "C" 
			},
			{
				"x": -0.8020582024,
				"y": -2.7755487223,
				"z": 2.4123736259,
				"element": "C" 
			},
			{
				"x": -1.6066775146,
				"y": -2.1318539738,
				"z": 1.4744832466,
				"element": "C" 
			},
			{
				"x": -3.6293799216,
				"y": 0.0277392918,
				"z": -2.5361069431,
				"element": "H" 
			},
			{
				"x": -2.3731292754,
				"y": 0.0095334968,
				"z": -3.7839463458,
				"element": "H" 
			},
			{
				"x": -2.5333991172,
				"y": 1.408171162,
				"z": -2.719528267,
				"element": "H" 
			},
			{
				"x": -0.3118640475,
				"y": 1.0925204295,
				"z": -3.6614947807,
				"element": "H" 
			},
			{
				"x": 1.219855384,
				"y": 0.8543524629,
				"z": -2.7956444961,
				"element": "H" 
			},
			{
				"x": -0.3162396599,
				"y": 4.6500495365,
				"z": -0.6489190252,
				"element": "H" 
			},
			{
				"x": 0.4165702674,
				"y": 5.1701713924,
				"z": 1.680465813,
				"element": "H" 
			},
			{
				"x": 1.5268606202,
				"y": 3.410923476,
				"z": 3.0413917815,
				"element": "H" 
			},
			{
				"x": 1.8929588281,
				"y": 1.1474156602,
				"z": 2.0863285469,
				"element": "H" 
			},
			{
				"x": 1.1488678131,
				"y": 0.6322985869,
				"z": -0.2049384827,
				"element": "H" 
			},
			{
				"x": 0.5218966431,
				"y": -2.1721269552,
				"z": -1.1752384421,
				"element": "H" 
			},
			{
				"x": 1.9447058917,
				"y": -3.3067784009,
				"z": 0.4854387055,
				"element": "H" 
			},
			{
				"x": 1.1109678123,
				"y": -3.6986416973,
				"z": 2.7970759773,
				"element": "H" 
			},
			{
				"x": -1.1839092673,
				"y": -2.952045658,
				"z": 3.4138295414,
				"element": "H" 
			},
			{
				"x": -2.6088769506,
				"y": -1.8187163978,
				"z": 1.7508085697,
				"element": "H" 
			}
		],
		 "valence_orbital": [ 
			{
				"type": "occ",
				"energy": -0.27017,
				"method": "rhf"
			},
			{
				"type": "occ",
				"energy": -0.26756,
				"method": "rhf"
			},
			{
				"type": "occ",
				"energy": -0.26555,
				"method": "rhf"
			},
			{
				"type": "occ",
				"energy": -0.25329,
				"method": "rhf"
			},
			{
				"type": "occ",
				"energy": -0.2201,
				"method": "rhf"
			},
			{
				"type": "unocc",
				"energy": -0.07602,
				"method": "rhf"
			},
			{
				"type": "unocc",
				"energy": -0.04175,
				"method": "rhf"
			},
			{
				"type": "unocc",
				"energy": -0.01691,
				"method": "rhf"
			},
			{
				"type": "unocc",
				"energy": -0.00462,
				"method": "rhf"
			},
			{
				"type": "unocc",
				"energy": 0.00725,
				"method": "rhf"
			}
		],
		"cosmo_sigma_profile": { 
			"-0.025": 0.0,
			"-0.024": 0.0,
			"-0.023": 0.0,
			"-0.022": 0.0,
			"-0.021": 0.0,
			"-0.02": 0.0,
			"-0.019": 0.0,
			"-0.018": 0.0,
			"-0.017": 0.0,
			"-0.016": 0.0,
			"-0.015": 0.0,
			"-0.014": 0.0,
			"-0.013": 0.0,
			"-0.012": 0.0,
			"-0.011": 0.0,
			"-0.01": 0.0217871805189,
			"-0.009": 2.32356974001,
			"-0.008": 5.82084322968,
			"-0.007": 8.2829367905,
			"-0.006": 18.347906407,
			"-0.005": 26.4596365927,
			"-0.004": 29.201687947,
			"-0.003": 28.0081210957,
			"-0.002": 23.8334364108,
			"-0.001": 21.3143123966,
			"0.0": 23.5812570836,
			"0.001": 24.8809149302,
			"0.002": 25.5470930233,
			"0.003": 24.5170485214,
			"0.004": 20.1399618585,
			"0.005": 12.2496936286,
			"0.006": 4.86550401726,
			"0.007": 3.03732877043,
			"0.008": 4.51136957116,
			"0.009": 4.26134251665,
			"0.01": 5.26530611661,
			"0.011": 6.86796972292,
			"0.012": 3.83570957463,
			"0.013": 2.56564502869,
			"0.014": 0.911381549454,
			"0.015": 0.0,
			"0.016": 0.0,
			"0.017": 0.0,
			"0.018": 0.0,
			"0.019": 0.0,
			"0.02": 0.0,
			"0.021": 0.0,
			"0.022": 0.0,
			"0.023": 0.0,
			"0.024": 0.0,
			"0.025": 0.0
		}
	}
}
