{
	 "smiles": "CCC1CCC2=C(C1)SC(=O)N2", 
	 "Tm": 418.15, 
	 "num_atms": 25, 
	 "gaussian": { 
		 "optdone": 1, 
		 "sigma_profile": "yes", 
		 "theory": "DFT", 
		 "functional": "B3LYP", 
		 "basiset": "6-31G**", 
		 "properties": { 
			 "R2extent": 4145.6016, 
			 "electric_dipole_moment_norm": 5.15977770645, 
			 "electric_quadrupole_moment_norm": 31.6340390806, 
			 "total_energy": -878.984164997, 
			 "HOMO_LUMO_gap": 0.21605, 
			 "cosmo_polarized_energy": -11.24, 
			 "cosmo_cavitation_energy": 27.87, 
			 "cosmo_dispersion_energy": -21.01, 
			 "cosmo_repulsion_energy": 1.63, 
			 "cosmo_total_nonelectrostatic_energy": 8.5, 
			 "SMD_solvation_energy": 4.53 
		},
		"coords": [
			{
				"x": 2.1189864994,
				"y": 0.271494799,
				"z": -0.5623992453,
				"element": "C" 
			},
			{
				"x": 0.7135961294,
				"y": 0.3097770366,
				"z": 0.048636921,
				"element": "C" 
			},
			{
				"x": -0.0644466496,
				"y": -1.0201360667,
				"z": -0.0447070462,
				"element": "C" 
			},
			{
				"x": -0.2884397713,
				"y": -1.508087509,
				"z": -1.4938796667,
				"element": "C" 
			},
			{
				"x": -1.1629040002,
				"y": -0.5466669212,
				"z": -2.3217338951,
				"element": "C" 
			},
			{
				"x": -2.3460562889,
				"y": -0.1059211873,
				"z": -1.5122578416,
				"element": "C" 
			},
			{
				"x": -2.4599755198,
				"y": -0.2687341814,
				"z": -0.178503717,
				"element": "C" 
			},
			{
				"x": -1.4265312049,
				"y": -0.9299043753,
				"z": 0.689074006,
				"element": "C" 
			},
			{
				"x": -3.9946529703,
				"y": 0.3831050124,
				"z": 0.4184309314,
				"element": "S" 
			},
			{
				"x": -4.4771733088,
				"y": 0.9054774972,
				"z": -1.2575821916,
				"element": "C" 
			},
			{
				"x": -5.5050459826,
				"y": 1.4650441751,
				"z": -1.5716058427,
				"element": "O" 
			},
			{
				"x": -3.4413720837,
				"y": 0.5363553976,
				"z": -2.0929961894,
				"element": "N" 
			},
			{
				"x": 2.647553282,
				"y": 1.2126233476,
				"z": -0.3802732932,
				"element": "H" 
			},
			{
				"x": 2.096117254,
				"y": 0.1170575513,
				"z": -1.6461816176,
				"element": "H" 
			},
			{
				"x": 2.7199948544,
				"y": -0.5349914009,
				"z": -0.1261159572,
				"element": "H" 
			},
			{
				"x": 0.1300185373,
				"y": 1.115816158,
				"z": -0.413388986,
				"element": "H" 
			},
			{
				"x": 0.7974291624,
				"y": 0.5758323681,
				"z": 1.1101610212,
				"element": "H" 
			},
			{
				"x": 0.5345904029,
				"y": -1.7844453644,
				"z": 0.469221892,
				"element": "H" 
			},
			{
				"x": -0.7819675127,
				"y": -2.48698844,
				"z": -1.456895224,
				"element": "H" 
			},
			{
				"x": 0.6689726891,
				"y": -1.6620828991,
				"z": -2.0010798331,
				"element": "H" 
			},
			{
				"x": -0.5809860706,
				"y": 0.3298469964,
				"z": -2.6422182309,
				"element": "H" 
			},
			{
				"x": -1.494641738,
				"y": -1.044809366,
				"z": -3.242447747,
				"element": "H" 
			},
			{
				"x": -1.7662858809,
				"y": -1.9367537885,
				"z": 0.9710536311,
				"element": "H" 
			},
			{
				"x": -1.3061856757,
				"y": -0.376458127,
				"z": 1.6288000963,
				"element": "H" 
			},
			{
				"x": -3.5216941527,
				"y": 0.7389492875,
				"z": -3.0796119743,
				"element": "H" 
			}
		],
		 "valence_orbital": [ 
			{
				"type": "occ",
				"energy": -0.32432,
				"method": "rhf"
			},
			{
				"type": "occ",
				"energy": -0.31751,
				"method": "rhf"
			},
			{
				"type": "occ",
				"energy": -0.28214,
				"method": "rhf"
			},
			{
				"type": "occ",
				"energy": -0.26091,
				"method": "rhf"
			},
			{
				"type": "occ",
				"energy": -0.20367,
				"method": "rhf"
			},
			{
				"type": "unocc",
				"energy": 0.01238,
				"method": "rhf"
			},
			{
				"type": "unocc",
				"energy": 0.01682,
				"method": "rhf"
			},
			{
				"type": "unocc",
				"energy": 0.04281,
				"method": "rhf"
			},
			{
				"type": "unocc",
				"energy": 0.06729,
				"method": "rhf"
			},
			{
				"type": "unocc",
				"energy": 0.07675,
				"method": "rhf"
			}
		],
		"cosmo_sigma_profile": { 
			"-0.025": 0.0,
			"-0.024": 0.0,
			"-0.023": 0.0,
			"-0.022": 0.0,
			"-0.021": 0.0,
			"-0.02": 0.0,
			"-0.019": 0.0,
			"-0.018": 0.0,
			"-0.017": 0.0789855317763,
			"-0.016": 0.95475053197,
			"-0.015": 1.16232938445,
			"-0.014": 0.778763941274,
			"-0.013": 1.09341602459,
			"-0.012": 1.12398687567,
			"-0.011": 1.02164165747,
			"-0.01": 0.953806492289,
			"-0.009": 1.11799467839,
			"-0.008": 1.10342118497,
			"-0.007": 1.42922752087,
			"-0.006": 2.03155406413,
			"-0.005": 3.38180275724,
			"-0.004": 9.17003997946,
			"-0.003": 24.7413139922,
			"-0.002": 33.7866893942,
			"-0.001": 28.8056290003,
			"0.0": 26.3287562623,
			"0.001": 23.1767772812,
			"0.002": 14.4909661071,
			"0.003": 9.9284561997,
			"0.004": 6.35012847444,
			"0.005": 5.18389402587,
			"0.006": 3.29546714869,
			"0.007": 1.75287822086,
			"0.008": 1.07013923327,
			"0.009": 1.42527333293,
			"0.01": 1.38514456301,
			"0.011": 2.31800526416,
			"0.012": 4.89573494232,
			"0.013": 5.11366865794,
			"0.014": 0.349983524981,
			"0.015": 0.0,
			"0.016": 0.0,
			"0.017": 0.0,
			"0.018": 0.0,
			"0.019": 0.0,
			"0.02": 0.0,
			"0.021": 0.0,
			"0.022": 0.0,
			"0.023": 0.0,
			"0.024": 0.0,
			"0.025": 0.0
		}
	}
}
