{
	 "smiles": "NC1=CC(CCCC2=CC=CS2)=NO1", 
	 "Tm": 317.15, 
	 "num_atms": 26, 
	 "gaussian": { 
		 "optdone": 1, 
		 "sigma_profile": "yes", 
		 "theory": "DFT", 
		 "functional": "B3LYP", 
		 "basiset": "6-31G**", 
		 "properties": { 
			 "R2extent": 5612.7326, 
			 "electric_dipole_moment_norm": 4.23124349335, 
			 "electric_quadrupole_moment_norm": 9.58124613242, 
			 "total_energy": -971.153648489, 
			 "HOMO_LUMO_gap": 0.20529, 
			 "cosmo_polarized_energy": -15.21, 
			 "cosmo_cavitation_energy": 31.87, 
			 "cosmo_dispersion_energy": -23.16, 
			 "cosmo_repulsion_energy": 1.81, 
			 "cosmo_total_nonelectrostatic_energy": 10.52, 
			 "SMD_solvation_energy": 4.94 
		},
		"coords": [
			{
				"x": -2.8618770503,
				"y": -2.5315032198,
				"z": 0.909390018,
				"element": "N" 
			},
			{
				"x": -1.8460378866,
				"y": -1.8095552761,
				"z": 0.3275181163,
				"element": "C" 
			},
			{
				"x": -1.2947719057,
				"y": -0.5814959133,
				"z": 0.5844267299,
				"element": "C" 
			},
			{
				"x": -0.339196057,
				"y": -0.4241367696,
				"z": -0.4612176432,
				"element": "C" 
			},
			{
				"x": 0.5938326298,
				"y": 0.7283063462,
				"z": -0.6978244304,
				"element": "C" 
			},
			{
				"x": 1.6943425138,
				"y": 0.8311635755,
				"z": 0.3733771972,
				"element": "C" 
			},
			{
				"x": 2.6730004751,
				"y": 2.0057056106,
				"z": 0.1510264157,
				"element": "C" 
			},
			{
				"x": 2.0607895911,
				"y": 3.3735786132,
				"z": 0.3100504217,
				"element": "C" 
			},
			{
				"x": 1.7696166454,
				"y": 4.0424242835,
				"z": 1.4722142177,
				"element": "C" 
			},
			{
				"x": 1.1703967993,
				"y": 5.3223844612,
				"z": 1.2650026102,
				"element": "C" 
			},
			{
				"x": 1.0097244853,
				"y": 5.6233916307,
				"z": -0.0588855967,
				"element": "C" 
			},
			{
				"x": 1.5913473742,
				"y": 4.3393145991,
				"z": -1.0698386598,
				"element": "S" 
			},
			{
				"x": -0.3068360343,
				"y": -1.4574461236,
				"z": -1.274932106,
				"element": "N" 
			},
			{
				"x": -1.2831722988,
				"y": -2.3571113924,
				"z": -0.7618166479,
				"element": "O" 
			},
			{
				"x": -2.8475184162,
				"y": -3.5192520074,
				"z": 0.6926421099,
				"element": "H" 
			},
			{
				"x": -3.0184501238,
				"y": -2.3386958696,
				"z": 1.8880261801,
				"element": "H" 
			},
			{
				"x": -1.5408722844,
				"y": 0.1082419619,
				"z": 1.3765729905,
				"element": "H" 
			},
			{
				"x": 0.0166450338,
				"y": 1.659738591,
				"z": -0.7242875543,
				"element": "H" 
			},
			{
				"x": 1.0484620385,
				"y": 0.6005366739,
				"z": -1.6862669597,
				"element": "H" 
			},
			{
				"x": 2.2675736751,
				"y": -0.1037420105,
				"z": 0.3824504844,
				"element": "H" 
			},
			{
				"x": 1.2372552675,
				"y": 0.9296141108,
				"z": 1.3653498805,
				"element": "H" 
			},
			{
				"x": 3.4931300457,
				"y": 1.9128573501,
				"z": 0.8731581269,
				"element": "H" 
			},
			{
				"x": 3.1297783494,
				"y": 1.9112907501,
				"z": -0.8414853599,
				"element": "H" 
			},
			{
				"x": 1.986426327,
				"y": 3.6319531277,
				"z": 2.4533068012,
				"element": "H" 
			},
			{
				"x": 0.8791880162,
				"y": 5.9905282784,
				"z": 2.0678973657,
				"element": "H" 
			},
			{
				"x": 0.59412279,
				"y": 6.5180086186,
				"z": -0.5011547081,
				"element": "H" 
			}
		],
		 "valence_orbital": [ 
			{
				"type": "occ",
				"energy": -0.28947,
				"method": "rhf"
			},
			{
				"type": "occ",
				"energy": -0.27338,
				"method": "rhf"
			},
			{
				"type": "occ",
				"energy": -0.24695,
				"method": "rhf"
			},
			{
				"type": "occ",
				"energy": -0.22401,
				"method": "rhf"
			},
			{
				"type": "occ",
				"energy": -0.21341,
				"method": "rhf"
			},
			{
				"type": "unocc",
				"energy": -0.00812,
				"method": "rhf"
			},
			{
				"type": "unocc",
				"energy": 0.01819,
				"method": "rhf"
			},
			{
				"type": "unocc",
				"energy": 0.03152,
				"method": "rhf"
			},
			{
				"type": "unocc",
				"energy": 0.05981,
				"method": "rhf"
			},
			{
				"type": "unocc",
				"energy": 0.06694,
				"method": "rhf"
			}
		],
		"cosmo_sigma_profile": { 
			"-0.025": 0.0,
			"-0.024": 0.0,
			"-0.023": 0.0,
			"-0.022": 0.0,
			"-0.021": 0.0,
			"-0.02": 0.0,
			"-0.019": 0.0,
			"-0.018": 0.0,
			"-0.017": 0.0,
			"-0.016": 0.0,
			"-0.015": 0.347857659201,
			"-0.014": 2.50993973464,
			"-0.013": 2.4212303187,
			"-0.012": 2.44915394937,
			"-0.011": 3.11190610183,
			"-0.01": 2.2750374257,
			"-0.009": 2.69202713668,
			"-0.008": 3.01437837663,
			"-0.007": 5.52240057323,
			"-0.006": 8.02234422038,
			"-0.005": 10.1194361371,
			"-0.004": 18.9583241651,
			"-0.003": 24.6593497606,
			"-0.002": 21.6685551539,
			"-0.001": 20.1931109482,
			"0.0": 14.8221862968,
			"0.001": 12.6445016795,
			"0.002": 15.2933612445,
			"0.003": 16.6502421821,
			"0.004": 15.7957863265,
			"0.005": 15.6601388505,
			"0.006": 9.59072721708,
			"0.007": 4.97777934231,
			"0.008": 3.08163343267,
			"0.009": 5.5971172474,
			"0.01": 3.02810962873,
			"0.011": 2.55730280923,
			"0.012": 1.65942096499,
			"0.013": 1.94408225496,
			"0.014": 1.24420404638,
			"0.015": 1.44570529414,
			"0.016": 0.577647564982,
			"0.017": 0.0,
			"0.018": 0.0,
			"0.019": 0.0,
			"0.02": 0.0,
			"0.021": 0.0,
			"0.022": 0.0,
			"0.023": 0.0,
			"0.024": 0.0,
			"0.025": 0.0
		}
	}
}
