{
	 "smiles": "CCCCN1C(SCC(O)=O)=NC2=C1C=CC(=C2)C(F)(F)F", 
	 "Tm": 394.15, 
	 "num_atms": 37, 
	 "gaussian": { 
		 "optdone": 1, 
		 "sigma_profile": "yes", 
		 "theory": "DFT", 
		 "functional": "B3LYP", 
		 "basiset": "6-31G**", 
		 "properties": { 
			 "R2extent": 10376.5839, 
			 "electric_dipole_moment_norm": 6.29622301463, 
			 "electric_quadrupole_moment_norm": 14.5589130209, 
			 "total_energy": -1500.23099693, 
			 "HOMO_LUMO_gap": 0.19557, 
			 "cosmo_polarized_energy": -16.8, 
			 "cosmo_cavitation_energy": 44.18, 
			 "cosmo_dispersion_energy": -30.18, 
			 "cosmo_repulsion_energy": 2.25, 
			 "cosmo_total_nonelectrostatic_energy": 16.25, 
			 "SMD_solvation_energy": 7.67 
		},
		"coords": [
			{
				"x": -2.783460925,
				"y": 4.2833320671,
				"z": 0.1160980403,
				"element": "C" 
			},
			{
				"x": -3.3111857321,
				"y": 2.9179768006,
				"z": -0.3427828537,
				"element": "C" 
			},
			{
				"x": -2.2306431539,
				"y": 1.9570468154,
				"z": -0.8646488252,
				"element": "C" 
			},
			{
				"x": -1.2482758458,
				"y": 1.4953363014,
				"z": 0.2224122011,
				"element": "C" 
			},
			{
				"x": -0.2397089938,
				"y": 0.5639416801,
				"z": -0.2750910413,
				"element": "N" 
			},
			{
				"x": -0.3087963899,
				"y": -0.8165494545,
				"z": -0.3167622357,
				"element": "C" 
			},
			{
				"x": -1.7133121544,
				"y": -1.6733042699,
				"z": 0.3229875171,
				"element": "S" 
			},
			{
				"x": -1.1213520367,
				"y": -3.3800045518,
				"z": 0.0644190764,
				"element": "C" 
			},
			{
				"x": 0.0536668047,
				"y": -3.8701256747,
				"z": 0.8990679066,
				"element": "C" 
			},
			{
				"x": 0.2805267211,
				"y": -3.1502159581,
				"z": 2.0135471651,
				"element": "O" 
			},
			{
				"x": 0.6829578498,
				"y": -4.857791374,
				"z": 0.5994188619,
				"element": "O" 
			},
			{
				"x": 0.7388305641,
				"y": -1.3926549897,
				"z": -0.8544321924,
				"element": "N" 
			},
			{
				"x": 1.5706462887,
				"y": -0.3409614583,
				"z": -1.2094913037,
				"element": "C" 
			},
			{
				"x": 0.9742972719,
				"y": 0.8945473932,
				"z": -0.8623105749,
				"element": "C" 
			},
			{
				"x": 1.5982802129,
				"y": 2.1199298231,
				"z": -1.1047397978,
				"element": "C" 
			},
			{
				"x": 2.8508647168,
				"y": 2.0804773337,
				"z": -1.7084873121,
				"element": "C" 
			},
			{
				"x": 3.456305182,
				"y": 0.8556682481,
				"z": -2.0580643004,
				"element": "C" 
			},
			{
				"x": 2.829021768,
				"y": -0.3651460932,
				"z": -1.8155565821,
				"element": "C" 
			},
			{
				"x": 4.7864441717,
				"y": 0.8914148497,
				"z": -2.7569237766,
				"element": "C" 
			},
			{
				"x": 4.6591667576,
				"y": 1.2163387375,
				"z": -4.067011905,
				"element": "F" 
			},
			{
				"x": 5.4241214063,
				"y": -0.2983602917,
				"z": -2.7081033465,
				"element": "F" 
			},
			{
				"x": 5.6140490606,
				"y": 1.8166030728,
				"z": -2.214210781,
				"element": "F" 
			},
			{
				"x": -2.2349579426,
				"y": 4.7852245756,
				"z": -0.6893221542,
				"element": "H" 
			},
			{
				"x": -2.1100480435,
				"y": 4.2010323478,
				"z": 0.9760152123,
				"element": "H" 
			},
			{
				"x": -3.6070120377,
				"y": 4.9397276849,
				"z": 0.4139244739,
				"element": "H" 
			},
			{
				"x": -3.8575305778,
				"y": 2.4375501787,
				"z": 0.480339239,
				"element": "H" 
			},
			{
				"x": -4.0459501511,
				"y": 3.0700439758,
				"z": -1.1421284954,
				"element": "H" 
			},
			{
				"x": -1.6659315791,
				"y": 2.4345679214,
				"z": -1.6755342159,
				"element": "H" 
			},
			{
				"x": -2.707708884,
				"y": 1.0694100517,
				"z": -1.296249386,
				"element": "H" 
			},
			{
				"x": -1.7860006861,
				"y": 1.0033748728,
				"z": 1.0402406309,
				"element": "H" 
			},
			{
				"x": -0.7156416514,
				"y": 2.3434827515,
				"z": 0.6622724682,
				"element": "H" 
			},
			{
				"x": -1.9858476403,
				"y": -4.0136123858,
				"z": 0.2874209556,
				"element": "H" 
			},
			{
				"x": -0.8520408359,
				"y": -3.5184365354,
				"z": -0.9824606116,
				"element": "H" 
			},
			{
				"x": 1.0421308657,
				"y": -3.5677429819,
				"z": 2.4500295493,
				"element": "H" 
			},
			{
				"x": 1.1387975278,
				"y": 3.0661584177,
				"z": -0.8380160794,
				"element": "H" 
			},
			{
				"x": 3.3790150639,
				"y": 3.0062172529,
				"z": -1.909329487,
				"element": "H" 
			},
			{
				"x": 3.2985830276,
				"y": -1.3047971344,
				"z": -2.0807360397,
				"element": "H" 
			}
		],
		 "valence_orbital": [ 
			{
				"type": "occ",
				"energy": -0.29356,
				"method": "rhf"
			},
			{
				"type": "occ",
				"energy": -0.28666,
				"method": "rhf"
			},
			{
				"type": "occ",
				"energy": -0.27342,
				"method": "rhf"
			},
			{
				"type": "occ",
				"energy": -0.23829,
				"method": "rhf"
			},
			{
				"type": "occ",
				"energy": -0.22163,
				"method": "rhf"
			},
			{
				"type": "unocc",
				"energy": -0.02606,
				"method": "rhf"
			},
			{
				"type": "unocc",
				"energy": -0.00598,
				"method": "rhf"
			},
			{
				"type": "unocc",
				"energy": -0.00023,
				"method": "rhf"
			},
			{
				"type": "unocc",
				"energy": 0.01157,
				"method": "rhf"
			},
			{
				"type": "unocc",
				"energy": 0.04047,
				"method": "rhf"
			}
		],
		"cosmo_sigma_profile": { 
			"-0.025": 0.0,
			"-0.024": 0.0,
			"-0.023": 0.0,
			"-0.022": 0.0,
			"-0.021": 0.0,
			"-0.02": 0.0,
			"-0.019": 0.381734360147,
			"-0.018": 0.889933200288,
			"-0.017": 1.17731489028,
			"-0.016": 0.435320728609,
			"-0.015": 0.827374756238,
			"-0.014": 0.467963436445,
			"-0.013": 1.4457688108,
			"-0.012": 0.673680377847,
			"-0.011": 0.520239670339,
			"-0.01": 3.32829313558,
			"-0.009": 2.7216274488,
			"-0.008": 3.8566328267,
			"-0.007": 9.06286704896,
			"-0.006": 11.9024771853,
			"-0.005": 16.3473570787,
			"-0.004": 16.9544794567,
			"-0.003": 26.5776996094,
			"-0.002": 30.3246305043,
			"-0.001": 30.0311694141,
			"0.0": 29.6604546466,
			"0.001": 28.6479381357,
			"0.002": 28.3487356398,
			"0.003": 46.9928653174,
			"0.004": 18.3585565369,
			"0.005": 6.83871506956,
			"0.006": 6.58961464744,
			"0.007": 5.4141235177,
			"0.008": 4.58362088849,
			"0.009": 4.237498505,
			"0.01": 4.89744837066,
			"0.011": 5.90097296393,
			"0.012": 3.42567557935,
			"0.013": 0.134296008954,
			"0.014": 0.0,
			"0.015": 0.0,
			"0.016": 0.0,
			"0.017": 0.0,
			"0.018": 0.0,
			"0.019": 0.0,
			"0.02": 0.0,
			"0.021": 0.0,
			"0.022": 0.0,
			"0.023": 0.0,
			"0.024": 0.0,
			"0.025": 0.0
		}
	}
}
