{
	 "smiles": "CC(C)(C)N1N=CNC1=O", 
	 "Tm": 493.15, 
	 "num_atms": 21, 
	 "gaussian": { 
		 "optdone": 1, 
		 "sigma_profile": "yes", 
		 "theory": "DFT", 
		 "functional": "B3LYP", 
		 "basiset": "6-31G**", 
		 "properties": { 
			 "R2extent": 1401.154, 
			 "electric_dipole_moment_norm": 2.46265979989, 
			 "electric_quadrupole_moment_norm": 13.1277351714, 
			 "total_energy": -474.756643046, 
			 "HOMO_LUMO_gap": 0.23581, 
			 "cosmo_polarized_energy": -12.91, 
			 "cosmo_cavitation_energy": 23.3, 
			 "cosmo_dispersion_energy": -16.98, 
			 "cosmo_repulsion_energy": 1.37, 
			 "cosmo_total_nonelectrostatic_energy": 7.69, 
			 "SMD_solvation_energy": 4.77 
		},
		"coords": [
			{
				"x": 0.2187829879,
				"y": -1.0562707247,
				"z": 2.0812024322,
				"element": "C" 
			},
			{
				"x": 0.9621627774,
				"y": -0.5637673196,
				"z": 0.8341168067,
				"element": "C" 
			},
			{
				"x": 2.2076768865,
				"y": 0.2468738879,
				"z": 1.2399870526,
				"element": "C" 
			},
			{
				"x": 1.3579181224,
				"y": -1.7559238068,
				"z": -0.0577241769,
				"element": "C" 
			},
			{
				"x": 0.0588644045,
				"y": 0.3249879289,
				"z": 0.0539208928,
				"element": "N" 
			},
			{
				"x": -1.2298718883,
				"y": 0.6059642896,
				"z": 0.4610829378,
				"element": "N" 
			},
			{
				"x": -1.7061798088,
				"y": 1.3980581145,
				"z": -0.4497099211,
				"element": "C" 
			},
			{
				"x": -0.7874187216,
				"y": 1.6488584123,
				"z": -1.4376728228,
				"element": "N" 
			},
			{
				"x": 0.3904143997,
				"y": 0.9551435483,
				"z": -1.1350089679,
				"element": "C" 
			},
			{
				"x": 1.4333303779,
				"y": 0.9303664865,
				"z": -1.7768974205,
				"element": "O" 
			},
			{
				"x": -0.0849253671,
				"y": -0.2254054522,
				"z": 2.7222192838,
				"element": "H" 
			},
			{
				"x": -0.6771256385,
				"y": -1.6230322983,
				"z": 1.8174143478,
				"element": "H" 
			},
			{
				"x": 0.8896410726,
				"y": -1.7079906785,
				"z": 2.6489019378,
				"element": "H" 
			},
			{
				"x": 1.9265529627,
				"y": 1.0868679864,
				"z": 1.8831770485,
				"element": "H" 
			},
			{
				"x": 2.7189029216,
				"y": 0.6351465096,
				"z": 0.3566249956,
				"element": "H" 
			},
			{
				"x": 2.9023463226,
				"y": -0.3919321545,
				"z": 1.7945384479,
				"element": "H" 
			},
			{
				"x": 2.0445603467,
				"y": -2.4138506767,
				"z": 0.4843357749,
				"element": "H" 
			},
			{
				"x": 1.8518156287,
				"y": -1.4087333498,
				"z": -0.9676891555,
				"element": "H" 
			},
			{
				"x": 0.4734402851,
				"y": -2.3378489034,
				"z": -0.3358385221,
				"element": "H" 
			},
			{
				"x": -2.7047416963,
				"y": 1.8095184029,
				"z": -0.4331959097,
				"element": "H" 
			},
			{
				"x": -0.8889463757,
				"y": 2.2265697977,
				"z": -2.2566850619,
				"element": "H" 
			}
		],
		 "valence_orbital": [ 
			{
				"type": "occ",
				"energy": -0.33519,
				"method": "rhf"
			},
			{
				"type": "occ",
				"energy": -0.32114,
				"method": "rhf"
			},
			{
				"type": "occ",
				"energy": -0.30478,
				"method": "rhf"
			},
			{
				"type": "occ",
				"energy": -0.25502,
				"method": "rhf"
			},
			{
				"type": "occ",
				"energy": -0.21707,
				"method": "rhf"
			},
			{
				"type": "unocc",
				"energy": 0.01874,
				"method": "rhf"
			},
			{
				"type": "unocc",
				"energy": 0.06136,
				"method": "rhf"
			},
			{
				"type": "unocc",
				"energy": 0.0764,
				"method": "rhf"
			},
			{
				"type": "unocc",
				"energy": 0.09506,
				"method": "rhf"
			},
			{
				"type": "unocc",
				"energy": 0.1196,
				"method": "rhf"
			}
		],
		"cosmo_sigma_profile": { 
			"-0.025": 0.0,
			"-0.024": 0.0,
			"-0.023": 0.0,
			"-0.022": 0.0,
			"-0.021": 0.0,
			"-0.02": 0.0,
			"-0.019": 0.0,
			"-0.018": 0.0,
			"-0.017": 1.09028546752,
			"-0.016": 1.60938470548,
			"-0.015": 1.11355314489,
			"-0.014": 1.15167930217,
			"-0.013": 0.991531921618,
			"-0.012": 1.27857312426,
			"-0.011": 1.92507176218,
			"-0.01": 3.60581483445,
			"-0.009": 2.32150998936,
			"-0.008": 2.33492778029,
			"-0.007": 2.02656576279,
			"-0.006": 1.88597129142,
			"-0.005": 2.2294118473,
			"-0.004": 8.65343910693,
			"-0.003": 17.8555017115,
			"-0.002": 15.1762888821,
			"-0.001": 21.1046840463,
			"0.0": 27.6580834395,
			"0.001": 22.1144099454,
			"0.002": 6.63224662887,
			"0.003": 3.49021690717,
			"0.004": 3.66271631008,
			"0.005": 3.52103625163,
			"0.006": 3.84189911955,
			"0.007": 3.03579880667,
			"0.008": 3.24479593662,
			"0.009": 2.26722892294,
			"0.01": 2.30473350535,
			"0.011": 2.89084388607,
			"0.012": 2.22425133346,
			"0.013": 3.05188584201,
			"0.014": 5.25532493909,
			"0.015": 1.03459203815,
			"0.016": 0.0,
			"0.017": 0.0,
			"0.018": 0.0,
			"0.019": 0.0,
			"0.02": 0.0,
			"0.021": 0.0,
			"0.022": 0.0,
			"0.023": 0.0,
			"0.024": 0.0,
			"0.025": 0.0
		}
	}
}
