{
	 "smiles": "OCC1=CN=C(O1)C1=CC=CO1", 
	 "Tm": 373.15, 
	 "num_atms": 19, 
	 "gaussian": { 
		 "optdone": 1, 
		 "sigma_profile": "yes", 
		 "theory": "DFT", 
		 "functional": "B3LYP", 
		 "basiset": "6-31G**", 
		 "properties": { 
			 "R2extent": 2702.1823, 
			 "electric_dipole_moment_norm": 2.56035314166, 
			 "electric_quadrupole_moment_norm": 9.44627524583, 
			 "total_energy": -589.435557625, 
			 "HOMO_LUMO_gap": 0.17217, 
			 "cosmo_polarized_energy": -12.75, 
			 "cosmo_cavitation_energy": 24.62, 
			 "cosmo_dispersion_energy": -18.15, 
			 "cosmo_repulsion_energy": 1.46, 
			 "cosmo_total_nonelectrostatic_energy": 7.94, 
			 "SMD_solvation_energy": 4.07 
		},
		"coords": [
			{
				"x": 1.8181094642,
				"y": -2.3896690202,
				"z": -3.542024557,
				"element": "O" 
			},
			{
				"x": 0.5632478039,
				"y": -2.8549377078,
				"z": -3.0545277624,
				"element": "C" 
			},
			{
				"x": 0.2915575903,
				"y": -2.4707120558,
				"z": -1.6416261002,
				"element": "C" 
			},
			{
				"x": 0.2255071171,
				"y": -3.1157194049,
				"z": -0.4463655082,
				"element": "C" 
			},
			{
				"x": -0.0498393836,
				"y": -2.215233804,
				"z": 0.5688108623,
				"element": "N" 
			},
			{
				"x": -0.1327747874,
				"y": -1.0644447955,
				"z": -0.0378045026,
				"element": "C" 
			},
			{
				"x": 0.0591581929,
				"y": -1.1328162831,
				"z": -1.3891717326,
				"element": "O" 
			},
			{
				"x": -0.3952746423,
				"y": 0.240764458,
				"z": 0.5144478522,
				"element": "C" 
			},
			{
				"x": -0.5077187331,
				"y": 1.4816101779,
				"z": -0.0597216883,
				"element": "C" 
			},
			{
				"x": -0.7754281729,
				"y": 2.3904861998,
				"z": 1.008225375,
				"element": "C" 
			},
			{
				"x": -0.8059892631,
				"y": 1.6385450489,
				"z": 2.1461007547,
				"element": "C" 
			},
			{
				"x": -0.576460699,
				"y": 0.3288348249,
				"z": 1.8640471289,
				"element": "O" 
			},
			{
				"x": 1.8122316201,
				"y": -1.4252812682,
				"z": -3.4816890747,
				"element": "H" 
			},
			{
				"x": 0.5931933688,
				"y": -3.9458463959,
				"z": -3.1170273816,
				"element": "H" 
			},
			{
				"x": -0.2624833075,
				"y": -2.5090861525,
				"z": -3.6961542942,
				"element": "H" 
			},
			{
				"x": 0.356036235,
				"y": -4.1701023294,
				"z": -0.2486790534,
				"element": "H" 
			},
			{
				"x": -0.4115703364,
				"y": 1.7070523728,
				"z": -1.1113147847,
				"element": "H" 
			},
			{
				"x": -0.9250350709,
				"y": 3.4579803461,
				"z": 0.9375629054,
				"element": "H" 
			},
			{
				"x": -0.9703669962,
				"y": 1.8703757888,
				"z": 3.1868115613,
				"element": "H" 
			}
		],
		 "valence_orbital": [ 
			{
				"type": "occ",
				"energy": -0.29497,
				"method": "rhf"
			},
			{
				"type": "occ",
				"energy": -0.29172,
				"method": "rhf"
			},
			{
				"type": "occ",
				"energy": -0.27837,
				"method": "rhf"
			},
			{
				"type": "occ",
				"energy": -0.27578,
				"method": "rhf"
			},
			{
				"type": "occ",
				"energy": -0.21367,
				"method": "rhf"
			},
			{
				"type": "unocc",
				"energy": -0.0415,
				"method": "rhf"
			},
			{
				"type": "unocc",
				"energy": 0.02406,
				"method": "rhf"
			},
			{
				"type": "unocc",
				"energy": 0.049,
				"method": "rhf"
			},
			{
				"type": "unocc",
				"energy": 0.08435,
				"method": "rhf"
			},
			{
				"type": "unocc",
				"energy": 0.10729,
				"method": "rhf"
			}
		],
		"cosmo_sigma_profile": { 
			"-0.025": 0.0,
			"-0.024": 0.0,
			"-0.023": 0.0,
			"-0.022": 0.0,
			"-0.021": 0.0,
			"-0.02": 0.0,
			"-0.019": 0.0,
			"-0.018": 0.0,
			"-0.017": 0.0,
			"-0.016": 0.142308477087,
			"-0.015": 1.02209904509,
			"-0.014": 0.312286778148,
			"-0.013": 0.944191553406,
			"-0.012": 1.1894791145,
			"-0.011": 0.975793262226,
			"-0.01": 0.990817613539,
			"-0.009": 2.92714229037,
			"-0.008": 5.99914131568,
			"-0.007": 10.574646285,
			"-0.006": 11.2438376643,
			"-0.005": 12.8742436813,
			"-0.004": 11.3720413282,
			"-0.003": 10.2611027785,
			"-0.002": 9.69415750794,
			"-0.001": 12.6939000788,
			"0.0": 15.2243018857,
			"0.001": 15.9071143695,
			"0.002": 14.29274075,
			"0.003": 12.610723156,
			"0.004": 11.2646004255,
			"0.005": 4.8518636401,
			"0.006": 3.83360801572,
			"0.007": 3.08500151266,
			"0.008": 4.02609436471,
			"0.009": 3.26944132634,
			"0.01": 2.36134799144,
			"0.011": 3.54672922756,
			"0.012": 2.82208279782,
			"0.013": 3.43074859996,
			"0.014": 2.37201332348,
			"0.015": 1.10441485374,
			"0.016": 0.478284103724,
			"0.017": 0.0,
			"0.018": 0.0,
			"0.019": 0.0,
			"0.02": 0.0,
			"0.021": 0.0,
			"0.022": 0.0,
			"0.023": 0.0,
			"0.024": 0.0,
			"0.025": 0.0
		}
	}
}
