{
	 "smiles": "OC1CCC2=C(C1)C=CC=C2", 
	 "Tm": 288.65, 
	 "num_atms": 23, 
	 "gaussian": { 
		 "optdone": 1, 
		 "sigma_profile": "yes", 
		 "theory": "DFT", 
		 "functional": "B3LYP", 
		 "basiset": "6-31G**", 
		 "properties": { 
			 "R2extent": 1834.4923, 
			 "electric_dipole_moment_norm": 1.42568394815, 
			 "electric_quadrupole_moment_norm": 9.28212806365, 
			 "total_energy": -463.527996832, 
			 "HOMO_LUMO_gap": 0.2323, 
			 "cosmo_polarized_energy": -6.9, 
			 "cosmo_cavitation_energy": 24.3, 
			 "cosmo_dispersion_energy": -18.35, 
			 "cosmo_repulsion_energy": 1.46, 
			 "cosmo_total_nonelectrostatic_energy": 7.41, 
			 "SMD_solvation_energy": 3.26 
		},
		"coords": [
			{
				"x": -3.0185345064,
				"y": -0.3153384881,
				"z": 0.0660128556,
				"element": "O" 
			},
			{
				"x": -2.2102137741,
				"y": 0.6637403758,
				"z": -0.5887630233,
				"element": "C" 
			},
			{
				"x": -1.2383129294,
				"y": 0.0179128854,
				"z": -1.5865551816,
				"element": "C" 
			},
			{
				"x": -0.2689874644,
				"y": -0.9287275525,
				"z": -0.8663053129,
				"element": "C" 
			},
			{
				"x": 0.3219885999,
				"y": -0.3440779731,
				"z": 0.4072591222,
				"element": "C" 
			},
			{
				"x": -0.2491172511,
				"y": 0.7802116552,
				"z": 1.0338770182,
				"element": "C" 
			},
			{
				"x": -1.4268160041,
				"y": 1.5177511621,
				"z": 0.4144501276,
				"element": "C" 
			},
			{
				"x": 0.3027361768,
				"y": 1.2440179349,
				"z": 2.2378087985,
				"element": "C" 
			},
			{
				"x": 1.4068150379,
				"y": 0.6241352193,
				"z": 2.8157958384,
				"element": "C" 
			},
			{
				"x": 1.9784019488,
				"y": -0.4872498318,
				"z": 2.1904169852,
				"element": "C" 
			},
			{
				"x": 1.4337089427,
				"y": -0.9614388975,
				"z": 1.000568121,
				"element": "C" 
			},
			{
				"x": -2.4720262882,
				"y": -0.7480634541,
				"z": 0.7359095947,
				"element": "H" 
			},
			{
				"x": -2.9220182379,
				"y": 1.2996984346,
				"z": -1.1263147856,
				"element": "H" 
			},
			{
				"x": -1.8002503655,
				"y": -0.5305954451,
				"z": -2.3493167136,
				"element": "H" 
			},
			{
				"x": -0.6801050023,
				"y": 0.8124568032,
				"z": -2.0987042989,
				"element": "H" 
			},
			{
				"x": -0.8049233063,
				"y": -1.8549289275,
				"z": -0.6140976244,
				"element": "H" 
			},
			{
				"x": 0.5380928656,
				"y": -1.2324066086,
				"z": -1.5427578145,
				"element": "H" 
			},
			{
				"x": -2.108404514,
				"y": 1.8678441415,
				"z": 1.1982555043,
				"element": "H" 
			},
			{
				"x": -1.0589000715,
				"y": 2.4170194621,
				"z": -0.0997323675,
				"element": "H" 
			},
			{
				"x": -0.1453072384,
				"y": 2.1087943428,
				"z": 2.7224046916,
				"element": "H" 
			},
			{
				"x": 1.8183549421,
				"y": 1.0021760609,
				"z": 3.7473262228,
				"element": "H" 
			},
			{
				"x": 2.8414444875,
				"y": -0.9802729675,
				"z": 2.6288445849,
				"element": "H" 
			},
			{
				"x": 1.8746739521,
				"y": -1.828958332,
				"z": 0.5141176571,
				"element": "H" 
			}
		],
		 "valence_orbital": [ 
			{
				"type": "occ",
				"energy": -0.32459,
				"method": "rhf"
			},
			{
				"type": "occ",
				"energy": -0.30366,
				"method": "rhf"
			},
			{
				"type": "occ",
				"energy": -0.26122,
				"method": "rhf"
			},
			{
				"type": "occ",
				"energy": -0.24323,
				"method": "rhf"
			},
			{
				"type": "occ",
				"energy": -0.23686,
				"method": "rhf"
			},
			{
				"type": "unocc",
				"energy": -0.00456,
				"method": "rhf"
			},
			{
				"type": "unocc",
				"energy": 0.00152,
				"method": "rhf"
			},
			{
				"type": "unocc",
				"energy": 0.08079,
				"method": "rhf"
			},
			{
				"type": "unocc",
				"energy": 0.10115,
				"method": "rhf"
			},
			{
				"type": "unocc",
				"energy": 0.11054,
				"method": "rhf"
			}
		],
		"cosmo_sigma_profile": { 
			"-0.025": 0.0,
			"-0.024": 0.0,
			"-0.023": 0.0,
			"-0.022": 0.0,
			"-0.021": 0.0,
			"-0.02": 0.0,
			"-0.019": 0.0,
			"-0.018": 0.0,
			"-0.017": 0.0,
			"-0.016": 0.0,
			"-0.015": 0.0,
			"-0.014": 0.00786570371131,
			"-0.013": 0.590464737325,
			"-0.012": 0.627793473678,
			"-0.011": 0.699350905079,
			"-0.01": 0.586578928694,
			"-0.009": 0.910212146876,
			"-0.008": 0.735276627524,
			"-0.007": 1.38822180272,
			"-0.006": 1.70433350515,
			"-0.005": 8.16947038608,
			"-0.004": 19.3100228063,
			"-0.003": 27.5333306733,
			"-0.002": 24.2918037706,
			"-0.001": 22.4570057345,
			"0.0": 16.5253749323,
			"0.001": 9.06913785463,
			"0.002": 7.76375181425,
			"0.003": 7.79398119987,
			"0.004": 8.64175621357,
			"0.005": 7.58975036537,
			"0.006": 8.33066438681,
			"0.007": 4.71521603437,
			"0.008": 0.950425464345,
			"0.009": 1.05266867862,
			"0.01": 1.41026066356,
			"0.011": 1.33880673578,
			"0.012": 1.29401720426,
			"0.013": 1.24859517193,
			"0.014": 2.48283452304,
			"0.015": 1.15533956178,
			"0.016": 0.0,
			"0.017": 0.0,
			"0.018": 0.0,
			"0.019": 0.0,
			"0.02": 0.0,
			"0.021": 0.0,
			"0.022": 0.0,
			"0.023": 0.0,
			"0.024": 0.0,
			"0.025": 0.0
		}
	}
}
