{
	 "smiles": "NC(CSCCOC1=CC=CC=C1)C(O)=O", 
	 "Tm": 488.15, 
	 "num_atms": 31, 
	 "gaussian": { 
		 "optdone": 1, 
		 "sigma_profile": "yes", 
		 "theory": "DFT", 
		 "functional": "B3LYP", 
		 "basiset": "6-31G**", 
		 "properties": { 
			 "R2extent": 7136.5075, 
			 "electric_dipole_moment_norm": 3.40317660282, 
			 "electric_quadrupole_moment_norm": 10.8860242637, 
			 "total_energy": -1106.82064221, 
			 "HOMO_LUMO_gap": 0.21519, 
			 "cosmo_polarized_energy": -17.74, 
			 "cosmo_cavitation_energy": 36.29, 
			 "cosmo_dispersion_energy": -26.18, 
			 "cosmo_repulsion_energy": 2.04, 
			 "cosmo_total_nonelectrostatic_energy": 12.15, 
			 "SMD_solvation_energy": 6.1 
		},
		"coords": [
			{
				"x": -2.4800380408,
				"y": 2.1737770463,
				"z": 0.1517240929,
				"element": "N" 
			},
			{
				"x": -1.7137725756,
				"y": 3.4136891157,
				"z": 0.1754853012,
				"element": "C" 
			},
			{
				"x": -0.3656669251,
				"y": 3.2668820867,
				"z": -0.5504848967,
				"element": "C" 
			},
			{
				"x": 0.6932390724,
				"y": 1.8959247249,
				"z": 0.071994634,
				"element": "S" 
			},
			{
				"x": 0.1536072066,
				"y": 0.542281352,
				"z": -1.0631879494,
				"element": "C" 
			},
			{
				"x": 0.4182938679,
				"y": -0.8251752922,
				"z": -0.4595182388,
				"element": "C" 
			},
			{
				"x": 1.8188916068,
				"y": -0.9562153664,
				"z": -0.255480702,
				"element": "O" 
			},
			{
				"x": 2.2972239807,
				"y": -2.1083781859,
				"z": 0.3053187219,
				"element": "C" 
			},
			{
				"x": 1.5048879845,
				"y": -3.2058502615,
				"z": 0.6617391637,
				"element": "C" 
			},
			{
				"x": 2.1095067039,
				"y": -4.3354944008,
				"z": 1.2238220921,
				"element": "C" 
			},
			{
				"x": 3.4856305273,
				"y": -4.3822550106,
				"z": 1.4326495717,
				"element": "C" 
			},
			{
				"x": 4.2688709497,
				"y": -3.2794385513,
				"z": 1.0729493425,
				"element": "C" 
			},
			{
				"x": 3.6838184689,
				"y": -2.1491660678,
				"z": 0.5137673453,
				"element": "C" 
			},
			{
				"x": -1.488088915,
				"y": 4.0461376865,
				"z": 1.5594758967,
				"element": "C" 
			},
			{
				"x": -2.3046688707,
				"y": 3.5299921688,
				"z": 2.5084899521,
				"element": "O" 
			},
			{
				"x": -0.7014285655,
				"y": 4.9378834237,
				"z": 1.7897245689,
				"element": "O" 
			},
			{
				"x": -3.4020472877,
				"y": 2.3335514637,
				"z": 0.5485920861,
				"element": "H" 
			},
			{
				"x": -2.0237151697,
				"y": 1.5046234409,
				"z": 0.7690289361,
				"element": "H" 
			},
			{
				"x": -2.2848516943,
				"y": 4.1712713375,
				"z": -0.3821699431,
				"element": "H" 
			},
			{
				"x": 0.2101608853,
				"y": 4.1842113103,
				"z": -0.4185460504,
				"element": "H" 
			},
			{
				"x": -0.53687938,
				"y": 3.1136219895,
				"z": -1.6183556542,
				"element": "H" 
			},
			{
				"x": -0.9189095498,
				"y": 0.653834145,
				"z": -1.2400474006,
				"element": "H" 
			},
			{
				"x": 0.6891322352,
				"y": 0.6374819499,
				"z": -2.0124625473,
				"element": "H" 
			},
			{
				"x": 0.0590464283,
				"y": -1.6019666074,
				"z": -1.1514102303,
				"element": "H" 
			},
			{
				"x": -0.1183191118,
				"y": -0.9384151655,
				"z": 0.4928003072,
				"element": "H" 
			},
			{
				"x": 0.432214318,
				"y": -3.1945615482,
				"z": 0.5085928253,
				"element": "H" 
			},
			{
				"x": 1.4881855916,
				"y": -5.1836609376,
				"z": 1.4980345661,
				"element": "H" 
			},
			{
				"x": 3.9452888122,
				"y": -5.2632945934,
				"z": 1.8696147264,
				"element": "H" 
			},
			{
				"x": 5.3435887372,
				"y": -3.3000734128,
				"z": 1.2306360354,
				"element": "H" 
			},
			{
				"x": 4.2741135325,
				"y": -1.2837105143,
				"z": 0.2309496298,
				"element": "H" 
			},
			{
				"x": -2.0990148231,
				"y": 4.0109926742,
				"z": 3.3281738176,
				"element": "H" 
			}
		],
		 "valence_orbital": [ 
			{
				"type": "occ",
				"energy": -0.30025,
				"method": "rhf"
			},
			{
				"type": "occ",
				"energy": -0.24876,
				"method": "rhf"
			},
			{
				"type": "occ",
				"energy": -0.24682,
				"method": "rhf"
			},
			{
				"type": "occ",
				"energy": -0.22333,
				"method": "rhf"
			},
			{
				"type": "occ",
				"energy": -0.21631,
				"method": "rhf"
			},
			{
				"type": "unocc",
				"energy": -0.00112,
				"method": "rhf"
			},
			{
				"type": "unocc",
				"energy": 0.00254,
				"method": "rhf"
			},
			{
				"type": "unocc",
				"energy": 0.01616,
				"method": "rhf"
			},
			{
				"type": "unocc",
				"energy": 0.04079,
				"method": "rhf"
			},
			{
				"type": "unocc",
				"energy": 0.06098,
				"method": "rhf"
			}
		],
		"cosmo_sigma_profile": { 
			"-0.025": 0.0,
			"-0.024": 0.0,
			"-0.023": 0.0,
			"-0.022": 0.0,
			"-0.021": 0.0,
			"-0.02": 0.0,
			"-0.019": 0.0819583495468,
			"-0.018": 0.694047036257,
			"-0.017": 0.865193721883,
			"-0.016": 0.757876156995,
			"-0.015": 1.18271522301,
			"-0.014": 0.718539303394,
			"-0.013": 0.611058791713,
			"-0.012": 0.44106975518,
			"-0.011": 1.18082816993,
			"-0.01": 1.75973833813,
			"-0.009": 2.00927639051,
			"-0.008": 3.61634001329,
			"-0.007": 7.88417310463,
			"-0.006": 16.8212727929,
			"-0.005": 28.3036932375,
			"-0.004": 26.9910676428,
			"-0.003": 22.8418389962,
			"-0.002": 16.3658889911,
			"-0.001": 14.5028002071,
			"0.0": 13.0825521707,
			"0.001": 13.0477579643,
			"0.002": 12.2720386035,
			"0.003": 15.1569319645,
			"0.004": 16.0705176454,
			"0.005": 16.3443027588,
			"0.006": 16.6176137876,
			"0.007": 9.0005960099,
			"0.008": 6.95322400769,
			"0.009": 5.52145508586,
			"0.01": 4.5302812134,
			"0.011": 5.66052455463,
			"0.012": 3.98819880344,
			"0.013": 0.34582528811,
			"0.014": 0.378316756578,
			"0.015": 0.705694467079,
			"0.016": 0.377994268575,
			"0.017": 0.00627253176881,
			"0.018": 0.0,
			"0.019": 0.0,
			"0.02": 0.0,
			"0.021": 0.0,
			"0.022": 0.0,
			"0.023": 0.0,
			"0.024": 0.0,
			"0.025": 0.0
		}
	}
}
