{
	 "smiles": "CC1=CC=C(NN=C2/SC(=N)NC2=O)C=C1", 
	 "Tm": 538.15, 
	 "num_atms": 26, 
	 "gaussian": { 
		 "optdone": 1, 
		 "sigma_profile": "yes", 
		 "theory": "DFT", 
		 "functional": "B3LYP", 
		 "basiset": "6-31G**", 
		 "properties": { 
			 "R2extent": 7710.7302, 
			 "electric_dipole_moment_norm": 3.88539201368, 
			 "electric_quadrupole_moment_norm": 13.9598446499, 
			 "total_energy": -1079.48943871, 
			 "HOMO_LUMO_gap": 0.14245, 
			 "cosmo_polarized_energy": -18.43, 
			 "cosmo_cavitation_energy": 33.25, 
			 "cosmo_dispersion_energy": -24.77, 
			 "cosmo_repulsion_energy": 1.89, 
			 "cosmo_total_nonelectrostatic_energy": 10.37, 
			 "SMD_solvation_energy": 4.96 
		},
		"coords": [
			{
				"x": 0.2741564222,
				"y": 4.8394470499,
				"z": -0.1229567596,
				"element": "C" 
			},
			{
				"x": -0.0006134066,
				"y": 3.3592762216,
				"z": -0.2446062968,
				"element": "C" 
			},
			{
				"x": 0.9929672612,
				"y": 2.4089626324,
				"z": 0.0169037079,
				"element": "C" 
			},
			{
				"x": 0.7460872001,
				"y": 1.0438163428,
				"z": -0.1163224651,
				"element": "C" 
			},
			{
				"x": -0.5184364886,
				"y": 0.6004520331,
				"z": -0.51808877,
				"element": "C" 
			},
			{
				"x": -0.7399113523,
				"y": -0.7816771073,
				"z": -0.6418927448,
				"element": "N" 
			},
			{
				"x": -1.9128592855,
				"y": -1.2664994806,
				"z": -1.0164080196,
				"element": "N" 
			},
			{
				"x": -2.1055146486,
				"y": -2.5299487839,
				"z": -1.1275981293,
				"element": "C" 
			},
			{
				"x": -0.9240348701,
				"y": -3.855440855,
				"z": -0.826593354,
				"element": "S" 
			},
			{
				"x": -2.1697123835,
				"y": -5.1034927307,
				"z": -1.2548489949,
				"element": "C" 
			},
			{
				"x": -2.0448840727,
				"y": -6.3636722078,
				"z": -1.27011804,
				"element": "N" 
			},
			{
				"x": -3.3484990642,
				"y": -4.4592729073,
				"z": -1.5834029149,
				"element": "N" 
			},
			{
				"x": -3.4294228802,
				"y": -3.0698143022,
				"z": -1.5497696789,
				"element": "C" 
			},
			{
				"x": -4.4257554705,
				"y": -2.433514065,
				"z": -1.8238914243,
				"element": "O" 
			},
			{
				"x": -1.5313032969,
				"y": 1.5316038067,
				"z": -0.783139233,
				"element": "C" 
			},
			{
				"x": -1.2614954336,
				"y": 2.8889149893,
				"z": -0.6432169102,
				"element": "C" 
			},
			{
				"x": 1.1914704874,
				"y": 5.0304775413,
				"z": 0.4413154459,
				"element": "H" 
			},
			{
				"x": -0.5460799343,
				"y": 5.3591555967,
				"z": 0.3834521972,
				"element": "H" 
			},
			{
				"x": 0.3914971333,
				"y": 5.3073752685,
				"z": -1.1084446945,
				"element": "H" 
			},
			{
				"x": 1.9798843329,
				"y": 2.7377009708,
				"z": 0.3320673399,
				"element": "H" 
			},
			{
				"x": 1.534843241,
				"y": 0.3253374593,
				"z": 0.0951975389,
				"element": "H" 
			},
			{
				"x": 0.0335047808,
				"y": -1.4092348949,
				"z": -0.4347752461,
				"element": "H" 
			},
			{
				"x": -1.11210627,
				"y": -6.6710201223,
				"z": -1.0015907379,
				"element": "H" 
			},
			{
				"x": -4.1527113002,
				"y": -5.0124606123,
				"z": -1.8495919832,
				"element": "H" 
			},
			{
				"x": -2.5097439214,
				"y": 1.1815636668,
				"z": -1.0898283459,
				"element": "H" 
			},
			{
				"x": -2.0554267796,
				"y": 3.6028644901,
				"z": -0.8487514866,
				"element": "H" 
			}
		],
		 "valence_orbital": [ 
			{
				"type": "occ",
				"energy": -0.27581,
				"method": "rhf"
			},
			{
				"type": "occ",
				"energy": -0.27161,
				"method": "rhf"
			},
			{
				"type": "occ",
				"energy": -0.26231,
				"method": "rhf"
			},
			{
				"type": "occ",
				"energy": -0.25708,
				"method": "rhf"
			},
			{
				"type": "occ",
				"energy": -0.20732,
				"method": "rhf"
			},
			{
				"type": "unocc",
				"energy": -0.06487,
				"method": "rhf"
			},
			{
				"type": "unocc",
				"energy": -0.02266,
				"method": "rhf"
			},
			{
				"type": "unocc",
				"energy": -0.00857,
				"method": "rhf"
			},
			{
				"type": "unocc",
				"energy": 0.0055,
				"method": "rhf"
			},
			{
				"type": "unocc",
				"energy": 0.02343,
				"method": "rhf"
			}
		],
		"cosmo_sigma_profile": { 
			"-0.025": 0.0,
			"-0.024": 0.0,
			"-0.023": 0.0,
			"-0.022": 0.0,
			"-0.021": 0.0,
			"-0.02": 0.0,
			"-0.019": 0.0,
			"-0.018": 0.0,
			"-0.017": 0.231572211893,
			"-0.016": 1.41568155474,
			"-0.015": 1.86975542057,
			"-0.014": 2.25136652132,
			"-0.013": 3.39515137872,
			"-0.012": 3.40943356032,
			"-0.011": 3.32712420387,
			"-0.01": 2.61546399541,
			"-0.009": 3.67414380998,
			"-0.008": 3.73969150224,
			"-0.007": 4.3485061812,
			"-0.006": 6.09197007151,
			"-0.005": 11.6231588485,
			"-0.004": 18.7381894384,
			"-0.003": 19.3263142996,
			"-0.002": 18.924129216,
			"-0.001": 21.0454571588,
			"0.0": 22.8139955847,
			"0.001": 19.6172007834,
			"0.002": 18.0202117711,
			"0.003": 15.3266462116,
			"0.004": 12.5948204583,
			"0.005": 14.8977903043,
			"0.006": 7.5849755136,
			"0.007": 2.81872837694,
			"0.008": 3.13334004379,
			"0.009": 2.91239747735,
			"0.01": 3.90706122732,
			"0.011": 4.63641432245,
			"0.012": 6.96293481323,
			"0.013": 4.03077058152,
			"0.014": 1.63128283744,
			"0.015": 0.799939074266,
			"0.016": 0.272079757503,
			"0.017": 0.0,
			"0.018": 0.0,
			"0.019": 0.0,
			"0.02": 0.0,
			"0.021": 0.0,
			"0.022": 0.0,
			"0.023": 0.0,
			"0.024": 0.0,
			"0.025": 0.0
		}
	}
}
