{
	 "smiles": "NC(=O)[C@H](CC1=CC=CC=C1)NC(=O)OCC1=CC=CC=C1", 
	 "Tm": 436.15, 
	 "num_atms": 40, 
	 "gaussian": { 
		 "optdone": 1, 
		 "sigma_profile": "yes", 
		 "theory": "DFT", 
		 "functional": "B3LYP", 
		 "basiset": "6-31G**", 
		 "properties": { 
			 "R2extent": 7924.7031, 
			 "electric_dipole_moment_norm": 2.66014498477, 
			 "electric_quadrupole_moment_norm": 21.2974859554, 
			 "total_energy": -993.869719588, 
			 "HOMO_LUMO_gap": 0.22136, 
			 "cosmo_polarized_energy": -22.78, 
			 "cosmo_cavitation_energy": 45.23, 
			 "cosmo_dispersion_energy": -29.12, 
			 "cosmo_repulsion_energy": 2.26, 
			 "cosmo_total_nonelectrostatic_energy": 18.37, 
			 "SMD_solvation_energy": 8.64 
		},
		"coords": [
			{
				"x": 2.93094154,
				"y": 0.2735389017,
				"z": -2.6635398929,
				"element": "N" 
			},
			{
				"x": 2.5115066391,
				"y": 0.6808018648,
				"z": -1.418276599,
				"element": "C" 
			},
			{
				"x": 3.2567707553,
				"y": 1.2143903212,
				"z": -0.6164561295,
				"element": "O" 
			},
			{
				"x": 1.0229716564,
				"y": 0.4383946993,
				"z": -1.1266884998,
				"element": "C" 
			},
			{
				"x": 0.7306471469,
				"y": -1.0629252455,
				"z": -0.8416954234,
				"element": "C" 
			},
			{
				"x": 1.3755647422,
				"y": -1.5752560001,
				"z": 0.4271040247,
				"element": "C" 
			},
			{
				"x": 0.765010684,
				"y": -1.34629744,
				"z": 1.6687069816,
				"element": "C" 
			},
			{
				"x": 1.3565520728,
				"y": -1.7986198972,
				"z": 2.8479332557,
				"element": "C" 
			},
			{
				"x": 2.5687048528,
				"y": -2.4909362174,
				"z": 2.8043858935,
				"element": "C" 
			},
			{
				"x": 3.1841642625,
				"y": -2.7269015234,
				"z": 1.5745334193,
				"element": "C" 
			},
			{
				"x": 2.5904256788,
				"y": -2.2709904685,
				"z": 0.3965552472,
				"element": "C" 
			},
			{
				"x": 0.2266729182,
				"y": 0.9322656302,
				"z": -2.2575924513,
				"element": "N" 
			},
			{
				"x": -1.0918813951,
				"y": 1.3050918634,
				"z": -2.1896504526,
				"element": "C" 
			},
			{
				"x": -1.684674224,
				"y": 1.8957428516,
				"z": -3.0734519966,
				"element": "O" 
			},
			{
				"x": -1.6541529387,
				"y": 0.9124969624,
				"z": -1.0158134477,
				"element": "O" 
			},
			{
				"x": -3.051656717,
				"y": 1.2578204556,
				"z": -0.8615530904,
				"element": "C" 
			},
			{
				"x": -3.4844442923,
				"y": 0.8449521964,
				"z": 0.5205249739,
				"element": "C" 
			},
			{
				"x": -4.5159414204,
				"y": -0.0825418815,
				"z": 0.6967181582,
				"element": "C" 
			},
			{
				"x": -4.9322005563,
				"y": -0.4490407432,
				"z": 1.9789195652,
				"element": "C" 
			},
			{
				"x": -4.3108727345,
				"y": 0.1033763703,
				"z": 3.0986335838,
				"element": "C" 
			},
			{
				"x": -3.2747231616,
				"y": 1.0272524562,
				"z": 2.9325119521,
				"element": "C" 
			},
			{
				"x": -2.8680182731,
				"y": 1.3987999943,
				"z": 1.6521445877,
				"element": "C" 
			},
			{
				"x": 2.3802552816,
				"y": -0.3632583894,
				"z": -3.2196384123,
				"element": "H" 
			},
			{
				"x": 3.9237625554,
				"y": 0.3171763443,
				"z": -2.8435345006,
				"element": "H" 
			},
			{
				"x": 0.8024195104,
				"y": 1.0149870357,
				"z": -0.224963214,
				"element": "H" 
			},
			{
				"x": 1.0524524938,
				"y": -1.6592643332,
				"z": -1.7036965153,
				"element": "H" 
			},
			{
				"x": -0.3555985798,
				"y": -1.1606994786,
				"z": -0.7730726189,
				"element": "H" 
			},
			{
				"x": -0.1829927922,
				"y": -0.8146302778,
				"z": 1.7077829944,
				"element": "H" 
			},
			{
				"x": 0.8682368919,
				"y": -1.6153448809,
				"z": 3.8009978784,
				"element": "H" 
			},
			{
				"x": 3.0283058983,
				"y": -2.846241727,
				"z": 3.7222267083,
				"element": "H" 
			},
			{
				"x": 4.1258793305,
				"y": -3.2668096351,
				"z": 1.5307123756,
				"element": "H" 
			},
			{
				"x": 3.0752984422,
				"y": -2.45959741,
				"z": -0.5584330451,
				"element": "H" 
			},
			{
				"x": 0.7144142378,
				"y": 1.3696541507,
				"z": -3.0264036829,
				"element": "H" 
			},
			{
				"x": -3.1597246299,
				"y": 2.3354284858,
				"z": -1.0212515875,
				"element": "H" 
			},
			{
				"x": -3.6356734577,
				"y": 0.7505287991,
				"z": -1.6347319746,
				"element": "H" 
			},
			{
				"x": -4.9968837277,
				"y": -0.5206912144,
				"z": -0.1742126832,
				"element": "H" 
			},
			{
				"x": -5.7365345339,
				"y": -1.1687867921,
				"z": 2.1006111992,
				"element": "H" 
			},
			{
				"x": -4.6307582853,
				"y": -0.1823616677,
				"z": 4.0965599007,
				"element": "H" 
			},
			{
				"x": -2.789093417,
				"y": 1.4624346211,
				"z": 3.8013004329,
				"element": "H" 
			},
			{
				"x": -2.0650324544,
				"y": 2.1196612192,
				"z": 1.5244930849,
				"element": "H" 
			}
		],
		 "valence_orbital": [ 
			{
				"type": "occ",
				"energy": -0.25701,
				"method": "rhf"
			},
			{
				"type": "occ",
				"energy": -0.25602,
				"method": "rhf"
			},
			{
				"type": "occ",
				"energy": -0.25074,
				"method": "rhf"
			},
			{
				"type": "occ",
				"energy": -0.2461,
				"method": "rhf"
			},
			{
				"type": "occ",
				"energy": -0.23609,
				"method": "rhf"
			},
			{
				"type": "unocc",
				"energy": -0.01473,
				"method": "rhf"
			},
			{
				"type": "unocc",
				"energy": -0.00709,
				"method": "rhf"
			},
			{
				"type": "unocc",
				"energy": -0.00063,
				"method": "rhf"
			},
			{
				"type": "unocc",
				"energy": 0.00041,
				"method": "rhf"
			},
			{
				"type": "unocc",
				"energy": 0.01318,
				"method": "rhf"
			}
		],
		"cosmo_sigma_profile": { 
			"-0.025": 0.0,
			"-0.024": 0.0,
			"-0.023": 0.0,
			"-0.022": 0.0,
			"-0.021": 0.0,
			"-0.02": 0.0,
			"-0.019": 0.0,
			"-0.018": 0.0,
			"-0.017": 0.0,
			"-0.016": 0.0,
			"-0.015": 0.211336709364,
			"-0.014": 1.9294547275,
			"-0.013": 2.89702611437,
			"-0.012": 2.90138492934,
			"-0.011": 4.21477837572,
			"-0.01": 3.74296682962,
			"-0.009": 2.90642679049,
			"-0.008": 3.04475872689,
			"-0.007": 3.52354266526,
			"-0.006": 17.0210614593,
			"-0.005": 27.1531239495,
			"-0.004": 29.8090415348,
			"-0.003": 32.3672176012,
			"-0.002": 27.0394445988,
			"-0.001": 26.3388262465,
			"0.0": 21.5536688571,
			"0.001": 19.6029617677,
			"0.002": 20.6328938909,
			"0.003": 20.9803290007,
			"0.004": 19.9632356331,
			"0.005": 19.9493749356,
			"0.006": 13.3374742515,
			"0.007": 5.3812047089,
			"0.008": 3.09443857029,
			"0.009": 2.47027901581,
			"0.01": 2.67319430964,
			"0.011": 3.9786076201,
			"0.012": 5.5188626115,
			"0.013": 11.1897486262,
			"0.014": 3.18155722716,
			"0.015": 0.0389796451294,
			"0.016": 0.0,
			"0.017": 0.0,
			"0.018": 0.0,
			"0.019": 0.0,
			"0.02": 0.0,
			"0.021": 0.0,
			"0.022": 0.0,
			"0.023": 0.0,
			"0.024": 0.0,
			"0.025": 0.0
		}
	}
}
