{
	 "smiles": "NS(=O)(=O)C1=CC(Cl)=C(F)C=C1", 
	 "Tm": 382.15, 
	 "num_atms": 17, 
	 "gaussian": { 
		 "optdone": 1, 
		 "sigma_profile": "yes", 
		 "theory": "DFT", 
		 "functional": "B3LYP", 
		 "basiset": "6-31G**", 
		 "properties": { 
			 "R2extent": 3083.73, 
			 "electric_dipole_moment_norm": 4.61950022946, 
			 "electric_quadrupole_moment_norm": 19.3445028799, 
			 "total_energy": -1394.98797264, 
			 "HOMO_LUMO_gap": 0.21845, 
			 "cosmo_polarized_energy": -17.78, 
			 "cosmo_cavitation_energy": 25.5, 
			 "cosmo_dispersion_energy": -19.26, 
			 "cosmo_repulsion_energy": 1.48, 
			 "cosmo_total_nonelectrostatic_energy": 7.72, 
			 "SMD_solvation_energy": 4.31 
		},
		"coords": [
			{
				"x": -1.3856963396,
				"y": 0.8217029605,
				"z": 2.537766188,
				"element": "N" 
			},
			{
				"x": -1.7539729706,
				"y": 0.7847182792,
				"z": 0.901705002,
				"element": "S" 
			},
			{
				"x": -2.7534186674,
				"y": -0.2692309124,
				"z": 0.7455553451,
				"element": "O" 
			},
			{
				"x": -1.9817126249,
				"y": 2.1752228462,
				"z": 0.5166683784,
				"element": "O" 
			},
			{
				"x": -0.270507451,
				"y": 0.2329668379,
				"z": 0.0412892541,
				"element": "C" 
			},
			{
				"x": 0.658257784,
				"y": 1.1847106889,
				"z": -0.3843380575,
				"element": "C" 
			},
			{
				"x": 1.81789829,
				"y": 0.7586602777,
				"z": -1.0279203813,
				"element": "C" 
			},
			{
				"x": 3.0059820427,
				"y": 1.9065310969,
				"z": -1.5795482129,
				"element": "Cl" 
			},
			{
				"x": 2.0239699379,
				"y": -0.6087015822,
				"z": -1.2408561974,
				"element": "C" 
			},
			{
				"x": 3.1357771894,
				"y": -1.0193008524,
				"z": -1.8599040191,
				"element": "F" 
			},
			{
				"x": 1.0883646331,
				"y": -1.5523404014,
				"z": -0.82870309,
				"element": "C" 
			},
			{
				"x": -0.0716002131,
				"y": -1.1313034329,
				"z": -0.1828802634,
				"element": "C" 
			},
			{
				"x": -0.6920004973,
				"y": 1.5210755793,
				"z": 2.7809884281,
				"element": "H" 
			},
			{
				"x": -1.1986398841,
				"y": -0.0944693497,
				"z": 2.9314826186,
				"element": "H" 
			},
			{
				"x": 0.4697541136,
				"y": 2.2422980789,
				"z": -0.2388640331,
				"element": "H" 
			},
			{
				"x": 1.2810958267,
				"y": -2.6004533334,
				"z": -1.029842331,
				"element": "H" 
			},
			{
				"x": -0.8275511695,
				"y": -1.8456867811,
				"z": 0.1234013715,
				"element": "H" 
			}
		],
		 "valence_orbital": [ 
			{
				"type": "occ",
				"energy": -0.32444,
				"method": "rhf"
			},
			{
				"type": "occ",
				"energy": -0.31491,
				"method": "rhf"
			},
			{
				"type": "occ",
				"energy": -0.31366,
				"method": "rhf"
			},
			{
				"type": "occ",
				"energy": -0.28618,
				"method": "rhf"
			},
			{
				"type": "occ",
				"energy": -0.27031,
				"method": "rhf"
			},
			{
				"type": "unocc",
				"energy": -0.05186,
				"method": "rhf"
			},
			{
				"type": "unocc",
				"energy": -0.04696,
				"method": "rhf"
			},
			{
				"type": "unocc",
				"energy": 0.00205,
				"method": "rhf"
			},
			{
				"type": "unocc",
				"energy": 0.04548,
				"method": "rhf"
			},
			{
				"type": "unocc",
				"energy": 0.07648,
				"method": "rhf"
			}
		],
		"cosmo_sigma_profile": { 
			"-0.025": 0.0,
			"-0.024": 0.0,
			"-0.023": 0.0,
			"-0.022": 0.0,
			"-0.021": 0.0,
			"-0.02": 0.0,
			"-0.019": 0.0,
			"-0.018": 0.0,
			"-0.017": 0.0,
			"-0.016": 0.72562803828,
			"-0.015": 2.94121887415,
			"-0.014": 2.32206324364,
			"-0.013": 2.77029985525,
			"-0.012": 2.74079706346,
			"-0.011": 3.27378206573,
			"-0.01": 2.0875949224,
			"-0.009": 3.72868540838,
			"-0.008": 6.17539612382,
			"-0.007": 7.57628087633,
			"-0.006": 6.28738655475,
			"-0.005": 5.00185738089,
			"-0.004": 6.07201999454,
			"-0.003": 8.53117724364,
			"-0.002": 15.3793783955,
			"-0.001": 17.1919011887,
			"0.0": 19.1930096587,
			"0.001": 12.1164699403,
			"0.002": 10.8279546245,
			"0.003": 19.5162937981,
			"0.004": 10.9912508266,
			"0.005": 3.6621547945,
			"0.006": 3.74439019501,
			"0.007": 3.82650864115,
			"0.008": 4.47306605506,
			"0.009": 4.80029934114,
			"0.01": 8.7793174259,
			"0.011": 9.84353380681,
			"0.012": 2.42437320507,
			"0.013": 0.0138479236838,
			"0.014": 0.0,
			"0.015": 0.0,
			"0.016": 0.0,
			"0.017": 0.0,
			"0.018": 0.0,
			"0.019": 0.0,
			"0.02": 0.0,
			"0.021": 0.0,
			"0.022": 0.0,
			"0.023": 0.0,
			"0.024": 0.0,
			"0.025": 0.0
		}
	}
}
