{
	 "smiles": "FC(F)(F)C1=NC(=NC(=N1)C(F)(F)F)C(F)(F)F", 
	 "Tm": 248.35, 
	 "num_atms": 18, 
	 "gaussian": { 
		 "optdone": 1, 
		 "sigma_profile": "yes", 
		 "theory": "DFT", 
		 "functional": "B3LYP", 
		 "basiset": "6-31G**", 
		 "properties": { 
			 "R2extent": 5038.7585, 
			 "electric_dipole_moment_norm": 0.000412310562562, 
			 "electric_quadrupole_moment_norm": 6.72433197797, 
			 "total_energy": -1291.43284246, 
			 "HOMO_LUMO_gap": 0.21414, 
			 "cosmo_polarized_energy": -6.44, 
			 "cosmo_cavitation_energy": 29.37, 
			 "cosmo_dispersion_energy": -19.51, 
			 "cosmo_repulsion_energy": 1.38, 
			 "cosmo_total_nonelectrostatic_energy": 11.24, 
			 "SMD_solvation_energy": 5.39 
		},
		"coords": [
			{
				"x": -2.5022133126,
				"y": -1.4908017828,
				"z": 1.7402847977,
				"element": "F" 
			},
			{
				"x": -1.2094175947,
				"y": -1.7401797926,
				"z": 1.5236599828,
				"element": "C" 
			},
			{
				"x": -0.672887872,
				"y": -2.2504514631,
				"z": 2.6441313363,
				"element": "F" 
			},
			{
				"x": -1.1024888027,
				"y": -2.6562606936,
				"z": 0.547450269,
				"element": "F" 
			},
			{
				"x": -0.4515642771,
				"y": -0.4728940359,
				"z": 1.1231972473,
				"element": "C" 
			},
			{
				"x": -1.1264460883,
				"y": 0.6665308269,
				"z": 1.0418634323,
				"element": "N" 
			},
			{
				"x": -0.3779604362,
				"y": 1.7167501312,
				"z": 0.6853895747,
				"element": "C" 
			},
			{
				"x": 0.92232642,
				"y": 1.6956499407,
				"z": 0.422333818,
				"element": "N" 
			},
			{
				"x": 1.4808539785,
				"y": 0.4856223077,
				"z": 0.541256362,
				"element": "C" 
			},
			{
				"x": 0.8554582193,
				"y": -0.6327327142,
				"z": 0.8856227239,
				"element": "N" 
			},
			{
				"x": 2.9806059485,
				"y": 0.4190657883,
				"z": 0.2462575133,
				"element": "C" 
			},
			{
				"x": 3.2107187364,
				"y": 0.8291645005,
				"z": -1.0117162745,
				"element": "F" 
			},
			{
				"x": 3.6410112433,
				"y": 1.2339633879,
				"z": 1.0850002681,
				"element": "F" 
			},
			{
				"x": 3.453950056,
				"y": -0.8203606599,
				"z": 0.3884044786,
				"element": "F" 
			},
			{
				"x": -1.1199582442,
				"y": 3.050548657,
				"z": 0.5798434389,
				"element": "C" 
			},
			{
				"x": -2.0995397364,
				"y": 2.9496257577,
				"z": -0.3333754385,
				"element": "F" 
			},
			{
				"x": -1.6750310538,
				"y": 3.3521343863,
				"z": 1.7649703409,
				"element": "F" 
			},
			{
				"x": -0.3000171841,
				"y": 4.041225458,
				"z": 0.2239261292,
				"element": "F" 
			}
		],
		 "valence_orbital": [ 
			{
				"type": "occ",
				"energy": -0.41286,
				"method": "rhf"
			},
			{
				"type": "occ",
				"energy": -0.38362,
				"method": "rhf"
			},
			{
				"type": "occ",
				"energy": -0.38362,
				"method": "rhf"
			},
			{
				"type": "occ",
				"energy": -0.32858,
				"method": "rhf"
			},
			{
				"type": "occ",
				"energy": -0.32858,
				"method": "rhf"
			},
			{
				"type": "unocc",
				"energy": -0.11444,
				"method": "rhf"
			},
			{
				"type": "unocc",
				"energy": -0.11443,
				"method": "rhf"
			},
			{
				"type": "unocc",
				"energy": 0.03411,
				"method": "rhf"
			},
			{
				"type": "unocc",
				"energy": 0.10729,
				"method": "rhf"
			},
			{
				"type": "unocc",
				"energy": 0.10729,
				"method": "rhf"
			}
		],
		"cosmo_sigma_profile": { 
			"-0.025": 0.0,
			"-0.024": 0.0,
			"-0.023": 0.0,
			"-0.022": 0.0,
			"-0.021": 0.0,
			"-0.02": 0.0,
			"-0.019": 0.0,
			"-0.018": 0.0,
			"-0.017": 0.0,
			"-0.016": 0.0,
			"-0.015": 0.0,
			"-0.014": 0.0,
			"-0.013": 0.672481608276,
			"-0.012": 1.40483259681,
			"-0.011": 1.80702380107,
			"-0.01": 2.48172795446,
			"-0.009": 3.8926770408,
			"-0.008": 5.42498431149,
			"-0.007": 5.31491443045,
			"-0.006": 5.28504249003,
			"-0.005": 4.69906491151,
			"-0.004": 4.94501095217,
			"-0.003": 6.87732477461,
			"-0.002": 10.7786019649,
			"-0.001": 12.3775680303,
			"0.0": 20.320512273,
			"0.001": 65.8436228702,
			"0.002": 58.5681113693,
			"0.003": 9.46893724666,
			"0.004": 5.29311970557,
			"0.005": 3.93945452341,
			"0.006": 3.73710276825,
			"0.007": 2.86517864157,
			"0.008": 2.3937397721,
			"0.009": 0.241614113139,
			"0.01": 0.0,
			"0.011": 0.0,
			"0.012": 0.0,
			"0.013": 0.0,
			"0.014": 0.0,
			"0.015": 0.0,
			"0.016": 0.0,
			"0.017": 0.0,
			"0.018": 0.0,
			"0.019": 0.0,
			"0.02": 0.0,
			"0.021": 0.0,
			"0.022": 0.0,
			"0.023": 0.0,
			"0.024": 0.0,
			"0.025": 0.0
		}
	}
}
