{
	 "smiles": "OC(=O)C1=CC(=CC=C1)N1N=CC=C1C(F)(F)F", 
	 "Tm": 432.15, 
	 "num_atms": 25, 
	 "gaussian": { 
		 "optdone": 1, 
		 "sigma_profile": "yes", 
		 "theory": "DFT", 
		 "functional": "B3LYP", 
		 "basiset": "6-31G**", 
		 "properties": { 
			 "R2extent": 4550.4539, 
			 "electric_dipole_moment_norm": 4.89140473995, 
			 "electric_quadrupole_moment_norm": 18.63018356, 
			 "total_energy": -982.845654343, 
			 "HOMO_LUMO_gap": 0.19595, 
			 "cosmo_polarized_energy": -14.73, 
			 "cosmo_cavitation_energy": 31.49, 
			 "cosmo_dispersion_energy": -21.99, 
			 "cosmo_repulsion_energy": 1.61, 
			 "cosmo_total_nonelectrostatic_energy": 11.11, 
			 "SMD_solvation_energy": 6.99 
		},
		"coords": [
			{
				"x": -0.3131384094,
				"y": 3.9444801963,
				"z": -0.583649644,
				"element": "O" 
			},
			{
				"x": -1.1499730129,
				"y": 3.27468255,
				"z": -1.4189219791,
				"element": "C" 
			},
			{
				"x": -1.8587762536,
				"y": 3.8821424476,
				"z": -2.1856616945,
				"element": "O" 
			},
			{
				"x": -1.1381851606,
				"y": 1.776393536,
				"z": -1.3250150967,
				"element": "C" 
			},
			{
				"x": -0.0505144568,
				"y": 1.0764757136,
				"z": -0.7915272141,
				"element": "C" 
			},
			{
				"x": -0.097399631,
				"y": -0.3145575615,
				"z": -0.7034541935,
				"element": "C" 
			},
			{
				"x": -1.2038132461,
				"y": -1.0188563453,
				"z": -1.1875099124,
				"element": "C" 
			},
			{
				"x": -2.2669835471,
				"y": -0.3171478833,
				"z": -1.7549253101,
				"element": "C" 
			},
			{
				"x": -2.2414878518,
				"y": 1.0743483664,
				"z": -1.8240469985,
				"element": "C" 
			},
			{
				"x": 0.9960775173,
				"y": -1.0449686989,
				"z": -0.1501289236,
				"element": "N" 
			},
			{
				"x": 1.3454088098,
				"y": -2.2207039703,
				"z": -0.7250395656,
				"element": "N" 
			},
			{
				"x": 2.3521432866,
				"y": -2.6898696743,
				"z": 0.0050902366,
				"element": "C" 
			},
			{
				"x": 2.669253123,
				"y": -1.8284132834,
				"z": 1.0739437604,
				"element": "C" 
			},
			{
				"x": 1.7775401207,
				"y": -0.7819023836,
				"z": 0.9521756204,
				"element": "C" 
			},
			{
				"x": 1.6410108242,
				"y": 0.3893858434,
				"z": 1.8681243641,
				"element": "C" 
			},
			{
				"x": 2.3292177019,
				"y": 0.1699433554,
				"z": 3.0004922923,
				"element": "F" 
			},
			{
				"x": 0.3564802613,
				"y": 0.640652047,
				"z": 2.1980702919,
				"element": "F" 
			},
			{
				"x": 2.1321257392,
				"y": 1.5424979671,
				"z": 1.3293856142,
				"element": "F" 
			},
			{
				"x": 0.0583436866,
				"y": 3.3476497726,
				"z": 0.0815614695,
				"element": "H" 
			},
			{
				"x": 0.8485643096,
				"y": 1.5954111565,
				"z": -0.4852150467,
				"element": "H" 
			},
			{
				"x": -1.2104105235,
				"y": -2.1003183418,
				"z": -1.1234048326,
				"element": "H" 
			},
			{
				"x": -3.1237497687,
				"y": -0.8636486099,
				"z": -2.1363636124,
				"element": "H" 
			},
			{
				"x": -3.0606361234,
				"y": 1.636146913,
				"z": -2.2588715782,
				"element": "H" 
			},
			{
				"x": 2.8146760356,
				"y": -3.6296790869,
				"z": -0.2634008634,
				"element": "H" 
			},
			{
				"x": 3.4217265692,
				"y": -1.9471440256,
				"z": 1.837792816,
				"element": "H" 
			}
		],
		 "valence_orbital": [ 
			{
				"type": "occ",
				"energy": -0.31021,
				"method": "rhf"
			},
			{
				"type": "occ",
				"energy": -0.28539,
				"method": "rhf"
			},
			{
				"type": "occ",
				"energy": -0.28326,
				"method": "rhf"
			},
			{
				"type": "occ",
				"energy": -0.27542,
				"method": "rhf"
			},
			{
				"type": "occ",
				"energy": -0.25771,
				"method": "rhf"
			},
			{
				"type": "unocc",
				"energy": -0.06176,
				"method": "rhf"
			},
			{
				"type": "unocc",
				"energy": -0.05088,
				"method": "rhf"
			},
			{
				"type": "unocc",
				"energy": -0.01073,
				"method": "rhf"
			},
			{
				"type": "unocc",
				"energy": 0.03552,
				"method": "rhf"
			},
			{
				"type": "unocc",
				"energy": 0.04249,
				"method": "rhf"
			}
		],
		"cosmo_sigma_profile": { 
			"-0.025": 0.0,
			"-0.024": 0.0,
			"-0.023": 0.0,
			"-0.022": 0.0,
			"-0.021": 0.0,
			"-0.02": 0.0,
			"-0.019": 0.0,
			"-0.018": 0.0,
			"-0.017": 0.0,
			"-0.016": 0.0,
			"-0.015": 0.00112443586345,
			"-0.014": 0.601470043925,
			"-0.013": 0.790865816173,
			"-0.012": 2.85779253031,
			"-0.011": 2.56913028858,
			"-0.01": 1.60891249766,
			"-0.009": 2.73562247425,
			"-0.008": 5.86505791702,
			"-0.007": 9.72369517796,
			"-0.006": 13.4136822879,
			"-0.005": 11.0689384006,
			"-0.004": 12.5413933734,
			"-0.003": 14.3758779024,
			"-0.002": 14.9950809748,
			"-0.001": 17.5205059312,
			"0.0": 19.42479704,
			"0.001": 31.415436023,
			"0.002": 39.0742452105,
			"0.003": 10.449422907,
			"0.004": 4.10251437084,
			"0.005": 3.7276964138,
			"0.006": 4.33478326885,
			"0.007": 4.25640058692,
			"0.008": 3.6418681523,
			"0.009": 4.76794553232,
			"0.01": 5.56844498341,
			"0.011": 7.09514092849,
			"0.012": 4.16560130616,
			"0.013": 1.63393822136,
			"0.014": 0.0,
			"0.015": 0.0,
			"0.016": 0.0,
			"0.017": 0.0,
			"0.018": 0.0,
			"0.019": 0.0,
			"0.02": 0.0,
			"0.021": 0.0,
			"0.022": 0.0,
			"0.023": 0.0,
			"0.024": 0.0,
			"0.025": 0.0
		}
	}
}
