{
	 "smiles": "ClCC(=O)C1=C(Br)C=CS1", 
	 "Tm": 349.15, 
	 "num_atms": 14, 
	 "gaussian": { 
		 "optdone": 1, 
		 "sigma_profile": "yes", 
		 "theory": "DFT", 
		 "functional": "B3LYP", 
		 "basiset": "6-31G**", 
		 "properties": { 
			 "R2extent": 4385.5096, 
			 "electric_dipole_moment_norm": 5.28096697017, 
			 "electric_quadrupole_moment_norm": 8.30198744278, 
			 "total_energy": -3736.02726808, 
			 "HOMO_LUMO_gap": 0.1755, 
			 "cosmo_polarized_energy": -12.59, 
			 "cosmo_cavitation_energy": 24.21, 
			 "cosmo_dispersion_energy": -18.98, 
			 "cosmo_repulsion_energy": 1.5, 
			 "cosmo_total_nonelectrostatic_energy": 6.73, 
			 "SMD_solvation_energy": 3.39 
		},
		"coords": [
			{
				"x": -1.4504655588,
				"y": 2.5829839322,
				"z": 1.9557345475,
				"element": "Cl" 
			},
			{
				"x": -0.7279433409,
				"y": 1.1991750833,
				"z": 1.0865319362,
				"element": "C" 
			},
			{
				"x": 0.4304258467,
				"y": 1.6097409827,
				"z": 0.162968096,
				"element": "C" 
			},
			{
				"x": 0.7983465991,
				"y": 2.7615927796,
				"z": 0.0544370522,
				"element": "O" 
			},
			{
				"x": 1.0692683556,
				"y": 0.5040750093,
				"z": -0.5868208608,
				"element": "C" 
			},
			{
				"x": 2.1230153349,
				"y": 0.5612472035,
				"z": -1.4825537844,
				"element": "C" 
			},
			{
				"x": 3.0514504098,
				"y": 2.1192404092,
				"z": -1.998492348,
				"element": "Br" 
			},
			{
				"x": 2.4921259928,
				"y": -0.7000219965,
				"z": -2.0281621341,
				"element": "C" 
			},
			{
				"x": 1.7187786722,
				"y": -1.719757693,
				"z": -1.5478816428,
				"element": "C" 
			},
			{
				"x": 0.5325591443,
				"y": -1.1626895971,
				"z": -0.4271625959,
				"element": "S" 
			},
			{
				"x": -1.5194182475,
				"y": 0.7203163008,
				"z": 0.5034152634,
				"element": "H" 
			},
			{
				"x": -0.3744479791,
				"y": 0.4827871149,
				"z": 1.8332778348,
				"element": "H" 
			},
			{
				"x": 3.2961807691,
				"y": -0.8239638492,
				"z": -2.7419116319,
				"element": "H" 
			},
			{
				"x": 1.7803240017,
				"y": -2.7717256796,
				"z": -1.7912797322,
				"element": "H" 
			}
		],
		 "valence_orbital": [ 
			{
				"type": "occ",
				"energy": -0.30187,
				"method": "rhf"
			},
			{
				"type": "occ",
				"energy": -0.30101,
				"method": "rhf"
			},
			{
				"type": "occ",
				"energy": -0.27432,
				"method": "rhf"
			},
			{
				"type": "occ",
				"energy": -0.26248,
				"method": "rhf"
			},
			{
				"type": "occ",
				"energy": -0.25701,
				"method": "rhf"
			},
			{
				"type": "unocc",
				"energy": -0.08151,
				"method": "rhf"
			},
			{
				"type": "unocc",
				"energy": -0.02134,
				"method": "rhf"
			},
			{
				"type": "unocc",
				"energy": 0.00258,
				"method": "rhf"
			},
			{
				"type": "unocc",
				"energy": 0.00687,
				"method": "rhf"
			},
			{
				"type": "unocc",
				"energy": 0.03798,
				"method": "rhf"
			}
		],
		"cosmo_sigma_profile": { 
			"-0.025": 0.0,
			"-0.024": 0.0,
			"-0.023": 0.0,
			"-0.022": 0.0,
			"-0.021": 0.0,
			"-0.02": 0.0,
			"-0.019": 0.0,
			"-0.018": 0.0,
			"-0.017": 0.0,
			"-0.016": 0.0,
			"-0.015": 0.0,
			"-0.014": 0.0,
			"-0.013": 0.0,
			"-0.012": 0.0,
			"-0.011": 0.396415833928,
			"-0.01": 3.91998534438,
			"-0.009": 7.98071962423,
			"-0.008": 8.52488724614,
			"-0.007": 8.78560557322,
			"-0.006": 7.57748388193,
			"-0.005": 7.79899840224,
			"-0.004": 7.91344140564,
			"-0.003": 8.1560262611,
			"-0.002": 9.49310408587,
			"-0.001": 12.7757679711,
			"0.0": 21.6405376406,
			"0.001": 21.025088863,
			"0.002": 16.2974317549,
			"0.003": 12.8093150765,
			"0.004": 10.1999720198,
			"0.005": 9.43654794979,
			"0.006": 8.16297578422,
			"0.007": 2.54813103697,
			"0.008": 2.54639793638,
			"0.009": 3.35132337884,
			"0.01": 3.31841223059,
			"0.011": 4.68868479688,
			"0.012": 2.29545960743,
			"0.013": 0.571203523216,
			"0.014": 0.0,
			"0.015": 0.0,
			"0.016": 0.0,
			"0.017": 0.0,
			"0.018": 0.0,
			"0.019": 0.0,
			"0.02": 0.0,
			"0.021": 0.0,
			"0.022": 0.0,
			"0.023": 0.0,
			"0.024": 0.0,
			"0.025": 0.0
		}
	}
}
