{
	 "smiles": "CC1CCC2C(C1C(O)=O)C(=O)N(C)C2=O", 
	 "Tm": 425.15, 
	 "num_atms": 31, 
	 "gaussian": { 
		 "optdone": 1, 
		 "sigma_profile": "yes", 
		 "theory": "DFT", 
		 "functional": "B3LYP", 
		 "basiset": "6-31G**", 
		 "properties": { 
			 "R2extent": 3801.6385, 
			 "electric_dipole_moment_norm": 2.56379388017, 
			 "electric_quadrupole_moment_norm": 8.91944725249, 
			 "total_energy": -783.914032685, 
			 "HOMO_LUMO_gap": 0.23551, 
			 "cosmo_polarized_energy": -18.2, 
			 "cosmo_cavitation_energy": 32.6, 
			 "cosmo_dispersion_energy": -22.87, 
			 "cosmo_repulsion_energy": 1.77, 
			 "cosmo_total_nonelectrostatic_energy": 11.5, 
			 "SMD_solvation_energy": 7.5 
		},
		"coords": [
			{
				"x": -0.4037458381,
				"y": -0.323302274,
				"z": -2.3224706431,
				"element": "C" 
			},
			{
				"x": -0.6695137668,
				"y": 0.9840954565,
				"z": -1.5548358133,
				"element": "C" 
			},
			{
				"x": -2.1131955099,
				"y": 1.0132667158,
				"z": -0.9815781045,
				"element": "C" 
			},
			{
				"x": -2.3387594205,
				"y": 0.1011673485,
				"z": 0.2463940728,
				"element": "C" 
			},
			{
				"x": -1.3023874255,
				"y": 0.5012724482,
				"z": 1.2843839231,
				"element": "C" 
			},
			{
				"x": 0.1298352723,
				"y": 0.3587393569,
				"z": 0.7548050016,
				"element": "C" 
			},
			{
				"x": 0.3890891471,
				"y": 1.2876053459,
				"z": -0.4261841868,
				"element": "C" 
			},
			{
				"x": 1.8045527517,
				"y": 1.1394059071,
				"z": -0.9534592309,
				"element": "C" 
			},
			{
				"x": 2.291525548,
				"y": 2.3123922241,
				"z": -1.4206834618,
				"element": "O" 
			},
			{
				"x": 2.4277220279,
				"y": 0.101677874,
				"z": -1.0083624217,
				"element": "O" 
			},
			{
				"x": 0.9548477319,
				"y": 0.4656727288,
				"z": 2.0320199499,
				"element": "C" 
			},
			{
				"x": 2.0995498429,
				"y": 0.8337517194,
				"z": 2.189292141,
				"element": "O" 
			},
			{
				"x": 0.1229349421,
				"y": -0.0139152103,
				"z": 3.0547520945,
				"element": "N" 
			},
			{
				"x": 0.59565183,
				"y": -0.2825708565,
				"z": 4.4035153814,
				"element": "C" 
			},
			{
				"x": -1.2174093049,
				"y": -0.1513912872,
				"z": 2.6576670395,
				"element": "C" 
			},
			{
				"x": -2.1016038442,
				"y": -0.6290836256,
				"z": 3.3369894438,
				"element": "O" 
			},
			{
				"x": 0.5828228147,
				"y": -0.3320683802,
				"z": -2.7906139135,
				"element": "H" 
			},
			{
				"x": -0.4632304237,
				"y": -1.2084207184,
				"z": -1.6819480306,
				"element": "H" 
			},
			{
				"x": -1.1534434099,
				"y": -0.4401999078,
				"z": -3.1118754214,
				"element": "H" 
			},
			{
				"x": -0.5914251442,
				"y": 1.8064525876,
				"z": -2.276711564,
				"element": "H" 
			},
			{
				"x": -2.3578185075,
				"y": 2.0436283717,
				"z": -0.6895833788,
				"element": "H" 
			},
			{
				"x": -2.8111894731,
				"y": 0.746703179,
				"z": -1.7831232583,
				"element": "H" 
			},
			{
				"x": -2.2275178147,
				"y": -0.9567501444,
				"z": -0.0187689268,
				"element": "H" 
			},
			{
				"x": -3.3543949019,
				"y": 0.2278019454,
				"z": 0.6341632592,
				"element": "H" 
			},
			{
				"x": -1.4611005884,
				"y": 1.5692292196,
				"z": 1.5129594168,
				"element": "H" 
			},
			{
				"x": 0.2806476151,
				"y": -0.6753595197,
				"z": 0.4149236922,
				"element": "H" 
			},
			{
				"x": 0.254820242,
				"y": 2.3290924238,
				"z": -0.1130751392,
				"element": "H" 
			},
			{
				"x": 3.1854762146,
				"y": 2.1210173911,
				"z": -1.7524466072,
				"element": "H" 
			},
			{
				"x": 1.4037557658,
				"y": -1.0181506732,
				"z": 4.382746115,
				"element": "H" 
			},
			{
				"x": 0.9716213021,
				"y": 0.6348293038,
				"z": 4.8644778752,
				"element": "H" 
			},
			{
				"x": -0.2475176749,
				"y": -0.6713889497,
				"z": 4.9752306958,
				"element": "H" 
			}
		],
		 "valence_orbital": [ 
			{
				"type": "occ",
				"energy": -0.31691,
				"method": "rhf"
			},
			{
				"type": "occ",
				"energy": -0.28246,
				"method": "rhf"
			},
			{
				"type": "occ",
				"energy": -0.2757,
				"method": "rhf"
			},
			{
				"type": "occ",
				"energy": -0.27087,
				"method": "rhf"
			},
			{
				"type": "occ",
				"energy": -0.25911,
				"method": "rhf"
			},
			{
				"type": "unocc",
				"energy": -0.0236,
				"method": "rhf"
			},
			{
				"type": "unocc",
				"energy": 0.00429,
				"method": "rhf"
			},
			{
				"type": "unocc",
				"energy": 0.028,
				"method": "rhf"
			},
			{
				"type": "unocc",
				"energy": 0.06847,
				"method": "rhf"
			},
			{
				"type": "unocc",
				"energy": 0.07938,
				"method": "rhf"
			}
		],
		"cosmo_sigma_profile": { 
			"-0.025": 0.0,
			"-0.024": 0.0,
			"-0.023": 0.0,
			"-0.022": 0.0,
			"-0.021": 0.0,
			"-0.02": 0.0,
			"-0.019": 0.0362900328742,
			"-0.018": 0.727807695923,
			"-0.017": 0.879516272659,
			"-0.016": 0.998708269506,
			"-0.015": 0.745947456758,
			"-0.014": 0.647453048295,
			"-0.013": 0.361497885786,
			"-0.012": 1.04887138481,
			"-0.011": 0.974770902027,
			"-0.01": 0.671072535401,
			"-0.009": 1.23618051255,
			"-0.008": 4.89006953803,
			"-0.007": 8.27150765922,
			"-0.006": 13.008878272,
			"-0.005": 13.0591773712,
			"-0.004": 22.7598724329,
			"-0.003": 32.2772088061,
			"-0.002": 27.4700083019,
			"-0.001": 20.7153341331,
			"0.0": 15.3524883376,
			"0.001": 9.5425172137,
			"0.002": 6.47308894544,
			"0.003": 6.79309347006,
			"0.004": 5.00969301824,
			"0.005": 5.83993929701,
			"0.006": 6.44365107815,
			"0.007": 4.17966135351,
			"0.008": 5.07019553487,
			"0.009": 7.78312133511,
			"0.01": 7.18724185359,
			"0.011": 12.3110950972,
			"0.012": 10.6183903268,
			"0.013": 0.800868603749,
			"0.014": 0.0,
			"0.015": 0.0,
			"0.016": 0.0,
			"0.017": 0.0,
			"0.018": 0.0,
			"0.019": 0.0,
			"0.02": 0.0,
			"0.021": 0.0,
			"0.022": 0.0,
			"0.023": 0.0,
			"0.024": 0.0,
			"0.025": 0.0
		}
	}
}
