{
	 "smiles": "COC(=O)C(N)C1=CC2=C(C=CC=C2)C=C1", 
	 "Tm": 330.15, 
	 "num_atms": 29, 
	 "gaussian": { 
		 "optdone": 1, 
		 "sigma_profile": "yes", 
		 "theory": "DFT", 
		 "functional": "B3LYP", 
		 "basiset": "6-31G**", 
		 "properties": { 
			 "R2extent": 4360.016, 
			 "electric_dipole_moment_norm": 1.74471073247, 
			 "electric_quadrupole_moment_norm": 9.67309073099, 
			 "total_energy": -708.431819858, 
			 "HOMO_LUMO_gap": 0.17632, 
			 "cosmo_polarized_energy": -12.23, 
			 "cosmo_cavitation_energy": 33.09, 
			 "cosmo_dispersion_energy": -23.36, 
			 "cosmo_repulsion_energy": 1.83, 
			 "cosmo_total_nonelectrostatic_energy": 11.56, 
			 "SMD_solvation_energy": 5.52 
		},
		"coords": [
			{
				"x": 2.1882376398,
				"y": -3.1337553797,
				"z": 0.205673147,
				"element": "C" 
			},
			{
				"x": 2.1002787119,
				"y": -1.7176539469,
				"z": 0.4408522087,
				"element": "O" 
			},
			{
				"x": 1.7577443915,
				"y": -0.9709299548,
				"z": -0.627247039,
				"element": "C" 
			},
			{
				"x": 1.5646713655,
				"y": -1.4259299486,
				"z": -1.7365342078,
				"element": "O" 
			},
			{
				"x": 1.6352649415,
				"y": 0.5139721613,
				"z": -0.2631362345,
				"element": "C" 
			},
			{
				"x": 1.8979470826,
				"y": 1.40859669,
				"z": -1.3895662982,
				"element": "N" 
			},
			{
				"x": 0.2545741873,
				"y": 0.8068509474,
				"z": 0.3180865404,
				"element": "C" 
			},
			{
				"x": -0.8799217482,
				"y": 0.176864482,
				"z": -0.1514456438,
				"element": "C" 
			},
			{
				"x": -2.1674372982,
				"y": 0.4936574731,
				"z": 0.3603514667,
				"element": "C" 
			},
			{
				"x": -2.2833276279,
				"y": 1.4893949071,
				"z": 1.3831917434,
				"element": "C" 
			},
			{
				"x": -3.5705054607,
				"y": 1.8021153507,
				"z": 1.8961845584,
				"element": "C" 
			},
			{
				"x": -4.6932626825,
				"y": 1.1624366761,
				"z": 1.4200536913,
				"element": "C" 
			},
			{
				"x": -4.5793979113,
				"y": 0.1782964778,
				"z": 0.4072944444,
				"element": "C" 
			},
			{
				"x": -3.3453007367,
				"y": -0.1477861683,
				"z": -0.1093108803,
				"element": "C" 
			},
			{
				"x": -1.100697565,
				"y": 2.1282726521,
				"z": 1.8455697277,
				"element": "C" 
			},
			{
				"x": 0.1290851499,
				"y": 1.7990521884,
				"z": 1.3278580067,
				"element": "C" 
			},
			{
				"x": 1.2205044967,
				"y": -3.5304356923,
				"z": -0.111681714,
				"element": "H" 
			},
			{
				"x": 2.4874192936,
				"y": -3.572821334,
				"z": 1.1571344945,
				"element": "H" 
			},
			{
				"x": 2.9288173711,
				"y": -3.3497168812,
				"z": -0.5682794789,
				"element": "H" 
			},
			{
				"x": 2.3797277581,
				"y": 0.7153071141,
				"z": 0.5147745926,
				"element": "H" 
			},
			{
				"x": 1.2561551869,
				"y": 1.1712075058,
				"z": -2.1437586356,
				"element": "H" 
			},
			{
				"x": 2.8317337328,
				"y": 1.2291476936,
				"z": -1.7546305646,
				"element": "H" 
			},
			{
				"x": -0.8035215232,
				"y": -0.5788605699,
				"z": -0.9293701453,
				"element": "H" 
			},
			{
				"x": -3.6546903742,
				"y": 2.5582414471,
				"z": 2.6727318048,
				"element": "H" 
			},
			{
				"x": -5.6723655635,
				"y": 1.4109003718,
				"z": 1.8194123972,
				"element": "H" 
			},
			{
				"x": -5.47228964,
				"y": -0.318841517,
				"z": 0.0392551464,
				"element": "H" 
			},
			{
				"x": -3.2552344162,
				"y": -0.9023978721,
				"z": -0.8866307838,
				"element": "H" 
			},
			{
				"x": -1.1831849517,
				"y": 2.8866251215,
				"z": 2.6200699246,
				"element": "H" 
			},
			{
				"x": 1.02337619,
				"y": 2.3023900048,
				"z": 1.684497731,
				"element": "H" 
			}
		],
		 "valence_orbital": [ 
			{
				"type": "occ",
				"energy": -0.28354,
				"method": "rhf"
			},
			{
				"type": "occ",
				"energy": -0.27894,
				"method": "rhf"
			},
			{
				"type": "occ",
				"energy": -0.24577,
				"method": "rhf"
			},
			{
				"type": "occ",
				"energy": -0.23893,
				"method": "rhf"
			},
			{
				"type": "occ",
				"energy": -0.21465,
				"method": "rhf"
			},
			{
				"type": "unocc",
				"energy": -0.03833,
				"method": "rhf"
			},
			{
				"type": "unocc",
				"energy": -0.01284,
				"method": "rhf"
			},
			{
				"type": "unocc",
				"energy": 0.01098,
				"method": "rhf"
			},
			{
				"type": "unocc",
				"energy": 0.03223,
				"method": "rhf"
			},
			{
				"type": "unocc",
				"energy": 0.08289,
				"method": "rhf"
			}
		],
		"cosmo_sigma_profile": { 
			"-0.025": 0.0,
			"-0.024": 0.0,
			"-0.023": 0.0,
			"-0.022": 0.0,
			"-0.021": 0.0,
			"-0.02": 0.0,
			"-0.019": 0.0,
			"-0.018": 0.0,
			"-0.017": 0.0,
			"-0.016": 0.0,
			"-0.015": 0.0,
			"-0.014": 0.0,
			"-0.013": 0.0,
			"-0.012": 0.0,
			"-0.011": 0.789932098271,
			"-0.01": 1.67439386688,
			"-0.009": 2.71783695556,
			"-0.008": 2.16316546704,
			"-0.007": 4.38246738822,
			"-0.006": 21.8609228929,
			"-0.005": 23.1091522877,
			"-0.004": 25.3223305221,
			"-0.003": 23.1935310844,
			"-0.002": 16.9133996381,
			"-0.001": 12.4746697127,
			"0.0": 12.3677988489,
			"0.001": 13.0514425776,
			"0.002": 13.2667087054,
			"0.003": 17.1092283473,
			"0.004": 27.0068278676,
			"0.005": 16.081853632,
			"0.006": 5.65210864009,
			"0.007": 3.37200141088,
			"0.008": 3.29248487214,
			"0.009": 2.54808285764,
			"0.01": 2.66750018626,
			"0.011": 3.1981197116,
			"0.012": 4.82627854349,
			"0.013": 0.821352461509,
			"0.014": 0.613060108585,
			"0.015": 0.518969063575,
			"0.016": 0.699137670218,
			"0.017": 0.658251268204,
			"0.018": 0.307375884085,
			"0.019": 0.0,
			"0.02": 0.0,
			"0.021": 0.0,
			"0.022": 0.0,
			"0.023": 0.0,
			"0.024": 0.0,
			"0.025": 0.0
		}
	}
}
