{
	 "smiles": "NN1C(=O)NC2=C(C=CC=C2)C1=O", 
	 "Tm": 571.15, 
	 "num_atms": 20, 
	 "gaussian": { 
		 "optdone": 1, 
		 "sigma_profile": "yes", 
		 "theory": "DFT", 
		 "functional": "B3LYP", 
		 "basiset": "6-31G**", 
		 "properties": { 
			 "R2extent": 2299.7459, 
			 "electric_dipole_moment_norm": 4.23026563941, 
			 "electric_quadrupole_moment_norm": 8.65423824146, 
			 "total_energy": -623.789856727, 
			 "HOMO_LUMO_gap": 0.17834, 
			 "cosmo_polarized_energy": -16.79, 
			 "cosmo_cavitation_energy": 24.29, 
			 "cosmo_dispersion_energy": -18.56, 
			 "cosmo_repulsion_energy": 1.43, 
			 "cosmo_total_nonelectrostatic_energy": 7.16, 
			 "SMD_solvation_energy": 5.7 
		},
		"coords": [
			{
				"x": -3.0961157971,
				"y": 0.8009289856,
				"z": -0.6118429423,
				"element": "N" 
			},
			{
				"x": -1.8365683055,
				"y": 0.6421241231,
				"z": 0.0175771141,
				"element": "N" 
			},
			{
				"x": -1.84015274,
				"y": 0.7047615971,
				"z": 1.4088253764,
				"element": "C" 
			},
			{
				"x": -2.8308033885,
				"y": 1.0230098468,
				"z": 2.0476339044,
				"element": "O" 
			},
			{
				"x": -0.6256545645,
				"y": 0.4000349494,
				"z": 1.9938212699,
				"element": "N" 
			},
			{
				"x": 0.5368726349,
				"y": 0.080687288,
				"z": 1.3078974446,
				"element": "C" 
			},
			{
				"x": 0.506378379,
				"y": 0.0726803703,
				"z": -0.0983913437,
				"element": "C" 
			},
			{
				"x": 1.6694854922,
				"y": -0.2351846525,
				"z": -0.8178614229,
				"element": "C" 
			},
			{
				"x": 2.8484488892,
				"y": -0.5337496511,
				"z": -0.1491259489,
				"element": "C" 
			},
			{
				"x": 2.8702054182,
				"y": -0.5251848909,
				"z": 1.2539143889,
				"element": "C" 
			},
			{
				"x": 1.7279384433,
				"y": -0.2213559362,
				"z": 1.9846669592,
				"element": "C" 
			},
			{
				"x": -0.7407944324,
				"y": 0.3869363039,
				"z": -0.8097854054,
				"element": "C" 
			},
			{
				"x": -0.8695988688,
				"y": 0.4335857142,
				"z": -2.0294763464,
				"element": "O" 
			},
			{
				"x": -2.8729238771,
				"y": 1.0934880246,
				"z": -1.5627875513,
				"element": "H" 
			},
			{
				"x": -3.5756232869,
				"y": 1.5454089502,
				"z": -0.1091136239,
				"element": "H" 
			},
			{
				"x": -0.6283500672,
				"y": 0.4533123769,
				"z": 3.0027625012,
				"element": "H" 
			},
			{
				"x": 1.610006801,
				"y": -0.2313543318,
				"z": -1.9009597686,
				"element": "H" 
			},
			{
				"x": 3.7482118975,
				"y": -0.7732770804,
				"z": -0.7061032231,
				"element": "H" 
			},
			{
				"x": 3.7900483268,
				"y": -0.7585024303,
				"z": 1.7819895175,
				"element": "H" 
			},
			{
				"x": 1.749389046,
				"y": -0.2151495568,
				"z": 3.0708591001,
				"element": "H" 
			}
		],
		 "valence_orbital": [ 
			{
				"type": "occ",
				"energy": -0.29762,
				"method": "rhf"
			},
			{
				"type": "occ",
				"energy": -0.27481,
				"method": "rhf"
			},
			{
				"type": "occ",
				"energy": -0.27216,
				"method": "rhf"
			},
			{
				"type": "occ",
				"energy": -0.2407,
				"method": "rhf"
			},
			{
				"type": "occ",
				"energy": -0.23194,
				"method": "rhf"
			},
			{
				"type": "unocc",
				"energy": -0.0536,
				"method": "rhf"
			},
			{
				"type": "unocc",
				"energy": -0.02139,
				"method": "rhf"
			},
			{
				"type": "unocc",
				"energy": 0.0174,
				"method": "rhf"
			},
			{
				"type": "unocc",
				"energy": 0.06619,
				"method": "rhf"
			},
			{
				"type": "unocc",
				"energy": 0.07387,
				"method": "rhf"
			}
		],
		"cosmo_sigma_profile": { 
			"-0.025": 0.0,
			"-0.024": 0.0,
			"-0.023": 0.0,
			"-0.022": 0.0,
			"-0.021": 0.0,
			"-0.02": 0.0,
			"-0.019": 0.0,
			"-0.018": 0.0,
			"-0.017": 0.403996198498,
			"-0.016": 1.1857346237,
			"-0.015": 1.14432450804,
			"-0.014": 1.49747024857,
			"-0.013": 0.864653890596,
			"-0.012": 2.54827558186,
			"-0.011": 3.44022992724,
			"-0.01": 3.34831293668,
			"-0.009": 3.57854393109,
			"-0.008": 3.5517036877,
			"-0.007": 6.13995661543,
			"-0.006": 10.9518456564,
			"-0.005": 12.8033580839,
			"-0.004": 12.4154336543,
			"-0.003": 9.92900425751,
			"-0.002": 11.0094843901,
			"-0.001": 10.8051540615,
			"0.0": 11.5170427722,
			"0.001": 11.5325066013,
			"0.002": 12.6205128333,
			"0.003": 12.2382456312,
			"0.004": 8.97952218842,
			"0.005": 3.34603838922,
			"0.006": 3.85492837933,
			"0.007": 3.59651422098,
			"0.008": 2.71603617348,
			"0.009": 3.39806692188,
			"0.01": 4.58082344032,
			"0.011": 5.96592216498,
			"0.012": 10.1200216275,
			"0.013": 3.24801119105,
			"0.014": 0.103807490112,
			"0.015": 1.07966079334,
			"0.016": 0.127084560276,
			"0.017": 0.0,
			"0.018": 0.0,
			"0.019": 0.0,
			"0.02": 0.0,
			"0.021": 0.0,
			"0.022": 0.0,
			"0.023": 0.0,
			"0.024": 0.0,
			"0.025": 0.0
		}
	}
}
