{
	 "smiles": "CCCC(C)C=O", 
	 "Tm": 173.15, 
	 "num_atms": 19, 
	 "gaussian": { 
		 "optdone": 1, 
		 "sigma_profile": "yes", 
		 "theory": "DFT", 
		 "functional": "B3LYP", 
		 "basiset": "6-31G**", 
		 "properties": { 
			 "R2extent": 1389.7743, 
			 "electric_dipole_moment_norm": 2.71596227698, 
			 "electric_quadrupole_moment_norm": 10.8389228409, 
			 "total_energy": -311.096062991, 
			 "HOMO_LUMO_gap": 0.2255, 
			 "cosmo_polarized_energy": -5.78, 
			 "cosmo_cavitation_energy": 21.47, 
			 "cosmo_dispersion_energy": -15.24, 
			 "cosmo_repulsion_energy": 1.32, 
			 "cosmo_total_nonelectrostatic_energy": 7.55, 
			 "SMD_solvation_energy": 4.62 
		},
		"coords": [
			{
				"x": 0.3067418333,
				"y": 2.9645820514,
				"z": 0.8434542346,
				"element": "C" 
			},
			{
				"x": 1.0702159692,
				"y": 1.7884557265,
				"z": 0.2269713969,
				"element": "C" 
			},
			{
				"x": 0.1456856199,
				"y": 0.6508519492,
				"z": -0.2277296178,
				"element": "C" 
			},
			{
				"x": 0.8834519787,
				"y": -0.5570405721,
				"z": -0.8443860781,
				"element": "C" 
			},
			{
				"x": -0.0822223105,
				"y": -1.7244218849,
				"z": -1.1245656468,
				"element": "C" 
			},
			{
				"x": 1.5499229051,
				"y": -0.1487315568,
				"z": -2.1444365118,
				"element": "C" 
			},
			{
				"x": 2.736007238,
				"y": -0.2145354227,
				"z": -2.3789990289,
				"element": "O" 
			},
			{
				"x": 0.9894314967,
				"y": 3.7576754473,
				"z": 1.1644582075,
				"element": "H" 
			},
			{
				"x": -0.2705095103,
				"y": 2.6476760562,
				"z": 1.7196604741,
				"element": "H" 
			},
			{
				"x": -0.3966842834,
				"y": 3.4019534345,
				"z": 0.125712528,
				"element": "H" 
			},
			{
				"x": 1.7918646979,
				"y": 1.3948870451,
				"z": 0.9548105613,
				"element": "H" 
			},
			{
				"x": 1.6668117502,
				"y": 2.1439978439,
				"z": -0.6232062971,
				"element": "H" 
			},
			{
				"x": -0.5834628254,
				"y": 1.0363845449,
				"z": -0.9560272348,
				"element": "H" 
			},
			{
				"x": -0.4441664221,
				"y": 0.2948501464,
				"z": 0.6273273442,
				"element": "H" 
			},
			{
				"x": 1.6800648545,
				"y": -0.8894623431,
				"z": -0.1684541963,
				"element": "H" 
			},
			{
				"x": -0.5885967513,
				"y": -2.0287547356,
				"z": -0.2032020094,
				"element": "H" 
			},
			{
				"x": 0.4467944322,
				"y": -2.5949017653,
				"z": -1.5245241865,
				"element": "H" 
			},
			{
				"x": -0.8537294309,
				"y": -1.4353853483,
				"z": -1.8479030391,
				"element": "H" 
			},
			{
				"x": 0.8363787582,
				"y": 0.2312193833,
				"z": -2.9170609,
				"element": "H" 
			}
		],
		 "valence_orbital": [ 
			{
				"type": "occ",
				"energy": -0.35616,
				"method": "rhf"
			},
			{
				"type": "occ",
				"energy": -0.33936,
				"method": "rhf"
			},
			{
				"type": "occ",
				"energy": -0.33314,
				"method": "rhf"
			},
			{
				"type": "occ",
				"energy": -0.32411,
				"method": "rhf"
			},
			{
				"type": "occ",
				"energy": -0.24636,
				"method": "rhf"
			},
			{
				"type": "unocc",
				"energy": -0.02086,
				"method": "rhf"
			},
			{
				"type": "unocc",
				"energy": 0.08772,
				"method": "rhf"
			},
			{
				"type": "unocc",
				"energy": 0.10515,
				"method": "rhf"
			},
			{
				"type": "unocc",
				"energy": 0.1087,
				"method": "rhf"
			},
			{
				"type": "unocc",
				"energy": 0.13616,
				"method": "rhf"
			}
		],
		"cosmo_sigma_profile": { 
			"-0.025": 0.0,
			"-0.024": 0.0,
			"-0.023": 0.0,
			"-0.022": 0.0,
			"-0.021": 0.0,
			"-0.02": 0.0,
			"-0.019": 0.0,
			"-0.018": 0.0,
			"-0.017": 0.0,
			"-0.016": 0.0,
			"-0.015": 0.0,
			"-0.014": 0.0,
			"-0.013": 0.0,
			"-0.012": 0.0,
			"-0.011": 0.0,
			"-0.01": 0.0,
			"-0.009": 0.0,
			"-0.008": 0.0,
			"-0.007": 0.0,
			"-0.006": 1.15706036248,
			"-0.005": 6.36543952235,
			"-0.004": 11.5063088264,
			"-0.003": 23.3286099944,
			"-0.002": 27.7361306093,
			"-0.001": 25.1539149041,
			"0.0": 24.0106181608,
			"0.001": 17.8446343658,
			"0.002": 5.42415309083,
			"0.003": 1.8323657713,
			"0.004": 1.4728240321,
			"0.005": 1.65315610765,
			"0.006": 1.32400042526,
			"0.007": 1.42556456956,
			"0.008": 1.84849931604,
			"0.009": 1.64671252687,
			"0.01": 2.64124576771,
			"0.011": 4.3999945202,
			"0.012": 3.88796016825,
			"0.013": 1.2995709956,
			"0.014": 0.0,
			"0.015": 0.0,
			"0.016": 0.0,
			"0.017": 0.0,
			"0.018": 0.0,
			"0.019": 0.0,
			"0.02": 0.0,
			"0.021": 0.0,
			"0.022": 0.0,
			"0.023": 0.0,
			"0.024": 0.0,
			"0.025": 0.0
		}
	}
}
