{
	 "smiles": "NC1=C2CCCCC2=CC=C1", 
	 "Tm": 311.15, 
	 "num_atms": 24, 
	 "gaussian": { 
		 "optdone": 1, 
		 "sigma_profile": "yes", 
		 "theory": "DFT", 
		 "functional": "B3LYP", 
		 "basiset": "6-31G**", 
		 "properties": { 
			 "R2extent": 1797.0026, 
			 "electric_dipole_moment_norm": 1.57689822753, 
			 "electric_quadrupole_moment_norm": 8.30353628522, 
			 "total_energy": -443.672631163, 
			 "HOMO_LUMO_gap": 0.20845, 
			 "cosmo_polarized_energy": -7.24, 
			 "cosmo_cavitation_energy": 24.88, 
			 "cosmo_dispersion_energy": -19.01, 
			 "cosmo_repulsion_energy": 1.52, 
			 "cosmo_total_nonelectrostatic_energy": 7.39, 
			 "SMD_solvation_energy": 3.24 
		},
		"coords": [
			{
				"x": -0.4354987383,
				"y": -2.7324426021,
				"z": 1.740618368,
				"element": "N" 
			},
			{
				"x": -0.2715609239,
				"y": -1.3526622409,
				"z": 1.5452178914,
				"element": "C" 
			},
			{
				"x": -0.126042973,
				"y": -0.8375677659,
				"z": 0.2344674152,
				"element": "C" 
			},
			{
				"x": -0.1940058525,
				"y": -1.7962573135,
				"z": -0.940962355,
				"element": "C" 
			},
			{
				"x": 0.2718919812,
				"y": -1.1833969223,
				"z": -2.2687337074,
				"element": "C" 
			},
			{
				"x": -0.2996741344,
				"y": 0.2256672458,
				"z": -2.4465693369,
				"element": "C" 
			},
			{
				"x": 0.2187844933,
				"y": 1.1397843797,
				"z": -1.3313884121,
				"element": "C" 
			},
			{
				"x": 0.0633803251,
				"y": 0.5427507929,
				"z": 0.0579421007,
				"element": "C" 
			},
			{
				"x": 0.1316624413,
				"y": 1.3896188506,
				"z": 1.1735673429,
				"element": "C" 
			},
			{
				"x": 0.0138976169,
				"y": 0.8717831187,
				"z": 2.4597611689,
				"element": "C" 
			},
			{
				"x": -0.1931910989,
				"y": -0.4924235609,
				"z": 2.648597356,
				"element": "C" 
			},
			{
				"x": -0.770296439,
				"y": -2.9778526172,
				"z": 2.6628977234,
				"element": "H" 
			},
			{
				"x": -0.968053797,
				"y": -3.2068554586,
				"z": 1.0240879991,
				"element": "H" 
			},
			{
				"x": 0.4032103778,
				"y": -2.6895485084,
				"z": -0.7151691774,
				"element": "H" 
			},
			{
				"x": -1.2311682454,
				"y": -2.1535244331,
				"z": -1.0607385458,
				"element": "H" 
			},
			{
				"x": -0.0190038772,
				"y": -1.8357574739,
				"z": -3.0999690207,
				"element": "H" 
			},
			{
				"x": 1.3686707744,
				"y": -1.1280316689,
				"z": -2.2808154876,
				"element": "H" 
			},
			{
				"x": -1.3969696834,
				"y": 0.1827792218,
				"z": -2.4135388853,
				"element": "H" 
			},
			{
				"x": -0.0279540896,
				"y": 0.636285681,
				"z": -3.4258007371,
				"element": "H" 
			},
			{
				"x": 1.2840342982,
				"y": 1.3483970155,
				"z": -1.5114247111,
				"element": "H" 
			},
			{
				"x": -0.2854962733,
				"y": 2.1129771651,
				"z": -1.3654954877,
				"element": "H" 
			},
			{
				"x": 0.2775748698,
				"y": 2.4565252231,
				"z": 1.0248556767,
				"element": "H" 
			},
			{
				"x": 0.0679853917,
				"y": 1.5315254679,
				"z": 3.3215151528,
				"element": "H" 
			},
			{
				"x": -0.2983764438,
				"y": -0.8988735965,
				"z": 3.6520776691,
				"element": "H" 
			}
		],
		 "valence_orbital": [ 
			{
				"type": "occ",
				"energy": -0.30948,
				"method": "rhf"
			},
			{
				"type": "occ",
				"energy": -0.30025,
				"method": "rhf"
			},
			{
				"type": "occ",
				"energy": -0.29026,
				"method": "rhf"
			},
			{
				"type": "occ",
				"energy": -0.22384,
				"method": "rhf"
			},
			{
				"type": "occ",
				"energy": -0.19291,
				"method": "rhf"
			},
			{
				"type": "unocc",
				"energy": 0.01554,
				"method": "rhf"
			},
			{
				"type": "unocc",
				"energy": 0.02415,
				"method": "rhf"
			},
			{
				"type": "unocc",
				"energy": 0.08251,
				"method": "rhf"
			},
			{
				"type": "unocc",
				"energy": 0.10065,
				"method": "rhf"
			},
			{
				"type": "unocc",
				"energy": 0.10804,
				"method": "rhf"
			}
		],
		"cosmo_sigma_profile": { 
			"-0.025": 0.0,
			"-0.024": 0.0,
			"-0.023": 0.0,
			"-0.022": 0.0,
			"-0.021": 0.0,
			"-0.02": 0.0,
			"-0.019": 0.0,
			"-0.018": 0.0,
			"-0.017": 0.0,
			"-0.016": 0.0,
			"-0.015": 0.0,
			"-0.014": 0.0,
			"-0.013": 0.0,
			"-0.012": 0.894708567657,
			"-0.011": 1.9184787108,
			"-0.01": 2.45830447749,
			"-0.009": 2.98429012238,
			"-0.008": 3.35469797668,
			"-0.007": 2.72423122597,
			"-0.006": 2.62795856166,
			"-0.005": 4.55917677072,
			"-0.004": 7.94469685014,
			"-0.003": 15.5164167653,
			"-0.002": 25.0296052898,
			"-0.001": 27.2639265693,
			"0.0": 25.6343018645,
			"0.001": 17.2983328012,
			"0.002": 8.26904526826,
			"0.003": 6.05764978826,
			"0.004": 5.92367526393,
			"0.005": 7.01536724847,
			"0.006": 6.7665953573,
			"0.007": 8.10615173986,
			"0.008": 6.7380831621,
			"0.009": 1.22713099956,
			"0.01": 1.21973761831,
			"0.011": 0.615760705993,
			"0.012": 0.131047063408,
			"0.013": 0.647836556233,
			"0.014": 1.00663393177,
			"0.015": 0.34589750523,
			"0.016": 0.0388747867699,
			"0.017": 0.0,
			"0.018": 0.0,
			"0.019": 0.0,
			"0.02": 0.0,
			"0.021": 0.0,
			"0.022": 0.0,
			"0.023": 0.0,
			"0.024": 0.0,
			"0.025": 0.0
		}
	}
}
