{
	 "smiles": "CC(=O)CN1C(=O)COCC1=O", 
	 "Tm": 351.15, 
	 "num_atms": 21, 
	 "gaussian": { 
		 "optdone": 1, 
		 "sigma_profile": "yes", 
		 "theory": "DFT", 
		 "functional": "B3LYP", 
		 "basiset": "6-31G**", 
		 "properties": { 
			 "R2extent": 2123.7852, 
			 "electric_dipole_moment_norm": 2.53422566477, 
			 "electric_quadrupole_moment_norm": 15.1919115315, 
			 "total_energy": -627.816793097, 
			 "HOMO_LUMO_gap": 0.22165, 
			 "cosmo_polarized_energy": -15.96, 
			 "cosmo_cavitation_energy": 25.32, 
			 "cosmo_dispersion_energy": -18.08, 
			 "cosmo_repulsion_energy": 1.47, 
			 "cosmo_total_nonelectrostatic_energy": 8.7, 
			 "SMD_solvation_energy": 6.51 
		},
		"coords": [
			{
				"x": -3.6660748011,
				"y": -1.246240038,
				"z": 1.6786141531,
				"element": "C" 
			},
			{
				"x": -2.2517811018,
				"y": -1.1617010125,
				"z": 1.1435240006,
				"element": "C" 
			},
			{
				"x": -1.5415313393,
				"y": -2.1320006984,
				"z": 0.991614568,
				"element": "O" 
			},
			{
				"x": -1.7606893349,
				"y": 0.252143757,
				"z": 0.7980768483,
				"element": "C" 
			},
			{
				"x": -0.3956823517,
				"y": 0.2428666976,
				"z": 0.2925308199,
				"element": "N" 
			},
			{
				"x": -0.2017471374,
				"y": 0.0663333935,
				"z": -1.0819421421,
				"element": "C" 
			},
			{
				"x": -1.1330538011,
				"y": 0.0417660392,
				"z": -1.8633946013,
				"element": "O" 
			},
			{
				"x": 1.2479601317,
				"y": -0.030591749,
				"z": -1.539668759,
				"element": "C" 
			},
			{
				"x": 2.1153014887,
				"y": -0.5386934767,
				"z": -0.5495205913,
				"element": "O" 
			},
			{
				"x": 2.0564540892,
				"y": 0.2189785056,
				"z": 0.6392995077,
				"element": "C" 
			},
			{
				"x": 0.6512351097,
				"y": 0.3303651562,
				"z": 1.2167981582,
				"element": "C" 
			},
			{
				"x": 0.4484686591,
				"y": 0.5316698793,
				"z": 2.398735174,
				"element": "O" 
			},
			{
				"x": -3.7653934917,
				"y": -0.6498633577,
				"z": 2.5930050339,
				"element": "H" 
			},
			{
				"x": -4.376007723,
				"y": -0.8391940014,
				"z": 0.9492677434,
				"element": "H" 
			},
			{
				"x": -3.9153633904,
				"y": -2.2863446979,
				"z": 1.8910256668,
				"element": "H" 
			},
			{
				"x": -2.4099707491,
				"y": 0.6842353684,
				"z": 0.0327656975,
				"element": "H" 
			},
			{
				"x": -1.7932039932,
				"y": 0.8759737044,
				"z": 1.6945956135,
				"element": "H" 
			},
			{
				"x": 1.2803039811,
				"y": -0.7091435245,
				"z": -2.3932957118,
				"element": "H" 
			},
			{
				"x": 1.5647379371,
				"y": 0.9703244874,
				"z": -1.883529315,
				"element": "H" 
			},
			{
				"x": 2.4458491128,
				"y": 1.2419225467,
				"z": 0.4897042952,
				"element": "H" 
			},
			{
				"x": 2.681188705,
				"y": -0.2769069792,
				"z": 1.3835938407,
				"element": "H" 
			}
		],
		 "valence_orbital": [ 
			{
				"type": "occ",
				"energy": -0.31989,
				"method": "rhf"
			},
			{
				"type": "occ",
				"energy": -0.29107,
				"method": "rhf"
			},
			{
				"type": "occ",
				"energy": -0.27554,
				"method": "rhf"
			},
			{
				"type": "occ",
				"energy": -0.2661,
				"method": "rhf"
			},
			{
				"type": "occ",
				"energy": -0.25764,
				"method": "rhf"
			},
			{
				"type": "unocc",
				"energy": -0.03599,
				"method": "rhf"
			},
			{
				"type": "unocc",
				"energy": -0.02145,
				"method": "rhf"
			},
			{
				"type": "unocc",
				"energy": 0.01629,
				"method": "rhf"
			},
			{
				"type": "unocc",
				"energy": 0.07909,
				"method": "rhf"
			},
			{
				"type": "unocc",
				"energy": 0.08899,
				"method": "rhf"
			}
		],
		"cosmo_sigma_profile": { 
			"-0.025": 0.0,
			"-0.024": 0.0,
			"-0.023": 0.0,
			"-0.022": 0.0,
			"-0.021": 0.0,
			"-0.02": 0.0,
			"-0.019": 0.0,
			"-0.018": 0.0,
			"-0.017": 0.0,
			"-0.016": 0.0,
			"-0.015": 0.0,
			"-0.014": 0.0,
			"-0.013": 0.0,
			"-0.012": 0.00616869075402,
			"-0.011": 0.561729627781,
			"-0.01": 1.24252356221,
			"-0.009": 3.62452675722,
			"-0.008": 12.5343831125,
			"-0.007": 15.0405440839,
			"-0.006": 15.4174353474,
			"-0.005": 16.693435124,
			"-0.004": 13.8306104102,
			"-0.003": 12.5767793667,
			"-0.002": 11.2374512293,
			"-0.001": 9.56055422055,
			"0.0": 7.29327270698,
			"0.001": 6.47690925131,
			"0.002": 5.80126934877,
			"0.003": 7.41422717139,
			"0.004": 6.65687583577,
			"0.005": 4.59313156554,
			"0.006": 6.02437588216,
			"0.007": 3.48201631226,
			"0.008": 6.20334829947,
			"0.009": 7.0533140265,
			"0.01": 7.9127612148,
			"0.011": 13.1946105514,
			"0.012": 5.27359981107,
			"0.013": 0.471313993146,
			"0.014": 0.0,
			"0.015": 0.0,
			"0.016": 0.0,
			"0.017": 0.0,
			"0.018": 0.0,
			"0.019": 0.0,
			"0.02": 0.0,
			"0.021": 0.0,
			"0.022": 0.0,
			"0.023": 0.0,
			"0.024": 0.0,
			"0.025": 0.0
		}
	}
}
