{
	 "smiles": "ON1C2CCCCC2N(O)C(=O)C1=O", 
	 "Tm": 517.15, 
	 "num_atms": 26, 
	 "gaussian": { 
		 "optdone": 1, 
		 "sigma_profile": "yes", 
		 "theory": "DFT", 
		 "functional": "B3LYP", 
		 "basiset": "6-31G**", 
		 "properties": { 
			 "R2extent": 3396.5957, 
			 "electric_dipole_moment_norm": 5.33822913427, 
			 "electric_quadrupole_moment_norm": 17.7321534665, 
			 "total_energy": -722.38291985, 
			 "HOMO_LUMO_gap": 0.18219, 
			 "cosmo_polarized_energy": -14.8, 
			 "cosmo_cavitation_energy": 27.47, 
			 "cosmo_dispersion_energy": -20.76, 
			 "cosmo_repulsion_energy": 1.61, 
			 "cosmo_total_nonelectrostatic_energy": 8.32, 
			 "SMD_solvation_energy": 5.83 
		},
		"coords": [
			{
				"x": -2.3427729772,
				"y": 2.132519347,
				"z": -0.5683283652,
				"element": "O" 
			},
			{
				"x": -1.5375656152,
				"y": 1.1924922674,
				"z": -1.2291265768,
				"element": "N" 
			},
			{
				"x": -0.504067883,
				"y": 0.6241808649,
				"z": -0.3696265379,
				"element": "C" 
			},
			{
				"x": -1.1017377676,
				"y": 0.1124281453,
				"z": 0.9605679556,
				"element": "C" 
			},
			{
				"x": -0.2257514398,
				"y": -0.9935334329,
				"z": 1.5972627428,
				"element": "C" 
			},
			{
				"x": 1.2500026248,
				"y": -0.8401655795,
				"z": 1.1999926275,
				"element": "C" 
			},
			{
				"x": 1.4413284593,
				"y": -0.970926478,
				"z": -0.3303762055,
				"element": "C" 
			},
			{
				"x": 0.1783889809,
				"y": -0.5338890108,
				"z": -1.1067167404,
				"element": "C" 
			},
			{
				"x": 0.5128036539,
				"y": -0.1052739948,
				"z": -2.4610725529,
				"element": "N" 
			},
			{
				"x": 1.3098638042,
				"y": -1.033727047,
				"z": -3.1476046339,
				"element": "O" 
			},
			{
				"x": -0.3375704357,
				"y": 0.5913396774,
				"z": -3.2710414873,
				"element": "C" 
			},
			{
				"x": -0.2237837353,
				"y": 0.5562704647,
				"z": -4.492507386,
				"element": "O" 
			},
			{
				"x": -1.3623505087,
				"y": 1.4584666915,
				"z": -2.5569102095,
				"element": "C" 
			},
			{
				"x": -2.0434273412,
				"y": 2.3022934882,
				"z": -3.131588273,
				"element": "O" 
			},
			{
				"x": -2.6656404192,
				"y": 2.6641095898,
				"z": -1.3310454397,
				"element": "H" 
			},
			{
				"x": 0.2468938259,
				"y": 1.4021695818,
				"z": -0.1659333457,
				"element": "H" 
			},
			{
				"x": -1.2065825268,
				"y": 0.9634460616,
				"z": 1.6381501609,
				"element": "H" 
			},
			{
				"x": -2.1116710344,
				"y": -0.262276555,
				"z": 0.7685277719,
				"element": "H" 
			},
			{
				"x": -0.3349802674,
				"y": -0.9674665457,
				"z": 2.6858804131,
				"element": "H" 
			},
			{
				"x": -0.581033855,
				"y": -1.9814425796,
				"z": 1.2787751675,
				"element": "H" 
			},
			{
				"x": 1.6119538946,
				"y": 0.1381949315,
				"z": 1.5397291868,
				"element": "H" 
			},
			{
				"x": 1.865015404,
				"y": -1.5865622601,
				"z": 1.7121989021,
				"element": "H" 
			},
			{
				"x": 1.672397201,
				"y": -2.0027981876,
				"z": -0.6064101608,
				"element": "H" 
			},
			{
				"x": 2.2855035408,
				"y": -0.3600474884,
				"z": -0.6641993754,
				"element": "H" 
			},
			{
				"x": -0.5287046827,
				"y": -1.3744576339,
				"z": -1.1714178962,
				"element": "H" 
			},
			{
				"x": 1.0972891001,
				"y": -0.8020443176,
				"z": -4.0801797422,
				"element": "H" 
			}
		],
		 "valence_orbital": [ 
			{
				"type": "occ",
				"energy": -0.32971,
				"method": "rhf"
			},
			{
				"type": "occ",
				"energy": -0.30447,
				"method": "rhf"
			},
			{
				"type": "occ",
				"energy": -0.28012,
				"method": "rhf"
			},
			{
				"type": "occ",
				"energy": -0.25226,
				"method": "rhf"
			},
			{
				"type": "occ",
				"energy": -0.24095,
				"method": "rhf"
			},
			{
				"type": "unocc",
				"energy": -0.05876,
				"method": "rhf"
			},
			{
				"type": "unocc",
				"energy": 0.04294,
				"method": "rhf"
			},
			{
				"type": "unocc",
				"energy": 0.05942,
				"method": "rhf"
			},
			{
				"type": "unocc",
				"energy": 0.07568,
				"method": "rhf"
			},
			{
				"type": "unocc",
				"energy": 0.0793,
				"method": "rhf"
			}
		],
		"cosmo_sigma_profile": { 
			"-0.025": 0.0,
			"-0.024": 0.0,
			"-0.023": 0.0,
			"-0.022": 0.0,
			"-0.021": 0.0,
			"-0.02": 0.0,
			"-0.019": 0.0,
			"-0.018": 0.0,
			"-0.017": 0.0,
			"-0.016": 0.0,
			"-0.015": 0.0,
			"-0.014": 0.158965641046,
			"-0.013": 1.31004102917,
			"-0.012": 1.28710524958,
			"-0.011": 1.2680794491,
			"-0.01": 0.785279863888,
			"-0.009": 1.19063232483,
			"-0.008": 2.83093704699,
			"-0.007": 7.7564872634,
			"-0.006": 11.3253915218,
			"-0.005": 10.1347038539,
			"-0.004": 22.7864082583,
			"-0.003": 24.3380744627,
			"-0.002": 21.7009596778,
			"-0.001": 19.4536870626,
			"0.0": 15.4096012733,
			"0.001": 6.20865010958,
			"0.002": 7.15281521258,
			"0.003": 5.00444203426,
			"0.004": 5.21987042903,
			"0.005": 5.69973911094,
			"0.006": 5.50630518421,
			"0.007": 4.48943839166,
			"0.008": 7.02437496652,
			"0.009": 6.58431398595,
			"0.01": 5.54292950182,
			"0.011": 5.73535640038,
			"0.012": 4.2892007818,
			"0.013": 3.29091373712,
			"0.014": 0.883174032869,
			"0.015": 0.0,
			"0.016": 0.0,
			"0.017": 0.0,
			"0.018": 0.0,
			"0.019": 0.0,
			"0.02": 0.0,
			"0.021": 0.0,
			"0.022": 0.0,
			"0.023": 0.0,
			"0.024": 0.0,
			"0.025": 0.0
		}
	}
}
