{
	 "smiles": "CC(Cl)C(=O)NC1=CC=C(C=C1)[N+]([O-])=O", 
	 "Tm": 412.15, 
	 "num_atms": 24, 
	 "gaussian": { 
		 "optdone": 1, 
		 "sigma_profile": "yes", 
		 "theory": "DFT", 
		 "functional": "B3LYP", 
		 "basiset": "6-31G**", 
		 "properties": { 
			 "R2extent": 4642.2193, 
			 "electric_dipole_moment_norm": 2.62160654943, 
			 "electric_quadrupole_moment_norm": 29.5776627702, 
			 "total_energy": -1143.6635072, 
			 "HOMO_LUMO_gap": 0.16636, 
			 "cosmo_polarized_energy": -17.1, 
			 "cosmo_cavitation_energy": 31.09, 
			 "cosmo_dispersion_energy": -21.88, 
			 "cosmo_repulsion_energy": 1.73, 
			 "cosmo_total_nonelectrostatic_energy": 10.94, 
			 "SMD_solvation_energy": 7.97 
		},
		"coords": [
			{
				"x": -3.2656485266,
				"y": 2.4422842685,
				"z": -1.8387091623,
				"element": "C" 
			},
			{
				"x": -2.3090913299,
				"y": 1.7431288977,
				"z": -0.8903864611,
				"element": "C" 
			},
			{
				"x": -1.4927346325,
				"y": 2.9628719845,
				"z": 0.2127845038,
				"element": "Cl" 
			},
			{
				"x": -3.0370503161,
				"y": 0.7429554569,
				"z": 0.0204029384,
				"element": "C" 
			},
			{
				"x": -4.2370760932,
				"y": 0.822809897,
				"z": 0.2167698459,
				"element": "O" 
			},
			{
				"x": -2.2916777703,
				"y": -0.2279093733,
				"z": 0.668789023,
				"element": "N" 
			},
			{
				"x": -0.9151528851,
				"y": -0.5417993133,
				"z": 0.6063236842,
				"element": "C" 
			},
			{
				"x": -0.18787098,
				"y": -0.6442730226,
				"z": 1.803268621,
				"element": "C" 
			},
			{
				"x": 1.1554507435,
				"y": -0.9979281839,
				"z": 1.7839658276,
				"element": "C" 
			},
			{
				"x": 1.7707179689,
				"y": -1.237563754,
				"z": 0.5561834627,
				"element": "C" 
			},
			{
				"x": 1.0691356626,
				"y": -1.1545854915,
				"z": -0.6445993757,
				"element": "C" 
			},
			{
				"x": -0.2808905862,
				"y": -0.823351904,
				"z": -0.6145726818,
				"element": "C" 
			},
			{
				"x": 3.1934890102,
				"y": -1.6017288805,
				"z": 0.5280807086,
				"element": "N" 
			},
			{
				"x": 3.7099770544,
				"y": -1.7962692005,
				"z": -0.5719819759,
				"element": "O" 
			},
			{
				"x": 3.780098268,
				"y": -1.6898366638,
				"z": 1.6062363114,
				"element": "O" 
			},
			{
				"x": -2.7365221088,
				"y": 3.1982885413,
				"z": -2.4222485926,
				"element": "H" 
			},
			{
				"x": -3.697706095,
				"y": 1.7054274469,
				"z": -2.5243388978,
				"element": "H" 
			},
			{
				"x": -4.0818215808,
				"y": 2.9067174887,
				"z": -1.2845078667,
				"element": "H" 
			},
			{
				"x": -1.4841308318,
				"y": 1.2796823322,
				"z": -1.4278971367,
				"element": "H" 
			},
			{
				"x": -2.8280715218,
				"y": -0.6734571902,
				"z": 1.4042841077,
				"element": "H" 
			},
			{
				"x": -0.6794073189,
				"y": -0.4259883123,
				"z": 2.7461006088,
				"element": "H" 
			},
			{
				"x": 1.7356414691,
				"y": -1.0759617356,
				"z": 2.6947538712,
				"element": "H" 
			},
			{
				"x": 1.5782704274,
				"y": -1.3751763516,
				"z": -1.5743234748,
				"element": "H" 
			},
			{
				"x": -0.8542280272,
				"y": -0.8203369365,
				"z": -1.535077889,
				"element": "H" 
			}
		],
		 "valence_orbital": [ 
			{
				"type": "occ",
				"energy": -0.30973,
				"method": "rhf"
			},
			{
				"type": "occ",
				"energy": -0.29761,
				"method": "rhf"
			},
			{
				"type": "occ",
				"energy": -0.29302,
				"method": "rhf"
			},
			{
				"type": "occ",
				"energy": -0.27956,
				"method": "rhf"
			},
			{
				"type": "occ",
				"energy": -0.2645,
				"method": "rhf"
			},
			{
				"type": "unocc",
				"energy": -0.09814,
				"method": "rhf"
			},
			{
				"type": "unocc",
				"energy": -0.04387,
				"method": "rhf"
			},
			{
				"type": "unocc",
				"energy": -0.04154,
				"method": "rhf"
			},
			{
				"type": "unocc",
				"energy": -0.00991,
				"method": "rhf"
			},
			{
				"type": "unocc",
				"energy": 0.04532,
				"method": "rhf"
			}
		],
		"cosmo_sigma_profile": { 
			"-0.025": 0.0,
			"-0.024": 0.0,
			"-0.023": 0.0,
			"-0.022": 0.0,
			"-0.021": 0.0,
			"-0.02": 0.0,
			"-0.019": 0.0,
			"-0.018": 0.0,
			"-0.017": 0.0,
			"-0.016": 0.142410539476,
			"-0.015": 1.34314181026,
			"-0.014": 1.0757167198,
			"-0.013": 1.25780061969,
			"-0.012": 0.72396603345,
			"-0.011": 2.06350440963,
			"-0.01": 3.60079535558,
			"-0.009": 4.50709265512,
			"-0.008": 8.58209003623,
			"-0.007": 9.54069241722,
			"-0.006": 10.1309555667,
			"-0.005": 13.061792834,
			"-0.004": 13.9650046613,
			"-0.003": 14.0666213861,
			"-0.002": 14.2753522071,
			"-0.001": 20.9763856395,
			"0.0": 20.9985614493,
			"0.001": 18.2917280244,
			"0.002": 11.5584025411,
			"0.003": 10.1451848957,
			"0.004": 11.1220736508,
			"0.005": 12.6361865905,
			"0.006": 9.04494380497,
			"0.007": 8.23603732088,
			"0.008": 8.76710171029,
			"0.009": 6.87456798204,
			"0.01": 4.35995873418,
			"0.011": 2.80528553056,
			"0.012": 5.29421001541,
			"0.013": 0.676455721726,
			"0.014": 0.0,
			"0.015": 0.0,
			"0.016": 0.0,
			"0.017": 0.0,
			"0.018": 0.0,
			"0.019": 0.0,
			"0.02": 0.0,
			"0.021": 0.0,
			"0.022": 0.0,
			"0.023": 0.0,
			"0.024": 0.0,
			"0.025": 0.0
		}
	}
}
