{
	 "smiles": "CC1=C(SC2=C1C=C(C)C=C2)C(=O)CBr", 
	 "Tm": 397.15, 
	 "num_atms": 26, 
	 "gaussian": { 
		 "optdone": 1, 
		 "sigma_profile": "yes", 
		 "theory": "DFT", 
		 "functional": "B3LYP", 
		 "basiset": "6-31G**", 
		 "properties": { 
			 "R2extent": 7517.108, 
			 "electric_dipole_moment_norm": 4.62471916877, 
			 "electric_quadrupole_moment_norm": 15.010509521, 
			 "total_energy": -3508.73441273, 
			 "HOMO_LUMO_gap": 0.14112, 
			 "cosmo_polarized_energy": -11.16, 
			 "cosmo_cavitation_energy": 32.77, 
			 "cosmo_dispersion_energy": -24.64, 
			 "cosmo_repulsion_energy": 1.86, 
			 "cosmo_total_nonelectrostatic_energy": 10.0, 
			 "SMD_solvation_energy": 4.53 
		},
		"coords": [
			{
				"x": -2.4205324405,
				"y": -0.6992049079,
				"z": -0.1532153044,
				"element": "C" 
			},
			{
				"x": -1.3317933738,
				"y": 0.2806871047,
				"z": -0.5050859422,
				"element": "C" 
			},
			{
				"x": -1.3975821243,
				"y": 1.2945655799,
				"z": -1.4437432114,
				"element": "C" 
			},
			{
				"x": 0.0963768427,
				"y": 2.2325363579,
				"z": -1.5619080558,
				"element": "S" 
			},
			{
				"x": 0.8365877139,
				"y": 1.2470677451,
				"z": -0.3306981095,
				"element": "C" 
			},
			{
				"x": -0.04013828,
				"y": 0.2400426601,
				"z": 0.1410442562,
				"element": "C" 
			},
			{
				"x": 0.419436018,
				"y": -0.6495250814,
				"z": 1.1370115649,
				"element": "C" 
			},
			{
				"x": 1.7045400154,
				"y": -0.5394088952,
				"z": 1.6507030166,
				"element": "C" 
			},
			{
				"x": 2.2075147847,
				"y": -1.4853074876,
				"z": 2.7158482674,
				"element": "C" 
			},
			{
				"x": 2.5521275353,
				"y": 0.4827484089,
				"z": 1.1588370215,
				"element": "C" 
			},
			{
				"x": 2.1354441039,
				"y": 1.3711406482,
				"z": 0.1802229885,
				"element": "C" 
			},
			{
				"x": -2.4337026014,
				"y": 1.7313000358,
				"z": -2.3926818145,
				"element": "C" 
			},
			{
				"x": -2.2150428542,
				"y": 2.6619764214,
				"z": -3.1594277888,
				"element": "O" 
			},
			{
				"x": -3.7822231434,
				"y": 1.0284732,
				"z": -2.4900707033,
				"element": "C" 
			},
			{
				"x": -5.0339674024,
				"y": 1.7418980311,
				"z": -1.1290152032,
				"element": "Br" 
			},
			{
				"x": -3.4003804014,
				"y": -0.2215381572,
				"z": -0.0970252554,
				"element": "H" 
			},
			{
				"x": -2.4767042097,
				"y": -1.5177486847,
				"z": -0.8819370041,
				"element": "H" 
			},
			{
				"x": -2.2274458878,
				"y": -1.1524224591,
				"z": 0.8212112931,
				"element": "H" 
			},
			{
				"x": -0.2338693545,
				"y": -1.4344139456,
				"z": 1.5069902179,
				"element": "H" 
			},
			{
				"x": 2.5003365327,
				"y": -0.9443802392,
				"z": 3.6232113829,
				"element": "H" 
			},
			{
				"x": 1.443363633,
				"y": -2.2156617304,
				"z": 2.9951301947,
				"element": "H" 
			},
			{
				"x": 3.0898579041,
				"y": -2.0386399795,
				"z": 2.3737527037,
				"element": "H" 
			},
			{
				"x": 3.5582836817,
				"y": 0.5710303404,
				"z": 1.5611473837,
				"element": "H" 
			},
			{
				"x": 2.8027503068,
				"y": 2.1464837396,
				"z": -0.1833491883,
				"element": "H" 
			},
			{
				"x": -4.2243850267,
				"y": 1.2763765026,
				"z": -3.4518433959,
				"element": "H" 
			},
			{
				"x": -3.743751972,
				"y": -0.047275208,
				"z": -2.3349093143,
				"element": "H" 
			}
		],
		 "valence_orbital": [ 
			{
				"type": "occ",
				"energy": -0.28739,
				"method": "rhf"
			},
			{
				"type": "occ",
				"energy": -0.28462,
				"method": "rhf"
			},
			{
				"type": "occ",
				"energy": -0.26088,
				"method": "rhf"
			},
			{
				"type": "occ",
				"energy": -0.2384,
				"method": "rhf"
			},
			{
				"type": "occ",
				"energy": -0.22316,
				"method": "rhf"
			},
			{
				"type": "unocc",
				"energy": -0.08204,
				"method": "rhf"
			},
			{
				"type": "unocc",
				"energy": -0.02284,
				"method": "rhf"
			},
			{
				"type": "unocc",
				"energy": -0.00718,
				"method": "rhf"
			},
			{
				"type": "unocc",
				"energy": 0.01646,
				"method": "rhf"
			},
			{
				"type": "unocc",
				"energy": 0.02585,
				"method": "rhf"
			}
		],
		"cosmo_sigma_profile": { 
			"-0.025": 0.0,
			"-0.024": 0.0,
			"-0.023": 0.0,
			"-0.022": 0.0,
			"-0.021": 0.0,
			"-0.02": 0.0,
			"-0.019": 0.0,
			"-0.018": 0.0,
			"-0.017": 0.0,
			"-0.016": 0.0,
			"-0.015": 0.0,
			"-0.014": 0.0,
			"-0.013": 0.0,
			"-0.012": 0.0,
			"-0.011": 0.0,
			"-0.01": 0.0,
			"-0.009": 1.99643354223,
			"-0.008": 4.836647768,
			"-0.007": 9.14609132207,
			"-0.006": 13.4419440962,
			"-0.005": 14.8188193551,
			"-0.004": 19.1124523792,
			"-0.003": 17.8906395873,
			"-0.002": 20.8609178226,
			"-0.001": 21.3603196765,
			"0.0": 21.8030338255,
			"0.001": 20.3971371033,
			"0.002": 22.1084075312,
			"0.003": 22.4189486463,
			"0.004": 24.1550840681,
			"0.005": 14.9704216475,
			"0.006": 2.45111824377,
			"0.007": 1.96676349563,
			"0.008": 2.04211411427,
			"0.009": 2.04433131512,
			"0.01": 2.76634380691,
			"0.011": 4.25122254434,
			"0.012": 1.97454812652,
			"0.013": 0.069612803334,
			"0.014": 0.0,
			"0.015": 0.0,
			"0.016": 0.0,
			"0.017": 0.0,
			"0.018": 0.0,
			"0.019": 0.0,
			"0.02": 0.0,
			"0.021": 0.0,
			"0.022": 0.0,
			"0.023": 0.0,
			"0.024": 0.0,
			"0.025": 0.0
		}
	}
}
