{
	 "smiles": "NS(=O)(=O)C1=CC=C(SCCCCO)S1", 
	 "Tm": 321.65, 
	 "num_atms": 28, 
	 "gaussian": { 
		 "optdone": 1, 
		 "sigma_profile": "yes", 
		 "theory": "DFT", 
		 "functional": "B3LYP", 
		 "basiset": "6-31G**", 
		 "properties": { 
			 "R2extent": 6905.7444, 
			 "electric_dipole_moment_norm": 3.61316092224, 
			 "electric_quadrupole_moment_norm": 19.8773980015, 
			 "total_energy": -1787.57229146, 
			 "HOMO_LUMO_gap": 0.18102, 
			 "cosmo_polarized_energy": -22.97, 
			 "cosmo_cavitation_energy": 36.73, 
			 "cosmo_dispersion_energy": -26.77, 
			 "cosmo_repulsion_energy": 2.05, 
			 "cosmo_total_nonelectrostatic_energy": 12.0, 
			 "SMD_solvation_energy": 4.73 
		},
		"coords": [
			{
				"x": -5.0629169413,
				"y": -0.6352551247,
				"z": 0.3170404682,
				"element": "N" 
			},
			{
				"x": -3.7385412656,
				"y": 0.3918588933,
				"z": 0.3250057151,
				"element": "S" 
			},
			{
				"x": -3.7329550222,
				"y": 1.0277820307,
				"z": 1.6388899735,
				"element": "O" 
			},
			{
				"x": -3.8061909533,
				"y": 1.1300840328,
				"z": -0.9327209275,
				"element": "O" 
			},
			{
				"x": -2.2818296501,
				"y": -0.6298661087,
				"z": 0.2577290187,
				"element": "C" 
			},
			{
				"x": -1.5228585575,
				"y": -1.0023251223,
				"z": 1.3390587429,
				"element": "C" 
			},
			{
				"x": -0.4196823807,
				"y": -1.8196761066,
				"z": 0.9690341673,
				"element": "C" 
			},
			{
				"x": -0.3476739879,
				"y": -2.0599661946,
				"z": -0.384899981,
				"element": "C" 
			},
			{
				"x": 0.8302717768,
				"y": -3.0629789849,
				"z": -1.2361869017,
				"element": "S" 
			},
			{
				"x": 1.9279360384,
				"y": -1.7906321257,
				"z": -2.0151824345,
				"element": "C" 
			},
			{
				"x": 2.7875475887,
				"y": -1.0069152913,
				"z": -1.0215467747,
				"element": "C" 
			},
			{
				"x": 3.7376390637,
				"y": 0.0010361775,
				"z": -1.6912120393,
				"element": "C" 
			},
			{
				"x": 3.0403161173,
				"y": 1.198885072,
				"z": -2.3295747939,
				"element": "C" 
			},
			{
				"x": 4.0531893259,
				"y": 2.0611879455,
				"z": -2.8307755329,
				"element": "O" 
			},
			{
				"x": -1.6643939116,
				"y": -1.2726798016,
				"z": -1.2354904276,
				"element": "S" 
			},
			{
				"x": -5.1740331071,
				"y": -1.1360235961,
				"z": -0.5588161317,
				"element": "H" 
			},
			{
				"x": -5.1078896324,
				"y": -1.2351332287,
				"z": 1.1344767194,
				"element": "H" 
			},
			{
				"x": -1.7445525348,
				"y": -0.6764793001,
				"z": 2.3482180087,
				"element": "H" 
			},
			{
				"x": 0.3081078102,
				"y": -2.2144310749,
				"z": 1.6679021235,
				"element": "H" 
			},
			{
				"x": 2.553180687,
				"y": -2.378039685,
				"z": -2.6966136482,
				"element": "H" 
			},
			{
				"x": 1.300532698,
				"y": -1.1387494224,
				"z": -2.6283850453,
				"element": "H" 
			},
			{
				"x": 2.1346905865,
				"y": -0.4841382897,
				"z": -0.311425364,
				"element": "H" 
			},
			{
				"x": 3.376544291,
				"y": -1.7196029251,
				"z": -0.4336728895,
				"element": "H" 
			},
			{
				"x": 4.3484526017,
				"y": -0.4979316634,
				"z": -2.4541963304,
				"element": "H" 
			},
			{
				"x": 4.4363306973,
				"y": 0.3876287649,
				"z": -0.940341098,
				"element": "H" 
			},
			{
				"x": 2.4169772334,
				"y": 1.7059593335,
				"z": -1.5740424114,
				"element": "H" 
			},
			{
				"x": 2.3665820794,
				"y": 0.8711003678,
				"z": -3.1376891856,
				"element": "H" 
			},
			{
				"x": 3.6253193492,
				"y": 2.8256014276,
				"z": -3.2356830201,
				"element": "H" 
			}
		],
		 "valence_orbital": [ 
			{
				"type": "occ",
				"energy": -0.31244,
				"method": "rhf"
			},
			{
				"type": "occ",
				"energy": -0.27962,
				"method": "rhf"
			},
			{
				"type": "occ",
				"energy": -0.2697,
				"method": "rhf"
			},
			{
				"type": "occ",
				"energy": -0.26293,
				"method": "rhf"
			},
			{
				"type": "occ",
				"energy": -0.24448,
				"method": "rhf"
			},
			{
				"type": "unocc",
				"energy": -0.06346,
				"method": "rhf"
			},
			{
				"type": "unocc",
				"energy": 0.00113,
				"method": "rhf"
			},
			{
				"type": "unocc",
				"energy": 0.01263,
				"method": "rhf"
			},
			{
				"type": "unocc",
				"energy": 0.03133,
				"method": "rhf"
			},
			{
				"type": "unocc",
				"energy": 0.05196,
				"method": "rhf"
			}
		],
		"cosmo_sigma_profile": { 
			"-0.025": 0.0,
			"-0.024": 0.0,
			"-0.023": 0.0,
			"-0.022": 0.0,
			"-0.021": 0.0,
			"-0.02": 0.0,
			"-0.019": 0.0,
			"-0.018": 0.0,
			"-0.017": 0.0,
			"-0.016": 0.762703643405,
			"-0.015": 3.7563052304,
			"-0.014": 3.44617415376,
			"-0.013": 3.89865126511,
			"-0.012": 3.68863647799,
			"-0.011": 3.74297572398,
			"-0.01": 2.49058114819,
			"-0.009": 2.69916396759,
			"-0.008": 5.26489822062,
			"-0.007": 7.12546999246,
			"-0.006": 9.2844850032,
			"-0.005": 11.7305520189,
			"-0.004": 14.1858781207,
			"-0.003": 26.5465760969,
			"-0.002": 25.1116332291,
			"-0.001": 20.9442853377,
			"0.0": 23.1708929852,
			"0.001": 22.2066686419,
			"0.002": 17.0627569569,
			"0.003": 10.1122531583,
			"0.004": 9.83005425019,
			"0.005": 6.52028461566,
			"0.006": 8.36226925202,
			"0.007": 8.19669884443,
			"0.008": 7.17276588417,
			"0.009": 5.87354318581,
			"0.01": 10.5412370323,
			"0.011": 11.9227162556,
			"0.012": 3.38824993412,
			"0.013": 1.07993944817,
			"0.014": 2.42044769661,
			"0.015": 0.73011193264,
			"0.016": 0.0,
			"0.017": 0.0,
			"0.018": 0.0,
			"0.019": 0.0,
			"0.02": 0.0,
			"0.021": 0.0,
			"0.022": 0.0,
			"0.023": 0.0,
			"0.024": 0.0,
			"0.025": 0.0
		}
	}
}
