{
	 "smiles": "CCOC(=O)CNC1=NC(N)=NN1", 
	 "Tm": 451.15, 
	 "num_atms": 24, 
	 "gaussian": { 
		 "optdone": 1, 
		 "sigma_profile": "yes", 
		 "theory": "DFT", 
		 "functional": "B3LYP", 
		 "basiset": "6-31G**", 
		 "properties": { 
			 "R2extent": 4881.4134, 
			 "electric_dipole_moment_norm": 5.27150430238, 
			 "electric_quadrupole_moment_norm": 16.8526936259, 
			 "total_energy": -659.477960687, 
			 "HOMO_LUMO_gap": 0.17857, 
			 "cosmo_polarized_energy": -19.12, 
			 "cosmo_cavitation_energy": 28.42, 
			 "cosmo_dispersion_energy": -21.2, 
			 "cosmo_repulsion_energy": 1.73, 
			 "cosmo_total_nonelectrostatic_energy": 8.94, 
			 "SMD_solvation_energy": 1.73 
		},
		"coords": [
			{
				"x": 0.8569876064,
				"y": 2.5795270211,
				"z": 1.7797215642,
				"element": "C" 
			},
			{
				"x": 1.7904236369,
				"y": 1.5394877784,
				"z": 2.3781198245,
				"element": "C" 
			},
			{
				"x": 1.1883487767,
				"y": 0.2154979841,
				"z": 2.3515812114,
				"element": "O" 
			},
			{
				"x": 1.3269560128,
				"y": -0.4925398754,
				"z": 1.2211940441,
				"element": "C" 
			},
			{
				"x": 1.9428420807,
				"y": -0.1102411841,
				"z": 0.2446854987,
				"element": "O" 
			},
			{
				"x": 0.5583834891,
				"y": -1.807878803,
				"z": 1.3124773517,
				"element": "C" 
			},
			{
				"x": 1.2291910587,
				"y": -2.9105640855,
				"z": 0.6361032571,
				"element": "N" 
			},
			{
				"x": 1.0785336534,
				"y": -3.0918399721,
				"z": -0.7321268597,
				"element": "C" 
			},
			{
				"x": 0.8567478069,
				"y": -4.2608027013,
				"z": -1.318567473,
				"element": "N" 
			},
			{
				"x": 0.8558270952,
				"y": -3.9173719282,
				"z": -2.6455867534,
				"element": "C" 
			},
			{
				"x": 0.7121258438,
				"y": -4.8766386461,
				"z": -3.6349077598,
				"element": "N" 
			},
			{
				"x": 1.0331035983,
				"y": -2.6315889213,
				"z": -2.9142076515,
				"element": "N" 
			},
			{
				"x": 1.1745035848,
				"y": -2.1067055809,
				"z": -1.6439635779,
				"element": "N" 
			},
			{
				"x": -0.1087389741,
				"y": 2.5801897273,
				"z": 2.2933743028,
				"element": "H" 
			},
			{
				"x": 0.6943403995,
				"y": 2.3882360003,
				"z": 0.716154076,
				"element": "H" 
			},
			{
				"x": 1.3009454818,
				"y": 3.5749720629,
				"z": 1.8828431951,
				"element": "H" 
			},
			{
				"x": 2.7411012369,
				"y": 1.4996813236,
				"z": 1.8423140809,
				"element": "H" 
			},
			{
				"x": 1.9761495676,
				"y": 1.7250163318,
				"z": 3.438005026,
				"element": "H" 
			},
			{
				"x": -0.4488286307,
				"y": -1.6103617995,
				"z": 0.9080385027,
				"element": "H" 
			},
			{
				"x": 0.4399046448,
				"y": -2.0621172581,
				"z": 2.3669625744,
				"element": "H" 
			},
			{
				"x": 1.09664441,
				"y": -3.7973910941,
				"z": 1.10450002,
				"element": "H" 
			},
			{
				"x": 0.4051666516,
				"y": -4.4928830511,
				"z": -4.5184509775,
				"element": "H" 
			},
			{
				"x": 0.1616866955,
				"y": -5.6701550498,
				"z": -3.336857489,
				"element": "H" 
			},
			{
				"x": 1.5063542736,
				"y": -1.1659282788,
				"z": -1.4755059879,
				"element": "H" 
			}
		],
		 "valence_orbital": [ 
			{
				"type": "occ",
				"energy": -0.30204,
				"method": "rhf"
			},
			{
				"type": "occ",
				"energy": -0.29107,
				"method": "rhf"
			},
			{
				"type": "occ",
				"energy": -0.2543,
				"method": "rhf"
			},
			{
				"type": "occ",
				"energy": -0.23841,
				"method": "rhf"
			},
			{
				"type": "occ",
				"energy": -0.18948,
				"method": "rhf"
			},
			{
				"type": "unocc",
				"energy": -0.01091,
				"method": "rhf"
			},
			{
				"type": "unocc",
				"energy": 0.04583,
				"method": "rhf"
			},
			{
				"type": "unocc",
				"energy": 0.07058,
				"method": "rhf"
			},
			{
				"type": "unocc",
				"energy": 0.09115,
				"method": "rhf"
			},
			{
				"type": "unocc",
				"energy": 0.0964,
				"method": "rhf"
			}
		],
		"cosmo_sigma_profile": { 
			"-0.025": 0.0,
			"-0.024": 0.0,
			"-0.023": 0.0,
			"-0.022": 0.0,
			"-0.021": 0.0,
			"-0.02": 0.0,
			"-0.019": 0.0,
			"-0.018": 0.0,
			"-0.017": 0.0,
			"-0.016": 0.0,
			"-0.015": 0.0339473584047,
			"-0.014": 0.921024546961,
			"-0.013": 2.23833296412,
			"-0.012": 3.24572394097,
			"-0.011": 3.17962434729,
			"-0.01": 4.00696751468,
			"-0.009": 5.3350276688,
			"-0.008": 6.31919465774,
			"-0.007": 6.7240741732,
			"-0.006": 10.2439903998,
			"-0.005": 13.3398346364,
			"-0.004": 18.8901507262,
			"-0.003": 17.5837844062,
			"-0.002": 15.0513610076,
			"-0.001": 14.0704368237,
			"0.0": 12.7900072535,
			"0.001": 8.93127042205,
			"0.002": 9.07165862022,
			"0.003": 8.82828095452,
			"0.004": 6.93488240767,
			"0.005": 7.37456518044,
			"0.006": 6.918382448,
			"0.007": 7.70488624982,
			"0.008": 5.94237990642,
			"0.009": 5.85128189702,
			"0.01": 4.63969203311,
			"0.011": 4.19414561722,
			"0.012": 2.62892940094,
			"0.013": 2.67710811983,
			"0.014": 3.34166525078,
			"0.015": 2.16995004948,
			"0.016": 1.91362828014,
			"0.017": 0.91809641272,
			"0.018": 0.0,
			"0.019": 0.0,
			"0.02": 0.0,
			"0.021": 0.0,
			"0.022": 0.0,
			"0.023": 0.0,
			"0.024": 0.0,
			"0.025": 0.0
		}
	}
}
