{
	 "smiles": "NC(=S)C1=NC=CC=N1", 
	 "Tm": 471.15, 
	 "num_atms": 14, 
	 "gaussian": { 
		 "optdone": 1, 
		 "sigma_profile": "yes", 
		 "theory": "DFT", 
		 "functional": "B3LYP", 
		 "basiset": "6-31G**", 
		 "properties": { 
			 "R2extent": 2344.8634, 
			 "electric_dipole_moment_norm": 5.72730997502, 
			 "electric_quadrupole_moment_norm": 17.5583525084, 
			 "total_energy": -755.983116831, 
			 "HOMO_LUMO_gap": 0.12212, 
			 "cosmo_polarized_energy": -17.98, 
			 "cosmo_cavitation_energy": 20.41, 
			 "cosmo_dispersion_energy": -15.94, 
			 "cosmo_repulsion_energy": 1.27, 
			 "cosmo_total_nonelectrostatic_energy": 5.75, 
			 "SMD_solvation_energy": 0.83 
		},
		"coords": [
			{
				"x": -3.0105443361,
				"y": -0.3533615339,
				"z": -2.1484211791,
				"element": "N" 
			},
			{
				"x": -2.4311518177,
				"y": 0.8106310251,
				"z": -1.8078533873,
				"element": "C" 
			},
			{
				"x": -2.7094898716,
				"y": 2.2471315205,
				"z": -2.5911935844,
				"element": "S" 
			},
			{
				"x": -1.495150142,
				"y": 0.6658754428,
				"z": -0.6283850798,
				"element": "C" 
			},
			{
				"x": -0.8534632878,
				"y": 1.7511363092,
				"z": -0.1870875949,
				"element": "N" 
			},
			{
				"x": -0.0382991737,
				"y": 1.5776171501,
				"z": 0.85464106,
				"element": "C" 
			},
			{
				"x": 0.1485854635,
				"y": 0.3369792166,
				"z": 1.4657159219,
				"element": "C" 
			},
			{
				"x": -0.5679446964,
				"y": -0.7281947769,
				"z": 0.9276003458,
				"element": "C" 
			},
			{
				"x": -1.3887320514,
				"y": -0.5733226403,
				"z": -0.1151332128,
				"element": "N" 
			},
			{
				"x": -3.6548359254,
				"y": -0.3723890728,
				"z": -2.9233388968,
				"element": "H" 
			},
			{
				"x": -2.7871065849,
				"y": -1.1867279376,
				"z": -1.6189495329,
				"element": "H" 
			},
			{
				"x": 0.4830665896,
				"y": 2.4640512905,
				"z": 1.2117313896,
				"element": "H" 
			},
			{
				"x": 0.8141158401,
				"y": 0.2088916026,
				"z": 2.3119683755,
				"element": "H" 
			},
			{
				"x": -0.4858500061,
				"y": -1.7326175957,
				"z": 1.3385053755,
				"element": "H" 
			}
		],
		 "valence_orbital": [ 
			{
				"type": "occ",
				"energy": -0.32643,
				"method": "rhf"
			},
			{
				"type": "occ",
				"energy": -0.29781,
				"method": "rhf"
			},
			{
				"type": "occ",
				"energy": -0.26819,
				"method": "rhf"
			},
			{
				"type": "occ",
				"energy": -0.22688,
				"method": "rhf"
			},
			{
				"type": "occ",
				"energy": -0.20143,
				"method": "rhf"
			},
			{
				"type": "unocc",
				"energy": -0.07931,
				"method": "rhf"
			},
			{
				"type": "unocc",
				"energy": -0.05574,
				"method": "rhf"
			},
			{
				"type": "unocc",
				"energy": 0.01607,
				"method": "rhf"
			},
			{
				"type": "unocc",
				"energy": 0.0846,
				"method": "rhf"
			},
			{
				"type": "unocc",
				"energy": 0.09539,
				"method": "rhf"
			}
		],
		"cosmo_sigma_profile": { 
			"-0.025": 0.0,
			"-0.024": 0.0,
			"-0.023": 0.0,
			"-0.022": 0.0,
			"-0.021": 0.0,
			"-0.02": 0.0,
			"-0.019": 0.0,
			"-0.018": 0.0,
			"-0.017": 0.0,
			"-0.016": 0.0417934925589,
			"-0.015": 0.829440309668,
			"-0.014": 1.50057601763,
			"-0.013": 1.59417456092,
			"-0.012": 2.31446059225,
			"-0.011": 1.46253195373,
			"-0.01": 1.79721606758,
			"-0.009": 4.23707198387,
			"-0.008": 9.81099896346,
			"-0.007": 9.08278826275,
			"-0.006": 6.99684668817,
			"-0.005": 6.25531271145,
			"-0.004": 5.56202774846,
			"-0.003": 10.7418863399,
			"-0.002": 12.1296432871,
			"-0.001": 15.6296376662,
			"0.0": 9.48402196098,
			"0.001": 6.16445663198,
			"0.002": 5.68353302032,
			"0.003": 4.18017714073,
			"0.004": 5.97508871809,
			"0.005": 5.7799515792,
			"0.006": 5.50605978237,
			"0.007": 5.85090741035,
			"0.008": 7.02019155895,
			"0.009": 5.25372899889,
			"0.01": 4.1853343738,
			"0.011": 3.52965653907,
			"0.012": 2.10679300682,
			"0.013": 1.63211337909,
			"0.014": 0.92422154915,
			"0.015": 0.969896385777,
			"0.016": 1.26919368809,
			"0.017": 0.877670712467,
			"0.018": 0.720783919435,
			"0.019": 0.0901276808297,
			"0.02": 0.0,
			"0.021": 0.0,
			"0.022": 0.0,
			"0.023": 0.0,
			"0.024": 0.0,
			"0.025": 0.0
		}
	}
}
