{
	 "smiles": "NC1=C(Br)C=C(C=N1)C(O)=O", 
	 "Tm": 573.15, 
	 "num_atms": 16, 
	 "gaussian": { 
		 "optdone": 1, 
		 "sigma_profile": "yes", 
		 "theory": "DFT", 
		 "functional": "B3LYP", 
		 "basiset": "6-31G**", 
		 "properties": { 
			 "R2extent": 3308.0676, 
			 "electric_dipole_moment_norm": 5.33210278033, 
			 "electric_quadrupole_moment_norm": 16.7100632503, 
			 "total_energy": -3063.01980399, 
			 "HOMO_LUMO_gap": 0.18358, 
			 "cosmo_polarized_energy": -17.82, 
			 "cosmo_cavitation_energy": 23.28, 
			 "cosmo_dispersion_energy": -17.93, 
			 "cosmo_repulsion_energy": 1.44, 
			 "cosmo_total_nonelectrostatic_energy": 6.8, 
			 "SMD_solvation_energy": 2.71 
		},
		"coords": [
			{
				"x": -1.5724269311,
				"y": -1.5850454018,
				"z": -3.1019266996,
				"element": "N" 
			},
			{
				"x": -1.2043782145,
				"y": -0.6706340957,
				"z": -2.1695831148,
				"element": "C" 
			},
			{
				"x": 0.0965132067,
				"y": -0.632223176,
				"z": -1.6074583685,
				"element": "C" 
			},
			{
				"x": 1.4377263638,
				"y": -1.8554384045,
				"z": -2.2095515373,
				"element": "Br" 
			},
			{
				"x": 0.3940975891,
				"y": 0.3021810785,
				"z": -0.6354073419,
				"element": "C" 
			},
			{
				"x": -0.5990874898,
				"y": 1.2030976836,
				"z": -0.2167989964,
				"element": "C" 
			},
			{
				"x": -1.8471776602,
				"y": 1.107633684,
				"z": -0.8484321229,
				"element": "C" 
			},
			{
				"x": -2.1484708688,
				"y": 0.2086778074,
				"z": -1.7794601775,
				"element": "N" 
			},
			{
				"x": -0.3992224744,
				"y": 2.2662650991,
				"z": 0.8069454959,
				"element": "C" 
			},
			{
				"x": 0.6718059842,
				"y": 2.1307323667,
				"z": 1.6388946942,
				"element": "O" 
			},
			{
				"x": -1.1326284556,
				"y": 3.2207282776,
				"z": 0.9230277052,
				"element": "O" 
			},
			{
				"x": -0.8820407185,
				"y": -2.1652097131,
				"z": -3.5493857616,
				"element": "H" 
			},
			{
				"x": -2.4733979936,
				"y": -1.4582259195,
				"z": -3.5352165738,
				"element": "H" 
			},
			{
				"x": 1.4050253704,
				"y": 0.3400453593,
				"z": -0.2405693785,
				"element": "H" 
			},
			{
				"x": -2.6310574373,
				"y": 1.8062805495,
				"z": -0.5683284804,
				"element": "H" 
			},
			{
				"x": 1.0510197298,
				"y": 1.2446348048,
				"z": 1.5647506579,
				"element": "H" 
			}
		],
		 "valence_orbital": [ 
			{
				"type": "occ",
				"energy": -0.31549,
				"method": "rhf"
			},
			{
				"type": "occ",
				"energy": -0.28938,
				"method": "rhf"
			},
			{
				"type": "occ",
				"energy": -0.28627,
				"method": "rhf"
			},
			{
				"type": "occ",
				"energy": -0.27006,
				"method": "rhf"
			},
			{
				"type": "occ",
				"energy": -0.23581,
				"method": "rhf"
			},
			{
				"type": "unocc",
				"energy": -0.05223,
				"method": "rhf"
			},
			{
				"type": "unocc",
				"energy": -0.04169,
				"method": "rhf"
			},
			{
				"type": "unocc",
				"energy": -0.01498,
				"method": "rhf"
			},
			{
				"type": "unocc",
				"energy": 0.04411,
				"method": "rhf"
			},
			{
				"type": "unocc",
				"energy": 0.05972,
				"method": "rhf"
			}
		],
		"cosmo_sigma_profile": { 
			"-0.025": 0.0,
			"-0.024": 0.0,
			"-0.023": 0.0,
			"-0.022": 0.0,
			"-0.021": 0.0,
			"-0.02": 0.0,
			"-0.019": 0.524869003942,
			"-0.018": 1.32630074786,
			"-0.017": 1.06900558581,
			"-0.016": 0.94318554113,
			"-0.015": 1.3496537094,
			"-0.014": 1.8126656647,
			"-0.013": 2.79118287359,
			"-0.012": 3.95514504499,
			"-0.011": 3.25260558444,
			"-0.01": 3.56021525931,
			"-0.009": 2.50022549631,
			"-0.008": 3.2701466127,
			"-0.007": 4.03583476167,
			"-0.006": 4.04054853306,
			"-0.005": 6.4350215886,
			"-0.004": 6.93279680747,
			"-0.003": 10.1632741882,
			"-0.002": 10.0237995187,
			"-0.001": 13.6642509089,
			"0.0": 19.0369707275,
			"0.001": 16.1465361927,
			"0.002": 10.5505076989,
			"0.003": 12.2034159331,
			"0.004": 9.70300369068,
			"0.005": 3.84140570629,
			"0.006": 5.05334742404,
			"0.007": 3.57182508181,
			"0.008": 3.28859350681,
			"0.009": 4.3147223367,
			"0.01": 5.15956230278,
			"0.011": 6.03215092189,
			"0.012": 6.2133703464,
			"0.013": 2.58730854403,
			"0.014": 0.630551215618,
			"0.015": 0.0,
			"0.016": 0.0,
			"0.017": 0.0,
			"0.018": 0.0,
			"0.019": 0.0,
			"0.02": 0.0,
			"0.021": 0.0,
			"0.022": 0.0,
			"0.023": 0.0,
			"0.024": 0.0,
			"0.025": 0.0
		}
	}
}
