{
	 "smiles": "COC(=O)C1=CC=CC(=C1O)[N+]([O-])=O", 
	 "Tm": 404.15, 
	 "num_atms": 21, 
	 "gaussian": { 
		 "optdone": 1, 
		 "sigma_profile": "yes", 
		 "theory": "DFT", 
		 "functional": "B3LYP", 
		 "basiset": "6-31G**", 
		 "properties": { 
			 "R2extent": 3602.0701, 
			 "electric_dipole_moment_norm": 7.14728014912, 
			 "electric_quadrupole_moment_norm": 14.8410020467, 
			 "total_energy": -739.84861409, 
			 "HOMO_LUMO_gap": 0.16622, 
			 "cosmo_polarized_energy": -13.09, 
			 "cosmo_cavitation_energy": 26.35, 
			 "cosmo_dispersion_energy": -19.75, 
			 "cosmo_repulsion_energy": 1.54, 
			 "cosmo_total_nonelectrostatic_energy": 8.14, 
			 "SMD_solvation_energy": 8.69 
		},
		"coords": [
			{
				"x": -2.2440112827,
				"y": -2.6970883512,
				"z": 1.558928569,
				"element": "C" 
			},
			{
				"x": -1.5261903607,
				"y": -1.7330801851,
				"z": 0.7637667041,
				"element": "O" 
			},
			{
				"x": -0.7017106126,
				"y": -0.9197330599,
				"z": 1.4346594683,
				"element": "C" 
			},
			{
				"x": -0.564571304,
				"y": -0.991698785,
				"z": 2.6583301797,
				"element": "O" 
			},
			{
				"x": 0.0110295008,
				"y": 0.0521171783,
				"z": 0.5857620356,
				"element": "C" 
			},
			{
				"x": -0.2036289763,
				"y": 0.1058907855,
				"z": -0.7985189366,
				"element": "C" 
			},
			{
				"x": 0.4552163945,
				"y": 1.0392082638,
				"z": -1.5894274862,
				"element": "C" 
			},
			{
				"x": 1.3423329569,
				"y": 1.9305235333,
				"z": -0.9899098888,
				"element": "C" 
			},
			{
				"x": 1.587538093,
				"y": 1.8826458117,
				"z": 0.3799674503,
				"element": "C" 
			},
			{
				"x": 0.9271513691,
				"y": 0.9480108465,
				"z": 1.21539081,
				"element": "C" 
			},
			{
				"x": 1.1313444117,
				"y": 0.9336507795,
				"z": 2.5259175897,
				"element": "O" 
			},
			{
				"x": 2.5623979669,
				"y": 2.8435030633,
				"z": 0.9136646758,
				"element": "N" 
			},
			{
				"x": 2.7750472376,
				"y": 3.8537427579,
				"z": 0.2365878153,
				"element": "O" 
			},
			{
				"x": 3.1199622401,
				"y": 2.5827521739,
				"z": 1.974220513,
				"element": "O" 
			},
			{
				"x": -1.5463686512,
				"y": -3.3576161524,
				"z": 2.0782216379,
				"element": "H" 
			},
			{
				"x": -2.8526786343,
				"y": -3.2581197076,
				"z": 0.8510912246,
				"element": "H" 
			},
			{
				"x": -2.8730247735,
				"y": -2.1913251656,
				"z": 2.2946299647,
				"element": "H" 
			},
			{
				"x": -0.9019018548,
				"y": -0.596074588,
				"z": -1.2395053978,
				"element": "H" 
			},
			{
				"x": 0.2827580505,
				"y": 1.077655403,
				"z": -2.659039952,
				"element": "H" 
			},
			{
				"x": 1.865945227,
				"y": 2.6832777592,
				"z": -1.5666640118,
				"element": "H" 
			},
			{
				"x": 0.548163002,
				"y": 0.2227576389,
				"z": 2.9006270353,
				"element": "H" 
			}
		],
		 "valence_orbital": [ 
			{
				"type": "occ",
				"energy": -0.30065,
				"method": "rhf"
			},
			{
				"type": "occ",
				"energy": -0.29812,
				"method": "rhf"
			},
			{
				"type": "occ",
				"energy": -0.29088,
				"method": "rhf"
			},
			{
				"type": "occ",
				"energy": -0.27626,
				"method": "rhf"
			},
			{
				"type": "occ",
				"energy": -0.25275,
				"method": "rhf"
			},
			{
				"type": "unocc",
				"energy": -0.08653,
				"method": "rhf"
			},
			{
				"type": "unocc",
				"energy": -0.05963,
				"method": "rhf"
			},
			{
				"type": "unocc",
				"energy": -0.00591,
				"method": "rhf"
			},
			{
				"type": "unocc",
				"energy": 0.03508,
				"method": "rhf"
			},
			{
				"type": "unocc",
				"energy": 0.07476,
				"method": "rhf"
			}
		],
		"cosmo_sigma_profile": { 
			"-0.025": 0.0,
			"-0.024": 0.0,
			"-0.023": 0.0,
			"-0.022": 0.0,
			"-0.021": 0.0,
			"-0.02": 0.0,
			"-0.019": 0.0,
			"-0.018": 0.0,
			"-0.017": 0.0,
			"-0.016": 0.0,
			"-0.015": 0.0,
			"-0.014": 0.0,
			"-0.013": 0.0,
			"-0.012": 0.0,
			"-0.011": 0.0,
			"-0.01": 0.0,
			"-0.009": 0.0573319338178,
			"-0.008": 2.66751886531,
			"-0.007": 9.5068255117,
			"-0.006": 16.2203489146,
			"-0.005": 17.8791465567,
			"-0.004": 20.2363423889,
			"-0.003": 16.3196046659,
			"-0.002": 16.7892213447,
			"-0.001": 14.9895640902,
			"0.0": 15.4626479666,
			"0.001": 13.2486797445,
			"0.002": 8.95912068759,
			"0.003": 6.59897858325,
			"0.004": 5.13358570601,
			"0.005": 4.35622679372,
			"0.006": 5.32776849419,
			"0.007": 7.44256251667,
			"0.008": 12.1573708349,
			"0.009": 7.89377024882,
			"0.01": 6.38276283894,
			"0.011": 1.90437825679,
			"0.012": 1.50689581096,
			"0.013": 0.555946257241,
			"0.014": 0.0,
			"0.015": 0.0,
			"0.016": 0.0,
			"0.017": 0.0,
			"0.018": 0.0,
			"0.019": 0.0,
			"0.02": 0.0,
			"0.021": 0.0,
			"0.022": 0.0,
			"0.023": 0.0,
			"0.024": 0.0,
			"0.025": 0.0
		}
	}
}
