{
	 "smiles": "OC(=O)C=CC1=CC=C(O1)[N+]([O-])=O", 
	 "Tm": 504.15, 
	 "num_atms": 18, 
	 "gaussian": { 
		 "optdone": 1, 
		 "sigma_profile": "yes", 
		 "theory": "DFT", 
		 "functional": "B3LYP", 
		 "basiset": "6-31G**", 
		 "properties": { 
			 "R2extent": 4412.477, 
			 "electric_dipole_moment_norm": 2.58466637692, 
			 "electric_quadrupole_moment_norm": 34.1833243923, 
			 "total_energy": -700.480567549, 
			 "HOMO_LUMO_gap": 0.14468, 
			 "cosmo_polarized_energy": -21.62, 
			 "cosmo_cavitation_energy": 25.59, 
			 "cosmo_dispersion_energy": -18.39, 
			 "cosmo_repulsion_energy": 1.47, 
			 "cosmo_total_nonelectrostatic_energy": 8.67, 
			 "SMD_solvation_energy": 8.98 
		},
		"coords": [
			{
				"x": 0.5999008616,
				"y": 0.5772011612,
				"z": -4.1588918482,
				"element": "O" 
			},
			{
				"x": -0.3074134004,
				"y": 1.3233314327,
				"z": -3.4740048588,
				"element": "C" 
			},
			{
				"x": -0.5107827602,
				"y": 2.4747249568,
				"z": -3.7794133936,
				"element": "O" 
			},
			{
				"x": -1.0129032836,
				"y": 0.679076468,
				"z": -2.3341228205,
				"element": "C" 
			},
			{
				"x": -0.5448832028,
				"y": -0.3730640542,
				"z": -1.6350525726,
				"element": "C" 
			},
			{
				"x": -1.188750247,
				"y": -0.9567249952,
				"z": -0.4844308163,
				"element": "C" 
			},
			{
				"x": -2.3452492951,
				"y": -0.6938364753,
				"z": 0.2250428867,
				"element": "C" 
			},
			{
				"x": -2.4148802101,
				"y": -1.6504495927,
				"z": 1.2668240186,
				"element": "C" 
			},
			{
				"x": -1.296731294,
				"y": -2.4269602484,
				"z": 1.1163857044,
				"element": "C" 
			},
			{
				"x": -0.5438849814,
				"y": -2.0289524269,
				"z": 0.0709656142,
				"element": "O" 
			},
			{
				"x": -0.8375307111,
				"y": -3.5490589368,
				"z": 1.8750101682,
				"element": "N" 
			},
			{
				"x": 0.2122073219,
				"y": -4.0871152011,
				"z": 1.5290384263,
				"element": "O" 
			},
			{
				"x": -1.5533262102,
				"y": -3.8791914915,
				"z": 2.8247893804,
				"element": "O" 
			},
			{
				"x": 0.5163597906,
				"y": -0.358051787,
				"z": -3.9269133255,
				"element": "H" 
			},
			{
				"x": -1.9220382753,
				"y": 1.1939898955,
				"z": -2.0393887449,
				"element": "H" 
			},
			{
				"x": 0.4010107722,
				"y": -0.8427439194,
				"z": -1.8987089749,
				"element": "H" 
			},
			{
				"x": -3.0541111119,
				"y": 0.0948658856,
				"z": 0.0195249203,
				"element": "H" 
			},
			{
				"x": -3.1700937632,
				"y": -1.7677406714,
				"z": 2.0280462362,
				"element": "H" 
			}
		],
		 "valence_orbital": [ 
			{
				"type": "occ",
				"energy": -0.3226,
				"method": "rhf"
			},
			{
				"type": "occ",
				"energy": -0.31955,
				"method": "rhf"
			},
			{
				"type": "occ",
				"energy": -0.30646,
				"method": "rhf"
			},
			{
				"type": "occ",
				"energy": -0.28961,
				"method": "rhf"
			},
			{
				"type": "occ",
				"energy": -0.26311,
				"method": "rhf"
			},
			{
				"type": "unocc",
				"energy": -0.11843,
				"method": "rhf"
			},
			{
				"type": "unocc",
				"energy": -0.07556,
				"method": "rhf"
			},
			{
				"type": "unocc",
				"energy": 0.00966,
				"method": "rhf"
			},
			{
				"type": "unocc",
				"energy": 0.03586,
				"method": "rhf"
			},
			{
				"type": "unocc",
				"energy": 0.04185,
				"method": "rhf"
			}
		],
		"cosmo_sigma_profile": { 
			"-0.025": 0.0,
			"-0.024": 0.0,
			"-0.023": 0.0,
			"-0.022": 0.0,
			"-0.021": 0.0,
			"-0.02": 0.102627062684,
			"-0.019": 0.791238346313,
			"-0.018": 1.42962532964,
			"-0.017": 0.670646400997,
			"-0.016": 0.820885701692,
			"-0.015": 1.31757269232,
			"-0.014": 0.892662842428,
			"-0.013": 1.40897707426,
			"-0.012": 1.29567183774,
			"-0.011": 1.3123555953,
			"-0.01": 5.71718710014,
			"-0.009": 6.78508754745,
			"-0.008": 6.71145687137,
			"-0.007": 7.89506205496,
			"-0.006": 8.28585217742,
			"-0.005": 7.68468186972,
			"-0.004": 12.190083893,
			"-0.003": 14.3786511601,
			"-0.002": 14.9113376575,
			"-0.001": 13.9536164566,
			"0.0": 13.1441057499,
			"0.001": 5.87792147279,
			"0.002": 3.89232970708,
			"0.003": 4.77711465885,
			"0.004": 5.38548932779,
			"0.005": 4.83554721191,
			"0.006": 7.01430400444,
			"0.007": 11.174451643,
			"0.008": 12.7742746778,
			"0.009": 9.63013124185,
			"0.01": 7.53429893654,
			"0.011": 5.09881840526,
			"0.012": 4.99444291368,
			"0.013": 1.48607818243,
			"0.014": 0.0,
			"0.015": 0.0,
			"0.016": 0.0,
			"0.017": 0.0,
			"0.018": 0.0,
			"0.019": 0.0,
			"0.02": 0.0,
			"0.021": 0.0,
			"0.022": 0.0,
			"0.023": 0.0,
			"0.024": 0.0,
			"0.025": 0.0
		}
	}
}
