{
	 "smiles": "NC1=C(C=C(C=C1Br)C(F)(F)F)[N+]([O-])=O", 
	 "Tm": 344.15, 
	 "num_atms": 19, 
	 "gaussian": { 
		 "optdone": 1, 
		 "sigma_profile": "yes", 
		 "theory": "DFT", 
		 "functional": "B3LYP", 
		 "basiset": "6-31G**", 
		 "properties": { 
			 "R2extent": 5449.8888, 
			 "electric_dipole_moment_norm": 3.67004593568, 
			 "electric_quadrupole_moment_norm": 15.4623337556, 
			 "total_energy": -3399.94543185, 
			 "HOMO_LUMO_gap": 0.14431, 
			 "cosmo_polarized_energy": -9.01, 
			 "cosmo_cavitation_energy": 27.74, 
			 "cosmo_dispersion_energy": -20.59, 
			 "cosmo_repulsion_energy": 1.54, 
			 "cosmo_total_nonelectrostatic_energy": 8.69, 
			 "SMD_solvation_energy": 6.75 
		},
		"coords": [
			{
				"x": -2.9783143344,
				"y": -1.3051983102,
				"z": -2.0738269554,
				"element": "N" 
			},
			{
				"x": -2.047631685,
				"y": -0.9257929811,
				"z": -1.1796184289,
				"element": "C" 
			},
			{
				"x": -0.6658290924,
				"y": -0.7501503561,
				"z": -1.4931037353,
				"element": "C" 
			},
			{
				"x": 0.2699596372,
				"y": -0.3531473239,
				"z": -0.5315959713,
				"element": "C" 
			},
			{
				"x": -0.1221053344,
				"y": -0.1177630957,
				"z": 0.7717061572,
				"element": "C" 
			},
			{
				"x": -1.4734601984,
				"y": -0.2807141907,
				"z": 1.1257695132,
				"element": "C" 
			},
			{
				"x": -2.3965229837,
				"y": -0.6695506542,
				"z": 0.1819098167,
				"element": "C" 
			},
			{
				"x": -4.2206851578,
				"y": -0.8819152343,
				"z": 0.7136230646,
				"element": "Br" 
			},
			{
				"x": 0.8561434953,
				"y": 0.3461429039,
				"z": 1.812603311,
				"element": "C" 
			},
			{
				"x": 0.7102999088,
				"y": -0.345686587,
				"z": 2.9662752792,
				"element": "F" 
			},
			{
				"x": 0.6736374251,
				"y": 1.6509410184,
				"z": 2.121683889,
				"element": "F" 
			},
			{
				"x": 2.1326289001,
				"y": 0.2037075505,
				"z": 1.4046787236,
				"element": "F" 
			},
			{
				"x": -0.1558824152,
				"y": -0.9797939906,
				"z": -2.8368044584,
				"element": "N" 
			},
			{
				"x": -0.9488246155,
				"y": -1.3315036793,
				"z": -3.7287926934,
				"element": "O" 
			},
			{
				"x": 1.0451947934,
				"y": -0.8156863102,
				"z": -3.0391834928,
				"element": "O" 
			},
			{
				"x": -2.6813878622,
				"y": -1.4767821064,
				"z": -3.0243924283,
				"element": "H" 
			},
			{
				"x": -3.9349528326,
				"y": -1.4115679783,
				"z": -1.7755554913,
				"element": "H" 
			},
			{
				"x": 1.3009819392,
				"y": -0.2421652441,
				"z": -0.8382747074,
				"element": "H" 
			},
			{
				"x": -1.7929495875,
				"y": -0.1067734306,
				"z": 2.1467986079,
				"element": "H" 
			}
		],
		 "valence_orbital": [ 
			{
				"type": "occ",
				"energy": -0.32135,
				"method": "rhf"
			},
			{
				"type": "occ",
				"energy": -0.32067,
				"method": "rhf"
			},
			{
				"type": "occ",
				"energy": -0.30244,
				"method": "rhf"
			},
			{
				"type": "occ",
				"energy": -0.2855,
				"method": "rhf"
			},
			{
				"type": "occ",
				"energy": -0.24557,
				"method": "rhf"
			},
			{
				"type": "unocc",
				"energy": -0.10126,
				"method": "rhf"
			},
			{
				"type": "unocc",
				"energy": -0.03658,
				"method": "rhf"
			},
			{
				"type": "unocc",
				"energy": -0.02386,
				"method": "rhf"
			},
			{
				"type": "unocc",
				"energy": -0.02059,
				"method": "rhf"
			},
			{
				"type": "unocc",
				"energy": 0.08237,
				"method": "rhf"
			}
		],
		"cosmo_sigma_profile": { 
			"-0.025": 0.0,
			"-0.024": 0.0,
			"-0.023": 0.0,
			"-0.022": 0.0,
			"-0.021": 0.0,
			"-0.02": 0.0,
			"-0.019": 0.0,
			"-0.018": 0.0,
			"-0.017": 0.0,
			"-0.016": 0.0,
			"-0.015": 0.0,
			"-0.014": 0.399281502201,
			"-0.013": 0.817205188176,
			"-0.012": 1.19481861092,
			"-0.011": 2.01964370829,
			"-0.01": 1.95475698066,
			"-0.009": 2.59325985303,
			"-0.008": 2.58394574264,
			"-0.007": 3.58404095585,
			"-0.006": 7.05139781641,
			"-0.005": 9.06090882427,
			"-0.004": 10.1202758018,
			"-0.003": 13.6896781618,
			"-0.002": 21.7331847496,
			"-0.001": 21.9744914785,
			"0.0": 23.58455186,
			"0.001": 15.158789004,
			"0.002": 29.2090954667,
			"0.003": 31.02042747,
			"0.004": 4.49147939148,
			"0.005": 2.73426382671,
			"0.006": 3.68330078978,
			"0.007": 5.27227998943,
			"0.008": 5.08511206368,
			"0.009": 4.46779952413,
			"0.01": 2.95154066907,
			"0.011": 0.331610214854,
			"0.012": 0.0,
			"0.013": 0.0,
			"0.014": 0.0,
			"0.015": 0.0,
			"0.016": 0.0,
			"0.017": 0.0,
			"0.018": 0.0,
			"0.019": 0.0,
			"0.02": 0.0,
			"0.021": 0.0,
			"0.022": 0.0,
			"0.023": 0.0,
			"0.024": 0.0,
			"0.025": 0.0
		}
	}
}
