{
	 "smiles": "CCC(=O)C1=CC=C(C=C1)N(C)C", 
	 "Tm": 378.15, 
	 "num_atms": 28, 
	 "gaussian": { 
		 "optdone": 1, 
		 "sigma_profile": "yes", 
		 "theory": "DFT", 
		 "functional": "B3LYP", 
		 "basiset": "6-31G**", 
		 "properties": { 
			 "R2extent": 3834.8585, 
			 "electric_dipole_moment_norm": 5.40702355183, 
			 "electric_quadrupole_moment_norm": 11.7694343517, 
			 "total_energy": -558.191559275, 
			 "HOMO_LUMO_gap": 0.16489, 
			 "cosmo_polarized_energy": -11.17, 
			 "cosmo_cavitation_energy": 30.37, 
			 "cosmo_dispersion_energy": -22.2, 
			 "cosmo_repulsion_energy": 1.74, 
			 "cosmo_total_nonelectrostatic_energy": 9.92, 
			 "SMD_solvation_energy": 5.5 
		},
		"coords": [
			{
				"x": -3.7848206439,
				"y": 3.1428774106,
				"z": 1.9763820324,
				"element": "C" 
			},
			{
				"x": -2.5369388161,
				"y": 2.7604625122,
				"z": 1.1829830336,
				"element": "C" 
			},
			{
				"x": -1.9051946511,
				"y": 1.4513172785,
				"z": 1.658003445,
				"element": "C" 
			},
			{
				"x": -2.404069763,
				"y": 0.8270649407,
				"z": 2.5879369753,
				"element": "O" 
			},
			{
				"x": -0.6819004711,
				"y": 0.9559091594,
				"z": 0.9722456729,
				"element": "C" 
			},
			{
				"x": -0.1025609051,
				"y": -0.2473640672,
				"z": 1.4112294748,
				"element": "C" 
			},
			{
				"x": 1.0358868831,
				"y": -0.7669589662,
				"z": 0.8201838093,
				"element": "C" 
			},
			{
				"x": 1.6624090562,
				"y": -0.098239757,
				"z": -0.263116594,
				"element": "C" 
			},
			{
				"x": 1.0824563519,
				"y": 1.1175202855,
				"z": -0.7023415917,
				"element": "C" 
			},
			{
				"x": -0.0598504289,
				"y": 1.6220075262,
				"z": -0.0961186067,
				"element": "C" 
			},
			{
				"x": 2.7909111869,
				"y": -0.6135362862,
				"z": -0.8665939306,
				"element": "N" 
			},
			{
				"x": 3.4078241842,
				"y": -1.8228334441,
				"z": -0.3469264674,
				"element": "C" 
			},
			{
				"x": 3.4556047914,
				"y": 0.1297237147,
				"z": -1.9236320085,
				"element": "C" 
			},
			{
				"x": -4.5499077461,
				"y": 2.3661616419,
				"z": 1.8989572823,
				"element": "H" 
			},
			{
				"x": -3.5519313312,
				"y": 3.2599788371,
				"z": 3.037825824,
				"element": "H" 
			},
			{
				"x": -4.2043392365,
				"y": 4.0832862857,
				"z": 1.6058677629,
				"element": "H" 
			},
			{
				"x": -2.7713009964,
				"y": 2.664681222,
				"z": 0.1139590494,
				"element": "H" 
			},
			{
				"x": -1.7794488389,
				"y": 3.553734793,
				"z": 1.2456186349,
				"element": "H" 
			},
			{
				"x": -0.5763085537,
				"y": -0.765580969,
				"z": 2.2387919084,
				"element": "H" 
			},
			{
				"x": 1.4448357364,
				"y": -1.6957861078,
				"z": 1.198447274,
				"element": "H" 
			},
			{
				"x": 1.5263558389,
				"y": 1.6708646691,
				"z": -1.5205121322,
				"element": "H" 
			},
			{
				"x": -0.4669289002,
				"y": 2.5567230549,
				"z": -0.4692244554,
				"element": "H" 
			},
			{
				"x": 2.7148699194,
				"y": -2.6731222614,
				"z": -0.3763240458,
				"element": "H" 
			},
			{
				"x": 4.2716559926,
				"y": -2.0772312388,
				"z": -0.9619949741,
				"element": "H" 
			},
			{
				"x": 3.7520661523,
				"y": -1.7027264375,
				"z": 0.6901495739,
				"element": "H" 
			},
			{
				"x": 2.7884854248,
				"y": 0.2981098077,
				"z": -2.7786982071,
				"element": "H" 
			},
			{
				"x": 4.3135072586,
				"y": -0.4417076215,
				"z": -2.2795974554,
				"element": "H" 
			},
			{
				"x": 3.8184325056,
				"y": 1.1090640174,
				"z": -1.5800012841,
				"element": "H" 
			}
		],
		 "valence_orbital": [ 
			{
				"type": "occ",
				"energy": -0.32941,
				"method": "rhf"
			},
			{
				"type": "occ",
				"energy": -0.28484,
				"method": "rhf"
			},
			{
				"type": "occ",
				"energy": -0.24942,
				"method": "rhf"
			},
			{
				"type": "occ",
				"energy": -0.22995,
				"method": "rhf"
			},
			{
				"type": "occ",
				"energy": -0.19683,
				"method": "rhf"
			},
			{
				"type": "unocc",
				"energy": -0.03194,
				"method": "rhf"
			},
			{
				"type": "unocc",
				"energy": 0.00242,
				"method": "rhf"
			},
			{
				"type": "unocc",
				"energy": 0.06211,
				"method": "rhf"
			},
			{
				"type": "unocc",
				"energy": 0.07974,
				"method": "rhf"
			},
			{
				"type": "unocc",
				"energy": 0.09825,
				"method": "rhf"
			}
		],
		"cosmo_sigma_profile": { 
			"-0.025": 0.0,
			"-0.024": 0.0,
			"-0.023": 0.0,
			"-0.022": 0.0,
			"-0.021": 0.0,
			"-0.02": 0.0,
			"-0.019": 0.0,
			"-0.018": 0.0,
			"-0.017": 0.0,
			"-0.016": 0.0,
			"-0.015": 0.0,
			"-0.014": 0.0,
			"-0.013": 0.0,
			"-0.012": 0.0,
			"-0.011": 0.0,
			"-0.01": 0.0,
			"-0.009": 0.0,
			"-0.008": 0.170433282833,
			"-0.007": 2.06634306537,
			"-0.006": 5.71206658871,
			"-0.005": 18.3904808869,
			"-0.004": 27.3464104535,
			"-0.003": 27.1902625117,
			"-0.002": 30.730312378,
			"-0.001": 24.8140564719,
			"0.0": 15.9132276168,
			"0.001": 14.5659384006,
			"0.002": 12.4690072784,
			"0.003": 9.85324093441,
			"0.004": 11.923901063,
			"0.005": 11.9765055795,
			"0.006": 8.24779031838,
			"0.007": 2.29731601422,
			"0.008": 1.53724783512,
			"0.009": 1.20566362685,
			"0.01": 2.39384499079,
			"0.011": 1.90824032616,
			"0.012": 2.57181584468,
			"0.013": 4.52274876946,
			"0.014": 1.26913220368,
			"0.015": 0.0263196490244,
			"0.016": 0.0,
			"0.017": 0.0,
			"0.018": 0.0,
			"0.019": 0.0,
			"0.02": 0.0,
			"0.021": 0.0,
			"0.022": 0.0,
			"0.023": 0.0,
			"0.024": 0.0,
			"0.025": 0.0
		}
	}
}
