{
	 "smiles": "NC1=CC=C(SCC2=CN=CC=C2)C=C1", 
	 "Tm": 399.15, 
	 "num_atms": 27, 
	 "gaussian": { 
		 "optdone": 1, 
		 "sigma_profile": "yes", 
		 "theory": "DFT", 
		 "functional": "B3LYP", 
		 "basiset": "6-31G**", 
		 "properties": { 
			 "R2extent": 4432.6789, 
			 "electric_dipole_moment_norm": 1.64302427858, 
			 "electric_quadrupole_moment_norm": 22.7753408655, 
			 "total_energy": -972.197839707, 
			 "HOMO_LUMO_gap": 0.17981, 
			 "cosmo_polarized_energy": -14.41, 
			 "cosmo_cavitation_energy": 32.8, 
			 "cosmo_dispersion_energy": -23.0, 
			 "cosmo_repulsion_energy": 1.77, 
			 "cosmo_total_nonelectrostatic_energy": 11.58, 
			 "SMD_solvation_energy": 3.37 
		},
		"coords": [
			{
				"x": 0.5377803241,
				"y": -2.8918676625,
				"z": -1.9773677996,
				"element": "N" 
			},
			{
				"x": 0.7522368572,
				"y": -1.6367522823,
				"z": -1.416989216,
				"element": "C" 
			},
			{
				"x": 1.2290112104,
				"y": -0.5704591435,
				"z": -2.202114927,
				"element": "C" 
			},
			{
				"x": 1.4937712567,
				"y": 0.6677294416,
				"z": -1.6276345061,
				"element": "C" 
			},
			{
				"x": 1.2864945897,
				"y": 0.8868990296,
				"z": -0.2574008159,
				"element": "C" 
			},
			{
				"x": 1.6601649078,
				"y": 2.4736214377,
				"z": 0.4779423533,
				"element": "S" 
			},
			{
				"x": 0.0526132023,
				"y": 3.3871305895,
				"z": 0.2565522612,
				"element": "C" 
			},
			{
				"x": -1.0949492843,
				"y": 2.8485690403,
				"z": 1.0629889963,
				"element": "C" 
			},
			{
				"x": -2.0957303318,
				"y": 2.0727181462,
				"z": 0.4624851417,
				"element": "C" 
			},
			{
				"x": -3.1440231613,
				"y": 1.5526091173,
				"z": 1.112277747,
				"element": "N" 
			},
			{
				"x": -3.2330991998,
				"y": 1.7957798781,
				"z": 2.4244940477,
				"element": "C" 
			},
			{
				"x": -2.2958730826,
				"y": 2.5536901952,
				"z": 3.1310900034,
				"element": "C" 
			},
			{
				"x": -1.2112942684,
				"y": 3.08348123,
				"z": 2.4387408388,
				"element": "C" 
			},
			{
				"x": 0.8182998703,
				"y": -0.1783770314,
				"z": 0.5259614304,
				"element": "C" 
			},
			{
				"x": 0.5541182429,
				"y": -1.4202396416,
				"z": -0.0413058897,
				"element": "C" 
			},
			{
				"x": -0.0963784874,
				"y": -3.4949965027,
				"z": -1.4727918508,
				"element": "H" 
			},
			{
				"x": 0.3730243737,
				"y": -2.9059965211,
				"z": -2.9738942972,
				"element": "H" 
			},
			{
				"x": 1.3998209947,
				"y": -0.7225319531,
				"z": -3.2651509434,
				"element": "H" 
			},
			{
				"x": 1.8692627633,
				"y": 1.4773759901,
				"z": -2.2463549514,
				"element": "H" 
			},
			{
				"x": -0.1879041672,
				"y": 3.3976255698,
				"z": -0.809555202,
				"element": "H" 
			},
			{
				"x": 0.2984628796,
				"y": 4.4111058018,
				"z": 0.5550587339,
				"element": "H" 
			},
			{
				"x": -2.0442206893,
				"y": 1.864549217,
				"z": -0.6057235063,
				"element": "H" 
			},
			{
				"x": -4.0930300751,
				"y": 1.3666905764,
				"z": 2.9363753421,
				"element": "H" 
			},
			{
				"x": -2.4179829045,
				"y": 2.7227709081,
				"z": 4.1966254528,
				"element": "H" 
			},
			{
				"x": -0.45697627,
				"y": 3.6712320449,
				"z": 2.9560046378,
				"element": "H" 
			},
			{
				"x": 0.6594903181,
				"y": -0.0283091038,
				"z": 1.5888834612,
				"element": "H" 
			},
			{
				"x": 0.1926101309,
				"y": -2.2340483714,
				"z": 0.5824034578,
				"element": "H" 
			}
		],
		 "valence_orbital": [ 
			{
				"type": "occ",
				"energy": -0.25485,
				"method": "rhf"
			},
			{
				"type": "occ",
				"energy": -0.25028,
				"method": "rhf"
			},
			{
				"type": "occ",
				"energy": -0.24869,
				"method": "rhf"
			},
			{
				"type": "occ",
				"energy": -0.22263,
				"method": "rhf"
			},
			{
				"type": "occ",
				"energy": -0.20587,
				"method": "rhf"
			},
			{
				"type": "unocc",
				"energy": -0.02606,
				"method": "rhf"
			},
			{
				"type": "unocc",
				"energy": -0.01325,
				"method": "rhf"
			},
			{
				"type": "unocc",
				"energy": -0.00067,
				"method": "rhf"
			},
			{
				"type": "unocc",
				"energy": 0.00438,
				"method": "rhf"
			},
			{
				"type": "unocc",
				"energy": 0.06047,
				"method": "rhf"
			}
		],
		"cosmo_sigma_profile": { 
			"-0.025": 0.0,
			"-0.024": 0.0,
			"-0.023": 0.0,
			"-0.022": 0.0,
			"-0.021": 0.0,
			"-0.02": 0.0,
			"-0.019": 0.0,
			"-0.018": 0.0,
			"-0.017": 0.0,
			"-0.016": 0.0,
			"-0.015": 0.0,
			"-0.014": 0.0,
			"-0.013": 0.892077748621,
			"-0.012": 2.83404482543,
			"-0.011": 3.04895338277,
			"-0.01": 2.438464972,
			"-0.009": 3.59086202073,
			"-0.008": 2.75787348135,
			"-0.007": 7.53814994749,
			"-0.006": 18.3088173945,
			"-0.005": 20.748037827,
			"-0.004": 17.3883927115,
			"-0.003": 16.5903690842,
			"-0.002": 14.5536213465,
			"-0.001": 13.9102876774,
			"0.0": 12.9975903497,
			"0.001": 15.5688018277,
			"0.002": 20.2907476672,
			"0.003": 20.8904958311,
			"0.004": 14.8444536488,
			"0.005": 18.0655650343,
			"0.006": 11.3241679326,
			"0.007": 3.65723682244,
			"0.008": 5.50202914601,
			"0.009": 4.27858733396,
			"0.01": 2.89091195819,
			"0.011": 1.65554372172,
			"0.012": 1.61130806439,
			"0.013": 1.1550627109,
			"0.014": 1.55499329124,
			"0.015": 0.886328873476,
			"0.016": 0.799906512993,
			"0.017": 0.53526684812,
			"0.018": 0.00524748772809,
			"0.019": 0.0,
			"0.02": 0.0,
			"0.021": 0.0,
			"0.022": 0.0,
			"0.023": 0.0,
			"0.024": 0.0,
			"0.025": 0.0
		}
	}
}
