{
	 "smiles": "CN(C)C1=CC=C(C=C2/C(=O)C3CCC(C)(C2=O)C3(C)C)C=C1", 
	 "Tm": 425.15, 
	 "num_atms": 48, 
	 "gaussian": { 
		 "optdone": 1, 
		 "sigma_profile": "yes", 
		 "theory": "DFT", 
		 "functional": "B3LYP", 
		 "basiset": "6-31G**", 
		 "properties": { 
			 "R2extent": 10625.2523, 
			 "electric_dipole_moment_norm": 4.88401791766, 
			 "electric_quadrupole_moment_norm": 40.7265740682, 
			 "total_energy": -982.393550581, 
			 "HOMO_LUMO_gap": 0.12644, 
			 "cosmo_polarized_energy": -15.28, 
			 "cosmo_cavitation_energy": 46.09, 
			 "cosmo_dispersion_energy": -32.76, 
			 "cosmo_repulsion_energy": 2.42, 
			 "cosmo_total_nonelectrostatic_energy": 15.75, 
			 "SMD_solvation_energy": 8.17 
		},
		"coords": [
			{
				"x": -6.392349266,
				"y": -2.0259038259,
				"z": 1.1321464814,
				"element": "C" 
			},
			{
				"x": -5.6037172212,
				"y": -1.2664731052,
				"z": 0.1736761525,
				"element": "N" 
			},
			{
				"x": -6.2551940336,
				"y": -0.6937728931,
				"z": -0.9952912852,
				"element": "C" 
			},
			{
				"x": -4.250408256,
				"y": -1.1173586049,
				"z": 0.3547499232,
				"element": "C" 
			},
			{
				"x": -3.5904229261,
				"y": -1.6777061024,
				"z": 1.479964698,
				"element": "C" 
			},
			{
				"x": -2.229675264,
				"y": -1.5157765909,
				"z": 1.6455337944,
				"element": "C" 
			},
			{
				"x": -1.4249215629,
				"y": -0.7938746641,
				"z": 0.725515818,
				"element": "C" 
			},
			{
				"x": -0.0241543964,
				"y": -0.7078696708,
				"z": 1.0449537522,
				"element": "C" 
			},
			{
				"x": 1.1077826846,
				"y": -0.098857598,
				"z": 0.5429418542,
				"element": "C" 
			},
			{
				"x": 1.2351069501,
				"y": 0.7447493065,
				"z": -0.66460682,
				"element": "C" 
			},
			{
				"x": 0.3417438609,
				"y": 0.9288702952,
				"z": -1.4899985106,
				"element": "O" 
			},
			{
				"x": 2.572785062,
				"y": 1.452433671,
				"z": -0.8563790575,
				"element": "C" 
			},
			{
				"x": 2.6987093888,
				"y": 2.5703337427,
				"z": 0.2196555408,
				"element": "C" 
			},
			{
				"x": 3.391126691,
				"y": 1.8861051115,
				"z": 1.4264889972,
				"element": "C" 
			},
			{
				"x": 3.6446148436,
				"y": 0.4037273148,
				"z": 0.9913918351,
				"element": "C" 
			},
			{
				"x": 4.8363579829,
				"y": -0.2246644317,
				"z": 1.7148198794,
				"element": "C" 
			},
			{
				"x": 2.354721444,
				"y": -0.3677347581,
				"z": 1.3444333555,
				"element": "C" 
			},
			{
				"x": 2.3522588405,
				"y": -1.148930173,
				"z": 2.2898268277,
				"element": "O" 
			},
			{
				"x": 3.7739762052,
				"y": 0.512816718,
				"z": -0.5672447404,
				"element": "C" 
			},
			{
				"x": 5.0901459578,
				"y": 1.1923724406,
				"z": -0.999025001,
				"element": "C" 
			},
			{
				"x": 3.6889601864,
				"y": -0.8391014113,
				"z": -1.3002482852,
				"element": "C" 
			},
			{
				"x": -2.0921263825,
				"y": -0.2452692623,
				"z": -0.3987072627,
				"element": "C" 
			},
			{
				"x": -3.4536502485,
				"y": -0.4004568015,
				"z": -0.576809037,
				"element": "C" 
			},
			{
				"x": -6.0580444017,
				"y": -3.0695392019,
				"z": 1.2008453628,
				"element": "H" 
			},
			{
				"x": -7.4360204849,
				"y": -2.0270024444,
				"z": 0.8172189883,
				"element": "H" 
			},
			{
				"x": -6.3433892074,
				"y": -1.5865418106,
				"z": 2.1368318484,
				"element": "H" 
			},
			{
				"x": -7.3229852138,
				"y": -0.909276152,
				"z": -0.9516940103,
				"element": "H" 
			},
			{
				"x": -6.1314478664,
				"y": 0.3958349108,
				"z": -1.0347528469,
				"element": "H" 
			},
			{
				"x": -5.8617229939,
				"y": -1.1146097239,
				"z": -1.9298335104,
				"element": "H" 
			},
			{
				"x": -4.1462252955,
				"y": -2.2393094173,
				"z": 2.2202849346,
				"element": "H" 
			},
			{
				"x": -1.7558988515,
				"y": -1.9572336832,
				"z": 2.5186529544,
				"element": "H" 
			},
			{
				"x": 0.2235099099,
				"y": -1.2652202672,
				"z": 1.9496801963,
				"element": "H" 
			},
			{
				"x": 2.5729087725,
				"y": 1.8498396099,
				"z": -1.875139172,
				"element": "H" 
			},
			{
				"x": 1.7230168734,
				"y": 2.9936416164,
				"z": 0.4759778957,
				"element": "H" 
			},
			{
				"x": 3.3038018698,
				"y": 3.3943936817,
				"z": -0.169563352,
				"element": "H" 
			},
			{
				"x": 2.7929317047,
				"y": 1.9352597763,
				"z": 2.3415129555,
				"element": "H" 
			},
			{
				"x": 4.3490732607,
				"y": 2.3630748699,
				"z": 1.6570543439,
				"element": "H" 
			},
			{
				"x": 4.6433950643,
				"y": -0.2766606057,
				"z": 2.7883216541,
				"element": "H" 
			},
			{
				"x": 5.018192825,
				"y": -1.2487134325,
				"z": 1.3747386195,
				"element": "H" 
			},
			{
				"x": 5.7443629499,
				"y": 0.3625371157,
				"z": 1.551149064,
				"element": "H" 
			},
			{
				"x": 5.9488626504,
				"y": 0.5402307908,
				"z": -0.8126496759,
				"element": "H" 
			},
			{
				"x": 5.0635082257,
				"y": 1.3996509615,
				"z": -2.0746918532,
				"element": "H" 
			},
			{
				"x": 5.2753339806,
				"y": 2.139285955,
				"z": -0.4850563388,
				"element": "H" 
			},
			{
				"x": 2.7757903113,
				"y": -1.3947306053,
				"z": -1.0714638638,
				"element": "H" 
			},
			{
				"x": 3.7188459431,
				"y": -0.686146145,
				"z": -2.3847038482,
				"element": "H" 
			},
			{
				"x": 4.5395222035,
				"y": -1.4760572616,
				"z": -1.0353482924,
				"element": "H" 
			},
			{
				"x": -1.5068100623,
				"y": 0.297554678,
				"z": -1.1287123506,
				"element": "H" 
			},
			{
				"x": -3.9095827083,
				"y": 0.0364780774,
				"z": -1.4567486131,
				"element": "H" 
			}
		],
		 "valence_orbital": [ 
			{
				"type": "occ",
				"energy": -0.25614,
				"method": "rhf"
			},
			{
				"type": "occ",
				"energy": -0.25305,
				"method": "rhf"
			},
			{
				"type": "occ",
				"energy": -0.23536,
				"method": "rhf"
			},
			{
				"type": "occ",
				"energy": -0.21971,
				"method": "rhf"
			},
			{
				"type": "occ",
				"energy": -0.19649,
				"method": "rhf"
			},
			{
				"type": "unocc",
				"energy": -0.07005,
				"method": "rhf"
			},
			{
				"type": "unocc",
				"energy": 0.0007,
				"method": "rhf"
			},
			{
				"type": "unocc",
				"energy": 0.00291,
				"method": "rhf"
			},
			{
				"type": "unocc",
				"energy": 0.02926,
				"method": "rhf"
			},
			{
				"type": "unocc",
				"energy": 0.07621,
				"method": "rhf"
			}
		],
		"cosmo_sigma_profile": { 
			"-0.025": 0.0,
			"-0.024": 0.0,
			"-0.023": 0.0,
			"-0.022": 0.0,
			"-0.021": 0.0,
			"-0.02": 0.0,
			"-0.019": 0.0,
			"-0.018": 0.0,
			"-0.017": 0.0,
			"-0.016": 0.0,
			"-0.015": 0.0,
			"-0.014": 0.0,
			"-0.013": 0.0,
			"-0.012": 0.0,
			"-0.011": 0.0,
			"-0.01": 0.0,
			"-0.009": 0.0,
			"-0.008": 1.02851546729,
			"-0.007": 3.50214514008,
			"-0.006": 10.0222324553,
			"-0.005": 19.9238305394,
			"-0.004": 27.8506689896,
			"-0.003": 47.0674773975,
			"-0.002": 49.5706640579,
			"-0.001": 38.2296669754,
			"0.0": 35.4241825658,
			"0.001": 29.298974705,
			"0.002": 18.7819485387,
			"0.003": 16.8446987676,
			"0.004": 18.4128347025,
			"0.005": 12.2445533447,
			"0.006": 3.75191034815,
			"0.007": 4.21419957266,
			"0.008": 3.13168316069,
			"0.009": 3.14547453427,
			"0.01": 3.62290552949,
			"0.011": 4.08606952619,
			"0.012": 4.30477060149,
			"0.013": 5.41120735018,
			"0.014": 1.24038151964,
			"0.015": 0.043524170423,
			"0.016": 0.0,
			"0.017": 0.0,
			"0.018": 0.0,
			"0.019": 0.0,
			"0.02": 0.0,
			"0.021": 0.0,
			"0.022": 0.0,
			"0.023": 0.0,
			"0.024": 0.0,
			"0.025": 0.0
		}
	}
}
