{
	 "smiles": "OC(=O)C1=CC(=CC=C1)S(=O)(=O)NC1CCOC1=O", 
	 "Tm": 494.15, 
	 "num_atms": 30, 
	 "gaussian": { 
		 "optdone": 1, 
		 "sigma_profile": "yes", 
		 "theory": "DFT", 
		 "functional": "B3LYP", 
		 "basiset": "6-31G**", 
		 "properties": { 
			 "R2extent": 6532.3872, 
			 "electric_dipole_moment_norm": 2.68587474578, 
			 "electric_quadrupole_moment_norm": 36.9541148086, 
			 "total_energy": -1330.02174106, 
			 "HOMO_LUMO_gap": 0.20575, 
			 "cosmo_polarized_energy": -26.97, 
			 "cosmo_cavitation_energy": 36.57, 
			 "cosmo_dispersion_energy": -25.89, 
			 "cosmo_repulsion_energy": 1.97, 
			 "cosmo_total_nonelectrostatic_energy": 12.66, 
			 "SMD_solvation_energy": 7.07 
		},
		"coords": [
			{
				"x": -4.5544651219,
				"y": -1.4957167389,
				"z": -2.0281880277,
				"element": "O" 
			},
			{
				"x": -4.2104488164,
				"y": -2.0014079314,
				"z": -0.8169926681,
				"element": "C" 
			},
			{
				"x": -5.0643465836,
				"y": -2.3157828304,
				"z": -0.0226714621,
				"element": "O" 
			},
			{
				"x": -2.7421469353,
				"y": -2.1350050901,
				"z": -0.5271399295,
				"element": "C" 
			},
			{
				"x": -1.766368657,
				"y": -1.3883129765,
				"z": -1.2001803956,
				"element": "C" 
			},
			{
				"x": -0.4262816788,
				"y": -1.5522394674,
				"z": -0.8576127339,
				"element": "C" 
			},
			{
				"x": -0.0307855449,
				"y": -2.4562458898,
				"z": 0.1306125506,
				"element": "C" 
			},
			{
				"x": -1.008193734,
				"y": -3.1867474715,
				"z": 0.8066528954,
				"element": "C" 
			},
			{
				"x": -2.3554589708,
				"y": -3.0186127191,
				"z": 0.4889707338,
				"element": "C" 
			},
			{
				"x": 0.8173700081,
				"y": -0.606186054,
				"z": -1.7440635049,
				"element": "S" 
			},
			{
				"x": 1.9235149275,
				"y": -1.5014257341,
				"z": -2.08504751,
				"element": "O" 
			},
			{
				"x": 0.1046850019,
				"y": 0.1748741714,
				"z": -2.764501006,
				"element": "O" 
			},
			{
				"x": 1.4325189673,
				"y": 0.4240685596,
				"z": -0.5509757688,
				"element": "N" 
			},
			{
				"x": 0.8952649306,
				"y": 1.7773956235,
				"z": -0.4604987237,
				"element": "C" 
			},
			{
				"x": -0.2754165524,
				"y": 2.0010340422,
				"z": 0.5015654342,
				"element": "C" 
			},
			{
				"x": -0.0418141536,
				"y": 3.461196251,
				"z": 0.9165972139,
				"element": "C" 
			},
			{
				"x": 1.3972219647,
				"y": 3.644866488,
				"z": 0.8838968045,
				"element": "O" 
			},
			{
				"x": 1.9795325836,
				"y": 2.6807322234,
				"z": 0.1396827824,
				"element": "C" 
			},
			{
				"x": 3.1693586793,
				"y": 2.5597215516,
				"z": -0.0030685453,
				"element": "O" 
			},
			{
				"x": -3.7864803348,
				"y": -1.4528643258,
				"z": -2.6150402352,
				"element": "H" 
			},
			{
				"x": -2.0155670192,
				"y": -0.662424998,
				"z": -1.9681949118,
				"element": "H" 
			},
			{
				"x": 1.0213075126,
				"y": -2.5822234996,
				"z": 0.3625217995,
				"element": "H" 
			},
			{
				"x": -0.7171049119,
				"y": -3.8882607523,
				"z": 1.5819742195,
				"element": "H" 
			},
			{
				"x": -3.1295180119,
				"y": -3.5677900146,
				"z": 1.0140406255,
				"element": "H" 
			},
			{
				"x": 2.4515849757,
				"y": 0.4388202342,
				"z": -0.638509829,
				"element": "H" 
			},
			{
				"x": 0.6492157537,
				"y": 2.1758288186,
				"z": -1.4562303367,
				"element": "H" 
			},
			{
				"x": -1.2577133761,
				"y": 1.8470910157,
				"z": 0.0502508364,
				"element": "H" 
			},
			{
				"x": -0.1722263314,
				"y": 1.331150409,
				"z": 1.360552886,
				"element": "H" 
			},
			{
				"x": -0.3769150884,
				"y": 3.6961647524,
				"z": 1.9278441173,
				"element": "H" 
			},
			{
				"x": -0.4937234825,
				"y": 4.1714023528,
				"z": 0.2157526892,
				"element": "H" 
			}
		],
		 "valence_orbital": [ 
			{
				"type": "occ",
				"energy": -0.30962,
				"method": "rhf"
			},
			{
				"type": "occ",
				"energy": -0.29853,
				"method": "rhf"
			},
			{
				"type": "occ",
				"energy": -0.29561,
				"method": "rhf"
			},
			{
				"type": "occ",
				"energy": -0.29012,
				"method": "rhf"
			},
			{
				"type": "occ",
				"energy": -0.28175,
				"method": "rhf"
			},
			{
				"type": "unocc",
				"energy": -0.076,
				"method": "rhf"
			},
			{
				"type": "unocc",
				"energy": -0.0583,
				"method": "rhf"
			},
			{
				"type": "unocc",
				"energy": -0.016,
				"method": "rhf"
			},
			{
				"type": "unocc",
				"energy": 0.01938,
				"method": "rhf"
			},
			{
				"type": "unocc",
				"energy": 0.03731,
				"method": "rhf"
			}
		],
		"cosmo_sigma_profile": { 
			"-0.025": 0.0,
			"-0.024": 0.0,
			"-0.023": 0.0,
			"-0.022": 0.0,
			"-0.021": 0.0,
			"-0.02": 0.0828218650008,
			"-0.019": 0.86500235,
			"-0.018": 1.15225936552,
			"-0.017": 0.877935433697,
			"-0.016": 1.46955289634,
			"-0.015": 0.708015474454,
			"-0.014": 0.755131060469,
			"-0.013": 0.813604707663,
			"-0.012": 1.33937483712,
			"-0.011": 1.52634572064,
			"-0.01": 2.93252522582,
			"-0.009": 4.73040306166,
			"-0.008": 9.08673478128,
			"-0.007": 17.0504072105,
			"-0.006": 23.2740202235,
			"-0.005": 20.756520581,
			"-0.004": 17.6296795514,
			"-0.003": 17.3519037761,
			"-0.002": 14.282112692,
			"-0.001": 14.2282074376,
			"0.0": 18.1244290869,
			"0.001": 17.3198746898,
			"0.002": 9.30556586531,
			"0.003": 6.39930081606,
			"0.004": 6.90364116754,
			"0.005": 6.82046407839,
			"0.006": 8.00721271194,
			"0.007": 8.75561416038,
			"0.008": 9.96984094995,
			"0.009": 12.4741301955,
			"0.01": 17.3446299504,
			"0.011": 14.4509407642,
			"0.012": 4.46771494535,
			"0.013": 0.704540550604,
			"0.014": 0.0,
			"0.015": 0.0,
			"0.016": 0.0,
			"0.017": 0.0,
			"0.018": 0.0,
			"0.019": 0.0,
			"0.02": 0.0,
			"0.021": 0.0,
			"0.022": 0.0,
			"0.023": 0.0,
			"0.024": 0.0,
			"0.025": 0.0
		}
	}
}
