{
	 "smiles": "ClCC(=O)NCC1CCSCC1", 
	 "Tm": 357.15, 
	 "num_atms": 26, 
	 "gaussian": { 
		 "optdone": 1, 
		 "sigma_profile": "yes", 
		 "theory": "DFT", 
		 "functional": "B3LYP", 
		 "basiset": "6-31G**", 
		 "properties": { 
			 "R2extent": 4216.3456, 
			 "electric_dipole_moment_norm": 1.32257743441, 
			 "electric_quadrupole_moment_norm": 10.0685477384, 
			 "total_energy": -1301.66901593, 
			 "HOMO_LUMO_gap": 0.22521, 
			 "cosmo_polarized_energy": -13.27, 
			 "cosmo_cavitation_energy": 30.76, 
			 "cosmo_dispersion_energy": -22.72, 
			 "cosmo_repulsion_energy": 1.79, 
			 "cosmo_total_nonelectrostatic_energy": 9.83, 
			 "SMD_solvation_energy": 4.03 
		},
		"coords": [
			{
				"x": 2.4126616532,
				"y": -1.3923727931,
				"z": -3.1704178277,
				"element": "Cl" 
			},
			{
				"x": 0.6471687959,
				"y": -1.8054184252,
				"z": -3.0347054441,
				"element": "C" 
			},
			{
				"x": -0.2015308283,
				"y": -0.9162135258,
				"z": -2.1219992412,
				"element": "C" 
			},
			{
				"x": -1.3911463474,
				"y": -1.1939597865,
				"z": -2.0195130299,
				"element": "O" 
			},
			{
				"x": 0.4002218134,
				"y": 0.119174232,
				"z": -1.4929888854,
				"element": "N" 
			},
			{
				"x": -0.3515379114,
				"y": 1.0156858676,
				"z": -0.6214495823,
				"element": "C" 
			},
			{
				"x": -0.5746443062,
				"y": 0.4706423805,
				"z": 0.8037163463,
				"element": "C" 
			},
			{
				"x": -1.5755315681,
				"y": 1.3944002298,
				"z": 1.5379796818,
				"element": "C" 
			},
			{
				"x": -1.5290807023,
				"y": 1.2496701931,
				"z": 3.0596437463,
				"element": "C" 
			},
			{
				"x": 0.0492775231,
				"y": 1.8946282569,
				"z": 3.7702600728,
				"element": "S" 
			},
			{
				"x": 1.1861409495,
				"y": 1.5250784291,
				"z": 2.3624445849,
				"element": "C" 
			},
			{
				"x": 0.7488856986,
				"y": 0.2810690316,
				"z": 1.5853591796,
				"element": "C" 
			},
			{
				"x": 0.5856289233,
				"y": -2.8310002151,
				"z": -2.670630189,
				"element": "H" 
			},
			{
				"x": 0.2295606207,
				"y": -1.763035362,
				"z": -4.0408309616,
				"element": "H" 
			},
			{
				"x": 1.3878316933,
				"y": 0.2645887654,
				"z": -1.6415428656,
				"element": "H" 
			},
			{
				"x": 0.1835882282,
				"y": 1.9712941128,
				"z": -0.5861492493,
				"element": "H" 
			},
			{
				"x": -1.3237618155,
				"y": 1.1946501998,
				"z": -1.0909789576,
				"element": "H" 
			},
			{
				"x": -1.0406173688,
				"y": -0.5145909873,
				"z": 0.6873823933,
				"element": "H" 
			},
			{
				"x": -2.5897118565,
				"y": 1.1761962464,
				"z": 1.1817567981,
				"element": "H" 
			},
			{
				"x": -1.3774293079,
				"y": 2.4443824615,
				"z": 1.2839674081,
				"element": "H" 
			},
			{
				"x": -2.3231931341,
				"y": 1.8336069096,
				"z": 3.5319869656,
				"element": "H" 
			},
			{
				"x": -1.6642736837,
				"y": 0.2042499778,
				"z": 3.355699712,
				"element": "H" 
			},
			{
				"x": 1.2502546655,
				"y": 2.4007322842,
				"z": 1.7073673149,
				"element": "H" 
			},
			{
				"x": 2.1723215825,
				"y": 1.3787114557,
				"z": 2.8106001267,
				"element": "H" 
			},
			{
				"x": 0.6463413825,
				"y": -0.5495252171,
				"z": 2.2921552388,
				"element": "H" 
			},
			{
				"x": 1.5442753006,
				"y": -0.0146447216,
				"z": 0.8890866643,
				"element": "H" 
			}
		],
		 "valence_orbital": [ 
			{
				"type": "occ",
				"energy": -0.31459,
				"method": "rhf"
			},
			{
				"type": "occ",
				"energy": -0.29399,
				"method": "rhf"
			},
			{
				"type": "occ",
				"energy": -0.26597,
				"method": "rhf"
			},
			{
				"type": "occ",
				"energy": -0.26216,
				"method": "rhf"
			},
			{
				"type": "occ",
				"energy": -0.21604,
				"method": "rhf"
			},
			{
				"type": "unocc",
				"energy": 0.00917,
				"method": "rhf"
			},
			{
				"type": "unocc",
				"energy": 0.01251,
				"method": "rhf"
			},
			{
				"type": "unocc",
				"energy": 0.0394,
				"method": "rhf"
			},
			{
				"type": "unocc",
				"energy": 0.05798,
				"method": "rhf"
			},
			{
				"type": "unocc",
				"energy": 0.07675,
				"method": "rhf"
			}
		],
		"cosmo_sigma_profile": { 
			"-0.025": 0.0,
			"-0.024": 0.0,
			"-0.023": 0.0,
			"-0.022": 0.0,
			"-0.021": 0.0,
			"-0.02": 0.0,
			"-0.019": 0.0,
			"-0.018": 0.0,
			"-0.017": 0.0,
			"-0.016": 0.0,
			"-0.015": 0.0,
			"-0.014": 0.0,
			"-0.013": 0.226873972181,
			"-0.012": 0.751321594396,
			"-0.011": 1.02989455314,
			"-0.01": 1.00892096777,
			"-0.009": 3.45797951847,
			"-0.008": 5.5996833224,
			"-0.007": 5.29201758087,
			"-0.006": 7.28013888528,
			"-0.005": 14.4176332282,
			"-0.004": 19.4423578159,
			"-0.003": 29.0000866668,
			"-0.002": 29.5556732386,
			"-0.001": 24.0673506227,
			"0.0": 16.6687869435,
			"0.001": 10.5101761452,
			"0.002": 9.58569044063,
			"0.003": 7.36180288246,
			"0.004": 9.74501048207,
			"0.005": 10.1680552681,
			"0.006": 8.09112853883,
			"0.007": 5.56372376371,
			"0.008": 3.11630167395,
			"0.009": 4.0812036933,
			"0.01": 3.6250594103,
			"0.011": 3.36304433742,
			"0.012": 3.19734241513,
			"0.013": 4.55839106967,
			"0.014": 3.21545994025,
			"0.015": 0.0763738178769,
			"0.016": 0.0,
			"0.017": 0.0,
			"0.018": 0.0,
			"0.019": 0.0,
			"0.02": 0.0,
			"0.021": 0.0,
			"0.022": 0.0,
			"0.023": 0.0,
			"0.024": 0.0,
			"0.025": 0.0
		}
	}
}
