{
	 "smiles": "CSC1=CC2=C(C(=O)N(N2C)C2=CC=CC=C2)C(=C1)C1=CC=C2C=CC=CC2=C1", 
	 "Tm": 452.15, 
	 "num_atms": 49, 
	 "gaussian": { 
		 "optdone": 1, 
		 "sigma_profile": "yes", 
		 "theory": "DFT", 
		 "functional": "B3LYP", 
		 "basiset": "6-31G**", 
		 "properties": { 
			 "R2extent": 15503.057, 
			 "electric_dipole_moment_norm": 2.94771828369, 
			 "electric_quadrupole_moment_norm": 19.2393898762, 
			 "total_energy": -1547.63446199, 
			 "HOMO_LUMO_gap": 0.14958, 
			 "cosmo_polarized_energy": -17.07, 
			 "cosmo_cavitation_energy": 53.34, 
			 "cosmo_dispersion_energy": -37.86, 
			 "cosmo_repulsion_energy": 2.76, 
			 "cosmo_total_nonelectrostatic_energy": 18.23, 
			 "SMD_solvation_energy": 8.38 
		},
		"coords": [
			{
				"x": 0.262842471,
				"y": 1.8994112343,
				"z": 4.7292481039,
				"element": "C" 
			},
			{
				"x": -1.4106547345,
				"y": 1.5008387777,
				"z": 4.1306658216,
				"element": "S" 
			},
			{
				"x": -1.1306569066,
				"y": 0.6439119845,
				"z": 2.5956598056,
				"element": "C" 
			},
			{
				"x": -2.2787617213,
				"y": 0.2213557075,
				"z": 1.9146046206,
				"element": "C" 
			},
			{
				"x": -2.0994302332,
				"y": -0.433517082,
				"z": 0.6993304671,
				"element": "C" 
			},
			{
				"x": -0.8285029971,
				"y": -0.7018102054,
				"z": 0.1671618811,
				"element": "C" 
			},
			{
				"x": -1.0246397118,
				"y": -1.4871196213,
				"z": -1.0606936665,
				"element": "C" 
			},
			{
				"x": -0.2256181192,
				"y": -1.9252706258,
				"z": -1.8764417264,
				"element": "O" 
			},
			{
				"x": -2.4262475456,
				"y": -1.6380270015,
				"z": -1.1666228957,
				"element": "N" 
			},
			{
				"x": -3.1092300418,
				"y": -0.931795625,
				"z": -0.13616141,
				"element": "N" 
			},
			{
				"x": -4.1645716535,
				"y": -1.7340817548,
				"z": 0.5015249392,
				"element": "C" 
			},
			{
				"x": -3.1121708956,
				"y": -1.889546058,
				"z": -2.3829716525,
				"element": "C" 
			},
			{
				"x": -2.6513352911,
				"y": -2.9041935355,
				"z": -3.2348161363,
				"element": "C" 
			},
			{
				"x": -3.3218887897,
				"y": -3.1509642744,
				"z": -4.4313857443,
				"element": "C" 
			},
			{
				"x": -4.4565140368,
				"y": -2.4159244331,
				"z": -4.7817985342,
				"element": "C" 
			},
			{
				"x": -4.9127739447,
				"y": -1.411982001,
				"z": -3.9266348417,
				"element": "C" 
			},
			{
				"x": -4.2437376102,
				"y": -1.139022344,
				"z": -2.7339080902,
				"element": "C" 
			},
			{
				"x": 0.3323436274,
				"y": -0.2766154336,
				"z": 0.846874816,
				"element": "C" 
			},
			{
				"x": 0.1482781568,
				"y": 0.4004076639,
				"z": 2.0607049898,
				"element": "C" 
			},
			{
				"x": 1.71664976,
				"y": -0.5067871584,
				"z": 0.3560697168,
				"element": "C" 
			},
			{
				"x": 2.0733492871,
				"y": -0.2497424036,
				"z": -0.9997784389,
				"element": "C" 
			},
			{
				"x": 3.3694304552,
				"y": -0.4057259882,
				"z": -1.4265419518,
				"element": "C" 
			},
			{
				"x": 4.3922437969,
				"y": -0.8394152512,
				"z": -0.5404312975,
				"element": "C" 
			},
			{
				"x": 5.7395139337,
				"y": -1.0154443311,
				"z": -0.9535889246,
				"element": "C" 
			},
			{
				"x": 6.6996954556,
				"y": -1.4442212575,
				"z": -0.0640456994,
				"element": "C" 
			},
			{
				"x": 6.3553641392,
				"y": -1.7183828679,
				"z": 1.2828740682,
				"element": "C" 
			},
			{
				"x": 5.0578766253,
				"y": -1.5570634173,
				"z": 1.714110839,
				"element": "C" 
			},
			{
				"x": 4.0442523621,
				"y": -1.1129514722,
				"z": 0.8216190452,
				"element": "C" 
			},
			{
				"x": 2.6996756302,
				"y": -0.9308217483,
				"z": 1.2354074542,
				"element": "C" 
			},
			{
				"x": 0.1129370275,
				"y": 2.4207015536,
				"z": 5.6769748357,
				"element": "H" 
			},
			{
				"x": 0.7893079041,
				"y": 2.5632649305,
				"z": 4.0401519233,
				"element": "H" 
			},
			{
				"x": 0.8505846062,
				"y": 0.9970599157,
				"z": 4.9111731293,
				"element": "H" 
			},
			{
				"x": -3.2669846781,
				"y": 0.4184304764,
				"z": 2.3159012753,
				"element": "H" 
			},
			{
				"x": -4.8861897514,
				"y": -2.0399089928,
				"z": -0.2569041047,
				"element": "H" 
			},
			{
				"x": -3.7575410207,
				"y": -2.6232437287,
				"z": 1.0000831919,
				"element": "H" 
			},
			{
				"x": -4.6796722646,
				"y": -1.107842726,
				"z": 1.2315119516,
				"element": "H" 
			},
			{
				"x": -1.770174805,
				"y": -3.4691921342,
				"z": -2.9621337498,
				"element": "H" 
			},
			{
				"x": -2.9560494562,
				"y": -3.9334052363,
				"z": -5.0900156598,
				"element": "H" 
			},
			{
				"x": -4.9782383925,
				"y": -2.622738954,
				"z": -5.7113401502,
				"element": "H" 
			},
			{
				"x": -5.7886580848,
				"y": -0.825973345,
				"z": -4.1904448819,
				"element": "H" 
			},
			{
				"x": -4.5768662241,
				"y": -0.3392478437,
				"z": -2.0821668288,
				"element": "H" 
			},
			{
				"x": 1.0289551287,
				"y": 0.7617443756,
				"z": 2.5755650123,
				"element": "H" 
			},
			{
				"x": 1.308086172,
				"y": 0.0671593569,
				"z": -1.6967809129,
				"element": "H" 
			},
			{
				"x": 3.6270893904,
				"y": -0.1993648492,
				"z": -2.4620719606,
				"element": "H" 
			},
			{
				"x": 6.0005250469,
				"y": -0.8071042582,
				"z": -1.9880847585,
				"element": "H" 
			},
			{
				"x": 7.7265850091,
				"y": -1.5760288232,
				"z": -0.3927861876,
				"element": "H" 
			},
			{
				"x": 7.1211393922,
				"y": -2.0579837441,
				"z": 1.9743774212,
				"element": "H" 
			},
			{
				"x": 4.7904444698,
				"y": -1.7679591026,
				"z": 2.7466737565,
				"element": "H" 
			},
			{
				"x": 2.4405390628,
				"y": -1.1565663473,
				"z": 2.2665811393,
				"element": "H" 
			}
		],
		 "valence_orbital": [ 
			{
				"type": "occ",
				"energy": -0.24018,
				"method": "rhf"
			},
			{
				"type": "occ",
				"energy": -0.22973,
				"method": "rhf"
			},
			{
				"type": "occ",
				"energy": -0.21951,
				"method": "rhf"
			},
			{
				"type": "occ",
				"energy": -0.21211,
				"method": "rhf"
			},
			{
				"type": "occ",
				"energy": -0.20258,
				"method": "rhf"
			},
			{
				"type": "unocc",
				"energy": -0.053,
				"method": "rhf"
			},
			{
				"type": "unocc",
				"energy": -0.02973,
				"method": "rhf"
			},
			{
				"type": "unocc",
				"energy": -0.01357,
				"method": "rhf"
			},
			{
				"type": "unocc",
				"energy": -0.00021,
				"method": "rhf"
			},
			{
				"type": "unocc",
				"energy": 0.00523,
				"method": "rhf"
			}
		],
		"cosmo_sigma_profile": { 
			"-0.025": 0.0,
			"-0.024": 0.0,
			"-0.023": 0.0,
			"-0.022": 0.0,
			"-0.021": 0.0,
			"-0.02": 0.0,
			"-0.019": 0.0,
			"-0.018": 0.0,
			"-0.017": 0.0,
			"-0.016": 0.0,
			"-0.015": 0.0,
			"-0.014": 0.0,
			"-0.013": 0.0,
			"-0.012": 0.0,
			"-0.011": 0.0,
			"-0.01": 0.0,
			"-0.009": 0.938016613057,
			"-0.008": 2.80626143288,
			"-0.007": 5.10706694408,
			"-0.006": 26.664626178,
			"-0.005": 38.2325324131,
			"-0.004": 38.5480775339,
			"-0.003": 40.9415202009,
			"-0.002": 32.8750166188,
			"-0.001": 24.9179985674,
			"0.0": 22.4549226215,
			"0.001": 27.9610178872,
			"0.002": 32.4579733006,
			"0.003": 35.514913512,
			"0.004": 38.983298852,
			"0.005": 28.0409636525,
			"0.006": 9.70247939503,
			"0.007": 5.11325850069,
			"0.008": 4.56033089642,
			"0.009": 2.48597722025,
			"0.01": 2.20965069924,
			"0.011": 2.01091171776,
			"0.012": 2.71327146916,
			"0.013": 3.7263334789,
			"0.014": 0.654591792625,
			"0.015": 0.0,
			"0.016": 0.0,
			"0.017": 0.0,
			"0.018": 0.0,
			"0.019": 0.0,
			"0.02": 0.0,
			"0.021": 0.0,
			"0.022": 0.0,
			"0.023": 0.0,
			"0.024": 0.0,
			"0.025": 0.0
		}
	}
}
