{
	 "smiles": "CSC1=NC=CC(Cl)=N1", 
	 "Tm": 271.15, 
	 "num_atms": 14, 
	 "gaussian": { 
		 "optdone": 1, 
		 "sigma_profile": "yes", 
		 "theory": "DFT", 
		 "functional": "B3LYP", 
		 "basiset": "6-31G**", 
		 "properties": { 
			 "R2extent": 2092.4974, 
			 "electric_dipole_moment_norm": 1.00567376917, 
			 "electric_quadrupole_moment_norm": 12.4188001816, 
			 "total_energy": -1161.42455808, 
			 "HOMO_LUMO_gap": 0.18473, 
			 "cosmo_polarized_energy": -7.19, 
			 "cosmo_cavitation_energy": 21.93, 
			 "cosmo_dispersion_energy": -16.95, 
			 "cosmo_repulsion_energy": 1.36, 
			 "cosmo_total_nonelectrostatic_energy": 6.33, 
			 "SMD_solvation_energy": 1.31 
		},
		"coords": [
			{
				"x": -1.9907384506,
				"y": 0.3355125393,
				"z": -1.4576241317,
				"element": "C" 
			},
			{
				"x": -1.0956305624,
				"y": 1.2829569979,
				"z": -0.1811160559,
				"element": "S" 
			},
			{
				"x": -0.1187053148,
				"y": 0.0212834558,
				"z": 0.5773418529,
				"element": "C" 
			},
			{
				"x": 0.6599350503,
				"y": 0.4535478538,
				"z": 1.5799171546,
				"element": "N" 
			},
			{
				"x": 1.410238404,
				"y": -0.4758009115,
				"z": 2.1735014448,
				"element": "C" 
			},
			{
				"x": 1.4054133988,
				"y": -1.8196911356,
				"z": 1.7960323708,
				"element": "C" 
			},
			{
				"x": 0.5502775419,
				"y": -2.1286429576,
				"z": 0.7407443594,
				"element": "C" 
			},
			{
				"x": 0.4506096536,
				"y": -3.78546474,
				"z": 0.1689779101,
				"element": "Cl" 
			},
			{
				"x": -0.2093031759,
				"y": -1.239329272,
				"z": 0.1255933916,
				"element": "N" 
			},
			{
				"x": -2.6224543928,
				"y": 1.0622843002,
				"z": -1.9728624212,
				"element": "H" 
			},
			{
				"x": -2.6088244722,
				"y": -0.4394779934,
				"z": -1.0036614804,
				"element": "H" 
			},
			{
				"x": -1.2946520404,
				"y": -0.1191019832,
				"z": -2.1629666572,
				"element": "H" 
			},
			{
				"x": 2.0462910028,
				"y": -0.1360440662,
				"z": 2.9888002766,
				"element": "H" 
			},
			{
				"x": 2.0180433578,
				"y": -2.5658320877,
				"z": 2.2842219857,
				"element": "H" 
			}
		],
		 "valence_orbital": [ 
			{
				"type": "occ",
				"energy": -0.3252,
				"method": "rhf"
			},
			{
				"type": "occ",
				"energy": -0.31991,
				"method": "rhf"
			},
			{
				"type": "occ",
				"energy": -0.29856,
				"method": "rhf"
			},
			{
				"type": "occ",
				"energy": -0.27259,
				"method": "rhf"
			},
			{
				"type": "occ",
				"energy": -0.23751,
				"method": "rhf"
			},
			{
				"type": "unocc",
				"energy": -0.05278,
				"method": "rhf"
			},
			{
				"type": "unocc",
				"energy": -0.03955,
				"method": "rhf"
			},
			{
				"type": "unocc",
				"energy": 0.01548,
				"method": "rhf"
			},
			{
				"type": "unocc",
				"energy": 0.03841,
				"method": "rhf"
			},
			{
				"type": "unocc",
				"energy": 0.08596,
				"method": "rhf"
			}
		],
		"cosmo_sigma_profile": { 
			"-0.025": 0.0,
			"-0.024": 0.0,
			"-0.023": 0.0,
			"-0.022": 0.0,
			"-0.021": 0.0,
			"-0.02": 0.0,
			"-0.019": 0.0,
			"-0.018": 0.0,
			"-0.017": 0.0,
			"-0.016": 0.0,
			"-0.015": 0.0,
			"-0.014": 0.0,
			"-0.013": 0.0,
			"-0.012": 0.0,
			"-0.011": 0.0,
			"-0.01": 0.0771979553673,
			"-0.009": 2.83488703918,
			"-0.008": 5.52957839229,
			"-0.007": 5.95969676702,
			"-0.006": 7.60056635055,
			"-0.005": 7.71135327517,
			"-0.004": 8.96354433986,
			"-0.003": 13.3999311568,
			"-0.002": 20.310658487,
			"-0.001": 19.050884875,
			"0.0": 12.3047381369,
			"0.001": 9.01772850477,
			"0.002": 11.0695901504,
			"0.003": 14.6057612652,
			"0.004": 13.0178928322,
			"0.005": 8.66833363032,
			"0.006": 7.3962907252,
			"0.007": 4.81539362671,
			"0.008": 2.08200024109,
			"0.009": 1.85545476353,
			"0.01": 1.47095719768,
			"0.011": 0.952582210486,
			"0.012": 0.873394889784,
			"0.013": 0.682787771918,
			"0.014": 0.359253239665,
			"0.015": 0.0,
			"0.016": 0.0,
			"0.017": 0.0,
			"0.018": 0.0,
			"0.019": 0.0,
			"0.02": 0.0,
			"0.021": 0.0,
			"0.022": 0.0,
			"0.023": 0.0,
			"0.024": 0.0,
			"0.025": 0.0
		}
	}
}
