{
	 "smiles": "CCC(CC)(CC1=NC2=C(S1)C=CC=C2)C(O)=O", 
	 "Tm": 417.15, 
	 "num_atms": 35, 
	 "gaussian": { 
		 "optdone": 1, 
		 "sigma_profile": "yes", 
		 "theory": "DFT", 
		 "functional": "B3LYP", 
		 "basiset": "6-31G**", 
		 "properties": { 
			 "R2extent": 6015.0176, 
			 "electric_dipole_moment_norm": 3.45836303907, 
			 "electric_quadrupole_moment_norm": 18.0060986477, 
			 "total_energy": -1147.15002105, 
			 "HOMO_LUMO_gap": 0.19793, 
			 "cosmo_polarized_energy": -15.84, 
			 "cosmo_cavitation_energy": 37.36, 
			 "cosmo_dispersion_energy": -26.68, 
			 "cosmo_repulsion_energy": 2.0, 
			 "cosmo_total_nonelectrostatic_energy": 12.68, 
			 "SMD_solvation_energy": 4.96 
		},
		"coords": [
			{
				"x": -0.2465544694,
				"y": 1.8543539061,
				"z": -1.0973096253,
				"element": "C" 
			},
			{
				"x": -1.2324648726,
				"y": 0.7596354744,
				"z": -1.5357606628,
				"element": "C" 
			},
			{
				"x": -0.6497360226,
				"y": -0.531402031,
				"z": -2.1842843512,
				"element": "C" 
			},
			{
				"x": -1.7708741771,
				"y": -1.2656484328,
				"z": -3.0012650782,
				"element": "C" 
			},
			{
				"x": -3.0539748248,
				"y": -1.6190778361,
				"z": -2.2390091325,
				"element": "C" 
			},
			{
				"x": -0.0857628671,
				"y": -1.5420341657,
				"z": -1.1436316569,
				"element": "C" 
			},
			{
				"x": 0.8860682173,
				"y": -1.044696239,
				"z": -0.1098136333,
				"element": "C" 
			},
			{
				"x": 0.5329341406,
				"y": -0.810576746,
				"z": 1.1172907706,
				"element": "N" 
			},
			{
				"x": 1.6113248845,
				"y": -0.4024763803,
				"z": 1.8880252624,
				"element": "C" 
			},
			{
				"x": 2.849184131,
				"y": -0.3348577265,
				"z": 1.203633712,
				"element": "C" 
			},
			{
				"x": 2.6125054624,
				"y": -0.7973989252,
				"z": -0.4683940028,
				"element": "S" 
			},
			{
				"x": 4.0195781496,
				"y": 0.0594092054,
				"z": 1.8592873176,
				"element": "C" 
			},
			{
				"x": 3.9380841542,
				"y": 0.3850130945,
				"z": 3.2104537608,
				"element": "C" 
			},
			{
				"x": 2.7136028407,
				"y": 0.3215155383,
				"z": 3.8997545641,
				"element": "C" 
			},
			{
				"x": 1.5497420739,
				"y": -0.0696511088,
				"z": 3.2497245989,
				"element": "C" 
			},
			{
				"x": 0.4488446946,
				"y": -0.2177533357,
				"z": -3.2187526505,
				"element": "C" 
			},
			{
				"x": 0.1828737526,
				"y": 0.7818269217,
				"z": -4.1012468829,
				"element": "O" 
			},
			{
				"x": 1.4801603916,
				"y": -0.837962549,
				"z": -3.325668006,
				"element": "O" 
			},
			{
				"x": 0.407944729,
				"y": 1.5165443136,
				"z": -0.2934576479,
				"element": "H" 
			},
			{
				"x": -0.8043671189,
				"y": 2.7190802206,
				"z": -0.7235506973,
				"element": "H" 
			},
			{
				"x": 0.3830481787,
				"y": 2.1992072364,
				"z": -1.9231219425,
				"element": "H" 
			},
			{
				"x": -1.95951795,
				"y": 1.2017521627,
				"z": -2.2352416603,
				"element": "H" 
			},
			{
				"x": -1.8264207016,
				"y": 0.452814361,
				"z": -0.6687093009,
				"element": "H" 
			},
			{
				"x": -2.0397993998,
				"y": -0.6365334479,
				"z": -3.8592368342,
				"element": "H" 
			},
			{
				"x": -1.3365091547,
				"y": -2.1790864195,
				"z": -3.4251957951,
				"element": "H" 
			},
			{
				"x": -3.7508252205,
				"y": -2.1273134515,
				"z": -2.9128320379,
				"element": "H" 
			},
			{
				"x": -2.8681409328,
				"y": -2.2928731374,
				"z": -1.3978158854,
				"element": "H" 
			},
			{
				"x": -3.5618757475,
				"y": -0.7309723962,
				"z": -1.8521239877,
				"element": "H" 
			},
			{
				"x": 0.371774799,
				"y": -2.3644143403,
				"z": -1.7004112587,
				"element": "H" 
			},
			{
				"x": -0.9241076282,
				"y": -1.9431592472,
				"z": -0.5701980671,
				"element": "H" 
			},
			{
				"x": 4.9671597509,
				"y": 0.1103696566,
				"z": 1.332366228,
				"element": "H" 
			},
			{
				"x": 4.8354779153,
				"y": 0.6925253339,
				"z": 3.7392131924,
				"element": "H" 
			},
			{
				"x": 2.6800662325,
				"y": 0.5814870451,
				"z": 4.9535566465,
				"element": "H" 
			},
			{
				"x": 0.5975649761,
				"y": -0.1248006955,
				"z": 3.7673431782,
				"element": "H" 
			},
			{
				"x": -0.662208387,
				"y": 1.2028541416,
				"z": -3.8885184342,
				"element": "H" 
			}
		],
		 "valence_orbital": [ 
			{
				"type": "occ",
				"energy": -0.29591,
				"method": "rhf"
			},
			{
				"type": "occ",
				"energy": -0.27291,
				"method": "rhf"
			},
			{
				"type": "occ",
				"energy": -0.2702,
				"method": "rhf"
			},
			{
				"type": "occ",
				"energy": -0.23295,
				"method": "rhf"
			},
			{
				"type": "occ",
				"energy": -0.22971,
				"method": "rhf"
			},
			{
				"type": "unocc",
				"energy": -0.03178,
				"method": "rhf"
			},
			{
				"type": "unocc",
				"energy": -0.00169,
				"method": "rhf"
			},
			{
				"type": "unocc",
				"energy": 0.00135,
				"method": "rhf"
			},
			{
				"type": "unocc",
				"energy": 0.0264,
				"method": "rhf"
			},
			{
				"type": "unocc",
				"energy": 0.03667,
				"method": "rhf"
			}
		],
		"cosmo_sigma_profile": { 
			"-0.025": 0.0,
			"-0.024": 0.0,
			"-0.023": 0.0,
			"-0.022": 0.0,
			"-0.021": 0.0,
			"-0.02": 0.0,
			"-0.019": 0.0,
			"-0.018": 0.19664512822,
			"-0.017": 0.582295923333,
			"-0.016": 1.16607735946,
			"-0.015": 0.953387985222,
			"-0.014": 1.11960661796,
			"-0.013": 0.431473645492,
			"-0.012": 1.18805946193,
			"-0.011": 1.14617379697,
			"-0.01": 1.06799348514,
			"-0.009": 0.989203351602,
			"-0.008": 1.0411862172,
			"-0.007": 3.98723954797,
			"-0.006": 10.3719497371,
			"-0.005": 15.7869663638,
			"-0.004": 23.8853262462,
			"-0.003": 30.7978988204,
			"-0.002": 28.8031823049,
			"-0.001": 27.1667371416,
			"0.0": 24.3696599941,
			"0.001": 22.6244743291,
			"0.002": 16.3809002774,
			"0.003": 18.2408159308,
			"0.004": 17.6314282587,
			"0.005": 12.6629240497,
			"0.006": 4.22517236062,
			"0.007": 3.98074751296,
			"0.008": 5.0433203733,
			"0.009": 3.76806041052,
			"0.01": 5.3789839181,
			"0.011": 5.22796910449,
			"0.012": 3.5545133229,
			"0.013": 1.54498968077,
			"0.014": 0.758790780163,
			"0.015": 0.315893236948,
			"0.016": 0.0138967608149,
			"0.017": 0.0,
			"0.018": 0.0,
			"0.019": 0.0,
			"0.02": 0.0,
			"0.021": 0.0,
			"0.022": 0.0,
			"0.023": 0.0,
			"0.024": 0.0,
			"0.025": 0.0
		}
	}
}
