{
	 "smiles": "OCCN(CCN(CC(O)=O)CC(O)=O)CC(O)=O", 
	 "Tm": 486.15, 
	 "num_atms": 37, 
	 "gaussian": { 
		 "optdone": 1, 
		 "sigma_profile": "yes", 
		 "theory": "DFT", 
		 "functional": "B3LYP", 
		 "basiset": "6-31G**", 
		 "properties": { 
			 "R2extent": 7458.187, 
			 "electric_dipole_moment_norm": 3.84267419904, 
			 "electric_quadrupole_moment_norm": 42.7590908961, 
			 "total_energy": -1027.96878136, 
			 "HOMO_LUMO_gap": 0.20379, 
			 "cosmo_polarized_energy": -36.58, 
			 "cosmo_cavitation_energy": 40.52, 
			 "cosmo_dispersion_energy": -26.99, 
			 "cosmo_repulsion_energy": 2.17, 
			 "cosmo_total_nonelectrostatic_energy": 15.69, 
			 "SMD_solvation_energy": 9.25 
		},
		"coords": [
			{
				"x": 1.2571097349,
				"y": 3.6259093041,
				"z": 0.3187333644,
				"element": "O" 
			},
			{
				"x": -0.1234516693,
				"y": 3.6436547659,
				"z": -0.0534185084,
				"element": "C" 
			},
			{
				"x": -0.8772766905,
				"y": 2.7857761979,
				"z": 0.9646727263,
				"element": "C" 
			},
			{
				"x": -0.3912409164,
				"y": 1.4199569814,
				"z": 0.9923170016,
				"element": "N" 
			},
			{
				"x": -0.934986444,
				"y": 0.4838660011,
				"z": 0.0207230428,
				"element": "C" 
			},
			{
				"x": -2.2773638817,
				"y": -0.1435454357,
				"z": 0.4521738012,
				"element": "C" 
			},
			{
				"x": -2.8875335457,
				"y": -0.9630148814,
				"z": -0.5949585172,
				"element": "N" 
			},
			{
				"x": -4.3152447164,
				"y": -1.1474571847,
				"z": -0.4725676947,
				"element": "C" 
			},
			{
				"x": -4.8586876357,
				"y": -1.9639018003,
				"z": 0.7084019899,
				"element": "C" 
			},
			{
				"x": -3.9137144251,
				"y": -2.7390615339,
				"z": 1.2970579178,
				"element": "O" 
			},
			{
				"x": -6.0124729052,
				"y": -1.9467643571,
				"z": 1.0699831518,
				"element": "O" 
			},
			{
				"x": -2.1265141553,
				"y": -2.1168110161,
				"z": -1.0202116091,
				"element": "C" 
			},
			{
				"x": -1.2623678427,
				"y": -1.8633204063,
				"z": -2.2677288904,
				"element": "C" 
			},
			{
				"x": -0.4967216235,
				"y": -2.9270301012,
				"z": -2.6330807677,
				"element": "O" 
			},
			{
				"x": -1.2409581912,
				"y": -0.8477798242,
				"z": -2.9113943607,
				"element": "O" 
			},
			{
				"x": 0.2316568815,
				"y": 0.8659292941,
				"z": 2.1753755914,
				"element": "C" 
			},
			{
				"x": 1.693941426,
				"y": 0.4213051161,
				"z": 1.9621150973,
				"element": "C" 
			},
			{
				"x": 2.4023653498,
				"y": 1.1591177329,
				"z": 1.0975318613,
				"element": "O" 
			},
			{
				"x": 2.1721475856,
				"y": -0.5174505883,
				"z": 2.5581122388,
				"element": "O" 
			},
			{
				"x": 1.7800545374,
				"y": 4.0404057687,
				"z": -0.3786907424,
				"element": "H" 
			},
			{
				"x": -0.5182786383,
				"y": 4.6701059808,
				"z": -0.0405766926,
				"element": "H" 
			},
			{
				"x": -0.2607838818,
				"y": 3.23676755,
				"z": -1.0650621688,
				"element": "H" 
			},
			{
				"x": -0.7449092549,
				"y": 3.2338337288,
				"z": 1.9552592281,
				"element": "H" 
			},
			{
				"x": -1.9530757711,
				"y": 2.842011643,
				"z": 0.7328893198,
				"element": "H" 
			},
			{
				"x": -1.078187652,
				"y": 0.9828802462,
				"z": -0.942029208,
				"element": "H" 
			},
			{
				"x": -0.1878768011,
				"y": -0.2989272886,
				"z": -0.1586202816,
				"element": "H" 
			},
			{
				"x": -2.9775194615,
				"y": 0.6695229882,
				"z": 0.6769504567,
				"element": "H" 
			},
			{
				"x": -2.1390628928,
				"y": -0.7137055707,
				"z": 1.3872937055,
				"element": "H" 
			},
			{
				"x": -4.8136790522,
				"y": -0.1741247854,
				"z": -0.4163139581,
				"element": "H" 
			},
			{
				"x": -4.7038080318,
				"y": -1.6255509076,
				"z": -1.3806594615,
				"element": "H" 
			},
			{
				"x": -4.3640862692,
				"y": -3.2152819286,
				"z": 2.0158432537,
				"element": "H" 
			},
			{
				"x": -1.47805098,
				"y": -2.5092189162,
				"z": -0.2181119255,
				"element": "H" 
			},
			{
				"x": -2.8034265001,
				"y": -2.9432715901,
				"z": -1.2700897403,
				"element": "H" 
			},
			{
				"x": -0.5960697258,
				"y": -3.6530412748,
				"z": -1.999305413,
				"element": "H" 
			},
			{
				"x": -0.2962266974,
				"y": -0.0060497363,
				"z": 2.5814004356,
				"element": "H" 
			},
			{
				"x": 0.2426833091,
				"y": 1.6213578015,
				"z": 2.9700526911,
				"element": "H" 
			},
			{
				"x": 1.8557174285,
				"y": 1.9025080266,
				"z": 0.7543330647,
				"element": "H" 
			}
		],
		 "valence_orbital": [ 
			{
				"type": "occ",
				"energy": -0.28847,
				"method": "rhf"
			},
			{
				"type": "occ",
				"energy": -0.27747,
				"method": "rhf"
			},
			{
				"type": "occ",
				"energy": -0.25853,
				"method": "rhf"
			},
			{
				"type": "occ",
				"energy": -0.23261,
				"method": "rhf"
			},
			{
				"type": "occ",
				"energy": -0.21,
				"method": "rhf"
			},
			{
				"type": "unocc",
				"energy": -0.00621,
				"method": "rhf"
			},
			{
				"type": "unocc",
				"energy": 0.00453,
				"method": "rhf"
			},
			{
				"type": "unocc",
				"energy": 0.02522,
				"method": "rhf"
			},
			{
				"type": "unocc",
				"energy": 0.04457,
				"method": "rhf"
			},
			{
				"type": "unocc",
				"energy": 0.05072,
				"method": "rhf"
			}
		],
		"cosmo_sigma_profile": { 
			"-0.025": 0.0,
			"-0.024": 0.0,
			"-0.023": 0.0,
			"-0.022": 0.0,
			"-0.021": 0.0,
			"-0.02": 0.0349776676516,
			"-0.019": 0.848898573231,
			"-0.018": 2.01106163089,
			"-0.017": 2.38772371663,
			"-0.016": 3.59030880744,
			"-0.015": 3.13766555968,
			"-0.014": 2.10117504448,
			"-0.013": 2.36607057588,
			"-0.012": 2.94308143249,
			"-0.011": 3.06553426866,
			"-0.01": 3.23238879438,
			"-0.009": 5.62559733621,
			"-0.008": 7.46805001154,
			"-0.007": 12.9150175291,
			"-0.006": 14.1258699455,
			"-0.005": 21.3578333997,
			"-0.004": 29.6823130084,
			"-0.003": 24.1157498104,
			"-0.002": 19.4887196424,
			"-0.001": 15.1722303871,
			"0.0": 11.8610627449,
			"0.001": 11.1008733708,
			"0.002": 6.92675112051,
			"0.003": 8.9583868541,
			"0.004": 9.01907191637,
			"0.005": 7.35912580336,
			"0.006": 7.96013943795,
			"0.007": 7.15691543664,
			"0.008": 6.60387844339,
			"0.009": 8.94805253321,
			"0.01": 10.1321930195,
			"0.011": 13.9382382318,
			"0.012": 17.0450663809,
			"0.013": 9.17935409896,
			"0.014": 3.0244888676,
			"0.015": 0.532967057822,
			"0.016": 0.434457997081,
			"0.017": 0.0687322764955,
			"0.018": 0.0,
			"0.019": 0.0,
			"0.02": 0.0,
			"0.021": 0.0,
			"0.022": 0.0,
			"0.023": 0.0,
			"0.024": 0.0,
			"0.025": 0.0
		}
	}
}
