{
	 "smiles": "ClC1=CC(I)=C(Cl)N=C1", 
	 "Tm": 325.15, 
	 "num_atms": 11, 
	 "gaussian": { 
		 "optdone": 1, 
		 "sigma_profile": "no", 
		 "theory": "DFT", 
		 "functional": "B3LYP", 
		 "basiset": "6-31G**", 
		 "properties": { 
			 "R2extent": 2649.2794, 
			 "electric_dipole_moment_norm": 1.74488289005, 
			 "electric_quadrupole_moment_norm": 4.91075028687, 
			 "total_energy": -1178.2443772, 
			 "HOMO_LUMO_gap": 0.1978, 
			 "cosmo_polarized_energy": -89113.5, 
			 "cosmo_cavitation_energy": 22.5, 
			 "cosmo_dispersion_energy": -18.44, 
			 "cosmo_repulsion_energy": 1.47, 
			 "cosmo_total_nonelectrostatic_energy": 5.53, 
			 "SMD_solvation_energy": 1.22 
		},
		"coords": [
			{
				"x": 1.6118798275,
				"y": -3.5539154013,
				"z": 1.7154984504,
				"element": "Cl" 
			},
			{
				"x": 0.8758659154,
				"y": -2.3979051754,
				"z": 0.6329611446,
				"element": "C" 
			},
			{
				"x": 0.9154276669,
				"y": -2.5972819535,
				"z": -0.7458307969,
				"element": "C" 
			},
			{
				"x": 0.3159921061,
				"y": -1.65115179,
				"z": -1.5788610691,
				"element": "C" 
			},
			{
				"x": 0.3790670708,
				"y": -1.9576428945,
				"z": -3.6626922209,
				"element": "I" 
			},
			{
				"x": -0.2994197623,
				"y": -0.5403686988,
				"z": -0.972791168,
				"element": "C" 
			},
			{
				"x": -1.0782914508,
				"y": 0.7010103546,
				"z": -1.9266278382,
				"element": "Cl" 
			},
			{
				"x": -0.3292304185,
				"y": -0.3641611393,
				"z": 0.3377786057,
				"element": "N" 
			},
			{
				"x": 0.2415859629,
				"y": -1.2642192614,
				"z": 1.1393348073,
				"element": "C" 
			},
			{
				"x": 1.403322813,
				"y": -3.4716042542,
				"z": -1.1593579427,
				"element": "H" 
			},
			{
				"x": 0.193400269,
				"y": -1.0795597861,
				"z": 2.2086880279,
				"element": "H" 
			}
		],
		 "valence_orbital": [ 
			{
				"type": "occ",
				"energy": -0.33308,
				"method": "rhf"
			},
			{
				"type": "occ",
				"energy": -0.29737,
				"method": "rhf"
			},
			{
				"type": "occ",
				"energy": -0.28365,
				"method": "rhf"
			},
			{
				"type": "occ",
				"energy": -0.27904,
				"method": "rhf"
			},
			{
				"type": "occ",
				"energy": -0.26099,
				"method": "rhf"
			},
			{
				"type": "unocc",
				"energy": -0.06319,
				"method": "rhf"
			},
			{
				"type": "unocc",
				"energy": -0.06197,
				"method": "rhf"
			},
			{
				"type": "unocc",
				"energy": -0.04974,
				"method": "rhf"
			},
			{
				"type": "unocc",
				"energy": 0.01344,
				"method": "rhf"
			},
			{
				"type": "unocc",
				"energy": 0.02208,
				"method": "rhf"
			}
		],
		"cosmo_sigma_profile": { 
			"0.0": 0.0,
			"0.0": 0.0,
			"0.0": 0.0,
			"0.0": 0.0,
			"0.0": 0.0,
			"0.0": 0.0,
			"0.0": 0.0,
			"0.0": 0.0,
			"0.0": 0.0,
			"0.0": 0.0,
			"0.0": 0.0,
			"0.0": 0.0,
			"0.0": 0.0,
			"0.0": 0.0,
			"0.0": 0.0,
			"0.0": 0.0,
			"0.0": 0.0,
			"0.0": 0.0,
			"0.0": 0.0,
			"0.0": 0.0,
			"0.0": 0.0,
			"0.0": 0.0,
			"0.0": 0.0,
			"0.0": 0.0,
			"0.0": 0.0,
			"0.0": 0.0,
			"0.0": 0.0,
			"0.0": 0.0,
			"0.0": 0.0,
			"0.0": 0.0,
			"0.0": 0.0,
			"0.0": 0.0,
			"0.0": 0.0,
			"0.0": 0.0,
			"0.0": 0.0,
			"0.0": 0.0,
			"0.0": 0.0,
			"0.0": 0.0,
			"0.0": 0.0,
			"0.0": 0.0,
			"0.0": 0.0,
			"0.0": 0.0,
			"0.0": 0.0,
			"0.0": 0.0,
			"0.0": 0.0,
			"0.0": 0.0,
			"0.0": 0.0,
			"0.0": 0.0,
			"0.0": 0.0,
			"0.0": 0.0,
			"0.0": 0.0
		}
	}
}
