{
	 "smiles": "OC(=O)CC1=COC2=C1C1=C(C=CC=C1)C=C2", 
	 "Tm": 440.15, 
	 "num_atms": 27, 
	 "gaussian": { 
		 "optdone": 1, 
		 "sigma_profile": "yes", 
		 "theory": "DFT", 
		 "functional": "B3LYP", 
		 "basiset": "6-31G**", 
		 "properties": { 
			 "R2extent": 3833.4571, 
			 "electric_dipole_moment_norm": 3.75226350221, 
			 "electric_quadrupole_moment_norm": 19.0396257471, 
			 "total_energy": -765.199355674, 
			 "HOMO_LUMO_gap": 0.16881, 
			 "cosmo_polarized_energy": -15.12, 
			 "cosmo_cavitation_energy": 30.95, 
			 "cosmo_dispersion_energy": -22.41, 
			 "cosmo_repulsion_energy": 1.69, 
			 "cosmo_total_nonelectrostatic_energy": 10.24, 
			 "SMD_solvation_energy": 6.56 
		},
		"coords": [
			{
				"x": -0.7534171576,
				"y": 3.0317266208,
				"z": 0.3464625125,
				"element": "O" 
			},
			{
				"x": -0.9767277258,
				"y": 2.1521922635,
				"z": 1.3483710934,
				"element": "C" 
			},
			{
				"x": -0.625216823,
				"y": 2.3873767008,
				"z": 2.4779018824,
				"element": "O" 
			},
			{
				"x": -1.7446239038,
				"y": 0.882293602,
				"z": 0.9542762493,
				"element": "C" 
			},
			{
				"x": -1.4231709592,
				"y": 0.3391631363,
				"z": -0.4081241021,
				"element": "C" 
			},
			{
				"x": -2.2579332701,
				"y": 0.3785427904,
				"z": -1.4879090027,
				"element": "C" 
			},
			{
				"x": -1.7094959788,
				"y": -0.2116737133,
				"z": -2.5893310193,
				"element": "O" 
			},
			{
				"x": -0.4717525861,
				"y": -0.6504002728,
				"z": -2.2068659721,
				"element": "C" 
			},
			{
				"x": -0.2236601915,
				"y": -0.3370992555,
				"z": -0.8717132089,
				"element": "C" 
			},
			{
				"x": 1.031108094,
				"y": -0.7128510081,
				"z": -0.2885468096,
				"element": "C" 
			},
			{
				"x": 1.9535937562,
				"y": -1.4201298725,
				"z": -1.1345676343,
				"element": "C" 
			},
			{
				"x": 3.2041085309,
				"y": -1.8209015283,
				"z": -0.5979643233,
				"element": "C" 
			},
			{
				"x": 3.5435648685,
				"y": -1.5382106678,
				"z": 0.7075736059,
				"element": "C" 
			},
			{
				"x": 2.6410835279,
				"y": -0.8326921589,
				"z": 1.5319409381,
				"element": "C" 
			},
			{
				"x": 1.413094813,
				"y": -0.4286996339,
				"z": 1.0470278404,
				"element": "C" 
			},
			{
				"x": 1.6209494377,
				"y": -1.7101440506,
				"z": -2.4960139049,
				"element": "C" 
			},
			{
				"x": 0.4223188872,
				"y": -1.3320642978,
				"z": -3.0506551956,
				"element": "C" 
			},
			{
				"x": -1.0377385112,
				"y": 2.6346405389,
				"z": -0.4936947821,
				"element": "H" 
			},
			{
				"x": -1.5687455398,
				"y": 0.1449756465,
				"z": 1.7408138579,
				"element": "H" 
			},
			{
				"x": -2.8110535114,
				"y": 1.1392088435,
				"z": 0.9995123641,
				"element": "H" 
			},
			{
				"x": -3.262179222,
				"y": 0.7580116045,
				"z": -1.6100928772,
				"element": "H" 
			},
			{
				"x": 3.8970360638,
				"y": -2.3572084663,
				"z": -1.2412795317,
				"element": "H" 
			},
			{
				"x": 4.5058064102,
				"y": -1.8509185254,
				"z": 1.1019553232,
				"element": "H" 
			},
			{
				"x": 2.9152758539,
				"y": -0.599404372,
				"z": 2.5564359627,
				"element": "H" 
			},
			{
				"x": 0.7496737994,
				"y": 0.1284326954,
				"z": 1.6983090976,
				"element": "H" 
			},
			{
				"x": 2.3501098224,
				"y": -2.2446957618,
				"z": -3.0981777881,
				"element": "H" 
			},
			{
				"x": 0.1627915152,
				"y": -1.5448708578,
				"z": -4.0816445761,
				"element": "H" 
			}
		],
		 "valence_orbital": [ 
			{
				"type": "occ",
				"energy": -0.31089,
				"method": "rhf"
			},
			{
				"type": "occ",
				"energy": -0.27889,
				"method": "rhf"
			},
			{
				"type": "occ",
				"energy": -0.26195,
				"method": "rhf"
			},
			{
				"type": "occ",
				"energy": -0.24135,
				"method": "rhf"
			},
			{
				"type": "occ",
				"energy": -0.21593,
				"method": "rhf"
			},
			{
				"type": "unocc",
				"energy": -0.04712,
				"method": "rhf"
			},
			{
				"type": "unocc",
				"energy": -0.0168,
				"method": "rhf"
			},
			{
				"type": "unocc",
				"energy": -0.00186,
				"method": "rhf"
			},
			{
				"type": "unocc",
				"energy": 0.0152,
				"method": "rhf"
			},
			{
				"type": "unocc",
				"energy": 0.04215,
				"method": "rhf"
			}
		],
		"cosmo_sigma_profile": { 
			"-0.025": 0.0,
			"-0.024": 0.0,
			"-0.023": 0.0,
			"-0.022": 0.0,
			"-0.021": 0.0,
			"-0.02": 0.0,
			"-0.019": 0.0,
			"-0.018": 0.0,
			"-0.017": 0.0,
			"-0.016": 0.0,
			"-0.015": 0.454172788031,
			"-0.014": 0.678624380564,
			"-0.013": 0.802665891051,
			"-0.012": 1.59850489338,
			"-0.011": 1.68674476769,
			"-0.01": 2.43948067583,
			"-0.009": 5.96080964787,
			"-0.008": 6.51010834084,
			"-0.007": 7.15405427644,
			"-0.006": 14.6813880801,
			"-0.005": 16.7802153683,
			"-0.004": 16.1805786031,
			"-0.003": 14.7937937533,
			"-0.002": 11.7691673498,
			"-0.001": 12.628308934,
			"0.0": 13.8812820657,
			"0.001": 17.5452369458,
			"0.002": 17.403044915,
			"0.003": 21.2673635745,
			"0.004": 19.5236946805,
			"0.005": 13.1719833476,
			"0.006": 5.03551455082,
			"0.007": 3.40538201715,
			"0.008": 3.25906988154,
			"0.009": 3.95828600903,
			"0.01": 4.63829155706,
			"0.011": 4.76416561519,
			"0.012": 4.98361132862,
			"0.013": 1.78881146929,
			"0.014": 0.0194325530092,
			"0.015": 0.0,
			"0.016": 0.0,
			"0.017": 0.0,
			"0.018": 0.0,
			"0.019": 0.0,
			"0.02": 0.0,
			"0.021": 0.0,
			"0.022": 0.0,
			"0.023": 0.0,
			"0.024": 0.0,
			"0.025": 0.0
		}
	}
}
