{
	 "smiles": "[O-][N+](=O)C1=CC(=CC(=C1)C(=O)NCC1=CC=C(Cl)C=C1)[N+]([O-])=O", 
	 "Tm": 474.15, 
	 "num_atms": 33, 
	 "gaussian": { 
		 "optdone": 1, 
		 "sigma_profile": "yes", 
		 "theory": "DFT", 
		 "functional": "B3LYP", 
		 "basiset": "6-31G**", 
		 "properties": { 
			 "R2extent": 11599.6009, 
			 "electric_dipole_moment_norm": 4.71163678036, 
			 "electric_quadrupole_moment_norm": 27.9156668315, 
			 "total_energy": -1539.88836156, 
			 "HOMO_LUMO_gap": 0.13842, 
			 "cosmo_polarized_energy": -21.29, 
			 "cosmo_cavitation_energy": 42.21, 
			 "cosmo_dispersion_energy": -28.92, 
			 "cosmo_repulsion_energy": 2.21, 
			 "cosmo_total_nonelectrostatic_energy": 15.51, 
			 "SMD_solvation_energy": 11.97 
		},
		"coords": [
			{
				"x": 4.1764322032,
				"y": 0.4248892987,
				"z": 2.2649711754,
				"element": "O" 
			},
			{
				"x": 3.8679497829,
				"y": 0.5693122523,
				"z": 1.0854976882,
				"element": "N" 
			},
			{
				"x": 4.6386615494,
				"y": 0.8739130582,
				"z": 0.1790449755,
				"element": "O" 
			},
			{
				"x": 2.4490131254,
				"y": 0.3629338776,
				"z": 0.7257987985,
				"element": "C" 
			},
			{
				"x": 2.0686204365,
				"y": 0.5384723228,
				"z": -0.6008656776,
				"element": "C" 
			},
			{
				"x": 0.7290121749,
				"y": 0.3316125483,
				"z": -0.9026516023,
				"element": "C" 
			},
			{
				"x": -0.2142823779,
				"y": -0.0198553327,
				"z": 0.062675542,
				"element": "C" 
			},
			{
				"x": 0.1981640489,
				"y": -0.1815415749,
				"z": 1.3898047838,
				"element": "C" 
			},
			{
				"x": 1.5492408741,
				"y": -0.0081018403,
				"z": 1.7179742676,
				"element": "C" 
			},
			{
				"x": -0.7069614901,
				"y": -0.6723084345,
				"z": 2.4954376148,
				"element": "C" 
			},
			{
				"x": -0.2649743989,
				"y": -1.4495154579,
				"z": 3.332660295,
				"element": "O" 
			},
			{
				"x": -2.0175329322,
				"y": -0.2674294632,
				"z": 2.5163555744,
				"element": "N" 
			},
			{
				"x": -2.6194344251,
				"y": 0.9250536952,
				"z": 1.9326169404,
				"element": "C" 
			},
			{
				"x": -3.787906179,
				"y": 0.6492877855,
				"z": 0.997466655,
				"element": "C" 
			},
			{
				"x": -4.0395784669,
				"y": -0.6211391882,
				"z": 0.4722729207,
				"element": "C" 
			},
			{
				"x": -5.1062585376,
				"y": -0.8379756464,
				"z": -0.4030573791,
				"element": "C" 
			},
			{
				"x": -5.9269319604,
				"y": 0.2309129104,
				"z": -0.7533379394,
				"element": "C" 
			},
			{
				"x": -7.2732893701,
				"y": -0.030625701,
				"z": -1.8490852513,
				"element": "Cl" 
			},
			{
				"x": -5.6981127126,
				"y": 1.5088464507,
				"z": -0.239585562,
				"element": "C" 
			},
			{
				"x": -4.6323076807,
				"y": 1.7070255382,
				"z": 0.6341468776,
				"element": "C" 
			},
			{
				"x": 0.2883222217,
				"y": 0.4889674606,
				"z": -2.3040673345,
				"element": "N" 
			},
			{
				"x": 1.1372036676,
				"y": 0.8150944302,
				"z": -3.1288707844,
				"element": "O" 
			},
			{
				"x": -0.8987535005,
				"y": 0.28449027,
				"z": -2.5468964471,
				"element": "O" 
			},
			{
				"x": 2.7840136146,
				"y": 0.8164020072,
				"z": -1.3626893097,
				"element": "H" 
			},
			{
				"x": -1.2402376318,
				"y": -0.1793141681,
				"z": -0.246694583,
				"element": "H" 
			},
			{
				"x": 1.8896465457,
				"y": -0.1728954443,
				"z": 2.7324256853,
				"element": "H" 
			},
			{
				"x": -2.5199980507,
				"y": -0.6946963446,
				"z": 3.2859921199,
				"element": "H" 
			},
			{
				"x": -1.8391245347,
				"y": 1.4803067669,
				"z": 1.4041671171,
				"element": "H" 
			},
			{
				"x": -2.9560879687,
				"y": 1.5852687286,
				"z": 2.7427759844,
				"element": "H" 
			},
			{
				"x": -3.405115639,
				"y": -1.4549439697,
				"z": 0.756198239,
				"element": "H" 
			},
			{
				"x": -5.2975852735,
				"y": -1.8260723859,
				"z": -0.806484742,
				"element": "H" 
			},
			{
				"x": -6.3483086095,
				"y": 2.3308379815,
				"z": -0.5175968851,
				"element": "H" 
			},
			{
				"x": -4.4587985052,
				"y": 2.7016875689,
				"z": 1.038400243,
				"element": "H" 
			}
		],
		 "valence_orbital": [ 
			{
				"type": "occ",
				"energy": -0.31204,
				"method": "rhf"
			},
			{
				"type": "occ",
				"energy": -0.29,
				"method": "rhf"
			},
			{
				"type": "occ",
				"energy": -0.27976,
				"method": "rhf"
			},
			{
				"type": "occ",
				"energy": -0.27727,
				"method": "rhf"
			},
			{
				"type": "occ",
				"energy": -0.25665,
				"method": "rhf"
			},
			{
				"type": "unocc",
				"energy": -0.11823,
				"method": "rhf"
			},
			{
				"type": "unocc",
				"energy": -0.10925,
				"method": "rhf"
			},
			{
				"type": "unocc",
				"energy": -0.06538,
				"method": "rhf"
			},
			{
				"type": "unocc",
				"energy": -0.03344,
				"method": "rhf"
			},
			{
				"type": "unocc",
				"energy": -0.0287,
				"method": "rhf"
			}
		],
		"cosmo_sigma_profile": { 
			"-0.025": 0.0,
			"-0.024": 0.0,
			"-0.023": 0.0,
			"-0.022": 0.0,
			"-0.021": 0.0,
			"-0.02": 0.0,
			"-0.019": 0.0,
			"-0.018": 0.0,
			"-0.017": 0.0,
			"-0.016": 0.0,
			"-0.015": 0.123822138788,
			"-0.014": 1.30949190439,
			"-0.013": 0.80994394874,
			"-0.012": 1.30186874314,
			"-0.011": 0.91231309741,
			"-0.01": 1.07749961339,
			"-0.009": 1.75889486199,
			"-0.008": 5.84946484647,
			"-0.007": 18.4757912081,
			"-0.006": 24.4529564393,
			"-0.005": 27.21966702,
			"-0.004": 30.4406489306,
			"-0.003": 24.1285540317,
			"-0.002": 18.2960459952,
			"-0.001": 14.3075387284,
			"0.0": 13.7486468855,
			"0.001": 16.2121864505,
			"0.002": 20.0134913721,
			"0.003": 23.3395215052,
			"0.004": 21.54830496,
			"0.005": 15.5036658973,
			"0.006": 14.6816808228,
			"0.007": 17.5373566645,
			"0.008": 9.68846957917,
			"0.009": 7.23549307585,
			"0.01": 1.46487555798,
			"0.011": 2.00128280128,
			"0.012": 4.13395710908,
			"0.013": 4.01226277856,
			"0.014": 0.161819406654,
			"0.015": 0.0,
			"0.016": 0.0,
			"0.017": 0.0,
			"0.018": 0.0,
			"0.019": 0.0,
			"0.02": 0.0,
			"0.021": 0.0,
			"0.022": 0.0,
			"0.023": 0.0,
			"0.024": 0.0,
			"0.025": 0.0
		}
	}
}
