{
	 "smiles": "COC1=CC=C(C=C1F)[N+]([O-])=O", 
	 "Tm": 377.15, 
	 "num_atms": 18, 
	 "gaussian": { 
		 "optdone": 1, 
		 "sigma_profile": "yes", 
		 "theory": "DFT", 
		 "functional": "B3LYP", 
		 "basiset": "6-31G**", 
		 "properties": { 
			 "R2extent": 2756.6375, 
			 "electric_dipole_moment_norm": 5.27993655076, 
			 "electric_quadrupole_moment_norm": 7.96254928776, 
			 "total_energy": -650.498108803, 
			 "HOMO_LUMO_gap": 0.16337, 
			 "cosmo_polarized_energy": -8.61, 
			 "cosmo_cavitation_energy": 23.53, 
			 "cosmo_dispersion_energy": -17.41, 
			 "cosmo_repulsion_energy": 1.36, 
			 "cosmo_total_nonelectrostatic_energy": 7.48, 
			 "SMD_solvation_energy": 7.67 
		},
		"coords": [
			{
				"x": -1.7295806169,
				"y": -0.3800379101,
				"z": 4.1317862003,
				"element": "C" 
			},
			{
				"x": -0.6473995257,
				"y": -0.0512081361,
				"z": 3.2513739952,
				"element": "O" 
			},
			{
				"x": -0.7196635199,
				"y": -0.2500015373,
				"z": 1.9186200522,
				"element": "C" 
			},
			{
				"x": 0.4246524246,
				"y": 0.1230278781,
				"z": 1.1890852521,
				"element": "C" 
			},
			{
				"x": 0.4902928467,
				"y": -0.0252739994,
				"z": -0.1873453936,
				"element": "C" 
			},
			{
				"x": -0.6100382408,
				"y": -0.558601566,
				"z": -0.8597593914,
				"element": "C" 
			},
			{
				"x": -1.7621796077,
				"y": -0.9407830374,
				"z": -0.1773319143,
				"element": "C" 
			},
			{
				"x": -1.8060256455,
				"y": -0.7839458881,
				"z": 1.1969691301,
				"element": "C" 
			},
			{
				"x": -2.9361823287,
				"y": -1.1623900887,
				"z": 1.8398724554,
				"element": "F" 
			},
			{
				"x": -0.5609636488,
				"y": -0.7233084922,
				"z": -2.3120857099,
				"element": "N" 
			},
			{
				"x": 0.470168792,
				"y": -0.3775806149,
				"z": -2.8907306438,
				"element": "O" 
			},
			{
				"x": -1.5526870673,
				"y": -1.1975455576,
				"z": -2.8684741824,
				"element": "O" 
			},
			{
				"x": -1.9599997894,
				"y": -1.4477978363,
				"z": 4.1006908832,
				"element": "H" 
			},
			{
				"x": -2.6280630959,
				"y": 0.1942976136,
				"z": 3.8928945236,
				"element": "H" 
			},
			{
				"x": -1.3722641522,
				"y": -0.1088639744,
				"z": 5.1256823195,
				"element": "H" 
			},
			{
				"x": 1.2580785282,
				"y": 0.533357093,
				"z": 1.7486615259,
				"element": "H" 
			},
			{
				"x": 1.370727716,
				"y": 0.2618121703,
				"z": -0.7475556019,
				"element": "H" 
			},
			{
				"x": -2.6109730687,
				"y": -1.3536561166,
				"z": -0.7071535003,
				"element": "H" 
			}
		],
		 "valence_orbital": [ 
			{
				"type": "occ",
				"energy": -0.30683,
				"method": "rhf"
			},
			{
				"type": "occ",
				"energy": -0.30538,
				"method": "rhf"
			},
			{
				"type": "occ",
				"energy": -0.28802,
				"method": "rhf"
			},
			{
				"type": "occ",
				"energy": -0.27758,
				"method": "rhf"
			},
			{
				"type": "occ",
				"energy": -0.24944,
				"method": "rhf"
			},
			{
				"type": "unocc",
				"energy": -0.08607,
				"method": "rhf"
			},
			{
				"type": "unocc",
				"energy": -0.02744,
				"method": "rhf"
			},
			{
				"type": "unocc",
				"energy": 0.00775,
				"method": "rhf"
			},
			{
				"type": "unocc",
				"energy": 0.05738,
				"method": "rhf"
			},
			{
				"type": "unocc",
				"energy": 0.09912,
				"method": "rhf"
			}
		],
		"cosmo_sigma_profile": { 
			"-0.025": 0.0,
			"-0.024": 0.0,
			"-0.023": 0.0,
			"-0.022": 0.0,
			"-0.021": 0.0,
			"-0.02": 0.0,
			"-0.019": 0.0,
			"-0.018": 0.0,
			"-0.017": 0.0,
			"-0.016": 0.0,
			"-0.015": 0.0,
			"-0.014": 0.0,
			"-0.013": 0.0,
			"-0.012": 0.0,
			"-0.011": 0.0,
			"-0.01": 0.0,
			"-0.009": 0.242644898366,
			"-0.008": 3.16071491773,
			"-0.007": 4.90745143239,
			"-0.006": 12.9525587291,
			"-0.005": 13.1651101477,
			"-0.004": 15.0186366142,
			"-0.003": 14.3357582875,
			"-0.002": 13.8611894607,
			"-0.001": 18.953161454,
			"0.0": 19.2855389336,
			"0.001": 12.508655077,
			"0.002": 8.69545722866,
			"0.003": 9.34154001829,
			"0.004": 6.91629489624,
			"0.005": 4.69848564697,
			"0.006": 3.50869706533,
			"0.007": 8.05831696529,
			"0.008": 10.2995072166,
			"0.009": 5.03189969838,
			"0.01": 3.39987583176,
			"0.011": 0.549253823326,
			"0.012": 0.0,
			"0.013": 0.0,
			"0.014": 0.0,
			"0.015": 0.0,
			"0.016": 0.0,
			"0.017": 0.0,
			"0.018": 0.0,
			"0.019": 0.0,
			"0.02": 0.0,
			"0.021": 0.0,
			"0.022": 0.0,
			"0.023": 0.0,
			"0.024": 0.0,
			"0.025": 0.0
		}
	}
}
