{
	 "smiles": "CC(C)N1CSC2=NN=C(N2C1)C1=CC=CC=C1", 
	 "Tm": 499.15, 
	 "num_atms": 34, 
	 "gaussian": { 
		 "optdone": 1, 
		 "sigma_profile": "yes", 
		 "theory": "DFT", 
		 "functional": "B3LYP", 
		 "basiset": "6-31G**", 
		 "properties": { 
			 "R2extent": 5940.2116, 
			 "electric_dipole_moment_norm": 7.93364093465, 
			 "electric_quadrupole_moment_norm": 28.7731640817, 
			 "total_energy": -1122.18518652, 
			 "HOMO_LUMO_gap": 0.17821, 
			 "cosmo_polarized_energy": -21.59, 
			 "cosmo_cavitation_energy": 37.23, 
			 "cosmo_dispersion_energy": -26.74, 
			 "cosmo_repulsion_energy": 2.01, 
			 "cosmo_total_nonelectrostatic_energy": 12.49, 
			 "SMD_solvation_energy": 1.5 
		},
		"coords": [
			{
				"x": 2.9447235919,
				"y": -2.0309964041,
				"z": -1.5292954001,
				"element": "C" 
			},
			{
				"x": 2.0235514156,
				"y": -1.5869726715,
				"z": -2.67171966,
				"element": "C" 
			},
			{
				"x": 0.9679754856,
				"y": -2.6584320587,
				"z": -3.0038484912,
				"element": "C" 
			},
			{
				"x": 1.4640616159,
				"y": -0.2414582039,
				"z": -2.4093867912,
				"element": "N" 
			},
			{
				"x": 0.9698741931,
				"y": 0.4677692208,
				"z": -3.5668878571,
				"element": "C" 
			},
			{
				"x": 1.1636235369,
				"y": 2.3012641134,
				"z": -3.3604954995,
				"element": "S" 
			},
			{
				"x": 0.7018144742,
				"y": 2.3708967535,
				"z": -1.6635568458,
				"element": "C" 
			},
			{
				"x": 0.6122617766,
				"y": 3.4807676861,
				"z": -0.9670731241,
				"element": "N" 
			},
			{
				"x": 0.285598286,
				"y": 3.1212630877,
				"z": 0.3196475809,
				"element": "N" 
			},
			{
				"x": 0.1824216982,
				"y": 1.808383968,
				"z": 0.3722937897,
				"element": "C" 
			},
			{
				"x": 0.4435677351,
				"y": 1.2725607953,
				"z": -0.8804885757,
				"element": "N" 
			},
			{
				"x": 0.5498930177,
				"y": -0.1307793077,
				"z": -1.2948139467,
				"element": "C" 
			},
			{
				"x": -0.1382905614,
				"y": 1.0559710905,
				"z": 1.5916177064,
				"element": "C" 
			},
			{
				"x": -0.8627787418,
				"y": -0.1477348731,
				"z": 1.5831733714,
				"element": "C" 
			},
			{
				"x": -1.1513965488,
				"y": -0.8091239941,
				"z": 2.7776812869,
				"element": "C" 
			},
			{
				"x": -0.733378036,
				"y": -0.2742283991,
				"z": 3.9962017437,
				"element": "C" 
			},
			{
				"x": -0.0295859538,
				"y": 0.9336208169,
				"z": 4.0152249486,
				"element": "C" 
			},
			{
				"x": 0.2683171855,
				"y": 1.5930155729,
				"z": 2.8266303065,
				"element": "C" 
			},
			{
				"x": 3.496859214,
				"y": -2.9277649697,
				"z": -1.8266972032,
				"element": "H" 
			},
			{
				"x": 3.6625028392,
				"y": -1.2431792779,
				"z": -1.2872453502,
				"element": "H" 
			},
			{
				"x": 2.3889210774,
				"y": -2.2852561051,
				"z": -0.6202450312,
				"element": "H" 
			},
			{
				"x": 2.6555263855,
				"y": -1.4495619055,
				"z": -3.5575932493,
				"element": "H" 
			},
			{
				"x": 1.4542967673,
				"y": -3.5963907206,
				"z": -3.2902921101,
				"element": "H" 
			},
			{
				"x": 0.3274032049,
				"y": -2.8730645799,
				"z": -2.1410746412,
				"element": "H" 
			},
			{
				"x": 0.32591498,
				"y": -2.3499331831,
				"z": -3.835410713,
				"element": "H" 
			},
			{
				"x": -0.0881288156,
				"y": 0.2602515703,
				"z": -3.7916744253,
				"element": "H" 
			},
			{
				"x": 1.5673726648,
				"y": 0.2178264075,
				"z": -4.4454951134,
				"element": "H" 
			},
			{
				"x": 0.9244042573,
				"y": -0.7024463225,
				"z": -0.445058641,
				"element": "H" 
			},
			{
				"x": -0.4643386185,
				"y": -0.4980537462,
				"z": -1.537183284,
				"element": "H" 
			},
			{
				"x": -1.2382261154,
				"y": -0.5548270648,
				"z": 0.6498225024,
				"element": "H" 
			},
			{
				"x": -1.7162721998,
				"y": -1.7366498289,
				"z": 2.7541767953,
				"element": "H" 
			},
			{
				"x": -0.9596561096,
				"y": -0.7898489856,
				"z": 4.9248761108,
				"element": "H" 
			},
			{
				"x": 0.292823437,
				"y": 1.3603089666,
				"z": 4.9605881708,
				"element": "H" 
			},
			{
				"x": 0.8130428609,
				"y": 2.5307025526,
				"z": 2.8292016397,
				"element": "H" 
			}
		],
		 "valence_orbital": [ 
			{
				"type": "occ",
				"energy": -0.26022,
				"method": "rhf"
			},
			{
				"type": "occ",
				"energy": -0.25738,
				"method": "rhf"
			},
			{
				"type": "occ",
				"energy": -0.24492,
				"method": "rhf"
			},
			{
				"type": "occ",
				"energy": -0.2436,
				"method": "rhf"
			},
			{
				"type": "occ",
				"energy": -0.20819,
				"method": "rhf"
			},
			{
				"type": "unocc",
				"energy": -0.02998,
				"method": "rhf"
			},
			{
				"type": "unocc",
				"energy": -0.00923,
				"method": "rhf"
			},
			{
				"type": "unocc",
				"energy": 0.0104,
				"method": "rhf"
			},
			{
				"type": "unocc",
				"energy": 0.03508,
				"method": "rhf"
			},
			{
				"type": "unocc",
				"energy": 0.05424,
				"method": "rhf"
			}
		],
		"cosmo_sigma_profile": { 
			"-0.025": 0.0,
			"-0.024": 0.0,
			"-0.023": 0.0,
			"-0.022": 0.0,
			"-0.021": 0.0,
			"-0.02": 0.0,
			"-0.019": 0.0,
			"-0.018": 0.0,
			"-0.017": 0.0,
			"-0.016": 0.0,
			"-0.015": 0.0,
			"-0.014": 0.0,
			"-0.013": 0.0,
			"-0.012": 0.0,
			"-0.011": 0.0,
			"-0.01": 0.0,
			"-0.009": 1.33369387986,
			"-0.008": 6.32308338864,
			"-0.007": 11.3926873263,
			"-0.006": 20.6909722987,
			"-0.005": 22.6017095945,
			"-0.004": 26.4045358653,
			"-0.003": 23.9313883284,
			"-0.002": 21.5561120243,
			"-0.001": 21.1002128836,
			"0.0": 22.8687436022,
			"0.001": 20.433000852,
			"0.002": 14.5787022163,
			"0.003": 14.5721003702,
			"0.004": 19.8031597522,
			"0.005": 11.6920071876,
			"0.006": 6.1036497624,
			"0.007": 5.97351158654,
			"0.008": 3.3816374163,
			"0.009": 2.5853808443,
			"0.01": 2.65989551993,
			"0.011": 2.65809622877,
			"0.012": 2.62106942742,
			"0.013": 2.44206698951,
			"0.014": 4.06187233383,
			"0.015": 2.52510447153,
			"0.016": 2.20772273289,
			"0.017": 0.572468185487,
			"0.018": 0.0,
			"0.019": 0.0,
			"0.02": 0.0,
			"0.021": 0.0,
			"0.022": 0.0,
			"0.023": 0.0,
			"0.024": 0.0,
			"0.025": 0.0
		}
	}
}
