{
	 "smiles": "S=C1C=CNC2=C1C=CC=C2", 
	 "Tm": 433.15, 
	 "num_atms": 18, 
	 "gaussian": { 
		 "optdone": 1, 
		 "sigma_profile": "yes", 
		 "theory": "DFT", 
		 "functional": "B3LYP", 
		 "basiset": "6-31G**", 
		 "properties": { 
			 "R2extent": 2524.1997, 
			 "electric_dipole_moment_norm": 7.26841049061, 
			 "electric_quadrupole_moment_norm": 23.0977958667, 
			 "total_energy": -800.122783484, 
			 "HOMO_LUMO_gap": 0.12187, 
			 "cosmo_polarized_energy": -22.48, 
			 "cosmo_cavitation_energy": 23.3, 
			 "cosmo_dispersion_energy": -18.13, 
			 "cosmo_repulsion_energy": 1.38, 
			 "cosmo_total_nonelectrostatic_energy": 6.55, 
			 "SMD_solvation_energy": 2.98 
		},
		"coords": [
			{
				"x": -0.2004554795,
				"y": -2.6307118192,
				"z": -0.69783071,
				"element": "S" 
			},
			{
				"x": -0.6878176728,
				"y": -1.2625172437,
				"z": -1.5390584599,
				"element": "C" 
			},
			{
				"x": -1.0899703119,
				"y": -1.3403225368,
				"z": -2.9167340655,
				"element": "C" 
			},
			{
				"x": -1.4891714372,
				"y": -0.2424864516,
				"z": -3.6187228402,
				"element": "C" 
			},
			{
				"x": -1.5276549803,
				"y": 0.9940452687,
				"z": -3.0457669106,
				"element": "N" 
			},
			{
				"x": -1.1640083698,
				"y": 1.1950407071,
				"z": -1.7254920633,
				"element": "C" 
			},
			{
				"x": -0.74033498,
				"y": 0.0857943556,
				"z": -0.9490344101,
				"element": "C" 
			},
			{
				"x": -0.3783534413,
				"y": 0.332471431,
				"z": 0.3918945103,
				"element": "C" 
			},
			{
				"x": -0.4325198927,
				"y": 1.6045096277,
				"z": 0.9337487583,
				"element": "C" 
			},
			{
				"x": -0.8556720487,
				"y": 2.6892126954,
				"z": 0.1448809439,
				"element": "C" 
			},
			{
				"x": -1.2192741731,
				"y": 2.4892381934,
				"z": -1.1749809763,
				"element": "C" 
			},
			{
				"x": -1.0720617141,
				"y": -2.3065803294,
				"z": -3.4049588256,
				"element": "H" 
			},
			{
				"x": -1.7942073365,
				"y": -0.2910994609,
				"z": -4.6581222486,
				"element": "H" 
			},
			{
				"x": -1.8275189424,
				"y": 1.7889667455,
				"z": -3.5903243162,
				"element": "H" 
			},
			{
				"x": -0.0552401576,
				"y": -0.5195781499,
				"z": 0.9805972879,
				"element": "H" 
			},
			{
				"x": -0.1483848414,
				"y": 1.7667761415,
				"z": 1.9687339033,
				"element": "H" 
			},
			{
				"x": -0.8987821795,
				"y": 3.6882066278,
				"z": 0.5684802461,
				"element": "H" 
			},
			{
				"x": -1.5477720413,
				"y": 3.3214341979,
				"z": -1.7930098234,
				"element": "H" 
			}
		],
		 "valence_orbital": [ 
			{
				"type": "occ",
				"energy": -0.33155,
				"method": "rhf"
			},
			{
				"type": "occ",
				"energy": -0.27198,
				"method": "rhf"
			},
			{
				"type": "occ",
				"energy": -0.25248,
				"method": "rhf"
			},
			{
				"type": "occ",
				"energy": -0.19985,
				"method": "rhf"
			},
			{
				"type": "occ",
				"energy": -0.18963,
				"method": "rhf"
			},
			{
				"type": "unocc",
				"energy": -0.06776,
				"method": "rhf"
			},
			{
				"type": "unocc",
				"energy": -0.02331,
				"method": "rhf"
			},
			{
				"type": "unocc",
				"energy": 0.0029,
				"method": "rhf"
			},
			{
				"type": "unocc",
				"energy": 0.04489,
				"method": "rhf"
			},
			{
				"type": "unocc",
				"energy": 0.07331,
				"method": "rhf"
			}
		],
		"cosmo_sigma_profile": { 
			"-0.025": 0.0,
			"-0.024": 0.0,
			"-0.023": 0.0,
			"-0.022": 0.0,
			"-0.021": 0.0,
			"-0.02": 0.0,
			"-0.019": 0.0,
			"-0.018": 0.453330974419,
			"-0.017": 2.21414159683,
			"-0.016": 1.24774505277,
			"-0.015": 1.96866919527,
			"-0.014": 1.70421281303,
			"-0.013": 1.67691832864,
			"-0.012": 1.43400852587,
			"-0.011": 1.4948952302,
			"-0.01": 3.43477786513,
			"-0.009": 3.48713038768,
			"-0.008": 3.54724885575,
			"-0.007": 6.54260322094,
			"-0.006": 9.70650324069,
			"-0.005": 9.36395107108,
			"-0.004": 9.3580163657,
			"-0.003": 8.53848473766,
			"-0.002": 8.52961752143,
			"-0.001": 12.2562127447,
			"0.0": 10.3949984283,
			"0.001": 11.3375629603,
			"0.002": 13.2252041568,
			"0.003": 16.0420092869,
			"0.004": 9.15252135686,
			"0.005": 4.88264154269,
			"0.006": 4.2475872626,
			"0.007": 4.78495151146,
			"0.008": 3.78413944915,
			"0.009": 4.52432813911,
			"0.01": 7.09492334291,
			"0.011": 7.51927119899,
			"0.012": 3.34486761587,
			"0.013": 1.86502140093,
			"0.014": 1.02487649281,
			"0.015": 0.0559436774892,
			"0.016": 0.0,
			"0.017": 0.0,
			"0.018": 0.0,
			"0.019": 0.0,
			"0.02": 0.0,
			"0.021": 0.0,
			"0.022": 0.0,
			"0.023": 0.0,
			"0.024": 0.0,
			"0.025": 0.0
		}
	}
}
