{
	 "smiles": "CN1C(=CC2=C1N=C1C=CC=CN1C2=O)C(O)=O", 
	 "Tm": 562.15, 
	 "num_atms": 27, 
	 "gaussian": { 
		 "optdone": 1, 
		 "sigma_profile": "yes", 
		 "theory": "DFT", 
		 "functional": "B3LYP", 
		 "basiset": "6-31G**", 
		 "properties": { 
			 "R2extent": 5245.599, 
			 "electric_dipole_moment_norm": 7.7532035566, 
			 "electric_quadrupole_moment_norm": 18.9721024217, 
			 "total_energy": -852.647526987, 
			 "HOMO_LUMO_gap": 0.13532, 
			 "cosmo_polarized_energy": -20.99, 
			 "cosmo_cavitation_energy": 31.69, 
			 "cosmo_dispersion_energy": -23.58, 
			 "cosmo_repulsion_energy": 1.76, 
			 "cosmo_total_nonelectrostatic_energy": 9.87, 
			 "SMD_solvation_energy": 6.01 
		},
		"coords": [
			{
				"x": 2.5272578994,
				"y": -1.9898398082,
				"z": -0.9472964119,
				"element": "C" 
			},
			{
				"x": 2.2428487888,
				"y": -0.6151998669,
				"z": -0.5600241468,
				"element": "N" 
			},
			{
				"x": 3.1417110103,
				"y": 0.4492060169,
				"z": -0.3420405238,
				"element": "C" 
			},
			{
				"x": 2.4428991948,
				"y": 1.5285464904,
				"z": 0.1573631774,
				"element": "C" 
			},
			{
				"x": 1.0826897417,
				"y": 1.1424580448,
				"z": 0.2471947281,
				"element": "C" 
			},
			{
				"x": 0.9913701101,
				"y": -0.1941847906,
				"z": -0.1923521051,
				"element": "C" 
			},
			{
				"x": -0.1046500465,
				"y": -0.9683217419,
				"z": -0.2422130952,
				"element": "N" 
			},
			{
				"x": -1.2224974596,
				"y": -0.3810244739,
				"z": 0.1612717332,
				"element": "C" 
			},
			{
				"x": -2.4543907898,
				"y": -1.1062405453,
				"z": 0.1540396732,
				"element": "C" 
			},
			{
				"x": -3.6258081471,
				"y": -0.5310731086,
				"z": 0.5570508008,
				"element": "C" 
			},
			{
				"x": -3.6342085442,
				"y": 0.823272406,
				"z": 0.9975731122,
				"element": "C" 
			},
			{
				"x": -2.4677078194,
				"y": 1.5222100126,
				"z": 1.0102786068,
				"element": "C" 
			},
			{
				"x": -1.2766849128,
				"y": 0.9527933543,
				"z": 0.6065833023,
				"element": "N" 
			},
			{
				"x": -0.0897771544,
				"y": 1.825325088,
				"z": 0.683229195,
				"element": "C" 
			},
			{
				"x": -0.2169705718,
				"y": 2.9698225191,
				"z": 1.0870329713,
				"element": "O" 
			},
			{
				"x": 4.5953855679,
				"y": 0.4535044399,
				"z": -0.6010739034,
				"element": "C" 
			},
			{
				"x": 5.0996582986,
				"y": -0.4977867772,
				"z": -1.443013189,
				"element": "O" 
			},
			{
				"x": 5.3392628687,
				"y": 1.2648839925,
				"z": -0.1014445787,
				"element": "O" 
			},
			{
				"x": 3.4043166321,
				"y": -2.3670914765,
				"z": -0.417062856,
				"element": "H" 
			},
			{
				"x": 1.6552345395,
				"y": -2.59039085,
				"z": -0.6872399073,
				"element": "H" 
			},
			{
				"x": 2.6808760529,
				"y": -2.0869582709,
				"z": -2.0306311001,
				"element": "H" 
			},
			{
				"x": 2.8786569798,
				"y": 2.4827377841,
				"z": 0.4110313026,
				"element": "H" 
			},
			{
				"x": -2.3969742551,
				"y": -2.1319414849,
				"z": -0.1900159011,
				"element": "H" 
			},
			{
				"x": -4.5483293821,
				"y": -1.1029439219,
				"z": 0.5420521089,
				"element": "H" 
			},
			{
				"x": -4.5492263902,
				"y": 1.3042590675,
				"z": 1.3218010987,
				"element": "H" 
			},
			{
				"x": -2.3640981927,
				"y": 2.5517913928,
				"z": 1.3270255605,
				"element": "H" 
			},
			{
				"x": 4.3924559812,
				"y": -0.9334134922,
				"z": -1.9362196525,
				"element": "H" 
			}
		],
		 "valence_orbital": [ 
			{
				"type": "occ",
				"energy": -0.2781,
				"method": "rhf"
			},
			{
				"type": "occ",
				"energy": -0.27705,
				"method": "rhf"
			},
			{
				"type": "occ",
				"energy": -0.269,
				"method": "rhf"
			},
			{
				"type": "occ",
				"energy": -0.26315,
				"method": "rhf"
			},
			{
				"type": "occ",
				"energy": -0.20793,
				"method": "rhf"
			},
			{
				"type": "unocc",
				"energy": -0.07261,
				"method": "rhf"
			},
			{
				"type": "unocc",
				"energy": -0.03657,
				"method": "rhf"
			},
			{
				"type": "unocc",
				"energy": -0.02879,
				"method": "rhf"
			},
			{
				"type": "unocc",
				"energy": 0.01517,
				"method": "rhf"
			},
			{
				"type": "unocc",
				"energy": 0.04681,
				"method": "rhf"
			}
		],
		"cosmo_sigma_profile": { 
			"-0.025": 0.0,
			"-0.024": 0.0,
			"-0.023": 0.0,
			"-0.022": 0.0,
			"-0.021": 0.0,
			"-0.02": 0.0,
			"-0.019": 0.0,
			"-0.018": 0.625779175761,
			"-0.017": 0.83954230157,
			"-0.016": 0.936323126765,
			"-0.015": 1.36649792428,
			"-0.014": 0.88695760842,
			"-0.013": 0.802368948746,
			"-0.012": 0.992438589574,
			"-0.011": 1.51006095595,
			"-0.01": 0.719550283984,
			"-0.009": 0.990160757919,
			"-0.008": 7.9279271022,
			"-0.007": 14.6374921173,
			"-0.006": 14.8917108537,
			"-0.005": 14.0825263209,
			"-0.004": 16.9712560583,
			"-0.003": 17.6735536397,
			"-0.002": 14.9542397223,
			"-0.001": 17.0332768311,
			"0.0": 20.2361115312,
			"0.001": 20.489571596,
			"0.002": 16.7008980056,
			"0.003": 8.56706276684,
			"0.004": 6.05202409563,
			"0.005": 5.02961826158,
			"0.006": 5.21168099698,
			"0.007": 5.84818417732,
			"0.008": 4.87389414232,
			"0.009": 6.46047993979,
			"0.01": 5.96495296982,
			"0.011": 9.32767167209,
			"0.012": 9.42167576953,
			"0.013": 3.46694941562,
			"0.014": 0.0641725672277,
			"0.015": 0.0,
			"0.016": 0.0,
			"0.017": 0.0,
			"0.018": 0.0,
			"0.019": 0.0,
			"0.02": 0.0,
			"0.021": 0.0,
			"0.022": 0.0,
			"0.023": 0.0,
			"0.024": 0.0,
			"0.025": 0.0
		}
	}
}
