{
	 "smiles": "CC(C)=NN=C(C)C", 
	 "Tm": 260.65, 
	 "num_atms": 20, 
	 "gaussian": { 
		 "optdone": 1, 
		 "sigma_profile": "yes", 
		 "theory": "DFT", 
		 "functional": "B3LYP", 
		 "basiset": "6-31G**", 
		 "properties": { 
			 "R2extent": 1565.6066, 
			 "electric_dipole_moment_norm": 0.000244948974278, 
			 "electric_quadrupole_moment_norm": 6.27754590266, 
			 "total_energy": -345.345877968, 
			 "HOMO_LUMO_gap": 0.18907, 
			 "cosmo_polarized_energy": -6.33, 
			 "cosmo_cavitation_energy": 23.24, 
			 "cosmo_dispersion_energy": -16.62, 
			 "cosmo_repulsion_energy": 1.44, 
			 "cosmo_total_nonelectrostatic_energy": 8.06, 
			 "SMD_solvation_energy": 3.73 
		},
		"coords": [
			{
				"x": 3.0131859762,
				"y": -0.9020623745,
				"z": 1.0425369881,
				"element": "C" 
			},
			{
				"x": 2.1760898394,
				"y": 0.275952109,
				"z": 1.4896711427,
				"element": "C" 
			},
			{
				"x": 2.7651443827,
				"y": 1.2081622821,
				"z": 2.511479874,
				"element": "C" 
			},
			{
				"x": 0.9918194268,
				"y": 0.5459545115,
				"z": 1.0623749415,
				"element": "N" 
			},
			{
				"x": 0.5272400047,
				"y": -0.3819879042,
				"z": 0.1101559653,
				"element": "N" 
			},
			{
				"x": -0.6569723709,
				"y": -0.1119092141,
				"z": -0.3172563089,
				"element": "C" 
			},
			{
				"x": -1.4940036048,
				"y": 1.066207849,
				"z": 0.1297291142,
				"element": "C" 
			},
			{
				"x": -1.2460319916,
				"y": -1.0441481918,
				"z": -1.3390350402,
				"element": "C" 
			},
			{
				"x": 2.4907152966,
				"y": -1.8419659411,
				"z": 1.2430798909,
				"element": "H" 
			},
			{
				"x": 3.175110394,
				"y": -0.8690634751,
				"z": -0.0388059636,
				"element": "H" 
			},
			{
				"x": 3.9810353659,
				"y": -0.9142569689,
				"z": 1.5500035136,
				"element": "H" 
			},
			{
				"x": 3.0146904735,
				"y": 0.6643621093,
				"z": 3.4317303897,
				"element": "H" 
			},
			{
				"x": 3.7028975153,
				"y": 1.6429876385,
				"z": 2.1421581185,
				"element": "H" 
			},
			{
				"x": 2.0638940177,
				"y": 2.0105550851,
				"z": 2.7461541371,
				"element": "H" 
			},
			{
				"x": -1.6560417376,
				"y": 1.0332735475,
				"z": 1.2110574654,
				"element": "H" 
			},
			{
				"x": -0.9714270397,
				"y": 2.0060538757,
				"z": -0.0708032375,
				"element": "H" 
			},
			{
				"x": -2.4617995559,
				"y": 1.0784657139,
				"z": -0.3778378887,
				"element": "H" 
			},
			{
				"x": -0.5448504721,
				"y": -1.8466435178,
				"z": -1.5735640096,
				"element": "H" 
			},
			{
				"x": -2.1838728598,
				"y": -1.4788300404,
				"z": -0.9697664662,
				"element": "H" 
			},
			{
				"x": -1.4954230607,
				"y": -0.5004070937,
				"z": -2.2593626262,
				"element": "H" 
			}
		],
		 "valence_orbital": [ 
			{
				"type": "occ",
				"energy": -0.34953,
				"method": "rhf"
			},
			{
				"type": "occ",
				"energy": -0.34098,
				"method": "rhf"
			},
			{
				"type": "occ",
				"energy": -0.31681,
				"method": "rhf"
			},
			{
				"type": "occ",
				"energy": -0.23654,
				"method": "rhf"
			},
			{
				"type": "occ",
				"energy": -0.2097,
				"method": "rhf"
			},
			{
				"type": "unocc",
				"energy": -0.02063,
				"method": "rhf"
			},
			{
				"type": "unocc",
				"energy": 0.06236,
				"method": "rhf"
			},
			{
				"type": "unocc",
				"energy": 0.10742,
				"method": "rhf"
			},
			{
				"type": "unocc",
				"energy": 0.11135,
				"method": "rhf"
			},
			{
				"type": "unocc",
				"energy": 0.14717,
				"method": "rhf"
			}
		],
		"cosmo_sigma_profile": { 
			"-0.025": 0.0,
			"-0.024": 0.0,
			"-0.023": 0.0,
			"-0.022": 0.0,
			"-0.021": 0.0,
			"-0.02": 0.0,
			"-0.019": 0.0,
			"-0.018": 0.0,
			"-0.017": 0.0,
			"-0.016": 0.0,
			"-0.015": 0.0,
			"-0.014": 0.0,
			"-0.013": 0.0,
			"-0.012": 0.0,
			"-0.011": 0.0,
			"-0.01": 0.0,
			"-0.009": 0.0,
			"-0.008": 0.0,
			"-0.007": 0.0,
			"-0.006": 0.0,
			"-0.005": 6.93141006625,
			"-0.004": 21.4376706819,
			"-0.003": 25.6085983688,
			"-0.002": 23.5046889519,
			"-0.001": 26.1638605137,
			"0.0": 26.6446164619,
			"0.001": 9.81207556653,
			"0.002": 5.03320668394,
			"0.003": 3.73649574247,
			"0.004": 3.75333394513,
			"0.005": 5.31519187993,
			"0.006": 6.14584643747,
			"0.007": 2.94815889377,
			"0.008": 3.39809167379,
			"0.009": 3.46600155216,
			"0.01": 3.21001512561,
			"0.011": 1.41084467759,
			"0.012": 2.21116321504,
			"0.013": 0.861336763105,
			"0.014": 0.0585495370033,
			"0.015": 0.0,
			"0.016": 0.0,
			"0.017": 0.0,
			"0.018": 0.0,
			"0.019": 0.0,
			"0.02": 0.0,
			"0.021": 0.0,
			"0.022": 0.0,
			"0.023": 0.0,
			"0.024": 0.0,
			"0.025": 0.0
		}
	}
}
