{
	 "smiles": "CCCCCCCCCCCCOC1OC(CO)C(OC2OC(CO)C(O)C(O)C2O)C(O)C1O", 
	 "Tm": 490.15, 
	 "num_atms": 81, 
	 "gaussian": { 
		 "optdone": 1, 
		 "sigma_profile": "yes", 
		 "theory": "DFT", 
		 "functional": "B3LYP", 
		 "basiset": "6-31G**", 
		 "properties": { 
			 "R2extent": 18316.7952, 
			 "electric_dipole_moment_norm": 2.7183809115, 
			 "electric_quadrupole_moment_norm": 22.1376004316, 
			 "total_energy": -1769.67661638, 
			 "HOMO_LUMO_gap": 0.27508, 
			 "cosmo_polarized_energy": -31.67, 
			 "cosmo_cavitation_energy": 74.77, 
			 "cosmo_dispersion_energy": -43.26, 
			 "cosmo_repulsion_energy": 3.23, 
			 "cosmo_total_nonelectrostatic_energy": 34.74, 
			 "SMD_solvation_energy": 9.82 
		},
		"coords": [
			{
				"x": 0.9024137515,
				"y": -4.0089764755,
				"z": -3.9047251202,
				"element": "C" 
			},
			{
				"x": 1.585202257,
				"y": -2.6513395512,
				"z": -4.1131694585,
				"element": "C" 
			},
			{
				"x": 1.2172022477,
				"y": -1.616527065,
				"z": -3.0432231965,
				"element": "C" 
			},
			{
				"x": 1.8873507211,
				"y": -0.2497746276,
				"z": -3.2355220816,
				"element": "C" 
			},
			{
				"x": 1.4898204567,
				"y": 0.7583257952,
				"z": -2.148394645,
				"element": "C" 
			},
			{
				"x": 2.1817398775,
				"y": 2.1215859907,
				"z": -2.2928501533,
				"element": "C" 
			},
			{
				"x": 1.913985785,
				"y": 3.0881688591,
				"z": -1.1267653355,
				"element": "C" 
			},
			{
				"x": 0.5042884136,
				"y": 3.70481681,
				"z": -1.0881539175,
				"element": "C" 
			},
			{
				"x": 0.2010197962,
				"y": 4.3960871735,
				"z": 0.2560259212,
				"element": "C" 
			},
			{
				"x": -0.2019295166,
				"y": 3.397537064,
				"z": 1.3552631758,
				"element": "C" 
			},
			{
				"x": 0.0093272175,
				"y": 3.9088270437,
				"z": 2.7858420345,
				"element": "C" 
			},
			{
				"x": -0.4102289615,
				"y": 2.9038614613,
				"z": 3.8575093112,
				"element": "C" 
			},
			{
				"x": 0.2333551794,
				"y": 1.6557248211,
				"z": 3.5810051175,
				"element": "O" 
			},
			{
				"x": 0.5387698885,
				"y": 0.7960553909,
				"z": 4.6590691782,
				"element": "C" 
			},
			{
				"x": 1.6097327956,
				"y": -0.0284355399,
				"z": 4.2893317142,
				"element": "O" 
			},
			{
				"x": 1.4151309524,
				"y": -0.8891807699,
				"z": 3.1463042932,
				"element": "C" 
			},
			{
				"x": 2.2961498636,
				"y": -0.323226006,
				"z": 2.0289349715,
				"element": "C" 
			},
			{
				"x": 2.4020435402,
				"y": -1.2666791713,
				"z": 0.9680648712,
				"element": "O" 
			},
			{
				"x": -0.0712475086,
				"y": -1.0483972456,
				"z": 2.7825558138,
				"element": "C" 
			},
			{
				"x": -0.1612205837,
				"y": -2.2505291574,
				"z": 1.9969160513,
				"element": "O" 
			},
			{
				"x": -1.335274123,
				"y": -2.4286087108,
				"z": 1.2620158264,
				"element": "C" 
			},
			{
				"x": -1.5417566025,
				"y": -1.3070840692,
				"z": 0.4172505392,
				"element": "O" 
			},
			{
				"x": -2.8241301854,
				"y": -1.3334313409,
				"z": -0.2215279817,
				"element": "C" 
			},
			{
				"x": -2.8961789704,
				"y": -0.1292422412,
				"z": -1.1644178962,
				"element": "C" 
			},
			{
				"x": -2.0907391386,
				"y": -0.2466335497,
				"z": -2.3215903485,
				"element": "O" 
			},
			{
				"x": -3.0364059551,
				"y": -2.7057718916,
				"z": -0.9289596798,
				"element": "C" 
			},
			{
				"x": -3.5766325944,
				"y": -2.5263320745,
				"z": -2.2400886958,
				"element": "O" 
			},
			{
				"x": -1.6986443396,
				"y": -3.4395935235,
				"z": -0.9945337284,
				"element": "C" 
			},
			{
				"x": -1.9368296656,
				"y": -4.6723926758,
				"z": -1.6936531832,
				"element": "O" 
			},
			{
				"x": -1.1759075211,
				"y": -3.714588335,
				"z": 0.4247075989,
				"element": "C" 
			},
			{
				"x": -1.9259446116,
				"y": -4.7474598873,
				"z": 1.041599874,
				"element": "O" 
			},
			{
				"x": -0.9431911346,
				"y": -1.1896107401,
				"z": 4.0443974989,
				"element": "C" 
			},
			{
				"x": -0.725811789,
				"y": -2.4540309321,
				"z": 4.6542030974,
				"element": "O" 
			},
			{
				"x": -0.6362631695,
				"y": -0.0928438644,
				"z": 5.0931016085,
				"element": "C" 
			},
			{
				"x": -1.7453247252,
				"y": 0.7516385952,
				"z": 5.3708583815,
				"element": "O" 
			},
			{
				"x": 1.1813211413,
				"y": -4.7291784873,
				"z": -4.6807833669,
				"element": "H" 
			},
			{
				"x": 1.1857387956,
				"y": -4.4431189171,
				"z": -2.9365476972,
				"element": "H" 
			},
			{
				"x": -0.1904447909,
				"y": -3.9052575843,
				"z": -3.931069418,
				"element": "H" 
			},
			{
				"x": 1.3188309424,
				"y": -2.2622382941,
				"z": -5.1050377778,
				"element": "H" 
			},
			{
				"x": 2.6739982489,
				"y": -2.7952406135,
				"z": -4.1263817845,
				"element": "H" 
			},
			{
				"x": 0.1300817131,
				"y": -1.4659524896,
				"z": -3.0287880683,
				"element": "H" 
			},
			{
				"x": 1.4825326211,
				"y": -2.0066218862,
				"z": -2.0493210902,
				"element": "H" 
			},
			{
				"x": 1.6209643529,
				"y": 0.1516136983,
				"z": -4.2238045288,
				"element": "H" 
			},
			{
				"x": 2.9809114378,
				"y": -0.373620359,
				"z": -3.2444263402,
				"element": "H" 
			},
			{
				"x": 0.3995827609,
				"y": 0.8732162494,
				"z": -2.1596456639,
				"element": "H" 
			},
			{
				"x": 1.7306437426,
				"y": 0.3304897084,
				"z": -1.1640692185,
				"element": "H" 
			},
			{
				"x": 1.8803375531,
				"y": 2.5912454937,
				"z": -3.2403230462,
				"element": "H" 
			},
			{
				"x": 3.2663453913,
				"y": 1.9598589972,
				"z": -2.3707952221,
				"element": "H" 
			},
			{
				"x": 2.6439190935,
				"y": 3.9083893508,
				"z": -1.1594283674,
				"element": "H" 
			},
			{
				"x": 2.1073281154,
				"y": 2.5556916295,
				"z": -0.1848235712,
				"element": "H" 
			},
			{
				"x": -0.2545461091,
				"y": 2.9333342877,
				"z": -1.273688508,
				"element": "H" 
			},
			{
				"x": 0.4125144996,
				"y": 4.4245397917,
				"z": -1.9120121921,
				"element": "H" 
			},
			{
				"x": 1.0913263049,
				"y": 4.957698575,
				"z": 0.5741923668,
				"element": "H" 
			},
			{
				"x": -0.5944787037,
				"y": 5.141457416,
				"z": 0.1292334497,
				"element": "H" 
			},
			{
				"x": -1.2534964133,
				"y": 3.1091267787,
				"z": 1.2148821489,
				"element": "H" 
			},
			{
				"x": 0.3778328684,
				"y": 2.4763920823,
				"z": 1.2408100723,
				"element": "H" 
			},
			{
				"x": -0.5548977191,
				"y": 4.8371093396,
				"z": 2.9516192232,
				"element": "H" 
			},
			{
				"x": 1.0701984022,
				"y": 4.1556194004,
				"z": 2.9232891202,
				"element": "H" 
			},
			{
				"x": -0.1193443544,
				"y": 3.2618567916,
				"z": 4.855702401,
				"element": "H" 
			},
			{
				"x": -1.497104658,
				"y": 2.7625947367,
				"z": 3.8659132326,
				"element": "H" 
			},
			{
				"x": 0.8919593207,
				"y": 1.3867692337,
				"z": 5.5160708222,
				"element": "H" 
			},
			{
				"x": 1.795597848,
				"y": -1.8758358717,
				"z": 3.4325639028,
				"element": "H" 
			},
			{
				"x": 1.8685947919,
				"y": 0.6300721883,
				"z": 1.6895852762,
				"element": "H" 
			},
			{
				"x": 3.2767982554,
				"y": -0.1099894265,
				"z": 2.4787324213,
				"element": "H" 
			},
			{
				"x": 3.0314240523,
				"y": -0.9115009808,
				"z": 0.3289548935,
				"element": "H" 
			},
			{
				"x": -0.4111007777,
				"y": -0.1968382736,
				"z": 2.1936610408,
				"element": "H" 
			},
			{
				"x": -2.2148624797,
				"y": -2.5503640971,
				"z": 1.921242862,
				"element": "H" 
			},
			{
				"x": -3.6028904754,
				"y": -1.2029874653,
				"z": 0.5480088529,
				"element": "H" 
			},
			{
				"x": -2.5428477205,
				"y": 0.7460381817,
				"z": -0.6109120236,
				"element": "H" 
			},
			{
				"x": -3.9516729598,
				"y": 0.0363761136,
				"z": -1.425096408,
				"element": "H" 
			},
			{
				"x": -2.487719097,
				"y": -0.9778010244,
				"z": -2.8218030463,
				"element": "H" 
			},
			{
				"x": -3.7270818717,
				"y": -3.323775773,
				"z": -0.3389683757,
				"element": "H" 
			},
			{
				"x": -3.4877894746,
				"y": -3.3926448007,
				"z": -2.6671854972,
				"element": "H" 
			},
			{
				"x": -0.9832912762,
				"y": -2.8182752913,
				"z": -1.5391580389,
				"element": "H" 
			},
			{
				"x": -1.1229184535,
				"y": -4.9192576367,
				"z": -2.1531031059,
				"element": "H" 
			},
			{
				"x": -0.10551264,
				"y": -3.9641124844,
				"z": 0.3870387679,
				"element": "H" 
			},
			{
				"x": -2.0616822006,
				"y": -5.4190444282,
				"z": 0.3552485302,
				"element": "H" 
			},
			{
				"x": -2.0004187572,
				"y": -1.0740122681,
				"z": 3.7534828469,
				"element": "H" 
			},
			{
				"x": -0.5817907692,
				"y": -3.0846362963,
				"z": 3.9317041746,
				"element": "H" 
			},
			{
				"x": -0.3064012635,
				"y": -0.6251121956,
				"z": 5.9955901905,
				"element": "H" 
			},
			{
				"x": -2.4139609356,
				"y": 0.2215873412,
				"z": 5.8228643042,
				"element": "H" 
			}
		],
		 "valence_orbital": [ 
			{
				"type": "occ",
				"energy": -0.26248,
				"method": "rhf"
			},
			{
				"type": "occ",
				"energy": -0.26045,
				"method": "rhf"
			},
			{
				"type": "occ",
				"energy": -0.25949,
				"method": "rhf"
			},
			{
				"type": "occ",
				"energy": -0.25605,
				"method": "rhf"
			},
			{
				"type": "occ",
				"energy": -0.24154,
				"method": "rhf"
			},
			{
				"type": "unocc",
				"energy": 0.03354,
				"method": "rhf"
			},
			{
				"type": "unocc",
				"energy": 0.05388,
				"method": "rhf"
			},
			{
				"type": "unocc",
				"energy": 0.0647,
				"method": "rhf"
			},
			{
				"type": "unocc",
				"energy": 0.07216,
				"method": "rhf"
			},
			{
				"type": "unocc",
				"energy": 0.07627,
				"method": "rhf"
			}
		],
		"cosmo_sigma_profile": { 
			"-0.025": 0.0,
			"-0.024": 0.0,
			"-0.023": 0.0,
			"-0.022": 0.0,
			"-0.021": 0.0,
			"-0.02": 0.0,
			"-0.019": 0.0,
			"-0.018": 0.0,
			"-0.017": 0.0770881981088,
			"-0.016": 0.884258070309,
			"-0.015": 1.13124523626,
			"-0.014": 2.15870682244,
			"-0.013": 1.98035286901,
			"-0.012": 4.06517473168,
			"-0.011": 4.51590354155,
			"-0.01": 4.54549989751,
			"-0.009": 4.44642293662,
			"-0.008": 6.61528256841,
			"-0.007": 8.51362515911,
			"-0.006": 17.9401427736,
			"-0.005": 25.6141524334,
			"-0.004": 32.0520891847,
			"-0.003": 40.5418570964,
			"-0.002": 57.3072723175,
			"-0.001": 72.20680633,
			"0.0": 72.4145305887,
			"0.001": 58.1302335269,
			"0.002": 29.3170418913,
			"0.003": 18.6009255853,
			"0.004": 13.7600504293,
			"0.005": 13.2779026317,
			"0.006": 12.8504707291,
			"0.007": 11.6231800472,
			"0.008": 12.0304093329,
			"0.009": 12.9388620057,
			"0.01": 9.75009628364,
			"0.011": 7.2788388716,
			"0.012": 7.85831536321,
			"0.013": 5.41580907294,
			"0.014": 3.04975573367,
			"0.015": 0.271219538445,
			"0.016": 0.0,
			"0.017": 0.0,
			"0.018": 0.0,
			"0.019": 0.0,
			"0.02": 0.0,
			"0.021": 0.0,
			"0.022": 0.0,
			"0.023": 0.0,
			"0.024": 0.0,
			"0.025": 0.0
		}
	}
}
