{
	 "smiles": "CCC(=CC(O)=O)C1=CC=CC=C1", 
	 "Tm": 366.15, 
	 "num_atms": 25, 
	 "gaussian": { 
		 "optdone": 1, 
		 "sigma_profile": "yes", 
		 "theory": "DFT", 
		 "functional": "B3LYP", 
		 "basiset": "6-31G**", 
		 "properties": { 
			 "R2extent": 3001.5637, 
			 "electric_dipole_moment_norm": 2.8655274593, 
			 "electric_quadrupole_moment_norm": 12.1021661049, 
			 "total_energy": -576.854034022, 
			 "HOMO_LUMO_gap": 0.19343, 
			 "cosmo_polarized_energy": -10.84, 
			 "cosmo_cavitation_energy": 28.96, 
			 "cosmo_dispersion_energy": -20.04, 
			 "cosmo_repulsion_energy": 1.63, 
			 "cosmo_total_nonelectrostatic_energy": 10.55, 
			 "SMD_solvation_energy": 6.37 
		},
		"coords": [
			{
				"x": -1.2669076625,
				"y": -0.34982481,
				"z": -1.9277254768,
				"element": "C" 
			},
			{
				"x": -1.3906015488,
				"y": 0.977352852,
				"z": -1.1582862287,
				"element": "C" 
			},
			{
				"x": -0.4667011097,
				"y": 1.0588938566,
				"z": 0.0442297743,
				"element": "C" 
			},
			{
				"x": 0.5697816725,
				"y": 1.9236489929,
				"z": 0.0129068806,
				"element": "C" 
			},
			{
				"x": 1.5749568384,
				"y": 2.2563613371,
				"z": 1.042379711,
				"element": "C" 
			},
			{
				"x": 1.3291601731,
				"y": 1.7746661842,
				"z": 2.2854836886,
				"element": "O" 
			},
			{
				"x": 2.5483735393,
				"y": 2.9496630002,
				"z": 0.806838872,
				"element": "O" 
			},
			{
				"x": -0.7730445298,
				"y": 0.1082578323,
				"z": 1.1515014222,
				"element": "C" 
			},
			{
				"x": 0.148772967,
				"y": -0.8802955086,
				"z": 1.5293343124,
				"element": "C" 
			},
			{
				"x": -0.1685369074,
				"y": -1.8071695134,
				"z": 2.5207418274,
				"element": "C" 
			},
			{
				"x": -1.4100594671,
				"y": -1.7577453945,
				"z": 3.1578048432,
				"element": "C" 
			},
			{
				"x": -2.3354807091,
				"y": -0.7794526475,
				"z": 2.7906011384,
				"element": "C" 
			},
			{
				"x": -2.0245078372,
				"y": 0.1377347895,
				"z": 1.7869077385,
				"element": "C" 
			},
			{
				"x": -0.2544310563,
				"y": -0.4773580393,
				"z": -2.3238458047,
				"element": "H" 
			},
			{
				"x": -1.4873538566,
				"y": -1.2047416262,
				"z": -1.2822174822,
				"element": "H" 
			},
			{
				"x": -1.9657936968,
				"y": -0.3701345277,
				"z": -2.7696549678,
				"element": "H" 
			},
			{
				"x": -2.42707621,
				"y": 1.0887514897,
				"z": -0.8134792802,
				"element": "H" 
			},
			{
				"x": -1.1888258145,
				"y": 1.8170009703,
				"z": -1.8314034006,
				"element": "H" 
			},
			{
				"x": 0.7285768104,
				"y": 2.5094444292,
				"z": -0.8880112475,
				"element": "H" 
			},
			{
				"x": 2.0641625956,
				"y": 2.0978446461,
				"z": 2.8329274491,
				"element": "H" 
			},
			{
				"x": 1.1148849482,
				"y": -0.9204121007,
				"z": 1.0362584737,
				"element": "H" 
			},
			{
				"x": 0.5553188392,
				"y": -2.5689859152,
				"z": 2.7960017517,
				"element": "H" 
			},
			{
				"x": -1.6555813874,
				"y": -2.4781926465,
				"z": 3.932705874,
				"element": "H" 
			},
			{
				"x": -3.3024980391,
				"y": -0.7309615439,
				"z": 3.283083587,
				"element": "H" 
			},
			{
				"x": -2.7506885516,
				"y": 0.8972538934,
				"z": 1.5110165443,
				"element": "H" 
			}
		],
		 "valence_orbital": [ 
			{
				"type": "occ",
				"energy": -0.30977,
				"method": "rhf"
			},
			{
				"type": "occ",
				"energy": -0.27504,
				"method": "rhf"
			},
			{
				"type": "occ",
				"energy": -0.26612,
				"method": "rhf"
			},
			{
				"type": "occ",
				"energy": -0.2529,
				"method": "rhf"
			},
			{
				"type": "occ",
				"energy": -0.24138,
				"method": "rhf"
			},
			{
				"type": "unocc",
				"energy": -0.04795,
				"method": "rhf"
			},
			{
				"type": "unocc",
				"energy": -0.00458,
				"method": "rhf"
			},
			{
				"type": "unocc",
				"energy": 0.00212,
				"method": "rhf"
			},
			{
				"type": "unocc",
				"energy": 0.07939,
				"method": "rhf"
			},
			{
				"type": "unocc",
				"energy": 0.0897,
				"method": "rhf"
			}
		],
		"cosmo_sigma_profile": { 
			"-0.025": 0.0,
			"-0.024": 0.0,
			"-0.023": 0.0,
			"-0.022": 0.0,
			"-0.021": 0.0,
			"-0.02": 0.0,
			"-0.019": 0.0,
			"-0.018": 0.200916334451,
			"-0.017": 0.936754902195,
			"-0.016": 1.26759349084,
			"-0.015": 0.147708931682,
			"-0.014": 0.597330890519,
			"-0.013": 0.837692190183,
			"-0.012": 0.959994784866,
			"-0.011": 0.849182604812,
			"-0.01": 0.680546889046,
			"-0.009": 0.673904561644,
			"-0.008": 0.313223681694,
			"-0.007": 0.761258935806,
			"-0.006": 9.29721448694,
			"-0.005": 15.920388106,
			"-0.004": 17.9037820247,
			"-0.003": 20.9524368455,
			"-0.002": 20.2711393526,
			"-0.001": 23.5278000103,
			"0.0": 22.8949061557,
			"0.001": 18.3199753219,
			"0.002": 12.4074897469,
			"0.003": 11.2603190352,
			"0.004": 9.3675072327,
			"0.005": 8.80142372552,
			"0.006": 6.04909301758,
			"0.007": 3.76475515928,
			"0.008": 2.49825182986,
			"0.009": 3.50891894867,
			"0.01": 3.01585200485,
			"0.011": 2.66554512904,
			"0.012": 5.01104887978,
			"0.013": 3.18485151352,
			"0.014": 0.307561986712,
			"0.015": 0.0,
			"0.016": 0.0,
			"0.017": 0.0,
			"0.018": 0.0,
			"0.019": 0.0,
			"0.02": 0.0,
			"0.021": 0.0,
			"0.022": 0.0,
			"0.023": 0.0,
			"0.024": 0.0,
			"0.025": 0.0
		}
	}
}
