{
	 "smiles": "CC(F)(F)Cl", 
	 "Tm": 142.15, 
	 "num_atms": 8, 
	 "gaussian": { 
		 "optdone": 1, 
		 "sigma_profile": "yes", 
		 "theory": "DFT", 
		 "functional": "B3LYP", 
		 "basiset": "6-31G**", 
		 "properties": { 
			 "R2extent": 1639.5284, 
			 "electric_dipole_moment_norm": 2.19228673307, 
			 "electric_quadrupole_moment_norm": 5.44261179674, 
			 "total_energy": -737.896755823, 
			 "HOMO_LUMO_gap": 0.33007, 
			 "cosmo_polarized_energy": -3.11, 
			 "cosmo_cavitation_energy": 14.18, 
			 "cosmo_dispersion_energy": -10.44, 
			 "cosmo_repulsion_energy": 0.9, 
			 "cosmo_total_nonelectrostatic_energy": 4.63, 
			 "SMD_solvation_energy": 3.22 
		},
		"coords": [
			{
				"x": -1.3273446687,
				"y": -0.5352888946,
				"z": -0.2926772265,
				"element": "C" 
			},
			{
				"x": -2.1455340742,
				"y": 0.6081213031,
				"z": 0.2538423337,
				"element": "C" 
			},
			{
				"x": -1.6835472106,
				"y": 1.7927562078,
				"z": -0.2007125023,
				"element": "F" 
			},
			{
				"x": -2.0884050095,
				"y": 0.6411155646,
				"z": 1.6025684205,
				"element": "F" 
			},
			{
				"x": -3.8930976962,
				"y": 0.4809420935,
				"z": -0.2197534832,
				"element": "Cl" 
			},
			{
				"x": -1.3717606943,
				"y": -0.5410304282,
				"z": -1.382341061,
				"element": "H" 
			},
			{
				"x": -0.2918114754,
				"y": -0.3951206413,
				"z": 0.0293336902,
				"element": "H" 
			},
			{
				"x": -1.7030991711,
				"y": -1.4834952049,
				"z": 0.0934398287,
				"element": "H" 
			}
		],
		 "valence_orbital": [ 
			{
				"type": "occ",
				"energy": -0.41457,
				"method": "rhf"
			},
			{
				"type": "occ",
				"energy": -0.40468,
				"method": "rhf"
			},
			{
				"type": "occ",
				"energy": -0.36324,
				"method": "rhf"
			},
			{
				"type": "occ",
				"energy": -0.32384,
				"method": "rhf"
			},
			{
				"type": "occ",
				"energy": -0.3228,
				"method": "rhf"
			},
			{
				"type": "unocc",
				"energy": 0.00727,
				"method": "rhf"
			},
			{
				"type": "unocc",
				"energy": 0.10465,
				"method": "rhf"
			},
			{
				"type": "unocc",
				"energy": 0.11093,
				"method": "rhf"
			},
			{
				"type": "unocc",
				"energy": 0.13178,
				"method": "rhf"
			},
			{
				"type": "unocc",
				"energy": 0.17779,
				"method": "rhf"
			}
		],
		"cosmo_sigma_profile": { 
			"-0.025": 0.0,
			"-0.024": 0.0,
			"-0.023": 0.0,
			"-0.022": 0.0,
			"-0.021": 0.0,
			"-0.02": 0.0,
			"-0.019": 0.0,
			"-0.018": 0.0,
			"-0.017": 0.0,
			"-0.016": 0.0,
			"-0.015": 0.0,
			"-0.014": 0.0,
			"-0.013": 0.0,
			"-0.012": 0.0,
			"-0.011": 0.0,
			"-0.01": 0.0,
			"-0.009": 0.0,
			"-0.008": 0.715264362761,
			"-0.007": 5.29656656477,
			"-0.006": 5.49459983972,
			"-0.005": 6.9588169634,
			"-0.004": 5.65673312728,
			"-0.003": 8.54822533999,
			"-0.002": 8.24989164071,
			"-0.001": 4.90355141105,
			"0.0": 5.74435568727,
			"0.001": 7.38731938785,
			"0.002": 14.3745187422,
			"0.003": 25.690836888,
			"0.004": 13.6415142467,
			"0.005": 2.12432596433,
			"0.006": 0.0,
			"0.007": 0.0,
			"0.008": 0.0,
			"0.009": 0.0,
			"0.01": 0.0,
			"0.011": 0.0,
			"0.012": 0.0,
			"0.013": 0.0,
			"0.014": 0.0,
			"0.015": 0.0,
			"0.016": 0.0,
			"0.017": 0.0,
			"0.018": 0.0,
			"0.019": 0.0,
			"0.02": 0.0,
			"0.021": 0.0,
			"0.022": 0.0,
			"0.023": 0.0,
			"0.024": 0.0,
			"0.025": 0.0
		}
	}
}
