{
	 "smiles": "CC1CN(CC(C)O1)C(=O)C1=C(N)N(C)N=C1", 
	 "Tm": 426.15, 
	 "num_atms": 35, 
	 "gaussian": { 
		 "optdone": 1, 
		 "sigma_profile": "yes", 
		 "theory": "DFT", 
		 "functional": "B3LYP", 
		 "basiset": "6-31G**", 
		 "properties": { 
			 "R2extent": 4724.5099, 
			 "electric_dipole_moment_norm": 4.9820679351, 
			 "electric_quadrupole_moment_norm": 21.4752236515, 
			 "total_energy": -799.452326026, 
			 "HOMO_LUMO_gap": 0.21555, 
			 "cosmo_polarized_energy": -20.18, 
			 "cosmo_cavitation_energy": 35.72, 
			 "cosmo_dispersion_energy": -25.2, 
			 "cosmo_repulsion_energy": 1.95, 
			 "cosmo_total_nonelectrostatic_energy": 12.48, 
			 "SMD_solvation_energy": 5.45 
		},
		"coords": [
			{
				"x": 2.864035367,
				"y": -1.2663139041,
				"z": 0.1881498418,
				"element": "C" 
			},
			{
				"x": 1.5971816989,
				"y": -2.0312528768,
				"z": -0.2152032133,
				"element": "C" 
			},
			{
				"x": 0.3030748807,
				"y": -1.3828898469,
				"z": 0.2864848861,
				"element": "C" 
			},
			{
				"x": 0.0292034199,
				"y": -0.1177796533,
				"z": -0.428037872,
				"element": "N" 
			},
			{
				"x": 0.5646311046,
				"y": -0.04470151,
				"z": -1.7984069702,
				"element": "C" 
			},
			{
				"x": 0.7588864751,
				"y": -1.4229732418,
				"z": -2.4346985809,
				"element": "C" 
			},
			{
				"x": -0.5531278868,
				"y": -2.1197484378,
				"z": -2.8071842553,
				"element": "C" 
			},
			{
				"x": 1.5773266818,
				"y": -2.2811759562,
				"z": -1.6225210986,
				"element": "O" 
			},
			{
				"x": -1.1625872926,
				"y": 0.5798446684,
				"z": -0.1845045187,
				"element": "C" 
			},
			{
				"x": -1.7686640441,
				"y": 1.1666949749,
				"z": -1.0781215688,
				"element": "O" 
			},
			{
				"x": -1.6321496985,
				"y": 0.6294805063,
				"z": 1.2114523314,
				"element": "C" 
			},
			{
				"x": -0.9020906879,
				"y": 0.7965891417,
				"z": 2.3920633718,
				"element": "C" 
			},
			{
				"x": 0.4699256994,
				"y": 0.8144077782,
				"z": 2.6233922989,
				"element": "N" 
			},
			{
				"x": -1.8038624719,
				"y": 0.9233870686,
				"z": 3.3984577402,
				"element": "N" 
			},
			{
				"x": -1.5335918355,
				"y": 1.1405673122,
				"z": 4.803697881,
				"element": "C" 
			},
			{
				"x": -3.0986622884,
				"y": 0.8792859054,
				"z": 2.9447933927,
				"element": "N" 
			},
			{
				"x": -2.9843240072,
				"y": 0.7175129227,
				"z": 1.6381698979,
				"element": "C" 
			},
			{
				"x": 2.9607052683,
				"y": -1.2338954227,
				"z": 1.2794598218,
				"element": "H" 
			},
			{
				"x": 3.7423854847,
				"y": -1.7729252789,
				"z": -0.220629372,
				"element": "H" 
			},
			{
				"x": 2.8625883636,
				"y": -0.2390451956,
				"z": -0.1877114978,
				"element": "H" 
			},
			{
				"x": 1.6446906764,
				"y": -3.0228371894,
				"z": 0.254068136,
				"element": "H" 
			},
			{
				"x": 0.399825319,
				"y": -1.2113393115,
				"z": 1.3600364961,
				"element": "H" 
			},
			{
				"x": -0.5224424339,
				"y": -2.0917988531,
				"z": 0.1427739034,
				"element": "H" 
			},
			{
				"x": 1.5283008533,
				"y": 0.4792070784,
				"z": -1.7846804703,
				"element": "H" 
			},
			{
				"x": -0.1342960253,
				"y": 0.547604742,
				"z": -2.3909347926,
				"element": "H" 
			},
			{
				"x": 1.3346130539,
				"y": -1.2705915129,
				"z": -3.3571213703,
				"element": "H" 
			},
			{
				"x": -1.0803405501,
				"y": -1.550864515,
				"z": -3.5802607441,
				"element": "H" 
			},
			{
				"x": -0.340027938,
				"y": -3.1199628525,
				"z": -3.1943942936,
				"element": "H" 
			},
			{
				"x": -1.226120351,
				"y": -2.220814647,
				"z": -1.9512544457,
				"element": "H" 
			},
			{
				"x": 0.9884704829,
				"y": 0.9285333865,
				"z": 1.7593525577,
				"element": "H" 
			},
			{
				"x": 0.7679712939,
				"y": 1.4953936297,
				"z": 3.3125760404,
				"element": "H" 
			},
			{
				"x": -2.458649539,
				"y": 0.9434652693,
				"z": 5.3444151026,
				"element": "H" 
			},
			{
				"x": -0.7551513527,
				"y": 0.4540537054,
				"z": 5.1506602595,
				"element": "H" 
			},
			{
				"x": -1.2211522392,
				"y": 2.1731371586,
				"z": 5.0051605307,
				"element": "H" 
			},
			{
				"x": -3.8656754813,
				"y": 0.6516449571,
				"z": 1.0150005743,
				"element": "H" 
			}
		],
		 "valence_orbital": [ 
			{
				"type": "occ",
				"energy": -0.25731,
				"method": "rhf"
			},
			{
				"type": "occ",
				"energy": -0.24949,
				"method": "rhf"
			},
			{
				"type": "occ",
				"energy": -0.24052,
				"method": "rhf"
			},
			{
				"type": "occ",
				"energy": -0.23457,
				"method": "rhf"
			},
			{
				"type": "occ",
				"energy": -0.21686,
				"method": "rhf"
			},
			{
				"type": "unocc",
				"energy": -0.00131,
				"method": "rhf"
			},
			{
				"type": "unocc",
				"energy": 0.02954,
				"method": "rhf"
			},
			{
				"type": "unocc",
				"energy": 0.05159,
				"method": "rhf"
			},
			{
				"type": "unocc",
				"energy": 0.08011,
				"method": "rhf"
			},
			{
				"type": "unocc",
				"energy": 0.09558,
				"method": "rhf"
			}
		],
		"cosmo_sigma_profile": { 
			"-0.025": 0.0,
			"-0.024": 0.0,
			"-0.023": 0.0,
			"-0.022": 0.0,
			"-0.021": 0.0,
			"-0.02": 0.0,
			"-0.019": 0.0,
			"-0.018": 0.0,
			"-0.017": 0.0,
			"-0.016": 0.0,
			"-0.015": 0.0,
			"-0.014": 0.619744733056,
			"-0.013": 1.42188185827,
			"-0.012": 1.7494138623,
			"-0.011": 2.73833968738,
			"-0.01": 2.75233333241,
			"-0.009": 2.16917990779,
			"-0.008": 2.29568362224,
			"-0.007": 5.05889523082,
			"-0.006": 10.1137531904,
			"-0.005": 18.5795858901,
			"-0.004": 32.8415515788,
			"-0.003": 31.2298726448,
			"-0.002": 24.3282059491,
			"-0.001": 21.8455233547,
			"0.0": 21.5752197608,
			"0.001": 17.3095814047,
			"0.002": 10.3326343231,
			"0.003": 9.25103851081,
			"0.004": 7.91243753333,
			"0.005": 7.33844613277,
			"0.006": 5.96103083474,
			"0.007": 5.35305400272,
			"0.008": 5.56140910862,
			"0.009": 4.79848330207,
			"0.01": 3.77686396541,
			"0.011": 4.26108416278,
			"0.012": 4.70364258653,
			"0.013": 6.5609888971,
			"0.014": 5.17552501685,
			"0.015": 1.4992981333,
			"0.016": 0.63497653519,
			"0.017": 0.0,
			"0.018": 0.0,
			"0.019": 0.0,
			"0.02": 0.0,
			"0.021": 0.0,
			"0.022": 0.0,
			"0.023": 0.0,
			"0.024": 0.0,
			"0.025": 0.0
		}
	}
}
