{
	 "smiles": "CC1=NN(CCO)C2=C1C=C(Br)C=N2", 
	 "Tm": 384.15, 
	 "num_atms": 24, 
	 "gaussian": { 
		 "optdone": 1, 
		 "sigma_profile": "yes", 
		 "theory": "DFT", 
		 "functional": "B3LYP", 
		 "basiset": "6-31G**", 
		 "properties": { 
			 "R2extent": 6088.0373, 
			 "electric_dipole_moment_norm": 1.79144843353, 
			 "electric_quadrupole_moment_norm": 15.9618066866, 
			 "total_energy": -3159.85558933, 
			 "HOMO_LUMO_gap": 0.17158, 
			 "cosmo_polarized_energy": -9.23, 
			 "cosmo_cavitation_energy": 30.08, 
			 "cosmo_dispersion_energy": -22.52, 
			 "cosmo_repulsion_energy": 1.79, 
			 "cosmo_total_nonelectrostatic_energy": 9.35, 
			 "SMD_solvation_energy": 1.71 
		},
		"coords": [
			{
				"x": -1.2159106141,
				"y": 3.1562431685,
				"z": -1.0334753019,
				"element": "C" 
			},
			{
				"x": -0.7840757991,
				"y": 1.846722524,
				"z": -0.4545841202,
				"element": "C" 
			},
			{
				"x": -1.22715907,
				"y": 0.6964827353,
				"z": -0.9446823053,
				"element": "N" 
			},
			{
				"x": -0.6709181566,
				"y": -0.3158549067,
				"z": -0.2163343522,
				"element": "N" 
			},
			{
				"x": -0.9640917465,
				"y": -1.7108997158,
				"z": -0.525855545,
				"element": "C" 
			},
			{
				"x": -2.4672829689,
				"y": -1.9544478002,
				"z": -0.6944009945,
				"element": "C" 
			},
			{
				"x": -2.9875163968,
				"y": -1.3652596239,
				"z": -1.8659411578,
				"element": "O" 
			},
			{
				"x": 0.1464267743,
				"y": 0.1822445299,
				"z": 0.753963931,
				"element": "C" 
			},
			{
				"x": 0.105516735,
				"y": 1.5952867009,
				"z": 0.6369834517,
				"element": "C" 
			},
			{
				"x": 0.8756488625,
				"y": 2.3428297769,
				"z": 1.5400260058,
				"element": "C" 
			},
			{
				"x": 1.6073587393,
				"y": 1.6200208865,
				"z": 2.4684791911,
				"element": "C" 
			},
			{
				"x": 2.6961149696,
				"y": 2.5187671247,
				"z": 3.7527784763,
				"element": "Br" 
			},
			{
				"x": 1.5685980143,
				"y": 0.2044938012,
				"z": 2.4916281793,
				"element": "C" 
			},
			{
				"x": 0.8493974083,
				"y": -0.5266050681,
				"z": 1.6470426083,
				"element": "N" 
			},
			{
				"x": -0.3584662283,
				"y": 3.7310144206,
				"z": -1.4012207897,
				"element": "H" 
			},
			{
				"x": -1.8995214434,
				"y": 2.986385942,
				"z": -1.8678199176,
				"element": "H" 
			},
			{
				"x": -1.7280103533,
				"y": 3.7732461566,
				"z": -0.2864903842,
				"element": "H" 
			},
			{
				"x": -0.5551972901,
				"y": -2.297636742,
				"z": 0.3008112415,
				"element": "H" 
			},
			{
				"x": -0.4458397351,
				"y": -1.9951150578,
				"z": -1.4490888664,
				"element": "H" 
			},
			{
				"x": -2.6327816831,
				"y": -3.0342554126,
				"z": -0.7779030363,
				"element": "H" 
			},
			{
				"x": -2.9884709689,
				"y": -1.6090408236,
				"z": 0.2140867163,
				"element": "H" 
			},
			{
				"x": -2.7147600693,
				"y": -0.4322882291,
				"z": -1.844097574,
				"element": "H" 
			},
			{
				"x": 0.9044663389,
				"y": 3.4268836654,
				"z": 1.5227588935,
				"element": "H" 
			},
			{
				"x": 2.1533746813,
				"y": -0.3316180527,
				"z": 3.2342356503,
				"element": "H" 
			}
		],
		 "valence_orbital": [ 
			{
				"type": "occ",
				"energy": -0.30133,
				"method": "rhf"
			},
			{
				"type": "occ",
				"energy": -0.28102,
				"method": "rhf"
			},
			{
				"type": "occ",
				"energy": -0.26177,
				"method": "rhf"
			},
			{
				"type": "occ",
				"energy": -0.25874,
				"method": "rhf"
			},
			{
				"type": "occ",
				"energy": -0.23441,
				"method": "rhf"
			},
			{
				"type": "unocc",
				"energy": -0.06283,
				"method": "rhf"
			},
			{
				"type": "unocc",
				"energy": -0.00877,
				"method": "rhf"
			},
			{
				"type": "unocc",
				"energy": -0.00213,
				"method": "rhf"
			},
			{
				"type": "unocc",
				"energy": 0.02969,
				"method": "rhf"
			},
			{
				"type": "unocc",
				"energy": 0.09651,
				"method": "rhf"
			}
		],
		"cosmo_sigma_profile": { 
			"-0.025": 0.0,
			"-0.024": 0.0,
			"-0.023": 0.0,
			"-0.022": 0.0,
			"-0.021": 0.0,
			"-0.02": 0.0,
			"-0.019": 0.0,
			"-0.018": 0.0,
			"-0.017": 0.0,
			"-0.016": 0.0,
			"-0.015": 0.0,
			"-0.014": 0.0,
			"-0.013": 0.0,
			"-0.012": 0.0,
			"-0.011": 0.0,
			"-0.01": 0.0,
			"-0.009": 0.564717209941,
			"-0.008": 2.15364586978,
			"-0.007": 3.7844569946,
			"-0.006": 8.15266014232,
			"-0.005": 19.9705086612,
			"-0.004": 22.2091576082,
			"-0.003": 21.2699556241,
			"-0.002": 18.8107772936,
			"-0.001": 25.9484022548,
			"0.0": 26.2889234219,
			"0.001": 21.7631234173,
			"0.002": 14.051924275,
			"0.003": 13.0461923453,
			"0.004": 15.3089616795,
			"0.005": 7.01609778466,
			"0.006": 2.06142401934,
			"0.007": 3.20816624928,
			"0.008": 3.35853801952,
			"0.009": 2.36226567072,
			"0.01": 1.17299986125,
			"0.011": 2.75314689211,
			"0.012": 2.34779630098,
			"0.013": 1.66709871703,
			"0.014": 2.42195457281,
			"0.015": 1.26374640485,
			"0.016": 0.0,
			"0.017": 0.0,
			"0.018": 0.0,
			"0.019": 0.0,
			"0.02": 0.0,
			"0.021": 0.0,
			"0.022": 0.0,
			"0.023": 0.0,
			"0.024": 0.0,
			"0.025": 0.0
		}
	}
}
