{
	 "smiles": "CCCCCCCCCCCCCCCC[N+](C)(C)CC1=CC=C(O)C=C1", 
	 "Tm": 402.15, 
	 "num_atms": 73, 
	 "gaussian": { 
		 "optdone": 1, 
		 "sigma_profile": "yes", 
		 "theory": "DFT", 
		 "functional": "B3LYP", 
		 "basiset": "6-31G**", 
		 "properties": { 
			 "R2extent": 16057.3394, 
			 "electric_dipole_moment_norm": 12.1122361755, 
			 "electric_quadrupole_moment_norm": 30.5338400887, 
			 "total_energy": -1110.17508951, 
			 "HOMO_LUMO_gap": 0.20765, 
			 "cosmo_polarized_energy": -57.03, 
			 "cosmo_cavitation_energy": 67.66, 
			 "cosmo_dispersion_energy": -40.46, 
			 "cosmo_repulsion_energy": 3.13, 
			 "cosmo_total_nonelectrostatic_energy": 30.33, 
			 "SMD_solvation_energy": 10.12 
		},
		"coords": [
			{
				"x": -4.4397964982,
				"y": -3.5360533696,
				"z": -0.4599622906,
				"element": "C" 
			},
			{
				"x": -2.9524258183,
				"y": -3.8629190966,
				"z": -0.6299997712,
				"element": "C" 
			},
			{
				"x": -2.4700708111,
				"y": -4.962328648,
				"z": 0.3298538331,
				"element": "C" 
			},
			{
				"x": -0.9881523672,
				"y": -5.3731923035,
				"z": 0.1858850436,
				"element": "C" 
			},
			{
				"x": 0.021104716,
				"y": -4.6092634016,
				"z": 1.0627094739,
				"element": "C" 
			},
			{
				"x": 0.1777029467,
				"y": -3.1121385272,
				"z": 0.7543946463,
				"element": "C" 
			},
			{
				"x": 1.3508384013,
				"y": -2.4383642739,
				"z": 1.4904292567,
				"element": "C" 
			},
			{
				"x": 1.2547635563,
				"y": -2.3989576692,
				"z": 3.0267106637,
				"element": "C" 
			},
			{
				"x": 0.1037168787,
				"y": -1.5722157113,
				"z": 3.6318432255,
				"element": "C" 
			},
			{
				"x": 0.1460765438,
				"y": -0.0569148155,
				"z": 3.3242826395,
				"element": "C" 
			},
			{
				"x": -0.7491041025,
				"y": 0.3926692092,
				"z": 2.1578029559,
				"element": "C" 
			},
			{
				"x": -0.5874979545,
				"y": 1.8801872748,
				"z": 1.8153301048,
				"element": "C" 
			},
			{
				"x": -1.5848018141,
				"y": 2.429103622,
				"z": 0.7790888491,
				"element": "C" 
			},
			{
				"x": -1.6352106092,
				"y": 1.7656919557,
				"z": -0.6111549432,
				"element": "C" 
			},
			{
				"x": -0.4055149175,
				"y": 1.9687275719,
				"z": -1.5330752829,
				"element": "C" 
			},
			{
				"x": 0.6852986004,
				"y": 0.9322792049,
				"z": -1.2559190271,
				"element": "C" 
			},
			{
				"x": 1.929891009,
				"y": 0.9391591867,
				"z": -2.1664108642,
				"element": "N" 
			},
			{
				"x": 2.5608100879,
				"y": -0.4272807335,
				"z": -2.0606675988,
				"element": "C" 
			},
			{
				"x": 1.5655846595,
				"y": 1.1808195039,
				"z": -3.6024149967,
				"element": "C" 
			},
			{
				"x": 3.016030123,
				"y": 1.9591470125,
				"z": -1.6989477123,
				"element": "C" 
			},
			{
				"x": 2.6438548983,
				"y": 3.4091121264,
				"z": -1.6688078919,
				"element": "C" 
			},
			{
				"x": 2.7541756257,
				"y": 4.2152715749,
				"z": -2.8174998969,
				"element": "C" 
			},
			{
				"x": 2.450528618,
				"y": 5.5683331658,
				"z": -2.779433904,
				"element": "C" 
			},
			{
				"x": 2.0456048832,
				"y": 6.1592994997,
				"z": -1.5716956701,
				"element": "C" 
			},
			{
				"x": 1.7683757903,
				"y": 7.4801806885,
				"z": -1.5987603319,
				"element": "O" 
			},
			{
				"x": 1.9625700999,
				"y": 5.3781663391,
				"z": -0.409115112,
				"element": "C" 
			},
			{
				"x": 2.2654099741,
				"y": 4.0214936415,
				"z": -0.4641608777,
				"element": "C" 
			},
			{
				"x": -4.6541480451,
				"y": -3.1744745481,
				"z": 0.5522006721,
				"element": "H" 
			},
			{
				"x": -5.0601958975,
				"y": -4.422923108,
				"z": -0.6289669813,
				"element": "H" 
			},
			{
				"x": -4.7667035574,
				"y": -2.764910126,
				"z": -1.1654663776,
				"element": "H" 
			},
			{
				"x": -2.3612862033,
				"y": -2.9485981848,
				"z": -0.4904337715,
				"element": "H" 
			},
			{
				"x": -2.7658722673,
				"y": -4.1891795602,
				"z": -1.6625340852,
				"element": "H" 
			},
			{
				"x": -2.6669159808,
				"y": -4.6567983312,
				"z": 1.3676672365,
				"element": "H" 
			},
			{
				"x": -3.0974326264,
				"y": -5.8467622412,
				"z": 0.1606553043,
				"element": "H" 
			},
			{
				"x": -0.6889502065,
				"y": -5.2964053922,
				"z": -0.8696698665,
				"element": "H" 
			},
			{
				"x": -0.8949262081,
				"y": -6.4352665223,
				"z": 0.4414854049,
				"element": "H" 
			},
			{
				"x": -0.2629566744,
				"y": -4.7386243825,
				"z": 2.1150181089,
				"element": "H" 
			},
			{
				"x": 1.0034504468,
				"y": -5.0903265108,
				"z": 0.9551673256,
				"element": "H" 
			},
			{
				"x": -0.7561466434,
				"y": -2.5869018657,
				"z": 0.9868646681,
				"element": "H" 
			},
			{
				"x": 0.3300580146,
				"y": -2.9932412161,
				"z": -0.3295323304,
				"element": "H" 
			},
			{
				"x": 1.4669667099,
				"y": -1.4088336289,
				"z": 1.1169234538,
				"element": "H" 
			},
			{
				"x": 2.2785919625,
				"y": -2.9618521387,
				"z": 1.219785267,
				"element": "H" 
			},
			{
				"x": 2.2020155888,
				"y": -2.0036006456,
				"z": 3.4174825491,
				"element": "H" 
			},
			{
				"x": 1.185762846,
				"y": -3.425147847,
				"z": 3.4063226127,
				"element": "H" 
			},
			{
				"x": -0.865793786,
				"y": -1.9831301076,
				"z": 3.3208284023,
				"element": "H" 
			},
			{
				"x": 0.144016361,
				"y": -1.7138378073,
				"z": 4.71766182,
				"element": "H" 
			},
			{
				"x": 1.1856168271,
				"y": 0.2460135544,
				"z": 3.1285320086,
				"element": "H" 
			},
			{
				"x": -0.1581715446,
				"y": 0.5046935987,
				"z": 4.2160663794,
				"element": "H" 
			},
			{
				"x": -0.5435550989,
				"y": -0.2246058915,
				"z": 1.2742666277,
				"element": "H" 
			},
			{
				"x": -1.7983668462,
				"y": 0.1954903777,
				"z": 2.4171959579,
				"element": "H" 
			},
			{
				"x": 0.4473497704,
				"y": 2.0727693562,
				"z": 1.493310685,
				"element": "H" 
			},
			{
				"x": -0.708469916,
				"y": 2.4670269947,
				"z": 2.7350219029,
				"element": "H" 
			},
			{
				"x": -1.4008109362,
				"y": 3.5031385836,
				"z": 0.6437320577,
				"element": "H" 
			},
			{
				"x": -2.5923635951,
				"y": 2.3522359406,
				"z": 1.2066610585,
				"element": "H" 
			},
			{
				"x": -1.8541648828,
				"y": 0.6941717832,
				"z": -0.5174708977,
				"element": "H" 
			},
			{
				"x": -2.4945283805,
				"y": 2.1916983398,
				"z": -1.1399369774,
				"element": "H" 
			},
			{
				"x": -0.0237878819,
				"y": 2.9863473211,
				"z": -1.423861632,
				"element": "H" 
			},
			{
				"x": -0.7453315936,
				"y": 1.8592180421,
				"z": -2.5676819992,
				"element": "H" 
			},
			{
				"x": 1.0750466768,
				"y": 1.0098717697,
				"z": -0.2403866463,
				"element": "H" 
			},
			{
				"x": 0.2599347521,
				"y": -0.0682056745,
				"z": -1.370935651,
				"element": "H" 
			},
			{
				"x": 2.744942095,
				"y": -0.6545812252,
				"z": -1.0100535314,
				"element": "H" 
			},
			{
				"x": 3.5001472968,
				"y": -0.4332140037,
				"z": -2.6144726237,
				"element": "H" 
			},
			{
				"x": 1.8792781867,
				"y": -1.1670744351,
				"z": -2.4810430967,
				"element": "H" 
			},
			{
				"x": 1.197292668,
				"y": 2.1970390822,
				"z": -3.7189844249,
				"element": "H" 
			},
			{
				"x": 2.4570397502,
				"y": 1.0363840275,
				"z": -4.2147011631,
				"element": "H" 
			},
			{
				"x": 0.797350366,
				"y": 0.4655358209,
				"z": -3.8986121164,
				"element": "H" 
			},
			{
				"x": 3.3049021418,
				"y": 1.6062295367,
				"z": -0.7065892373,
				"element": "H" 
			},
			{
				"x": 3.8506105273,
				"y": 1.7807018338,
				"z": -2.3820942267,
				"element": "H" 
			},
			{
				"x": 3.1040304013,
				"y": 3.785932099,
				"z": -3.7528554199,
				"element": "H" 
			},
			{
				"x": 2.539921523,
				"y": 6.1923743532,
				"z": -3.6617120336,
				"element": "H" 
			},
			{
				"x": 1.5310866576,
				"y": 7.7992963697,
				"z": -0.7171936456,
				"element": "H" 
			},
			{
				"x": 1.6787445465,
				"y": 5.8341794037,
				"z": 0.5357724934,
				"element": "H" 
			},
			{
				"x": 2.2164601365,
				"y": 3.4367341779,
				"z": 0.4507622185,
				"element": "H" 
			}
		],
		 "valence_orbital": [ 
			{
				"type": "occ",
				"energy": -0.3814,
				"method": "rhf"
			},
			{
				"type": "occ",
				"energy": -0.37441,
				"method": "rhf"
			},
			{
				"type": "occ",
				"energy": -0.37412,
				"method": "rhf"
			},
			{
				"type": "occ",
				"energy": -0.37157,
				"method": "rhf"
			},
			{
				"type": "occ",
				"energy": -0.34142,
				"method": "rhf"
			},
			{
				"type": "unocc",
				"energy": -0.13377,
				"method": "rhf"
			},
			{
				"type": "unocc",
				"energy": -0.12618,
				"method": "rhf"
			},
			{
				"type": "unocc",
				"energy": -0.08546,
				"method": "rhf"
			},
			{
				"type": "unocc",
				"energy": -0.0546,
				"method": "rhf"
			},
			{
				"type": "unocc",
				"energy": -0.05171,
				"method": "rhf"
			}
		],
		"cosmo_sigma_profile": { 
			"-0.025": 0.0,
			"-0.024": 0.0,
			"-0.023": 0.0,
			"-0.022": 0.0,
			"-0.021": 0.0,
			"-0.02": 0.0,
			"-0.019": 0.0308705331411,
			"-0.018": 0.932930881191,
			"-0.017": 1.22375796875,
			"-0.016": 1.07654277267,
			"-0.015": 1.33564429234,
			"-0.014": 1.20457464513,
			"-0.013": 0.942175278788,
			"-0.012": 2.57737121943,
			"-0.011": 4.77590240642,
			"-0.01": 7.38722950742,
			"-0.009": 10.439717509,
			"-0.008": 15.1776892357,
			"-0.007": 19.8514833462,
			"-0.006": 25.3985102855,
			"-0.005": 28.8098827843,
			"-0.004": 24.2221756595,
			"-0.003": 21.959820931,
			"-0.002": 52.2429771629,
			"-0.001": 89.3161329177,
			"0.0": 87.1520115785,
			"0.001": 62.6741606637,
			"0.002": 30.8934965339,
			"0.003": 10.3664677419,
			"0.004": 8.27593048622,
			"0.005": 2.21003590519,
			"0.006": 1.09689704361,
			"0.007": 1.84877483613,
			"0.008": 1.58191441532,
			"0.009": 1.27216439581,
			"0.01": 1.7139751286,
			"0.011": 1.28567146966,
			"0.012": 0.00966712234814,
			"0.013": 0.0,
			"0.014": 0.0,
			"0.015": 0.0,
			"0.016": 0.0,
			"0.017": 0.0,
			"0.018": 0.0,
			"0.019": 0.0,
			"0.02": 0.0,
			"0.021": 0.0,
			"0.022": 0.0,
			"0.023": 0.0,
			"0.024": 0.0,
			"0.025": 0.0
		}
	}
}
