{
	 "smiles": "CC1=C(C=CC=C1)C(=O)C1=CC=CC=C1", 
	 "Tm": 255.15, 
	 "num_atms": 27, 
	 "gaussian": { 
		 "optdone": 1, 
		 "sigma_profile": "yes", 
		 "theory": "DFT", 
		 "functional": "B3LYP", 
		 "basiset": "6-31G**", 
		 "properties": { 
			 "R2extent": 3780.1544, 
			 "electric_dipole_moment_norm": 3.05810166443, 
			 "electric_quadrupole_moment_norm": 10.190131691, 
			 "total_energy": -615.950512698, 
			 "HOMO_LUMO_gap": 0.17964, 
			 "cosmo_polarized_energy": -8.79, 
			 "cosmo_cavitation_energy": 30.51, 
			 "cosmo_dispersion_energy": -21.64, 
			 "cosmo_repulsion_energy": 1.68, 
			 "cosmo_total_nonelectrostatic_energy": 10.55, 
			 "SMD_solvation_energy": 5.68 
		},
		"coords": [
			{
				"x": 1.0839943238,
				"y": 0.7009162773,
				"z": 2.2263181368,
				"element": "C" 
			},
			{
				"x": 1.0491402097,
				"y": 0.711575304,
				"z": 0.7125136568,
				"element": "C" 
			},
			{
				"x": -0.0732563257,
				"y": 0.2837498687,
				"z": -0.0297154621,
				"element": "C" 
			},
			{
				"x": -0.0742358455,
				"y": 0.3939735376,
				"z": -1.4282159975,
				"element": "C" 
			},
			{
				"x": 1.0416857123,
				"y": 0.8704758972,
				"z": -2.1107113945,
				"element": "C" 
			},
			{
				"x": 2.1635983016,
				"y": 1.2755876388,
				"z": -1.3868924557,
				"element": "C" 
			},
			{
				"x": 2.153540711,
				"y": 1.2075719325,
				"z": 0.0058612089,
				"element": "C" 
			},
			{
				"x": -1.3456760112,
				"y": -0.2249939669,
				"z": 0.6013528214,
				"element": "C" 
			},
			{
				"x": -2.4135903091,
				"y": 0.305649309,
				"z": 0.3212570254,
				"element": "O" 
			},
			{
				"x": -1.3084943694,
				"y": -1.414786838,
				"z": 1.5116370845,
				"element": "C" 
			},
			{
				"x": -2.4311664465,
				"y": -1.6756493934,
				"z": 2.3132377941,
				"element": "C" 
			},
			{
				"x": -2.459309163,
				"y": -2.7934868032,
				"z": 3.141636836,
				"element": "C" 
			},
			{
				"x": -1.3737223891,
				"y": -3.675237206,
				"z": 3.1632376534,
				"element": "C" 
			},
			{
				"x": -0.2609903682,
				"y": -3.4343275228,
				"z": 2.354605671,
				"element": "C" 
			},
			{
				"x": -0.2254232991,
				"y": -2.3062273,
				"z": 1.5347722943,
				"element": "C" 
			},
			{
				"x": 0.1209657778,
				"y": 0.9842210547,
				"z": 2.6604756372,
				"element": "H" 
			},
			{
				"x": 1.3342059301,
				"y": -0.2885161704,
				"z": 2.6241533475,
				"element": "H" 
			},
			{
				"x": 1.8362200421,
				"y": 1.4046888805,
				"z": 2.5933076922,
				"element": "H" 
			},
			{
				"x": -0.9663931275,
				"y": 0.0978910875,
				"z": -1.9713733898,
				"element": "H" 
			},
			{
				"x": 1.0313364586,
				"y": 0.9358532482,
				"z": -3.1946331665,
				"element": "H" 
			},
			{
				"x": 3.0393716409,
				"y": 1.6593532404,
				"z": -1.9025986194,
				"element": "H" 
			},
			{
				"x": 3.0176044708,
				"y": 1.5580567827,
				"z": 0.5650387863,
				"element": "H" 
			},
			{
				"x": -3.2686595136,
				"y": -0.9874722782,
				"z": 2.2653029827,
				"element": "H" 
			},
			{
				"x": -3.3265090943,
				"y": -2.9837959138,
				"z": 3.7673710756,
				"element": "H" 
			},
			{
				"x": -1.397912589,
				"y": -4.5507381419,
				"z": 3.8060243328,
				"element": "H" 
			},
			{
				"x": 0.5766438111,
				"y": -4.1257048459,
				"z": 2.3606686011,
				"element": "H" 
			},
			{
				"x": 0.6349314616,
				"y": -2.1228276789,
				"z": 0.8985678473,
				"element": "H" 
			}
		],
		 "valence_orbital": [ 
			{
				"type": "occ",
				"energy": -0.26041,
				"method": "rhf"
			},
			{
				"type": "occ",
				"energy": -0.26013,
				"method": "rhf"
			},
			{
				"type": "occ",
				"energy": -0.257,
				"method": "rhf"
			},
			{
				"type": "occ",
				"energy": -0.24629,
				"method": "rhf"
			},
			{
				"type": "occ",
				"energy": -0.23999,
				"method": "rhf"
			},
			{
				"type": "unocc",
				"energy": -0.06035,
				"method": "rhf"
			},
			{
				"type": "unocc",
				"energy": -0.01013,
				"method": "rhf"
			},
			{
				"type": "unocc",
				"energy": -0.00988,
				"method": "rhf"
			},
			{
				"type": "unocc",
				"energy": -0.00199,
				"method": "rhf"
			},
			{
				"type": "unocc",
				"energy": 0.04814,
				"method": "rhf"
			}
		],
		"cosmo_sigma_profile": { 
			"-0.025": 0.0,
			"-0.024": 0.0,
			"-0.023": 0.0,
			"-0.022": 0.0,
			"-0.021": 0.0,
			"-0.02": 0.0,
			"-0.019": 0.0,
			"-0.018": 0.0,
			"-0.017": 0.0,
			"-0.016": 0.0,
			"-0.015": 0.0,
			"-0.014": 0.0,
			"-0.013": 0.0,
			"-0.012": 0.0,
			"-0.011": 0.0,
			"-0.01": 0.0,
			"-0.009": 0.0,
			"-0.008": 0.0,
			"-0.007": 1.08640711107,
			"-0.006": 13.5289510264,
			"-0.005": 21.0758675509,
			"-0.004": 25.086179316,
			"-0.003": 21.7963406303,
			"-0.002": 19.4521751134,
			"-0.001": 20.616344998,
			"0.0": 20.3818329014,
			"0.001": 16.2981510951,
			"0.002": 16.8998311962,
			"0.003": 18.2823329411,
			"0.004": 19.5228698847,
			"0.005": 11.3239163205,
			"0.006": 3.06753364463,
			"0.007": 1.59488842469,
			"0.008": 1.89020345584,
			"0.009": 1.56382440079,
			"0.01": 2.55413993734,
			"0.011": 2.97097878546,
			"0.012": 3.72686633454,
			"0.013": 1.24933022849,
			"0.014": 0.0168587562818,
			"0.015": 0.0,
			"0.016": 0.0,
			"0.017": 0.0,
			"0.018": 0.0,
			"0.019": 0.0,
			"0.02": 0.0,
			"0.021": 0.0,
			"0.022": 0.0,
			"0.023": 0.0,
			"0.024": 0.0,
			"0.025": 0.0
		}
	}
}
