{
	 "smiles": "CCOP(=O)(OCC)N=C1SCCS1", 
	 "Tm": 314.15, 
	 "num_atms": 28, 
	 "gaussian": { 
		 "optdone": 1, 
		 "sigma_profile": "yes", 
		 "theory": "DFT", 
		 "functional": "B3LYP", 
		 "basiset": "6-31G**", 
		 "properties": { 
			 "R2extent": 4812.589, 
			 "electric_dipole_moment_norm": 2.46750234448, 
			 "electric_quadrupole_moment_norm": 27.4634699814, 
			 "total_energy": -1693.40453844, 
			 "HOMO_LUMO_gap": 0.2172, 
			 "cosmo_polarized_energy": -17.77, 
			 "cosmo_cavitation_energy": 35.97, 
			 "cosmo_dispersion_energy": -26.51, 
			 "cosmo_repulsion_energy": 2.07, 
			 "cosmo_total_nonelectrostatic_energy": 11.53, 
			 "SMD_solvation_energy": 6.5 
		},
		"coords": [
			{
				"x": 3.4286453855,
				"y": 0.2100680218,
				"z": 2.9644554247,
				"element": "C" 
			},
			{
				"x": 2.0955534185,
				"y": -0.2164314341,
				"z": 2.37903194,
				"element": "C" 
			},
			{
				"x": 2.0709966661,
				"y": 0.1840137392,
				"z": 0.9888440339,
				"element": "O" 
			},
			{
				"x": 0.8865049756,
				"y": -0.357725202,
				"z": 0.0352917686,
				"element": "P" 
			},
			{
				"x": 0.5973469026,
				"y": -1.811894205,
				"z": 0.1732950818,
				"element": "O" 
			},
			{
				"x": 1.3848616642,
				"y": 0.1573279457,
				"z": -1.4016306763,
				"element": "O" 
			},
			{
				"x": 2.467966989,
				"y": -0.5474547138,
				"z": -2.0600237628,
				"element": "C" 
			},
			{
				"x": 2.5675674252,
				"y": -0.0214529935,
				"z": -3.4790488834,
				"element": "C" 
			},
			{
				"x": -0.3901874848,
				"y": 0.6922285196,
				"z": 0.3284480726,
				"element": "N" 
			},
			{
				"x": -1.6163797885,
				"y": 0.3450232114,
				"z": 0.3360602862,
				"element": "C" 
			},
			{
				"x": -2.8403428031,
				"y": 1.6118044436,
				"z": 0.631641079,
				"element": "S" 
			},
			{
				"x": -4.2562718719,
				"y": 0.4736276853,
				"z": 0.8568935285,
				"element": "C" 
			},
			{
				"x": -4.0469229804,
				"y": -0.7192733431,
				"z": -0.0690931187,
				"element": "C" 
			},
			{
				"x": -2.310498047,
				"y": -1.2971572795,
				"z": 0.0861622219,
				"element": "S" 
			},
			{
				"x": 4.2548132979,
				"y": -0.2803917216,
				"z": 2.4417209961,
				"element": "H" 
			},
			{
				"x": 3.4766696506,
				"y": -0.0647978599,
				"z": 4.0231020209,
				"element": "H" 
			},
			{
				"x": 3.5600034082,
				"y": 1.2925382365,
				"z": 2.8808463813,
				"element": "H" 
			},
			{
				"x": 1.9549943465,
				"y": -1.3003711478,
				"z": 2.4412861031,
				"element": "H" 
			},
			{
				"x": 1.2629766871,
				"y": 0.2734910623,
				"z": 2.8985845047,
				"element": "H" 
			},
			{
				"x": 3.3923709576,
				"y": -0.364189325,
				"z": -1.5010346665,
				"element": "H" 
			},
			{
				"x": 2.2556434284,
				"y": -1.6214633609,
				"z": -2.042449692,
				"element": "H" 
			},
			{
				"x": 2.7613232207,
				"y": 1.0548259676,
				"z": -3.4803530115,
				"element": "H" 
			},
			{
				"x": 3.3866437223,
				"y": -0.5226180174,
				"z": -4.0050139457,
				"element": "H" 
			},
			{
				"x": 1.6389032488,
				"y": -0.2069451511,
				"z": -4.0258727641,
				"element": "H" 
			},
			{
				"x": -5.167854507,
				"y": 1.0213732711,
				"z": 0.6034374374,
				"element": "H" 
			},
			{
				"x": -4.3062501182,
				"y": 0.1621401494,
				"z": 1.9036886299,
				"element": "H" 
			},
			{
				"x": -4.243936291,
				"y": -0.4495029541,
				"z": -1.1102390698,
				"element": "H" 
			},
			{
				"x": -4.6947415028,
				"y": -1.5553935448,
				"z": 0.2085700803,
				"element": "H" 
			}
		],
		 "valence_orbital": [ 
			{
				"type": "occ",
				"energy": -0.29477,
				"method": "rhf"
			},
			{
				"type": "occ",
				"energy": -0.27563,
				"method": "rhf"
			},
			{
				"type": "occ",
				"energy": -0.25398,
				"method": "rhf"
			},
			{
				"type": "occ",
				"energy": -0.25197,
				"method": "rhf"
			},
			{
				"type": "occ",
				"energy": -0.25115,
				"method": "rhf"
			},
			{
				"type": "unocc",
				"energy": -0.03395,
				"method": "rhf"
			},
			{
				"type": "unocc",
				"energy": -0.01054,
				"method": "rhf"
			},
			{
				"type": "unocc",
				"energy": 0.04701,
				"method": "rhf"
			},
			{
				"type": "unocc",
				"energy": 0.05678,
				"method": "rhf"
			},
			{
				"type": "unocc",
				"energy": 0.08081,
				"method": "rhf"
			}
		],
		"cosmo_sigma_profile": { 
			"-0.025": 0.0,
			"-0.024": 0.0,
			"-0.023": 0.0,
			"-0.022": 0.0,
			"-0.021": 0.0,
			"-0.02": 0.0,
			"-0.019": 0.0,
			"-0.018": 0.0,
			"-0.017": 0.0,
			"-0.016": 0.0,
			"-0.015": 0.0,
			"-0.014": 0.0,
			"-0.013": 0.0,
			"-0.012": 0.0,
			"-0.011": 0.0,
			"-0.01": 0.0,
			"-0.009": 0.319901179355,
			"-0.008": 5.77287849708,
			"-0.007": 10.0972180105,
			"-0.006": 12.7002634563,
			"-0.005": 21.427930605,
			"-0.004": 35.2152944612,
			"-0.003": 27.7202274503,
			"-0.002": 22.9998568635,
			"-0.001": 21.4267489941,
			"0.0": 22.1852290127,
			"0.001": 13.3830491547,
			"0.002": 12.9298535274,
			"0.003": 12.0332631887,
			"0.004": 9.64374111393,
			"0.005": 10.8436775505,
			"0.006": 9.02126512262,
			"0.007": 7.39630091092,
			"0.008": 6.40348787439,
			"0.009": 4.7175004453,
			"0.01": 4.82904293728,
			"0.011": 3.00985186841,
			"0.012": 2.95258610463,
			"0.013": 2.43032465488,
			"0.014": 3.39035682189,
			"0.015": 2.10996317736,
			"0.016": 0.0,
			"0.017": 0.0,
			"0.018": 0.0,
			"0.019": 0.0,
			"0.02": 0.0,
			"0.021": 0.0,
			"0.022": 0.0,
			"0.023": 0.0,
			"0.024": 0.0,
			"0.025": 0.0
		}
	}
}
