{
	 "smiles": "NNC1=C2OC3=C(C=CC=C3)C2=NC=N1", 
	 "Tm": 506.15, 
	 "num_atms": 23, 
	 "gaussian": { 
		 "optdone": 1, 
		 "sigma_profile": "yes", 
		 "theory": "DFT", 
		 "functional": "B3LYP", 
		 "basiset": "6-31G**", 
		 "properties": { 
			 "R2extent": 3405.3013, 
			 "electric_dipole_moment_norm": 1.89146200861, 
			 "electric_quadrupole_moment_norm": 8.01652858973, 
			 "total_energy": -680.087356603, 
			 "HOMO_LUMO_gap": 0.17629, 
			 "cosmo_polarized_energy": -11.63, 
			 "cosmo_cavitation_energy": 27.81, 
			 "cosmo_dispersion_energy": -21.06, 
			 "cosmo_repulsion_energy": 1.63, 
			 "cosmo_total_nonelectrostatic_energy": 8.37, 
			 "SMD_solvation_energy": 2.5 
		},
		"coords": [
			{
				"x": -3.556248963,
				"y": -2.0101361945,
				"z": -2.5078075464,
				"element": "N" 
			},
			{
				"x": -3.0082396367,
				"y": -1.036028741,
				"z": -1.650859408,
				"element": "N" 
			},
			{
				"x": -1.7475468872,
				"y": -1.1489229635,
				"z": -1.1349909298,
				"element": "C" 
			},
			{
				"x": -1.1084540406,
				"y": -0.1038978882,
				"z": -0.4511259016,
				"element": "C" 
			},
			{
				"x": -1.5862165647,
				"y": 1.1636879542,
				"z": -0.2096607762,
				"element": "O" 
			},
			{
				"x": -0.5757018765,
				"y": 1.7980782548,
				"z": 0.4873748899,
				"element": "C" 
			},
			{
				"x": 0.530807038,
				"y": 0.9509684615,
				"z": 0.689727396,
				"element": "C" 
			},
			{
				"x": 1.649389774,
				"y": 1.4305892715,
				"z": 1.3806682469,
				"element": "C" 
			},
			{
				"x": 1.622909975,
				"y": 2.7422974102,
				"z": 1.8462968503,
				"element": "C" 
			},
			{
				"x": 0.5034807739,
				"y": 3.5674992845,
				"z": 1.6302118607,
				"element": "C" 
			},
			{
				"x": -0.6215524171,
				"y": 3.1090405135,
				"z": 0.9438492687,
				"element": "C" 
			},
			{
				"x": 0.1679981537,
				"y": -0.305945797,
				"z": 0.0629184848,
				"element": "C" 
			},
			{
				"x": 0.8356868121,
				"y": -1.4723539344,
				"z": -0.0606977293,
				"element": "N" 
			},
			{
				"x": 0.149581523,
				"y": -2.398071138,
				"z": -0.7270777477,
				"element": "C" 
			},
			{
				"x": -1.08107801,
				"y": -2.3064923805,
				"z": -1.2665651547,
				"element": "N" 
			},
			{
				"x": -3.8360558684,
				"y": -2.8020755199,
				"z": -1.9307447261,
				"element": "H" 
			},
			{
				"x": -2.8066348331,
				"y": -2.3623080682,
				"z": -3.1044461822,
				"element": "H" 
			},
			{
				"x": -3.3935067866,
				"y": -0.1105074135,
				"z": -1.7669519781,
				"element": "H" 
			},
			{
				"x": 2.5083930575,
				"y": 0.7879717274,
				"z": 1.5431993707,
				"element": "H" 
			},
			{
				"x": 2.4776186817,
				"y": 3.1389566193,
				"z": 2.3854783275,
				"element": "H" 
			},
			{
				"x": 0.5134443033,
				"y": 4.5861937016,
				"z": 2.0061391935,
				"element": "H" 
			},
			{
				"x": -1.4891123279,
				"y": 3.7365780537,
				"z": 0.7724381635,
				"element": "H" 
			},
			{
				"x": 0.6416381195,
				"y": -3.3594212134,
				"z": -0.8611739723,
				"element": "H" 
			}
		],
		 "valence_orbital": [ 
			{
				"type": "occ",
				"energy": -0.27953,
				"method": "rhf"
			},
			{
				"type": "occ",
				"energy": -0.25537,
				"method": "rhf"
			},
			{
				"type": "occ",
				"energy": -0.25362,
				"method": "rhf"
			},
			{
				"type": "occ",
				"energy": -0.24591,
				"method": "rhf"
			},
			{
				"type": "occ",
				"energy": -0.22337,
				"method": "rhf"
			},
			{
				"type": "unocc",
				"energy": -0.04708,
				"method": "rhf"
			},
			{
				"type": "unocc",
				"energy": -0.00898,
				"method": "rhf"
			},
			{
				"type": "unocc",
				"energy": 0.00087,
				"method": "rhf"
			},
			{
				"type": "unocc",
				"energy": 0.02869,
				"method": "rhf"
			},
			{
				"type": "unocc",
				"energy": 0.07931,
				"method": "rhf"
			}
		],
		"cosmo_sigma_profile": { 
			"-0.025": 0.0,
			"-0.024": 0.0,
			"-0.023": 0.0,
			"-0.022": 0.0,
			"-0.021": 0.0,
			"-0.02": 0.0,
			"-0.019": 0.0,
			"-0.018": 0.0,
			"-0.017": 0.0,
			"-0.016": 0.0,
			"-0.015": 0.0821002404657,
			"-0.014": 0.72307728965,
			"-0.013": 1.31953983442,
			"-0.012": 0.966321034277,
			"-0.011": 1.6992207716,
			"-0.01": 3.29218808914,
			"-0.009": 3.60677717915,
			"-0.008": 3.63971819015,
			"-0.007": 7.49096811087,
			"-0.006": 12.4603207604,
			"-0.005": 12.5296327941,
			"-0.004": 12.5395651877,
			"-0.003": 10.6854957538,
			"-0.002": 13.7247787812,
			"-0.001": 18.4762706552,
			"0.0": 15.627751312,
			"0.001": 19.5045622286,
			"0.002": 17.9160304938,
			"0.003": 17.4873406009,
			"0.004": 16.1050355045,
			"0.005": 7.6675961869,
			"0.006": 4.02385381695,
			"0.007": 3.18534044511,
			"0.008": 3.39059233645,
			"0.009": 2.66697722077,
			"0.01": 2.69537809854,
			"0.011": 1.72602499612,
			"0.012": 1.92688813604,
			"0.013": 2.0997482976,
			"0.014": 1.72455909424,
			"0.015": 1.36535432436,
			"0.016": 1.06136937485,
			"0.017": 0.116685361154,
			"0.018": 0.0,
			"0.019": 0.0,
			"0.02": 0.0,
			"0.021": 0.0,
			"0.022": 0.0,
			"0.023": 0.0,
			"0.024": 0.0,
			"0.025": 0.0
		}
	}
}
