{
	 "smiles": "ClC1=CC=CC(C2=NN=NN2)=C1Cl", 
	 "Tm": 454.15, 
	 "num_atms": 17, 
	 "gaussian": { 
		 "optdone": 1, 
		 "sigma_profile": "yes", 
		 "theory": "DFT", 
		 "functional": "B3LYP", 
		 "basiset": "6-31G**", 
		 "properties": { 
			 "R2extent": 4636.3366, 
			 "electric_dipole_moment_norm": 4.34054066333, 
			 "electric_quadrupole_moment_norm": 16.467939488, 
			 "total_energy": -1408.48718235, 
			 "HOMO_LUMO_gap": 0.19237, 
			 "cosmo_polarized_energy": -13.4, 
			 "cosmo_cavitation_energy": 25.32, 
			 "cosmo_dispersion_energy": -19.47, 
			 "cosmo_repulsion_energy": 1.5, 
			 "cosmo_total_nonelectrostatic_energy": 7.36, 
			 "SMD_solvation_energy": 2.06 
		},
		"coords": [
			{
				"x": 1.3776172282,
				"y": 3.903692913,
				"z": 0.4365808132,
				"element": "Cl" 
			},
			{
				"x": 0.7467815268,
				"y": 2.2775260625,
				"z": 0.3654265489,
				"element": "C" 
			},
			{
				"x": 0.8044221734,
				"y": 1.5999640793,
				"z": -0.851439861,
				"element": "C" 
			},
			{
				"x": 0.309543253,
				"y": 0.3009836238,
				"z": -0.9418563329,
				"element": "C" 
			},
			{
				"x": -0.2383739732,
				"y": -0.3165413831,
				"z": 0.1732334221,
				"element": "C" 
			},
			{
				"x": -0.3086975442,
				"y": 0.345051056,
				"z": 1.4133280306,
				"element": "C" 
			},
			{
				"x": -0.9122695313,
				"y": -0.4219052383,
				"z": 2.5130865211,
				"element": "C" 
			},
			{
				"x": -1.3706507255,
				"y": -1.662811268,
				"z": 2.373697987,
				"element": "N" 
			},
			{
				"x": -1.8479366484,
				"y": -2.0410440259,
				"z": 3.5793401575,
				"element": "N" 
			},
			{
				"x": -1.7059213575,
				"y": -1.0969997859,
				"z": 4.4551134698,
				"element": "N" 
			},
			{
				"x": -1.1206021658,
				"y": -0.0721625522,
				"z": 3.8030868246,
				"element": "N" 
			},
			{
				"x": 0.1938004947,
				"y": 1.6597967423,
				"z": 1.4989723966,
				"element": "C" 
			},
			{
				"x": 0.1494389531,
				"y": 2.5638779532,
				"z": 3.0020435727,
				"element": "Cl" 
			},
			{
				"x": 1.2359530738,
				"y": 2.0983867626,
				"z": -1.7119013455,
				"element": "H" 
			},
			{
				"x": 0.3533211983,
				"y": -0.2283866061,
				"z": -1.8878657717,
				"element": "H" 
			},
			{
				"x": -0.6278573255,
				"y": -1.3261422228,
				"z": 0.1209235157,
				"element": "H" 
			},
			{
				"x": -0.9045686296,
				"y": 0.7903138897,
				"z": 4.2805300513,
				"element": "H" 
			}
		],
		 "valence_orbital": [ 
			{
				"type": "occ",
				"energy": -0.32602,
				"method": "rhf"
			},
			{
				"type": "occ",
				"energy": -0.30464,
				"method": "rhf"
			},
			{
				"type": "occ",
				"energy": -0.29054,
				"method": "rhf"
			},
			{
				"type": "occ",
				"energy": -0.27501,
				"method": "rhf"
			},
			{
				"type": "occ",
				"energy": -0.26622,
				"method": "rhf"
			},
			{
				"type": "unocc",
				"energy": -0.07385,
				"method": "rhf"
			},
			{
				"type": "unocc",
				"energy": -0.04421,
				"method": "rhf"
			},
			{
				"type": "unocc",
				"energy": -0.02345,
				"method": "rhf"
			},
			{
				"type": "unocc",
				"energy": -0.00731,
				"method": "rhf"
			},
			{
				"type": "unocc",
				"energy": 0.03622,
				"method": "rhf"
			}
		],
		"cosmo_sigma_profile": { 
			"-0.025": 0.0,
			"-0.024": 0.0,
			"-0.023": 0.0,
			"-0.022": 0.0,
			"-0.021": 0.0,
			"-0.02": 0.0,
			"-0.019": 0.0,
			"-0.018": 0.410127069028,
			"-0.017": 0.641643465632,
			"-0.016": 0.429307207013,
			"-0.015": 0.939208827615,
			"-0.014": 1.19603176349,
			"-0.013": 0.536373366508,
			"-0.012": 0.96239115328,
			"-0.011": 0.883444081884,
			"-0.01": 1.32703688217,
			"-0.009": 1.67627840162,
			"-0.008": 4.96477578729,
			"-0.007": 9.60260107985,
			"-0.006": 8.01158139463,
			"-0.005": 7.89880953941,
			"-0.004": 11.7538313104,
			"-0.003": 10.9114901439,
			"-0.002": 14.0399750831,
			"-0.001": 21.0730972451,
			"0.0": 21.5202328028,
			"0.001": 17.4658596224,
			"0.002": 13.6730172835,
			"0.003": 15.2280911166,
			"0.004": 10.1504964291,
			"0.005": 3.17497639476,
			"0.006": 3.77502469382,
			"0.007": 3.94971157037,
			"0.008": 5.36303885057,
			"0.009": 3.78346972032,
			"0.01": 5.43685348985,
			"0.011": 3.98178933049,
			"0.012": 3.16398808841,
			"0.013": 1.44036893056,
			"0.014": 0.333703229682,
			"0.015": 0.0,
			"0.016": 0.0,
			"0.017": 0.0,
			"0.018": 0.0,
			"0.019": 0.0,
			"0.02": 0.0,
			"0.021": 0.0,
			"0.022": 0.0,
			"0.023": 0.0,
			"0.024": 0.0,
			"0.025": 0.0
		}
	}
}
