{
	 "smiles": "CCN(CCO)S(=O)(=O)C(F)(F)C(F)(F)C(F)(F)C(F)(F)C(F)(F)C(F)(F)C(F)(F)C(F)(F)F", 
	 "Tm": 330.65, 
	 "num_atms": 44, 
	 "gaussian": { 
		 "optdone": 1, 
		 "sigma_profile": "yes", 
		 "theory": "DFT", 
		 "functional": "B3LYP", 
		 "basiset": "6-31G**", 
		 "properties": { 
			 "R2extent": 20039.0026, 
			 "electric_dipole_moment_norm": 4.76632599074, 
			 "electric_quadrupole_moment_norm": 10.2314985838, 
			 "total_energy": -2839.03132704, 
			 "HOMO_LUMO_gap": 0.27383, 
			 "cosmo_polarized_energy": -11.82, 
			 "cosmo_cavitation_energy": 52.95, 
			 "cosmo_dispersion_energy": -34.63, 
			 "cosmo_repulsion_energy": 2.28, 
			 "cosmo_total_nonelectrostatic_energy": 20.6, 
			 "SMD_solvation_energy": 13.36 
		},
		"coords": [
			{
				"x": 4.3377269183,
				"y": -0.6686898318,
				"z": 3.5924801386,
				"element": "C" 
			},
			{
				"x": 2.8802235634,
				"y": -1.0113660696,
				"z": 3.2883103887,
				"element": "C" 
			},
			{
				"x": 2.614072524,
				"y": -1.1694251047,
				"z": 1.8352784856,
				"element": "N" 
			},
			{
				"x": 2.9469872266,
				"y": -2.440138032,
				"z": 1.1690574756,
				"element": "C" 
			},
			{
				"x": 1.9011937568,
				"y": -3.5353300403,
				"z": 1.342601098,
				"element": "C" 
			},
			{
				"x": 1.8876505319,
				"y": -3.9423290522,
				"z": 2.7062982427,
				"element": "O" 
			},
			{
				"x": 2.106924729,
				"y": 0.1249180518,
				"z": 0.9579117433,
				"element": "S" 
			},
			{
				"x": 2.4430960901,
				"y": 1.3525159719,
				"z": 1.6737853355,
				"element": "O" 
			},
			{
				"x": 2.4195590187,
				"y": -0.0960193616,
				"z": -0.4517875268,
				"element": "O" 
			},
			{
				"x": 0.2275972178,
				"y": -0.0067203714,
				"z": 1.0776411463,
				"element": "C" 
			},
			{
				"x": -0.0624765222,
				"y": -0.299252424,
				"z": 2.3676875087,
				"element": "F" 
			},
			{
				"x": -0.1634840006,
				"y": -1.0442171555,
				"z": 0.3033348855,
				"element": "F" 
			},
			{
				"x": -0.6448701396,
				"y": 1.234650896,
				"z": 0.7208005254,
				"element": "C" 
			},
			{
				"x": -1.9307337783,
				"y": 0.8267996047,
				"z": 0.8887600749,
				"element": "F" 
			},
			{
				"x": -0.3791696807,
				"y": 2.2161441214,
				"z": 1.6032831547,
				"element": "F" 
			},
			{
				"x": -0.4935813949,
				"y": 1.7893668444,
				"z": -0.7171972891,
				"element": "C" 
			},
			{
				"x": -0.728617904,
				"y": 0.791549212,
				"z": -1.6009744103,
				"element": "F" 
			},
			{
				"x": 0.7838923499,
				"y": 2.2127758927,
				"z": -0.8570819979,
				"element": "F" 
			},
			{
				"x": -1.374259338,
				"y": 3.0174171247,
				"z": -1.1136706624,
				"element": "C" 
			},
			{
				"x": -0.9561131984,
				"y": 3.3841874773,
				"z": -2.3463986198,
				"element": "F" 
			},
			{
				"x": -1.1037844259,
				"y": 4.0185781269,
				"z": -0.2450516474,
				"element": "F" 
			},
			{
				"x": -2.9327778747,
				"y": 2.9114801358,
				"z": -1.1689028677,
				"element": "C" 
			},
			{
				"x": -3.4066077269,
				"y": 2.801188315,
				"z": 0.0895913197,
				"element": "F" 
			},
			{
				"x": -3.3511554044,
				"y": 4.0943554177,
				"z": -1.6861733523,
				"element": "F" 
			},
			{
				"x": -3.5377128761,
				"y": 1.7732401553,
				"z": -2.0388656362,
				"element": "C" 
			},
			{
				"x": -2.8461469962,
				"y": 1.6786866638,
				"z": -3.1958549929,
				"element": "F" 
			},
			{
				"x": -3.4269550113,
				"y": 0.6070088988,
				"z": -1.3581269078,
				"element": "F" 
			},
			{
				"x": -5.0364895864,
				"y": 1.9965340739,
				"z": -2.3946014075,
				"element": "C" 
			},
			{
				"x": -5.115760963,
				"y": 2.9282178807,
				"z": -3.367623716,
				"element": "F" 
			},
			{
				"x": -5.7001394634,
				"y": 2.433787212,
				"z": -1.2991947741,
				"element": "F" 
			},
			{
				"x": -5.7603694536,
				"y": 0.7202973368,
				"z": -2.901846394,
				"element": "C" 
			},
			{
				"x": -5.0427591126,
				"y": 0.1279259687,
				"z": -3.8659161115,
				"element": "F" 
			},
			{
				"x": -5.9485051457,
				"y": -0.1440580568,
				"z": -1.8995410925,
				"element": "F" 
			},
			{
				"x": -6.9521855835,
				"y": 1.0682691491,
				"z": -3.4004647104,
				"element": "F" 
			},
			{
				"x": 4.6069324086,
				"y": 0.2948107396,
				"z": 3.1528885162,
				"element": "H" 
			},
			{
				"x": 5.0214920328,
				"y": -1.4322965853,
				"z": 3.2078726952,
				"element": "H" 
			},
			{
				"x": 4.4844454999,
				"y": -0.6084149916,
				"z": 4.6761185785,
				"element": "H" 
			},
			{
				"x": 2.2208444578,
				"y": -0.2313784736,
				"z": 3.6705800262,
				"element": "H" 
			},
			{
				"x": 2.5811104668,
				"y": -1.9542814779,
				"z": 3.7494406295,
				"element": "H" 
			},
			{
				"x": 3.9029034899,
				"y": -2.7873415813,
				"z": 1.5763505472,
				"element": "H" 
			},
			{
				"x": 3.0938101602,
				"y": -2.2425507643,
				"z": 0.1060704054,
				"element": "H" 
			},
			{
				"x": 0.9221533744,
				"y": -3.1562388215,
				"z": 1.022214372,
				"element": "H" 
			},
			{
				"x": 2.1749148587,
				"y": -4.3728164285,
				"z": 0.68031137,
				"element": "H" 
			},
			{
				"x": 1.1286249049,
				"y": -4.5213406471,
				"z": 2.8457054529,
				"element": "H" 
			}
		],
		 "valence_orbital": [ 
			{
				"type": "occ",
				"energy": -0.33917,
				"method": "rhf"
			},
			{
				"type": "occ",
				"energy": -0.32195,
				"method": "rhf"
			},
			{
				"type": "occ",
				"energy": -0.31217,
				"method": "rhf"
			},
			{
				"type": "occ",
				"energy": -0.29058,
				"method": "rhf"
			},
			{
				"type": "occ",
				"energy": -0.2681,
				"method": "rhf"
			},
			{
				"type": "unocc",
				"energy": 0.00573,
				"method": "rhf"
			},
			{
				"type": "unocc",
				"energy": 0.00716,
				"method": "rhf"
			},
			{
				"type": "unocc",
				"energy": 0.02213,
				"method": "rhf"
			},
			{
				"type": "unocc",
				"energy": 0.03069,
				"method": "rhf"
			},
			{
				"type": "unocc",
				"energy": 0.04952,
				"method": "rhf"
			}
		],
		"cosmo_sigma_profile": { 
			"-0.025": 0.0,
			"-0.024": 0.0,
			"-0.023": 0.0,
			"-0.022": 0.0,
			"-0.021": 0.0,
			"-0.02": 0.0,
			"-0.019": 0.0,
			"-0.018": 0.0,
			"-0.017": 0.0976264196924,
			"-0.016": 0.913516249306,
			"-0.015": 1.13409659755,
			"-0.014": 0.80827855432,
			"-0.013": 1.07809271613,
			"-0.012": 0.727252149719,
			"-0.011": 0.580846149676,
			"-0.01": 1.26676581793,
			"-0.009": 0.777051283718,
			"-0.008": 0.893470343579,
			"-0.007": 1.56948003184,
			"-0.006": 6.24096445768,
			"-0.005": 11.6185453314,
			"-0.004": 19.1101346904,
			"-0.003": 26.8748743181,
			"-0.002": 31.3815914292,
			"-0.001": 44.3905595918,
			"0.0": 89.7324419536,
			"0.001": 114.387716198,
			"0.002": 15.4458516356,
			"0.003": 7.65755050249,
			"0.004": 7.33575307538,
			"0.005": 6.06030581106,
			"0.006": 6.22643119673,
			"0.007": 5.51773984878,
			"0.008": 6.71223888203,
			"0.009": 7.05392179554,
			"0.01": 3.24141400322,
			"0.011": 0.948586350506,
			"0.012": 0.70154824051,
			"0.013": 0.578155223426,
			"0.014": 0.22802707876,
			"0.015": 0.0,
			"0.016": 0.0,
			"0.017": 0.0,
			"0.018": 0.0,
			"0.019": 0.0,
			"0.02": 0.0,
			"0.021": 0.0,
			"0.022": 0.0,
			"0.023": 0.0,
			"0.024": 0.0,
			"0.025": 0.0
		}
	}
}
