{
	 "smiles": "NC1=NC=C(C=C1)N1CCOCC1", 
	 "Tm": 417.15, 
	 "num_atms": 26, 
	 "gaussian": { 
		 "optdone": 1, 
		 "sigma_profile": "yes", 
		 "theory": "DFT", 
		 "functional": "B3LYP", 
		 "basiset": "6-31G**", 
		 "properties": { 
			 "R2extent": 3135.2059, 
			 "electric_dipole_moment_norm": 1.73261842885, 
			 "electric_quadrupole_moment_norm": 8.144584017, 
			 "total_energy": -590.242953569, 
			 "HOMO_LUMO_gap": 0.16444, 
			 "cosmo_polarized_energy": -12.91, 
			 "cosmo_cavitation_energy": 27.81, 
			 "cosmo_dispersion_energy": -21.18, 
			 "cosmo_repulsion_energy": 1.67, 
			 "cosmo_total_nonelectrostatic_energy": 8.3, 
			 "SMD_solvation_energy": 2.09 
		},
		"coords": [
			{
				"x": 0.4234046159,
				"y": -3.0324629425,
				"z": -3.14772315,
				"element": "N" 
			},
			{
				"x": 0.2783584833,
				"y": -2.0810743328,
				"z": -2.1359233347,
				"element": "C" 
			},
			{
				"x": 1.1189600889,
				"y": -1.0424954267,
				"z": -2.1612100071,
				"element": "N" 
			},
			{
				"x": 1.0671565484,
				"y": -0.1431783032,
				"z": -1.1715828993,
				"element": "C" 
			},
			{
				"x": 0.1574816097,
				"y": -0.1917395336,
				"z": -0.0995013208,
				"element": "C" 
			},
			{
				"x": -0.7328969439,
				"y": -1.2871121354,
				"z": -0.1006090466,
				"element": "C" 
			},
			{
				"x": -0.6678620274,
				"y": -2.2376067822,
				"z": -1.1066207133,
				"element": "C" 
			},
			{
				"x": 0.1121636882,
				"y": 0.7893355776,
				"z": 0.8917757942,
				"element": "N" 
			},
			{
				"x": 0.9157637227,
				"y": 1.997200753,
				"z": 0.7785790985,
				"element": "C" 
			},
			{
				"x": 0.3852773636,
				"y": 3.0569616412,
				"z": 1.7412184374,
				"element": "C" 
			},
			{
				"x": 0.3880657892,
				"y": 2.6393794597,
				"z": 3.1052957576,
				"element": "O" 
			},
			{
				"x": 0.3945347904,
				"y": 1.2296560675,
				"z": 3.2880969952,
				"element": "C" 
			},
			{
				"x": -0.4085076464,
				"y": 0.4832830461,
				"z": 2.2233471313,
				"element": "C" 
			},
			{
				"x": -0.4289829285,
				"y": -3.4944470321,
				"z": -3.4338968242,
				"element": "H" 
			},
			{
				"x": 0.956704059,
				"y": -2.6758549137,
				"z": -3.930249208,
				"element": "H" 
			},
			{
				"x": 1.793919063,
				"y": 0.6617723446,
				"z": -1.2416042782,
				"element": "H" 
			},
			{
				"x": -1.4833537448,
				"y": -1.3861910887,
				"z": 0.6767612356,
				"element": "H" 
			},
			{
				"x": -1.3427052683,
				"y": -3.0889014956,
				"z": -1.1018786858,
				"element": "H" 
			},
			{
				"x": 1.9881425077,
				"y": 1.8164486062,
				"z": 0.9698343807,
				"element": "H" 
			},
			{
				"x": 0.8361547213,
				"y": 2.3921063951,
				"z": -0.2410577027,
				"element": "H" 
			},
			{
				"x": 1.0038466852,
				"y": 3.9590394845,
				"z": 1.6760649643,
				"element": "H" 
			},
			{
				"x": -0.6386656936,
				"y": 3.3267181592,
				"z": 1.4413435816,
				"element": "H" 
			},
			{
				"x": 1.427644738,
				"y": 0.8475199582,
				"z": 3.2923411798,
				"element": "H" 
			},
			{
				"x": -0.0334822865,
				"y": 1.0403008899,
				"z": 4.2778654352,
				"element": "H" 
			},
			{
				"x": -1.4745291547,
				"y": 0.7456374186,
				"z": 2.3141833314,
				"element": "H" 
			},
			{
				"x": -0.3200927804,
				"y": -0.5920958148,
				"z": 2.4205498479,
				"element": "H" 
			}
		],
		 "valence_orbital": [ 
			{
				"type": "occ",
				"energy": -0.27204,
				"method": "rhf"
			},
			{
				"type": "occ",
				"energy": -0.25433,
				"method": "rhf"
			},
			{
				"type": "occ",
				"energy": -0.24771,
				"method": "rhf"
			},
			{
				"type": "occ",
				"energy": -0.24312,
				"method": "rhf"
			},
			{
				"type": "occ",
				"energy": -0.1743,
				"method": "rhf"
			},
			{
				"type": "unocc",
				"energy": -0.00986,
				"method": "rhf"
			},
			{
				"type": "unocc",
				"energy": 0.02869,
				"method": "rhf"
			},
			{
				"type": "unocc",
				"energy": 0.08057,
				"method": "rhf"
			},
			{
				"type": "unocc",
				"energy": 0.09422,
				"method": "rhf"
			},
			{
				"type": "unocc",
				"energy": 0.10881,
				"method": "rhf"
			}
		],
		"cosmo_sigma_profile": { 
			"-0.025": 0.0,
			"-0.024": 0.0,
			"-0.023": 0.0,
			"-0.022": 0.0,
			"-0.021": 0.0,
			"-0.02": 0.0,
			"-0.019": 0.0,
			"-0.018": 0.0,
			"-0.017": 0.0,
			"-0.016": 0.0,
			"-0.015": 0.0,
			"-0.014": 0.0,
			"-0.013": 0.0956564701535,
			"-0.012": 1.3955632115,
			"-0.011": 2.14118049378,
			"-0.01": 2.14428098566,
			"-0.009": 2.99938009938,
			"-0.008": 2.16916592403,
			"-0.007": 2.53266551642,
			"-0.006": 8.27435446886,
			"-0.005": 19.5315300304,
			"-0.004": 27.4716426433,
			"-0.003": 27.8662894957,
			"-0.002": 17.4806360404,
			"-0.001": 11.194143825,
			"0.0": 7.80347420493,
			"0.001": 8.51056578501,
			"0.002": 7.8513327285,
			"0.003": 7.88411650108,
			"0.004": 13.2263966814,
			"0.005": 13.041737327,
			"0.006": 5.63745516181,
			"0.007": 4.35440213272,
			"0.008": 3.90636859246,
			"0.009": 3.12346611745,
			"0.01": 3.29207728843,
			"0.011": 3.45783997967,
			"0.012": 2.69365237275,
			"0.013": 3.30278511378,
			"0.014": 2.92552655871,
			"0.015": 0.82069007286,
			"0.016": 0.884017835591,
			"0.017": 0.278400224223,
			"0.018": 0.0,
			"0.019": 0.0,
			"0.02": 0.0,
			"0.021": 0.0,
			"0.022": 0.0,
			"0.023": 0.0,
			"0.024": 0.0,
			"0.025": 0.0
		}
	}
}
