{
	 "smiles": "O=CC1=CC=C(S1)C#CC1=CC=CC=C1", 
	 "Tm": 364.15, 
	 "num_atms": 23, 
	 "gaussian": { 
		 "optdone": 1, 
		 "sigma_profile": "yes", 
		 "theory": "DFT", 
		 "functional": "B3LYP", 
		 "basiset": "6-31G**", 
		 "properties": { 
			 "R2extent": 6293.2238, 
			 "electric_dipole_moment_norm": 4.61536740683, 
			 "electric_quadrupole_moment_norm": 23.2822937996, 
			 "total_energy": -973.542546435, 
			 "HOMO_LUMO_gap": 0.13322, 
			 "cosmo_polarized_energy": -10.33, 
			 "cosmo_cavitation_energy": 31.66, 
			 "cosmo_dispersion_energy": -23.06, 
			 "cosmo_repulsion_energy": 1.77, 
			 "cosmo_total_nonelectrostatic_energy": 10.38, 
			 "SMD_solvation_energy": 6.27 
		},
		"coords": [
			{
				"x": -3.54841581,
				"y": 2.7337030835,
				"z": -4.3943306314,
				"element": "O" 
			},
			{
				"x": -3.6611136056,
				"y": 3.0303732184,
				"z": -3.2164267198,
				"element": "C" 
			},
			{
				"x": -2.9288667421,
				"y": 2.3995576206,
				"z": -2.1272147829,
				"element": "C" 
			},
			{
				"x": -3.0138773908,
				"y": 2.6913216616,
				"z": -0.7779660765,
				"element": "C" 
			},
			{
				"x": -2.1676721642,
				"y": 1.8939254447,
				"z": 0.0194106603,
				"element": "C" 
			},
			{
				"x": -1.4275658063,
				"y": 0.9825892782,
				"z": -0.7251788438,
				"element": "C" 
			},
			{
				"x": -1.7872161616,
				"y": 1.118835159,
				"z": -2.4348972207,
				"element": "S" 
			},
			{
				"x": -0.4951447502,
				"y": 0.0435050284,
				"z": -0.2555563084,
				"element": "C" 
			},
			{
				"x": 0.3169062716,
				"y": -0.7763248152,
				"z": 0.1348091862,
				"element": "C" 
			},
			{
				"x": 1.2635332054,
				"y": -1.7311771867,
				"z": 0.598645361,
				"element": "C" 
			},
			{
				"x": 1.5523888466,
				"y": -1.8428718627,
				"z": 1.9744865524,
				"element": "C" 
			},
			{
				"x": 2.4797912654,
				"y": -2.7791355537,
				"z": 2.4217438104,
				"element": "C" 
			},
			{
				"x": 3.1320330752,
				"y": -3.6157290154,
				"z": 1.5119171797,
				"element": "C" 
			},
			{
				"x": 2.8522683219,
				"y": -3.5122972608,
				"z": 0.1466433818,
				"element": "C" 
			},
			{
				"x": 1.9266661616,
				"y": -2.5796535153,
				"z": -0.3119465851,
				"element": "C" 
			},
			{
				"x": -4.3562651011,
				"y": 3.8317075718,
				"z": -2.8838118615,
				"element": "H" 
			},
			{
				"x": -3.6710672008,
				"y": 3.4605584002,
				"z": -0.3862158518,
				"element": "H" 
			},
			{
				"x": -2.0866695853,
				"y": 1.9661367289,
				"z": 1.0969973484,
				"element": "H" 
			},
			{
				"x": 1.0434581567,
				"y": -1.1911296256,
				"z": 2.6771589263,
				"element": "H" 
			},
			{
				"x": 2.6949782004,
				"y": -2.8570316241,
				"z": 3.4833733154,
				"element": "H" 
			},
			{
				"x": 3.8550108496,
				"y": -4.3449241467,
				"z": 1.8652801966,
				"element": "H" 
			},
			{
				"x": 3.3573290472,
				"y": -4.1608626661,
				"z": -0.5630250409,
				"element": "H" 
			},
			{
				"x": 1.7062109164,
				"y": -2.4956759232,
				"z": -1.3710959958,
				"element": "H" 
			}
		],
		 "valence_orbital": [ 
			{
				"type": "occ",
				"energy": -0.27561,
				"method": "rhf"
			},
			{
				"type": "occ",
				"energy": -0.26908,
				"method": "rhf"
			},
			{
				"type": "occ",
				"energy": -0.26515,
				"method": "rhf"
			},
			{
				"type": "occ",
				"energy": -0.25765,
				"method": "rhf"
			},
			{
				"type": "occ",
				"energy": -0.21886,
				"method": "rhf"
			},
			{
				"type": "unocc",
				"energy": -0.08564,
				"method": "rhf"
			},
			{
				"type": "unocc",
				"energy": -0.03119,
				"method": "rhf"
			},
			{
				"type": "unocc",
				"energy": -0.01357,
				"method": "rhf"
			},
			{
				"type": "unocc",
				"energy": 0.00985,
				"method": "rhf"
			},
			{
				"type": "unocc",
				"energy": 0.01781,
				"method": "rhf"
			}
		],
		"cosmo_sigma_profile": { 
			"-0.025": 0.0,
			"-0.024": 0.0,
			"-0.023": 0.0,
			"-0.022": 0.0,
			"-0.021": 0.0,
			"-0.02": 0.0,
			"-0.019": 0.0,
			"-0.018": 0.0,
			"-0.017": 0.0,
			"-0.016": 0.0,
			"-0.015": 0.0,
			"-0.014": 0.0,
			"-0.013": 0.0,
			"-0.012": 0.0,
			"-0.011": 0.0,
			"-0.01": 0.0,
			"-0.009": 1.50309872561,
			"-0.008": 5.71044949149,
			"-0.007": 9.18542352644,
			"-0.006": 16.7900193272,
			"-0.005": 16.8404053235,
			"-0.004": 15.8534266417,
			"-0.003": 13.3317298295,
			"-0.002": 14.0322426594,
			"-0.001": 14.2891570573,
			"0.0": 19.2795627971,
			"0.001": 31.1307028883,
			"0.002": 33.7984830676,
			"0.003": 23.9057206318,
			"0.004": 20.4116021752,
			"0.005": 4.75924212188,
			"0.006": 1.71956935196,
			"0.007": 1.38374686267,
			"0.008": 1.60425148708,
			"0.009": 2.43936271528,
			"0.01": 2.61957780669,
			"0.011": 4.04982521698,
			"0.012": 3.36054866751,
			"0.013": 0.874193289784,
			"0.014": 0.0,
			"0.015": 0.0,
			"0.016": 0.0,
			"0.017": 0.0,
			"0.018": 0.0,
			"0.019": 0.0,
			"0.02": 0.0,
			"0.021": 0.0,
			"0.022": 0.0,
			"0.023": 0.0,
			"0.024": 0.0,
			"0.025": 0.0
		}
	}
}
