{
	 "smiles": "C(C1=NC2=C(N1)C=CC=C2)C1=NC2=C(S1)C=CC=C2", 
	 "Tm": 468.15, 
	 "num_atms": 30, 
	 "gaussian": { 
		 "optdone": 1, 
		 "sigma_profile": "yes", 
		 "theory": "DFT", 
		 "functional": "B3LYP", 
		 "basiset": "6-31G**", 
		 "properties": { 
			 "R2extent": 7655.8045, 
			 "electric_dipole_moment_norm": 4.29167381449, 
			 "electric_quadrupole_moment_norm": 10.1151356165, 
			 "total_energy": -1140.69882456, 
			 "HOMO_LUMO_gap": 0.16696, 
			 "cosmo_polarized_energy": -12.21, 
			 "cosmo_cavitation_energy": 35.92, 
			 "cosmo_dispersion_energy": -27.23, 
			 "cosmo_repulsion_energy": 2.02, 
			 "cosmo_total_nonelectrostatic_energy": 10.72, 
			 "SMD_solvation_energy": 1.83 
		},
		"coords": [
			{
				"x": 2.794993735,
				"y": -0.0531636065,
				"z": 0.1207996864,
				"element": "C" 
			},
			{
				"x": 1.8403237815,
				"y": -0.1816182594,
				"z": 1.2759488212,
				"element": "C" 
			},
			{
				"x": 2.0880819868,
				"y": 0.2752798728,
				"z": 2.4809768648,
				"element": "N" 
			},
			{
				"x": 0.986724557,
				"y": -0.1100134079,
				"z": 3.2352592017,
				"element": "C" 
			},
			{
				"x": 0.0604677526,
				"y": -0.8183703789,
				"z": 2.428504149,
				"element": "C" 
			},
			{
				"x": 0.6485390914,
				"y": -0.8592517477,
				"z": 1.1776237196,
				"element": "N" 
			},
			{
				"x": -1.1465256268,
				"y": -1.3112478094,
				"z": 2.9292210414,
				"element": "C" 
			},
			{
				"x": -1.4069520928,
				"y": -1.0802286355,
				"z": 4.27780942,
				"element": "C" 
			},
			{
				"x": -0.4955260719,
				"y": -0.3816250979,
				"z": 5.0956851784,
				"element": "C" 
			},
			{
				"x": 0.7038233159,
				"y": 0.1094526167,
				"z": 4.5894664829,
				"element": "C" 
			},
			{
				"x": 2.1466469236,
				"y": 0.1084264232,
				"z": -1.2306715137,
				"element": "C" 
			},
			{
				"x": 1.0901458683,
				"y": -0.5352084668,
				"z": -1.619082351,
				"element": "N" 
			},
			{
				"x": 0.7531975924,
				"y": -0.2257212528,
				"z": -2.9298800716,
				"element": "C" 
			},
			{
				"x": 1.6135407926,
				"y": 0.7004878218,
				"z": -3.5663698452,
				"element": "C" 
			},
			{
				"x": 2.8689918126,
				"y": 1.1822866929,
				"z": -2.4423840828,
				"element": "S" 
			},
			{
				"x": 1.3997380099,
				"y": 1.1050658585,
				"z": -4.8864161446,
				"element": "C" 
			},
			{
				"x": 0.3099293829,
				"y": 0.5682934539,
				"z": -5.5667909236,
				"element": "C" 
			},
			{
				"x": -0.5510626275,
				"y": -0.353180436,
				"z": -4.9453330771,
				"element": "C" 
			},
			{
				"x": -0.3389784404,
				"y": -0.7547371102,
				"z": -3.6322027842,
				"element": "C" 
			},
			{
				"x": 3.4328829963,
				"y": -0.9491434951,
				"z": 0.0780889218,
				"element": "H" 
			},
			{
				"x": 3.4592004729,
				"y": 0.7864235961,
				"z": 0.3371844173,
				"element": "H" 
			},
			{
				"x": 0.2711843197,
				"y": -1.177097646,
				"z": 0.292418503,
				"element": "H" 
			},
			{
				"x": -1.8500756501,
				"y": -1.8507399195,
				"z": 2.3022307856,
				"element": "H" 
			},
			{
				"x": -2.3334637633,
				"y": -1.4477166409,
				"z": 4.7093335257,
				"element": "H" 
			},
			{
				"x": -0.7389699767,
				"y": -0.225364538,
				"z": 6.1425625322,
				"element": "H" 
			},
			{
				"x": 1.4080604534,
				"y": 0.6496841471,
				"z": 5.2140555499,
				"element": "H" 
			},
			{
				"x": 2.0610847795,
				"y": 1.8166106743,
				"z": -5.3699484668,
				"element": "H" 
			},
			{
				"x": 0.1238303733,
				"y": 0.867745121,
				"z": -6.5936980327,
				"element": "H" 
			},
			{
				"x": -1.392776103,
				"y": -0.7556051093,
				"z": -5.5004840583,
				"element": "H" 
			},
			{
				"x": -0.9953576452,
				"y": -1.4659227204,
				"z": -3.1415074492,
				"element": "H" 
			}
		],
		 "valence_orbital": [ 
			{
				"type": "occ",
				"energy": -0.26511,
				"method": "rhf"
			},
			{
				"type": "occ",
				"energy": -0.25045,
				"method": "rhf"
			},
			{
				"type": "occ",
				"energy": -0.24749,
				"method": "rhf"
			},
			{
				"type": "occ",
				"energy": -0.2187,
				"method": "rhf"
			},
			{
				"type": "occ",
				"energy": -0.21453,
				"method": "rhf"
			},
			{
				"type": "unocc",
				"energy": -0.04757,
				"method": "rhf"
			},
			{
				"type": "unocc",
				"energy": -0.0176,
				"method": "rhf"
			},
			{
				"type": "unocc",
				"energy": -0.00779,
				"method": "rhf"
			},
			{
				"type": "unocc",
				"energy": -0.00422,
				"method": "rhf"
			},
			{
				"type": "unocc",
				"energy": 0.01845,
				"method": "rhf"
			}
		],
		"cosmo_sigma_profile": { 
			"-0.025": 0.0,
			"-0.024": 0.0,
			"-0.023": 0.0,
			"-0.022": 0.0,
			"-0.021": 0.0,
			"-0.02": 0.0,
			"-0.019": 0.0,
			"-0.018": 0.0,
			"-0.017": 0.0,
			"-0.016": 0.0,
			"-0.015": 0.0,
			"-0.014": 0.0,
			"-0.013": 0.0110636799075,
			"-0.012": 0.526531643908,
			"-0.011": 0.59309712798,
			"-0.01": 1.03744116866,
			"-0.009": 0.723330183468,
			"-0.008": 5.29964824387,
			"-0.007": 10.1162742397,
			"-0.006": 17.6725584354,
			"-0.005": 21.9862831123,
			"-0.004": 20.6912844691,
			"-0.003": 19.6772651301,
			"-0.002": 16.9279074663,
			"-0.001": 17.4835967667,
			"0.0": 20.114298127,
			"0.001": 23.4803430995,
			"0.002": 25.2554803226,
			"0.003": 26.1841815075,
			"0.004": 21.7263758921,
			"0.005": 16.2540034789,
			"0.006": 10.5362568518,
			"0.007": 3.94766563803,
			"0.008": 2.20582566572,
			"0.009": 1.05621527151,
			"0.01": 1.01191278801,
			"0.011": 1.17870866395,
			"0.012": 1.25583167705,
			"0.013": 1.0570820175,
			"0.014": 0.913549377691,
			"0.015": 0.508899567872,
			"0.016": 1.04817237585,
			"0.017": 1.03976572107,
			"0.018": 0.265402516929,
			"0.019": 0.0,
			"0.02": 0.0,
			"0.021": 0.0,
			"0.022": 0.0,
			"0.023": 0.0,
			"0.024": 0.0,
			"0.0": 0.0
		}
	}
}
