{
	 "smiles": "COC(=O)C(C)NC(=O)C1=CC=CC=C1", 
	 "Tm": 335.15, 
	 "num_atms": 28, 
	 "gaussian": { 
		 "optdone": 1, 
		 "sigma_profile": "yes", 
		 "theory": "DFT", 
		 "functional": "B3LYP", 
		 "basiset": "6-31G**", 
		 "properties": { 
			 "R2extent": 5306.8158, 
			 "electric_dipole_moment_norm": 4.59643618143, 
			 "electric_quadrupole_moment_norm": 13.3521897257, 
			 "total_energy": -707.455116467, 
			 "HOMO_LUMO_gap": 0.20849, 
			 "cosmo_polarized_energy": -16.79, 
			 "cosmo_cavitation_energy": 32.09, 
			 "cosmo_dispersion_energy": -22.5, 
			 "cosmo_repulsion_energy": 1.79, 
			 "cosmo_total_nonelectrostatic_energy": 11.38, 
			 "SMD_solvation_energy": 7.1 
		},
		"coords": [
			{
				"x": -0.1206340061,
				"y": 0.7264288483,
				"z": -5.5395337152,
				"element": "C" 
			},
			{
				"x": 0.3232685295,
				"y": 0.2371601013,
				"z": -4.2634795926,
				"element": "O" 
			},
			{
				"x": 1.3811125531,
				"y": 0.8900094964,
				"z": -3.7400955511,
				"element": "C" 
			},
			{
				"x": 1.9861364558,
				"y": 1.7664865309,
				"z": -4.3140820099,
				"element": "O" 
			},
			{
				"x": 1.7886716129,
				"y": 0.3037648315,
				"z": -2.3772450331,
				"element": "C" 
			},
			{
				"x": 2.7017825397,
				"y": 1.2694136926,
				"z": -1.6169001004,
				"element": "C" 
			},
			{
				"x": 0.6437557237,
				"y": -0.1337426193,
				"z": -1.5817191471,
				"element": "N" 
			},
			{
				"x": -0.4017659729,
				"y": 0.721519676,
				"z": -1.334847818,
				"element": "C" 
			},
			{
				"x": -0.3788735389,
				"y": 1.8922975476,
				"z": -1.7072729314,
				"element": "O" 
			},
			{
				"x": -1.5678329982,
				"y": 0.1493497598,
				"z": -0.5817686324,
				"element": "C" 
			},
			{
				"x": -2.7912608289,
				"y": 0.8258467661,
				"z": -0.6782847077,
				"element": "C" 
			},
			{
				"x": -3.9147103185,
				"y": 0.3474996499,
				"z": -0.0083463224,
				"element": "C" 
			},
			{
				"x": -3.8241407758,
				"y": -0.805187634,
				"z": 0.7766460437,
				"element": "C" 
			},
			{
				"x": -2.6039172685,
				"y": -1.4735408047,
				"z": 0.8940947432,
				"element": "C" 
			},
			{
				"x": -1.4794631404,
				"y": -0.9988329746,
				"z": 0.2185226411,
				"element": "C" 
			},
			{
				"x": 0.6794742229,
				"y": 0.6547838934,
				"z": -6.2806361483,
				"element": "H" 
			},
			{
				"x": -0.9632092867,
				"y": 0.0947760546,
				"z": -5.8211314515,
				"element": "H" 
			},
			{
				"x": -0.4344062715,
				"y": 1.769691075,
				"z": -5.456460311,
				"element": "H" 
			},
			{
				"x": 2.3536473971,
				"y": -0.6076005722,
				"z": -2.6119070112,
				"element": "H" 
			},
			{
				"x": 3.5495879712,
				"y": 1.5516768094,
				"z": -2.2438828913,
				"element": "H" 
			},
			{
				"x": 2.1513404422,
				"y": 2.1733126088,
				"z": -1.3526408243,
				"element": "H" 
			},
			{
				"x": 3.0687300422,
				"y": 0.7910187813,
				"z": -0.7050005447,
				"element": "H" 
			},
			{
				"x": 0.4498299558,
				"y": -1.1229350998,
				"z": -1.5535530278,
				"element": "H" 
			},
			{
				"x": -2.8335710119,
				"y": 1.7253368647,
				"z": -1.2830858943,
				"element": "H" 
			},
			{
				"x": -4.8609335253,
				"y": 0.8737199539,
				"z": -0.0946162162,
				"element": "H" 
			},
			{
				"x": -4.6993554041,
				"y": -1.1764480773,
				"z": 1.302122227,
				"element": "H" 
			},
			{
				"x": -2.5248536768,
				"y": -2.3583973165,
				"z": 1.51893132,
				"element": "H" 
			},
			{
				"x": -0.5272094219,
				"y": -1.5054078431,
				"z": 0.3474729068,
				"element": "H" 
			}
		],
		 "valence_orbital": [ 
			{
				"type": "occ",
				"energy": -0.28426,
				"method": "rhf"
			},
			{
				"type": "occ",
				"energy": -0.26318,
				"method": "rhf"
			},
			{
				"type": "occ",
				"energy": -0.26096,
				"method": "rhf"
			},
			{
				"type": "occ",
				"energy": -0.25171,
				"method": "rhf"
			},
			{
				"type": "occ",
				"energy": -0.24775,
				"method": "rhf"
			},
			{
				"type": "unocc",
				"energy": -0.03926,
				"method": "rhf"
			},
			{
				"type": "unocc",
				"energy": -0.01134,
				"method": "rhf"
			},
			{
				"type": "unocc",
				"energy": 0.01588,
				"method": "rhf"
			},
			{
				"type": "unocc",
				"energy": 0.05592,
				"method": "rhf"
			},
			{
				"type": "unocc",
				"energy": 0.07543,
				"method": "rhf"
			}
		],
		"cosmo_sigma_profile": { 
			"-0.025": 0.0,
			"-0.024": 0.0,
			"-0.023": 0.0,
			"-0.022": 0.0,
			"-0.021": 0.0,
			"-0.02": 0.0,
			"-0.019": 0.0,
			"-0.018": 0.0,
			"-0.017": 0.0,
			"-0.016": 0.0,
			"-0.015": 0.517300703242,
			"-0.014": 1.02690413783,
			"-0.013": 1.33560008567,
			"-0.012": 1.36096821523,
			"-0.011": 1.71208852802,
			"-0.01": 1.36455441217,
			"-0.009": 2.26183934309,
			"-0.008": 3.95445191416,
			"-0.007": 5.41882262806,
			"-0.006": 13.8823678862,
			"-0.005": 18.0967227126,
			"-0.004": 22.4311648784,
			"-0.003": 22.6468464751,
			"-0.002": 16.0878171892,
			"-0.001": 15.1958292272,
			"0.0": 17.5360193488,
			"0.001": 17.1521182979,
			"0.002": 13.8841048403,
			"0.003": 15.046179968,
			"0.004": 17.1104404037,
			"0.005": 9.75105125882,
			"0.006": 4.28845665773,
			"0.007": 5.22996568478,
			"0.008": 4.76572278771,
			"0.009": 3.64455599363,
			"0.01": 3.23830174081,
			"0.011": 5.10448051145,
			"0.012": 6.16301628554,
			"0.013": 3.09475127667,
			"0.014": 1.03651466791,
			"0.015": 0.0,
			"0.016": 0.0,
			"0.017": 0.0,
			"0.018": 0.0,
			"0.019": 0.0,
			"0.02": 0.0,
			"0.021": 0.0,
			"0.022": 0.0,
			"0.023": 0.0,
			"0.024": 0.0,
			"0.025": 0.0
		}
	}
}
