{
	 "smiles": "OC(=O)C1=C(O)C=CC(=C1)S(O)(=O)=O", 
	 "Tm": 393.15, 
	 "num_atms": 20, 
	 "gaussian": { 
		 "optdone": 1, 
		 "sigma_profile": "yes", 
		 "theory": "DFT", 
		 "functional": "B3LYP", 
		 "basiset": "6-31G**", 
		 "properties": { 
			 "R2extent": 3677.0293, 
			 "electric_dipole_moment_norm": 2.13763776398, 
			 "electric_quadrupole_moment_norm": 13.5295214731, 
			 "total_energy": -1119.83717431, 
			 "HOMO_LUMO_gap": 0.18309, 
			 "cosmo_polarized_energy": -20.96, 
			 "cosmo_cavitation_energy": 26.47, 
			 "cosmo_dispersion_energy": -20.56, 
			 "cosmo_repulsion_energy": 1.56, 
			 "cosmo_total_nonelectrostatic_energy": 7.46, 
			 "SMD_solvation_energy": 5.16 
		},
		"coords": [
			{
				"x": 2.4599426587,
				"y": -0.1436373102,
				"z": 1.6363524577,
				"element": "O" 
			},
			{
				"x": 1.6480538221,
				"y": -1.0404745347,
				"z": 1.0542650551,
				"element": "C" 
			},
			{
				"x": 2.0262938138,
				"y": -2.2061130946,
				"z": 0.9866110152,
				"element": "O" 
			},
			{
				"x": 0.3356318134,
				"y": -0.6064336954,
				"z": 0.5200684955,
				"element": "C" 
			},
			{
				"x": -0.5361529401,
				"y": -1.6058386041,
				"z": -0.0046097566,
				"element": "C" 
			},
			{
				"x": -0.2046610244,
				"y": -2.892062862,
				"z": -0.0485308502,
				"element": "O" 
			},
			{
				"x": -1.8070369356,
				"y": -1.236731411,
				"z": -0.4932857907,
				"element": "C" 
			},
			{
				"x": -2.2054244705,
				"y": 0.0852836467,
				"z": -0.4884624799,
				"element": "C" 
			},
			{
				"x": -1.3323305289,
				"y": 1.0700174554,
				"z": 0.0044267927,
				"element": "C" 
			},
			{
				"x": -0.0844204747,
				"y": 0.7311858801,
				"z": 0.5043512553,
				"element": "C" 
			},
			{
				"x": -1.8252998538,
				"y": 2.7740743205,
				"z": 0.0110702186,
				"element": "S" 
			},
			{
				"x": -1.5090906402,
				"y": 3.1536903472,
				"z": -1.5597546547,
				"element": "O" 
			},
			{
				"x": -0.9057465286,
				"y": 3.5196693282,
				"z": 0.8644969803,
				"element": "O" 
			},
			{
				"x": -3.2732608728,
				"y": 2.8833183937,
				"z": 0.1846999848,
				"element": "O" 
			},
			{
				"x": 2.0473688971,
				"y": 0.7284377488,
				"z": 1.6999723882,
				"element": "H" 
			},
			{
				"x": 0.7187684148,
				"y": -2.9641911036,
				"z": 0.3165450409,
				"element": "H" 
			},
			{
				"x": -2.45392871,
				"y": -2.0218623479,
				"z": -0.868257191,
				"element": "H" 
			},
			{
				"x": -3.1874366267,
				"y": 0.3683145097,
				"z": -0.8520577992,
				"element": "H" 
			},
			{
				"x": 0.5401992628,
				"y": 1.5397197158,
				"z": 0.8732928719,
				"element": "H" 
			},
			{
				"x": -2.1798690764,
				"y": 3.8053336173,
				"z": -1.8291940339,
				"element": "H" 
			}
		],
		 "valence_orbital": [ 
			{
				"type": "occ",
				"energy": -0.33626,
				"method": "rhf"
			},
			{
				"type": "occ",
				"energy": -0.31355,
				"method": "rhf"
			},
			{
				"type": "occ",
				"energy": -0.30789,
				"method": "rhf"
			},
			{
				"type": "occ",
				"energy": -0.30115,
				"method": "rhf"
			},
			{
				"type": "occ",
				"energy": -0.26347,
				"method": "rhf"
			},
			{
				"type": "unocc",
				"energy": -0.08038,
				"method": "rhf"
			},
			{
				"type": "unocc",
				"energy": -0.05162,
				"method": "rhf"
			},
			{
				"type": "unocc",
				"energy": 0.012,
				"method": "rhf"
			},
			{
				"type": "unocc",
				"energy": 0.02323,
				"method": "rhf"
			},
			{
				"type": "unocc",
				"energy": 0.03951,
				"method": "rhf"
			}
		],
		"cosmo_sigma_profile": { 
			"-0.025": 0.0,
			"-0.024": 0.0,
			"-0.023": 0.0,
			"-0.022": 0.0,
			"-0.021": 0.650959783631,
			"-0.02": 1.98796689031,
			"-0.019": 1.96359317357,
			"-0.018": 1.40597546904,
			"-0.017": 1.98553887022,
			"-0.016": 1.71204678068,
			"-0.015": 2.32249777458,
			"-0.014": 1.64938300378,
			"-0.013": 1.7910928436,
			"-0.012": 1.11750835391,
			"-0.011": 1.18413003952,
			"-0.01": 1.48241821172,
			"-0.009": 3.18960143438,
			"-0.008": 5.9086295766,
			"-0.007": 6.34034850904,
			"-0.006": 6.88663525034,
			"-0.005": 11.5676366804,
			"-0.004": 10.8437713216,
			"-0.003": 8.20967468734,
			"-0.002": 11.4231398214,
			"-0.001": 14.6738675141,
			"0.0": 15.6010324223,
			"0.001": 11.8255632553,
			"0.002": 7.54970733589,
			"0.003": 6.80805150371,
			"0.004": 6.24687059043,
			"0.005": 5.62415314856,
			"0.006": 7.76471484224,
			"0.007": 10.6764951868,
			"0.008": 8.92579654123,
			"0.009": 14.1347528937,
			"0.01": 14.107050714,
			"0.011": 4.37951584221,
			"0.012": 0.780345352684,
			"0.013": 0.0,
			"0.014": 0.0,
			"0.015": 0.0,
			"0.016": 0.0,
			"0.017": 0.0,
			"0.018": 0.0,
			"0.019": 0.0,
			"0.02": 0.0,
			"0.021": 0.0,
			"0.022": 0.0,
			"0.023": 0.0,
			"0.024": 0.0,
			"0.025": 0.0
		}
	}
}
