{
	 "smiles": "CC12CCC3C(CCC4=CCCCC34)C1CCC2(O)CC=C", 
	 "Tm": 353.15, 
	 "num_atms": 54, 
	 "gaussian": { 
		 "optdone": 1, 
		 "sigma_profile": "yes", 
		 "theory": "DFT", 
		 "functional": "B3LYP", 
		 "basiset": "6-31G**", 
		 "properties": { 
			 "R2extent": 8233.8468, 
			 "electric_dipole_moment_norm": 1.39225946217, 
			 "electric_quadrupole_moment_norm": 8.34820554011, 
			 "total_energy": -894.729778943, 
			 "HOMO_LUMO_gap": 0.24344, 
			 "cosmo_polarized_energy": -6.99, 
			 "cosmo_cavitation_energy": 46.27, 
			 "cosmo_dispersion_energy": -32.14, 
			 "cosmo_repulsion_energy": 2.39, 
			 "cosmo_total_nonelectrostatic_energy": 16.52, 
			 "SMD_solvation_energy": 6.54 
		},
		"coords": [
			{
				"x": -1.060017896,
				"y": 0.9759984701,
				"z": -4.0339053086,
				"element": "C" 
			},
			{
				"x": -1.2488031845,
				"y": 0.663375154,
				"z": -2.5365501257,
				"element": "C" 
			},
			{
				"x": -0.2861911889,
				"y": -0.5053396922,
				"z": -2.1899330895,
				"element": "C" 
			},
			{
				"x": 0.0511643657,
				"y": -0.7220134002,
				"z": -0.7042769873,
				"element": "C" 
			},
			{
				"x": 0.4531181371,
				"y": 0.5832953325,
				"z": 0.0501234723,
				"element": "C" 
			},
			{
				"x": 0.455856492,
				"y": 1.7879813637,
				"z": -0.9244582634,
				"element": "C" 
			},
			{
				"x": 0.8979976124,
				"y": 3.0945043844,
				"z": -0.2445223704,
				"element": "C" 
			},
			{
				"x": 2.2642470396,
				"y": 2.934895317,
				"z": 0.4500172252,
				"element": "C" 
			},
			{
				"x": 2.2000140559,
				"y": 1.7830899723,
				"z": 1.42081646,
				"element": "C" 
			},
			{
				"x": 2.3718866385,
				"y": 1.9466623973,
				"z": 2.7401024759,
				"element": "C" 
			},
			{
				"x": 2.1778732337,
				"y": 0.8584580758,
				"z": 3.7654877608,
				"element": "C" 
			},
			{
				"x": 1.3550416677,
				"y": -0.3020134906,
				"z": 3.1928516372,
				"element": "C" 
			},
			{
				"x": 1.8899022243,
				"y": -0.7026808412,
				"z": 1.8127299541,
				"element": "C" 
			},
			{
				"x": 1.8209305968,
				"y": 0.4534193623,
				"z": 0.788913243,
				"element": "C" 
			},
			{
				"x": -0.8986247598,
				"y": 1.9334707285,
				"z": -1.6592881647,
				"element": "C" 
			},
			{
				"x": -2.1179551034,
				"y": 2.172699498,
				"z": -0.7206426735,
				"element": "C" 
			},
			{
				"x": -2.9118853356,
				"y": 0.8614662531,
				"z": -0.7392316917,
				"element": "C" 
			},
			{
				"x": -2.7556387408,
				"y": 0.3555819997,
				"z": -2.1837647155,
				"element": "C" 
			},
			{
				"x": -3.5444550084,
				"y": 1.2058252984,
				"z": -3.0418659984,
				"element": "O" 
			},
			{
				"x": -3.2491519752,
				"y": -1.1009188606,
				"z": -2.3471610098,
				"element": "C" 
			},
			{
				"x": -3.2547904181,
				"y": -1.62622099,
				"z": -3.7574712933,
				"element": "C" 
			},
			{
				"x": -2.8137374228,
				"y": -2.8287475455,
				"z": -4.1307826505,
				"element": "C" 
			},
			{
				"x": -1.728056275,
				"y": 1.7734619873,
				"z": -4.3615610135,
				"element": "H" 
			},
			{
				"x": -1.2491709762,
				"y": 0.0938523329,
				"z": -4.6537019434,
				"element": "H" 
			},
			{
				"x": -0.0260511799,
				"y": 1.2927124577,
				"z": -4.2141748263,
				"element": "H" 
			},
			{
				"x": -0.6575718058,
				"y": -1.4364649627,
				"z": -2.628036781,
				"element": "H" 
			},
			{
				"x": 0.6538142523,
				"y": -0.3035972222,
				"z": -2.7168571027,
				"element": "H" 
			},
			{
				"x": 0.8752682393,
				"y": -1.4443100903,
				"z": -0.6626752441,
				"element": "H" 
			},
			{
				"x": -0.7845280805,
				"y": -1.209337707,
				"z": -0.1890748006,
				"element": "H" 
			},
			{
				"x": -0.3010443582,
				"y": 0.7908627528,
				"z": 0.8213953781,
				"element": "H" 
			},
			{
				"x": 1.2149383657,
				"y": 1.5787473952,
				"z": -1.694798495,
				"element": "H" 
			},
			{
				"x": 0.1596098289,
				"y": 3.4004736258,
				"z": 0.5074638226,
				"element": "H" 
			},
			{
				"x": 0.9412756028,
				"y": 3.8986212069,
				"z": -0.9907216995,
				"element": "H" 
			},
			{
				"x": 3.0315007897,
				"y": 2.7432704593,
				"z": -0.3156479064,
				"element": "H" 
			},
			{
				"x": 2.5460066898,
				"y": 3.8612093213,
				"z": 0.9630604781,
				"element": "H" 
			},
			{
				"x": 2.6497897132,
				"y": 2.9329162544,
				"z": 3.1123942773,
				"element": "H" 
			},
			{
				"x": 3.1551388613,
				"y": 0.4891311028,
				"z": 4.1149524905,
				"element": "H" 
			},
			{
				"x": 1.686872904,
				"y": 1.2741821752,
				"z": 4.6552070813,
				"element": "H" 
			},
			{
				"x": 1.3765563221,
				"y": -1.1614279012,
				"z": 3.8730398319,
				"element": "H" 
			},
			{
				"x": 0.3049897036,
				"y": 0.0074485397,
				"z": 3.109006734,
				"element": "H" 
			},
			{
				"x": 1.3558952119,
				"y": -1.5812763302,
				"z": 1.4363171338,
				"element": "H" 
			},
			{
				"x": 2.9389127907,
				"y": -1.0079927425,
				"z": 1.9238723775,
				"element": "H" 
			},
			{
				"x": 2.5650766651,
				"y": 0.244183854,
				"z": 0.0019497447,
				"element": "H" 
			},
			{
				"x": -0.8011448053,
				"y": 2.7961925829,
				"z": -2.3283943408,
				"element": "H" 
			},
			{
				"x": -1.8322548747,
				"y": 2.4725498215,
				"z": 0.2916323678,
				"element": "H" 
			},
			{
				"x": -2.7390575287,
				"y": 2.9742506995,
				"z": -1.1297078718,
				"element": "H" 
			},
			{
				"x": -3.9693750398,
				"y": 0.989072204,
				"z": -0.471848034,
				"element": "H" 
			},
			{
				"x": -2.4948334095,
				"y": 0.1345427328,
				"z": -0.0344431537,
				"element": "H" 
			},
			{
				"x": -4.4530393351,
				"y": 1.1798375928,
				"z": -2.7118996764,
				"element": "H" 
			},
			{
				"x": -2.6890232135,
				"y": -1.7745816878,
				"z": -1.6900634726,
				"element": "H" 
			},
			{
				"x": -4.2861206018,
				"y": -1.1120647723,
				"z": -1.971135905,
				"element": "H" 
			},
			{
				"x": -3.6772035273,
				"y": -0.9522602916,
				"z": -4.5006263561,
				"element": "H" 
			},
			{
				"x": -2.3861560669,
				"y": -3.5302494399,
				"z": -3.4173531742,
				"element": "H" 
			},
			{
				"x": -2.8672958925,
				"y": -3.1602447378,
				"z": -5.1637578064,
				"element": "H" 
			}
		],
		 "valence_orbital": [ 
			{
				"type": "occ",
				"energy": -0.27926,
				"method": "rhf"
			},
			{
				"type": "occ",
				"energy": -0.27172,
				"method": "rhf"
			},
			{
				"type": "occ",
				"energy": -0.2672,
				"method": "rhf"
			},
			{
				"type": "occ",
				"energy": -0.24433,
				"method": "rhf"
			},
			{
				"type": "occ",
				"energy": -0.22232,
				"method": "rhf"
			},
			{
				"type": "unocc",
				"energy": 0.02112,
				"method": "rhf"
			},
			{
				"type": "unocc",
				"energy": 0.03132,
				"method": "rhf"
			},
			{
				"type": "unocc",
				"energy": 0.06507,
				"method": "rhf"
			},
			{
				"type": "unocc",
				"energy": 0.08147,
				"method": "rhf"
			},
			{
				"type": "unocc",
				"energy": 0.08998,
				"method": "rhf"
			}
		],
		"cosmo_sigma_profile": { 
			"-0.025": 0.0,
			"-0.024": 0.0,
			"-0.023": 0.0,
			"-0.022": 0.0,
			"-0.021": 0.0,
			"-0.02": 0.0,
			"-0.019": 0.0,
			"-0.018": 0.0,
			"-0.017": 0.0,
			"-0.016": 0.0,
			"-0.015": 0.0933168577951,
			"-0.014": 0.867932659473,
			"-0.013": 0.672597284133,
			"-0.012": 1.19797719361,
			"-0.011": 0.987264266657,
			"-0.01": 0.928545123006,
			"-0.009": 1.13782959887,
			"-0.008": 0.851124076219,
			"-0.007": 1.78272414065,
			"-0.006": 1.56979501457,
			"-0.005": 2.11791295197,
			"-0.004": 7.75783083604,
			"-0.003": 19.9241796895,
			"-0.002": 53.7915258255,
			"-0.001": 66.6351035185,
			"0.0": 64.1025904854,
			"0.001": 52.4301077957,
			"0.002": 28.9700803901,
			"0.003": 13.4005059899,
			"0.004": 8.84204117043,
			"0.005": 7.88293165998,
			"0.006": 5.98860741229,
			"0.007": 4.62267213804,
			"0.008": 2.14857195642,
			"0.009": 1.36193945108,
			"0.01": 1.48586754393,
			"0.011": 1.45167739906,
			"0.012": 1.26239018882,
			"0.013": 0.289239767368,
			"0.014": 0.0,
			"0.015": 0.0,
			"0.016": 0.0,
			"0.017": 0.0,
			"0.018": 0.0,
			"0.019": 0.0,
			"0.02": 0.0,
			"0.021": 0.0,
			"0.022": 0.0,
			"0.023": 0.0,
			"0.024": 0.0,
			"0.025": 0.0
		}
	}
}
