{
	 "smiles": "CCCCCCCCCCCCCC(=O)OCC1=CC=CC=C1", 
	 "Tm": 293.65, 
	 "num_atms": 57, 
	 "gaussian": { 
		 "optdone": 1, 
		 "sigma_profile": "yes", 
		 "theory": "DFT", 
		 "functional": "B3LYP", 
		 "basiset": "6-31G**", 
		 "properties": { 
			 "R2extent": 14303.1513, 
			 "electric_dipole_moment_norm": 1.80103883911, 
			 "electric_quadrupole_moment_norm": 14.8259529164, 
			 "total_energy": -971.230691096, 
			 "HOMO_LUMO_gap": 0.23657, 
			 "cosmo_polarized_energy": -8.04, 
			 "cosmo_cavitation_energy": 57.75, 
			 "cosmo_dispersion_energy": -37.07, 
			 "cosmo_repulsion_energy": 2.99, 
			 "cosmo_total_nonelectrostatic_energy": 23.67, 
			 "SMD_solvation_energy": 8.73 
		},
		"coords": [
			{
				"x": -0.8331249303,
				"y": -5.3158816396,
				"z": -1.1648462197,
				"element": "C" 
			},
			{
				"x": -1.6886974805,
				"y": -5.7637935004,
				"z": -2.3561112727,
				"element": "C" 
			},
			{
				"x": -2.0105977834,
				"y": -4.6493624111,
				"z": -3.3656481595,
				"element": "C" 
			},
			{
				"x": -2.9071582453,
				"y": -3.5276750369,
				"z": -2.8219273152,
				"element": "C" 
			},
			{
				"x": -3.2538372748,
				"y": -2.4722641617,
				"z": -3.8817140252,
				"element": "C" 
			},
			{
				"x": -4.2287187746,
				"y": -1.3797967353,
				"z": -3.4069859597,
				"element": "C" 
			},
			{
				"x": -3.7314715981,
				"y": -0.4821812462,
				"z": -2.2594907132,
				"element": "C" 
			},
			{
				"x": -2.4958628714,
				"y": 0.3623726447,
				"z": -2.6065169679,
				"element": "C" 
			},
			{
				"x": -2.0981700941,
				"y": 1.3839527644,
				"z": -1.5278264095,
				"element": "C" 
			},
			{
				"x": -1.609838802,
				"y": 0.768967719,
				"z": -0.208449586,
				"element": "C" 
			},
			{
				"x": -1.1521668095,
				"y": 1.819372907,
				"z": 0.8117007808,
				"element": "C" 
			},
			{
				"x": -0.6528750866,
				"y": 1.2042321194,
				"z": 2.1253769886,
				"element": "C" 
			},
			{
				"x": -0.2258093716,
				"y": 2.2478003945,
				"z": 3.1767161325,
				"element": "C" 
			},
			{
				"x": 0.927451762,
				"y": 3.1180969831,
				"z": 2.7177572552,
				"element": "C" 
			},
			{
				"x": 0.8834276996,
				"y": 4.3233972659,
				"z": 2.5807766596,
				"element": "O" 
			},
			{
				"x": 2.0293947239,
				"y": 2.3684701617,
				"z": 2.4745526976,
				"element": "O" 
			},
			{
				"x": 3.2069147633,
				"y": 3.0696866076,
				"z": 1.9860547667,
				"element": "C" 
			},
			{
				"x": 3.2511574458,
				"y": 3.1016906229,
				"z": 0.4781703236,
				"element": "C" 
			},
			{
				"x": 3.937010051,
				"y": 2.1081836302,
				"z": -0.2314314042,
				"element": "C" 
			},
			{
				"x": 3.9708567855,
				"y": 2.1248539909,
				"z": -1.6264551204,
				"element": "C" 
			},
			{
				"x": 3.3149350255,
				"y": 3.1384439554,
				"z": -2.3274061354,
				"element": "C" 
			},
			{
				"x": 2.62757369,
				"y": 4.1337079152,
				"z": -1.6284328118,
				"element": "C" 
			},
			{
				"x": 2.5960014372,
				"y": 4.1174686028,
				"z": -0.2336692168,
				"element": "C" 
			},
			{
				"x": -1.3436242046,
				"y": -4.5645602671,
				"z": -0.5537002626,
				"element": "H" 
			},
			{
				"x": 0.1143631795,
				"y": -4.879306904,
				"z": -1.5023760151,
				"element": "H" 
			},
			{
				"x": -0.5939646531,
				"y": -6.1613804915,
				"z": -0.5112559712,
				"element": "H" 
			},
			{
				"x": -2.6281520739,
				"y": -6.1988550129,
				"z": -1.9878877042,
				"element": "H" 
			},
			{
				"x": -1.1672540831,
				"y": -6.5735340552,
				"z": -2.8826375534,
				"element": "H" 
			},
			{
				"x": -1.0701824978,
				"y": -4.2146140666,
				"z": -3.7348248223,
				"element": "H" 
			},
			{
				"x": -2.499801442,
				"y": -5.0973460177,
				"z": -4.2415089211,
				"element": "H" 
			},
			{
				"x": -3.8370107147,
				"y": -3.9667597884,
				"z": -2.4307556212,
				"element": "H" 
			},
			{
				"x": -2.4162964967,
				"y": -3.0450478538,
				"z": -1.9680338658,
				"element": "H" 
			},
			{
				"x": -3.6997979445,
				"y": -2.977532609,
				"z": -4.7494127071,
				"element": "H" 
			},
			{
				"x": -2.3273588596,
				"y": -2.012218681,
				"z": -4.2508877374,
				"element": "H" 
			},
			{
				"x": -5.1673980748,
				"y": -1.8588767934,
				"z": -3.096138429,
				"element": "H" 
			},
			{
				"x": -4.4846003665,
				"y": -0.7424119299,
				"z": -4.2646720213,
				"element": "H" 
			},
			{
				"x": -4.5488471598,
				"y": 0.1944444475,
				"z": -1.9733193898,
				"element": "H" 
			},
			{
				"x": -3.5292449188,
				"y": -1.0959921914,
				"z": -1.3732169592,
				"element": "H" 
			},
			{
				"x": -1.6379003386,
				"y": -0.2931542815,
				"z": -2.8084720959,
				"element": "H" 
			},
			{
				"x": -2.6919316952,
				"y": 0.9003290222,
				"z": -3.5445357968,
				"element": "H" 
			},
			{
				"x": -2.9518990479,
				"y": 2.0465325701,
				"z": -1.3244896644,
				"element": "H" 
			},
			{
				"x": -1.3037339824,
				"y": 2.0282311538,
				"z": -1.9279309412,
				"element": "H" 
			},
			{
				"x": -2.4053169788,
				"y": 0.1580862108,
				"z": 0.2387338284,
				"element": "H" 
			},
			{
				"x": -0.7777565819,
				"y": 0.081149281,
				"z": -0.4177362021,
				"element": "H" 
			},
			{
				"x": -0.3562596535,
				"y": 2.4311617205,
				"z": 0.3658828546,
				"element": "H" 
			},
			{
				"x": -1.9816666132,
				"y": 2.5084405005,
				"z": 1.0247071004,
				"element": "H" 
			},
			{
				"x": -1.4445021561,
				"y": 0.5832315485,
				"z": 2.5636516172,
				"element": "H" 
			},
			{
				"x": 0.1935673768,
				"y": 0.5378837864,
				"z": 1.9236999759,
				"element": "H" 
			},
			{
				"x": -1.0531841964,
				"y": 2.9189306348,
				"z": 3.4215965339,
				"element": "H" 
			},
			{
				"x": 0.0811333164,
				"y": 1.7338520046,
				"z": 4.0952819507,
				"element": "H" 
			},
			{
				"x": 4.0471174974,
				"y": 2.5008403505,
				"z": 2.3898780592,
				"element": "H" 
			},
			{
				"x": 3.2075691055,
				"y": 4.0772668791,
				"z": 2.4059784508,
				"element": "H" 
			},
			{
				"x": 4.4496048786,
				"y": 1.3187759131,
				"z": 0.3131354928,
				"element": "H" 
			},
			{
				"x": 4.5097862094,
				"y": 1.3501535053,
				"z": -2.1645254614,
				"element": "H" 
			},
			{
				"x": 3.341948442,
				"y": 3.1548765581,
				"z": -3.4133162529,
				"element": "H" 
			},
			{
				"x": 2.1193397407,
				"y": 4.9265104726,
				"z": -2.1700531108,
				"element": "H" 
			},
			{
				"x": 2.0588607261,
				"y": 4.8848508303,
				"z": 0.3150473551,
				"element": "H" 
			}
		],
		 "valence_orbital": [ 
			{
				"type": "occ",
				"energy": -0.29816,
				"method": "rhf"
			},
			{
				"type": "occ",
				"energy": -0.29502,
				"method": "rhf"
			},
			{
				"type": "occ",
				"energy": -0.26674,
				"method": "rhf"
			},
			{
				"type": "occ",
				"energy": -0.25178,
				"method": "rhf"
			},
			{
				"type": "occ",
				"energy": -0.24807,
				"method": "rhf"
			},
			{
				"type": "unocc",
				"energy": -0.0115,
				"method": "rhf"
			},
			{
				"type": "unocc",
				"energy": -0.00312,
				"method": "rhf"
			},
			{
				"type": "unocc",
				"energy": 0.01407,
				"method": "rhf"
			},
			{
				"type": "unocc",
				"energy": 0.08051,
				"method": "rhf"
			},
			{
				"type": "unocc",
				"energy": 0.09392,
				"method": "rhf"
			}
		],
		"cosmo_sigma_profile": { 
			"-0.025": 0.0,
			"-0.024": 0.0,
			"-0.023": 0.0,
			"-0.022": 0.0,
			"-0.021": 0.0,
			"-0.02": 0.0,
			"-0.019": 0.0,
			"-0.018": 0.0,
			"-0.017": 0.0,
			"-0.016": 0.0,
			"-0.015": 0.0,
			"-0.014": 0.0,
			"-0.013": 0.0,
			"-0.012": 0.0,
			"-0.011": 0.0,
			"-0.01": 0.0,
			"-0.009": 0.0,
			"-0.008": 0.0,
			"-0.007": 0.829003328639,
			"-0.006": 9.42968895423,
			"-0.005": 15.628737029,
			"-0.004": 19.4799622922,
			"-0.003": 23.7481278349,
			"-0.002": 52.8239606086,
			"-0.001": 79.5554302365,
			"0.0": 84.0750182456,
			"0.001": 68.2302421261,
			"0.002": 34.7431368611,
			"0.003": 12.4587242428,
			"0.004": 12.1955756008,
			"0.005": 12.5731998655,
			"0.006": 7.24689382002,
			"0.007": 1.48965893449,
			"0.008": 2.62744031656,
			"0.009": 1.49971409159,
			"0.01": 1.94042674005,
			"0.011": 2.21088897489,
			"0.012": 2.86789365806,
			"0.013": 1.48911604956,
			"0.014": 0.107066510866,
			"0.015": 0.0,
			"0.016": 0.0,
			"0.017": 0.0,
			"0.018": 0.0,
			"0.019": 0.0,
			"0.02": 0.0,
			"0.021": 0.0,
			"0.022": 0.0,
			"0.023": 0.0,
			"0.024": 0.0,
			"0.025": 0.0
		}
	}
}
