{
	 "smiles": "CC1=C2C(C=CC3=CC=CC=C23)=CC=C1", 
	 "Tm": 326.65, 
	 "num_atms": 27, 
	 "gaussian": { 
		 "optdone": 1, 
		 "sigma_profile": "yes", 
		 "theory": "DFT", 
		 "functional": "B3LYP", 
		 "basiset": "6-31G**", 
		 "properties": { 
			 "R2extent": 3212.0681, 
			 "electric_dipole_moment_norm": 0.306488466341, 
			 "electric_quadrupole_moment_norm": 9.51667267116, 
			 "total_energy": -578.851728533, 
			 "HOMO_LUMO_gap": 0.17161, 
			 "cosmo_polarized_energy": -5.79, 
			 "cosmo_cavitation_energy": 28.96, 
			 "cosmo_dispersion_energy": -21.86, 
			 "cosmo_repulsion_energy": 1.63, 
			 "cosmo_total_nonelectrostatic_energy": 8.73, 
			 "SMD_solvation_energy": 4.33 
		},
		"coords": [
			{
				"x": -2.0078004818,
				"y": 1.0389076888,
				"z": 0.8509318053,
				"element": "C" 
			},
			{
				"x": -1.5462177465,
				"y": -0.396183229,
				"z": 0.6948071437,
				"element": "C" 
			},
			{
				"x": -0.4312216159,
				"y": -0.8375145005,
				"z": -0.1004429785,
				"element": "C" 
			},
			{
				"x": -0.1636331756,
				"y": -2.2498029535,
				"z": -0.1110858074,
				"element": "C" 
			},
			{
				"x": 0.9249319483,
				"y": -2.7901447395,
				"z": -0.8726438346,
				"element": "C" 
			},
			{
				"x": 1.7377833308,
				"y": -1.9931969012,
				"z": -1.6068179472,
				"element": "C" 
			},
			{
				"x": 1.5304389326,
				"y": -0.577574432,
				"z": -1.6426050129,
				"element": "C" 
			},
			{
				"x": 2.4015260807,
				"y": 0.218841576,
				"z": -2.4211786437,
				"element": "C" 
			},
			{
				"x": 2.2538436219,
				"y": 1.5881684631,
				"z": -2.4962624672,
				"element": "C" 
			},
			{
				"x": 1.2108420378,
				"y": 2.192701143,
				"z": -1.7784981897,
				"element": "C" 
			},
			{
				"x": 0.3450957063,
				"y": 1.4330805139,
				"z": -1.0091323025,
				"element": "C" 
			},
			{
				"x": 0.4568646503,
				"y": 0.0215281714,
				"z": -0.9007036789,
				"element": "C" 
			},
			{
				"x": -0.9595960397,
				"y": -3.1551649048,
				"z": 0.6251594545,
				"element": "C" 
			},
			{
				"x": -2.020118292,
				"y": -2.7073118106,
				"z": 1.3778566952,
				"element": "C" 
			},
			{
				"x": -2.2964123753,
				"y": -1.3344123967,
				"z": 1.4004831925,
				"element": "C" 
			},
			{
				"x": -2.3101880329,
				"y": 1.4879384375,
				"z": -0.1011325423,
				"element": "H" 
			},
			{
				"x": -2.8765656232,
				"y": 1.0742465736,
				"z": 1.5128681459,
				"element": "H" 
			},
			{
				"x": -1.2391130238,
				"y": 1.6807653165,
				"z": 1.2943582028,
				"element": "H" 
			},
			{
				"x": 1.080604064,
				"y": -3.8653087741,
				"z": -0.8439926991,
				"element": "H" 
			},
			{
				"x": 2.5604231471,
				"y": -2.4110981575,
				"z": -2.1810033196,
				"element": "H" 
			},
			{
				"x": 3.2000229746,
				"y": -0.2787311706,
				"z": -2.9658402452,
				"element": "H" 
			},
			{
				"x": 2.9309604406,
				"y": 2.1865721628,
				"z": -3.0985833804,
				"element": "H" 
			},
			{
				"x": 1.073653208,
				"y": 3.2695076032,
				"z": -1.8213296231,
				"element": "H" 
			},
			{
				"x": -0.4305872253,
				"y": 1.9621695477,
				"z": -0.4862515184,
				"element": "H" 
			},
			{
				"x": -0.7141071764,
				"y": -4.2129392721,
				"z": 0.5826012169,
				"element": "H" 
			},
			{
				"x": -2.635485368,
				"y": -3.3986804503,
				"z": 1.9458866386,
				"element": "H" 
			},
			{
				"x": -3.1339439665,
				"y": -0.9793635052,
				"z": 1.9946516954,
				"element": "H" 
			}
		],
		 "valence_orbital": [ 
			{
				"type": "occ",
				"energy": -0.30662,
				"method": "rhf"
			},
			{
				"type": "occ",
				"energy": -0.2778,
				"method": "rhf"
			},
			{
				"type": "occ",
				"energy": -0.25605,
				"method": "rhf"
			},
			{
				"type": "occ",
				"energy": -0.22045,
				"method": "rhf"
			},
			{
				"type": "occ",
				"energy": -0.20684,
				"method": "rhf"
			},
			{
				"type": "unocc",
				"energy": -0.03523,
				"method": "rhf"
			},
			{
				"type": "unocc",
				"energy": -0.02882,
				"method": "rhf"
			},
			{
				"type": "unocc",
				"energy": 0.01398,
				"method": "rhf"
			},
			{
				"type": "unocc",
				"energy": 0.03346,
				"method": "rhf"
			},
			{
				"type": "unocc",
				"energy": 0.08135,
				"method": "rhf"
			}
		],
		"cosmo_sigma_profile": { 
			"-0.025": 0.0,
			"-0.024": 0.0,
			"-0.023": 0.0,
			"-0.022": 0.0,
			"-0.021": 0.0,
			"-0.02": 0.0,
			"-0.019": 0.0,
			"-0.018": 0.0,
			"-0.017": 0.0,
			"-0.016": 0.0,
			"-0.015": 0.0,
			"-0.014": 0.0,
			"-0.013": 0.0,
			"-0.012": 0.0,
			"-0.011": 0.0,
			"-0.01": 0.0,
			"-0.009": 0.0,
			"-0.008": 0.0,
			"-0.007": 0.0888371406793,
			"-0.006": 10.6095608963,
			"-0.005": 22.0101491973,
			"-0.004": 23.3650256612,
			"-0.003": 20.7970493591,
			"-0.002": 15.9543241678,
			"-0.001": 17.849206055,
			"0.0": 15.439996613,
			"0.001": 12.5855602884,
			"0.002": 13.6044402881,
			"0.003": 19.3882275663,
			"0.004": 29.7631497482,
			"0.005": 24.1418228435,
			"0.006": 6.6005559642,
			"0.007": 0.0,
			"0.008": 0.0,
			"0.009": 0.0,
			"0.01": 0.0,
			"0.011": 0.0,
			"0.012": 0.0,
			"0.013": 0.0,
			"0.014": 0.0,
			"0.015": 0.0,
			"0.016": 0.0,
			"0.017": 0.0,
			"0.018": 0.0,
			"0.019": 0.0,
			"0.02": 0.0,
			"0.021": 0.0,
			"0.022": 0.0,
			"0.023": 0.0,
			"0.024": 0.0,
			"0.025": 0.0
		}
	}
}
