{
	 "smiles": "CC(CCl)OC(C)CCl", 
	 "Tm": 176.15, 
	 "num_atms": 21, 
	 "gaussian": { 
		 "optdone": 1, 
		 "sigma_profile": "yes", 
		 "theory": "DFT", 
		 "functional": "B3LYP", 
		 "basiset": "6-31G**", 
		 "properties": { 
			 "R2extent": 2805.9642, 
			 "electric_dipole_moment_norm": 3.28619382417, 
			 "electric_quadrupole_moment_norm": 8.61677837187, 
			 "total_energy": -1231.48010429, 
			 "HOMO_LUMO_gap": 0.28156, 
			 "cosmo_polarized_energy": -10.31, 
			 "cosmo_cavitation_energy": 26.13, 
			 "cosmo_dispersion_energy": -18.66, 
			 "cosmo_repulsion_energy": 1.55, 
			 "cosmo_total_nonelectrostatic_energy": 9.02, 
			 "SMD_solvation_energy": 3.8 
		},
		"coords": [
			{
				"x": 0.4542414158,
				"y": 1.97494849,
				"z": 1.5507172615,
				"element": "C" 
			},
			{
				"x": -0.8520394501,
				"y": 1.6952855657,
				"z": 0.8019619422,
				"element": "C" 
			},
			{
				"x": -1.4763572804,
				"y": 2.9492293005,
				"z": 0.1940279539,
				"element": "C" 
			},
			{
				"x": -0.3845569242,
				"y": 3.8278297808,
				"z": -0.9622233876,
				"element": "Cl" 
			},
			{
				"x": -0.7288675961,
				"y": 0.7692451996,
				"z": -0.2727262004,
				"element": "O" 
			},
			{
				"x": -0.5416377067,
				"y": -0.6236214912,
				"z": -0.0459805516,
				"element": "C" 
			},
			{
				"x": 0.9396618137,
				"y": -1.0116875435,
				"z": 0.0984735459,
				"element": "C" 
			},
			{
				"x": -1.3507781729,
				"y": -1.2118215863,
				"z": 1.1096755623,
				"element": "C" 
			},
			{
				"x": -3.140626188,
				"y": -0.9823246893,
				"z": 0.9099182715,
				"element": "Cl" 
			},
			{
				"x": 1.2455615576,
				"y": 2.2501320078,
				"z": 0.8500378354,
				"element": "H" 
			},
			{
				"x": 0.3141740601,
				"y": 2.800886358,
				"z": 2.2563190776,
				"element": "H" 
			},
			{
				"x": 0.7806825831,
				"y": 1.1043513062,
				"z": 2.1248526882,
				"element": "H" 
			},
			{
				"x": -1.6103914599,
				"y": 1.341559619,
				"z": 1.5185388463,
				"element": "H" 
			},
			{
				"x": -1.7343445736,
				"y": 3.6640315603,
				"z": 0.9770190052,
				"element": "H" 
			},
			{
				"x": -2.3671545887,
				"y": 2.6778969122,
				"z": -0.3716731204,
				"element": "H" 
			},
			{
				"x": -0.9156703888,
				"y": -1.079037538,
				"z": -0.9701483179,
				"element": "H" 
			},
			{
				"x": 1.065310572,
				"y": -2.0923249049,
				"z": -0.0270856387,
				"element": "H" 
			},
			{
				"x": 1.3573514917,
				"y": -0.7331379644,
				"z": 1.069877876,
				"element": "H" 
			},
			{
				"x": 1.5159114221,
				"y": -0.5057526488,
				"z": -0.6798218746,
				"element": "H" 
			},
			{
				"x": -1.0849618809,
				"y": -0.7732943841,
				"z": 2.0732594509,
				"element": "H" 
			},
			{
				"x": -1.181908706,
				"y": -2.2882933497,
				"z": 1.1619797741,
				"element": "H" 
			}
		],
		 "valence_orbital": [ 
			{
				"type": "occ",
				"energy": -0.30235,
				"method": "rhf"
			},
			{
				"type": "occ",
				"energy": -0.29688,
				"method": "rhf"
			},
			{
				"type": "occ",
				"energy": -0.29043,
				"method": "rhf"
			},
			{
				"type": "occ",
				"energy": -0.28687,
				"method": "rhf"
			},
			{
				"type": "occ",
				"energy": -0.26441,
				"method": "rhf"
			},
			{
				"type": "unocc",
				"energy": 0.01715,
				"method": "rhf"
			},
			{
				"type": "unocc",
				"energy": 0.03203,
				"method": "rhf"
			},
			{
				"type": "unocc",
				"energy": 0.06702,
				"method": "rhf"
			},
			{
				"type": "unocc",
				"energy": 0.08855,
				"method": "rhf"
			},
			{
				"type": "unocc",
				"energy": 0.10426,
				"method": "rhf"
			}
		],
		"cosmo_sigma_profile": { 
			"-0.025": 0.0,
			"-0.024": 0.0,
			"-0.023": 0.0,
			"-0.022": 0.0,
			"-0.021": 0.0,
			"-0.02": 0.0,
			"-0.019": 0.0,
			"-0.018": 0.0,
			"-0.017": 0.0,
			"-0.016": 0.0,
			"-0.015": 0.0,
			"-0.014": 0.0,
			"-0.013": 0.0,
			"-0.012": 0.0,
			"-0.011": 0.0,
			"-0.01": 0.0,
			"-0.009": 0.0885466887052,
			"-0.008": 2.64863371291,
			"-0.007": 11.182400367,
			"-0.006": 12.5944216271,
			"-0.005": 16.6259814025,
			"-0.004": 17.6177618983,
			"-0.003": 14.3062464082,
			"-0.002": 14.4737186617,
			"-0.001": 13.6936114209,
			"0.0": 18.1894791685,
			"0.001": 12.1159804381,
			"0.002": 7.64692994533,
			"0.003": 8.9750667176,
			"0.004": 9.75858236565,
			"0.005": 12.5989543004,
			"0.006": 15.3742884629,
			"0.007": 10.8505358138,
			"0.008": 2.78572159421,
			"0.009": 1.8849356351,
			"0.01": 1.46360129612,
			"0.011": 1.42014575226,
			"0.012": 1.4987574782,
			"0.013": 0.227814676652,
			"0.014": 0.0,
			"0.015": 0.0,
			"0.016": 0.0,
			"0.017": 0.0,
			"0.018": 0.0,
			"0.019": 0.0,
			"0.02": 0.0,
			"0.021": 0.0,
			"0.022": 0.0,
			"0.023": 0.0,
			"0.024": 0.0,
			"0.025": 0.0
		}
	}
}
