{
	 "smiles": "CC(Cl)C(=O)C1=C(C)N(C(C)=C1)C1=CC=C(Cl)C=C1", 
	 "Tm": 382.15, 
	 "num_atms": 34, 
	 "gaussian": { 
		 "optdone": 1, 
		 "sigma_profile": "yes", 
		 "theory": "DFT", 
		 "functional": "B3LYP", 
		 "basiset": "6-31G**", 
		 "properties": { 
			 "R2extent": 8566.4236, 
			 "electric_dipole_moment_norm": 4.44523155752, 
			 "electric_quadrupole_moment_norm": 21.2144238828, 
			 "total_energy": -1631.00790139, 
			 "HOMO_LUMO_gap": 0.16703, 
			 "cosmo_polarized_energy": -13.74, 
			 "cosmo_cavitation_energy": 40.77, 
			 "cosmo_dispersion_energy": -28.08, 
			 "cosmo_repulsion_energy": 2.19, 
			 "cosmo_total_nonelectrostatic_energy": 14.88, 
			 "SMD_solvation_energy": 6.96 
		},
		"coords": [
			{
				"x": 0.9907956199,
				"y": -3.7993380732,
				"z": -3.3897910057,
				"element": "C" 
			},
			{
				"x": 0.3658606867,
				"y": -2.6252816568,
				"z": -2.6590353034,
				"element": "C" 
			},
			{
				"x": -0.9302338018,
				"y": -1.8509273935,
				"z": -3.7191788446,
				"element": "Cl" 
			},
			{
				"x": 1.3948575298,
				"y": -1.528697177,
				"z": -2.3119819817,
				"element": "C" 
			},
			{
				"x": 2.4298972921,
				"y": -1.4793898455,
				"z": -2.9661206815,
				"element": "O" 
			},
			{
				"x": 1.1530790881,
				"y": -0.5927148021,
				"z": -1.2095859824,
				"element": "C" 
			},
			{
				"x": 0.0828079228,
				"y": -0.4578519747,
				"z": -0.3181684045,
				"element": "C" 
			},
			{
				"x": -1.2223869166,
				"y": -1.1831656267,
				"z": -0.1843716765,
				"element": "C" 
			},
			{
				"x": 0.4037141628,
				"y": 0.5814746218,
				"z": 0.5357340142,
				"element": "N" 
			},
			{
				"x": 1.6580723943,
				"y": 1.115002827,
				"z": 0.2039433658,
				"element": "C" 
			},
			{
				"x": 2.2745001595,
				"y": 2.241673199,
				"z": 0.9689548661,
				"element": "C" 
			},
			{
				"x": 2.1256925603,
				"y": 0.4021443252,
				"z": -0.8627583417,
				"element": "C" 
			},
			{
				"x": -0.4083345379,
				"y": 1.0586240959,
				"z": 1.6128485697,
				"element": "C" 
			},
			{
				"x": -0.4412701734,
				"y": 0.3665662865,
				"z": 2.827445513,
				"element": "C" 
			},
			{
				"x": -1.2215006186,
				"y": 0.8358606996,
				"z": 3.883331377,
				"element": "C" 
			},
			{
				"x": -1.961257489,
				"y": 2.0068260063,
				"z": 3.7148400681,
				"element": "C" 
			},
			{
				"x": -2.9414724756,
				"y": 2.6048298196,
				"z": 5.0412357415,
				"element": "Cl" 
			},
			{
				"x": -1.9358740464,
				"y": 2.7100913226,
				"z": 2.5100279757,
				"element": "C" 
			},
			{
				"x": -1.1574047383,
				"y": 2.229283798,
				"z": 1.4579570818,
				"element": "C" 
			},
			{
				"x": 0.2266080547,
				"y": -4.522200957,
				"z": -3.6837357083,
				"element": "H" 
			},
			{
				"x": 1.707077119,
				"y": -4.2945472037,
				"z": -2.7249223222,
				"element": "H" 
			},
			{
				"x": 1.533920931,
				"y": -3.4536756302,
				"z": -4.2698516417,
				"element": "H" 
			},
			{
				"x": -0.1740426495,
				"y": -2.9539003721,
				"z": -1.7707668064,
				"element": "H" 
			},
			{
				"x": -1.9248041004,
				"y": -0.6107947472,
				"z": 0.4252875432,
				"element": "H" 
			},
			{
				"x": -1.1038608875,
				"y": -2.1629143159,
				"z": 0.2963369011,
				"element": "H" 
			},
			{
				"x": -1.6842925311,
				"y": -1.3415437671,
				"z": -1.161242507,
				"element": "H" 
			},
			{
				"x": 2.3888585914,
				"y": 2.0063340086,
				"z": 2.0338797517,
				"element": "H" 
			},
			{
				"x": 1.6885281021,
				"y": 3.1661330874,
				"z": 0.9047374641,
				"element": "H" 
			},
			{
				"x": 3.2670932069,
				"y": 2.4478460852,
				"z": 0.5624407806,
				"element": "H" 
			},
			{
				"x": 3.0675771457,
				"y": 0.5426385746,
				"z": -1.3716717602,
				"element": "H" 
			},
			{
				"x": 0.1481736534,
				"y": -0.5373708406,
				"z": 2.9427491728,
				"element": "H" 
			},
			{
				"x": -1.2525022093,
				"y": 0.3038306732,
				"z": 4.8274496685,
				"element": "H" 
			},
			{
				"x": -2.5202620533,
				"y": 3.6161464719,
				"z": 2.3964387322,
				"element": "H" 
			},
			{
				"x": -1.133114992,
				"y": 2.7566084809,
				"z": 0.5097443806,
				"element": "H" 
			}
		],
		 "valence_orbital": [ 
			{
				"type": "occ",
				"energy": -0.28654,
				"method": "rhf"
			},
			{
				"type": "occ",
				"energy": -0.26851,
				"method": "rhf"
			},
			{
				"type": "occ",
				"energy": -0.24624,
				"method": "rhf"
			},
			{
				"type": "occ",
				"energy": -0.2422,
				"method": "rhf"
			},
			{
				"type": "occ",
				"energy": -0.21298,
				"method": "rhf"
			},
			{
				"type": "unocc",
				"energy": -0.04595,
				"method": "rhf"
			},
			{
				"type": "unocc",
				"energy": -0.0382,
				"method": "rhf"
			},
			{
				"type": "unocc",
				"energy": -0.03587,
				"method": "rhf"
			},
			{
				"type": "unocc",
				"energy": 0.01354,
				"method": "rhf"
			},
			{
				"type": "unocc",
				"energy": 0.02246,
				"method": "rhf"
			}
		],
		"cosmo_sigma_profile": { 
			"-0.025": 0.0,
			"-0.024": 0.0,
			"-0.023": 0.0,
			"-0.022": 0.0,
			"-0.021": 0.0,
			"-0.02": 0.0,
			"-0.019": 0.0,
			"-0.018": 0.0,
			"-0.017": 0.0,
			"-0.016": 0.0,
			"-0.015": 0.0,
			"-0.014": 0.0,
			"-0.013": 0.0,
			"-0.012": 0.0,
			"-0.011": 0.0,
			"-0.01": 0.0,
			"-0.009": 0.0,
			"-0.008": 4.5135123489,
			"-0.007": 11.5409855653,
			"-0.006": 13.7913446282,
			"-0.005": 18.0306390935,
			"-0.004": 24.4960476677,
			"-0.003": 26.647081775,
			"-0.002": 29.7865234159,
			"-0.001": 32.4129394016,
			"0.0": 28.8020081149,
			"0.001": 24.9149877261,
			"0.002": 25.0640495595,
			"0.003": 18.4714973599,
			"0.004": 23.0115951892,
			"0.005": 17.2684220026,
			"0.006": 12.3863221764,
			"0.007": 3.00159127579,
			"0.008": 2.19763876021,
			"0.009": 1.94365575363,
			"0.01": 1.6861294839,
			"0.011": 2.59287169887,
			"0.012": 4.04702594876,
			"0.013": 2.0145273002,
			"0.014": 0.0,
			"0.015": 0.0,
			"0.016": 0.0,
			"0.017": 0.0,
			"0.018": 0.0,
			"0.019": 0.0,
			"0.02": 0.0,
			"0.021": 0.0,
			"0.022": 0.0,
			"0.023": 0.0,
			"0.024": 0.0,
			"0.025": 0.0
		}
	}
}
