{
	 "smiles": "CN1C(=O)C(C#N)=C(N)C11CCCC1", 
	 "Tm": 564.15, 
	 "num_atms": 27, 
	 "gaussian": { 
		 "optdone": 1, 
		 "sigma_profile": "yes", 
		 "theory": "DFT", 
		 "functional": "B3LYP", 
		 "basiset": "6-31G**", 
		 "properties": { 
			 "R2extent": 3336.1837, 
			 "electric_dipole_moment_norm": 9.27995518631, 
			 "electric_quadrupole_moment_norm": 25.4208676955, 
			 "total_energy": -628.376794207, 
			 "HOMO_LUMO_gap": 0.19495, 
			 "cosmo_polarized_energy": -23.93, 
			 "cosmo_cavitation_energy": 29.17, 
			 "cosmo_dispersion_energy": -20.71, 
			 "cosmo_repulsion_energy": 1.62, 
			 "cosmo_total_nonelectrostatic_energy": 10.08, 
			 "SMD_solvation_energy": 6.4 
		},
		"coords": [
			{
				"x": -0.0376015111,
				"y": -0.804767145,
				"z": 1.434910479,
				"element": "C" 
			},
			{
				"x": 0.1445078062,
				"y": -0.8078018411,
				"z": 0.0010382705,
				"element": "N" 
			},
			{
				"x": 1.0726505897,
				"y": -1.6444694948,
				"z": -0.6068435996,
				"element": "C" 
			},
			{
				"x": 1.792743844,
				"y": -2.443397762,
				"z": -0.0310180188,
				"element": "O" 
			},
			{
				"x": 0.9801599009,
				"y": -1.3565351213,
				"z": -2.0570891747,
				"element": "C" 
			},
			{
				"x": 1.724587679,
				"y": -1.9879732934,
				"z": -3.0791116096,
				"element": "C" 
			},
			{
				"x": 2.2966060598,
				"y": -2.4643258754,
				"z": -3.9765903283,
				"element": "N" 
			},
			{
				"x": 0.0368935548,
				"y": -0.389348015,
				"z": -2.2652689068,
				"element": "C" 
			},
			{
				"x": -0.318806028,
				"y": 0.1558195455,
				"z": -3.4508706224,
				"element": "N" 
			},
			{
				"x": -0.5651484441,
				"y": 0.0564777425,
				"z": -0.9367562849,
				"element": "C" 
			},
			{
				"x": -0.3642300892,
				"y": 1.5774592112,
				"z": -0.6749441473,
				"element": "C" 
			},
			{
				"x": -1.546699515,
				"y": 2.2864414894,
				"z": -1.3647665154,
				"element": "C" 
			},
			{
				"x": -2.6935087626,
				"y": 1.2310678057,
				"z": -1.4517876838,
				"element": "C" 
			},
			{
				"x": -2.1146943895,
				"y": -0.092514096,
				"z": -0.8982335967,
				"element": "C" 
			},
			{
				"x": -1.0614980574,
				"y": -1.0727560155,
				"z": 1.7231153761,
				"element": "H" 
			},
			{
				"x": 0.2083348444,
				"y": 0.1656435049,
				"z": 1.8836287489,
				"element": "H" 
			},
			{
				"x": 0.6455119997,
				"y": -1.5567473802,
				"z": 1.8342598899,
				"element": "H" 
			},
			{
				"x": 0.0571061372,
				"y": -0.2498830959,
				"z": -4.2964380227,
				"element": "H" 
			},
			{
				"x": -1.157412814,
				"y": 0.7039756567,
				"z": -3.5396456317,
				"element": "H" 
			},
			{
				"x": 0.6147296393,
				"y": 1.9273695805,
				"z": -1.0124443815,
				"element": "H" 
			},
			{
				"x": -0.4115278631,
				"y": 1.7355660703,
				"z": 0.407471312,
				"element": "H" 
			},
			{
				"x": -1.8540675628,
				"y": 3.1781433889,
				"z": -0.8118156724,
				"element": "H" 
			},
			{
				"x": -1.2577497823,
				"y": 2.633199667,
				"z": -2.3623923891,
				"element": "H" 
			},
			{
				"x": -3.5718968623,
				"y": 1.5413171037,
				"z": -0.8792931073,
				"element": "H" 
			},
			{
				"x": -3.0430900874,
				"y": 1.1119714651,
				"z": -2.484238739,
				"element": "H" 
			},
			{
				"x": -2.4094892135,
				"y": -0.2204091563,
				"z": 0.1477147741,
				"element": "H" 
			},
			{
				"x": -2.455911073,
				"y": -0.9810239393,
				"z": -1.4364904185,
				"element": "H" 
			}
		],
		 "valence_orbital": [ 
			{
				"type": "occ",
				"energy": -0.3342,
				"method": "rhf"
			},
			{
				"type": "occ",
				"energy": -0.32089,
				"method": "rhf"
			},
			{
				"type": "occ",
				"energy": -0.24984,
				"method": "rhf"
			},
			{
				"type": "occ",
				"energy": -0.24309,
				"method": "rhf"
			},
			{
				"type": "occ",
				"energy": -0.228,
				"method": "rhf"
			},
			{
				"type": "unocc",
				"energy": -0.03305,
				"method": "rhf"
			},
			{
				"type": "unocc",
				"energy": 0.02584,
				"method": "rhf"
			},
			{
				"type": "unocc",
				"energy": 0.04055,
				"method": "rhf"
			},
			{
				"type": "unocc",
				"energy": 0.04229,
				"method": "rhf"
			},
			{
				"type": "unocc",
				"energy": 0.0618,
				"method": "rhf"
			}
		],
		"cosmo_sigma_profile": { 
			"-0.025": 0.0,
			"-0.024": 0.0,
			"-0.023": 0.0,
			"-0.022": 0.0,
			"-0.021": 0.0,
			"-0.02": 0.0,
			"-0.019": 0.0,
			"-0.018": 0.0,
			"-0.017": 0.0,
			"-0.016": 0.0226189717278,
			"-0.015": 1.03761940776,
			"-0.014": 2.16409444592,
			"-0.013": 2.15261906533,
			"-0.012": 2.81393447005,
			"-0.011": 1.76348638936,
			"-0.01": 2.74268142759,
			"-0.009": 2.55042253317,
			"-0.008": 2.22591483369,
			"-0.007": 1.90240173521,
			"-0.006": 5.54919505488,
			"-0.005": 13.6999021845,
			"-0.004": 20.7372899049,
			"-0.003": 25.0282878833,
			"-0.002": 27.2540607473,
			"-0.001": 22.7743755454,
			"0.0": 20.7167755654,
			"0.001": 11.2447358544,
			"0.002": 5.69678695621,
			"0.003": 4.71081932944,
			"0.004": 3.35317258352,
			"0.005": 5.39547628642,
			"0.006": 4.54030973622,
			"0.007": 3.62192108934,
			"0.008": 4.67835227708,
			"0.009": 4.16924490808,
			"0.01": 5.36813334354,
			"0.011": 4.48515539257,
			"0.012": 5.30851044462,
			"0.013": 6.02676315674,
			"0.014": 6.35864390846,
			"0.015": 0.290912938731,
			"0.016": 0.0,
			"0.017": 0.0,
			"0.018": 0.0,
			"0.019": 0.0,
			"0.02": 0.0,
			"0.021": 0.0,
			"0.022": 0.0,
			"0.023": 0.0,
			"0.024": 0.0,
			"0.025": 0.0
		}
	}
}
