{
	 "smiles": "[O-][N+](=O)C1=CC(=CC(=C1)C(=O)NCCCC1=CC=CC=C1)[N+]([O-])=O", 
	 "Tm": 396.15, 
	 "num_atms": 39, 
	 "gaussian": { 
		 "optdone": 1, 
		 "sigma_profile": "yes", 
		 "theory": "DFT", 
		 "functional": "B3LYP", 
		 "basiset": "6-31G**", 
		 "properties": { 
			 "R2extent": 8760.3109, 
			 "electric_dipole_moment_norm": 5.54779829302, 
			 "electric_quadrupole_moment_norm": 15.0022830649, 
			 "total_energy": -1158.93205651, 
			 "HOMO_LUMO_gap": 0.13875, 
			 "cosmo_polarized_energy": -19.21, 
			 "cosmo_cavitation_energy": 44.56, 
			 "cosmo_dispersion_energy": -28.54, 
			 "cosmo_repulsion_energy": 2.16, 
			 "cosmo_total_nonelectrostatic_energy": 18.18, 
			 "SMD_solvation_energy": 11.32 
		},
		"coords": [
			{
				"x": -3.4944090447,
				"y": -1.7059444067,
				"z": -3.5630737089,
				"element": "O" 
			},
			{
				"x": -2.9396443731,
				"y": -0.690213011,
				"z": -3.1530629169,
				"element": "N" 
			},
			{
				"x": -2.4228127535,
				"y": 0.1718996779,
				"z": -3.8611578632,
				"element": "O" 
			},
			{
				"x": -2.8847690265,
				"y": -0.4879338922,
				"z": -1.6919056909,
				"element": "C" 
			},
			{
				"x": -3.4534181724,
				"y": -1.4479954901,
				"z": -0.8648377687,
				"element": "C" 
			},
			{
				"x": -3.3870614037,
				"y": -1.2161109773,
				"z": 0.5055930182,
				"element": "C" 
			},
			{
				"x": -2.8015597187,
				"y": -0.0758221704,
				"z": 1.0431649315,
				"element": "C" 
			},
			{
				"x": -2.2095492409,
				"y": 0.8592128147,
				"z": 0.1866163417,
				"element": "C" 
			},
			{
				"x": -2.2575516941,
				"y": 0.6543408912,
				"z": -1.1948756168,
				"element": "C" 
			},
			{
				"x": -1.641819235,
				"y": 2.1105258125,
				"z": 0.8122159119,
				"element": "C" 
			},
			{
				"x": -2.2295659375,
				"y": 2.6367811493,
				"z": 1.7513186711,
				"element": "O" 
			},
			{
				"x": -0.5017828844,
				"y": 2.6419763945,
				"z": 0.2735190202,
				"element": "N" 
			},
			{
				"x": 0.5642705835,
				"y": 1.9568437149,
				"z": -0.462148847,
				"element": "C" 
			},
			{
				"x": 1.930552255,
				"y": 2.1053385453,
				"z": 0.2225063522,
				"element": "C" 
			},
			{
				"x": 2.0065127918,
				"y": 1.5418535387,
				"z": 1.6577310568,
				"element": "C" 
			},
			{
				"x": 1.6469071205,
				"y": 0.0731424252,
				"z": 1.7753112635,
				"element": "C" 
			},
			{
				"x": 2.432653066,
				"y": -0.9140545733,
				"z": 1.1607014266,
				"element": "C" 
			},
			{
				"x": 2.0954146858,
				"y": -2.2637667885,
				"z": 1.261642188,
				"element": "C" 
			},
			{
				"x": 0.9623064666,
				"y": -2.6533100686,
				"z": 1.9806327306,
				"element": "C" 
			},
			{
				"x": 0.1743440616,
				"y": -1.6840644557,
				"z": 2.6020758649,
				"element": "C" 
			},
			{
				"x": 0.5178038306,
				"y": -0.3332119317,
				"z": 2.4992392544,
				"element": "C" 
			},
			{
				"x": -3.9555560511,
				"y": -2.2252581826,
				"z": 1.4206888795,
				"element": "N" 
			},
			{
				"x": -3.7866947451,
				"y": -2.0527290462,
				"z": 2.6261785612,
				"element": "O" 
			},
			{
				"x": -4.5516519548,
				"y": -3.1729445265,
				"z": 0.9162398234,
				"element": "O" 
			},
			{
				"x": -3.9252486101,
				"y": -2.3338976298,
				"z": -1.2671117357,
				"element": "H" 
			},
			{
				"x": -2.8051264792,
				"y": 0.0881790876,
				"z": 2.1126580173,
				"element": "H" 
			},
			{
				"x": -1.8366175685,
				"y": 1.3670825616,
				"z": -1.8926479434,
				"element": "H" 
			},
			{
				"x": -0.2472785467,
				"y": 3.5109015208,
				"z": 0.7300248653,
				"element": "H" 
			},
			{
				"x": 0.3089528182,
				"y": 0.8979056736,
				"z": -0.5335613633,
				"element": "H" 
			},
			{
				"x": 0.6297536352,
				"y": 2.3495198253,
				"z": -1.4852229507,
				"element": "H" 
			},
			{
				"x": 2.6694105564,
				"y": 1.6053209266,
				"z": -0.4151077174,
				"element": "H" 
			},
			{
				"x": 2.2155414512,
				"y": 3.1660635386,
				"z": 0.2405531935,
				"element": "H" 
			},
			{
				"x": 3.0270899297,
				"y": 1.7037425896,
				"z": 2.0268022264,
				"element": "H" 
			},
			{
				"x": 1.3498387018,
				"y": 2.1245866742,
				"z": 2.3129053187,
				"element": "H" 
			},
			{
				"x": 3.3221955651,
				"y": -0.6250218973,
				"z": 0.6053323053,
				"element": "H" 
			},
			{
				"x": 2.7194406027,
				"y": -3.0128863,
				"z": 0.7822899563,
				"element": "H" 
			},
			{
				"x": 0.6999968528,
				"y": -3.704299286,
				"z": 2.059340897,
				"element": "H" 
			},
			{
				"x": -0.7105175254,
				"y": -1.9750964927,
				"z": 3.1615299814,
				"element": "H" 
			},
			{
				"x": -0.0940500091,
				"y": 0.4172437646,
				"z": 2.9946020662,
				"element": "H" 
			}
		],
		 "valence_orbital": [ 
			{
				"type": "occ",
				"energy": -0.30748,
				"method": "rhf"
			},
			{
				"type": "occ",
				"energy": -0.27937,
				"method": "rhf"
			},
			{
				"type": "occ",
				"energy": -0.26731,
				"method": "rhf"
			},
			{
				"type": "occ",
				"energy": -0.25954,
				"method": "rhf"
			},
			{
				"type": "occ",
				"energy": -0.25308,
				"method": "rhf"
			},
			{
				"type": "unocc",
				"energy": -0.11433,
				"method": "rhf"
			},
			{
				"type": "unocc",
				"energy": -0.10586,
				"method": "rhf"
			},
			{
				"type": "unocc",
				"energy": -0.05867,
				"method": "rhf"
			},
			{
				"type": "unocc",
				"energy": -0.0142,
				"method": "rhf"
			},
			{
				"type": "unocc",
				"energy": -0.01371,
				"method": "rhf"
			}
		],
		"cosmo_sigma_profile": { 
			"-0.025": 0.0,
			"-0.024": 0.0,
			"-0.023": 0.0,
			"-0.022": 0.0,
			"-0.021": 0.0,
			"-0.02": 0.0,
			"-0.019": 0.0,
			"-0.018": 0.0,
			"-0.017": 0.0,
			"-0.016": 0.0,
			"-0.015": 0.0,
			"-0.014": 0.219025157672,
			"-0.013": 0.98350939107,
			"-0.012": 0.976013447581,
			"-0.011": 0.764980682471,
			"-0.01": 1.58433275202,
			"-0.009": 1.75281133204,
			"-0.008": 4.48517917305,
			"-0.007": 8.06113630369,
			"-0.006": 13.0452794957,
			"-0.005": 26.9905205983,
			"-0.004": 41.6149515709,
			"-0.003": 43.395725624,
			"-0.002": 28.8952017139,
			"-0.001": 25.3906980577,
			"0.0": 19.0493927811,
			"0.001": 14.447874729,
			"0.002": 13.0911066929,
			"0.003": 13.7651421033,
			"0.004": 13.7879744493,
			"0.005": 15.8417841692,
			"0.006": 18.9133070569,
			"0.007": 18.0288839472,
			"0.008": 10.192933995,
			"0.009": 6.49809929303,
			"0.01": 2.19100958795,
			"0.011": 1.39055661858,
			"0.012": 2.62972757948,
			"0.013": 5.43415864825,
			"0.014": 1.16962969177,
			"0.015": 0.0,
			"0.016": 0.0,
			"0.017": 0.0,
			"0.018": 0.0,
			"0.019": 0.0,
			"0.02": 0.0,
			"0.021": 0.0,
			"0.022": 0.0,
			"0.023": 0.0,
			"0.024": 0.0,
			"0.025": 0.0
		}
	}
}
