{
	 "smiles": "COC1=CC=CC(C=O)=C1OC", 
	 "Tm": 325.15, 
	 "num_atms": 22, 
	 "gaussian": { 
		 "optdone": 1, 
		 "sigma_profile": "yes", 
		 "theory": "DFT", 
		 "functional": "B3LYP", 
		 "basiset": "6-31G**", 
		 "properties": { 
			 "R2extent": 2359.3434, 
			 "electric_dipole_moment_norm": 5.30000128396, 
			 "electric_quadrupole_moment_norm": 8.16089643177, 
			 "total_energy": -574.61355677, 
			 "HOMO_LUMO_gap": 0.17079, 
			 "cosmo_polarized_energy": -10.38, 
			 "cosmo_cavitation_energy": 26.01, 
			 "cosmo_dispersion_energy": -18.72, 
			 "cosmo_repulsion_energy": 1.49, 
			 "cosmo_total_nonelectrostatic_energy": 8.79, 
			 "SMD_solvation_energy": 7.18 
		},
		"coords": [
			{
				"x": 2.1698238886,
				"y": 1.6478064119,
				"z": 2.0625186238,
				"element": "C" 
			},
			{
				"x": 1.6439299708,
				"y": 0.3578456839,
				"z": 1.7875401021,
				"element": "O" 
			},
			{
				"x": 0.704184915,
				"y": 0.2402872177,
				"z": 0.8039751736,
				"element": "C" 
			},
			{
				"x": 0.1922977839,
				"y": 1.3069856358,
				"z": 0.0629305723,
				"element": "C" 
			},
			{
				"x": -0.7504408739,
				"y": 1.0822558202,
				"z": -0.9509785385,
				"element": "C" 
			},
			{
				"x": -1.184363795,
				"y": -0.2024730636,
				"z": -1.2293702799,
				"element": "C" 
			},
			{
				"x": -0.6889982507,
				"y": -1.2875158209,
				"z": -0.4843547219,
				"element": "C" 
			},
			{
				"x": -1.1706926066,
				"y": -2.6563815077,
				"z": -0.7924079179,
				"element": "C" 
			},
			{
				"x": -1.9942928853,
				"y": -2.899650001,
				"z": -1.6577851366,
				"element": "O" 
			},
			{
				"x": 0.2527778514,
				"y": -1.0741476181,
				"z": 0.5340454894,
				"element": "C" 
			},
			{
				"x": 0.7737355202,
				"y": -2.1514434958,
				"z": 1.2017768217,
				"element": "O" 
			},
			{
				"x": 0.4730542078,
				"y": -2.2460686371,
				"z": 2.5999732545,
				"element": "C" 
			},
			{
				"x": 2.90983873,
				"y": 1.5077275672,
				"z": 2.8516061288,
				"element": "H" 
			},
			{
				"x": 2.6593814331,
				"y": 2.0786446549,
				"z": 1.1801957544,
				"element": "H" 
			},
			{
				"x": 1.3915976281,
				"y": 2.3368655681,
				"z": 2.414975963,
				"element": "H" 
			},
			{
				"x": 0.5298114642,
				"y": 2.3177699846,
				"z": 0.2600574686,
				"element": "H" 
			},
			{
				"x": -1.130108201,
				"y": 1.926886184,
				"z": -1.5177911241,
				"element": "H" 
			},
			{
				"x": -1.908100565,
				"y": -0.4103251297,
				"z": -2.0100838798,
				"element": "H" 
			},
			{
				"x": -0.730019029,
				"y": -3.463484112,
				"z": -0.1789381907,
				"element": "H" 
			},
			{
				"x": 0.8871154955,
				"y": -1.4009963187,
				"z": 3.1552194122,
				"element": "H" 
			},
			{
				"x": 0.9345402085,
				"y": -3.1738674047,
				"z": 2.9428009132,
				"element": "H" 
			},
			{
				"x": -0.6110728904,
				"y": -2.2999216188,
				"z": 2.760294112,
				"element": "H" 
			}
		],
		 "valence_orbital": [ 
			{
				"type": "occ",
				"energy": -0.32478,
				"method": "rhf"
			},
			{
				"type": "occ",
				"energy": -0.29059,
				"method": "rhf"
			},
			{
				"type": "occ",
				"energy": -0.25186,
				"method": "rhf"
			},
			{
				"type": "occ",
				"energy": -0.24206,
				"method": "rhf"
			},
			{
				"type": "occ",
				"energy": -0.22572,
				"method": "rhf"
			},
			{
				"type": "unocc",
				"energy": -0.05493,
				"method": "rhf"
			},
			{
				"type": "unocc",
				"energy": -0.00094,
				"method": "rhf"
			},
			{
				"type": "unocc",
				"energy": 0.04898,
				"method": "rhf"
			},
			{
				"type": "unocc",
				"energy": 0.07594,
				"method": "rhf"
			},
			{
				"type": "unocc",
				"energy": 0.08963,
				"method": "rhf"
			}
		],
		"cosmo_sigma_profile": { 
			"-0.025": 0.0,
			"-0.024": 0.0,
			"-0.023": 0.0,
			"-0.022": 0.0,
			"-0.021": 0.0,
			"-0.02": 0.0,
			"-0.019": 0.0,
			"-0.018": 0.0,
			"-0.017": 0.0,
			"-0.016": 0.0,
			"-0.015": 0.0,
			"-0.014": 0.0,
			"-0.013": 0.0,
			"-0.012": 0.0,
			"-0.011": 0.0,
			"-0.01": 0.0,
			"-0.009": 0.0,
			"-0.008": 0.327198895104,
			"-0.007": 3.42163648441,
			"-0.006": 11.8534806535,
			"-0.005": 20.5299813733,
			"-0.004": 22.6071958996,
			"-0.003": 24.4539406222,
			"-0.002": 16.5082287095,
			"-0.001": 12.1743984371,
			"0.0": 10.5301216695,
			"0.001": 13.1302905619,
			"0.002": 15.9922635224,
			"0.003": 12.540212405,
			"0.004": 9.995694077,
			"0.005": 5.07463296308,
			"0.006": 3.6203463064,
			"0.007": 3.02711154841,
			"0.008": 3.4692456479,
			"0.009": 3.67824880552,
			"0.01": 5.28862119489,
			"0.011": 4.23970419683,
			"0.012": 3.62088608042,
			"0.013": 1.14911595761,
			"0.014": 0.0469437973585,
			"0.015": 0.0,
			"0.016": 0.0,
			"0.017": 0.0,
			"0.018": 0.0,
			"0.019": 0.0,
			"0.02": 0.0,
			"0.021": 0.0,
			"0.022": 0.0,
			"0.023": 0.0,
			"0.024": 0.0,
			"0.025": 0.0
		}
	}
}
