{
	 "smiles": "CC(CCC(O)=O)C1CCC2C3CCC4C(Br)C(=O)CCC4(C)C3CCC12C", 
	 "Tm": 463.15, 
	 "num_atms": 65, 
	 "gaussian": { 
		 "optdone": 1, 
		 "sigma_profile": "yes", 
		 "theory": "DFT", 
		 "functional": "B3LYP", 
		 "basiset": "6-31G**", 
		 "properties": { 
			 "R2extent": 18281.6906, 
			 "electric_dipole_moment_norm": 5.57629603411, 
			 "electric_quadrupole_moment_norm": 29.6426806851, 
			 "total_energy": -3733.95234348, 
			 "HOMO_LUMO_gap": 0.22438, 
			 "cosmo_polarized_energy": -18.1, 
			 "cosmo_cavitation_energy": 56.58, 
			 "cosmo_dispersion_energy": -38.98, 
			 "cosmo_repulsion_energy": 2.88, 
			 "cosmo_total_nonelectrostatic_energy": 20.48, 
			 "SMD_solvation_energy": 8.51 
		},
		"coords": [
			{
				"x": 3.2559971524,
				"y": 2.6841377638,
				"z": -0.7322844835,
				"element": "C" 
			},
			{
				"x": 2.321946239,
				"y": 2.012262497,
				"z": -1.757032817,
				"element": "C" 
			},
			{
				"x": 2.7066362741,
				"y": 0.5405489723,
				"z": -2.0207489379,
				"element": "C" 
			},
			{
				"x": 4.0751847211,
				"y": 0.3773840811,
				"z": -2.6899193074,
				"element": "C" 
			},
			{
				"x": 4.3944776039,
				"y": -1.063748729,
				"z": -3.0230025215,
				"element": "C" 
			},
			{
				"x": 5.6086935592,
				"y": -1.1789009079,
				"z": -3.6170008097,
				"element": "O" 
			},
			{
				"x": 3.6863541706,
				"y": -2.0226362108,
				"z": -2.8041296189,
				"element": "O" 
			},
			{
				"x": 0.8121376866,
				"y": 2.285564255,
				"z": -1.464820667,
				"element": "C" 
			},
			{
				"x": -0.0894612525,
				"y": 1.9345943706,
				"z": -2.7036430877,
				"element": "C" 
			},
			{
				"x": -1.1502616157,
				"y": 0.8980941295,
				"z": -2.2469059252,
				"element": "C" 
			},
			{
				"x": -0.5890807263,
				"y": 0.3717011023,
				"z": -0.920254669,
				"element": "C" 
			},
			{
				"x": -1.4686427841,
				"y": -0.5368238649,
				"z": -0.0340250229,
				"element": "C" 
			},
			{
				"x": -2.9106802564,
				"y": -0.0350929586,
				"z": 0.2813415189,
				"element": "C" 
			},
			{
				"x": -3.2576031045,
				"y": 0.0437892579,
				"z": 1.777430401,
				"element": "C" 
			},
			{
				"x": -2.8350316456,
				"y": -1.1694832572,
				"z": 2.6442449508,
				"element": "C" 
			},
			{
				"x": -3.9526846027,
				"y": -2.230335604,
				"z": 2.796493107,
				"element": "C" 
			},
			{
				"x": -5.5311514696,
				"y": -1.5365398034,
				"z": 3.7537082827,
				"element": "Br" 
			},
			{
				"x": -4.326373128,
				"y": -2.8544956121,
				"z": 1.4568914861,
				"element": "C" 
			},
			{
				"x": -5.4501740121,
				"y": -2.9332617912,
				"z": 1.013663521,
				"element": "O" 
			},
			{
				"x": -3.1079405768,
				"y": -3.3741960495,
				"z": 0.6961767952,
				"element": "C" 
			},
			{
				"x": -1.7823674212,
				"y": -3.2403955694,
				"z": 1.4620522378,
				"element": "C" 
			},
			{
				"x": -1.4940497082,
				"y": -1.8728020855,
				"z": 2.1825228203,
				"element": "C" 
			},
			{
				"x": -0.6730405109,
				"y": -2.2234774515,
				"z": 3.4431220874,
				"element": "C" 
			},
			{
				"x": -0.6614811483,
				"y": -0.9409862982,
				"z": 1.2364046957,
				"element": "C" 
			},
			{
				"x": 0.0101616685,
				"y": 0.271098503,
				"z": 1.9309054815,
				"element": "C" 
			},
			{
				"x": 0.8625237881,
				"y": 1.1267946789,
				"z": 0.9666819531,
				"element": "C" 
			},
			{
				"x": 0.0546557009,
				"y": 1.6165755144,
				"z": -0.2505166731,
				"element": "C" 
			},
			{
				"x": -0.9746055852,
				"y": 2.6711083122,
				"z": 0.2295258831,
				"element": "C" 
			},
			{
				"x": 4.2883297672,
				"y": 2.7178687833,
				"z": -1.0954674782,
				"element": "H" 
			},
			{
				"x": 3.2641659369,
				"y": 2.1622853765,
				"z": 0.2283402682,
				"element": "H" 
			},
			{
				"x": 2.9479120502,
				"y": 3.7185273135,
				"z": -0.5454474578,
				"element": "H" 
			},
			{
				"x": 2.4892847005,
				"y": 2.5425676722,
				"z": -2.7087409055,
				"element": "H" 
			},
			{
				"x": 1.9626828279,
				"y": 0.0650385574,
				"z": -2.6673207837,
				"element": "H" 
			},
			{
				"x": 2.7053147931,
				"y": -0.0374518618,
				"z": -1.0911642721,
				"element": "H" 
			},
			{
				"x": 4.891507236,
				"y": 0.7539684424,
				"z": -2.0626714659,
				"element": "H" 
			},
			{
				"x": 4.1343357858,
				"y": 0.9543141481,
				"z": -3.6224172861,
				"element": "H" 
			},
			{
				"x": 5.7317121416,
				"y": -2.1264191441,
				"z": -3.7954053272,
				"element": "H" 
			},
			{
				"x": 0.77484105,
				"y": 3.3702267117,
				"z": -1.3086035656,
				"element": "H" 
			},
			{
				"x": 0.5229108681,
				"y": 1.5214131117,
				"z": -3.5117634159,
				"element": "H" 
			},
			{
				"x": -0.5600536697,
				"y": 2.8339560403,
				"z": -3.1127774239,
				"element": "H" 
			},
			{
				"x": -1.2959616436,
				"y": 0.0994593081,
				"z": -2.98232633,
				"element": "H" 
			},
			{
				"x": -2.1258639783,
				"y": 1.3748767448,
				"z": -2.1046156259,
				"element": "H" 
			},
			{
				"x": 0.2650762425,
				"y": -0.2665790522,
				"z": -1.1888309906,
				"element": "H" 
			},
			{
				"x": -1.5813960115,
				"y": -1.4580541307,
				"z": -0.6184589201,
				"element": "H" 
			},
			{
				"x": -3.6346775877,
				"y": -0.6866714057,
				"z": -0.2194833711,
				"element": "H" 
			},
			{
				"x": -3.0812618241,
				"y": 0.953479566,
				"z": -0.1533370506,
				"element": "H" 
			},
			{
				"x": -2.7864838865,
				"y": 0.9334477893,
				"z": 2.205632565,
				"element": "H" 
			},
			{
				"x": -4.3338766689,
				"y": 0.2062690242,
				"z": 1.8939054589,
				"element": "H" 
			},
			{
				"x": -2.66731533,
				"y": -0.7871574096,
				"z": 3.655610125,
				"element": "H" 
			},
			{
				"x": -3.5905839256,
				"y": -3.0326133067,
				"z": 3.4465329609,
				"element": "H" 
			},
			{
				"x": -3.3037748786,
				"y": -4.4261857638,
				"z": 0.4559856775,
				"element": "H" 
			},
			{
				"x": -3.0920505192,
				"y": -2.8549040722,
				"z": -0.2665787354,
				"element": "H" 
			},
			{
				"x": -1.7665135822,
				"y": -4.0289156713,
				"z": 2.2239352848,
				"element": "H" 
			},
			{
				"x": -0.9502332454,
				"y": -3.4748916532,
				"z": 0.7891693682,
				"element": "H" 
			},
			{
				"x": -1.2368648969,
				"y": -2.9006735525,
				"z": 4.0949563986,
				"element": "H" 
			},
			{
				"x": 0.2626140775,
				"y": -2.729426769,
				"z": 3.1768551673,
				"element": "H" 
			},
			{
				"x": -0.4235518993,
				"y": -1.3391597005,
				"z": 4.0342736545,
				"element": "H" 
			},
			{
				"x": 0.1729059353,
				"y": -1.5634173125,
				"z": 0.877863375,
				"element": "H" 
			},
			{
				"x": -0.7319295931,
				"y": 0.9016053068,
				"z": 2.4304248277,
				"element": "H" 
			},
			{
				"x": 0.6745485846,
				"y": -0.0896702997,
				"z": 2.7221367915,
				"element": "H" 
			},
			{
				"x": 1.7057416958,
				"y": 0.5140443271,
				"z": 0.6312238111,
				"element": "H" 
			},
			{
				"x": 1.2893091181,
				"y": 1.9704584083,
				"z": 1.5230590938,
				"element": "H" 
			},
			{
				"x": -1.5967931176,
				"y": 3.0440392777,
				"z": -0.5895499279,
				"element": "H" 
			},
			{
				"x": -0.4409414069,
				"y": 3.533102349,
				"z": 0.6464309286,
				"element": "H" 
			},
			{
				"x": -1.6438041621,
				"y": 2.2995656026,
				"z": 1.0068438964,
				"element": "H" 
			}
		],
		 "valence_orbital": [ 
			{
				"type": "occ",
				"energy": -0.27795,
				"method": "rhf"
			},
			{
				"type": "occ",
				"energy": -0.27282,
				"method": "rhf"
			},
			{
				"type": "occ",
				"energy": -0.26699,
				"method": "rhf"
			},
			{
				"type": "occ",
				"energy": -0.26526,
				"method": "rhf"
			},
			{
				"type": "occ",
				"energy": -0.24658,
				"method": "rhf"
			},
			{
				"type": "unocc",
				"energy": -0.0222,
				"method": "rhf"
			},
			{
				"type": "unocc",
				"energy": 0.00647,
				"method": "rhf"
			},
			{
				"type": "unocc",
				"energy": 0.00773,
				"method": "rhf"
			},
			{
				"type": "unocc",
				"energy": 0.05485,
				"method": "rhf"
			},
			{
				"type": "unocc",
				"energy": 0.07027,
				"method": "rhf"
			}
		],
		"cosmo_sigma_profile": { 
			"-0.025": 0.0,
			"-0.024": 0.0,
			"-0.023": 0.0,
			"-0.022": 0.0,
			"-0.021": 0.0,
			"-0.02": 0.0,
			"-0.019": 0.0,
			"-0.018": 0.305845711154,
			"-0.017": 1.08331137174,
			"-0.016": 0.632325705941,
			"-0.015": 0.789719933637,
			"-0.014": 0.913120095144,
			"-0.013": 0.802572495908,
			"-0.012": 0.38202003278,
			"-0.011": 0.430100853467,
			"-0.01": 1.33673573391,
			"-0.009": 2.18908315575,
			"-0.008": 3.69208862838,
			"-0.007": 3.59110350175,
			"-0.006": 7.93378133651,
			"-0.005": 15.5278300596,
			"-0.004": 19.6873392453,
			"-0.003": 39.037357095,
			"-0.002": 66.163326451,
			"-0.001": 67.7286350305,
			"0.0": 59.2644370217,
			"0.001": 41.5334451192,
			"0.002": 25.614403024,
			"0.003": 9.40542743834,
			"0.004": 8.05938686456,
			"0.005": 10.8592915365,
			"0.006": 9.93833407057,
			"0.007": 5.3089175349,
			"0.008": 4.4472272989,
			"0.009": 5.95487650403,
			"0.01": 5.70978935267,
			"0.011": 6.86016667664,
			"0.012": 9.39490062244,
			"0.013": 3.49220032631,
			"0.014": 0.125833396726,
			"0.015": 0.0,
			"0.016": 0.0,
			"0.017": 0.0,
			"0.018": 0.0,
			"0.019": 0.0,
			"0.02": 0.0,
			"0.021": 0.0,
			"0.022": 0.0,
			"0.023": 0.0,
			"0.024": 0.0,
			"0.025": 0.0
		}
	}
}
