{
	 "smiles": "CCN(C(C(N)=S)C1=CN=CC=C1)C(=O)OC(C)(C)C", 
	 "Tm": 413.15, 
	 "num_atms": 41, 
	 "gaussian": { 
		 "optdone": 1, 
		 "sigma_profile": "yes", 
		 "theory": "DFT", 
		 "functional": "B3LYP", 
		 "basiset": "6-31G**", 
		 "properties": { 
			 "R2extent": 6534.6846, 
			 "electric_dipole_moment_norm": 5.12694745341, 
			 "electric_quadrupole_moment_norm": 8.50819392645, 
			 "total_energy": -1259.06892581, 
			 "HOMO_LUMO_gap": 0.16842, 
			 "cosmo_polarized_energy": -19.1, 
			 "cosmo_cavitation_energy": 43.34, 
			 "cosmo_dispersion_energy": -28.75, 
			 "cosmo_repulsion_energy": 2.18, 
			 "cosmo_total_nonelectrostatic_energy": 16.78, 
			 "SMD_solvation_energy": 6.12 
		},
		"coords": [
			{
				"x": 0.0756489641,
				"y": -3.3840568544,
				"z": -1.2245516858,
				"element": "C" 
			},
			{
				"x": 0.9717802452,
				"y": -2.1444451153,
				"z": -1.2576196918,
				"element": "C" 
			},
			{
				"x": 0.5322122397,
				"y": -1.0624879153,
				"z": -0.3497330002,
				"element": "N" 
			},
			{
				"x": -0.0780722298,
				"y": 0.1606328383,
				"z": -0.8938394129,
				"element": "C" 
			},
			{
				"x": -1.5011037572,
				"y": -0.1876597916,
				"z": -1.3968845564,
				"element": "C" 
			},
			{
				"x": -2.3727793517,
				"y": -0.2599921828,
				"z": -0.3722122671,
				"element": "N" 
			},
			{
				"x": -1.9300924225,
				"y": -0.520692399,
				"z": -2.9668262166,
				"element": "S" 
			},
			{
				"x": 0.8336652675,
				"y": 0.9157063714,
				"z": -1.8535443486,
				"element": "C" 
			},
			{
				"x": 2.2253120125,
				"y": 0.7633290105,
				"z": -1.7856834473,
				"element": "C" 
			},
			{
				"x": 3.1010373402,
				"y": 1.4650181442,
				"z": -2.515268411,
				"element": "N" 
			},
			{
				"x": 2.6070284309,
				"y": 2.3781986045,
				"z": -3.3582452372,
				"element": "C" 
			},
			{
				"x": 1.2422921146,
				"y": 2.6310393905,
				"z": -3.4947456271,
				"element": "C" 
			},
			{
				"x": 0.3439845311,
				"y": 1.8922146106,
				"z": -2.729056486,
				"element": "C" 
			},
			{
				"x": 0.6316958068,
				"y": -1.3056698173,
				"z": 0.9990111301,
				"element": "C" 
			},
			{
				"x": 1.2159778544,
				"y": -2.2708923715,
				"z": 1.4638519975,
				"element": "O" 
			},
			{
				"x": -0.0170747316,
				"y": -0.3569755727,
				"z": 1.7401495909,
				"element": "O" 
			},
			{
				"x": 0.1273624809,
				"y": -0.3237930594,
				"z": 3.2123374855,
				"element": "C" 
			},
			{
				"x": -0.5066740222,
				"y": -1.5758377343,
				"z": 3.8258303752,
				"element": "C" 
			},
			{
				"x": -0.6606486834,
				"y": 0.9311881336,
				"z": 3.5959867209,
				"element": "C" 
			},
			{
				"x": 1.6038543068,
				"y": -0.1711412723,
				"z": 3.5897963482,
				"element": "C" 
			},
			{
				"x": -0.9435207952,
				"y": -3.1456024898,
				"z": -1.5395110951,
				"element": "H" 
			},
			{
				"x": 0.4732606648,
				"y": -4.1368878666,
				"z": -1.9132265607,
				"element": "H" 
			},
			{
				"x": 0.0552412055,
				"y": -3.8182704942,
				"z": -0.2226254811,
				"element": "H" 
			},
			{
				"x": 1.9948452115,
				"y": -2.4178805468,
				"z": -0.9840934851,
				"element": "H" 
			},
			{
				"x": 0.9925809489,
				"y": -1.7202424155,
				"z": -2.2628134424,
				"element": "H" 
			},
			{
				"x": -0.2186608322,
				"y": 0.8198040022,
				"z": -0.0344643817,
				"element": "H" 
			},
			{
				"x": -3.3035812096,
				"y": -0.6094364925,
				"z": -0.5512053128,
				"element": "H" 
			},
			{
				"x": -2.0459738254,
				"y": -0.1925445077,
				"z": 0.5844629359,
				"element": "H" 
			},
			{
				"x": 2.6574772637,
				"y": 0.0374568652,
				"z": -1.1013993405,
				"element": "H" 
			},
			{
				"x": 3.3350004894,
				"y": 2.9358482731,
				"z": -3.9451048586,
				"element": "H" 
			},
			{
				"x": 0.8893159798,
				"y": 3.3889272544,
				"z": -4.1870713446,
				"element": "H" 
			},
			{
				"x": -0.7214799398,
				"y": 2.0686239074,
				"z": -2.8184019065,
				"element": "H" 
			},
			{
				"x": 0.0373575765,
				"y": -2.4726978136,
				"z": 3.5309514515,
				"element": "H" 
			},
			{
				"x": -0.4948424899,
				"y": -1.4940610558,
				"z": 4.9174810351,
				"element": "H" 
			},
			{
				"x": -1.5498810155,
				"y": -1.672083668,
				"z": 3.5069526158,
				"element": "H" 
			},
			{
				"x": -0.6286778903,
				"y": 1.0746521876,
				"z": 4.679819631,
				"element": "H" 
			},
			{
				"x": -1.7101297643,
				"y": 0.8428113311,
				"z": 3.2970396856,
				"element": "H" 
			},
			{
				"x": -0.2365673617,
				"y": 1.8192123229,
				"z": 3.1183427281,
				"element": "H" 
			},
			{
				"x": 1.6892751864,
				"y": -0.0262917506,
				"z": 4.6713907242,
				"element": "H" 
			},
			{
				"x": 2.0352996438,
				"y": 0.7051791492,
				"z": 3.0958181823,
				"element": "H" 
			},
			{
				"x": 2.1755545573,
				"y": -1.0553992098,
				"z": 3.3083049592,
				"element": "H" 
			}
		],
		 "valence_orbital": [ 
			{
				"type": "occ",
				"energy": -0.26017,
				"method": "rhf"
			},
			{
				"type": "occ",
				"energy": -0.25666,
				"method": "rhf"
			},
			{
				"type": "occ",
				"energy": -0.24857,
				"method": "rhf"
			},
			{
				"type": "occ",
				"energy": -0.24173,
				"method": "rhf"
			},
			{
				"type": "occ",
				"energy": -0.21534,
				"method": "rhf"
			},
			{
				"type": "unocc",
				"energy": -0.04692,
				"method": "rhf"
			},
			{
				"type": "unocc",
				"energy": -0.02235,
				"method": "rhf"
			},
			{
				"type": "unocc",
				"energy": -0.01239,
				"method": "rhf"
			},
			{
				"type": "unocc",
				"energy": 0.03603,
				"method": "rhf"
			},
			{
				"type": "unocc",
				"energy": 0.05254,
				"method": "rhf"
			}
		],
		"cosmo_sigma_profile": { 
			"-0.025": 0.0,
			"-0.024": 0.0,
			"-0.023": 0.0,
			"-0.022": 0.0,
			"-0.021": 0.0,
			"-0.02": 0.0,
			"-0.019": 0.0,
			"-0.018": 0.0,
			"-0.017": 0.0,
			"-0.016": 0.0135645238572,
			"-0.015": 0.832101565053,
			"-0.014": 1.20408824207,
			"-0.013": 1.38318724217,
			"-0.012": 1.8848199058,
			"-0.011": 1.39214748821,
			"-0.01": 1.49486849477,
			"-0.009": 1.82095295782,
			"-0.008": 3.57179564576,
			"-0.007": 5.28582380029,
			"-0.006": 11.9846136613,
			"-0.005": 15.3131982045,
			"-0.004": 30.1514413654,
			"-0.003": 32.578480807,
			"-0.002": 31.0314693066,
			"-0.001": 32.7404347866,
			"0.0": 39.6580085719,
			"0.001": 30.0780783222,
			"0.002": 16.2593142863,
			"0.003": 15.4562464089,
			"0.004": 11.8890190013,
			"0.005": 8.37398644903,
			"0.006": 7.59631463168,
			"0.007": 9.38166440285,
			"0.008": 7.16893412544,
			"0.009": 5.18831133451,
			"0.01": 5.43996726369,
			"0.011": 5.16499765966,
			"0.012": 3.08740420402,
			"0.013": 3.06288304517,
			"0.014": 0.512105575384,
			"0.015": 0.991849189188,
			"0.016": 1.00149147614,
			"0.017": 0.181757524466,
			"0.018": 0.0,
			"0.019": 0.0,
			"0.02": 0.0,
			"0.021": 0.0,
			"0.022": 0.0,
			"0.023": 0.0,
			"0.024": 0.0,
			"0.025": 0.0
		}
	}
}
