{
	 "smiles": "NC1=CC=C(C=C1)N1CCNC1=O", 
	 "Tm": 445.15, 
	 "num_atms": 24, 
	 "gaussian": { 
		 "optdone": 1, 
		 "sigma_profile": "yes", 
		 "theory": "DFT", 
		 "functional": "B3LYP", 
		 "basiset": "6-31G**", 
		 "properties": { 
			 "R2extent": 3574.704, 
			 "electric_dipole_moment_norm": 4.1409881357, 
			 "electric_quadrupole_moment_norm": 24.4636730206, 
			 "total_energy": -589.088597636, 
			 "HOMO_LUMO_gap": 0.18805, 
			 "cosmo_polarized_energy": -17.43, 
			 "cosmo_cavitation_energy": 26.89, 
			 "cosmo_dispersion_energy": -20.48, 
			 "cosmo_repulsion_energy": 1.61, 
			 "cosmo_total_nonelectrostatic_energy": 8.02, 
			 "SMD_solvation_energy": 3.56 
		},
		"coords": [
			{
				"x": 1.9613506489,
				"y": 2.1809226099,
				"z": 2.6367746717,
				"element": "N" 
			},
			{
				"x": 1.453935706,
				"y": 1.6725462583,
				"z": 1.4324656354,
				"element": "C" 
			},
			{
				"x": 0.0946441957,
				"y": 1.8078118254,
				"z": 1.1051584404,
				"element": "C" 
			},
			{
				"x": -0.4124115879,
				"y": 1.3576379376,
				"z": -0.1079434594,
				"element": "C" 
			},
			{
				"x": 0.4362877845,
				"y": 0.7567841488,
				"z": -1.0547638088,
				"element": "C" 
			},
			{
				"x": 1.7953875343,
				"y": 0.6216208424,
				"z": -0.7346924537,
				"element": "C" 
			},
			{
				"x": 2.2938216275,
				"y": 1.0687001079,
				"z": 0.4879213777,
				"element": "C" 
			},
			{
				"x": -0.0512044163,
				"y": 0.264764649,
				"z": -2.2906298226,
				"element": "N" 
			},
			{
				"x": 0.8130318265,
				"y": -0.4303023036,
				"z": -3.2410731025,
				"element": "C" 
			},
			{
				"x": -0.1770438921,
				"y": -0.8817262386,
				"z": -4.3297577918,
				"element": "C" 
			},
			{
				"x": -1.2171382534,
				"y": 0.12708991,
				"z": -4.199324476,
				"element": "N" 
			},
			{
				"x": -1.2496499636,
				"y": 0.6354818291,
				"z": -2.9024552708,
				"element": "C" 
			},
			{
				"x": -2.1665845228,
				"y": 1.2844474572,
				"z": -2.4255106459,
				"element": "O" 
			},
			{
				"x": 2.8064423934,
				"y": 1.72799213,
				"z": 2.9587677476,
				"element": "H" 
			},
			{
				"x": 1.2792781779,
				"y": 2.2465805819,
				"z": 3.3807805329,
				"element": "H" 
			},
			{
				"x": -0.5813799042,
				"y": 2.2767005878,
				"z": 1.8165482028,
				"element": "H" 
			},
			{
				"x": -1.4615102325,
				"y": 1.4772184169,
				"z": -0.3393409937,
				"element": "H" 
			},
			{
				"x": 2.4864006718,
				"y": 0.1678357032,
				"z": -1.4363432053,
				"element": "H" 
			},
			{
				"x": 3.3532371282,
				"y": 0.9532552478,
				"z": 0.7040763056,
				"element": "H" 
			},
			{
				"x": 1.323623403,
				"y": -1.2757384087,
				"z": -2.7712185507,
				"element": "H" 
			},
			{
				"x": 1.574523808,
				"y": 0.248729812,
				"z": -3.6513186123,
				"element": "H" 
			},
			{
				"x": -0.5500791375,
				"y": -1.8954173846,
				"z": -4.1211642561,
				"element": "H" 
			},
			{
				"x": 0.2782305819,
				"y": -0.8786161806,
				"z": -5.3241577723,
				"element": "H" 
			},
			{
				"x": -2.1223935774,
				"y": -0.0091195391,
				"z": -4.6264986923,
				"element": "H" 
			}
		],
		 "valence_orbital": [ 
			{
				"type": "occ",
				"energy": -0.26119,
				"method": "rhf"
			},
			{
				"type": "occ",
				"energy": -0.25546,
				"method": "rhf"
			},
			{
				"type": "occ",
				"energy": -0.24841,
				"method": "rhf"
			},
			{
				"type": "occ",
				"energy": -0.23918,
				"method": "rhf"
			},
			{
				"type": "occ",
				"energy": -0.17967,
				"method": "rhf"
			},
			{
				"type": "unocc",
				"energy": 0.00838,
				"method": "rhf"
			},
			{
				"type": "unocc",
				"energy": 0.02041,
				"method": "rhf"
			},
			{
				"type": "unocc",
				"energy": 0.06768,
				"method": "rhf"
			},
			{
				"type": "unocc",
				"energy": 0.08059,
				"method": "rhf"
			},
			{
				"type": "unocc",
				"energy": 0.08773,
				"method": "rhf"
			}
		],
		"cosmo_sigma_profile": { 
			"-0.025": 0.0,
			"-0.024": 0.0,
			"-0.023": 0.0,
			"-0.022": 0.0,
			"-0.021": 0.0,
			"-0.02": 0.0,
			"-0.019": 0.0,
			"-0.018": 0.0,
			"-0.017": 0.0,
			"-0.016": 0.0,
			"-0.015": 0.0,
			"-0.014": 0.447316568463,
			"-0.013": 1.2680622038,
			"-0.012": 2.79583542516,
			"-0.011": 3.30338643162,
			"-0.01": 4.53442383945,
			"-0.009": 4.44407906918,
			"-0.008": 3.27455915549,
			"-0.007": 3.91643622172,
			"-0.006": 12.1961241288,
			"-0.005": 22.2092198017,
			"-0.004": 20.7474838609,
			"-0.003": 15.1040759102,
			"-0.002": 9.74710850473,
			"-0.001": 8.3495979196,
			"0.0": 6.99744913468,
			"0.001": 8.11075796929,
			"0.002": 7.68812769488,
			"0.003": 10.5072206157,
			"0.004": 9.60061062698,
			"0.005": 10.1388741826,
			"0.006": 12.6647493766,
			"0.007": 10.3902858784,
			"0.008": 3.90201967875,
			"0.009": 2.83333070285,
			"0.01": 2.71585046651,
			"0.011": 2.35408105203,
			"0.012": 2.62665274835,
			"0.013": 4.55143386825,
			"0.014": 4.19020725167,
			"0.015": 0.959026564559,
			"0.016": 0.12770802208,
			"0.017": 0.0,
			"0.018": 0.0,
			"0.019": 0.0,
			"0.02": 0.0,
			"0.021": 0.0,
			"0.022": 0.0,
			"0.023": 0.0,
			"0.024": 0.0,
			"0.025": 0.0
		}
	}
}
