{
	 "smiles": "ClS(=O)(=O)C1=CC=C(C=C1)N1CCCC1=O", 
	 "Tm": 381.15, 
	 "num_atms": 26, 
	 "gaussian": { 
		 "optdone": 1, 
		 "sigma_profile": "yes", 
		 "theory": "DFT", 
		 "functional": "B3LYP", 
		 "basiset": "6-31G**", 
		 "properties": { 
			 "R2extent": 7608.5665, 
			 "electric_dipole_moment_norm": 8.67365850262, 
			 "electric_quadrupole_moment_norm": 25.6079949244, 
			 "total_energy": -1525.8481415, 
			 "HOMO_LUMO_gap": 0.16488, 
			 "cosmo_polarized_energy": -15.49, 
			 "cosmo_cavitation_energy": 32.85, 
			 "cosmo_dispersion_energy": -24.86, 
			 "cosmo_repulsion_energy": 1.88, 
			 "cosmo_total_nonelectrostatic_energy": 9.88, 
			 "SMD_solvation_energy": 4.17 
		},
		"coords": [
			{
				"x": 2.8825280385,
				"y": 2.5259288632,
				"z": 4.4728758613,
				"element": "Cl" 
			},
			{
				"x": 1.050775836,
				"y": 1.4111979907,
				"z": 4.4671259663,
				"element": "S" 
			},
			{
				"x": -0.0097322564,
				"y": 2.3911677914,
				"z": 4.6667567172,
				"element": "O" 
			},
			{
				"x": 1.2645201393,
				"y": 0.2958568829,
				"z": 5.3820632436,
				"element": "O" 
			},
			{
				"x": 1.0004360174,
				"y": 0.8080272318,
				"z": 2.7974388852,
				"element": "C" 
			},
			{
				"x": 0.3832649322,
				"y": 1.5750289297,
				"z": 1.8066805951,
				"element": "C" 
			},
			{
				"x": 0.3365195479,
				"y": 1.1026006257,
				"z": 0.502074099,
				"element": "C" 
			},
			{
				"x": 0.9137887868,
				"y": -0.1448691883,
				"z": 0.1783408561,
				"element": "C" 
			},
			{
				"x": 1.5257902898,
				"y": -0.901727451,
				"z": 1.1993269361,
				"element": "C" 
			},
			{
				"x": 1.5742230489,
				"y": -0.4283994257,
				"z": 2.5046278598,
				"element": "C" 
			},
			{
				"x": 0.9007608465,
				"y": -0.6453168382,
				"z": -1.1339459454,
				"element": "N" 
			},
			{
				"x": 1.6315415513,
				"y": -1.8687401645,
				"z": -1.5014293752,
				"element": "C" 
			},
			{
				"x": 1.5945371331,
				"y": -1.8775139907,
				"z": -3.0396699163,
				"element": "C" 
			},
			{
				"x": 0.3121217839,
				"y": -1.1099853422,
				"z": -3.3731241693,
				"element": "C" 
			},
			{
				"x": 0.1157314313,
				"y": -0.1676039506,
				"z": -2.1914826159,
				"element": "C" 
			},
			{
				"x": -0.6099399454,
				"y": 0.8084731076,
				"z": -2.1674458983,
				"element": "O" 
			},
			{
				"x": -0.0637231979,
				"y": 2.530578498,
				"z": 2.0572618111,
				"element": "H" 
			},
			{
				"x": -0.1501481218,
				"y": 1.678298243,
				"z": -0.2708794594,
				"element": "H" 
			},
			{
				"x": 1.9562581343,
				"y": -1.8717058636,
				"z": 0.9856943779,
				"element": "H" 
			},
			{
				"x": 2.0375015945,
				"y": -1.0164642219,
				"z": 3.2886929421,
				"element": "H" 
			},
			{
				"x": 2.6524866639,
				"y": -1.8341492406,
				"z": -1.1116035675,
				"element": "H" 
			},
			{
				"x": 1.1350157967,
				"y": -2.7520039011,
				"z": -1.0768382321,
				"element": "H" 
			},
			{
				"x": 2.4655790724,
				"y": -1.34340834,
				"z": -3.4314463375,
				"element": "H" 
			},
			{
				"x": 1.616730963,
				"y": -2.8932705624,
				"z": -3.439944592,
				"element": "H" 
			},
			{
				"x": -0.563170598,
				"y": -1.7699931494,
				"z": -3.4223367294,
				"element": "H" 
			},
			{
				"x": 0.3453025118,
				"y": -0.5413065335,
				"z": -4.3042133125,
				"element": "H" 
			}
		],
		 "valence_orbital": [ 
			{
				"type": "occ",
				"energy": -0.31502,
				"method": "rhf"
			},
			{
				"type": "occ",
				"energy": -0.3056,
				"method": "rhf"
			},
			{
				"type": "occ",
				"energy": -0.28451,
				"method": "rhf"
			},
			{
				"type": "occ",
				"energy": -0.27284,
				"method": "rhf"
			},
			{
				"type": "occ",
				"energy": -0.24957,
				"method": "rhf"
			},
			{
				"type": "unocc",
				"energy": -0.08469,
				"method": "rhf"
			},
			{
				"type": "unocc",
				"energy": -0.04284,
				"method": "rhf"
			},
			{
				"type": "unocc",
				"energy": -0.03283,
				"method": "rhf"
			},
			{
				"type": "unocc",
				"energy": 0.00873,
				"method": "rhf"
			},
			{
				"type": "unocc",
				"energy": 0.06072,
				"method": "rhf"
			}
		],
		"cosmo_sigma_profile": { 
			"-0.025": 0.0,
			"-0.024": 0.0,
			"-0.023": 0.0,
			"-0.022": 0.0,
			"-0.021": 0.0,
			"-0.02": 0.0,
			"-0.019": 0.0,
			"-0.018": 0.0,
			"-0.017": 0.0,
			"-0.016": 0.0,
			"-0.015": 0.0,
			"-0.014": 0.0,
			"-0.013": 0.0,
			"-0.012": 0.0,
			"-0.011": 0.0,
			"-0.01": 0.0,
			"-0.009": 0.621020955052,
			"-0.008": 5.03942106981,
			"-0.007": 8.47320992489,
			"-0.006": 17.5016651038,
			"-0.005": 25.3356740457,
			"-0.004": 22.6185556043,
			"-0.003": 18.8120336086,
			"-0.002": 16.1436716245,
			"-0.001": 18.8547017897,
			"0.0": 17.3707304317,
			"0.001": 22.2994849716,
			"0.002": 16.8519844487,
			"0.003": 13.7470861413,
			"0.004": 15.3682627225,
			"0.005": 6.49564625088,
			"0.006": 3.9900936655,
			"0.007": 7.09287478558,
			"0.008": 11.1446932227,
			"0.009": 7.79883287963,
			"0.01": 2.00776465612,
			"0.011": 2.77634424551,
			"0.012": 2.71116176738,
			"0.013": 1.78161315744,
			"0.014": 0.185103491984,
			"0.015": 0.0,
			"0.016": 0.0,
			"0.017": 0.0,
			"0.018": 0.0,
			"0.019": 0.0,
			"0.02": 0.0,
			"0.021": 0.0,
			"0.022": 0.0,
			"0.023": 0.0,
			"0.024": 0.0,
			"0.025": 0.0
		}
	}
}
