{
	 "smiles": "CC1=NN(C(C)=C1)C1=CC=C(CC#N)C=C1", 
	 "Tm": 323.15, 
	 "num_atms": 29, 
	 "gaussian": { 
		 "optdone": 1, 
		 "sigma_profile": "yes", 
		 "theory": "DFT", 
		 "functional": "B3LYP", 
		 "basiset": "6-31G**", 
		 "properties": { 
			 "R2extent": 5426.1135, 
			 "electric_dipole_moment_norm": 2.57627696881, 
			 "electric_quadrupole_moment_norm": 25.6390288357, 
			 "total_energy": -667.45006529, 
			 "HOMO_LUMO_gap": 0.19731, 
			 "cosmo_polarized_energy": -13.92, 
			 "cosmo_cavitation_energy": 33.72, 
			 "cosmo_dispersion_energy": -23.76, 
			 "cosmo_repulsion_energy": 1.86, 
			 "cosmo_total_nonelectrostatic_energy": 11.81, 
			 "SMD_solvation_energy": 6.38 
		},
		"coords": [
			{
				"x": 0.6897640529,
				"y": -5.180181657,
				"z": 0.6826523078,
				"element": "C" 
			},
			{
				"x": 0.6139459561,
				"y": -3.834740221,
				"z": 0.028008417,
				"element": "C" 
			},
			{
				"x": 0.9656833347,
				"y": -2.7413539301,
				"z": 0.6952143622,
				"element": "N" 
			},
			{
				"x": 0.7632014915,
				"y": -1.7043363856,
				"z": -0.1729037097,
				"element": "N" 
			},
			{
				"x": 0.3023499348,
				"y": -2.1414935971,
				"z": -1.3965583645,
				"element": "C" 
			},
			{
				"x": 0.0477527412,
				"y": -1.2669203001,
				"z": -2.5849387101,
				"element": "C" 
			},
			{
				"x": 0.1929371873,
				"y": -3.5126848631,
				"z": -1.2871807137,
				"element": "C" 
			},
			{
				"x": 1.1101887267,
				"y": -0.397090045,
				"z": 0.2524289746,
				"element": "C" 
			},
			{
				"x": 2.2092694176,
				"y": -0.232766349,
				"z": 1.1070042415,
				"element": "C" 
			},
			{
				"x": 2.5644763856,
				"y": 1.0386056967,
				"z": 1.54169212,
				"element": "C" 
			},
			{
				"x": 1.8437623522,
				"y": 2.1695750474,
				"z": 1.135469056,
				"element": "C" 
			},
			{
				"x": 2.2543601142,
				"y": 3.5375915644,
				"z": 1.6683833658,
				"element": "C" 
			},
			{
				"x": 1.7633131089,
				"y": 4.6688704951,
				"z": 0.8770761257,
				"element": "C" 
			},
			{
				"x": 1.3637639313,
				"y": 5.5614446774,
				"z": 0.2522614276,
				"element": "N" 
			},
			{
				"x": 0.7459247257,
				"y": 1.9957313546,
				"z": 0.2908749963,
				"element": "C" 
			},
			{
				"x": 0.3712887031,
				"y": 0.7227535437,
				"z": -0.1410035128,
				"element": "C" 
			},
			{
				"x": 1.3438552028,
				"y": -5.8590732641,
				"z": 0.1240441088,
				"element": "H" 
			},
			{
				"x": -0.2971706064,
				"y": -5.6529724768,
				"z": 0.7397339588,
				"element": "H" 
			},
			{
				"x": 1.0817072934,
				"y": -5.0783845061,
				"z": 1.6969648823,
				"element": "H" 
			},
			{
				"x": 0.808507454,
				"y": -0.487725211,
				"z": -2.6903080179,
				"element": "H" 
			},
			{
				"x": 0.0618695056,
				"y": -1.8802245748,
				"z": -3.4890822976,
				"element": "H" 
			},
			{
				"x": -0.9292968579,
				"y": -0.7713344101,
				"z": -2.5423181008,
				"element": "H" 
			},
			{
				"x": -0.1357548319,
				"y": -4.1904291599,
				"z": -2.0623494289,
				"element": "H" 
			},
			{
				"x": 2.7639242983,
				"y": -1.1087595165,
				"z": 1.4198862673,
				"element": "H" 
			},
			{
				"x": 3.4219678476,
				"y": 1.1521025598,
				"z": 2.2005544813,
				"element": "H" 
			},
			{
				"x": 1.891405496,
				"y": 3.6695160469,
				"z": 2.6970824637,
				"element": "H" 
			},
			{
				"x": 3.3472988954,
				"y": 3.6082571866,
				"z": 1.7199789807,
				"element": "H" 
			},
			{
				"x": 0.1677034437,
				"y": 2.8567625448,
				"z": -0.0304782101,
				"element": "H" 
			},
			{
				"x": -0.5086993048,
				"y": 0.6083597499,
				"z": -0.7616894714,
				"element": "H" 
			}
		],
		 "valence_orbital": [ 
			{
				"type": "occ",
				"energy": -0.28354,
				"method": "rhf"
			},
			{
				"type": "occ",
				"energy": -0.28015,
				"method": "rhf"
			},
			{
				"type": "occ",
				"energy": -0.26521,
				"method": "rhf"
			},
			{
				"type": "occ",
				"energy": -0.23755,
				"method": "rhf"
			},
			{
				"type": "occ",
				"energy": -0.22413,
				"method": "rhf"
			},
			{
				"type": "unocc",
				"energy": -0.02682,
				"method": "rhf"
			},
			{
				"type": "unocc",
				"energy": -0.01837,
				"method": "rhf"
			},
			{
				"type": "unocc",
				"energy": 0.02797,
				"method": "rhf"
			},
			{
				"type": "unocc",
				"energy": 0.0311,
				"method": "rhf"
			},
			{
				"type": "unocc",
				"energy": 0.03976,
				"method": "rhf"
			}
		],
		"cosmo_sigma_profile": { 
			"-0.025": 0.0,
			"-0.024": 0.0,
			"-0.023": 0.0,
			"-0.022": 0.0,
			"-0.021": 0.0,
			"-0.02": 0.0,
			"-0.019": 0.0,
			"-0.018": 0.0,
			"-0.017": 0.0,
			"-0.016": 0.0,
			"-0.015": 0.0,
			"-0.014": 0.0,
			"-0.013": 0.0,
			"-0.012": 0.0,
			"-0.011": 0.0,
			"-0.01": 0.068553719346,
			"-0.009": 4.39787571308,
			"-0.008": 6.36558842229,
			"-0.007": 9.5885912036,
			"-0.006": 14.5777374157,
			"-0.005": 17.0819157646,
			"-0.004": 20.9067648617,
			"-0.003": 21.5839061911,
			"-0.002": 23.451222049,
			"-0.001": 22.8508798051,
			"0.0": 19.6937823098,
			"0.001": 15.4304214128,
			"0.002": 13.4515027159,
			"0.003": 16.0926909851,
			"0.004": 18.4366094677,
			"0.005": 8.98958316519,
			"0.006": 6.55649343912,
			"0.007": 4.6241453221,
			"0.008": 5.14479288487,
			"0.009": 4.98219252278,
			"0.01": 4.00997839591,
			"0.011": 3.6696998607,
			"0.012": 3.48456237453,
			"0.013": 2.58050650603,
			"0.014": 1.13479801243,
			"0.015": 0.443597495695,
			"0.016": 0.0593196817349,
			"0.017": 0.0,
			"0.018": 0.0,
			"0.019": 0.0,
			"0.02": 0.0,
			"0.021": 0.0,
			"0.022": 0.0,
			"0.023": 0.0,
			"0.024": 0.0,
			"0.025": 0.0
		}
	}
}
