{
	 "smiles": "CC1=CC(NCCC(N)=O)=CC=C1", 
	 "Tm": 365.15, 
	 "num_atms": 27, 
	 "gaussian": { 
		 "optdone": 1, 
		 "sigma_profile": "yes", 
		 "theory": "DFT", 
		 "functional": "B3LYP", 
		 "basiset": "6-31G**", 
		 "properties": { 
			 "R2extent": 3466.6906, 
			 "electric_dipole_moment_norm": 4.01745948082, 
			 "electric_quadrupole_moment_norm": 15.6611683555, 
			 "total_energy": -574.258487109, 
			 "HOMO_LUMO_gap": 0.19783, 
			 "cosmo_polarized_energy": -14.59, 
			 "cosmo_cavitation_energy": 30.02, 
			 "cosmo_dispersion_energy": -21.6, 
			 "cosmo_repulsion_energy": 1.75, 
			 "cosmo_total_nonelectrostatic_energy": 10.17, 
			 "SMD_solvation_energy": 4.64 
		},
		"coords": [
			{
				"x": 0.7966512208,
				"y": 3.8307619636,
				"z": 1.1186919103,
				"element": "C" 
			},
			{
				"x": 0.1050263056,
				"y": 2.6626925913,
				"z": 0.4534357451,
				"element": "C" 
			},
			{
				"x": 0.7857806367,
				"y": 1.8663375233,
				"z": -0.4652352144,
				"element": "C" 
			},
			{
				"x": 0.1630611595,
				"y": 0.784237002,
				"z": -1.122844084,
				"element": "C" 
			},
			{
				"x": 0.8897991762,
				"y": 0.0652183414,
				"z": -2.0704666585,
				"element": "N" 
			},
			{
				"x": 0.5298399653,
				"y": -1.2859325592,
				"z": -2.4636550426,
				"element": "C" 
			},
			{
				"x": 0.758167624,
				"y": -2.3462573923,
				"z": -1.3726706352,
				"element": "C" 
			},
			{
				"x": 2.2407942272,
				"y": -2.4991078325,
				"z": -1.0335648593,
				"element": "C" 
			},
			{
				"x": 2.5345875859,
				"y": -3.5022983019,
				"z": -0.1554666469,
				"element": "N" 
			},
			{
				"x": 3.1143611702,
				"y": -1.7873056656,
				"z": -1.518228339,
				"element": "O" 
			},
			{
				"x": -1.1835184711,
				"y": 0.5109526956,
				"z": -0.8196363858,
				"element": "C" 
			},
			{
				"x": -1.8657425716,
				"y": 1.3073361721,
				"z": 0.101909739,
				"element": "C" 
			},
			{
				"x": -1.239346434,
				"y": 2.3739317156,
				"z": 0.7403701398,
				"element": "C" 
			},
			{
				"x": 0.5811078241,
				"y": 3.8633909196,
				"z": 2.1921361169,
				"element": "H" 
			},
			{
				"x": 1.8820697137,
				"y": 3.7810168665,
				"z": 0.9933325069,
				"element": "H" 
			},
			{
				"x": 0.4589418357,
				"y": 4.784534974,
				"z": 0.6945435939,
				"element": "H" 
			},
			{
				"x": 1.827942878,
				"y": 2.0835367914,
				"z": -0.6919689192,
				"element": "H" 
			},
			{
				"x": 1.8936821147,
				"y": 0.1556803356,
				"z": -1.9720468871,
				"element": "H" 
			},
			{
				"x": 1.1339891699,
				"y": -1.5401016215,
				"z": -3.3390366102,
				"element": "H" 
			},
			{
				"x": -0.5157424092,
				"y": -1.3090510393,
				"z": -2.7847495145,
				"element": "H" 
			},
			{
				"x": 0.3616964272,
				"y": -3.3190861517,
				"z": -1.6931957119,
				"element": "H" 
			},
			{
				"x": 0.2121666077,
				"y": -2.0683701005,
				"z": -0.4620868016,
				"element": "H" 
			},
			{
				"x": 3.4904705783,
				"y": -3.5980426581,
				"z": 0.1526861073,
				"element": "H" 
			},
			{
				"x": 1.8181953065,
				"y": -4.0377841622,
				"z": 0.3074486544,
				"element": "H" 
			},
			{
				"x": -1.7033413761,
				"y": -0.310003313,
				"z": -1.3015600263,
				"element": "H" 
			},
			{
				"x": -2.9056165639,
				"y": 1.0813704834,
				"z": 0.3245966096,
				"element": "H" 
			},
			{
				"x": -1.7841237017,
				"y": 2.9806424227,
				"z": 1.4586612133,
				"element": "H" 
			}
		],
		 "valence_orbital": [ 
			{
				"type": "occ",
				"energy": -0.27984,
				"method": "rhf"
			},
			{
				"type": "occ",
				"energy": -0.27394,
				"method": "rhf"
			},
			{
				"type": "occ",
				"energy": -0.25702,
				"method": "rhf"
			},
			{
				"type": "occ",
				"energy": -0.22787,
				"method": "rhf"
			},
			{
				"type": "occ",
				"energy": -0.18319,
				"method": "rhf"
			},
			{
				"type": "unocc",
				"energy": 0.01464,
				"method": "rhf"
			},
			{
				"type": "unocc",
				"energy": 0.02321,
				"method": "rhf"
			},
			{
				"type": "unocc",
				"energy": 0.02757,
				"method": "rhf"
			},
			{
				"type": "unocc",
				"energy": 0.07006,
				"method": "rhf"
			},
			{
				"type": "unocc",
				"energy": 0.09626,
				"method": "rhf"
			}
		],
		"cosmo_sigma_profile": { 
			"-0.025": 0.0,
			"-0.024": 0.0,
			"-0.023": 0.0,
			"-0.022": 0.0,
			"-0.021": 0.0,
			"-0.02": 0.0,
			"-0.019": 0.0,
			"-0.018": 0.0,
			"-0.017": 0.0,
			"-0.016": 0.0,
			"-0.015": 0.0908264632891,
			"-0.014": 1.38628688248,
			"-0.013": 2.66256419513,
			"-0.012": 2.56192476418,
			"-0.011": 1.8883159669,
			"-0.01": 2.78499405903,
			"-0.009": 2.37508472913,
			"-0.008": 2.97523055569,
			"-0.007": 4.09388596481,
			"-0.006": 6.33245334301,
			"-0.005": 10.603249608,
			"-0.004": 21.1089421141,
			"-0.003": 23.1415955826,
			"-0.002": 22.601989246,
			"-0.001": 18.3102626484,
			"0.0": 19.1617259935,
			"0.001": 12.5572892962,
			"0.002": 10.6020927415,
			"0.003": 10.2493072504,
			"0.004": 9.27069961044,
			"0.005": 9.87466704362,
			"0.006": 9.31253353638,
			"0.007": 9.43877840927,
			"0.008": 6.91343951394,
			"0.009": 2.54747859739,
			"0.01": 2.04541924651,
			"0.011": 2.18984046857,
			"0.012": 1.88084485906,
			"0.013": 3.37395629316,
			"0.014": 2.98004402924,
			"0.015": 0.543443976117,
			"0.016": 0.0,
			"0.017": 0.0,
			"0.018": 0.0,
			"0.019": 0.0,
			"0.02": 0.0,
			"0.021": 0.0,
			"0.022": 0.0,
			"0.023": 0.0,
			"0.024": 0.0,
			"0.025": 0.0
		}
	}
}
