{
	 "smiles": "CNCC(O)COC1=CC2=C(OCO2)C=C1", 
	 "Tm": 367.15, 
	 "num_atms": 31, 
	 "gaussian": { 
		 "optdone": 1, 
		 "sigma_profile": "yes", 
		 "theory": "DFT", 
		 "functional": "B3LYP", 
		 "basiset": "6-31G**", 
		 "properties": { 
			 "R2extent": 6102.033, 
			 "electric_dipole_moment_norm": 3.30509034067, 
			 "electric_quadrupole_moment_norm": 14.9299671279, 
			 "total_energy": -783.796811629, 
			 "HOMO_LUMO_gap": 0.1932, 
			 "cosmo_polarized_energy": -15.24, 
			 "cosmo_cavitation_energy": 34.4, 
			 "cosmo_dispersion_energy": -25.26, 
			 "cosmo_repulsion_energy": 2.01, 
			 "cosmo_total_nonelectrostatic_energy": 11.14, 
			 "SMD_solvation_energy": 5.27 
		},
		"coords": [
			{
				"x": -3.9329114088,
				"y": -2.4752512072,
				"z": -0.2495520001,
				"element": "C" 
			},
			{
				"x": -3.3925466457,
				"y": -1.5229738167,
				"z": 0.7160710966,
				"element": "N" 
			},
			{
				"x": -3.3401182282,
				"y": -0.1429161499,
				"z": 0.2431102301,
				"element": "C" 
			},
			{
				"x": -2.1079095762,
				"y": 0.1500029592,
				"z": -0.6346275198,
				"element": "C" 
			},
			{
				"x": -2.1680243789,
				"y": 1.4867745331,
				"z": -1.1210416568,
				"element": "O" 
			},
			{
				"x": -0.82220228,
				"y": 0.0098957349,
				"z": 0.1607583343,
				"element": "C" 
			},
			{
				"x": 0.2661950936,
				"y": -0.029207583,
				"z": -0.7546705169,
				"element": "O" 
			},
			{
				"x": 1.5343213905,
				"y": -0.1422561878,
				"z": -0.2595606103,
				"element": "C" 
			},
			{
				"x": 1.8285548667,
				"y": -0.2281843331,
				"z": 1.1178819106,
				"element": "C" 
			},
			{
				"x": 3.1666837985,
				"y": -0.3341963772,
				"z": 1.4549381521,
				"element": "C" 
			},
			{
				"x": 4.1821296194,
				"y": -0.3591530623,
				"z": 0.508692083,
				"element": "C" 
			},
			{
				"x": 5.4028603741,
				"y": -0.5104287009,
				"z": 1.1411851575,
				"element": "O" 
			},
			{
				"x": 5.1213165976,
				"y": -0.3430407174,
				"z": 2.5308834922,
				"element": "C" 
			},
			{
				"x": 3.7038598315,
				"y": -0.4590535647,
				"z": 2.7156519178,
				"element": "O" 
			},
			{
				"x": 3.9045870782,
				"y": -0.2782794099,
				"z": -0.8431019695,
				"element": "C" 
			},
			{
				"x": 2.5581013815,
				"y": -0.1664460009,
				"z": -1.217418393,
				"element": "C" 
			},
			{
				"x": -3.2514536907,
				"y": -2.5811846237,
				"z": -1.0996966252,
				"element": "H" 
			},
			{
				"x": -4.9240114197,
				"y": -2.1940943142,
				"z": -0.6505280738,
				"element": "H" 
			},
			{
				"x": -4.0196331545,
				"y": -3.4594945694,
				"z": 0.2197275829,
				"element": "H" 
			},
			{
				"x": -3.9389955185,
				"y": -1.5648983608,
				"z": 1.5698446331,
				"element": "H" 
			},
			{
				"x": -4.239664742,
				"y": 0.1452360166,
				"z": -0.3362155711,
				"element": "H" 
			},
			{
				"x": -3.3005078137,
				"y": 0.5267566131,
				"z": 1.1100663463,
				"element": "H" 
			},
			{
				"x": -2.0615642192,
				"y": -0.5664087855,
				"z": -1.468877168,
				"element": "H" 
			},
			{
				"x": -2.8819179691,
				"y": 1.5383636137,
				"z": -1.7691291629,
				"element": "H" 
			},
			{
				"x": -0.8698385255,
				"y": -0.9124345565,
				"z": 0.7526812384,
				"element": "H" 
			},
			{
				"x": -0.7256814438,
				"y": 0.8707146067,
				"z": 0.8383150174,
				"element": "H" 
			},
			{
				"x": 1.064966782,
				"y": -0.2147338165,
				"z": 1.8836595407,
				"element": "H" 
			},
			{
				"x": 5.6263725785,
				"y": -1.125778629,
				"z": 3.1042587761,
				"element": "H" 
			},
			{
				"x": 5.448992203,
				"y": 0.6556430827,
				"z": 2.8595539033,
				"element": "H" 
			},
			{
				"x": 4.6952767377,
				"y": -0.3015406227,
				"z": -1.5846107985,
				"element": "H" 
			},
			{
				"x": 2.2793626816,
				"y": -0.0917317706,
				"z": -2.2624493463,
				"element": "H" 
			}
		],
		 "valence_orbital": [ 
			{
				"type": "occ",
				"energy": -0.27628,
				"method": "rhf"
			},
			{
				"type": "occ",
				"energy": -0.2694,
				"method": "rhf"
			},
			{
				"type": "occ",
				"energy": -0.23369,
				"method": "rhf"
			},
			{
				"type": "occ",
				"energy": -0.22931,
				"method": "rhf"
			},
			{
				"type": "occ",
				"energy": -0.18366,
				"method": "rhf"
			},
			{
				"type": "unocc",
				"energy": 0.00954,
				"method": "rhf"
			},
			{
				"type": "unocc",
				"energy": 0.0317,
				"method": "rhf"
			},
			{
				"type": "unocc",
				"energy": 0.07084,
				"method": "rhf"
			},
			{
				"type": "unocc",
				"energy": 0.07506,
				"method": "rhf"
			},
			{
				"type": "unocc",
				"energy": 0.10497,
				"method": "rhf"
			}
		],
		"cosmo_sigma_profile": { 
			"-0.025": 0.0,
			"-0.024": 0.0,
			"-0.023": 0.0,
			"-0.022": 0.0,
			"-0.021": 0.0,
			"-0.02": 0.0,
			"-0.019": 0.0,
			"-0.018": 0.0,
			"-0.017": 0.0,
			"-0.016": 0.120714747011,
			"-0.015": 1.22099059076,
			"-0.014": 0.642277234809,
			"-0.013": 1.37996710967,
			"-0.012": 0.885349834745,
			"-0.011": 0.930986985888,
			"-0.01": 1.97348040667,
			"-0.009": 2.18954555825,
			"-0.008": 4.33782362977,
			"-0.007": 10.0210039785,
			"-0.006": 15.652391872,
			"-0.005": 15.7867085122,
			"-0.004": 23.0512301109,
			"-0.003": 18.3975433554,
			"-0.002": 20.4474332579,
			"-0.001": 21.6183805678,
			"0.0": 19.9633460868,
			"0.001": 12.9834250882,
			"0.002": 11.5549566851,
			"0.003": 17.1269121552,
			"0.004": 17.0326477868,
			"0.005": 11.3296381519,
			"0.006": 7.05671165141,
			"0.007": 6.33888778662,
			"0.008": 5.61170813389,
			"0.009": 5.48062388449,
			"0.01": 6.11113645239,
			"0.011": 2.6470911275,
			"0.012": 2.44090861112,
			"0.013": 2.8079949342,
			"0.014": 2.73135818586,
			"0.015": 0.339892135065,
			"0.016": 0.0,
			"0.017": 0.0,
			"0.018": 0.0,
			"0.019": 0.0,
			"0.02": 0.0,
			"0.021": 0.0,
			"0.022": 0.0,
			"0.023": 0.0,
			"0.024": 0.0,
			"0.025": 0.0
		}
	}
}
