{
	 "smiles": "NNC(=O)CC1CC1", 
	 "Tm": 363.15, 
	 "num_atms": 18, 
	 "gaussian": { 
		 "optdone": 1, 
		 "sigma_profile": "yes", 
		 "theory": "DFT", 
		 "functional": "B3LYP", 
		 "basiset": "6-31G**", 
		 "properties": { 
			 "R2extent": 1364.7765, 
			 "electric_dipole_moment_norm": 4.15836039564, 
			 "electric_quadrupole_moment_norm": 7.20646626232, 
			 "total_energy": -381.23247585, 
			 "HOMO_LUMO_gap": 0.2684, 
			 "cosmo_polarized_energy": -14.01, 
			 "cosmo_cavitation_energy": 21.33, 
			 "cosmo_dispersion_energy": -15.41, 
			 "cosmo_repulsion_energy": 1.33, 
			 "cosmo_total_nonelectrostatic_energy": 7.25, 
			 "SMD_solvation_energy": 4.71 
		},
		"coords": [
			{
				"x": 1.2950061822,
				"y": 1.4195722056,
				"z": -1.3732242902,
				"element": "N" 
			},
			{
				"x": 0.4350707127,
				"y": 1.3175620501,
				"z": -0.2742606041,
				"element": "N" 
			},
			{
				"x": 0.5007049975,
				"y": 0.2978733519,
				"z": 0.6487973034,
				"element": "C" 
			},
			{
				"x": -0.3267947821,
				"y": 0.241332219,
				"z": 1.548996169,
				"element": "O" 
			},
			{
				"x": 1.6107145989,
				"y": -0.729040365,
				"z": 0.4753510169,
				"element": "C" 
			},
			{
				"x": 1.2458890369,
				"y": -1.7899154391,
				"z": -0.5542229227,
				"element": "C" 
			},
			{
				"x": 0.1912344733,
				"y": -2.8178064431,
				"z": -0.2249389415,
				"element": "C" 
			},
			{
				"x": 1.6408505728,
				"y": -3.2290485379,
				"z": -0.3254491504,
				"element": "C" 
			},
			{
				"x": 1.7727294339,
				"y": 2.3172964458,
				"z": -1.3632574128,
				"element": "H" 
			},
			{
				"x": 0.773124473,
				"y": 1.3374247427,
				"z": -2.2425896993,
				"element": "H" 
			},
			{
				"x": -0.3479733173,
				"y": 1.9533854729,
				"z": -0.1560769693,
				"element": "H" 
			},
			{
				"x": 1.7366909983,
				"y": -1.1924975,
				"z": 1.457722335,
				"element": "H" 
			},
			{
				"x": 2.5477584025,
				"y": -0.2426521841,
				"z": 0.1892491142,
				"element": "H" 
			},
			{
				"x": 1.279421529,
				"y": -1.4393059351,
				"z": -1.5827958776,
				"element": "H" 
			},
			{
				"x": -0.4894410219,
				"y": -3.1314212897,
				"z": -1.0109092593,
				"element": "H" 
			},
			{
				"x": -0.2609052889,
				"y": -2.7668106157,
				"z": 0.7610946305,
				"element": "H" 
			},
			{
				"x": 2.1673134933,
				"y": -3.4703765533,
				"z": 0.5940322421,
				"element": "H" 
			},
			{
				"x": 1.9527055059,
				"y": -3.8199716251,
				"z": -1.1817176841,
				"element": "H" 
			}
		],
		 "valence_orbital": [ 
			{
				"type": "occ",
				"energy": -0.28922,
				"method": "rhf"
			},
			{
				"type": "occ",
				"energy": -0.28313,
				"method": "rhf"
			},
			{
				"type": "occ",
				"energy": -0.28048,
				"method": "rhf"
			},
			{
				"type": "occ",
				"energy": -0.25142,
				"method": "rhf"
			},
			{
				"type": "occ",
				"energy": -0.23275,
				"method": "rhf"
			},
			{
				"type": "unocc",
				"energy": 0.03565,
				"method": "rhf"
			},
			{
				"type": "unocc",
				"energy": 0.06094,
				"method": "rhf"
			},
			{
				"type": "unocc",
				"energy": 0.10309,
				"method": "rhf"
			},
			{
				"type": "unocc",
				"energy": 0.11131,
				"method": "rhf"
			},
			{
				"type": "unocc",
				"energy": 0.12242,
				"method": "rhf"
			}
		],
		"cosmo_sigma_profile": { 
			"-0.025": 0.0,
			"-0.024": 0.0,
			"-0.023": 0.0,
			"-0.022": 0.0,
			"-0.021": 0.0,
			"-0.02": 0.0,
			"-0.019": 0.0,
			"-0.018": 0.0,
			"-0.017": 0.0,
			"-0.016": 0.0,
			"-0.015": 0.0,
			"-0.014": 0.0,
			"-0.013": 0.847940785318,
			"-0.012": 3.21520244972,
			"-0.011": 4.74414358001,
			"-0.01": 5.14634909109,
			"-0.009": 4.6361328449,
			"-0.008": 3.69500010591,
			"-0.007": 2.54016390558,
			"-0.006": 1.98062372934,
			"-0.005": 2.99106306262,
			"-0.004": 11.9921800111,
			"-0.003": 14.3042630002,
			"-0.002": 14.3932778809,
			"-0.001": 14.1078036082,
			"0.0": 12.7130185616,
			"0.001": 11.4259260582,
			"0.002": 8.34839233363,
			"0.003": 8.79021161101,
			"0.004": 7.64327280402,
			"0.005": 5.52664254552,
			"0.006": 3.61962198782,
			"0.007": 1.89899707253,
			"0.008": 2.78087435921,
			"0.009": 1.50087461919,
			"0.01": 2.54089258977,
			"0.011": 1.58350898588,
			"0.012": 1.79678208996,
			"0.013": 2.59821562175,
			"0.014": 5.65716081833,
			"0.015": 2.70268634134,
			"0.016": 0.215179709536,
			"0.017": 0.0,
			"0.018": 0.0,
			"0.019": 0.0,
			"0.02": 0.0,
			"0.021": 0.0,
			"0.022": 0.0,
			"0.023": 0.0,
			"0.024": 0.0,
			"0.025": 0.0
		}
	}
}
