{
	 "smiles": "CC(=O)OCOC(=O)C1N2C(SC1(C)C)C(NC(=O)CC1=CC=CC=C1)C2=O", 
	 "Tm": 380.15, 
	 "num_atms": 50, 
	 "gaussian": { 
		 "optdone": 1, 
		 "sigma_profile": "yes", 
		 "theory": "DFT", 
		 "functional": "B3LYP", 
		 "basiset": "6-31G**", 
		 "properties": { 
			 "R2extent": 18195.8334, 
			 "electric_dipole_moment_norm": 2.9076950803, 
			 "electric_quadrupole_moment_norm": 32.059268846, 
			 "total_energy": -1696.32487157, 
			 "HOMO_LUMO_gap": 0.21582, 
			 "cosmo_polarized_energy": -26.71, 
			 "cosmo_cavitation_energy": 55.65, 
			 "cosmo_dispersion_energy": -37.38, 
			 "cosmo_repulsion_energy": 2.83, 
			 "cosmo_total_nonelectrostatic_energy": 21.1, 
			 "SMD_solvation_energy": 10.01 
		},
		"coords": [
			{
				"x": -2.3076262537,
				"y": 3.9270283594,
				"z": -6.4550029311,
				"element": "C" 
			},
			{
				"x": -2.9252176873,
				"y": 3.2685139979,
				"z": -5.2498652305,
				"element": "C" 
			},
			{
				"x": -3.5552243899,
				"y": 3.8149910701,
				"z": -4.3766862613,
				"element": "O" 
			},
			{
				"x": -2.6744800764,
				"y": 1.9203392777,
				"z": -5.2597319287,
				"element": "O" 
			},
			{
				"x": -3.2047121467,
				"y": 1.1919100965,
				"z": -4.174059045,
				"element": "C" 
			},
			{
				"x": -2.375656971,
				"y": 1.4339108116,
				"z": -3.0322041267,
				"element": "O" 
			},
			{
				"x": -2.9928977921,
				"y": 1.5902615907,
				"z": -1.8449500827,
				"element": "C" 
			},
			{
				"x": -4.1834017906,
				"y": 1.4815518036,
				"z": -1.6624299256,
				"element": "O" 
			},
			{
				"x": -1.9824544634,
				"y": 2.0141400115,
				"z": -0.7780532765,
				"element": "C" 
			},
			{
				"x": -0.7229626807,
				"y": 1.2884712887,
				"z": -0.8556812824,
				"element": "N" 
			},
			{
				"x": 0.1931690884,
				"y": 1.5007361636,
				"z": 0.2674970162,
				"element": "C" 
			},
			{
				"x": -0.8518909267,
				"y": 2.1101038611,
				"z": 1.6670382135,
				"element": "S" 
			},
			{
				"x": -2.4699482176,
				"y": 1.9323787443,
				"z": 0.7072314026,
				"element": "C" 
			},
			{
				"x": -3.1415572902,
				"y": 0.5961834664,
				"z": 1.0597455862,
				"element": "C" 
			},
			{
				"x": -3.3842031884,
				"y": 3.1112378545,
				"z": 1.0601934885,
				"element": "C" 
			},
			{
				"x": 0.5970610688,
				"y": -0.0185164274,
				"z": 0.1737420777,
				"element": "C" 
			},
			{
				"x": 1.9271794322,
				"y": -0.3858292318,
				"z": -0.2044465145,
				"element": "N" 
			},
			{
				"x": 2.9581587782,
				"y": -0.8417336159,
				"z": 0.5960284074,
				"element": "C" 
			},
			{
				"x": 4.0412917357,
				"y": -1.1086566544,
				"z": 0.1032281544,
				"element": "O" 
			},
			{
				"x": 2.6354929867,
				"y": -1.0156807543,
				"z": 2.0865615651,
				"element": "C" 
			},
			{
				"x": 3.850931865,
				"y": -1.1936279604,
				"z": 2.967829397,
				"element": "C" 
			},
			{
				"x": 4.1199820279,
				"y": -0.2734330915,
				"z": 3.9870010561,
				"element": "C" 
			},
			{
				"x": 5.2229818788,
				"y": -0.4377060101,
				"z": 4.8276405157,
				"element": "C" 
			},
			{
				"x": 6.0735028921,
				"y": -1.5294342101,
				"z": 4.6557460101,
				"element": "C" 
			},
			{
				"x": 5.814587564,
				"y": -2.4525821321,
				"z": 3.6394537209,
				"element": "C" 
			},
			{
				"x": 4.7125089911,
				"y": -2.2867954355,
				"z": 2.8022410184,
				"element": "C" 
			},
			{
				"x": -0.4955752318,
				"y": -0.0900509382,
				"z": -0.9324529324,
				"element": "C" 
			},
			{
				"x": -0.9958648181,
				"y": -0.9601657591,
				"z": -1.5997126639,
				"element": "O" 
			},
			{
				"x": -2.6792782683,
				"y": 3.4595686393,
				"z": -7.3713313568,
				"element": "H" 
			},
			{
				"x": -1.2223674749,
				"y": 3.7887833938,
				"z": -6.4363587385,
				"element": "H" 
			},
			{
				"x": -2.5476686722,
				"y": 4.9895163126,
				"z": -6.4504338291,
				"element": "H" 
			},
			{
				"x": -4.2298638941,
				"y": 1.4848571826,
				"z": -3.9488839312,
				"element": "H" 
			},
			{
				"x": -3.1184966559,
				"y": 0.1396173423,
				"z": -4.4437987123,
				"element": "H" 
			},
			{
				"x": -1.76415668,
				"y": 3.0679509636,
				"z": -1.0006586723,
				"element": "H" 
			},
			{
				"x": 1.0049666246,
				"y": 2.207104696,
				"z": 0.0776981854,
				"element": "H" 
			},
			{
				"x": -4.1072748717,
				"y": 0.5172475396,
				"z": 0.5550140898,
				"element": "H" 
			},
			{
				"x": -2.5338410016,
				"y": -0.2643079533,
				"z": 0.7678713334,
				"element": "H" 
			},
			{
				"x": -3.3011487407,
				"y": 0.538546234,
				"z": 2.1395971621,
				"element": "H" 
			},
			{
				"x": -2.9057921999,
				"y": 4.0702218491,
				"z": 0.8426445394,
				"element": "H" 
			},
			{
				"x": -3.6469530796,
				"y": 3.0954859853,
				"z": 2.1219521158,
				"element": "H" 
			},
			{
				"x": -4.3082546773,
				"y": 3.0350386018,
				"z": 0.4796660393,
				"element": "H" 
			},
			{
				"x": 0.2702940273,
				"y": -0.5689968521,
				"z": 1.0579105948,
				"element": "H" 
			},
			{
				"x": 2.189560925,
				"y": -0.3085873159,
				"z": -1.1794776175,
				"element": "H" 
			},
			{
				"x": 1.9766193766,
				"y": -1.8931402518,
				"z": 2.167528748,
				"element": "H" 
			},
			{
				"x": 2.0445766558,
				"y": -0.16466433,
				"z": 2.4410689498,
				"element": "H" 
			},
			{
				"x": 3.4596591133,
				"y": 0.5793677466,
				"z": 4.1272686184,
				"element": "H" 
			},
			{
				"x": 5.4146071566,
				"y": 0.2866441907,
				"z": 5.6142885218,
				"element": "H" 
			},
			{
				"x": 6.9322479231,
				"y": -1.6614564937,
				"z": 5.3078161813,
				"element": "H" 
			},
			{
				"x": 6.4742494431,
				"y": -3.3039551324,
				"z": 3.4972476527,
				"element": "H" 
			},
			{
				"x": 4.5251405866,
				"y": -2.9992885247,
				"z": 2.0057686975,
				"element": "H" 
			}
		],
		 "valence_orbital": [ 
			{
				"type": "occ",
				"energy": -0.26818,
				"method": "rhf"
			},
			{
				"type": "occ",
				"energy": -0.25783,
				"method": "rhf"
			},
			{
				"type": "occ",
				"energy": -0.24172,
				"method": "rhf"
			},
			{
				"type": "occ",
				"energy": -0.24019,
				"method": "rhf"
			},
			{
				"type": "occ",
				"energy": -0.23768,
				"method": "rhf"
			},
			{
				"type": "unocc",
				"energy": -0.02186,
				"method": "rhf"
			},
			{
				"type": "unocc",
				"energy": -0.0156,
				"method": "rhf"
			},
			{
				"type": "unocc",
				"energy": -0.00917,
				"method": "rhf"
			},
			{
				"type": "unocc",
				"energy": -0.00216,
				"method": "rhf"
			},
			{
				"type": "unocc",
				"energy": 0.00132,
				"method": "rhf"
			}
		],
		"cosmo_sigma_profile": { 
			"-0.025": 0.0,
			"-0.024": 0.0,
			"-0.023": 0.0,
			"-0.022": 0.0,
			"-0.021": 0.0,
			"-0.02": 0.0,
			"-0.019": 0.0,
			"-0.018": 0.0,
			"-0.017": 0.0,
			"-0.016": 0.0,
			"-0.015": 0.427702508807,
			"-0.014": 0.980686526056,
			"-0.013": 1.48618525754,
			"-0.012": 0.734000460246,
			"-0.011": 0.898446283216,
			"-0.01": 1.14254155474,
			"-0.009": 6.63234774228,
			"-0.008": 11.4272370398,
			"-0.007": 19.0131804032,
			"-0.006": 25.6784117207,
			"-0.005": 32.6059164124,
			"-0.004": 35.2450531555,
			"-0.003": 35.5612592138,
			"-0.002": 31.3362670424,
			"-0.001": 31.4321125373,
			"0.0": 29.0649641308,
			"0.001": 21.4326557787,
			"0.002": 17.8594280191,
			"0.003": 17.5249454257,
			"0.004": 19.5751009968,
			"0.005": 19.5100286279,
			"0.006": 18.2032836309,
			"0.007": 12.9997427353,
			"0.008": 10.6578213872,
			"0.009": 8.84638180145,
			"0.01": 9.29280156865,
			"0.011": 9.30176644282,
			"0.012": 5.71387415681,
			"0.013": 5.55533794409,
			"0.014": 1.87599124017,
			"0.015": 0.0,
			"0.016": 0.0,
			"0.017": 0.0,
			"0.018": 0.0,
			"0.019": 0.0,
			"0.02": 0.0,
			"0.021": 0.0,
			"0.022": 0.0,
			"0.023": 0.0,
			"0.024": 0.0,
			"0.025": 0.0
		}
	}
}
