{
	 "smiles": "CC1=CC(C=O)=C(OCC(O)=O)C=C1", 
	 "Tm": 418.15, 
	 "num_atms": 24, 
	 "gaussian": { 
		 "optdone": 1, 
		 "sigma_profile": "yes", 
		 "theory": "DFT", 
		 "functional": "B3LYP", 
		 "basiset": "6-31G**", 
		 "properties": { 
			 "R2extent": 4679.1936, 
			 "electric_dipole_moment_norm": 5.4002959743, 
			 "electric_quadrupole_moment_norm": 19.9740498477, 
			 "total_energy": -687.980322494, 
			 "HOMO_LUMO_gap": 0.17315, 
			 "cosmo_polarized_energy": -16.67, 
			 "cosmo_cavitation_energy": 29.15, 
			 "cosmo_dispersion_energy": -20.74, 
			 "cosmo_repulsion_energy": 1.66, 
			 "cosmo_total_nonelectrostatic_energy": 10.08, 
			 "SMD_solvation_energy": 7.59 
		},
		"coords": [
			{
				"x": -0.7573453405,
				"y": 3.5735179005,
				"z": 1.7105606388,
				"element": "C" 
			},
			{
				"x": -0.6669791785,
				"y": 2.7544218546,
				"z": 0.4443944436,
				"element": "C" 
			},
			{
				"x": -0.0432389656,
				"y": 3.2434955579,
				"z": -0.701292078,
				"element": "C" 
			},
			{
				"x": 0.0621267147,
				"y": 2.4853941723,
				"z": -1.8759956833,
				"element": "C" 
			},
			{
				"x": 0.7385500802,
				"y": 3.0769340025,
				"z": -3.053443148,
				"element": "C" 
			},
			{
				"x": 1.2028032637,
				"y": 4.2050160686,
				"z": -3.0659547496,
				"element": "O" 
			},
			{
				"x": -0.4791456881,
				"y": 1.1837466966,
				"z": -1.9064932248,
				"element": "C" 
			},
			{
				"x": -0.3651430584,
				"y": 0.5084582958,
				"z": -3.0934437213,
				"element": "O" 
			},
			{
				"x": -0.9360959658,
				"y": -0.7687088016,
				"z": -3.2305216396,
				"element": "C" 
			},
			{
				"x": -0.0972865666,
				"y": -1.8636075076,
				"z": -2.5789236687,
				"element": "C" 
			},
			{
				"x": -0.7016153681,
				"y": -3.063083971,
				"z": -2.7468814829,
				"element": "O" 
			},
			{
				"x": 0.9534874905,
				"y": -1.7089800684,
				"z": -2.0088530625,
				"element": "O" 
			},
			{
				"x": -1.1068256824,
				"y": 0.672919085,
				"z": -0.7655730256,
				"element": "C" 
			},
			{
				"x": -1.1949171049,
				"y": 1.4556468711,
				"z": 0.3843282959,
				"element": "C" 
			},
			{
				"x": -1.7680301032,
				"y": 3.5511712341,
				"z": 2.1323319056,
				"element": "H" 
			},
			{
				"x": -0.0767907691,
				"y": 3.1931441529,
				"z": 2.4820323283,
				"element": "H" 
			},
			{
				"x": -0.4935835278,
				"y": 4.6181277814,
				"z": 1.5254992603,
				"element": "H" 
			},
			{
				"x": 0.3855258403,
				"y": 4.2414401801,
				"z": -0.7225821245,
				"element": "H" 
			},
			{
				"x": 0.8046863245,
				"y": 2.426987167,
				"z": -3.9451685103,
				"element": "H" 
			},
			{
				"x": -1.9634985623,
				"y": -0.8155759606,
				"z": -2.8477638373,
				"element": "H" 
			},
			{
				"x": -0.9807395235,
				"y": -0.9709908219,
				"z": -4.3050599312,
				"element": "H" 
			},
			{
				"x": -0.1202149514,
				"y": -3.7270923672,
				"z": -2.339174154,
				"element": "H" 
			},
			{
				"x": -1.5188670356,
				"y": -0.328928882,
				"z": -0.7514911631,
				"element": "H" 
			},
			{
				"x": -1.6863623222,
				"y": 1.03834736,
				"z": 1.2601683322,
				"element": "H" 
			}
		],
		 "valence_orbital": [ 
			{
				"type": "occ",
				"energy": -0.32955,
				"method": "rhf"
			},
			{
				"type": "occ",
				"energy": -0.29559,
				"method": "rhf"
			},
			{
				"type": "occ",
				"energy": -0.25879,
				"method": "rhf"
			},
			{
				"type": "occ",
				"energy": -0.24236,
				"method": "rhf"
			},
			{
				"type": "occ",
				"energy": -0.2289,
				"method": "rhf"
			},
			{
				"type": "unocc",
				"energy": -0.05575,
				"method": "rhf"
			},
			{
				"type": "unocc",
				"energy": -0.00951,
				"method": "rhf"
			},
			{
				"type": "unocc",
				"energy": 0.00234,
				"method": "rhf"
			},
			{
				"type": "unocc",
				"energy": 0.04176,
				"method": "rhf"
			},
			{
				"type": "unocc",
				"energy": 0.05712,
				"method": "rhf"
			}
		],
		"cosmo_sigma_profile": { 
			"-0.025": 0.0,
			"-0.024": 0.0,
			"-0.023": 0.0,
			"-0.022": 0.0,
			"-0.021": 0.0,
			"-0.02": 0.0,
			"-0.019": 0.547981602446,
			"-0.018": 0.938700705282,
			"-0.017": 0.980042110132,
			"-0.016": 0.842748672036,
			"-0.015": 0.443602487628,
			"-0.014": 0.366398638486,
			"-0.013": 0.835602072887,
			"-0.012": 0.975046489476,
			"-0.011": 1.21748984512,
			"-0.01": 1.70779084825,
			"-0.009": 4.81373111964,
			"-0.008": 6.00123614544,
			"-0.007": 7.45127628991,
			"-0.006": 8.85857580545,
			"-0.005": 12.8861927406,
			"-0.004": 16.6897495112,
			"-0.003": 14.7850374781,
			"-0.002": 17.2816285201,
			"-0.001": 15.0938944421,
			"0.0": 18.1382133637,
			"0.001": 13.5612067202,
			"0.002": 14.3593028429,
			"0.003": 15.3027377983,
			"0.004": 10.9161646685,
			"0.005": 6.54018408826,
			"0.006": 4.47114988983,
			"0.007": 4.78516338871,
			"0.008": 5.72580267559,
			"0.009": 4.75573472831,
			"0.01": 5.56715559067,
			"0.011": 9.00536511438,
			"0.012": 4.7648671182,
			"0.013": 1.26933393782,
			"0.014": 0.06684718224,
			"0.015": 0.0,
			"0.016": 0.0,
			"0.017": 0.0,
			"0.018": 0.0,
			"0.019": 0.0,
			"0.02": 0.0,
			"0.021": 0.0,
			"0.022": 0.0,
			"0.023": 0.0,
			"0.024": 0.0,
			"0.025": 0.0
		}
	}
}
