{
	 "smiles": "OC(=O)C1=CC(Br)=C2OCOC2=C1", 
	 "Tm": 525.15, 
	 "num_atms": 18, 
	 "gaussian": { 
		 "optdone": 1, 
		 "sigma_profile": "yes", 
		 "theory": "DFT", 
		 "functional": "B3LYP", 
		 "basiset": "6-31G**", 
		 "properties": { 
			 "R2extent": 4484.6319, 
			 "electric_dipole_moment_norm": 5.65394051348, 
			 "electric_quadrupole_moment_norm": 14.699940122, 
			 "total_energy": -3180.13925296, 
			 "HOMO_LUMO_gap": 0.18099, 
			 "cosmo_polarized_energy": -16.1, 
			 "cosmo_cavitation_energy": 25.45, 
			 "cosmo_dispersion_energy": -19.66, 
			 "cosmo_repulsion_energy": 1.56, 
			 "cosmo_total_nonelectrostatic_energy": 7.34, 
			 "SMD_solvation_energy": 5.15 
		},
		"coords": [
			{
				"x": 1.5913613809,
				"y": 2.9606930565,
				"z": 1.6895695615,
				"element": "O" 
			},
			{
				"x": 0.8946748973,
				"y": 3.0863887724,
				"z": 0.5267765075,
				"element": "C" 
			},
			{
				"x": 0.5723544123,
				"y": 4.1819274629,
				"z": 0.1325557116,
				"element": "O" 
			},
			{
				"x": 0.5689276277,
				"y": 1.8170375903,
				"z": -0.1998661025,
				"element": "C" 
			},
			{
				"x": -0.4737912911,
				"y": 1.8724516462,
				"z": -1.1299702666,
				"element": "C" 
			},
			{
				"x": -0.852292245,
				"y": 0.7375117507,
				"z": -1.8580334846,
				"element": "C" 
			},
			{
				"x": -2.2738547807,
				"y": 0.793941603,
				"z": -3.1110687672,
				"element": "Br" 
			},
			{
				"x": -0.1513220295,
				"y": -0.4348573968,
				"z": -1.6382192497,
				"element": "C" 
			},
			{
				"x": -0.3192912009,
				"y": -1.6531049217,
				"z": -2.2212857282,
				"element": "O" 
			},
			{
				"x": 0.6931570052,
				"y": -2.506959515,
				"z": -1.6640561321,
				"element": "C" 
			},
			{
				"x": 1.4362575003,
				"y": -1.7414340844,
				"z": -0.7058645807,
				"element": "O" 
			},
			{
				"x": 0.9004769401,
				"y": -0.4809753216,
				"z": -0.7217555503,
				"element": "C" 
			},
			{
				"x": 1.289876582,
				"y": 0.618008488,
				"z": 0.0125334399,
				"element": "C" 
			},
			{
				"x": 1.609769957,
				"y": 2.0360507994,
				"z": 1.9717893962,
				"element": "H" 
			},
			{
				"x": -0.9860511963,
				"y": 2.8149291869,
				"z": -1.2791975255,
				"element": "H" 
			},
			{
				"x": 0.2154317421,
				"y": -3.3568752698,
				"z": -1.1644504941,
				"element": "H" 
			},
			{
				"x": 1.3620716743,
				"y": -2.8453686331,
				"z": -2.4637113021,
				"element": "H" 
			},
			{
				"x": 2.1434430244,
				"y": 0.5544347861,
				"z": 0.678754567,
				"element": "H" 
			}
		],
		 "valence_orbital": [ 
			{
				"type": "occ",
				"energy": -0.31368,
				"method": "rhf"
			},
			{
				"type": "occ",
				"energy": -0.29926,
				"method": "rhf"
			},
			{
				"type": "occ",
				"energy": -0.27741,
				"method": "rhf"
			},
			{
				"type": "occ",
				"energy": -0.25883,
				"method": "rhf"
			},
			{
				"type": "occ",
				"energy": -0.23467,
				"method": "rhf"
			},
			{
				"type": "unocc",
				"energy": -0.05368,
				"method": "rhf"
			},
			{
				"type": "unocc",
				"energy": -0.02814,
				"method": "rhf"
			},
			{
				"type": "unocc",
				"energy": -0.00542,
				"method": "rhf"
			},
			{
				"type": "unocc",
				"energy": 0.04683,
				"method": "rhf"
			},
			{
				"type": "unocc",
				"energy": 0.05904,
				"method": "rhf"
			}
		],
		"cosmo_sigma_profile": { 
			"-0.025": 0.0,
			"-0.024": 0.0,
			"-0.023": 0.0,
			"-0.022": 0.0,
			"-0.021": 0.0,
			"-0.02": 0.0,
			"-0.019": 0.292356254165,
			"-0.018": 1.1971891293,
			"-0.017": 1.10184466084,
			"-0.016": 0.568000116947,
			"-0.015": 1.21096299135,
			"-0.014": 1.159271992,
			"-0.013": 1.14121259288,
			"-0.012": 0.924288523754,
			"-0.011": 1.34177390715,
			"-0.01": 1.93293739322,
			"-0.009": 3.84184367623,
			"-0.008": 9.17703843191,
			"-0.007": 9.39674756146,
			"-0.006": 7.30389322863,
			"-0.005": 7.67407780476,
			"-0.004": 7.21379305609,
			"-0.003": 9.70043424068,
			"-0.002": 12.3949516286,
			"-0.001": 13.2725078917,
			"0.0": 17.5448217614,
			"0.001": 18.3340631446,
			"0.002": 12.7004417082,
			"0.003": 12.9817131387,
			"0.004": 12.761775048,
			"0.005": 5.90103689947,
			"0.006": 6.12181712817,
			"0.007": 5.49111497169,
			"0.008": 5.4259921112,
			"0.009": 4.43122825094,
			"0.01": 4.49491826651,
			"0.011": 5.29062664506,
			"0.012": 4.5223712545,
			"0.013": 1.38438589016,
			"0.014": 0.021033038718,
			"0.015": 0.0,
			"0.016": 0.0,
			"0.017": 0.0,
			"0.018": 0.0,
			"0.019": 0.0,
			"0.02": 0.0,
			"0.021": 0.0,
			"0.022": 0.0,
			"0.023": 0.0,
			"0.024": 0.0,
			"0.025": 0.0
		}
	}
}
