{
	 "smiles": "CC(Br)C(C)Br", 
	 "Tm": 249.15, 
	 "num_atms": 14, 
	 "gaussian": { 
		 "optdone": 1, 
		 "sigma_profile": "yes", 
		 "theory": "DFT", 
		 "functional": "B3LYP", 
		 "basiset": "6-31G**", 
		 "properties": { 
			 "R2extent": 3555.6232, 
			 "electric_dipole_moment_norm": 3.08266300461, 
			 "electric_quadrupole_moment_norm": 6.36374297643, 
			 "total_energy": -5300.07231751, 
			 "HOMO_LUMO_gap": 0.25073, 
			 "cosmo_polarized_energy": -6.93, 
			 "cosmo_cavitation_energy": 20.58, 
			 "cosmo_dispersion_energy": -15.76, 
			 "cosmo_repulsion_energy": 1.33, 
			 "cosmo_total_nonelectrostatic_energy": 6.15, 
			 "SMD_solvation_energy": 1.44 
		},
		"coords": [
			{
				"x": 0.3651154831,
				"y": -1.8167161268,
				"z": 0.065325882,
				"element": "C" 
			},
			{
				"x": -0.454377707,
				"y": -0.8505090151,
				"z": 0.9066475816,
				"element": "C" 
			},
			{
				"x": -0.5526379808,
				"y": -1.5216156251,
				"z": 2.7836262869,
				"element": "Br" 
			},
			{
				"x": -1.8545294479,
				"y": -0.5039839152,
				"z": 0.3955821297,
				"element": "C" 
			},
			{
				"x": -1.8280651434,
				"y": 0.3142133102,
				"z": -0.8936163131,
				"element": "C" 
			},
			{
				"x": -2.9693637346,
				"y": -2.1329587198,
				"z": 0.1045167355,
				"element": "Br" 
			},
			{
				"x": 1.3594372334,
				"y": -1.9467840419,
				"z": 0.4969406397,
				"element": "H" 
			},
			{
				"x": -0.1233362315,
				"y": -2.7908075957,
				"z": 0.0038685407,
				"element": "H" 
			},
			{
				"x": 0.4827349882,
				"y": -1.4221583255,
				"z": -0.9503918943,
				"element": "H" 
			},
			{
				"x": 0.0760042819,
				"y": 0.0990291447,
				"z": 1.0226930662,
				"element": "H" 
			},
			{
				"x": -2.3964978283,
				"y": 0.0310631221,
				"z": 1.1746624788,
				"element": "H" 
			},
			{
				"x": -1.3817266822,
				"y": -0.2429201161,
				"z": -1.7204856581,
				"element": "H" 
			},
			{
				"x": -2.8423931,
				"y": 0.5956002706,
				"z": -1.1837521564,
				"element": "H" 
			},
			{
				"x": -1.2484641309,
				"y": 1.2324476336,
				"z": -0.7380173191,
				"element": "H" 
			}
		],
		 "valence_orbital": [ 
			{
				"type": "occ",
				"energy": -0.34552,
				"method": "rhf"
			},
			{
				"type": "occ",
				"energy": -0.28132,
				"method": "rhf"
			},
			{
				"type": "occ",
				"energy": -0.27762,
				"method": "rhf"
			},
			{
				"type": "occ",
				"energy": -0.27393,
				"method": "rhf"
			},
			{
				"type": "occ",
				"energy": -0.26622,
				"method": "rhf"
			},
			{
				"type": "unocc",
				"energy": -0.01549,
				"method": "rhf"
			},
			{
				"type": "unocc",
				"energy": 0.00401,
				"method": "rhf"
			},
			{
				"type": "unocc",
				"energy": 0.07555,
				"method": "rhf"
			},
			{
				"type": "unocc",
				"energy": 0.11403,
				"method": "rhf"
			},
			{
				"type": "unocc",
				"energy": 0.13176,
				"method": "rhf"
			}
		],
		"cosmo_sigma_profile": { 
			"-0.025": 0.0,
			"-0.024": 0.0,
			"-0.023": 0.0,
			"-0.022": 0.0,
			"-0.021": 0.0,
			"-0.02": 0.0,
			"-0.019": 0.0,
			"-0.018": 0.0,
			"-0.017": 0.0,
			"-0.016": 0.0,
			"-0.015": 0.0,
			"-0.014": 0.0,
			"-0.013": 0.0,
			"-0.012": 0.0,
			"-0.011": 0.0,
			"-0.01": 0.0,
			"-0.009": 0.235136075932,
			"-0.008": 3.57053372777,
			"-0.007": 5.51402718806,
			"-0.006": 7.0187623559,
			"-0.005": 11.8913360318,
			"-0.004": 12.760832844,
			"-0.003": 12.4179851606,
			"-0.002": 14.5252426024,
			"-0.001": 17.3549101086,
			"0.0": 11.4612063574,
			"0.001": 6.81417899895,
			"0.002": 8.11879052352,
			"0.003": 9.15684192903,
			"0.004": 10.7213316962,
			"0.005": 11.5044304728,
			"0.006": 17.3619116004,
			"0.007": 5.32911714481,
			"0.008": 1.51824214178,
			"0.009": 0.0,
			"0.01": 0.0,
			"0.011": 0.0,
			"0.012": 0.0,
			"0.013": 0.0,
			"0.014": 0.0,
			"0.015": 0.0,
			"0.016": 0.0,
			"0.017": 0.0,
			"0.018": 0.0,
			"0.019": 0.0,
			"0.02": 0.0,
			"0.021": 0.0,
			"0.022": 0.0,
			"0.023": 0.0,
			"0.024": 0.0,
			"0.025": 0.0
		}
	}
}
