{
	 "smiles": "NNC1=NC=CC=C1", 
	 "Tm": 319.75, 
	 "num_atms": 15, 
	 "gaussian": { 
		 "optdone": 1, 
		 "sigma_profile": "yes", 
		 "theory": "DFT", 
		 "functional": "B3LYP", 
		 "basiset": "6-31G**", 
		 "properties": { 
			 "R2extent": 1153.3168, 
			 "electric_dipole_moment_norm": 2.29965628954, 
			 "electric_quadrupole_moment_norm": 5.49343532045, 
			 "total_energy": -358.970194716, 
			 "HOMO_LUMO_gap": 0.19408, 
			 "cosmo_polarized_energy": -9.94, 
			 "cosmo_cavitation_energy": 18.78, 
			 "cosmo_dispersion_energy": -14.27, 
			 "cosmo_repulsion_energy": 1.19, 
			 "cosmo_total_nonelectrostatic_energy": 5.71, 
			 "SMD_solvation_energy": 2.38 
		},
		"coords": [
			{
				"x": 1.7453757488,
				"y": -1.7557901185,
				"z": -1.9599580435,
				"element": "N" 
			},
			{
				"x": 0.3840095166,
				"y": -1.4595775256,
				"z": -1.7906154554,
				"element": "N" 
			},
			{
				"x": -0.0634471719,
				"y": -0.2915206863,
				"z": -1.1974197505,
				"element": "C" 
			},
			{
				"x": -1.3253202577,
				"y": -0.3398403814,
				"z": -0.7353013648,
				"element": "N" 
			},
			{
				"x": -1.8290914054,
				"y": 0.7680259004,
				"z": -0.1856144971,
				"element": "C" 
			},
			{
				"x": -1.1262737219,
				"y": 1.9654218547,
				"z": -0.050883084,
				"element": "C" 
			},
			{
				"x": 0.1858123633,
				"y": 1.9999089161,
				"z": -0.5287706898,
				"element": "C" 
			},
			{
				"x": 0.7370608131,
				"y": 0.8653453706,
				"z": -1.1123239371,
				"element": "C" 
			},
			{
				"x": 2.2861381444,
				"y": -1.4564630176,
				"z": -1.1474442533,
				"element": "H" 
			},
			{
				"x": 2.0994760762,
				"y": -1.2608759747,
				"z": -2.7747390991,
				"element": "H" 
			},
			{
				"x": -0.191107717,
				"y": -2.2667740687,
				"z": -1.5882857256,
				"element": "H" 
			},
			{
				"x": -2.8542368633,
				"y": 0.6900191573,
				"z": 0.1743463041,
				"element": "H" 
			},
			{
				"x": -1.5878789952,
				"y": 2.8310241563,
				"z": 0.4113317937,
				"element": "H" 
			},
			{
				"x": 0.7781999662,
				"y": 2.9075417557,
				"z": -0.4498358192,
				"element": "H" 
			},
			{
				"x": 1.7485835037,
				"y": 0.8708546619,
				"z": -1.5022863783,
				"element": "H" 
			}
		],
		 "valence_orbital": [ 
			{
				"type": "occ",
				"energy": -0.30708,
				"method": "rhf"
			},
			{
				"type": "occ",
				"energy": -0.27709,
				"method": "rhf"
			},
			{
				"type": "occ",
				"energy": -0.27213,
				"method": "rhf"
			},
			{
				"type": "occ",
				"energy": -0.25426,
				"method": "rhf"
			},
			{
				"type": "occ",
				"energy": -0.21025,
				"method": "rhf"
			},
			{
				"type": "unocc",
				"energy": -0.01617,
				"method": "rhf"
			},
			{
				"type": "unocc",
				"energy": 0.01034,
				"method": "rhf"
			},
			{
				"type": "unocc",
				"energy": 0.07447,
				"method": "rhf"
			},
			{
				"type": "unocc",
				"energy": 0.10644,
				"method": "rhf"
			},
			{
				"type": "unocc",
				"energy": 0.12049,
				"method": "rhf"
			}
		],
		"cosmo_sigma_profile": { 
			"-0.025": 0.0,
			"-0.024": 0.0,
			"-0.023": 0.0,
			"-0.022": 0.0,
			"-0.021": 0.0,
			"-0.02": 0.0,
			"-0.019": 0.0,
			"-0.018": 0.0,
			"-0.017": 0.0,
			"-0.016": 0.0,
			"-0.015": 0.0,
			"-0.014": 0.0,
			"-0.013": 0.0499020078557,
			"-0.012": 0.605266596573,
			"-0.011": 2.75267082617,
			"-0.01": 3.80151796652,
			"-0.009": 4.52678124743,
			"-0.008": 4.49239312474,
			"-0.007": 3.88270967945,
			"-0.006": 8.46363587481,
			"-0.005": 11.3385399697,
			"-0.004": 10.0190931525,
			"-0.003": 8.09398381427,
			"-0.002": 8.50894820623,
			"-0.001": 6.41301938083,
			"0.0": 7.07812373371,
			"0.001": 6.65290063224,
			"0.002": 6.87526690075,
			"0.003": 11.3736480015,
			"0.004": 13.1287774141,
			"0.005": 8.14552793683,
			"0.006": 3.93530386148,
			"0.007": 3.24422736849,
			"0.008": 2.88763785509,
			"0.009": 1.77342424972,
			"0.01": 1.83371157923,
			"0.011": 1.83808431114,
			"0.012": 1.86162865459,
			"0.013": 1.31250411373,
			"0.014": 1.56174443209,
			"0.015": 1.40738756274,
			"0.016": 0.885007070447,
			"0.017": 0.266071211119,
			"0.018": 0.0,
			"0.019": 0.0,
			"0.02": 0.0,
			"0.021": 0.0,
			"0.022": 0.0,
			"0.023": 0.0,
			"0.024": 0.0,
			"0.025": 0.0
		}
	}
}
