{
	 "smiles": "CN1C=NN=C1CO", 
	 "Tm": 323.15, 
	 "num_atms": 15, 
	 "gaussian": { 
		 "optdone": 1, 
		 "sigma_profile": "yes", 
		 "theory": "DFT", 
		 "functional": "B3LYP", 
		 "basiset": "6-31G**", 
		 "properties": { 
			 "R2extent": 1416.2786, 
			 "electric_dipole_moment_norm": 5.94417794148, 
			 "electric_quadrupole_moment_norm": 21.1837375612, 
			 "total_energy": -396.08158938, 
			 "HOMO_LUMO_gap": 0.25415, 
			 "cosmo_polarized_energy": -19.45, 
			 "cosmo_cavitation_energy": 18.77, 
			 "cosmo_dispersion_energy": -14.05, 
			 "cosmo_repulsion_energy": 1.18, 
			 "cosmo_total_nonelectrostatic_energy": 5.89, 
			 "SMD_solvation_energy": 2.17 
		},
		"coords": [
			{
				"x": 1.1346180863,
				"y": 0.477222579,
				"z": 0.7124053192,
				"element": "C" 
			},
			{
				"x": 0.094938293,
				"y": 1.395503096,
				"z": 0.2650947838,
				"element": "N" 
			},
			{
				"x": -0.5227529649,
				"y": 2.3775787208,
				"z": 0.9901828771,
				"element": "C" 
			},
			{
				"x": -1.4340690344,
				"y": 2.9926864348,
				"z": 0.2757026056,
				"element": "N" 
			},
			{
				"x": -1.4256607025,
				"y": 2.4082240494,
				"z": -0.9735261841,
				"element": "N" 
			},
			{
				"x": -0.5141650126,
				"y": 1.4596944529,
				"z": -0.9637846771,
				"element": "C" 
			},
			{
				"x": -0.2122835005,
				"y": 0.562071648,
				"z": -2.117056465,
				"element": "C" 
			},
			{
				"x": 1.1840132225,
				"y": 0.6306766178,
				"z": -2.4128120854,
				"element": "O" 
			},
			{
				"x": 1.773835789,
				"y": 0.2327295662,
				"z": -0.1358705807,
				"element": "H" 
			},
			{
				"x": 0.6989185339,
				"y": -0.4403436919,
				"z": 1.1220343452,
				"element": "H" 
			},
			{
				"x": 1.7323253748,
				"y": 0.9603880903,
				"z": 1.4879639027,
				"element": "H" 
			},
			{
				"x": -0.2622691659,
				"y": 2.6034165285,
				"z": 2.0151213077,
				"element": "H" 
			},
			{
				"x": -0.50906022,
				"y": -0.4728292624,
				"z": -1.8792718521,
				"element": "H" 
			},
			{
				"x": -0.8339216696,
				"y": 0.9073703671,
				"z": -2.9520531139,
				"element": "H" 
			},
			{
				"x": 1.358832971,
				"y": 0.0334108036,
				"z": -3.1512301831,
				"element": "H" 
			}
		],
		 "valence_orbital": [ 
			{
				"type": "occ",
				"energy": -0.30217,
				"method": "rhf"
			},
			{
				"type": "occ",
				"energy": -0.2896,
				"method": "rhf"
			},
			{
				"type": "occ",
				"energy": -0.28257,
				"method": "rhf"
			},
			{
				"type": "occ",
				"energy": -0.25197,
				"method": "rhf"
			},
			{
				"type": "occ",
				"energy": -0.24468,
				"method": "rhf"
			},
			{
				"type": "unocc",
				"energy": 0.00947,
				"method": "rhf"
			},
			{
				"type": "unocc",
				"energy": 0.04331,
				"method": "rhf"
			},
			{
				"type": "unocc",
				"energy": 0.07394,
				"method": "rhf"
			},
			{
				"type": "unocc",
				"energy": 0.0978,
				"method": "rhf"
			},
			{
				"type": "unocc",
				"energy": 0.12728,
				"method": "rhf"
			}
		],
		"cosmo_sigma_profile": { 
			"-0.025": 0.0,
			"-0.024": 0.0,
			"-0.023": 0.0,
			"-0.022": 0.0,
			"-0.021": 0.0,
			"-0.02": 0.0,
			"-0.019": 0.0,
			"-0.018": 0.0,
			"-0.017": 0.40761924501,
			"-0.016": 1.24460097561,
			"-0.015": 0.930616172476,
			"-0.014": 0.845234128256,
			"-0.013": 1.21157214545,
			"-0.012": 0.564337441147,
			"-0.011": 1.02556934444,
			"-0.01": 2.86617275835,
			"-0.009": 4.26892561388,
			"-0.008": 3.83005075226,
			"-0.007": 6.74509309167,
			"-0.006": 12.5718064522,
			"-0.005": 14.0188902581,
			"-0.004": 13.9764346306,
			"-0.003": 10.7200867193,
			"-0.002": 5.62094675221,
			"-0.001": 4.8833110265,
			"0.0": 5.35615822243,
			"0.001": 4.95708539294,
			"0.002": 3.36021848617,
			"0.003": 5.09622611463,
			"0.004": 4.23012427857,
			"0.005": 3.63372255329,
			"0.006": 2.73860457392,
			"0.007": 2.86013243988,
			"0.008": 3.26537359708,
			"0.009": 2.42280502128,
			"0.01": 3.0415710538,
			"0.011": 3.45980857437,
			"0.012": 3.71929678022,
			"0.013": 3.07125727584,
			"0.014": 3.94072619956,
			"0.015": 3.25277167163,
			"0.016": 2.25286670775,
			"0.017": 2.1376315719,
			"0.018": 0.224895681374,
			"0.019": 0.0,
			"0.02": 0.0,
			"0.021": 0.0,
			"0.022": 0.0,
			"0.023": 0.0,
			"0.024": 0.0,
			"0.025": 0.0
		}
	}
}
