{
	 "smiles": "CC1=CC=C(C)C2=C1COC2=O", 
	 "Tm": 361.15, 
	 "num_atms": 22, 
	 "gaussian": { 
		 "optdone": 1, 
		 "sigma_profile": "yes", 
		 "theory": "DFT", 
		 "functional": "B3LYP", 
		 "basiset": "6-31G**", 
		 "properties": { 
			 "R2extent": 2431.44, 
			 "electric_dipole_moment_norm": 4.88383149279, 
			 "electric_quadrupole_moment_norm": 18.7583044583, 
			 "total_energy": -537.565010044, 
			 "HOMO_LUMO_gap": 0.20397, 
			 "cosmo_polarized_energy": -10.77, 
			 "cosmo_cavitation_energy": 25.3, 
			 "cosmo_dispersion_energy": -18.63, 
			 "cosmo_repulsion_energy": 1.47, 
			 "cosmo_total_nonelectrostatic_energy": 8.14, 
			 "SMD_solvation_energy": 5.15 
		},
		"coords": [
			{
				"x": -0.8331827635,
				"y": -2.3076517605,
				"z": 0.5155804117,
				"element": "C" 
			},
			{
				"x": -0.2761828158,
				"y": -0.9544223452,
				"z": 0.1500900441,
				"element": "C" 
			},
			{
				"x": 0.3218039743,
				"y": -0.109861678,
				"z": 1.0939356291,
				"element": "C" 
			},
			{
				"x": 0.8391792285,
				"y": 1.1475897015,
				"z": 0.7539045481,
				"element": "C" 
			},
			{
				"x": 0.789943485,
				"y": 1.6385882542,
				"z": -0.5547670205,
				"element": "C" 
			},
			{
				"x": 1.3425698611,
				"y": 2.9879899018,
				"z": -0.9318714752,
				"element": "C" 
			},
			{
				"x": 0.189123218,
				"y": 0.7859416807,
				"z": -1.4944285438,
				"element": "C" 
			},
			{
				"x": -0.324252995,
				"y": -0.4617056586,
				"z": -1.157103422,
				"element": "C" 
			},
			{
				"x": -0.883599196,
				"y": -1.0839630007,
				"z": -2.4086724062,
				"element": "C" 
			},
			{
				"x": -0.6519136924,
				"y": -0.1178121543,
				"z": -3.4461908988,
				"element": "O" 
			},
			{
				"x": -0.0204116995,
				"y": 0.9994076287,
				"z": -2.9444883396,
				"element": "C" 
			},
			{
				"x": 0.2711614961,
				"y": 1.9395637251,
				"z": -3.6439283393,
				"element": "O" 
			},
			{
				"x": -0.3381373842,
				"y": -3.1112521555,
				"z": -0.0432612309,
				"element": "H" 
			},
			{
				"x": -1.9047672724,
				"y": -2.3759551205,
				"z": 0.2915400016,
				"element": "H" 
			},
			{
				"x": -0.7030292517,
				"y": -2.5153519914,
				"z": 1.5807073824,
				"element": "H" 
			},
			{
				"x": 0.3869386187,
				"y": -0.4416740072,
				"z": 2.1275062217,
				"element": "H" 
			},
			{
				"x": 1.2918170584,
				"y": 1.7584194986,
				"z": 1.5306775513,
				"element": "H" 
			},
			{
				"x": 1.7657463823,
				"y": 3.493243107,
				"z": -0.0598289096,
				"element": "H" 
			},
			{
				"x": 0.56589669,
				"y": 3.625131658,
				"z": -1.3660917247,
				"element": "H" 
			},
			{
				"x": 2.1191179931,
				"y": 2.896391159,
				"z": -1.6975756654,
				"element": "H" 
			},
			{
				"x": -0.3836209912,
				"y": -2.020742515,
				"z": -2.6851035626,
				"element": "H" 
			},
			{
				"x": -1.9613999438,
				"y": -1.2804739277,
				"z": -2.3480302514,
				"element": "H" 
			}
		],
		 "valence_orbital": [ 
			{
				"type": "occ",
				"energy": -0.34817,
				"method": "rhf"
			},
			{
				"type": "occ",
				"energy": -0.29426,
				"method": "rhf"
			},
			{
				"type": "occ",
				"energy": -0.26449,
				"method": "rhf"
			},
			{
				"type": "occ",
				"energy": -0.26176,
				"method": "rhf"
			},
			{
				"type": "occ",
				"energy": -0.24745,
				"method": "rhf"
			},
			{
				"type": "unocc",
				"energy": -0.04348,
				"method": "rhf"
			},
			{
				"type": "unocc",
				"energy": -0.01409,
				"method": "rhf"
			},
			{
				"type": "unocc",
				"energy": 0.05958,
				"method": "rhf"
			},
			{
				"type": "unocc",
				"energy": 0.08227,
				"method": "rhf"
			},
			{
				"type": "unocc",
				"energy": 0.09704,
				"method": "rhf"
			}
		],
		"cosmo_sigma_profile": { 
			"-0.025": 0.0,
			"-0.024": 0.0,
			"-0.023": 0.0,
			"-0.022": 0.0,
			"-0.021": 0.0,
			"-0.02": 0.0,
			"-0.019": 0.0,
			"-0.018": 0.0,
			"-0.017": 0.0,
			"-0.016": 0.0,
			"-0.015": 0.0,
			"-0.014": 0.0,
			"-0.013": 0.0,
			"-0.012": 0.0,
			"-0.011": 0.0,
			"-0.01": 0.0,
			"-0.009": 0.0,
			"-0.008": 0.502322159836,
			"-0.007": 5.37545684005,
			"-0.006": 10.5182047622,
			"-0.005": 18.1412455567,
			"-0.004": 20.1466585467,
			"-0.003": 17.19883854,
			"-0.002": 17.1180420605,
			"-0.001": 19.2408225171,
			"0.0": 21.0992057719,
			"0.001": 10.94138448,
			"0.002": 10.5149973776,
			"0.003": 10.508171139,
			"0.004": 9.44839442326,
			"0.005": 2.95521889399,
			"0.006": 2.57210492033,
			"0.007": 2.73796719579,
			"0.008": 2.71242318948,
			"0.009": 3.1596158379,
			"0.01": 4.42445423692,
			"0.011": 4.0766937393,
			"0.012": 5.11319632154,
			"0.013": 2.04461670685,
			"0.014": 0.154561576115,
			"0.015": 0.0,
			"0.016": 0.0,
			"0.017": 0.0,
			"0.018": 0.0,
			"0.019": 0.0,
			"0.02": 0.0,
			"0.021": 0.0,
			"0.022": 0.0,
			"0.023": 0.0,
			"0.024": 0.0,
			"0.025": 0.0
		}
	}
}
