{
	 "smiles": "CC(C)(C)OC(=O)NC1=C(C=C(C=C1)C(F)(F)F)C(O)=O", 
	 "Tm": 464.15, 
	 "num_atms": 35, 
	 "gaussian": { 
		 "optdone": 1, 
		 "sigma_profile": "yes", 
		 "theory": "DFT", 
		 "functional": "B3LYP", 
		 "basiset": "6-31G**", 
		 "properties": { 
			 "R2extent": 8398.1586, 
			 "electric_dipole_moment_norm": 4.14991644012, 
			 "electric_quadrupole_moment_norm": 19.3438172911, 
			 "total_energy": -1159.04905254, 
			 "HOMO_LUMO_gap": 0.17414, 
			 "cosmo_polarized_energy": -16.2, 
			 "cosmo_cavitation_energy": 40.32, 
			 "cosmo_dispersion_energy": -27.55, 
			 "cosmo_repulsion_energy": 2.03, 
			 "cosmo_total_nonelectrostatic_energy": 14.8, 
			 "SMD_solvation_energy": 10.03 
		},
		"coords": [
			{
				"x": 2.6452518037,
				"y": -1.1598886982,
				"z": -4.0484938966,
				"element": "C" 
			},
			{
				"x": 2.9385956678,
				"y": -0.4048353807,
				"z": -2.7491858894,
				"element": "C" 
			},
			{
				"x": 3.3905569701,
				"y": 1.0372091395,
				"z": -2.9960240775,
				"element": "C" 
			},
			{
				"x": 3.9637153958,
				"y": -1.1583699054,
				"z": -1.8987435144,
				"element": "C" 
			},
			{
				"x": 1.7368859341,
				"y": -0.4115922393,
				"z": -1.8805469608,
				"element": "O" 
			},
			{
				"x": 0.597700312,
				"y": 0.175508367,
				"z": -2.2854571912,
				"element": "C" 
			},
			{
				"x": 0.4135131628,
				"y": 0.7380717038,
				"z": -3.3479699163,
				"element": "O" 
			},
			{
				"x": -0.4238227962,
				"y": 0.1072916145,
				"z": -1.3441812103,
				"element": "N" 
			},
			{
				"x": -0.5283691381,
				"y": -0.4662386318,
				"z": -0.0859354518,
				"element": "C" 
			},
			{
				"x": -1.6628876851,
				"y": -0.1394056222,
				"z": 0.7198509912,
				"element": "C" 
			},
			{
				"x": -1.8269391314,
				"y": -0.7699661939,
				"z": 1.9622655871,
				"element": "C" 
			},
			{
				"x": -0.8943573325,
				"y": -1.6731696109,
				"z": 2.4514077317,
				"element": "C" 
			},
			{
				"x": 0.2366911367,
				"y": -1.9601784007,
				"z": 1.6780164724,
				"element": "C" 
			},
			{
				"x": 0.4169785665,
				"y": -1.3755071094,
				"z": 0.4358415454,
				"element": "C" 
			},
			{
				"x": -1.0642696689,
				"y": -2.3119847429,
				"z": 3.7992161885,
				"element": "C" 
			},
			{
				"x": -2.3278160945,
				"y": -2.1866948781,
				"z": 4.2634367295,
				"element": "F" 
			},
			{
				"x": -0.2455742852,
				"y": -1.7552213943,
				"z": 4.7229476083,
				"element": "F" 
			},
			{
				"x": -0.7682452205,
				"y": -3.6301870241,
				"z": 3.7665480869,
				"element": "F" 
			},
			{
				"x": -2.6912608043,
				"y": 0.8339579028,
				"z": 0.2460645763,
				"element": "C" 
			},
			{
				"x": -3.4896270134,
				"y": 1.3985982301,
				"z": 1.1821961443,
				"element": "O" 
			},
			{
				"x": -2.8543656607,
				"y": 1.1467911273,
				"z": -0.9197251511,
				"element": "O" 
			},
			{
				"x": 2.2769000406,
				"y": -2.1671052639,
				"z": -3.829653068,
				"element": "H" 
			},
			{
				"x": 3.568812516,
				"y": -1.2558038436,
				"z": -4.6283341264,
				"element": "H" 
			},
			{
				"x": 1.9045711308,
				"y": -0.6340822129,
				"z": -4.6508284283,
				"element": "H" 
			},
			{
				"x": 3.544604257,
				"y": 1.5566598528,
				"z": -2.0450383255,
				"element": "H" 
			},
			{
				"x": 2.6552052841,
				"y": 1.5848852579,
				"z": -3.5853214775,
				"element": "H" 
			},
			{
				"x": 4.3422650305,
				"y": 1.0310047928,
				"z": -3.5368516025,
				"element": "H" 
			},
			{
				"x": 4.1250860587,
				"y": -0.6498561067,
				"z": -0.943808543,
				"element": "H" 
			},
			{
				"x": 4.919679057,
				"y": -1.2097582977,
				"z": -2.4277358955,
				"element": "H" 
			},
			{
				"x": 3.628809781,
				"y": -2.1807024765,
				"z": -1.6984642251,
				"element": "H" 
			},
			{
				"x": -1.263333867,
				"y": 0.6031305763,
				"z": -1.647360006,
				"element": "H" 
			},
			{
				"x": -2.7225331953,
				"y": -0.5929485696,
				"z": 2.5490034249,
				"element": "H" 
			},
			{
				"x": 0.9724695247,
				"y": -2.6696119018,
				"z": 2.0433797871,
				"element": "H" 
			},
			{
				"x": 1.2830505993,
				"y": -1.625198792,
				"z": -0.1566194206,
				"element": "H" 
			},
			{
				"x": -3.1514403365,
				"y": 1.2237987318,
				"z": 2.0709035041,
				"element": "H" 
			}
		],
		 "valence_orbital": [ 
			{
				"type": "occ",
				"energy": -0.30585,
				"method": "rhf"
			},
			{
				"type": "occ",
				"energy": -0.29617,
				"method": "rhf"
			},
			{
				"type": "occ",
				"energy": -0.28664,
				"method": "rhf"
			},
			{
				"type": "occ",
				"energy": -0.28118,
				"method": "rhf"
			},
			{
				"type": "occ",
				"energy": -0.24346,
				"method": "rhf"
			},
			{
				"type": "unocc",
				"energy": -0.06932,
				"method": "rhf"
			},
			{
				"type": "unocc",
				"energy": -0.04171,
				"method": "rhf"
			},
			{
				"type": "unocc",
				"energy": 0.0244,
				"method": "rhf"
			},
			{
				"type": "unocc",
				"energy": 0.04489,
				"method": "rhf"
			},
			{
				"type": "unocc",
				"energy": 0.0538,
				"method": "rhf"
			}
		],
		"cosmo_sigma_profile": { 
			"-0.025": 0.0,
			"-0.024": 0.0,
			"-0.023": 0.0,
			"-0.022": 0.0,
			"-0.021": 0.0,
			"-0.02": 0.299920243156,
			"-0.019": 0.848559914273,
			"-0.018": 1.25390514277,
			"-0.017": 0.716722009872,
			"-0.016": 0.786146985142,
			"-0.015": 0.78145786245,
			"-0.014": 1.12834252846,
			"-0.013": 0.895386860575,
			"-0.012": 1.27685421527,
			"-0.011": 0.779545124187,
			"-0.01": 0.817950296069,
			"-0.009": 1.54573146354,
			"-0.008": 3.29764637339,
			"-0.007": 3.37612262548,
			"-0.006": 4.29405415516,
			"-0.005": 9.20439329337,
			"-0.004": 21.2776554941,
			"-0.003": 25.0470155223,
			"-0.002": 31.5916717066,
			"-0.001": 36.570482306,
			"0.0": 44.1442810495,
			"0.001": 31.7211011195,
			"0.002": 26.3773097272,
			"0.003": 28.9205916236,
			"0.004": 5.46156716195,
			"0.005": 4.15501338192,
			"0.006": 3.71192634156,
			"0.007": 3.98662393092,
			"0.008": 4.21277227307,
			"0.009": 5.0761745588,
			"0.01": 6.05251687596,
			"0.011": 4.22716646609,
			"0.012": 5.01618107382,
			"0.013": 1.62690140084,
			"0.014": 0.0,
			"0.015": 0.0,
			"0.016": 0.0,
			"0.017": 0.0,
			"0.018": 0.0,
			"0.019": 0.0,
			"0.02": 0.0,
			"0.021": 0.0,
			"0.022": 0.0,
			"0.023": 0.0,
			"0.024": 0.0,
			"0.025": 0.0
		}
	}
}
