{
	 "smiles": "COC1=CC=C(C=C1)C1(C)CCC2=C(C3=C1C=C(C)O3)C1=CC(Cl)=CC=C1O2", 
	 "Tm": 417.15, 
	 "num_atms": 49, 
	 "gaussian": { 
		 "optdone": 1, 
		 "sigma_profile": "yes", 
		 "theory": "DFT", 
		 "functional": "B3LYP", 
		 "basiset": "6-31G**", 
		 "properties": { 
			 "R2extent": 15644.6861, 
			 "electric_dipole_moment_norm": 3.41935697317, 
			 "electric_quadrupole_moment_norm": 24.789317609, 
			 "total_energy": -1613.06329848, 
			 "HOMO_LUMO_gap": 0.15991, 
			 "cosmo_polarized_energy": -10.37, 
			 "cosmo_cavitation_energy": 52.17, 
			 "cosmo_dispersion_energy": -36.63, 
			 "cosmo_repulsion_energy": 2.74, 
			 "cosmo_total_nonelectrostatic_energy": 18.29, 
			 "SMD_solvation_energy": 9.25 
		},
		"coords": [
			{
				"x": 3.6269118318,
				"y": 5.5218735879,
				"z": 0.7714118777,
				"element": "C" 
			},
			{
				"x": 4.222387186,
				"y": 4.2501649194,
				"z": 0.9690664081,
				"element": "O" 
			},
			{
				"x": 3.4715110254,
				"y": 3.1392095918,
				"z": 0.7091945362,
				"element": "C" 
			},
			{
				"x": 2.1440050952,
				"y": 3.1568033218,
				"z": 0.2647719681,
				"element": "C" 
			},
			{
				"x": 1.4772337778,
				"y": 1.9520484885,
				"z": 0.0359800077,
				"element": "C" 
			},
			{
				"x": 2.090813746,
				"y": 0.7081386086,
				"z": 0.2351379053,
				"element": "C" 
			},
			{
				"x": 3.4219394187,
				"y": 0.7176079765,
				"z": 0.6803967526,
				"element": "C" 
			},
			{
				"x": 4.1038522028,
				"y": 1.9077162127,
				"z": 0.9165142064,
				"element": "C" 
			},
			{
				"x": 1.3226956831,
				"y": -0.5889477724,
				"z": -0.0969229039,
				"element": "C" 
			},
			{
				"x": 2.0673471139,
				"y": -1.8442453137,
				"z": 0.4175248816,
				"element": "C" 
			},
			{
				"x": 1.2285044242,
				"y": -0.6387705995,
				"z": -1.6584748544,
				"element": "C" 
			},
			{
				"x": 0.6871776112,
				"y": -1.914655117,
				"z": -2.3300690702,
				"element": "C" 
			},
			{
				"x": -0.7568982262,
				"y": -2.1825643865,
				"z": -2.0856752851,
				"element": "C" 
			},
			{
				"x": -1.595319956,
				"y": -1.8446316406,
				"z": -1.0564085402,
				"element": "C" 
			},
			{
				"x": -1.2242037481,
				"y": -1.108134178,
				"z": 0.1293309854,
				"element": "C" 
			},
			{
				"x": -0.0454640032,
				"y": -0.5553855316,
				"z": 0.5728769718,
				"element": "C" 
			},
			{
				"x": -0.3438494694,
				"y": -0.0096872798,
				"z": 1.8696135456,
				"element": "C" 
			},
			{
				"x": -1.660083321,
				"y": -0.2496808817,
				"z": 2.1249240293,
				"element": "C" 
			},
			{
				"x": -2.5642444642,
				"y": 0.064339616,
				"z": 3.2638713397,
				"element": "C" 
			},
			{
				"x": -2.2123800232,
				"y": -0.9199912663,
				"z": 1.0668861387,
				"element": "O" 
			},
			{
				"x": -2.8923245765,
				"y": -2.4015501779,
				"z": -1.4001309822,
				"element": "C" 
			},
			{
				"x": -4.160066507,
				"y": -2.4235027135,
				"z": -0.8009236841,
				"element": "C" 
			},
			{
				"x": -5.1763429083,
				"y": -3.0872886108,
				"z": -1.4797778094,
				"element": "C" 
			},
			{
				"x": -6.7860742987,
				"y": -3.1386844501,
				"z": -0.7605158264,
				"element": "Cl" 
			},
			{
				"x": -4.9787683366,
				"y": -3.7219332462,
				"z": -2.7176972828,
				"element": "C" 
			},
			{
				"x": -3.7209801761,
				"y": -3.7039928933,
				"z": -3.3185905038,
				"element": "C" 
			},
			{
				"x": -2.7084503093,
				"y": -3.0411923371,
				"z": -2.6383477423,
				"element": "C" 
			},
			{
				"x": -1.4127581218,
				"y": -2.9079698472,
				"z": -3.0565934628,
				"element": "O" 
			},
			{
				"x": 2.7534734483,
				"y": 5.6671894047,
				"z": 1.4205483036,
				"element": "H" 
			},
			{
				"x": 3.3235722858,
				"y": 5.6708148532,
				"z": -0.2731398196,
				"element": "H" 
			},
			{
				"x": 4.390849151,
				"y": 6.2568086198,
				"z": 1.0302460439,
				"element": "H" 
			},
			{
				"x": 1.6212703734,
				"y": 4.0914983363,
				"z": 0.0986227196,
				"element": "H" 
			},
			{
				"x": 0.4429529223,
				"y": 1.9885053506,
				"z": -0.2941944234,
				"element": "H" 
			},
			{
				"x": 3.9490345183,
				"y": -0.2139994828,
				"z": 0.853245213,
				"element": "H" 
			},
			{
				"x": 5.1317388954,
				"y": 1.9043497248,
				"z": 1.2647732186,
				"element": "H" 
			},
			{
				"x": 2.266533389,
				"y": -1.769479648,
				"z": 1.490247181,
				"element": "H" 
			},
			{
				"x": 1.4568906731,
				"y": -2.7368358979,
				"z": 0.2619350895,
				"element": "H" 
			},
			{
				"x": 3.0205891521,
				"y": -1.9916335355,
				"z": -0.1030963943,
				"element": "H" 
			},
			{
				"x": 2.2441537597,
				"y": -0.482856681,
				"z": -2.0376929656,
				"element": "H" 
			},
			{
				"x": 0.6390949706,
				"y": 0.2181349185,
				"z": -2.0010516644,
				"element": "H" 
			},
			{
				"x": 1.2859832937,
				"y": -2.7884043725,
				"z": -2.037058661,
				"element": "H" 
			},
			{
				"x": 0.8269647852,
				"y": -1.8165148445,
				"z": -3.4134279563,
				"element": "H" 
			},
			{
				"x": 0.3448981043,
				"y": 0.5123060484,
				"z": 2.5179220467,
				"element": "H" 
			},
			{
				"x": -2.0092176226,
				"y": 0.5921794603,
				"z": 4.0427278825,
				"element": "H" 
			},
			{
				"x": -3.4019713489,
				"y": 0.6985248199,
				"z": 2.9503273852,
				"element": "H" 
			},
			{
				"x": -2.9894541102,
				"y": -0.8459744089,
				"z": 3.7027284244,
				"element": "H" 
			},
			{
				"x": -4.3407451697,
				"y": -1.9442712486,
				"z": 0.151958113,
				"element": "H" 
			},
			{
				"x": -5.8096186116,
				"y": -4.2239666396,
				"z": -3.1996394681,
				"element": "H" 
			},
			{
				"x": -3.5399635294,
				"y": -4.1854688574,
				"z": -4.2731538747,
				"element": "H" 
			}
		],
		 "valence_orbital": [ 
			{
				"type": "occ",
				"energy": -0.2503,
				"method": "rhf"
			},
			{
				"type": "occ",
				"energy": -0.24443,
				"method": "rhf"
			},
			{
				"type": "occ",
				"energy": -0.2284,
				"method": "rhf"
			},
			{
				"type": "occ",
				"energy": -0.21532,
				"method": "rhf"
			},
			{
				"type": "occ",
				"energy": -0.18817,
				"method": "rhf"
			},
			{
				"type": "unocc",
				"energy": -0.02826,
				"method": "rhf"
			},
			{
				"type": "unocc",
				"energy": -0.00515,
				"method": "rhf"
			},
			{
				"type": "unocc",
				"energy": 0.00252,
				"method": "rhf"
			},
			{
				"type": "unocc",
				"energy": 0.00745,
				"method": "rhf"
			},
			{
				"type": "unocc",
				"energy": 0.01164,
				"method": "rhf"
			}
		],
		"cosmo_sigma_profile": { 
			"-0.025": 0.0,
			"-0.024": 0.0,
			"-0.023": 0.0,
			"-0.022": 0.0,
			"-0.021": 0.0,
			"-0.02": 0.0,
			"-0.019": 0.0,
			"-0.018": 0.0,
			"-0.017": 0.0,
			"-0.016": 0.0,
			"-0.015": 0.0,
			"-0.014": 0.0,
			"-0.013": 0.0,
			"-0.012": 0.0,
			"-0.011": 0.0,
			"-0.01": 0.0,
			"-0.009": 0.0,
			"-0.008": 0.93225365687,
			"-0.007": 3.45871100024,
			"-0.006": 9.22550615488,
			"-0.005": 29.4990617831,
			"-0.004": 36.3739151176,
			"-0.003": 46.7292478614,
			"-0.002": 37.2588013434,
			"-0.001": 32.4387726922,
			"0.0": 32.4018008806,
			"0.001": 32.9516562173,
			"0.002": 36.8540504666,
			"0.003": 43.6626177199,
			"0.004": 30.5498943881,
			"0.005": 24.8618821368,
			"0.006": 10.3940075967,
			"0.007": 2.98912238959,
			"0.008": 2.55982264334,
			"0.009": 1.61041440207,
			"0.01": 1.30322602918,
			"0.011": 0.911340123065,
			"0.012": 0.0,
			"0.013": 0.0,
			"0.014": 0.0,
			"0.015": 0.0,
			"0.016": 0.0,
			"0.017": 0.0,
			"0.018": 0.0,
			"0.019": 0.0,
			"0.02": 0.0,
			"0.021": 0.0,
			"0.022": 0.0,
			"0.023": 0.0,
			"0.024": 0.0,
			"0.025": 0.0
		}
	}
}
