{
	 "smiles": "CC1=C(C=CC=C1)N1N=CC(C(O)=O)=C1N", 
	 "Tm": 433.15, 
	 "num_atms": 27, 
	 "gaussian": { 
		 "optdone": 1, 
		 "sigma_profile": "yes", 
		 "theory": "DFT", 
		 "functional": "B3LYP", 
		 "basiset": "6-31G**", 
		 "properties": { 
			 "R2extent": 4306.1657, 
			 "electric_dipole_moment_norm": 8.22449200377, 
			 "electric_quadrupole_moment_norm": 22.9853039586, 
			 "total_energy": -740.499267406, 
			 "HOMO_LUMO_gap": 0.21399, 
			 "cosmo_polarized_energy": -21.31, 
			 "cosmo_cavitation_energy": 31.28, 
			 "cosmo_dispersion_energy": -22.26, 
			 "cosmo_repulsion_energy": 1.73, 
			 "cosmo_total_nonelectrostatic_energy": 10.76, 
			 "SMD_solvation_energy": 6.46 
		},
		"coords": [
			{
				"x": 0.390545618,
				"y": -2.4864009994,
				"z": -2.2869503436,
				"element": "C" 
			},
			{
				"x": -0.4109446654,
				"y": -2.3416015058,
				"z": -1.017679394,
				"element": "C" 
			},
			{
				"x": -0.0464204705,
				"y": -1.4274592348,
				"z": -0.0118139252,
				"element": "C" 
			},
			{
				"x": -0.789983079,
				"y": -1.3013651948,
				"z": 1.1652318245,
				"element": "C" 
			},
			{
				"x": -1.9340998374,
				"y": -2.0755817928,
				"z": 1.3566975941,
				"element": "C" 
			},
			{
				"x": -2.314235147,
				"y": -2.987145561,
				"z": 0.3726949995,
				"element": "C" 
			},
			{
				"x": -1.5549017952,
				"y": -3.1168578835,
				"z": -0.7914552715,
				"element": "C" 
			},
			{
				"x": 1.1020943534,
				"y": -0.5941019577,
				"z": -0.1855501308,
				"element": "N" 
			},
			{
				"x": 2.3556098355,
				"y": -1.1360930309,
				"z": -0.2697487717,
				"element": "N" 
			},
			{
				"x": 3.1705324754,
				"y": -0.0972281873,
				"z": -0.3860913503,
				"element": "C" 
			},
			{
				"x": 2.4735425206,
				"y": 1.1351084572,
				"z": -0.3608381502,
				"element": "C" 
			},
			{
				"x": 3.0549959711,
				"y": 2.494494415,
				"z": -0.4145487853,
				"element": "C" 
			},
			{
				"x": 2.1785240808,
				"y": 3.5129409723,
				"z": -0.2511026504,
				"element": "O" 
			},
			{
				"x": 4.2367826793,
				"y": 2.6992043176,
				"z": -0.5851948669,
				"element": "O" 
			},
			{
				"x": 1.1394636232,
				"y": 0.7733421092,
				"z": -0.2344944321,
				"element": "C" 
			},
			{
				"x": 0.020996753,
				"y": 1.6394152516,
				"z": -0.2042839975,
				"element": "N" 
			},
			{
				"x": -0.1020095199,
				"y": -3.1747565476,
				"z": -2.9779028343,
				"element": "H" 
			},
			{
				"x": 1.3966819353,
				"y": -2.8578416564,
				"z": -2.074306756,
				"element": "H" 
			},
			{
				"x": 0.5139475721,
				"y": -1.5229704596,
				"z": -2.7938518771,
				"element": "H" 
			},
			{
				"x": -0.4461996628,
				"y": -0.6209823117,
				"z": 1.9395181202,
				"element": "H" 
			},
			{
				"x": -2.5091709875,
				"y": -1.9774797218,
				"z": 2.2720834838,
				"element": "H" 
			},
			{
				"x": -3.198423411,
				"y": -3.6022219442,
				"z": 0.5108727324,
				"element": "H" 
			},
			{
				"x": -1.8574241254,
				"y": -3.832076234,
				"z": -1.5514625047,
				"element": "H" 
			},
			{
				"x": 4.2384811503,
				"y": -0.2429682446,
				"z": -0.4695650331,
				"element": "H" 
			},
			{
				"x": 1.2812565959,
				"y": 3.1510828304,
				"z": -0.0898544018,
				"element": "H" 
			},
			{
				"x": -0.7049090468,
				"y": 1.3193301238,
				"z": 0.4300204475,
				"element": "H" 
			},
			{
				"x": -0.3951334158,
				"y": 1.7548139909,
				"z": -1.1265237253,
				"element": "H" 
			}
		],
		 "valence_orbital": [ 
			{
				"type": "occ",
				"energy": -0.28574,
				"method": "rhf"
			},
			{
				"type": "occ",
				"energy": -0.26918,
				"method": "rhf"
			},
			{
				"type": "occ",
				"energy": -0.25799,
				"method": "rhf"
			},
			{
				"type": "occ",
				"energy": -0.25566,
				"method": "rhf"
			},
			{
				"type": "occ",
				"energy": -0.25308,
				"method": "rhf"
			},
			{
				"type": "unocc",
				"energy": -0.03909,
				"method": "rhf"
			},
			{
				"type": "unocc",
				"energy": -0.02601,
				"method": "rhf"
			},
			{
				"type": "unocc",
				"energy": -0.01243,
				"method": "rhf"
			},
			{
				"type": "unocc",
				"energy": 0.01326,
				"method": "rhf"
			},
			{
				"type": "unocc",
				"energy": 0.04853,
				"method": "rhf"
			}
		],
		"cosmo_sigma_profile": { 
			"-0.025": 0.0,
			"-0.024": 0.0,
			"-0.023": 0.0,
			"-0.022": 0.0,
			"-0.021": 0.0,
			"-0.02": 0.0,
			"-0.019": 0.0,
			"-0.018": 0.0,
			"-0.017": 0.0,
			"-0.016": 0.0,
			"-0.015": 0.129666767103,
			"-0.014": 1.4430711335,
			"-0.013": 2.22970908872,
			"-0.012": 3.50676905292,
			"-0.011": 3.80740394179,
			"-0.01": 2.27803285243,
			"-0.009": 3.66880220606,
			"-0.008": 4.39699222871,
			"-0.007": 6.41663719413,
			"-0.006": 13.1898218256,
			"-0.005": 16.814726333,
			"-0.004": 16.7356709817,
			"-0.003": 16.3246075334,
			"-0.002": 15.6831670972,
			"-0.001": 17.3068061591,
			"0.0": 18.2001920442,
			"0.001": 14.602077202,
			"0.002": 15.6619033471,
			"0.003": 14.5338169089,
			"0.004": 15.2712987564,
			"0.005": 6.54461253182,
			"0.006": 4.65335241598,
			"0.007": 3.73152352882,
			"0.008": 3.69491404331,
			"0.009": 3.809586036,
			"0.01": 4.19925212234,
			"0.011": 5.78587265024,
			"0.012": 7.81155055739,
			"0.013": 5.08919693492,
			"0.014": 2.03442647245,
			"0.015": 0.149785345746,
			"0.016": 0.0,
			"0.017": 0.0,
			"0.018": 0.0,
			"0.019": 0.0,
			"0.02": 0.0,
			"0.021": 0.0,
			"0.022": 0.0,
			"0.023": 0.0,
			"0.024": 0.0,
			"0.025": 0.0
		}
	}
}
