{
	 "smiles": "OC(=O)C1=CN(CC2=NC=CC=C2)N=N1", 
	 "Tm": 453.15, 
	 "num_atms": 23, 
	 "gaussian": { 
		 "optdone": 1, 
		 "sigma_profile": "yes", 
		 "theory": "DFT", 
		 "functional": "B3LYP", 
		 "basiset": "6-31G**", 
		 "properties": { 
			 "R2extent": 4263.1625, 
			 "electric_dipole_moment_norm": 5.46487106984, 
			 "electric_quadrupole_moment_norm": 21.5104395915, 
			 "total_energy": -717.199316176, 
			 "HOMO_LUMO_gap": 0.2298, 
			 "cosmo_polarized_energy": -19.89, 
			 "cosmo_cavitation_energy": 29.32, 
			 "cosmo_dispersion_energy": -20.96, 
			 "cosmo_repulsion_energy": 1.65, 
			 "cosmo_total_nonelectrostatic_energy": 10.01, 
			 "SMD_solvation_energy": 3.71 
		},
		"coords": [
			{
				"x": 1.1354053424,
				"y": -4.2751944387,
				"z": -0.2251016334,
				"element": "O" 
			},
			{
				"x": 0.1660678103,
				"y": -4.1788587362,
				"z": 0.7267888074,
				"element": "C" 
			},
			{
				"x": -0.5236736592,
				"y": -5.1142266803,
				"z": 1.0622204921,
				"element": "O" 
			},
			{
				"x": 0.0918232415,
				"y": -2.8083860338,
				"z": 1.2607153403,
				"element": "C" 
			},
			{
				"x": 0.8445686988,
				"y": -1.6996785387,
				"z": 0.9159556252,
				"element": "C" 
			},
			{
				"x": 0.3748993132,
				"y": -0.7191820289,
				"z": 1.7139012663,
				"element": "N" 
			},
			{
				"x": 0.7354718316,
				"y": 0.6958192988,
				"z": 1.7599805529,
				"element": "C" 
			},
			{
				"x": 0.0332881309,
				"y": 1.5246634085,
				"z": 0.6969865585,
				"element": "C" 
			},
			{
				"x": 0.8328651266,
				"y": 2.2672879646,
				"z": -0.0795064931,
				"element": "N" 
			},
			{
				"x": 0.2541888141,
				"y": 3.0318494426,
				"z": -1.0158183755,
				"element": "C" 
			},
			{
				"x": -1.1234627874,
				"y": 3.0849649822,
				"z": -1.2234834254,
				"element": "C" 
			},
			{
				"x": -1.9462579577,
				"y": 2.3032153008,
				"z": -0.4111815572,
				"element": "C" 
			},
			{
				"x": -1.3607740969,
				"y": 1.5081031094,
				"z": 0.5706692816,
				"element": "C" 
			},
			{
				"x": -0.6278657268,
				"y": -1.1902605422,
				"z": 2.5110219801,
				"element": "N" 
			},
			{
				"x": -0.7943211918,
				"y": -2.4465456169,
				"z": 2.2376079567,
				"element": "N" 
			},
			{
				"x": 1.1196583023,
				"y": -5.1992498202,
				"z": -0.5242218596,
				"element": "H" 
			},
			{
				"x": 1.6371250624,
				"y": -1.5552928266,
				"z": 0.1993123509,
				"element": "H" 
			},
			{
				"x": 0.4702786225,
				"y": 1.0363673873,
				"z": 2.7645641375,
				"element": "H" 
			},
			{
				"x": 1.8135961191,
				"y": 0.7967182767,
				"z": 1.6257833805,
				"element": "H" 
			},
			{
				"x": 0.9288592733,
				"y": 3.6254744704,
				"z": -1.6297049089,
				"element": "H" 
			},
			{
				"x": -1.5368791147,
				"y": 3.7197716134,
				"z": -2.0005863847,
				"element": "H" 
			},
			{
				"x": -3.0247159371,
				"y": 2.3144853586,
				"z": -0.5386943165,
				"element": "H" 
			},
			{
				"x": -1.9592452175,
				"y": 0.8826546493,
				"z": 1.2257912243,
				"element": "H" 
			}
		],
		 "valence_orbital": [ 
			{
				"type": "occ",
				"energy": -0.27957,
				"method": "rhf"
			},
			{
				"type": "occ",
				"energy": -0.27862,
				"method": "rhf"
			},
			{
				"type": "occ",
				"energy": -0.27586,
				"method": "rhf"
			},
			{
				"type": "occ",
				"energy": -0.27374,
				"method": "rhf"
			},
			{
				"type": "occ",
				"energy": -0.27009,
				"method": "rhf"
			},
			{
				"type": "unocc",
				"energy": -0.04029,
				"method": "rhf"
			},
			{
				"type": "unocc",
				"energy": -0.03326,
				"method": "rhf"
			},
			{
				"type": "unocc",
				"energy": -0.03263,
				"method": "rhf"
			},
			{
				"type": "unocc",
				"energy": -0.01184,
				"method": "rhf"
			},
			{
				"type": "unocc",
				"energy": 0.07857,
				"method": "rhf"
			}
		],
		"cosmo_sigma_profile": { 
			"-0.025": 0.0,
			"-0.024": 0.0,
			"-0.023": 0.0,
			"-0.022": 0.0,
			"-0.021": 0.0,
			"-0.02": 0.0,
			"-0.019": 0.131586440152,
			"-0.018": 0.96722692117,
			"-0.017": 1.02493036267,
			"-0.016": 0.579665996004,
			"-0.015": 0.438711375586,
			"-0.014": 0.960504016648,
			"-0.013": 0.737852954734,
			"-0.012": 1.55286559141,
			"-0.011": 3.20673740506,
			"-0.01": 2.65010487796,
			"-0.009": 2.59106861157,
			"-0.008": 5.17529491963,
			"-0.007": 10.780053721,
			"-0.006": 15.8108736754,
			"-0.005": 15.6890008779,
			"-0.004": 10.6026796584,
			"-0.003": 16.4345495484,
			"-0.002": 16.534976431,
			"-0.001": 16.9828585702,
			"0.0": 12.3754453494,
			"0.001": 14.4764512945,
			"0.002": 16.8737156359,
			"0.003": 8.81889462527,
			"0.004": 5.29851165032,
			"0.005": 5.27909334261,
			"0.006": 4.85112678397,
			"0.007": 7.01985325311,
			"0.008": 5.10707653269,
			"0.009": 5.30702535894,
			"0.01": 5.52367578641,
			"0.011": 8.85299696636,
			"0.012": 6.29191008828,
			"0.013": 3.66563017341,
			"0.014": 1.90453379813,
			"0.015": 1.18228496015,
			"0.016": 0.00790345965472,
			"0.017": 0.0,
			"0.018": 0.0,
			"0.019": 0.0,
			"0.02": 0.0,
			"0.021": 0.0,
			"0.022": 0.0,
			"0.023": 0.0,
			"0.024": 0.0,
			"0.025": 0.0
		}
	}
}
