{
	 "smiles": "N#CC1=CC=C(CN2CCC3=C2C=CC=C3)C=C1", 
	 "Tm": 350.15, 
	 "num_atms": 32, 
	 "gaussian": { 
		 "optdone": 1, 
		 "sigma_profile": "yes", 
		 "theory": "DFT", 
		 "functional": "B3LYP", 
		 "basiset": "6-31G**", 
		 "properties": { 
			 "R2extent": 5831.7673, 
			 "electric_dipole_moment_norm": 4.4429517947, 
			 "electric_quadrupole_moment_norm": 31.8001898823, 
			 "total_energy": -727.628581023, 
			 "HOMO_LUMO_gap": 0.13852, 
			 "cosmo_polarized_energy": -11.89, 
			 "cosmo_cavitation_energy": 35.78, 
			 "cosmo_dispersion_energy": -24.98, 
			 "cosmo_repulsion_energy": 1.92, 
			 "cosmo_total_nonelectrostatic_energy": 12.72, 
			 "SMD_solvation_energy": 5.72 
		},
		"coords": [
			{
				"x": -0.1235294072,
				"y": -5.2143637042,
				"z": 0.2239780052,
				"element": "N" 
			},
			{
				"x": -0.3529856606,
				"y": -4.0774747643,
				"z": 0.315778778,
				"element": "C" 
			},
			{
				"x": -0.6361896105,
				"y": -2.6764011021,
				"z": 0.4296862872,
				"element": "C" 
			},
			{
				"x": -1.4555976608,
				"y": -2.2039423737,
				"z": 1.4670391779,
				"element": "C" 
			},
			{
				"x": -1.7192968848,
				"y": -0.8410976365,
				"z": 1.5710711233,
				"element": "C" 
			},
			{
				"x": -1.1896365713,
				"y": 0.0731921107,
				"z": 0.6514552414,
				"element": "C" 
			},
			{
				"x": -1.5216819801,
				"y": 1.5585762282,
				"z": 0.7770767431,
				"element": "C" 
			},
			{
				"x": -0.4104175483,
				"y": 2.477383472,
				"z": 0.6529263273,
				"element": "N" 
			},
			{
				"x": 0.7052696932,
				"y": 2.4046559654,
				"z": 1.6096425524,
				"element": "C" 
			},
			{
				"x": 1.7284197086,
				"y": 3.4321788944,
				"z": 1.0703882931,
				"element": "C" 
			},
			{
				"x": 1.3402593353,
				"y": 3.5492345976,
				"z": -0.3897168706,
				"element": "C" 
			},
			{
				"x": 0.0644726188,
				"y": 2.97613067,
				"z": -0.5629912998,
				"element": "C" 
			},
			{
				"x": -0.5573501336,
				"y": 2.9927337621,
				"z": -1.8149336736,
				"element": "C" 
			},
			{
				"x": 0.1173660915,
				"y": 3.5970751208,
				"z": -2.8842909945,
				"element": "C" 
			},
			{
				"x": 1.3795184157,
				"y": 4.1667667938,
				"z": -2.7186615505,
				"element": "C" 
			},
			{
				"x": 1.9936313702,
				"y": 4.1449022753,
				"z": -1.4561037606,
				"element": "C" 
			},
			{
				"x": -0.3697887203,
				"y": -0.4090820579,
				"z": -0.3807115462,
				"element": "C" 
			},
			{
				"x": -0.0920110611,
				"y": -1.7671588666,
				"z": -0.4941479974,
				"element": "C" 
			},
			{
				"x": -1.8716751388,
				"y": -2.9035454248,
				"z": 2.1843773295,
				"element": "H" 
			},
			{
				"x": -2.3480748783,
				"y": -0.4816312234,
				"z": 2.3817416879,
				"element": "H" 
			},
			{
				"x": -2.2696872975,
				"y": 1.8317044398,
				"z": 0.0235825168,
				"element": "H" 
			},
			{
				"x": -2.000943662,
				"y": 1.7249628296,
				"z": 1.7503464836,
				"element": "H" 
			},
			{
				"x": 1.1400952724,
				"y": 1.3927906455,
				"z": 1.6259364526,
				"element": "H" 
			},
			{
				"x": 0.356691625,
				"y": 2.6351017724,
				"z": 2.6221888908,
				"element": "H" 
			},
			{
				"x": 1.6114433406,
				"y": 4.3991742713,
				"z": 1.5771434544,
				"element": "H" 
			},
			{
				"x": 2.760459267,
				"y": 3.1052061476,
				"z": 1.2268513153,
				"element": "H" 
			},
			{
				"x": -1.5352987355,
				"y": 2.5474433001,
				"z": -1.9701067196,
				"element": "H" 
			},
			{
				"x": -0.3556076971,
				"y": 3.6116592378,
				"z": -3.8624036222,
				"element": "H" 
			},
			{
				"x": 1.8871407852,
				"y": 4.622866913,
				"z": -3.5627158598,
				"element": "H" 
			},
			{
				"x": 2.9768898225,
				"y": 4.5880776583,
				"z": -1.3182177616,
				"element": "H" 
			},
			{
				"x": 0.0536600994,
				"y": 0.2836028328,
				"z": -1.1007257757,
				"element": "H" 
			},
			{
				"x": 0.5421552022,
				"y": -2.1330227848,
				"z": -1.2948832277,
				"element": "H" 
			}
		],
		 "valence_orbital": [ 
			{
				"type": "occ",
				"energy": -0.29031,
				"method": "rhf"
			},
			{
				"type": "occ",
				"energy": -0.27587,
				"method": "rhf"
			},
			{
				"type": "occ",
				"energy": -0.26197,
				"method": "rhf"
			},
			{
				"type": "occ",
				"energy": -0.24458,
				"method": "rhf"
			},
			{
				"type": "occ",
				"energy": -0.19102,
				"method": "rhf"
			},
			{
				"type": "unocc",
				"energy": -0.0525,
				"method": "rhf"
			},
			{
				"type": "unocc",
				"energy": -0.02597,
				"method": "rhf"
			},
			{
				"type": "unocc",
				"energy": -0.00211,
				"method": "rhf"
			},
			{
				"type": "unocc",
				"energy": 0.01677,
				"method": "rhf"
			},
			{
				"type": "unocc",
				"energy": 0.03801,
				"method": "rhf"
			}
		],
		"cosmo_sigma_profile": { 
			"-0.025": 0.0,
			"-0.024": 0.0,
			"-0.023": 0.0,
			"-0.022": 0.0,
			"-0.021": 0.0,
			"-0.02": 0.0,
			"-0.019": 0.0,
			"-0.018": 0.0,
			"-0.017": 0.0,
			"-0.016": 0.0,
			"-0.015": 0.0,
			"-0.014": 0.0,
			"-0.013": 0.0,
			"-0.012": 0.0,
			"-0.011": 0.0,
			"-0.01": 0.0,
			"-0.009": 0.0,
			"-0.008": 2.49381165656,
			"-0.007": 8.81618110468,
			"-0.006": 12.7615530544,
			"-0.005": 18.8669152024,
			"-0.004": 24.6637642238,
			"-0.003": 27.7918524227,
			"-0.002": 30.0810850019,
			"-0.001": 28.9856426052,
			"0.0": 21.6346750572,
			"0.001": 15.6272688006,
			"0.002": 20.0803875267,
			"0.003": 15.2195997464,
			"0.004": 8.67771300268,
			"0.005": 9.81837496689,
			"0.006": 11.178468959,
			"0.007": 9.18756852459,
			"0.008": 5.92187916903,
			"0.009": 4.10427140129,
			"0.01": 3.25860971965,
			"0.011": 2.82470264258,
			"0.012": 2.62274175027,
			"0.013": 1.79679978137,
			"0.014": 0.101082364037,
			"0.015": 0.0,
			"0.016": 0.0,
			"0.017": 0.0,
			"0.018": 0.0,
			"0.019": 0.0,
			"0.02": 0.0,
			"0.021": 0.0,
			"0.022": 0.0,
			"0.023": 0.0,
			"0.024": 0.0,
			"0.025": 0.0
		}
	}
}
