{
	 "smiles": "CN1C2=C(C3=C(CCCC3)S2)C(=O)N(C1=O)C1=CC=CC=C1", 
	 "Tm": 523.15, 
	 "num_atms": 38, 
	 "gaussian": { 
		 "optdone": 1, 
		 "sigma_profile": "yes", 
		 "theory": "DFT", 
		 "functional": "B3LYP", 
		 "basiset": "6-31G**", 
		 "properties": { 
			 "R2extent": 9213.429, 
			 "electric_dipole_moment_norm": 3.18287017957, 
			 "electric_quadrupole_moment_norm": 12.0599889635, 
			 "total_energy": -1315.63663312, 
			 "HOMO_LUMO_gap": 0.17914, 
			 "cosmo_polarized_energy": -14.98, 
			 "cosmo_cavitation_energy": 41.48, 
			 "cosmo_dispersion_energy": -30.3, 
			 "cosmo_repulsion_energy": 2.25, 
			 "cosmo_total_nonelectrostatic_energy": 13.43, 
			 "SMD_solvation_energy": 7.08 
		},
		"coords": [
			{
				"x": -3.5817141451,
				"y": 1.8217887761,
				"z": -2.5966725371,
				"element": "C" 
			},
			{
				"x": -2.4160935353,
				"y": 1.0648391932,
				"z": -2.1446655753,
				"element": "N" 
			},
			{
				"x": -1.5124177477,
				"y": 1.6132641525,
				"z": -1.2666314192,
				"element": "C" 
			},
			{
				"x": -0.3908540278,
				"y": 0.9589874857,
				"z": -0.8046247791,
				"element": "C" 
			},
			{
				"x": 0.3859548847,
				"y": 1.7591157556,
				"z": 0.1122431156,
				"element": "C" 
			},
			{
				"x": -0.1586561568,
				"y": 2.9938726164,
				"z": 0.3143090037,
				"element": "C" 
			},
			{
				"x": 0.3941685594,
				"y": 4.0709484616,
				"z": 1.2060895362,
				"element": "C" 
			},
			{
				"x": 1.8584174947,
				"y": 3.7481954266,
				"z": 1.562468873,
				"element": "C" 
			},
			{
				"x": 2.0251867962,
				"y": 2.2721499474,
				"z": 1.9523438246,
				"element": "C" 
			},
			{
				"x": 1.665003874,
				"y": 1.3309490884,
				"z": 0.790488075,
				"element": "C" 
			},
			{
				"x": -1.6513980874,
				"y": 3.2191205262,
				"z": -0.60509874,
				"element": "S" 
			},
			{
				"x": -0.119577369,
				"y": -0.3947316212,
				"z": -1.2546403972,
				"element": "C" 
			},
			{
				"x": 0.8378777865,
				"y": -1.0774842859,
				"z": -0.9228127696,
				"element": "O" 
			},
			{
				"x": -1.0978193907,
				"y": -0.909006246,
				"z": -2.1603438993,
				"element": "N" 
			},
			{
				"x": -2.2364882378,
				"y": -0.2389676661,
				"z": -2.6306248623,
				"element": "C" 
			},
			{
				"x": -3.0255643453,
				"y": -0.7464806212,
				"z": -3.4102428484,
				"element": "O" 
			},
			{
				"x": -0.9010789934,
				"y": -2.2567262215,
				"z": -2.6494022872,
				"element": "C" 
			},
			{
				"x": 0.0767366854,
				"y": -2.5042462717,
				"z": -3.6116498666,
				"element": "C" 
			},
			{
				"x": 0.2736044084,
				"y": -3.805201739,
				"z": -4.0740232115,
				"element": "C" 
			},
			{
				"x": -0.5072338882,
				"y": -4.8510031459,
				"z": -3.5784218123,
				"element": "C" 
			},
			{
				"x": -1.4849898151,
				"y": -4.5946176133,
				"z": -2.6153297322,
				"element": "C" 
			},
			{
				"x": -1.681538873,
				"y": -3.2963258229,
				"z": -2.1457227759,
				"element": "C" 
			},
			{
				"x": -4.140757631,
				"y": 1.1844973416,
				"z": -3.2782307222,
				"element": "H" 
			},
			{
				"x": -4.2105660993,
				"y": 2.0943528831,
				"z": -1.7428313044,
				"element": "H" 
			},
			{
				"x": -3.2643903135,
				"y": 2.7320999105,
				"z": -3.1156252677,
				"element": "H" 
			},
			{
				"x": 0.3315615816,
				"y": 5.0523707681,
				"z": 0.7197852875,
				"element": "H" 
			},
			{
				"x": -0.2049523873,
				"y": 4.1455679403,
				"z": 2.1253947046,
				"element": "H" 
			},
			{
				"x": 2.187824671,
				"y": 4.4028473876,
				"z": 2.3767933576,
				"element": "H" 
			},
			{
				"x": 2.4965954221,
				"y": 3.9692615224,
				"z": 0.6972491167,
				"element": "H" 
			},
			{
				"x": 1.3781317776,
				"y": 2.0534035761,
				"z": 2.8123847459,
				"element": "H" 
			},
			{
				"x": 3.0535830834,
				"y": 2.0792889767,
				"z": 2.276552238,
				"element": "H" 
			},
			{
				"x": 1.5726611014,
				"y": 0.2964623134,
				"z": 1.1324557259,
				"element": "H" 
			},
			{
				"x": 2.4747817745,
				"y": 1.3161731821,
				"z": 0.0481080753,
				"element": "H" 
			},
			{
				"x": 0.6787198556,
				"y": -1.6836492556,
				"z": -3.9875273784,
				"element": "H" 
			},
			{
				"x": 1.0368514622,
				"y": -4.0003619522,
				"z": -4.8214039538,
				"element": "H" 
			},
			{
				"x": -0.3538535303,
				"y": -5.8631673835,
				"z": -3.9412386549,
				"element": "H" 
			},
			{
				"x": -2.0950106519,
				"y": -5.4048915825,
				"z": -2.2273160708,
				"element": "H" 
			},
			{
				"x": -2.4383059924,
				"y": -3.0847958031,
				"z": -1.397484814,
				"element": "H" 
			}
		],
		 "valence_orbital": [ 
			{
				"type": "occ",
				"energy": -0.25842,
				"method": "rhf"
			},
			{
				"type": "occ",
				"energy": -0.25675,
				"method": "rhf"
			},
			{
				"type": "occ",
				"energy": -0.24775,
				"method": "rhf"
			},
			{
				"type": "occ",
				"energy": -0.24262,
				"method": "rhf"
			},
			{
				"type": "occ",
				"energy": -0.20983,
				"method": "rhf"
			},
			{
				"type": "unocc",
				"energy": -0.03069,
				"method": "rhf"
			},
			{
				"type": "unocc",
				"energy": -0.00289,
				"method": "rhf"
			},
			{
				"type": "unocc",
				"energy": -0.0021,
				"method": "rhf"
			},
			{
				"type": "unocc",
				"energy": 0.00215,
				"method": "rhf"
			},
			{
				"type": "unocc",
				"energy": 0.00592,
				"method": "rhf"
			}
		],
		"cosmo_sigma_profile": { 
			"-0.025": 0.0,
			"-0.024": 0.0,
			"-0.023": 0.0,
			"-0.022": 0.0,
			"-0.021": 0.0,
			"-0.02": 0.0,
			"-0.019": 0.0,
			"-0.018": 0.0,
			"-0.017": 0.0,
			"-0.016": 0.0,
			"-0.015": 0.0,
			"-0.014": 0.0,
			"-0.013": 0.0,
			"-0.012": 0.0,
			"-0.011": 0.0,
			"-0.01": 0.0,
			"-0.009": 0.0,
			"-0.008": 0.0,
			"-0.007": 4.1753259755,
			"-0.006": 16.0369136798,
			"-0.005": 23.7768299342,
			"-0.004": 31.746587492,
			"-0.003": 37.0453436069,
			"-0.002": 37.8282852507,
			"-0.001": 33.8915076347,
			"0.0": 27.2278350578,
			"0.001": 23.2789588812,
			"0.002": 18.4993202,
			"0.003": 16.1701138023,
			"0.004": 13.0503836587,
			"0.005": 9.90733817809,
			"0.006": 4.91282064267,
			"0.007": 4.5706350885,
			"0.008": 3.40304489334,
			"0.009": 3.3494656038,
			"0.01": 4.70212334142,
			"0.011": 4.41300050539,
			"0.012": 8.03176760678,
			"0.013": 5.2296325589,
			"0.014": 0.265170066417,
			"0.015": 0.0,
			"0.016": 0.0,
			"0.017": 0.0,
			"0.018": 0.0,
			"0.019": 0.0,
			"0.02": 0.0,
			"0.021": 0.0,
			"0.022": 0.0,
			"0.023": 0.0,
			"0.024": 0.0,
			"0.025": 0.0
		}
	}
}
