{
	 "smiles": "OC1=CC(=C(Cl)C=C1)C(F)(F)F", 
	 "Tm": 317.15, 
	 "num_atms": 16, 
	 "gaussian": { 
		 "optdone": 1, 
		 "sigma_profile": "yes", 
		 "theory": "DFT", 
		 "functional": "B3LYP", 
		 "basiset": "6-31G**", 
		 "properties": { 
			 "R2extent": 2260.9706, 
			 "electric_dipole_moment_norm": 4.52004077083, 
			 "electric_quadrupole_moment_norm": 10.3916436544, 
			 "total_energy": -1104.08957984, 
			 "HOMO_LUMO_gap": 0.19983, 
			 "cosmo_polarized_energy": -9.49, 
			 "cosmo_cavitation_energy": 23.49, 
			 "cosmo_dispersion_energy": -17.19, 
			 "cosmo_repulsion_energy": 1.31, 
			 "cosmo_total_nonelectrostatic_energy": 7.61, 
			 "SMD_solvation_energy": 5.3 
		},
		"coords": [
			{
				"x": 0.0464048685,
				"y": 3.2152141501,
				"z": 2.1559402147,
				"element": "O" 
			},
			{
				"x": -0.2771415294,
				"y": 2.2472102405,
				"z": 1.2540332349,
				"element": "C" 
			},
			{
				"x": 0.6355954625,
				"y": 1.2017650975,
				"z": 1.0862673112,
				"element": "C" 
			},
			{
				"x": 0.3801625058,
				"y": 0.1710163977,
				"z": 0.1828106661,
				"element": "C" 
			},
			{
				"x": -0.8098294434,
				"y": 0.1900783062,
				"z": -0.5638029558,
				"element": "C" 
			},
			{
				"x": -1.2029275653,
				"y": -1.06910439,
				"z": -1.7196207473,
				"element": "Cl" 
			},
			{
				"x": -1.7190597981,
				"y": 1.2321696369,
				"z": -0.3960527311,
				"element": "C" 
			},
			{
				"x": -1.4584020437,
				"y": 2.2594688332,
				"z": 0.50834024,
				"element": "C" 
			},
			{
				"x": 1.3998920204,
				"y": -0.9377824924,
				"z": 0.0379999976,
				"element": "C" 
			},
			{
				"x": 2.4587348132,
				"y": -0.7446245468,
				"z": 0.855421436,
				"element": "F" 
			},
			{
				"x": 1.8798995114,
				"y": -1.0142521836,
				"z": -1.2196864283,
				"element": "F" 
			},
			{
				"x": 0.8764800374,
				"y": -2.1415217106,
				"z": 0.3463597229,
				"element": "F" 
			},
			{
				"x": -0.6551625888,
				"y": 3.8787318141,
				"z": 2.1844694285,
				"element": "H" 
			},
			{
				"x": 1.5478953554,
				"y": 1.2014970274,
				"z": 1.6689199694,
				"element": "H" 
			},
			{
				"x": -2.6343562278,
				"y": 1.2370335188,
				"z": -0.9772089651,
				"element": "H" 
			},
			{
				"x": -2.1771853782,
				"y": 3.066500301,
				"z": 0.6289096064,
				"element": "H" 
			}
		],
		 "valence_orbital": [ 
			{
				"type": "occ",
				"energy": -0.3661,
				"method": "rhf"
			},
			{
				"type": "occ",
				"energy": -0.32319,
				"method": "rhf"
			},
			{
				"type": "occ",
				"energy": -0.31656,
				"method": "rhf"
			},
			{
				"type": "occ",
				"energy": -0.28272,
				"method": "rhf"
			},
			{
				"type": "occ",
				"energy": -0.23747,
				"method": "rhf"
			},
			{
				"type": "unocc",
				"energy": -0.03764,
				"method": "rhf"
			},
			{
				"type": "unocc",
				"energy": -0.01716,
				"method": "rhf"
			},
			{
				"type": "unocc",
				"energy": 0.02181,
				"method": "rhf"
			},
			{
				"type": "unocc",
				"energy": 0.05543,
				"method": "rhf"
			},
			{
				"type": "unocc",
				"energy": 0.10169,
				"method": "rhf"
			}
		],
		"cosmo_sigma_profile": { 
			"-0.025": 0.0,
			"-0.024": 0.0,
			"-0.023": 0.0,
			"-0.022": 0.0,
			"-0.021": 0.0,
			"-0.02": 0.0,
			"-0.019": 0.192367089516,
			"-0.018": 1.25239246171,
			"-0.017": 1.15728792612,
			"-0.016": 1.51770554123,
			"-0.015": 1.1779498261,
			"-0.014": 0.280989699517,
			"-0.013": 1.06240491398,
			"-0.012": 0.912279229067,
			"-0.011": 1.6470947423,
			"-0.01": 1.11433724492,
			"-0.009": 1.11356969971,
			"-0.008": 3.27863610508,
			"-0.007": 5.36934712596,
			"-0.006": 5.15371612494,
			"-0.005": 4.07949408283,
			"-0.004": 4.32007856384,
			"-0.003": 7.3793117284,
			"-0.002": 8.81180366368,
			"-0.001": 9.22054254583,
			"0.0": 14.5979204925,
			"0.001": 25.5516145127,
			"0.002": 33.7711458126,
			"0.003": 30.1242371486,
			"0.004": 14.977901355,
			"0.005": 4.30058110003,
			"0.006": 1.97299709532,
			"0.007": 0.969479894654,
			"0.008": 1.36034407747,
			"0.009": 1.66976789346,
			"0.01": 1.68494449128,
			"0.011": 0.76602412759,
			"0.012": 0.0,
			"0.013": 0.0,
			"0.014": 0.0,
			"0.015": 0.0,
			"0.016": 0.0,
			"0.017": 0.0,
			"0.018": 0.0,
			"0.019": 0.0,
			"0.02": 0.0,
			"0.021": 0.0,
			"0.022": 0.0,
			"0.023": 0.0,
			"0.024": 0.0,
			"0.025": 0.0
		}
	}
}
