{
	 "smiles": "OC(=O)C1=C(Cl)C=C(Cl)C=C1Cl", 
	 "Tm": 435.15, 
	 "num_atms": 15, 
	 "gaussian": { 
		 "optdone": 1, 
		 "sigma_profile": "yes", 
		 "theory": "DFT", 
		 "functional": "B3LYP", 
		 "basiset": "6-31G**", 
		 "properties": { 
			 "R2extent": 3891.8136, 
			 "electric_dipole_moment_norm": 1.42248936024, 
			 "electric_quadrupole_moment_norm": 10.6687830773, 
			 "total_energy": -1799.57752343, 
			 "HOMO_LUMO_gap": 0.22053, 
			 "cosmo_polarized_energy": -9.38, 
			 "cosmo_cavitation_energy": 26.1, 
			 "cosmo_dispersion_energy": -19.02, 
			 "cosmo_repulsion_energy": 1.54, 
			 "cosmo_total_nonelectrostatic_energy": 8.63, 
			 "SMD_solvation_energy": 4.76 
		},
		"coords": [
			{
				"x": -0.5296905531,
				"y": -4.0559775062,
				"z": 0.4870826548,
				"element": "O" 
			},
			{
				"x": -1.0548380712,
				"y": -3.2352971251,
				"z": -0.4418984677,
				"element": "C" 
			},
			{
				"x": -1.5683060579,
				"y": -3.6087166126,
				"z": -1.4679892263,
				"element": "O" 
			},
			{
				"x": -0.9204299259,
				"y": -1.7884847638,
				"z": -0.0385341965,
				"element": "C" 
			},
			{
				"x": 0.1939686025,
				"y": -1.0301175629,
				"z": -0.4172242116,
				"element": "C" 
			},
			{
				"x": 1.490836325,
				"y": -1.7872138563,
				"z": -1.3175015141,
				"element": "Cl" 
			},
			{
				"x": 0.3114812084,
				"y": 0.3209891609,
				"z": -0.0976437742,
				"element": "C" 
			},
			{
				"x": -0.718237364,
				"y": 0.9235043236,
				"z": 0.621716043,
				"element": "C" 
			},
			{
				"x": -0.5925904155,
				"y": 2.6197395408,
				"z": 1.0331102443,
				"element": "Cl" 
			},
			{
				"x": -1.8447728231,
				"y": 0.2089033118,
				"z": 1.0230683661,
				"element": "C" 
			},
			{
				"x": -1.9282799796,
				"y": -1.1404350258,
				"z": 0.6858078638,
				"element": "C" 
			},
			{
				"x": -3.3425915507,
				"y": -2.0384458269,
				"z": 1.1946215989,
				"element": "Cl" 
			},
			{
				"x": -0.6531023779,
				"y": -4.9639989752,
				"z": 0.1586508279,
				"element": "H" 
			},
			{
				"x": 1.1835299089,
				"y": 0.8852099936,
				"z": -0.402583514,
				"element": "H" 
			},
			{
				"x": -2.6380769259,
				"y": 0.6865409239,
				"z": 1.5837173058,
				"element": "H" 
			}
		],
		 "valence_orbital": [ 
			{
				"type": "occ",
				"energy": -0.32785,
				"method": "rhf"
			},
			{
				"type": "occ",
				"energy": -0.32424,
				"method": "rhf"
			},
			{
				"type": "occ",
				"energy": -0.3014,
				"method": "rhf"
			},
			{
				"type": "occ",
				"energy": -0.27176,
				"method": "rhf"
			},
			{
				"type": "occ",
				"energy": -0.26833,
				"method": "rhf"
			},
			{
				"type": "unocc",
				"energy": -0.0478,
				"method": "rhf"
			},
			{
				"type": "unocc",
				"energy": -0.04563,
				"method": "rhf"
			},
			{
				"type": "unocc",
				"energy": -0.02357,
				"method": "rhf"
			},
			{
				"type": "unocc",
				"energy": -0.01366,
				"method": "rhf"
			},
			{
				"type": "unocc",
				"energy": 0.03394,
				"method": "rhf"
			}
		],
		"cosmo_sigma_profile": { 
			"-0.025": 0.0,
			"-0.024": 0.0,
			"-0.023": 0.0,
			"-0.022": 0.0,
			"-0.021": 0.0,
			"-0.02": 0.188501189031,
			"-0.019": 1.08353400659,
			"-0.018": 0.657041348203,
			"-0.017": 1.10576419257,
			"-0.016": 0.487318365047,
			"-0.015": 0.400274525097,
			"-0.014": 0.582525880808,
			"-0.013": 1.21940557975,
			"-0.012": 0.944040854517,
			"-0.011": 0.861617449251,
			"-0.01": 0.857879215526,
			"-0.009": 3.34829163138,
			"-0.008": 4.10888200867,
			"-0.007": 3.91373901097,
			"-0.006": 4.17761786897,
			"-0.005": 3.92473187057,
			"-0.004": 6.13066533021,
			"-0.003": 9.98232612263,
			"-0.002": 14.4446275787,
			"-0.001": 32.1890716491,
			"0.0": 24.1101817743,
			"0.001": 19.0207433286,
			"0.002": 22.1059116002,
			"0.003": 29.3089071667,
			"0.004": 9.67625819579,
			"0.005": 3.15773191707,
			"0.006": 2.59777272013,
			"0.007": 2.30721134115,
			"0.008": 3.25567931143,
			"0.009": 2.84606378154,
			"0.01": 4.54951544693,
			"0.011": 3.05827738044,
			"0.012": 0.1950377671,
			"0.013": 0.0,
			"0.014": 0.0,
			"0.015": 0.0,
			"0.016": 0.0,
			"0.017": 0.0,
			"0.018": 0.0,
			"0.019": 0.0,
			"0.02": 0.0,
			"0.021": 0.0,
			"0.022": 0.0,
			"0.023": 0.0,
			"0.024": 0.0,
			"0.025": 0.0
		}
	}
}
