{
	 "smiles": "FC1=CC=C(NC(=O)NC2CCNC2)C=C1", 
	 "Tm": 424.15, 
	 "num_atms": 30, 
	 "gaussian": { 
		 "optdone": 1, 
		 "sigma_profile": "yes", 
		 "theory": "DFT", 
		 "functional": "B3LYP", 
		 "basiset": "6-31G**", 
		 "properties": { 
			 "R2extent": 4506.2907, 
			 "electric_dipole_moment_norm": 2.33223446934, 
			 "electric_quadrupole_moment_norm": 17.4379201581, 
			 "total_energy": -766.927982296, 
			 "HOMO_LUMO_gap": 0.20163, 
			 "cosmo_polarized_energy": -14.53, 
			 "cosmo_cavitation_energy": 33.34, 
			 "cosmo_dispersion_energy": -23.33, 
			 "cosmo_repulsion_energy": 1.82, 
			 "cosmo_total_nonelectrostatic_energy": 11.83, 
			 "SMD_solvation_energy": 3.83 
		},
		"coords": [
			{
				"x": 4.3934984986,
				"y": 0.7271116463,
				"z": -1.3185455248,
				"element": "F" 
			},
			{
				"x": 3.3939194838,
				"y": -0.007622516,
				"z": -0.7842318198,
				"element": "C" 
			},
			{
				"x": 2.9420993079,
				"y": -1.1340772334,
				"z": -1.4615005854,
				"element": "C" 
			},
			{
				"x": 1.9020211609,
				"y": -1.8791025415,
				"z": -0.9105357571,
				"element": "C" 
			},
			{
				"x": 1.3284179801,
				"y": -1.5168409252,
				"z": 0.3183598256,
				"element": "C" 
			},
			{
				"x": 0.308075077,
				"y": -2.3494949624,
				"z": 0.8431573791,
				"element": "N" 
			},
			{
				"x": -0.5723321277,
				"y": -2.1277554379,
				"z": 1.9039164107,
				"element": "C" 
			},
			{
				"x": -0.8983700136,
				"y": -3.0500541661,
				"z": 2.6412486657,
				"element": "O" 
			},
			{
				"x": -1.0540667415,
				"y": -0.8387436305,
				"z": 2.0775336792,
				"element": "N" 
			},
			{
				"x": -1.4700681116,
				"y": 0.0462993716,
				"z": 0.9889956105,
				"element": "C" 
			},
			{
				"x": -1.513387613,
				"y": 1.5410708716,
				"z": 1.4131341227,
				"element": "C" 
			},
			{
				"x": -2.8098348323,
				"y": 2.099331712,
				"z": 0.7750842132,
				"element": "C" 
			},
			{
				"x": -3.1948456822,
				"y": 1.0616221559,
				"z": -0.1918037257,
				"element": "N" 
			},
			{
				"x": -2.8953016217,
				"y": -0.2104965948,
				"z": 0.4544255832,
				"element": "C" 
			},
			{
				"x": 1.8151710289,
				"y": -0.3839799949,
				"z": 0.9887768976,
				"element": "C" 
			},
			{
				"x": 2.8406913203,
				"y": 0.3785382993,
				"z": 0.4303200763,
				"element": "C" 
			},
			{
				"x": 3.3933485152,
				"y": -1.4098288119,
				"z": -2.4083847814,
				"element": "H" 
			},
			{
				"x": 1.5249070691,
				"y": -2.75085937,
				"z": -1.4377077941,
				"element": "H" 
			},
			{
				"x": 0.4800520865,
				"y": -3.3426368117,
				"z": 0.7541923893,
				"element": "H" 
			},
			{
				"x": -1.6864890031,
				"y": -0.8388181409,
				"z": 2.8707314941,
				"element": "H" 
			},
			{
				"x": -0.7676254991,
				"y": -0.0736314954,
				"z": 0.1657009009,
				"element": "H" 
			},
			{
				"x": -1.5393795207,
				"y": 1.6288680059,
				"z": 2.5036791397,
				"element": "H" 
			},
			{
				"x": -0.6210055996,
				"y": 2.0688019515,
				"z": 1.0677173784,
				"element": "H" 
			},
			{
				"x": -3.5702966813,
				"y": 2.2586778953,
				"z": 1.5600369177,
				"element": "H" 
			},
			{
				"x": -2.6564041073,
				"y": 3.0576103242,
				"z": 0.2684900131,
				"element": "H" 
			},
			{
				"x": -4.165642771,
				"y": 1.1393774455,
				"z": -0.4791492724,
				"element": "H" 
			},
			{
				"x": -3.5634617692,
				"y": -0.4557281958,
				"z": 1.3045447107,
				"element": "H" 
			},
			{
				"x": -2.9364726027,
				"y": -1.0423128352,
				"z": -0.2560975321,
				"element": "H" 
			},
			{
				"x": 1.3901545913,
				"y": -0.1016870477,
				"z": 1.9446187843,
				"element": "H" 
			},
			{
				"x": 3.224428178,
				"y": 1.2570610323,
				"z": 0.9378926009,
				"element": "H" 
			}
		],
		 "valence_orbital": [ 
			{
				"type": "occ",
				"energy": -0.26942,
				"method": "rhf"
			},
			{
				"type": "occ",
				"energy": -0.26564,
				"method": "rhf"
			},
			{
				"type": "occ",
				"energy": -0.24466,
				"method": "rhf"
			},
			{
				"type": "occ",
				"energy": -0.22736,
				"method": "rhf"
			},
			{
				"type": "occ",
				"energy": -0.21892,
				"method": "rhf"
			},
			{
				"type": "unocc",
				"energy": -0.01729,
				"method": "rhf"
			},
			{
				"type": "unocc",
				"energy": -0.00605,
				"method": "rhf"
			},
			{
				"type": "unocc",
				"energy": 0.0496,
				"method": "rhf"
			},
			{
				"type": "unocc",
				"energy": 0.07071,
				"method": "rhf"
			},
			{
				"type": "unocc",
				"energy": 0.08438,
				"method": "rhf"
			}
		],
		"cosmo_sigma_profile": { 
			"-0.025": 0.0,
			"-0.024": 0.0,
			"-0.023": 0.0,
			"-0.022": 0.0,
			"-0.021": 0.0,
			"-0.02": 0.0,
			"-0.019": 0.0,
			"-0.018": 0.0,
			"-0.017": 0.0,
			"-0.016": 0.0,
			"-0.015": 0.0,
			"-0.014": 0.590991397551,
			"-0.013": 1.09546740054,
			"-0.012": 1.38696046256,
			"-0.011": 2.55592808804,
			"-0.01": 3.05410346052,
			"-0.009": 3.94590067003,
			"-0.008": 3.8497370323,
			"-0.007": 7.67641426492,
			"-0.006": 9.32057619654,
			"-0.005": 10.8678264557,
			"-0.004": 14.1483222578,
			"-0.003": 20.2401408966,
			"-0.002": 29.2139476555,
			"-0.001": 26.5088008582,
			"0.0": 23.6544977353,
			"0.001": 18.3354542594,
			"0.002": 16.1857273598,
			"0.003": 16.311197312,
			"0.004": 18.4083348096,
			"0.005": 8.65773369671,
			"0.006": 1.09678544414,
			"0.007": 2.04798658254,
			"0.008": 2.50979274081,
			"0.009": 1.74628034995,
			"0.01": 1.94145754496,
			"0.011": 1.635671471,
			"0.012": 1.92056934101,
			"0.013": 4.35520474239,
			"0.014": 6.39232454369,
			"0.015": 1.74593874055,
			"0.016": 0.431303788394,
			"0.017": 0.382553988168,
			"0.018": 0.396929493291,
			"0.019": 0.042169314409,
			"0.02": 0.0,
			"0.021": 0.0,
			"0.022": 0.0,
			"0.023": 0.0,
			"0.024": 0.0,
			"0.025": 0.0
		}
	}
}
