{
	 "smiles": "CC1=C(C(O)=O)C2=C(C=CC(Br)=C2)N=C1C1CC1", 
	 "Tm": 492.15, 
	 "num_atms": 30, 
	 "gaussian": { 
		 "optdone": 1, 
		 "sigma_profile": "yes", 
		 "theory": "DFT", 
		 "functional": "B3LYP", 
		 "basiset": "6-31G**", 
		 "properties": { 
			 "R2extent": 9591.7181, 
			 "electric_dipole_moment_norm": 2.14783915133, 
			 "electric_quadrupole_moment_norm": 8.08368594331, 
			 "total_energy": -3317.32428341, 
			 "HOMO_LUMO_gap": 0.15941, 
			 "cosmo_polarized_energy": -11.36, 
			 "cosmo_cavitation_energy": 35.8, 
			 "cosmo_dispersion_energy": -26.13, 
			 "cosmo_repulsion_energy": 2.03, 
			 "cosmo_total_nonelectrostatic_energy": 11.7, 
			 "SMD_solvation_energy": 4.55 
		},
		"coords": [
			{
				"x": 0.6366245827,
				"y": 0.6987592652,
				"z": 1.6038607694,
				"element": "C" 
			},
			{
				"x": 0.3697904652,
				"y": 0.0557108589,
				"z": 0.2625520605,
				"element": "C" 
			},
			{
				"x": 0.1510211973,
				"y": -1.3058423838,
				"z": 0.1048652423,
				"element": "C" 
			},
			{
				"x": 0.1112707496,
				"y": -2.1973547197,
				"z": 1.3130665377,
				"element": "C" 
			},
			{
				"x": 0.9342388372,
				"y": -3.2677448835,
				"z": 1.2005452842,
				"element": "O" 
			},
			{
				"x": -0.5633615749,
				"y": -2.0055396693,
				"z": 2.3022281371,
				"element": "O" 
			},
			{
				"x": -0.0820138206,
				"y": -1.8562105683,
				"z": -1.1986229402,
				"element": "C" 
			},
			{
				"x": -0.0751660068,
				"y": -0.9391943657,
				"z": -2.2929712392,
				"element": "C" 
			},
			{
				"x": -0.3215742005,
				"y": -1.4170311205,
				"z": -3.6074216513,
				"element": "C" 
			},
			{
				"x": -0.5752139708,
				"y": -2.7476726152,
				"z": -3.8407344553,
				"element": "C" 
			},
			{
				"x": -0.5875915148,
				"y": -3.6439633092,
				"z": -2.7484427388,
				"element": "C" 
			},
			{
				"x": -0.9463691396,
				"y": -5.4908647375,
				"z": -3.0884885993,
				"element": "Br" 
			},
			{
				"x": -0.3498425759,
				"y": -3.2273457249,
				"z": -1.4593571357,
				"element": "C" 
			},
			{
				"x": 0.1556816663,
				"y": 0.388658427,
				"z": -2.1313270064,
				"element": "N" 
			},
			{
				"x": 0.3699639102,
				"y": 0.8750501551,
				"z": -0.9237631859,
				"element": "C" 
			},
			{
				"x": 0.6146049155,
				"y": 2.343813107,
				"z": -0.8420470914,
				"element": "C" 
			},
			{
				"x": -0.0813552763,
				"y": 3.2668345757,
				"z": -1.8313237517,
				"element": "C" 
			},
			{
				"x": 1.3875398659,
				"y": 3.0290678473,
				"z": -1.9609334015,
				"element": "C" 
			},
			{
				"x": -0.1354815772,
				"y": 1.439917466,
				"z": 1.8385491328,
				"element": "H" 
			},
			{
				"x": 0.6434377699,
				"y": -0.0240343999,
				"z": 2.4162178986,
				"element": "H" 
			},
			{
				"x": 1.5977725576,
				"y": 1.2242611372,
				"z": 1.5961070683,
				"element": "H" 
			},
			{
				"x": 0.8227366704,
				"y": -3.7774919313,
				"z": 2.0220124495,
				"element": "H" 
			},
			{
				"x": -0.3067557896,
				"y": -0.693205757,
				"z": -4.4153956349,
				"element": "H" 
			},
			{
				"x": -0.7657435053,
				"y": -3.1149054868,
				"z": -4.8425080763,
				"element": "H" 
			},
			{
				"x": -0.3542427795,
				"y": -3.946276245,
				"z": -0.6521390508,
				"element": "H" 
			},
			{
				"x": 0.7662441624,
				"y": 2.7466732931,
				"z": 0.1508758592,
				"element": "H" 
			},
			{
				"x": -0.4294871993,
				"y": 4.2247914413,
				"z": -1.457075385,
				"element": "H" 
			},
			{
				"x": -0.7288994142,
				"y": 2.7806232936,
				"z": -2.5531785742,
				"element": "H" 
			},
			{
				"x": 2.0773744831,
				"y": 3.8188260996,
				"z": -1.6790608046,
				"element": "H" 
			},
			{
				"x": 1.7171965119,
				"y": 2.3843909506,
				"z": -2.7688897172,
				"element": "H" 
			}
		],
		 "valence_orbital": [ 
			{
				"type": "occ",
				"energy": -0.28846,
				"method": "rhf"
			},
			{
				"type": "occ",
				"energy": -0.28337,
				"method": "rhf"
			},
			{
				"type": "occ",
				"energy": -0.26188,
				"method": "rhf"
			},
			{
				"type": "occ",
				"energy": -0.24619,
				"method": "rhf"
			},
			{
				"type": "occ",
				"energy": -0.22928,
				"method": "rhf"
			},
			{
				"type": "unocc",
				"energy": -0.06987,
				"method": "rhf"
			},
			{
				"type": "unocc",
				"energy": -0.02655,
				"method": "rhf"
			},
			{
				"type": "unocc",
				"energy": -0.01676,
				"method": "rhf"
			},
			{
				"type": "unocc",
				"energy": 0.00584,
				"method": "rhf"
			},
			{
				"type": "unocc",
				"energy": 0.02558,
				"method": "rhf"
			}
		],
		"cosmo_sigma_profile": { 
			"-0.025": 0.0,
			"-0.024": 0.0,
			"-0.023": 0.0,
			"-0.022": 0.0,
			"-0.021": 0.0,
			"-0.02": 0.0,
			"-0.019": 0.328679557389,
			"-0.018": 1.12951099647,
			"-0.017": 0.584118701252,
			"-0.016": 1.29833565766,
			"-0.015": 0.726164435933,
			"-0.014": 0.110831653299,
			"-0.013": 0.351593713728,
			"-0.012": 1.32397989716,
			"-0.011": 0.941519645845,
			"-0.01": 0.56260077098,
			"-0.009": 0.506870692285,
			"-0.008": 1.17642699218,
			"-0.007": 4.42077507085,
			"-0.006": 7.66775610369,
			"-0.005": 18.3019253708,
			"-0.004": 22.0511459841,
			"-0.003": 19.9967441172,
			"-0.002": 20.7542794429,
			"-0.001": 23.7202294244,
			"0.0": 25.4407819409,
			"0.001": 27.5868441939,
			"0.002": 31.2996993903,
			"0.003": 24.8377554025,
			"0.004": 19.4678076296,
			"0.005": 10.6650090012,
			"0.006": 4.09918796107,
			"0.007": 4.14589742079,
			"0.008": 4.03971891981,
			"0.009": 2.99048605739,
			"0.01": 3.38786633297,
			"0.011": 4.75039795377,
			"0.012": 0.613170977876,
			"0.013": 0.0,
			"0.014": 0.0,
			"0.015": 0.0,
			"0.016": 0.0,
			"0.017": 0.0,
			"0.018": 0.0,
			"0.019": 0.0,
			"0.02": 0.0,
			"0.021": 0.0,
			"0.022": 0.0,
			"0.023": 0.0,
			"0.024": 0.0,
			"0.025": 0.0
		}
	}
}
