{
	 "smiles": "NC(=NO)C1=C(Cl)C=CC=C1Cl", 
	 "Tm": 437.15, 
	 "num_atms": 18, 
	 "gaussian": { 
		 "optdone": 1, 
		 "sigma_profile": "yes", 
		 "theory": "DFT", 
		 "functional": "B3LYP", 
		 "basiset": "6-31G**", 
		 "properties": { 
			 "R2extent": 2897.25, 
			 "electric_dipole_moment_norm": 2.2182442201, 
			 "electric_quadrupole_moment_norm": 10.3208574314, 
			 "total_energy": -1375.41262865, 
			 "HOMO_LUMO_gap": 0.18047, 
			 "cosmo_polarized_energy": -13.36, 
			 "cosmo_cavitation_energy": 26.36, 
			 "cosmo_dispersion_energy": -19.09, 
			 "cosmo_repulsion_energy": 1.56, 
			 "cosmo_total_nonelectrostatic_energy": 8.83, 
			 "SMD_solvation_energy": 3.72 
		},
		"coords": [
			{
				"x": -0.6038007043,
				"y": 2.0818841563,
				"z": 1.8565118213,
				"element": "N" 
			},
			{
				"x": 0.3437016229,
				"y": 1.0851877197,
				"z": 1.7780027269,
				"element": "C" 
			},
			{
				"x": 1.3943590979,
				"y": 0.9910207338,
				"z": 2.516335504,
				"element": "N" 
			},
			{
				"x": 1.4580036455,
				"y": 2.1221171167,
				"z": 3.3806526755,
				"element": "O" 
			},
			{
				"x": 0.1120550688,
				"y": -0.0192429225,
				"z": 0.7986889243,
				"element": "C" 
			},
			{
				"x": -0.4567404277,
				"y": -1.2461094306,
				"z": 1.1823641308,
				"element": "C" 
			},
			{
				"x": -0.9400681305,
				"y": -1.5096252078,
				"z": 2.8445341641,
				"element": "Cl" 
			},
			{
				"x": -0.6653545721,
				"y": -2.2791779018,
				"z": 0.2684300299,
				"element": "C" 
			},
			{
				"x": -0.3090647778,
				"y": -2.0950398988,
				"z": -1.0654412021,
				"element": "C" 
			},
			{
				"x": 0.2475215695,
				"y": -0.8901342725,
				"z": -1.4892312707,
				"element": "C" 
			},
			{
				"x": 0.4475149735,
				"y": 0.1266656025,
				"z": -0.5576332558,
				"element": "C" 
			},
			{
				"x": 1.148715141,
				"y": 1.6370417894,
				"z": -1.1214368646,
				"element": "Cl" 
			},
			{
				"x": -0.2956503647,
				"y": 2.9031312703,
				"z": 2.3603076441,
				"element": "H" 
			},
			{
				"x": -1.1359024965,
				"y": 2.2659158314,
				"z": 1.0192063581,
				"element": "H" 
			},
			{
				"x": 2.2911986004,
				"y": 1.9706203866,
				"z": 3.8425775689,
				"element": "H" 
			},
			{
				"x": -1.1032290903,
				"y": -3.2113653297,
				"z": 0.6058266659,
				"element": "H" 
			},
			{
				"x": -0.4678630083,
				"y": -2.895914719,
				"z": -1.7809006957,
				"element": "H" 
			},
			{
				"x": 0.5284038525,
				"y": -0.7351749239,
				"z": -2.524394925,
				"element": "H" 
			}
		],
		 "valence_orbital": [ 
			{
				"type": "occ",
				"energy": -0.30861,
				"method": "rhf"
			},
			{
				"type": "occ",
				"energy": -0.27384,
				"method": "rhf"
			},
			{
				"type": "occ",
				"energy": -0.26787,
				"method": "rhf"
			},
			{
				"type": "occ",
				"energy": -0.25394,
				"method": "rhf"
			},
			{
				"type": "occ",
				"energy": -0.2146,
				"method": "rhf"
			},
			{
				"type": "unocc",
				"energy": -0.03413,
				"method": "rhf"
			},
			{
				"type": "unocc",
				"energy": -0.02747,
				"method": "rhf"
			},
			{
				"type": "unocc",
				"energy": 0.00513,
				"method": "rhf"
			},
			{
				"type": "unocc",
				"energy": 0.03238,
				"method": "rhf"
			},
			{
				"type": "unocc",
				"energy": 0.05061,
				"method": "rhf"
			}
		],
		"cosmo_sigma_profile": { 
			"-0.025": 0.0,
			"-0.024": 0.0,
			"-0.023": 0.0,
			"-0.022": 0.0,
			"-0.021": 0.0,
			"-0.02": 0.0,
			"-0.019": 0.0,
			"-0.018": 0.0,
			"-0.017": 0.444359960428,
			"-0.016": 0.90361267385,
			"-0.015": 0.967915573479,
			"-0.014": 1.16211229953,
			"-0.013": 1.86136413711,
			"-0.012": 2.28659518271,
			"-0.011": 2.3168161334,
			"-0.01": 3.11743482292,
			"-0.009": 3.44132453055,
			"-0.008": 5.95641873952,
			"-0.007": 9.0815659798,
			"-0.006": 8.60190820121,
			"-0.005": 7.00151689904,
			"-0.004": 6.89109490351,
			"-0.003": 8.55853196025,
			"-0.002": 9.74231981499,
			"-0.001": 13.6270962076,
			"0.0": 16.2851893293,
			"0.001": 21.0592908314,
			"0.002": 19.8917646402,
			"0.003": 17.3996373271,
			"0.004": 15.3148376169,
			"0.005": 7.57500107411,
			"0.006": 6.97887367372,
			"0.007": 6.48302080418,
			"0.008": 5.97771498773,
			"0.009": 4.00408500981,
			"0.01": 2.85407899102,
			"0.011": 1.41026518092,
			"0.012": 1.54876539918,
			"0.013": 0.957015991366,
			"0.014": 0.654873158647,
			"0.015": 0.490523180397,
			"0.016": 0.0,
			"0.017": 0.0,
			"0.018": 0.0,
			"0.019": 0.0,
			"0.02": 0.0,
			"0.021": 0.0,
			"0.022": 0.0,
			"0.023": 0.0,
			"0.024": 0.0,
			"0.025": 0.0
		}
	}
}
