{
	 "smiles": "CC1=CC=C(C=C1)S(=O)(=O)CC(=O)CBr", 
	 "Tm": 407.15, 
	 "num_atms": 26, 
	 "gaussian": { 
		 "optdone": 1, 
		 "sigma_profile": "yes", 
		 "theory": "DFT", 
		 "functional": "B3LYP", 
		 "basiset": "6-31G**", 
		 "properties": { 
			 "R2extent": 8617.3561, 
			 "electric_dipole_moment_norm": 7.29822791231, 
			 "electric_quadrupole_moment_norm": 10.9613047093, 
			 "total_energy": -3582.8860194, 
			 "HOMO_LUMO_gap": 0.21157, 
			 "cosmo_polarized_energy": -17.94, 
			 "cosmo_cavitation_energy": 34.17, 
			 "cosmo_dispersion_energy": -24.92, 
			 "cosmo_repulsion_energy": 1.93, 
			 "cosmo_total_nonelectrostatic_energy": 11.18, 
			 "SMD_solvation_energy": 4.64 
		},
		"coords": [
			{
				"x": -4.2506770662,
				"y": -1.3798644988,
				"z": -1.9656574674,
				"element": "C" 
			},
			{
				"x": -2.8588547331,
				"y": -0.9471646864,
				"z": -1.5740857891,
				"element": "C" 
			},
			{
				"x": -2.4845330619,
				"y": 0.4034608596,
				"z": -1.6346266424,
				"element": "C" 
			},
			{
				"x": -1.1933649008,
				"y": 0.8091561861,
				"z": -1.3036246187,
				"element": "C" 
			},
			{
				"x": -0.2657311436,
				"y": -0.153622523,
				"z": -0.9015302346,
				"element": "C" 
			},
			{
				"x": -0.6055818523,
				"y": -1.506939663,
				"z": -0.8384166464,
				"element": "C" 
			},
			{
				"x": -1.9017170421,
				"y": -1.8917478877,
				"z": -1.1725839569,
				"element": "C" 
			},
			{
				"x": 1.395365012,
				"y": 0.3557008945,
				"z": -0.4642605898,
				"element": "S" 
			},
			{
				"x": 1.6596765947,
				"y": 1.665554591,
				"z": -1.085511162,
				"element": "O" 
			},
			{
				"x": 2.3080010133,
				"y": -0.7794497676,
				"z": -0.6779243792,
				"element": "O" 
			},
			{
				"x": 1.2920760453,
				"y": 0.6237274849,
				"z": 1.34219772,
				"element": "C" 
			},
			{
				"x": 2.6466224367,
				"y": 0.8084644288,
				"z": 2.0534111187,
				"element": "C" 
			},
			{
				"x": 2.8122253943,
				"y": 0.294781461,
				"z": 3.1333980062,
				"element": "O" 
			},
			{
				"x": 3.6760045027,
				"y": 1.6658527297,
				"z": 1.33690732,
				"element": "C" 
			},
			{
				"x": 5.1660101834,
				"y": 2.1928248236,
				"z": 2.4800637606,
				"element": "Br" 
			},
			{
				"x": -4.9836303521,
				"y": -0.5902767549,
				"z": -1.7778432252,
				"element": "H" 
			},
			{
				"x": -4.5614058523,
				"y": -2.2737987642,
				"z": -1.4175499201,
				"element": "H" 
			},
			{
				"x": -4.2962311621,
				"y": -1.6204319935,
				"z": -3.0349767745,
				"element": "H" 
			},
			{
				"x": -3.2121437221,
				"y": 1.1462024903,
				"z": -1.950348124,
				"element": "H" 
			},
			{
				"x": -0.8980493016,
				"y": 1.8508737042,
				"z": -1.3705145134,
				"element": "H" 
			},
			{
				"x": 0.1395367648,
				"y": -2.24086899,
				"z": -0.5495898057,
				"element": "H" 
			},
			{
				"x": -2.1740320029,
				"y": -2.9427163834,
				"z": -1.1273661899,
				"element": "H" 
			},
			{
				"x": 0.7952582792,
				"y": -0.2386775152,
				"z": 1.7896640826,
				"element": "H" 
			},
			{
				"x": 0.6768525902,
				"y": 1.5180991129,
				"z": 1.4880116281,
				"element": "H" 
			},
			{
				"x": 3.2231331218,
				"y": 2.5669632429,
				"z": 0.9224507803,
				"element": "H" 
			},
			{
				"x": 4.0922902548,
				"y": 1.0913974181,
				"z": 0.505205623,
				"element": "H" 
			}
		],
		 "valence_orbital": [ 
			{
				"type": "occ",
				"energy": -0.28245,
				"method": "rhf"
			},
			{
				"type": "occ",
				"energy": -0.28192,
				"method": "rhf"
			},
			{
				"type": "occ",
				"energy": -0.27672,
				"method": "rhf"
			},
			{
				"type": "occ",
				"energy": -0.27439,
				"method": "rhf"
			},
			{
				"type": "occ",
				"energy": -0.26943,
				"method": "rhf"
			},
			{
				"type": "unocc",
				"energy": -0.05786,
				"method": "rhf"
			},
			{
				"type": "unocc",
				"energy": -0.04113,
				"method": "rhf"
			},
			{
				"type": "unocc",
				"energy": -0.03268,
				"method": "rhf"
			},
			{
				"type": "unocc",
				"energy": 0.00282,
				"method": "rhf"
			},
			{
				"type": "unocc",
				"energy": 0.05262,
				"method": "rhf"
			}
		],
		"cosmo_sigma_profile": { 
			"-0.025": 0.0,
			"-0.024": 0.0,
			"-0.023": 0.0,
			"-0.022": 0.0,
			"-0.021": 0.0,
			"-0.02": 0.0,
			"-0.019": 0.0,
			"-0.018": 0.0,
			"-0.017": 0.0,
			"-0.016": 0.0,
			"-0.015": 0.0,
			"-0.014": 0.0,
			"-0.013": 0.0145034416835,
			"-0.012": 0.792145780087,
			"-0.011": 2.3044073145,
			"-0.01": 3.31678994368,
			"-0.009": 6.39432616705,
			"-0.008": 6.95210143597,
			"-0.007": 10.4784375981,
			"-0.006": 15.384981093,
			"-0.005": 19.6394476872,
			"-0.004": 17.5415276515,
			"-0.003": 17.3586425297,
			"-0.002": 18.9312806178,
			"-0.001": 20.0978299451,
			"0.0": 15.9292406928,
			"0.001": 15.0094865829,
			"0.002": 17.530255553,
			"0.003": 18.3243156067,
			"0.004": 9.49972428724,
			"0.005": 12.8687436846,
			"0.006": 7.48239124043,
			"0.007": 4.57144779607,
			"0.008": 5.303517685,
			"0.009": 8.00255955056,
			"0.01": 11.3095100882,
			"0.011": 7.69230555921,
			"0.012": 2.42555567191,
			"0.013": 0.0,
			"0.014": 0.0,
			"0.015": 0.0,
			"0.016": 0.0,
			"0.017": 0.0,
			"0.018": 0.0,
			"0.019": 0.0,
			"0.02": 0.0,
			"0.021": 0.0,
			"0.022": 0.0,
			"0.023": 0.0,
			"0.024": 0.0,
			"0.025": 0.0
		}
	}
}
