{
	 "smiles": "ClC1=CC=C(C=C1)C1=NNC=C1", 
	 "Tm": 355.15, 
	 "num_atms": 19, 
	 "gaussian": { 
		 "optdone": 1, 
		 "sigma_profile": "yes", 
		 "theory": "DFT", 
		 "functional": "B3LYP", 
		 "basiset": "6-31G**", 
		 "properties": { 
			 "R2extent": 3442.137, 
			 "electric_dipole_moment_norm": 4.51169976616, 
			 "electric_quadrupole_moment_norm": 10.8857158217, 
			 "total_energy": -916.856318603, 
			 "HOMO_LUMO_gap": 0.19164, 
			 "cosmo_polarized_energy": -10.91, 
			 "cosmo_cavitation_energy": 25.27, 
			 "cosmo_dispersion_energy": -19.16, 
			 "cosmo_repulsion_energy": 1.51, 
			 "cosmo_total_nonelectrostatic_energy": 7.62, 
			 "SMD_solvation_energy": 3.5 
		},
		"coords": [
			{
				"x": 3.8558396559,
				"y": 2.6109931163,
				"z": -1.3108847365,
				"element": "Cl" 
			},
			{
				"x": 2.3103172415,
				"y": 1.8857253561,
				"z": -0.8859864541,
				"element": "C" 
			},
			{
				"x": 2.1895168703,
				"y": 0.4978725347,
				"z": -0.8482330639,
				"element": "C" 
			},
			{
				"x": 0.961932195,
				"y": -0.0685313979,
				"z": -0.5107411157,
				"element": "C" 
			},
			{
				"x": -0.1504219357,
				"y": 0.7318103142,
				"z": -0.2094108001,
				"element": "C" 
			},
			{
				"x": 0.00191587,
				"y": 2.1280158789,
				"z": -0.2558308736,
				"element": "C" 
			},
			{
				"x": 1.2214786809,
				"y": 2.7073325137,
				"z": -0.5911591757,
				"element": "C" 
			},
			{
				"x": -1.4476826531,
				"y": 0.1348164707,
				"z": 0.147286093,
				"element": "C" 
			},
			{
				"x": -2.4982877505,
				"y": 0.9163275474,
				"z": 0.4317310282,
				"element": "N" 
			},
			{
				"x": -3.4973791097,
				"y": 0.0591292942,
				"z": 0.7081784232,
				"element": "N" 
			},
			{
				"x": -3.1275201995,
				"y": -1.2450885273,
				"z": 0.6113347188,
				"element": "C" 
			},
			{
				"x": -1.7982514854,
				"y": -1.2405083782,
				"z": 0.2480143639,
				"element": "C" 
			},
			{
				"x": 3.0434386894,
				"y": -0.129282301,
				"z": -1.07950503,
				"element": "H" 
			},
			{
				"x": 0.8765821419,
				"y": -1.1503966143,
				"z": -0.483705997,
				"element": "H" 
			},
			{
				"x": -0.8517412755,
				"y": 2.7555743192,
				"z": -0.024627414,
				"element": "H" 
			},
			{
				"x": 1.3307129933,
				"y": 3.7858663066,
				"z": -0.6246798516,
				"element": "H" 
			},
			{
				"x": -4.4022530159,
				"y": 0.428464853,
				"z": 0.9544797408,
				"element": "H" 
			},
			{
				"x": -3.819107765,
				"y": -2.0522416415,
				"z": 0.8031997681,
				"element": "H" 
			},
			{
				"x": -1.1750891481,
				"y": -2.1053796447,
				"z": 0.0807403763,
				"element": "H" 
			}
		],
		 "valence_orbital": [ 
			{
				"type": "occ",
				"energy": -0.29397,
				"method": "rhf"
			},
			{
				"type": "occ",
				"energy": -0.28124,
				"method": "rhf"
			},
			{
				"type": "occ",
				"energy": -0.25909,
				"method": "rhf"
			},
			{
				"type": "occ",
				"energy": -0.25316,
				"method": "rhf"
			},
			{
				"type": "occ",
				"energy": -0.21848,
				"method": "rhf"
			},
			{
				"type": "unocc",
				"energy": -0.02684,
				"method": "rhf"
			},
			{
				"type": "unocc",
				"energy": -0.0076,
				"method": "rhf"
			},
			{
				"type": "unocc",
				"energy": 0.02389,
				"method": "rhf"
			},
			{
				"type": "unocc",
				"energy": 0.03603,
				"method": "rhf"
			},
			{
				"type": "unocc",
				"energy": 0.0733,
				"method": "rhf"
			}
		],
		"cosmo_sigma_profile": { 
			"-0.025": 0.0,
			"-0.024": 0.0,
			"-0.023": 0.0,
			"-0.022": 0.0,
			"-0.021": 0.0,
			"-0.02": 0.0,
			"-0.019": 0.0,
			"-0.018": 0.0,
			"-0.017": 0.537421639171,
			"-0.016": 1.5913155461,
			"-0.015": 1.48339739888,
			"-0.014": 1.33782056763,
			"-0.013": 1.25572731247,
			"-0.012": 0.731501200813,
			"-0.011": 0.811591140815,
			"-0.01": 1.36707524618,
			"-0.009": 3.21959709389,
			"-0.008": 4.43406486261,
			"-0.007": 8.29052600475,
			"-0.006": 7.82332357479,
			"-0.005": 10.1279158771,
			"-0.004": 9.83821368499,
			"-0.003": 8.22320884106,
			"-0.002": 9.12874784735,
			"-0.001": 10.2441502325,
			"0.0": 11.1696070381,
			"0.001": 12.8630707975,
			"0.002": 19.0646745611,
			"0.003": 25.1780609083,
			"0.004": 28.4250847543,
			"0.005": 15.7931255216,
			"0.006": 3.39811777276,
			"0.007": 1.88265007517,
			"0.008": 1.36990416142,
			"0.009": 1.08053417636,
			"0.01": 1.33074919727,
			"0.011": 1.12547284291,
			"0.012": 1.2534126991,
			"0.013": 1.0215734486,
			"0.014": 0.406188028494,
			"0.015": 0.0,
			"0.016": 0.0,
			"0.017": 0.0,
			"0.018": 0.0,
			"0.019": 0.0,
			"0.02": 0.0,
			"0.021": 0.0,
			"0.022": 0.0,
			"0.023": 0.0,
			"0.024": 0.0,
			"0.025": 0.0
		}
	}
}
