{
	 "smiles": "O=S(=O)(CC1=CC=CC=C1)CC1=CC=CC=C1", 
	 "Tm": 425.15, 
	 "num_atms": 31, 
	 "gaussian": { 
		 "optdone": 1, 
		 "sigma_profile": "yes", 
		 "theory": "DFT", 
		 "functional": "B3LYP", 
		 "basiset": "6-31G**", 
		 "properties": { 
			 "R2extent": 4710.7321, 
			 "electric_dipole_moment_norm": 4.69548056114, 
			 "electric_quadrupole_moment_norm": 9.9469894536, 
			 "total_energy": -1090.510384, 
			 "HOMO_LUMO_gap": 0.21815, 
			 "cosmo_polarized_energy": -15.22, 
			 "cosmo_cavitation_energy": 35.34, 
			 "cosmo_dispersion_energy": -24.82, 
			 "cosmo_repulsion_energy": 1.86, 
			 "cosmo_total_nonelectrostatic_energy": 12.38, 
			 "SMD_solvation_energy": 4.91 
		},
		"coords": [
			{
				"x": 1.9660250825,
				"y": 2.0297803998,
				"z": 0.9258544469,
				"element": "O" 
			},
			{
				"x": 1.4667651369,
				"y": 1.3645922008,
				"z": -0.2908034392,
				"element": "S" 
			},
			{
				"x": 2.1754691165,
				"y": 1.546115475,
				"z": -1.5701862924,
				"element": "O" 
			},
			{
				"x": 1.3889126434,
				"y": -0.4307514433,
				"z": 0.093911859,
				"element": "C" 
			},
			{
				"x": 0.8352266124,
				"y": -1.3081367999,
				"z": -0.9966846368,
				"element": "C" 
			},
			{
				"x": 1.5088518285,
				"y": -1.4546442754,
				"z": -2.2191529338,
				"element": "C" 
			},
			{
				"x": 0.9917058432,
				"y": -2.2854989529,
				"z": -3.212329175,
				"element": "C" 
			},
			{
				"x": -0.1984360718,
				"y": -2.9851027819,
				"z": -2.9986502097,
				"element": "C" 
			},
			{
				"x": -0.87266754,
				"y": -2.8483322669,
				"z": -1.7845190135,
				"element": "C" 
			},
			{
				"x": -0.3594125175,
				"y": -2.0127045367,
				"z": -0.7911651985,
				"element": "C" 
			},
			{
				"x": -0.2708488665,
				"y": 1.8870598457,
				"z": -0.5818695956,
				"element": "C" 
			},
			{
				"x": -1.2054037224,
				"y": 1.7257718042,
				"z": 0.5870208484,
				"element": "C" 
			},
			{
				"x": -2.2858604618,
				"y": 0.8361602393,
				"z": 0.5035389514,
				"element": "C" 
			},
			{
				"x": -3.174515767,
				"y": 0.693802334,
				"z": 1.5705389986,
				"element": "C" 
			},
			{
				"x": -2.9893466424,
				"y": 1.4370390335,
				"z": 2.7370319294,
				"element": "C" 
			},
			{
				"x": -1.9143962698,
				"y": 2.3244677784,
				"z": 2.8292539867,
				"element": "C" 
			},
			{
				"x": -1.0289354729,
				"y": 2.4721621603,
				"z": 1.7623604853,
				"element": "C" 
			},
			{
				"x": 2.4380503666,
				"y": -0.648977015,
				"z": 0.3194828512,
				"element": "H" 
			},
			{
				"x": 0.8182724201,
				"y": -0.5055686734,
				"z": 1.0222248498,
				"element": "H" 
			},
			{
				"x": 2.4261696794,
				"y": -0.901815922,
				"z": -2.3921368449,
				"element": "H" 
			},
			{
				"x": 1.5216240124,
				"y": -2.3888009423,
				"z": -4.1547383385,
				"element": "H" 
			},
			{
				"x": -0.5955504188,
				"y": -3.6351330812,
				"z": -3.7729253623,
				"element": "H" 
			},
			{
				"x": -1.7955144097,
				"y": -3.3932709476,
				"z": -1.6075085798,
				"element": "H" 
			},
			{
				"x": -0.8847696867,
				"y": -1.9111026549,
				"z": 0.1546757858,
				"element": "H" 
			},
			{
				"x": -0.5994079291,
				"y": 1.3289491509,
				"z": -1.4614079374,
				"element": "H" 
			},
			{
				"x": -0.1355759374,
				"y": 2.9340831997,
				"z": -0.8727729074,
				"element": "H" 
			},
			{
				"x": -2.4347019055,
				"y": 0.2587454452,
				"z": -0.4049609798,
				"element": "H" 
			},
			{
				"x": -4.0111537147,
				"y": 0.0059513405,
				"z": 1.4878769277,
				"element": "H" 
			},
			{
				"x": -3.6798014725,
				"y": 1.328432783,
				"z": 3.5684264571,
				"element": "H" 
			},
			{
				"x": -1.7657119649,
				"y": 2.9065125179,
				"z": 3.7340967077,
				"element": "H" 
			},
			{
				"x": -0.1870619707,
				"y": 3.151914585,
				"z": 1.8410163593,
				"element": "H" 
			}
		],
		 "valence_orbital": [ 
			{
				"type": "occ",
				"energy": -0.28966,
				"method": "rhf"
			},
			{
				"type": "occ",
				"energy": -0.26287,
				"method": "rhf"
			},
			{
				"type": "occ",
				"energy": -0.25904,
				"method": "rhf"
			},
			{
				"type": "occ",
				"energy": -0.25808,
				"method": "rhf"
			},
			{
				"type": "occ",
				"energy": -0.24538,
				"method": "rhf"
			},
			{
				"type": "unocc",
				"energy": -0.02723,
				"method": "rhf"
			},
			{
				"type": "unocc",
				"energy": -0.01696,
				"method": "rhf"
			},
			{
				"type": "unocc",
				"energy": -0.01573,
				"method": "rhf"
			},
			{
				"type": "unocc",
				"energy": -0.00818,
				"method": "rhf"
			},
			{
				"type": "unocc",
				"energy": 0.07001,
				"method": "rhf"
			}
		],
		"cosmo_sigma_profile": { 
			"-0.025": 0.0,
			"-0.024": 0.0,
			"-0.023": 0.0,
			"-0.022": 0.0,
			"-0.021": 0.0,
			"-0.02": 0.0,
			"-0.019": 0.0,
			"-0.018": 0.0,
			"-0.017": 0.0,
			"-0.016": 0.0,
			"-0.015": 0.0,
			"-0.014": 0.0,
			"-0.013": 0.0,
			"-0.012": 0.0,
			"-0.011": 0.0,
			"-0.01": 0.0476730457492,
			"-0.009": 2.49331985123,
			"-0.008": 5.85330491422,
			"-0.007": 7.40785786219,
			"-0.006": 18.1348993089,
			"-0.005": 27.1751873996,
			"-0.004": 30.746606383,
			"-0.003": 22.591195032,
			"-0.002": 18.8178523271,
			"-0.001": 14.6579776312,
			"0.0": 14.3808380477,
			"0.001": 14.0593202267,
			"0.002": 16.2996180296,
			"0.003": 16.3379688134,
			"0.004": 17.9170630509,
			"0.005": 19.0574038824,
			"0.006": 5.02024596116,
			"0.007": 2.61964982192,
			"0.008": 3.0786601529,
			"0.009": 3.50808234637,
			"0.01": 4.02179271616,
			"0.011": 7.10596105921,
			"0.012": 8.44484653778,
			"0.013": 1.85478337465,
			"0.014": 0.0,
			"0.015": 0.0,
			"0.016": 0.0,
			"0.017": 0.0,
			"0.018": 0.0,
			"0.019": 0.0,
			"0.02": 0.0,
			"0.021": 0.0,
			"0.022": 0.0,
			"0.023": 0.0,
			"0.024": 0.0,
			"0.025": 0.0
		}
	}
}
