{
	 "smiles": "CC1=C(N=C(N)S1)C1=CC(F)=C(F)C=C1", 
	 "Tm": 409.15, 
	 "num_atms": 23, 
	 "gaussian": { 
		 "optdone": 1, 
		 "sigma_profile": "yes", 
		 "theory": "DFT", 
		 "functional": "B3LYP", 
		 "basiset": "6-31G**", 
		 "properties": { 
			 "R2extent": 4590.0892, 
			 "electric_dipole_moment_norm": 3.65048557866, 
			 "electric_quadrupole_moment_norm": 18.2568496261, 
			 "total_energy": -1093.24379441, 
			 "HOMO_LUMO_gap": 0.17468, 
			 "cosmo_polarized_energy": -10.92, 
			 "cosmo_cavitation_energy": 29.95, 
			 "cosmo_dispersion_energy": -22.19, 
			 "cosmo_repulsion_energy": 1.65, 
			 "cosmo_total_nonelectrostatic_energy": 9.4, 
			 "SMD_solvation_energy": 4.45 
		},
		"coords": [
			{
				"x": -0.7529407325,
				"y": 1.9051799062,
				"z": -1.6181066181,
				"element": "C" 
			},
			{
				"x": -0.6826570361,
				"y": 0.4079229433,
				"z": -1.6755806228,
				"element": "C" 
			},
			{
				"x": -0.5758786617,
				"y": -0.534666232,
				"z": -0.6813340024,
				"element": "C" 
			},
			{
				"x": -0.659279102,
				"y": -1.8625586145,
				"z": -1.0889814079,
				"element": "N" 
			},
			{
				"x": -0.7893620251,
				"y": -1.9579465148,
				"z": -2.3759393919,
				"element": "C" 
			},
			{
				"x": -0.8013038537,
				"y": -3.1505909103,
				"z": -3.0653154265,
				"element": "N" 
			},
			{
				"x": -0.8351157834,
				"y": -0.4118294103,
				"z": -3.2281559656,
				"element": "S" 
			},
			{
				"x": -0.4340811117,
				"y": -0.2806935466,
				"z": 0.7675555679,
				"element": "C" 
			},
			{
				"x": -0.974907237,
				"y": -1.212708652,
				"z": 1.6727957185,
				"element": "C" 
			},
			{
				"x": -0.8633258288,
				"y": -1.0034478328,
				"z": 3.0359070386,
				"element": "C" 
			},
			{
				"x": -1.3859515854,
				"y": -1.886809195,
				"z": 3.9058490882,
				"element": "F" 
			},
			{
				"x": -0.2096124528,
				"y": 0.1246703214,
				"z": 3.5335375579,
				"element": "C" 
			},
			{
				"x": -0.1176363022,
				"y": 0.2978833287,
				"z": 4.8638276105,
				"element": "F" 
			},
			{
				"x": 0.3488958931,
				"y": 1.0437801162,
				"z": 2.6579278561,
				"element": "C" 
			},
			{
				"x": 0.2420326916,
				"y": 0.8384019771,
				"z": 1.2811201789,
				"element": "C" 
			},
			{
				"x": 0.2182646958,
				"y": 2.3794129812,
				"z": -1.8097189395,
				"element": "H" 
			},
			{
				"x": -1.0965876732,
				"y": 2.2320226516,
				"z": -0.633503204,
				"element": "H" 
			},
			{
				"x": -1.4553953258,
				"y": 2.2953247812,
				"z": -2.3617239226,
				"element": "H" 
			},
			{
				"x": -1.3621068291,
				"y": -3.1848404985,
				"z": -3.9050367707,
				"element": "H" 
			},
			{
				"x": -0.9283352936,
				"y": -3.9498405156,
				"z": -2.4575381327,
				"element": "H" 
			},
			{
				"x": -1.4752932078,
				"y": -2.101441506,
				"z": 1.3078459292,
				"element": "H" 
			},
			{
				"x": 0.8751855057,
				"y": 1.9011915185,
				"z": 3.0635922044,
				"element": "H" 
			},
			{
				"x": 0.7225912555,
				"y": 1.5389829032,
				"z": 0.6090756544,
				"element": "H" 
			}
		],
		 "valence_orbital": [ 
			{
				"type": "occ",
				"energy": -0.28069,
				"method": "rhf"
			},
			{
				"type": "occ",
				"energy": -0.27473,
				"method": "rhf"
			},
			{
				"type": "occ",
				"energy": -0.25447,
				"method": "rhf"
			},
			{
				"type": "occ",
				"energy": -0.2441,
				"method": "rhf"
			},
			{
				"type": "occ",
				"energy": -0.20301,
				"method": "rhf"
			},
			{
				"type": "unocc",
				"energy": -0.02833,
				"method": "rhf"
			},
			{
				"type": "unocc",
				"energy": -0.00842,
				"method": "rhf"
			},
			{
				"type": "unocc",
				"energy": 0.00449,
				"method": "rhf"
			},
			{
				"type": "unocc",
				"energy": 0.01334,
				"method": "rhf"
			},
			{
				"type": "unocc",
				"energy": 0.06879,
				"method": "rhf"
			}
		],
		"cosmo_sigma_profile": { 
			"-0.025": 0.0,
			"-0.024": 0.0,
			"-0.023": 0.0,
			"-0.022": 0.0,
			"-0.021": 0.0,
			"-0.02": 0.0,
			"-0.019": 0.0,
			"-0.018": 0.0,
			"-0.017": 0.0,
			"-0.016": 0.0,
			"-0.015": 0.237966185015,
			"-0.014": 1.68348007088,
			"-0.013": 2.91417770986,
			"-0.012": 2.19642366309,
			"-0.011": 2.43947569869,
			"-0.01": 3.49252741702,
			"-0.009": 1.53717247247,
			"-0.008": 2.7616580793,
			"-0.007": 3.44998490115,
			"-0.006": 6.86260446855,
			"-0.005": 11.0194001218,
			"-0.004": 12.4736715655,
			"-0.003": 14.5930348843,
			"-0.002": 13.8006726402,
			"-0.001": 16.940541344,
			"0.0": 20.1761261168,
			"0.001": 19.4483461124,
			"0.002": 22.5548079128,
			"0.003": 31.085672666,
			"0.004": 31.1189165936,
			"0.005": 6.4851194369,
			"0.006": 2.87969215557,
			"0.007": 2.57781242776,
			"0.008": 2.72944978958,
			"0.009": 1.77656500438,
			"0.01": 1.71230247332,
			"0.011": 1.30293219259,
			"0.012": 1.20953887403,
			"0.013": 0.442294081131,
			"0.014": 0.33322977332,
			"0.015": 0.0,
			"0.016": 0.0,
			"0.017": 0.0,
			"0.018": 0.0,
			"0.019": 0.0,
			"0.02": 0.0,
			"0.021": 0.0,
			"0.022": 0.0,
			"0.023": 0.0,
			"0.024": 0.0,
			"0.025": 0.0
		}
	}
}
