{
	 "smiles": "CO[C@](C(O)=O)(C1=CC=CC=C1)C(F)(F)F", 
	 "Tm": 317.15, 
	 "num_atms": 25, 
	 "gaussian": { 
		 "optdone": 1, 
		 "sigma_profile": "yes", 
		 "theory": "DFT", 
		 "functional": "B3LYP", 
		 "basiset": "6-31G**", 
		 "properties": { 
			 "R2extent": 3345.3993, 
			 "electric_dipole_moment_norm": 1.50071207432, 
			 "electric_quadrupole_moment_norm": 7.12857263413, 
			 "total_energy": -911.668130409, 
			 "HOMO_LUMO_gap": 0.23837, 
			 "cosmo_polarized_energy": -11.51, 
			 "cosmo_cavitation_energy": 29.47, 
			 "cosmo_dispersion_energy": -20.55, 
			 "cosmo_repulsion_energy": 1.56, 
			 "cosmo_total_nonelectrostatic_energy": 10.48, 
			 "SMD_solvation_energy": 7.77 
		},
		"coords": [
			{
				"x": 3.0841453151,
				"y": 1.4285858951,
				"z": 0.6466893915,
				"element": "C" 
			},
			{
				"x": 2.7111546315,
				"y": 0.3794884121,
				"z": -0.251807634,
				"element": "O" 
			},
			{
				"x": 1.4714828518,
				"y": -0.2625458177,
				"z": -0.0343398346,
				"element": "C" 
			},
			{
				"x": 1.4465110193,
				"y": -1.4500194561,
				"z": -1.0432675545,
				"element": "C" 
			},
			{
				"x": 2.6219129822,
				"y": -2.1011807423,
				"z": -1.0769831958,
				"element": "O" 
			},
			{
				"x": 0.485438468,
				"y": -1.7621489837,
				"z": -1.7024180279,
				"element": "O" 
			},
			{
				"x": 0.2735192275,
				"y": 0.6559995563,
				"z": -0.3069451757,
				"element": "C" 
			},
			{
				"x": 0.4398944109,
				"y": 1.6863423926,
				"z": -1.2406646334,
				"element": "C" 
			},
			{
				"x": -0.6217569986,
				"y": 2.5306331772,
				"z": -1.5636414717,
				"element": "C" 
			},
			{
				"x": -1.8673361003,
				"y": 2.3515172478,
				"z": -0.9609826934,
				"element": "C" 
			},
			{
				"x": -2.0426832858,
				"y": 1.3183703462,
				"z": -0.0401576061,
				"element": "C" 
			},
			{
				"x": -0.9821870856,
				"y": 0.4717717347,
				"z": 0.28378963,
				"element": "C" 
			},
			{
				"x": 1.4406555516,
				"y": -0.8896074172,
				"z": 1.3939814416,
				"element": "C" 
			},
			{
				"x": 2.6272108491,
				"y": -1.4293078249,
				"z": 1.7089246889,
				"element": "F" 
			},
			{
				"x": 1.1489320784,
				"y": 0.0265433716,
				"z": 2.3400146289,
				"element": "F" 
			},
			{
				"x": 0.5111060039,
				"y": -1.8703658824,
				"z": 1.4777729456,
				"element": "F" 
			},
			{
				"x": 2.2797377676,
				"y": 2.1593509468,
				"z": 0.7802931372,
				"element": "H" 
			},
			{
				"x": 3.9426270539,
				"y": 1.9164547507,
				"z": 0.1815718654,
				"element": "H" 
			},
			{
				"x": 3.3827934227,
				"y": 1.0321171439,
				"z": 1.622196189,
				"element": "H" 
			},
			{
				"x": 2.5071931173,
				"y": -2.8265711239,
				"z": -1.7146103977,
				"element": "H" 
			},
			{
				"x": 1.4062280028,
				"y": 1.8192177129,
				"z": -1.7150617188,
				"element": "H" 
			},
			{
				"x": -0.4741853442,
				"y": 3.3259487261,
				"z": -2.2885680319,
				"element": "H" 
			},
			{
				"x": -2.6956527579,
				"y": 3.0084378299,
				"z": -1.2100595237,
				"element": "H" 
			},
			{
				"x": -3.0100130768,
				"y": 1.1647019374,
				"z": 0.429156868,
				"element": "H" 
			},
			{
				"x": -1.1466281044,
				"y": -0.3313339331,
				"z": 0.991316713,
				"element": "H" 
			}
		],
		 "valence_orbital": [ 
			{
				"type": "occ",
				"energy": -0.32588,
				"method": "rhf"
			},
			{
				"type": "occ",
				"energy": -0.28504,
				"method": "rhf"
			},
			{
				"type": "occ",
				"energy": -0.2835,
				"method": "rhf"
			},
			{
				"type": "occ",
				"energy": -0.25416,
				"method": "rhf"
			},
			{
				"type": "occ",
				"energy": -0.25357,
				"method": "rhf"
			},
			{
				"type": "unocc",
				"energy": -0.0152,
				"method": "rhf"
			},
			{
				"type": "unocc",
				"energy": -0.01291,
				"method": "rhf"
			},
			{
				"type": "unocc",
				"energy": -0.00258,
				"method": "rhf"
			},
			{
				"type": "unocc",
				"energy": 0.07051,
				"method": "rhf"
			},
			{
				"type": "unocc",
				"energy": 0.09302,
				"method": "rhf"
			}
		],
		"cosmo_sigma_profile": { 
			"-0.025": 0.0,
			"-0.024": 0.0,
			"-0.023": 0.0,
			"-0.022": 0.0,
			"-0.021": 0.0,
			"-0.02": 0.0631037208711,
			"-0.019": 0.79994108726,
			"-0.018": 0.997583801484,
			"-0.017": 1.17553620999,
			"-0.016": 0.84282457916,
			"-0.015": 0.1711105865,
			"-0.014": 0.577797411672,
			"-0.013": 0.922055547506,
			"-0.012": 1.21271377366,
			"-0.011": 0.838155670472,
			"-0.01": 0.457108480572,
			"-0.009": 0.704990775983,
			"-0.008": 0.658833951933,
			"-0.007": 1.40692177745,
			"-0.006": 10.1515150588,
			"-0.005": 15.4625499418,
			"-0.004": 19.5519940889,
			"-0.003": 20.0824391361,
			"-0.002": 17.4401207231,
			"-0.001": 14.5149035551,
			"0.0": 14.0651144621,
			"0.001": 20.8843837701,
			"0.002": 28.3107807568,
			"0.003": 12.8384795371,
			"0.004": 11.5314490643,
			"0.005": 9.60772433109,
			"0.006": 5.13957910873,
			"0.007": 3.82812113319,
			"0.008": 4.23462014701,
			"0.009": 3.89605785326,
			"0.01": 6.65322011573,
			"0.011": 4.3218224106,
			"0.012": 1.1805746107,
			"0.013": 0.226788505007,
			"0.014": 0.0,
			"0.015": 0.0,
			"0.016": 0.0,
			"0.017": 0.0,
			"0.018": 0.0,
			"0.019": 0.0,
			"0.02": 0.0,
			"0.021": 0.0,
			"0.022": 0.0,
			"0.023": 0.0,
			"0.024": 0.0,
			"0.025": 0.0
		}
	}
}
