{
	 "smiles": "OC(=O)C1=CC=C(SC(F)(F)F)C=C1", 
	 "Tm": 434.15, 
	 "num_atms": 19, 
	 "gaussian": { 
		 "optdone": 1, 
		 "sigma_profile": "yes", 
		 "theory": "DFT", 
		 "functional": "B3LYP", 
		 "basiset": "6-31G**", 
		 "properties": { 
			 "R2extent": 4396.7871, 
			 "electric_dipole_moment_norm": 3.05703540379, 
			 "electric_quadrupole_moment_norm": 20.4710804385, 
			 "total_energy": -1156.01728031, 
			 "HOMO_LUMO_gap": 0.19376, 
			 "cosmo_polarized_energy": -13.54, 
			 "cosmo_cavitation_energy": 27.39, 
			 "cosmo_dispersion_energy": -19.82, 
			 "cosmo_repulsion_energy": 1.46, 
			 "cosmo_total_nonelectrostatic_energy": 9.04, 
			 "SMD_solvation_energy": 6.63 
		},
		"coords": [
			{
				"x": -2.4709143243,
				"y": 1.9501914473,
				"z": -2.2634500975,
				"element": "O" 
			},
			{
				"x": -2.2799602176,
				"y": 0.6208343705,
				"z": -2.0581816734,
				"element": "C" 
			},
			{
				"x": -2.9994711956,
				"y": -0.1858216252,
				"z": -2.5969787163,
				"element": "O" 
			},
			{
				"x": -1.151985683,
				"y": 0.2298325702,
				"z": -1.1465414049,
				"element": "C" 
			},
			{
				"x": -1.1901551442,
				"y": -1.0516587378,
				"z": -0.5829394221,
				"element": "C" 
			},
			{
				"x": -0.1706077718,
				"y": -1.4801462175,
				"z": 0.2619680748,
				"element": "C" 
			},
			{
				"x": 0.9045132024,
				"y": -0.6284782387,
				"z": 0.5481962361,
				"element": "C" 
			},
			{
				"x": 2.1623098802,
				"y": -1.1759222945,
				"z": 1.7064716579,
				"element": "S" 
			},
			{
				"x": 3.5899934284,
				"y": -1.3253291053,
				"z": 0.5772992073,
				"element": "C" 
			},
			{
				"x": 4.6234232562,
				"y": -1.7748372479,
				"z": 1.3046774193,
				"element": "F" 
			},
			{
				"x": 3.9453978947,
				"y": -0.1487683014,
				"z": 0.026004743,
				"element": "F" 
			},
			{
				"x": 3.3690277956,
				"y": -2.181956882,
				"z": -0.4298051191,
				"element": "F" 
			},
			{
				"x": 0.9555907065,
				"y": 0.6514411624,
				"z": -0.0182064873,
				"element": "C" 
			},
			{
				"x": -0.0642784462,
				"y": 1.0704095948,
				"z": -0.8696527158,
				"element": "C" 
			},
			{
				"x": -1.9364526411,
				"y": 2.4688139959,
				"z": -1.6464926485,
				"element": "H" 
			},
			{
				"x": -2.0244148275,
				"y": -1.7003062603,
				"z": -0.8268371683,
				"element": "H" 
			},
			{
				"x": -0.1993475652,
				"y": -2.4741831663,
				"z": 0.6954034959,
				"element": "H" 
			},
			{
				"x": 1.7913961411,
				"y": 1.3066303719,
				"z": 0.1977995491,
				"element": "H" 
			},
			{
				"x": 0.0170355113,
				"y": 2.0497545638,
				"z": -1.33483493,
				"element": "H" 
			}
		],
		 "valence_orbital": [ 
			{
				"type": "occ",
				"energy": -0.32724,
				"method": "rhf"
			},
			{
				"type": "occ",
				"energy": -0.2979,
				"method": "rhf"
			},
			{
				"type": "occ",
				"energy": -0.28849,
				"method": "rhf"
			},
			{
				"type": "occ",
				"energy": -0.28201,
				"method": "rhf"
			},
			{
				"type": "occ",
				"energy": -0.26784,
				"method": "rhf"
			},
			{
				"type": "unocc",
				"energy": -0.07408,
				"method": "rhf"
			},
			{
				"type": "unocc",
				"energy": -0.03973,
				"method": "rhf"
			},
			{
				"type": "unocc",
				"energy": -0.00159,
				"method": "rhf"
			},
			{
				"type": "unocc",
				"energy": 0.02865,
				"method": "rhf"
			},
			{
				"type": "unocc",
				"energy": 0.04283,
				"method": "rhf"
			}
		],
		"cosmo_sigma_profile": { 
			"-0.025": 0.0,
			"-0.024": 0.0,
			"-0.023": 0.0,
			"-0.022": 0.0,
			"-0.021": 0.0,
			"-0.02": 0.0,
			"-0.019": 0.455255656825,
			"-0.018": 1.10243461387,
			"-0.017": 1.10886391684,
			"-0.016": 0.957956741821,
			"-0.015": 0.60243352225,
			"-0.014": 1.08980041593,
			"-0.013": 1.65544032127,
			"-0.012": 1.34263300367,
			"-0.011": 0.737547172883,
			"-0.01": 1.38356788325,
			"-0.009": 1.84852839308,
			"-0.008": 3.27560858922,
			"-0.007": 7.55596461882,
			"-0.006": 7.30323642919,
			"-0.005": 6.71522195784,
			"-0.004": 9.04613694655,
			"-0.003": 9.642784156,
			"-0.002": 12.3550213563,
			"-0.001": 16.9056150967,
			"0.0": 21.4854581313,
			"0.001": 36.8560876345,
			"0.002": 37.0922748304,
			"0.003": 7.29399532441,
			"0.004": 3.94709058445,
			"0.005": 3.72513669999,
			"0.006": 3.49866824915,
			"0.007": 2.30230632384,
			"0.008": 2.76359000387,
			"0.009": 3.37605851968,
			"0.01": 5.33404039315,
			"0.011": 5.32716265158,
			"0.012": 3.66217537202,
			"0.013": 0.754111572226,
			"0.014": 0.0,
			"0.015": 0.0,
			"0.016": 0.0,
			"0.017": 0.0,
			"0.018": 0.0,
			"0.019": 0.0,
			"0.02": 0.0,
			"0.021": 0.0,
			"0.022": 0.0,
			"0.023": 0.0,
			"0.024": 0.0,
			"0.025": 0.0
		}
	}
}
