{
	 "smiles": "OC(=O)C1(CCC1)N1CCOCC1", 
	 "Tm": 483.15, 
	 "num_atms": 28, 
	 "gaussian": { 
		 "optdone": 1, 
		 "sigma_profile": "yes", 
		 "theory": "DFT", 
		 "functional": "B3LYP", 
		 "basiset": "6-31G**", 
		 "properties": { 
			 "R2extent": 2220.2319, 
			 "electric_dipole_moment_norm": 1.84500324932, 
			 "electric_quadrupole_moment_norm": 6.67709208039, 
			 "total_energy": -632.377825355, 
			 "HOMO_LUMO_gap": 0.20141, 
			 "cosmo_polarized_energy": -10.84, 
			 "cosmo_cavitation_energy": 27.83, 
			 "cosmo_dispersion_energy": -20.47, 
			 "cosmo_repulsion_energy": 1.61, 
			 "cosmo_total_nonelectrostatic_energy": 8.97, 
			 "SMD_solvation_energy": 4.0 
		},
		"coords": [
			{
				"x": 0.1431397525,
				"y": 1.6934300202,
				"z": 1.8455244666,
				"element": "O" 
			},
			{
				"x": -0.7438216297,
				"y": 0.9450420331,
				"z": 1.1378182703,
				"element": "C" 
			},
			{
				"x": -1.7531880434,
				"y": 1.4221787199,
				"z": 0.6611900064,
				"element": "O" 
			},
			{
				"x": -0.2959592141,
				"y": -0.5062704677,
				"z": 0.9759605246,
				"element": "C" 
			},
			{
				"x": 0.3105466082,
				"y": -1.1956259946,
				"z": 2.2403580898,
				"element": "C" 
			},
			{
				"x": -0.6061560801,
				"y": -2.4164696499,
				"z": 1.9876679705,
				"element": "C" 
			},
			{
				"x": -1.4650502366,
				"y": -1.5385633636,
				"z": 1.0457364296,
				"element": "C" 
			},
			{
				"x": 0.5342621531,
				"y": -0.7120372815,
				"z": -0.214674632,
				"element": "N" 
			},
			{
				"x": -0.0885619569,
				"y": -0.5546794346,
				"z": -1.536773803,
				"element": "C" 
			},
			{
				"x": 0.1581134723,
				"y": 0.8178152219,
				"z": -2.1732412741,
				"element": "C" 
			},
			{
				"x": 1.5502202253,
				"y": 1.1154407186,
				"z": -2.2173322459,
				"element": "O" 
			},
			{
				"x": 2.0992476614,
				"y": 1.1308470811,
				"z": -0.9057381915,
				"element": "C" 
			},
			{
				"x": 1.9206518904,
				"y": -0.2281504403,
				"z": -0.2185580989,
				"element": "C" 
			},
			{
				"x": -0.2085476159,
				"y": 2.6004811196,
				"z": 1.8450321172,
				"element": "H" 
			},
			{
				"x": 0.0424015707,
				"y": -0.6523001252,
				"z": 3.1501774136,
				"element": "H" 
			},
			{
				"x": 1.3890112608,
				"y": -1.3641666987,
				"z": 2.2433488717,
				"element": "H" 
			},
			{
				"x": -1.1068781165,
				"y": -2.8496023377,
				"z": 2.8572112762,
				"element": "H" 
			},
			{
				"x": -0.0873461465,
				"y": -3.2099727352,
				"z": 1.4453716198,
				"element": "H" 
			},
			{
				"x": -1.7875213345,
				"y": -1.9794112359,
				"z": 0.1009056685,
				"element": "H" 
			},
			{
				"x": -2.337017018,
				"y": -1.1086403888,
				"z": 1.5446741865,
				"element": "H" 
			},
			{
				"x": -1.1631053929,
				"y": -0.7369775906,
				"z": -1.4634133417,
				"element": "H" 
			},
			{
				"x": 0.3373965753,
				"y": -1.319871377,
				"z": -2.2024240656,
				"element": "H" 
			},
			{
				"x": -0.3821338685,
				"y": 1.6010041027,
				"z": -1.6197988363,
				"element": "H" 
			},
			{
				"x": -0.1942013763,
				"y": 0.8245090812,
				"z": -3.2098097827,
				"element": "H" 
			},
			{
				"x": 3.1635868918,
				"y": 1.3641491526,
				"z": -1.0151280484,
				"element": "H" 
			},
			{
				"x": 1.6312005141,
				"y": 1.9270506266,
				"z": -0.3057472446,
				"element": "H" 
			},
			{
				"x": 2.5305511561,
				"y": -0.9642404105,
				"z": -0.7629832965,
				"element": "H" 
			},
			{
				"x": 2.3000582978,
				"y": -0.1767683456,
				"z": 0.8046459498,
				"element": "H" 
			}
		],
		 "valence_orbital": [ 
			{
				"type": "occ",
				"energy": -0.30939,
				"method": "rhf"
			},
			{
				"type": "occ",
				"energy": -0.30577,
				"method": "rhf"
			},
			{
				"type": "occ",
				"energy": -0.28243,
				"method": "rhf"
			},
			{
				"type": "occ",
				"energy": -0.25953,
				"method": "rhf"
			},
			{
				"type": "occ",
				"energy": -0.19949,
				"method": "rhf"
			},
			{
				"type": "unocc",
				"energy": 0.00192,
				"method": "rhf"
			},
			{
				"type": "unocc",
				"energy": 0.06302,
				"method": "rhf"
			},
			{
				"type": "unocc",
				"energy": 0.09132,
				"method": "rhf"
			},
			{
				"type": "unocc",
				"energy": 0.10234,
				"method": "rhf"
			},
			{
				"type": "unocc",
				"energy": 0.11511,
				"method": "rhf"
			}
		],
		"cosmo_sigma_profile": { 
			"-0.025": 0.0,
			"-0.024": 0.0,
			"-0.023": 0.0,
			"-0.022": 0.0,
			"-0.021": 0.0,
			"-0.02": 0.0,
			"-0.019": 0.0,
			"-0.018": 0.53222838549,
			"-0.017": 0.925487382496,
			"-0.016": 1.15574700059,
			"-0.015": 0.398182090417,
			"-0.014": 0.212882169896,
			"-0.013": 0.869216206665,
			"-0.012": 0.934294866727,
			"-0.011": 0.902961489944,
			"-0.01": 0.52629677269,
			"-0.009": 1.12335995368,
			"-0.008": 0.510365943417,
			"-0.007": 0.63734703016,
			"-0.006": 1.93446152812,
			"-0.005": 11.1840592446,
			"-0.004": 19.9372714425,
			"-0.003": 27.338002681,
			"-0.002": 27.52320374,
			"-0.001": 24.5798294571,
			"0.0": 18.7083327439,
			"0.001": 16.7617656099,
			"0.002": 8.09242557775,
			"0.003": 6.25459671931,
			"0.004": 7.14965681341,
			"0.005": 4.83770594574,
			"0.006": 4.1687840635,
			"0.007": 4.16216037965,
			"0.008": 4.26463870188,
			"0.009": 4.21777053209,
			"0.01": 3.49511235174,
			"0.011": 3.68776529768,
			"0.012": 5.38400386788,
			"0.013": 2.68225388126,
			"0.014": 0.995386139905,
			"0.015": 0.0,
			"0.016": 0.0,
			"0.017": 0.0,
			"0.018": 0.0,
			"0.019": 0.0,
			"0.02": 0.0,
			"0.021": 0.0,
			"0.022": 0.0,
			"0.023": 0.0,
			"0.024": 0.0,
			"0.025": 0.0
		}
	}
}
