{
	 "smiles": "NC1=CC(F)=C(C=C1F)C#N", 
	 "Tm": 369.15, 
	 "num_atms": 15, 
	 "gaussian": { 
		 "optdone": 1, 
		 "sigma_profile": "yes", 
		 "theory": "DFT", 
		 "functional": "B3LYP", 
		 "basiset": "6-31G**", 
		 "properties": { 
			 "R2extent": 2039.8015, 
			 "electric_dipole_moment_norm": 6.75408335453, 
			 "electric_quadrupole_moment_norm": 13.4735529969, 
			 "total_energy": -578.310155839, 
			 "HOMO_LUMO_gap": 0.18506, 
			 "cosmo_polarized_energy": -13.74, 
			 "cosmo_cavitation_energy": 21.78, 
			 "cosmo_dispersion_energy": -15.38, 
			 "cosmo_repulsion_energy": 1.2, 
			 "cosmo_total_nonelectrostatic_energy": 7.61, 
			 "SMD_solvation_energy": 6.09 
		},
		"coords": [
			{
				"x": 0.6873953078,
				"y": -3.2609443315,
				"z": 0.3401057368,
				"element": "N" 
			},
			{
				"x": 0.0758238444,
				"y": -2.039289644,
				"z": 0.486612337,
				"element": "C" 
			},
			{
				"x": -1.1649068643,
				"y": -1.873127352,
				"z": 1.1223582101,
				"element": "C" 
			},
			{
				"x": -1.694715735,
				"y": -0.6015286898,
				"z": 1.276835014,
				"element": "C" 
			},
			{
				"x": -2.8822794584,
				"y": -0.4715841141,
				"z": 1.887808829,
				"element": "F" 
			},
			{
				"x": -1.0409154448,
				"y": 0.5513405718,
				"z": 0.8205913447,
				"element": "C" 
			},
			{
				"x": 0.2047128363,
				"y": 0.3862898751,
				"z": 0.1786733137,
				"element": "C" 
			},
			{
				"x": 0.7284503352,
				"y": -0.8761481335,
				"z": 0.0270536032,
				"element": "C" 
			},
			{
				"x": 1.9198566583,
				"y": -1.0503235687,
				"z": -0.5989337694,
				"element": "F" 
			},
			{
				"x": -1.6203721964,
				"y": 1.842152154,
				"z": 0.9971958465,
				"element": "C" 
			},
			{
				"x": -2.080590982,
				"y": 2.9023780585,
				"z": 1.133048888,
				"element": "N" 
			},
			{
				"x": 1.4511723426,
				"y": -3.3041848742,
				"z": -0.3175133364,
				"element": "H" 
			},
			{
				"x": 0.1119883489,
				"y": -4.087052021,
				"z": 0.3915200581,
				"element": "H" 
			},
			{
				"x": -1.7177055931,
				"y": -2.7249444644,
				"z": 1.5029957309,
				"element": "H" 
			},
			{
				"x": 0.7498866006,
				"y": 1.2432665338,
				"z": -0.1987518063,
				"element": "H" 
			}
		],
		 "valence_orbital": [ 
			{
				"type": "occ",
				"energy": -0.35375,
				"method": "rhf"
			},
			{
				"type": "occ",
				"energy": -0.32831,
				"method": "rhf"
			},
			{
				"type": "occ",
				"energy": -0.31517,
				"method": "rhf"
			},
			{
				"type": "occ",
				"energy": -0.2698,
				"method": "rhf"
			},
			{
				"type": "occ",
				"energy": -0.23066,
				"method": "rhf"
			},
			{
				"type": "unocc",
				"energy": -0.0456,
				"method": "rhf"
			},
			{
				"type": "unocc",
				"energy": -0.0178,
				"method": "rhf"
			},
			{
				"type": "unocc",
				"energy": 0.0341,
				"method": "rhf"
			},
			{
				"type": "unocc",
				"energy": 0.05592,
				"method": "rhf"
			},
			{
				"type": "unocc",
				"energy": 0.07304,
				"method": "rhf"
			}
		],
		"cosmo_sigma_profile": { 
			"-0.025": 0.0,
			"-0.024": 0.0,
			"-0.023": 0.0,
			"-0.022": 0.0,
			"-0.021": 0.0,
			"-0.02": 0.0,
			"-0.019": 0.0,
			"-0.018": 0.0,
			"-0.017": 0.0,
			"-0.016": 0.0,
			"-0.015": 0.368424517525,
			"-0.014": 1.99503482708,
			"-0.013": 2.54527123455,
			"-0.012": 2.93490098617,
			"-0.011": 2.7716590323,
			"-0.01": 2.66335900191,
			"-0.009": 5.15788302112,
			"-0.008": 4.58677909248,
			"-0.007": 4.47029568484,
			"-0.006": 5.1196693486,
			"-0.005": 3.95086992074,
			"-0.004": 4.57835611742,
			"-0.003": 5.3404390553,
			"-0.002": 8.31684278065,
			"-0.001": 16.1659981909,
			"0.0": 22.4546147155,
			"0.001": 15.6562524121,
			"0.002": 10.261869917,
			"0.003": 17.0085272963,
			"0.004": 10.5656393875,
			"0.005": 3.02539293294,
			"0.006": 3.79842872441,
			"0.007": 3.3785176586,
			"0.008": 4.13208061169,
			"0.009": 3.71393343608,
			"0.01": 3.85824123225,
			"0.011": 3.00440580826,
			"0.012": 2.46854523498,
			"0.013": 1.93241846366,
			"0.014": 0.199812115195,
			"0.015": 0.0,
			"0.016": 0.0,
			"0.017": 0.0,
			"0.018": 0.0,
			"0.019": 0.0,
			"0.02": 0.0,
			"0.021": 0.0,
			"0.022": 0.0,
			"0.023": 0.0,
			"0.024": 0.0,
			"0.025": 0.0
		}
	}
}
