{
	 "smiles": "CCCC(C)(O)C1CC23C=CC1(OC)C1OC4=C5C(CC2N(C)CCC315)=CC=C4O", 
	 "Tm": 489.15, 
	 "num_atms": 63, 
	 "gaussian": { 
		 "optdone": 1, 
		 "sigma_profile": "yes", 
		 "theory": "DFT", 
		 "functional": "B3LYP", 
		 "basiset": "6-31G**", 
		 "properties": { 
			 "R2extent": 10594.899, 
			 "electric_dipole_moment_norm": 5.26527941709, 
			 "electric_quadrupole_moment_norm": 15.7058397853, 
			 "total_energy": -1328.10974611, 
			 "HOMO_LUMO_gap": 0.19292, 
			 "cosmo_polarized_energy": -16.02, 
			 "cosmo_cavitation_energy": 53.62, 
			 "cosmo_dispersion_energy": -36.52, 
			 "cosmo_repulsion_energy": 2.66, 
			 "cosmo_total_nonelectrostatic_energy": 19.76, 
			 "SMD_solvation_energy": 7.4 
		},
		"coords": [
			{
				"x": 3.1575951201,
				"y": -1.6619496751,
				"z": 4.0132830868,
				"element": "C" 
			},
			{
				"x": 1.7057889237,
				"y": -1.5337636318,
				"z": 3.5356311469,
				"element": "C" 
			},
			{
				"x": 1.3140213023,
				"y": -0.0754667562,
				"z": 3.2576045525,
				"element": "C" 
			},
			{
				"x": -0.1602995327,
				"y": 0.2328716531,
				"z": 2.8605086947,
				"element": "C" 
			},
			{
				"x": -1.095313637,
				"y": -0.1346558999,
				"z": 4.0196073025,
				"element": "C" 
			},
			{
				"x": -0.2789796356,
				"y": 1.6550321867,
				"z": 2.7763506605,
				"element": "O" 
			},
			{
				"x": -0.510251566,
				"y": -0.5172804984,
				"z": 1.5227738227,
				"element": "C" 
			},
			{
				"x": 0.439479103,
				"y": -0.1327350491,
				"z": 0.3416961906,
				"element": "C" 
			},
			{
				"x": -0.2939000945,
				"y": -0.126324509,
				"z": -1.0407428914,
				"element": "C" 
			},
			{
				"x": -0.9872382284,
				"y": -1.4732705418,
				"z": -1.111556629,
				"element": "C" 
			},
			{
				"x": -1.8845676431,
				"y": -1.6592085709,
				"z": -0.1353014325,
				"element": "C" 
			},
			{
				"x": -1.9833414971,
				"y": -0.5600380651,
				"z": 0.9315767733,
				"element": "C" 
			},
			{
				"x": -3.0070618525,
				"y": -0.7847878851,
				"z": 1.8919830128,
				"element": "O" 
			},
			{
				"x": -3.1932337688,
				"y": -2.097188005,
				"z": 2.3925526215,
				"element": "C" 
			},
			{
				"x": -2.4102935059,
				"y": 0.7165792207,
				"z": 0.1453589574,
				"element": "C" 
			},
			{
				"x": -2.4561956894,
				"y": 1.965884336,
				"z": 0.8989404465,
				"element": "O" 
			},
			{
				"x": -1.4607834601,
				"y": 2.7795926079,
				"z": 0.4113431951,
				"element": "C" 
			},
			{
				"x": -0.7958072922,
				"y": 2.2385717551,
				"z": -0.669706576,
				"element": "C" 
			},
			{
				"x": 0.4318271774,
				"y": 2.6936727121,
				"z": -1.1299683623,
				"element": "C" 
			},
			{
				"x": 1.2790507578,
				"y": 1.7342893076,
				"z": -1.95948104,
				"element": "C" 
			},
			{
				"x": 0.6461319256,
				"y": 0.3089957677,
				"z": -2.2004922879,
				"element": "C" 
			},
			{
				"x": -0.0371552224,
				"y": 0.3034708626,
				"z": -3.5158562828,
				"element": "N" 
			},
			{
				"x": 0.6167223859,
				"y": -0.5027924605,
				"z": -4.5292659972,
				"element": "C" 
			},
			{
				"x": -1.4849607173,
				"y": 0.1460485587,
				"z": -3.510932715,
				"element": "C" 
			},
			{
				"x": -2.1384765465,
				"y": 1.0128193586,
				"z": -2.4324109045,
				"element": "C" 
			},
			{
				"x": -1.4306205963,
				"y": 0.9391121641,
				"z": -1.0373605405,
				"element": "C" 
			},
			{
				"x": 0.882862853,
				"y": 3.8988061497,
				"z": -0.5645799281,
				"element": "C" 
			},
			{
				"x": 0.156528522,
				"y": 4.5286761991,
				"z": 0.4582141964,
				"element": "C" 
			},
			{
				"x": -1.0042277865,
				"y": 3.9567102416,
				"z": 1.0049977991,
				"element": "C" 
			},
			{
				"x": -1.5958147142,
				"y": 4.5030716718,
				"z": 2.1063547386,
				"element": "O" 
			},
			{
				"x": 3.857557143,
				"y": -1.2707617528,
				"z": 3.266041892,
				"element": "H" 
			},
			{
				"x": 3.4241909251,
				"y": -2.7066701117,
				"z": 4.2037569036,
				"element": "H" 
			},
			{
				"x": 3.319625653,
				"y": -1.101674884,
				"z": 4.9408663378,
				"element": "H" 
			},
			{
				"x": 1.0392110675,
				"y": -1.9610981876,
				"z": 4.2945805466,
				"element": "H" 
			},
			{
				"x": 1.574512932,
				"y": -2.143402558,
				"z": 2.6324044056,
				"element": "H" 
			},
			{
				"x": 1.9815387422,
				"y": 0.3233247181,
				"z": 2.4806126838,
				"element": "H" 
			},
			{
				"x": 1.5101936862,
				"y": 0.5243854166,
				"z": 4.1550786725,
				"element": "H" 
			},
			{
				"x": -2.0979320706,
				"y": 0.2426025246,
				"z": 3.8229603291,
				"element": "H" 
			},
			{
				"x": -0.7174147049,
				"y": 0.3239815548,
				"z": 4.9385371017,
				"element": "H" 
			},
			{
				"x": -1.1526420197,
				"y": -1.2150326055,
				"z": 4.1735936778,
				"element": "H" 
			},
			{
				"x": 0.4013744915,
				"y": 2.0021832129,
				"z": 2.1845027297,
				"element": "H" 
			},
			{
				"x": -0.3112071643,
				"y": -1.5669344168,
				"z": 1.7624743517,
				"element": "H" 
			},
			{
				"x": 0.8746576712,
				"y": 0.8520758637,
				"z": 0.5173647808,
				"element": "H" 
			},
			{
				"x": 1.2754092852,
				"y": -0.8378357944,
				"z": 0.2809919223,
				"element": "H" 
			},
			{
				"x": -0.7679078143,
				"y": -2.2162269703,
				"z": -1.8726347918,
				"element": "H" 
			},
			{
				"x": -2.4742067571,
				"y": -2.5637687294,
				"z": -0.0391334264,
				"element": "H" 
			},
			{
				"x": -2.2494077417,
				"y": -2.613580918,
				"z": 2.6084576853,
				"element": "H" 
			},
			{
				"x": -3.7826110267,
				"y": -2.7214104173,
				"z": 1.7066174814,
				"element": "H" 
			},
			{
				"x": -3.7518289688,
				"y": -1.9959410485,
				"z": 3.326556628,
				"element": "H" 
			},
			{
				"x": -3.4369419026,
				"y": 0.5369451483,
				"z": -0.1805450593,
				"element": "H" 
			},
			{
				"x": 1.5091513397,
				"y": 2.1382144255,
				"z": -2.9511646197,
				"element": "H" 
			},
			{
				"x": 2.2416610717,
				"y": 1.617221381,
				"z": -1.4427710087,
				"element": "H" 
			},
			{
				"x": 1.4798692219,
				"y": -0.4045885889,
				"z": -2.2487429723,
				"element": "H" 
			},
			{
				"x": 1.679163607,
				"y": -0.2453511449,
				"z": -4.591181601,
				"element": "H" 
			},
			{
				"x": 0.5422894192,
				"y": -1.5948912376,
				"z": -4.3546120925,
				"element": "H" 
			},
			{
				"x": 0.170391333,
				"y": -0.2959234791,
				"z": -5.5086044082,
				"element": "H" 
			},
			{
				"x": -1.8618043375,
				"y": 0.4573827321,
				"z": -4.4940593567,
				"element": "H" 
			},
			{
				"x": -1.7996743305,
				"y": -0.9063958102,
				"z": -3.3875980499,
				"element": "H" 
			},
			{
				"x": -2.1353227099,
				"y": 2.0558792996,
				"z": -2.7631061813,
				"element": "H" 
			},
			{
				"x": -3.186919752,
				"y": 0.7122318693,
				"z": -2.3385420304,
				"element": "H" 
			},
			{
				"x": 1.831675232,
				"y": 4.3298899313,
				"z": -0.8743004882,
				"element": "H" 
			},
			{
				"x": 0.5288467719,
				"y": 5.4421210959,
				"z": 0.9119272116,
				"element": "H" 
			},
			{
				"x": -2.1133833766,
				"y": 3.8011062762,
				"z": 2.5289491344,
				"element": "H" 
			}
		],
		 "valence_orbital": [ 
			{
				"type": "occ",
				"energy": -0.25572,
				"method": "rhf"
			},
			{
				"type": "occ",
				"energy": -0.24288,
				"method": "rhf"
			},
			{
				"type": "occ",
				"energy": -0.21608,
				"method": "rhf"
			},
			{
				"type": "occ",
				"energy": -0.201,
				"method": "rhf"
			},
			{
				"type": "occ",
				"energy": -0.1925,
				"method": "rhf"
			},
			{
				"type": "unocc",
				"energy": 0.00042,
				"method": "rhf"
			},
			{
				"type": "unocc",
				"energy": 0.0129,
				"method": "rhf"
			},
			{
				"type": "unocc",
				"energy": 0.02074,
				"method": "rhf"
			},
			{
				"type": "unocc",
				"energy": 0.06625,
				"method": "rhf"
			},
			{
				"type": "unocc",
				"energy": 0.0768,
				"method": "rhf"
			}
		],
		"cosmo_sigma_profile": { 
			"-0.025": 0.0,
			"-0.024": 0.0,
			"-0.023": 0.0,
			"-0.022": 0.0,
			"-0.021": 0.0,
			"-0.02": 0.0,
			"-0.019": 0.0,
			"-0.018": 0.0,
			"-0.017": 0.0,
			"-0.016": 0.0,
			"-0.015": 0.277594555958,
			"-0.014": 0.498639821062,
			"-0.013": 0.315320463061,
			"-0.012": 0.932994041869,
			"-0.011": 0.165464664566,
			"-0.01": 1.02797733692,
			"-0.009": 2.4373364957,
			"-0.008": 1.42403215047,
			"-0.007": 1.11943868595,
			"-0.006": 4.69590894261,
			"-0.005": 14.0579503184,
			"-0.004": 24.993050566,
			"-0.003": 54.9055825727,
			"-0.002": 63.0316188889,
			"-0.001": 54.435357586,
			"0.0": 51.3105377942,
			"0.001": 33.7358480936,
			"0.002": 22.8073504402,
			"0.003": 14.5952732474,
			"0.004": 12.9101765419,
			"0.005": 10.4943520217,
			"0.006": 9.05894285371,
			"0.007": 6.58310654383,
			"0.008": 4.96076154166,
			"0.009": 5.52999734536,
			"0.01": 5.96081786382,
			"0.011": 6.45665906626,
			"0.012": 4.62367155323,
			"0.013": 1.1281120754,
			"0.014": 0.296627457548,
			"0.015": 0.0,
			"0.016": 0.0,
			"0.017": 0.0,
			"0.018": 0.0,
			"0.019": 0.0,
			"0.02": 0.0,
			"0.021": 0.0,
			"0.022": 0.0,
			"0.023": 0.0,
			"0.024": 0.0,
			"0.025": 0.0
		}
	}
}
