{
	 "smiles": "ClC(Cl)C(Cl)C(Cl)Cl", 
	 "Tm": 263.15, 
	 "num_atms": 11, 
	 "gaussian": { 
		 "optdone": 1, 
		 "sigma_profile": "yes", 
		 "theory": "DFT", 
		 "functional": "B3LYP", 
		 "basiset": "6-31G**", 
		 "properties": { 
			 "R2extent": 4648.6943, 
			 "electric_dipole_moment_norm": 1.10840126308, 
			 "electric_quadrupole_moment_norm": 3.37363447931, 
			 "total_energy": -2417.07625579, 
			 "HOMO_LUMO_gap": 0.26956, 
			 "cosmo_polarized_energy": -6.89, 
			 "cosmo_cavitation_energy": 23.02, 
			 "cosmo_dispersion_energy": -17.29, 
			 "cosmo_repulsion_energy": 1.43, 
			 "cosmo_total_nonelectrostatic_energy": 7.17, 
			 "SMD_solvation_energy": 2.2 
		},
		"coords": [
			{
				"x": 1.5763959538,
				"y": -4.3773193372,
				"z": 2.3493351023,
				"element": "Cl" 
			},
			{
				"x": 0.3421094271,
				"y": -3.3548034433,
				"z": 1.5487816618,
				"element": "C" 
			},
			{
				"x": 0.162251873,
				"y": -3.8673034536,
				"z": -0.1774041668,
				"element": "Cl" 
			},
			{
				"x": 0.7161926865,
				"y": -1.8608842829,
				"z": 1.627880425,
				"element": "C" 
			},
			{
				"x": 0.7989475697,
				"y": -1.3669726517,
				"z": 3.3585135699,
				"element": "Cl" 
			},
			{
				"x": -0.2434862879,
				"y": -0.9567635032,
				"z": 0.8328033513,
				"element": "C" 
			},
			{
				"x": -1.9378046516,
				"y": -1.0609602942,
				"z": 1.4219746889,
				"element": "Cl" 
			},
			{
				"x": 0.3438463949,
				"y": 0.7379051952,
				"z": 0.8122305172,
				"element": "Cl" 
			},
			{
				"x": -0.6113655087,
				"y": -3.5484842819,
				"z": 2.0350284727,
				"element": "H" 
			},
			{
				"x": 1.7161709519,
				"y": -1.7224454809,
				"z": 1.2109718679,
				"element": "H" 
			},
			{
				"x": -0.2615584086,
				"y": -1.2827684662,
				"z": -0.2039154901,
				"element": "H" 
			}
		],
		 "valence_orbital": [ 
			{
				"type": "occ",
				"energy": -0.32936,
				"method": "rhf"
			},
			{
				"type": "occ",
				"energy": -0.32493,
				"method": "rhf"
			},
			{
				"type": "occ",
				"energy": -0.32231,
				"method": "rhf"
			},
			{
				"type": "occ",
				"energy": -0.31917,
				"method": "rhf"
			},
			{
				"type": "occ",
				"energy": -0.31466,
				"method": "rhf"
			},
			{
				"type": "unocc",
				"energy": -0.0451,
				"method": "rhf"
			},
			{
				"type": "unocc",
				"energy": -0.03663,
				"method": "rhf"
			},
			{
				"type": "unocc",
				"energy": -0.00799,
				"method": "rhf"
			},
			{
				"type": "unocc",
				"energy": 0.01045,
				"method": "rhf"
			},
			{
				"type": "unocc",
				"energy": 0.02732,
				"method": "rhf"
			}
		],
		"cosmo_sigma_profile": { 
			"-0.025": 0.0,
			"-0.024": 0.0,
			"-0.023": 0.0,
			"-0.022": 0.0,
			"-0.021": 0.0,
			"-0.02": 0.0,
			"-0.019": 0.0,
			"-0.018": 0.0,
			"-0.017": 0.0,
			"-0.016": 0.0,
			"-0.015": 0.0,
			"-0.014": 0.0,
			"-0.013": 0.0,
			"-0.012": 0.338683872477,
			"-0.011": 4.33794422974,
			"-0.01": 4.79257210864,
			"-0.009": 4.25423030609,
			"-0.008": 4.05758890243,
			"-0.007": 3.77871248393,
			"-0.006": 3.79352909607,
			"-0.005": 4.46422436719,
			"-0.004": 4.23582663841,
			"-0.003": 9.74513848484,
			"-0.002": 11.5247168079,
			"-0.001": 12.6732286527,
			"0.0": 16.0464516449,
			"0.001": 16.9844862698,
			"0.002": 20.5594824279,
			"0.003": 31.6245375362,
			"0.004": 32.4233073891,
			"0.005": 7.99565600463,
			"0.006": 0.331923703083,
			"0.007": 0.0,
			"0.008": 0.0,
			"0.009": 0.0,
			"0.01": 0.0,
			"0.011": 0.0,
			"0.012": 0.0,
			"0.013": 0.0,
			"0.014": 0.0,
			"0.015": 0.0,
			"0.016": 0.0,
			"0.017": 0.0,
			"0.018": 0.0,
			"0.019": 0.0,
			"0.02": 0.0,
			"0.021": 0.0,
			"0.022": 0.0,
			"0.023": 0.0,
			"0.024": 0.0,
			"0.025": 0.0
		}
	}
}
