{
	 "smiles": "OC1=CN=C(C=C1)C1=CC=CC=C1", 
	 "Tm": 448.15, 
	 "num_atms": 22, 
	 "gaussian": { 
		 "optdone": 1, 
		 "sigma_profile": "yes", 
		 "theory": "DFT", 
		 "functional": "B3LYP", 
		 "basiset": "6-31G**", 
		 "properties": { 
			 "R2extent": 3460.6901, 
			 "electric_dipole_moment_norm": 1.18494061033, 
			 "electric_quadrupole_moment_norm": 12.6816256131, 
			 "total_energy": -554.567363555, 
			 "HOMO_LUMO_gap": 0.18009, 
			 "cosmo_polarized_energy": -11.36, 
			 "cosmo_cavitation_energy": 26.2, 
			 "cosmo_dispersion_energy": -19.68, 
			 "cosmo_repulsion_energy": 1.53, 
			 "cosmo_total_nonelectrostatic_energy": 8.05, 
			 "SMD_solvation_energy": 3.77 
		},
		"coords": [
			{
				"x": -0.2064179814,
				"y": -4.9161502716,
				"z": 1.3627117843,
				"element": "O" 
			},
			{
				"x": 0.1129258217,
				"y": -3.7044888802,
				"z": 0.8278876735,
				"element": "C" 
			},
			{
				"x": -0.7919108346,
				"y": -2.9218202231,
				"z": 0.1011709605,
				"element": "C" 
			},
			{
				"x": -0.4814875743,
				"y": -1.7415222104,
				"z": -0.429469857,
				"element": "N" 
			},
			{
				"x": 0.7628061914,
				"y": -1.2539618657,
				"z": -0.2697572878,
				"element": "C" 
			},
			{
				"x": 1.724943522,
				"y": -1.9705187957,
				"z": 0.4663101309,
				"element": "C" 
			},
			{
				"x": 1.4033950749,
				"y": -3.2044085758,
				"z": 1.0156379315,
				"element": "C" 
			},
			{
				"x": 1.0515902304,
				"y": 0.0678679042,
				"z": -0.8865837297,
				"element": "C" 
			},
			{
				"x": -0.0099724479,
				"y": 0.9154177089,
				"z": -1.2470036938,
				"element": "C" 
			},
			{
				"x": 0.2349310306,
				"y": 2.1616232349,
				"z": -1.8182370054,
				"element": "C" 
			},
			{
				"x": 1.545452007,
				"y": 2.5883231053,
				"z": -2.0469182905,
				"element": "C" 
			},
			{
				"x": 2.6085702632,
				"y": 1.7517807882,
				"z": -1.7036671078,
				"element": "C" 
			},
			{
				"x": 2.3644183366,
				"y": 0.503898916,
				"z": -1.1312474463,
				"element": "C" 
			},
			{
				"x": -1.1284165249,
				"y": -5.1218826374,
				"z": 1.1572348622,
				"element": "H" 
			},
			{
				"x": -1.81336469,
				"y": -3.2753396094,
				"z": -0.0562141366,
				"element": "H" 
			},
			{
				"x": 2.7143974409,
				"y": -1.557883101,
				"z": 0.6281855191,
				"element": "H" 
			},
			{
				"x": 2.1228445003,
				"y": -3.7783812405,
				"z": 1.590728877,
				"element": "H" 
			},
			{
				"x": -1.0240370423,
				"y": 0.5749882978,
				"z": -1.0705216443,
				"element": "H" 
			},
			{
				"x": -0.6000598258,
				"y": 2.8038893834,
				"z": -2.0844754927,
				"element": "H" 
			},
			{
				"x": 1.7359687616,
				"y": 3.5604382663,
				"z": -2.4926454308,
				"element": "H" 
			},
			{
				"x": 3.6318050372,
				"y": 2.066315951,
				"z": -1.8891126582,
				"element": "H" 
			},
			{
				"x": 3.2062187034,
				"y": -0.140886145,
				"z": -0.8982139579,
				"element": "H" 
			}
		],
		 "valence_orbital": [ 
			{
				"type": "occ",
				"energy": -0.28273,
				"method": "rhf"
			},
			{
				"type": "occ",
				"energy": -0.2667,
				"method": "rhf"
			},
			{
				"type": "occ",
				"energy": -0.2553,
				"method": "rhf"
			},
			{
				"type": "occ",
				"energy": -0.24463,
				"method": "rhf"
			},
			{
				"type": "occ",
				"energy": -0.21347,
				"method": "rhf"
			},
			{
				"type": "unocc",
				"energy": -0.03338,
				"method": "rhf"
			},
			{
				"type": "unocc",
				"energy": -0.02135,
				"method": "rhf"
			},
			{
				"type": "unocc",
				"energy": 0.00678,
				"method": "rhf"
			},
			{
				"type": "unocc",
				"energy": 0.04062,
				"method": "rhf"
			},
			{
				"type": "unocc",
				"energy": 0.06167,
				"method": "rhf"
			}
		],
		"cosmo_sigma_profile": { 
			"-0.025": 0.0,
			"-0.024": 0.0,
			"-0.023": 0.0,
			"-0.022": 0.0,
			"-0.021": 0.0,
			"-0.02": 0.0,
			"-0.019": 0.0709774063397,
			"-0.018": 1.08299397519,
			"-0.017": 1.05970448028,
			"-0.016": 1.15147745079,
			"-0.015": 1.05500201271,
			"-0.014": 1.24954935914,
			"-0.013": 0.469885359247,
			"-0.012": 0.900228460111,
			"-0.011": 1.31933106018,
			"-0.01": 1.30259754272,
			"-0.009": 0.73158952575,
			"-0.008": 2.5266939845,
			"-0.007": 6.04290790232,
			"-0.006": 9.00860869149,
			"-0.005": 12.8085783278,
			"-0.004": 13.7132370707,
			"-0.003": 14.7185465317,
			"-0.002": 9.99189644045,
			"-0.001": 11.1788529228,
			"0.0": 10.6680475339,
			"0.001": 14.8728562631,
			"0.002": 21.3458584659,
			"0.003": 19.1734533409,
			"0.004": 13.1408682671,
			"0.005": 14.2853946011,
			"0.006": 10.9459556803,
			"0.007": 2.79372096083,
			"0.008": 3.24162536026,
			"0.009": 2.27090098911,
			"0.01": 3.65390754192,
			"0.011": 2.24520250385,
			"0.012": 0.536220551995,
			"0.013": 0.569323689673,
			"0.014": 0.31029900695,
			"0.015": 0.0,
			"0.016": 0.0,
			"0.017": 0.0,
			"0.018": 0.0,
			"0.019": 0.0,
			"0.02": 0.0,
			"0.021": 0.0,
			"0.022": 0.0,
			"0.023": 0.0,
			"0.024": 0.0,
			"0.025": 0.0
		}
	}
}
