{
	 "smiles": "CNCCCN1C2=CC=CC=C2CCC2=CC=CC=C12", 
	 "Tm": 298.15, 
	 "num_atms": 42, 
	 "gaussian": { 
		 "optdone": 1, 
		 "sigma_profile": "yes", 
		 "theory": "DFT", 
		 "functional": "B3LYP", 
		 "basiset": "6-31G**", 
		 "properties": { 
			 "R2extent": 6127.0551, 
			 "electric_dipole_moment_norm": 0.53966853716, 
			 "electric_quadrupole_moment_norm": 9.1069422124, 
			 "total_energy": -808.666829851, 
			 "HOMO_LUMO_gap": 0.18946, 
			 "cosmo_polarized_energy": -8.88, 
			 "cosmo_cavitation_energy": 41.74, 
			 "cosmo_dispersion_energy": -28.93, 
			 "cosmo_repulsion_energy": 2.22, 
			 "cosmo_total_nonelectrostatic_energy": 15.03, 
			 "SMD_solvation_energy": 4.1 
		},
		"coords": [
			{
				"x": -0.1877153299,
				"y": -4.6625009752,
				"z": -1.067729547,
				"element": "C" 
			},
			{
				"x": -1.2804794547,
				"y": -4.2879604186,
				"z": -0.1820343432,
				"element": "N" 
			},
			{
				"x": -2.0295645163,
				"y": -3.0749846173,
				"z": -0.4998030536,
				"element": "C" 
			},
			{
				"x": -1.4668829475,
				"y": -1.7139407518,
				"z": -0.0337436153,
				"element": "C" 
			},
			{
				"x": -0.2078043612,
				"y": -1.2354653588,
				"z": -0.7694375955,
				"element": "C" 
			},
			{
				"x": 0.1249554805,
				"y": 0.159127585,
				"z": -0.4525810416,
				"element": "N" 
			},
			{
				"x": 0.3197173939,
				"y": 0.488998065,
				"z": 0.9260175541,
				"element": "C" 
			},
			{
				"x": 1.0189810743,
				"y": -0.3588791928,
				"z": 1.7954332216,
				"element": "C" 
			},
			{
				"x": 1.1709819593,
				"y": -0.0233333534,
				"z": 3.1411258473,
				"element": "C" 
			},
			{
				"x": 0.6348792459,
				"y": 1.1690080217,
				"z": 3.6281229107,
				"element": "C" 
			},
			{
				"x": -0.0592281344,
				"y": 2.0149991772,
				"z": 2.7619481415,
				"element": "C" 
			},
			{
				"x": -0.2367128273,
				"y": 1.6844068475,
				"z": 1.4151726386,
				"element": "C" 
			},
			{
				"x": -0.9786607021,
				"y": 2.5741663314,
				"z": 0.4553862808,
				"element": "C" 
			},
			{
				"x": -0.0338812951,
				"y": 3.239685856,
				"z": -0.5571469105,
				"element": "C" 
			},
			{
				"x": 0.7543664203,
				"y": 2.3347833295,
				"z": -1.4975695045,
				"element": "C" 
			},
			{
				"x": 1.4602293922,
				"y": 2.9880882075,
				"z": -2.5182971942,
				"element": "C" 
			},
			{
				"x": 2.2129081599,
				"y": 2.3106085136,
				"z": -3.4728755979,
				"element": "C" 
			},
			{
				"x": 2.280033206,
				"y": 0.9207836519,
				"z": -3.4075536798,
				"element": "C" 
			},
			{
				"x": 1.6043317794,
				"y": 0.2441547498,
				"z": -2.3967682279,
				"element": "C" 
			},
			{
				"x": 0.8271938064,
				"y": 0.9208369575,
				"z": -1.4350254769,
				"element": "C" 
			},
			{
				"x": 0.6670342317,
				"y": -3.9648392486,
				"z": -1.1129928226,
				"element": "H" 
			},
			{
				"x": -0.5734839342,
				"y": -4.7714850139,
				"z": -2.0878887014,
				"element": "H" 
			},
			{
				"x": 0.2014084407,
				"y": -5.6399768504,
				"z": -0.7631670462,
				"element": "H" 
			},
			{
				"x": -0.9761106021,
				"y": -4.2772380186,
				"z": 0.7867548023,
				"element": "H" 
			},
			{
				"x": -2.187232974,
				"y": -3.0604120218,
				"z": -1.5865761797,
				"element": "H" 
			},
			{
				"x": -3.0276004046,
				"y": -3.1749708755,
				"z": -0.0517208451,
				"element": "H" 
			},
			{
				"x": -2.2480380539,
				"y": -0.9561758777,
				"z": -0.1797036225,
				"element": "H" 
			},
			{
				"x": -1.2829603417,
				"y": -1.7569760075,
				"z": 1.0465191546,
				"element": "H" 
			},
			{
				"x": -0.3998438535,
				"y": -1.2766798342,
				"z": -1.8456671746,
				"element": "H" 
			},
			{
				"x": 0.6315232935,
				"y": -1.9215262045,
				"z": -0.5766621515,
				"element": "H" 
			},
			{
				"x": 1.4531609342,
				"y": -1.2793694556,
				"z": 1.4175517728,
				"element": "H" 
			},
			{
				"x": 1.7171769818,
				"y": -0.6892087027,
				"z": 3.8034055059,
				"element": "H" 
			},
			{
				"x": 0.7521109626,
				"y": 1.4366929912,
				"z": 4.6741271319,
				"element": "H" 
			},
			{
				"x": -0.487600432,
				"y": 2.941189776,
				"z": 3.1378872302,
				"element": "H" 
			},
			{
				"x": -1.7316887875,
				"y": 1.9854743615,
				"z": -0.0815724082,
				"element": "H" 
			},
			{
				"x": -1.5078408256,
				"y": 3.359119419,
				"z": 1.0064713995,
				"element": "H" 
			},
			{
				"x": -0.6144308858,
				"y": 3.9380629759,
				"z": -1.1738141715,
				"element": "H" 
			},
			{
				"x": 0.6790609214,
				"y": 3.8605439492,
				"z": 0.0029822256,
				"element": "H" 
			},
			{
				"x": 1.3966653944,
				"y": 4.0734015079,
				"z": -2.5657482522,
				"element": "H" 
			},
			{
				"x": 2.733977523,
				"y": 2.8588256587,
				"z": -4.2519278765,
				"element": "H" 
			},
			{
				"x": 2.8666460584,
				"y": 0.3592504323,
				"z": -4.1293205816,
				"element": "H" 
			},
			{
				"x": 1.6980180037,
				"y": -0.8340855862,
				"z": -2.340078196,
				"element": "H" 
			}
		],
		 "valence_orbital": [ 
			{
				"type": "occ",
				"energy": -0.24331,
				"method": "rhf"
			},
			{
				"type": "occ",
				"energy": -0.23696,
				"method": "rhf"
			},
			{
				"type": "occ",
				"energy": -0.23139,
				"method": "rhf"
			},
			{
				"type": "occ",
				"energy": -0.21053,
				"method": "rhf"
			},
			{
				"type": "occ",
				"energy": -0.19203,
				"method": "rhf"
			},
			{
				"type": "unocc",
				"energy": -0.00257,
				"method": "rhf"
			},
			{
				"type": "unocc",
				"energy": 0.00355,
				"method": "rhf"
			},
			{
				"type": "unocc",
				"energy": 0.00832,
				"method": "rhf"
			},
			{
				"type": "unocc",
				"energy": 0.0143,
				"method": "rhf"
			},
			{
				"type": "unocc",
				"energy": 0.07193,
				"method": "rhf"
			}
		],
		"cosmo_sigma_profile": { 
			"-0.025": 0.0,
			"-0.024": 0.0,
			"-0.023": 0.0,
			"-0.022": 0.0,
			"-0.021": 0.0,
			"-0.02": 0.0,
			"-0.019": 0.0,
			"-0.018": 0.0,
			"-0.017": 0.0,
			"-0.016": 0.0,
			"-0.015": 0.0,
			"-0.014": 0.0,
			"-0.013": 0.0,
			"-0.012": 0.0,
			"-0.011": 0.0,
			"-0.01": 0.26257211069,
			"-0.009": 0.987604097661,
			"-0.008": 1.31125420134,
			"-0.007": 1.57477354863,
			"-0.006": 2.85740199729,
			"-0.005": 15.8081187155,
			"-0.004": 28.6972238175,
			"-0.003": 43.9983825282,
			"-0.002": 43.1333277266,
			"-0.001": 37.9194884976,
			"0.0": 31.4213690854,
			"0.001": 21.0938936668,
			"0.002": 16.3219519158,
			"0.003": 17.6702813047,
			"0.004": 16.9961527668,
			"0.005": 16.3324761397,
			"0.006": 15.4048495597,
			"0.007": 8.9912413233,
			"0.008": 1.08912086529,
			"0.009": 0.587485801638,
			"0.01": 0.772366148927,
			"0.011": 0.458501280997,
			"0.012": 0.783456454523,
			"0.013": 0.663407677818,
			"0.014": 0.823409546737,
			"0.015": 0.14910056906,
			"0.016": 0.438691977366,
			"0.017": 0.738958408065,
			"0.018": 0.443663002545,
			"0.019": 0.0297362587912,
			"0.02": 0.0,
			"0.021": 0.0,
			"0.022": 0.0,
			"0.023": 0.0,
			"0.024": 0.0,
			"0.025": 0.0
		}
	}
}
