{
	 "smiles": "CC1(C)CC2=C(C3CCCCC3O2)C(=O)C1", 
	 "Tm": 337.65, 
	 "num_atms": 36, 
	 "gaussian": { 
		 "optdone": 1, 
		 "sigma_profile": "yes", 
		 "theory": "DFT", 
		 "functional": "B3LYP", 
		 "basiset": "6-31G**", 
		 "properties": { 
			 "R2extent": 4310.0173, 
			 "electric_dipole_moment_norm": 3.08261561989, 
			 "electric_quadrupole_moment_norm": 14.8216088894, 
			 "total_energy": -696.007776202, 
			 "HOMO_LUMO_gap": 0.19101, 
			 "cosmo_polarized_energy": -10.19, 
			 "cosmo_cavitation_energy": 34.37, 
			 "cosmo_dispersion_energy": -24.39, 
			 "cosmo_repulsion_energy": 1.88, 
			 "cosmo_total_nonelectrostatic_energy": 11.87, 
			 "SMD_solvation_energy": 5.35 
		},
		"coords": [
			{
				"x": 1.1843308357,
				"y": 3.5729345934,
				"z": 1.7551769867,
				"element": "C" 
			},
			{
				"x": 0.8744778301,
				"y": 2.0931540572,
				"z": 1.471143359,
				"element": "C" 
			},
			{
				"x": 1.3412895682,
				"y": 1.7506946602,
				"z": 0.0414705513,
				"element": "C" 
			},
			{
				"x": -0.6569228948,
				"y": 1.8612060155,
				"z": 1.5975148388,
				"element": "C" 
			},
			{
				"x": -0.9782839242,
				"y": 0.4088878654,
				"z": 1.7163278026,
				"element": "C" 
			},
			{
				"x": -0.1314636524,
				"y": -0.5702764154,
				"z": 2.1088438741,
				"element": "C" 
			},
			{
				"x": -0.8577209998,
				"y": -1.8986202665,
				"z": 2.1118251451,
				"element": "C" 
			},
			{
				"x": -0.247792546,
				"y": -2.9787472153,
				"z": 1.1951854764,
				"element": "C" 
			},
			{
				"x": -0.306757771,
				"y": -2.6080875768,
				"z": -0.2966879602,
				"element": "C" 
			},
			{
				"x": -1.6928634377,
				"y": -2.0521589615,
				"z": -0.7392585947,
				"element": "C" 
			},
			{
				"x": -2.7548525911,
				"y": -2.1325892336,
				"z": 0.3683137554,
				"element": "C" 
			},
			{
				"x": -2.2905438006,
				"y": -1.4620271117,
				"z": 1.657041738,
				"element": "C" 
			},
			{
				"x": -2.2279679436,
				"y": -0.0021375918,
				"z": 1.4288188283,
				"element": "O" 
			},
			{
				"x": 1.2441721877,
				"y": -0.2882262243,
				"z": 2.471504861,
				"element": "C" 
			},
			{
				"x": 2.0567558282,
				"y": -1.155971274,
				"z": 2.7851407201,
				"element": "O" 
			},
			{
				"x": 1.6169868181,
				"y": 1.2006219162,
				"z": 2.4988226719,
				"element": "C" 
			},
			{
				"x": 0.6586754092,
				"y": 4.2274402676,
				"z": 1.0502385662,
				"element": "H" 
			},
			{
				"x": 0.8810129298,
				"y": 3.8576064302,
				"z": 2.7689237623,
				"element": "H" 
			},
			{
				"x": 2.2569102366,
				"y": 3.7722086227,
				"z": 1.6579144006,
				"element": "H" 
			},
			{
				"x": 2.4224263235,
				"y": 1.8958437341,
				"z": -0.0550963749,
				"element": "H" 
			},
			{
				"x": 0.8498247498,
				"y": 2.3973727943,
				"z": -0.6940448322,
				"element": "H" 
			},
			{
				"x": 1.1198684932,
				"y": 0.7121592586,
				"z": -0.2215175958,
				"element": "H" 
			},
			{
				"x": -1.1915745485,
				"y": 2.2902649602,
				"z": 0.7416299083,
				"element": "H" 
			},
			{
				"x": -1.0439299183,
				"y": 2.3757519029,
				"z": 2.4892877473,
				"element": "H" 
			},
			{
				"x": -0.893290485,
				"y": -2.3017514886,
				"z": 3.131377247,
				"element": "H" 
			},
			{
				"x": -0.786022584,
				"y": -3.9204323326,
				"z": 1.3648080028,
				"element": "H" 
			},
			{
				"x": 0.7871867357,
				"y": -3.1466449545,
				"z": 1.5053349681,
				"element": "H" 
			},
			{
				"x": -0.0451341108,
				"y": -3.49231025,
				"z": -0.8880530086,
				"element": "H" 
			},
			{
				"x": 0.4682719744,
				"y": -1.864105495,
				"z": -0.5104057602,
				"element": "H" 
			},
			{
				"x": -2.0571552827,
				"y": -2.5850753179,
				"z": -1.6238047328,
				"element": "H" 
			},
			{
				"x": -1.5945609204,
				"y": -1.0031564065,
				"z": -1.0383735292,
				"element": "H" 
			},
			{
				"x": -3.6912900698,
				"y": -1.6692649351,
				"z": 0.0386705019,
				"element": "H" 
			},
			{
				"x": -2.9885858332,
				"y": -3.179195782,
				"z": 0.6019731285,
				"element": "H" 
			},
			{
				"x": -3.0315362863,
				"y": -1.5978822415,
				"z": 2.4506902982,
				"element": "H" 
			},
			{
				"x": 1.3978346952,
				"y": 1.5609449941,
				"z": 3.5150809482,
				"element": "H" 
			},
			{
				"x": 2.7012249851,
				"y": 1.2751690019,
				"z": 2.3686823005,
				"element": "H" 
			}
		],
		 "valence_orbital": [ 
			{
				"type": "occ",
				"energy": -0.31134,
				"method": "rhf"
			},
			{
				"type": "occ",
				"energy": -0.30836,
				"method": "rhf"
			},
			{
				"type": "occ",
				"energy": -0.30291,
				"method": "rhf"
			},
			{
				"type": "occ",
				"energy": -0.22493,
				"method": "rhf"
			},
			{
				"type": "occ",
				"energy": -0.21779,
				"method": "rhf"
			},
			{
				"type": "unocc",
				"energy": -0.02678,
				"method": "rhf"
			},
			{
				"type": "unocc",
				"energy": 0.05862,
				"method": "rhf"
			},
			{
				"type": "unocc",
				"energy": 0.06615,
				"method": "rhf"
			},
			{
				"type": "unocc",
				"energy": 0.09287,
				"method": "rhf"
			},
			{
				"type": "unocc",
				"energy": 0.09383,
				"method": "rhf"
			}
		],
		"cosmo_sigma_profile": { 
			"-0.025": 0.0,
			"-0.024": 0.0,
			"-0.023": 0.0,
			"-0.022": 0.0,
			"-0.021": 0.0,
			"-0.02": 0.0,
			"-0.019": 0.0,
			"-0.018": 0.0,
			"-0.017": 0.0,
			"-0.016": 0.0,
			"-0.015": 0.0,
			"-0.014": 0.0,
			"-0.013": 0.0,
			"-0.012": 0.0,
			"-0.011": 0.0,
			"-0.01": 0.0,
			"-0.009": 0.0,
			"-0.008": 0.0,
			"-0.007": 0.0,
			"-0.006": 1.08048517485,
			"-0.005": 10.4721973507,
			"-0.004": 22.267082113,
			"-0.003": 36.7854066887,
			"-0.002": 38.6866601347,
			"-0.001": 42.5195500756,
			"0.0": 36.9050193714,
			"0.001": 29.1091315646,
			"0.002": 9.91505143235,
			"0.003": 3.65690332933,
			"0.004": 2.9679832978,
			"0.005": 2.8693725328,
			"0.006": 3.20780326651,
			"0.007": 2.97353378318,
			"0.008": 2.51239143116,
			"0.009": 3.3536643178,
			"0.01": 3.02165427445,
			"0.011": 1.76373164154,
			"0.012": 2.31770811713,
			"0.013": 3.35411616532,
			"0.014": 4.20459698632,
			"0.015": 1.27702792015,
			"0.016": 0.0978192705951,
			"0.017": 0.0,
			"0.018": 0.0,
			"0.019": 0.0,
			"0.02": 0.0,
			"0.021": 0.0,
			"0.022": 0.0,
			"0.023": 0.0,
			"0.024": 0.0,
			"0.025": 0.0
		}
	}
}
