{
	 "smiles": "O=C1NC2=C(CCCC2)C=C1C#N", 
	 "Tm": 520.15, 
	 "num_atms": 23, 
	 "gaussian": { 
		 "optdone": 1, 
		 "sigma_profile": "yes", 
		 "theory": "DFT", 
		 "functional": "B3LYP", 
		 "basiset": "6-31G**", 
		 "properties": { 
			 "R2extent": 2847.2979, 
			 "electric_dipole_moment_norm": 9.2241171442, 
			 "electric_quadrupole_moment_norm": 29.4570993767, 
			 "total_energy": -571.826549538, 
			 "HOMO_LUMO_gap": 0.15505, 
			 "cosmo_polarized_energy": -20.89, 
			 "cosmo_cavitation_energy": 26.86, 
			 "cosmo_dispersion_energy": -19.53, 
			 "cosmo_repulsion_energy": 1.55, 
			 "cosmo_total_nonelectrostatic_energy": 8.87, 
			 "SMD_solvation_energy": 5.81 
		},
		"coords": [
			{
				"x": 3.2753342896,
				"y": 1.6600057582,
				"z": -0.661718096,
				"element": "O" 
			},
			{
				"x": 2.375727989,
				"y": 0.8996233812,
				"z": -0.3346659951,
				"element": "C" 
			},
			{
				"x": 1.1805223214,
				"y": 0.8453529257,
				"z": -1.0794020277,
				"element": "N" 
			},
			{
				"x": 0.0921110806,
				"y": 0.053457119,
				"z": -0.8419647128,
				"element": "C" 
			},
			{
				"x": 0.1059171121,
				"y": -0.8135685745,
				"z": 0.2289426212,
				"element": "C" 
			},
			{
				"x": -1.0776036191,
				"y": -1.7092092186,
				"z": 0.5394581622,
				"element": "C" 
			},
			{
				"x": -2.0369594989,
				"y": -1.8486246783,
				"z": -0.6507331618,
				"element": "C" 
			},
			{
				"x": -2.3415773046,
				"y": -0.4773173577,
				"z": -1.2659190175,
				"element": "C" 
			},
			{
				"x": -1.0600443779,
				"y": 0.1714924362,
				"z": -1.8089784114,
				"element": "C" 
			},
			{
				"x": 1.2688275035,
				"y": -0.8275447724,
				"z": 1.0436524147,
				"element": "C" 
			},
			{
				"x": 2.3626565337,
				"y": -0.0248531732,
				"z": 0.7999184966,
				"element": "C" 
			},
			{
				"x": 3.5142664151,
				"y": -0.0721462138,
				"z": 1.6416703688,
				"element": "C" 
			},
			{
				"x": 4.4373058626,
				"y": -0.1348834898,
				"z": 2.3474835169,
				"element": "N" 
			},
			{
				"x": 1.1719919515,
				"y": 1.4843395958,
				"z": -1.8666438779,
				"element": "H" 
			},
			{
				"x": -1.6254887334,
				"y": -1.3032779559,
				"z": 1.4023041249,
				"element": "H" 
			},
			{
				"x": -0.716595598,
				"y": -2.6967631075,
				"z": 0.8504260802,
				"element": "H" 
			},
			{
				"x": -2.9618443,
				"y": -2.3374470509,
				"z": -0.3274260034,
				"element": "H" 
			},
			{
				"x": -1.5857150189,
				"y": -2.4965120105,
				"z": -1.4138150803,
				"element": "H" 
			},
			{
				"x": -3.0751808886,
				"y": -0.5653385366,
				"z": -2.0737044029,
				"element": "H" 
			},
			{
				"x": -2.7861215594,
				"y": 0.1744241092,
				"z": -0.5030813381,
				"element": "H" 
			},
			{
				"x": -1.2310847026,
				"y": 1.2295697419,
				"z": -2.0454154594,
				"element": "H" 
			},
			{
				"x": -0.7686322817,
				"y": -0.3099301936,
				"z": -2.753994837,
				"element": "H" 
			},
			{
				"x": 1.300886824,
				"y": -1.5030487339,
				"z": 1.8951066358,
				"element": "H" 
			}
		],
		 "valence_orbital": [ 
			{
				"type": "occ",
				"energy": -0.33803,
				"method": "rhf"
			},
			{
				"type": "occ",
				"energy": -0.32103,
				"method": "rhf"
			},
			{
				"type": "occ",
				"energy": -0.29813,
				"method": "rhf"
			},
			{
				"type": "occ",
				"energy": -0.26417,
				"method": "rhf"
			},
			{
				"type": "occ",
				"energy": -0.22596,
				"method": "rhf"
			},
			{
				"type": "unocc",
				"energy": -0.07091,
				"method": "rhf"
			},
			{
				"type": "unocc",
				"energy": -0.00257,
				"method": "rhf"
			},
			{
				"type": "unocc",
				"energy": 0.04177,
				"method": "rhf"
			},
			{
				"type": "unocc",
				"energy": 0.05631,
				"method": "rhf"
			},
			{
				"type": "unocc",
				"energy": 0.06393,
				"method": "rhf"
			}
		],
		"cosmo_sigma_profile": { 
			"-0.025": 0.0,
			"-0.024": 0.0,
			"-0.023": 0.0,
			"-0.022": 0.0,
			"-0.021": 0.0,
			"-0.02": 0.0,
			"-0.019": 0.0,
			"-0.018": 0.0,
			"-0.017": 0.0,
			"-0.016": 0.642839536336,
			"-0.015": 0.934505574222,
			"-0.014": 1.71119476076,
			"-0.013": 0.907025082301,
			"-0.012": 1.01705852623,
			"-0.011": 0.962475120038,
			"-0.01": 1.47103893068,
			"-0.009": 2.13432553042,
			"-0.008": 3.63527745417,
			"-0.007": 4.23210781088,
			"-0.006": 7.39327774023,
			"-0.005": 9.05144450953,
			"-0.004": 16.5150680572,
			"-0.003": 28.3646110057,
			"-0.002": 29.0603826864,
			"-0.001": 25.8826175344,
			"0.0": 16.9386578969,
			"0.001": 7.13185722321,
			"0.002": 2.84226592435,
			"0.003": 1.61331778215,
			"0.004": 3.16896674373,
			"0.005": 3.05694651125,
			"0.006": 3.62547827002,
			"0.007": 4.89296985444,
			"0.008": 4.87567408942,
			"0.009": 5.26597136994,
			"0.01": 5.22855403952,
			"0.011": 4.68220169426,
			"0.012": 4.7286147937,
			"0.013": 7.82319439894,
			"0.014": 3.39723102991,
			"0.015": 0.0127041937565,
			"0.016": 0.0,
			"0.017": 0.0,
			"0.018": 0.0,
			"0.019": 0.0,
			"0.02": 0.0,
			"0.021": 0.0,
			"0.022": 0.0,
			"0.023": 0.0,
			"0.024": 0.0,
			"0.025": 0.0
		}
	}
}
