{
	 "smiles": "COC1=C(OC)C=C2CN(CCC2=C1)C(=O)CCl", 
	 "Tm": 505.15, 
	 "num_atms": 34, 
	 "gaussian": { 
		 "optdone": 1, 
		 "sigma_profile": "yes", 
		 "theory": "DFT", 
		 "functional": "B3LYP", 
		 "basiset": "6-31G**", 
		 "properties": { 
			 "R2extent": 7207.4051, 
			 "electric_dipole_moment_norm": 5.34004699418, 
			 "electric_quadrupole_moment_norm": 10.3798055064, 
			 "total_energy": -1245.62676909, 
			 "HOMO_LUMO_gap": 0.19382, 
			 "cosmo_polarized_energy": -15.52, 
			 "cosmo_cavitation_energy": 37.82, 
			 "cosmo_dispersion_energy": -27.22, 
			 "cosmo_repulsion_energy": 2.11, 
			 "cosmo_total_nonelectrostatic_energy": 12.71, 
			 "SMD_solvation_energy": 7.31 
		},
		"coords": [
			{
				"x": -0.0225961438,
				"y": -4.6248781301,
				"z": 0.8294246364,
				"element": "C" 
			},
			{
				"x": -0.7546302012,
				"y": -3.78681483,
				"z": -0.0504008656,
				"element": "O" 
			},
			{
				"x": -0.5299105024,
				"y": -2.4404296184,
				"z": 0.0067012992,
				"element": "C" 
			},
			{
				"x": -1.3228753158,
				"y": -1.6388179495,
				"z": -0.8488019616,
				"element": "C" 
			},
			{
				"x": -2.2959194525,
				"y": -2.1817495227,
				"z": -1.6511705028,
				"element": "O" 
			},
			{
				"x": -1.8342049683,
				"y": -2.9925139181,
				"z": -2.7338955905,
				"element": "C" 
			},
			{
				"x": -1.1649180179,
				"y": -0.2603867817,
				"z": -0.825129994,
				"element": "C" 
			},
			{
				"x": -0.2406525563,
				"y": 0.3637609177,
				"z": 0.0258239332,
				"element": "C" 
			},
			{
				"x": -0.1295696572,
				"y": 1.8762678851,
				"z": -0.0063301575,
				"element": "C" 
			},
			{
				"x": 0.7607077016,
				"y": 2.402952593,
				"z": 1.0291730758,
				"element": "N" 
			},
			{
				"x": 1.9611116928,
				"y": 1.6103151785,
				"z": 1.2841865046,
				"element": "C" 
			},
			{
				"x": 1.5722934841,
				"y": 0.2143768388,
				"z": 1.7783339073,
				"element": "C" 
			},
			{
				"x": 0.5571830814,
				"y": -0.4278700216,
				"z": 0.8561688698,
				"element": "C" 
			},
			{
				"x": 0.4038279495,
				"y": -1.824224924,
				"z": 0.8377494503,
				"element": "C" 
			},
			{
				"x": 0.4371723745,
				"y": 3.5995809105,
				"z": 1.6031636924,
				"element": "C" 
			},
			{
				"x": -0.5476489333,
				"y": 4.2525185444,
				"z": 1.2708820032,
				"element": "O" 
			},
			{
				"x": 1.3573658273,
				"y": 4.1712845714,
				"z": 2.6864495862,
				"element": "C" 
			},
			{
				"x": 1.3656598903,
				"y": 3.1989821462,
				"z": 4.2245075567,
				"element": "Cl" 
			},
			{
				"x": -0.3749469984,
				"y": -5.6400924913,
				"z": 0.6408961714,
				"element": "H" 
			},
			{
				"x": 1.0567399301,
				"y": -4.5754627268,
				"z": 0.6345077086,
				"element": "H" 
			},
			{
				"x": -0.2088952449,
				"y": -4.3665323478,
				"z": 1.8795640935,
				"element": "H" 
			},
			{
				"x": -2.7257269944,
				"y": -3.2970403321,
				"z": -3.2861336715,
				"element": "H" 
			},
			{
				"x": -1.3054020229,
				"y": -3.8805034069,
				"z": -2.3755636163,
				"element": "H" 
			},
			{
				"x": -1.1767593897,
				"y": -2.4184829814,
				"z": -3.4003142259,
				"element": "H" 
			},
			{
				"x": -1.7988845457,
				"y": 0.3279227153,
				"z": -1.4831690578,
				"element": "H" 
			},
			{
				"x": 0.2269539013,
				"y": 2.2035406263,
				"z": -0.996435668,
				"element": "H" 
			},
			{
				"x": -1.1044107025,
				"y": 2.3462033205,
				"z": 0.1403126887,
				"element": "H" 
			},
			{
				"x": 2.5337897629,
				"y": 1.5298851864,
				"z": 0.348857956,
				"element": "H" 
			},
			{
				"x": 2.5930024759,
				"y": 2.1081299778,
				"z": 2.017538209,
				"element": "H" 
			},
			{
				"x": 2.4710481126,
				"y": -0.409900004,
				"z": 1.8507259481,
				"element": "H" 
			},
			{
				"x": 1.1648627166,
				"y": 0.3051351798,
				"z": 2.7934945633,
				"element": "H" 
			},
			{
				"x": 1.0262331369,
				"y": -2.422743254,
				"z": 1.494205576,
				"element": "H" 
			},
			{
				"x": 0.9632307105,
				"y": 5.1522488676,
				"z": 2.9394014648,
				"element": "H" 
			},
			{
				"x": 2.3957688989,
				"y": 4.2585377814,
				"z": 2.361276417,
				"element": "H" 
			}
		],
		 "valence_orbital": [ 
			{
				"type": "occ",
				"energy": -0.27336,
				"method": "rhf"
			},
			{
				"type": "occ",
				"energy": -0.25531,
				"method": "rhf"
			},
			{
				"type": "occ",
				"energy": -0.24824,
				"method": "rhf"
			},
			{
				"type": "occ",
				"energy": -0.23491,
				"method": "rhf"
			},
			{
				"type": "occ",
				"energy": -0.21196,
				"method": "rhf"
			},
			{
				"type": "unocc",
				"energy": -0.01814,
				"method": "rhf"
			},
			{
				"type": "unocc",
				"energy": -0.00189,
				"method": "rhf"
			},
			{
				"type": "unocc",
				"energy": 0.00872,
				"method": "rhf"
			},
			{
				"type": "unocc",
				"energy": 0.05341,
				"method": "rhf"
			},
			{
				"type": "unocc",
				"energy": 0.08477,
				"method": "rhf"
			}
		],
		"cosmo_sigma_profile": { 
			"-0.025": 0.0,
			"-0.024": 0.0,
			"-0.023": 0.0,
			"-0.022": 0.0,
			"-0.021": 0.0,
			"-0.02": 0.0,
			"-0.019": 0.0,
			"-0.018": 0.0,
			"-0.017": 0.0,
			"-0.016": 0.0,
			"-0.015": 0.0,
			"-0.014": 0.0,
			"-0.013": 0.0,
			"-0.012": 0.0,
			"-0.011": 0.0,
			"-0.01": 0.401114254438,
			"-0.009": 3.1906899374,
			"-0.008": 3.85192515888,
			"-0.007": 4.0080832351,
			"-0.006": 11.6365141492,
			"-0.005": 29.8003599741,
			"-0.004": 32.5704618691,
			"-0.003": 32.9035978569,
			"-0.002": 24.1249549601,
			"-0.001": 19.4758201414,
			"0.0": 17.7635508846,
			"0.001": 17.8239552022,
			"0.002": 15.9552580437,
			"0.003": 14.9945275619,
			"0.004": 17.1214544536,
			"0.005": 17.851723015,
			"0.006": 8.18700256293,
			"0.007": 3.79628473811,
			"0.008": 2.99161879365,
			"0.009": 3.11294084479,
			"0.01": 3.43307176258,
			"0.011": 5.08213899964,
			"0.012": 3.61027584199,
			"0.013": 5.14014647309,
			"0.014": 1.81613992215,
			"0.015": 0.0331425505579,
			"0.016": 0.0,
			"0.017": 0.0,
			"0.018": 0.0,
			"0.019": 0.0,
			"0.02": 0.0,
			"0.021": 0.0,
			"0.022": 0.0,
			"0.023": 0.0,
			"0.024": 0.0,
			"0.025": 0.0
		}
	}
}
