{
	 "smiles": "N#CCC1=CC=CC=C1", 
	 "Tm": 249.25, 
	 "num_atms": 16, 
	 "gaussian": { 
		 "optdone": 1, 
		 "sigma_profile": "yes", 
		 "theory": "DFT", 
		 "functional": "B3LYP", 
		 "basiset": "6-31G**", 
		 "properties": { 
			 "R2extent": 1930.1459, 
			 "electric_dipole_moment_norm": 4.02097795194, 
			 "electric_quadrupole_moment_norm": 10.821849901, 
			 "total_energy": -363.803901518, 
			 "HOMO_LUMO_gap": 0.24093, 
			 "cosmo_polarized_energy": -10.21, 
			 "cosmo_cavitation_energy": 21.04, 
			 "cosmo_dispersion_energy": -14.78, 
			 "cosmo_repulsion_energy": 1.22, 
			 "cosmo_total_nonelectrostatic_energy": 7.49, 
			 "SMD_solvation_energy": 5.1 
		},
		"coords": [
			{
				"x": -1.5241927121,
				"y": -2.0219484319,
				"z": 1.3726483777,
				"element": "N" 
			},
			{
				"x": -1.4890543173,
				"y": -0.921298399,
				"z": 1.7394302639,
				"element": "C" 
			},
			{
				"x": -1.4376593972,
				"y": 0.4736646749,
				"z": 2.1995999507,
				"element": "C" 
			},
			{
				"x": -0.2202399879,
				"y": 1.2253407534,
				"z": 1.6763151834,
				"element": "C" 
			},
			{
				"x": 0.9751931453,
				"y": 1.2290542944,
				"z": 2.4030512542,
				"element": "C" 
			},
			{
				"x": 2.0928489508,
				"y": 1.9109973997,
				"z": 1.9203942172,
				"element": "C" 
			},
			{
				"x": 2.0248312524,
				"y": 2.5950151632,
				"z": 0.7053913288,
				"element": "C" 
			},
			{
				"x": 0.8348409856,
				"y": 2.5943715836,
				"z": -0.0244627116,
				"element": "C" 
			},
			{
				"x": -0.2822517738,
				"y": 1.9121473331,
				"z": 0.4590587698,
				"element": "C" 
			},
			{
				"x": -2.3615267518,
				"y": 0.9693361383,
				"z": 1.8804528397,
				"element": "H" 
			},
			{
				"x": -1.4442794385,
				"y": 0.4688386045,
				"z": 3.2954921259,
				"element": "H" 
			},
			{
				"x": 1.0323970528,
				"y": 0.6968210504,
				"z": 3.3491621589,
				"element": "H" 
			},
			{
				"x": 3.0148260275,
				"y": 1.9089991707,
				"z": 2.4944176885,
				"element": "H" 
			},
			{
				"x": 2.8938486949,
				"y": 3.1275765226,
				"z": 0.3304117401,
				"element": "H" 
			},
			{
				"x": 0.7742470049,
				"y": 3.1260968077,
				"z": -0.9695261511,
				"element": "H" 
			},
			{
				"x": -1.2068287355,
				"y": 1.9132873345,
				"z": -0.1126370361,
				"element": "H" 
			}
		],
		 "valence_orbital": [ 
			{
				"type": "occ",
				"energy": -0.35349,
				"method": "rhf"
			},
			{
				"type": "occ",
				"energy": -0.32175,
				"method": "rhf"
			},
			{
				"type": "occ",
				"energy": -0.32114,
				"method": "rhf"
			},
			{
				"type": "occ",
				"energy": -0.26241,
				"method": "rhf"
			},
			{
				"type": "occ",
				"energy": -0.25964,
				"method": "rhf"
			},
			{
				"type": "unocc",
				"energy": -0.01871,
				"method": "rhf"
			},
			{
				"type": "unocc",
				"energy": -0.01572,
				"method": "rhf"
			},
			{
				"type": "unocc",
				"energy": 0.03995,
				"method": "rhf"
			},
			{
				"type": "unocc",
				"energy": 0.04344,
				"method": "rhf"
			},
			{
				"type": "unocc",
				"energy": 0.08843,
				"method": "rhf"
			}
		],
		"cosmo_sigma_profile": { 
			"-0.025": 0.0,
			"-0.024": 0.0,
			"-0.023": 0.0,
			"-0.022": 0.0,
			"-0.021": 0.0,
			"-0.02": 0.0,
			"-0.019": 0.0,
			"-0.018": 0.0,
			"-0.017": 0.0,
			"-0.016": 0.0,
			"-0.015": 0.0,
			"-0.014": 0.0,
			"-0.013": 0.0,
			"-0.012": 0.0,
			"-0.011": 0.0,
			"-0.01": 0.00469214890191,
			"-0.009": 2.59907179848,
			"-0.008": 6.61393300462,
			"-0.007": 7.2145925245,
			"-0.006": 13.2971312698,
			"-0.005": 15.6503183664,
			"-0.004": 13.1183027629,
			"-0.003": 10.4195358875,
			"-0.002": 8.4938979228,
			"-0.001": 7.96127202811,
			"0.0": 7.85295699049,
			"0.001": 8.86293440902,
			"0.002": 9.74975636602,
			"0.003": 9.83275737827,
			"0.004": 10.8108515434,
			"0.005": 11.1091830333,
			"0.006": 5.00275593077,
			"0.007": 2.67817286237,
			"0.008": 3.00693712774,
			"0.009": 3.95006794431,
			"0.01": 2.9816515334,
			"0.011": 3.17761174113,
			"0.012": 2.52001381685,
			"0.013": 2.06120409337,
			"0.014": 0.357096068533,
			"0.015": 0.0,
			"0.016": 0.0,
			"0.017": 0.0,
			"0.018": 0.0,
			"0.019": 0.0,
			"0.02": 0.0,
			"0.021": 0.0,
			"0.022": 0.0,
			"0.023": 0.0,
			"0.024": 0.0,
			"0.025": 0.0
		}
	}
}
