{
	 "smiles": "CC1=C(N)C=C(C=C1)C#N", 
	 "Tm": 350.15, 
	 "num_atms": 18, 
	 "gaussian": { 
		 "optdone": 1, 
		 "sigma_profile": "yes", 
		 "theory": "DFT", 
		 "functional": "B3LYP", 
		 "basiset": "6-31G**", 
		 "properties": { 
			 "R2extent": 1901.2589, 
			 "electric_dipole_moment_norm": 5.98118556642, 
			 "electric_quadrupole_moment_norm": 22.3007790886, 
			 "total_energy": -419.171260688, 
			 "HOMO_LUMO_gap": 0.18033, 
			 "cosmo_polarized_energy": -12.99, 
			 "cosmo_cavitation_energy": 22.71, 
			 "cosmo_dispersion_energy": -16.27, 
			 "cosmo_repulsion_energy": 1.32, 
			 "cosmo_total_nonelectrostatic_energy": 7.76, 
			 "SMD_solvation_energy": 5.28 
		},
		"coords": [
			{
				"x": -0.8874004315,
				"y": -0.0697417228,
				"z": 1.9845886499,
				"element": "C" 
			},
			{
				"x": -0.3005556751,
				"y": 0.26031113,
				"z": 0.6361954918,
				"element": "C" 
			},
			{
				"x": -0.779322771,
				"y": 1.3781030833,
				"z": -0.0911802848,
				"element": "C" 
			},
			{
				"x": -1.7619734547,
				"y": 2.2017834125,
				"z": 0.4550600223,
				"element": "N" 
			},
			{
				"x": -0.2148848462,
				"y": 1.6838206605,
				"z": -1.3360990135,
				"element": "C" 
			},
			{
				"x": 0.8164864246,
				"y": 0.8949112447,
				"z": -1.8640490503,
				"element": "C" 
			},
			{
				"x": 1.2924750992,
				"y": -0.2163563056,
				"z": -1.1529812871,
				"element": "C" 
			},
			{
				"x": 0.7240757046,
				"y": -0.5117407442,
				"z": 0.0835794744,
				"element": "C" 
			},
			{
				"x": 1.3782099754,
				"y": 1.2279395265,
				"z": -3.1412456869,
				"element": "C" 
			},
			{
				"x": 1.8329631167,
				"y": 1.4969351093,
				"z": -4.1779364341,
				"element": "N" 
			},
			{
				"x": -0.3744474722,
				"y": -0.9199326688,
				"z": 2.439997931,
				"element": "H" 
			},
			{
				"x": -0.8100763287,
				"y": 0.7816280631,
				"z": 2.6720860248,
				"element": "H" 
			},
			{
				"x": -1.9527984514,
				"y": -0.3322043111,
				"z": 1.9156711132,
				"element": "H" 
			},
			{
				"x": -2.4107923684,
				"y": 1.7587023497,
				"z": 1.0895139394,
				"element": "H" 
			},
			{
				"x": -2.2275649478,
				"y": 2.812856365,
				"z": -0.2012512671,
				"element": "H" 
			},
			{
				"x": -0.5745045098,
				"y": 2.5404359219,
				"z": -1.8983514037,
				"element": "H" 
			},
			{
				"x": 2.0881443478,
				"y": -0.8271998468,
				"z": -1.5635036803,
				"element": "H" 
			},
			{
				"x": 1.0881665885,
				"y": -1.3690512671,
				"z": 0.6435054609,
				"element": "H" 
			}
		],
		 "valence_orbital": [ 
			{
				"type": "occ",
				"energy": -0.34739,
				"method": "rhf"
			},
			{
				"type": "occ",
				"energy": -0.32172,
				"method": "rhf"
			},
			{
				"type": "occ",
				"energy": -0.31247,
				"method": "rhf"
			},
			{
				"type": "occ",
				"energy": -0.2548,
				"method": "rhf"
			},
			{
				"type": "occ",
				"energy": -0.21947,
				"method": "rhf"
			},
			{
				"type": "unocc",
				"energy": -0.03914,
				"method": "rhf"
			},
			{
				"type": "unocc",
				"energy": -0.00322,
				"method": "rhf"
			},
			{
				"type": "unocc",
				"energy": 0.04552,
				"method": "rhf"
			},
			{
				"type": "unocc",
				"energy": 0.06295,
				"method": "rhf"
			},
			{
				"type": "unocc",
				"energy": 0.08799,
				"method": "rhf"
			}
		],
		"cosmo_sigma_profile": { 
			"-0.025": 0.0,
			"-0.024": 0.0,
			"-0.023": 0.0,
			"-0.022": 0.0,
			"-0.021": 0.0,
			"-0.02": 0.0,
			"-0.019": 0.0,
			"-0.018": 0.0,
			"-0.017": 0.0,
			"-0.016": 0.0,
			"-0.015": 0.0,
			"-0.014": 0.0,
			"-0.013": 0.812049107358,
			"-0.012": 2.55318673172,
			"-0.011": 3.23083471724,
			"-0.01": 3.4652886674,
			"-0.009": 3.16417236142,
			"-0.008": 3.10851369567,
			"-0.007": 5.10837420876,
			"-0.006": 8.42825475877,
			"-0.005": 11.5676692835,
			"-0.004": 11.8127083817,
			"-0.003": 10.0050180094,
			"-0.002": 10.5385248968,
			"-0.001": 13.7981983495,
			"0.0": 14.5829634574,
			"0.001": 11.1971153296,
			"0.002": 9.7158560327,
			"0.003": 11.5532192192,
			"0.004": 12.5780512275,
			"0.005": 5.2867652046,
			"0.006": 3.8063931563,
			"0.007": 2.83527600015,
			"0.008": 4.02787796218,
			"0.009": 4.61090818939,
			"0.01": 3.78871837304,
			"0.011": 3.47229733073,
			"0.012": 3.24776819777,
			"0.013": 2.71291201332,
			"0.014": 0.545635575938,
			"0.015": 0.0,
			"0.016": 0.0,
			"0.017": 0.0,
			"0.018": 0.0,
			"0.019": 0.0,
			"0.02": 0.0,
			"0.021": 0.0,
			"0.022": 0.0,
			"0.023": 0.0,
			"0.024": 0.0,
			"0.025": 0.0
		}
	}
}
