{
	 "smiles": "O=C(C1=NC=CS1)C1=CC=CC=C1", 
	 "Tm": 314.15, 
	 "num_atms": 20, 
	 "gaussian": { 
		 "optdone": 1, 
		 "sigma_profile": "yes", 
		 "theory": "DFT", 
		 "functional": "B3LYP", 
		 "basiset": "6-31G**", 
		 "properties": { 
			 "R2extent": 3619.9668, 
			 "electric_dipole_moment_norm": 2.30302537763, 
			 "electric_quadrupole_moment_norm": 18.940294801, 
			 "total_energy": -913.433240087, 
			 "HOMO_LUMO_gap": 0.16819, 
			 "cosmo_polarized_energy": -8.02, 
			 "cosmo_cavitation_energy": 26.27, 
			 "cosmo_dispersion_energy": -20.2, 
			 "cosmo_repulsion_energy": 1.52, 
			 "cosmo_total_nonelectrostatic_energy": 7.59, 
			 "SMD_solvation_energy": 4.31 
		},
		"coords": [
			{
				"x": 0.5583402367,
				"y": -1.5527893943,
				"z": -2.546929366,
				"element": "O" 
			},
			{
				"x": -0.0167324025,
				"y": -0.8651102557,
				"z": -1.7057765496,
				"element": "C" 
			},
			{
				"x": -1.492863262,
				"y": -0.7053228923,
				"z": -1.8724399171,
				"element": "C" 
			},
			{
				"x": -2.3464835661,
				"y": -0.0379924851,
				"z": -1.1387871041,
				"element": "N" 
			},
			{
				"x": -3.6163985306,
				"y": -0.1436212061,
				"z": -1.6338600127,
				"element": "C" 
			},
			{
				"x": -3.7446859372,
				"y": -0.9047528497,
				"z": -2.7679837773,
				"element": "C" 
			},
			{
				"x": -2.2146853421,
				"y": -1.5266785345,
				"z": -3.253852489,
				"element": "S" 
			},
			{
				"x": 0.7381582721,
				"y": -0.2314026672,
				"z": -0.5836686905,
				"element": "C" 
			},
			{
				"x": 0.1566862479,
				"y": 0.5670968779,
				"z": 0.4158467019,
				"element": "C" 
			},
			{
				"x": 0.9541415133,
				"y": 1.1127808292,
				"z": 1.4217341601,
				"element": "C" 
			},
			{
				"x": 2.3286849271,
				"y": 0.8713748022,
				"z": 1.443474479,
				"element": "C" 
			},
			{
				"x": 2.9136179771,
				"y": 0.0775179189,
				"z": 0.4516781549,
				"element": "C" 
			},
			{
				"x": 2.1247693303,
				"y": -0.4694218898,
				"z": -0.5537099084,
				"element": "C" 
			},
			{
				"x": -4.4296177252,
				"y": 0.3604845854,
				"z": -1.1250784236,
				"element": "H" 
			},
			{
				"x": -4.6465878748,
				"y": -1.1210279337,
				"z": -3.3235475532,
				"element": "H" 
			},
			{
				"x": -0.9092471122,
				"y": 0.7535786133,
				"z": 0.3977036995,
				"element": "H" 
			},
			{
				"x": 0.4983302458,
				"y": 1.7290762835,
				"z": 2.1911747633,
				"element": "H" 
			},
			{
				"x": 2.9439277562,
				"y": 1.2996604059,
				"z": 2.2299619593,
				"element": "H" 
			},
			{
				"x": 3.9828351619,
				"y": -0.1126043896,
				"z": 0.4652818468,
				"element": "H" 
			},
			{
				"x": 2.5568100845,
				"y": -1.0877458182,
				"z": -1.3327219733,
				"element": "H" 
			}
		],
		 "valence_orbital": [ 
			{
				"type": "occ",
				"energy": -0.2912,
				"method": "rhf"
			},
			{
				"type": "occ",
				"energy": -0.26244,
				"method": "rhf"
			},
			{
				"type": "occ",
				"energy": -0.26023,
				"method": "rhf"
			},
			{
				"type": "occ",
				"energy": -0.25716,
				"method": "rhf"
			},
			{
				"type": "occ",
				"energy": -0.25489,
				"method": "rhf"
			},
			{
				"type": "unocc",
				"energy": -0.0867,
				"method": "rhf"
			},
			{
				"type": "unocc",
				"energy": -0.02172,
				"method": "rhf"
			},
			{
				"type": "unocc",
				"energy": -0.00495,
				"method": "rhf"
			},
			{
				"type": "unocc",
				"energy": 0.02367,
				"method": "rhf"
			},
			{
				"type": "unocc",
				"energy": 0.02687,
				"method": "rhf"
			}
		],
		"cosmo_sigma_profile": { 
			"-0.025": 0.0,
			"-0.024": 0.0,
			"-0.023": 0.0,
			"-0.022": 0.0,
			"-0.021": 0.0,
			"-0.02": 0.0,
			"-0.019": 0.0,
			"-0.018": 0.0,
			"-0.017": 0.0,
			"-0.016": 0.0,
			"-0.015": 0.0,
			"-0.014": 0.0,
			"-0.013": 0.0,
			"-0.012": 0.0,
			"-0.011": 0.0474831378013,
			"-0.01": 1.74152496247,
			"-0.009": 2.01666524523,
			"-0.008": 3.72239805699,
			"-0.007": 5.63246260278,
			"-0.006": 10.360407924,
			"-0.005": 12.5995011915,
			"-0.004": 13.4137050202,
			"-0.003": 13.1208338453,
			"-0.002": 12.4015854657,
			"-0.001": 15.9732667305,
			"0.0": 18.596685252,
			"0.001": 25.0834341188,
			"0.002": 24.6832186716,
			"0.003": 16.8976166935,
			"0.004": 15.6349156511,
			"0.005": 4.4458685955,
			"0.006": 3.51569133679,
			"0.007": 4.2303177567,
			"0.008": 2.07153747169,
			"0.009": 1.85434243226,
			"0.01": 2.73412091502,
			"0.011": 3.52042044435,
			"0.012": 0.510224631191,
			"0.013": 0.0,
			"0.014": 0.0,
			"0.015": 0.0,
			"0.016": 0.0,
			"0.017": 0.0,
			"0.018": 0.0,
			"0.019": 0.0,
			"0.02": 0.0,
			"0.021": 0.0,
			"0.022": 0.0,
			"0.023": 0.0,
			"0.024": 0.0,
			"0.025": 0.0
		}
	}
}
