{
	 "smiles": "CC1CC2=CC=CC=C2N1NC(=O)C1=CC(=C(Cl)C=C1)S(N)(=O)=O", 
	 "Tm": 434.15, 
	 "num_atms": 40, 
	 "gaussian": { 
		 "optdone": 1, 
		 "sigma_profile": "yes", 
		 "theory": "DFT", 
		 "functional": "B3LYP", 
		 "basiset": "6-31G**", 
		 "properties": { 
			 "R2extent": 11960.0583, 
			 "electric_dipole_moment_norm": 8.05701486966, 
			 "electric_quadrupole_moment_norm": 33.8423304995, 
			 "total_energy": -1867.56085499, 
			 "HOMO_LUMO_gap": 0.15217, 
			 "cosmo_polarized_energy": -27.27, 
			 "cosmo_cavitation_energy": 46.89, 
			 "cosmo_dispersion_energy": -32.34, 
			 "cosmo_repulsion_energy": 2.42, 
			 "cosmo_total_nonelectrostatic_energy": 16.98, 
			 "SMD_solvation_energy": 7.94 
		},
		"coords": [
			{
				"x": -3.061928815,
				"y": 1.6641868065,
				"z": -2.2407135732,
				"element": "C" 
			},
			{
				"x": -1.7711534482,
				"y": 0.8419178496,
				"z": -2.1658882025,
				"element": "C" 
			},
			{
				"x": -1.7037030178,
				"y": -0.2600207511,
				"z": -3.2573155301,
				"element": "C" 
			},
			{
				"x": -2.242717719,
				"y": -1.482664468,
				"z": -2.5437893025,
				"element": "C" 
			},
			{
				"x": -2.6995590082,
				"y": -2.7010065361,
				"z": -3.0253919309,
				"element": "C" 
			},
			{
				"x": -3.1185832654,
				"y": -3.682985485,
				"z": -2.1147347903,
				"element": "C" 
			},
			{
				"x": -3.072039831,
				"y": -3.4346599041,
				"z": -0.7416229056,
				"element": "C" 
			},
			{
				"x": -2.6109962404,
				"y": -2.2096445185,
				"z": -0.241349577,
				"element": "C" 
			},
			{
				"x": -2.1997969107,
				"y": -1.250342903,
				"z": -1.1625709152,
				"element": "C" 
			},
			{
				"x": -1.6631472688,
				"y": 0.0321283905,
				"z": -0.9098423664,
				"element": "N" 
			},
			{
				"x": -1.9716412284,
				"y": 0.6312019271,
				"z": 0.2999447273,
				"element": "N" 
			},
			{
				"x": -1.0481300921,
				"y": 1.2708378237,
				"z": 1.1059449553,
				"element": "C" 
			},
			{
				"x": -1.4410416129,
				"y": 2.0934689786,
				"z": 1.9260717299,
				"element": "O" 
			},
			{
				"x": 0.40878508,
				"y": 0.9286021016,
				"z": 0.9884202143,
				"element": "C" 
			},
			{
				"x": 1.2946522511,
				"y": 1.8947063347,
				"z": 1.4806115351,
				"element": "C" 
			},
			{
				"x": 2.6716228313,
				"y": 1.6931116714,
				"z": 1.4770789925,
				"element": "C" 
			},
			{
				"x": 3.1773379444,
				"y": 0.4794212563,
				"z": 0.9798736448,
				"element": "C" 
			},
			{
				"x": 4.8869186404,
				"y": 0.144473935,
				"z": 0.9218072767,
				"element": "Cl" 
			},
			{
				"x": 2.3007938987,
				"y": -0.5030238275,
				"z": 0.5166802482,
				"element": "C" 
			},
			{
				"x": 0.9253347581,
				"y": -0.2838393518,
				"z": 0.515780314,
				"element": "C" 
			},
			{
				"x": 3.7849335804,
				"y": 2.9846251523,
				"z": 2.1047357329,
				"element": "S" 
			},
			{
				"x": 2.8124240735,
				"y": 4.2120037279,
				"z": 2.6736770746,
				"element": "N" 
			},
			{
				"x": 4.4974830664,
				"y": 3.5376585833,
				"z": 0.95655948,
				"element": "O" 
			},
			{
				"x": 4.4670515339,
				"y": 2.4401130027,
				"z": 3.2741347189,
				"element": "O" 
			},
			{
				"x": -3.0867025617,
				"y": 2.225399481,
				"z": -3.1797951393,
				"element": "H" 
			},
			{
				"x": -3.9455131076,
				"y": 1.0171463767,
				"z": -2.2098798458,
				"element": "H" 
			},
			{
				"x": -3.1297254022,
				"y": 2.3911211071,
				"z": -1.4254650472,
				"element": "H" 
			},
			{
				"x": -0.9061181332,
				"y": 1.5105151042,
				"z": -2.2147064678,
				"element": "H" 
			},
			{
				"x": -2.2749439463,
				"y": 0.0153867264,
				"z": -4.1491241631,
				"element": "H" 
			},
			{
				"x": -0.6647894781,
				"y": -0.4236144514,
				"z": -3.5709504099,
				"element": "H" 
			},
			{
				"x": -2.7405768918,
				"y": -2.8915018272,
				"z": -4.0947322937,
				"element": "H" 
			},
			{
				"x": -3.4841289036,
				"y": -4.6375386912,
				"z": -2.4802514308,
				"element": "H" 
			},
			{
				"x": -3.4037125636,
				"y": -4.1992862,
				"z": -0.0450714673,
				"element": "H" 
			},
			{
				"x": -2.5844397586,
				"y": -2.0074789265,
				"z": 0.8243667315,
				"element": "H" 
			},
			{
				"x": -2.9216751947,
				"y": 0.9699417255,
				"z": 0.4454538075,
				"element": "H" 
			},
			{
				"x": 0.868515038,
				"y": 2.8063953583,
				"z": 1.8797661336,
				"element": "H" 
			},
			{
				"x": 2.7064655,
				"y": -1.4419364105,
				"z": 0.1568176504,
				"element": "H" 
			},
			{
				"x": 0.2659549725,
				"y": -1.0635795397,
				"z": 0.158246907,
				"element": "H" 
			},
			{
				"x": 2.2840282612,
				"y": 4.0017360399,
				"z": 3.5122195014,
				"element": "H" 
			},
			{
				"x": 2.3252629695,
				"y": 4.7510243314,
				"z": 1.968103983,
				"element": "H" 
			}
		],
		 "valence_orbital": [ 
			{
				"type": "occ",
				"energy": -0.28093,
				"method": "rhf"
			},
			{
				"type": "occ",
				"energy": -0.27352,
				"method": "rhf"
			},
			{
				"type": "occ",
				"energy": -0.26251,
				"method": "rhf"
			},
			{
				"type": "occ",
				"energy": -0.25774,
				"method": "rhf"
			},
			{
				"type": "occ",
				"energy": -0.21722,
				"method": "rhf"
			},
			{
				"type": "unocc",
				"energy": -0.06505,
				"method": "rhf"
			},
			{
				"type": "unocc",
				"energy": -0.0405,
				"method": "rhf"
			},
			{
				"type": "unocc",
				"energy": -0.01539,
				"method": "rhf"
			},
			{
				"type": "unocc",
				"energy": -0.00094,
				"method": "rhf"
			},
			{
				"type": "unocc",
				"energy": 0.01229,
				"method": "rhf"
			}
		],
		"cosmo_sigma_profile": { 
			"-0.025": 0.0,
			"-0.024": 0.0,
			"-0.023": 0.0,
			"-0.022": 0.0,
			"-0.021": 0.0,
			"-0.02": 0.0,
			"-0.019": 0.0,
			"-0.018": 0.0,
			"-0.017": 0.0,
			"-0.016": 1.70387995446,
			"-0.015": 3.24210529698,
			"-0.014": 2.40948500657,
			"-0.013": 5.44010375669,
			"-0.012": 3.77818876342,
			"-0.011": 3.13537046409,
			"-0.01": 2.25130454395,
			"-0.009": 3.18924377123,
			"-0.008": 5.90659089837,
			"-0.007": 5.92062403441,
			"-0.006": 7.17527368562,
			"-0.005": 16.9117009374,
			"-0.004": 30.9973026571,
			"-0.003": 36.2883282914,
			"-0.002": 30.3578281499,
			"-0.001": 31.439328032,
			"0.0": 33.0738797019,
			"0.001": 24.6060098947,
			"0.002": 15.8599553355,
			"0.003": 16.9155891533,
			"0.004": 12.724956027,
			"0.005": 11.646772299,
			"0.006": 13.4524647332,
			"0.007": 10.8757446595,
			"0.008": 4.89608817044,
			"0.009": 7.27645820659,
			"0.01": 12.1546822789,
			"0.011": 12.8982321124,
			"0.012": 5.00735085893,
			"0.013": 3.61300319816,
			"0.014": 0.139547679941,
			"0.015": 0.0,
			"0.016": 0.0,
			"0.017": 0.0,
			"0.018": 0.0,
			"0.019": 0.0,
			"0.02": 0.0,
			"0.021": 0.0,
			"0.022": 0.0,
			"0.023": 0.0,
			"0.024": 0.0,
			"0.025": 0.0
		}
	}
}
