{
	 "smiles": "CN1C(Cl)=NN=C1C1=CC=CC=C1", 
	 "Tm": 435.15, 
	 "num_atms": 21, 
	 "gaussian": { 
		 "optdone": 1, 
		 "sigma_profile": "yes", 
		 "theory": "DFT", 
		 "functional": "B3LYP", 
		 "basiset": "6-31G**", 
		 "properties": { 
			 "R2extent": 4203.0626, 
			 "electric_dipole_moment_norm": 5.82004765444, 
			 "electric_quadrupole_moment_norm": 17.8712022589, 
			 "total_energy": -972.20001577, 
			 "HOMO_LUMO_gap": 0.1976, 
			 "cosmo_polarized_energy": -14.95, 
			 "cosmo_cavitation_energy": 26.91, 
			 "cosmo_dispersion_energy": -19.99, 
			 "cosmo_repulsion_energy": 1.57, 
			 "cosmo_total_nonelectrostatic_energy": 8.48, 
			 "SMD_solvation_energy": 2.39 
		},
		"coords": [
			{
				"x": -0.3040886972,
				"y": 1.7411813069,
				"z": 2.6058804635,
				"element": "C" 
			},
			{
				"x": -0.8955679114,
				"y": 0.4092362491,
				"z": 2.5824983085,
				"element": "N" 
			},
			{
				"x": -1.2817621288,
				"y": -0.3408170674,
				"z": 3.6645222827,
				"element": "C" 
			},
			{
				"x": -1.2413584338,
				"y": 0.2741240819,
				"z": 5.2737014135,
				"element": "Cl" 
			},
			{
				"x": -1.6705665927,
				"y": -1.5390590039,
				"z": 3.3255911637,
				"element": "N" 
			},
			{
				"x": -1.5458797738,
				"y": -1.6110004111,
				"z": 1.9566046613,
				"element": "N" 
			},
			{
				"x": -1.088743075,
				"y": -0.4526740214,
				"z": 1.5172756256,
				"element": "C" 
			},
			{
				"x": -0.8150420003,
				"y": -0.1630671148,
				"z": 0.1027854899,
				"element": "C" 
			},
			{
				"x": -0.3644484704,
				"y": -1.2153956578,
				"z": -0.7129956685,
				"element": "C" 
			},
			{
				"x": -0.1207350871,
				"y": -1.0013510662,
				"z": -2.0667439277,
				"element": "C" 
			},
			{
				"x": -0.3197862969,
				"y": 0.2631465958,
				"z": -2.6276272321,
				"element": "C" 
			},
			{
				"x": -0.7792944079,
				"y": 1.3102171594,
				"z": -1.8279926765,
				"element": "C" 
			},
			{
				"x": -1.0315598598,
				"y": 1.0999867868,
				"z": -0.4720992288,
				"element": "C" 
			},
			{
				"x": 0.3710997168,
				"y": 1.8456321475,
				"z": 1.7566233822,
				"element": "H" 
			},
			{
				"x": 0.2600218286,
				"y": 1.8653046059,
				"z": 3.5310721973,
				"element": "H" 
			},
			{
				"x": -1.073109951,
				"y": 2.5179274733,
				"z": 2.5551330049,
				"element": "H" 
			},
			{
				"x": -0.2165297282,
				"y": -2.1929780572,
				"z": -0.2673482893,
				"element": "H" 
			},
			{
				"x": 0.229445525,
				"y": -1.8222649791,
				"z": -2.685514038,
				"element": "H" 
			},
			{
				"x": -0.1243592827,
				"y": 0.4290459673,
				"z": -3.6829516723,
				"element": "H" 
			},
			{
				"x": -0.9548614021,
				"y": 2.290714759,
				"z": -2.2607786592,
				"element": "H" 
			},
			{
				"x": -1.4291739714,
				"y": 1.9131902458,
				"z": 0.126363399,
				"element": "H" 
			}
		],
		 "valence_orbital": [ 
			{
				"type": "occ",
				"energy": -0.29906,
				"method": "rhf"
			},
			{
				"type": "occ",
				"energy": -0.28552,
				"method": "rhf"
			},
			{
				"type": "occ",
				"energy": -0.26481,
				"method": "rhf"
			},
			{
				"type": "occ",
				"energy": -0.25881,
				"method": "rhf"
			},
			{
				"type": "occ",
				"energy": -0.23578,
				"method": "rhf"
			},
			{
				"type": "unocc",
				"energy": -0.03818,
				"method": "rhf"
			},
			{
				"type": "unocc",
				"energy": -0.01531,
				"method": "rhf"
			},
			{
				"type": "unocc",
				"energy": 0.02065,
				"method": "rhf"
			},
			{
				"type": "unocc",
				"energy": 0.02542,
				"method": "rhf"
			},
			{
				"type": "unocc",
				"energy": 0.05111,
				"method": "rhf"
			}
		],
		"cosmo_sigma_profile": { 
			"-0.025": 0.0,
			"-0.024": 0.0,
			"-0.023": 0.0,
			"-0.022": 0.0,
			"-0.021": 0.0,
			"-0.02": 0.0,
			"-0.019": 0.0,
			"-0.018": 0.0,
			"-0.017": 0.0,
			"-0.016": 0.0,
			"-0.015": 0.0,
			"-0.014": 0.0,
			"-0.013": 0.0,
			"-0.012": 0.0,
			"-0.011": 0.0,
			"-0.01": 0.0,
			"-0.009": 0.0737158557889,
			"-0.008": 2.96548721225,
			"-0.007": 10.0237592934,
			"-0.006": 17.3828665651,
			"-0.005": 20.4094367248,
			"-0.004": 21.8658408884,
			"-0.003": 14.7489021589,
			"-0.002": 11.9335541477,
			"-0.001": 13.9384212492,
			"0.0": 12.3071347778,
			"0.001": 14.284617824,
			"0.002": 16.5347916537,
			"0.003": 15.3359321347,
			"0.004": 14.5453529409,
			"0.005": 6.05071382733,
			"0.006": 2.58309684572,
			"0.007": 2.1185404746,
			"0.008": 2.05468937256,
			"0.009": 2.13394247695,
			"0.01": 2.27077497803,
			"0.011": 3.03231557803,
			"0.012": 3.14686551705,
			"0.013": 3.03862145593,
			"0.014": 2.66900746699,
			"0.015": 2.40406471961,
			"0.016": 0.887797332767,
			"0.017": 0.0,
			"0.018": 0.0,
			"0.019": 0.0,
			"0.02": 0.0,
			"0.021": 0.0,
			"0.022": 0.0,
			"0.023": 0.0,
			"0.024": 0.0,
			"0.025": 0.0
		}
	}
}
