{
	 "smiles": "COC1=C(NC(=O)C2CCCN2)C=C(C)C=C1", 
	 "Tm": 377.15, 
	 "num_atms": 35, 
	 "gaussian": { 
		 "optdone": 1, 
		 "sigma_profile": "yes", 
		 "theory": "DFT", 
		 "functional": "B3LYP", 
		 "basiset": "6-31G**", 
		 "properties": { 
			 "R2extent": 5019.0998, 
			 "electric_dipole_moment_norm": 4.38478521253, 
			 "electric_quadrupole_moment_norm": 11.2204053986, 
			 "total_energy": -766.179410635, 
			 "HOMO_LUMO_gap": 0.18713, 
			 "cosmo_polarized_energy": -13.35, 
			 "cosmo_cavitation_energy": 36.62, 
			 "cosmo_dispersion_energy": -25.36, 
			 "cosmo_repulsion_energy": 2.01, 
			 "cosmo_total_nonelectrostatic_energy": 13.28, 
			 "SMD_solvation_energy": 4.56 
		},
		"coords": [
			{
				"x": 0.4931272353,
				"y": -0.5070729671,
				"z": 3.2068935451,
				"element": "C" 
			},
			{
				"x": 1.0906019568,
				"y": -0.9269087384,
				"z": 1.9758096253,
				"element": "O" 
			},
			{
				"x": 0.9846616296,
				"y": -0.0345390361,
				"z": 0.9338768357,
				"element": "C" 
			},
			{
				"x": -0.2139169575,
				"y": 0.1344926639,
				"z": 0.2161783415,
				"element": "C" 
			},
			{
				"x": -1.4101676173,
				"y": -0.5476247678,
				"z": 0.579658064,
				"element": "N" 
			},
			{
				"x": -1.7205250388,
				"y": -1.8930014912,
				"z": 0.5249865822,
				"element": "C" 
			},
			{
				"x": -2.8550389516,
				"y": -2.258788204,
				"z": 0.8141105116,
				"element": "O" 
			},
			{
				"x": -0.6387206697,
				"y": -2.8766433544,
				"z": 0.0693510081,
				"element": "C" 
			},
			{
				"x": -0.4391037012,
				"y": -2.8215275931,
				"z": -1.4871783497,
				"element": "C" 
			},
			{
				"x": -1.2012648463,
				"y": -4.0563659521,
				"z": -1.9914535911,
				"element": "C" 
			},
			{
				"x": -0.9869507236,
				"y": -5.0479598914,
				"z": -0.8369981086,
				"element": "C" 
			},
			{
				"x": -1.0562586835,
				"y": -4.2513719524,
				"z": 0.3984956902,
				"element": "N" 
			},
			{
				"x": -0.2454865212,
				"y": 1.0489290596,
				"z": -0.8453166821,
				"element": "C" 
			},
			{
				"x": 0.8806125379,
				"y": 1.7841174943,
				"z": -1.2266139508,
				"element": "C" 
			},
			{
				"x": 0.8112766465,
				"y": 2.7839076955,
				"z": -2.3572159045,
				"element": "C" 
			},
			{
				"x": 2.0740522096,
				"y": 1.5688901621,
				"z": -0.5234802385,
				"element": "C" 
			},
			{
				"x": 2.1235244274,
				"y": 0.6725470852,
				"z": 0.5407237709,
				"element": "C" 
			},
			{
				"x": 0.9703889258,
				"y": 0.4086643396,
				"z": 3.5782575045,
				"element": "H" 
			},
			{
				"x": 0.6594848211,
				"y": -1.317726362,
				"z": 3.9183666668,
				"element": "H" 
			},
			{
				"x": -0.5830730668,
				"y": -0.3380954325,
				"z": 3.0955342861,
				"element": "H" 
			},
			{
				"x": -2.2346716923,
				"y": 0.0212663273,
				"z": 0.7320422473,
				"element": "H" 
			},
			{
				"x": 0.2944186467,
				"y": -2.624127019,
				"z": 0.5793939252,
				"element": "H" 
			},
			{
				"x": 0.6281335862,
				"y": -2.9103090635,
				"z": -1.7164238656,
				"element": "H" 
			},
			{
				"x": -0.7874472792,
				"y": -1.8841612387,
				"z": -1.9289409512,
				"element": "H" 
			},
			{
				"x": -2.2689180532,
				"y": -3.8291268041,
				"z": -2.095271445,
				"element": "H" 
			},
			{
				"x": -0.8348165068,
				"y": -4.4169659218,
				"z": -2.9582491178,
				"element": "H" 
			},
			{
				"x": -1.7223828701,
				"y": -5.857856292,
				"z": -0.8071212697,
				"element": "H" 
			},
			{
				"x": 0.0056607598,
				"y": -5.5130401171,
				"z": -0.923809299,
				"element": "H" 
			},
			{
				"x": -2.0268571134,
				"y": -4.1892125682,
				"z": 0.7029370335,
				"element": "H" 
			},
			{
				"x": -1.1798216872,
				"y": 1.1714996035,
				"z": -1.3881273788,
				"element": "H" 
			},
			{
				"x": -0.0364835248,
				"y": 2.583727538,
				"z": -3.0185429244,
				"element": "H" 
			},
			{
				"x": 1.7230384093,
				"y": 2.7655917551,
				"z": -2.9624568672,
				"element": "H" 
			},
			{
				"x": 0.6961390677,
				"y": 3.8065480424,
				"z": -1.976830765,
				"element": "H" 
			},
			{
				"x": 2.9719500076,
				"y": 2.1109408111,
				"z": -0.8088174477,
				"element": "H" 
			},
			{
				"x": 3.0428346374,
				"y": 0.5058021893,
				"z": 1.0932325186,
				"element": "H" 
			}
		],
		 "valence_orbital": [ 
			{
				"type": "occ",
				"energy": -0.27621,
				"method": "rhf"
			},
			{
				"type": "occ",
				"energy": -0.25535,
				"method": "rhf"
			},
			{
				"type": "occ",
				"energy": -0.24808,
				"method": "rhf"
			},
			{
				"type": "occ",
				"energy": -0.23277,
				"method": "rhf"
			},
			{
				"type": "occ",
				"energy": -0.20681,
				"method": "rhf"
			},
			{
				"type": "unocc",
				"energy": -0.01968,
				"method": "rhf"
			},
			{
				"type": "unocc",
				"energy": -0.00762,
				"method": "rhf"
			},
			{
				"type": "unocc",
				"energy": 0.02649,
				"method": "rhf"
			},
			{
				"type": "unocc",
				"energy": 0.08519,
				"method": "rhf"
			},
			{
				"type": "unocc",
				"energy": 0.08755,
				"method": "rhf"
			}
		],
		"cosmo_sigma_profile": { 
			"-0.025": 0.0,
			"-0.024": 0.0,
			"-0.023": 0.0,
			"-0.022": 0.0,
			"-0.021": 0.0,
			"-0.02": 0.0,
			"-0.019": 0.0,
			"-0.018": 0.0,
			"-0.017": 0.0,
			"-0.016": 0.0,
			"-0.015": 0.0,
			"-0.014": 0.610634432364,
			"-0.013": 1.06190395176,
			"-0.012": 0.821054543668,
			"-0.011": 0.866231316112,
			"-0.01": 1.31033962491,
			"-0.009": 0.950402311603,
			"-0.008": 0.7664186816,
			"-0.007": 1.64239679063,
			"-0.006": 6.65313397145,
			"-0.005": 14.1619582271,
			"-0.004": 24.1123809188,
			"-0.003": 34.5067229506,
			"-0.002": 39.0288208742,
			"-0.001": 33.668715447,
			"0.0": 31.4567806691,
			"0.001": 19.5106962537,
			"0.002": 12.1535712176,
			"0.003": 12.0491311147,
			"0.004": 12.4345795929,
			"0.005": 9.30683387418,
			"0.006": 3.08974534156,
			"0.007": 2.5889099247,
			"0.008": 2.81614159613,
			"0.009": 2.44617403099,
			"0.01": 3.45721987107,
			"0.011": 3.22337243076,
			"0.012": 3.28759739112,
			"0.013": 5.17701949334,
			"0.014": 1.36125192418,
			"0.015": 0.399881347591,
			"0.016": 0.443653732289,
			"0.017": 1.03421793341,
			"0.018": 0.518003976933,
			"0.019": 0.412906581392,
			"0.02": 0.0470421985943,
			"0.021": 0.0,
			"0.022": 0.0,
			"0.023": 0.0,
			"0.024": 0.0,
			"0.025": 0.0
		}
	}
}
