{
	 "smiles": "CC(=O)C1=CC=C(C=C1)S(=O)(=O)NC1=CC=C(C=C1)C(O)=O", 
	 "Tm": 426.15, 
	 "num_atms": 35, 
	 "gaussian": { 
		 "optdone": 1, 
		 "sigma_profile": "yes", 
		 "theory": "DFT", 
		 "functional": "B3LYP", 
		 "basiset": "6-31G**", 
		 "properties": { 
			 "R2extent": 10369.377, 
			 "electric_dipole_moment_norm": 4.79070157284, 
			 "electric_quadrupole_moment_norm": 29.1186255124, 
			 "total_energy": -1408.43050923, 
			 "HOMO_LUMO_gap": 0.16132, 
			 "cosmo_polarized_energy": -29.13, 
			 "cosmo_cavitation_energy": 42.04, 
			 "cosmo_dispersion_energy": -29.61, 
			 "cosmo_repulsion_energy": 2.21, 
			 "cosmo_total_nonelectrostatic_energy": 14.64, 
			 "SMD_solvation_energy": 8.15 
		},
		"coords": [
			{
				"x": 1.6788882578,
				"y": -1.2744638482,
				"z": 4.9935807294,
				"element": "C" 
			},
			{
				"x": 1.9584342623,
				"y": -0.1535138859,
				"z": 4.0104819538,
				"element": "C" 
			},
			{
				"x": 1.9644083256,
				"y": 1.0121351953,
				"z": 4.3704662769,
				"element": "O" 
			},
			{
				"x": 2.231437733,
				"y": -0.4984056896,
				"z": 2.5695205797,
				"element": "C" 
			},
			{
				"x": 2.5016663071,
				"y": 0.555909628,
				"z": 1.6835624543,
				"element": "C" 
			},
			{
				"x": 2.7655497022,
				"y": 0.3056604689,
				"z": 0.3414822338,
				"element": "C" 
			},
			{
				"x": 2.749777843,
				"y": -1.0165338193,
				"z": -0.114757955,
				"element": "C" 
			},
			{
				"x": 2.490765073,
				"y": -2.0831365254,
				"z": 0.7482735424,
				"element": "C" 
			},
			{
				"x": 2.2335359838,
				"y": -1.8173052101,
				"z": 2.0921290666,
				"element": "C" 
			},
			{
				"x": 3.0527603055,
				"y": -1.3597812366,
				"z": -1.8525359017,
				"element": "S" 
			},
			{
				"x": 3.4176591432,
				"y": -2.7689523344,
				"z": -1.9799317173,
				"element": "O" 
			},
			{
				"x": 3.8759319112,
				"y": -0.2749084301,
				"z": -2.3810807559,
				"element": "O" 
			},
			{
				"x": 1.538457591,
				"y": -1.2695607377,
				"z": -2.6193472912,
				"element": "N" 
			},
			{
				"x": 0.7326556162,
				"y": -0.1115733519,
				"z": -2.7123106694,
				"element": "C" 
			},
			{
				"x": 1.2675202843,
				"y": 1.1238744417,
				"z": -3.1088187503,
				"element": "C" 
			},
			{
				"x": 0.4302618361,
				"y": 2.2303085276,
				"z": -3.216772601,
				"element": "C" 
			},
			{
				"x": -0.9451507927,
				"y": 2.1306440301,
				"z": -2.962280443,
				"element": "C" 
			},
			{
				"x": -1.4740630422,
				"y": 0.8820930527,
				"z": -2.6072178112,
				"element": "C" 
			},
			{
				"x": -0.6456765755,
				"y": -0.2221295997,
				"z": -2.4644801353,
				"element": "C" 
			},
			{
				"x": -1.899703815,
				"y": 3.2768010434,
				"z": -3.0898702191,
				"element": "C" 
			},
			{
				"x": -1.366574321,
				"y": 4.5281622556,
				"z": -3.0796718694,
				"element": "O" 
			},
			{
				"x": -3.0954148958,
				"y": 3.132594011,
				"z": -3.1966907022,
				"element": "O" 
			},
			{
				"x": 1.5043124515,
				"y": -0.8396557942,
				"z": 5.9778090008,
				"element": "H" 
			},
			{
				"x": 0.7990428464,
				"y": -1.8531461866,
				"z": 4.6909866645,
				"element": "H" 
			},
			{
				"x": 2.5245727873,
				"y": -1.9690167043,
				"z": 5.0480709115,
				"element": "H" 
			},
			{
				"x": 2.5064981648,
				"y": 1.5666664156,
				"z": 2.0769320804,
				"element": "H" 
			},
			{
				"x": 2.9999222807,
				"y": 1.1131122988,
				"z": -0.3424360691,
				"element": "H" 
			},
			{
				"x": 2.5150417064,
				"y": -3.1003873549,
				"z": 0.3731124921,
				"element": "H" 
			},
			{
				"x": 2.0413007318,
				"y": -2.6464046397,
				"z": 2.7646576655,
				"element": "H" 
			},
			{
				"x": 1.0389729085,
				"y": -2.1446867722,
				"z": -2.5001863642,
				"element": "H" 
			},
			{
				"x": 2.3209472758,
				"y": 1.2001444636,
				"z": -3.3465793291,
				"element": "H" 
			},
			{
				"x": 0.8660121862,
				"y": 3.1651086715,
				"z": -3.56177525,
				"element": "H" 
			},
			{
				"x": -2.5418110902,
				"y": 0.8037508213,
				"z": -2.4341907867,
				"element": "H" 
			},
			{
				"x": -1.0637386861,
				"y": -1.1791114138,
				"z": -2.1630408347,
				"element": "H" 
			},
			{
				"x": -0.4341002964,
				"y": 4.4958082095,
				"z": -2.8261901958,
				"element": "H" 
			}
		],
		 "valence_orbital": [ 
			{
				"type": "occ",
				"energy": -0.29011,
				"method": "rhf"
			},
			{
				"type": "occ",
				"energy": -0.28245,
				"method": "rhf"
			},
			{
				"type": "occ",
				"energy": -0.27716,
				"method": "rhf"
			},
			{
				"type": "occ",
				"energy": -0.26982,
				"method": "rhf"
			},
			{
				"type": "occ",
				"energy": -0.25146,
				"method": "rhf"
			},
			{
				"type": "unocc",
				"energy": -0.09014,
				"method": "rhf"
			},
			{
				"type": "unocc",
				"energy": -0.0578,
				"method": "rhf"
			},
			{
				"type": "unocc",
				"energy": -0.04086,
				"method": "rhf"
			},
			{
				"type": "unocc",
				"energy": -0.0327,
				"method": "rhf"
			},
			{
				"type": "unocc",
				"energy": -0.00266,
				"method": "rhf"
			}
		],
		"cosmo_sigma_profile": { 
			"-0.025": 0.0,
			"-0.024": 0.0,
			"-0.023": 0.0,
			"-0.022": 0.0,
			"-0.021": 0.0,
			"-0.02": 0.0,
			"-0.019": 0.16672713114,
			"-0.018": 1.00159214519,
			"-0.017": 1.19978951817,
			"-0.016": 2.04693698301,
			"-0.015": 2.03320187956,
			"-0.014": 1.82874110032,
			"-0.013": 3.10841068778,
			"-0.012": 2.46540567186,
			"-0.011": 2.41240064693,
			"-0.01": 2.07239561835,
			"-0.009": 3.28254231112,
			"-0.008": 7.30662640833,
			"-0.007": 15.0203748274,
			"-0.006": 21.0718557591,
			"-0.005": 16.6062988685,
			"-0.004": 18.2311629572,
			"-0.003": 19.4671380399,
			"-0.002": 19.9108340563,
			"-0.001": 23.2191516708,
			"0.0": 24.3737083132,
			"0.001": 27.7795320574,
			"0.002": 23.1515371366,
			"0.003": 14.4670659134,
			"0.004": 7.37654985477,
			"0.005": 8.31381701968,
			"0.006": 7.05251167973,
			"0.007": 5.99995648312,
			"0.008": 8.02994104712,
			"0.009": 11.2807234453,
			"0.01": 14.4777902207,
			"0.011": 12.2121163047,
			"0.012": 7.78404462829,
			"0.013": 2.17688948158,
			"0.014": 0.117892880435,
			"0.015": 0.0,
			"0.016": 0.0,
			"0.017": 0.0,
			"0.018": 0.0,
			"0.019": 0.0,
			"0.02": 0.0,
			"0.021": 0.0,
			"0.022": 0.0,
			"0.023": 0.0,
			"0.024": 0.0,
			"0.025": 0.0
		}
	}
}
