{
	 "smiles": "OC(=O)C1=C(F)C=CC=C1Cl", 
	 "Tm": 432.15, 
	 "num_atms": 15, 
	 "gaussian": { 
		 "optdone": 1, 
		 "sigma_profile": "yes", 
		 "theory": "DFT", 
		 "functional": "B3LYP", 
		 "basiset": "6-31G**", 
		 "properties": { 
			 "R2extent": 2461.922, 
			 "electric_dipole_moment_norm": 2.6647661267, 
			 "electric_quadrupole_moment_norm": 10.7187919221, 
			 "total_energy": -979.633140316, 
			 "HOMO_LUMO_gap": 0.20745, 
			 "cosmo_polarized_energy": -10.41, 
			 "cosmo_cavitation_energy": 22.31, 
			 "cosmo_dispersion_energy": -16.43, 
			 "cosmo_repulsion_energy": 1.31, 
			 "cosmo_total_nonelectrostatic_energy": 7.19, 
			 "SMD_solvation_energy": 5.27 
		},
		"coords": [
			{
				"x": 2.207012228,
				"y": -0.8014132755,
				"z": 2.180032496,
				"element": "O" 
			},
			{
				"x": 1.4055524733,
				"y": 0.2789523222,
				"z": 2.2970483441,
				"element": "C" 
			},
			{
				"x": 1.2698820217,
				"y": 0.8959424969,
				"z": 3.3282122851,
				"element": "O" 
			},
			{
				"x": 0.7162296655,
				"y": 0.6051328469,
				"z": 1.0058499633,
				"element": "C" 
			},
			{
				"x": 0.0057010932,
				"y": -0.3844205496,
				"z": 0.3139606779,
				"element": "C" 
			},
			{
				"x": -0.0273919858,
				"y": -1.6292258871,
				"z": 0.8199626638,
				"element": "F" 
			},
			{
				"x": -0.6956367297,
				"y": -0.1321222975,
				"z": -0.8572782856,
				"element": "C" 
			},
			{
				"x": -0.6844318313,
				"y": 1.161997097,
				"z": -1.3729779506,
				"element": "C" 
			},
			{
				"x": 0.0116415894,
				"y": 2.1800182802,
				"z": -0.7220848972,
				"element": "C" 
			},
			{
				"x": 0.696461071,
				"y": 1.9003986436,
				"z": 0.4605332564,
				"element": "C" 
			},
			{
				"x": 1.5794767713,
				"y": 3.2058599034,
				"z": 1.2215591076,
				"element": "Cl" 
			},
			{
				"x": 2.5801035177,
				"y": -0.9560314239,
				"z": 3.0649053988,
				"element": "H" 
			},
			{
				"x": -1.2331461873,
				"y": -0.9419315756,
				"z": -1.3369753431,
				"element": "H" 
			},
			{
				"x": -1.2225436775,
				"y": 1.3819146671,
				"z": -2.2895796957,
				"element": "H" 
			},
			{
				"x": 0.0296899805,
				"y": 3.1867287521,
				"z": -1.1222680207,
				"element": "H" 
			}
		],
		 "valence_orbital": [ 
			{
				"type": "occ",
				"energy": -0.33136,
				"method": "rhf"
			},
			{
				"type": "occ",
				"energy": -0.31679,
				"method": "rhf"
			},
			{
				"type": "occ",
				"energy": -0.28983,
				"method": "rhf"
			},
			{
				"type": "occ",
				"energy": -0.26983,
				"method": "rhf"
			},
			{
				"type": "occ",
				"energy": -0.2586,
				"method": "rhf"
			},
			{
				"type": "unocc",
				"energy": -0.05115,
				"method": "rhf"
			},
			{
				"type": "unocc",
				"energy": -0.02267,
				"method": "rhf"
			},
			{
				"type": "unocc",
				"energy": 0.01538,
				"method": "rhf"
			},
			{
				"type": "unocc",
				"energy": 0.02174,
				"method": "rhf"
			},
			{
				"type": "unocc",
				"energy": 0.07786,
				"method": "rhf"
			}
		],
		"cosmo_sigma_profile": { 
			"-0.025": 0.0,
			"-0.024": 0.0,
			"-0.023": 0.0,
			"-0.022": 0.0,
			"-0.021": 0.0,
			"-0.02": 0.0,
			"-0.019": 0.45088809531,
			"-0.018": 1.10081425934,
			"-0.017": 0.925874388826,
			"-0.016": 0.869266398436,
			"-0.015": 0.610538585694,
			"-0.014": 0.306409463406,
			"-0.013": 0.837978080923,
			"-0.012": 1.1667740622,
			"-0.011": 0.680488159904,
			"-0.01": 0.237006937848,
			"-0.009": 0.966928913788,
			"-0.008": 5.93362858071,
			"-0.007": 7.86094621012,
			"-0.006": 6.7586040256,
			"-0.005": 5.58106633049,
			"-0.004": 6.82263828133,
			"-0.003": 8.2190532664,
			"-0.002": 9.81312498125,
			"-0.001": 15.3339487969,
			"0.0": 18.6373377871,
			"0.001": 17.0069960108,
			"0.002": 16.5293948496,
			"0.003": 15.0247328134,
			"0.004": 11.8412979101,
			"0.005": 4.70347245082,
			"0.006": 3.60543228528,
			"0.007": 3.30452497736,
			"0.008": 4.00421543511,
			"0.009": 3.03594893852,
			"0.01": 3.33961072377,
			"0.011": 5.13119952113,
			"0.012": 1.06145264854,
			"0.013": 0.0,
			"0.014": 0.0,
			"0.015": 0.0,
			"0.016": 0.0,
			"0.017": 0.0,
			"0.018": 0.0,
			"0.019": 0.0,
			"0.02": 0.0,
			"0.021": 0.0,
			"0.022": 0.0,
			"0.023": 0.0,
			"0.024": 0.0,
			"0.025": 0.0
		}
	}
}
