{
	 "smiles": "[O-][N+](=O)C1=CC2=C(C=C1Cl)N=CC=N2", 
	 "Tm": 485.15, 
	 "num_atms": 18, 
	 "gaussian": { 
		 "optdone": 1, 
		 "sigma_profile": "yes", 
		 "theory": "DFT", 
		 "functional": "B3LYP", 
		 "basiset": "6-31G**", 
		 "properties": { 
			 "R2extent": 4718.6466, 
			 "electric_dipole_moment_norm": 4.85119140521, 
			 "electric_quadrupole_moment_norm": 14.8409722454, 
			 "total_energy": -1082.0334045, 
			 "HOMO_LUMO_gap": 0.16174, 
			 "cosmo_polarized_energy": -10.65, 
			 "cosmo_cavitation_energy": 25.68, 
			 "cosmo_dispersion_energy": -19.23, 
			 "cosmo_repulsion_energy": 1.48, 
			 "cosmo_total_nonelectrostatic_energy": 7.94, 
			 "SMD_solvation_energy": 3.39 
		},
		"coords": [
			{
				"x": -2.4617354528,
				"y": 1.1186823081,
				"z": -4.6718965419,
				"element": "O" 
			},
			{
				"x": -2.7542971724,
				"y": 0.7144674993,
				"z": -3.5522827199,
				"element": "N" 
			},
			{
				"x": -3.8816956845,
				"y": 0.4010827045,
				"z": -3.1753164458,
				"element": "O" 
			},
			{
				"x": -1.67443828,
				"y": 0.6399681408,
				"z": -2.5484232061,
				"element": "C" 
			},
			{
				"x": -2.0117107486,
				"y": 1.0026734939,
				"z": -1.2645939014,
				"element": "C" 
			},
			{
				"x": -1.0257115223,
				"y": 1.0256958307,
				"z": -0.2524275222,
				"element": "C" 
			},
			{
				"x": 0.3095523396,
				"y": 0.6431635934,
				"z": -0.5776173395,
				"element": "C" 
			},
			{
				"x": 0.6211704322,
				"y": 0.2424108358,
				"z": -1.8992913513,
				"element": "C" 
			},
			{
				"x": -0.3453282271,
				"y": 0.2439502449,
				"z": -2.881544354,
				"element": "C" 
			},
			{
				"x": 0.0908979072,
				"y": -0.3218579425,
				"z": -4.4690527475,
				"element": "Cl" 
			},
			{
				"x": 1.2947061267,
				"y": 0.6441596157,
				"z": 0.3680528106,
				"element": "N" 
			},
			{
				"x": 0.9333685037,
				"y": 1.0178372982,
				"z": 1.5760716185,
				"element": "C" 
			},
			{
				"x": -0.4010868022,
				"y": 1.4007499141,
				"z": 1.8995986268,
				"element": "C" 
			},
			{
				"x": -1.3702846186,
				"y": 1.4085796978,
				"z": 1.0110670537,
				"element": "N" 
			},
			{
				"x": -3.0312079603,
				"y": 1.2788812854,
				"z": -1.0247828235,
				"element": "H" 
			},
			{
				"x": 1.6344373953,
				"y": -0.0726238339,
				"z": -2.1187735808,
				"element": "H" 
			},
			{
				"x": 1.7018562153,
				"y": 1.0277797003,
				"z": 2.3472873754,
				"element": "H" 
			},
			{
				"x": -0.6487924513,
				"y": 1.7016996136,
				"z": 2.9159250488,
				"element": "H" 
			}
		],
		 "valence_orbital": [ 
			{
				"type": "occ",
				"energy": -0.31623,
				"method": "rhf"
			},
			{
				"type": "occ",
				"energy": -0.30589,
				"method": "rhf"
			},
			{
				"type": "occ",
				"energy": -0.28456,
				"method": "rhf"
			},
			{
				"type": "occ",
				"energy": -0.27476,
				"method": "rhf"
			},
			{
				"type": "occ",
				"energy": -0.27128,
				"method": "rhf"
			},
			{
				"type": "unocc",
				"energy": -0.10954,
				"method": "rhf"
			},
			{
				"type": "unocc",
				"energy": -0.08625,
				"method": "rhf"
			},
			{
				"type": "unocc",
				"energy": -0.04386,
				"method": "rhf"
			},
			{
				"type": "unocc",
				"energy": -0.02324,
				"method": "rhf"
			},
			{
				"type": "unocc",
				"energy": 0.00476,
				"method": "rhf"
			}
		],
		"cosmo_sigma_profile": { 
			"-0.025": 0.0,
			"-0.024": 0.0,
			"-0.023": 0.0,
			"-0.022": 0.0,
			"-0.021": 0.0,
			"-0.02": 0.0,
			"-0.019": 0.0,
			"-0.018": 0.0,
			"-0.017": 0.0,
			"-0.016": 0.0,
			"-0.015": 0.0,
			"-0.014": 0.0,
			"-0.013": 0.0,
			"-0.012": 0.0,
			"-0.011": 0.0,
			"-0.01": 0.0,
			"-0.009": 4.79693280039,
			"-0.008": 10.8478473933,
			"-0.007": 7.45298055164,
			"-0.006": 7.45583151606,
			"-0.005": 9.64239577941,
			"-0.004": 12.3435441378,
			"-0.003": 19.8404514968,
			"-0.002": 20.5174996667,
			"-0.001": 19.1338686374,
			"0.0": 12.3769138229,
			"0.001": 10.0328053045,
			"0.002": 11.0019261712,
			"0.003": 11.7917461822,
			"0.004": 7.42323048206,
			"0.005": 6.73515827963,
			"0.006": 7.74050416656,
			"0.007": 12.1893566111,
			"0.008": 9.05443345367,
			"0.009": 4.11531581674,
			"0.01": 1.33281451951,
			"0.011": 1.52490874812,
			"0.012": 1.80209005804,
			"0.013": 1.10682488997,
			"0.014": 0.311101283333,
			"0.015": 0.0,
			"0.016": 0.0,
			"0.017": 0.0,
			"0.018": 0.0,
			"0.019": 0.0,
			"0.02": 0.0,
			"0.021": 0.0,
			"0.022": 0.0,
			"0.023": 0.0,
			"0.024": 0.0,
			"0.025": 0.0
		}
	}
}
