{
	 "smiles": "NC(=O)C1CNC2=C(C1)C=CC=C2", 
	 "Tm": 395.15, 
	 "num_atms": 25, 
	 "gaussian": { 
		 "optdone": 1, 
		 "sigma_profile": "yes", 
		 "theory": "DFT", 
		 "functional": "B3LYP", 
		 "basiset": "6-31G**", 
		 "properties": { 
			 "R2extent": 2998.8935, 
			 "electric_dipole_moment_norm": 3.22979006284, 
			 "electric_quadrupole_moment_norm": 13.4366350468, 
			 "total_energy": -573.048844734, 
			 "HOMO_LUMO_gap": 0.19598, 
			 "cosmo_polarized_energy": -16.31, 
			 "cosmo_cavitation_energy": 27.57, 
			 "cosmo_dispersion_energy": -20.49, 
			 "cosmo_repulsion_energy": 1.63, 
			 "cosmo_total_nonelectrostatic_energy": 8.72, 
			 "SMD_solvation_energy": 3.92 
		},
		"coords": [
			{
				"x": -2.9081200321,
				"y": -1.9695521538,
				"z": -0.8426470062,
				"element": "N" 
			},
			{
				"x": -2.0390894468,
				"y": -0.9350553504,
				"z": -1.0441683134,
				"element": "C" 
			},
			{
				"x": -2.2806586815,
				"y": -0.018594253,
				"z": -1.8195012796,
				"element": "O" 
			},
			{
				"x": -0.7506276542,
				"y": -0.9811423396,
				"z": -0.2255715481,
				"element": "C" 
			},
			{
				"x": -0.6789313921,
				"y": 0.2563601106,
				"z": 0.6875308153,
				"element": "C" 
			},
			{
				"x": 0.5362485044,
				"y": 0.1908349231,
				"z": 1.4827968878,
				"element": "N" 
			},
			{
				"x": 1.7494146972,
				"y": -0.1169134243,
				"z": 0.8646494253,
				"element": "C" 
			},
			{
				"x": 1.7691323694,
				"y": -0.7294134058,
				"z": -0.4076231457,
				"element": "C" 
			},
			{
				"x": 0.47574867,
				"y": -0.976740116,
				"z": -1.1588532017,
				"element": "C" 
			},
			{
				"x": 3.0014149424,
				"y": -1.0879169364,
				"z": -0.9616275843,
				"element": "C" 
			},
			{
				"x": 4.2053138564,
				"y": -0.8408680428,
				"z": -0.3027128412,
				"element": "C" 
			},
			{
				"x": 4.1768176537,
				"y": -0.2265952529,
				"z": 0.9519035296,
				"element": "C" 
			},
			{
				"x": 2.9632981947,
				"y": 0.1283608746,
				"z": 1.5313785422,
				"element": "C" 
			},
			{
				"x": -2.6909249777,
				"y": -2.7493343018,
				"z": -0.2444383582,
				"element": "H" 
			},
			{
				"x": -3.758562144,
				"y": -1.9892962419,
				"z": -1.3854608597,
				"element": "H" 
			},
			{
				"x": -0.7254228832,
				"y": -1.8741733087,
				"z": 0.4113936794,
				"element": "H" 
			},
			{
				"x": -0.737308862,
				"y": 1.1524697534,
				"z": 0.0507138795,
				"element": "H" 
			},
			{
				"x": -1.5366229833,
				"y": 0.2786337518,
				"z": 1.3689465047,
				"element": "H" 
			},
			{
				"x": 0.6014371924,
				"y": 0.8799212747,
				"z": 2.2188870565,
				"element": "H" 
			},
			{
				"x": 0.5355840883,
				"y": -1.9258572553,
				"z": -1.7051638022,
				"element": "H" 
			},
			{
				"x": 0.3099066496,
				"y": -0.1962427466,
				"z": -1.912482714,
				"element": "H" 
			},
			{
				"x": 3.0108014764,
				"y": -1.5661227877,
				"z": -1.9390328615,
				"element": "H" 
			},
			{
				"x": 5.1488061591,
				"y": -1.1241859398,
				"z": -0.7586782003,
				"element": "H" 
			},
			{
				"x": 5.1023225269,
				"y": -0.0244022584,
				"z": 1.4840494331,
				"element": "H" 
			},
			{
				"x": 2.942322076,
				"y": 0.5963254271,
				"z": 2.5133119626,
				"element": "H" 
			}
		],
		 "valence_orbital": [ 
			{
				"type": "occ",
				"energy": -0.28827,
				"method": "rhf"
			},
			{
				"type": "occ",
				"energy": -0.27011,
				"method": "rhf"
			},
			{
				"type": "occ",
				"energy": -0.24975,
				"method": "rhf"
			},
			{
				"type": "occ",
				"energy": -0.23188,
				"method": "rhf"
			},
			{
				"type": "occ",
				"energy": -0.18848,
				"method": "rhf"
			},
			{
				"type": "unocc",
				"energy": 0.0075,
				"method": "rhf"
			},
			{
				"type": "unocc",
				"energy": 0.02369,
				"method": "rhf"
			},
			{
				"type": "unocc",
				"energy": 0.02773,
				"method": "rhf"
			},
			{
				"type": "unocc",
				"energy": 0.0673,
				"method": "rhf"
			},
			{
				"type": "unocc",
				"energy": 0.08896,
				"method": "rhf"
			}
		],
		"cosmo_sigma_profile": { 
			"-0.025": 0.0,
			"-0.024": 0.0,
			"-0.023": 0.0,
			"-0.022": 0.0,
			"-0.021": 0.0,
			"-0.02": 0.0,
			"-0.019": 0.0,
			"-0.018": 0.0,
			"-0.017": 0.0,
			"-0.016": 0.0,
			"-0.015": 0.111438218199,
			"-0.014": 1.58384090785,
			"-0.013": 2.93999390014,
			"-0.012": 3.95230613254,
			"-0.011": 3.64406970591,
			"-0.01": 3.81999965491,
			"-0.009": 3.97685145076,
			"-0.008": 3.87190924692,
			"-0.007": 3.12266443206,
			"-0.006": 4.79405459689,
			"-0.005": 10.9144836932,
			"-0.004": 18.0786548964,
			"-0.003": 18.0620200316,
			"-0.002": 19.4648572141,
			"-0.001": 14.0378440483,
			"0.0": 11.9826144194,
			"0.001": 10.4831865088,
			"0.002": 9.41651952813,
			"0.003": 10.4784172285,
			"0.004": 8.94379643015,
			"0.005": 10.0780564711,
			"0.006": 10.345871146,
			"0.007": 9.37898192658,
			"0.008": 6.42554589109,
			"0.009": 1.66267093245,
			"0.01": 1.68353485144,
			"0.011": 1.64623983505,
			"0.012": 2.32545770011,
			"0.013": 2.92759021256,
			"0.014": 5.01827584028,
			"0.015": 1.5730937445,
			"0.016": 0.0,
			"0.017": 0.0,
			"0.018": 0.0,
			"0.019": 0.0,
			"0.02": 0.0,
			"0.021": 0.0,
			"0.022": 0.0,
			"0.023": 0.0,
			"0.024": 0.0,
			"0.025": 0.0
		}
	}
}
