{
	 "smiles": "CC1CC(C)CN(C1)S(=O)(=O)C1=CC=C(C=C1)C(O)=O", 
	 "Tm": 549.15, 
	 "num_atms": 39, 
	 "gaussian": { 
		 "optdone": 1, 
		 "sigma_profile": "yes", 
		 "theory": "DFT", 
		 "functional": "B3LYP", 
		 "basiset": "6-31G**", 
		 "properties": { 
			 "R2extent": 7233.5082, 
			 "electric_dipole_moment_norm": 5.24071289902, 
			 "electric_quadrupole_moment_norm": 21.3728235879, 
			 "total_energy": -1298.7348186, 
			 "HOMO_LUMO_gap": 0.17481, 
			 "cosmo_polarized_energy": -17.73, 
			 "cosmo_cavitation_energy": 41.93, 
			 "cosmo_dispersion_energy": -29.14, 
			 "cosmo_repulsion_energy": 2.21, 
			 "cosmo_total_nonelectrostatic_energy": 15.0, 
			 "SMD_solvation_energy": 6.19 
		},
		"coords": [
			{
				"x": -0.2062524796,
				"y": -1.8198469149,
				"z": -3.7318785987,
				"element": "C" 
			},
			{
				"x": -0.7452293225,
				"y": -1.319424988,
				"z": -2.3876371526,
				"element": "C" 
			},
			{
				"x": -2.1970293158,
				"y": -1.7969349855,
				"z": -2.1312014481,
				"element": "C" 
			},
			{
				"x": -3.0070300479,
				"y": -0.8362268923,
				"z": -1.2269804616,
				"element": "C" 
			},
			{
				"x": -4.1491021219,
				"y": -1.5576707268,
				"z": -0.5037773189,
				"element": "C" 
			},
			{
				"x": -2.0852927095,
				"y": -0.127844036,
				"z": -0.2265818597,
				"element": "C" 
			},
			{
				"x": -1.09887716,
				"y": 0.6888258715,
				"z": -0.9618980212,
				"element": "N" 
			},
			{
				"x": -0.6643908956,
				"y": 0.2097411885,
				"z": -2.2916940876,
				"element": "C" 
			},
			{
				"x": -0.0761664754,
				"y": 1.6584095512,
				"z": -0.0667728948,
				"element": "S" 
			},
			{
				"x": -0.8848587023,
				"y": 2.233667909,
				"z": 1.009861905,
				"element": "O" 
			},
			{
				"x": 0.6680715422,
				"y": 2.4847915307,
				"z": -1.0199508113,
				"element": "O" 
			},
			{
				"x": 1.1217685407,
				"y": 0.5595439532,
				"z": 0.7178590597,
				"element": "C" 
			},
			{
				"x": 0.816096977,
				"y": -0.0214627369,
				"z": 1.9532913613,
				"element": "C" 
			},
			{
				"x": 1.722565431,
				"y": -0.9064003755,
				"z": 2.5298170772,
				"element": "C" 
			},
			{
				"x": 2.9280297903,
				"y": -1.2037484087,
				"z": 1.8802861663,
				"element": "C" 
			},
			{
				"x": 3.2317617477,
				"y": -0.6014184456,
				"z": 0.6512633624,
				"element": "C" 
			},
			{
				"x": 2.3279733645,
				"y": 0.2830228904,
				"z": 0.0670585037,
				"element": "C" 
			},
			{
				"x": 3.8580968845,
				"y": -2.1581722507,
				"z": 2.5460905869,
				"element": "C" 
			},
			{
				"x": 4.9972290128,
				"y": -2.3653789114,
				"z": 1.8420051799,
				"element": "O" 
			},
			{
				"x": 3.6407420459,
				"y": -2.7079162383,
				"z": 3.6069559579,
				"element": "O" 
			},
			{
				"x": -0.7731355946,
				"y": -1.3898960306,
				"z": -4.5662363169,
				"element": "H" 
			},
			{
				"x": 0.8472001724,
				"y": -1.5528536045,
				"z": -3.8685755621,
				"element": "H" 
			},
			{
				"x": -0.2874908899,
				"y": -2.9094184846,
				"z": -3.8041441195,
				"element": "H" 
			},
			{
				"x": -0.1030239841,
				"y": -1.7215866779,
				"z": -1.59228656,
				"element": "H" 
			},
			{
				"x": -2.1690078663,
				"y": -2.7956286935,
				"z": -1.6768843651,
				"element": "H" 
			},
			{
				"x": -2.7241754373,
				"y": -1.9103806073,
				"z": -3.087065174,
				"element": "H" 
			},
			{
				"x": -3.4461527823,
				"y": -0.0524742291,
				"z": -1.8582667955,
				"element": "H" 
			},
			{
				"x": -4.7690437663,
				"y": -0.8579968767,
				"z": 0.0663565289,
				"element": "H" 
			},
			{
				"x": -4.7973352341,
				"y": -2.0732921216,
				"z": -1.219864101,
				"element": "H" 
			},
			{
				"x": -3.7608326056,
				"y": -2.3104009986,
				"z": 0.1926087286,
				"element": "H" 
			},
			{
				"x": -2.656609799,
				"y": 0.5362548078,
				"z": 0.4249932308,
				"element": "H" 
			},
			{
				"x": -1.5907230855,
				"y": -0.8807874296,
				"z": 0.4101270582,
				"element": "H" 
			},
			{
				"x": 0.3504893622,
				"y": 0.5656041861,
				"z": -2.4789510666,
				"element": "H" 
			},
			{
				"x": -1.3001673174,
				"y": 0.6705239528,
				"z": -3.0602673039,
				"element": "H" 
			},
			{
				"x": -0.1048012447,
				"y": 0.2440627225,
				"z": 2.460034615,
				"element": "H" 
			},
			{
				"x": 1.5193386298,
				"y": -1.3718607787,
				"z": 3.4881688499,
				"element": "H" 
			},
			{
				"x": 4.174809558,
				"y": -0.8206572529,
				"z": 0.1640960217,
				"element": "H" 
			},
			{
				"x": 2.5601610985,
				"y": 0.780853212,
				"z": -0.8676927554,
				"element": "H" 
			},
			{
				"x": 5.5229946803,
				"y": -2.9934220796,
				"z": 2.3642325813,
				"element": "H" 
			}
		],
		 "valence_orbital": [ 
			{
				"type": "occ",
				"energy": -0.30008,
				"method": "rhf"
			},
			{
				"type": "occ",
				"energy": -0.28903,
				"method": "rhf"
			},
			{
				"type": "occ",
				"energy": -0.28267,
				"method": "rhf"
			},
			{
				"type": "occ",
				"energy": -0.27848,
				"method": "rhf"
			},
			{
				"type": "occ",
				"energy": -0.24619,
				"method": "rhf"
			},
			{
				"type": "unocc",
				"energy": -0.07138,
				"method": "rhf"
			},
			{
				"type": "unocc",
				"energy": -0.02884,
				"method": "rhf"
			},
			{
				"type": "unocc",
				"energy": 0.02804,
				"method": "rhf"
			},
			{
				"type": "unocc",
				"energy": 0.0565,
				"method": "rhf"
			},
			{
				"type": "unocc",
				"energy": 0.06563,
				"method": "rhf"
			}
		],
		"cosmo_sigma_profile": { 
			"-0.025": 0.0,
			"-0.024": 0.0,
			"-0.023": 0.0,
			"-0.022": 0.0,
			"-0.021": 0.0,
			"-0.02": 0.0,
			"-0.019": 0.209311941618,
			"-0.018": 1.04030402096,
			"-0.017": 0.936245398652,
			"-0.016": 0.757741112795,
			"-0.015": 0.820307754081,
			"-0.014": 0.578107860975,
			"-0.013": 0.320418522402,
			"-0.012": 1.02430258196,
			"-0.011": 0.808468896662,
			"-0.01": 0.519582107694,
			"-0.009": 0.298972067414,
			"-0.008": 1.82524839488,
			"-0.007": 6.38049817125,
			"-0.006": 8.26837715918,
			"-0.005": 9.03709312713,
			"-0.004": 20.6651534237,
			"-0.003": 44.535293916,
			"-0.002": 43.9367251473,
			"-0.001": 38.5099284089,
			"0.0": 32.8824159678,
			"0.001": 33.8013968992,
			"0.002": 12.0578689446,
			"0.003": 5.91848229948,
			"0.004": 6.13026765968,
			"0.005": 7.02891280289,
			"0.006": 7.15126882863,
			"0.007": 7.22868788633,
			"0.008": 4.51481078138,
			"0.009": 4.40635152412,
			"0.01": 9.23209277791,
			"0.011": 12.7384664873,
			"0.012": 5.5722490131,
			"0.013": 0.0,
			"0.014": 0.0,
			"0.015": 0.0,
			"0.016": 0.0,
			"0.017": 0.0,
			"0.018": 0.0,
			"0.019": 0.0,
			"0.02": 0.0,
			"0.021": 0.0,
			"0.022": 0.0,
			"0.023": 0.0,
			"0.024": 0.0,
			"0.0": 0.0
		}
	}
}
