{
	 "smiles": "O=C1CC=CCC(=O)CC=CC1", 
	 "Tm": 457.15, 
	 "num_atms": 24, 
	 "gaussian": { 
		 "optdone": 1, 
		 "sigma_profile": "yes", 
		 "theory": "DFT", 
		 "functional": "B3LYP", 
		 "basiset": "6-31G**", 
		 "properties": { 
			 "R2extent": 2003.0503, 
			 "electric_dipole_moment_norm": 4.41168537976, 
			 "electric_quadrupole_moment_norm": 8.35883020344, 
			 "total_energy": -538.681563307, 
			 "HOMO_LUMO_gap": 0.21111, 
			 "cosmo_polarized_energy": -12.22, 
			 "cosmo_cavitation_energy": 25.51, 
			 "cosmo_dispersion_energy": -18.61, 
			 "cosmo_repulsion_energy": 1.49, 
			 "cosmo_total_nonelectrostatic_energy": 8.4, 
			 "SMD_solvation_energy": 4.98 
		},
		"coords": [
			{
				"x": 0.8780681897,
				"y": 2.4345925172,
				"z": -2.0101175212,
				"element": "O" 
			},
			{
				"x": 0.943019275,
				"y": 1.660424853,
				"z": -1.0751289027,
				"element": "C" 
			},
			{
				"x": 2.162169846,
				"y": 0.7625958327,
				"z": -0.8832852424,
				"element": "C" 
			},
			{
				"x": 2.0217833256,
				"y": -0.7302224739,
				"z": -1.0944839529,
				"element": "C" 
			},
			{
				"x": 1.0197257735,
				"y": -1.448392694,
				"z": -1.6140866117,
				"element": "C" 
			},
			{
				"x": -0.3057595749,
				"y": -0.9600601637,
				"z": -2.1334851675,
				"element": "C" 
			},
			{
				"x": -1.4973974158,
				"y": -0.9391391951,
				"z": -1.1518529743,
				"element": "C" 
			},
			{
				"x": -2.5902800918,
				"y": -0.58663852,
				"z": -1.5507346082,
				"element": "O" 
			},
			{
				"x": -1.3030720688,
				"y": -1.4164589009,
				"z": 0.2846763175,
				"element": "C" 
			},
			{
				"x": -0.5098989498,
				"y": -0.5587182795,
				"z": 1.2480168877,
				"element": "C" 
			},
			{
				"x": -0.0589983933,
				"y": 0.6955584973,
				"z": 1.1325729166,
				"element": "C" 
			},
			{
				"x": -0.1992699527,
				"y": 1.6327168997,
				"z": -0.0367450568,
				"element": "C" 
			},
			{
				"x": 2.9392524944,
				"y": 1.1474009637,
				"z": -1.555005718,
				"element": "H" 
			},
			{
				"x": 2.5254658494,
				"y": 0.9132608842,
				"z": 0.1441864266,
				"element": "H" 
			},
			{
				"x": 2.9071106702,
				"y": -1.2804231364,
				"z": -0.7768740504,
				"element": "H" 
			},
			{
				"x": 1.1723944177,
				"y": -2.5259418729,
				"z": -1.66438341,
				"element": "H" 
			},
			{
				"x": -0.6359152376,
				"y": -1.5947718962,
				"z": -2.9652727666,
				"element": "H" 
			},
			{
				"x": -0.2357464495,
				"y": 0.0454663805,
				"z": -2.5587598373,
				"element": "H" 
			},
			{
				"x": -2.3069011799,
				"y": -1.5806569171,
				"z": 0.6951868545,
				"element": "H" 
			},
			{
				"x": -0.8108052124,
				"y": -2.3994756087,
				"z": 0.2429424285,
				"element": "H" 
			},
			{
				"x": -0.3038125403,
				"y": -1.0702286062,
				"z": 2.1878466137,
				"element": "H" 
			},
			{
				"x": 0.4865288855,
				"y": 1.0940444706,
				"z": 1.9873012684,
				"element": "H" 
			},
			{
				"x": -0.2797250168,
				"y": 2.6662388902,
				"z": 0.3225553115,
				"element": "H" 
			},
			{
				"x": -1.1232366433,
				"y": 1.4575280756,
				"z": -0.5956692048,
				"element": "H" 
			}
		],
		 "valence_orbital": [ 
			{
				"type": "occ",
				"energy": -0.32739,
				"method": "rhf"
			},
			{
				"type": "occ",
				"energy": -0.28216,
				"method": "rhf"
			},
			{
				"type": "occ",
				"energy": -0.27115,
				"method": "rhf"
			},
			{
				"type": "occ",
				"energy": -0.2404,
				"method": "rhf"
			},
			{
				"type": "occ",
				"energy": -0.2368,
				"method": "rhf"
			},
			{
				"type": "unocc",
				"energy": -0.02569,
				"method": "rhf"
			},
			{
				"type": "unocc",
				"energy": -0.02405,
				"method": "rhf"
			},
			{
				"type": "unocc",
				"energy": 0.00329,
				"method": "rhf"
			},
			{
				"type": "unocc",
				"energy": 0.00711,
				"method": "rhf"
			},
			{
				"type": "unocc",
				"energy": 0.08018,
				"method": "rhf"
			}
		],
		"cosmo_sigma_profile": { 
			"-0.025": 0.0,
			"-0.024": 0.0,
			"-0.023": 0.0,
			"-0.022": 0.0,
			"-0.021": 0.0,
			"-0.02": 0.0,
			"-0.019": 0.0,
			"-0.018": 0.0,
			"-0.017": 0.0,
			"-0.016": 0.0,
			"-0.015": 0.0,
			"-0.014": 0.0,
			"-0.013": 0.0,
			"-0.012": 0.0,
			"-0.011": 0.0,
			"-0.01": 0.0,
			"-0.009": 0.0,
			"-0.008": 0.0118119563867,
			"-0.007": 2.51275589418,
			"-0.006": 14.6094756965,
			"-0.005": 25.6305850641,
			"-0.004": 25.0990834754,
			"-0.003": 23.9303244864,
			"-0.002": 16.5355215604,
			"-0.001": 11.7454023138,
			"0.0": 9.33730637619,
			"0.001": 7.69895043502,
			"0.002": 8.75127330058,
			"0.003": 6.04167832054,
			"0.004": 7.63675953434,
			"0.005": 6.09264814188,
			"0.006": 3.74213261503,
			"0.007": 2.72356629005,
			"0.008": 3.21658910586,
			"0.009": 3.22506444896,
			"0.01": 3.27190501965,
			"0.011": 6.67442327379,
			"0.012": 8.37599705149,
			"0.013": 3.34507566068,
			"0.014": 0.0113850768059,
			"0.015": 0.0,
			"0.016": 0.0,
			"0.017": 0.0,
			"0.018": 0.0,
			"0.019": 0.0,
			"0.02": 0.0,
			"0.021": 0.0,
			"0.022": 0.0,
			"0.023": 0.0,
			"0.024": 0.0,
			"0.025": 0.0
		}
	}
}
