{
	 "smiles": "OCC(=O)NC1=CC(=CC=C1)[N+]([O-])=O", 
	 "Tm": 456.15, 
	 "num_atms": 22, 
	 "gaussian": { 
		 "optdone": 1, 
		 "sigma_profile": "yes", 
		 "theory": "DFT", 
		 "functional": "B3LYP", 
		 "basiset": "6-31G**", 
		 "properties": { 
			 "R2extent": 3626.0821, 
			 "electric_dipole_moment_norm": 3.08804023452, 
			 "electric_quadrupole_moment_norm": 19.225544365, 
			 "total_energy": -719.967234675, 
			 "HOMO_LUMO_gap": 0.1574, 
			 "cosmo_polarized_energy": -16.21, 
			 "cosmo_cavitation_energy": 27.44, 
			 "cosmo_dispersion_energy": -20.0, 
			 "cosmo_repulsion_energy": 1.58, 
			 "cosmo_total_nonelectrostatic_energy": 9.02, 
			 "SMD_solvation_energy": 7.84 
		},
		"coords": [
			{
				"x": -3.225802261,
				"y": 1.4107038472,
				"z": -0.2548206884,
				"element": "O" 
			},
			{
				"x": -2.7786580367,
				"y": 0.2535998773,
				"z": 0.4437935335,
				"element": "C" 
			},
			{
				"x": -2.3461658355,
				"y": -0.8262266843,
				"z": -0.5487892312,
				"element": "C" 
			},
			{
				"x": -3.1841509159,
				"y": -1.5504667813,
				"z": -1.069497875,
				"element": "O" 
			},
			{
				"x": -1.0083693425,
				"y": -0.9739623605,
				"z": -0.8551190654,
				"element": "N" 
			},
			{
				"x": 0.0977826747,
				"y": -0.141893726,
				"z": -0.5760966775,
				"element": "C" 
			},
			{
				"x": 1.3490673192,
				"y": -0.7419485117,
				"z": -0.3933355402,
				"element": "C" 
			},
			{
				"x": 2.4542183346,
				"y": 0.0685446447,
				"z": -0.1584743947,
				"element": "C" 
			},
			{
				"x": 2.3654173456,
				"y": 1.4562223641,
				"z": -0.0793250051,
				"element": "C" 
			},
			{
				"x": 1.1137292102,
				"y": 2.0393249771,
				"z": -0.2658762121,
				"element": "C" 
			},
			{
				"x": -0.0121060016,
				"y": 1.2587212468,
				"z": -0.5316918274,
				"element": "C" 
			},
			{
				"x": 3.7678339249,
				"y": -0.5753466075,
				"z": 0.0263584093,
				"element": "N" 
			},
			{
				"x": 4.7310579516,
				"y": 0.1538975964,
				"z": 0.2547925203,
				"element": "O" 
			},
			{
				"x": 3.8192052116,
				"y": -1.8016267963,
				"z": -0.0599724467,
				"element": "O" 
			},
			{
				"x": -3.9353331029,
				"y": 1.1247426521,
				"z": -0.8480727593,
				"element": "H" 
			},
			{
				"x": -1.9716830973,
				"y": 0.5766609697,
				"z": 1.1036768647,
				"element": "H" 
			},
			{
				"x": -3.5781733211,
				"y": -0.1895636951,
				"z": 1.0501700672,
				"element": "H" 
			},
			{
				"x": -0.8375741792,
				"y": -1.7815425238,
				"z": -1.4438277869,
				"element": "H" 
			},
			{
				"x": 1.4731261031,
				"y": -1.8176747335,
				"z": -0.4231324001,
				"element": "H" 
			},
			{
				"x": 3.2551280728,
				"y": 2.041652805,
				"z": 0.1123101164,
				"element": "H" 
			},
			{
				"x": 1.0135297112,
				"y": 3.1193199135,
				"z": -0.2279282376,
				"element": "H" 
			},
			{
				"x": -0.9722797658,
				"y": 1.7285615262,
				"z": -0.7191413638,
				"element": "H" 
			}
		],
		 "valence_orbital": [ 
			{
				"type": "occ",
				"energy": -0.30888,
				"method": "rhf"
			},
			{
				"type": "occ",
				"energy": -0.29789,
				"method": "rhf"
			},
			{
				"type": "occ",
				"energy": -0.29041,
				"method": "rhf"
			},
			{
				"type": "occ",
				"energy": -0.26822,
				"method": "rhf"
			},
			{
				"type": "occ",
				"energy": -0.25362,
				"method": "rhf"
			},
			{
				"type": "unocc",
				"energy": -0.09622,
				"method": "rhf"
			},
			{
				"type": "unocc",
				"energy": -0.04397,
				"method": "rhf"
			},
			{
				"type": "unocc",
				"energy": -0.01389,
				"method": "rhf"
			},
			{
				"type": "unocc",
				"energy": 0.00556,
				"method": "rhf"
			},
			{
				"type": "unocc",
				"energy": 0.07285,
				"method": "rhf"
			}
		],
		"cosmo_sigma_profile": { 
			"-0.025": 0.0,
			"-0.024": 0.0,
			"-0.023": 0.0,
			"-0.022": 0.0,
			"-0.021": 0.0,
			"-0.02": 0.0,
			"-0.019": 0.0,
			"-0.018": 0.0,
			"-0.017": 0.0,
			"-0.016": 0.543164063502,
			"-0.015": 2.16711299469,
			"-0.014": 1.71346749375,
			"-0.013": 1.96001208804,
			"-0.012": 1.71320410219,
			"-0.011": 2.04842906124,
			"-0.01": 2.1393842476,
			"-0.009": 2.76260259884,
			"-0.008": 3.40955336541,
			"-0.007": 7.11921141966,
			"-0.006": 14.6240432265,
			"-0.005": 13.5708540051,
			"-0.004": 12.3739505172,
			"-0.003": 13.8366392282,
			"-0.002": 14.0957062644,
			"-0.001": 16.9873009589,
			"0.0": 17.5658202713,
			"0.001": 14.9722446979,
			"0.002": 10.2179027322,
			"0.003": 4.48565289749,
			"0.004": 5.60352181949,
			"0.005": 5.40425449314,
			"0.006": 5.68935459461,
			"0.007": 10.6138879891,
			"0.008": 9.23992596028,
			"0.009": 6.18337042425,
			"0.01": 4.33705532431,
			"0.011": 2.84708274262,
			"0.012": 5.07109780352,
			"0.013": 5.12285347215,
			"0.014": 0.581302796329,
			"0.015": 0.0,
			"0.016": 0.0,
			"0.017": 0.0,
			"0.018": 0.0,
			"0.019": 0.0,
			"0.02": 0.0,
			"0.021": 0.0,
			"0.022": 0.0,
			"0.023": 0.0,
			"0.024": 0.0,
			"0.025": 0.0
		}
	}
}
