{
	 "smiles": "CC1=CC=CC(=C1)N=NC1=C2NC(=O)C=C(N2N=C1N)C1=CC=CC=C1", 
	 "Tm": 569.15, 
	 "num_atms": 42, 
	 "gaussian": { 
		 "optdone": 1, 
		 "sigma_profile": "yes", 
		 "theory": "DFT", 
		 "functional": "B3LYP", 
		 "basiset": "6-31G**", 
		 "properties": { 
			 "R2extent": 13732.3212, 
			 "electric_dipole_moment_norm": 3.86208035261, 
			 "electric_quadrupole_moment_norm": 23.5547122581, 
			 "total_energy": -1137.37071653, 
			 "HOMO_LUMO_gap": 0.13293, 
			 "cosmo_polarized_energy": -17.86, 
			 "cosmo_cavitation_energy": 47.56, 
			 "cosmo_dispersion_energy": -34.05, 
			 "cosmo_repulsion_energy": 2.57, 
			 "cosmo_total_nonelectrostatic_energy": 16.07, 
			 "SMD_solvation_energy": 6.78 
		},
		"coords": [
			{
				"x": 5.0039098985,
				"y": 0.1083537839,
				"z": 3.7791387716,
				"element": "C" 
			},
			{
				"x": 4.6043725037,
				"y": 0.7124939522,
				"z": 2.4529773229,
				"element": "C" 
			},
			{
				"x": 5.4636405542,
				"y": 1.5790257588,
				"z": 1.7652420492,
				"element": "C" 
			},
			{
				"x": 5.0769120199,
				"y": 2.1575575821,
				"z": 0.5511160714,
				"element": "C" 
			},
			{
				"x": 3.8313048475,
				"y": 1.8843903442,
				"z": -0.0005329299,
				"element": "C" 
			},
			{
				"x": 2.9569317111,
				"y": 1.0153944681,
				"z": 0.675023015,
				"element": "C" 
			},
			{
				"x": 3.3541975223,
				"y": 0.4385177085,
				"z": 1.8893780318,
				"element": "C" 
			},
			{
				"x": 1.6695013765,
				"y": 0.651429383,
				"z": 0.2173404969,
				"element": "N" 
			},
			{
				"x": 1.302220796,
				"y": 1.2130722675,
				"z": -0.8688552072,
				"element": "N" 
			},
			{
				"x": 0.0569119271,
				"y": 0.8542404357,
				"z": -1.3039583678,
				"element": "C" 
			},
			{
				"x": -0.8872915099,
				"y": -0.018991777,
				"z": -0.7519707135,
				"element": "C" 
			},
			{
				"x": -0.8615385888,
				"y": -0.80100011,
				"z": 0.3514023657,
				"element": "N" 
			},
			{
				"x": -1.9241202805,
				"y": -1.6537429688,
				"z": 0.7182426441,
				"element": "C" 
			},
			{
				"x": -1.8496356595,
				"y": -2.3464199306,
				"z": 1.7227966296,
				"element": "O" 
			},
			{
				"x": -3.054291507,
				"y": -1.5908105808,
				"z": -0.2008757651,
				"element": "C" 
			},
			{
				"x": -3.0896542921,
				"y": -0.7997012865,
				"z": -1.3176057816,
				"element": "C" 
			},
			{
				"x": -1.9797364024,
				"y": -0.0064536649,
				"z": -1.5707597769,
				"element": "N" 
			},
			{
				"x": -1.8024392995,
				"y": 0.837778128,
				"z": -2.667348318,
				"element": "N" 
			},
			{
				"x": -0.5874246436,
				"y": 1.3405849978,
				"z": -2.4945475522,
				"element": "C" 
			},
			{
				"x": -0.0122926747,
				"y": 2.190576536,
				"z": -3.3975372322,
				"element": "N" 
			},
			{
				"x": -4.2537363788,
				"y": -0.762751284,
				"z": -2.232079318,
				"element": "C" 
			},
			{
				"x": -4.7417957661,
				"y": 0.4391537669,
				"z": -2.7717511039,
				"element": "C" 
			},
			{
				"x": -5.8852668506,
				"y": 0.435367766,
				"z": -3.5677794988,
				"element": "C" 
			},
			{
				"x": -6.5500342149,
				"y": -0.7605466733,
				"z": -3.8467899988,
				"element": "C" 
			},
			{
				"x": -6.0654945569,
				"y": -1.9602537063,
				"z": -3.3231252776,
				"element": "C" 
			},
			{
				"x": -4.9270843597,
				"y": -1.9619005271,
				"z": -2.5198089157,
				"element": "C" 
			},
			{
				"x": 4.69661096,
				"y": 0.7497041819,
				"z": 4.6146487257,
				"element": "H" 
			},
			{
				"x": 6.0881924418,
				"y": -0.0198782522,
				"z": 3.8495536086,
				"element": "H" 
			},
			{
				"x": 4.5357617599,
				"y": -0.8686584456,
				"z": 3.9310393156,
				"element": "H" 
			},
			{
				"x": 6.4440640577,
				"y": 1.8009081903,
				"z": 2.1792773659,
				"element": "H" 
			},
			{
				"x": 5.7613689629,
				"y": 2.8231514837,
				"z": 0.0321225333,
				"element": "H" 
			},
			{
				"x": 3.5212511207,
				"y": 2.3202767581,
				"z": -0.9427169913,
				"element": "H" 
			},
			{
				"x": 2.6608372763,
				"y": -0.2340512325,
				"z": 2.3872749563,
				"element": "H" 
			},
			{
				"x": -0.0138558908,
				"y": -0.7559458471,
				"z": 0.9112552064,
				"element": "H" 
			},
			{
				"x": -3.9132923816,
				"y": -2.1936607794,
				"z": 0.0585285247,
				"element": "H" 
			},
			{
				"x": -0.6389610952,
				"y": 2.6642699945,
				"z": -4.0308086267,
				"element": "H" 
			},
			{
				"x": 0.7643376487,
				"y": 2.7329904318,
				"z": -3.0502698056,
				"element": "H" 
			},
			{
				"x": -4.2206480913,
				"y": 1.3661691768,
				"z": -2.5703679346,
				"element": "H" 
			},
			{
				"x": -6.2575154528,
				"y": 1.3717783593,
				"z": -3.9727723468,
				"element": "H" 
			},
			{
				"x": -7.4372439604,
				"y": -0.757991497,
				"z": -4.4733211242,
				"element": "H" 
			},
			{
				"x": -6.5687575797,
				"y": -2.8967181184,
				"z": -3.5443303345,
				"element": "H" 
			},
			{
				"x": -4.5416159478,
				"y": -2.898208774,
				"z": -2.1290447137,
				"element": "H" 
			}
		],
		 "valence_orbital": [ 
			{
				"type": "occ",
				"energy": -0.24906,
				"method": "rhf"
			},
			{
				"type": "occ",
				"energy": -0.24383,
				"method": "rhf"
			},
			{
				"type": "occ",
				"energy": -0.23429,
				"method": "rhf"
			},
			{
				"type": "occ",
				"energy": -0.21576,
				"method": "rhf"
			},
			{
				"type": "occ",
				"energy": -0.20803,
				"method": "rhf"
			},
			{
				"type": "unocc",
				"energy": -0.0751,
				"method": "rhf"
			},
			{
				"type": "unocc",
				"energy": -0.05629,
				"method": "rhf"
			},
			{
				"type": "unocc",
				"energy": -0.011,
				"method": "rhf"
			},
			{
				"type": "unocc",
				"energy": 4e-05,
				"method": "rhf"
			},
			{
				"type": "unocc",
				"energy": 0.00256,
				"method": "rhf"
			}
		],
		"cosmo_sigma_profile": { 
			"-0.025": 0.0,
			"-0.024": 0.0,
			"-0.023": 0.0,
			"-0.022": 0.0,
			"-0.021": 0.0,
			"-0.02": 0.0,
			"-0.019": 0.0,
			"-0.018": 0.0,
			"-0.017": 0.0,
			"-0.016": 0.0,
			"-0.015": 0.0,
			"-0.014": 0.632789643587,
			"-0.013": 1.83728633495,
			"-0.012": 2.31685070909,
			"-0.011": 1.82771604096,
			"-0.01": 3.31012678646,
			"-0.009": 2.91323416594,
			"-0.008": 2.5837962927,
			"-0.007": 5.86243146644,
			"-0.006": 15.2200737117,
			"-0.005": 24.5346502762,
			"-0.004": 34.4342085907,
			"-0.003": 27.9947349167,
			"-0.002": 32.9972205607,
			"-0.001": 29.0893558686,
			"0.0": 30.8677308879,
			"0.001": 26.3990637769,
			"0.002": 24.9200147296,
			"0.003": 27.9089614262,
			"0.004": 31.1070771532,
			"0.005": 18.7335149011,
			"0.006": 6.60099578282,
			"0.007": 4.10831241375,
			"0.008": 2.53069759696,
			"0.009": 3.29239900128,
			"0.01": 3.04598621254,
			"0.011": 3.57092939332,
			"0.012": 3.15547930442,
			"0.013": 6.69303730473,
			"0.014": 2.89376063824,
			"0.015": 0.155166484195,
			"0.016": 0.0,
			"0.017": 0.0,
			"0.018": 0.0,
			"0.019": 0.0,
			"0.02": 0.0,
			"0.021": 0.0,
			"0.022": 0.0,
			"0.023": 0.0,
			"0.024": 0.0,
			"0.025": 0.0
		}
	}
}
