{
	 "smiles": "CCOC(=O)C1=NN(C(C)=C1C(=O)C1=NOC2C1C(=O)N(C2=O)C1=CC=C(F)C=C1)C1=CC=C(C)C=C1", 
	 "Tm": 484.15, 
	 "num_atms": 58, 
	 "gaussian": { 
		 "optdone": 1, 
		 "sigma_profile": "yes", 
		 "theory": "DFT", 
		 "functional": "B3LYP", 
		 "basiset": "6-31G**", 
		 "properties": { 
			 "R2extent": 22800.4043, 
			 "electric_dipole_moment_norm": 7.83936790437, 
			 "electric_quadrupole_moment_norm": 23.5810302599, 
			 "total_energy": -1773.56030379, 
			 "HOMO_LUMO_gap": 0.1709, 
			 "cosmo_polarized_energy": -26.48, 
			 "cosmo_cavitation_energy": 64.51, 
			 "cosmo_dispersion_energy": -42.52, 
			 "cosmo_repulsion_energy": 3.16, 
			 "cosmo_total_nonelectrostatic_energy": 25.15, 
			 "SMD_solvation_energy": 12.71 
		},
		"coords": [
			{
				"x": -1.1655600859,
				"y": -4.0226716436,
				"z": 3.2735321895,
				"element": "C" 
			},
			{
				"x": -2.0279297739,
				"y": -2.8254561452,
				"z": 3.6430579435,
				"element": "C" 
			},
			{
				"x": -2.2326530419,
				"y": -1.9535365291,
				"z": 2.503102118,
				"element": "O" 
			},
			{
				"x": -1.2911745514,
				"y": -1.0266667056,
				"z": 2.2780403113,
				"element": "C" 
			},
			{
				"x": -0.3015478645,
				"y": -0.8683750384,
				"z": 2.9768148541,
				"element": "O" 
			},
			{
				"x": -1.5783060245,
				"y": -0.2020164472,
				"z": 1.0817713455,
				"element": "C" 
			},
			{
				"x": -2.5249051926,
				"y": -0.5661703766,
				"z": 0.2200183024,
				"element": "N" 
			},
			{
				"x": -2.5373773937,
				"y": 0.4047580546,
				"z": -0.7197095788,
				"element": "N" 
			},
			{
				"x": -1.6518564484,
				"y": 1.4163569503,
				"z": -0.4529779905,
				"element": "C" 
			},
			{
				"x": -1.490807968,
				"y": 2.6416968625,
				"z": -1.2934661989,
				"element": "C" 
			},
			{
				"x": -0.9831583284,
				"y": 1.042570782,
				"z": 0.7110434181,
				"element": "C" 
			},
			{
				"x": 0.0363269316,
				"y": 1.8976973887,
				"z": 1.3738420098,
				"element": "C" 
			},
			{
				"x": -0.1098575248,
				"y": 3.1088628684,
				"z": 1.4541168944,
				"element": "O" 
			},
			{
				"x": 1.3002124877,
				"y": 1.2634317881,
				"z": 1.8690099123,
				"element": "C" 
			},
			{
				"x": 1.9655923242,
				"y": 1.8039607501,
				"z": 2.825588326,
				"element": "N" 
			},
			{
				"x": 3.1129572176,
				"y": 1.0801205496,
				"z": 3.0892823296,
				"element": "O" 
			},
			{
				"x": 3.201419675,
				"y": -0.0591995002,
				"z": 2.1821376085,
				"element": "C" 
			},
			{
				"x": 1.997363497,
				"y": 0.0644197725,
				"z": 1.2589413882,
				"element": "C" 
			},
			{
				"x": 2.5745403241,
				"y": 0.4020920199,
				"z": -0.1211424585,
				"element": "C" 
			},
			{
				"x": 1.9393251015,
				"y": 0.6382916411,
				"z": -1.1250270412,
				"element": "O" 
			},
			{
				"x": 3.9752928757,
				"y": 0.4113694709,
				"z": -0.0161311146,
				"element": "N" 
			},
			{
				"x": 4.4311574251,
				"y": 0.1030034137,
				"z": 1.2820669488,
				"element": "C" 
			},
			{
				"x": 5.5860217936,
				"y": -0.0129067128,
				"z": 1.6158723235,
				"element": "O" 
			},
			{
				"x": 4.8492352518,
				"y": 0.6975630252,
				"z": -1.1143690816,
				"element": "C" 
			},
			{
				"x": 5.9808818998,
				"y": -0.0965259409,
				"z": -1.3295157986,
				"element": "C" 
			},
			{
				"x": 6.8341497531,
				"y": 0.1861707162,
				"z": -2.393865073,
				"element": "C" 
			},
			{
				"x": 6.534350323,
				"y": 1.2540528656,
				"z": -3.231843249,
				"element": "C" 
			},
			{
				"x": 7.3555064749,
				"y": 1.5249774655,
				"z": -4.2651950129,
				"element": "F" 
			},
			{
				"x": 5.4124962129,
				"y": 2.0513844029,
				"z": -3.0350067669,
				"element": "C" 
			},
			{
				"x": 4.5669438569,
				"y": 1.7729717099,
				"z": -1.9637690287,
				"element": "C" 
			},
			{
				"x": -3.4574348689,
				"y": 0.284804434,
				"z": -1.8074697946,
				"element": "C" 
			},
			{
				"x": -3.0484264721,
				"y": 0.5241177269,
				"z": -3.1202745295,
				"element": "C" 
			},
			{
				"x": -3.9682827872,
				"y": 0.3914268612,
				"z": -4.1605167673,
				"element": "C" 
			},
			{
				"x": -5.2922903734,
				"y": 0.0066647659,
				"z": -3.9178798499,
				"element": "C" 
			},
			{
				"x": -6.2897611758,
				"y": -0.1131533249,
				"z": -5.0450651667,
				"element": "C" 
			},
			{
				"x": -5.6712731391,
				"y": -0.2512642534,
				"z": -2.5916208868,
				"element": "C" 
			},
			{
				"x": -4.7707385207,
				"y": -0.1122863822,
				"z": -1.5403459283,
				"element": "C" 
			},
			{
				"x": -1.099034071,
				"y": -4.7073514324,
				"z": 4.1254551714,
				"element": "H" 
			},
			{
				"x": -0.1531809659,
				"y": -3.7040364226,
				"z": 3.0128238041,
				"element": "H" 
			},
			{
				"x": -1.5957123559,
				"y": -4.565848181,
				"z": 2.4273226823,
				"element": "H" 
			},
			{
				"x": -1.5797847887,
				"y": -2.2473813358,
				"z": 4.4543038174,
				"element": "H" 
			},
			{
				"x": -3.0369884489,
				"y": -3.1314803863,
				"z": 3.927367514,
				"element": "H" 
			},
			{
				"x": -2.4268234311,
				"y": 2.9083281911,
				"z": -1.7895731415,
				"element": "H" 
			},
			{
				"x": -1.1751522228,
				"y": 3.4669868883,
				"z": -0.6554252212,
				"element": "H" 
			},
			{
				"x": -0.7253952917,
				"y": 2.4943045245,
				"z": -2.0640605225,
				"element": "H" 
			},
			{
				"x": 3.2741406694,
				"y": -0.9665714004,
				"z": 2.7843918285,
				"element": "H" 
			},
			{
				"x": 1.3526232489,
				"y": -0.8116887135,
				"z": 1.1976763614,
				"element": "H" 
			},
			{
				"x": 6.2028402603,
				"y": -0.918528876,
				"z": -0.6612400306,
				"element": "H" 
			},
			{
				"x": 7.7205786408,
				"y": -0.4100374435,
				"z": -2.5789890041,
				"element": "H" 
			},
			{
				"x": 5.2149655045,
				"y": 2.8771471169,
				"z": -3.7092553308,
				"element": "H" 
			},
			{
				"x": 3.6876753732,
				"y": 2.3814330581,
				"z": -1.7948292667,
				"element": "H" 
			},
			{
				"x": -2.017725437,
				"y": 0.7847009911,
				"z": -3.3329270572,
				"element": "H" 
			},
			{
				"x": -3.6422763704,
				"y": 0.575915483,
				"z": -5.1805431838,
				"element": "H" 
			},
			{
				"x": -6.9634966108,
				"y": -0.9622487609,
				"z": -4.8940971193,
				"element": "H" 
			},
			{
				"x": -5.7906450215,
				"y": -0.2431389939,
				"z": -6.0093520696,
				"element": "H" 
			},
			{
				"x": -6.9137194823,
				"y": 0.7863433878,
				"z": -5.11706472,
				"element": "H" 
			},
			{
				"x": -6.6902698841,
				"y": -0.5629198313,
				"z": -2.3776639608,
				"element": "H" 
			},
			{
				"x": -5.064751205,
				"y": -0.3176651491,
				"z": -0.517467458,
				"element": "H" 
			}
		],
		 "valence_orbital": [ 
			{
				"type": "occ",
				"energy": -0.26644,
				"method": "rhf"
			},
			{
				"type": "occ",
				"energy": -0.25625,
				"method": "rhf"
			},
			{
				"type": "occ",
				"energy": -0.25356,
				"method": "rhf"
			},
			{
				"type": "occ",
				"energy": -0.24584,
				"method": "rhf"
			},
			{
				"type": "occ",
				"energy": -0.24517,
				"method": "rhf"
			},
			{
				"type": "unocc",
				"energy": -0.07427,
				"method": "rhf"
			},
			{
				"type": "unocc",
				"energy": -0.04817,
				"method": "rhf"
			},
			{
				"type": "unocc",
				"energy": -0.04512,
				"method": "rhf"
			},
			{
				"type": "unocc",
				"energy": -0.03159,
				"method": "rhf"
			},
			{
				"type": "unocc",
				"energy": -0.02075,
				"method": "rhf"
			}
		],
		"cosmo_sigma_profile": { 
			"-0.025": 0.0,
			"-0.024": 0.0,
			"-0.023": 0.0,
			"-0.022": 0.0,
			"-0.021": 0.0,
			"-0.02": 0.0,
			"-0.019": 0.0,
			"-0.018": 0.0,
			"-0.017": 0.0,
			"-0.016": 0.0,
			"-0.015": 0.0,
			"-0.014": 0.0,
			"-0.013": 0.129744991291,
			"-0.012": 0.92479236929,
			"-0.011": 1.97913927247,
			"-0.01": 5.431003536,
			"-0.009": 5.14585456555,
			"-0.008": 8.05329660686,
			"-0.007": 16.7094688794,
			"-0.006": 22.6072109387,
			"-0.005": 32.8510624113,
			"-0.004": 42.3929952161,
			"-0.003": 40.4730479088,
			"-0.002": 42.3639778665,
			"-0.001": 42.1274054902,
			"0.0": 41.3400683353,
			"0.001": 31.3889059858,
			"0.002": 30.0265645029,
			"0.003": 29.4984448691,
			"0.004": 33.3816949917,
			"0.005": 14.0936320728,
			"0.006": 12.0447625266,
			"0.007": 12.0614793467,
			"0.008": 12.5311940031,
			"0.009": 11.2020534273,
			"0.01": 14.339151815,
			"0.011": 8.35099550977,
			"0.012": 2.94501498567,
			"0.013": 1.22853743114,
			"0.014": 0.759718572258,
			"0.015": 0.0704877222646,
			"0.016": 0.0,
			"0.017": 0.0,
			"0.018": 0.0,
			"0.019": 0.0,
			"0.02": 0.0,
			"0.021": 0.0,
			"0.022": 0.0,
			"0.023": 0.0,
			"0.024": 0.0,
			"0.025": 0.0
		}
	}
}
