{
	 "smiles": "O=C1C(C(N1C1=CC=CC=C1)C1=CC=CC=C1)C1=CC=CC=C1", 
	 "Tm": 407.15, 
	 "num_atms": 40, 
	 "gaussian": { 
		 "optdone": 1, 
		 "sigma_profile": "yes", 
		 "theory": "DFT", 
		 "functional": "B3LYP", 
		 "basiset": "6-31G**", 
		 "properties": { 
			 "R2extent": 7663.3377, 
			 "electric_dipole_moment_norm": 3.51212302461, 
			 "electric_quadrupole_moment_norm": 11.6218594098, 
			 "total_energy": -940.456172996, 
			 "HOMO_LUMO_gap": 0.19766, 
			 "cosmo_polarized_energy": -12.94, 
			 "cosmo_cavitation_energy": 43.39, 
			 "cosmo_dispersion_energy": -28.99, 
			 "cosmo_repulsion_energy": 2.22, 
			 "cosmo_total_nonelectrostatic_energy": 16.62, 
			 "SMD_solvation_energy": 7.49 
		},
		"coords": [
			{
				"x": -2.692622964,
				"y": -0.3281899642,
				"z": -2.8269997069,
				"element": "O" 
			},
			{
				"x": -2.1367595023,
				"y": -0.1752548656,
				"z": -1.7591077772,
				"element": "C" 
			},
			{
				"x": -2.1550973982,
				"y": -0.8892327677,
				"z": -0.3957950308,
				"element": "C" 
			},
			{
				"x": -1.0980998697,
				"y": 0.2163027496,
				"z": 0.0462472027,
				"element": "C" 
			},
			{
				"x": -1.2286586337,
				"y": 0.7702312572,
				"z": -1.317027269,
				"element": "N" 
			},
			{
				"x": -0.7401278961,
				"y": 1.9619378896,
				"z": -1.8792759532,
				"element": "C" 
			},
			{
				"x": -1.0811956389,
				"y": 2.3089074802,
				"z": -3.1979398188,
				"element": "C" 
			},
			{
				"x": -0.5995705633,
				"y": 3.4994967156,
				"z": -3.7368927797,
				"element": "C" 
			},
			{
				"x": 0.2176159575,
				"y": 4.3490047536,
				"z": -2.9864829024,
				"element": "C" 
			},
			{
				"x": 0.553940738,
				"y": 3.9955745775,
				"z": -1.6792312923,
				"element": "C" 
			},
			{
				"x": 0.0815588828,
				"y": 2.8082786884,
				"z": -1.1208072668,
				"element": "C" 
			},
			{
				"x": 0.2835679837,
				"y": -0.2140352138,
				"z": 0.4737128729,
				"element": "C" 
			},
			{
				"x": 1.2023648231,
				"y": -0.7568544309,
				"z": -0.4342697211,
				"element": "C" 
			},
			{
				"x": 2.461822938,
				"y": -1.1698284934,
				"z": -0.0022115581,
				"element": "C" 
			},
			{
				"x": 2.820542639,
				"y": -1.0493803557,
				"z": 1.3425017392,
				"element": "C" 
			},
			{
				"x": 1.9128652578,
				"y": -0.5083891241,
				"z": 2.2537201239,
				"element": "C" 
			},
			{
				"x": 0.6544372107,
				"y": -0.0900067037,
				"z": 1.8186327961,
				"element": "C" 
			},
			{
				"x": -1.8099236561,
				"y": -2.3565837318,
				"z": -0.3242883186,
				"element": "C" 
			},
			{
				"x": -1.6115139507,
				"y": -3.1207335657,
				"z": -1.4811576383,
				"element": "C" 
			},
			{
				"x": -1.3036181648,
				"y": -4.4801797646,
				"z": -1.3870946573,
				"element": "C" 
			},
			{
				"x": -1.1898463733,
				"y": -5.0923003617,
				"z": -0.1393239868,
				"element": "C" 
			},
			{
				"x": -1.3931444021,
				"y": -4.3388817707,
				"z": 1.0196376601,
				"element": "C" 
			},
			{
				"x": -1.7045970832,
				"y": -2.9839118885,
				"z": 0.9261059041,
				"element": "C" 
			},
			{
				"x": -3.111308641,
				"y": -0.7055915148,
				"z": 0.109469255,
				"element": "H" 
			},
			{
				"x": -1.5182742763,
				"y": 0.8951172737,
				"z": 0.798407171,
				"element": "H" 
			},
			{
				"x": -1.7174788723,
				"y": 1.6468400311,
				"z": -3.7724190291,
				"element": "H" 
			},
			{
				"x": -0.8679448559,
				"y": 3.7643134277,
				"z": -4.755734362,
				"element": "H" 
			},
			{
				"x": 0.5888161138,
				"y": 5.2741352067,
				"z": -3.4167646791,
				"element": "H" 
			},
			{
				"x": 1.19091338,
				"y": 4.6446584566,
				"z": -1.0851128886,
				"element": "H" 
			},
			{
				"x": 0.3574369144,
				"y": 2.5340646661,
				"z": -0.1083931386,
				"element": "H" 
			},
			{
				"x": 0.9324391431,
				"y": -0.8484530081,
				"z": -1.4815561308,
				"element": "H" 
			},
			{
				"x": 3.1655380322,
				"y": -1.5856229242,
				"z": -0.7175184225,
				"element": "H" 
			},
			{
				"x": 3.8030149593,
				"y": -1.370658971,
				"z": 1.6760083192,
				"element": "H" 
			},
			{
				"x": 2.1850604355,
				"y": -0.4042995381,
				"z": 3.3001658695,
				"element": "H" 
			},
			{
				"x": -0.047114209,
				"y": 0.3398977636,
				"z": 2.5303357688,
				"element": "H" 
			},
			{
				"x": -1.7219642494,
				"y": -2.6559607129,
				"z": -2.4554017442,
				"element": "H" 
			},
			{
				"x": -1.1566417625,
				"y": -5.0600792563,
				"z": -2.293922396,
				"element": "H" 
			},
			{
				"x": -0.9504509547,
				"y": -6.1494373624,
				"z": -0.068008798,
				"element": "H" 
			},
			{
				"x": -1.3116142231,
				"y": -4.8075579082,
				"z": 1.9963154123,
				"element": "H" 
			},
			{
				"x": -1.8629672686,
				"y": -2.4049367393,
				"z": 1.8324771716,
				"element": "H" 
			}
		],
		 "valence_orbital": [ 
			{
				"type": "occ",
				"energy": -0.25054,
				"method": "rhf"
			},
			{
				"type": "occ",
				"energy": -0.2486,
				"method": "rhf"
			},
			{
				"type": "occ",
				"energy": -0.24505,
				"method": "rhf"
			},
			{
				"type": "occ",
				"energy": -0.24317,
				"method": "rhf"
			},
			{
				"type": "occ",
				"energy": -0.21745,
				"method": "rhf"
			},
			{
				"type": "unocc",
				"energy": -0.01979,
				"method": "rhf"
			},
			{
				"type": "unocc",
				"energy": -0.01504,
				"method": "rhf"
			},
			{
				"type": "unocc",
				"energy": -0.00953,
				"method": "rhf"
			},
			{
				"type": "unocc",
				"energy": -0.00121,
				"method": "rhf"
			},
			{
				"type": "unocc",
				"energy": 0.0009,
				"method": "rhf"
			}
		],
		"cosmo_sigma_profile": { 
			"-0.025": 0.0,
			"-0.024": 0.0,
			"-0.023": 0.0,
			"-0.022": 0.0,
			"-0.021": 0.0,
			"-0.02": 0.0,
			"-0.019": 0.0,
			"-0.018": 0.0,
			"-0.017": 0.0,
			"-0.016": 0.0,
			"-0.015": 0.0,
			"-0.014": 0.0,
			"-0.013": 0.0,
			"-0.012": 0.0,
			"-0.011": 0.0,
			"-0.01": 0.0,
			"-0.009": 0.0,
			"-0.008": 0.212873346386,
			"-0.007": 5.80117509909,
			"-0.006": 21.1381321157,
			"-0.005": 35.3596953543,
			"-0.004": 34.2461140327,
			"-0.003": 30.6085638529,
			"-0.002": 23.7895208194,
			"-0.001": 21.3631401175,
			"0.0": 19.5483488665,
			"0.001": 20.8748579693,
			"0.002": 23.3007881809,
			"0.003": 24.9515063805,
			"0.004": 25.4895284044,
			"0.005": 27.7104349027,
			"0.006": 17.7767594121,
			"0.007": 2.11195866231,
			"0.008": 2.06782962329,
			"0.009": 1.92239598492,
			"0.01": 1.65807003399,
			"0.011": 2.3960004907,
			"0.012": 3.82486025368,
			"0.013": 1.4008650708,
			"0.014": 0.0293393569816,
			"0.015": 0.0,
			"0.016": 0.0,
			"0.017": 0.0,
			"0.018": 0.0,
			"0.019": 0.0,
			"0.02": 0.0,
			"0.021": 0.0,
			"0.022": 0.0,
			"0.023": 0.0,
			"0.024": 0.0,
			"0.025": 0.0
		}
	}
}
