{
	 "smiles": "COC(=O)C(=CC1=CC(Br)=C(O)C(OC)=C1)C#N", 
	 "Tm": 473.15, 
	 "num_atms": 28, 
	 "gaussian": { 
		 "optdone": 1, 
		 "sigma_profile": "yes", 
		 "theory": "DFT", 
		 "functional": "B3LYP", 
		 "basiset": "6-31G**", 
		 "properties": { 
			 "R2extent": 8407.1327, 
			 "electric_dipole_moment_norm": 6.18182522318, 
			 "electric_quadrupole_moment_norm": 22.005611032, 
			 "total_energy": -3390.3017101, 
			 "HOMO_LUMO_gap": 0.14711, 
			 "cosmo_polarized_energy": -18.96, 
			 "cosmo_cavitation_energy": 37.14, 
			 "cosmo_dispersion_energy": -25.16, 
			 "cosmo_repulsion_energy": 1.97, 
			 "cosmo_total_nonelectrostatic_energy": 13.95, 
			 "SMD_solvation_energy": 9.16 
		},
		"coords": [
			{
				"x": -1.608805949,
				"y": -1.2341960424,
				"z": -2.4577723822,
				"element": "C" 
			},
			{
				"x": -0.7204999874,
				"y": -1.6336981666,
				"z": -1.398388081,
				"element": "O" 
			},
			{
				"x": -1.2339826212,
				"y": -1.5581596844,
				"z": -0.1575351251,
				"element": "C" 
			},
			{
				"x": -2.3606308055,
				"y": -1.1928037281,
				"z": 0.0971231666,
				"element": "O" 
			},
			{
				"x": -0.2342232604,
				"y": -2.0273006213,
				"z": 0.8700107079,
				"element": "C" 
			},
			{
				"x": 0.9798225588,
				"y": -1.4658321509,
				"z": 1.1010392237,
				"element": "C" 
			},
			{
				"x": 1.5492680077,
				"y": -0.2538888533,
				"z": 0.5218333865,
				"element": "C" 
			},
			{
				"x": 2.9459549712,
				"y": -0.1307406955,
				"z": 0.482729675,
				"element": "C" 
			},
			{
				"x": 3.5451891255,
				"y": 1.0034182927,
				"z": -0.059655575,
				"element": "C" 
			},
			{
				"x": 5.4399570325,
				"y": 1.1379226977,
				"z": -0.1251787254,
				"element": "Br" 
			},
			{
				"x": 2.768402268,
				"y": 2.055258792,
				"z": -0.5457554244,
				"element": "C" 
			},
			{
				"x": 3.3326502169,
				"y": 3.1681746452,
				"z": -1.0559236691,
				"element": "O" 
			},
			{
				"x": 1.3579603582,
				"y": 1.9458906004,
				"z": -0.471980948,
				"element": "C" 
			},
			{
				"x": 0.7160700576,
				"y": 3.0602051034,
				"z": -0.9428852924,
				"element": "O" 
			},
			{
				"x": -0.7036332535,
				"y": 3.114820225,
				"z": -0.8512142233,
				"element": "C" 
			},
			{
				"x": 0.7533669565,
				"y": 0.8140146561,
				"z": 0.0486768794,
				"element": "C" 
			},
			{
				"x": -0.6551127051,
				"y": -3.1536498554,
				"z": 1.6430739254,
				"element": "C" 
			},
			{
				"x": -0.9987283419,
				"y": -4.078257011,
				"z": 2.2617125446,
				"element": "N" 
			},
			{
				"x": -1.8819605405,
				"y": -0.1804330148,
				"z": -2.3546462237,
				"element": "H" 
			},
			{
				"x": -2.5192336887,
				"y": -1.8373713517,
				"z": -2.4408271159,
				"element": "H" 
			},
			{
				"x": -1.0532622674,
				"y": -1.3963358021,
				"z": -3.3805702206,
				"element": "H" 
			},
			{
				"x": 1.609730167,
				"y": -1.9701760766,
				"z": 1.8311039519,
				"element": "H" 
			},
			{
				"x": 3.5734910622,
				"y": -0.9302030278,
				"z": 0.8601423816,
				"element": "H" 
			},
			{
				"x": 2.6094967845,
				"y": 3.765989123,
				"z": -1.3064243839,
				"element": "H" 
			},
			{
				"x": -1.1697254119,
				"y": 2.3178873346,
				"z": -1.4426791614,
				"element": "H" 
			},
			{
				"x": -1.0365157556,
				"y": 3.0362886343,
				"z": 0.1901320558,
				"element": "H" 
			},
			{
				"x": -0.9953445742,
				"y": 4.084342219,
				"z": -1.255704542,
				"element": "H" 
			},
			{
				"x": -0.3241004044,
				"y": 0.7676337586,
				"z": 0.1400631951,
				"element": "H" 
			}
		],
		 "valence_orbital": [ 
			{
				"type": "occ",
				"energy": -0.29762,
				"method": "rhf"
			},
			{
				"type": "occ",
				"energy": -0.29291,
				"method": "rhf"
			},
			{
				"type": "occ",
				"energy": -0.28104,
				"method": "rhf"
			},
			{
				"type": "occ",
				"energy": -0.25305,
				"method": "rhf"
			},
			{
				"type": "occ",
				"energy": -0.22857,
				"method": "rhf"
			},
			{
				"type": "unocc",
				"energy": -0.08146,
				"method": "rhf"
			},
			{
				"type": "unocc",
				"energy": -0.02512,
				"method": "rhf"
			},
			{
				"type": "unocc",
				"energy": -0.01276,
				"method": "rhf"
			},
			{
				"type": "unocc",
				"energy": -0.00313,
				"method": "rhf"
			},
			{
				"type": "unocc",
				"energy": 0.01217,
				"method": "rhf"
			}
		],
		"cosmo_sigma_profile": { 
			"-0.025": 0.0,
			"-0.024": 0.0,
			"-0.023": 0.0,
			"-0.022": 0.0,
			"-0.021": 0.0,
			"-0.02": 0.0,
			"-0.019": 0.0,
			"-0.018": 0.0,
			"-0.017": 0.0,
			"-0.016": 0.31938458978,
			"-0.015": 0.448133593606,
			"-0.014": 0.405553739066,
			"-0.013": 0.69791148091,
			"-0.012": 0.697567462078,
			"-0.011": 0.471140736426,
			"-0.01": 1.6361767069,
			"-0.009": 4.43398429548,
			"-0.008": 4.69356960442,
			"-0.007": 10.6692809706,
			"-0.006": 21.6591655995,
			"-0.005": 23.0331013981,
			"-0.004": 24.6953333517,
			"-0.003": 18.1189788817,
			"-0.002": 16.9815068181,
			"-0.001": 19.0948946586,
			"0.0": 20.4031996148,
			"0.001": 21.5618608737,
			"0.002": 19.4502214073,
			"0.003": 16.3388793656,
			"0.004": 16.6425360419,
			"0.005": 10.5801641001,
			"0.006": 7.26198206512,
			"0.007": 7.0759629902,
			"0.008": 7.32425075556,
			"0.009": 7.58696318475,
			"0.01": 8.07230013099,
			"0.011": 6.9955793053,
			"0.012": 2.75708887849,
			"0.013": 1.19063101974,
			"0.014": 0.0094554634998,
			"0.015": 0.0,
			"0.016": 0.0,
			"0.017": 0.0,
			"0.018": 0.0,
			"0.019": 0.0,
			"0.02": 0.0,
			"0.021": 0.0,
			"0.022": 0.0,
			"0.023": 0.0,
			"0.024": 0.0,
			"0.025": 0.0
		}
	}
}
