{
	 "smiles": "CC(C)(C)OC(=O)NO", 
	 "Tm": 330.15, 
	 "num_atms": 20, 
	 "gaussian": { 
		 "optdone": 1, 
		 "sigma_profile": "yes", 
		 "theory": "DFT", 
		 "functional": "B3LYP", 
		 "basiset": "6-31G**", 
		 "properties": { 
			 "R2extent": 2290.7615, 
			 "electric_dipole_moment_norm": 2.99036154838, 
			 "electric_quadrupole_moment_norm": 8.02311979656, 
			 "total_energy": -477.554074061, 
			 "HOMO_LUMO_gap": 0.26283, 
			 "cosmo_polarized_energy": -9.03, 
			 "cosmo_cavitation_energy": 22.72, 
			 "cosmo_dispersion_energy": -16.59, 
			 "cosmo_repulsion_energy": 1.38, 
			 "cosmo_total_nonelectrostatic_energy": 7.52, 
			 "SMD_solvation_energy": 6.08 
		},
		"coords": [
			{
				"x": -2.8160016836,
				"y": 0.4916395101,
				"z": -1.4902601676,
				"element": "C" 
			},
			{
				"x": -1.4599112724,
				"y": 0.1508689971,
				"z": -2.1147320151,
				"element": "C" 
			},
			{
				"x": -1.300235622,
				"y": -1.3600163631,
				"z": -2.2927604367,
				"element": "C" 
			},
			{
				"x": -1.2210145143,
				"y": 0.8890744677,
				"z": -3.4346492336,
				"element": "C" 
			},
			{
				"x": -0.3771709772,
				"y": 0.4747210014,
				"z": -1.1591067872,
				"element": "O" 
			},
			{
				"x": -0.1558005579,
				"y": 1.7367978713,
				"z": -0.7689697045,
				"element": "C" 
			},
			{
				"x": -0.8008204361,
				"y": 2.7415631669,
				"z": -1.0433583857,
				"element": "O" 
			},
			{
				"x": 0.99631452,
				"y": 1.8084580133,
				"z": -0.0122379088,
				"element": "N" 
			},
			{
				"x": 1.1151100696,
				"y": 3.00889874,
				"z": 0.7265272016,
				"element": "O" 
			},
			{
				"x": -2.9206168526,
				"y": 1.5666731821,
				"z": -1.3408654158,
				"element": "H" 
			},
			{
				"x": -3.6186127532,
				"y": 0.1477669054,
				"z": -2.1505031218,
				"element": "H" 
			},
			{
				"x": -2.9297092306,
				"y": -0.014404648,
				"z": -0.5264634139,
				"element": "H" 
			},
			{
				"x": -2.057484924,
				"y": -1.7357475128,
				"z": -2.9869642287,
				"element": "H" 
			},
			{
				"x": -1.4203073229,
				"y": -1.8773163669,
				"z": -1.3365186523,
				"element": "H" 
			},
			{
				"x": -0.3116666893,
				"y": -1.6000089324,
				"z": -2.6942733325,
				"element": "H" 
			},
			{
				"x": -1.9593246991,
				"y": 0.5622376608,
				"z": -4.173787943,
				"element": "H" 
			},
			{
				"x": -1.3109535229,
				"y": 1.9680944584,
				"z": -3.3041157283,
				"element": "H" 
			},
			{
				"x": -0.2247310079,
				"y": 0.6595551758,
				"z": -3.8249377206,
				"element": "H" 
			},
			{
				"x": 1.1873676163,
				"y": 1.018402238,
				"z": 0.593024592,
				"element": "H" 
			},
			{
				"x": 0.4196698602,
				"y": 3.558742435,
				"z": 0.3108524025,
				"element": "H" 
			}
		],
		 "valence_orbital": [ 
			{
				"type": "occ",
				"energy": -0.34815,
				"method": "rhf"
			},
			{
				"type": "occ",
				"energy": -0.34379,
				"method": "rhf"
			},
			{
				"type": "occ",
				"energy": -0.30373,
				"method": "rhf"
			},
			{
				"type": "occ",
				"energy": -0.28849,
				"method": "rhf"
			},
			{
				"type": "occ",
				"energy": -0.23332,
				"method": "rhf"
			},
			{
				"type": "unocc",
				"energy": 0.02951,
				"method": "rhf"
			},
			{
				"type": "unocc",
				"energy": 0.07522,
				"method": "rhf"
			},
			{
				"type": "unocc",
				"energy": 0.07955,
				"method": "rhf"
			},
			{
				"type": "unocc",
				"energy": 0.10382,
				"method": "rhf"
			},
			{
				"type": "unocc",
				"energy": 0.11067,
				"method": "rhf"
			}
		],
		"cosmo_sigma_profile": { 
			"-0.025": 0.0,
			"-0.024": 0.0,
			"-0.023": 0.0,
			"-0.022": 0.0,
			"-0.021": 0.0,
			"-0.02": 0.0,
			"-0.019": 0.0,
			"-0.018": 0.0,
			"-0.017": 0.0,
			"-0.016": 0.318985883796,
			"-0.015": 1.56624799724,
			"-0.014": 0.682716046513,
			"-0.013": 1.1239201503,
			"-0.012": 1.14223025829,
			"-0.011": 1.380720799,
			"-0.01": 1.95175692558,
			"-0.009": 1.28311176955,
			"-0.008": 0.942955658751,
			"-0.007": 1.55689053682,
			"-0.006": 1.40721448938,
			"-0.005": 4.47647201355,
			"-0.004": 16.6315198319,
			"-0.003": 16.0706566278,
			"-0.002": 18.0655378352,
			"-0.001": 21.0305762715,
			"0.0": 25.7498860861,
			"0.001": 13.0673917191,
			"0.002": 6.25318607402,
			"0.003": 4.53978022007,
			"0.004": 3.61082313776,
			"0.005": 5.37237879494,
			"0.006": 5.02170883116,
			"0.007": 3.96021553208,
			"0.008": 3.8736998643,
			"0.009": 3.79963626759,
			"0.01": 4.09387553121,
			"0.011": 5.19987665605,
			"0.012": 2.41463534556,
			"0.013": 0.14244808883,
			"0.014": 0.0,
			"0.015": 0.0,
			"0.016": 0.0,
			"0.017": 0.0,
			"0.018": 0.0,
			"0.019": 0.0,
			"0.02": 0.0,
			"0.021": 0.0,
			"0.022": 0.0,
			"0.023": 0.0,
			"0.024": 0.0,
			"0.025": 0.0
		}
	}
}
