{
	 "smiles": "[O-][N+](=O)C1=CC(NC(=O)OCC(F)(F)F)=CC=C1", 
	 "Tm": 372.15, 
	 "num_atms": 25, 
	 "gaussian": { 
		 "optdone": 1, 
		 "sigma_profile": "yes", 
		 "theory": "DFT", 
		 "functional": "B3LYP", 
		 "basiset": "6-31G**", 
		 "properties": { 
			 "R2extent": 5249.0784, 
			 "electric_dipole_moment_norm": 5.07508195993, 
			 "electric_quadrupole_moment_norm": 21.3282138148, 
			 "total_energy": -1057.01673472, 
			 "HOMO_LUMO_gap": 0.15856, 
			 "cosmo_polarized_energy": -16.16, 
			 "cosmo_cavitation_energy": 33.17, 
			 "cosmo_dispersion_energy": -22.51, 
			 "cosmo_repulsion_energy": 1.67, 
			 "cosmo_total_nonelectrostatic_energy": 12.33, 
			 "SMD_solvation_energy": 10.26 
		},
		"coords": [
			{
				"x": -0.0897099845,
				"y": -3.5202308552,
				"z": 2.7193112937,
				"element": "O" 
			},
			{
				"x": -0.0932850821,
				"y": -2.683530755,
				"z": 1.8173155788,
				"element": "N" 
			},
			{
				"x": 0.3860139886,
				"y": -2.8555964207,
				"z": 0.6985902423,
				"element": "O" 
			},
			{
				"x": -0.7209905526,
				"y": -1.3771552605,
				"z": 2.1039150603,
				"element": "C" 
			},
			{
				"x": -0.7299159807,
				"y": -0.4237364538,
				"z": 1.089238136,
				"element": "C" 
			},
			{
				"x": -1.323005845,
				"y": 0.8175900268,
				"z": 1.3524492747,
				"element": "C" 
			},
			{
				"x": -1.4061789879,
				"y": 1.8752467487,
				"z": 0.4264678331,
				"element": "N" 
			},
			{
				"x": -0.9910188651,
				"y": 2.0323428449,
				"z": -0.8761603751,
				"element": "C" 
			},
			{
				"x": -1.1691364542,
				"y": 3.0559882015,
				"z": -1.5053058667,
				"element": "O" 
			},
			{
				"x": -0.3710937319,
				"y": 0.9347199689,
				"z": -1.3692426633,
				"element": "O" 
			},
			{
				"x": 0.0749210184,
				"y": 1.0598849866,
				"z": -2.719726386,
				"element": "C" 
			},
			{
				"x": 0.7338638346,
				"y": -0.2579456764,
				"z": -3.0792843589,
				"element": "C" 
			},
			{
				"x": 1.7830921171,
				"y": -0.5206672321,
				"z": -2.2811634827,
				"element": "F" 
			},
			{
				"x": -0.1282484144,
				"y": -1.2848104325,
				"z": -2.9833256997,
				"element": "F" 
			},
			{
				"x": 1.1753592928,
				"y": -0.1928208318,
				"z": -4.3519285549,
				"element": "F" 
			},
			{
				"x": -1.882823467,
				"y": 1.0518205559,
				"z": 2.6225785385,
				"element": "C" 
			},
			{
				"x": -1.8545256731,
				"y": 0.0735902496,
				"z": 3.6115126998,
				"element": "C" 
			},
			{
				"x": -1.2681390405,
				"y": -1.1664563072,
				"z": 3.3651211012,
				"element": "C" 
			},
			{
				"x": -0.2849847922,
				"y": -0.6618567212,
				"z": 0.136482895,
				"element": "H" 
			},
			{
				"x": -1.8625348729,
				"y": 2.7145571903,
				"z": 0.7557288816,
				"element": "H" 
			},
			{
				"x": 0.7991920979,
				"y": 1.8715338394,
				"z": -2.8193519501,
				"element": "H" 
			},
			{
				"x": -0.7642951821,
				"y": 1.2464895655,
				"z": -3.3936406831,
				"element": "H" 
			},
			{
				"x": -2.3444174682,
				"y": 2.0134856772,
				"z": 2.8322908796,
				"element": "H" 
			},
			{
				"x": -2.2938202546,
				"y": 0.2815951862,
				"z": 4.5817781914,
				"element": "H" 
			},
			{
				"x": -1.2283177006,
				"y": -1.9497380952,
				"z": 4.1101494145,
				"element": "H" 
			}
		],
		 "valence_orbital": [ 
			{
				"type": "occ",
				"energy": -0.30904,
				"method": "rhf"
			},
			{
				"type": "occ",
				"energy": -0.30682,
				"method": "rhf"
			},
			{
				"type": "occ",
				"energy": -0.29223,
				"method": "rhf"
			},
			{
				"type": "occ",
				"energy": -0.28817,
				"method": "rhf"
			},
			{
				"type": "occ",
				"energy": -0.24991,
				"method": "rhf"
			},
			{
				"type": "unocc",
				"energy": -0.09135,
				"method": "rhf"
			},
			{
				"type": "unocc",
				"energy": -0.03478,
				"method": "rhf"
			},
			{
				"type": "unocc",
				"energy": -0.00661,
				"method": "rhf"
			},
			{
				"type": "unocc",
				"energy": 0.03738,
				"method": "rhf"
			},
			{
				"type": "unocc",
				"energy": 0.05158,
				"method": "rhf"
			}
		],
		"cosmo_sigma_profile": { 
			"-0.025": 0.0,
			"-0.024": 0.0,
			"-0.023": 0.0,
			"-0.022": 0.0,
			"-0.021": 0.0,
			"-0.02": 0.0,
			"-0.019": 0.0,
			"-0.018": 0.0,
			"-0.017": 0.0023410826348,
			"-0.016": 1.02421699252,
			"-0.015": 1.17767646227,
			"-0.014": 1.64646282034,
			"-0.013": 0.822558926158,
			"-0.012": 1.32516148058,
			"-0.011": 1.26130210612,
			"-0.01": 2.15219927777,
			"-0.009": 5.74121030884,
			"-0.008": 7.43340990696,
			"-0.007": 9.40654179364,
			"-0.006": 12.2189598615,
			"-0.005": 9.91622102258,
			"-0.004": 10.1767188598,
			"-0.003": 12.3405713983,
			"-0.002": 13.3323005379,
			"-0.001": 22.2337349374,
			"0.0": 22.7132024178,
			"0.001": 25.107559149,
			"0.002": 36.3238532815,
			"0.003": 20.4290967078,
			"0.004": 5.21346156604,
			"0.005": 5.02573541169,
			"0.006": 5.68067416552,
			"0.007": 8.51943940513,
			"0.008": 7.0751728565,
			"0.009": 6.02941418131,
			"0.01": 4.05898812164,
			"0.011": 3.21116041533,
			"0.012": 4.51227803384,
			"0.013": 0.155195907579,
			"0.014": 0.0,
			"0.015": 0.0,
			"0.016": 0.0,
			"0.017": 0.0,
			"0.018": 0.0,
			"0.019": 0.0,
			"0.02": 0.0,
			"0.021": 0.0,
			"0.022": 0.0,
			"0.023": 0.0,
			"0.024": 0.0,
			"0.025": 0.0
		}
	}
}
