{
	 "smiles": "CN1C(NN)=NC2=C(C=CC=C2)C1=O", 
	 "Tm": 424.15, 
	 "num_atms": 24, 
	 "gaussian": { 
		 "optdone": 1, 
		 "sigma_profile": "yes", 
		 "theory": "DFT", 
		 "functional": "B3LYP", 
		 "basiset": "6-31G**", 
		 "properties": { 
			 "R2extent": 3148.3268, 
			 "electric_dipole_moment_norm": 1.95579961141, 
			 "electric_quadrupole_moment_norm": 15.0333090599, 
			 "total_energy": -643.217493711, 
			 "HOMO_LUMO_gap": 0.1767, 
			 "cosmo_polarized_energy": -13.99, 
			 "cosmo_cavitation_energy": 27.44, 
			 "cosmo_dispersion_energy": -20.69, 
			 "cosmo_repulsion_energy": 1.6, 
			 "cosmo_total_nonelectrostatic_energy": 8.35, 
			 "SMD_solvation_energy": 4.54 
		},
		"coords": [
			{
				"x": -2.5945803184,
				"y": -0.9676825193,
				"z": -2.8955457887,
				"element": "C" 
			},
			{
				"x": -1.5293728762,
				"y": -0.5822773445,
				"z": -1.9685014139,
				"element": "N" 
			},
			{
				"x": -1.7737739184,
				"y": -0.4282546595,
				"z": -0.6124067102,
				"element": "C" 
			},
			{
				"x": -3.0792414471,
				"y": -0.6374896234,
				"z": -0.2040281616,
				"element": "N" 
			},
			{
				"x": -3.4363170325,
				"y": -0.3339586917,
				"z": 1.1315921343,
				"element": "N" 
			},
			{
				"x": -0.8751720016,
				"y": -0.1341621616,
				"z": 0.2818054303,
				"element": "N" 
			},
			{
				"x": 0.4269394369,
				"y": 0.0306299063,
				"z": -0.147194159,
				"element": "C" 
			},
			{
				"x": 0.79390247,
				"y": -0.0856073861,
				"z": -1.50737323,
				"element": "C" 
			},
			{
				"x": 2.1280336779,
				"y": 0.0990380283,
				"z": -1.9080891037,
				"element": "C" 
			},
			{
				"x": 3.0993756195,
				"y": 0.3984802752,
				"z": -0.966679932,
				"element": "C" 
			},
			{
				"x": 2.7412205417,
				"y": 0.5162468923,
				"z": 0.3894882909,
				"element": "C" 
			},
			{
				"x": 1.4290101303,
				"y": 0.3363990688,
				"z": 0.7972594423,
				"element": "C" 
			},
			{
				"x": -0.2275001515,
				"y": -0.4068815455,
				"z": -2.5038803885,
				"element": "C" 
			},
			{
				"x": -0.0277911552,
				"y": -0.5350362366,
				"z": -3.7061279505,
				"element": "O" 
			},
			{
				"x": -3.3151763526,
				"y": -0.1529852699,
				"z": -3.0349916834,
				"element": "H" 
			},
			{
				"x": -3.1132285396,
				"y": -1.8560950881,
				"z": -2.5263630494,
				"element": "H" 
			},
			{
				"x": -2.1189308371,
				"y": -1.1772391299,
				"z": -3.8519802375,
				"element": "H" 
			},
			{
				"x": -3.8062187164,
				"y": -0.3766976171,
				"z": -0.8553541576,
				"element": "H" 
			},
			{
				"x": -3.2209561037,
				"y": -1.1600523618,
				"z": 1.6877791119,
				"element": "H" 
			},
			{
				"x": -2.7875835596,
				"y": 0.3836483323,
				"z": 1.4614024631,
				"element": "H" 
			},
			{
				"x": 2.3644091036,
				"y": -0.0001857228,
				"z": -2.9623518104,
				"element": "H" 
			},
			{
				"x": 4.1313943827,
				"y": 0.542224628,
				"z": -1.2711222447,
				"element": "H" 
			},
			{
				"x": 3.5033863557,
				"y": 0.7513111258,
				"z": 1.1274660907,
				"element": "H" 
			},
			{
				"x": 1.1406712917,
				"y": 0.4253271007,
				"z": 1.8395970577,
				"element": "H" 
			}
		],
		 "valence_orbital": [ 
			{
				"type": "occ",
				"energy": -0.27596,
				"method": "rhf"
			},
			{
				"type": "occ",
				"energy": -0.26897,
				"method": "rhf"
			},
			{
				"type": "occ",
				"energy": -0.26017,
				"method": "rhf"
			},
			{
				"type": "occ",
				"energy": -0.25438,
				"method": "rhf"
			},
			{
				"type": "occ",
				"energy": -0.21385,
				"method": "rhf"
			},
			{
				"type": "unocc",
				"energy": -0.03715,
				"method": "rhf"
			},
			{
				"type": "unocc",
				"energy": -0.01716,
				"method": "rhf"
			},
			{
				"type": "unocc",
				"energy": 0.03801,
				"method": "rhf"
			},
			{
				"type": "unocc",
				"energy": 0.0714,
				"method": "rhf"
			},
			{
				"type": "unocc",
				"energy": 0.07912,
				"method": "rhf"
			}
		],
		"cosmo_sigma_profile": { 
			"-0.025": 0.0,
			"-0.024": 0.0,
			"-0.023": 0.0,
			"-0.022": 0.0,
			"-0.021": 0.0,
			"-0.02": 0.0,
			"-0.019": 0.0,
			"-0.018": 0.0,
			"-0.017": 0.0,
			"-0.016": 0.0,
			"-0.015": 0.0,
			"-0.014": 0.836667343324,
			"-0.013": 1.5431079105,
			"-0.012": 1.34268794945,
			"-0.011": 2.71858647534,
			"-0.01": 2.89565647937,
			"-0.009": 3.57920807334,
			"-0.008": 3.00655978194,
			"-0.007": 4.54594757557,
			"-0.006": 12.5550991943,
			"-0.005": 13.4316255732,
			"-0.004": 18.1032896484,
			"-0.003": 19.1676302151,
			"-0.002": 14.8960583429,
			"-0.001": 11.2435176565,
			"0.0": 10.7593500865,
			"0.001": 11.0681528008,
			"0.002": 14.5213374372,
			"0.003": 15.9682112236,
			"0.004": 15.7109241952,
			"0.005": 8.68177949877,
			"0.006": 4.34934883371,
			"0.007": 5.10442880958,
			"0.008": 3.03192469567,
			"0.009": 2.77169450705,
			"0.01": 3.73451518363,
			"0.011": 2.35211529178,
			"0.012": 4.11154000205,
			"0.013": 4.43196932795,
			"0.014": 0.835792049173,
			"0.015": 0.682575659338,
			"0.016": 0.420488556233,
			"0.017": 0.258457129715,
			"0.018": 0.0,
			"0.019": 0.0,
			"0.02": 0.0,
			"0.021": 0.0,
			"0.022": 0.0,
			"0.023": 0.0,
			"0.024": 0.0,
			"0.025": 0.0
		}
	}
}
