{
	 "smiles": "[O-][N+](=O)C1=NC=CN1", 
	 "Tm": 560.15, 
	 "num_atms": 11, 
	 "gaussian": { 
		 "optdone": 1, 
		 "sigma_profile": "yes", 
		 "theory": "DFT", 
		 "functional": "B3LYP", 
		 "basiset": "6-31G**", 
		 "properties": { 
			 "R2extent": 1328.8704, 
			 "electric_dipole_moment_norm": 5.52536060814, 
			 "electric_quadrupole_moment_norm": 9.22310121109, 
			 "total_energy": -430.709913178, 
			 "HOMO_LUMO_gap": 0.1732, 
			 "cosmo_polarized_energy": -15.17, 
			 "cosmo_cavitation_energy": 16.48, 
			 "cosmo_dispersion_energy": -12.45, 
			 "cosmo_repulsion_energy": 1.04, 
			 "cosmo_total_nonelectrostatic_energy": 5.07, 
			 "SMD_solvation_energy": 4.19 
		},
		"coords": [
			{
				"x": 2.0288256628,
				"y": 2.7369159423,
				"z": 1.3868472295,
				"element": "O" 
			},
			{
				"x": 0.855489856,
				"y": 2.4623201529,
				"z": 1.1817578886,
				"element": "N" 
			},
			{
				"x": -0.1272169081,
				"y": 2.9918988271,
				"z": 1.7238106352,
				"element": "O" 
			},
			{
				"x": 0.5475690065,
				"y": 1.430032,
				"z": 0.2257288344,
				"element": "C" 
			},
			{
				"x": 1.3993516826,
				"y": 0.7224362927,
				"z": -0.4775030795,
				"element": "N" 
			},
			{
				"x": 0.6098363629,
				"y": -0.108471812,
				"z": -1.2225578227,
				"element": "C" 
			},
			{
				"x": -0.7306484841,
				"y": 0.1122622938,
				"z": -0.9545089873,
				"element": "C" 
			},
			{
				"x": -0.7534050934,
				"y": 1.108451873,
				"z": -0.0176292553,
				"element": "N" 
			},
			{
				"x": 1.0376693008,
				"y": -0.8219954297,
				"z": -1.9122974246,
				"element": "H" 
			},
			{
				"x": -1.6320909911,
				"y": -0.3398736785,
				"z": -1.3385177212,
				"element": "H" 
			},
			{
				"x": -1.5409803948,
				"y": 1.5518235386,
				"z": 0.434469703,
				"element": "H" 
			}
		],
		 "valence_orbital": [ 
			{
				"type": "occ",
				"energy": -0.31822,
				"method": "rhf"
			},
			{
				"type": "occ",
				"energy": -0.31363,
				"method": "rhf"
			},
			{
				"type": "occ",
				"energy": -0.31038,
				"method": "rhf"
			},
			{
				"type": "occ",
				"energy": -0.29976,
				"method": "rhf"
			},
			{
				"type": "occ",
				"energy": -0.26765,
				"method": "rhf"
			},
			{
				"type": "unocc",
				"energy": -0.09445,
				"method": "rhf"
			},
			{
				"type": "unocc",
				"energy": 0.01431,
				"method": "rhf"
			},
			{
				"type": "unocc",
				"energy": 0.05121,
				"method": "rhf"
			},
			{
				"type": "unocc",
				"energy": 0.06491,
				"method": "rhf"
			},
			{
				"type": "unocc",
				"energy": 0.10971,
				"method": "rhf"
			}
		],
		"cosmo_sigma_profile": { 
			"-0.025": 0.0,
			"-0.024": 0.0,
			"-0.023": 0.0,
			"-0.022": 0.0,
			"-0.021": 0.0,
			"-0.02": 0.0,
			"-0.019": 0.0414742692315,
			"-0.018": 1.00856632411,
			"-0.017": 0.423878909616,
			"-0.016": 1.18704607815,
			"-0.015": 1.03873292982,
			"-0.014": 1.15926854142,
			"-0.013": 0.911775088909,
			"-0.012": 0.89606714785,
			"-0.011": 2.08110697352,
			"-0.01": 3.86369470351,
			"-0.009": 3.22890654631,
			"-0.008": 4.44468310032,
			"-0.007": 5.90463863073,
			"-0.006": 7.1106348639,
			"-0.005": 6.10840890257,
			"-0.004": 6.86695119442,
			"-0.003": 5.81410962627,
			"-0.002": 4.9705490939,
			"-0.001": 6.95218916869,
			"0.0": 6.33949497959,
			"0.001": 5.86649752544,
			"0.002": 6.1822104245,
			"0.003": 4.19385187126,
			"0.004": 3.09456760703,
			"0.005": 4.54453146714,
			"0.006": 4.40436321081,
			"0.007": 9.51461357114,
			"0.008": 8.65776715456,
			"0.009": 6.45818074282,
			"0.01": 2.92187668111,
			"0.011": 1.47899169866,
			"0.012": 1.9869258777,
			"0.013": 1.2997625813,
			"0.014": 1.21945102874,
			"0.015": 0.752478705569,
			"0.016": 0.00960022236639,
			"0.017": 0.0,
			"0.018": 0.0,
			"0.019": 0.0,
			"0.02": 0.0,
			"0.021": 0.0,
			"0.022": 0.0,
			"0.023": 0.0,
			"0.024": 0.0,
			"0.025": 0.0
		}
	}
}
