{
	 "smiles": "O=C(OCC1=CC=CC=C1)C1=CC=CC=C1", 
	 "Tm": 292.65, 
	 "num_atms": 28, 
	 "gaussian": { 
		 "optdone": 1, 
		 "sigma_profile": "yes", 
		 "theory": "DFT", 
		 "functional": "B3LYP", 
		 "basiset": "6-31G**", 
		 "properties": { 
			 "R2extent": 5062.0094, 
			 "electric_dipole_moment_norm": 1.75296907845, 
			 "electric_quadrupole_moment_norm": 8.62085822352, 
			 "total_energy": -691.186371633, 
			 "HOMO_LUMO_gap": 0.20368, 
			 "cosmo_polarized_energy": -8.41, 
			 "cosmo_cavitation_energy": 32.56, 
			 "cosmo_dispersion_energy": -23.47, 
			 "cosmo_repulsion_energy": 1.82, 
			 "cosmo_total_nonelectrostatic_energy": 10.91, 
			 "SMD_solvation_energy": 6.33 
		},
		"coords": [
			{
				"x": -0.3820521608,
				"y": 0.578424779,
				"z": 2.7392050068,
				"element": "O" 
			},
			{
				"x": 0.2167369427,
				"y": 0.9675530105,
				"z": 1.7526276816,
				"element": "C" 
			},
			{
				"x": -0.3211657781,
				"y": 1.0028141535,
				"z": 0.5122708038,
				"element": "O" 
			},
			{
				"x": -1.6920035113,
				"y": 0.534815948,
				"z": 0.378280827,
				"element": "C" 
			},
			{
				"x": -1.7536331451,
				"y": -0.9316829355,
				"z": 0.0289643407,
				"element": "C" 
			},
			{
				"x": -1.7459139094,
				"y": -1.9063444249,
				"z": 1.0370166547,
				"element": "C" 
			},
			{
				"x": -1.7940352368,
				"y": -3.2608928294,
				"z": 0.7074979685,
				"element": "C" 
			},
			{
				"x": -1.8513473083,
				"y": -3.6568389903,
				"z": -0.6308882892,
				"element": "C" 
			},
			{
				"x": -1.8598334976,
				"y": -2.6927593666,
				"z": -1.6405315759,
				"element": "C" 
			},
			{
				"x": -1.8108265361,
				"y": -1.3379522089,
				"z": -1.3098896993,
				"element": "C" 
			},
			{
				"x": 1.6212328377,
				"y": 1.4677098018,
				"z": 1.774117937,
				"element": "C" 
			},
			{
				"x": 2.281971815,
				"y": 1.5067726788,
				"z": 3.0097211492,
				"element": "C" 
			},
			{
				"x": 3.5945453612,
				"y": 1.9657744187,
				"z": 3.085380984,
				"element": "C" 
			},
			{
				"x": 4.2547048387,
				"y": 2.3867367531,
				"z": 1.9276687112,
				"element": "C" 
			},
			{
				"x": 3.5996442842,
				"y": 2.3478426046,
				"z": 0.694237079,
				"element": "C" 
			},
			{
				"x": 2.2854255668,
				"y": 1.8901973998,
				"z": 0.6139655473,
				"element": "C" 
			},
			{
				"x": -2.2196690654,
				"y": 0.7447729648,
				"z": 1.3102561263,
				"element": "H" 
			},
			{
				"x": -2.1060163118,
				"y": 1.1460183772,
				"z": -0.4264944989,
				"element": "H" 
			},
			{
				"x": -1.691917545,
				"y": -1.5924778392,
				"z": 2.0748092264,
				"element": "H" 
			},
			{
				"x": -1.789536971,
				"y": -4.0082141569,
				"z": 1.495938993,
				"element": "H" 
			},
			{
				"x": -1.8918961658,
				"y": -4.7121519285,
				"z": -0.885614184,
				"element": "H" 
			},
			{
				"x": -1.9072249598,
				"y": -2.9947446782,
				"z": -2.6829589772,
				"element": "H" 
			},
			{
				"x": -1.820051893,
				"y": -0.5878739563,
				"z": -2.0972045346,
				"element": "H" 
			},
			{
				"x": 1.7481671349,
				"y": 1.1737097111,
				"z": 3.893287704,
				"element": "H" 
			},
			{
				"x": 4.1038500432,
				"y": 1.9954580422,
				"z": 4.044119894,
				"element": "H" 
			},
			{
				"x": 5.2789333712,
				"y": 2.7442213866,
				"z": 1.9865336962,
				"element": "H" 
			},
			{
				"x": 4.1136689639,
				"y": 2.6740595706,
				"z": -0.2051559818,
				"element": "H" 
			},
			{
				"x": 1.7698428358,
				"y": 1.8551517143,
				"z": -0.3386625901,
				"element": "H" 
			}
		],
		 "valence_orbital": [ 
			{
				"type": "occ",
				"energy": -0.27375,
				"method": "rhf"
			},
			{
				"type": "occ",
				"energy": -0.25819,
				"method": "rhf"
			},
			{
				"type": "occ",
				"energy": -0.25671,
				"method": "rhf"
			},
			{
				"type": "occ",
				"energy": -0.25041,
				"method": "rhf"
			},
			{
				"type": "occ",
				"energy": -0.24764,
				"method": "rhf"
			},
			{
				"type": "unocc",
				"energy": -0.04396,
				"method": "rhf"
			},
			{
				"type": "unocc",
				"energy": -0.00982,
				"method": "rhf"
			},
			{
				"type": "unocc",
				"energy": -0.00605,
				"method": "rhf"
			},
			{
				"type": "unocc",
				"energy": -0.00142,
				"method": "rhf"
			},
			{
				"type": "unocc",
				"energy": 0.05945,
				"method": "rhf"
			}
		],
		"cosmo_sigma_profile": { 
			"-0.025": 0.0,
			"-0.024": 0.0,
			"-0.023": 0.0,
			"-0.022": 0.0,
			"-0.021": 0.0,
			"-0.02": 0.0,
			"-0.019": 0.0,
			"-0.018": 0.0,
			"-0.017": 0.0,
			"-0.016": 0.0,
			"-0.015": 0.0,
			"-0.014": 0.0,
			"-0.013": 0.0,
			"-0.012": 0.0,
			"-0.011": 0.0,
			"-0.01": 0.0,
			"-0.009": 0.0,
			"-0.008": 0.0,
			"-0.007": 2.3121265461,
			"-0.006": 16.8040328771,
			"-0.005": 23.3016459519,
			"-0.004": 24.9074231842,
			"-0.003": 21.0254557861,
			"-0.002": 18.5565387414,
			"-0.001": 16.1523487546,
			"0.0": 16.7893422494,
			"0.001": 20.4060548935,
			"0.002": 21.6060542359,
			"0.003": 21.9440277109,
			"0.004": 23.8900876523,
			"0.005": 16.3805942838,
			"0.006": 6.15966167998,
			"0.007": 1.43163834095,
			"0.008": 1.41884905529,
			"0.009": 1.73374767901,
			"0.01": 1.7205650273,
			"0.011": 2.24015020018,
			"0.012": 2.32166592238,
			"0.013": 0.0119586896521,
			"0.014": 0.0,
			"0.015": 0.0,
			"0.016": 0.0,
			"0.017": 0.0,
			"0.018": 0.0,
			"0.019": 0.0,
			"0.02": 0.0,
			"0.021": 0.0,
			"0.022": 0.0,
			"0.023": 0.0,
			"0.024": 0.0,
			"0.025": 0.0
		}
	}
}
