{
	 "smiles": "COC(CC(C)=O)OC", 
	 "Tm": 191.15, 
	 "num_atms": 21, 
	 "gaussian": { 
		 "optdone": 1, 
		 "sigma_profile": "yes", 
		 "theory": "DFT", 
		 "functional": "B3LYP", 
		 "basiset": "6-31G**", 
		 "properties": { 
			 "R2extent": 1605.8583, 
			 "electric_dipole_moment_norm": 1.71375170022, 
			 "electric_quadrupole_moment_norm": 12.3226308169, 
			 "total_energy": -461.517572865, 
			 "HOMO_LUMO_gap": 0.22769, 
			 "cosmo_polarized_energy": -9.56, 
			 "cosmo_cavitation_energy": 24.32, 
			 "cosmo_dispersion_energy": -16.9, 
			 "cosmo_repulsion_energy": 1.42, 
			 "cosmo_total_nonelectrostatic_energy": 8.85, 
			 "SMD_solvation_energy": 6.21 
		},
		"coords": [
			{
				"x": 1.2382210869,
				"y": -2.0244047098,
				"z": -2.0241996167,
				"element": "C" 
			},
			{
				"x": 0.5599284965,
				"y": -0.814113132,
				"z": -1.7421478557,
				"element": "O" 
			},
			{
				"x": 0.511293326,
				"y": -0.4706144029,
				"z": -0.3701312824,
				"element": "C" 
			},
			{
				"x": 1.7514592674,
				"y": 0.322411549,
				"z": 0.0637207007,
				"element": "C" 
			},
			{
				"x": 1.6948984235,
				"y": 0.60015815,
				"z": 1.564967527,
				"element": "C" 
			},
			{
				"x": 1.3836940927,
				"y": 2.016220213,
				"z": 1.9950248861,
				"element": "C" 
			},
			{
				"x": 1.8591524862,
				"y": -0.3072733548,
				"z": 2.3601031253,
				"element": "O" 
			},
			{
				"x": -0.5911798328,
				"y": 0.3585718081,
				"z": -0.1559237439,
				"element": "O" 
			},
			{
				"x": -1.846810422,
				"y": -0.2789308083,
				"z": -0.3601064782,
				"element": "C" 
			},
			{
				"x": 1.1180187952,
				"y": -2.213574859,
				"z": -3.0931634423,
				"element": "H" 
			},
			{
				"x": 0.8150012165,
				"y": -2.8701222961,
				"z": -1.4616567418,
				"element": "H" 
			},
			{
				"x": 2.3131274462,
				"y": -1.9646149802,
				"z": -1.799360604,
				"element": "H" 
			},
			{
				"x": 0.42894611,
				"y": -1.3929616687,
				"z": 0.2352409628,
				"element": "H" 
			},
			{
				"x": 1.7924904679,
				"y": 1.2380363694,
				"z": -0.5325259425,
				"element": "H" 
			},
			{
				"x": 2.6422713776,
				"y": -0.2798285504,
				"z": -0.1391581292,
				"element": "H" 
			},
			{
				"x": 2.1464972273,
				"y": 2.7070235695,
				"z": 1.6161256893,
				"element": "H" 
			},
			{
				"x": 0.4282530414,
				"y": 2.3186351541,
				"z": 1.5518136353,
				"element": "H" 
			},
			{
				"x": 1.3340222782,
				"y": 2.0788543212,
				"z": 3.0830409548,
				"element": "H" 
			},
			{
				"x": -2.6152037212,
				"y": 0.4594954993,
				"z": -0.1232551533,
				"element": "H" 
			},
			{
				"x": -1.9615368232,
				"y": -0.6076875334,
				"z": -1.3979403085,
				"element": "H" 
			},
			{
				"x": -1.9640443405,
				"y": -1.145480338,
				"z": 0.307131817,
				"element": "H" 
			}
		],
		 "valence_orbital": [ 
			{
				"type": "occ",
				"energy": -0.33069,
				"method": "rhf"
			},
			{
				"type": "occ",
				"energy": -0.32576,
				"method": "rhf"
			},
			{
				"type": "occ",
				"energy": -0.27889,
				"method": "rhf"
			},
			{
				"type": "occ",
				"energy": -0.26881,
				"method": "rhf"
			},
			{
				"type": "occ",
				"energy": -0.23828,
				"method": "rhf"
			},
			{
				"type": "unocc",
				"energy": -0.01059,
				"method": "rhf"
			},
			{
				"type": "unocc",
				"energy": 0.08423,
				"method": "rhf"
			},
			{
				"type": "unocc",
				"energy": 0.10742,
				"method": "rhf"
			},
			{
				"type": "unocc",
				"energy": 0.11176,
				"method": "rhf"
			},
			{
				"type": "unocc",
				"energy": 0.12772,
				"method": "rhf"
			}
		],
		"cosmo_sigma_profile": { 
			"-0.025": 0.0,
			"-0.024": 0.0,
			"-0.023": 0.0,
			"-0.022": 0.0,
			"-0.021": 0.0,
			"-0.02": 0.0,
			"-0.019": 0.0,
			"-0.018": 0.0,
			"-0.017": 0.0,
			"-0.016": 0.0,
			"-0.015": 0.0,
			"-0.014": 0.0,
			"-0.013": 0.0,
			"-0.012": 0.0,
			"-0.011": 0.0,
			"-0.01": 0.0,
			"-0.009": 0.0,
			"-0.008": 0.0,
			"-0.007": 0.128741137184,
			"-0.006": 5.94285799376,
			"-0.005": 20.9326193483,
			"-0.004": 25.7985335593,
			"-0.003": 25.1199334229,
			"-0.002": 26.1070650557,
			"-0.001": 15.3565987565,
			"0.0": 10.5319413424,
			"0.001": 5.64735517916,
			"0.002": 5.88340142494,
			"0.003": 5.74393259437,
			"0.004": 5.96645556233,
			"0.005": 4.54927126741,
			"0.006": 4.43989007618,
			"0.007": 3.17440044381,
			"0.008": 3.69020877124,
			"0.009": 3.38513773951,
			"0.01": 3.75470014132,
			"0.011": 4.64268112264,
			"0.012": 5.47588954484,
			"0.013": 3.1080248291,
			"0.014": 0.279391449149,
			"0.015": 0.0,
			"0.016": 0.0,
			"0.017": 0.0,
			"0.018": 0.0,
			"0.019": 0.0,
			"0.02": 0.0,
			"0.021": 0.0,
			"0.022": 0.0,
			"0.023": 0.0,
			"0.024": 0.0,
			"0.025": 0.0
		}
	}
}
