{
	 "smiles": "C1CN(CCO1)C1=NC(=CS1)C1=CC=CC=C1", 
	 "Tm": 349.15, 
	 "num_atms": 31, 
	 "gaussian": { 
		 "optdone": 1, 
		 "sigma_profile": "yes", 
		 "theory": "DFT", 
		 "functional": "B3LYP", 
		 "basiset": "6-31G**", 
		 "properties": { 
			 "R2extent": 6258.4401, 
			 "electric_dipole_moment_norm": 1.0656717459, 
			 "electric_quadrupole_moment_norm": 7.15686653222, 
			 "total_energy": -1086.71993578, 
			 "HOMO_LUMO_gap": 0.16833, 
			 "cosmo_polarized_energy": -10.25, 
			 "cosmo_cavitation_energy": 34.75, 
			 "cosmo_dispersion_energy": -26.43, 
			 "cosmo_repulsion_energy": 1.98, 
			 "cosmo_total_nonelectrostatic_energy": 10.31, 
			 "SMD_solvation_energy": 3.68 
		},
		"coords": [
			{
				"x": 4.1565157408,
				"y": 1.2907061112,
				"z": -1.6212115217,
				"element": "C" 
			},
			{
				"x": 2.9533350581,
				"y": 0.9636324239,
				"z": -0.7424313675,
				"element": "C" 
			},
			{
				"x": 2.169632461,
				"y": -0.1088395036,
				"z": -1.3670500826,
				"element": "N" 
			},
			{
				"x": 2.9506575079,
				"y": -1.280978831,
				"z": -1.7575004451,
				"element": "C" 
			},
			{
				"x": 4.1595796964,
				"y": -0.8378059511,
				"z": -2.5824642895,
				"element": "C" 
			},
			{
				"x": 4.9331007617,
				"y": 0.1301283319,
				"z": -1.8925399837,
				"element": "O" 
			},
			{
				"x": 0.860744303,
				"y": -0.2440388004,
				"z": -0.9735264393,
				"element": "C" 
			},
			{
				"x": 0.1959117942,
				"y": 0.6630047192,
				"z": -0.3154979895,
				"element": "N" 
			},
			{
				"x": -1.1263554804,
				"y": 0.2926483012,
				"z": -0.1194703655,
				"element": "C" 
			},
			{
				"x": -1.4655625603,
				"y": -0.9325521405,
				"z": -0.6258766849,
				"element": "C" 
			},
			{
				"x": -0.0936654177,
				"y": -1.6851969439,
				"z": -1.3938077424,
				"element": "S" 
			},
			{
				"x": -2.0223258576,
				"y": 1.2134328062,
				"z": 0.6085479897,
				"element": "C" 
			},
			{
				"x": -3.4040864088,
				"y": 0.9765122753,
				"z": 0.7101154896,
				"element": "C" 
			},
			{
				"x": -4.2282125205,
				"y": 1.8531789754,
				"z": 1.4109137166,
				"element": "C" 
			},
			{
				"x": -3.6913169659,
				"y": 2.9890605971,
				"z": 2.0226969565,
				"element": "C" 
			},
			{
				"x": -2.3216408672,
				"y": 3.2380360152,
				"z": 1.9230205432,
				"element": "C" 
			},
			{
				"x": -1.4946353898,
				"y": 2.3609990295,
				"z": 1.2229234353,
				"element": "C" 
			},
			{
				"x": 3.8150650157,
				"y": 1.7463601659,
				"z": -2.5647063694,
				"element": "H" 
			},
			{
				"x": 4.8161234236,
				"y": 1.9972990399,
				"z": -1.1099095731,
				"element": "H" 
			},
			{
				"x": 3.2941316483,
				"y": 0.6536154193,
				"z": 0.2579066241,
				"element": "H" 
			},
			{
				"x": 2.3076067194,
				"y": 1.8348121081,
				"z": -0.6237080843,
				"element": "H" 
			},
			{
				"x": 2.3309283564,
				"y": -1.948152597,
				"z": -2.3648318784,
				"element": "H" 
			},
			{
				"x": 3.2892093857,
				"y": -1.8406803202,
				"z": -0.8706125336,
				"element": "H" 
			},
			{
				"x": 3.8141617669,
				"y": -0.4332386925,
				"z": -3.5478430896,
				"element": "H" 
			},
			{
				"x": 4.8161365949,
				"y": -1.6909966393,
				"z": -2.7746719968,
				"element": "H" 
			},
			{
				"x": -2.4088007887,
				"y": -1.4548241124,
				"z": -0.5784052361,
				"element": "H" 
			},
			{
				"x": -3.8428445762,
				"y": 0.1072734528,
				"z": 0.2293668758,
				"element": "H" 
			},
			{
				"x": -5.29390956,
				"y": 1.6519667322,
				"z": 1.4756222079,
				"element": "H" 
			},
			{
				"x": -4.3355937589,
				"y": 3.6730721864,
				"z": 2.5675698268,
				"element": "H" 
			},
			{
				"x": -1.8933555194,
				"y": 4.1193123177,
				"z": 2.3927033805,
				"element": "H" 
			},
			{
				"x": -0.4302345625,
				"y": 2.5489535235,
				"z": 1.141878627,
				"element": "H" 
			}
		],
		 "valence_orbital": [ 
			{
				"type": "occ",
				"energy": -0.27001,
				"method": "rhf"
			},
			{
				"type": "occ",
				"energy": -0.26547,
				"method": "rhf"
			},
			{
				"type": "occ",
				"energy": -0.24461,
				"method": "rhf"
			},
			{
				"type": "occ",
				"energy": -0.23638,
				"method": "rhf"
			},
			{
				"type": "occ",
				"energy": -0.19448,
				"method": "rhf"
			},
			{
				"type": "unocc",
				"energy": -0.02615,
				"method": "rhf"
			},
			{
				"type": "unocc",
				"energy": 0.00454,
				"method": "rhf"
			},
			{
				"type": "unocc",
				"energy": 0.01672,
				"method": "rhf"
			},
			{
				"type": "unocc",
				"energy": 0.01785,
				"method": "rhf"
			},
			{
				"type": "unocc",
				"energy": 0.07628,
				"method": "rhf"
			}
		],
		"cosmo_sigma_profile": { 
			"-0.025": 0.0,
			"-0.024": 0.0,
			"-0.023": 0.0,
			"-0.022": 0.0,
			"-0.021": 0.0,
			"-0.02": 0.0,
			"-0.019": 0.0,
			"-0.018": 0.0,
			"-0.017": 0.0,
			"-0.016": 0.0,
			"-0.015": 0.0,
			"-0.014": 0.0,
			"-0.013": 0.0,
			"-0.012": 0.0,
			"-0.011": 0.0,
			"-0.01": 0.0,
			"-0.009": 0.951429308122,
			"-0.008": 2.5116253109,
			"-0.007": 3.80900031149,
			"-0.006": 11.1522833303,
			"-0.005": 24.759792489,
			"-0.004": 35.9335142356,
			"-0.003": 27.5902865943,
			"-0.002": 19.5344122701,
			"-0.001": 15.1848721591,
			"0.0": 12.7302061358,
			"0.001": 14.4170194371,
			"0.002": 17.0482928847,
			"0.003": 19.7440724489,
			"0.004": 26.1248066516,
			"0.005": 18.8529666917,
			"0.006": 12.2826597281,
			"0.007": 4.41137457397,
			"0.008": 2.65906843648,
			"0.009": 1.90950017,
			"0.01": 2.19531382032,
			"0.011": 1.52901506753,
			"0.012": 1.48440901402,
			"0.013": 1.48024016868,
			"0.014": 0.0686186903394,
			"0.015": 0.0,
			"0.016": 0.0,
			"0.017": 0.0,
			"0.018": 0.0,
			"0.019": 0.0,
			"0.02": 0.0,
			"0.021": 0.0,
			"0.022": 0.0,
			"0.023": 0.0,
			"0.024": 0.0,
			"0.025": 0.0
		}
	}
}
