{
	 "smiles": "FC1=CC=C(C=C1)N1N=CC2=C1N=CN=C2Cl", 
	 "Tm": 428.15, 
	 "num_atms": 23, 
	 "gaussian": { 
		 "optdone": 1, 
		 "sigma_profile": "yes", 
		 "theory": "DFT", 
		 "functional": "B3LYP", 
		 "basiset": "6-31G**", 
		 "properties": { 
			 "R2extent": 7492.9841, 
			 "electric_dipole_moment_norm": 0.621659697906, 
			 "electric_quadrupole_moment_norm": 11.6904083415, 
			 "total_energy": -1201.79974328, 
			 "HOMO_LUMO_gap": 0.15705, 
			 "cosmo_polarized_energy": -7.09, 
			 "cosmo_cavitation_energy": 30.54, 
			 "cosmo_dispersion_energy": -22.87, 
			 "cosmo_repulsion_energy": 1.7, 
			 "cosmo_total_nonelectrostatic_energy": 9.37, 
			 "SMD_solvation_energy": 2.63 
		},
		"coords": [
			{
				"x": 1.5283221831,
				"y": -2.9791529269,
				"z": -1.8285275417,
				"element": "F" 
			},
			{
				"x": 1.2878349364,
				"y": -1.7469537517,
				"z": -1.3363086332,
				"element": "C" 
			},
			{
				"x": 2.2114946135,
				"y": -0.7335440586,
				"z": -1.5664834457,
				"element": "C" 
			},
			{
				"x": 1.9638921696,
				"y": 0.5384205992,
				"z": -1.0587447264,
				"element": "C" 
			},
			{
				"x": 0.7945350684,
				"y": 0.7820594987,
				"z": -0.3262093189,
				"element": "C" 
			},
			{
				"x": -0.127852957,
				"y": -0.2482309496,
				"z": -0.1016712879,
				"element": "C" 
			},
			{
				"x": 0.1243980208,
				"y": -1.520711945,
				"z": -0.6121794981,
				"element": "C" 
			},
			{
				"x": 0.565596774,
				"y": 2.0962957883,
				"z": 0.1832336548,
				"element": "N" 
			},
			{
				"x": 1.4939476458,
				"y": 3.0776876622,
				"z": -0.0595635249,
				"element": "N" 
			},
			{
				"x": 1.0625888065,
				"y": 4.1854812242,
				"z": 0.5050298522,
				"element": "C" 
			},
			{
				"x": -0.1855867113,
				"y": 3.9667715619,
				"z": 1.1494989094,
				"element": "C" 
			},
			{
				"x": -0.4773894241,
				"y": 2.5978069964,
				"z": 0.9194333829,
				"element": "C" 
			},
			{
				"x": -1.5765622999,
				"y": 1.9681575858,
				"z": 1.3607146573,
				"element": "N" 
			},
			{
				"x": -2.3942674054,
				"y": 2.7544706496,
				"z": 2.0515071241,
				"element": "C" 
			},
			{
				"x": -2.2363631442,
				"y": 4.066987015,
				"z": 2.3411587652,
				"element": "N" 
			},
			{
				"x": -1.1481671751,
				"y": 4.6551567602,
				"z": 1.8941077347,
				"element": "C" 
			},
			{
				"x": -0.9220903284,
				"y": 6.3521798561,
				"z": 2.2562123015,
				"element": "Cl" 
			},
			{
				"x": 3.1099071014,
				"y": -0.944168985,
				"z": -2.13603061,
				"element": "H" 
			},
			{
				"x": 2.6661969001,
				"y": 1.3449195663,
				"z": -1.2233662223,
				"element": "H" 
			},
			{
				"x": -1.0291529665,
				"y": -0.0551127115,
				"z": 0.4644442985,
				"element": "H" 
			},
			{
				"x": -0.5746598505,
				"y": -2.3339439202,
				"z": -0.4513719398,
				"element": "H" 
			},
			{
				"x": 1.6438606868,
				"y": 5.0943717091,
				"z": 0.4380450533,
				"element": "H" 
			},
			{
				"x": -3.3024826441,
				"y": 2.2966527754,
				"z": 2.434171015,
				"element": "H" 
			}
		],
		 "valence_orbital": [ 
			{
				"type": "occ",
				"energy": -0.30649,
				"method": "rhf"
			},
			{
				"type": "occ",
				"energy": -0.28511,
				"method": "rhf"
			},
			{
				"type": "occ",
				"energy": -0.2792,
				"method": "rhf"
			},
			{
				"type": "occ",
				"energy": -0.27023,
				"method": "rhf"
			},
			{
				"type": "occ",
				"energy": -0.23314,
				"method": "rhf"
			},
			{
				"type": "unocc",
				"energy": -0.07609,
				"method": "rhf"
			},
			{
				"type": "unocc",
				"energy": -0.04326,
				"method": "rhf"
			},
			{
				"type": "unocc",
				"energy": -0.02155,
				"method": "rhf"
			},
			{
				"type": "unocc",
				"energy": -0.00157,
				"method": "rhf"
			},
			{
				"type": "unocc",
				"energy": 0.01954,
				"method": "rhf"
			}
		],
		"cosmo_sigma_profile": { 
			"-0.025": 0.0,
			"-0.024": 0.0,
			"-0.023": 0.0,
			"-0.022": 0.0,
			"-0.021": 0.0,
			"-0.02": 0.0,
			"-0.019": 0.0,
			"-0.018": 0.0,
			"-0.017": 0.0,
			"-0.016": 0.0,
			"-0.015": 0.0,
			"-0.014": 0.0,
			"-0.013": 0.0,
			"-0.012": 0.0,
			"-0.011": 0.0,
			"-0.01": 0.566844114796,
			"-0.009": 2.95549426183,
			"-0.008": 4.45864190053,
			"-0.007": 7.7235565595,
			"-0.006": 7.06472217374,
			"-0.005": 11.3809706859,
			"-0.004": 13.3970544509,
			"-0.003": 21.8366364336,
			"-0.002": 20.3597073488,
			"-0.001": 19.7037012468,
			"0.0": 20.6874522103,
			"0.001": 26.5341933128,
			"0.002": 27.2034957086,
			"0.003": 24.953970807,
			"0.004": 16.5016351053,
			"0.005": 8.6594246682,
			"0.006": 5.82779713523,
			"0.007": 3.00757544815,
			"0.008": 1.95614521561,
			"0.009": 2.193942489,
			"0.01": 1.36168456031,
			"0.011": 0.960056540905,
			"0.012": 0.739377945755,
			"0.013": 0.760452218054,
			"0.014": 0.096924751319,
			"0.015": 0.0,
			"0.016": 0.0,
			"0.017": 0.0,
			"0.018": 0.0,
			"0.019": 0.0,
			"0.02": 0.0,
			"0.021": 0.0,
			"0.022": 0.0,
			"0.023": 0.0,
			"0.024": 0.0,
			"0.025": 0.0
		}
	}
}
