{
	 "smiles": "NC1=CC(F)=C(F)C=C1F", 
	 "Tm": 334.15, 
	 "num_atms": 14, 
	 "gaussian": { 
		 "optdone": 1, 
		 "sigma_profile": "yes", 
		 "theory": "DFT", 
		 "functional": "B3LYP", 
		 "basiset": "6-31G**", 
		 "properties": { 
			 "R2extent": 1483.2981, 
			 "electric_dipole_moment_norm": 2.92497738282, 
			 "electric_quadrupole_moment_norm": 7.62617938289, 
			 "total_energy": -585.293332094, 
			 "HOMO_LUMO_gap": 0.19835, 
			 "cosmo_polarized_energy": -7.26, 
			 "cosmo_cavitation_energy": 19.87, 
			 "cosmo_dispersion_energy": -14.5, 
			 "cosmo_repulsion_energy": 1.12, 
			 "cosmo_total_nonelectrostatic_energy": 6.49, 
			 "SMD_solvation_energy": 4.9 
		},
		"coords": [
			{
				"x": -2.5235025798,
				"y": 1.4121498383,
				"z": -0.0683078213,
				"element": "N" 
			},
			{
				"x": -1.4094825157,
				"y": 0.5954503567,
				"z": -0.2423808132,
				"element": "C" 
			},
			{
				"x": -0.1519008542,
				"y": 1.0927026693,
				"z": -0.6162907466,
				"element": "C" 
			},
			{
				"x": 0.9395837447,
				"y": 0.2389847922,
				"z": -0.7165255716,
				"element": "C" 
			},
			{
				"x": 2.1389629321,
				"y": 0.7291056774,
				"z": -1.0788746085,
				"element": "F" 
			},
			{
				"x": 0.8160865549,
				"y": -1.1211725173,
				"z": -0.4460811726,
				"element": "C" 
			},
			{
				"x": 1.8913049435,
				"y": -1.9240712203,
				"z": -0.5507234211,
				"element": "F" 
			},
			{
				"x": -0.4189429997,
				"y": -1.6409440627,
				"z": -0.0748573386,
				"element": "C" 
			},
			{
				"x": -1.5001954743,
				"y": -0.7798825472,
				"z": 0.0186421477,
				"element": "C" 
			},
			{
				"x": -2.7185205443,
				"y": -1.2703720444,
				"z": 0.3645997637,
				"element": "F" 
			},
			{
				"x": -2.5456712996,
				"y": 2.2410107888,
				"z": -0.6454210675,
				"element": "H" 
			},
			{
				"x": -3.4020749438,
				"y": 0.9124666555,
				"z": -0.070062219,
				"element": "H" 
			},
			{
				"x": -0.0098799782,
				"y": 2.1478363982,
				"z": -0.8249810632,
				"element": "H" 
			},
			{
				"x": -0.5348669855,
				"y": -2.6980647845,
				"z": 0.1318639319,
				"element": "H" 
			}
		],
		 "valence_orbital": [ 
			{
				"type": "occ",
				"energy": -0.37315,
				"method": "rhf"
			},
			{
				"type": "occ",
				"energy": -0.36413,
				"method": "rhf"
			},
			{
				"type": "occ",
				"energy": -0.31054,
				"method": "rhf"
			},
			{
				"type": "occ",
				"energy": -0.25474,
				"method": "rhf"
			},
			{
				"type": "occ",
				"energy": -0.2108,
				"method": "rhf"
			},
			{
				"type": "unocc",
				"energy": -0.01245,
				"method": "rhf"
			},
			{
				"type": "unocc",
				"energy": 0.01268,
				"method": "rhf"
			},
			{
				"type": "unocc",
				"energy": 0.06375,
				"method": "rhf"
			},
			{
				"type": "unocc",
				"energy": 0.07499,
				"method": "rhf"
			},
			{
				"type": "unocc",
				"energy": 0.12649,
				"method": "rhf"
			}
		],
		"cosmo_sigma_profile": { 
			"-0.025": 0.0,
			"-0.024": 0.0,
			"-0.023": 0.0,
			"-0.022": 0.0,
			"-0.021": 0.0,
			"-0.02": 0.0,
			"-0.019": 0.0,
			"-0.018": 0.0,
			"-0.017": 0.0,
			"-0.016": 0.0,
			"-0.015": 0.0,
			"-0.014": 0.0936802851484,
			"-0.013": 1.24686081172,
			"-0.012": 2.50322712574,
			"-0.011": 2.42345657434,
			"-0.01": 3.16393947974,
			"-0.009": 3.25529664396,
			"-0.008": 5.63907105474,
			"-0.007": 4.20048425198,
			"-0.006": 4.48453211725,
			"-0.005": 4.24636180669,
			"-0.004": 4.03599036419,
			"-0.003": 4.48233968341,
			"-0.002": 3.88290192717,
			"-0.001": 7.5091491337,
			"0.0": 13.3310025554,
			"0.001": 22.6567707076,
			"0.002": 16.7766209546,
			"0.003": 16.3355699164,
			"0.004": 28.6586448091,
			"0.005": 5.0231292821,
			"0.006": 0.552875536,
			"0.007": 1.11444419579,
			"0.008": 0.729807591668,
			"0.009": 0.691465118524,
			"0.01": 0.600966768016,
			"0.011": 0.458940115599,
			"0.012": 0.820966372688,
			"0.013": 0.614117995751,
			"0.014": 0.201552997099,
			"0.015": 0.0,
			"0.016": 0.0,
			"0.017": 0.0,
			"0.018": 0.0,
			"0.019": 0.0,
			"0.02": 0.0,
			"0.021": 0.0,
			"0.022": 0.0,
			"0.023": 0.0,
			"0.024": 0.0,
			"0.025": 0.0
		}
	}
}
