{
	 "smiles": "OC(=O)C1=CC=CC(=C1)C1=NN=NN1", 
	 "Tm": 558.15, 
	 "num_atms": 20, 
	 "gaussian": { 
		 "optdone": 1, 
		 "sigma_profile": "yes", 
		 "theory": "DFT", 
		 "functional": "B3LYP", 
		 "basiset": "6-31G**", 
		 "properties": { 
			 "R2extent": 3310.8812, 
			 "electric_dipole_moment_norm": 4.26893616139, 
			 "electric_quadrupole_moment_norm": 27.7438756081, 
			 "total_energy": -677.887430215, 
			 "HOMO_LUMO_gap": 0.19198, 
			 "cosmo_polarized_energy": -21.9, 
			 "cosmo_cavitation_energy": 26.09, 
			 "cosmo_dispersion_energy": -19.33, 
			 "cosmo_repulsion_energy": 1.5, 
			 "cosmo_total_nonelectrostatic_energy": 8.27, 
			 "SMD_solvation_energy": 3.94 
		},
		"coords": [
			{
				"x": -2.8328496737,
				"y": -2.0144331766,
				"z": -0.6949350471,
				"element": "O" 
			},
			{
				"x": -3.0225591517,
				"y": -0.7293412794,
				"z": -1.0871629989,
				"element": "C" 
			},
			{
				"x": -3.9854621952,
				"y": -0.3860116912,
				"z": -1.7412788705,
				"element": "O" 
			},
			{
				"x": -1.938007197,
				"y": 0.1828671196,
				"z": -0.6310514295,
				"element": "C" 
			},
			{
				"x": -2.0270241551,
				"y": 1.5370595111,
				"z": -0.9770352967,
				"element": "C" 
			},
			{
				"x": -1.0323238743,
				"y": 2.4242470289,
				"z": -0.5695525659,
				"element": "C" 
			},
			{
				"x": 0.0496499688,
				"y": 1.9695149917,
				"z": 0.1801497198,
				"element": "C" 
			},
			{
				"x": 0.1468683924,
				"y": 0.612092027,
				"z": 0.5317107297,
				"element": "C" 
			},
			{
				"x": -0.8529192158,
				"y": -0.2778936331,
				"z": 0.121840949,
				"element": "C" 
			},
			{
				"x": 1.2994974944,
				"y": 0.1722388204,
				"z": 1.3205763696,
				"element": "C" 
			},
			{
				"x": 2.2899215629,
				"y": 0.9421505207,
				"z": 1.7500396801,
				"element": "N" 
			},
			{
				"x": 3.138973137,
				"y": 0.1363404005,
				"z": 2.4359321425,
				"element": "N" 
			},
			{
				"x": 2.7196504788,
				"y": -1.0866326869,
				"z": 2.4468139828,
				"element": "N" 
			},
			{
				"x": 1.5598880808,
				"y": -1.0855327039,
				"z": 1.7491190605,
				"element": "N" 
			},
			{
				"x": -3.5901079809,
				"y": -2.5136073503,
				"z": -1.0431041861,
				"element": "H" 
			},
			{
				"x": -2.8785255423,
				"y": 1.8684740675,
				"z": -1.5613664622,
				"element": "H" 
			},
			{
				"x": -1.0988567468,
				"y": 3.4742515661,
				"z": -0.8362854429,
				"element": "H" 
			},
			{
				"x": 0.8313680398,
				"y": 2.6478017039,
				"z": 0.504456587,
				"element": "H" 
			},
			{
				"x": -0.8094533005,
				"y": -1.3313234081,
				"z": 0.3754191883,
				"element": "H" 
			},
			{
				"x": 1.0475718784,
				"y": -1.9463618279,
				"z": 1.6268138903,
				"element": "H" 
			}
		],
		 "valence_orbital": [ 
			{
				"type": "occ",
				"energy": -0.30406,
				"method": "rhf"
			},
			{
				"type": "occ",
				"energy": -0.29506,
				"method": "rhf"
			},
			{
				"type": "occ",
				"energy": -0.289,
				"method": "rhf"
			},
			{
				"type": "occ",
				"energy": -0.28567,
				"method": "rhf"
			},
			{
				"type": "occ",
				"energy": -0.26441,
				"method": "rhf"
			},
			{
				"type": "unocc",
				"energy": -0.07243,
				"method": "rhf"
			},
			{
				"type": "unocc",
				"energy": -0.06002,
				"method": "rhf"
			},
			{
				"type": "unocc",
				"energy": -0.00554,
				"method": "rhf"
			},
			{
				"type": "unocc",
				"energy": 0.01792,
				"method": "rhf"
			},
			{
				"type": "unocc",
				"energy": 0.04072,
				"method": "rhf"
			}
		],
		"cosmo_sigma_profile": { 
			"-0.025": 0.0,
			"-0.024": 0.0,
			"-0.023": 0.0,
			"-0.022": 0.0,
			"-0.021": 0.0,
			"-0.02": 0.222926328695,
			"-0.019": 1.47928369541,
			"-0.018": 2.90229911175,
			"-0.017": 2.21756532405,
			"-0.016": 1.75080020995,
			"-0.015": 2.68737294831,
			"-0.014": 2.02536924007,
			"-0.013": 1.68427993489,
			"-0.012": 1.53128400616,
			"-0.011": 1.89425093537,
			"-0.01": 1.6476219761,
			"-0.009": 1.26453413616,
			"-0.008": 2.64762849263,
			"-0.007": 6.4202783396,
			"-0.006": 8.23764747491,
			"-0.005": 8.45757192206,
			"-0.004": 9.47144559708,
			"-0.003": 12.5790167796,
			"-0.002": 11.9872197939,
			"-0.001": 15.0029852355,
			"0.0": 16.5845393704,
			"0.001": 17.3108357204,
			"0.002": 13.9354393713,
			"0.003": 6.04140303066,
			"0.004": 5.72388407058,
			"0.005": 4.77685457506,
			"0.006": 5.80691913693,
			"0.007": 6.67671732384,
			"0.008": 6.77639883375,
			"0.009": 6.26636389402,
			"0.01": 6.91061358016,
			"0.011": 9.28022773629,
			"0.012": 5.34608648093,
			"0.013": 2.14267957244,
			"0.014": 0.85958791505,
			"0.015": 0.0,
			"0.016": 0.0,
			"0.017": 0.0,
			"0.018": 0.0,
			"0.019": 0.0,
			"0.02": 0.0,
			"0.021": 0.0,
			"0.022": 0.0,
			"0.023": 0.0,
			"0.024": 0.0,
			"0.025": 0.0
		}
	}
}
