{
	 "smiles": "CCOC(=O)C1=C(NC(=O)CCl)SC(C(=O)OC(C)(C)C)=C1C", 
	 "Tm": 442.15, 
	 "num_atms": 43, 
	 "gaussian": { 
		 "optdone": 1, 
		 "sigma_profile": "yes", 
		 "theory": "DFT", 
		 "functional": "B3LYP", 
		 "basiset": "6-31G**", 
		 "properties": { 
			 "R2extent": 12290.3575, 
			 "electric_dipole_moment_norm": 4.52930897268, 
			 "electric_quadrupole_moment_norm": 46.8675358545, 
			 "total_energy": -1872.95549817, 
			 "HOMO_LUMO_gap": 0.16466, 
			 "cosmo_polarized_energy": -15.93, 
			 "cosmo_cavitation_energy": 48.84, 
			 "cosmo_dispersion_energy": -34.17, 
			 "cosmo_repulsion_energy": 2.61, 
			 "cosmo_total_nonelectrostatic_energy": 17.28, 
			 "SMD_solvation_energy": 10.42 
		},
		"coords": [
			{
				"x": -2.4922957535,
				"y": -0.2956771546,
				"z": -5.8611192486,
				"element": "C" 
			},
			{
				"x": -1.9404480865,
				"y": 0.955024023,
				"z": -5.1951430151,
				"element": "C" 
			},
			{
				"x": -1.3257786163,
				"y": 0.6474273841,
				"z": -3.9157385224,
				"element": "O" 
			},
			{
				"x": -2.1423461117,
				"y": 0.5753526497,
				"z": -2.8512281243,
				"element": "C" 
			},
			{
				"x": -3.3552805265,
				"y": 0.7631496068,
				"z": -2.9452298279,
				"element": "O" 
			},
			{
				"x": -1.4570362492,
				"y": 0.2600963621,
				"z": -1.5864220481,
				"element": "C" 
			},
			{
				"x": -2.2007054995,
				"y": 0.1509355302,
				"z": -0.3984412949,
				"element": "C" 
			},
			{
				"x": -3.5612396848,
				"y": 0.3270441461,
				"z": -0.3369895967,
				"element": "N" 
			},
			{
				"x": -4.5221504896,
				"y": 0.2735330851,
				"z": 0.675733931,
				"element": "C" 
			},
			{
				"x": -5.6834610144,
				"y": 0.482497478,
				"z": 0.3961740249,
				"element": "O" 
			},
			{
				"x": -4.0346520087,
				"y": -0.0489418452,
				"z": 2.0872172997,
				"element": "C" 
			},
			{
				"x": -5.3717074324,
				"y": -0.0847995679,
				"z": 3.2727824731,
				"element": "Cl" 
			},
			{
				"x": -1.1822072778,
				"y": -0.2282729661,
				"z": 0.9569333203,
				"element": "S" 
			},
			{
				"x": 0.2496319942,
				"y": -0.2417911613,
				"z": -0.0668374068,
				"element": "C" 
			},
			{
				"x": 1.5478240287,
				"y": -0.5314037533,
				"z": 0.5673670713,
				"element": "C" 
			},
			{
				"x": 2.6207429873,
				"y": -0.5767632603,
				"z": -0.0103242627,
				"element": "O" 
			},
			{
				"x": 1.3730482998,
				"y": -0.7409180605,
				"z": 1.8927884172,
				"element": "O" 
			},
			{
				"x": 2.5017768351,
				"y": -1.0552776223,
				"z": 2.7930257577,
				"element": "C" 
			},
			{
				"x": 3.1528917678,
				"y": -2.3750144676,
				"z": 2.367228177,
				"element": "C" 
			},
			{
				"x": 3.4955313332,
				"y": 0.1106382488,
				"z": 2.8056976329,
				"element": "C" 
			},
			{
				"x": 1.8132834069,
				"y": -1.2000184558,
				"z": 4.1520640381,
				"element": "C" 
			},
			{
				"x": -0.0452263455,
				"y": 0.032844062,
				"z": -1.3857338089,
				"element": "C" 
			},
			{
				"x": 0.9963786755,
				"y": 0.0856780621,
				"z": -2.4709696389,
				"element": "C" 
			},
			{
				"x": -3.3138877108,
				"y": -0.7144880673,
				"z": -5.2755898379,
				"element": "H" 
			},
			{
				"x": -2.8738254381,
				"y": -0.0438495367,
				"z": -6.8561069606,
				"element": "H" 
			},
			{
				"x": -1.7122452597,
				"y": -1.054073175,
				"z": -5.9752873634,
				"element": "H" 
			},
			{
				"x": -2.7226020572,
				"y": 1.7005895192,
				"z": -5.0387083235,
				"element": "H" 
			},
			{
				"x": -1.1276426928,
				"y": 1.3950695493,
				"z": -5.7770359127,
				"element": "H" 
			},
			{
				"x": -3.955412107,
				"y": 0.5490815131,
				"z": -1.2610048336,
				"element": "H" 
			},
			{
				"x": -3.31425245,
				"y": 0.7012725154,
				"z": 2.4218583042,
				"element": "H" 
			},
			{
				"x": -3.5464562685,
				"y": -1.0261739848,
				"z": 2.1077334964,
				"element": "H" 
			},
			{
				"x": 3.6350193085,
				"y": -2.2819726007,
				"z": 1.3939183867,
				"element": "H" 
			},
			{
				"x": 3.9063470566,
				"y": -2.6637414704,
				"z": 3.1071421316,
				"element": "H" 
			},
			{
				"x": 2.4034315138,
				"y": -3.1710966008,
				"z": 2.3185252069,
				"element": "H" 
			},
			{
				"x": 4.2627070368,
				"y": -0.0740771001,
				"z": 3.5645495099,
				"element": "H" 
			},
			{
				"x": 2.9841703592,
				"y": 1.0439443685,
				"z": 3.0611607675,
				"element": "H" 
			},
			{
				"x": 3.9815436769,
				"y": 0.2264698758,
				"z": 1.8367685794,
				"element": "H" 
			},
			{
				"x": 2.5530168094,
				"y": -1.4380688364,
				"z": 4.9220364056,
				"element": "H" 
			},
			{
				"x": 1.0702228571,
				"y": -2.0022564854,
				"z": 4.1264555897,
				"element": "H" 
			},
			{
				"x": 1.3094492747,
				"y": -0.2704255602,
				"z": 4.4320385402,
				"element": "H" 
			},
			{
				"x": 1.981581704,
				"y": -0.1176006076,
				"z": -2.0585465485,
				"element": "H" 
			},
			{
				"x": 0.9945169596,
				"y": 1.0674717468,
				"z": -2.9527071756,
				"element": "H" 
			},
			{
				"x": 0.7681431954,
				"y": -0.6427173858,
				"z": -3.2540353101,
				"element": "H" 
			}
		],
		 "valence_orbital": [ 
			{
				"type": "occ",
				"energy": -0.2943,
				"method": "rhf"
			},
			{
				"type": "occ",
				"energy": -0.28015,
				"method": "rhf"
			},
			{
				"type": "occ",
				"energy": -0.27357,
				"method": "rhf"
			},
			{
				"type": "occ",
				"energy": -0.27172,
				"method": "rhf"
			},
			{
				"type": "occ",
				"energy": -0.22991,
				"method": "rhf"
			},
			{
				"type": "unocc",
				"energy": -0.06525,
				"method": "rhf"
			},
			{
				"type": "unocc",
				"energy": -0.04129,
				"method": "rhf"
			},
			{
				"type": "unocc",
				"energy": -0.00811,
				"method": "rhf"
			},
			{
				"type": "unocc",
				"energy": 0.01041,
				"method": "rhf"
			},
			{
				"type": "unocc",
				"energy": 0.04206,
				"method": "rhf"
			}
		],
		"cosmo_sigma_profile": { 
			"-0.025": 0.0,
			"-0.024": 0.0,
			"-0.023": 0.0,
			"-0.022": 0.0,
			"-0.021": 0.0,
			"-0.02": 0.0,
			"-0.019": 0.0,
			"-0.018": 0.0,
			"-0.017": 0.0,
			"-0.016": 0.0,
			"-0.015": 0.0,
			"-0.014": 0.0,
			"-0.013": 0.0,
			"-0.012": 0.127128666879,
			"-0.011": 1.66402382898,
			"-0.01": 3.38614556842,
			"-0.009": 3.84792432298,
			"-0.008": 2.79130030565,
			"-0.007": 4.04776730064,
			"-0.006": 6.53759272212,
			"-0.005": 11.8438453532,
			"-0.004": 30.7077897744,
			"-0.003": 38.9668804461,
			"-0.002": 45.1198450597,
			"-0.001": 45.7748399882,
			"0.0": 56.1574757682,
			"0.001": 35.5424820132,
			"0.002": 20.6363671935,
			"0.003": 13.6200780063,
			"0.004": 12.5392379637,
			"0.005": 12.9804319907,
			"0.006": 9.34030576921,
			"0.007": 5.07566995521,
			"0.008": 4.81390999663,
			"0.009": 5.23974055276,
			"0.01": 5.88669719365,
			"0.011": 8.30498336771,
			"0.012": 3.85333498552,
			"0.013": 0.776198277511,
			"0.014": 0.0,
			"0.015": 0.0,
			"0.016": 0.0,
			"0.017": 0.0,
			"0.018": 0.0,
			"0.019": 0.0,
			"0.02": 0.0,
			"0.021": 0.0,
			"0.022": 0.0,
			"0.023": 0.0,
			"0.024": 0.0,
			"0.025": 0.0
		}
	}
}
