{
	 "smiles": "CCOC(=O)CC1=CC(=CC=C1)C#N", 
	 "Tm": 321.15, 
	 "num_atms": 25, 
	 "gaussian": { 
		 "optdone": 1, 
		 "sigma_profile": "yes", 
		 "theory": "DFT", 
		 "functional": "B3LYP", 
		 "basiset": "6-31G**", 
		 "properties": { 
			 "R2extent": 4349.6015, 
			 "electric_dipole_moment_norm": 6.25452440478, 
			 "electric_quadrupole_moment_norm": 25.430843869, 
			 "total_energy": -631.001972366, 
			 "HOMO_LUMO_gap": 0.21281, 
			 "cosmo_polarized_energy": -13.07, 
			 "cosmo_cavitation_energy": 30.7, 
			 "cosmo_dispersion_energy": -21.38, 
			 "cosmo_repulsion_energy": 1.72, 
			 "cosmo_total_nonelectrostatic_energy": 11.04, 
			 "SMD_solvation_energy": 7.64 
		},
		"coords": [
			{
				"x": -2.3231127378,
				"y": 3.7677999028,
				"z": -3.1893027201,
				"element": "C" 
			},
			{
				"x": -2.5066152586,
				"y": 2.2610412151,
				"z": -3.0971116864,
				"element": "C" 
			},
			{
				"x": -2.1325667233,
				"y": 1.7645477254,
				"z": -1.7846191416,
				"element": "O" 
			},
			{
				"x": -0.8272436399,
				"y": 1.4903418551,
				"z": -1.5948517785,
				"element": "C" 
			},
			{
				"x": 0.0307351048,
				"y": 1.6196399992,
				"z": -2.4423140812,
				"element": "O" 
			},
			{
				"x": -0.568312881,
				"y": 1.0200832638,
				"z": -0.167834887,
				"element": "C" 
			},
			{
				"x": 0.2040034614,
				"y": -0.283775028,
				"z": -0.0929931487,
				"element": "C" 
			},
			{
				"x": 1.4734414433,
				"y": -0.4018801814,
				"z": -0.6690607467,
				"element": "C" 
			},
			{
				"x": 2.1804742727,
				"y": -1.6100374077,
				"z": -0.5747565108,
				"element": "C" 
			},
			{
				"x": 1.6233070965,
				"y": -2.7112218672,
				"z": 0.098237443,
				"element": "C" 
			},
			{
				"x": 0.3603368933,
				"y": -2.591169106,
				"z": 0.6677906385,
				"element": "C" 
			},
			{
				"x": -0.3429401128,
				"y": -1.388046291,
				"z": 0.571655033,
				"element": "C" 
			},
			{
				"x": 3.4839976286,
				"y": -1.7218819084,
				"z": -1.1651049893,
				"element": "C" 
			},
			{
				"x": 4.5422790993,
				"y": -1.8189527436,
				"z": -1.6381054589,
				"element": "N" 
			},
			{
				"x": -2.6845901609,
				"y": 4.1255586292,
				"z": -4.15897751,
				"element": "H" 
			},
			{
				"x": -2.8868511551,
				"y": 4.2789284607,
				"z": -2.4033695051,
				"element": "H" 
			},
			{
				"x": -1.2669479083,
				"y": 4.0335038563,
				"z": -3.0999380074,
				"element": "H" 
			},
			{
				"x": -1.9097524099,
				"y": 1.7418073469,
				"z": -3.8502694005,
				"element": "H" 
			},
			{
				"x": -3.5557677294,
				"y": 1.975834805,
				"z": -3.2022265493,
				"element": "H" 
			},
			{
				"x": -1.5179087654,
				"y": 0.9368196798,
				"z": 0.363443233,
				"element": "H" 
			},
			{
				"x": 0.0086097314,
				"y": 1.8197722111,
				"z": 0.3148400787,
				"element": "H" 
			},
			{
				"x": 1.9033418018,
				"y": 0.4347049743,
				"z": -1.207126801,
				"element": "H" 
			},
			{
				"x": 2.180990707,
				"y": -3.6390219344,
				"z": 0.1667888779,
				"element": "H" 
			},
			{
				"x": -0.080691272,
				"y": -3.4356422365,
				"z": 1.1882717918,
				"element": "H" 
			},
			{
				"x": -1.3293164856,
				"y": -1.3060552204,
				"z": 1.0204358265,
				"element": "H" 
			}
		],
		 "valence_orbital": [ 
			{
				"type": "occ",
				"energy": -0.32526,
				"method": "rhf"
			},
			{
				"type": "occ",
				"energy": -0.30961,
				"method": "rhf"
			},
			{
				"type": "occ",
				"energy": -0.28482,
				"method": "rhf"
			},
			{
				"type": "occ",
				"energy": -0.26769,
				"method": "rhf"
			},
			{
				"type": "occ",
				"energy": -0.26093,
				"method": "rhf"
			},
			{
				"type": "unocc",
				"energy": -0.04812,
				"method": "rhf"
			},
			{
				"type": "unocc",
				"energy": -0.02671,
				"method": "rhf"
			},
			{
				"type": "unocc",
				"energy": 0.0036,
				"method": "rhf"
			},
			{
				"type": "unocc",
				"energy": 0.04193,
				"method": "rhf"
			},
			{
				"type": "unocc",
				"energy": 0.07856,
				"method": "rhf"
			}
		],
		"cosmo_sigma_profile": { 
			"-0.025": 0.0,
			"-0.024": 0.0,
			"-0.023": 0.0,
			"-0.022": 0.0,
			"-0.021": 0.0,
			"-0.02": 0.0,
			"-0.019": 0.0,
			"-0.018": 0.0,
			"-0.017": 0.0,
			"-0.016": 0.0,
			"-0.015": 0.0,
			"-0.014": 0.0,
			"-0.013": 0.0,
			"-0.012": 0.0,
			"-0.011": 0.0,
			"-0.01": 0.0,
			"-0.009": 0.0,
			"-0.008": 2.3281453272,
			"-0.007": 11.3718411646,
			"-0.006": 15.4009279219,
			"-0.005": 16.3057828694,
			"-0.004": 20.9382987168,
			"-0.003": 23.1731025442,
			"-0.002": 21.6590197847,
			"-0.001": 20.3516654699,
			"0.0": 20.4861711615,
			"0.001": 14.3225017382,
			"0.002": 16.6223358417,
			"0.003": 12.7557722916,
			"0.004": 5.50420267761,
			"0.005": 5.18540843573,
			"0.006": 5.24945353221,
			"0.007": 5.32413788954,
			"0.008": 6.45608424649,
			"0.009": 4.98719390391,
			"0.01": 5.23181763304,
			"0.011": 5.62544987618,
			"0.012": 4.22793000347,
			"0.013": 1.69185688049,
			"0.014": 0.0708773145663,
			"0.015": 0.0,
			"0.016": 0.0,
			"0.017": 0.0,
			"0.018": 0.0,
			"0.019": 0.0,
			"0.02": 0.0,
			"0.021": 0.0,
			"0.022": 0.0,
			"0.023": 0.0,
			"0.024": 0.0,
			"0.025": 0.0
		}
	}
}
