{
	 "smiles": "CC(=O)C1CCC2C3CCC4CC(O)CCC4(C)C3CCC12C", 
	 "Tm": 467.15, 
	 "num_atms": 57, 
	 "gaussian": { 
		 "optdone": 1, 
		 "sigma_profile": "yes", 
		 "theory": "DFT", 
		 "functional": "B3LYP", 
		 "basiset": "6-31G**", 
		 "properties": { 
			 "R2extent": 8798.6466, 
			 "electric_dipole_moment_norm": 3.15058789117, 
			 "electric_quadrupole_moment_norm": 14.7153618491, 
			 "total_energy": -971.17672319, 
			 "HOMO_LUMO_gap": 0.22552, 
			 "cosmo_polarized_energy": -12.39, 
			 "cosmo_cavitation_energy": 47.37, 
			 "cosmo_dispersion_energy": -33.39, 
			 "cosmo_repulsion_energy": 2.45, 
			 "cosmo_total_nonelectrostatic_energy": 16.43, 
			 "SMD_solvation_energy": 6.86 
		},
		"coords": [
			{
				"x": 5.685832761,
				"y": 1.3743150475,
				"z": 0.2032221051,
				"element": "C" 
			},
			{
				"x": 4.3146927441,
				"y": 1.3652480772,
				"z": -0.4578802748,
				"element": "C" 
			},
			{
				"x": 3.9551028518,
				"y": 2.2973773325,
				"z": -1.1561401108,
				"element": "O" 
			},
			{
				"x": 3.4514892075,
				"y": 0.1327419896,
				"z": -0.2151985142,
				"element": "C" 
			},
			{
				"x": 3.2700684237,
				"y": -0.2468396343,
				"z": 1.2791938696,
				"element": "C" 
			},
			{
				"x": 2.0029525381,
				"y": -1.1441987932,
				"z": 1.3132309619,
				"element": "C" 
			},
			{
				"x": 1.4445886925,
				"y": -1.1607048503,
				"z": -0.1436490087,
				"element": "C" 
			},
			{
				"x": -0.0843324534,
				"y": -1.3865452512,
				"z": -0.3562497405,
				"element": "C" 
			},
			{
				"x": -0.6828680279,
				"y": -2.3789729637,
				"z": 0.6844017901,
				"element": "C" 
			},
			{
				"x": -1.505216561,
				"y": -1.6842084317,
				"z": 1.7741197732,
				"element": "C" 
			},
			{
				"x": -2.7154989401,
				"y": -0.916152058,
				"z": 1.206095899,
				"element": "C" 
			},
			{
				"x": -3.2446416586,
				"y": 0.0977566057,
				"z": 2.2353639021,
				"element": "C" 
			},
			{
				"x": -4.5806568551,
				"y": 0.7346001206,
				"z": 1.8180890821,
				"element": "C" 
			},
			{
				"x": -4.8558032388,
				"y": 1.9045335076,
				"z": 2.591237245,
				"element": "O" 
			},
			{
				"x": -4.6146703315,
				"y": 1.0062086246,
				"z": 0.2926478632,
				"element": "C" 
			},
			{
				"x": -3.2051005133,
				"y": 1.0921121115,
				"z": -0.3086706956,
				"element": "C" 
			},
			{
				"x": -2.4266089046,
				"y": -0.2525846987,
				"z": -0.196118991,
				"element": "C" 
			},
			{
				"x": -2.9706525628,
				"y": -1.1769776823,
				"z": -1.3160682281,
				"element": "C" 
			},
			{
				"x": -0.8944644713,
				"y": -0.0457459459,
				"z": -0.4628211576,
				"element": "C" 
			},
			{
				"x": -0.1709196498,
				"y": 1.0685763652,
				"z": 0.3175562702,
				"element": "C" 
			},
			{
				"x": 1.1971089198,
				"y": 1.3846486898,
				"z": -0.3234765434,
				"element": "C" 
			},
			{
				"x": 2.0129582568,
				"y": 0.132346207,
				"z": -0.7965515741,
				"element": "C" 
			},
			{
				"x": 2.0347407708,
				"y": 0.0391165315,
				"z": -2.3316604041,
				"element": "C" 
			},
			{
				"x": 5.5802201698,
				"y": 1.4748588834,
				"z": 1.2897312164,
				"element": "H" 
			},
			{
				"x": 6.2198142573,
				"y": 0.4351090413,
				"z": 0.0210010859,
				"element": "H" 
			},
			{
				"x": 6.2677742652,
				"y": 2.2147523467,
				"z": -0.1779435628,
				"element": "H" 
			},
			{
				"x": 3.999541793,
				"y": -0.695811011,
				"z": -0.6947268726,
				"element": "H" 
			},
			{
				"x": 4.1521642162,
				"y": -0.7504702606,
				"z": 1.6852517179,
				"element": "H" 
			},
			{
				"x": 3.1170365302,
				"y": 0.6546870048,
				"z": 1.883054945,
				"element": "H" 
			},
			{
				"x": 1.2811179351,
				"y": -0.7494051541,
				"z": 2.0308797118,
				"element": "H" 
			},
			{
				"x": 2.2460752567,
				"y": -2.1569189115,
				"z": 1.6480214756,
				"element": "H" 
			},
			{
				"x": 1.9451130627,
				"y": -2.0036707324,
				"z": -0.6411496151,
				"element": "H" 
			},
			{
				"x": -0.1684786339,
				"y": -1.8723214826,
				"z": -1.334691336,
				"element": "H" 
			},
			{
				"x": 0.1171178663,
				"y": -2.9704918386,
				"z": 1.1417132849,
				"element": "H" 
			},
			{
				"x": -1.3270191553,
				"y": -3.1072387229,
				"z": 0.17741187,
				"element": "H" 
			},
			{
				"x": -0.8653628264,
				"y": -0.9929064139,
				"z": 2.335833863,
				"element": "H" 
			},
			{
				"x": -1.859141184,
				"y": -2.420896236,
				"z": 2.5060309608,
				"element": "H" 
			},
			{
				"x": -3.514706079,
				"y": -1.6550376508,
				"z": 1.0456949452,
				"element": "H" 
			},
			{
				"x": -3.3538743744,
				"y": -0.3747050785,
				"z": 3.2183687835,
				"element": "H" 
			},
			{
				"x": -2.5002301919,
				"y": 0.8968849792,
				"z": 2.3659196201,
				"element": "H" 
			},
			{
				"x": -5.4001519414,
				"y": 0.0538213716,
				"z": 2.0747640026,
				"element": "H" 
			},
			{
				"x": -4.1308522503,
				"y": 2.5272443686,
				"z": 2.443703976,
				"element": "H" 
			},
			{
				"x": -5.187616546,
				"y": 0.2171926739,
				"z": -0.2079729318,
				"element": "H" 
			},
			{
				"x": -5.1697396763,
				"y": 1.9358496475,
				"z": 0.1266820214,
				"element": "H" 
			},
			{
				"x": -3.2550134599,
				"y": 1.3945334053,
				"z": -1.3620253225,
				"element": "H" 
			},
			{
				"x": -2.6662410467,
				"y": 1.89503611,
				"z": 0.2044835299,
				"element": "H" 
			},
			{
				"x": -4.0562132163,
				"y": -1.294025737,
				"z": -1.2374726911,
				"element": "H" 
			},
			{
				"x": -2.7544800088,
				"y": -0.7568889713,
				"z": -2.3052323701,
				"element": "H" 
			},
			{
				"x": -2.5408180112,
				"y": -2.1805211164,
				"z": -1.2801923273,
				"element": "H" 
			},
			{
				"x": -0.8414392782,
				"y": 0.2719893432,
				"z": -1.5142346736,
				"element": "H" 
			},
			{
				"x": -0.0481000239,
				"y": 0.7921461519,
				"z": 1.3698461389,
				"element": "H" 
			},
			{
				"x": -0.7525659391,
				"y": 1.9949176253,
				"z": 0.3194809999,
				"element": "H" 
			},
			{
				"x": 1.0362572629,
				"y": 2.0351009367,
				"z": -1.1891233049,
				"element": "H" 
			},
			{
				"x": 1.7837236414,
				"y": 1.9864455668,
				"z": 0.3770351273,
				"element": "H" 
			},
			{
				"x": 2.6023913049,
				"y": -0.839135518,
				"z": -2.6639127212,
				"element": "H" 
			},
			{
				"x": 1.0249671117,
				"y": -0.0459895277,
				"z": -2.7459314111,
				"element": "H" 
			},
			{
				"x": 2.500228172,
				"y": 0.9305140063,
				"z": -2.7595736544,
				"element": "H" 
			}
		],
		 "valence_orbital": [ 
			{
				"type": "occ",
				"energy": -0.28237,
				"method": "rhf"
			},
			{
				"type": "occ",
				"energy": -0.27211,
				"method": "rhf"
			},
			{
				"type": "occ",
				"energy": -0.26901,
				"method": "rhf"
			},
			{
				"type": "occ",
				"energy": -0.25197,
				"method": "rhf"
			},
			{
				"type": "occ",
				"energy": -0.23802,
				"method": "rhf"
			},
			{
				"type": "unocc",
				"energy": -0.0125,
				"method": "rhf"
			},
			{
				"type": "unocc",
				"energy": 0.06015,
				"method": "rhf"
			},
			{
				"type": "unocc",
				"energy": 0.06786,
				"method": "rhf"
			},
			{
				"type": "unocc",
				"energy": 0.07349,
				"method": "rhf"
			},
			{
				"type": "unocc",
				"energy": 0.08166,
				"method": "rhf"
			}
		],
		"cosmo_sigma_profile": { 
			"-0.025": 0.0,
			"-0.024": 0.0,
			"-0.023": 0.0,
			"-0.022": 0.0,
			"-0.021": 0.0,
			"-0.02": 0.0,
			"-0.019": 0.0,
			"-0.018": 0.0,
			"-0.017": 0.0,
			"-0.016": 0.0,
			"-0.015": 0.0,
			"-0.014": 0.478408123308,
			"-0.013": 0.884475528068,
			"-0.012": 0.640317949296,
			"-0.011": 1.00405823957,
			"-0.01": 1.33171571185,
			"-0.009": 1.64759566262,
			"-0.008": 0.846940225178,
			"-0.007": 0.987927824216,
			"-0.006": 2.96539497784,
			"-0.005": 10.1078757361,
			"-0.004": 13.8123276588,
			"-0.003": 30.9470527045,
			"-0.002": 55.9687034579,
			"-0.001": 68.2415616216,
			"0.0": 58.3122980326,
			"0.001": 44.78322226,
			"0.002": 24.1026770357,
			"0.003": 5.85648182703,
			"0.004": 3.41588804721,
			"0.005": 3.30158204784,
			"0.006": 2.61603258027,
			"0.007": 3.20838388271,
			"0.008": 3.36007197477,
			"0.009": 3.57891013693,
			"0.01": 2.8980574279,
			"0.011": 3.0259821693,
			"0.012": 4.26212590341,
			"0.013": 4.47712555659,
			"0.014": 2.23425711895,
			"0.015": 2.11042497425,
			"0.016": 0.233639936827,
			"0.017": 0.0,
			"0.018": 0.0,
			"0.019": 0.0,
			"0.02": 0.0,
			"0.021": 0.0,
			"0.022": 0.0,
			"0.023": 0.0,
			"0.024": 0.0,
			"0.025": 0.0
		}
	}
}
