{
	 "smiles": "CC1=C(C(Br)=CC=C1)[N+]([O-])=O", 
	 "Tm": 301.15, 
	 "num_atms": 17, 
	 "gaussian": { 
		 "optdone": 1, 
		 "sigma_profile": "yes", 
		 "theory": "DFT", 
		 "functional": "B3LYP", 
		 "basiset": "6-31G**", 
		 "properties": { 
			 "R2extent": 5389.744, 
			 "electric_dipole_moment_norm": 4.35862463169, 
			 "electric_quadrupole_moment_norm": 10.0573303918, 
			 "total_energy": -3046.85555589, 
			 "HOMO_LUMO_gap": 0.18204, 
			 "cosmo_polarized_energy": -7.75, 
			 "cosmo_cavitation_energy": 24.25, 
			 "cosmo_dispersion_energy": -17.54, 
			 "cosmo_repulsion_energy": 1.4, 
			 "cosmo_total_nonelectrostatic_energy": 8.12, 
			 "SMD_solvation_energy": 5.71 
		},
		"coords": [
			{
				"x": 0.0353310833,
				"y": -0.1554123758,
				"z": -0.3618126031,
				"element": "C" 
			},
			{
				"x": 0.1663794753,
				"y": -0.811089377,
				"z": 0.9908863998,
				"element": "C" 
			},
			{
				"x": -0.1924868017,
				"y": -0.127953217,
				"z": 2.1603430269,
				"element": "C" 
			},
			{
				"x": -0.0838574274,
				"y": -0.7038548227,
				"z": 3.4235440837,
				"element": "C" 
			},
			{
				"x": -0.583188412,
				"y": 0.262250496,
				"z": 4.9837201894,
				"element": "Br" 
			},
			{
				"x": 0.3977619946,
				"y": -2.0067573403,
				"z": 3.5451084129,
				"element": "C" 
			},
			{
				"x": 0.7613055138,
				"y": -2.7072169785,
				"z": 2.3970367166,
				"element": "C" 
			},
			{
				"x": 0.6466233372,
				"y": -2.1162128604,
				"z": 1.1384774542,
				"element": "C" 
			},
			{
				"x": -0.7016673584,
				"y": 1.2520846789,
				"z": 2.0189554903,
				"element": "N" 
			},
			{
				"x": 0.1282105917,
				"y": 2.1549620685,
				"z": 2.0381773228,
				"element": "O" 
			},
			{
				"x": -1.9107364429,
				"y": 1.3845193271,
				"z": 1.8612266311,
				"element": "O" 
			},
			{
				"x": -1.0024000772,
				"y": 0.1331457648,
				"z": -0.559426054,
				"element": "H" 
			},
			{
				"x": 0.3599850327,
				"y": -0.8340969567,
				"z": -1.1529153814,
				"element": "H" 
			},
			{
				"x": 0.6421237963,
				"y": 0.7544772669,
				"z": -0.4176036564,
				"element": "H" 
			},
			{
				"x": 0.4829722444,
				"y": -2.4565592608,
				"z": 4.5272554499,
				"element": "H" 
			},
			{
				"x": 1.1367381991,
				"y": -3.7218000162,
				"z": 2.4872556924,
				"element": "H" 
			},
			{
				"x": 0.9331052512,
				"y": -2.6718863968,
				"z": 0.250670825,
				"element": "H" 
			}
		],
		 "valence_orbital": [ 
			{
				"type": "occ",
				"energy": -0.31493,
				"method": "rhf"
			},
			{
				"type": "occ",
				"energy": -0.30947,
				"method": "rhf"
			},
			{
				"type": "occ",
				"energy": -0.30193,
				"method": "rhf"
			},
			{
				"type": "occ",
				"energy": -0.26843,
				"method": "rhf"
			},
			{
				"type": "occ",
				"energy": -0.2591,
				"method": "rhf"
			},
			{
				"type": "unocc",
				"energy": -0.07706,
				"method": "rhf"
			},
			{
				"type": "unocc",
				"energy": -0.03631,
				"method": "rhf"
			},
			{
				"type": "unocc",
				"energy": -0.03165,
				"method": "rhf"
			},
			{
				"type": "unocc",
				"energy": -0.01081,
				"method": "rhf"
			},
			{
				"type": "unocc",
				"energy": 0.0859,
				"method": "rhf"
			}
		],
		"cosmo_sigma_profile": { 
			"-0.025": 0.0,
			"-0.024": 0.0,
			"-0.023": 0.0,
			"-0.022": 0.0,
			"-0.021": 0.0,
			"-0.02": 0.0,
			"-0.019": 0.0,
			"-0.018": 0.0,
			"-0.017": 0.0,
			"-0.016": 0.0,
			"-0.015": 0.0,
			"-0.014": 0.0,
			"-0.013": 0.0,
			"-0.012": 0.0,
			"-0.011": 0.0,
			"-0.01": 0.0,
			"-0.009": 0.00859442803552,
			"-0.008": 1.99784441246,
			"-0.007": 8.23668415024,
			"-0.006": 9.3781104199,
			"-0.005": 12.6093303223,
			"-0.004": 12.3245776882,
			"-0.003": 15.3016402934,
			"-0.002": 13.3139917197,
			"-0.001": 16.0398989899,
			"0.0": 17.5372107194,
			"0.001": 20.2035236365,
			"0.002": 20.7883279306,
			"0.003": 14.9907617677,
			"0.004": 5.11276950202,
			"0.005": 4.31185504129,
			"0.006": 6.91606209406,
			"0.007": 10.1773398825,
			"0.008": 5.89890183343,
			"0.009": 2.16442396978,
			"0.01": 0.0145661896362,
			"0.011": 0.0,
			"0.012": 0.0,
			"0.013": 0.0,
			"0.014": 0.0,
			"0.015": 0.0,
			"0.016": 0.0,
			"0.017": 0.0,
			"0.018": 0.0,
			"0.019": 0.0,
			"0.02": 0.0,
			"0.021": 0.0,
			"0.022": 0.0,
			"0.023": 0.0,
			"0.024": 0.0,
			"0.025": 0.0
		}
	}
}
