{
	 "smiles": "COC1=CC(CCC(O)=O)=CC=C1O", 
	 "Tm": 363.15, 
	 "num_atms": 26, 
	 "gaussian": { 
		 "optdone": 1, 
		 "sigma_profile": "yes", 
		 "theory": "DFT", 
		 "functional": "B3LYP", 
		 "basiset": "6-31G**", 
		 "properties": { 
			 "R2extent": 3341.2876, 
			 "electric_dipole_moment_norm": 2.28586631499, 
			 "electric_quadrupole_moment_norm": 12.6515809969, 
			 "total_energy": -689.200364185, 
			 "HOMO_LUMO_gap": 0.20266, 
			 "cosmo_polarized_energy": -12.73, 
			 "cosmo_cavitation_energy": 29.89, 
			 "cosmo_dispersion_energy": -21.35, 
			 "cosmo_repulsion_energy": 1.71, 
			 "cosmo_total_nonelectrostatic_energy": 10.25, 
			 "SMD_solvation_energy": 7.02 
		},
		"coords": [
			{
				"x": 0.9991963113,
				"y": 1.6873021864,
				"z": -2.330017345,
				"element": "C" 
			},
			{
				"x": -0.0437831946,
				"y": 2.2524222467,
				"z": -1.5493559656,
				"element": "O" 
			},
			{
				"x": -0.2395051959,
				"y": 1.760124909,
				"z": -0.2795515442,
				"element": "C" 
			},
			{
				"x": 0.5000561559,
				"y": 0.7492221018,
				"z": 0.3240981257,
				"element": "C" 
			},
			{
				"x": 0.1971265856,
				"y": 0.3343524897,
				"z": 1.6340419452,
				"element": "C" 
			},
			{
				"x": 0.9813803456,
				"y": -0.7869152919,
				"z": 2.2872570388,
				"element": "C" 
			},
			{
				"x": 0.44066146,
				"y": -2.194762478,
				"z": 1.9768919817,
				"element": "C" 
			},
			{
				"x": 0.7578315773,
				"y": -2.6769421359,
				"z": 0.5771692624,
				"element": "C" 
			},
			{
				"x": -0.0157263613,
				"y": -3.7321590489,
				"z": 0.2285527223,
				"element": "O" 
			},
			{
				"x": 1.6128674144,
				"y": -2.2321774478,
				"z": -0.1605122287,
				"element": "O" 
			},
			{
				"x": -0.852783012,
				"y": 0.9611000431,
				"z": 2.309911863,
				"element": "C" 
			},
			{
				"x": -1.598201263,
				"y": 1.9787118692,
				"z": 1.7059081772,
				"element": "C" 
			},
			{
				"x": -1.2985578215,
				"y": 2.3842778503,
				"z": 0.4108912845,
				"element": "C" 
			},
			{
				"x": -2.0157152401,
				"y": 3.3772236877,
				"z": -0.1869055911,
				"element": "O" 
			},
			{
				"x": 0.9735281232,
				"y": 2.2021787722,
				"z": -3.2916916393,
				"element": "H" 
			},
			{
				"x": 0.8445899586,
				"y": 0.6126994596,
				"z": -2.4857881614,
				"element": "H" 
			},
			{
				"x": 1.9782175504,
				"y": 1.8423861958,
				"z": -1.8599686858,
				"element": "H" 
			},
			{
				"x": 1.3071851152,
				"y": 0.2594621615,
				"z": -0.2070751037,
				"element": "H" 
			},
			{
				"x": 2.031061385,
				"y": -0.7453984892,
				"z": 1.9793135392,
				"element": "H" 
			},
			{
				"x": 0.9610371112,
				"y": -0.6527059181,
				"z": 3.3741213826,
				"element": "H" 
			},
			{
				"x": -0.6416151114,
				"y": -2.2514475771,
				"z": 2.129851578,
				"element": "H" 
			},
			{
				"x": 0.8845942886,
				"y": -2.932156177,
				"z": 2.6601704677,
				"element": "H" 
			},
			{
				"x": 0.2762102241,
				"y": -4.0000895969,
				"z": -0.6591671531,
				"element": "H" 
			},
			{
				"x": -1.0946332686,
				"y": 0.6596212886,
				"z": 3.3260370729,
				"element": "H" 
			},
			{
				"x": -2.4112446872,
				"y": 2.4710246002,
				"z": 2.229544687,
				"element": "H" 
			},
			{
				"x": -1.6399784509,
				"y": 3.4994442991,
				"z": -1.0723277102,
				"element": "H" 
			}
		],
		 "valence_orbital": [ 
			{
				"type": "occ",
				"energy": -0.3206,
				"method": "rhf"
			},
			{
				"type": "occ",
				"energy": -0.3074,
				"method": "rhf"
			},
			{
				"type": "occ",
				"energy": -0.27892,
				"method": "rhf"
			},
			{
				"type": "occ",
				"energy": -0.2305,
				"method": "rhf"
			},
			{
				"type": "occ",
				"energy": -0.19836,
				"method": "rhf"
			},
			{
				"type": "unocc",
				"energy": 0.0043,
				"method": "rhf"
			},
			{
				"type": "unocc",
				"energy": 0.01367,
				"method": "rhf"
			},
			{
				"type": "unocc",
				"energy": 0.02077,
				"method": "rhf"
			},
			{
				"type": "unocc",
				"energy": 0.07715,
				"method": "rhf"
			},
			{
				"type": "unocc",
				"energy": 0.08421,
				"method": "rhf"
			}
		],
		"cosmo_sigma_profile": { 
			"-0.025": 0.0,
			"-0.024": 0.0,
			"-0.023": 0.0,
			"-0.022": 0.0,
			"-0.021": 0.0,
			"-0.02": 0.0,
			"-0.019": 0.0289679247036,
			"-0.018": 0.610949996167,
			"-0.017": 0.794885700925,
			"-0.016": 1.07636331791,
			"-0.015": 0.847850877289,
			"-0.014": 0.860753124325,
			"-0.013": 1.28676228615,
			"-0.012": 1.28498522146,
			"-0.011": 0.966911112354,
			"-0.01": 1.65329806283,
			"-0.009": 0.638017338727,
			"-0.008": 1.25675448341,
			"-0.007": 3.20681314916,
			"-0.006": 8.68864813089,
			"-0.005": 16.3979703252,
			"-0.004": 22.3817183933,
			"-0.003": 25.3572752406,
			"-0.002": 19.1871011044,
			"-0.001": 15.8565278435,
			"0.0": 10.5895351446,
			"0.001": 10.2174540535,
			"0.002": 14.5135777927,
			"0.003": 14.6421107119,
			"0.004": 12.7415992919,
			"0.005": 14.1637858091,
			"0.006": 10.266464083,
			"0.007": 4.26797160425,
			"0.008": 4.78145991283,
			"0.009": 4.31604109986,
			"0.01": 4.01628838588,
			"0.011": 4.67567528685,
			"0.012": 4.12575086274,
			"0.013": 0.130183466527,
			"0.014": 0.0,
			"0.015": 0.0,
			"0.016": 0.0,
			"0.017": 0.0,
			"0.018": 0.0,
			"0.019": 0.0,
			"0.02": 0.0,
			"0.021": 0.0,
			"0.022": 0.0,
			"0.023": 0.0,
			"0.024": 0.0,
			"0.025": 0.0
		}
	}
}
