{
	 "smiles": "CC1=CC=C(C=C1)N1C(=O)CC2=C(C=CC=C2)C1=O", 
	 "Tm": 447.15, 
	 "num_atms": 32, 
	 "gaussian": { 
		 "optdone": 1, 
		 "sigma_profile": "yes", 
		 "theory": "DFT", 
		 "functional": "B3LYP", 
		 "basiset": "6-31G**", 
		 "properties": { 
			 "R2extent": 6667.7708, 
			 "electric_dipole_moment_norm": 2.35784751203, 
			 "electric_quadrupole_moment_norm": 20.6223611325, 
			 "total_energy": -822.775685157, 
			 "HOMO_LUMO_gap": 0.18286, 
			 "cosmo_polarized_energy": -15.5, 
			 "cosmo_cavitation_energy": 36.23, 
			 "cosmo_dispersion_energy": -25.76, 
			 "cosmo_repulsion_energy": 1.97, 
			 "cosmo_total_nonelectrostatic_energy": 12.44, 
			 "SMD_solvation_energy": 7.25 
		},
		"coords": [
			{
				"x": -1.9952500683,
				"y": 3.6518059783,
				"z": 2.5161448072,
				"element": "C" 
			},
			{
				"x": -1.1976750239,
				"y": 2.5362162254,
				"z": 1.8827809346,
				"element": "C" 
			},
			{
				"x": -1.3954116719,
				"y": 2.1812907548,
				"z": 0.5418588984,
				"element": "C" 
			},
			{
				"x": -0.6848944171,
				"y": 1.1322699039,
				"z": -0.0382052847,
				"element": "C" 
			},
			{
				"x": 0.2440217589,
				"y": 0.4245510256,
				"z": 0.7214805463,
				"element": "C" 
			},
			{
				"x": 0.4613688517,
				"y": 0.7635506606,
				"z": 2.0552087541,
				"element": "C" 
			},
			{
				"x": -0.2570161442,
				"y": 1.8117527812,
				"z": 2.6268273883,
				"element": "C" 
			},
			{
				"x": 0.9873844584,
				"y": -0.6634072425,
				"z": 0.1212327037,
				"element": "N" 
			},
			{
				"x": 0.5529787318,
				"y": -1.9705087882,
				"z": 0.3933979662,
				"element": "C" 
			},
			{
				"x": -0.3967231842,
				"y": -2.1840565834,
				"z": 1.1215401168,
				"element": "O" 
			},
			{
				"x": 1.2931776533,
				"y": -3.1173492467,
				"z": -0.2737785461,
				"element": "C" 
			},
			{
				"x": 2.5250264138,
				"y": -2.7789912745,
				"z": -1.0668841464,
				"element": "C" 
			},
			{
				"x": 2.8926881049,
				"y": -1.4421859453,
				"z": -1.257723785,
				"element": "C" 
			},
			{
				"x": 4.0325964945,
				"y": -1.1179201539,
				"z": -2.0090476125,
				"element": "C" 
			},
			{
				"x": 4.807423311,
				"y": -2.1255422213,
				"z": -2.5693867474,
				"element": "C" 
			},
			{
				"x": 4.445123929,
				"y": -3.4645056898,
				"z": -2.3801925941,
				"element": "C" 
			},
			{
				"x": 3.3131384439,
				"y": -3.7868505804,
				"z": -1.6352209514,
				"element": "C" 
			},
			{
				"x": 2.1066623982,
				"y": -0.3224769685,
				"z": -0.6738497294,
				"element": "C" 
			},
			{
				"x": 2.4011465226,
				"y": 0.8470294221,
				"z": -0.8514937638,
				"element": "O" 
			},
			{
				"x": -2.2733908027,
				"y": 4.4127213843,
				"z": 1.7808190877,
				"element": "H" 
			},
			{
				"x": -1.4321576469,
				"y": 4.1426496953,
				"z": 3.3155773889,
				"element": "H" 
			},
			{
				"x": -2.9244385609,
				"y": 3.2712816097,
				"z": 2.9586884945,
				"element": "H" 
			},
			{
				"x": -2.1140601993,
				"y": 2.7337268194,
				"z": -0.0579730763,
				"element": "H" 
			},
			{
				"x": -0.8428683395,
				"y": 0.8672185668,
				"z": -1.0787233988,
				"element": "H" 
			},
			{
				"x": 1.1889797124,
				"y": 0.2096274164,
				"z": 2.6396272052,
				"element": "H" 
			},
			{
				"x": -0.0821402135,
				"y": 2.0720467003,
				"z": 3.6675557286,
				"element": "H" 
			},
			{
				"x": 1.5202767578,
				"y": -3.8376826042,
				"z": 0.520533139,
				"element": "H" 
			},
			{
				"x": 0.5525675875,
				"y": -3.618535417,
				"z": -0.9111261179,
				"element": "H" 
			},
			{
				"x": 4.2825841981,
				"y": -0.0699557004,
				"z": -2.1326413421,
				"element": "H" 
			},
			{
				"x": 5.6900589865,
				"y": -1.875701531,
				"z": -3.1501106494,
				"element": "H" 
			},
			{
				"x": 5.0476549119,
				"y": -4.2572317075,
				"z": -2.8144084108,
				"element": "H" 
			},
			{
				"x": 3.0358670462,
				"y": -4.8281372896,
				"z": -1.491507003,
				"element": "H" 
			}
		],
		 "valence_orbital": [ 
			{
				"type": "occ",
				"energy": -0.26658,
				"method": "rhf"
			},
			{
				"type": "occ",
				"energy": -0.26119,
				"method": "rhf"
			},
			{
				"type": "occ",
				"energy": -0.25786,
				"method": "rhf"
			},
			{
				"type": "occ",
				"energy": -0.2483,
				"method": "rhf"
			},
			{
				"type": "occ",
				"energy": -0.23766,
				"method": "rhf"
			},
			{
				"type": "unocc",
				"energy": -0.0548,
				"method": "rhf"
			},
			{
				"type": "unocc",
				"energy": -0.02031,
				"method": "rhf"
			},
			{
				"type": "unocc",
				"energy": -0.00512,
				"method": "rhf"
			},
			{
				"type": "unocc",
				"energy": -0.00064,
				"method": "rhf"
			},
			{
				"type": "unocc",
				"energy": 0.00209,
				"method": "rhf"
			}
		],
		"cosmo_sigma_profile": { 
			"-0.025": 0.0,
			"-0.024": 0.0,
			"-0.023": 0.0,
			"-0.022": 0.0,
			"-0.021": 0.0,
			"-0.02": 0.0,
			"-0.019": 0.0,
			"-0.018": 0.0,
			"-0.017": 0.0,
			"-0.016": 0.0,
			"-0.015": 0.0,
			"-0.014": 0.0,
			"-0.013": 0.0,
			"-0.012": 0.0,
			"-0.011": 0.0,
			"-0.01": 0.0,
			"-0.009": 0.0,
			"-0.008": 2.58561586755,
			"-0.007": 10.6824749856,
			"-0.006": 22.2943530348,
			"-0.005": 27.5423463708,
			"-0.004": 28.8807236693,
			"-0.003": 21.5761937,
			"-0.002": 19.7472196891,
			"-0.001": 18.3739988966,
			"0.0": 21.6553962252,
			"0.001": 16.1885540441,
			"0.002": 17.0820550435,
			"0.003": 17.8599348735,
			"0.004": 15.2921888897,
			"0.005": 9.2231413904,
			"0.006": 5.67367022029,
			"0.007": 3.84882114134,
			"0.008": 3.92128448851,
			"0.009": 3.58957952597,
			"0.01": 4.42967101342,
			"0.011": 6.87480599762,
			"0.012": 9.54119195352,
			"0.013": 2.75147319982,
			"0.014": 0.0267902773006,
			"0.015": 0.0,
			"0.016": 0.0,
			"0.017": 0.0,
			"0.018": 0.0,
			"0.019": 0.0,
			"0.02": 0.0,
			"0.021": 0.0,
			"0.022": 0.0,
			"0.023": 0.0,
			"0.024": 0.0,
			"0.0": 0.0
		}
	}
}
