{
	 "smiles": "OC(=O)CCCC1=CC2=C(C=CC=C2)C=C1", 
	 "Tm": 365.15, 
	 "num_atms": 30, 
	 "gaussian": { 
		 "optdone": 1, 
		 "sigma_profile": "yes", 
		 "theory": "DFT", 
		 "functional": "B3LYP", 
		 "basiset": "6-31G**", 
		 "properties": { 
			 "R2extent": 4931.9368, 
			 "electric_dipole_moment_norm": 1.2945552943, 
			 "electric_quadrupole_moment_norm": 10.2074851031, 
			 "total_energy": -692.415548108, 
			 "HOMO_LUMO_gap": 0.17659, 
			 "cosmo_polarized_energy": -10.99, 
			 "cosmo_cavitation_energy": 33.58, 
			 "cosmo_dispersion_energy": -23.62, 
			 "cosmo_repulsion_energy": 1.84, 
			 "cosmo_total_nonelectrostatic_energy": 11.81, 
			 "SMD_solvation_energy": 6.12 
		},
		"coords": [
			{
				"x": 2.9911442032,
				"y": 2.1707106819,
				"z": 0.347016005,
				"element": "O" 
			},
			{
				"x": 3.3003908006,
				"y": 0.8826791843,
				"z": 0.0575317561,
				"element": "C" 
			},
			{
				"x": 4.0524509316,
				"y": 0.5870391373,
				"z": -0.84696911,
				"element": "O" 
			},
			{
				"x": 2.6076487161,
				"y": -0.0778427207,
				"z": 1.0001034903,
				"element": "C" 
			},
			{
				"x": 2.8658395493,
				"y": -1.5517810695,
				"z": 0.6748918812,
				"element": "C" 
			},
			{
				"x": 2.1837204357,
				"y": -2.048434048,
				"z": -0.6200747123,
				"element": "C" 
			},
			{
				"x": 0.6713654749,
				"y": -2.001785115,
				"z": -0.5749901239,
				"element": "C" 
			},
			{
				"x": -0.0464190379,
				"y": -1.0689028921,
				"z": -1.2973104834,
				"element": "C" 
			},
			{
				"x": -1.4660538987,
				"y": -1.0083313714,
				"z": -1.2467131665,
				"element": "C" 
			},
			{
				"x": -2.1709514689,
				"y": -1.9434345718,
				"z": -0.4220554887,
				"element": "C" 
			},
			{
				"x": -3.5891611929,
				"y": -1.8849698632,
				"z": -0.3709944645,
				"element": "C" 
			},
			{
				"x": -4.2828272874,
				"y": -0.9449686496,
				"z": -1.1004481266,
				"element": "C" 
			},
			{
				"x": -3.5865931145,
				"y": -0.019831859,
				"z": -1.9166247741,
				"element": "C" 
			},
			{
				"x": -2.2115440569,
				"y": -0.052031045,
				"z": -1.9876747862,
				"element": "C" 
			},
			{
				"x": -1.4177667804,
				"y": -2.8998732187,
				"z": 0.31207146,
				"element": "C" 
			},
			{
				"x": -0.0454112151,
				"y": -2.9269113816,
				"z": 0.2377305853,
				"element": "C" 
			},
			{
				"x": 3.4825077545,
				"y": 2.7148070144,
				"z": -0.2912142972,
				"element": "H" 
			},
			{
				"x": 2.9524700542,
				"y": 0.165311641,
				"z": 2.0129662378,
				"element": "H" 
			},
			{
				"x": 1.5360999361,
				"y": 0.1533459574,
				"z": 0.9900871688,
				"element": "H" 
			},
			{
				"x": 2.5212827899,
				"y": -2.1561045058,
				"z": 1.5222435912,
				"element": "H" 
			},
			{
				"x": 3.9451174636,
				"y": -1.7133800186,
				"z": 0.5841888441,
				"element": "H" 
			},
			{
				"x": 2.5085033463,
				"y": -3.0816249174,
				"z": -0.7977500141,
				"element": "H" 
			},
			{
				"x": 2.552456775,
				"y": -1.4548844664,
				"z": -1.4615398557,
				"element": "H" 
			},
			{
				"x": 0.4794884607,
				"y": -0.3594927654,
				"z": -1.9332069606,
				"element": "H" 
			},
			{
				"x": -4.1199422291,
				"y": -2.5973996374,
				"z": 0.2557481996,
				"element": "H" 
			},
			{
				"x": -5.3674289958,
				"y": -0.9096580865,
				"z": -1.0531182704,
				"element": "H" 
			},
			{
				"x": -4.1438364629,
				"y": 0.7168130536,
				"z": -2.4883313124,
				"element": "H" 
			},
			{
				"x": -1.6760711448,
				"y": 0.6569227399,
				"z": -2.6142719496,
				"element": "H" 
			},
			{
				"x": -1.9474495768,
				"y": -3.6180505484,
				"z": 0.9333088447,
				"element": "H" 
			},
			{
				"x": 0.5098697704,
				"y": -3.6729366583,
				"z": 0.801599832,
				"element": "H" 
			}
		],
		 "valence_orbital": [ 
			{
				"type": "occ",
				"energy": -0.31468,
				"method": "rhf"
			},
			{
				"type": "occ",
				"energy": -0.28069,
				"method": "rhf"
			},
			{
				"type": "occ",
				"energy": -0.27454,
				"method": "rhf"
			},
			{
				"type": "occ",
				"energy": -0.23657,
				"method": "rhf"
			},
			{
				"type": "occ",
				"energy": -0.21215,
				"method": "rhf"
			},
			{
				"type": "unocc",
				"energy": -0.03556,
				"method": "rhf"
			},
			{
				"type": "unocc",
				"energy": -0.00752,
				"method": "rhf"
			},
			{
				"type": "unocc",
				"energy": 0.0097,
				"method": "rhf"
			},
			{
				"type": "unocc",
				"energy": 0.03479,
				"method": "rhf"
			},
			{
				"type": "unocc",
				"energy": 0.07943,
				"method": "rhf"
			}
		],
		"cosmo_sigma_profile": { 
			"-0.025": 0.0,
			"-0.024": 0.0,
			"-0.023": 0.0,
			"-0.022": 0.0,
			"-0.021": 0.0,
			"-0.02": 0.0,
			"-0.019": 0.0,
			"-0.018": 0.411495531993,
			"-0.017": 0.92012393249,
			"-0.016": 1.04101554972,
			"-0.015": 0.813738614096,
			"-0.014": 0.724072824438,
			"-0.013": 0.268887439428,
			"-0.012": 0.361166254265,
			"-0.011": 1.03628099819,
			"-0.01": 0.980675165739,
			"-0.009": 0.944420517201,
			"-0.008": 0.348800715213,
			"-0.007": 0.650422238457,
			"-0.006": 8.36156102592,
			"-0.005": 20.7121481339,
			"-0.004": 24.2585591515,
			"-0.003": 29.5559670367,
			"-0.002": 24.3299642142,
			"-0.001": 21.9440906249,
			"0.0": 16.5514325064,
			"0.001": 13.5707791894,
			"0.002": 13.3046420978,
			"0.003": 14.1456996978,
			"0.004": 21.1818591758,
			"0.005": 23.2793387974,
			"0.006": 7.20973423201,
			"0.007": 2.27296068088,
			"0.008": 2.89867493115,
			"0.009": 3.0474388572,
			"0.01": 3.08167237204,
			"0.011": 2.97184292628,
			"0.012": 4.22896514006,
			"0.013": 0.46453716723,
			"0.014": 0.0,
			"0.015": 0.0,
			"0.016": 0.0,
			"0.017": 0.0,
			"0.018": 0.0,
			"0.019": 0.0,
			"0.02": 0.0,
			"0.021": 0.0,
			"0.022": 0.0,
			"0.023": 0.0,
			"0.024": 0.0,
			"0.025": 0.0
		}
	}
}
