{
	 "smiles": "CCOC1=NN=C(C=C1)N1N=CC(C(O)=O)=C1C", 
	 "Tm": 501.15, 
	 "num_atms": 30, 
	 "gaussian": { 
		 "optdone": 1, 
		 "sigma_profile": "yes", 
		 "theory": "DFT", 
		 "functional": "B3LYP", 
		 "basiset": "6-31G**", 
		 "properties": { 
			 "R2extent": 7223.5382, 
			 "electric_dipole_moment_norm": 6.54670893045, 
			 "electric_quadrupole_moment_norm": 20.0163891936, 
			 "total_energy": -871.037115512, 
			 "HOMO_LUMO_gap": 0.17981, 
			 "cosmo_polarized_energy": -18.19, 
			 "cosmo_cavitation_energy": 35.06, 
			 "cosmo_dispersion_energy": -25.73, 
			 "cosmo_repulsion_energy": 1.99, 
			 "cosmo_total_nonelectrostatic_energy": 11.32, 
			 "SMD_solvation_energy": 5.9 
		},
		"coords": [
			{
				"x": 2.3518162581,
				"y": -4.9420386556,
				"z": -2.5776399067,
				"element": "C" 
			},
			{
				"x": 2.0304025833,
				"y": -3.5317602323,
				"z": -2.1211815949,
				"element": "C" 
			},
			{
				"x": 1.5375572936,
				"y": -3.6277379094,
				"z": -0.7655023595,
				"element": "O" 
			},
			{
				"x": 1.1855672878,
				"y": -2.4908181124,
				"z": -0.1452072371,
				"element": "C" 
			},
			{
				"x": 1.2975200088,
				"y": -1.3324307232,
				"z": -0.783966597,
				"element": "N" 
			},
			{
				"x": 0.9550938246,
				"y": -0.1989767061,
				"z": -0.1572120666,
				"element": "N" 
			},
			{
				"x": 0.4876832932,
				"y": -0.2449630232,
				"z": 1.0787204399,
				"element": "C" 
			},
			{
				"x": 0.3398684035,
				"y": -1.4431745965,
				"z": 1.8147486841,
				"element": "C" 
			},
			{
				"x": 0.7060086904,
				"y": -2.6015797226,
				"z": 1.1811019478,
				"element": "C" 
			},
			{
				"x": 0.1359443558,
				"y": 0.9898018791,
				"z": 1.6790995865,
				"element": "N" 
			},
			{
				"x": -0.00511661,
				"y": 1.01249858,
				"z": 3.0427867635,
				"element": "N" 
			},
			{
				"x": -0.3255209533,
				"y": 2.2574817618,
				"z": 3.3280885401,
				"element": "C" 
			},
			{
				"x": -0.3801120834,
				"y": 3.0723525418,
				"z": 2.1672217172,
				"element": "C" 
			},
			{
				"x": -0.7390879271,
				"y": 4.505646782,
				"z": 2.2054849733,
				"element": "C" 
			},
			{
				"x": -0.3364451716,
				"y": 5.2804534419,
				"z": 1.1553560217,
				"element": "O" 
			},
			{
				"x": -1.3524410657,
				"y": 5.0056541892,
				"z": 3.1194699899,
				"element": "O" 
			},
			{
				"x": -0.0910330319,
				"y": 2.2177357671,
				"z": 1.1032886074,
				"element": "C" 
			},
			{
				"x": -0.1017453278,
				"y": 2.4758448166,
				"z": -0.3722194859,
				"element": "C" 
			},
			{
				"x": 3.1144920977,
				"y": -5.3958458435,
				"z": -1.9384173221,
				"element": "H" 
			},
			{
				"x": 1.459667513,
				"y": -5.5742650415,
				"z": -2.5529023133,
				"element": "H" 
			},
			{
				"x": 2.730608002,
				"y": -4.9202137307,
				"z": -3.6040153208,
				"element": "H" 
			},
			{
				"x": 1.2660386894,
				"y": -3.0594618965,
				"z": -2.7468137721,
				"element": "H" 
			},
			{
				"x": 2.9114359049,
				"y": -2.8819915713,
				"z": -2.1358595262,
				"element": "H" 
			},
			{
				"x": -0.0394227216,
				"y": -1.4152933935,
				"z": 2.8277438327,
				"element": "H" 
			},
			{
				"x": 0.6349056315,
				"y": -3.5757293372,
				"z": 1.6516853607,
				"element": "H" 
			},
			{
				"x": -0.5016024163,
				"y": 2.5657573169,
				"z": 4.3491796502,
				"element": "H" 
			},
			{
				"x": 0.3020340101,
				"y": 4.798205973,
				"z": 0.6127508092,
				"element": "H" 
			},
			{
				"x": -0.6326654316,
				"y": 1.6857104161,
				"z": -0.9064562949,
				"element": "H" 
			},
			{
				"x": 0.9082653447,
				"y": 2.4970477719,
				"z": -0.792366691,
				"element": "H" 
			},
			{
				"x": -0.605916452,
				"y": 3.4237892583,
				"z": -0.5744664361,
				"element": "H" 
			}
		],
		 "valence_orbital": [ 
			{
				"type": "occ",
				"energy": -0.29438,
				"method": "rhf"
			},
			{
				"type": "occ",
				"energy": -0.27213,
				"method": "rhf"
			},
			{
				"type": "occ",
				"energy": -0.26186,
				"method": "rhf"
			},
			{
				"type": "occ",
				"energy": -0.25319,
				"method": "rhf"
			},
			{
				"type": "occ",
				"energy": -0.24416,
				"method": "rhf"
			},
			{
				"type": "unocc",
				"energy": -0.06435,
				"method": "rhf"
			},
			{
				"type": "unocc",
				"energy": -0.04693,
				"method": "rhf"
			},
			{
				"type": "unocc",
				"energy": -0.00951,
				"method": "rhf"
			},
			{
				"type": "unocc",
				"energy": 0.0191,
				"method": "rhf"
			},
			{
				"type": "unocc",
				"energy": 0.06407,
				"method": "rhf"
			}
		],
		"cosmo_sigma_profile": { 
			"-0.025": 0.0,
			"-0.024": 0.0,
			"-0.023": 0.0,
			"-0.022": 0.0,
			"-0.021": 0.0,
			"-0.02": 0.0,
			"-0.019": 0.0,
			"-0.018": 0.2223807886,
			"-0.017": 0.661914034848,
			"-0.016": 0.950448345637,
			"-0.015": 0.765266987552,
			"-0.014": 0.773503120445,
			"-0.013": 0.859990579552,
			"-0.012": 1.61158010046,
			"-0.011": 0.986975545644,
			"-0.01": 0.691139369926,
			"-0.009": 3.37468476508,
			"-0.008": 5.51822533301,
			"-0.007": 6.39111982778,
			"-0.006": 9.39033620472,
			"-0.005": 14.5196315051,
			"-0.004": 23.19868424,
			"-0.003": 28.904878129,
			"-0.002": 30.8444963549,
			"-0.001": 26.7078799247,
			"0.0": 23.5301517222,
			"0.001": 13.7092419974,
			"0.002": 10.2357118177,
			"0.003": 8.72425612132,
			"0.004": 6.39258696503,
			"0.005": 8.22338344981,
			"0.006": 8.04778923235,
			"0.007": 6.34185744434,
			"0.008": 6.53718679061,
			"0.009": 6.0167480276,
			"0.01": 7.94438503541,
			"0.011": 6.91781570531,
			"0.012": 7.3816971994,
			"0.013": 2.91044432669,
			"0.014": 0.667920898834,
			"0.015": 0.0,
			"0.016": 0.0,
			"0.017": 0.0,
			"0.018": 0.0,
			"0.019": 0.0,
			"0.02": 0.0,
			"0.021": 0.0,
			"0.022": 0.0,
			"0.023": 0.0,
			"0.024": 0.0,
			"0.025": 0.0
		}
	}
}
