{
	 "smiles": "NS(=O)(=O)C1=CC=C(C=C1)S(=O)(=O)CCO", 
	 "Tm": 438.15, 
	 "num_atms": 27, 
	 "gaussian": { 
		 "optdone": 1, 
		 "sigma_profile": "yes", 
		 "theory": "DFT", 
		 "functional": "B3LYP", 
		 "basiset": "6-31G**", 
		 "properties": { 
			 "R2extent": 6191.6703, 
			 "electric_dipole_moment_norm": 7.43214092506, 
			 "electric_quadrupole_moment_norm": 5.90302971956, 
			 "total_energy": -1538.57728349, 
			 "HOMO_LUMO_gap": 0.21442, 
			 "cosmo_polarized_energy": -28.67, 
			 "cosmo_cavitation_energy": 33.75, 
			 "cosmo_dispersion_energy": -25.09, 
			 "cosmo_repulsion_energy": 1.89, 
			 "cosmo_total_nonelectrostatic_energy": 10.54, 
			 "SMD_solvation_energy": 4.77 
		},
		"coords": [
			{
				"x": 2.4633260284,
				"y": -2.9051886256,
				"z": 1.4681044219,
				"element": "N" 
			},
			{
				"x": 1.0803636832,
				"y": -3.7350163385,
				"z": 0.9465801289,
				"element": "S" 
			},
			{
				"x": 0.4434545215,
				"y": -4.3036973618,
				"z": 2.136608817,
				"element": "O" 
			},
			{
				"x": 1.472687959,
				"y": -4.5485183971,
				"z": -0.2067814605,
				"element": "O" 
			},
			{
				"x": 0.0216306774,
				"y": -2.4132990693,
				"z": 0.3427339219,
				"element": "C" 
			},
			{
				"x": -0.8466455565,
				"y": -1.7785626556,
				"z": 1.2336505413,
				"element": "C" 
			},
			{
				"x": -1.6607962559,
				"y": -0.7473084245,
				"z": 0.7692134145,
				"element": "C" 
			},
			{
				"x": -1.5870064616,
				"y": -0.3818319064,
				"z": -0.5763445834,
				"element": "C" 
			},
			{
				"x": -0.7407855847,
				"y": -1.0359639738,
				"z": -1.4731231838,
				"element": "C" 
			},
			{
				"x": 0.0772122752,
				"y": -2.0653031898,
				"z": -1.0072136208,
				"element": "C" 
			},
			{
				"x": -2.6620553946,
				"y": 0.9280913569,
				"z": -1.2056529882,
				"element": "S" 
			},
			{
				"x": -3.8723223178,
				"y": 0.9653004199,
				"z": -0.3698723508,
				"element": "O" 
			},
			{
				"x": -2.7407276243,
				"y": 0.7492813069,
				"z": -2.6651285302,
				"element": "O" 
			},
			{
				"x": -1.7584709531,
				"y": 2.4983242443,
				"z": -0.9418230495,
				"element": "C" 
			},
			{
				"x": -1.8332486167,
				"y": 3.0462713985,
				"z": 0.4814390222,
				"element": "C" 
			},
			{
				"x": -1.1649324112,
				"y": 2.2452871536,
				"z": 1.4406338913,
				"element": "O" 
			},
			{
				"x": 2.5951936566,
				"y": -3.0658577387,
				"z": 2.4635159647,
				"element": "H" 
			},
			{
				"x": 3.2670979078,
				"y": -3.2227626545,
				"z": 0.9322988863,
				"element": "H" 
			},
			{
				"x": -0.8953062572,
				"y": -2.1031517624,
				"z": 2.2670442567,
				"element": "H" 
			},
			{
				"x": -2.3457725591,
				"y": -0.2348605022,
				"z": 1.4332237692,
				"element": "H" 
			},
			{
				"x": -0.7480481969,
				"y": -0.7573285769,
				"z": -2.5212343804,
				"element": "H" 
			},
			{
				"x": 0.7308047088,
				"y": -2.6087824652,
				"z": -1.6802631807,
				"element": "H" 
			},
			{
				"x": -0.731855898,
				"y": 2.3385071424,
				"z": -1.2876145956,
				"element": "H" 
			},
			{
				"x": -2.2497441029,
				"y": 3.178037286,
				"z": -1.646339006,
				"element": "H" 
			},
			{
				"x": -2.8796010681,
				"y": 3.0838523819,
				"z": 0.7942866838,
				"element": "H" 
			},
			{
				"x": -1.4481897768,
				"y": 4.0775137037,
				"z": 0.4708810624,
				"element": "H" 
			},
			{
				"x": -0.2156623825,
				"y": 2.2775672483,
				"z": 1.2637761477,
				"element": "H" 
			}
		],
		 "valence_orbital": [ 
			{
				"type": "occ",
				"energy": -0.30672,
				"method": "rhf"
			},
			{
				"type": "occ",
				"energy": -0.30237,
				"method": "rhf"
			},
			{
				"type": "occ",
				"energy": -0.28989,
				"method": "rhf"
			},
			{
				"type": "occ",
				"energy": -0.28365,
				"method": "rhf"
			},
			{
				"type": "occ",
				"energy": -0.28076,
				"method": "rhf"
			},
			{
				"type": "unocc",
				"energy": -0.06634,
				"method": "rhf"
			},
			{
				"type": "unocc",
				"energy": -0.03622,
				"method": "rhf"
			},
			{
				"type": "unocc",
				"energy": 0.03962,
				"method": "rhf"
			},
			{
				"type": "unocc",
				"energy": 0.04417,
				"method": "rhf"
			},
			{
				"type": "unocc",
				"energy": 0.05141,
				"method": "rhf"
			}
		],
		"cosmo_sigma_profile": { 
			"-0.025": 0.0,
			"-0.024": 0.0,
			"-0.023": 0.0,
			"-0.022": 0.0,
			"-0.021": 0.0,
			"-0.02": 0.0,
			"-0.019": 0.0,
			"-0.018": 0.0,
			"-0.017": 0.180705525661,
			"-0.016": 1.03749342631,
			"-0.015": 2.70543030908,
			"-0.014": 3.25015033352,
			"-0.013": 3.85995452698,
			"-0.012": 3.84568016719,
			"-0.011": 3.63236073429,
			"-0.01": 2.48967869069,
			"-0.009": 6.65835648724,
			"-0.008": 11.9997692649,
			"-0.007": 13.0998441489,
			"-0.006": 16.4963060245,
			"-0.005": 15.77455587,
			"-0.004": 11.4013072387,
			"-0.003": 12.5930908369,
			"-0.002": 10.2838761595,
			"-0.001": 11.7746436283,
			"0.0": 16.7869514662,
			"0.001": 16.3273281828,
			"0.002": 8.81043914847,
			"0.003": 8.33105373587,
			"0.004": 6.65896756591,
			"0.005": 7.93427064593,
			"0.006": 5.91379531411,
			"0.007": 7.41687243943,
			"0.008": 7.58175852638,
			"0.009": 9.08589270378,
			"0.01": 15.2974692758,
			"0.011": 16.8542529587,
			"0.012": 8.17838212304,
			"0.013": 0.950014744472,
			"0.014": 0.457763790476,
			"0.015": 0.0,
			"0.016": 0.0,
			"0.017": 0.0,
			"0.018": 0.0,
			"0.019": 0.0,
			"0.02": 0.0,
			"0.021": 0.0,
			"0.022": 0.0,
			"0.023": 0.0,
			"0.024": 0.0,
			"0.025": 0.0
		}
	}
}
