{
	 "smiles": "CC1=CC=C(C=C1)C(N)C1=CC(=CC=C1)S(C)(=O)=O", 
	 "Tm": 347.15, 
	 "num_atms": 36, 
	 "gaussian": { 
		 "optdone": 1, 
		 "sigma_profile": "yes", 
		 "theory": "DFT", 
		 "functional": "B3LYP", 
		 "basiset": "6-31G**", 
		 "properties": { 
			 "R2extent": 6799.0256, 
			 "electric_dipole_moment_norm": 4.53300592874, 
			 "electric_quadrupole_moment_norm": 28.7517152153, 
			 "total_energy": -1185.1723434, 
			 "HOMO_LUMO_gap": 0.19373, 
			 "cosmo_polarized_energy": -19.15, 
			 "cosmo_cavitation_energy": 40.64, 
			 "cosmo_dispersion_energy": -28.1, 
			 "cosmo_repulsion_energy": 2.16, 
			 "cosmo_total_nonelectrostatic_energy": 14.7, 
			 "SMD_solvation_energy": 5.75 
		},
		"coords": [
			{
				"x": 1.9614013529,
				"y": -1.7954529198,
				"z": 4.4218518899,
				"element": "C" 
			},
			{
				"x": 1.6503939578,
				"y": -0.7729903572,
				"z": 3.3543270388,
				"element": "C" 
			},
			{
				"x": 2.664370438,
				"y": -0.0236106841,
				"z": 2.7477401494,
				"element": "C" 
			},
			{
				"x": 2.3819087914,
				"y": 0.9026173121,
				"z": 1.7421576643,
				"element": "C" 
			},
			{
				"x": 1.0686653366,
				"y": 1.1034313897,
				"z": 1.3032139262,
				"element": "C" 
			},
			{
				"x": 0.0477960283,
				"y": 0.3604574869,
				"z": 1.9137967231,
				"element": "C" 
			},
			{
				"x": 0.3343236456,
				"y": -0.5568998444,
				"z": 2.9222472722,
				"element": "C" 
			},
			{
				"x": 0.74394578,
				"y": 2.1516784677,
				"z": 0.2366063876,
				"element": "C" 
			},
			{
				"x": 1.9630797657,
				"y": 2.5553495361,
				"z": -0.4821678365,
				"element": "N" 
			},
			{
				"x": -0.3835949598,
				"y": 1.7172526931,
				"z": -0.7031064708,
				"element": "C" 
			},
			{
				"x": -0.2739022003,
				"y": 0.5352378966,
				"z": -1.4495497417,
				"element": "C" 
			},
			{
				"x": -1.2755054475,
				"y": 0.191020035,
				"z": -2.353651752,
				"element": "C" 
			},
			{
				"x": -2.3989107543,
				"y": 0.9984797903,
				"z": -2.5520897414,
				"element": "C" 
			},
			{
				"x": -2.5121942489,
				"y": 2.1703188856,
				"z": -1.8071174888,
				"element": "C" 
			},
			{
				"x": -1.5148859482,
				"y": 2.5202429391,
				"z": -0.8915650211,
				"element": "C" 
			},
			{
				"x": -1.1113088264,
				"y": -1.334277288,
				"z": -3.2989953041,
				"element": "S" 
			},
			{
				"x": -1.840061319,
				"y": -2.5859259898,
				"z": -2.2146094214,
				"element": "C" 
			},
			{
				"x": -1.9705848061,
				"y": -1.2238237911,
				"z": -4.4884306581,
				"element": "O" 
			},
			{
				"x": 0.3229256251,
				"y": -1.6398609391,
				"z": -3.4216358503,
				"element": "O" 
			},
			{
				"x": 1.175644644,
				"y": -1.8323016627,
				"z": 5.1831627966,
				"element": "H" 
			},
			{
				"x": 2.9082930386,
				"y": -1.5747033025,
				"z": 4.9232138449,
				"element": "H" 
			},
			{
				"x": 2.0456082046,
				"y": -2.8031024622,
				"z": 3.9953840779,
				"element": "H" 
			},
			{
				"x": 3.6943691955,
				"y": -0.1613655692,
				"z": 3.068627549,
				"element": "H" 
			},
			{
				"x": 3.1794184615,
				"y": 1.4881989764,
				"z": 1.2984867633,
				"element": "H" 
			},
			{
				"x": -0.983170609,
				"y": 0.5019782164,
				"z": 1.6013254262,
				"element": "H" 
			},
			{
				"x": -0.4780504142,
				"y": -1.1154670975,
				"z": 3.3818221378,
				"element": "H" 
			},
			{
				"x": 0.3930039101,
				"y": 3.0533752373,
				"z": 0.7582280244,
				"element": "H" 
			},
			{
				"x": 1.7369203681,
				"y": 3.2994022044,
				"z": -1.1377303787,
				"element": "H" 
			},
			{
				"x": 2.3074376925,
				"y": 1.7764944733,
				"z": -1.041240688,
				"element": "H" 
			},
			{
				"x": 0.5912489258,
				"y": -0.1118121267,
				"z": -1.3378023826,
				"element": "H" 
			},
			{
				"x": -3.1453428211,
				"y": 0.7151205569,
				"z": -3.2861573064,
				"element": "H" 
			},
			{
				"x": -3.3740733391,
				"y": 2.8169226037,
				"z": -1.9427926234,
				"element": "H" 
			},
			{
				"x": -1.614281303,
				"y": 3.4386378521,
				"z": -0.3176175639,
				"element": "H" 
			},
			{
				"x": -1.7579496264,
				"y": -3.5358972911,
				"z": -2.7468288276,
				"element": "H" 
			},
			{
				"x": -1.2776008576,
				"y": -2.623034516,
				"z": -1.2806914099,
				"element": "H" 
			},
			{
				"x": -2.8875376813,
				"y": -2.3394907113,
				"z": -2.0357112049,
				"element": "H" 
			}
		],
		 "valence_orbital": [ 
			{
				"type": "occ",
				"energy": -0.27987,
				"method": "rhf"
			},
			{
				"type": "occ",
				"energy": -0.27552,
				"method": "rhf"
			},
			{
				"type": "occ",
				"energy": -0.24819,
				"method": "rhf"
			},
			{
				"type": "occ",
				"energy": -0.24294,
				"method": "rhf"
			},
			{
				"type": "occ",
				"energy": -0.23495,
				"method": "rhf"
			},
			{
				"type": "unocc",
				"energy": -0.04122,
				"method": "rhf"
			},
			{
				"type": "unocc",
				"energy": -0.02675,
				"method": "rhf"
			},
			{
				"type": "unocc",
				"energy": -0.00333,
				"method": "rhf"
			},
			{
				"type": "unocc",
				"energy": 0.00077,
				"method": "rhf"
			},
			{
				"type": "unocc",
				"energy": 0.06718,
				"method": "rhf"
			}
		],
		"cosmo_sigma_profile": { 
			"-0.025": 0.0,
			"-0.024": 0.0,
			"-0.023": 0.0,
			"-0.022": 0.0,
			"-0.021": 0.0,
			"-0.02": 0.0,
			"-0.019": 0.0,
			"-0.018": 0.0,
			"-0.017": 0.0,
			"-0.016": 0.0,
			"-0.015": 0.0,
			"-0.014": 0.0,
			"-0.013": 0.0,
			"-0.012": 0.0,
			"-0.011": 0.102636588348,
			"-0.01": 1.83106677239,
			"-0.009": 4.99142078932,
			"-0.008": 8.80550073499,
			"-0.007": 12.5764559288,
			"-0.006": 19.0390603628,
			"-0.005": 21.9007235291,
			"-0.004": 27.9866380308,
			"-0.003": 27.8925615598,
			"-0.002": 21.5671047335,
			"-0.001": 20.4588636511,
			"0.0": 23.0523958763,
			"0.001": 21.1018507042,
			"0.002": 18.5993648609,
			"0.003": 18.3058091131,
			"0.004": 11.2511791081,
			"0.005": 9.94774591413,
			"0.006": 10.5669067333,
			"0.007": 5.82645700207,
			"0.008": 4.54545145123,
			"0.009": 3.5243692152,
			"0.01": 4.93039001382,
			"0.011": 9.21635764399,
			"0.012": 10.1269581024,
			"0.013": 2.11331268949,
			"0.014": 0.465081822944,
			"0.015": 0.493308372388,
			"0.016": 0.374948042535,
			"0.017": 0.276746235926,
			"0.018": 0.0,
			"0.019": 0.0,
			"0.02": 0.0,
			"0.021": 0.0,
			"0.022": 0.0,
			"0.023": 0.0,
			"0.024": 0.0,
			"0.025": 0.0
		}
	}
}
