{
	 "smiles": "NC1=C(Br)C=C(C=N1)C(F)(F)F", 
	 "Tm": 373.15, 
	 "num_atms": 16, 
	 "gaussian": { 
		 "optdone": 1, 
		 "sigma_profile": "yes", 
		 "theory": "DFT", 
		 "functional": "B3LYP", 
		 "basiset": "6-31G**", 
		 "properties": { 
			 "R2extent": 3848.3726, 
			 "electric_dipole_moment_norm": 3.00987562035, 
			 "electric_quadrupole_moment_norm": 7.80755552462, 
			 "total_energy": -3211.4898162, 
			 "HOMO_LUMO_gap": 0.19238, 
			 "cosmo_polarized_energy": -7.39, 
			 "cosmo_cavitation_energy": 24.31, 
			 "cosmo_dispersion_energy": -18.08, 
			 "cosmo_repulsion_energy": 1.39, 
			 "cosmo_total_nonelectrostatic_energy": 7.61, 
			 "SMD_solvation_energy": 2.88 
		},
		"coords": [
			{
				"x": 1.6077624195,
				"y": -3.0110555805,
				"z": -1.8759590414,
				"element": "N" 
			},
			{
				"x": 1.1024134266,
				"y": -1.7956080203,
				"z": -1.533828334,
				"element": "C" 
			},
			{
				"x": 1.7035775348,
				"y": -0.9697290126,
				"z": -0.5495332758,
				"element": "C" 
			},
			{
				"x": 3.3099614775,
				"y": -1.5327253888,
				"z": 0.3210910788,
				"element": "Br" 
			},
			{
				"x": 1.1246888787,
				"y": 0.2393610392,
				"z": -0.222624911,
				"element": "C" 
			},
			{
				"x": -0.0534933557,
				"y": 0.6236203715,
				"z": -0.8764959587,
				"element": "C" 
			},
			{
				"x": -0.5793961363,
				"y": -0.2434742883,
				"z": -1.8332136353,
				"element": "C" 
			},
			{
				"x": -0.0260086911,
				"y": -1.4116887554,
				"z": -2.1568737237,
				"element": "N" 
			},
			{
				"x": -0.6839229218,
				"y": 1.9513909458,
				"z": -0.5892590052,
				"element": "C" 
			},
			{
				"x": -1.9964674413,
				"y": 1.9623746659,
				"z": -0.9086505129,
				"element": "F" 
			},
			{
				"x": -0.1007647316,
				"y": 2.9547837331,
				"z": -1.2882990979,
				"element": "F" 
			},
			{
				"x": -0.5749248525,
				"y": 2.2810103856,
				"z": 0.7188852589,
				"element": "F" 
			},
			{
				"x": 1.1995298892,
				"y": -3.4593274658,
				"z": -2.680922283,
				"element": "H" 
			},
			{
				"x": 2.5380315917,
				"y": -3.2683495623,
				"z": -1.5893123168,
				"element": "H" 
			},
			{
				"x": 1.5717851431,
				"y": 0.8749962635,
				"z": 0.5330398263,
				"element": "H" 
			},
			{
				"x": -1.4940722306,
				"y": 0.0145206693,
				"z": -2.3605440681,
				"element": "H" 
			}
		],
		 "valence_orbital": [ 
			{
				"type": "occ",
				"energy": -0.34166,
				"method": "rhf"
			},
			{
				"type": "occ",
				"energy": -0.31249,
				"method": "rhf"
			},
			{
				"type": "occ",
				"energy": -0.28319,
				"method": "rhf"
			},
			{
				"type": "occ",
				"energy": -0.27692,
				"method": "rhf"
			},
			{
				"type": "occ",
				"energy": -0.23305,
				"method": "rhf"
			},
			{
				"type": "unocc",
				"energy": -0.04067,
				"method": "rhf"
			},
			{
				"type": "unocc",
				"energy": -0.02256,
				"method": "rhf"
			},
			{
				"type": "unocc",
				"energy": -0.00831,
				"method": "rhf"
			},
			{
				"type": "unocc",
				"energy": 0.08068,
				"method": "rhf"
			},
			{
				"type": "unocc",
				"energy": 0.1135,
				"method": "rhf"
			}
		],
		"cosmo_sigma_profile": { 
			"-0.025": 0.0,
			"-0.024": 0.0,
			"-0.023": 0.0,
			"-0.022": 0.0,
			"-0.021": 0.0,
			"-0.02": 0.0,
			"-0.019": 0.0,
			"-0.018": 0.0,
			"-0.017": 0.0,
			"-0.016": 0.0,
			"-0.015": 0.0762979385488,
			"-0.014": 1.00084481688,
			"-0.013": 1.59323953362,
			"-0.012": 2.05371964814,
			"-0.011": 2.04760004124,
			"-0.01": 1.65353360215,
			"-0.009": 2.09681390579,
			"-0.008": 3.65335651111,
			"-0.007": 4.53386440686,
			"-0.006": 4.87465585877,
			"-0.005": 7.39456483239,
			"-0.004": 6.13037390694,
			"-0.003": 7.83029080655,
			"-0.002": 9.19952259915,
			"-0.001": 15.8215091359,
			"0.0": 24.4318029664,
			"0.001": 20.8227373226,
			"0.002": 24.0933930431,
			"0.003": 36.1447760201,
			"0.004": 10.6740334194,
			"0.005": 1.8539266123,
			"0.006": 2.03264506079,
			"0.007": 1.8823826026,
			"0.008": 1.97894594389,
			"0.009": 0.700621578096,
			"0.01": 0.974039149851,
			"0.011": 0.296052031662,
			"0.012": 1.43561010728,
			"0.013": 0.775284844232,
			"0.014": 0.378261702831,
			"0.015": 0.109712108921,
			"0.016": 0.0,
			"0.017": 0.0,
			"0.018": 0.0,
			"0.019": 0.0,
			"0.02": 0.0,
			"0.021": 0.0,
			"0.022": 0.0,
			"0.023": 0.0,
			"0.024": 0.0,
			"0.025": 0.0
		}
	}
}
