{
	 "smiles": "ClCCC1=CC=C(CCCl)C=C1", 
	 "Tm": 320.15, 
	 "num_atms": 24, 
	 "gaussian": { 
		 "optdone": 1, 
		 "sigma_profile": "yes", 
		 "theory": "DFT", 
		 "functional": "B3LYP", 
		 "basiset": "6-31G**", 
		 "properties": { 
			 "R2extent": 5818.1335, 
			 "electric_dipole_moment_norm": 3.18005597592, 
			 "electric_quadrupole_moment_norm": 16.3890479937, 
			 "total_energy": -1308.70426536, 
			 "HOMO_LUMO_gap": 0.22878, 
			 "cosmo_polarized_energy": -9.11, 
			 "cosmo_cavitation_energy": 30.83, 
			 "cosmo_dispersion_energy": -22.06, 
			 "cosmo_repulsion_energy": 1.8, 
			 "cosmo_total_nonelectrostatic_energy": 10.58, 
			 "SMD_solvation_energy": 4.1 
		},
		"coords": [
			{
				"x": -6.0356444267,
				"y": -2.875001832,
				"z": -1.3066783544,
				"element": "Cl" 
			},
			{
				"x": -4.584210504,
				"y": -2.0683600241,
				"z": -0.56130373,
				"element": "C" 
			},
			{
				"x": -3.4797719285,
				"y": -1.8288771214,
				"z": -1.5931580664,
				"element": "C" 
			},
			{
				"x": -2.2830560155,
				"y": -1.1591224794,
				"z": -0.9488936736,
				"element": "C" 
			},
			{
				"x": -2.1975378366,
				"y": 0.2364344254,
				"z": -0.865271524,
				"element": "C" 
			},
			{
				"x": -1.1155667308,
				"y": 0.8535940325,
				"z": -0.2384537895,
				"element": "C" 
			},
			{
				"x": -0.0839031706,
				"y": 0.0937354316,
				"z": 0.3257899484,
				"element": "C" 
			},
			{
				"x": 1.1077715029,
				"y": 0.753808563,
				"z": 0.9848285752,
				"element": "C" 
			},
			{
				"x": 2.3454081899,
				"y": 0.8772932807,
				"z": 0.0915943029,
				"element": "C" 
			},
			{
				"x": 2.1082013603,
				"y": 2.0502106285,
				"z": -1.2775620015,
				"element": "Cl" 
			},
			{
				"x": -0.1710062068,
				"y": -1.3025751229,
				"z": 0.2461158066,
				"element": "C" 
			},
			{
				"x": -1.2519755572,
				"y": -1.9194523893,
				"z": -0.3811496155,
				"element": "C" 
			},
			{
				"x": -4.9395593494,
				"y": -1.1315476498,
				"z": -0.1293625366,
				"element": "H" 
			},
			{
				"x": -4.2464033779,
				"y": -2.7233988317,
				"z": 0.24326785,
				"element": "H" 
			},
			{
				"x": -3.1906620112,
				"y": -2.7881813705,
				"z": -2.0343576352,
				"element": "H" 
			},
			{
				"x": -3.8770055617,
				"y": -1.2075310389,
				"z": -2.4022321563,
				"element": "H" 
			},
			{
				"x": -2.983125505,
				"y": 0.8484893955,
				"z": -1.3022125695,
				"element": "H" 
			},
			{
				"x": -1.0666566078,
				"y": 1.9378519815,
				"z": -0.1939732303,
				"element": "H" 
			},
			{
				"x": 1.4190034612,
				"y": 0.1622500159,
				"z": 1.85673866,
				"element": "H" 
			},
			{
				"x": 0.8389567597,
				"y": 1.7474687968,
				"z": 1.357562487,
				"element": "H" 
			},
			{
				"x": 3.2009286862,
				"y": 1.2485397966,
				"z": 0.658175081,
				"element": "H" 
			},
			{
				"x": 2.6046269681,
				"y": -0.077642366,
				"z": -0.3685324562,
				"element": "H" 
			},
			{
				"x": 0.6150415659,
				"y": -1.9159561957,
				"z": 0.681458749,
				"element": "H" 
			},
			{
				"x": -1.2950537046,
				"y": -3.0049299263,
				"z": -0.4327901209,
				"element": "H" 
			}
		],
		 "valence_orbital": [ 
			{
				"type": "occ",
				"energy": -0.29544,
				"method": "rhf"
			},
			{
				"type": "occ",
				"energy": -0.29407,
				"method": "rhf"
			},
			{
				"type": "occ",
				"energy": -0.29295,
				"method": "rhf"
			},
			{
				"type": "occ",
				"energy": -0.25724,
				"method": "rhf"
			},
			{
				"type": "occ",
				"energy": -0.24661,
				"method": "rhf"
			},
			{
				"type": "unocc",
				"energy": -0.01783,
				"method": "rhf"
			},
			{
				"type": "unocc",
				"energy": -0.01041,
				"method": "rhf"
			},
			{
				"type": "unocc",
				"energy": 0.02601,
				"method": "rhf"
			},
			{
				"type": "unocc",
				"energy": 0.03546,
				"method": "rhf"
			},
			{
				"type": "unocc",
				"energy": 0.0865,
				"method": "rhf"
			}
		],
		"cosmo_sigma_profile": { 
			"-0.025": 0.0,
			"-0.024": 0.0,
			"-0.023": 0.0,
			"-0.022": 0.0,
			"-0.021": 0.0,
			"-0.02": 0.0,
			"-0.019": 0.0,
			"-0.018": 0.0,
			"-0.017": 0.0,
			"-0.016": 0.0,
			"-0.015": 0.0,
			"-0.014": 0.0,
			"-0.013": 0.0,
			"-0.012": 0.0,
			"-0.011": 0.0,
			"-0.01": 0.0,
			"-0.009": 0.0,
			"-0.008": 0.0126513299421,
			"-0.007": 3.77581072142,
			"-0.006": 12.5813323513,
			"-0.005": 30.8621499331,
			"-0.004": 26.408017417,
			"-0.003": 21.6139267467,
			"-0.002": 15.9619430486,
			"-0.001": 13.8988230806,
			"0.0": 13.2271670995,
			"0.001": 12.7985496112,
			"0.002": 13.5678647051,
			"0.003": 11.7296423704,
			"0.004": 15.0438044165,
			"0.005": 17.5834858202,
			"0.006": 21.5126267709,
			"0.007": 16.6373627202,
			"0.008": 0.346123647527,
			"0.009": 0.0,
			"0.01": 0.0,
			"0.011": 0.0,
			"0.012": 0.0,
			"0.013": 0.0,
			"0.014": 0.0,
			"0.015": 0.0,
			"0.016": 0.0,
			"0.017": 0.0,
			"0.018": 0.0,
			"0.019": 0.0,
			"0.02": 0.0,
			"0.021": 0.0,
			"0.022": 0.0,
			"0.023": 0.0,
			"0.024": 0.0,
			"0.025": 0.0
		}
	}
}
