{
	 "smiles": "OC(=O)C=CC1=CN(N=C1C1=CC=CC=C1)C1=CC=CC=C1", 
	 "Tm": 481.15, 
	 "num_atms": 36, 
	 "gaussian": { 
		 "optdone": 1, 
		 "sigma_profile": "yes", 
		 "theory": "DFT", 
		 "functional": "B3LYP", 
		 "basiset": "6-31G**", 
		 "properties": { 
			 "R2extent": 8461.9898, 
			 "electric_dipole_moment_norm": 4.4319750507, 
			 "electric_quadrupole_moment_norm": 27.5174182081, 
			 "total_energy": -954.280082047, 
			 "HOMO_LUMO_gap": 0.16005, 
			 "cosmo_polarized_energy": -17.28, 
			 "cosmo_cavitation_energy": 41.17, 
			 "cosmo_dispersion_energy": -29.15, 
			 "cosmo_repulsion_energy": 2.21, 
			 "cosmo_total_nonelectrostatic_energy": 14.23, 
			 "SMD_solvation_energy": 7.34 
		},
		"coords": [
			{
				"x": -1.7986960699,
				"y": 3.1232062638,
				"z": 0.7766357893,
				"element": "O" 
			},
			{
				"x": -1.9823589309,
				"y": 3.1902289249,
				"z": -0.5758284218,
				"element": "C" 
			},
			{
				"x": -2.9734694895,
				"y": 3.7213007732,
				"z": -1.0192360233,
				"element": "O" 
			},
			{
				"x": -0.9122629237,
				"y": 2.6340719523,
				"z": -1.4443998619,
				"element": "C" 
			},
			{
				"x": -0.0834441443,
				"y": 1.5841646042,
				"z": -1.2466394415,
				"element": "C" 
			},
			{
				"x": 0.0194170402,
				"y": 0.6207128374,
				"z": -0.1587365061,
				"element": "C" 
			},
			{
				"x": -0.8696867672,
				"y": 0.3263228499,
				"z": 0.8723989409,
				"element": "C" 
			},
			{
				"x": -0.2963352247,
				"y": -0.6320805239,
				"z": 1.6435208807,
				"element": "N" 
			},
			{
				"x": 0.9215091847,
				"y": -1.004805084,
				"z": 1.1726121578,
				"element": "N" 
			},
			{
				"x": 1.1235020585,
				"y": -0.2730547185,
				"z": 0.0795988726,
				"element": "C" 
			},
			{
				"x": 2.3825696623,
				"y": -0.4362861041,
				"z": -0.6777140681,
				"element": "C" 
			},
			{
				"x": 3.6040949749,
				"y": -0.5030830096,
				"z": 0.0115257975,
				"element": "C" 
			},
			{
				"x": 4.8003066975,
				"y": -0.6757902777,
				"z": -0.6823354278,
				"element": "C" 
			},
			{
				"x": 4.7962095801,
				"y": -0.7858094282,
				"z": -2.0747749885,
				"element": "C" 
			},
			{
				"x": 3.5861242511,
				"y": -0.7346818271,
				"z": -2.7685348183,
				"element": "C" 
			},
			{
				"x": 2.3870239033,
				"y": -0.5654340406,
				"z": -2.0760254856,
				"element": "C" 
			},
			{
				"x": -0.8360451094,
				"y": -1.2575992251,
				"z": 2.8020113616,
				"element": "C" 
			},
			{
				"x": -1.8369275133,
				"y": -0.6202294096,
				"z": 3.5434414404,
				"element": "C" 
			},
			{
				"x": -2.3692519785,
				"y": -1.2565027382,
				"z": 4.6640633738,
				"element": "C" 
			},
			{
				"x": -1.8987810982,
				"y": -2.510674634,
				"z": 5.0563246805,
				"element": "C" 
			},
			{
				"x": -0.8874339101,
				"y": -3.1295510519,
				"z": 4.3180584066,
				"element": "C" 
			},
			{
				"x": -0.3538691982,
				"y": -2.5123685941,
				"z": 3.1887214217,
				"element": "C" 
			},
			{
				"x": -0.9102027884,
				"y": 2.7844745504,
				"z": 0.9658447808,
				"element": "H" 
			},
			{
				"x": -0.8528527917,
				"y": 3.1526513148,
				"z": -2.3961882617,
				"element": "H" 
			},
			{
				"x": 0.6366489314,
				"y": 1.4150761466,
				"z": -2.0421350202,
				"element": "H" 
			},
			{
				"x": -1.8617085339,
				"y": 0.6963288269,
				"z": 1.0729907428,
				"element": "H" 
			},
			{
				"x": 3.6019076225,
				"y": -0.4171870779,
				"z": 1.0932045289,
				"element": "H" 
			},
			{
				"x": 5.7376862002,
				"y": -0.7217751735,
				"z": -0.1354317807,
				"element": "H" 
			},
			{
				"x": 5.7293334028,
				"y": -0.9170204213,
				"z": -2.6148471217,
				"element": "H" 
			},
			{
				"x": 3.5724237937,
				"y": -0.8385926946,
				"z": -3.8496265641,
				"element": "H" 
			},
			{
				"x": 1.4476507743,
				"y": -0.5692000438,
				"z": -2.6206492331,
				"element": "H" 
			},
			{
				"x": -2.1848720041,
				"y": 0.3694213733,
				"z": 3.267010171,
				"element": "H" 
			},
			{
				"x": -3.1460232353,
				"y": -0.7599021961,
				"z": 5.2374804206,
				"element": "H" 
			},
			{
				"x": -2.3131820158,
				"y": -2.9990616091,
				"z": 5.932818604,
				"element": "H" 
			},
			{
				"x": -0.5131423963,
				"y": -4.1040087293,
				"z": 4.6172086288,
				"element": "H" 
			},
			{
				"x": 0.4275380456,
				"y": -2.9800618056,
				"z": 2.6027320243,
				"element": "H" 
			}
		],
		 "valence_orbital": [ 
			{
				"type": "occ",
				"energy": -0.26756,
				"method": "rhf"
			},
			{
				"type": "occ",
				"energy": -0.26297,
				"method": "rhf"
			},
			{
				"type": "occ",
				"energy": -0.2588,
				"method": "rhf"
			},
			{
				"type": "occ",
				"energy": -0.25036,
				"method": "rhf"
			},
			{
				"type": "occ",
				"energy": -0.22563,
				"method": "rhf"
			},
			{
				"type": "unocc",
				"energy": -0.06558,
				"method": "rhf"
			},
			{
				"type": "unocc",
				"energy": -0.0387,
				"method": "rhf"
			},
			{
				"type": "unocc",
				"energy": -0.01791,
				"method": "rhf"
			},
			{
				"type": "unocc",
				"energy": -0.01045,
				"method": "rhf"
			},
			{
				"type": "unocc",
				"energy": -0.00938,
				"method": "rhf"
			}
		],
		"cosmo_sigma_profile": { 
			"-0.025": 0.0,
			"-0.024": 0.0,
			"-0.023": 0.0,
			"-0.022": 0.0,
			"-0.021": 0.0,
			"-0.02": 0.0,
			"-0.019": 0.0,
			"-0.018": 0.0,
			"-0.017": 0.0384632278092,
			"-0.016": 0.494627359822,
			"-0.015": 0.680211479179,
			"-0.014": 0.684333639695,
			"-0.013": 0.198891179251,
			"-0.012": 1.21339321255,
			"-0.011": 1.02769103041,
			"-0.01": 1.78249104883,
			"-0.009": 2.61598039236,
			"-0.008": 3.71174405102,
			"-0.007": 9.75905846796,
			"-0.006": 22.9976893315,
			"-0.005": 25.306749914,
			"-0.004": 27.5545090028,
			"-0.003": 19.0562542711,
			"-0.002": 19.9888587035,
			"-0.001": 20.6253692873,
			"0.0": 23.8292525778,
			"0.001": 23.0471571094,
			"0.002": 24.1251102527,
			"0.003": 23.2439227677,
			"0.004": 23.5753461569,
			"0.005": 18.3958191971,
			"0.006": 5.86655713181,
			"0.007": 3.52979225149,
			"0.008": 3.28103075621,
			"0.009": 4.38768345137,
			"0.01": 5.69367010446,
			"0.011": 5.96265703013,
			"0.012": 6.12465746763,
			"0.013": 2.68465291026,
			"0.014": 0.11648652107,
			"0.015": 0.0,
			"0.016": 0.0,
			"0.017": 0.0,
			"0.018": 0.0,
			"0.019": 0.0,
			"0.02": 0.0,
			"0.021": 0.0,
			"0.022": 0.0,
			"0.023": 0.0,
			"0.024": 0.0,
			"0.0": 0.0
		}
	}
}
