{
	 "smiles": "CC(CO)C1=C(O)C(O)=C2C(=C1O)C(=O)C(=O)C1C(C)(C)CCCC21C", 
	 "Tm": 512.15, 
	 "num_atms": 52, 
	 "gaussian": { 
		 "optdone": 1, 
		 "sigma_profile": "yes", 
		 "theory": "DFT", 
		 "functional": "B3LYP", 
		 "basiset": "6-31G**", 
		 "properties": { 
			 "R2extent": 9708.555, 
			 "electric_dipole_moment_norm": 6.95501420919, 
			 "electric_quadrupole_moment_norm": 27.6940488432, 
			 "total_energy": -1229.1527746, 
			 "HOMO_LUMO_gap": 0.12382, 
			 "cosmo_polarized_energy": -18.92, 
			 "cosmo_cavitation_energy": 47.36, 
			 "cosmo_dispersion_energy": -32.97, 
			 "cosmo_repulsion_energy": 2.42, 
			 "cosmo_total_nonelectrostatic_energy": 16.81, 
			 "SMD_solvation_energy": 9.15 
		},
		"coords": [
			{
				"x": -1.4414022458,
				"y": 4.6245499039,
				"z": 1.5768536499,
				"element": "C" 
			},
			{
				"x": -2.5778026194,
				"y": 3.6563648313,
				"z": 1.1851502303,
				"element": "C" 
			},
			{
				"x": -3.7936213513,
				"y": 4.4125228538,
				"z": 0.6244613895,
				"element": "C" 
			},
			{
				"x": -3.4778982248,
				"y": 5.3021411883,
				"z": -0.4720238733,
				"element": "O" 
			},
			{
				"x": -2.0675466574,
				"y": 2.5099465899,
				"z": 0.3171389214,
				"element": "C" 
			},
			{
				"x": -1.6639406116,
				"y": 2.6386919681,
				"z": -1.0131987715,
				"element": "C" 
			},
			{
				"x": -1.7462478624,
				"y": 3.7866190487,
				"z": -1.7315728973,
				"element": "O" 
			},
			{
				"x": -1.1102931904,
				"y": 1.5591189663,
				"z": -1.7586213428,
				"element": "C" 
			},
			{
				"x": -0.805401506,
				"y": 1.8200607201,
				"z": -3.0685069229,
				"element": "O" 
			},
			{
				"x": -0.9151050429,
				"y": 0.3098950881,
				"z": -1.1895618221,
				"element": "C" 
			},
			{
				"x": -1.3700474417,
				"y": 0.1384960042,
				"z": 0.1603159526,
				"element": "C" 
			},
			{
				"x": -1.9264662861,
				"y": 1.2309845466,
				"z": 0.8928168084,
				"element": "C" 
			},
			{
				"x": -2.3295414401,
				"y": 1.0643769292,
				"z": 2.16003817,
				"element": "O" 
			},
			{
				"x": -1.3468918432,
				"y": -1.1534697913,
				"z": 0.8103148605,
				"element": "C" 
			},
			{
				"x": -1.7477288029,
				"y": -1.3551567223,
				"z": 1.9741460488,
				"element": "O" 
			},
			{
				"x": -0.8264273445,
				"y": -2.3485569333,
				"z": 0.008469584,
				"element": "C" 
			},
			{
				"x": -1.2170260202,
				"y": -3.4684116635,
				"z": 0.2729337574,
				"element": "O" 
			},
			{
				"x": 0.1720767561,
				"y": -2.0365346514,
				"z": -1.080480642,
				"element": "C" 
			},
			{
				"x": 1.6586354386,
				"y": -1.8447005831,
				"z": -0.5108128188,
				"element": "C" 
			},
			{
				"x": 1.7609125264,
				"y": -2.1887486,
				"z": 0.9913361253,
				"element": "C" 
			},
			{
				"x": 2.5951807519,
				"y": -2.8172178062,
				"z": -1.2618073267,
				"element": "C" 
			},
			{
				"x": 2.1271843735,
				"y": -0.3876477853,
				"z": -0.7155341938,
				"element": "C" 
			},
			{
				"x": 2.0304612772,
				"y": 0.1054238869,
				"z": -2.1725919636,
				"element": "C" 
			},
			{
				"x": 0.8313425603,
				"y": -0.5024759838,
				"z": -2.9250728327,
				"element": "C" 
			},
			{
				"x": -0.3534537936,
				"y": -0.87592516,
				"z": -1.9991828677,
				"element": "C" 
			},
			{
				"x": -1.5128589501,
				"y": -1.4216490466,
				"z": -2.8717358614,
				"element": "C" 
			},
			{
				"x": -1.8107077294,
				"y": 5.4261422785,
				"z": 2.2288996127,
				"element": "H" 
			},
			{
				"x": -0.9739424734,
				"y": 5.0792518112,
				"z": 0.6970851391,
				"element": "H" 
			},
			{
				"x": -0.6588405271,
				"y": 4.0895113866,
				"z": 2.1199876154,
				"element": "H" 
			},
			{
				"x": -2.9406058534,
				"y": 3.1871297171,
				"z": 2.104356807,
				"element": "H" 
			},
			{
				"x": -4.5370489794,
				"y": 3.716588928,
				"z": 0.2286466506,
				"element": "H" 
			},
			{
				"x": -4.2656455413,
				"y": 4.9962135287,
				"z": 1.4241884006,
				"element": "H" 
			},
			{
				"x": -3.0339122352,
				"y": 6.0805567882,
				"z": -0.1093743747,
				"element": "H" 
			},
			{
				"x": -2.3861810367,
				"y": 4.4299701398,
				"z": -1.3285615595,
				"element": "H" 
			},
			{
				"x": -1.0580702358,
				"y": 2.745453398,
				"z": -3.2222017774,
				"element": "H" 
			},
			{
				"x": -2.1878622258,
				"y": 0.0904406629,
				"z": 2.3727003588,
				"element": "H" 
			},
			{
				"x": 0.1929261367,
				"y": -2.9357460625,
				"z": -1.704075707,
				"element": "H" 
			},
			{
				"x": 1.1798082083,
				"y": -1.5067905455,
				"z": 1.6200841992,
				"element": "H" 
			},
			{
				"x": 1.4206238169,
				"y": -3.2077226984,
				"z": 1.1990761853,
				"element": "H" 
			},
			{
				"x": 2.8053640463,
				"y": -2.1137238676,
				"z": 1.3130354437,
				"element": "H" 
			},
			{
				"x": 3.6251435828,
				"y": -2.704800627,
				"z": -0.9039330975,
				"element": "H" 
			},
			{
				"x": 2.5977693841,
				"y": -2.6475261001,
				"z": -2.3419120257,
				"element": "H" 
			},
			{
				"x": 2.2933080516,
				"y": -3.8558802127,
				"z": -1.0886555633,
				"element": "H" 
			},
			{
				"x": 1.5255561271,
				"y": 0.261763818,
				"z": -0.0704212268,
				"element": "H" 
			},
			{
				"x": 3.1593515796,
				"y": -0.2970868684,
				"z": -0.354499566,
				"element": "H" 
			},
			{
				"x": 2.95079242,
				"y": -0.1331909407,
				"z": -2.7180638644,
				"element": "H" 
			},
			{
				"x": 1.9509354164,
				"y": 1.1978347522,
				"z": -2.1742291579,
				"element": "H" 
			},
			{
				"x": 0.503863449,
				"y": 0.1679318739,
				"z": -3.7177067192,
				"element": "H" 
			},
			{
				"x": 1.131875479,
				"y": -1.4379142917,
				"z": -3.4128635321,
				"element": "H" 
			},
			{
				"x": -2.3424709362,
				"y": -1.7891035078,
				"z": -2.2587540829,
				"element": "H" 
			},
			{
				"x": -1.8947163896,
				"y": -0.6351534518,
				"z": -3.528222124,
				"element": "H" 
			},
			{
				"x": -1.163105984,
				"y": -2.2507477077,
				"z": -3.4967573951,
				"element": "H" 
			}
		],
		 "valence_orbital": [ 
			{
				"type": "occ",
				"energy": -0.28701,
				"method": "rhf"
			},
			{
				"type": "occ",
				"energy": -0.27357,
				"method": "rhf"
			},
			{
				"type": "occ",
				"energy": -0.23944,
				"method": "rhf"
			},
			{
				"type": "occ",
				"energy": -0.22931,
				"method": "rhf"
			},
			{
				"type": "occ",
				"energy": -0.20341,
				"method": "rhf"
			},
			{
				"type": "unocc",
				"energy": -0.07959,
				"method": "rhf"
			},
			{
				"type": "unocc",
				"energy": -0.01679,
				"method": "rhf"
			},
			{
				"type": "unocc",
				"energy": 0.01523,
				"method": "rhf"
			},
			{
				"type": "unocc",
				"energy": 0.03297,
				"method": "rhf"
			},
			{
				"type": "unocc",
				"energy": 0.0667,
				"method": "rhf"
			}
		],
		"cosmo_sigma_profile": { 
			"-0.025": 0.0,
			"-0.024": 0.0,
			"-0.023": 0.0,
			"-0.022": 0.0,
			"-0.021": 0.0,
			"-0.02": 0.0,
			"-0.019": 0.0,
			"-0.018": 0.0,
			"-0.017": 0.441397667399,
			"-0.016": 0.750672892756,
			"-0.015": 0.96382897206,
			"-0.014": 1.20465610495,
			"-0.013": 1.25648220711,
			"-0.012": 1.96343958177,
			"-0.011": 1.70505165108,
			"-0.01": 2.30668531868,
			"-0.009": 2.27043422641,
			"-0.008": 1.86070645633,
			"-0.007": 2.30083617882,
			"-0.006": 5.93666236732,
			"-0.005": 13.1707358747,
			"-0.004": 23.0614469765,
			"-0.003": 35.6776825546,
			"-0.002": 41.3176241844,
			"-0.001": 40.7782722187,
			"0.0": 50.2794126898,
			"0.001": 51.9214908948,
			"0.002": 17.6301710315,
			"0.003": 8.7704742807,
			"0.004": 8.97841621004,
			"0.005": 8.85276692998,
			"0.006": 7.38749968748,
			"0.007": 6.13692769903,
			"0.008": 5.83011355119,
			"0.009": 5.66736221432,
			"0.01": 5.62651864287,
			"0.011": 6.01868010759,
			"0.012": 4.0932018648,
			"0.013": 2.40434862339,
			"0.014": 1.49900872232,
			"0.015": 0.354495215563,
			"0.016": 0.0,
			"0.017": 0.0,
			"0.018": 0.0,
			"0.019": 0.0,
			"0.02": 0.0,
			"0.021": 0.0,
			"0.022": 0.0,
			"0.023": 0.0,
			"0.024": 0.0,
			"0.025": 0.0
		}
	}
}
