{
	 "smiles": "CCCCCCN1CC(CC1=O)C(=O)OC", 
	 "Tm": 277.15, 
	 "num_atms": 37, 
	 "gaussian": { 
		 "optdone": 1, 
		 "sigma_profile": "yes", 
		 "theory": "DFT", 
		 "functional": "B3LYP", 
		 "basiset": "6-31G**", 
		 "properties": { 
			 "R2extent": 5236.2684, 
			 "electric_dipole_moment_norm": 4.9953102276, 
			 "electric_quadrupole_moment_norm": 18.8881794867, 
			 "total_energy": -750.394737084, 
			 "HOMO_LUMO_gap": 0.23161, 
			 "cosmo_polarized_energy": -15.0, 
			 "cosmo_cavitation_energy": 38.41, 
			 "cosmo_dispersion_energy": -25.87, 
			 "cosmo_repulsion_energy": 2.08, 
			 "cosmo_total_nonelectrostatic_energy": 14.61, 
			 "SMD_solvation_energy": 7.81 
		},
		"coords": [
			{
				"x": -1.1537122903,
				"y": 2.7081044784,
				"z": 3.0820804206,
				"element": "C" 
			},
			{
				"x": -0.0058785793,
				"y": 2.0554281197,
				"z": 3.8621537114,
				"element": "C" 
			},
			{
				"x": 1.035177244,
				"y": 1.3368194089,
				"z": 2.987709865,
				"element": "C" 
			},
			{
				"x": 1.8658762624,
				"y": 2.271497424,
				"z": 2.0930898691,
				"element": "C" 
			},
			{
				"x": 2.9863435012,
				"y": 1.5768022468,
				"z": 1.2942188801,
				"element": "C" 
			},
			{
				"x": 2.5976282881,
				"y": 0.9812519039,
				"z": -0.0698263964,
				"element": "C" 
			},
			{
				"x": 1.6340277536,
				"y": -0.1146933678,
				"z": -0.041480369,
				"element": "N" 
			},
			{
				"x": 0.2393070141,
				"y": 0.0186855912,
				"z": -0.4338771691,
				"element": "C" 
			},
			{
				"x": -0.2508525251,
				"y": -1.454285765,
				"z": -0.5727176703,
				"element": "C" 
			},
			{
				"x": 0.768492329,
				"y": -2.2787693664,
				"z": 0.2280648884,
				"element": "C" 
			},
			{
				"x": 1.9993274758,
				"y": -1.3799172192,
				"z": 0.3426311995,
				"element": "C" 
			},
			{
				"x": 3.1161921794,
				"y": -1.7043509173,
				"z": 0.7171614424,
				"element": "O" 
			},
			{
				"x": -0.3228261196,
				"y": -1.9030104103,
				"z": -2.0306402754,
				"element": "C" 
			},
			{
				"x": 0.23103582,
				"y": -2.8694662668,
				"z": -2.5055805059,
				"element": "O" 
			},
			{
				"x": -1.1301440491,
				"y": -1.0846025587,
				"z": -2.7423964354,
				"element": "O" 
			},
			{
				"x": -1.2918148501,
				"y": -1.4315391796,
				"z": -4.129086933,
				"element": "C" 
			},
			{
				"x": -1.8836353325,
				"y": 3.1626634257,
				"z": 3.7600351039,
				"element": "H" 
			},
			{
				"x": -1.6871021625,
				"y": 1.9685111508,
				"z": 2.4723525843,
				"element": "H" 
			},
			{
				"x": -0.7975020941,
				"y": 3.4958962492,
				"z": 2.4102876929,
				"element": "H" 
			},
			{
				"x": -0.4263178365,
				"y": 1.3321359586,
				"z": 4.5725029014,
				"element": "H" 
			},
			{
				"x": 0.5001724868,
				"y": 2.8172888639,
				"z": 4.4711472272,
				"element": "H" 
			},
			{
				"x": 0.5304176232,
				"y": 0.5765165956,
				"z": 2.378359529,
				"element": "H" 
			},
			{
				"x": 1.724894645,
				"y": 0.7852362742,
				"z": 3.6400305733,
				"element": "H" 
			},
			{
				"x": 1.2134744768,
				"y": 2.8241094188,
				"z": 1.4029014555,
				"element": "H" 
			},
			{
				"x": 2.3223336119,
				"y": 3.0326312851,
				"z": 2.740443794,
				"element": "H" 
			},
			{
				"x": 3.7812014754,
				"y": 2.3053436854,
				"z": 1.0873081919,
				"element": "H" 
			},
			{
				"x": 3.4456751865,
				"y": 0.7844453224,
				"z": 1.8955362619,
				"element": "H" 
			},
			{
				"x": 3.5075574022,
				"y": 0.5980359749,
				"z": -0.5451647061,
				"element": "H" 
			},
			{
				"x": 2.1862585768,
				"y": 1.7628146181,
				"z": -0.7191503877,
				"element": "H" 
			},
			{
				"x": 0.1423895694,
				"y": 0.5742419142,
				"z": -1.3717742903,
				"element": "H" 
			},
			{
				"x": -0.3466751639,
				"y": 0.5527319218,
				"z": 0.3268064739,
				"element": "H" 
			},
			{
				"x": -1.268695107,
				"y": -1.5398573212,
				"z": -0.1788836269,
				"element": "H" 
			},
			{
				"x": 1.0292036303,
				"y": -3.2146726817,
				"z": -0.2683942368,
				"element": "H" 
			},
			{
				"x": 0.4090085092,
				"y": -2.5132109171,
				"z": 1.2355888113,
				"element": "H" 
			},
			{
				"x": -0.329016492,
				"y": -1.4101915189,
				"z": -4.6453939662,
				"element": "H" 
			},
			{
				"x": -1.7214311486,
				"y": -2.4314990776,
				"z": -4.2265470656,
				"element": "H" 
			},
			{
				"x": -1.9660913105,
				"y": -0.6822252642,
				"z": -4.543296843,
				"element": "H" 
			}
		],
		 "valence_orbital": [ 
			{
				"type": "occ",
				"energy": -0.31249,
				"method": "rhf"
			},
			{
				"type": "occ",
				"energy": -0.31147,
				"method": "rhf"
			},
			{
				"type": "occ",
				"energy": -0.28098,
				"method": "rhf"
			},
			{
				"type": "occ",
				"energy": -0.2396,
				"method": "rhf"
			},
			{
				"type": "occ",
				"energy": -0.23324,
				"method": "rhf"
			},
			{
				"type": "unocc",
				"energy": -0.00163,
				"method": "rhf"
			},
			{
				"type": "unocc",
				"energy": 0.03587,
				"method": "rhf"
			},
			{
				"type": "unocc",
				"energy": 0.06671,
				"method": "rhf"
			},
			{
				"type": "unocc",
				"energy": 0.09165,
				"method": "rhf"
			},
			{
				"type": "unocc",
				"energy": 0.0958,
				"method": "rhf"
			}
		],
		"cosmo_sigma_profile": { 
			"-0.025": 0.0,
			"-0.024": 0.0,
			"-0.023": 0.0,
			"-0.022": 0.0,
			"-0.021": 0.0,
			"-0.02": 0.0,
			"-0.019": 0.0,
			"-0.018": 0.0,
			"-0.017": 0.0,
			"-0.016": 0.0,
			"-0.015": 0.0,
			"-0.014": 0.0,
			"-0.013": 0.0,
			"-0.012": 0.0,
			"-0.011": 0.0,
			"-0.01": 0.0,
			"-0.009": 0.0,
			"-0.008": 0.180629675254,
			"-0.007": 3.50049985593,
			"-0.006": 12.0330741378,
			"-0.005": 20.5833919342,
			"-0.004": 22.6565966666,
			"-0.003": 31.6945983149,
			"-0.002": 40.7445815156,
			"-0.001": 35.9600188329,
			"0.0": 34.0153243312,
			"0.001": 32.1060490586,
			"0.002": 13.0984647592,
			"0.003": 4.76357181404,
			"0.004": 4.97415775019,
			"0.005": 4.5024453409,
			"0.006": 3.90105769252,
			"0.007": 3.84458860989,
			"0.008": 3.68535334615,
			"0.009": 3.31732380477,
			"0.01": 2.64122754011,
			"0.011": 5.85115367982,
			"0.012": 4.0391499909,
			"0.013": 2.46888722366,
			"0.014": 5.19938518654,
			"0.015": 2.32119072476,
			"0.016": 0.110508094655,
			"0.017": 0.0,
			"0.018": 0.0,
			"0.019": 0.0,
			"0.02": 0.0,
			"0.021": 0.0,
			"0.022": 0.0,
			"0.023": 0.0,
			"0.024": 0.0,
			"0.025": 0.0
		}
	}
}
