{
	 "smiles": "CC1=CC(=CC=C1N=NC1=CC=C(C=C1)N=NC1=CC=CC=C1)N=NC1=CC=C(C=C1)N=NC1=CC=CC=C1", 
	 "Tm": 482.15, 
	 "num_atms": 63, 
	 "gaussian": { 
		 "optdone": 1, 
		 "sigma_profile": "yes", 
		 "theory": "DFT", 
		 "functional": "B3LYP", 
		 "basiset": "6-31G**", 
		 "properties": { 
			 "R2extent": 36330.5179, 
			 "electric_dipole_moment_norm": 3.26653982832, 
			 "electric_quadrupole_moment_norm": 45.430384189, 
			 "total_energy": -1633.54859706, 
			 "HOMO_LUMO_gap": 0.10064, 
			 "cosmo_polarized_energy": -21.88, 
			 "cosmo_cavitation_energy": 70.87, 
			 "cosmo_dispersion_energy": -46.64, 
			 "cosmo_repulsion_energy": 3.47, 
			 "cosmo_total_nonelectrostatic_energy": 27.71, 
			 "SMD_solvation_energy": 4.74 
		},
		"coords": [
			{
				"x": 3.2581495447,
				"y": -2.9552012558,
				"z": 1.5195083312,
				"element": "C" 
			},
			{
				"x": 2.3503472164,
				"y": -2.5750512682,
				"z": 0.3755349682,
				"element": "C" 
			},
			{
				"x": 2.0272333336,
				"y": -3.5062379511,
				"z": -0.6114501667,
				"element": "C" 
			},
			{
				"x": 1.1556131727,
				"y": -3.186955716,
				"z": -1.6610434084,
				"element": "C" 
			},
			{
				"x": 0.64807566,
				"y": -1.8794596254,
				"z": -1.7772746472,
				"element": "C" 
			},
			{
				"x": 0.9892335885,
				"y": -0.9330617861,
				"z": -0.827021298,
				"element": "C" 
			},
			{
				"x": 1.8215866207,
				"y": -1.2669753896,
				"z": 0.2587246127,
				"element": "C" 
			},
			{
				"x": 2.1880491353,
				"y": -0.3555997349,
				"z": 1.2709554004,
				"element": "N" 
			},
			{
				"x": 1.7391159067,
				"y": 0.8181438293,
				"z": 1.1247375786,
				"element": "N" 
			},
			{
				"x": 2.1029651587,
				"y": 1.7262355349,
				"z": 2.1411733344,
				"element": "C" 
			},
			{
				"x": 1.5971846281,
				"y": 3.0282523462,
				"z": 2.0001155496,
				"element": "C" 
			},
			{
				"x": 1.8757664642,
				"y": 3.9999822441,
				"z": 2.9527158781,
				"element": "C" 
			},
			{
				"x": 2.7177486214,
				"y": 3.6980693507,
				"z": 4.0327780955,
				"element": "C" 
			},
			{
				"x": 3.2142262149,
				"y": 2.3881736273,
				"z": 4.1888834174,
				"element": "C" 
			},
			{
				"x": 2.9035096951,
				"y": 1.4117379886,
				"z": 3.2569107488,
				"element": "C" 
			},
			{
				"x": 2.8583282824,
				"y": 4.7003480943,
				"z": 5.0411840251,
				"element": "N" 
			},
			{
				"x": 3.9362384121,
				"y": 4.9993756806,
				"z": 5.5981889509,
				"element": "N" 
			},
			{
				"x": 5.2193880891,
				"y": 4.5423241264,
				"z": 5.1526665317,
				"element": "C" 
			},
			{
				"x": 5.6318389973,
				"y": 4.5876704959,
				"z": 3.8118925906,
				"element": "C" 
			},
			{
				"x": 6.9472977285,
				"y": 4.2643178503,
				"z": 3.4856162787,
				"element": "C" 
			},
			{
				"x": 7.8497515682,
				"y": 3.8788420173,
				"z": 4.4806898555,
				"element": "C" 
			},
			{
				"x": 7.441080233,
				"y": 3.8492536485,
				"z": 5.8168351854,
				"element": "C" 
			},
			{
				"x": 6.1392365111,
				"y": 4.2092008978,
				"z": 6.1569953197,
				"element": "C" 
			},
			{
				"x": 0.990810065,
				"y": -4.1690501063,
				"z": -2.6838930344,
				"element": "N" 
			},
			{
				"x": -0.1037951144,
				"y": -4.4603276064,
				"z": -3.2137763647,
				"element": "N" 
			},
			{
				"x": -1.3726415834,
				"y": -4.0345171559,
				"z": -2.7129722462,
				"element": "C" 
			},
			{
				"x": -2.3474012172,
				"y": -3.7295954016,
				"z": -3.6763218366,
				"element": "C" 
			},
			{
				"x": -3.6378131169,
				"y": -3.3904801376,
				"z": -3.2914176736,
				"element": "C" 
			},
			{
				"x": -3.9932996183,
				"y": -3.4312814565,
				"z": -1.9325435898,
				"element": "C" 
			},
			{
				"x": -3.047758936,
				"y": -3.8441107839,
				"z": -0.9807420747,
				"element": "C" 
			},
			{
				"x": -1.7369792428,
				"y": -4.1060777305,
				"z": -1.3572779355,
				"element": "C" 
			},
			{
				"x": -5.3420152222,
				"y": -3.2919622311,
				"z": -1.4760109074,
				"element": "N" 
			},
			{
				"x": -6.1114436434,
				"y": -2.3712832794,
				"z": -1.8251470916,
				"element": "N" 
			},
			{
				"x": -5.6906587043,
				"y": -1.2107237476,
				"z": -2.5544903805,
				"element": "C" 
			},
			{
				"x": -4.5854418738,
				"y": -0.4311882281,
				"z": -2.1802272475,
				"element": "C" 
			},
			{
				"x": -4.3330790859,
				"y": 0.767990861,
				"z": -2.8436332445,
				"element": "C" 
			},
			{
				"x": -5.1607909445,
				"y": 1.1875060532,
				"z": -3.8886020456,
				"element": "C" 
			},
			{
				"x": -6.269053365,
				"y": 0.4165225984,
				"z": -4.2495746785,
				"element": "C" 
			},
			{
				"x": -6.5523142408,
				"y": -0.7636438216,
				"z": -3.565716652,
				"element": "C" 
			},
			{
				"x": 3.5726739185,
				"y": -3.9983207052,
				"z": 1.4318290304,
				"element": "H" 
			},
			{
				"x": 2.7574219234,
				"y": -2.8250572009,
				"z": 2.4837296851,
				"element": "H" 
			},
			{
				"x": 4.1523678223,
				"y": -2.3254190265,
				"z": 1.5438454301,
				"element": "H" 
			},
			{
				"x": 2.446076053,
				"y": -4.5075782086,
				"z": -0.5750797937,
				"element": "H" 
			},
			{
				"x": 0.0083499805,
				"y": -1.6177457993,
				"z": -2.6131104318,
				"element": "H" 
			},
			{
				"x": 0.6199562056,
				"y": 0.0838736915,
				"z": -0.8932553707,
				"element": "H" 
			},
			{
				"x": 0.9705723595,
				"y": 3.2450108659,
				"z": 1.1410197313,
				"element": "H" 
			},
			{
				"x": 1.4589771912,
				"y": 4.9990349832,
				"z": 2.8753421204,
				"element": "H" 
			},
			{
				"x": 3.8302867304,
				"y": 2.1471162123,
				"z": 5.0484428357,
				"element": "H" 
			},
			{
				"x": 3.2716026338,
				"y": 0.398215109,
				"z": 3.3654162053,
				"element": "H" 
			},
			{
				"x": 4.9338728182,
				"y": 4.890699196,
				"z": 3.0393675115,
				"element": "H" 
			},
			{
				"x": 7.2685262541,
				"y": 4.3118823923,
				"z": 2.4491951099,
				"element": "H" 
			},
			{
				"x": 8.8710015462,
				"y": 3.620189597,
				"z": 4.2175648949,
				"element": "H" 
			},
			{
				"x": 8.1432082174,
				"y": 3.5668955631,
				"z": 6.5957371942,
				"element": "H" 
			},
			{
				"x": 5.8123983818,
				"y": 4.2321657704,
				"z": 7.1919235587,
				"element": "H" 
			},
			{
				"x": -2.0674237218,
				"y": -3.7523074179,
				"z": -4.7246991535,
				"element": "H" 
			},
			{
				"x": -4.3793139448,
				"y": -3.1291464698,
				"z": -4.0380141803,
				"element": "H" 
			},
			{
				"x": -3.3590469993,
				"y": -3.9452045577,
				"z": 0.0541007366,
				"element": "H" 
			},
			{
				"x": -1.0066186083,
				"y": -4.4027291447,
				"z": -0.6131347027,
				"element": "H" 
			},
			{
				"x": -3.9453271189,
				"y": -0.7541042322,
				"z": -1.3664425652,
				"element": "H" 
			},
			{
				"x": -3.4856470186,
				"y": 1.3775265446,
				"z": -2.5433810735,
				"element": "H" 
			},
			{
				"x": -4.9532264133,
				"y": 2.1191274419,
				"z": -4.4063440774,
				"element": "H" 
			},
			{
				"x": -6.9253249648,
				"y": 0.746231261,
				"z": -5.0495951925,
				"element": "H" 
			},
			{
				"x": -7.4306521848,
				"y": -1.3557186964,
				"z": -3.8033276318,
				"element": "H" 
			}
		],
		 "valence_orbital": [ 
			{
				"type": "occ",
				"energy": -0.24779,
				"method": "rhf"
			},
			{
				"type": "occ",
				"energy": -0.23331,
				"method": "rhf"
			},
			{
				"type": "occ",
				"energy": -0.22659,
				"method": "rhf"
			},
			{
				"type": "occ",
				"energy": -0.21602,
				"method": "rhf"
			},
			{
				"type": "occ",
				"energy": -0.2064,
				"method": "rhf"
			},
			{
				"type": "unocc",
				"energy": -0.10576,
				"method": "rhf"
			},
			{
				"type": "unocc",
				"energy": -0.08713,
				"method": "rhf"
			},
			{
				"type": "unocc",
				"energy": -0.07059,
				"method": "rhf"
			},
			{
				"type": "unocc",
				"energy": -0.05696,
				"method": "rhf"
			},
			{
				"type": "unocc",
				"energy": -0.02491,
				"method": "rhf"
			}
		],
		"cosmo_sigma_profile": { 
			"-0.025": 0.0,
			"-0.024": 0.0,
			"-0.023": 0.0,
			"-0.022": 0.0,
			"-0.021": 0.0,
			"-0.02": 0.0,
			"-0.019": 0.0,
			"-0.018": 0.0,
			"-0.017": 0.0,
			"-0.016": 0.0,
			"-0.015": 0.0,
			"-0.014": 0.0,
			"-0.013": 0.0,
			"-0.012": 0.0,
			"-0.011": 0.0,
			"-0.01": 0.0,
			"-0.009": 0.0,
			"-0.008": 0.332853937519,
			"-0.007": 14.5539101461,
			"-0.006": 45.0079131155,
			"-0.005": 46.6777521337,
			"-0.004": 46.6553669897,
			"-0.003": 40.3764947696,
			"-0.002": 35.8398599398,
			"-0.001": 36.9264559634,
			"0.0": 40.3051089492,
			"0.001": 51.5519171895,
			"0.002": 63.0616354925,
			"0.003": 50.3045529973,
			"0.004": 34.0005898198,
			"0.005": 12.3659237875,
			"0.006": 8.15888226486,
			"0.007": 7.14490301045,
			"0.008": 5.43703299901,
			"0.009": 5.34585049962,
			"0.01": 4.70516043932,
			"0.011": 7.8833229379,
			"0.012": 7.89497741854,
			"0.013": 4.86766804705,
			"0.014": 1.12397489631,
			"0.015": 0.0,
			"0.016": 0.0,
			"0.017": 0.0,
			"0.018": 0.0,
			"0.019": 0.0,
			"0.02": 0.0,
			"0.021": 0.0,
			"0.022": 0.0,
			"0.023": 0.0,
			"0.024": 0.0,
			"0.025": 0.0
		}
	}
}
