{
	 "smiles": "CC(SC1=NC=CC=C1)C(O)=O", 
	 "Tm": 344.15, 
	 "num_atms": 21, 
	 "gaussian": { 
		 "optdone": 1, 
		 "sigma_profile": "yes", 
		 "theory": "DFT", 
		 "functional": "B3LYP", 
		 "basiset": "6-31G**", 
		 "properties": { 
			 "R2extent": 2690.5618, 
			 "electric_dipole_moment_norm": 2.18628703056, 
			 "electric_quadrupole_moment_norm": 11.7034059209, 
			 "total_energy": -913.671656021, 
			 "HOMO_LUMO_gap": 0.19225, 
			 "cosmo_polarized_energy": -12.52, 
			 "cosmo_cavitation_energy": 26.87, 
			 "cosmo_dispersion_energy": -19.56, 
			 "cosmo_repulsion_energy": 1.54, 
			 "cosmo_total_nonelectrostatic_energy": 8.84, 
			 "SMD_solvation_energy": 5.03 
		},
		"coords": [
			{
				"x": 0.2539164825,
				"y": 3.0779721565,
				"z": 0.8479201287,
				"element": "C" 
			},
			{
				"x": 0.4742696165,
				"y": 1.5732456418,
				"z": 0.6082435707,
				"element": "C" 
			},
			{
				"x": -1.00665956,
				"y": 0.6785775615,
				"z": 1.2211137416,
				"element": "S" 
			},
			{
				"x": -0.6512983924,
				"y": -0.9888651757,
				"z": 0.7001059973,
				"element": "C" 
			},
			{
				"x": 0.5189673589,
				"y": -1.2362637888,
				"z": 0.1112227774,
				"element": "N" 
			},
			{
				"x": 0.7735493074,
				"y": -2.4948797418,
				"z": -0.2779682914,
				"element": "C" 
			},
			{
				"x": -0.1148674911,
				"y": -3.5496011839,
				"z": -0.0970235252,
				"element": "C" 
			},
			{
				"x": -1.3390898915,
				"y": -3.277372061,
				"z": 0.5238969252,
				"element": "C" 
			},
			{
				"x": -1.6213196606,
				"y": -1.9803999827,
				"z": 0.9307885665,
				"element": "C" 
			},
			{
				"x": 1.810657045,
				"y": 1.1542411406,
				"z": 1.2124715208,
				"element": "C" 
			},
			{
				"x": 1.7276244004,
				"y": 0.6683951397,
				"z": 2.4676620936,
				"element": "O" 
			},
			{
				"x": 2.863770407,
				"y": 1.3308672088,
				"z": 0.6412514941,
				"element": "O" 
			},
			{
				"x": 0.1474696015,
				"y": 3.2997175049,
				"z": 1.9138521252,
				"element": "H" 
			},
			{
				"x": 1.1150359846,
				"y": 3.6301469111,
				"z": 0.4620858278,
				"element": "H" 
			},
			{
				"x": -0.6435388974,
				"y": 3.4233948971,
				"z": 0.3285661766,
				"element": "H" 
			},
			{
				"x": 0.5670105709,
				"y": 1.3758399128,
				"z": -0.4606670342,
				"element": "H" 
			},
			{
				"x": 1.7384939133,
				"y": -2.6544682829,
				"z": -0.7550009895,
				"element": "H" 
			},
			{
				"x": 0.1413130568,
				"y": -4.5498010104,
				"z": -0.4296961009,
				"element": "H" 
			},
			{
				"x": -2.0649216441,
				"y": -4.0691037277,
				"z": 0.6864025076,
				"element": "H" 
			},
			{
				"x": -2.5614887094,
				"y": -1.7316735327,
				"z": 1.4125874954,
				"element": "H" 
			},
			{
				"x": 2.6425065018,
				"y": 0.4829304129,
				"z": 2.7380849927,
				"element": "H" 
			}
		],
		 "valence_orbital": [ 
			{
				"type": "occ",
				"energy": -0.30135,
				"method": "rhf"
			},
			{
				"type": "occ",
				"energy": -0.28848,
				"method": "rhf"
			},
			{
				"type": "occ",
				"energy": -0.26896,
				"method": "rhf"
			},
			{
				"type": "occ",
				"energy": -0.26436,
				"method": "rhf"
			},
			{
				"type": "occ",
				"energy": -0.22063,
				"method": "rhf"
			},
			{
				"type": "unocc",
				"energy": -0.02838,
				"method": "rhf"
			},
			{
				"type": "unocc",
				"energy": -0.01459,
				"method": "rhf"
			},
			{
				"type": "unocc",
				"energy": 0.00754,
				"method": "rhf"
			},
			{
				"type": "unocc",
				"energy": 0.03635,
				"method": "rhf"
			},
			{
				"type": "unocc",
				"energy": 0.07762,
				"method": "rhf"
			}
		],
		"cosmo_sigma_profile": { 
			"-0.025": 0.0,
			"-0.024": 0.0,
			"-0.023": 0.0,
			"-0.022": 0.0,
			"-0.021": 0.0,
			"-0.02": 0.0,
			"-0.019": 0.0552408180594,
			"-0.018": 0.940306214315,
			"-0.017": 0.726702599121,
			"-0.016": 0.94370675112,
			"-0.015": 1.07922087876,
			"-0.014": 0.823204156588,
			"-0.013": 0.285689664034,
			"-0.012": 0.227957435848,
			"-0.011": 0.957871278913,
			"-0.01": 0.748483353786,
			"-0.009": 0.590160033863,
			"-0.008": 1.65210828846,
			"-0.007": 8.73342251976,
			"-0.006": 10.9815486658,
			"-0.005": 16.2695490828,
			"-0.004": 14.8159044688,
			"-0.003": 16.0563022026,
			"-0.002": 17.5044715878,
			"-0.001": 14.5316723603,
			"0.0": 10.8767860688,
			"0.001": 12.8089528084,
			"0.002": 18.6334567719,
			"0.003": 13.7865385491,
			"0.004": 8.6126392467,
			"0.005": 6.35445149745,
			"0.006": 5.9126763633,
			"0.007": 6.71472064563,
			"0.008": 3.5129826163,
			"0.009": 5.26585262284,
			"0.01": 4.06177850854,
			"0.011": 5.20214117667,
			"0.012": 4.90284187363,
			"0.013": 0.650910624946,
			"0.014": 0.0,
			"0.015": 0.0,
			"0.016": 0.0,
			"0.017": 0.0,
			"0.018": 0.0,
			"0.019": 0.0,
			"0.02": 0.0,
			"0.021": 0.0,
			"0.022": 0.0,
			"0.023": 0.0,
			"0.024": 0.0,
			"0.025": 0.0
		}
	}
}
