{
	 "smiles": "CC1=C(C(Cl)=O)C(=NO1)C1=CC=CC=C1", 
	 "Tm": 297.65, 
	 "num_atms": 23, 
	 "gaussian": { 
		 "optdone": 1, 
		 "sigma_profile": "yes", 
		 "theory": "DFT", 
		 "functional": "B3LYP", 
		 "basiset": "6-31G**", 
		 "properties": { 
			 "R2extent": 3779.1073, 
			 "electric_dipole_moment_norm": 0.815043366944, 
			 "electric_quadrupole_moment_norm": 20.2345665948, 
			 "total_energy": -1089.34411632, 
			 "HOMO_LUMO_gap": 0.18649, 
			 "cosmo_polarized_energy": -9.47, 
			 "cosmo_cavitation_energy": 29.8, 
			 "cosmo_dispersion_energy": -21.37, 
			 "cosmo_repulsion_energy": 1.68, 
			 "cosmo_total_nonelectrostatic_energy": 10.1, 
			 "SMD_solvation_energy": 5.64 
		},
		"coords": [
			{
				"x": 0.7256131346,
				"y": -0.3006842275,
				"z": 3.3734303973,
				"element": "C" 
			},
			{
				"x": 1.0186361398,
				"y": -0.2316283545,
				"z": 1.917693174,
				"element": "C" 
			},
			{
				"x": 0.3044086759,
				"y": 0.225361618,
				"z": 0.824892566,
				"element": "C" 
			},
			{
				"x": -0.9928643806,
				"y": 0.8707449398,
				"z": 0.9961834892,
				"element": "C" 
			},
			{
				"x": -1.4956491245,
				"y": 1.9905024931,
				"z": -0.3409034651,
				"element": "Cl" 
			},
			{
				"x": -1.6954202946,
				"y": 0.7663408179,
				"z": 1.9633587877,
				"element": "O" 
			},
			{
				"x": 1.188225545,
				"y": -0.0115810704,
				"z": -0.2942046354,
				"element": "C" 
			},
			{
				"x": 2.3160904929,
				"y": -0.5518393107,
				"z": 0.1135387197,
				"element": "N" 
			},
			{
				"x": 2.2091921673,
				"y": -0.6704937661,
				"z": 1.5129776366,
				"element": "O" 
			},
			{
				"x": 1.0153224862,
				"y": 0.1931484274,
				"z": -1.7488531346,
				"element": "C" 
			},
			{
				"x": -0.1486190946,
				"y": -0.2287353686,
				"z": -2.4072708087,
				"element": "C" 
			},
			{
				"x": -0.2625802105,
				"y": -0.0870199108,
				"z": -3.7886399116,
				"element": "C" 
			},
			{
				"x": 0.7821373419,
				"y": 0.4757103228,
				"z": -4.5252369888,
				"element": "C" 
			},
			{
				"x": 1.946473913,
				"y": 0.8901338962,
				"z": -3.8759844467,
				"element": "C" 
			},
			{
				"x": 2.0665035391,
				"y": 0.7462681915,
				"z": -2.4947203049,
				"element": "C" 
			},
			{
				"x": 0.1065448444,
				"y": -1.1771683491,
				"z": 3.5940534761,
				"element": "H" 
			},
			{
				"x": 0.1589281596,
				"y": 0.5763874458,
				"z": 3.6914670278,
				"element": "H" 
			},
			{
				"x": 1.6570094271,
				"y": -0.377540614,
				"z": 3.9378222196,
				"element": "H" 
			},
			{
				"x": -0.9590192884,
				"y": -0.676046296,
				"z": -1.8410335832,
				"element": "H" 
			},
			{
				"x": -1.1668954482,
				"y": -0.4186949136,
				"z": -4.2899158983,
				"element": "H" 
			},
			{
				"x": 0.6891244655,
				"y": 0.5887284903,
				"z": -5.6014431695,
				"element": "H" 
			},
			{
				"x": 2.7625808078,
				"y": 1.3262141094,
				"z": -4.4443604261,
				"element": "H" 
			},
			{
				"x": 2.9698567012,
				"y": 1.0618914289,
				"z": -1.9836507209,
				"element": "H" 
			}
		],
		 "valence_orbital": [ 
			{
				"type": "occ",
				"energy": -0.31822,
				"method": "rhf"
			},
			{
				"type": "occ",
				"energy": -0.29726,
				"method": "rhf"
			},
			{
				"type": "occ",
				"energy": -0.28077,
				"method": "rhf"
			},
			{
				"type": "occ",
				"energy": -0.25935,
				"method": "rhf"
			},
			{
				"type": "occ",
				"energy": -0.2533,
				"method": "rhf"
			},
			{
				"type": "unocc",
				"energy": -0.06681,
				"method": "rhf"
			},
			{
				"type": "unocc",
				"energy": -0.04178,
				"method": "rhf"
			},
			{
				"type": "unocc",
				"energy": -0.01051,
				"method": "rhf"
			},
			{
				"type": "unocc",
				"energy": -0.00213,
				"method": "rhf"
			},
			{
				"type": "unocc",
				"energy": 0.02044,
				"method": "rhf"
			}
		],
		"cosmo_sigma_profile": { 
			"-0.025": 0.0,
			"-0.024": 0.0,
			"-0.023": 0.0,
			"-0.022": 0.0,
			"-0.021": 0.0,
			"-0.02": 0.0,
			"-0.019": 0.0,
			"-0.018": 0.0,
			"-0.017": 0.0,
			"-0.016": 0.0,
			"-0.015": 0.0,
			"-0.014": 0.0,
			"-0.013": 0.0,
			"-0.012": 0.0,
			"-0.011": 0.0,
			"-0.01": 0.0,
			"-0.009": 0.0354508012003,
			"-0.008": 1.47859909064,
			"-0.007": 7.8797232667,
			"-0.006": 17.0853261296,
			"-0.005": 20.0282068738,
			"-0.004": 22.5588695984,
			"-0.003": 20.3089747039,
			"-0.002": 18.1328487313,
			"-0.001": 12.5686874694,
			"0.0": 12.3414342444,
			"0.001": 12.9166895268,
			"0.002": 14.7645961143,
			"0.003": 17.2874319471,
			"0.004": 23.1134372372,
			"0.005": 15.0677013232,
			"0.006": 7.34995342338,
			"0.007": 4.88941313843,
			"0.008": 4.54443629687,
			"0.009": 4.58688880441,
			"0.01": 2.1308060107,
			"0.011": 0.684631722991,
			"0.012": 1.42614742259,
			"0.013": 0.477915538779,
			"0.014": 0.0,
			"0.015": 0.0,
			"0.016": 0.0,
			"0.017": 0.0,
			"0.018": 0.0,
			"0.019": 0.0,
			"0.02": 0.0,
			"0.021": 0.0,
			"0.022": 0.0,
			"0.023": 0.0,
			"0.024": 0.0,
			"0.025": 0.0
		}
	}
}
