{
	 "smiles": "CCCCCCCCOC(=O)CCCC", 
	 "Tm": 230.85, 
	 "num_atms": 41, 
	 "gaussian": { 
		 "optdone": 1, 
		 "sigma_profile": "yes", 
		 "theory": "DFT", 
		 "functional": "B3LYP", 
		 "basiset": "6-31G**", 
		 "properties": { 
			 "R2extent": 6709.2905, 
			 "electric_dipole_moment_norm": 1.95298870452, 
			 "electric_quadrupole_moment_norm": 11.4242990739, 
			 "total_energy": -661.549231567, 
			 "HOMO_LUMO_gap": 0.27787, 
			 "cosmo_polarized_energy": -6.36, 
			 "cosmo_cavitation_energy": 42.08, 
			 "cosmo_dispersion_energy": -28.42, 
			 "cosmo_repulsion_energy": 2.37, 
			 "cosmo_total_nonelectrostatic_energy": 16.02, 
			 "SMD_solvation_energy": 7.1 
		},
		"coords": [
			{
				"x": 1.2791441071,
				"y": 1.3369064386,
				"z": -4.9525398758,
				"element": "C" 
			},
			{
				"x": 1.4719466358,
				"y": -0.1440710217,
				"z": -4.5989301934,
				"element": "C" 
			},
			{
				"x": 2.7346298576,
				"y": -0.4645714468,
				"z": -3.76868459,
				"element": "C" 
			},
			{
				"x": 2.5758892626,
				"y": -0.4175442999,
				"z": -2.2380834603,
				"element": "C" 
			},
			{
				"x": 2.2446106581,
				"y": 0.9512757669,
				"z": -1.6274079353,
				"element": "C" 
			},
			{
				"x": 2.2483770176,
				"y": 0.9362173423,
				"z": -0.0930029332,
				"element": "C" 
			},
			{
				"x": 1.9009808828,
				"y": 2.2962923019,
				"z": 0.5245102389,
				"element": "C" 
			},
			{
				"x": 1.8995374437,
				"y": 2.3079275479,
				"z": 2.0502638775,
				"element": "C" 
			},
			{
				"x": 0.9289086982,
				"y": 1.3844990765,
				"z": 2.6011095341,
				"element": "O" 
			},
			{
				"x": -0.3352035758,
				"y": 1.8509215031,
				"z": 2.7514144493,
				"element": "C" 
			},
			{
				"x": -0.6790950355,
				"y": 2.975069472,
				"z": 2.4528203451,
				"element": "O" 
			},
			{
				"x": -1.2404591814,
				"y": 0.7880883636,
				"z": 3.3410976664,
				"element": "C" 
			},
			{
				"x": -1.3653837466,
				"y": -0.4680411702,
				"z": 2.4592929542,
				"element": "C" 
			},
			{
				"x": -2.3042473307,
				"y": -1.5206028988,
				"z": 3.061651219,
				"element": "C" 
			},
			{
				"x": -2.4351600596,
				"y": -2.7729148296,
				"z": 2.1891601444,
				"element": "C" 
			},
			{
				"x": 2.1339336396,
				"y": 1.7135809381,
				"z": -5.5261917566,
				"element": "H" 
			},
			{
				"x": 0.3821312159,
				"y": 1.4807626163,
				"z": -5.5646518756,
				"element": "H" 
			},
			{
				"x": 1.1773427514,
				"y": 1.9678161206,
				"z": -4.0651100432,
				"element": "H" 
			},
			{
				"x": 1.5174659761,
				"y": -0.7115639511,
				"z": -5.5370005689,
				"element": "H" 
			},
			{
				"x": 0.5847626357,
				"y": -0.5183396537,
				"z": -4.069439831,
				"element": "H" 
			},
			{
				"x": 3.5491047774,
				"y": 0.2083827158,
				"z": -4.0730803469,
				"element": "H" 
			},
			{
				"x": 3.073467138,
				"y": -1.4758461171,
				"z": -4.0271649361,
				"element": "H" 
			},
			{
				"x": 1.800327059,
				"y": -1.1377417349,
				"z": -1.9397123656,
				"element": "H" 
			},
			{
				"x": 3.5100316831,
				"y": -0.7816208311,
				"z": -1.7875956603,
				"element": "H" 
			},
			{
				"x": 1.2600101352,
				"y": 1.2886346968,
				"z": -1.9751049561,
				"element": "H" 
			},
			{
				"x": 2.9681378692,
				"y": 1.6975054015,
				"z": -1.9863573208,
				"element": "H" 
			},
			{
				"x": 1.5358761751,
				"y": 0.1834909201,
				"z": 0.2673744127,
				"element": "H" 
			},
			{
				"x": 3.2372347294,
				"y": 0.6155123203,
				"z": 0.265707291,
				"element": "H" 
			},
			{
				"x": 2.627918169,
				"y": 3.0509526521,
				"z": 0.1930406569,
				"element": "H" 
			},
			{
				"x": 0.9203879373,
				"y": 2.6374818868,
				"z": 0.1725878003,
				"element": "H" 
			},
			{
				"x": 2.8579926859,
				"y": 1.9636821761,
				"z": 2.449626976,
				"element": "H" 
			},
			{
				"x": 1.6839413816,
				"y": 3.3095661924,
				"z": 2.4295606526,
				"element": "H" 
			},
			{
				"x": -2.2172737636,
				"y": 1.2529165027,
				"z": 3.4980345295,
				"element": "H" 
			},
			{
				"x": -0.8389062307,
				"y": 0.5030350005,
				"z": 4.3217451559,
				"element": "H" 
			},
			{
				"x": -1.7329412674,
				"y": -0.1780296688,
				"z": 1.4658094686,
				"element": "H" 
			},
			{
				"x": -0.3696103599,
				"y": -0.9011437996,
				"z": 2.3105432926,
				"element": "H" 
			},
			{
				"x": -1.9376370709,
				"y": -1.8033959432,
				"z": 4.0578486518,
				"element": "H" 
			},
			{
				"x": -3.2963186186,
				"y": -1.075941382,
				"z": 3.2174538154,
				"element": "H" 
			},
			{
				"x": -1.4632270082,
				"y": -3.2578022442,
				"z": 2.0435016502,
				"element": "H" 
			},
			{
				"x": -3.1083220387,
				"y": -3.5069311103,
				"z": 2.6436143476,
				"element": "H" 
			},
			{
				"x": -2.8328052348,
				"y": -2.5258158499,
				"z": 1.198289519,
				"element": "H" 
			}
		],
		 "valence_orbital": [ 
			{
				"type": "occ",
				"energy": -0.31679,
				"method": "rhf"
			},
			{
				"type": "occ",
				"energy": -0.30788,
				"method": "rhf"
			},
			{
				"type": "occ",
				"energy": -0.30425,
				"method": "rhf"
			},
			{
				"type": "occ",
				"energy": -0.28842,
				"method": "rhf"
			},
			{
				"type": "occ",
				"energy": -0.26202,
				"method": "rhf"
			},
			{
				"type": "unocc",
				"energy": 0.01585,
				"method": "rhf"
			},
			{
				"type": "unocc",
				"energy": 0.08444,
				"method": "rhf"
			},
			{
				"type": "unocc",
				"energy": 0.08969,
				"method": "rhf"
			},
			{
				"type": "unocc",
				"energy": 0.10089,
				"method": "rhf"
			},
			{
				"type": "unocc",
				"energy": 0.10997,
				"method": "rhf"
			}
		],
		"cosmo_sigma_profile": { 
			"-0.025": 0.0,
			"-0.024": 0.0,
			"-0.023": 0.0,
			"-0.022": 0.0,
			"-0.021": 0.0,
			"-0.02": 0.0,
			"-0.019": 0.0,
			"-0.018": 0.0,
			"-0.017": 0.0,
			"-0.016": 0.0,
			"-0.015": 0.0,
			"-0.014": 0.0,
			"-0.013": 0.0,
			"-0.012": 0.0,
			"-0.011": 0.0,
			"-0.01": 0.0,
			"-0.009": 0.0,
			"-0.008": 0.0,
			"-0.007": 0.0,
			"-0.006": 0.520604755675,
			"-0.005": 5.48734341342,
			"-0.004": 11.6766027643,
			"-0.003": 26.606520158,
			"-0.002": 53.8817953511,
			"-0.001": 63.6272328339,
			"0.0": 61.7868280678,
			"0.001": 46.5430292689,
			"0.002": 22.2970624757,
			"0.003": 4.83854491841,
			"0.004": 3.44054817637,
			"0.005": 2.88267106485,
			"0.006": 2.50495100619,
			"0.007": 2.10624972147,
			"0.008": 2.52556249202,
			"0.009": 2.16422205589,
			"0.01": 1.57028900415,
			"0.011": 2.32395064343,
			"0.012": 4.34056532933,
			"0.013": 2.35496768521,
			"0.014": 0.117274717911,
			"0.015": 0.0,
			"0.016": 0.0,
			"0.017": 0.0,
			"0.018": 0.0,
			"0.019": 0.0,
			"0.02": 0.0,
			"0.021": 0.0,
			"0.022": 0.0,
			"0.023": 0.0,
			"0.024": 0.0,
			"0.025": 0.0
		}
	}
}
