{
	 "smiles": "NC(=O)C1=CN=CS1", 
	 "Tm": 468.15, 
	 "num_atms": 12, 
	 "gaussian": { 
		 "optdone": 1, 
		 "sigma_profile": "yes", 
		 "theory": "DFT", 
		 "functional": "B3LYP", 
		 "basiset": "6-31G**", 
		 "properties": { 
			 "R2extent": 1914.2977, 
			 "electric_dipole_moment_norm": 4.15046537873, 
			 "electric_quadrupole_moment_norm": 11.3816993059, 
			 "total_energy": -737.747980353, 
			 "HOMO_LUMO_gap": 0.20012, 
			 "cosmo_polarized_energy": -14.38, 
			 "cosmo_cavitation_energy": 18.35, 
			 "cosmo_dispersion_energy": -14.39, 
			 "cosmo_repulsion_energy": 1.15, 
			 "cosmo_total_nonelectrostatic_energy": 5.1, 
			 "SMD_solvation_energy": 2.71 
		},
		"coords": [
			{
				"x": 0.6218046238,
				"y": -2.9992578074,
				"z": 0.1938492698,
				"element": "N" 
			},
			{
				"x": -0.7412700366,
				"y": -2.9325463888,
				"z": 0.1237022488,
				"element": "C" 
			},
			{
				"x": -1.4591410359,
				"y": -3.8992281817,
				"z": 0.3471507607,
				"element": "O" 
			},
			{
				"x": -1.3355600828,
				"y": -1.617727682,
				"z": -0.2436517878,
				"element": "C" 
			},
			{
				"x": -2.6838260581,
				"y": -1.3883331602,
				"z": -0.3576568747,
				"element": "C" 
			},
			{
				"x": -3.0635865748,
				"y": -0.1178572408,
				"z": -0.70490613,
				"element": "N" 
			},
			{
				"x": -2.0203014343,
				"y": 0.6441089464,
				"z": -0.8623979057,
				"element": "C" 
			},
			{
				"x": -0.4796152592,
				"y": -0.1358015542,
				"z": -0.5962777607,
				"element": "S" 
			},
			{
				"x": 1.2303987404,
				"y": -2.2178838873,
				"z": 0.0128479584,
				"element": "H" 
			},
			{
				"x": 1.0291417447,
				"y": -3.8878278814,
				"z": 0.4412701796,
				"element": "H" 
			},
			{
				"x": -3.4277460948,
				"y": -2.1562185313,
				"z": -0.1867983095,
				"element": "H" 
			},
			{
				"x": -2.0623985324,
				"y": 1.6914733686,
				"z": -1.1377316489,
				"element": "H" 
			}
		],
		 "valence_orbital": [ 
			{
				"type": "occ",
				"energy": -0.29833,
				"method": "rhf"
			},
			{
				"type": "occ",
				"energy": -0.28756,
				"method": "rhf"
			},
			{
				"type": "occ",
				"energy": -0.27801,
				"method": "rhf"
			},
			{
				"type": "occ",
				"energy": -0.26373,
				"method": "rhf"
			},
			{
				"type": "occ",
				"energy": -0.26003,
				"method": "rhf"
			},
			{
				"type": "unocc",
				"energy": -0.05991,
				"method": "rhf"
			},
			{
				"type": "unocc",
				"energy": -0.00465,
				"method": "rhf"
			},
			{
				"type": "unocc",
				"energy": 0.01569,
				"method": "rhf"
			},
			{
				"type": "unocc",
				"energy": 0.06527,
				"method": "rhf"
			},
			{
				"type": "unocc",
				"energy": 0.09322,
				"method": "rhf"
			}
		],
		"cosmo_sigma_profile": { 
			"-0.025": 0.0,
			"-0.024": 0.0,
			"-0.023": 0.0,
			"-0.022": 0.0,
			"-0.021": 0.0,
			"-0.02": 0.0,
			"-0.019": 0.0,
			"-0.018": 0.0,
			"-0.017": 0.0,
			"-0.016": 0.00468437746409,
			"-0.015": 0.791507137636,
			"-0.014": 2.15593563631,
			"-0.013": 2.41601020196,
			"-0.012": 2.01155025214,
			"-0.011": 3.87727813867,
			"-0.01": 4.32524783971,
			"-0.009": 4.20348052498,
			"-0.008": 4.22584906122,
			"-0.007": 4.50688827228,
			"-0.006": 4.52627255423,
			"-0.005": 5.44133679139,
			"-0.004": 4.72943446569,
			"-0.003": 5.07343667694,
			"-0.002": 7.11927571825,
			"-0.001": 11.3421592685,
			"0.0": 15.0419089465,
			"0.001": 14.8294702028,
			"0.002": 10.5564789809,
			"0.003": 5.48693794066,
			"0.004": 4.28700854708,
			"0.005": 2.91876692926,
			"0.006": 3.88001186117,
			"0.007": 1.92492255101,
			"0.008": 2.08028686507,
			"0.009": 2.99859541129,
			"0.01": 2.35708929015,
			"0.011": 2.41265060393,
			"0.012": 3.4235933658,
			"0.013": 6.60820929845,
			"0.014": 3.52553210217,
			"0.015": 0.419923877312,
			"0.016": 0.0,
			"0.017": 0.0,
			"0.018": 0.0,
			"0.019": 0.0,
			"0.02": 0.0,
			"0.021": 0.0,
			"0.022": 0.0,
			"0.023": 0.0,
			"0.024": 0.0,
			"0.025": 0.0
		}
	}
}
