{
	 "smiles": "NCC1=CC=C(C=C1)C(O)=O", 
	 "Tm": 573.15, 
	 "num_atms": 20, 
	 "gaussian": { 
		 "optdone": 1, 
		 "sigma_profile": "yes", 
		 "theory": "DFT", 
		 "functional": "B3LYP", 
		 "basiset": "6-31G**", 
		 "properties": { 
			 "R2extent": 3014.1564, 
			 "electric_dipole_moment_norm": 3.93671443846, 
			 "electric_quadrupole_moment_norm": 29.2050931558, 
			 "total_energy": -515.479372983, 
			 "HOMO_LUMO_gap": 0.19051, 
			 "cosmo_polarized_energy": -17.52, 
			 "cosmo_cavitation_energy": 24.35, 
			 "cosmo_dispersion_energy": -17.76, 
			 "cosmo_repulsion_energy": 1.44, 
			 "cosmo_total_nonelectrostatic_energy": 8.03, 
			 "SMD_solvation_energy": 3.87 
		},
		"coords": [
			{
				"x": -2.912047848,
				"y": -0.6997584877,
				"z": -1.397108465,
				"element": "N" 
			},
			{
				"x": -1.6268782849,
				"y": -1.3961298791,
				"z": -1.5618911013,
				"element": "C" 
			},
			{
				"x": -0.3949996442,
				"y": -0.5136169081,
				"z": -1.4527659014,
				"element": "C" 
			},
			{
				"x": 0.1817947962,
				"y": -0.2356400207,
				"z": -0.2034820948,
				"element": "C" 
			},
			{
				"x": 1.2748301262,
				"y": 0.6163663594,
				"z": -0.0912868205,
				"element": "C" 
			},
			{
				"x": 1.8147745935,
				"y": 1.2294558699,
				"z": -1.2307299063,
				"element": "C" 
			},
			{
				"x": 1.2569392557,
				"y": 0.9427543225,
				"z": -2.4846526541,
				"element": "C" 
			},
			{
				"x": 0.167199275,
				"y": 0.0803485788,
				"z": -2.5906237338,
				"element": "C" 
			},
			{
				"x": 2.9968669442,
				"y": 2.1310455756,
				"z": -1.0425332344,
				"element": "C" 
			},
			{
				"x": 3.2674842689,
				"y": 3.006411944,
				"z": -2.0489416252,
				"element": "O" 
			},
			{
				"x": 3.69695121,
				"y": 2.1118515589,
				"z": -0.057362566,
				"element": "O" 
			},
			{
				"x": -2.9840987374,
				"y": 0.0482642872,
				"z": -2.084000606,
				"element": "H" 
			},
			{
				"x": -2.9383269374,
				"y": -0.2439249155,
				"z": -0.4871550156,
				"element": "H" 
			},
			{
				"x": -1.5794414124,
				"y": -2.1887375148,
				"z": -0.806875341,
				"element": "H" 
			},
			{
				"x": -1.6387586711,
				"y": -1.8917059981,
				"z": -2.5390360335,
				"element": "H" 
			},
			{
				"x": -0.2275369708,
				"y": -0.702933116,
				"z": 0.6893605999,
				"element": "H" 
			},
			{
				"x": 1.734142202,
				"y": 0.8206530197,
				"z": 0.8700034837,
				"element": "H" 
			},
			{
				"x": 1.6924637576,
				"y": 1.3495209587,
				"z": -3.3947756344,
				"element": "H" 
			},
			{
				"x": -0.2437157111,
				"y": -0.1460248043,
				"z": -3.571653316,
				"element": "H" 
			},
			{
				"x": 2.539157788,
				"y": 3.0188991693,
				"z": -2.6848900341,
				"element": "H" 
			}
		],
		 "valence_orbital": [ 
			{
				"type": "occ",
				"energy": -0.31616,
				"method": "rhf"
			},
			{
				"type": "occ",
				"energy": -0.27798,
				"method": "rhf"
			},
			{
				"type": "occ",
				"energy": -0.27437,
				"method": "rhf"
			},
			{
				"type": "occ",
				"energy": -0.26818,
				"method": "rhf"
			},
			{
				"type": "occ",
				"energy": -0.2436,
				"method": "rhf"
			},
			{
				"type": "unocc",
				"energy": -0.05309,
				"method": "rhf"
			},
			{
				"type": "unocc",
				"energy": -0.02498,
				"method": "rhf"
			},
			{
				"type": "unocc",
				"energy": 0.0434,
				"method": "rhf"
			},
			{
				"type": "unocc",
				"energy": 0.06069,
				"method": "rhf"
			},
			{
				"type": "unocc",
				"energy": 0.07856,
				"method": "rhf"
			}
		],
		"cosmo_sigma_profile": { 
			"-0.025": 0.0,
			"-0.024": 0.0,
			"-0.023": 0.0,
			"-0.022": 0.0,
			"-0.021": 0.0,
			"-0.02": 0.0,
			"-0.019": 0.0774343939131,
			"-0.018": 0.886427639074,
			"-0.017": 0.818328658568,
			"-0.016": 1.00196044343,
			"-0.015": 0.89562710375,
			"-0.014": 0.884907459317,
			"-0.013": 0.579099281944,
			"-0.012": 1.62648305481,
			"-0.011": 1.20185168439,
			"-0.01": 2.16614469547,
			"-0.009": 3.77804335711,
			"-0.008": 4.2041229872,
			"-0.007": 6.19662190663,
			"-0.006": 13.0237713486,
			"-0.005": 14.7689655774,
			"-0.004": 13.4281933244,
			"-0.003": 11.9666645783,
			"-0.002": 11.6816822716,
			"-0.001": 10.3939324796,
			"0.0": 10.0038961125,
			"0.001": 9.61788340763,
			"0.002": 10.4474637473,
			"0.003": 12.5711995264,
			"0.004": 10.7466106647,
			"0.005": 2.39678746229,
			"0.006": 2.70783511764,
			"0.007": 3.48164058071,
			"0.008": 3.81346148013,
			"0.009": 3.35423725719,
			"0.01": 5.21678323224,
			"0.011": 6.35284240336,
			"0.012": 5.93814853863,
			"0.013": 2.21810556297,
			"0.014": 0.617334496639,
			"0.015": 1.2791048079,
			"0.016": 0.537430004517,
			"0.017": 0.539458279541,
			"0.018": 0.608384874186,
			"0.019": 0.676371063555,
			"0.02": 0.110842099443,
			"0.021": 0.0,
			"0.022": 0.0,
			"0.023": 0.0,
			"0.024": 0.0,
			"0.025": 0.0
		}
	}
}
