{
	 "smiles": "C[Si](C)(C)C[Si](C)(C)C", 
	 "Tm": 202.15, 
	 "num_atms": 29, 
	 "gaussian": { 
		 "optdone": 1, 
		 "sigma_profile": "yes", 
		 "theory": "DFT", 
		 "functional": "B3LYP", 
		 "basiset": "6-31G**", 
		 "properties": { 
			 "R2extent": 2644.2569, 
			 "electric_dipole_moment_norm": 0.100865157512, 
			 "electric_quadrupole_moment_norm": 0.255692295543, 
			 "total_energy": -857.889260529, 
			 "HOMO_LUMO_gap": 0.3285, 
			 "cosmo_polarized_energy": -1.53, 
			 "cosmo_cavitation_energy": 32.69, 
			 "cosmo_dispersion_energy": -18.01, 
			 "cosmo_repulsion_energy": 1.69, 
			 "cosmo_total_nonelectrostatic_energy": 16.37, 
			 "SMD_solvation_energy": 8.31 
		},
		"coords": [
			{
				"x": -0.4149833085,
				"y": 1.3669596202,
				"z": 1.8316506706,
				"element": "C" 
			},
			{
				"x": 0.1931757833,
				"y": 0.0317630188,
				"z": 0.6288850654,
				"element": "Si" 
			},
			{
				"x": 2.085203544,
				"y": 0.1154219592,
				"z": 0.5461896087,
				"element": "C" 
			},
			{
				"x": -0.3263479995,
				"y": -1.6632496627,
				"z": 1.3020117933,
				"element": "C" 
			},
			{
				"x": -0.5546952111,
				"y": 0.376082095,
				"z": -1.08115314,
				"element": "C" 
			},
			{
				"x": -0.5227370019,
				"y": -0.9088765337,
				"z": -2.4778654861,
				"element": "Si" 
			},
			{
				"x": -1.811226738,
				"y": -2.2611341496,
				"z": -2.1544246913,
				"element": "C" 
			},
			{
				"x": -0.9612009779,
				"y": -0.0379269618,
				"z": -4.1052930942,
				"element": "C" 
			},
			{
				"x": 1.1858146741,
				"y": -1.7093621073,
				"z": -2.6671013504,
				"element": "C" 
			},
			{
				"x": -0.1381368994,
				"y": 2.3700057637,
				"z": 1.4877739712,
				"element": "H" 
			},
			{
				"x": 0.0154323051,
				"y": 1.2297813897,
				"z": 2.8303262004,
				"element": "H" 
			},
			{
				"x": -1.5056845682,
				"y": 1.3444994547,
				"z": 1.9366534609,
				"element": "H" 
			},
			{
				"x": 2.5021498989,
				"y": -0.6500557928,
				"z": -0.1160669527,
				"element": "H" 
			},
			{
				"x": 2.5255139104,
				"y": -0.0306640127,
				"z": 1.5391767119,
				"element": "H" 
			},
			{
				"x": 2.4233961326,
				"y": 1.0907139677,
				"z": 0.1778670597,
				"element": "H" 
			},
			{
				"x": -1.4164788835,
				"y": -1.7689810175,
				"z": 1.3333493905,
				"element": "H" 
			},
			{
				"x": 0.046716243,
				"y": -1.8042250172,
				"z": 2.322940152,
				"element": "H" 
			},
			{
				"x": 0.0687216995,
				"y": -2.483667369,
				"z": 0.6930901101,
				"element": "H" 
			},
			{
				"x": -0.0682721686,
				"y": 1.2883521236,
				"z": -1.4579241315,
				"element": "H" 
			},
			{
				"x": -1.6095226546,
				"y": 0.6521501813,
				"z": -0.93317998,
				"element": "H" 
			},
			{
				"x": -1.5987495412,
				"y": -2.8209593664,
				"z": -1.2379842899,
				"element": "H" 
			},
			{
				"x": -1.8386251615,
				"y": -2.9793013521,
				"z": -2.9819087247,
				"element": "H" 
			},
			{
				"x": -2.8165008457,
				"y": -1.8357279075,
				"z": -2.056087982,
				"element": "H" 
			},
			{
				"x": -1.9447773353,
				"y": 0.4420443215,
				"z": -4.0485774533,
				"element": "H" 
			},
			{
				"x": -0.9867333587,
				"y": -0.7453765193,
				"z": -4.9421214205,
				"element": "H" 
			},
			{
				"x": -0.2295357577,
				"y": 0.7395865563,
				"z": -4.3528985188,
				"element": "H" 
			},
			{
				"x": 1.4599111481,
				"y": -2.3005480566,
				"z": -1.7865901699,
				"element": "H" 
			},
			{
				"x": 1.9694534082,
				"y": -0.958908365,
				"z": -2.8195751006,
				"element": "H" 
			},
			{
				"x": 1.203119664,
				"y": -2.3825962604,
				"z": -3.5318617092,
				"element": "H" 
			}
		],
		 "valence_orbital": [ 
			{
				"type": "occ",
				"energy": -0.29643,
				"method": "rhf"
			},
			{
				"type": "occ",
				"energy": -0.29015,
				"method": "rhf"
			},
			{
				"type": "occ",
				"energy": -0.28724,
				"method": "rhf"
			},
			{
				"type": "occ",
				"energy": -0.27927,
				"method": "rhf"
			},
			{
				"type": "occ",
				"energy": -0.26795,
				"method": "rhf"
			},
			{
				"type": "unocc",
				"energy": 0.06055,
				"method": "rhf"
			},
			{
				"type": "unocc",
				"energy": 0.08673,
				"method": "rhf"
			},
			{
				"type": "unocc",
				"energy": 0.0913,
				"method": "rhf"
			},
			{
				"type": "unocc",
				"energy": 0.09746,
				"method": "rhf"
			},
			{
				"type": "unocc",
				"energy": 0.1011,
				"method": "rhf"
			}
		],
		"cosmo_sigma_profile": { 
			"-0.025": 0.0,
			"-0.024": 0.0,
			"-0.023": 0.0,
			"-0.022": 0.0,
			"-0.021": 0.0,
			"-0.02": 0.0,
			"-0.019": 0.0,
			"-0.018": 0.0,
			"-0.017": 0.0,
			"-0.016": 0.0,
			"-0.015": 0.0,
			"-0.014": 0.0,
			"-0.013": 0.0,
			"-0.012": 0.0,
			"-0.011": 0.0,
			"-0.01": 0.0,
			"-0.009": 0.0,
			"-0.008": 0.0,
			"-0.007": 0.0,
			"-0.006": 0.0,
			"-0.005": 0.0,
			"-0.004": 0.282856449806,
			"-0.003": 20.3823648351,
			"-0.002": 38.2880309434,
			"-0.001": 46.6641956637,
			"0.0": 40.3793428951,
			"0.001": 34.1826537199,
			"0.002": 42.7154068148,
			"0.003": 17.4822483419,
			"0.004": 3.65096740123,
			"0.005": 0.0,
			"0.006": 0.0,
			"0.007": 0.0,
			"0.008": 0.0,
			"0.009": 0.0,
			"0.01": 0.0,
			"0.011": 0.0,
			"0.012": 0.0,
			"0.013": 0.0,
			"0.014": 0.0,
			"0.015": 0.0,
			"0.016": 0.0,
			"0.017": 0.0,
			"0.018": 0.0,
			"0.019": 0.0,
			"0.02": 0.0,
			"0.021": 0.0,
			"0.022": 0.0,
			"0.023": 0.0,
			"0.024": 0.0,
			"0.025": 0.0
		}
	}
}
