{
	 "smiles": "OC1=CC=C(NC2=NN=NS2)C=C1", 
	 "Tm": 433.15, 
	 "num_atms": 19, 
	 "gaussian": { 
		 "optdone": 1, 
		 "sigma_profile": "yes", 
		 "theory": "DFT", 
		 "functional": "B3LYP", 
		 "basiset": "6-31G**", 
		 "properties": { 
			 "R2extent": 5632.209, 
			 "electric_dipole_moment_norm": 6.60084427479, 
			 "electric_quadrupole_moment_norm": 18.2086400401, 
			 "total_energy": -962.710978617, 
			 "HOMO_LUMO_gap": 0.16062, 
			 "cosmo_polarized_energy": -19.49, 
			 "cosmo_cavitation_energy": 25.92, 
			 "cosmo_dispersion_energy": -20.15, 
			 "cosmo_repulsion_energy": 1.52, 
			 "cosmo_total_nonelectrostatic_energy": 7.29, 
			 "SMD_solvation_energy": 2.66 
		},
		"coords": [
			{
				"x": 2.0579567741,
				"y": 3.4794047761,
				"z": -0.6701935921,
				"element": "O" 
			},
			{
				"x": 1.499495501,
				"y": 2.3297758448,
				"z": -1.1515590943,
				"element": "C" 
			},
			{
				"x": 0.1121642462,
				"y": 2.3060937089,
				"z": -1.3265649248,
				"element": "C" 
			},
			{
				"x": -0.5279218865,
				"y": 1.1704003341,
				"z": -1.8127712274,
				"element": "C" 
			},
			{
				"x": 0.224904615,
				"y": 0.0306365437,
				"z": -2.1332987178,
				"element": "C" 
			},
			{
				"x": -0.3341235145,
				"y": -1.1740110219,
				"z": -2.634738332,
				"element": "N" 
			},
			{
				"x": -1.6231984164,
				"y": -1.487033912,
				"z": -2.9016036762,
				"element": "C" 
			},
			{
				"x": -2.6580840888,
				"y": -0.67157453,
				"z": -2.7308844253,
				"element": "N" 
			},
			{
				"x": -3.8123630545,
				"y": -1.2677826829,
				"z": -3.0838585431,
				"element": "N" 
			},
			{
				"x": -3.7849453384,
				"y": -2.4556768288,
				"z": -3.5092355252,
				"element": "N" 
			},
			{
				"x": -2.1130015497,
				"y": -3.0413954881,
				"z": -3.5210513275,
				"element": "S" 
			},
			{
				"x": 1.6143512241,
				"y": 0.0550846825,
				"z": -1.9577258585,
				"element": "C" 
			},
			{
				"x": 2.2499015724,
				"y": 1.1937434638,
				"z": -1.4709884099,
				"element": "C" 
			},
			{
				"x": 3.0141737217,
				"y": 3.3650711096,
				"z": -0.596946359,
				"element": "H" 
			},
			{
				"x": -0.4609669546,
				"y": 3.1923447314,
				"z": -1.0758679684,
				"element": "H" 
			},
			{
				"x": -1.6009302169,
				"y": 1.1595859064,
				"z": -1.945362663,
				"element": "H" 
			},
			{
				"x": 0.3410133751,
				"y": -1.9012579479,
				"z": -2.8163659982,
				"element": "H" 
			},
			{
				"x": 2.2101751928,
				"y": -0.8216382906,
				"z": -2.2022460421,
				"element": "H" 
			},
			{
				"x": 3.3296987979,
				"y": 1.1936296006,
				"z": -1.3414373154,
				"element": "H" 
			}
		],
		 "valence_orbital": [ 
			{
				"type": "occ",
				"energy": -0.2912,
				"method": "rhf"
			},
			{
				"type": "occ",
				"energy": -0.28029,
				"method": "rhf"
			},
			{
				"type": "occ",
				"energy": -0.27631,
				"method": "rhf"
			},
			{
				"type": "occ",
				"energy": -0.26675,
				"method": "rhf"
			},
			{
				"type": "occ",
				"energy": -0.21346,
				"method": "rhf"
			},
			{
				"type": "unocc",
				"energy": -0.05284,
				"method": "rhf"
			},
			{
				"type": "unocc",
				"energy": -0.03596,
				"method": "rhf"
			},
			{
				"type": "unocc",
				"energy": -0.01747,
				"method": "rhf"
			},
			{
				"type": "unocc",
				"energy": 0.0021,
				"method": "rhf"
			},
			{
				"type": "unocc",
				"energy": 0.04068,
				"method": "rhf"
			}
		],
		"cosmo_sigma_profile": { 
			"-0.025": 0.0,
			"-0.024": 0.0,
			"-0.023": 0.0,
			"-0.022": 0.0,
			"-0.021": 0.0,
			"-0.02": 0.0,
			"-0.019": 0.0,
			"-0.018": 0.70699678285,
			"-0.017": 3.01263388397,
			"-0.016": 2.10922511511,
			"-0.015": 2.74411165791,
			"-0.014": 2.99276897858,
			"-0.013": 2.27121810807,
			"-0.012": 1.9798691941,
			"-0.011": 2.37774601011,
			"-0.01": 2.21510367893,
			"-0.009": 2.66148967088,
			"-0.008": 3.1345834987,
			"-0.007": 4.25660812017,
			"-0.006": 5.8919950694,
			"-0.005": 7.24965832,
			"-0.004": 9.0641587848,
			"-0.003": 11.0493075862,
			"-0.002": 11.9779218356,
			"-0.001": 12.7209074026,
			"0.0": 14.6674252636,
			"0.001": 14.2377468443,
			"0.002": 13.8571944672,
			"0.003": 14.1297242747,
			"0.004": 17.2362525446,
			"0.005": 11.5182143279,
			"0.006": 4.69475224787,
			"0.007": 6.07783655119,
			"0.008": 7.55158125406,
			"0.009": 7.28977405452,
			"0.01": 5.28963536537,
			"0.011": 4.62027510815,
			"0.012": 1.76813342103,
			"0.013": 0.0108554144088,
			"0.014": 0.0,
			"0.015": 0.0,
			"0.016": 0.0,
			"0.017": 0.0,
			"0.018": 0.0,
			"0.019": 0.0,
			"0.02": 0.0,
			"0.021": 0.0,
			"0.022": 0.0,
			"0.023": 0.0,
			"0.024": 0.0,
			"0.025": 0.0
		}
	}
}
