{
	 "smiles": "CC(NC(=O)CCl)C1=C2C=CC=CC2=CC=C1", 
	 "Tm": 577.15, 
	 "num_atms": 31, 
	 "gaussian": { 
		 "optdone": 1, 
		 "sigma_profile": "yes", 
		 "theory": "DFT", 
		 "functional": "B3LYP", 
		 "basiset": "6-31G**", 
		 "properties": { 
			 "R2extent": 5913.6903, 
			 "electric_dipole_moment_norm": 4.86390309525, 
			 "electric_quadrupole_moment_norm": 18.7244588766, 
			 "total_energy": -1132.11124339, 
			 "HOMO_LUMO_gap": 0.17409, 
			 "cosmo_polarized_energy": -14.54, 
			 "cosmo_cavitation_energy": 34.67, 
			 "cosmo_dispersion_energy": -24.99, 
			 "cosmo_repulsion_energy": 1.92, 
			 "cosmo_total_nonelectrostatic_energy": 11.6, 
			 "SMD_solvation_energy": 5.57 
		},
		"coords": [
			{
				"x": 1.1198833874,
				"y": 0.2423623741,
				"z": 2.3608915909,
				"element": "C" 
			},
			{
				"x": 0.0952702519,
				"y": -0.7477083431,
				"z": 1.7692619284,
				"element": "C" 
			},
			{
				"x": 0.2551278666,
				"y": -2.121632461,
				"z": 2.2702406546,
				"element": "N" 
			},
			{
				"x": 1.3133873562,
				"y": -2.9847322172,
				"z": 2.3974767645,
				"element": "C" 
			},
			{
				"x": 1.1427489139,
				"y": -4.1274331386,
				"z": 2.8009345917,
				"element": "O" 
			},
			{
				"x": 2.7220520129,
				"y": -2.5248854336,
				"z": 2.0184396506,
				"element": "C" 
			},
			{
				"x": 3.6384455652,
				"y": -1.9581579404,
				"z": 3.4775123024,
				"element": "Cl" 
			},
			{
				"x": -0.0096127343,
				"y": -0.6478994976,
				"z": 0.2404341984,
				"element": "C" 
			},
			{
				"x": -0.6373778845,
				"y": 0.4983563444,
				"z": -0.3616496156,
				"element": "C" 
			},
			{
				"x": -1.2587155899,
				"y": 1.53961614,
				"z": 0.3863650282,
				"element": "C" 
			},
			{
				"x": -1.8547297026,
				"y": 2.6161398288,
				"z": -0.2341185616,
				"element": "C" 
			},
			{
				"x": -1.8629004551,
				"y": 2.7194266208,
				"z": -1.6437457858,
				"element": "C" 
			},
			{
				"x": -1.2856407312,
				"y": 1.7276410462,
				"z": -2.4022286042,
				"element": "C" 
			},
			{
				"x": -0.671582863,
				"y": 0.5994953125,
				"z": -1.7947481746,
				"element": "C" 
			},
			{
				"x": -0.1053374771,
				"y": -0.4352166218,
				"z": -2.5862068583,
				"element": "C" 
			},
			{
				"x": 0.4538136028,
				"y": -1.5371971012,
				"z": -1.9893494964,
				"element": "C" 
			},
			{
				"x": 0.4925539508,
				"y": -1.6392273383,
				"z": -0.5784395675,
				"element": "C" 
			},
			{
				"x": 2.1189720391,
				"y": 0.1175902099,
				"z": 1.941756253,
				"element": "H" 
			},
			{
				"x": 0.8108501607,
				"y": 1.2665533104,
				"z": 2.1428288153,
				"element": "H" 
			},
			{
				"x": 1.1828523678,
				"y": 0.1168529843,
				"z": 3.444490818,
				"element": "H" 
			},
			{
				"x": -0.878406984,
				"y": -0.4527561147,
				"z": 2.1760611967,
				"element": "H" 
			},
			{
				"x": -0.6066712117,
				"y": -2.5978592781,
				"z": 2.5062413079,
				"element": "H" 
			},
			{
				"x": 2.7513566583,
				"y": -1.7237325801,
				"z": 1.2829312633,
				"element": "H" 
			},
			{
				"x": 3.2514689546,
				"y": -3.4000532042,
				"z": 1.6456151625,
				"element": "H" 
			},
			{
				"x": -1.2797755481,
				"y": 1.4914191236,
				"z": 1.4691756173,
				"element": "H" 
			},
			{
				"x": -2.3243549306,
				"y": 3.390481861,
				"z": 0.3654862789,
				"element": "H" 
			},
			{
				"x": -2.3307295632,
				"y": 3.5747895099,
				"z": -2.1219825979,
				"element": "H" 
			},
			{
				"x": -1.2952701808,
				"y": 1.7884151731,
				"z": -3.4874737005,
				"element": "H" 
			},
			{
				"x": -0.136784837,
				"y": -0.3441048808,
				"z": -3.6686381887,
				"element": "H" 
			},
			{
				"x": 0.8680664366,
				"y": -2.3399276996,
				"z": -2.5920991804,
				"element": "H" 
			},
			{
				"x": 0.9123411685,
				"y": -2.5374159888,
				"z": -0.140163091,
				"element": "H" 
			}
		],
		 "valence_orbital": [ 
			{
				"type": "occ",
				"energy": -0.28867,
				"method": "rhf"
			},
			{
				"type": "occ",
				"energy": -0.25972,
				"method": "rhf"
			},
			{
				"type": "occ",
				"energy": -0.25527,
				"method": "rhf"
			},
			{
				"type": "occ",
				"energy": -0.25275,
				"method": "rhf"
			},
			{
				"type": "occ",
				"energy": -0.2243,
				"method": "rhf"
			},
			{
				"type": "unocc",
				"energy": -0.05021,
				"method": "rhf"
			},
			{
				"type": "unocc",
				"energy": -0.0244,
				"method": "rhf"
			},
			{
				"type": "unocc",
				"energy": -0.01782,
				"method": "rhf"
			},
			{
				"type": "unocc",
				"energy": 0.02069,
				"method": "rhf"
			},
			{
				"type": "unocc",
				"energy": 0.05496,
				"method": "rhf"
			}
		],
		"cosmo_sigma_profile": { 
			"-0.025": 0.0,
			"-0.024": 0.0,
			"-0.023": 0.0,
			"-0.022": 0.0,
			"-0.021": 0.0,
			"-0.02": 0.0,
			"-0.019": 0.0,
			"-0.018": 0.0,
			"-0.017": 0.0,
			"-0.016": 0.0,
			"-0.015": 0.0130403334272,
			"-0.014": 0.782979326422,
			"-0.013": 1.21577031634,
			"-0.012": 1.28003954612,
			"-0.011": 1.18732438542,
			"-0.01": 1.33239074949,
			"-0.009": 1.4467141542,
			"-0.008": 6.12138546254,
			"-0.007": 9.17733833299,
			"-0.006": 16.8400138442,
			"-0.005": 19.9061839627,
			"-0.004": 19.8944431277,
			"-0.003": 18.4305254835,
			"-0.002": 16.9870742336,
			"-0.001": 17.7688732251,
			"0.0": 18.2403493244,
			"0.001": 15.6428059142,
			"0.002": 16.784495547,
			"0.003": 19.6614211697,
			"0.004": 27.1817358442,
			"0.005": 23.2258179392,
			"0.006": 7.29528546037,
			"0.007": 1.82326971923,
			"0.008": 0.684558916982,
			"0.009": 0.977747250346,
			"0.01": 1.32242728421,
			"0.011": 2.05596793691,
			"0.012": 2.27544733128,
			"0.013": 5.82749117207,
			"0.014": 2.53912173824,
			"0.015": 0.0824006789556,
			"0.016": 0.0,
			"0.017": 0.0,
			"0.018": 0.0,
			"0.019": 0.0,
			"0.02": 0.0,
			"0.021": 0.0,
			"0.022": 0.0,
			"0.023": 0.0,
			"0.024": 0.0,
			"0.025": 0.0
		}
	}
}
