{
	 "smiles": "CC1=CC=C2NC=NC2=C1", 
	 "Tm": 387.15, 
	 "num_atms": 18, 
	 "gaussian": { 
		 "optdone": 1, 
		 "sigma_profile": "yes", 
		 "theory": "DFT", 
		 "functional": "B3LYP", 
		 "basiset": "6-31G**", 
		 "properties": { 
			 "R2extent": 1427.5755, 
			 "electric_dipole_moment_norm": 3.28274575013, 
			 "electric_quadrupole_moment_norm": 13.7983479225, 
			 "total_energy": -419.188422475, 
			 "HOMO_LUMO_gap": 0.20759, 
			 "cosmo_polarized_energy": -12.5, 
			 "cosmo_cavitation_energy": 21.56, 
			 "cosmo_dispersion_energy": -16.4, 
			 "cosmo_repulsion_energy": 1.31, 
			 "cosmo_total_nonelectrostatic_energy": 6.48, 
			 "SMD_solvation_energy": 1.99 
		},
		"coords": [
			{
				"x": 2.8605118598,
				"y": -0.6452576988,
				"z": -1.1223651858,
				"element": "C" 
			},
			{
				"x": 1.5429734317,
				"y": -0.3308760213,
				"z": -0.4493352664,
				"element": "C" 
			},
			{
				"x": 1.0502781946,
				"y": -1.1962582226,
				"z": 0.5586853785,
				"element": "C" 
			},
			{
				"x": -0.152404253,
				"y": -0.9683458659,
				"z": 1.2181648948,
				"element": "C" 
			},
			{
				"x": -0.8711626071,
				"y": 0.1686980794,
				"z": 0.8420150575,
				"element": "C" 
			},
			{
				"x": -2.0748412082,
				"y": 0.7141972902,
				"z": 1.2579987642,
				"element": "N" 
			},
			{
				"x": -2.2693733757,
				"y": 1.8565768635,
				"z": 0.5136872133,
				"element": "C" 
			},
			{
				"x": -1.3077935674,
				"y": 2.0978877832,
				"z": -0.3395534104,
				"element": "N" 
			},
			{
				"x": -0.4084415793,
				"y": 1.0529129824,
				"z": -0.1596500117,
				"element": "C" 
			},
			{
				"x": 0.8080690591,
				"y": 0.7975389024,
				"z": -0.8075637546,
				"element": "C" 
			},
			{
				"x": 3.1122894595,
				"y": 0.1078879598,
				"z": -1.8739236266,
				"element": "H" 
			},
			{
				"x": 3.6830596861,
				"y": -0.6810064877,
				"z": -0.3981855988,
				"element": "H" 
			},
			{
				"x": 2.8327930838,
				"y": -1.6198875028,
				"z": -1.6240392751,
				"element": "H" 
			},
			{
				"x": 1.6368069223,
				"y": -2.0719551171,
				"z": 0.825508243,
				"element": "H" 
			},
			{
				"x": -0.5077785344,
				"y": -1.64750795,
				"z": 1.9876339387,
				"element": "H" 
			},
			{
				"x": -2.6922004476,
				"y": 0.3495849782,
				"z": 1.9661663677,
				"element": "H" 
			},
			{
				"x": -3.1496459484,
				"y": 2.4718986548,
				"z": 0.6512430613,
				"element": "H" 
			},
			{
				"x": 1.1623598241,
				"y": 1.4774113724,
				"z": -1.5766867896,
				"element": "H" 
			}
		],
		 "valence_orbital": [ 
			{
				"type": "occ",
				"energy": -0.32606,
				"method": "rhf"
			},
			{
				"type": "occ",
				"energy": -0.30054,
				"method": "rhf"
			},
			{
				"type": "occ",
				"energy": -0.26661,
				"method": "rhf"
			},
			{
				"type": "occ",
				"energy": -0.22107,
				"method": "rhf"
			},
			{
				"type": "occ",
				"energy": -0.2183,
				"method": "rhf"
			},
			{
				"type": "unocc",
				"energy": -0.01071,
				"method": "rhf"
			},
			{
				"type": "unocc",
				"energy": 0.02515,
				"method": "rhf"
			},
			{
				"type": "unocc",
				"energy": 0.05716,
				"method": "rhf"
			},
			{
				"type": "unocc",
				"energy": 0.07628,
				"method": "rhf"
			},
			{
				"type": "unocc",
				"energy": 0.10807,
				"method": "rhf"
			}
		],
		"cosmo_sigma_profile": { 
			"-0.025": 0.0,
			"-0.024": 0.0,
			"-0.023": 0.0,
			"-0.022": 0.0,
			"-0.021": 0.0,
			"-0.02": 0.0,
			"-0.019": 0.0,
			"-0.018": 0.0,
			"-0.017": 0.332421730726,
			"-0.016": 1.82575981735,
			"-0.015": 1.37865502527,
			"-0.014": 1.41491289272,
			"-0.013": 1.02688929033,
			"-0.012": 1.24050600189,
			"-0.011": 1.5725355728,
			"-0.01": 1.42345327329,
			"-0.009": 3.95664442517,
			"-0.008": 2.51034656111,
			"-0.007": 3.40114998321,
			"-0.006": 4.47447090578,
			"-0.005": 6.56723694628,
			"-0.004": 11.1751305886,
			"-0.003": 13.2656103188,
			"-0.002": 13.2060286939,
			"-0.001": 11.3401263982,
			"0.0": 13.269574461,
			"0.001": 11.8694199345,
			"0.002": 11.0367288526,
			"0.003": 10.4938040343,
			"0.004": 8.08330524735,
			"0.005": 11.3573228644,
			"0.006": 10.7953333051,
			"0.007": 2.10562046631,
			"0.008": 1.75627490483,
			"0.009": 2.23727062917,
			"0.01": 0.910404012567,
			"0.011": 0.625967308873,
			"0.012": 1.11145170376,
			"0.013": 1.73354144272,
			"0.014": 1.1216553426,
			"0.015": 0.856783727053,
			"0.016": 0.956188994265,
			"0.017": 1.11472821616,
			"0.018": 0.654970174999,
			"0.019": 0.00441156208832,
			"0.02": 0.0,
			"0.021": 0.0,
			"0.022": 0.0,
			"0.023": 0.0,
			"0.024": 0.0,
			"0.025": 0.0
		}
	}
}
