{
	 "smiles": "CCOC(=O)C1=C(NC(=O)CCl)SC(C(C)=O)=C1C", 
	 "Tm": 450.15, 
	 "num_atms": 33, 
	 "gaussian": { 
		 "optdone": 1, 
		 "sigma_profile": "yes", 
		 "theory": "DFT", 
		 "functional": "B3LYP", 
		 "basiset": "6-31G**", 
		 "properties": { 
			 "R2extent": 6436.9203, 
			 "electric_dipole_moment_norm": 1.03986333717, 
			 "electric_quadrupole_moment_norm": 28.1362125875, 
			 "total_energy": -1679.75747541, 
			 "HOMO_LUMO_gap": 0.17394, 
			 "cosmo_polarized_energy": -17.27, 
			 "cosmo_cavitation_energy": 40.15, 
			 "cosmo_dispersion_energy": -27.48, 
			 "cosmo_repulsion_energy": 2.11, 
			 "cosmo_total_nonelectrostatic_energy": 14.78, 
			 "SMD_solvation_energy": 8.42 
		},
		"coords": [
			{
				"x": 1.8088563937,
				"y": -1.3026271011,
				"z": -3.9462304173,
				"element": "C" 
			},
			{
				"x": 0.3482798245,
				"y": -1.2011823725,
				"z": -3.551062087,
				"element": "C" 
			},
			{
				"x": 0.2974038494,
				"y": -0.6964610676,
				"z": -2.1895556255,
				"element": "O" 
			},
			{
				"x": -0.9337991636,
				"y": -0.586664611,
				"z": -1.644800062,
				"element": "C" 
			},
			{
				"x": -1.9463367774,
				"y": -0.952924264,
				"z": -2.206445491,
				"element": "O" 
			},
			{
				"x": -0.9089518169,
				"y": 0.0292976286,
				"z": -0.2874437914,
				"element": "C" 
			},
			{
				"x": 0.0102007942,
				"y": 0.9821968581,
				"z": 0.1271987497,
				"element": "C" 
			},
			{
				"x": 1.0768894701,
				"y": 1.5580303598,
				"z": -0.5827415512,
				"element": "N" 
			},
			{
				"x": 2.2909263881,
				"y": 0.9830880898,
				"z": -0.915303928,
				"element": "C" 
			},
			{
				"x": 3.0350816369,
				"y": 1.5134028064,
				"z": -1.7200451879,
				"element": "O" 
			},
			{
				"x": 2.6709529933,
				"y": -0.3063242683,
				"z": -0.1967821552,
				"element": "C" 
			},
			{
				"x": 3.3083417741,
				"y": 0.0569544187,
				"z": 1.4625426057,
				"element": "Cl" 
			},
			{
				"x": -0.3455432836,
				"y": 1.5566151085,
				"z": 1.7218099759,
				"element": "S" 
			},
			{
				"x": -1.744635544,
				"y": 0.510558262,
				"z": 1.8479587579,
				"element": "C" 
			},
			{
				"x": -2.5576168349,
				"y": 0.5193746801,
				"z": 3.0930065362,
				"element": "C" 
			},
			{
				"x": -2.1094563296,
				"y": 1.4292808922,
				"z": 4.2266904524,
				"element": "C" 
			},
			{
				"x": -3.5546440225,
				"y": -0.1778348221,
				"z": 3.217244262,
				"element": "O" 
			},
			{
				"x": -1.9201896833,
				"y": -0.2494665915,
				"z": 0.6995228309,
				"element": "C" 
			},
			{
				"x": -3.02297908,
				"y": -1.2509150796,
				"z": 0.4880180687,
				"element": "C" 
			},
			{
				"x": 2.3346227671,
				"y": -2.0320422445,
				"z": -3.3226395862,
				"element": "H" 
			},
			{
				"x": 1.8845016695,
				"y": -1.6307681247,
				"z": -4.9874268592,
				"element": "H" 
			},
			{
				"x": 2.3115610738,
				"y": -0.3366626065,
				"z": -3.8481163754,
				"element": "H" 
			},
			{
				"x": -0.2064304907,
				"y": -0.5106924635,
				"z": -4.1938930155,
				"element": "H" 
			},
			{
				"x": -0.1627957265,
				"y": -2.167446221,
				"z": -3.5840406954,
				"element": "H" 
			},
			{
				"x": 0.9191070159,
				"y": 2.445037995,
				"z": -1.048288044,
				"element": "H" 
			},
			{
				"x": 3.4781319959,
				"y": -0.7727290567,
				"z": -0.7570389044,
				"element": "H" 
			},
			{
				"x": 1.8331073123,
				"y": -0.9900206289,
				"z": -0.0811103115,
				"element": "H" 
			},
			{
				"x": -2.8182049778,
				"y": 1.3297478253,
				"z": 5.0491216322,
				"element": "H" 
			},
			{
				"x": -2.0726206167,
				"y": 2.4762292265,
				"z": 3.9052398229,
				"element": "H" 
			},
			{
				"x": -1.1073336045,
				"y": 1.1574268975,
				"z": 4.5768770806,
				"element": "H" 
			},
			{
				"x": -3.5276637718,
				"y": -1.469056769,
				"z": 1.4253190591,
				"element": "H" 
			},
			{
				"x": -2.6287026981,
				"y": -2.1691347326,
				"z": 0.0445138781,
				"element": "H" 
			},
			{
				"x": -3.753060537,
				"y": -0.8577880233,
				"z": -0.2264996243,
				"element": "H" 
			}
		],
		 "valence_orbital": [ 
			{
				"type": "occ",
				"energy": -0.28766,
				"method": "rhf"
			},
			{
				"type": "occ",
				"energy": -0.27584,
				"method": "rhf"
			},
			{
				"type": "occ",
				"energy": -0.27222,
				"method": "rhf"
			},
			{
				"type": "occ",
				"energy": -0.25838,
				"method": "rhf"
			},
			{
				"type": "occ",
				"energy": -0.25456,
				"method": "rhf"
			},
			{
				"type": "unocc",
				"energy": -0.08062,
				"method": "rhf"
			},
			{
				"type": "unocc",
				"energy": -0.04427,
				"method": "rhf"
			},
			{
				"type": "unocc",
				"energy": -0.03234,
				"method": "rhf"
			},
			{
				"type": "unocc",
				"energy": 0.00249,
				"method": "rhf"
			},
			{
				"type": "unocc",
				"energy": 0.03705,
				"method": "rhf"
			}
		],
		"cosmo_sigma_profile": { 
			"-0.025": 0.0,
			"-0.024": 0.0,
			"-0.023": 0.0,
			"-0.022": 0.0,
			"-0.021": 0.0,
			"-0.02": 0.0,
			"-0.019": 0.0,
			"-0.018": 0.0,
			"-0.017": 0.0,
			"-0.016": 0.66340532358,
			"-0.015": 1.14626050817,
			"-0.014": 0.776193928567,
			"-0.013": 1.32314950246,
			"-0.012": 1.36001016687,
			"-0.011": 0.895760684733,
			"-0.01": 0.613512969682,
			"-0.009": 1.42560538074,
			"-0.008": 3.91744202505,
			"-0.007": 4.68784935676,
			"-0.006": 12.5682686784,
			"-0.005": 21.551963498,
			"-0.004": 29.8010352136,
			"-0.003": 26.0953608861,
			"-0.002": 30.2127495859,
			"-0.001": 30.3463586055,
			"0.0": 34.1921519816,
			"0.001": 21.3070769431,
			"0.002": 14.7922105221,
			"0.003": 13.0604788103,
			"0.004": 12.2059746492,
			"0.005": 13.4192809302,
			"0.006": 6.93165314345,
			"0.007": 4.58377457124,
			"0.008": 4.46460497668,
			"0.009": 4.85816508755,
			"0.01": 6.75422471678,
			"0.011": 7.84043327822,
			"0.012": 8.2873936762,
			"0.013": 1.96302659022,
			"0.014": 0.0,
			"0.015": 0.0,
			"0.016": 0.0,
			"0.017": 0.0,
			"0.018": 0.0,
			"0.019": 0.0,
			"0.02": 0.0,
			"0.021": 0.0,
			"0.022": 0.0,
			"0.023": 0.0,
			"0.024": 0.0,
			"0.025": 0.0
		}
	}
}
