{
	 "smiles": "ClC1=NC2=C(C=CC=C2)C(=C1)C(=O)NC1CC1", 
	 "Tm": 465.15, 
	 "num_atms": 28, 
	 "gaussian": { 
		 "optdone": 1, 
		 "sigma_profile": "yes", 
		 "theory": "DFT", 
		 "functional": "B3LYP", 
		 "basiset": "6-31G**", 
		 "properties": { 
			 "R2extent": 5406.041, 
			 "electric_dipole_moment_norm": 5.53859073863, 
			 "electric_quadrupole_moment_norm": 9.10450489593, 
			 "total_energy": -1146.91992172, 
			 "HOMO_LUMO_gap": 0.16982, 
			 "cosmo_polarized_energy": -15.07, 
			 "cosmo_cavitation_energy": 34.26, 
			 "cosmo_dispersion_energy": -24.66, 
			 "cosmo_repulsion_energy": 1.93, 
			 "cosmo_total_nonelectrostatic_energy": 11.53, 
			 "SMD_solvation_energy": 3.85 
		},
		"coords": [
			{
				"x": -0.4079240861,
				"y": -4.2657341919,
				"z": 2.3169216198,
				"element": "Cl" 
			},
			{
				"x": -0.1032832487,
				"y": -2.5725344437,
				"z": 1.9275719555,
				"element": "C" 
			},
			{
				"x": 0.6196650512,
				"y": -1.8896964564,
				"z": 2.7643500914,
				"element": "N" 
			},
			{
				"x": 0.8444836355,
				"y": -0.5723296733,
				"z": 2.4779983443,
				"element": "C" 
			},
			{
				"x": 0.3446524955,
				"y": 0.0610849358,
				"z": 1.2913035675,
				"element": "C" 
			},
			{
				"x": 0.5820150457,
				"y": 1.4532538979,
				"z": 1.1222339566,
				"element": "C" 
			},
			{
				"x": 1.3071390138,
				"y": 2.163800967,
				"z": 2.0550706167,
				"element": "C" 
			},
			{
				"x": 1.8287624641,
				"y": 1.5239615435,
				"z": 3.2032688841,
				"element": "C" 
			},
			{
				"x": 1.5966079576,
				"y": 0.1833727051,
				"z": 3.4133771271,
				"element": "C" 
			},
			{
				"x": -0.4006172241,
				"y": -0.7606618202,
				"z": 0.3835990783,
				"element": "C" 
			},
			{
				"x": -0.6527151916,
				"y": -2.071692312,
				"z": 0.7235924044,
				"element": "C" 
			},
			{
				"x": -0.9669134104,
				"y": -0.3041906345,
				"z": -0.9457002125,
				"element": "C" 
			},
			{
				"x": -2.0929031769,
				"y": -0.6260365373,
				"z": -1.3000901409,
				"element": "O" 
			},
			{
				"x": -0.1164577785,
				"y": 0.4195423031,
				"z": -1.737493026,
				"element": "N" 
			},
			{
				"x": -0.5038727707,
				"y": 0.888304169,
				"z": -3.0401391088,
				"element": "C" 
			},
			{
				"x": 0.554843218,
				"y": 0.9548967677,
				"z": -4.1084703324,
				"element": "C" 
			},
			{
				"x": -0.5420665602,
				"y": -0.0783301507,
				"z": -4.1953201081,
				"element": "C" 
			},
			{
				"x": 0.1628444616,
				"y": 1.9665398981,
				"z": 0.2641266777,
				"element": "H" 
			},
			{
				"x": 1.4704077127,
				"y": 3.2277894813,
				"z": 1.9119110659,
				"element": "H" 
			},
			{
				"x": 2.4008500213,
				"y": 2.0977995087,
				"z": 3.9261404805,
				"element": "H" 
			},
			{
				"x": 1.9637887629,
				"y": -0.3337308995,
				"z": 4.2934012641,
				"element": "H" 
			},
			{
				"x": -1.2489283102,
				"y": -2.7018657731,
				"z": 0.0757867078,
				"element": "H" 
			},
			{
				"x": 0.8079100125,
				"y": 0.6382219524,
				"z": -1.3958324479,
				"element": "H" 
			},
			{
				"x": -1.2622226158,
				"y": 1.6679545493,
				"z": -3.027858849,
				"element": "H" 
			},
			{
				"x": 1.5523380397,
				"y": 0.6074505665,
				"z": -3.8530163139,
				"element": "H" 
			},
			{
				"x": 0.5379860082,
				"y": 1.8018780414,
				"z": -4.7868125321,
				"element": "H" 
			},
			{
				"x": -1.3278579805,
				"y": 0.0504323954,
				"z": -4.9322646179,
				"element": "H" 
			},
			{
				"x": -0.2825315466,
				"y": -1.1099807898,
				"z": -3.983856152,
				"element": "H" 
			}
		],
		 "valence_orbital": [ 
			{
				"type": "occ",
				"energy": -0.28072,
				"method": "rhf"
			},
			{
				"type": "occ",
				"energy": -0.26433,
				"method": "rhf"
			},
			{
				"type": "occ",
				"energy": -0.26138,
				"method": "rhf"
			},
			{
				"type": "occ",
				"energy": -0.25641,
				"method": "rhf"
			},
			{
				"type": "occ",
				"energy": -0.24404,
				"method": "rhf"
			},
			{
				"type": "unocc",
				"energy": -0.07422,
				"method": "rhf"
			},
			{
				"type": "unocc",
				"energy": -0.03266,
				"method": "rhf"
			},
			{
				"type": "unocc",
				"energy": -0.0121,
				"method": "rhf"
			},
			{
				"type": "unocc",
				"energy": 0.02839,
				"method": "rhf"
			},
			{
				"type": "unocc",
				"energy": 0.04256,
				"method": "rhf"
			}
		],
		"cosmo_sigma_profile": { 
			"-0.025": 0.0,
			"-0.024": 0.0,
			"-0.023": 0.0,
			"-0.022": 0.0,
			"-0.021": 0.0,
			"-0.02": 0.0,
			"-0.019": 0.0,
			"-0.018": 0.0,
			"-0.017": 0.0,
			"-0.016": 0.0,
			"-0.015": 0.0,
			"-0.014": 0.0633543744599,
			"-0.013": 0.768256375966,
			"-0.012": 1.08724236869,
			"-0.011": 1.20280062139,
			"-0.01": 1.41859057231,
			"-0.009": 1.79434885217,
			"-0.008": 1.9078175441,
			"-0.007": 6.63138187716,
			"-0.006": 14.8611161857,
			"-0.005": 21.7451772818,
			"-0.004": 19.5458658127,
			"-0.003": 17.8013410916,
			"-0.002": 22.6930661975,
			"-0.001": 27.2285220119,
			"0.0": 22.1360117529,
			"0.001": 20.4067733437,
			"0.002": 21.7211632427,
			"0.003": 20.5130099519,
			"0.004": 14.3249449705,
			"0.005": 8.10728518581,
			"0.006": 4.04594801799,
			"0.007": 2.75298149976,
			"0.008": 3.91750351798,
			"0.009": 2.81951522951,
			"0.01": 2.49876085794,
			"0.011": 3.20270886678,
			"0.012": 3.56833124569,
			"0.013": 6.17749841196,
			"0.014": 1.74142083556,
			"0.015": 0.0,
			"0.016": 0.0,
			"0.017": 0.0,
			"0.018": 0.0,
			"0.019": 0.0,
			"0.02": 0.0,
			"0.021": 0.0,
			"0.022": 0.0,
			"0.023": 0.0,
			"0.024": 0.0,
			"0.025": 0.0
		}
	}
}
