{
	 "smiles": "CC1=CC(=C(Cl)C=C1)N(=O)=O", 
	 "Tm": 280.15, 
	 "num_atms": 17, 
	 "gaussian": { 
		 "optdone": 1, 
		 "sigma_profile": "yes", 
		 "theory": "DFT", 
		 "functional": "B3LYP", 
		 "basiset": "6-31G**", 
		 "properties": { 
			 "R2extent": 2859.5937, 
			 "electric_dipole_moment_norm": 5.38800477542, 
			 "electric_quadrupole_moment_norm": 10.2708146649, 
			 "total_energy": -935.64711077, 
			 "HOMO_LUMO_gap": 0.17338, 
			 "cosmo_polarized_energy": -8.81, 
			 "cosmo_cavitation_energy": 23.58, 
			 "cosmo_dispersion_energy": -17.44, 
			 "cosmo_repulsion_energy": 1.4, 
			 "cosmo_total_nonelectrostatic_energy": 7.54, 
			 "SMD_solvation_energy": 6.16 
		},
		"coords": [
			{
				"x": -2.7666498078,
				"y": -1.3826038148,
				"z": 0.7516912052,
				"element": "C" 
			},
			{
				"x": -1.9914426101,
				"y": -0.6255525288,
				"z": -0.2990151247,
				"element": "C" 
			},
			{
				"x": -1.0804702172,
				"y": 0.3691812372,
				"z": 0.0522932892,
				"element": "C" 
			},
			{
				"x": -0.3886852089,
				"y": 1.0969879882,
				"z": -0.9195509723,
				"element": "C" 
			},
			{
				"x": -0.5716219429,
				"y": 0.8244757064,
				"z": -2.2820292693,
				"element": "C" 
			},
			{
				"x": 0.3065049544,
				"y": 1.6152697792,
				"z": -3.5631188413,
				"element": "Cl" 
			},
			{
				"x": -1.4682129789,
				"y": -0.1877993388,
				"z": -2.6377578045,
				"element": "C" 
			},
			{
				"x": -2.1708613498,
				"y": -0.8906594712,
				"z": -1.664844708,
				"element": "C" 
			},
			{
				"x": 0.515807385,
				"y": 2.1487697497,
				"z": -0.4214858811,
				"element": "N" 
			},
			{
				"x": 1.0391911683,
				"y": 1.954091952,
				"z": 0.6762677134,
				"element": "O" 
			},
			{
				"x": 0.6667721896,
				"y": 3.1548086496,
				"z": -1.1062325588,
				"element": "O" 
			},
			{
				"x": -2.7744479688,
				"y": -2.4569454224,
				"z": 0.541934884,
				"element": "H" 
			},
			{
				"x": -3.811191674,
				"y": -1.05081781,
				"z": 0.7855388868,
				"element": "H" 
			},
			{
				"x": -2.3397776525,
				"y": -1.2345060159,
				"z": 1.7466979007,
				"element": "H" 
			},
			{
				"x": -0.8848638904,
				"y": 0.6057722921,
				"z": 1.0916909874,
				"element": "H" 
			},
			{
				"x": -1.6017553073,
				"y": -0.4188471974,
				"z": -3.6886176676,
				"element": "H" 
			},
			{
				"x": -2.865595089,
				"y": -1.6665257552,
				"z": -1.9753620389,
				"element": "H" 
			}
		],
		 "valence_orbital": [ 
			{
				"type": "occ",
				"energy": -0.30962,
				"method": "rhf"
			},
			{
				"type": "occ",
				"energy": -0.30782,
				"method": "rhf"
			},
			{
				"type": "occ",
				"energy": -0.29622,
				"method": "rhf"
			},
			{
				"type": "occ",
				"energy": -0.27883,
				"method": "rhf"
			},
			{
				"type": "occ",
				"energy": -0.26182,
				"method": "rhf"
			},
			{
				"type": "unocc",
				"energy": -0.08844,
				"method": "rhf"
			},
			{
				"type": "unocc",
				"energy": -0.0332,
				"method": "rhf"
			},
			{
				"type": "unocc",
				"energy": -0.01555,
				"method": "rhf"
			},
			{
				"type": "unocc",
				"energy": 0.01287,
				"method": "rhf"
			},
			{
				"type": "unocc",
				"energy": 0.0939,
				"method": "rhf"
			}
		],
		"cosmo_sigma_profile": { 
			"-0.025": 0.0,
			"-0.024": 0.0,
			"-0.023": 0.0,
			"-0.022": 0.0,
			"-0.021": 0.0,
			"-0.02": 0.0,
			"-0.019": 0.0,
			"-0.018": 0.0,
			"-0.017": 0.0,
			"-0.016": 0.0,
			"-0.015": 0.0,
			"-0.014": 0.0,
			"-0.013": 0.0,
			"-0.012": 0.0,
			"-0.011": 0.0,
			"-0.01": 0.0,
			"-0.009": 0.132117079756,
			"-0.008": 3.03855786912,
			"-0.007": 7.50399948175,
			"-0.006": 9.11470518322,
			"-0.005": 12.487884199,
			"-0.004": 12.6697223894,
			"-0.003": 14.5345231819,
			"-0.002": 14.3944639585,
			"-0.001": 19.6528973453,
			"0.0": 19.8395261668,
			"0.001": 17.1994363182,
			"0.002": 10.2473876011,
			"0.003": 10.209921809,
			"0.004": 7.18941921009,
			"0.005": 3.46143908205,
			"0.006": 4.73608020428,
			"0.007": 9.2144366671,
			"0.008": 9.43452613644,
			"0.009": 4.62586357765,
			"0.01": 1.26317743028,
			"0.011": 0.0,
			"0.012": 0.0,
			"0.013": 0.0,
			"0.014": 0.0,
			"0.015": 0.0,
			"0.016": 0.0,
			"0.017": 0.0,
			"0.018": 0.0,
			"0.019": 0.0,
			"0.02": 0.0,
			"0.021": 0.0,
			"0.022": 0.0,
			"0.023": 0.0,
			"0.024": 0.0,
			"0.025": 0.0
		}
	}
}
