{
	 "smiles": "OC(=O)CC1=NN(C(=O)C1)C1=C(Cl)C=C(C=N1)C(F)(F)F", 
	 "Tm": 447.15, 
	 "num_atms": 28, 
	 "gaussian": { 
		 "optdone": 1, 
		 "sigma_profile": "yes", 
		 "theory": "DFT", 
		 "functional": "B3LYP", 
		 "basiset": "6-31G**", 
		 "properties": { 
			 "R2extent": 10203.7177, 
			 "electric_dipole_moment_norm": 1.76136394025, 
			 "electric_quadrupole_moment_norm": 13.7429159493, 
			 "total_energy": -1573.01308703, 
			 "HOMO_LUMO_gap": 0.18478, 
			 "cosmo_polarized_energy": -20.25, 
			 "cosmo_cavitation_energy": 37.96, 
			 "cosmo_dispersion_energy": -26.37, 
			 "cosmo_repulsion_energy": 1.99, 
			 "cosmo_total_nonelectrostatic_energy": 13.58, 
			 "SMD_solvation_energy": 7.07 
		},
		"coords": [
			{
				"x": 2.5177364557,
				"y": 1.5909481185,
				"z": 3.5236223404,
				"element": "O" 
			},
			{
				"x": 1.5875663282,
				"y": 2.5486520051,
				"z": 3.7463592077,
				"element": "C" 
			},
			{
				"x": 1.4600112818,
				"y": 3.1114870659,
				"z": 4.8078074001,
				"element": "O" 
			},
			{
				"x": 0.7108152284,
				"y": 2.8137235323,
				"z": 2.5286916155,
				"element": "C" 
			},
			{
				"x": 1.2298827627,
				"y": 2.3166034126,
				"z": 1.2163879335,
				"element": "C" 
			},
			{
				"x": 0.544811012,
				"y": 1.4756958047,
				"z": 0.5222970413,
				"element": "N" 
			},
			{
				"x": 1.2316550444,
				"y": 1.2451264154,
				"z": -0.6742747959,
				"element": "N" 
			},
			{
				"x": 2.484567681,
				"y": 1.882775514,
				"z": -0.7211610187,
				"element": "C" 
			},
			{
				"x": 3.3270579492,
				"y": 1.7447500642,
				"z": -1.5783768191,
				"element": "O" 
			},
			{
				"x": 2.5108876109,
				"y": 2.7300271678,
				"z": 0.5490230183,
				"element": "C" 
			},
			{
				"x": 0.8100817522,
				"y": 0.1896654919,
				"z": -1.5093480116,
				"element": "C" 
			},
			{
				"x": 0.704992707,
				"y": 0.3578531193,
				"z": -2.9035868962,
				"element": "C" 
			},
			{
				"x": 0.9420244943,
				"y": 1.9000889839,
				"z": -3.6770393503,
				"element": "Cl" 
			},
			{
				"x": 0.3362885425,
				"y": -0.7372452822,
				"z": -3.6791722757,
				"element": "C" 
			},
			{
				"x": 0.0422108735,
				"y": -1.9420147404,
				"z": -3.044235754,
				"element": "C" 
			},
			{
				"x": 0.1169357062,
				"y": -1.9956166216,
				"z": -1.6502863998,
				"element": "C" 
			},
			{
				"x": 0.5054838605,
				"y": -0.9607813106,
				"z": -0.9078692062,
				"element": "N" 
			},
			{
				"x": -0.3179377782,
				"y": -3.1634952865,
				"z": -3.845536079,
				"element": "C" 
			},
			{
				"x": 0.7781031599,
				"y": -3.8832298821,
				"z": -4.1696831933,
				"element": "F" 
			},
			{
				"x": -0.9331635557,
				"y": -2.834206988,
				"z": -5.001571974,
				"element": "F" 
			},
			{
				"x": -1.1414266033,
				"y": -3.9807392423,
				"z": -3.1565778427,
				"element": "F" 
			},
			{
				"x": 2.9980022192,
				"y": 1.4753082992,
				"z": 4.3614585923,
				"element": "H" 
			},
			{
				"x": -0.2591484166,
				"y": 2.3406109809,
				"z": 2.7180161377,
				"element": "H" 
			},
			{
				"x": 0.5369001032,
				"y": 3.8956970198,
				"z": 2.5064025106,
				"element": "H" 
			},
			{
				"x": 3.399905096,
				"y": 2.5067168965,
				"z": 1.1461197691,
				"element": "H" 
			},
			{
				"x": 2.5401215062,
				"y": 3.7967826827,
				"z": 0.2957719634,
				"element": "H" 
			},
			{
				"x": 0.249799819,
				"y": -0.6376741472,
				"z": -4.7547804303,
				"element": "H" 
			},
			{
				"x": -0.1408648402,
				"y": -2.9064090737,
				"z": -1.1171574829,
				"element": "H" 
			}
		],
		 "valence_orbital": [ 
			{
				"type": "occ",
				"energy": -0.29722,
				"method": "rhf"
			},
			{
				"type": "occ",
				"energy": -0.28804,
				"method": "rhf"
			},
			{
				"type": "occ",
				"energy": -0.28254,
				"method": "rhf"
			},
			{
				"type": "occ",
				"energy": -0.27017,
				"method": "rhf"
			},
			{
				"type": "occ",
				"energy": -0.24666,
				"method": "rhf"
			},
			{
				"type": "unocc",
				"energy": -0.06188,
				"method": "rhf"
			},
			{
				"type": "unocc",
				"energy": -0.04898,
				"method": "rhf"
			},
			{
				"type": "unocc",
				"energy": -0.04014,
				"method": "rhf"
			},
			{
				"type": "unocc",
				"energy": -0.01001,
				"method": "rhf"
			},
			{
				"type": "unocc",
				"energy": 0.01484,
				"method": "rhf"
			}
		],
		"cosmo_sigma_profile": { 
			"-0.025": 0.0,
			"-0.024": 0.0,
			"-0.023": 0.0,
			"-0.022": 0.0,
			"-0.021": 0.0,
			"-0.02": 0.0,
			"-0.019": 0.232112867565,
			"-0.018": 1.20121457643,
			"-0.017": 1.00422596914,
			"-0.016": 0.477446072959,
			"-0.015": 0.738145607615,
			"-0.014": 1.42890212458,
			"-0.013": 0.413669814707,
			"-0.012": 0.326025169417,
			"-0.011": 0.560053565872,
			"-0.01": 2.11351970007,
			"-0.009": 7.37754066084,
			"-0.008": 14.6617685326,
			"-0.007": 12.9478062879,
			"-0.006": 13.5241713948,
			"-0.005": 12.9187730346,
			"-0.004": 14.1004279211,
			"-0.003": 19.3214733042,
			"-0.002": 23.8922629545,
			"-0.001": 17.8952917475,
			"0.0": 16.8663159928,
			"0.001": 20.0453169533,
			"0.002": 37.6013839655,
			"0.003": 22.54045888,
			"0.004": 7.32395164847,
			"0.005": 6.3047813455,
			"0.006": 6.85295683438,
			"0.007": 5.36283702205,
			"0.008": 4.29184295356,
			"0.009": 4.81892073911,
			"0.01": 7.12247313376,
			"0.011": 11.6685204188,
			"0.012": 7.22272573857,
			"0.013": 2.1194131275,
			"0.014": 1.61998345546,
			"0.015": 0.0424169829315,
			"0.016": 0.0,
			"0.017": 0.0,
			"0.018": 0.0,
			"0.019": 0.0,
			"0.02": 0.0,
			"0.021": 0.0,
			"0.022": 0.0,
			"0.023": 0.0,
			"0.024": 0.0,
			"0.025": 0.0
		}
	}
}
