{
	 "smiles": "CCC(C)C=CC", 
	 "Tm": 147.15, 
	 "num_atms": 21, 
	 "gaussian": { 
		 "optdone": 1, 
		 "sigma_profile": "yes", 
		 "theory": "DFT", 
		 "functional": "B3LYP", 
		 "basiset": "6-31G**", 
		 "properties": { 
			 "R2extent": 1372.9636, 
			 "electric_dipole_moment_norm": 0.0547680563833, 
			 "electric_quadrupole_moment_norm": 1.71803467369, 
			 "total_energy": -275.180075108, 
			 "HOMO_LUMO_gap": 0.26898, 
			 "cosmo_polarized_energy": -1.45, 
			 "cosmo_cavitation_energy": 22.6, 
			 "cosmo_dispersion_energy": -16.3, 
			 "cosmo_repulsion_energy": 1.4, 
			 "cosmo_total_nonelectrostatic_energy": 7.7, 
			 "SMD_solvation_energy": 4.27 
		},
		"coords": [
			{
				"x": -0.3582267727,
				"y": -0.3360941049,
				"z": 2.6245710376,
				"element": "C" 
			},
			{
				"x": 0.2261790058,
				"y": 0.3953509936,
				"z": 1.4105014039,
				"element": "C" 
			},
			{
				"x": 0.7487036845,
				"y": -0.5327048378,
				"z": 0.2991869198,
				"element": "C" 
			},
			{
				"x": 1.9213544571,
				"y": -1.4175959135,
				"z": 0.7734651831,
				"element": "C" 
			},
			{
				"x": 1.149089707,
				"y": 0.193673013,
				"z": -0.9674305782,
				"element": "C" 
			},
			{
				"x": 1.2008347765,
				"y": 1.5122449572,
				"z": -1.1759193657,
				"element": "C" 
			},
			{
				"x": 1.6274289535,
				"y": 2.1572736526,
				"z": -2.4647746579,
				"element": "C" 
			},
			{
				"x": -0.7799187344,
				"y": 0.3760546905,
				"z": 3.341455008,
				"element": "H" 
			},
			{
				"x": 0.3968708046,
				"y": -0.9241521287,
				"z": 3.1554946653,
				"element": "H" 
			},
			{
				"x": -1.162042439,
				"y": -1.0194835817,
				"z": 2.3264746512,
				"element": "H" 
			},
			{
				"x": 1.0383866214,
				"y": 1.0579919407,
				"z": 1.7391492137,
				"element": "H" 
			},
			{
				"x": -0.547762634,
				"y": 1.0464008635,
				"z": 0.9855634968,
				"element": "H" 
			},
			{
				"x": -0.0756080614,
				"y": -1.213465736,
				"z": 0.0275029065,
				"element": "H" 
			},
			{
				"x": 2.7623891119,
				"y": -0.7973810947,
				"z": 1.1037303418,
				"element": "H" 
			},
			{
				"x": 2.2814100573,
				"y": -2.0591782853,
				"z": -0.0379126227,
				"element": "H" 
			},
			{
				"x": 1.6294266288,
				"y": -2.068420772,
				"z": 1.6030821698,
				"element": "H" 
			},
			{
				"x": 1.4439908619,
				"y": -0.4646115616,
				"z": -1.7882842917,
				"element": "H" 
			},
			{
				"x": 0.9195472776,
				"y": 2.1960811009,
				"z": -0.3761606418,
				"element": "H" 
			},
			{
				"x": 0.8300795139,
				"y": 2.7879734166,
				"z": -2.8789811402,
				"element": "H" 
			},
			{
				"x": 1.8938033045,
				"y": 1.4109272567,
				"z": -3.219725587,
				"element": "H" 
			},
			{
				"x": 2.4957638753,
				"y": 2.8120161308,
				"z": -2.3150881124,
				"element": "H" 
			}
		],
		 "valence_orbital": [ 
			{
				"type": "occ",
				"energy": -0.34875,
				"method": "rhf"
			},
			{
				"type": "occ",
				"energy": -0.32431,
				"method": "rhf"
			},
			{
				"type": "occ",
				"energy": -0.31674,
				"method": "rhf"
			},
			{
				"type": "occ",
				"energy": -0.30919,
				"method": "rhf"
			},
			{
				"type": "occ",
				"energy": -0.23493,
				"method": "rhf"
			},
			{
				"type": "unocc",
				"energy": 0.03405,
				"method": "rhf"
			},
			{
				"type": "unocc",
				"energy": 0.09695,
				"method": "rhf"
			},
			{
				"type": "unocc",
				"energy": 0.11906,
				"method": "rhf"
			},
			{
				"type": "unocc",
				"energy": 0.12295,
				"method": "rhf"
			},
			{
				"type": "unocc",
				"energy": 0.13655,
				"method": "rhf"
			}
		],
		"cosmo_sigma_profile": { 
			"-0.025": 0.0,
			"-0.024": 0.0,
			"-0.023": 0.0,
			"-0.022": 0.0,
			"-0.021": 0.0,
			"-0.02": 0.0,
			"-0.019": 0.0,
			"-0.018": 0.0,
			"-0.017": 0.0,
			"-0.016": 0.0,
			"-0.015": 0.0,
			"-0.014": 0.0,
			"-0.013": 0.0,
			"-0.012": 0.0,
			"-0.011": 0.0,
			"-0.01": 0.0,
			"-0.009": 0.0,
			"-0.008": 0.0,
			"-0.007": 0.0,
			"-0.006": 0.0,
			"-0.005": 0.0,
			"-0.004": 1.36530413471,
			"-0.003": 15.5478156788,
			"-0.002": 28.6633372896,
			"-0.001": 32.7087977313,
			"0.0": 33.4416845315,
			"0.001": 30.3632033181,
			"0.002": 16.115901348,
			"0.003": 4.40096139778,
			"0.004": 3.17797080477,
			"0.005": 3.42924644503,
			"0.006": 2.5294563473,
			"0.007": 2.25147851544,
			"0.008": 0.60591954066,
			"0.009": 0.0,
			"0.01": 0.0,
			"0.011": 0.0,
			"0.012": 0.0,
			"0.013": 0.0,
			"0.014": 0.0,
			"0.015": 0.0,
			"0.016": 0.0,
			"0.017": 0.0,
			"0.018": 0.0,
			"0.019": 0.0,
			"0.02": 0.0,
			"0.021": 0.0,
			"0.022": 0.0,
			"0.023": 0.0,
			"0.024": 0.0,
			"0.025": 0.0
		}
	}
}
