{
	 "smiles": "[O-][N+](=O)C1=CC=CC(=C1)C1=CC=C(O1)C=C1N=C(OC1=O)C1=CC=CC=C1", 
	 "Tm": 417.15, 
	 "num_atms": 39, 
	 "gaussian": { 
		 "optdone": 1, 
		 "sigma_profile": "yes", 
		 "theory": "DFT", 
		 "functional": "B3LYP", 
		 "basiset": "6-31G**", 
		 "properties": { 
			 "R2extent": 17855.363, 
			 "electric_dipole_moment_norm": 5.56798242634, 
			 "electric_quadrupole_moment_norm": 26.8832256495, 
			 "total_energy": -1254.87587283, 
			 "HOMO_LUMO_gap": 0.10696, 
			 "cosmo_polarized_energy": -16.03, 
			 "cosmo_cavitation_energy": 46.81, 
			 "cosmo_dispersion_energy": -33.67, 
			 "cosmo_repulsion_energy": 2.45, 
			 "cosmo_total_nonelectrostatic_energy": 15.6, 
			 "SMD_solvation_energy": 9.85 
		},
		"coords": [
			{
				"x": -2.8148459858,
				"y": 7.89136089,
				"z": -0.8737135917,
				"element": "O" 
			},
			{
				"x": -1.7968575903,
				"y": 7.3058508767,
				"z": -1.239047726,
				"element": "N" 
			},
			{
				"x": -0.8847179703,
				"y": 7.8215139475,
				"z": -1.8848561262,
				"element": "O" 
			},
			{
				"x": -1.6601602638,
				"y": 5.8840063075,
				"z": -0.8766343144,
				"element": "C" 
			},
			{
				"x": -2.6783129164,
				"y": 5.2732240188,
				"z": -0.1450431177,
				"element": "C" 
			},
			{
				"x": -2.530907116,
				"y": 3.9274929877,
				"z": 0.1884061338,
				"element": "C" 
			},
			{
				"x": -1.3970716319,
				"y": 3.2160855373,
				"z": -0.1999239467,
				"element": "C" 
			},
			{
				"x": -0.3772817708,
				"y": 3.8504182036,
				"z": -0.9396238923,
				"element": "C" 
			},
			{
				"x": -0.5177875169,
				"y": 5.2044993257,
				"z": -1.27938648,
				"element": "C" 
			},
			{
				"x": 0.8051935628,
				"y": 3.1073937598,
				"z": -1.3442844229,
				"element": "C" 
			},
			{
				"x": 1.947565685,
				"y": 3.4284012951,
				"z": -2.0533017406,
				"element": "C" 
			},
			{
				"x": 2.7274058586,
				"y": 2.2528896276,
				"z": -2.1101605828,
				"element": "C" 
			},
			{
				"x": 2.0239696813,
				"y": 1.2674807781,
				"z": -1.4323697713,
				"element": "C" 
			},
			{
				"x": 0.8545007436,
				"y": 1.8022283782,
				"z": -0.9710571066,
				"element": "O" 
			},
			{
				"x": 2.3550084774,
				"y": -0.0912002727,
				"z": -1.1932268529,
				"element": "C" 
			},
			{
				"x": 1.6862960729,
				"y": -1.0845069444,
				"z": -0.5313310137,
				"element": "C" 
			},
			{
				"x": 2.224934918,
				"y": -2.367460822,
				"z": -0.4261523948,
				"element": "N" 
			},
			{
				"x": 1.3656076065,
				"y": -3.0632236212,
				"z": 0.2466169194,
				"element": "C" 
			},
			{
				"x": 0.2355136927,
				"y": -2.3849364821,
				"z": 0.6432002148,
				"element": "O" 
			},
			{
				"x": 0.373964172,
				"y": -1.0703783863,
				"z": 0.1663049209,
				"element": "C" 
			},
			{
				"x": -0.4776522794,
				"y": -0.243962574,
				"z": 0.3684888839,
				"element": "O" 
			},
			{
				"x": 1.4715029417,
				"y": -4.4674036905,
				"z": 0.6204520516,
				"element": "C" 
			},
			{
				"x": 0.454463676,
				"y": -5.0964922666,
				"z": 1.3571886535,
				"element": "C" 
			},
			{
				"x": 0.5784589642,
				"y": -6.4403737329,
				"z": 1.703033932,
				"element": "C" 
			},
			{
				"x": 1.7104264387,
				"y": -7.1629468517,
				"z": 1.319380137,
				"element": "C" 
			},
			{
				"x": 2.7247033963,
				"y": -6.5382591306,
				"z": 0.5854431946,
				"element": "C" 
			},
			{
				"x": 2.6099776715,
				"y": -5.197543981,
				"z": 0.2356033954,
				"element": "C" 
			},
			{
				"x": -3.5482936973,
				"y": 5.8488307945,
				"z": 0.1438446646,
				"element": "H" 
			},
			{
				"x": -3.3079981989,
				"y": 3.4271507208,
				"z": 0.7572259359,
				"element": "H" 
			},
			{
				"x": -1.2869858326,
				"y": 2.1686093002,
				"z": 0.0621753025,
				"element": "H" 
			},
			{
				"x": 0.2358938888,
				"y": 5.7367567144,
				"z": -1.8455460913,
				"element": "H" 
			},
			{
				"x": 2.1904546468,
				"y": 4.3913279263,
				"z": -2.4779667058,
				"element": "H" 
			},
			{
				"x": 3.6897026214,
				"y": 2.1268456635,
				"z": -2.5857767919,
				"element": "H" 
			},
			{
				"x": 3.3111859002,
				"y": -0.3946460425,
				"z": -1.6115125245,
				"element": "H" 
			},
			{
				"x": -0.421272157,
				"y": -4.5287850648,
				"z": 1.6513876634,
				"element": "H" 
			},
			{
				"x": -0.2092155929,
				"y": -6.9242875561,
				"z": 2.2726294325,
				"element": "H" 
			},
			{
				"x": 1.8035499986,
				"y": -8.2104726078,
				"z": 1.5908698467,
				"element": "H" 
			},
			{
				"x": 3.6048209164,
				"y": -7.100056815,
				"z": 0.2871413076,
				"element": "H" 
			},
			{
				"x": 3.3858589886,
				"y": -4.6963302113,
				"z": -0.3329773961,
				"element": "H" 
			}
		],
		 "valence_orbital": [ 
			{
				"type": "occ",
				"energy": -0.28242,
				"method": "rhf"
			},
			{
				"type": "occ",
				"energy": -0.27496,
				"method": "rhf"
			},
			{
				"type": "occ",
				"energy": -0.26584,
				"method": "rhf"
			},
			{
				"type": "occ",
				"energy": -0.25937,
				"method": "rhf"
			},
			{
				"type": "occ",
				"energy": -0.20906,
				"method": "rhf"
			},
			{
				"type": "unocc",
				"energy": -0.1021,
				"method": "rhf"
			},
			{
				"type": "unocc",
				"energy": -0.08928,
				"method": "rhf"
			},
			{
				"type": "unocc",
				"energy": -0.04785,
				"method": "rhf"
			},
			{
				"type": "unocc",
				"energy": -0.03354,
				"method": "rhf"
			},
			{
				"type": "unocc",
				"energy": -0.01424,
				"method": "rhf"
			}
		],
		"cosmo_sigma_profile": { 
			"-0.025": 0.0,
			"-0.024": 0.0,
			"-0.023": 0.0,
			"-0.022": 0.0,
			"-0.021": 0.0,
			"-0.02": 0.0,
			"-0.019": 0.0,
			"-0.018": 0.0,
			"-0.017": 0.0,
			"-0.016": 0.0,
			"-0.015": 0.0,
			"-0.014": 0.0,
			"-0.013": 0.0,
			"-0.012": 0.0,
			"-0.011": 0.0,
			"-0.01": 1.02046780213,
			"-0.009": 5.43768102928,
			"-0.008": 8.72128740577,
			"-0.007": 11.5126869699,
			"-0.006": 20.9282740617,
			"-0.005": 23.0247586114,
			"-0.004": 23.2972392251,
			"-0.003": 19.5975051979,
			"-0.002": 23.9112866431,
			"-0.001": 34.733629052,
			"0.0": 43.4738093947,
			"0.001": 36.540393409,
			"0.002": 27.6350613788,
			"0.003": 20.5303837912,
			"0.004": 18.8630859729,
			"0.005": 9.29590037477,
			"0.006": 9.11016354261,
			"0.007": 14.4918160403,
			"0.008": 11.2430781777,
			"0.009": 7.11853733094,
			"0.01": 5.22446201454,
			"0.011": 2.25577315586,
			"0.012": 1.50273283606,
			"0.013": 0.119338579342,
			"0.014": 0.0,
			"0.015": 0.0,
			"0.016": 0.0,
			"0.017": 0.0,
			"0.018": 0.0,
			"0.019": 0.0,
			"0.02": 0.0,
			"0.021": 0.0,
			"0.022": 0.0,
			"0.023": 0.0,
			"0.024": 0.0,
			"0.025": 0.0
		}
	}
}
