{
	 "smiles": "CN1CCCC2=C1C=C(C=C2)S(Cl)(=O)=O", 
	 "Tm": 338.15, 
	 "num_atms": 27, 
	 "gaussian": { 
		 "optdone": 1, 
		 "sigma_profile": "yes", 
		 "theory": "DFT", 
		 "functional": "B3LYP", 
		 "basiset": "6-31G**", 
		 "properties": { 
			 "R2extent": 5698.3584, 
			 "electric_dipole_moment_norm": 7.80619432502, 
			 "electric_quadrupole_moment_norm": 16.4377634382, 
			 "total_energy": -1451.8169714, 
			 "HOMO_LUMO_gap": 0.13184, 
			 "cosmo_polarized_energy": -10.68, 
			 "cosmo_cavitation_energy": 32.37, 
			 "cosmo_dispersion_energy": -24.18, 
			 "cosmo_repulsion_energy": 1.85, 
			 "cosmo_total_nonelectrostatic_energy": 10.04, 
			 "SMD_solvation_energy": 2.98 
		},
		"coords": [
			{
				"x": 0.9685132988,
				"y": -1.4779949993,
				"z": -2.1990326284,
				"element": "C" 
			},
			{
				"x": -0.3033194197,
				"y": -0.7928013716,
				"z": -2.042069526,
				"element": "N" 
			},
			{
				"x": -1.0998500448,
				"y": -0.5786200808,
				"z": -3.2483543711,
				"element": "C" 
			},
			{
				"x": -2.1259673998,
				"y": 0.530830693,
				"z": -3.0294315014,
				"element": "C" 
			},
			{
				"x": -3.0438960258,
				"y": 0.1647943405,
				"z": -1.8609769764,
				"element": "C" 
			},
			{
				"x": -2.2531218802,
				"y": -0.2843289294,
				"z": -0.6500581289,
				"element": "C" 
			},
			{
				"x": -0.9247326761,
				"y": -0.7779778608,
				"z": -0.8014186781,
				"element": "C" 
			},
			{
				"x": -0.246777914,
				"y": -1.2272595381,
				"z": 0.3502327708,
				"element": "C" 
			},
			{
				"x": -0.875253121,
				"y": -1.1507442927,
				"z": 1.5901757362,
				"element": "C" 
			},
			{
				"x": -2.1639187886,
				"y": -0.6568404842,
				"z": 1.7659046231,
				"element": "C" 
			},
			{
				"x": -2.8290097124,
				"y": -0.2255367797,
				"z": 0.618578673,
				"element": "C" 
			},
			{
				"x": 0.0256899067,
				"y": -1.7235166621,
				"z": 3.0187172192,
				"element": "S" 
			},
			{
				"x": -0.5340690911,
				"y": -3.7944820325,
				"z": 3.0790800026,
				"element": "Cl" 
			},
			{
				"x": -0.5326724835,
				"y": -1.1260806135,
				"z": 4.2258039574,
				"element": "O" 
			},
			{
				"x": 1.457669614,
				"y": -1.7113919301,
				"z": 2.740031471,
				"element": "O" 
			},
			{
				"x": 1.7317148268,
				"y": -1.0478623837,
				"z": -1.5415488354,
				"element": "H" 
			},
			{
				"x": 1.3114478987,
				"y": -1.3511907673,
				"z": -3.227492198,
				"element": "H" 
			},
			{
				"x": 0.9031523682,
				"y": -2.5567657597,
				"z": -1.9891618246,
				"element": "H" 
			},
			{
				"x": -0.4146879657,
				"y": -0.3038112547,
				"z": -4.0564059993,
				"element": "H" 
			},
			{
				"x": -1.6118303594,
				"y": -1.5057333759,
				"z": -3.5601145843,
				"element": "H" 
			},
			{
				"x": -2.7065621484,
				"y": 0.6811521566,
				"z": -3.9452122265,
				"element": "H" 
			},
			{
				"x": -1.5977502984,
				"y": 1.4670727035,
				"z": -2.8158930775,
				"element": "H" 
			},
			{
				"x": -3.7188954698,
				"y": -0.6457739627,
				"z": -2.1710948068,
				"element": "H" 
			},
			{
				"x": -3.6869823343,
				"y": 1.0098951964,
				"z": -1.5920231668,
				"element": "H" 
			},
			{
				"x": 0.758532845,
				"y": -1.6208222624,
				"z": 0.2962391032,
				"element": "H" 
			},
			{
				"x": -2.6171828541,
				"y": -0.6045222701,
				"z": 2.7478309185,
				"element": "H" 
			},
			{
				"x": -3.8369407712,
				"y": 0.1713125211,
				"z": 0.7100940544,
				"element": "H" 
			}
		],
		 "valence_orbital": [ 
			{
				"type": "occ",
				"energy": -0.31872,
				"method": "rhf"
			},
			{
				"type": "occ",
				"energy": -0.30579,
				"method": "rhf"
			},
			{
				"type": "occ",
				"energy": -0.30143,
				"method": "rhf"
			},
			{
				"type": "occ",
				"energy": -0.2687,
				"method": "rhf"
			},
			{
				"type": "occ",
				"energy": -0.21087,
				"method": "rhf"
			},
			{
				"type": "unocc",
				"energy": -0.07903,
				"method": "rhf"
			},
			{
				"type": "unocc",
				"energy": -0.02914,
				"method": "rhf"
			},
			{
				"type": "unocc",
				"energy": -0.01041,
				"method": "rhf"
			},
			{
				"type": "unocc",
				"energy": 0.06141,
				"method": "rhf"
			},
			{
				"type": "unocc",
				"energy": 0.07037,
				"method": "rhf"
			}
		],
		"cosmo_sigma_profile": { 
			"-0.025": 0.0,
			"-0.024": 0.0,
			"-0.023": 0.0,
			"-0.022": 0.0,
			"-0.021": 0.0,
			"-0.02": 0.0,
			"-0.019": 0.0,
			"-0.018": 0.0,
			"-0.017": 0.0,
			"-0.016": 0.0,
			"-0.015": 0.0,
			"-0.014": 0.0,
			"-0.013": 0.0,
			"-0.012": 0.0,
			"-0.011": 0.0,
			"-0.01": 0.0,
			"-0.009": 0.0,
			"-0.008": 0.122318242219,
			"-0.007": 2.93540867462,
			"-0.006": 9.54124363303,
			"-0.005": 14.5169683803,
			"-0.004": 24.8461644832,
			"-0.003": 31.5155858123,
			"-0.002": 32.4215748831,
			"-0.001": 21.7002966782,
			"0.0": 15.693433023,
			"0.001": 14.3175116695,
			"0.002": 17.6269723797,
			"0.003": 22.2655358667,
			"0.004": 19.4219099216,
			"0.005": 5.94801189685,
			"0.006": 3.473082091,
			"0.007": 5.13919977615,
			"0.008": 9.74324718244,
			"0.009": 7.12075976544,
			"0.01": 0.564008642718,
			"0.011": 0.0,
			"0.012": 0.0,
			"0.013": 0.0,
			"0.014": 0.0,
			"0.015": 0.0,
			"0.016": 0.0,
			"0.017": 0.0,
			"0.018": 0.0,
			"0.019": 0.0,
			"0.02": 0.0,
			"0.021": 0.0,
			"0.022": 0.0,
			"0.023": 0.0,
			"0.024": 0.0,
			"0.025": 0.0
		}
	}
}
