{
	 "smiles": "CS(=O)(=O)OCCN1C(=O)C2=C(C=CC=C2)C1=O", 
	 "Tm": 414.15, 
	 "num_atms": 29, 
	 "gaussian": { 
		 "optdone": 1, 
		 "sigma_profile": "yes", 
		 "theory": "DFT", 
		 "functional": "B3LYP", 
		 "basiset": "6-31G**", 
		 "properties": { 
			 "R2extent": 5246.521, 
			 "electric_dipole_moment_norm": 3.88645942472, 
			 "electric_quadrupole_moment_norm": 25.0247879977, 
			 "total_energy": -1254.82493289, 
			 "HOMO_LUMO_gap": 0.18201, 
			 "cosmo_polarized_energy": -18.07, 
			 "cosmo_cavitation_energy": 34.43, 
			 "cosmo_dispersion_energy": -24.49, 
			 "cosmo_repulsion_energy": 1.83, 
			 "cosmo_total_nonelectrostatic_energy": 11.77, 
			 "SMD_solvation_energy": 6.3 
		},
		"coords": [
			{
				"x": 3.9747295481,
				"y": 0.0131447872,
				"z": -0.1434918316,
				"element": "C" 
			},
			{
				"x": 3.1036004041,
				"y": -0.1814527453,
				"z": -1.696621058,
				"element": "S" 
			},
			{
				"x": 2.0747671832,
				"y": 0.8528367746,
				"z": -1.8339218249,
				"element": "O" 
			},
			{
				"x": 4.0561882102,
				"y": -0.3983446632,
				"z": -2.7810510096,
				"element": "O" 
			},
			{
				"x": 2.3732190316,
				"y": -1.6085791641,
				"z": -1.3223036786,
				"element": "O" 
			},
			{
				"x": 1.0929657106,
				"y": -1.9083230005,
				"z": -1.9300357099,
				"element": "C" 
			},
			{
				"x": -0.0165253058,
				"y": -1.8592863147,
				"z": -0.8809162526,
				"element": "C" 
			},
			{
				"x": -0.4110150096,
				"y": -0.5125581892,
				"z": -0.5086595572,
				"element": "N" 
			},
			{
				"x": 0.1184245561,
				"y": 0.2147941335,
				"z": 0.566239787,
				"element": "C" 
			},
			{
				"x": 0.9414592377,
				"y": -0.1992862114,
				"z": 1.3628735899,
				"element": "O" 
			},
			{
				"x": -0.5449260515,
				"y": 1.550131293,
				"z": 0.5128610863,
				"element": "C" 
			},
			{
				"x": -1.4023437932,
				"y": 1.5724208875,
				"z": -0.5892218511,
				"element": "C" 
			},
			{
				"x": -2.1581068816,
				"y": 2.6932930354,
				"z": -0.8989189824,
				"element": "C" 
			},
			{
				"x": -2.0297563086,
				"y": 3.8083650762,
				"z": -0.0598745406,
				"element": "C" 
			},
			{
				"x": -1.1715582824,
				"y": 3.7855780371,
				"z": 1.0469161223,
				"element": "C" 
			},
			{
				"x": -0.4123464887,
				"y": 2.6474675223,
				"z": 1.3505068044,
				"element": "C" 
			},
			{
				"x": -1.3160407195,
				"y": 0.2498125902,
				"z": -1.2711674216,
				"element": "C" 
			},
			{
				"x": -1.8873115383,
				"y": -0.1490107188,
				"z": -2.2664341008,
				"element": "O" 
			},
			{
				"x": 4.5552653154,
				"y": 0.9335831851,
				"z": -0.2240175242,
				"element": "H" 
			},
			{
				"x": 4.6346331324,
				"y": -0.8444932635,
				"z": -0.0116283917,
				"element": "H" 
			},
			{
				"x": 3.2344287436,
				"y": 0.0729184562,
				"z": 0.6550011711,
				"element": "H" 
			},
			{
				"x": 1.1828421933,
				"y": -2.9228460315,
				"z": -2.3279411675,
				"element": "H" 
			},
			{
				"x": 0.8773649872,
				"y": -1.2222894599,
				"z": -2.7522592835,
				"element": "H" 
			},
			{
				"x": 0.3079948786,
				"y": -2.3769159271,
				"z": 0.0249162955,
				"element": "H" 
			},
			{
				"x": -0.8998707711,
				"y": -2.361281235,
				"z": -1.2874617262,
				"element": "H" 
			},
			{
				"x": -2.8188664346,
				"y": 2.6999726542,
				"z": -1.7596246809,
				"element": "H" 
			},
			{
				"x": -2.6033097626,
				"y": 4.7061392527,
				"z": -0.2699524927,
				"element": "H" 
			},
			{
				"x": -1.0940047483,
				"y": 4.6657862491,
				"z": 1.6780888674,
				"element": "H" 
			},
			{
				"x": 0.2555989638,
				"y": 2.6194229897,
				"z": 2.2052993619,
				"element": "H" 
			}
		],
		 "valence_orbital": [ 
			{
				"type": "occ",
				"energy": -0.29426,
				"method": "rhf"
			},
			{
				"type": "occ",
				"energy": -0.28258,
				"method": "rhf"
			},
			{
				"type": "occ",
				"energy": -0.27856,
				"method": "rhf"
			},
			{
				"type": "occ",
				"energy": -0.27221,
				"method": "rhf"
			},
			{
				"type": "occ",
				"energy": -0.26617,
				"method": "rhf"
			},
			{
				"type": "unocc",
				"energy": -0.08416,
				"method": "rhf"
			},
			{
				"type": "unocc",
				"energy": -0.04199,
				"method": "rhf"
			},
			{
				"type": "unocc",
				"energy": 0.02628,
				"method": "rhf"
			},
			{
				"type": "unocc",
				"energy": 0.04074,
				"method": "rhf"
			},
			{
				"type": "unocc",
				"energy": 0.0658,
				"method": "rhf"
			}
		],
		"cosmo_sigma_profile": { 
			"-0.025": 0.0,
			"-0.024": 0.0,
			"-0.023": 0.0,
			"-0.022": 0.0,
			"-0.021": 0.0,
			"-0.02": 0.0,
			"-0.019": 0.0,
			"-0.018": 0.0,
			"-0.017": 0.0,
			"-0.016": 0.0,
			"-0.015": 0.0,
			"-0.014": 0.0,
			"-0.013": 0.0,
			"-0.012": 0.0,
			"-0.011": 0.125538916929,
			"-0.01": 1.73512401912,
			"-0.009": 3.55543414687,
			"-0.008": 8.72397650734,
			"-0.007": 20.8318881247,
			"-0.006": 20.4629381533,
			"-0.005": 21.9027180766,
			"-0.004": 20.7997981685,
			"-0.003": 14.733274917,
			"-0.002": 12.9354354015,
			"-0.001": 15.7483216899,
			"0.0": 14.8142763419,
			"0.001": 17.774768543,
			"0.002": 19.5502253278,
			"0.003": 10.3162354495,
			"0.004": 7.34682769019,
			"0.005": 6.41316562973,
			"0.006": 7.47010903353,
			"0.007": 7.16595729818,
			"0.008": 6.94663670349,
			"0.009": 7.17481449139,
			"0.01": 13.9908631826,
			"0.011": 12.9495214088,
			"0.012": 1.76809407315,
			"0.013": 0.0,
			"0.014": 0.0,
			"0.015": 0.0,
			"0.016": 0.0,
			"0.017": 0.0,
			"0.018": 0.0,
			"0.019": 0.0,
			"0.02": 0.0,
			"0.021": 0.0,
			"0.022": 0.0,
			"0.023": 0.0,
			"0.024": 0.0,
			"0.025": 0.0
		}
	}
}
