{
	 "smiles": "CC1=C(NC(=O)C2CCNCC2)N=CC=C1", 
	 "Tm": 410.15, 
	 "num_atms": 33, 
	 "gaussian": { 
		 "optdone": 1, 
		 "sigma_profile": "yes", 
		 "theory": "DFT", 
		 "functional": "B3LYP", 
		 "basiset": "6-31G**", 
		 "properties": { 
			 "R2extent": 4081.5938, 
			 "electric_dipole_moment_norm": 5.24146646655, 
			 "electric_quadrupole_moment_norm": 10.2862383644, 
			 "total_energy": -707.018692954, 
			 "HOMO_LUMO_gap": 0.18456, 
			 "cosmo_polarized_energy": -15.25, 
			 "cosmo_cavitation_energy": 34.5, 
			 "cosmo_dispersion_energy": -23.9, 
			 "cosmo_repulsion_energy": 1.87, 
			 "cosmo_total_nonelectrostatic_energy": 12.47, 
			 "SMD_solvation_energy": 2.29 
		},
		"coords": [
			{
				"x": -2.2187476338,
				"y": -0.3080550867,
				"z": -0.9857096438,
				"element": "C" 
			},
			{
				"x": -1.1693393371,
				"y": 0.4804339499,
				"z": -1.7281078748,
				"element": "C" 
			},
			{
				"x": -0.5997128156,
				"y": 1.6648891259,
				"z": -1.2129728945,
				"element": "C" 
			},
			{
				"x": -0.9803469583,
				"y": 2.1657294406,
				"z": 0.062353487,
				"element": "N" 
			},
			{
				"x": -0.6159932509,
				"y": 1.7074441476,
				"z": 1.324675869,
				"element": "C" 
			},
			{
				"x": -0.8941240966,
				"y": 2.3734305493,
				"z": 2.3109329736,
				"element": "O" 
			},
			{
				"x": 0.1873658577,
				"y": 0.4156658137,
				"z": 1.4303058252,
				"element": "C" 
			},
			{
				"x": -0.3377990941,
				"y": -0.4737645392,
				"z": 2.57255347,
				"element": "C" 
			},
			{
				"x": 0.5749579495,
				"y": -1.6858817381,
				"z": 2.7831146442,
				"element": "C" 
			},
			{
				"x": 1.9414164828,
				"y": -1.2381938944,
				"z": 3.0477427793,
				"element": "N" 
			},
			{
				"x": 2.5009357761,
				"y": -0.4867809513,
				"z": 1.9253908165,
				"element": "C" 
			},
			{
				"x": 1.6715517601,
				"y": 0.7786548893,
				"z": 1.6870254918,
				"element": "C" 
			},
			{
				"x": 0.2496820148,
				"y": 2.4395718352,
				"z": -1.8974374409,
				"element": "N" 
			},
			{
				"x": 0.6178885279,
				"y": 2.0505901176,
				"z": -3.1216097283,
				"element": "C" 
			},
			{
				"x": 0.1696359999,
				"y": 0.869835037,
				"z": -3.710944525,
				"element": "C" 
			},
			{
				"x": -0.7400286537,
				"y": 0.0898696088,
				"z": -3.0011657241,
				"element": "C" 
			},
			{
				"x": -2.8526224284,
				"y": -0.8583122864,
				"z": -1.6868546313,
				"element": "H" 
			},
			{
				"x": -2.8505092968,
				"y": 0.3517621606,
				"z": -0.3854123481,
				"element": "H" 
			},
			{
				"x": -1.7773375827,
				"y": -1.0424803444,
				"z": -0.3016485465,
				"element": "H" 
			},
			{
				"x": -1.189532128,
				"y": 3.1582473637,
				"z": 0.0775671945,
				"element": "H" 
			},
			{
				"x": 0.1416242422,
				"y": -0.1409903944,
				"z": 0.4882353127,
				"element": "H" 
			},
			{
				"x": -0.3779521253,
				"y": 0.1245752692,
				"z": 3.4872283109,
				"element": "H" 
			},
			{
				"x": -1.3584945812,
				"y": -0.8114756163,
				"z": 2.3551498981,
				"element": "H" 
			},
			{
				"x": 0.22523256,
				"y": -2.2699317934,
				"z": 3.6416933546,
				"element": "H" 
			},
			{
				"x": 0.5079531005,
				"y": -2.3455260708,
				"z": 1.8930252319,
				"element": "H" 
			},
			{
				"x": 2.533418797,
				"y": -2.0352388194,
				"z": 3.2626230431,
				"element": "H" 
			},
			{
				"x": 3.534227646,
				"y": -0.2131133115,
				"z": 2.1664129227,
				"element": "H" 
			},
			{
				"x": 2.5307661681,
				"y": -1.0776205633,
				"z": 0.9869604403,
				"element": "H" 
			},
			{
				"x": 2.0767766009,
				"y": 1.3393416509,
				"z": 0.8367030418,
				"element": "H" 
			},
			{
				"x": 1.7263572623,
				"y": 1.4211955431,
				"z": 2.5717917455,
				"element": "H" 
			},
			{
				"x": 1.3017087209,
				"y": 2.7127676202,
				"z": -3.6492248916,
				"element": "H" 
			},
			{
				"x": 0.5034861327,
				"y": 0.5840772853,
				"z": -4.7031739905,
				"element": "H" 
			},
			{
				"x": -1.1466456168,
				"y": -0.8161159982,
				"z": -3.4437236132,
				"element": "H" 
			}
		],
		 "valence_orbital": [ 
			{
				"type": "occ",
				"energy": -0.27786,
				"method": "rhf"
			},
			{
				"type": "occ",
				"energy": -0.26927,
				"method": "rhf"
			},
			{
				"type": "occ",
				"energy": -0.25061,
				"method": "rhf"
			},
			{
				"type": "occ",
				"energy": -0.23765,
				"method": "rhf"
			},
			{
				"type": "occ",
				"energy": -0.21856,
				"method": "rhf"
			},
			{
				"type": "unocc",
				"energy": -0.034,
				"method": "rhf"
			},
			{
				"type": "unocc",
				"energy": -0.01983,
				"method": "rhf"
			},
			{
				"type": "unocc",
				"energy": 0.02551,
				"method": "rhf"
			},
			{
				"type": "unocc",
				"energy": 0.07393,
				"method": "rhf"
			},
			{
				"type": "unocc",
				"energy": 0.09234,
				"method": "rhf"
			}
		],
		"cosmo_sigma_profile": { 
			"-0.025": 0.0,
			"-0.024": 0.0,
			"-0.023": 0.0,
			"-0.022": 0.0,
			"-0.021": 0.0,
			"-0.02": 0.0,
			"-0.019": 0.0,
			"-0.018": 0.0,
			"-0.017": 0.0,
			"-0.016": 0.0,
			"-0.015": 0.0,
			"-0.014": 0.315095885841,
			"-0.013": 0.692193500947,
			"-0.012": 0.670349558967,
			"-0.011": 1.17185134399,
			"-0.01": 1.60079886282,
			"-0.009": 1.86556631451,
			"-0.008": 1.42185043673,
			"-0.007": 5.48373275048,
			"-0.006": 9.72669470894,
			"-0.005": 13.4602380416,
			"-0.004": 18.399023146,
			"-0.003": 28.1814450223,
			"-0.002": 34.1527758482,
			"-0.001": 37.7888607993,
			"0.0": 28.5210711938,
			"0.001": 15.3754356689,
			"0.002": 14.2955761851,
			"0.003": 11.1463838875,
			"0.004": 5.81741583956,
			"0.005": 3.57106243803,
			"0.006": 3.66474372329,
			"0.007": 4.46011490627,
			"0.008": 3.32673854428,
			"0.009": 2.4569660858,
			"0.01": 3.41222180988,
			"0.011": 2.5525047856,
			"0.012": 3.5504161112,
			"0.013": 6.15459389454,
			"0.014": 3.87340665041,
			"0.015": 1.32114711225,
			"0.016": 0.793664563097,
			"0.017": 0.338176905704,
			"0.018": 0.41689165945,
			"0.019": 0.0318888227,
			"0.02": 0.0,
			"0.021": 0.0,
			"0.022": 0.0,
			"0.023": 0.0,
			"0.024": 0.0,
			"0.025": 0.0
		}
	}
}
