{
	 "smiles": "ClC1=CC=CC(=C1)C(=O)C1=CC=CC=C1", 
	 "Tm": 355.65, 
	 "num_atms": 24, 
	 "gaussian": { 
		 "optdone": 1, 
		 "sigma_profile": "yes", 
		 "theory": "DFT", 
		 "functional": "B3LYP", 
		 "basiset": "6-31G**", 
		 "properties": { 
			 "R2extent": 5014.2286, 
			 "electric_dipole_moment_norm": 1.62303064974, 
			 "electric_quadrupole_moment_norm": 15.1423762663, 
			 "total_energy": -1036.22627829, 
			 "HOMO_LUMO_gap": 0.17762, 
			 "cosmo_polarized_energy": -8.49, 
			 "cosmo_cavitation_energy": 30.44, 
			 "cosmo_dispersion_energy": -22.1, 
			 "cosmo_repulsion_energy": 1.73, 
			 "cosmo_total_nonelectrostatic_energy": 10.07, 
			 "SMD_solvation_energy": 5.28 
		},
		"coords": [
			{
				"x": -3.046066422,
				"y": -1.4370674671,
				"z": -3.2731067013,
				"element": "Cl" 
			},
			{
				"x": -1.9378713719,
				"y": -0.2234183623,
				"z": -2.6463645196,
				"element": "C" 
			},
			{
				"x": -2.0656963528,
				"y": 1.1001199982,
				"z": -3.0646652387,
				"element": "C" 
			},
			{
				"x": -1.1929253364,
				"y": 2.0598576152,
				"z": -2.5449360371,
				"element": "C" 
			},
			{
				"x": -0.2138241006,
				"y": 1.6986473889,
				"z": -1.6246850937,
				"element": "C" 
			},
			{
				"x": -0.0748094622,
				"y": 0.3599700304,
				"z": -1.2275409936,
				"element": "C" 
			},
			{
				"x": -0.9516350448,
				"y": -0.6075629352,
				"z": -1.7394982121,
				"element": "C" 
			},
			{
				"x": 0.9668366727,
				"y": 0.0417529945,
				"z": -0.1894796597,
				"element": "C" 
			},
			{
				"x": 1.3017518564,
				"y": 0.9104384803,
				"z": 0.6076804719,
				"element": "O" 
			},
			{
				"x": 1.591285837,
				"y": -1.3190758966,
				"z": -0.1228972103,
				"element": "C" 
			},
			{
				"x": 2.1029789604,
				"y": -1.7405082207,
				"z": 1.1155882986,
				"element": "C" 
			},
			{
				"x": 2.7348085292,
				"y": -2.974290161,
				"z": 1.2346643377,
				"element": "C" 
			},
			{
				"x": 2.8875491345,
				"y": -3.7932067692,
				"z": 0.1112331675,
				"element": "C" 
			},
			{
				"x": 2.4066955227,
				"y": -3.3720918134,
				"z": -1.1294633957,
				"element": "C" 
			},
			{
				"x": 1.755814756,
				"y": -2.1433859564,
				"z": -1.2473704261,
				"element": "C" 
			},
			{
				"x": -2.836649241,
				"y": 1.3724235503,
				"z": -3.7770200207,
				"element": "H" 
			},
			{
				"x": -1.2887791454,
				"y": 3.0943543265,
				"z": -2.8606555113,
				"element": "H" 
			},
			{
				"x": 0.4543161605,
				"y": 2.4370173018,
				"z": -1.1954593262,
				"element": "H" 
			},
			{
				"x": -0.8876613777,
				"y": -1.640889187,
				"z": -1.4207744593,
				"element": "H" 
			},
			{
				"x": 1.9935829205,
				"y": -1.0811672903,
				"z": 1.9701520628,
				"element": "H" 
			},
			{
				"x": 3.1143490749,
				"y": -3.297987894,
				"z": 2.1994048693,
				"element": "H" 
			},
			{
				"x": 3.385904705,
				"y": -4.7540858883,
				"z": 0.2027359127,
				"element": "H" 
			},
			{
				"x": 2.539986588,
				"y": -3.997884238,
				"z": -2.0069459644,
				"element": "H" 
			},
			{
				"x": 1.4008571367,
				"y": -1.8153596067,
				"z": -2.2185963504,
				"element": "H" 
			}
		],
		 "valence_orbital": [ 
			{
				"type": "occ",
				"energy": -0.27326,
				"method": "rhf"
			},
			{
				"type": "occ",
				"energy": -0.26626,
				"method": "rhf"
			},
			{
				"type": "occ",
				"energy": -0.26334,
				"method": "rhf"
			},
			{
				"type": "occ",
				"energy": -0.2573,
				"method": "rhf"
			},
			{
				"type": "occ",
				"energy": -0.24893,
				"method": "rhf"
			},
			{
				"type": "unocc",
				"energy": -0.07131,
				"method": "rhf"
			},
			{
				"type": "unocc",
				"energy": -0.02514,
				"method": "rhf"
			},
			{
				"type": "unocc",
				"energy": -0.0193,
				"method": "rhf"
			},
			{
				"type": "unocc",
				"energy": -0.0113,
				"method": "rhf"
			},
			{
				"type": "unocc",
				"energy": 0.02386,
				"method": "rhf"
			}
		],
		"cosmo_sigma_profile": { 
			"-0.025": 0.0,
			"-0.024": 0.0,
			"-0.023": 0.0,
			"-0.022": 0.0,
			"-0.021": 0.0,
			"-0.02": 0.0,
			"-0.019": 0.0,
			"-0.018": 0.0,
			"-0.017": 0.0,
			"-0.016": 0.0,
			"-0.015": 0.0,
			"-0.014": 0.0,
			"-0.013": 0.0,
			"-0.012": 0.0,
			"-0.011": 0.0,
			"-0.01": 0.0,
			"-0.009": 0.0,
			"-0.008": 1.13507314837,
			"-0.007": 6.3856204437,
			"-0.006": 16.6773140351,
			"-0.005": 18.6999088898,
			"-0.004": 20.4519307169,
			"-0.003": 16.3855082562,
			"-0.002": 14.2814358314,
			"-0.001": 18.6548551476,
			"0.0": 18.1733088041,
			"0.001": 21.8361518111,
			"0.002": 25.831461072,
			"0.003": 22.6760439774,
			"0.004": 23.0650119425,
			"0.005": 7.39851153924,
			"0.006": 1.3265910862,
			"0.007": 1.86154651014,
			"0.008": 1.90773905201,
			"0.009": 1.85456959362,
			"0.01": 2.1838467114,
			"0.011": 3.06350215239,
			"0.012": 3.57320455275,
			"0.013": 0.172595390944,
			"0.014": 0.0,
			"0.015": 0.0,
			"0.016": 0.0,
			"0.017": 0.0,
			"0.018": 0.0,
			"0.019": 0.0,
			"0.02": 0.0,
			"0.021": 0.0,
			"0.022": 0.0,
			"0.023": 0.0,
			"0.024": 0.0,
			"0.025": 0.0
		}
	}
}
