{
	 "smiles": "CC(Cl)C(=O)NC1=C(Cl)C=CC=C1", 
	 "Tm": 337.15, 
	 "num_atms": 22, 
	 "gaussian": { 
		 "optdone": 1, 
		 "sigma_profile": "yes", 
		 "theory": "DFT", 
		 "functional": "B3LYP", 
		 "basiset": "6-31G**", 
		 "properties": { 
			 "R2extent": 3405.2445, 
			 "electric_dipole_moment_norm": 4.48255030089, 
			 "electric_quadrupole_moment_norm": 7.89728793701, 
			 "total_energy": -1398.75738346, 
			 "HOMO_LUMO_gap": 0.20824, 
			 "cosmo_polarized_energy": -12.2, 
			 "cosmo_cavitation_energy": 29.53, 
			 "cosmo_dispersion_energy": -20.7, 
			 "cosmo_repulsion_energy": 1.66, 
			 "cosmo_total_nonelectrostatic_energy": 10.49, 
			 "SMD_solvation_energy": 5.17 
		},
		"coords": [
			{
				"x": -2.0953536728,
				"y": -2.4258361653,
				"z": 2.2941870461,
				"element": "C" 
			},
			{
				"x": -0.9906112981,
				"y": -1.6835197427,
				"z": 1.5648158752,
				"element": "C" 
			},
			{
				"x": 0.6418486311,
				"y": -2.4314055369,
				"z": 1.94629482,
				"element": "Cl" 
			},
			{
				"x": -0.9179251356,
				"y": -0.2088067151,
				"z": 1.9913193281,
				"element": "C" 
			},
			{
				"x": -1.3858435077,
				"y": 0.1645389411,
				"z": 3.053800961,
				"element": "O" 
			},
			{
				"x": -0.2800792078,
				"y": 0.6878657944,
				"z": 1.1551153594,
				"element": "N" 
			},
			{
				"x": 0.3463607611,
				"y": 0.4832172008,
				"z": -0.0953370031,
				"element": "C" 
			},
			{
				"x": 1.6950735452,
				"y": 0.8320371532,
				"z": -0.2878710118,
				"element": "C" 
			},
			{
				"x": 2.6210591245,
				"y": 1.496603895,
				"z": 1.0456895363,
				"element": "Cl" 
			},
			{
				"x": 2.3129480623,
				"y": 0.6704978321,
				"z": -1.5266426743,
				"element": "C" 
			},
			{
				"x": 1.5908919843,
				"y": 0.1450539135,
				"z": -2.5974115821,
				"element": "C" 
			},
			{
				"x": 0.2466615494,
				"y": -0.190466963,
				"z": -2.4319419817,
				"element": "C" 
			},
			{
				"x": -0.3718817771,
				"y": -0.0013549779,
				"z": -1.1982917496,
				"element": "C" 
			},
			{
				"x": -2.0795648444,
				"y": -3.4857751357,
				"z": 2.0321779367,
				"element": "H" 
			},
			{
				"x": -1.9847964302,
				"y": -2.3088205647,
				"z": 3.372680746,
				"element": "H" 
			},
			{
				"x": -3.0648372444,
				"y": -2.0050878201,
				"z": 2.0058943901,
				"element": "H" 
			},
			{
				"x": -1.083623957,
				"y": -1.7894571839,
				"z": 0.485653951,
				"element": "H" 
			},
			{
				"x": -0.085231602,
				"y": 1.5638224618,
				"z": 1.6270241183,
				"element": "H" 
			},
			{
				"x": 3.3550522804,
				"y": 0.9479788463,
				"z": -1.6394787929,
				"element": "H" 
			},
			{
				"x": 2.0775207247,
				"y": 0.0108313848,
				"z": -3.5582152027,
				"element": "H" 
			},
			{
				"x": -0.3289056856,
				"y": -0.5757619853,
				"z": -3.2676219723,
				"element": "H" 
			},
			{
				"x": -1.4318623004,
				"y": -0.2025546324,
				"z": -1.0806420978,
				"element": "H" 
			}
		],
		 "valence_orbital": [ 
			{
				"type": "occ",
				"energy": -0.30643,
				"method": "rhf"
			},
			{
				"type": "occ",
				"energy": -0.29772,
				"method": "rhf"
			},
			{
				"type": "occ",
				"energy": -0.26726,
				"method": "rhf"
			},
			{
				"type": "occ",
				"energy": -0.26426,
				"method": "rhf"
			},
			{
				"type": "occ",
				"energy": -0.24609,
				"method": "rhf"
			},
			{
				"type": "unocc",
				"energy": -0.03785,
				"method": "rhf"
			},
			{
				"type": "unocc",
				"energy": -0.02862,
				"method": "rhf"
			},
			{
				"type": "unocc",
				"energy": -0.01569,
				"method": "rhf"
			},
			{
				"type": "unocc",
				"energy": 0.01816,
				"method": "rhf"
			},
			{
				"type": "unocc",
				"energy": 0.05685,
				"method": "rhf"
			}
		],
		"cosmo_sigma_profile": { 
			"-0.025": 0.0,
			"-0.024": 0.0,
			"-0.023": 0.0,
			"-0.022": 0.0,
			"-0.021": 0.0,
			"-0.02": 0.0,
			"-0.019": 0.0,
			"-0.018": 0.0,
			"-0.017": 0.0,
			"-0.016": 0.0,
			"-0.015": 0.0,
			"-0.014": 0.442374147221,
			"-0.013": 0.660446518553,
			"-0.012": 0.842062569193,
			"-0.011": 0.842708097318,
			"-0.01": 1.7174963317,
			"-0.009": 2.83880042814,
			"-0.008": 5.02010722346,
			"-0.007": 9.83304404553,
			"-0.006": 12.5411676688,
			"-0.005": 13.6090804421,
			"-0.004": 13.0043263758,
			"-0.003": 14.5053161759,
			"-0.002": 13.5220713164,
			"-0.001": 16.9410732449,
			"0.0": 17.1144921804,
			"0.001": 17.8631604253,
			"0.002": 22.3940256727,
			"0.003": 24.8960591857,
			"0.004": 17.9051298918,
			"0.005": 11.1937105058,
			"0.006": 6.54020300974,
			"0.007": 1.4248043857,
			"0.008": 1.51416158424,
			"0.009": 1.83317766082,
			"0.01": 0.970890479186,
			"0.011": 2.7224064877,
			"0.012": 4.94588043243,
			"0.013": 2.00417775754,
			"0.014": 0.0,
			"0.015": 0.0,
			"0.016": 0.0,
			"0.017": 0.0,
			"0.018": 0.0,
			"0.019": 0.0,
			"0.02": 0.0,
			"0.021": 0.0,
			"0.022": 0.0,
			"0.023": 0.0,
			"0.024": 0.0,
			"0.025": 0.0
		}
	}
}
