{
	 "smiles": "CC(C)(C)OC(=O)NCC1=NC(C2CC2)=C(C=C1)C(O)=O", 
	 "Tm": 418.15, 
	 "num_atms": 41, 
	 "gaussian": { 
		 "optdone": 1, 
		 "sigma_profile": "yes", 
		 "theory": "DFT", 
		 "functional": "B3LYP", 
		 "basiset": "6-31G**", 
		 "properties": { 
			 "R2extent": 9010.2006, 
			 "electric_dipole_moment_norm": 4.4492996359, 
			 "electric_quadrupole_moment_norm": 26.388590206, 
			 "total_energy": -994.070471235, 
			 "HOMO_LUMO_gap": 0.20177, 
			 "cosmo_polarized_energy": -18.99, 
			 "cosmo_cavitation_energy": 43.95, 
			 "cosmo_dispersion_energy": -29.62, 
			 "cosmo_repulsion_energy": 2.31, 
			 "cosmo_total_nonelectrostatic_energy": 16.63, 
			 "SMD_solvation_energy": 7.9 
		},
		"coords": [
			{
				"x": 1.1545855946,
				"y": -1.1423493021,
				"z": 3.233608316,
				"element": "C" 
			},
			{
				"x": 0.9708550617,
				"y": 0.320520211,
				"z": 3.6449090442,
				"element": "C" 
			},
			{
				"x": 2.1469595451,
				"y": 0.7980479444,
				"z": 4.5027186307,
				"element": "C" 
			},
			{
				"x": -0.3784877097,
				"y": 0.525308111,
				"z": 4.3411648969,
				"element": "C" 
			},
			{
				"x": 0.9771591761,
				"y": 1.0197674037,
				"z": 2.3475146045,
				"element": "O" 
			},
			{
				"x": 0.8452753731,
				"y": 2.3639599507,
				"z": 2.2838073708,
				"element": "C" 
			},
			{
				"x": 0.6921954913,
				"y": 3.1255611622,
				"z": 3.2248329301,
				"element": "O" 
			},
			{
				"x": 0.906787585,
				"y": 2.7979276298,
				"z": 0.9825947289,
				"element": "N" 
			},
			{
				"x": 1.060401842,
				"y": 1.9799922431,
				"z": -0.2019139706,
				"element": "C" 
			},
			{
				"x": -0.2321894647,
				"y": 1.5751048045,
				"z": -0.8975560032,
				"element": "C" 
			},
			{
				"x": -0.0587316904,
				"y": 0.9685830941,
				"z": -2.0790512414,
				"element": "N" 
			},
			{
				"x": -1.1192829516,
				"y": 0.5284457258,
				"z": -2.7691799794,
				"element": "C" 
			},
			{
				"x": -0.8341998479,
				"y": -0.0921632471,
				"z": -4.103587203,
				"element": "C" 
			},
			{
				"x": -0.1137311684,
				"y": -1.4487324254,
				"z": -4.1653564787,
				"element": "C" 
			},
			{
				"x": 0.5794367281,
				"y": -0.1959722486,
				"z": -4.6100205874,
				"element": "C" 
			},
			{
				"x": -2.4344460322,
				"y": 0.663627021,
				"z": -2.2642664705,
				"element": "C" 
			},
			{
				"x": -2.6036172134,
				"y": 1.3527649958,
				"z": -1.0579964415,
				"element": "C" 
			},
			{
				"x": -1.4976467209,
				"y": 1.8162511086,
				"z": -0.3576527814,
				"element": "C" 
			},
			{
				"x": -3.6867082686,
				"y": 0.1300815961,
				"z": -2.9008365719,
				"element": "C" 
			},
			{
				"x": -3.569116161,
				"y": -0.9634667078,
				"z": -3.6956224444,
				"element": "O" 
			},
			{
				"x": -4.7772724282,
				"y": 0.611646477,
				"z": -2.6969058498,
				"element": "O" 
			},
			{
				"x": 2.0993949092,
				"y": -1.2786191028,
				"z": 2.6991470132,
				"element": "H" 
			},
			{
				"x": 1.1637222994,
				"y": -1.7827900712,
				"z": 4.1204522292,
				"element": "H" 
			},
			{
				"x": 0.3383206273,
				"y": -1.4659902741,
				"z": 2.5812348928,
				"element": "H" 
			},
			{
				"x": 2.0293746724,
				"y": 1.8464500405,
				"z": 4.7773593331,
				"element": "H" 
			},
			{
				"x": 2.2025570177,
				"y": 0.1964557825,
				"z": 5.4157438423,
				"element": "H" 
			},
			{
				"x": 3.0888520236,
				"y": 0.6759848998,
				"z": 3.9583813954,
				"element": "H" 
			},
			{
				"x": -1.1963308125,
				"y": 0.2131937174,
				"z": 3.6837943358,
				"element": "H" 
			},
			{
				"x": -0.4199845032,
				"y": -0.0871475253,
				"z": 5.247665404,
				"element": "H" 
			},
			{
				"x": -0.5216172258,
				"y": 1.570828836,
				"z": 4.6145651392,
				"element": "H" 
			},
			{
				"x": 0.7882226664,
				"y": 3.795260488,
				"z": 0.8879816932,
				"element": "H" 
			},
			{
				"x": 1.6841943994,
				"y": 2.5105732568,
				"z": -0.9294679148,
				"element": "H" 
			},
			{
				"x": 1.6042513068,
				"y": 1.0719795745,
				"z": 0.0699729922,
				"element": "H" 
			},
			{
				"x": -1.598175275,
				"y": 0.0721895483,
				"z": -4.8575620446,
				"element": "H" 
			},
			{
				"x": 0.1921433066,
				"y": -1.8815532919,
				"z": -3.2176574051,
				"element": "H" 
			},
			{
				"x": -0.4367782366,
				"y": -2.1664946887,
				"z": -4.91425065,
				"element": "H" 
			},
			{
				"x": 1.3472713807,
				"y": 0.2091490771,
				"z": -3.9617116272,
				"element": "H" 
			},
			{
				"x": 0.7326940554,
				"y": -0.0448544553,
				"z": -5.6736868576,
				"element": "H" 
			},
			{
				"x": -3.6130095087,
				"y": 1.4993612353,
				"z": -0.6876659856,
				"element": "H" 
			},
			{
				"x": -1.6052517049,
				"y": 2.3430354854,
				"z": 0.5831897637,
				"element": "H" 
			},
			{
				"x": -2.653178138,
				"y": -1.2823180799,
				"z": -3.7034900479,
				"element": "H" 
			}
		],
		 "valence_orbital": [ 
			{
				"type": "occ",
				"energy": -0.28605,
				"method": "rhf"
			},
			{
				"type": "occ",
				"energy": -0.26905,
				"method": "rhf"
			},
			{
				"type": "occ",
				"energy": -0.2663,
				"method": "rhf"
			},
			{
				"type": "occ",
				"energy": -0.25853,
				"method": "rhf"
			},
			{
				"type": "occ",
				"energy": -0.2566,
				"method": "rhf"
			},
			{
				"type": "unocc",
				"energy": -0.05483,
				"method": "rhf"
			},
			{
				"type": "unocc",
				"energy": -0.037,
				"method": "rhf"
			},
			{
				"type": "unocc",
				"energy": 0.03877,
				"method": "rhf"
			},
			{
				"type": "unocc",
				"energy": 0.05062,
				"method": "rhf"
			},
			{
				"type": "unocc",
				"energy": 0.07384,
				"method": "rhf"
			}
		],
		"cosmo_sigma_profile": { 
			"-0.025": 0.0,
			"-0.024": 0.0,
			"-0.023": 0.0,
			"-0.022": 0.0,
			"-0.021": 0.0,
			"-0.02": 0.0,
			"-0.019": 0.0,
			"-0.018": 0.0,
			"-0.017": 0.0,
			"-0.016": 0.0,
			"-0.015": 0.228522350477,
			"-0.014": 0.963871809469,
			"-0.013": 1.20581566771,
			"-0.012": 1.68648581072,
			"-0.011": 2.60915179808,
			"-0.01": 2.28030769207,
			"-0.009": 1.86134521267,
			"-0.008": 2.84098251796,
			"-0.007": 7.10006521293,
			"-0.006": 13.5847091726,
			"-0.005": 18.7988348675,
			"-0.004": 27.7701518641,
			"-0.003": 31.7864533414,
			"-0.002": 28.0793057278,
			"-0.001": 31.0468578311,
			"0.0": 39.5078275443,
			"0.001": 35.6081308753,
			"0.002": 19.5633981395,
			"0.003": 13.9909597368,
			"0.004": 9.1164582263,
			"0.005": 7.89285890598,
			"0.006": 5.50529594577,
			"0.007": 4.83392214706,
			"0.008": 6.87848432482,
			"0.009": 5.25477707291,
			"0.01": 6.22206959236,
			"0.011": 6.22870511061,
			"0.012": 6.67538400617,
			"0.013": 4.49107477093,
			"0.014": 2.47643102506,
			"0.015": 0.0101504285422,
			"0.016": 0.0,
			"0.017": 0.0,
			"0.018": 0.0,
			"0.019": 0.0,
			"0.02": 0.0,
			"0.021": 0.0,
			"0.022": 0.0,
			"0.023": 0.0,
			"0.024": 0.0,
			"0.025": 0.0
		}
	}
}
