{
	 "smiles": "CCCCCCCCCCCCCCCCCC(=O)OC=C", 
	 "Tm": 309.15, 
	 "num_atms": 60, 
	 "gaussian": { 
		 "optdone": 1, 
		 "sigma_profile": "yes", 
		 "theory": "DFT", 
		 "functional": "B3LYP", 
		 "basiset": "6-31G**", 
		 "properties": { 
			 "R2extent": 10596.4098, 
			 "electric_dipole_moment_norm": 1.49670476715, 
			 "electric_quadrupole_moment_norm": 8.27343883219, 
			 "total_energy": -935.508765988, 
			 "HOMO_LUMO_gap": 0.23801, 
			 "cosmo_polarized_energy": -6.09, 
			 "cosmo_cavitation_energy": 58.71, 
			 "cosmo_dispersion_energy": -35.12, 
			 "cosmo_repulsion_energy": 2.79, 
			 "cosmo_total_nonelectrostatic_energy": 26.38, 
			 "SMD_solvation_energy": 9.47 
		},
		"coords": [
			{
				"x": -2.4692795489,
				"y": 4.1434627981,
				"z": 0.5383225872,
				"element": "C" 
			},
			{
				"x": -2.5113272041,
				"y": 4.2452439304,
				"z": 2.0674237664,
				"element": "C" 
			},
			{
				"x": -1.3578569408,
				"y": 3.5613021197,
				"z": 2.8238984266,
				"element": "C" 
			},
			{
				"x": -1.2772948995,
				"y": 2.0225591534,
				"z": 2.7096264423,
				"element": "C" 
			},
			{
				"x": -0.4281415364,
				"y": 1.4931920642,
				"z": 1.5414069844,
				"element": "C" 
			},
			{
				"x": -0.2333363126,
				"y": -0.0335095956,
				"z": 1.5453867462,
				"element": "C" 
			},
			{
				"x": -1.5082365394,
				"y": -0.8799612261,
				"z": 1.3727006413,
				"element": "C" 
			},
			{
				"x": -2.3162413745,
				"y": -0.6974555966,
				"z": 0.0724598965,
				"element": "C" 
			},
			{
				"x": -1.6326840208,
				"y": -1.1551250352,
				"z": -1.2347311553,
				"element": "C" 
			},
			{
				"x": -0.7700585073,
				"y": -0.1013842095,
				"z": -1.9485681679,
				"element": "C" 
			},
			{
				"x": -0.2109333115,
				"y": -0.6087185381,
				"z": -3.2858708258,
				"element": "C" 
			},
			{
				"x": 0.6893957738,
				"y": 0.3891420292,
				"z": -4.0353823517,
				"element": "C" 
			},
			{
				"x": 2.0373554224,
				"y": 0.7541887944,
				"z": -3.3804262222,
				"element": "C" 
			},
			{
				"x": 3.0060280913,
				"y": -0.429830559,
				"z": -3.1615148759,
				"element": "C" 
			},
			{
				"x": 2.9021616388,
				"y": -1.0868949168,
				"z": -1.7766916165,
				"element": "C" 
			},
			{
				"x": 3.744102663,
				"y": -2.3618864849,
				"z": -1.6414890134,
				"element": "C" 
			},
			{
				"x": 3.6046340544,
				"y": -3.0380291696,
				"z": -0.2734156816,
				"element": "C" 
			},
			{
				"x": 2.2312122033,
				"y": -3.6307558181,
				"z": -0.0372677147,
				"element": "C" 
			},
			{
				"x": 1.3858997184,
				"y": -3.8368914078,
				"z": -0.8785510701,
				"element": "O" 
			},
			{
				"x": 2.06768789,
				"y": -3.9350005427,
				"z": 1.2877527001,
				"element": "O" 
			},
			{
				"x": 0.8772769419,
				"y": -4.5265578737,
				"z": 1.6773047571,
				"element": "C" 
			},
			{
				"x": 0.6505305527,
				"y": -4.780385889,
				"z": 2.9615601594,
				"element": "C" 
			},
			{
				"x": -2.6002715391,
				"y": 3.1134937572,
				"z": 0.1924489496,
				"element": "H" 
			},
			{
				"x": -3.2677065345,
				"y": 4.7418648254,
				"z": 0.0861725538,
				"element": "H" 
			},
			{
				"x": -1.5152931631,
				"y": 4.5089394506,
				"z": 0.1407771911,
				"element": "H" 
			},
			{
				"x": -2.5174452436,
				"y": 5.3069820584,
				"z": 2.3475650222,
				"element": "H" 
			},
			{
				"x": -3.4640774359,
				"y": 3.8347639202,
				"z": 2.4299028853,
				"element": "H" 
			},
			{
				"x": -0.4016725549,
				"y": 4.0004738602,
				"z": 2.5044509327,
				"element": "H" 
			},
			{
				"x": -1.4653890728,
				"y": 3.8242732819,
				"z": 3.88401574,
				"element": "H" 
			},
			{
				"x": -0.8471907327,
				"y": 1.6245866829,
				"z": 3.639141452,
				"element": "H" 
			},
			{
				"x": -2.2952093913,
				"y": 1.6134247439,
				"z": 2.6561119822,
				"element": "H" 
			},
			{
				"x": 0.5625643797,
				"y": 1.9656795811,
				"z": 1.5950314503,
				"element": "H" 
			},
			{
				"x": -0.8556102574,
				"y": 1.8109059889,
				"z": 0.5842024729,
				"element": "H" 
			},
			{
				"x": 0.4903806256,
				"y": -0.3008840336,
				"z": 0.7655775999,
				"element": "H" 
			},
			{
				"x": 0.2373042151,
				"y": -0.3226185179,
				"z": 2.4957836664,
				"element": "H" 
			},
			{
				"x": -1.2264070047,
				"y": -1.9383080436,
				"z": 1.4586994585,
				"element": "H" 
			},
			{
				"x": -2.1791873124,
				"y": -0.6857000447,
				"z": 2.2197985653,
				"element": "H" 
			},
			{
				"x": -2.6384197983,
				"y": 0.3481690723,
				"z": -0.0305309518,
				"element": "H" 
			},
			{
				"x": -3.2418674042,
				"y": -1.2747276172,
				"z": 0.1936778618,
				"element": "H" 
			},
			{
				"x": -1.0237157786,
				"y": -2.0485743026,
				"z": -1.036650578,
				"element": "H" 
			},
			{
				"x": -2.4117736574,
				"y": -1.4781172681,
				"z": -1.9388032481,
				"element": "H" 
			},
			{
				"x": -1.3746825416,
				"y": 0.7991467363,
				"z": -2.1308080986,
				"element": "H" 
			},
			{
				"x": 0.0519379602,
				"y": 0.215747983,
				"z": -1.2975323942,
				"element": "H" 
			},
			{
				"x": -1.0558094577,
				"y": -0.8653680668,
				"z": -3.9399172649,
				"element": "H" 
			},
			{
				"x": 0.3281668788,
				"y": -1.551104035,
				"z": -3.1231832964,
				"element": "H" 
			},
			{
				"x": 0.8990177532,
				"y": -0.0189571487,
				"z": -5.0338030029,
				"element": "H" 
			},
			{
				"x": 0.1244504461,
				"y": 1.3167882875,
				"z": -4.2035658059,
				"element": "H" 
			},
			{
				"x": 2.5207866175,
				"y": 1.4946400485,
				"z": -4.0297917952,
				"element": "H" 
			},
			{
				"x": 1.8687580939,
				"y": 1.2687660748,
				"z": -2.4249607621,
				"element": "H" 
			},
			{
				"x": 2.8323280623,
				"y": -1.1880263357,
				"z": -3.9382900439,
				"element": "H" 
			},
			{
				"x": 4.0397693762,
				"y": -0.0884027679,
				"z": -3.3052544854,
				"element": "H" 
			},
			{
				"x": 1.8588930993,
				"y": -1.3343870562,
				"z": -1.5618556643,
				"element": "H" 
			},
			{
				"x": 3.2133516069,
				"y": -0.3603417842,
				"z": -1.0119704252,
				"element": "H" 
			},
			{
				"x": 3.449033738,
				"y": -3.0759459262,
				"z": -2.4188715775,
				"element": "H" 
			},
			{
				"x": 4.803247712,
				"y": -2.1297171638,
				"z": -1.8091204374,
				"element": "H" 
			},
			{
				"x": 4.3241561864,
				"y": -3.8613354367,
				"z": -0.1680865238,
				"element": "H" 
			},
			{
				"x": 3.824503586,
				"y": -2.3459119443,
				"z": 0.5475449425,
				"element": "H" 
			},
			{
				"x": 0.197671578,
				"y": -4.7472246017,
				"z": 0.8628490833,
				"element": "H" 
			},
			{
				"x": 1.3749877109,
				"y": -4.5316524842,
				"z": 3.7291553369,
				"element": "H" 
			},
			{
				"x": -0.2790755003,
				"y": -5.2492458007,
				"z": 3.2602547966,
				"element": "H" 
			}
		],
		 "valence_orbital": [ 
			{
				"type": "occ",
				"energy": -0.2947,
				"method": "rhf"
			},
			{
				"type": "occ",
				"energy": -0.29449,
				"method": "rhf"
			},
			{
				"type": "occ",
				"energy": -0.28646,
				"method": "rhf"
			},
			{
				"type": "occ",
				"energy": -0.28315,
				"method": "rhf"
			},
			{
				"type": "occ",
				"energy": -0.25108,
				"method": "rhf"
			},
			{
				"type": "unocc",
				"energy": -0.01307,
				"method": "rhf"
			},
			{
				"type": "unocc",
				"energy": 0.03529,
				"method": "rhf"
			},
			{
				"type": "unocc",
				"energy": 0.07094,
				"method": "rhf"
			},
			{
				"type": "unocc",
				"energy": 0.07801,
				"method": "rhf"
			},
			{
				"type": "unocc",
				"energy": 0.0945,
				"method": "rhf"
			}
		],
		"cosmo_sigma_profile": { 
			"-0.025": 0.0,
			"-0.024": 0.0,
			"-0.023": 0.0,
			"-0.022": 0.0,
			"-0.021": 0.0,
			"-0.02": 0.0,
			"-0.019": 0.0,
			"-0.018": 0.0,
			"-0.017": 0.0,
			"-0.016": 0.0,
			"-0.015": 0.0,
			"-0.014": 0.0,
			"-0.013": 0.0,
			"-0.012": 0.0,
			"-0.011": 0.0,
			"-0.01": 0.0,
			"-0.009": 0.0,
			"-0.008": 0.0258794140502,
			"-0.007": 2.23484100204,
			"-0.006": 7.83880649177,
			"-0.005": 8.68983402994,
			"-0.004": 9.57253298863,
			"-0.003": 15.5249145927,
			"-0.002": 50.4372721446,
			"-0.001": 92.3957203084,
			"0.0": 98.5610038287,
			"0.001": 83.3604827555,
			"0.002": 43.1975060499,
			"0.003": 10.0439197288,
			"0.004": 9.65138742203,
			"0.005": 5.93165286897,
			"0.006": 4.01547430274,
			"0.007": 3.05743991609,
			"0.008": 1.6001418512,
			"0.009": 0.96709240334,
			"0.01": 2.23877161893,
			"0.011": 2.08558318589,
			"0.012": 0.454612135841,
			"0.013": 0.0,
			"0.014": 0.0,
			"0.015": 0.0,
			"0.016": 0.0,
			"0.017": 0.0,
			"0.018": 0.0,
			"0.019": 0.0,
			"0.02": 0.0,
			"0.021": 0.0,
			"0.022": 0.0,
			"0.023": 0.0,
			"0.024": 0.0,
			"0.025": 0.0
		}
	}
}
