{
	 "smiles": "CC1=NC(C)=C(O1)C(O)=O", 
	 "Tm": 493.15, 
	 "num_atms": 17, 
	 "gaussian": { 
		 "optdone": 1, 
		 "sigma_profile": "yes", 
		 "theory": "DFT", 
		 "functional": "B3LYP", 
		 "basiset": "6-31G**", 
		 "properties": { 
			 "R2extent": 2283.7256, 
			 "electric_dipole_moment_norm": 4.44942726202, 
			 "electric_quadrupole_moment_norm": 18.601935431, 
			 "total_energy": -513.290207266, 
			 "HOMO_LUMO_gap": 0.20134, 
			 "cosmo_polarized_energy": -13.24, 
			 "cosmo_cavitation_energy": 21.92, 
			 "cosmo_dispersion_energy": -16.19, 
			 "cosmo_repulsion_energy": 1.34, 
			 "cosmo_total_nonelectrostatic_energy": 7.06, 
			 "SMD_solvation_energy": 4.02 
		},
		"coords": [
			{
				"x": 0.8459654355,
				"y": -1.3718455184,
				"z": -1.6899841578,
				"element": "C" 
			},
			{
				"x": 0.8049053949,
				"y": -0.5340625056,
				"z": -0.4626107018,
				"element": "C" 
			},
			{
				"x": -0.0718015299,
				"y": 0.3680046939,
				"z": -0.1273628657,
				"element": "N" 
			},
			{
				"x": 0.3428384437,
				"y": 0.8548254464,
				"z": 1.1049865795,
				"element": "C" 
			},
			{
				"x": -0.4054424394,
				"y": 1.9182551984,
				"z": 1.8381335563,
				"element": "C" 
			},
			{
				"x": 1.4887475153,
				"y": 0.1995991466,
				"z": 1.4643072607,
				"element": "C" 
			},
			{
				"x": 1.7942540601,
				"y": -0.7006518133,
				"z": 0.4557219285,
				"element": "O" 
			},
			{
				"x": 2.3612721445,
				"y": 0.2905877744,
				"z": 2.6361930983,
				"element": "C" 
			},
			{
				"x": 3.4334093662,
				"y": -0.5407907846,
				"z": 2.6438987661,
				"element": "O" 
			},
			{
				"x": 2.1460803933,
				"y": 1.0562569768,
				"z": 3.5499188989,
				"element": "O" 
			},
			{
				"x": -0.0088633583,
				"y": -1.1189015671,
				"z": -2.3172103009,
				"element": "H" 
			},
			{
				"x": 1.7687997406,
				"y": -1.1976219746,
				"z": -2.2530349447,
				"element": "H" 
			},
			{
				"x": 0.8050600452,
				"y": -2.436977593,
				"z": -1.4393483742,
				"element": "H" 
			},
			{
				"x": -0.7266966974,
				"y": 1.5629465244,
				"z": 2.8217482677,
				"element": "H" 
			},
			{
				"x": -1.2797487885,
				"y": 2.2166977557,
				"z": 1.2575254733,
				"element": "H" 
			},
			{
				"x": 0.2289539169,
				"y": 2.7919833836,
				"z": 2.0144492471,
				"element": "H" 
			},
			{
				"x": 3.4397663573,
				"y": -1.0766051437,
				"z": 1.8356682689,
				"element": "H" 
			}
		],
		 "valence_orbital": [ 
			{
				"type": "occ",
				"energy": -0.32954,
				"method": "rhf"
			},
			{
				"type": "occ",
				"energy": -0.31795,
				"method": "rhf"
			},
			{
				"type": "occ",
				"energy": -0.30199,
				"method": "rhf"
			},
			{
				"type": "occ",
				"energy": -0.27886,
				"method": "rhf"
			},
			{
				"type": "occ",
				"energy": -0.25329,
				"method": "rhf"
			},
			{
				"type": "unocc",
				"energy": -0.05195,
				"method": "rhf"
			},
			{
				"type": "unocc",
				"energy": 0.01931,
				"method": "rhf"
			},
			{
				"type": "unocc",
				"energy": 0.07649,
				"method": "rhf"
			},
			{
				"type": "unocc",
				"energy": 0.09477,
				"method": "rhf"
			},
			{
				"type": "unocc",
				"energy": 0.0969,
				"method": "rhf"
			}
		],
		"cosmo_sigma_profile": { 
			"-0.025": 0.0,
			"-0.024": 0.0,
			"-0.023": 0.0,
			"-0.022": 0.0,
			"-0.021": 0.0,
			"-0.02": 0.0,
			"-0.019": 0.0,
			"-0.018": 0.0,
			"-0.017": 0.354550672909,
			"-0.016": 0.990680157505,
			"-0.015": 0.511204493585,
			"-0.014": 0.214078201431,
			"-0.013": 0.875731952284,
			"-0.012": 1.10532687169,
			"-0.011": 0.879259269889,
			"-0.01": 1.3623231698,
			"-0.009": 0.617763891893,
			"-0.008": 0.856050037721,
			"-0.007": 5.93177342377,
			"-0.006": 8.68233082125,
			"-0.005": 11.8241449333,
			"-0.004": 14.1506244859,
			"-0.003": 19.8477783154,
			"-0.002": 19.094588031,
			"-0.001": 17.7641268342,
			"0.0": 10.223282041,
			"0.001": 6.00660815307,
			"0.002": 5.48514530578,
			"0.003": 4.02290189397,
			"0.004": 4.01226131727,
			"0.005": 3.64387859527,
			"0.006": 3.17064142286,
			"0.007": 4.13414291539,
			"0.008": 4.12742552346,
			"0.009": 4.20623816855,
			"0.01": 5.63712493606,
			"0.011": 5.68373583863,
			"0.012": 4.9780185519,
			"0.013": 2.44318160951,
			"0.014": 0.923266502884,
			"0.015": 0.540207982443,
			"0.016": 0.14990311559,
			"0.017": 0.0,
			"0.018": 0.0,
			"0.019": 0.0,
			"0.02": 0.0,
			"0.021": 0.0,
			"0.022": 0.0,
			"0.023": 0.0,
			"0.024": 0.0,
			"0.025": 0.0
		}
	}
}
