{
	 "smiles": "NC1=NC2=C(S1)C=C(F)C(F)=C2F", 
	 "Tm": 435.15, 
	 "num_atms": 16, 
	 "gaussian": { 
		 "optdone": 1, 
		 "sigma_profile": "yes", 
		 "theory": "DFT", 
		 "functional": "B3LYP", 
		 "basiset": "6-31G**", 
		 "properties": { 
			 "R2extent": 3324.3781, 
			 "electric_dipole_moment_norm": 4.76631282754, 
			 "electric_quadrupole_moment_norm": 7.18182373217, 
			 "total_energy": -1075.73582504, 
			 "HOMO_LUMO_gap": 0.19718, 
			 "cosmo_polarized_energy": -11.25, 
			 "cosmo_cavitation_energy": 24.25, 
			 "cosmo_dispersion_energy": -18.31, 
			 "cosmo_repulsion_energy": 1.33, 
			 "cosmo_total_nonelectrostatic_energy": 7.27, 
			 "SMD_solvation_energy": 3.55 
		},
		"coords": [
			{
				"x": -2.3861309118,
				"y": -1.2082396865,
				"z": 0.4389492256,
				"element": "N" 
			},
			{
				"x": -1.0950607734,
				"y": -0.8488240992,
				"z": 0.1668146123,
				"element": "C" 
			},
			{
				"x": -0.7448496062,
				"y": -0.0882615359,
				"z": -0.8219585948,
				"element": "N" 
			},
			{
				"x": 0.6160034617,
				"y": 0.1495787171,
				"z": -0.7851000754,
				"element": "C" 
			},
			{
				"x": 1.3413084637,
				"y": -0.4620466672,
				"z": 0.2656894331,
				"element": "C" 
			},
			{
				"x": 0.2166678011,
				"y": -1.3693085139,
				"z": 1.2713928532,
				"element": "S" 
			},
			{
				"x": 2.7206560809,
				"y": -0.3188018065,
				"z": 0.4121078282,
				"element": "C" 
			},
			{
				"x": 3.3819795351,
				"y": 0.4638916218,
				"z": -0.5239039219,
				"element": "C" 
			},
			{
				"x": 4.7112309904,
				"y": 0.6435006663,
				"z": -0.4378406129,
				"element": "F" 
			},
			{
				"x": 2.6996151762,
				"y": 1.0862146474,
				"z": -1.5759569385,
				"element": "C" 
			},
			{
				"x": 3.3761314444,
				"y": 1.8339261629,
				"z": -2.4592941196,
				"element": "F" 
			},
			{
				"x": 1.3243403171,
				"y": 0.9303346239,
				"z": -1.7074730777,
				"element": "C" 
			},
			{
				"x": 0.6919810164,
				"y": 1.5323610727,
				"z": -2.7212918234,
				"element": "F" 
			},
			{
				"x": -3.0342619087,
				"y": -1.016744639,
				"z": -0.3132419142,
				"element": "H" 
			},
			{
				"x": -2.5464200262,
				"y": -2.0718341822,
				"z": 0.9354706631,
				"element": "H" 
			},
			{
				"x": 3.2827089391,
				"y": -0.7838463816,
				"z": 1.213036463,
				"element": "H" 
			}
		],
		 "valence_orbital": [ 
			{
				"type": "occ",
				"energy": -0.30784,
				"method": "rhf"
			},
			{
				"type": "occ",
				"energy": -0.29907,
				"method": "rhf"
			},
			{
				"type": "occ",
				"energy": -0.29057,
				"method": "rhf"
			},
			{
				"type": "occ",
				"energy": -0.23915,
				"method": "rhf"
			},
			{
				"type": "occ",
				"energy": -0.22203,
				"method": "rhf"
			},
			{
				"type": "unocc",
				"energy": -0.02485,
				"method": "rhf"
			},
			{
				"type": "unocc",
				"energy": -0.0148,
				"method": "rhf"
			},
			{
				"type": "unocc",
				"energy": -0.01293,
				"method": "rhf"
			},
			{
				"type": "unocc",
				"energy": 0.036,
				"method": "rhf"
			},
			{
				"type": "unocc",
				"energy": 0.05271,
				"method": "rhf"
			}
		],
		"cosmo_sigma_profile": { 
			"-0.025": 0.0,
			"-0.024": 0.0,
			"-0.023": 0.0,
			"-0.022": 0.0,
			"-0.021": 0.0,
			"-0.02": 0.0,
			"-0.019": 0.0,
			"-0.018": 0.0,
			"-0.017": 0.0,
			"-0.016": 0.246522216701,
			"-0.015": 1.84790084951,
			"-0.014": 2.73813961192,
			"-0.013": 2.40882029865,
			"-0.012": 3.03936657808,
			"-0.011": 2.47332075013,
			"-0.01": 2.16395992313,
			"-0.009": 3.33712538026,
			"-0.008": 4.23199598329,
			"-0.007": 3.36900167256,
			"-0.006": 3.83978075102,
			"-0.005": 3.21324610668,
			"-0.004": 3.22183389394,
			"-0.003": 4.84428789723,
			"-0.002": 10.0769642102,
			"-0.001": 19.7135940748,
			"0.0": 20.3333212773,
			"0.001": 19.1829485714,
			"0.002": 17.8008555308,
			"0.003": 32.0947673959,
			"0.004": 20.4497247048,
			"0.005": 3.69524766218,
			"0.006": 3.36455180126,
			"0.007": 1.8292135209,
			"0.008": 1.15716245776,
			"0.009": 2.51038784932,
			"0.01": 1.57047291773,
			"0.011": 1.31840972626,
			"0.012": 0.73428175316,
			"0.013": 0.991868622354,
			"0.014": 0.568961166782,
			"0.015": 0.0,
			"0.016": 0.0,
			"0.017": 0.0,
			"0.018": 0.0,
			"0.019": 0.0,
			"0.02": 0.0,
			"0.021": 0.0,
			"0.022": 0.0,
			"0.023": 0.0,
			"0.024": 0.0,
			"0.025": 0.0
		}
	}
}
