{
	 "smiles": "O(C1=CC=CC=C1)C1=CC=CC=C1C1=CC=CC=C1", 
	 "Tm": 322.15, 
	 "num_atms": 33, 
	 "gaussian": { 
		 "optdone": 1, 
		 "sigma_profile": "yes", 
		 "theory": "DFT", 
		 "functional": "B3LYP", 
		 "basiset": "6-31G**", 
		 "properties": { 
			 "R2extent": 6592.1672, 
			 "electric_dipole_moment_norm": 0.874946089768, 
			 "electric_quadrupole_moment_norm": 7.78819490254, 
			 "total_energy": -769.573378186, 
			 "HOMO_LUMO_gap": 0.19034, 
			 "cosmo_polarized_energy": -7.38, 
			 "cosmo_cavitation_energy": 37.0, 
			 "cosmo_dispersion_energy": -25.9, 
			 "cosmo_repulsion_energy": 2.0, 
			 "cosmo_total_nonelectrostatic_energy": 13.1, 
			 "SMD_solvation_energy": 6.21 
		},
		"coords": [
			{
				"x": 0.054588107,
				"y": -2.2449421539,
				"z": 0.2267867004,
				"element": "O" 
			},
			{
				"x": -1.0221980103,
				"y": -1.6163410923,
				"z": 0.8215410751,
				"element": "C" 
			},
			{
				"x": -1.7950747254,
				"y": -0.649485685,
				"z": 0.1717765255,
				"element": "C" 
			},
			{
				"x": -2.8280764432,
				"y": -0.0225161599,
				"z": 0.8704374079,
				"element": "C" 
			},
			{
				"x": -3.0880401308,
				"y": -0.3454264836,
				"z": 2.2034827303,
				"element": "C" 
			},
			{
				"x": -2.3021933409,
				"y": -1.3077316883,
				"z": 2.8423335962,
				"element": "C" 
			},
			{
				"x": -1.2714876911,
				"y": -1.9476839417,
				"z": 2.1559885018,
				"element": "C" 
			},
			{
				"x": 0.070946654,
				"y": -2.4676694548,
				"z": -1.1394681687,
				"element": "C" 
			},
			{
				"x": -0.9998329868,
				"y": -3.1232797268,
				"z": -1.7534789762,
				"element": "C" 
			},
			{
				"x": -0.9603058493,
				"y": -3.4005918327,
				"z": -3.1176819438,
				"element": "C" 
			},
			{
				"x": 0.1568257458,
				"y": -3.0285404063,
				"z": -3.8678794496,
				"element": "C" 
			},
			{
				"x": 1.2219216326,
				"y": -2.3828600518,
				"z": -3.2452117881,
				"element": "C" 
			},
			{
				"x": 1.2110485894,
				"y": -2.0802423842,
				"z": -1.871196314,
				"element": "C" 
			},
			{
				"x": 2.3655606753,
				"y": -1.3682236649,
				"z": -1.2599477229,
				"element": "C" 
			},
			{
				"x": 2.9255716274,
				"y": -1.7692820128,
				"z": -0.0349739658,
				"element": "C" 
			},
			{
				"x": 4.0331678293,
				"y": -1.106735362,
				"z": 0.4920544722,
				"element": "C" 
			},
			{
				"x": 4.6032112697,
				"y": -0.0290385658,
				"z": -0.1885936809,
				"element": "C" 
			},
			{
				"x": 4.0552654816,
				"y": 0.3823052208,
				"z": -1.4043892277,
				"element": "C" 
			},
			{
				"x": 2.9488638839,
				"y": -0.2811793543,
				"z": -1.9335868685,
				"element": "C" 
			},
			{
				"x": -1.5877504396,
				"y": -0.3911731741,
				"z": -0.8606423292,
				"element": "H" 
			},
			{
				"x": -3.4278233276,
				"y": 0.7298543473,
				"z": 0.3659722059,
				"element": "H" 
			},
			{
				"x": -3.8927414268,
				"y": 0.1484308676,
				"z": 2.73932735,
				"element": "H" 
			},
			{
				"x": -2.4934985088,
				"y": -1.567161319,
				"z": 3.879688632,
				"element": "H" 
			},
			{
				"x": -0.651327268,
				"y": -2.6990040858,
				"z": 2.6337669296,
				"element": "H" 
			},
			{
				"x": -1.8567111589,
				"y": -3.4077407116,
				"z": -1.1516750507,
				"element": "H" 
			},
			{
				"x": -1.7938560626,
				"y": -3.9144465049,
				"z": -3.5872856318,
				"element": "H" 
			},
			{
				"x": 0.2037586201,
				"y": -3.2499309701,
				"z": -4.9298117925,
				"element": "H" 
			},
			{
				"x": 2.1004235354,
				"y": -2.1145286197,
				"z": -3.8242173954,
				"element": "H" 
			},
			{
				"x": 2.4929871477,
				"y": -2.6064251237,
				"z": 0.5002384794,
				"element": "H" 
			},
			{
				"x": 4.4543988266,
				"y": -1.4367411719,
				"z": 1.4376182982,
				"element": "H" 
			},
			{
				"x": 5.4643929064,
				"y": 0.4868877435,
				"z": 0.2263291914,
				"element": "H" 
			},
			{
				"x": 4.4842119981,
				"y": 1.2248601608,
				"z": -1.9396363137,
				"element": "H" 
			},
			{
				"x": 2.5165728402,
				"y": 0.0575833618,
				"z": -2.8707654763,
				"element": "H" 
			}
		],
		 "valence_orbital": [ 
			{
				"type": "occ",
				"energy": -0.25392,
				"method": "rhf"
			},
			{
				"type": "occ",
				"energy": -0.24858,
				"method": "rhf"
			},
			{
				"type": "occ",
				"energy": -0.24523,
				"method": "rhf"
			},
			{
				"type": "occ",
				"energy": -0.22649,
				"method": "rhf"
			},
			{
				"type": "occ",
				"energy": -0.21576,
				"method": "rhf"
			},
			{
				"type": "unocc",
				"energy": -0.02542,
				"method": "rhf"
			},
			{
				"type": "unocc",
				"energy": -0.00692,
				"method": "rhf"
			},
			{
				"type": "unocc",
				"energy": 0.00082,
				"method": "rhf"
			},
			{
				"type": "unocc",
				"energy": 0.00389,
				"method": "rhf"
			},
			{
				"type": "unocc",
				"energy": 0.01172,
				"method": "rhf"
			}
		],
		"cosmo_sigma_profile": { 
			"-0.025": 0.0,
			"-0.024": 0.0,
			"-0.023": 0.0,
			"-0.022": 0.0,
			"-0.021": 0.0,
			"-0.02": 0.0,
			"-0.019": 0.0,
			"-0.018": 0.0,
			"-0.017": 0.0,
			"-0.016": 0.0,
			"-0.015": 0.0,
			"-0.014": 0.0,
			"-0.013": 0.0,
			"-0.012": 0.0,
			"-0.011": 0.0,
			"-0.01": 0.0,
			"-0.009": 0.0,
			"-0.008": 0.0,
			"-0.007": 0.449226646825,
			"-0.006": 13.7190040527,
			"-0.005": 27.8646922217,
			"-0.004": 29.069330764,
			"-0.003": 28.1579989013,
			"-0.002": 20.7889352394,
			"-0.001": 18.6473358487,
			"0.0": 18.0247532074,
			"0.001": 21.7013364601,
			"0.002": 21.4600449278,
			"0.003": 27.6341523773,
			"0.004": 26.8446299159,
			"0.005": 27.3444125971,
			"0.006": 14.5406461279,
			"0.007": 1.04759426193,
			"0.008": 0.0,
			"0.009": 0.0,
			"0.01": 0.0,
			"0.011": 0.0,
			"0.012": 0.0,
			"0.013": 0.0,
			"0.014": 0.0,
			"0.015": 0.0,
			"0.016": 0.0,
			"0.017": 0.0,
			"0.018": 0.0,
			"0.019": 0.0,
			"0.02": 0.0,
			"0.021": 0.0,
			"0.022": 0.0,
			"0.023": 0.0,
			"0.024": 0.0,
			"0.025": 0.0
		}
	}
}
