{
	 "smiles": "CC(=O)C1=CC=C(C=C1)S(=O)(=O)NC(=O)NC1CCCCC1", 
	 "Tm": 461.15, 
	 "num_atms": 42, 
	 "gaussian": { 
		 "optdone": 1, 
		 "sigma_profile": "yes", 
		 "theory": "DFT", 
		 "functional": "B3LYP", 
		 "basiset": "6-31G**", 
		 "properties": { 
			 "R2extent": 10424.7376, 
			 "electric_dipole_moment_norm": 4.56675651749, 
			 "electric_quadrupole_moment_norm": 18.6916639085, 
			 "total_energy": -1392.19296014, 
			 "HOMO_LUMO_gap": 0.17572, 
			 "cosmo_polarized_energy": -20.5, 
			 "cosmo_cavitation_energy": 45.27, 
			 "cosmo_dispersion_energy": -31.43, 
			 "cosmo_repulsion_energy": 2.37, 
			 "cosmo_total_nonelectrostatic_energy": 16.2, 
			 "SMD_solvation_energy": 7.29 
		},
		"coords": [
			{
				"x": -4.485773456,
				"y": -2.389773783,
				"z": 4.5510665611,
				"element": "C" 
			},
			{
				"x": -3.0538599932,
				"y": -2.7604884446,
				"z": 4.889365415,
				"element": "C" 
			},
			{
				"x": -2.7530220084,
				"y": -3.1492302671,
				"z": 6.0060998217,
				"element": "O" 
			},
			{
				"x": -1.9985209468,
				"y": -2.6409337873,
				"z": 3.8216655676,
				"element": "C" 
			},
			{
				"x": -2.2854748767,
				"y": -2.2130355244,
				"z": 2.5172872455,
				"element": "C" 
			},
			{
				"x": -1.2736622167,
				"y": -2.1207798117,
				"z": 1.5630651784,
				"element": "C" 
			},
			{
				"x": 0.0307037272,
				"y": -2.4555931986,
				"z": 1.930148442,
				"element": "C" 
			},
			{
				"x": 0.3401285036,
				"y": -2.8912778224,
				"z": 3.2220230235,
				"element": "C" 
			},
			{
				"x": -0.6803276926,
				"y": -2.9819817199,
				"z": 4.1618393901,
				"element": "C" 
			},
			{
				"x": 1.3491503638,
				"y": -2.3196385398,
				"z": 0.7158408064,
				"element": "S" 
			},
			{
				"x": 0.7556612788,
				"y": -2.5069111721,
				"z": -0.6061013409,
				"element": "O" 
			},
			{
				"x": 2.4821253893,
				"y": -3.1154796602,
				"z": 1.1840937829,
				"element": "O" 
			},
			{
				"x": 1.9093817081,
				"y": -0.7044633388,
				"z": 0.8234555599,
				"element": "N" 
			},
			{
				"x": 1.0574731519,
				"y": 0.4521546857,
				"z": 0.7338355628,
				"element": "C" 
			},
			{
				"x": 0.9443427879,
				"y": 1.1936495319,
				"z": 1.6975357678,
				"element": "O" 
			},
			{
				"x": 0.4229678628,
				"y": 0.6409403919,
				"z": -0.4584373719,
				"element": "N" 
			},
			{
				"x": 0.9285660391,
				"y": 0.2793129929,
				"z": -1.8025694684,
				"element": "C" 
			},
			{
				"x": 1.7046794621,
				"y": 1.4525460678,
				"z": -2.4270904235,
				"element": "C" 
			},
			{
				"x": 0.8199928085,
				"y": 2.6934782591,
				"z": -2.6878332794,
				"element": "C" 
			},
			{
				"x": -0.6226929934,
				"y": 2.3128374166,
				"z": -3.1115380194,
				"element": "C" 
			},
			{
				"x": -0.6666367133,
				"y": 0.9144509681,
				"z": -3.7424081604,
				"element": "C" 
			},
			{
				"x": -0.2339862103,
				"y": -0.1695327359,
				"z": -2.732415117,
				"element": "C" 
			},
			{
				"x": -4.8714932055,
				"y": -3.0139354107,
				"z": 3.7372894711,
				"element": "H" 
			},
			{
				"x": -4.5547992953,
				"y": -1.3462207891,
				"z": 4.2244327982,
				"element": "H" 
			},
			{
				"x": -5.1018382731,
				"y": -2.532667184,
				"z": 5.4389677068,
				"element": "H" 
			},
			{
				"x": -3.2999743665,
				"y": -1.9541354519,
				"z": 2.2339232314,
				"element": "H" 
			},
			{
				"x": -1.4886165453,
				"y": -1.8063138858,
				"z": 0.5483349173,
				"element": "H" 
			},
			{
				"x": 1.3588779187,
				"y": -3.1686041876,
				"z": 3.4697043875,
				"element": "H" 
			},
			{
				"x": -0.4827761835,
				"y": -3.3202736727,
				"z": 5.1731746406,
				"element": "H" 
			},
			{
				"x": 2.4672083252,
				"y": -0.6224467562,
				"z": 1.6711578757,
				"element": "H" 
			},
			{
				"x": -0.141280612,
				"y": 1.4815443613,
				"z": -0.4164274753,
				"element": "H" 
			},
			{
				"x": 1.6018550876,
				"y": -0.5603032486,
				"z": -1.6509863138,
				"element": "H" 
			},
			{
				"x": 2.1211581929,
				"y": 1.092753731,
				"z": -3.3760370791,
				"element": "H" 
			},
			{
				"x": 2.5599499895,
				"y": 1.7159315907,
				"z": -1.7953475253,
				"element": "H" 
			},
			{
				"x": 1.2912088277,
				"y": 3.2979286056,
				"z": -3.470618007,
				"element": "H" 
			},
			{
				"x": 0.7913267998,
				"y": 3.3319703458,
				"z": -1.7971817203,
				"element": "H" 
			},
			{
				"x": -1.2921313207,
				"y": 2.324733779,
				"z": -2.239190255,
				"element": "H" 
			},
			{
				"x": -1.0243712724,
				"y": 3.0634486649,
				"z": -3.8005954429,
				"element": "H" 
			},
			{
				"x": -0.0064000986,
				"y": 0.896966204,
				"z": -4.6194192662,
				"element": "H" 
			},
			{
				"x": -1.6720002166,
				"y": 0.6905098502,
				"z": -4.1159084103,
				"element": "H" 
			},
			{
				"x": 0.0675571777,
				"y": -1.0771441016,
				"z": -3.2647416503,
				"element": "H" 
			},
			{
				"x": -1.0831769051,
				"y": -0.4555929525,
				"z": -2.1035608267,
				"element": "H" 
			}
		],
		 "valence_orbital": [ 
			{
				"type": "occ",
				"energy": -0.2864,
				"method": "rhf"
			},
			{
				"type": "occ",
				"energy": -0.28199,
				"method": "rhf"
			},
			{
				"type": "occ",
				"energy": -0.27187,
				"method": "rhf"
			},
			{
				"type": "occ",
				"energy": -0.26344,
				"method": "rhf"
			},
			{
				"type": "occ",
				"energy": -0.25818,
				"method": "rhf"
			},
			{
				"type": "unocc",
				"energy": -0.08246,
				"method": "rhf"
			},
			{
				"type": "unocc",
				"energy": -0.03309,
				"method": "rhf"
			},
			{
				"type": "unocc",
				"energy": -0.00919,
				"method": "rhf"
			},
			{
				"type": "unocc",
				"energy": 0.0125,
				"method": "rhf"
			},
			{
				"type": "unocc",
				"energy": 0.05032,
				"method": "rhf"
			}
		],
		"cosmo_sigma_profile": { 
			"-0.025": 0.0,
			"-0.024": 0.0,
			"-0.023": 0.0,
			"-0.022": 0.0,
			"-0.021": 0.0,
			"-0.02": 0.0,
			"-0.019": 0.0,
			"-0.018": 0.0,
			"-0.017": 0.0,
			"-0.016": 0.243068360151,
			"-0.015": 0.666486459583,
			"-0.014": 0.926222656152,
			"-0.013": 1.31766041171,
			"-0.012": 1.03477627028,
			"-0.011": 1.63759637004,
			"-0.01": 2.19064901719,
			"-0.009": 2.70859065516,
			"-0.008": 4.94204427333,
			"-0.007": 13.3953688191,
			"-0.006": 15.6417049114,
			"-0.005": 12.9498700704,
			"-0.004": 14.7463046962,
			"-0.003": 32.8259856282,
			"-0.002": 41.7172007306,
			"-0.001": 42.1486258897,
			"0.0": 40.9061427312,
			"0.001": 35.8991506344,
			"0.002": 12.0024118275,
			"0.003": 7.40464175551,
			"0.004": 6.4253122778,
			"0.005": 6.15082608938,
			"0.006": 6.92231568166,
			"0.007": 5.86011371053,
			"0.008": 5.70561040897,
			"0.009": 8.45800466583,
			"0.01": 11.2500061785,
			"0.011": 8.20003703654,
			"0.012": 6.82532056889,
			"0.013": 4.86779177081,
			"0.014": 0.178302689374,
			"0.015": 0.0,
			"0.016": 0.0,
			"0.017": 0.0,
			"0.018": 0.0,
			"0.019": 0.0,
			"0.02": 0.0,
			"0.021": 0.0,
			"0.022": 0.0,
			"0.023": 0.0,
			"0.024": 0.0,
			"0.025": 0.0
		}
	}
}
