{
	 "smiles": "ClCC1=CC=C(Cl)C(Cl)=C1", 
	 "Tm": 310.65, 
	 "num_atms": 15, 
	 "gaussian": { 
		 "optdone": 1, 
		 "sigma_profile": "yes", 
		 "theory": "DFT", 
		 "functional": "B3LYP", 
		 "basiset": "6-31G**", 
		 "properties": { 
			 "R2extent": 3400.0768, 
			 "electric_dipole_moment_norm": 2.46609646405, 
			 "electric_quadrupole_moment_norm": 9.67748713665, 
			 "total_energy": -1650.33738844, 
			 "HOMO_LUMO_gap": 0.20819, 
			 "cosmo_polarized_energy": -7.16, 
			 "cosmo_cavitation_energy": 24.66, 
			 "cosmo_dispersion_energy": -18.37, 
			 "cosmo_repulsion_energy": 1.51, 
			 "cosmo_total_nonelectrostatic_energy": 7.79, 
			 "SMD_solvation_energy": 3.31 
		},
		"coords": [
			{
				"x": -2.3124455113,
				"y": 1.411974057,
				"z": 0.4823696138,
				"element": "Cl" 
			},
			{
				"x": -0.5205988272,
				"y": 1.2609049047,
				"z": 0.8428587969,
				"element": "C" 
			},
			{
				"x": 0.0576027279,
				"y": -0.021603317,
				"z": 0.3227285954,
				"element": "C" 
			},
			{
				"x": 0.0339674639,
				"y": -1.1865204786,
				"z": 1.0994757231,
				"element": "C" 
			},
			{
				"x": 0.5728456889,
				"y": -2.3723980244,
				"z": 0.6125623749,
				"element": "C" 
			},
			{
				"x": 1.1458566372,
				"y": -2.4161115112,
				"z": -0.6613554454,
				"element": "C" 
			},
			{
				"x": 1.8158797086,
				"y": -3.9217363361,
				"z": -1.2329049307,
				"element": "Cl" 
			},
			{
				"x": 1.1733476612,
				"y": -1.2555924747,
				"z": -1.447112531,
				"element": "C" 
			},
			{
				"x": 1.8805877742,
				"y": -1.2510935575,
				"z": -3.0430337541,
				"element": "Cl" 
			},
			{
				"x": 0.629470554,
				"y": -0.0698518786,
				"z": -0.9515067348,
				"element": "C" 
			},
			{
				"x": -0.055183113,
				"y": 2.1335854661,
				"z": 0.3849642039,
				"element": "H" 
			},
			{
				"x": -0.4351122589,
				"y": 1.3336582263,
				"z": 1.9271315837,
				"element": "H" 
			},
			{
				"x": -0.4110140953,
				"y": -1.1685508874,
				"z": 2.0899822626,
				"element": "H" 
			},
			{
				"x": 0.5580095157,
				"y": -3.274973435,
				"z": 1.2131249342,
				"element": "H" 
			},
			{
				"x": 0.6557860741,
				"y": 0.8177092465,
				"z": -1.5750846924,
				"element": "H" 
			}
		],
		 "valence_orbital": [ 
			{
				"type": "occ",
				"energy": -0.31628,
				"method": "rhf"
			},
			{
				"type": "occ",
				"energy": -0.30462,
				"method": "rhf"
			},
			{
				"type": "occ",
				"energy": -0.30305,
				"method": "rhf"
			},
			{
				"type": "occ",
				"energy": -0.27125,
				"method": "rhf"
			},
			{
				"type": "occ",
				"energy": -0.25687,
				"method": "rhf"
			},
			{
				"type": "unocc",
				"energy": -0.04868,
				"method": "rhf"
			},
			{
				"type": "unocc",
				"energy": -0.03334,
				"method": "rhf"
			},
			{
				"type": "unocc",
				"energy": -0.00422,
				"method": "rhf"
			},
			{
				"type": "unocc",
				"energy": 0.02791,
				"method": "rhf"
			},
			{
				"type": "unocc",
				"energy": 0.05497,
				"method": "rhf"
			}
		],
		"cosmo_sigma_profile": { 
			"-0.025": 0.0,
			"-0.024": 0.0,
			"-0.023": 0.0,
			"-0.022": 0.0,
			"-0.021": 0.0,
			"-0.02": 0.0,
			"-0.019": 0.0,
			"-0.018": 0.0,
			"-0.017": 0.0,
			"-0.016": 0.0,
			"-0.015": 0.0,
			"-0.014": 0.0,
			"-0.013": 0.0,
			"-0.012": 0.0,
			"-0.011": 0.0,
			"-0.01": 0.0141401457884,
			"-0.009": 1.90438724779,
			"-0.008": 9.62010809002,
			"-0.007": 10.8144772749,
			"-0.006": 8.34123731566,
			"-0.005": 8.46581161345,
			"-0.004": 7.36734462779,
			"-0.003": 8.32428637963,
			"-0.002": 9.13525318414,
			"-0.001": 12.6941166441,
			"0.0": 19.8458358873,
			"0.001": 22.8744331564,
			"0.002": 20.2036283513,
			"0.003": 20.0990355187,
			"0.004": 20.5364278844,
			"0.005": 9.70974124061,
			"0.006": 10.3946010447,
			"0.007": 4.06028821939,
			"0.008": 0.0,
			"0.009": 0.0,
			"0.01": 0.0,
			"0.011": 0.0,
			"0.012": 0.0,
			"0.013": 0.0,
			"0.014": 0.0,
			"0.015": 0.0,
			"0.016": 0.0,
			"0.017": 0.0,
			"0.018": 0.0,
			"0.019": 0.0,
			"0.02": 0.0,
			"0.021": 0.0,
			"0.022": 0.0,
			"0.023": 0.0,
			"0.024": 0.0,
			"0.025": 0.0
		}
	}
}
