{
	 "smiles": "OCC(F)(F)C(F)(F)C(F)(F)C(F)(F)C(F)(F)C(F)(F)CO", 
	 "Tm": 354.65, 
	 "num_atms": 28, 
	 "gaussian": { 
		 "optdone": 1, 
		 "sigma_profile": "yes", 
		 "theory": "DFT", 
		 "functional": "B3LYP", 
		 "basiset": "6-31G**", 
		 "properties": { 
			 "R2extent": 6012.2011, 
			 "electric_dipole_moment_norm": 1.44285129864, 
			 "electric_quadrupole_moment_norm": 13.9118972232, 
			 "total_energy": -1656.92003294, 
			 "HOMO_LUMO_gap": 0.3009, 
			 "cosmo_polarized_energy": -11.62, 
			 "cosmo_cavitation_energy": 33.7, 
			 "cosmo_dispersion_energy": -22.9, 
			 "cosmo_repulsion_energy": 1.52, 
			 "cosmo_total_nonelectrostatic_energy": 12.32, 
			 "SMD_solvation_energy": 9.16 
		},
		"coords": [
			{
				"x": 0.0108651868,
				"y": 0.9604312185,
				"z": -3.3477819954,
				"element": "O" 
			},
			{
				"x": -0.7084085058,
				"y": 1.2796569317,
				"z": -2.1815114037,
				"element": "C" 
			},
			{
				"x": -1.7675858615,
				"y": 0.2080139703,
				"z": -1.9148672204,
				"element": "C" 
			},
			{
				"x": -2.6326150909,
				"y": 0.1819112537,
				"z": -2.9625516067,
				"element": "F" 
			},
			{
				"x": -1.1650741605,
				"y": -1.0233833293,
				"z": -1.8564255615,
				"element": "F" 
			},
			{
				"x": -2.6591654578,
				"y": 0.3634729839,
				"z": -0.6508623414,
				"element": "C" 
			},
			{
				"x": -3.1055834578,
				"y": 1.6446228237,
				"z": -0.6007871709,
				"element": "F" 
			},
			{
				"x": -3.7278398773,
				"y": -0.4555450083,
				"z": -0.8153561181,
				"element": "F" 
			},
			{
				"x": -2.1220955633,
				"y": -0.0126042658,
				"z": 0.771669057,
				"element": "C" 
			},
			{
				"x": -1.8257208668,
				"y": -1.3495372291,
				"z": 0.7660867539,
				"element": "F" 
			},
			{
				"x": -3.1759662792,
				"y": 0.1587273314,
				"z": 1.5995555194,
				"element": "F" 
			},
			{
				"x": -0.9280246842,
				"y": 0.8008773005,
				"z": 1.3961243117,
				"element": "C" 
			},
			{
				"x": -0.9099848321,
				"y": 2.0162316737,
				"z": 0.7841057632,
				"element": "F" 
			},
			{
				"x": -1.1915321494,
				"y": 1.0036658701,
				"z": 2.7002165879,
				"element": "F" 
			},
			{
				"x": 0.5057128012,
				"y": 0.179856373,
				"z": 1.2678653912,
				"element": "C" 
			},
			{
				"x": 1.3659545588,
				"y": 1.2200583798,
				"z": 1.1738774955,
				"element": "F" 
			},
			{
				"x": 0.575662225,
				"y": -0.52000499,
				"z": 0.0968314241,
				"element": "F" 
			},
			{
				"x": 1.030172689,
				"y": -0.7368729316,
				"z": 2.4113603023,
				"element": "C" 
			},
			{
				"x": 2.2927394217,
				"y": -1.0827467613,
				"z": 2.008584831,
				"element": "F" 
			},
			{
				"x": 1.1395126534,
				"y": 0.0281985522,
				"z": 3.5251317022,
				"element": "F" 
			},
			{
				"x": 0.295996911,
				"y": -2.0412348532,
				"z": 2.7283591258,
				"element": "C" 
			},
			{
				"x": -0.9371181933,
				"y": -1.8410156272,
				"z": 3.3732929791,
				"element": "O" 
			},
			{
				"x": 0.4673580868,
				"y": 0.122618575,
				"z": -3.1897540107,
				"element": "H" 
			},
			{
				"x": -1.2219160864,
				"y": 2.2272959643,
				"z": -2.3563493189,
				"element": "H" 
			},
			{
				"x": -0.0584626925,
				"y": 1.397024979,
				"z": -1.3108571422,
				"element": "H" 
			},
			{
				"x": 0.9648920291,
				"y": -2.573581117,
				"z": 3.4131310481,
				"element": "H" 
			},
			{
				"x": 0.2212869773,
				"y": -2.6278936442,
				"z": 1.8061291817,
				"element": "H" 
			},
			{
				"x": -1.6438597811,
				"y": -1.9245444237,
				"z": 2.7233824156,
				"element": "H" 
			}
		],
		 "valence_orbital": [ 
			{
				"type": "occ",
				"energy": -0.36519,
				"method": "rhf"
			},
			{
				"type": "occ",
				"energy": -0.36032,
				"method": "rhf"
			},
			{
				"type": "occ",
				"energy": -0.34889,
				"method": "rhf"
			},
			{
				"type": "occ",
				"energy": -0.3018,
				"method": "rhf"
			},
			{
				"type": "occ",
				"energy": -0.29882,
				"method": "rhf"
			},
			{
				"type": "unocc",
				"energy": 0.00208,
				"method": "rhf"
			},
			{
				"type": "unocc",
				"energy": 0.0092,
				"method": "rhf"
			},
			{
				"type": "unocc",
				"energy": 0.04952,
				"method": "rhf"
			},
			{
				"type": "unocc",
				"energy": 0.0515,
				"method": "rhf"
			},
			{
				"type": "unocc",
				"energy": 0.06809,
				"method": "rhf"
			}
		],
		"cosmo_sigma_profile": { 
			"-0.025": 0.0,
			"-0.024": 0.0,
			"-0.023": 0.0,
			"-0.022": 0.0,
			"-0.021": 0.0,
			"-0.02": 0.0,
			"-0.019": 0.0,
			"-0.018": 0.0,
			"-0.017": 0.0,
			"-0.016": 0.367596402052,
			"-0.015": 0.916022097462,
			"-0.014": 1.00850502845,
			"-0.013": 1.45472563573,
			"-0.012": 1.52487224352,
			"-0.011": 1.80216483571,
			"-0.01": 2.21697309579,
			"-0.009": 2.74203162012,
			"-0.008": 7.18283034334,
			"-0.007": 8.2865806414,
			"-0.006": 8.76858360453,
			"-0.005": 11.1173453039,
			"-0.004": 10.1218844575,
			"-0.003": 9.78948710444,
			"-0.002": 8.97185707782,
			"-0.001": 13.9468327965,
			"0.0": 23.954493421,
			"0.001": 50.9563770348,
			"0.002": 44.4417398544,
			"0.003": 28.1910503334,
			"0.004": 4.54912664432,
			"0.005": 3.86875560927,
			"0.006": 3.13196792512,
			"0.007": 2.62334334719,
			"0.008": 2.35485741121,
			"0.009": 3.10614490727,
			"0.01": 2.88895723893,
			"0.011": 2.7031336826,
			"0.012": 3.80938912133,
			"0.013": 0.980128787911,
			"0.014": 0.0,
			"0.015": 0.0,
			"0.016": 0.0,
			"0.017": 0.0,
			"0.018": 0.0,
			"0.019": 0.0,
			"0.02": 0.0,
			"0.021": 0.0,
			"0.022": 0.0,
			"0.023": 0.0,
			"0.024": 0.0,
			"0.025": 0.0
		}
	}
}
