{
	 "smiles": "NC1=NC(=CC=N1)C1=CC=CS1", 
	 "Tm": 459.15, 
	 "num_atms": 19, 
	 "gaussian": { 
		 "optdone": 1, 
		 "sigma_profile": "yes", 
		 "theory": "DFT", 
		 "functional": "B3LYP", 
		 "basiset": "6-31G**", 
		 "properties": { 
			 "R2extent": 3401.9222, 
			 "electric_dipole_moment_norm": 1.408692848, 
			 "electric_quadrupole_moment_norm": 11.8063862274, 
			 "total_energy": -871.514110084, 
			 "HOMO_LUMO_gap": 0.16266, 
			 "cosmo_polarized_energy": -10.21, 
			 "cosmo_cavitation_energy": 25.08, 
			 "cosmo_dispersion_energy": -19.47, 
			 "cosmo_repulsion_energy": 1.5, 
			 "cosmo_total_nonelectrostatic_energy": 7.11, 
			 "SMD_solvation_energy": 1.73 
		},
		"coords": [
			{
				"x": -1.4731613908,
				"y": 4.0375023061,
				"z": 1.8389449267,
				"element": "N" 
			},
			{
				"x": -1.4972631534,
				"y": 2.7228198421,
				"z": 1.4674800267,
				"element": "C" 
			},
			{
				"x": -1.1049848004,
				"y": 2.4419650313,
				"z": 0.2144448276,
				"element": "N" 
			},
			{
				"x": -1.0849451286,
				"y": 1.1452223518,
				"z": -0.1379338475,
				"element": "C" 
			},
			{
				"x": -1.461809053,
				"y": 0.1403218834,
				"z": 0.7679405634,
				"element": "C" 
			},
			{
				"x": -1.8617555318,
				"y": 0.5613545818,
				"z": 2.0322926412,
				"element": "C" 
			},
			{
				"x": -1.8916368331,
				"y": 1.8400987048,
				"z": 2.4099988226,
				"element": "N" 
			},
			{
				"x": -0.6523816967,
				"y": 0.8605608129,
				"z": -1.5090638505,
				"element": "C" 
			},
			{
				"x": -0.2496943547,
				"y": 1.7762886691,
				"z": -2.4550478094,
				"element": "C" 
			},
			{
				"x": 0.1115226381,
				"y": 1.1844492116,
				"z": -3.6961273433,
				"element": "C" 
			},
			{
				"x": -0.0180356689,
				"y": -0.1796093427,
				"z": -3.6891049887,
				"element": "C" 
			},
			{
				"x": -0.5850219191,
				"y": -0.7633168589,
				"z": -2.1617567527,
				"element": "S" 
			},
			{
				"x": -1.400093735,
				"y": 4.7234814248,
				"z": 1.1052320439,
				"element": "H" 
			},
			{
				"x": -1.9631089311,
				"y": 4.2825886862,
				"z": 2.6842047191,
				"element": "H" 
			},
			{
				"x": -1.4526700698,
				"y": -0.9105949534,
				"z": 0.5044312453,
				"element": "H" 
			},
			{
				"x": -2.1767679504,
				"y": -0.1653132976,
				"z": 2.7801674196,
				"element": "H" 
			},
			{
				"x": -0.2219650658,
				"y": 2.8365822603,
				"z": -2.2391304732,
				"element": "H" 
			},
			{
				"x": 0.4536396551,
				"y": 1.7457972916,
				"z": -4.5580345039,
				"element": "H" 
			},
			{
				"x": 0.1855329893,
				"y": -0.8777986051,
				"z": -4.4893376669,
				"element": "H" 
			}
		],
		 "valence_orbital": [ 
			{
				"type": "occ",
				"energy": -0.3039,
				"method": "rhf"
			},
			{
				"type": "occ",
				"energy": -0.25607,
				"method": "rhf"
			},
			{
				"type": "occ",
				"energy": -0.2442,
				"method": "rhf"
			},
			{
				"type": "occ",
				"energy": -0.23664,
				"method": "rhf"
			},
			{
				"type": "occ",
				"energy": -0.21798,
				"method": "rhf"
			},
			{
				"type": "unocc",
				"energy": -0.05532,
				"method": "rhf"
			},
			{
				"type": "unocc",
				"energy": -0.00502,
				"method": "rhf"
			},
			{
				"type": "unocc",
				"energy": 0.02647,
				"method": "rhf"
			},
			{
				"type": "unocc",
				"energy": 0.02743,
				"method": "rhf"
			},
			{
				"type": "unocc",
				"energy": 0.07559,
				"method": "rhf"
			}
		],
		"cosmo_sigma_profile": { 
			"-0.025": 0.0,
			"-0.024": 0.0,
			"-0.023": 0.0,
			"-0.022": 0.0,
			"-0.021": 0.0,
			"-0.02": 0.0,
			"-0.019": 0.0,
			"-0.018": 0.0,
			"-0.017": 0.0,
			"-0.016": 0.0,
			"-0.015": 0.0,
			"-0.014": 0.379420444597,
			"-0.013": 1.8563789922,
			"-0.012": 2.23217237357,
			"-0.011": 2.20598012819,
			"-0.01": 1.6401254999,
			"-0.009": 3.39137450249,
			"-0.008": 4.06573528935,
			"-0.007": 7.91770610225,
			"-0.006": 9.66799142474,
			"-0.005": 10.8771413244,
			"-0.004": 10.0243054668,
			"-0.003": 9.12267465887,
			"-0.002": 10.0377623319,
			"-0.001": 9.55234921024,
			"0.0": 14.7188432515,
			"0.001": 19.8328829333,
			"0.002": 19.4481319631,
			"0.003": 19.2588663954,
			"0.004": 17.5489531884,
			"0.005": 7.20487318615,
			"0.006": 4.03395849162,
			"0.007": 4.34864881322,
			"0.008": 3.67442587506,
			"0.009": 3.64577324179,
			"0.01": 2.41156019195,
			"0.011": 1.16086069887,
			"0.012": 1.04826669613,
			"0.013": 0.904854225874,
			"0.014": 0.64036960174,
			"0.015": 0.712316280551,
			"0.016": 0.22301465385,
			"0.017": 0.0,
			"0.018": 0.0,
			"0.019": 0.0,
			"0.02": 0.0,
			"0.021": 0.0,
			"0.022": 0.0,
			"0.023": 0.0,
			"0.024": 0.0,
			"0.025": 0.0
		}
	}
}
