{
	 "smiles": "NC(=O)C1=C(F)C=CC=C1Cl", 
	 "Tm": 414.15, 
	 "num_atms": 16, 
	 "gaussian": { 
		 "optdone": 1, 
		 "sigma_profile": "yes", 
		 "theory": "DFT", 
		 "functional": "B3LYP", 
		 "basiset": "6-31G**", 
		 "properties": { 
			 "R2extent": 3110.1116, 
			 "electric_dipole_moment_norm": 4.18343653113, 
			 "electric_quadrupole_moment_norm": 19.5330122746, 
			 "total_energy": -959.768870226, 
			 "HOMO_LUMO_gap": 0.2084, 
			 "cosmo_polarized_energy": -13.09, 
			 "cosmo_cavitation_energy": 22.65, 
			 "cosmo_dispersion_energy": -16.89, 
			 "cosmo_repulsion_energy": 1.35, 
			 "cosmo_total_nonelectrostatic_energy": 7.11, 
			 "SMD_solvation_energy": 4.75 
		},
		"coords": [
			{
				"x": 2.8977081978,
				"y": -2.333545683,
				"z": 0.4912937096,
				"element": "N" 
			},
			{
				"x": 2.9196425418,
				"y": -1.2519062305,
				"z": -0.3466179305,
				"element": "C" 
			},
			{
				"x": 3.6980523347,
				"y": -1.1551961537,
				"z": -1.2803533906,
				"element": "O" 
			},
			{
				"x": 1.9339312147,
				"y": -0.1479777484,
				"z": -0.0117628359,
				"element": "C" 
			},
			{
				"x": 0.5884159067,
				"y": -0.4268543748,
				"z": 0.2563967528,
				"element": "C" 
			},
			{
				"x": 0.193494597,
				"y": -1.7249564527,
				"z": 0.3128581563,
				"element": "F" 
			},
			{
				"x": -0.3781170509,
				"y": 0.5441249599,
				"z": 0.472815497,
				"element": "C" 
			},
			{
				"x": 0.0121987871,
				"y": 1.880589031,
				"z": 0.433968298,
				"element": "C" 
			},
			{
				"x": 1.3420179797,
				"y": 2.2184079106,
				"z": 0.1890454106,
				"element": "C" 
			},
			{
				"x": 2.2858641472,
				"y": 1.2149776528,
				"z": -0.0371961893,
				"element": "C" 
			},
			{
				"x": 3.9404377246,
				"y": 1.7196169527,
				"z": -0.2975264047,
				"element": "Cl" 
			},
			{
				"x": 2.0935918286,
				"y": -2.5114729392,
				"z": 1.0723190192,
				"element": "H" 
			},
			{
				"x": 3.4462223021,
				"y": -3.1281017937,
				"z": 0.1936123235,
				"element": "H" 
			},
			{
				"x": -1.4016797627,
				"y": 0.2428532103,
				"z": 0.6638799407,
				"element": "H" 
			},
			{
				"x": -0.7203700346,
				"y": 2.6637359688,
				"z": 0.601265287,
				"element": "H" 
			},
			{
				"x": 1.6572892862,
				"y": 3.2550056899,
				"z": 0.1716023561,
				"element": "H" 
			}
		],
		 "valence_orbital": [ 
			{
				"type": "occ",
				"energy": -0.31483,
				"method": "rhf"
			},
			{
				"type": "occ",
				"energy": -0.27731,
				"method": "rhf"
			},
			{
				"type": "occ",
				"energy": -0.27062,
				"method": "rhf"
			},
			{
				"type": "occ",
				"energy": -0.25588,
				"method": "rhf"
			},
			{
				"type": "occ",
				"energy": -0.25351,
				"method": "rhf"
			},
			{
				"type": "unocc",
				"energy": -0.04511,
				"method": "rhf"
			},
			{
				"type": "unocc",
				"energy": -0.02129,
				"method": "rhf"
			},
			{
				"type": "unocc",
				"energy": 0.02314,
				"method": "rhf"
			},
			{
				"type": "unocc",
				"energy": 0.03706,
				"method": "rhf"
			},
			{
				"type": "unocc",
				"energy": 0.08685,
				"method": "rhf"
			}
		],
		"cosmo_sigma_profile": { 
			"-0.025": 0.0,
			"-0.024": 0.0,
			"-0.023": 0.0,
			"-0.022": 0.0,
			"-0.021": 0.0,
			"-0.02": 0.0,
			"-0.019": 0.0,
			"-0.018": 0.0,
			"-0.017": 0.0,
			"-0.016": 0.0,
			"-0.015": 0.0919038557171,
			"-0.014": 0.955536897307,
			"-0.013": 2.303277503,
			"-0.012": 2.03331570899,
			"-0.011": 2.15601055702,
			"-0.01": 2.44675541509,
			"-0.009": 2.2191237844,
			"-0.008": 5.99287199438,
			"-0.007": 7.81733549098,
			"-0.006": 7.79058009014,
			"-0.005": 6.42027627164,
			"-0.004": 5.83230563708,
			"-0.003": 9.08218579077,
			"-0.002": 9.85958215536,
			"-0.001": 13.7772532308,
			"0.0": 16.8784997098,
			"0.001": 18.5763076789,
			"0.002": 17.859636816,
			"0.003": 13.395464986,
			"0.004": 11.0879461912,
			"0.005": 4.24192908837,
			"0.006": 2.38495752068,
			"0.007": 2.44109778126,
			"0.008": 2.55649774267,
			"0.009": 1.1191280412,
			"0.01": 1.93036244745,
			"0.011": 2.33965213436,
			"0.012": 3.38706540515,
			"0.013": 5.6364654887,
			"0.014": 1.45687174856,
			"0.015": 0.0,
			"0.016": 0.0,
			"0.017": 0.0,
			"0.018": 0.0,
			"0.019": 0.0,
			"0.02": 0.0,
			"0.021": 0.0,
			"0.022": 0.0,
			"0.023": 0.0,
			"0.024": 0.0,
			"0.025": 0.0
		}
	}
}
