{
	 "smiles": "COC1=CC=C(CC2=NC=CC3=C2C=C(OC)C(OC)=C3)C=C1OC", 
	 "Tm": 420.15, 
	 "num_atms": 46, 
	 "gaussian": { 
		 "optdone": 1, 
		 "sigma_profile": "yes", 
		 "theory": "DFT", 
		 "functional": "B3LYP", 
		 "basiset": "6-31G**", 
		 "properties": { 
			 "R2extent": 10914.7361, 
			 "electric_dipole_moment_norm": 4.54525464193, 
			 "electric_quadrupole_moment_norm": 15.2146010487, 
			 "total_energy": -1130.37975332, 
			 "HOMO_LUMO_gap": 0.16121, 
			 "cosmo_polarized_energy": -15.02, 
			 "cosmo_cavitation_energy": 49.16, 
			 "cosmo_dispersion_energy": -33.15, 
			 "cosmo_repulsion_energy": 2.56, 
			 "cosmo_total_nonelectrostatic_energy": 18.57, 
			 "SMD_solvation_energy": 9.72 
		},
		"coords": [
			{
				"x": -2.2410652335,
				"y": -4.4393012869,
				"z": 2.5247258427,
				"element": "C" 
			},
			{
				"x": -1.7925893928,
				"y": -4.1262599071,
				"z": 1.2167604762,
				"element": "O" 
			},
			{
				"x": -0.6455648515,
				"y": -3.3925152027,
				"z": 1.0899263435,
				"element": "C" 
			},
			{
				"x": 0.1035143009,
				"y": -2.8928728252,
				"z": 2.1561878634,
				"element": "C" 
			},
			{
				"x": 1.277960757,
				"y": -2.1690634544,
				"z": 1.9166030791,
				"element": "C" 
			},
			{
				"x": 1.7283207339,
				"y": -1.9292012548,
				"z": 0.618983688,
				"element": "C" 
			},
			{
				"x": 3.0227547302,
				"y": -1.1730966603,
				"z": 0.3543576584,
				"element": "C" 
			},
			{
				"x": 2.8850803445,
				"y": -0.0224624484,
				"z": -0.6281264754,
				"element": "C" 
			},
			{
				"x": 3.3272323836,
				"y": -0.2553090839,
				"z": -1.8535525047,
				"element": "N" 
			},
			{
				"x": 3.2325598961,
				"y": 0.7303926405,
				"z": -2.785645491,
				"element": "C" 
			},
			{
				"x": 2.7103476338,
				"y": 1.9746650897,
				"z": -2.5322622693,
				"element": "C" 
			},
			{
				"x": 2.2239468079,
				"y": 2.2629895361,
				"z": -1.2316125488,
				"element": "C" 
			},
			{
				"x": 2.303330294,
				"y": 1.2318406052,
				"z": -0.2443435452,
				"element": "C" 
			},
			{
				"x": 1.7941801091,
				"y": 1.4932377525,
				"z": 1.0551750547,
				"element": "C" 
			},
			{
				"x": 1.2558328498,
				"y": 2.7187199344,
				"z": 1.3754642345,
				"element": "C" 
			},
			{
				"x": 0.7909342208,
				"y": 2.9408536982,
				"z": 2.6519995032,
				"element": "O" 
			},
			{
				"x": -0.6346008961,
				"y": 3.0511549187,
				"z": 2.7593230021,
				"element": "C" 
			},
			{
				"x": 1.216692606,
				"y": 3.7623235248,
				"z": 0.3975825114,
				"element": "C" 
			},
			{
				"x": 0.6708155109,
				"y": 4.9866330119,
				"z": 0.6980059149,
				"element": "O" 
			},
			{
				"x": 1.4213241208,
				"y": 5.7755694355,
				"z": 1.6317630271,
				"element": "C" 
			},
			{
				"x": 1.6826120965,
				"y": 3.525164374,
				"z": -0.8755933851,
				"element": "C" 
			},
			{
				"x": 0.9647116303,
				"y": -2.4278728615,
				"z": -0.448269451,
				"element": "C" 
			},
			{
				"x": -0.2040820953,
				"y": -3.1478267171,
				"z": -0.2318924328,
				"element": "C" 
			},
			{
				"x": -0.8712151738,
				"y": -3.6677200956,
				"z": -1.3149870535,
				"element": "O" 
			},
			{
				"x": -2.1546449636,
				"y": -3.1019156083,
				"z": -1.5853903103,
				"element": "C" 
			},
			{
				"x": -1.4933396103,
				"y": -5.0204856557,
				"z": 3.0795550042,
				"element": "H" 
			},
			{
				"x": -3.1422768251,
				"y": -5.0414752202,
				"z": 2.398656094,
				"element": "H" 
			},
			{
				"x": -2.4881823882,
				"y": -3.5359446106,
				"z": 3.098046761,
				"element": "H" 
			},
			{
				"x": -0.2114444949,
				"y": -3.067683253,
				"z": 3.1783501898,
				"element": "H" 
			},
			{
				"x": 1.850238047,
				"y": -1.8010868462,
				"z": 2.7648194268,
				"element": "H" 
			},
			{
				"x": 3.7636593927,
				"y": -1.8529625159,
				"z": -0.0779459889,
				"element": "H" 
			},
			{
				"x": 3.429735854,
				"y": -0.8134513368,
				"z": 1.3059233878,
				"element": "H" 
			},
			{
				"x": 3.6102245439,
				"y": 0.4766587002,
				"z": -3.7737229592,
				"element": "H" 
			},
			{
				"x": 2.6671642052,
				"y": 2.7307395038,
				"z": -3.3108793453,
				"element": "H" 
			},
			{
				"x": 1.7956448819,
				"y": 0.7253775947,
				"z": 1.8191965806,
				"element": "H" 
			},
			{
				"x": -0.848027867,
				"y": 3.2333689685,
				"z": 3.8144801616,
				"element": "H" 
			},
			{
				"x": -1.1180306554,
				"y": 2.1172928643,
				"z": 2.4468908297,
				"element": "H" 
			},
			{
				"x": -1.0165194802,
				"y": 3.8807472032,
				"z": 2.1562173933,
				"element": "H" 
			},
			{
				"x": 2.40985631,
				"y": 6.018211937,
				"z": 1.2225925441,
				"element": "H" 
			},
			{
				"x": 1.5371838611,
				"y": 5.2582229164,
				"z": 2.588497288,
				"element": "H" 
			},
			{
				"x": 0.8541686042,
				"y": 6.6972940363,
				"z": 1.7747602264,
				"element": "H" 
			},
			{
				"x": 1.6319615444,
				"y": 4.3257340486,
				"z": -1.6073154763,
				"element": "H" 
			},
			{
				"x": 1.281865659,
				"y": -2.269763515,
				"z": -1.474513952,
				"element": "H" 
			},
			{
				"x": -2.0762215152,
				"y": -2.0219952272,
				"z": -1.7683683158,
				"element": "H" 
			},
			{
				"x": -2.5185415849,
				"y": -3.5924173772,
				"z": -2.4908468131,
				"element": "H" 
			},
			{
				"x": -2.856306902,
				"y": -3.2833093305,
				"z": -0.7655757684,
				"element": "H" 
			}
		],
		 "valence_orbital": [ 
			{
				"type": "occ",
				"energy": -0.24626,
				"method": "rhf"
			},
			{
				"type": "occ",
				"energy": -0.24188,
				"method": "rhf"
			},
			{
				"type": "occ",
				"energy": -0.2339,
				"method": "rhf"
			},
			{
				"type": "occ",
				"energy": -0.21817,
				"method": "rhf"
			},
			{
				"type": "occ",
				"energy": -0.20687,
				"method": "rhf"
			},
			{
				"type": "unocc",
				"energy": -0.04566,
				"method": "rhf"
			},
			{
				"type": "unocc",
				"energy": -0.01652,
				"method": "rhf"
			},
			{
				"type": "unocc",
				"energy": 0.0061,
				"method": "rhf"
			},
			{
				"type": "unocc",
				"energy": 0.01437,
				"method": "rhf"
			},
			{
				"type": "unocc",
				"energy": 0.03108,
				"method": "rhf"
			}
		],
		"cosmo_sigma_profile": { 
			"-0.025": 0.0,
			"-0.024": 0.0,
			"-0.023": 0.0,
			"-0.022": 0.0,
			"-0.021": 0.0,
			"-0.02": 0.0,
			"-0.019": 0.0,
			"-0.018": 0.0,
			"-0.017": 0.0,
			"-0.016": 0.0,
			"-0.015": 0.0,
			"-0.014": 0.0,
			"-0.013": 0.0,
			"-0.012": 0.0,
			"-0.011": 0.0,
			"-0.01": 0.0,
			"-0.009": 0.0,
			"-0.008": 0.0789868380559,
			"-0.007": 4.39791650552,
			"-0.006": 18.0494779889,
			"-0.005": 31.3427185393,
			"-0.004": 36.1044750831,
			"-0.003": 45.7659657456,
			"-0.002": 39.6164409839,
			"-0.001": 27.0135363854,
			"0.0": 25.5014613005,
			"0.001": 26.178267371,
			"0.002": 33.0523996418,
			"0.003": 30.7309136108,
			"0.004": 19.7578358738,
			"0.005": 13.4087295246,
			"0.006": 9.27695425766,
			"0.007": 4.6245435395,
			"0.008": 4.58640267536,
			"0.009": 5.53677586366,
			"0.01": 4.85531793244,
			"0.011": 5.36994568702,
			"0.012": 2.85517954461,
			"0.013": 0.789006790617,
			"0.014": 0.253372298862,
			"0.015": 1.02550677489,
			"0.016": 0.474645575001,
			"0.017": 0.0213397530134,
			"0.018": 0.0,
			"0.019": 0.0,
			"0.02": 0.0,
			"0.021": 0.0,
			"0.022": 0.0,
			"0.023": 0.0,
			"0.024": 0.0,
			"0.025": 0.0
		}
	}
}
