{
	 "smiles": "FC(F)(F)C1=C(C=NN1C1=CC=CC=C1)C(Cl)=O", 
	 "Tm": 313.65, 
	 "num_atms": 24, 
	 "gaussian": { 
		 "optdone": 1, 
		 "sigma_profile": "yes", 
		 "theory": "DFT", 
		 "functional": "B3LYP", 
		 "basiset": "6-31G**", 
		 "properties": { 
			 "R2extent": 5729.7013, 
			 "electric_dipole_moment_norm": 5.01549215332, 
			 "electric_quadrupole_moment_norm": 10.7320547506, 
			 "total_energy": -1367.20525342, 
			 "HOMO_LUMO_gap": 0.18289, 
			 "cosmo_polarized_energy": -8.41, 
			 "cosmo_cavitation_energy": 32.21, 
			 "cosmo_dispersion_energy": -22.81, 
			 "cosmo_repulsion_energy": 1.7, 
			 "cosmo_total_nonelectrostatic_energy": 11.1, 
			 "SMD_solvation_energy": 6.34 
		},
		"coords": [
			{
				"x": 1.0184524455,
				"y": -0.6409280388,
				"z": -3.2106741279,
				"element": "F" 
			},
			{
				"x": 0.114490775,
				"y": -0.0491604799,
				"z": -2.4237543137,
				"element": "C" 
			},
			{
				"x": -0.9900291239,
				"y": 0.1959359941,
				"z": -3.1643002012,
				"element": "F" 
			},
			{
				"x": 0.6250128926,
				"y": 1.1430208076,
				"z": -2.0520671058,
				"element": "F" 
			},
			{
				"x": -0.2075062073,
				"y": -0.9018809108,
				"z": -1.2224770289,
				"element": "C" 
			},
			{
				"x": -0.1331369233,
				"y": -2.2923921384,
				"z": -1.0615618902,
				"element": "C" 
			},
			{
				"x": -0.4367649237,
				"y": -2.5022408775,
				"z": 0.3058983134,
				"element": "C" 
			},
			{
				"x": -0.700419346,
				"y": -1.368145788,
				"z": 0.9303817123,
				"element": "N" 
			},
			{
				"x": -0.563320861,
				"y": -0.3931707528,
				"z": -0.0103838993,
				"element": "N" 
			},
			{
				"x": -0.8495244785,
				"y": 0.9554660103,
				"z": 0.3891763227,
				"element": "C" 
			},
			{
				"x": -1.6941288201,
				"y": 1.7572680117,
				"z": -0.3808062812,
				"element": "C" 
			},
			{
				"x": -1.9829421223,
				"y": 3.0497274047,
				"z": 0.0548695314,
				"element": "C" 
			},
			{
				"x": -1.448969497,
				"y": 3.5262070112,
				"z": 1.2535375913,
				"element": "C" 
			},
			{
				"x": -0.6201137218,
				"y": 2.7061461326,
				"z": 2.0224539823,
				"element": "C" 
			},
			{
				"x": -0.3154576887,
				"y": 1.4154990964,
				"z": 1.5942430724,
				"element": "C" 
			},
			{
				"x": 0.1059039511,
				"y": -3.299934243,
				"z": -2.0936749652,
				"element": "C" 
			},
			{
				"x": 0.426144985,
				"y": -4.9627375172,
				"z": -1.3870463888,
				"element": "Cl" 
			},
			{
				"x": 0.092140389,
				"y": -3.1608170646,
				"z": -3.277975802,
				"element": "O" 
			},
			{
				"x": -0.484515812,
				"y": -3.4428113069,
				"z": 0.8343799871,
				"element": "H" 
			},
			{
				"x": -2.1188829316,
				"y": 1.3770241376,
				"z": -1.3025488015,
				"element": "H" 
			},
			{
				"x": -2.6369291843,
				"y": 3.6790121991,
				"z": -0.5405751208,
				"element": "H" 
			},
			{
				"x": -1.6821075984,
				"y": 4.5317471288,
				"z": 1.5900460485,
				"element": "H" 
			},
			{
				"x": -0.2061025554,
				"y": 3.0708789917,
				"z": 2.9573171517,
				"element": "H" 
			},
			{
				"x": 0.3199063571,
				"y": 0.7616861921,
				"z": 2.1801422133,
				"element": "H" 
			}
		],
		 "valence_orbital": [ 
			{
				"type": "occ",
				"energy": -0.31125,
				"method": "rhf"
			},
			{
				"type": "occ",
				"energy": -0.2977,
				"method": "rhf"
			},
			{
				"type": "occ",
				"energy": -0.29296,
				"method": "rhf"
			},
			{
				"type": "occ",
				"energy": -0.27562,
				"method": "rhf"
			},
			{
				"type": "occ",
				"energy": -0.26352,
				"method": "rhf"
			},
			{
				"type": "unocc",
				"energy": -0.08063,
				"method": "rhf"
			},
			{
				"type": "unocc",
				"energy": -0.03603,
				"method": "rhf"
			},
			{
				"type": "unocc",
				"energy": -0.02589,
				"method": "rhf"
			},
			{
				"type": "unocc",
				"energy": -0.00741,
				"method": "rhf"
			},
			{
				"type": "unocc",
				"energy": 0.013,
				"method": "rhf"
			}
		],
		"cosmo_sigma_profile": { 
			"-0.025": 0.0,
			"-0.024": 0.0,
			"-0.023": 0.0,
			"-0.022": 0.0,
			"-0.021": 0.0,
			"-0.02": 0.0,
			"-0.019": 0.0,
			"-0.018": 0.0,
			"-0.017": 0.0,
			"-0.016": 0.0,
			"-0.015": 0.0,
			"-0.014": 0.0,
			"-0.013": 0.0,
			"-0.012": 0.0,
			"-0.011": 0.0,
			"-0.01": 0.284083113771,
			"-0.009": 1.22364275153,
			"-0.008": 1.44120513522,
			"-0.007": 7.5298652424,
			"-0.006": 14.5056615071,
			"-0.005": 17.497059534,
			"-0.004": 18.4270506892,
			"-0.003": 17.0751820886,
			"-0.002": 17.3030349702,
			"-0.001": 18.1968785657,
			"0.0": 18.1869690292,
			"0.001": 27.1325260247,
			"0.002": 35.7214483577,
			"0.003": 23.5587312918,
			"0.004": 17.9832216707,
			"0.005": 7.29270192898,
			"0.006": 4.57329855979,
			"0.007": 4.69904665932,
			"0.008": 4.60203980244,
			"0.009": 3.03195377561,
			"0.01": 0.717758613222,
			"0.011": 0.963103168809,
			"0.012": 0.801363301842,
			"0.013": 0.0971192651396,
			"0.014": 0.0,
			"0.015": 0.0,
			"0.016": 0.0,
			"0.017": 0.0,
			"0.018": 0.0,
			"0.019": 0.0,
			"0.02": 0.0,
			"0.021": 0.0,
			"0.022": 0.0,
			"0.023": 0.0,
			"0.024": 0.0,
			"0.025": 0.0
		}
	}
}
