{
	 "smiles": "CC1=CC(C)=C(NC(=O)CCl)C(C)=C1", 
	 "Tm": 428.15, 
	 "num_atms": 28, 
	 "gaussian": { 
		 "optdone": 1, 
		 "sigma_profile": "yes", 
		 "theory": "DFT", 
		 "functional": "B3LYP", 
		 "basiset": "6-31G**", 
		 "properties": { 
			 "R2extent": 3553.5648, 
			 "electric_dipole_moment_norm": 4.42425708453, 
			 "electric_quadrupole_moment_norm": 10.0446572734, 
			 "total_energy": -1017.8071152, 
			 "HOMO_LUMO_gap": 0.21759, 
			 "cosmo_polarized_energy": -11.91, 
			 "cosmo_cavitation_energy": 32.42, 
			 "cosmo_dispersion_energy": -22.36, 
			 "cosmo_repulsion_energy": 1.78, 
			 "cosmo_total_nonelectrostatic_energy": 11.85, 
			 "SMD_solvation_energy": 6.47 
		},
		"coords": [
			{
				"x": 1.8864505816,
				"y": 3.8052213149,
				"z": -1.63335634,
				"element": "C" 
			},
			{
				"x": 1.5867557235,
				"y": 2.623816819,
				"z": -0.74122438,
				"element": "C" 
			},
			{
				"x": 0.7583802756,
				"y": 2.7598161828,
				"z": 0.3768019297,
				"element": "C" 
			},
			{
				"x": 0.4461367662,
				"y": 1.6742328276,
				"z": 1.2021651589,
				"element": "C" 
			},
			{
				"x": -0.4228970891,
				"y": 1.8699430818,
				"z": 2.4225164393,
				"element": "C" 
			},
			{
				"x": 0.9727325636,
				"y": 0.4102840444,
				"z": 0.8732517689,
				"element": "C" 
			},
			{
				"x": 0.6870187813,
				"y": -0.7174979674,
				"z": 1.7123218711,
				"element": "N" 
			},
			{
				"x": -0.4411284028,
				"y": -1.4987158432,
				"z": 1.7525591343,
				"element": "C" 
			},
			{
				"x": -0.5675604022,
				"y": -2.4150913951,
				"z": 2.5497027603,
				"element": "O" 
			},
			{
				"x": -1.5418234588,
				"y": -1.1771672738,
				"z": 0.7407382352,
				"element": "C" 
			},
			{
				"x": -1.3229946517,
				"y": -2.1607381707,
				"z": -0.7698050613,
				"element": "Cl" 
			},
			{
				"x": 1.8281291826,
				"y": 0.243952486,
				"z": -0.2327315544,
				"element": "C" 
			},
			{
				"x": 2.426488044,
				"y": -1.1035236396,
				"z": -0.5555802943,
				"element": "C" 
			},
			{
				"x": 2.1194449739,
				"y": 1.3610051789,
				"z": -1.0209515577,
				"element": "C" 
			},
			{
				"x": 1.1781216079,
				"y": 3.8568958027,
				"z": -2.4696675361,
				"element": "H" 
			},
			{
				"x": 1.8132725801,
				"y": 4.7495879965,
				"z": -1.0860658591,
				"element": "H" 
			},
			{
				"x": 2.8903149323,
				"y": 3.7379125792,
				"z": -2.0633794217,
				"element": "H" 
			},
			{
				"x": 0.3543217681,
				"y": 3.738937823,
				"z": 0.6237574592,
				"element": "H" 
			},
			{
				"x": -0.5626897121,
				"y": 2.933821898,
				"z": 2.6296481071,
				"element": "H" 
			},
			{
				"x": 0.0168433203,
				"y": 1.4011011158,
				"z": 3.3080965468,
				"element": "H" 
			},
			{
				"x": -1.4194279741,
				"y": 1.4288812569,
				"z": 2.2972981612,
				"element": "H" 
			},
			{
				"x": 1.3999702173,
				"y": -1.0328904711,
				"z": 2.3610692419,
				"element": "H" 
			},
			{
				"x": -1.5599867279,
				"y": -0.1340695963,
				"z": 0.429901806,
				"element": "H" 
			},
			{
				"x": -2.4942233746,
				"y": -1.4766552635,
				"z": 1.1737081547,
				"element": "H" 
			},
			{
				"x": 3.0369659117,
				"y": -1.0490663006,
				"z": -1.4603514,
				"element": "H" 
			},
			{
				"x": 3.0665827229,
				"y": -1.4672795344,
				"z": 0.2569917835,
				"element": "H" 
			},
			{
				"x": 1.6483940243,
				"y": -1.8570383802,
				"z": -0.7108799723,
				"element": "H" 
			},
			{
				"x": 2.7791078161,
				"y": 1.2395234285,
				"z": -1.8770351811,
				"element": "H" 
			}
		],
		 "valence_orbital": [ 
			{
				"type": "occ",
				"energy": -0.30041,
				"method": "rhf"
			},
			{
				"type": "occ",
				"energy": -0.26849,
				"method": "rhf"
			},
			{
				"type": "occ",
				"energy": -0.25819,
				"method": "rhf"
			},
			{
				"type": "occ",
				"energy": -0.24717,
				"method": "rhf"
			},
			{
				"type": "occ",
				"energy": -0.24043,
				"method": "rhf"
			},
			{
				"type": "unocc",
				"energy": -0.02284,
				"method": "rhf"
			},
			{
				"type": "unocc",
				"energy": -0.01391,
				"method": "rhf"
			},
			{
				"type": "unocc",
				"energy": -0.00668,
				"method": "rhf"
			},
			{
				"type": "unocc",
				"energy": 0.05807,
				"method": "rhf"
			},
			{
				"type": "unocc",
				"energy": 0.08459,
				"method": "rhf"
			}
		],
		"cosmo_sigma_profile": { 
			"-0.025": 0.0,
			"-0.024": 0.0,
			"-0.023": 0.0,
			"-0.022": 0.0,
			"-0.021": 0.0,
			"-0.02": 0.0,
			"-0.019": 0.0,
			"-0.018": 0.0,
			"-0.017": 0.0,
			"-0.016": 0.0,
			"-0.015": 0.0,
			"-0.014": 0.652608701388,
			"-0.013": 1.14016984506,
			"-0.012": 0.658721276806,
			"-0.011": 1.13946557318,
			"-0.01": 0.821298050218,
			"-0.009": 1.34031534097,
			"-0.008": 2.98779034237,
			"-0.007": 6.51033272814,
			"-0.006": 6.95163038084,
			"-0.005": 12.7038201054,
			"-0.004": 23.0761211538,
			"-0.003": 21.4001360629,
			"-0.002": 21.1719163635,
			"-0.001": 27.2312366787,
			"0.0": 30.1132017328,
			"0.001": 18.8485824192,
			"0.002": 14.2984697602,
			"0.003": 11.8431534958,
			"0.004": 13.3879509197,
			"0.005": 16.3126967732,
			"0.006": 7.61667657409,
			"0.007": 1.3287951468,
			"0.008": 0.660379562387,
			"0.009": 1.18366137612,
			"0.01": 1.56506599353,
			"0.011": 2.06395013399,
			"0.012": 2.85219738472,
			"0.013": 5.66426583134,
			"0.014": 2.04827370696,
			"0.015": 0.0,
			"0.016": 0.0,
			"0.017": 0.0,
			"0.018": 0.0,
			"0.019": 0.0,
			"0.02": 0.0,
			"0.021": 0.0,
			"0.022": 0.0,
			"0.023": 0.0,
			"0.024": 0.0,
			"0.025": 0.0
		}
	}
}
