{
	 "smiles": "[O-][N+]1=C(C(=O)C2=CC=CC=C12)C1=NC=CC=C1", 
	 "Tm": 455.15, 
	 "num_atms": 25, 
	 "gaussian": { 
		 "optdone": 1, 
		 "sigma_profile": "yes", 
		 "theory": "DFT", 
		 "functional": "B3LYP", 
		 "basiset": "6-31G**", 
		 "properties": { 
			 "R2extent": 4450.2693, 
			 "electric_dipole_moment_norm": 2.14006277712, 
			 "electric_quadrupole_moment_norm": 21.6063512003, 
			 "total_energy": -760.077322482, 
			 "HOMO_LUMO_gap": 0.11185, 
			 "cosmo_polarized_energy": -13.85, 
			 "cosmo_cavitation_energy": 30.36, 
			 "cosmo_dispersion_energy": -22.47, 
			 "cosmo_repulsion_energy": 1.69, 
			 "cosmo_total_nonelectrostatic_energy": 9.58, 
			 "SMD_solvation_energy": 5.5 
		},
		"coords": [
			{
				"x": 2.4169428866,
				"y": 0.3732424969,
				"z": -1.3117389055,
				"element": "O" 
			},
			{
				"x": 1.694610954,
				"y": 0.1816985392,
				"z": -0.313565227,
				"element": "N" 
			},
			{
				"x": 0.4514966057,
				"y": -0.3420056342,
				"z": -0.210130731,
				"element": "C" 
			},
			{
				"x": 0.0742204029,
				"y": -0.3318693238,
				"z": 1.2310387064,
				"element": "C" 
			},
			{
				"x": -0.9665142523,
				"y": -0.7196925464,
				"z": 1.740958737,
				"element": "O" 
			},
			{
				"x": 1.2387438593,
				"y": 0.2579227248,
				"z": 1.9600022566,
				"element": "C" 
			},
			{
				"x": 1.4808577136,
				"y": 0.5229878124,
				"z": 3.2982003144,
				"element": "C" 
			},
			{
				"x": 2.7193176286,
				"y": 1.0972955397,
				"z": 3.6325043096,
				"element": "C" 
			},
			{
				"x": 3.6695428009,
				"y": 1.3890724953,
				"z": 2.648990373,
				"element": "C" 
			},
			{
				"x": 3.4223712636,
				"y": 1.1194397763,
				"z": 1.2909774503,
				"element": "C" 
			},
			{
				"x": 2.1979858851,
				"y": 0.5572421986,
				"z": 1.006681013,
				"element": "C" 
			},
			{
				"x": -0.3551674098,
				"y": -0.8240565074,
				"z": -1.3298071302,
				"element": "C" 
			},
			{
				"x": 0.1694940605,
				"y": -0.7435906196,
				"z": -2.5694655888,
				"element": "N" 
			},
			{
				"x": -0.5668698564,
				"y": -1.183369649,
				"z": -3.5897063486,
				"element": "C" 
			},
			{
				"x": -1.8483006748,
				"y": -1.7223294011,
				"z": -3.4536004287,
				"element": "C" 
			},
			{
				"x": -2.3883394569,
				"y": -1.8042177311,
				"z": -2.1705099856,
				"element": "C" 
			},
			{
				"x": -1.6411308477,
				"y": -1.3524190124,
				"z": -1.0883543102,
				"element": "C" 
			},
			{
				"x": 0.736251067,
				"y": 0.2924624441,
				"z": 4.0531864134,
				"element": "H" 
			},
			{
				"x": 2.9436468177,
				"y": 1.3187658537,
				"z": 4.6713590469,
				"element": "H" 
			},
			{
				"x": 4.617521971,
				"y": 1.8325768404,
				"z": 2.9375855203,
				"element": "H" 
			},
			{
				"x": 4.1368095615,
				"y": 1.3332183722,
				"z": 0.5048640476,
				"element": "H" 
			},
			{
				"x": -0.107803074,
				"y": -1.1011079128,
				"z": -4.5739300854,
				"element": "H" 
			},
			{
				"x": -2.39848919,
				"y": -2.0638375791,
				"z": -4.3246986541,
				"element": "H" 
			},
			{
				"x": -3.3810843106,
				"y": -2.2152772511,
				"z": -2.0108693368,
				"element": "H" 
			},
			{
				"x": -2.0232144055,
				"y": -1.3979519255,
				"z": -0.0767714566,
				"element": "H" 
			}
		],
		 "valence_orbital": [ 
			{
				"type": "occ",
				"energy": -0.28135,
				"method": "rhf"
			},
			{
				"type": "occ",
				"energy": -0.27911,
				"method": "rhf"
			},
			{
				"type": "occ",
				"energy": -0.26781,
				"method": "rhf"
			},
			{
				"type": "occ",
				"energy": -0.23967,
				"method": "rhf"
			},
			{
				"type": "occ",
				"energy": -0.22153,
				"method": "rhf"
			},
			{
				"type": "unocc",
				"energy": -0.10968,
				"method": "rhf"
			},
			{
				"type": "unocc",
				"energy": -0.05296,
				"method": "rhf"
			},
			{
				"type": "unocc",
				"energy": -0.0184,
				"method": "rhf"
			},
			{
				"type": "unocc",
				"energy": -0.01049,
				"method": "rhf"
			},
			{
				"type": "unocc",
				"energy": 0.00956,
				"method": "rhf"
			}
		],
		"cosmo_sigma_profile": { 
			"-0.025": 0.0,
			"-0.024": 0.0,
			"-0.023": 0.0,
			"-0.022": 0.0,
			"-0.021": 0.0,
			"-0.02": 0.0,
			"-0.019": 0.0,
			"-0.018": 0.0,
			"-0.017": 0.0,
			"-0.016": 0.0,
			"-0.015": 0.0,
			"-0.014": 0.0,
			"-0.013": 0.0,
			"-0.012": 0.0,
			"-0.011": 0.0,
			"-0.01": 0.0,
			"-0.009": 0.0380385059199,
			"-0.008": 3.98024286261,
			"-0.007": 13.6346746917,
			"-0.006": 18.0836970453,
			"-0.005": 19.433594525,
			"-0.004": 14.8761114112,
			"-0.003": 15.2362222257,
			"-0.002": 16.4632801812,
			"-0.001": 18.0924153844,
			"0.0": 22.0759770674,
			"0.001": 26.1238724648,
			"0.002": 25.5299860242,
			"0.003": 9.22929655474,
			"0.004": 4.04968386071,
			"0.005": 4.07982076675,
			"0.006": 3.46352815648,
			"0.007": 2.98109490436,
			"0.008": 5.08308451364,
			"0.009": 6.2756964256,
			"0.01": 6.87683778078,
			"0.011": 2.89810923621,
			"0.012": 1.18350496077,
			"0.013": 1.27754480902,
			"0.014": 1.35380749536,
			"0.015": 1.00183889881,
			"0.016": 0.792146829641,
			"0.017": 1.01173303582,
			"0.018": 0.571556382726,
			"0.019": 0.381349369221,
			"0.02": 0.0,
			"0.021": 0.0,
			"0.022": 0.0,
			"0.023": 0.0,
			"0.024": 0.0,
			"0.025": 0.0
		}
	}
}
