{
	 "smiles": "CCCCS", 
	 "Tm": 157.15, 
	 "num_atms": 15, 
	 "gaussian": { 
		 "optdone": 1, 
		 "sigma_profile": "yes", 
		 "theory": "DFT", 
		 "functional": "B3LYP", 
		 "basiset": "6-31G**", 
		 "properties": { 
			 "R2extent": 1008.0197, 
			 "electric_dipole_moment_norm": 1.76983882317, 
			 "electric_quadrupole_moment_norm": 5.12638843046, 
			 "total_energy": -556.646338265, 
			 "HOMO_LUMO_gap": 0.26247, 
			 "cosmo_polarized_energy": -3.77, 
			 "cosmo_cavitation_energy": 18.41, 
			 "cosmo_dispersion_energy": -14.15, 
			 "cosmo_repulsion_energy": 1.2, 
			 "cosmo_total_nonelectrostatic_energy": 5.46, 
			 "SMD_solvation_energy": 2.7 
		},
		"coords": [
			{
				"x": 0.718272309,
				"y": -2.7946140272,
				"z": -0.5063489181,
				"element": "C" 
			},
			{
				"x": 0.2699236605,
				"y": -1.7491255365,
				"z": 0.5228007695,
				"element": "C" 
			},
			{
				"x": -0.3096397051,
				"y": -0.4420565963,
				"z": -0.0534655455,
				"element": "C" 
			},
			{
				"x": 0.6909496508,
				"y": 0.6484977261,
				"z": -0.4592963765,
				"element": "C" 
			},
			{
				"x": 1.7516413049,
				"y": 0.3316179531,
				"z": -1.9383615248,
				"element": "S" 
			},
			{
				"x": 1.0529054113,
				"y": -3.7094893126,
				"z": -0.0052194534,
				"element": "H" 
			},
			{
				"x": 1.5365093341,
				"y": -2.4272626151,
				"z": -1.1291760425,
				"element": "H" 
			},
			{
				"x": -0.1107875487,
				"y": -3.067330566,
				"z": -1.1702282315,
				"element": "H" 
			},
			{
				"x": -0.4987122808,
				"y": -2.2014217643,
				"z": 1.1624365009,
				"element": "H" 
			},
			{
				"x": 1.1065877431,
				"y": -1.5044023799,
				"z": 1.1916481629,
				"element": "H" 
			},
			{
				"x": -0.9509502235,
				"y": 0.0167760417,
				"z": 0.7123309383,
				"element": "H" 
			},
			{
				"x": -0.9727645877,
				"y": -0.6678945404,
				"z": -0.8996521995,
				"element": "H" 
			},
			{
				"x": 0.1673588472,
				"y": 1.5946441169,
				"z": -0.6226525692,
				"element": "H" 
			},
			{
				"x": 1.4124814243,
				"y": 0.8190887207,
				"z": 0.3466834982,
				"element": "H" 
			},
			{
				"x": 0.7474246605,
				"y": 0.1993727799,
				"z": -2.8293990088,
				"element": "H" 
			}
		],
		 "valence_orbital": [ 
			{
				"type": "occ",
				"energy": -0.34525,
				"method": "rhf"
			},
			{
				"type": "occ",
				"energy": -0.33318,
				"method": "rhf"
			},
			{
				"type": "occ",
				"energy": -0.33062,
				"method": "rhf"
			},
			{
				"type": "occ",
				"energy": -0.31067,
				"method": "rhf"
			},
			{
				"type": "occ",
				"energy": -0.23174,
				"method": "rhf"
			},
			{
				"type": "unocc",
				"energy": 0.03073,
				"method": "rhf"
			},
			{
				"type": "unocc",
				"energy": 0.07462,
				"method": "rhf"
			},
			{
				"type": "unocc",
				"energy": 0.09046,
				"method": "rhf"
			},
			{
				"type": "unocc",
				"energy": 0.11994,
				"method": "rhf"
			},
			{
				"type": "unocc",
				"energy": 0.13294,
				"method": "rhf"
			}
		],
		"cosmo_sigma_profile": { 
			"-0.025": 0.0,
			"-0.024": 0.0,
			"-0.023": 0.0,
			"-0.022": 0.0,
			"-0.021": 0.0,
			"-0.02": 0.0,
			"-0.019": 0.0,
			"-0.018": 0.0,
			"-0.017": 0.0,
			"-0.016": 0.0,
			"-0.015": 0.0,
			"-0.014": 0.0,
			"-0.013": 0.0,
			"-0.012": 0.0,
			"-0.011": 0.0,
			"-0.01": 0.0,
			"-0.009": 0.235285006805,
			"-0.008": 1.73561835338,
			"-0.007": 2.38875858746,
			"-0.006": 2.00116643863,
			"-0.005": 5.04406500356,
			"-0.004": 7.78113628021,
			"-0.003": 13.2806772868,
			"-0.002": 20.5767813693,
			"-0.001": 18.9939766188,
			"0.0": 18.1004774667,
			"0.001": 15.2792121942,
			"0.002": 10.9009197789,
			"0.003": 5.5889918168,
			"0.004": 4.98654149154,
			"0.005": 4.01171968366,
			"0.006": 4.36304953728,
			"0.007": 2.67237605134,
			"0.008": 2.91108527523,
			"0.009": 1.56523132594,
			"0.01": 1.130425211,
			"0.011": 1.05041599024,
			"0.012": 0.210641025155,
			"0.013": 0.0,
			"0.014": 0.0,
			"0.015": 0.0,
			"0.016": 0.0,
			"0.017": 0.0,
			"0.018": 0.0,
			"0.019": 0.0,
			"0.02": 0.0,
			"0.021": 0.0,
			"0.022": 0.0,
			"0.023": 0.0,
			"0.024": 0.0,
			"0.025": 0.0
		}
	}
}
