{
	 "smiles": "NNC(=O)CC1=CN2C=CSC2=N1", 
	 "Tm": 372.15, 
	 "num_atms": 21, 
	 "gaussian": { 
		 "optdone": 1, 
		 "sigma_profile": "yes", 
		 "theory": "DFT", 
		 "functional": "B3LYP", 
		 "basiset": "6-31G**", 
		 "properties": { 
			 "R2extent": 3500.679, 
			 "electric_dipole_moment_norm": 5.48148975827, 
			 "electric_quadrupole_moment_norm": 18.2959790246, 
			 "total_energy": -963.94148293, 
			 "HOMO_LUMO_gap": 0.20069, 
			 "cosmo_polarized_energy": -15.92, 
			 "cosmo_cavitation_energy": 27.28, 
			 "cosmo_dispersion_energy": -20.76, 
			 "cosmo_repulsion_energy": 1.61, 
			 "cosmo_total_nonelectrostatic_energy": 8.13, 
			 "SMD_solvation_energy": 5.11 
		},
		"coords": [
			{
				"x": 3.2655241829,
				"y": 0.9437105074,
				"z": 0.7974475818,
				"element": "N" 
			},
			{
				"x": 2.2972799973,
				"y": -0.051444197,
				"z": 0.5413467829,
				"element": "N" 
			},
			{
				"x": 2.1496911805,
				"y": -1.1163988898,
				"z": 1.3769338022,
				"element": "C" 
			},
			{
				"x": 2.9132109094,
				"y": -1.3408105778,
				"z": 2.3102892135,
				"element": "O" 
			},
			{
				"x": 0.9843156028,
				"y": -2.0596305158,
				"z": 1.0315703269,
				"element": "C" 
			},
			{
				"x": -0.3315760781,
				"y": -1.396338792,
				"z": 0.7494539776,
				"element": "C" 
			},
			{
				"x": -1.5271852217,
				"y": -1.5831685278,
				"z": 1.4081708279,
				"element": "C" 
			},
			{
				"x": -2.4319221755,
				"y": -0.7498999563,
				"z": 0.764455405,
				"element": "N" 
			},
			{
				"x": -3.7735259685,
				"y": -0.3938834091,
				"z": 0.8419288001,
				"element": "C" 
			},
			{
				"x": -4.1135684992,
				"y": 0.5200932176,
				"z": -0.0934742812,
				"element": "C" 
			},
			{
				"x": -2.7598551397,
				"y": 0.9834183384,
				"z": -1.1258226641,
				"element": "S" 
			},
			{
				"x": -1.7251923348,
				"y": -0.1126144629,
				"z": -0.233188007,
				"element": "C" 
			},
			{
				"x": -0.4636367486,
				"y": -0.4736983114,
				"z": -0.2799697498,
				"element": "N" 
			},
			{
				"x": 3.31698732,
				"y": 1.0473904661,
				"z": 1.8119710418,
				"element": "H" 
			},
			{
				"x": 4.172152264,
				"y": 0.559980311,
				"z": 0.5297603954,
				"element": "H" 
			},
			{
				"x": 1.5376964503,
				"y": 0.2068098713,
				"z": -0.0808011774,
				"element": "H" 
			},
			{
				"x": 1.290122489,
				"y": -2.6483000727,
				"z": 0.1561833492,
				"element": "H" 
			},
			{
				"x": 0.8913145829,
				"y": -2.748017426,
				"z": 1.8733263913,
				"element": "H" 
			},
			{
				"x": -1.8045398353,
				"y": -2.2088119105,
				"z": 2.2412204467,
				"element": "H" 
			},
			{
				"x": -4.4142327666,
				"y": -0.8370594431,
				"z": 1.5909670585,
				"element": "H" 
			},
			{
				"x": -5.0870602111,
				"y": 0.9604737804,
				"z": -0.2479695213,
				"element": "H" 
			}
		],
		 "valence_orbital": [ 
			{
				"type": "occ",
				"energy": -0.2695,
				"method": "rhf"
			},
			{
				"type": "occ",
				"energy": -0.25582,
				"method": "rhf"
			},
			{
				"type": "occ",
				"energy": -0.24039,
				"method": "rhf"
			},
			{
				"type": "occ",
				"energy": -0.23205,
				"method": "rhf"
			},
			{
				"type": "occ",
				"energy": -0.22404,
				"method": "rhf"
			},
			{
				"type": "unocc",
				"energy": -0.02335,
				"method": "rhf"
			},
			{
				"type": "unocc",
				"energy": -0.00083,
				"method": "rhf"
			},
			{
				"type": "unocc",
				"energy": 0.02926,
				"method": "rhf"
			},
			{
				"type": "unocc",
				"energy": 0.03638,
				"method": "rhf"
			},
			{
				"type": "unocc",
				"energy": 0.05618,
				"method": "rhf"
			}
		],
		"cosmo_sigma_profile": { 
			"-0.025": 0.0,
			"-0.024": 0.0,
			"-0.023": 0.0,
			"-0.022": 0.0,
			"-0.021": 0.0,
			"-0.02": 0.0,
			"-0.019": 0.0,
			"-0.018": 0.0,
			"-0.017": 0.0,
			"-0.016": 0.0,
			"-0.015": 0.0,
			"-0.014": 0.0,
			"-0.013": 0.0,
			"-0.012": 0.110858345618,
			"-0.011": 1.82224409273,
			"-0.01": 6.44179416643,
			"-0.009": 8.97405091532,
			"-0.008": 8.11047634166,
			"-0.007": 7.93887917756,
			"-0.006": 10.775170356,
			"-0.005": 10.996726934,
			"-0.004": 9.26015761033,
			"-0.003": 10.7881224574,
			"-0.002": 10.4945237401,
			"-0.001": 15.9688144483,
			"0.0": 20.5693517352,
			"0.001": 18.796247011,
			"0.002": 18.4489138813,
			"0.003": 15.4415076425,
			"0.004": 9.8651070068,
			"0.005": 3.87690216956,
			"0.006": 2.45974858246,
			"0.007": 2.8825316259,
			"0.008": 2.73701677743,
			"0.009": 2.47859661024,
			"0.01": 2.59801333629,
			"0.011": 3.24806621726,
			"0.012": 2.8426522335,
			"0.013": 4.09193220846,
			"0.014": 5.57084901295,
			"0.015": 1.77671598044,
			"0.016": 0.554343743169,
			"0.017": 0.416298659886,
			"0.018": 0.0367803620528,
			"0.019": 0.0,
			"0.02": 0.0,
			"0.021": 0.0,
			"0.022": 0.0,
			"0.023": 0.0,
			"0.024": 0.0,
			"0.025": 0.0
		}
	}
}
