{
	 "smiles": "CC(=O)C1=C(C)N(N=N1)C1=CC(Br)=CC=C1", 
	 "Tm": 348.15, 
	 "num_atms": 26, 
	 "gaussian": { 
		 "optdone": 1, 
		 "sigma_profile": "yes", 
		 "theory": "DFT", 
		 "functional": "B3LYP", 
		 "basiset": "6-31G**", 
		 "properties": { 
			 "R2extent": 8204.8021, 
			 "electric_dipole_moment_norm": 3.02983263234, 
			 "electric_quadrupole_moment_norm": 13.5895128776, 
			 "total_energy": -3236.05200615, 
			 "HOMO_LUMO_gap": 0.19529, 
			 "cosmo_polarized_energy": -12.41, 
			 "cosmo_cavitation_energy": 33.15, 
			 "cosmo_dispersion_energy": -24.08, 
			 "cosmo_repulsion_energy": 1.88, 
			 "cosmo_total_nonelectrostatic_energy": 10.94, 
			 "SMD_solvation_energy": 3.97 
		},
		"coords": [
			{
				"x": 3.853675035,
				"y": -2.1679932512,
				"z": -0.4939876309,
				"element": "C" 
			},
			{
				"x": 2.3630312809,
				"y": -1.9656218551,
				"z": -0.3246028913,
				"element": "C" 
			},
			{
				"x": 1.6703559901,
				"y": -2.7380924939,
				"z": 0.3271955083,
				"element": "O" 
			},
			{
				"x": 1.7675017033,
				"y": -0.7880953647,
				"z": -0.9892576654,
				"element": "C" 
			},
			{
				"x": 0.4366930416,
				"y": -0.3809133007,
				"z": -1.0045953731,
				"element": "C" 
			},
			{
				"x": -0.7764937862,
				"y": -0.9960884958,
				"z": -0.3910656306,
				"element": "C" 
			},
			{
				"x": 0.458750772,
				"y": 0.739653574,
				"z": -1.7803496281,
				"element": "N" 
			},
			{
				"x": 1.7384497863,
				"y": 1.0018139443,
				"z": -2.2252972375,
				"element": "N" 
			},
			{
				"x": 2.5064351723,
				"y": 0.0847831927,
				"z": -1.7440809441,
				"element": "N" 
			},
			{
				"x": -0.5985264154,
				"y": 1.5947004762,
				"z": -2.2025413522,
				"element": "C" 
			},
			{
				"x": -1.5887740704,
				"y": 1.9911689987,
				"z": -1.2992546353,
				"element": "C" 
			},
			{
				"x": -2.6053563152,
				"y": 2.831050653,
				"z": -1.7493132342,
				"element": "C" 
			},
			{
				"x": -3.9681347117,
				"y": 3.3689627376,
				"z": -0.5259593673,
				"element": "Br" 
			},
			{
				"x": -2.639332415,
				"y": 3.2943625645,
				"z": -3.0629550722,
				"element": "C" 
			},
			{
				"x": -1.6276520489,
				"y": 2.9021433582,
				"z": -3.9419370677,
				"element": "C" 
			},
			{
				"x": -0.6082722486,
				"y": 2.0497327285,
				"z": -3.524974656,
				"element": "C" 
			},
			{
				"x": 4.1073411928,
				"y": -2.2669553111,
				"z": -1.5544051472,
				"element": "H" 
			},
			{
				"x": 4.1556602633,
				"y": -3.0628105784,
				"z": 0.0512398563,
				"element": "H" 
			},
			{
				"x": 4.4026147174,
				"y": -1.2953117813,
				"z": -0.1258708442,
				"element": "H" 
			},
			{
				"x": -1.0310649099,
				"y": -0.5155544246,
				"z": 0.5607323587,
				"element": "H" 
			},
			{
				"x": -0.5607525985,
				"y": -2.042324873,
				"z": -0.1752155433,
				"element": "H" 
			},
			{
				"x": -1.6449679637,
				"y": -0.9147738653,
				"z": -1.0508668079,
				"element": "H" 
			},
			{
				"x": -1.5603289952,
				"y": 1.6730482956,
				"z": -0.2655888211,
				"element": "H" 
			},
			{
				"x": -3.4375661824,
				"y": 3.9502602601,
				"z": -3.389880262,
				"element": "H" 
			},
			{
				"x": -1.6417415607,
				"y": 3.2605695442,
				"z": -4.9664125363,
				"element": "H" 
			},
			{
				"x": 0.1800552669,
				"y": 1.7385852675,
				"z": -4.1993553755,
				"element": "H" 
			}
		],
		 "valence_orbital": [ 
			{
				"type": "occ",
				"energy": -0.28169,
				"method": "rhf"
			},
			{
				"type": "occ",
				"energy": -0.27435,
				"method": "rhf"
			},
			{
				"type": "occ",
				"energy": -0.26493,
				"method": "rhf"
			},
			{
				"type": "occ",
				"energy": -0.25743,
				"method": "rhf"
			},
			{
				"type": "occ",
				"energy": -0.25079,
				"method": "rhf"
			},
			{
				"type": "unocc",
				"energy": -0.0555,
				"method": "rhf"
			},
			{
				"type": "unocc",
				"energy": -0.03789,
				"method": "rhf"
			},
			{
				"type": "unocc",
				"energy": -0.03563,
				"method": "rhf"
			},
			{
				"type": "unocc",
				"energy": -0.01004,
				"method": "rhf"
			},
			{
				"type": "unocc",
				"energy": -0.00082,
				"method": "rhf"
			}
		],
		"cosmo_sigma_profile": { 
			"-0.025": 0.0,
			"-0.024": 0.0,
			"-0.023": 0.0,
			"-0.022": 0.0,
			"-0.021": 0.0,
			"-0.02": 0.0,
			"-0.019": 0.0,
			"-0.018": 0.0,
			"-0.017": 0.0,
			"-0.016": 0.0,
			"-0.015": 0.0,
			"-0.014": 0.0,
			"-0.013": 0.0,
			"-0.012": 0.0,
			"-0.011": 0.0,
			"-0.01": 0.612572536973,
			"-0.009": 2.20410383854,
			"-0.008": 3.56741346444,
			"-0.007": 9.77613288832,
			"-0.006": 14.2262806724,
			"-0.005": 16.5982725132,
			"-0.004": 20.8913525569,
			"-0.003": 21.5356716713,
			"-0.002": 25.0664475392,
			"-0.001": 24.5371785291,
			"0.0": 18.8191510753,
			"0.001": 22.8528542146,
			"0.002": 20.3553425139,
			"0.003": 13.6533154506,
			"0.004": 14.9561335331,
			"0.005": 4.8733872372,
			"0.006": 4.64786915729,
			"0.007": 3.82082395409,
			"0.008": 3.78070736579,
			"0.009": 4.74745563432,
			"0.01": 5.76193497463,
			"0.011": 4.9826454069,
			"0.012": 4.23588261515,
			"0.013": 2.18399649406,
			"0.014": 0.362741809699,
			"0.015": 0.0,
			"0.016": 0.0,
			"0.017": 0.0,
			"0.018": 0.0,
			"0.019": 0.0,
			"0.02": 0.0,
			"0.021": 0.0,
			"0.022": 0.0,
			"0.023": 0.0,
			"0.024": 0.0,
			"0.025": 0.0
		}
	}
}
