{
	 "smiles": "CC1=CN(CC(O)=O)N=C1", 
	 "Tm": 446.15, 
	 "num_atms": 18, 
	 "gaussian": { 
		 "optdone": 1, 
		 "sigma_profile": "yes", 
		 "theory": "DFT", 
		 "functional": "B3LYP", 
		 "basiset": "6-31G**", 
		 "properties": { 
			 "R2extent": 2132.8099, 
			 "electric_dipole_moment_norm": 5.70158271535, 
			 "electric_quadrupole_moment_norm": 22.7186707263, 
			 "total_energy": -493.40304988, 
			 "HOMO_LUMO_gap": 0.24096, 
			 "cosmo_polarized_energy": -12.68, 
			 "cosmo_cavitation_energy": 22.18, 
			 "cosmo_dispersion_energy": -16.58, 
			 "cosmo_repulsion_energy": 1.36, 
			 "cosmo_total_nonelectrostatic_energy": 6.96, 
			 "SMD_solvation_energy": 5.12 
		},
		"coords": [
			{
				"x": -0.7344362439,
				"y": 0.1957759289,
				"z": -2.5801708769,
				"element": "C" 
			},
			{
				"x": -0.451119445,
				"y": 0.0733974088,
				"z": -1.1117182949,
				"element": "C" 
			},
			{
				"x": -0.0178610553,
				"y": 1.062683814,
				"z": -0.2421883171,
				"element": "C" 
			},
			{
				"x": 0.0995300057,
				"y": 0.5048659983,
				"z": 0.9910588572,
				"element": "N" 
			},
			{
				"x": 0.580030846,
				"y": 1.1150469648,
				"z": 2.2237657657,
				"element": "C" 
			},
			{
				"x": -0.2281209119,
				"y": 0.7767414169,
				"z": 3.4956041277,
				"element": "C" 
			},
			{
				"x": -0.828359116,
				"y": -0.4118821138,
				"z": 3.5323426106,
				"element": "O" 
			},
			{
				"x": -0.2336523406,
				"y": 1.554499953,
				"z": 4.4203369609,
				"element": "O" 
			},
			{
				"x": -0.2260214015,
				"y": -0.8079980875,
				"z": 0.9743305225,
				"element": "N" 
			},
			{
				"x": -0.5681023179,
				"y": -1.0691553394,
				"z": -0.2885104529,
				"element": "C" 
			},
			{
				"x": -0.5705736997,
				"y": 1.2192244914,
				"z": -2.9283350928,
				"element": "H" 
			},
			{
				"x": -0.0879028994,
				"y": -0.4619480759,
				"z": -3.1715544514,
				"element": "H" 
			},
			{
				"x": -1.7709266878,
				"y": -0.0707477527,
				"z": -2.8139847775,
				"element": "H" 
			},
			{
				"x": 0.21313203,
				"y": 2.104602037,
				"z": -0.4126503717,
				"element": "H" 
			},
			{
				"x": 1.6174959521,
				"y": 0.8083332037,
				"z": 2.4086151142,
				"element": "H" 
			},
			{
				"x": 0.5637355057,
				"y": 2.1980128194,
				"z": 2.1052750752,
				"element": "H" 
			},
			{
				"x": -0.6968616866,
				"y": -0.8791515818,
				"z": 2.6652231513,
				"element": "H" 
			},
			{
				"x": -0.8906865339,
				"y": -2.0656010853,
				"z": -0.56043955,
				"element": "H" 
			}
		],
		 "valence_orbital": [ 
			{
				"type": "occ",
				"energy": -0.31485,
				"method": "rhf"
			},
			{
				"type": "occ",
				"energy": -0.30383,
				"method": "rhf"
			},
			{
				"type": "occ",
				"energy": -0.28228,
				"method": "rhf"
			},
			{
				"type": "occ",
				"energy": -0.26678,
				"method": "rhf"
			},
			{
				"type": "occ",
				"energy": -0.24989,
				"method": "rhf"
			},
			{
				"type": "unocc",
				"energy": -0.00893,
				"method": "rhf"
			},
			{
				"type": "unocc",
				"energy": 0.01532,
				"method": "rhf"
			},
			{
				"type": "unocc",
				"energy": 0.04657,
				"method": "rhf"
			},
			{
				"type": "unocc",
				"energy": 0.08292,
				"method": "rhf"
			},
			{
				"type": "unocc",
				"energy": 0.09964,
				"method": "rhf"
			}
		],
		"cosmo_sigma_profile": { 
			"-0.025": 0.0,
			"-0.024": 0.0,
			"-0.023": 0.0,
			"-0.022": 0.0,
			"-0.021": 0.0,
			"-0.02": 0.0,
			"-0.019": 0.0,
			"-0.018": 0.0,
			"-0.017": 0.0,
			"-0.016": 0.0,
			"-0.015": 0.0,
			"-0.014": 0.0,
			"-0.013": 0.0,
			"-0.012": 0.0,
			"-0.011": 0.266345221665,
			"-0.01": 2.27149010004,
			"-0.009": 6.46743368494,
			"-0.008": 6.12628980311,
			"-0.007": 7.2461203674,
			"-0.006": 9.01676645913,
			"-0.005": 9.7076817853,
			"-0.004": 12.7174136612,
			"-0.003": 12.2101642192,
			"-0.002": 14.2196496953,
			"-0.001": 14.4606583382,
			"0.0": 12.6721292767,
			"0.001": 8.08187657976,
			"0.002": 8.21436673308,
			"0.003": 9.25549895472,
			"0.004": 8.13800997169,
			"0.005": 3.42239267088,
			"0.006": 3.13954727768,
			"0.007": 3.38258192151,
			"0.008": 3.30084025736,
			"0.009": 4.20257088869,
			"0.01": 4.04439391523,
			"0.011": 5.86723229505,
			"0.012": 5.6258571792,
			"0.013": 2.345364074,
			"0.014": 0.182639088012,
			"0.015": 0.0,
			"0.016": 0.0,
			"0.017": 0.0,
			"0.018": 0.0,
			"0.019": 0.0,
			"0.02": 0.0,
			"0.021": 0.0,
			"0.022": 0.0,
			"0.023": 0.0,
			"0.024": 0.0,
			"0.025": 0.0
		}
	}
}
