{
	 "smiles": "NC1=C(C=C(OC2=CC=C(Cl)C=C2)C=C1)C(O)=O", 
	 "Tm": 451.15, 
	 "num_atms": 28, 
	 "gaussian": { 
		 "optdone": 1, 
		 "sigma_profile": "yes", 
		 "theory": "DFT", 
		 "functional": "B3LYP", 
		 "basiset": "6-31G**", 
		 "properties": { 
			 "R2extent": 8935.3818, 
			 "electric_dipole_moment_norm": 2.58801176195, 
			 "electric_quadrupole_moment_norm": 21.7381870769, 
			 "total_energy": -1242.0339011, 
			 "HOMO_LUMO_gap": 0.15712, 
			 "cosmo_polarized_energy": -16.75, 
			 "cosmo_cavitation_energy": 34.9, 
			 "cosmo_dispersion_energy": -25.64, 
			 "cosmo_repulsion_energy": 1.98, 
			 "cosmo_total_nonelectrostatic_energy": 11.24, 
			 "SMD_solvation_energy": 6.7 
		},
		"coords": [
			{
				"x": -0.6730318424,
				"y": 2.9790052077,
				"z": 0.0848808289,
				"element": "N" 
			},
			{
				"x": -0.2012103728,
				"y": 1.7289934527,
				"z": -0.1942398443,
				"element": "C" 
			},
			{
				"x": -1.0745426046,
				"y": 0.6406418494,
				"z": -0.4917038223,
				"element": "C" 
			},
			{
				"x": -0.5215939169,
				"y": -0.6254423863,
				"z": -0.7697326231,
				"element": "C" 
			},
			{
				"x": 0.8440608346,
				"y": -0.8423433527,
				"z": -0.7346906208,
				"element": "C" 
			},
			{
				"x": 1.3395548693,
				"y": -2.0807466887,
				"z": -1.1199385096,
				"element": "O" 
			},
			{
				"x": 1.9570603332,
				"y": -2.8879422134,
				"z": -0.1893152733,
				"element": "C" 
			},
			{
				"x": 1.8753105506,
				"y": -2.6912242223,
				"z": 1.1918601715,
				"element": "C" 
			},
			{
				"x": 2.5140050532,
				"y": -3.5833552301,
				"z": 2.055491402,
				"element": "C" 
			},
			{
				"x": 3.2229726687,
				"y": -4.663389389,
				"z": 1.5355588506,
				"element": "C" 
			},
			{
				"x": 4.0271569567,
				"y": -5.7843333783,
				"z": 2.6271440535,
				"element": "Cl" 
			},
			{
				"x": 3.3030680352,
				"y": -4.8664738061,
				"z": 0.156535832,
				"element": "C" 
			},
			{
				"x": 2.670455329,
				"y": -3.9755528907,
				"z": -0.7049214266,
				"element": "C" 
			},
			{
				"x": 1.7073897147,
				"y": 0.2171510658,
				"z": -0.4197437429,
				"element": "C" 
			},
			{
				"x": 1.1911108361,
				"y": 1.4714316753,
				"z": -0.1518720871,
				"element": "C" 
			},
			{
				"x": -2.5415324319,
				"y": 0.8640994531,
				"z": -0.5436251632,
				"element": "C" 
			},
			{
				"x": -3.345857862,
				"y": -0.2294090965,
				"z": -0.5232000845,
				"element": "O" 
			},
			{
				"x": -3.0663176433,
				"y": 1.9634881197,
				"z": -0.6026177262,
				"element": "O" 
			},
			{
				"x": -1.6375994961,
				"y": 3.1653742336,
				"z": -0.1632433438,
				"element": "H" 
			},
			{
				"x": -0.0181226963,
				"y": 3.7437304865,
				"z": 0.1056725927,
				"element": "H" 
			},
			{
				"x": -1.1482804792,
				"y": -1.4581439627,
				"z": -1.076437044,
				"element": "H" 
			},
			{
				"x": 1.31817186,
				"y": -1.8535427032,
				"z": 1.5948752016,
				"element": "H" 
			},
			{
				"x": 2.4551894478,
				"y": -3.4380977464,
				"z": 3.1285835023,
				"element": "H" 
			},
			{
				"x": 3.8574855571,
				"y": -5.7108332895,
				"z": -0.2377956364,
				"element": "H" 
			},
			{
				"x": 2.7183118659,
				"y": -4.1088556192,
				"z": -1.7804509213,
				"element": "H" 
			},
			{
				"x": 2.7793923971,
				"y": 0.0477165205,
				"z": -0.4033090119,
				"element": "H" 
			},
			{
				"x": 1.8644778498,
				"y": 2.2912995598,
				"z": 0.0831480586,
				"element": "H" 
			},
			{
				"x": -2.8371848135,
				"y": -1.0188456489,
				"z": -0.2947136125,
				"element": "H" 
			}
		],
		 "valence_orbital": [ 
			{
				"type": "occ",
				"energy": -0.28332,
				"method": "rhf"
			},
			{
				"type": "occ",
				"energy": -0.27641,
				"method": "rhf"
			},
			{
				"type": "occ",
				"energy": -0.26903,
				"method": "rhf"
			},
			{
				"type": "occ",
				"energy": -0.23258,
				"method": "rhf"
			},
			{
				"type": "occ",
				"energy": -0.21372,
				"method": "rhf"
			},
			{
				"type": "unocc",
				"energy": -0.0566,
				"method": "rhf"
			},
			{
				"type": "unocc",
				"energy": -0.01925,
				"method": "rhf"
			},
			{
				"type": "unocc",
				"energy": -0.01151,
				"method": "rhf"
			},
			{
				"type": "unocc",
				"energy": -0.00138,
				"method": "rhf"
			},
			{
				"type": "unocc",
				"energy": 0.02901,
				"method": "rhf"
			}
		],
		"cosmo_sigma_profile": { 
			"-0.025": 0.0,
			"-0.024": 0.0,
			"-0.023": 0.0,
			"-0.022": 0.0,
			"-0.021": 0.0,
			"-0.02": 0.0,
			"-0.019": 0.189402223068,
			"-0.018": 1.04093923857,
			"-0.017": 0.603649458507,
			"-0.016": 1.2687395723,
			"-0.015": 1.29552899024,
			"-0.014": 0.732917433595,
			"-0.013": 1.69306115752,
			"-0.012": 3.26668146217,
			"-0.011": 3.30439910168,
			"-0.01": 2.34523444195,
			"-0.009": 2.34602976865,
			"-0.008": 4.4132415841,
			"-0.007": 11.7721550912,
			"-0.006": 13.445171711,
			"-0.005": 13.8951944629,
			"-0.004": 10.7648950311,
			"-0.003": 12.6143858828,
			"-0.002": 15.6592277984,
			"-0.001": 15.0436490497,
			"0.0": 18.302005552,
			"0.001": 19.5616567965,
			"0.002": 31.247639,
			"0.003": 31.7535765401,
			"0.004": 20.681945021,
			"0.005": 13.2248151393,
			"0.006": 5.37030076303,
			"0.007": 4.10841963235,
			"0.008": 4.41471949416,
			"0.009": 4.59016588305,
			"0.01": 4.50879833213,
			"0.011": 4.34280265279,
			"0.012": 2.58448574898,
			"0.013": 1.81028872978,
			"0.014": 0.185706200254,
			"0.015": 0.0,
			"0.016": 0.0,
			"0.017": 0.0,
			"0.018": 0.0,
			"0.019": 0.0,
			"0.02": 0.0,
			"0.021": 0.0,
			"0.022": 0.0,
			"0.023": 0.0,
			"0.024": 0.0,
			"0.025": 0.0
		}
	}
}
