{
	 "smiles": "CC(=O)C1=CC=C(Br)C(=C1)[N+]([O-])=O", 
	 "Tm": 392.15, 
	 "num_atms": 19, 
	 "gaussian": { 
		 "optdone": 1, 
		 "sigma_profile": "yes", 
		 "theory": "DFT", 
		 "functional": "B3LYP", 
		 "basiset": "6-31G**", 
		 "properties": { 
			 "R2extent": 8765.1563, 
			 "electric_dipole_moment_norm": 1.84537370199, 
			 "electric_quadrupole_moment_norm": 22.4679271111, 
			 "total_energy": -3160.18294754, 
			 "HOMO_LUMO_gap": 0.1697, 
			 "cosmo_polarized_energy": -11.45, 
			 "cosmo_cavitation_energy": 26.81, 
			 "cosmo_dispersion_energy": -19.74, 
			 "cosmo_repulsion_energy": 1.56, 
			 "cosmo_total_nonelectrostatic_energy": 8.63, 
			 "SMD_solvation_energy": 6.51 
		},
		"coords": [
			{
				"x": 0.1228020901,
				"y": -1.2737559323,
				"z": -0.519404074,
				"element": "C" 
			},
			{
				"x": -0.4571505689,
				"y": 0.0449677347,
				"z": -0.047216624,
				"element": "C" 
			},
			{
				"x": -1.2942576259,
				"y": 0.0896473358,
				"z": 0.8392261825,
				"element": "O" 
			},
			{
				"x": 0.0159450948,
				"y": 1.3189504418,
				"z": -0.6918415974,
				"element": "C" 
			},
			{
				"x": -0.5299675438,
				"y": 2.5344971391,
				"z": -0.2516718735,
				"element": "C" 
			},
			{
				"x": -0.134726536,
				"y": 3.7373746932,
				"z": -0.8196713076,
				"element": "C" 
			},
			{
				"x": 0.8342169293,
				"y": 3.7682841427,
				"z": -1.8307989783,
				"element": "C" 
			},
			{
				"x": 1.2519472047,
				"y": 5.4625249076,
				"z": -2.5676692981,
				"element": "Br" 
			},
			{
				"x": 1.3846957218,
				"y": 2.5543850429,
				"z": -2.2668272925,
				"element": "C" 
			},
			{
				"x": 0.967708572,
				"y": 1.343898344,
				"z": -1.7108574076,
				"element": "C" 
			},
			{
				"x": 2.4259726184,
				"y": 2.4577938788,
				"z": -3.308836357,
				"element": "N" 
			},
			{
				"x": 3.2234888545,
				"y": 3.3817985732,
				"z": -3.418489734,
				"element": "O" 
			},
			{
				"x": 2.4372672254,
				"y": 1.427003459,
				"z": -3.9822575426,
				"element": "O" 
			},
			{
				"x": -0.0727804436,
				"y": -1.4297796025,
				"z": -1.5861745671,
				"element": "H" 
			},
			{
				"x": 1.2092796533,
				"y": -1.298301842,
				"z": -0.379670504,
				"element": "H" 
			},
			{
				"x": -0.3333642442,
				"y": -2.080991932,
				"z": 0.0537214675,
				"element": "H" 
			},
			{
				"x": -1.2734723725,
				"y": 2.5093650458,
				"z": 0.5378200413,
				"element": "H" 
			},
			{
				"x": -0.5735309581,
				"y": 4.6719724564,
				"z": -0.4904052301,
				"element": "H" 
			},
			{
				"x": 1.4109263287,
				"y": 0.4371661137,
				"z": -2.1024753036,
				"element": "H" 
			}
		],
		 "valence_orbital": [ 
			{
				"type": "occ",
				"energy": -0.31702,
				"method": "rhf"
			},
			{
				"type": "occ",
				"energy": -0.29791,
				"method": "rhf"
			},
			{
				"type": "occ",
				"energy": -0.28635,
				"method": "rhf"
			},
			{
				"type": "occ",
				"energy": -0.27399,
				"method": "rhf"
			},
			{
				"type": "occ",
				"energy": -0.2705,
				"method": "rhf"
			},
			{
				"type": "unocc",
				"energy": -0.1008,
				"method": "rhf"
			},
			{
				"type": "unocc",
				"energy": -0.08024,
				"method": "rhf"
			},
			{
				"type": "unocc",
				"energy": -0.03006,
				"method": "rhf"
			},
			{
				"type": "unocc",
				"energy": -0.01911,
				"method": "rhf"
			},
			{
				"type": "unocc",
				"energy": 0.0129,
				"method": "rhf"
			}
		],
		"cosmo_sigma_profile": { 
			"-0.025": 0.0,
			"-0.024": 0.0,
			"-0.023": 0.0,
			"-0.022": 0.0,
			"-0.021": 0.0,
			"-0.02": 0.0,
			"-0.019": 0.0,
			"-0.018": 0.0,
			"-0.017": 0.0,
			"-0.016": 0.0,
			"-0.015": 0.0,
			"-0.014": 0.0,
			"-0.013": 0.0,
			"-0.012": 0.0,
			"-0.011": 0.0,
			"-0.01": 0.0,
			"-0.009": 1.16915394784,
			"-0.008": 7.39911578836,
			"-0.007": 12.880657814,
			"-0.006": 11.3886444647,
			"-0.005": 12.6174178481,
			"-0.004": 13.4449323276,
			"-0.003": 13.1613669364,
			"-0.002": 22.1188108157,
			"-0.001": 24.6297209003,
			"0.0": 14.9704439184,
			"0.001": 11.0367969901,
			"0.002": 10.3981485557,
			"0.003": 10.5171560708,
			"0.004": 5.40607205456,
			"0.005": 6.19956897267,
			"0.006": 6.29455487633,
			"0.007": 12.1754058478,
			"0.008": 8.15770507301,
			"0.009": 5.48214834539,
			"0.01": 3.03238698075,
			"0.011": 3.69826525036,
			"0.012": 1.96405287506,
			"0.013": 0.337492298044,
			"0.014": 0.0,
			"0.015": 0.0,
			"0.016": 0.0,
			"0.017": 0.0,
			"0.018": 0.0,
			"0.019": 0.0,
			"0.02": 0.0,
			"0.021": 0.0,
			"0.022": 0.0,
			"0.023": 0.0,
			"0.024": 0.0,
			"0.025": 0.0
		}
	}
}
