{
	 "smiles": "OC(=O)C1=C(Cl)C=CC(F)=C1", 
	 "Tm": 421.15, 
	 "num_atms": 15, 
	 "gaussian": { 
		 "optdone": 1, 
		 "sigma_profile": "yes", 
		 "theory": "DFT", 
		 "functional": "B3LYP", 
		 "basiset": "6-31G**", 
		 "properties": { 
			 "R2extent": 2521.9966, 
			 "electric_dipole_moment_norm": 4.62247317028, 
			 "electric_quadrupole_moment_norm": 10.6132288362, 
			 "total_energy": -979.632267804, 
			 "HOMO_LUMO_gap": 0.19824, 
			 "cosmo_polarized_energy": -10.19, 
			 "cosmo_cavitation_energy": 21.9, 
			 "cosmo_dispersion_energy": -16.52, 
			 "cosmo_repulsion_energy": 1.28, 
			 "cosmo_total_nonelectrostatic_energy": 6.66, 
			 "SMD_solvation_energy": 5.27 
		},
		"coords": [
			{
				"x": -0.7837548595,
				"y": -2.6138049731,
				"z": -1.8757246367,
				"element": "O" 
			},
			{
				"x": -0.4867116417,
				"y": -2.4284673744,
				"z": -0.5803009295,
				"element": "C" 
			},
			{
				"x": 0.0877550631,
				"y": -3.2956919832,
				"z": 0.0379528517,
				"element": "O" 
			},
			{
				"x": -0.8747684818,
				"y": -1.1245904836,
				"z": 0.1025175363,
				"element": "C" 
			},
			{
				"x": -1.5460290921,
				"y": -0.0067741414,
				"z": -0.4267003668,
				"element": "C" 
			},
			{
				"x": -2.0991653695,
				"y": 0.0838363032,
				"z": -2.1089266082,
				"element": "Cl" 
			},
			{
				"x": -1.8231505872,
				"y": 1.1178099718,
				"z": 0.3528240855,
				"element": "C" 
			},
			{
				"x": -1.4362425064,
				"y": 1.1587268649,
				"z": 1.6882533215,
				"element": "C" 
			},
			{
				"x": -0.7724674689,
				"y": 0.0572357704,
				"z": 2.2175538295,
				"element": "C" 
			},
			{
				"x": -0.3923254712,
				"y": 0.0819243377,
				"z": 3.5065777817,
				"element": "F" 
			},
			{
				"x": -0.4935045019,
				"y": -1.0620285442,
				"z": 1.453135219,
				"element": "C" 
			},
			{
				"x": -1.2433006584,
				"y": -1.847405034,
				"z": -2.2570636133,
				"element": "H" 
			},
			{
				"x": -2.3425932276,
				"y": 1.9590062809,
				"z": -0.0915978121,
				"element": "H" 
			},
			{
				"x": -1.6421060305,
				"y": 2.0227919612,
				"z": 2.3099967477,
				"element": "H" 
			},
			{
				"x": 0.0239648336,
				"y": -1.9126689563,
				"z": 1.8797025935,
				"element": "H" 
			}
		],
		 "valence_orbital": [ 
			{
				"type": "occ",
				"energy": -0.34654,
				"method": "rhf"
			},
			{
				"type": "occ",
				"energy": -0.32166,
				"method": "rhf"
			},
			{
				"type": "occ",
				"energy": -0.29006,
				"method": "rhf"
			},
			{
				"type": "occ",
				"energy": -0.28443,
				"method": "rhf"
			},
			{
				"type": "occ",
				"energy": -0.26866,
				"method": "rhf"
			},
			{
				"type": "unocc",
				"energy": -0.07042,
				"method": "rhf"
			},
			{
				"type": "unocc",
				"energy": -0.03488,
				"method": "rhf"
			},
			{
				"type": "unocc",
				"energy": -0.00873,
				"method": "rhf"
			},
			{
				"type": "unocc",
				"energy": 0.04158,
				"method": "rhf"
			},
			{
				"type": "unocc",
				"energy": 0.08487,
				"method": "rhf"
			}
		],
		"cosmo_sigma_profile": { 
			"-0.025": 0.0,
			"-0.024": 0.0,
			"-0.023": 0.0,
			"-0.022": 0.0,
			"-0.021": 0.0,
			"-0.02": 0.0,
			"-0.019": 0.0,
			"-0.018": 0.0,
			"-0.017": 0.0,
			"-0.016": 0.0,
			"-0.015": 0.0,
			"-0.014": 0.0,
			"-0.013": 0.0,
			"-0.012": 0.355539762902,
			"-0.011": 0.64509186511,
			"-0.01": 1.29533407322,
			"-0.009": 4.5558037046,
			"-0.008": 5.99514121082,
			"-0.007": 7.79036311882,
			"-0.006": 7.05429894828,
			"-0.005": 6.45667021013,
			"-0.004": 8.44372280715,
			"-0.003": 10.324318184,
			"-0.002": 11.6107087699,
			"-0.001": 20.3188429846,
			"0.0": 22.7817910487,
			"0.001": 14.8478268903,
			"0.002": 9.97662115683,
			"0.003": 12.0531507729,
			"0.004": 8.01306200328,
			"0.005": 1.97103378576,
			"0.006": 2.33224469326,
			"0.007": 2.57105759417,
			"0.008": 2.57889041307,
			"0.009": 3.68473720271,
			"0.01": 4.77883798994,
			"0.011": 5.17076298737,
			"0.012": 2.89513346539,
			"0.013": 0.772654470821,
			"0.014": 0.0,
			"0.015": 0.0,
			"0.016": 0.0,
			"0.017": 0.0,
			"0.018": 0.0,
			"0.019": 0.0,
			"0.02": 0.0,
			"0.021": 0.0,
			"0.022": 0.0,
			"0.023": 0.0,
			"0.024": 0.0,
			"0.025": 0.0
		}
	}
}
