{
	 "smiles": "NNC(=S)NC1=CN=CC=C1", 
	 "Tm": 448.15, 
	 "num_atms": 19, 
	 "gaussian": { 
		 "optdone": 1, 
		 "sigma_profile": "yes", 
		 "theory": "DFT", 
		 "functional": "B3LYP", 
		 "basiset": "6-31G**", 
		 "properties": { 
			 "R2extent": 2795.0969, 
			 "electric_dipole_moment_norm": 3.28952185887, 
			 "electric_quadrupole_moment_norm": 7.14343031533, 
			 "total_energy": -850.624357702, 
			 "HOMO_LUMO_gap": 0.17142, 
			 "cosmo_polarized_energy": -17.21, 
			 "cosmo_cavitation_energy": 24.97, 
			 "cosmo_dispersion_energy": -18.92, 
			 "cosmo_repulsion_energy": 1.48, 
			 "cosmo_total_nonelectrostatic_energy": 7.53, 
			 "SMD_solvation_energy": 2.54 
		},
		"coords": [
			{
				"x": 2.9121157812,
				"y": 1.1560778734,
				"z": -0.3409383832,
				"element": "N" 
			},
			{
				"x": 1.6242465246,
				"y": 0.6504008098,
				"z": -0.5986035713,
				"element": "N" 
			},
			{
				"x": 0.9692803096,
				"y": 0.8582982597,
				"z": -1.7751839815,
				"element": "C" 
			},
			{
				"x": 1.5485713902,
				"y": 1.8673561486,
				"z": -2.986469308,
				"element": "S" 
			},
			{
				"x": -0.2132719202,
				"y": 0.1761163324,
				"z": -1.9417599524,
				"element": "N" 
			},
			{
				"x": -0.9481937191,
				"y": -0.6188855796,
				"z": -1.0377788968,
				"element": "C" 
			},
			{
				"x": -1.6476594718,
				"y": -1.7305513132,
				"z": -1.541199955,
				"element": "C" 
			},
			{
				"x": -2.4159154048,
				"y": -2.5246690871,
				"z": -0.797831225,
				"element": "N" 
			},
			{
				"x": -2.5129204158,
				"y": -2.2535107707,
				"z": 0.5105798075,
				"element": "C" 
			},
			{
				"x": -1.8666462023,
				"y": -1.1730955859,
				"z": 1.1110949961,
				"element": "C" 
			},
			{
				"x": -1.0802819692,
				"y": -0.3306974613,
				"z": 0.3280822291,
				"element": "C" 
			},
			{
				"x": 2.8115732836,
				"y": 2.1501138581,
				"z": -0.1374064992,
				"element": "H" 
			},
			{
				"x": 3.4344434918,
				"y": 1.1166163566,
				"z": -1.2190801969,
				"element": "H" 
			},
			{
				"x": 1.4026310271,
				"y": -0.1746636725,
				"z": -0.0569272951,
				"element": "H" 
			},
			{
				"x": -0.5708555819,
				"y": 0.2501714812,
				"z": -2.8845869618,
				"element": "H" 
			},
			{
				"x": -1.5748994178,
				"y": -1.9721708991,
				"z": -2.6016149772,
				"element": "H" 
			},
			{
				"x": -3.1345193657,
				"y": -2.9252743007,
				"z": 1.0982177674,
				"element": "H" 
			},
			{
				"x": -1.9898668881,
				"y": -0.9803908229,
				"z": 2.1721682975,
				"element": "H" 
			},
			{
				"x": -0.5998314514,
				"y": 0.5404583731,
				"z": 0.7594381059,
				"element": "H" 
			}
		],
		 "valence_orbital": [ 
			{
				"type": "occ",
				"energy": -0.28997,
				"method": "rhf"
			},
			{
				"type": "occ",
				"energy": -0.27261,
				"method": "rhf"
			},
			{
				"type": "occ",
				"energy": -0.25568,
				"method": "rhf"
			},
			{
				"type": "occ",
				"energy": -0.2258,
				"method": "rhf"
			},
			{
				"type": "occ",
				"energy": -0.21916,
				"method": "rhf"
			},
			{
				"type": "unocc",
				"energy": -0.04774,
				"method": "rhf"
			},
			{
				"type": "unocc",
				"energy": -0.03951,
				"method": "rhf"
			},
			{
				"type": "unocc",
				"energy": 0.00358,
				"method": "rhf"
			},
			{
				"type": "unocc",
				"energy": 0.06755,
				"method": "rhf"
			},
			{
				"type": "unocc",
				"energy": 0.08119,
				"method": "rhf"
			}
		],
		"cosmo_sigma_profile": { 
			"-0.025": 0.0,
			"-0.024": 0.0,
			"-0.023": 0.0,
			"-0.022": 0.0,
			"-0.021": 0.0,
			"-0.02": 0.0,
			"-0.019": 0.0,
			"-0.018": 0.0,
			"-0.017": 0.0,
			"-0.016": 0.0,
			"-0.015": 0.802640432812,
			"-0.014": 1.6410969481,
			"-0.013": 1.86186988779,
			"-0.012": 2.45373216563,
			"-0.011": 3.29971174337,
			"-0.01": 3.86861970314,
			"-0.009": 4.50072967531,
			"-0.008": 6.15085703935,
			"-0.007": 10.5584875623,
			"-0.006": 12.5936179583,
			"-0.005": 10.5076785943,
			"-0.004": 9.52452057393,
			"-0.003": 10.162983945,
			"-0.002": 9.65157170812,
			"-0.001": 11.6279556712,
			"0.0": 12.6391000272,
			"0.001": 13.818496657,
			"0.002": 12.9118483678,
			"0.003": 5.29884999288,
			"0.004": 5.42277533814,
			"0.005": 5.68432028594,
			"0.006": 5.19322010409,
			"0.007": 5.30262364849,
			"0.008": 7.26169810512,
			"0.009": 7.23026271806,
			"0.01": 8.24820667445,
			"0.011": 6.04429065227,
			"0.012": 2.03202099067,
			"0.013": 1.38979777312,
			"0.014": 1.54268668898,
			"0.015": 1.60263922393,
			"0.016": 0.95781683997,
			"0.017": 0.0668853522572,
			"0.018": 0.0,
			"0.019": 0.0,
			"0.02": 0.0,
			"0.021": 0.0,
			"0.022": 0.0,
			"0.023": 0.0,
			"0.024": 0.0,
			"0.025": 0.0
		}
	}
}
