{
	 "smiles": "CCCCC1CCCCC1", 
	 "Tm": 196.85, 
	 "num_atms": 30, 
	 "gaussian": { 
		 "optdone": 1, 
		 "sigma_profile": "yes", 
		 "theory": "DFT", 
		 "functional": "B3LYP", 
		 "basiset": "6-31G**", 
		 "properties": { 
			 "R2extent": 2450.4553, 
			 "electric_dipole_moment_norm": 0.0608681361633, 
			 "electric_quadrupole_moment_norm": 0.463330119893, 
			 "total_energy": -393.154570341, 
			 "HOMO_LUMO_gap": 0.37159, 
			 "cosmo_polarized_energy": -0.61, 
			 "cosmo_cavitation_energy": 28.89, 
			 "cosmo_dispersion_energy": -21.1, 
			 "cosmo_repulsion_energy": 1.74, 
			 "cosmo_total_nonelectrostatic_energy": 9.53, 
			 "SMD_solvation_energy": 3.72 
		},
		"coords": [
			{
				"x": -1.9570837275,
				"y": 0.2928984459,
				"z": 3.3380716254,
				"element": "C" 
			},
			{
				"x": -0.429343838,
				"y": 0.1658989254,
				"z": 3.2985011386,
				"element": "C" 
			},
			{
				"x": 0.1357180879,
				"y": -0.3124395745,
				"z": 1.9501415129,
				"element": "C" 
			},
			{
				"x": -0.0798632898,
				"y": 0.6718504633,
				"z": 0.7903326104,
				"element": "C" 
			},
			{
				"x": 0.6298220042,
				"y": 0.2967617328,
				"z": -0.5239832586,
				"element": "C" 
			},
			{
				"x": 0.0962811673,
				"y": -1.0097770339,
				"z": -1.1453765019,
				"element": "C" 
			},
			{
				"x": 0.7913343063,
				"y": -1.3514918575,
				"z": -2.4731865962,
				"element": "C" 
			},
			{
				"x": 0.6934688622,
				"y": -0.1960363774,
				"z": -3.4796379612,
				"element": "C" 
			},
			{
				"x": 1.230760691,
				"y": 1.10980741,
				"z": -2.8759918674,
				"element": "C" 
			},
			{
				"x": 0.5333528251,
				"y": 1.4443074769,
				"z": -1.5488930655,
				"element": "C" 
			},
			{
				"x": -2.4382854589,
				"y": -0.6592822555,
				"z": 3.0849921756,
				"element": "H" 
			},
			{
				"x": -2.302655961,
				"y": 0.5838226639,
				"z": 4.335659525,
				"element": "H" 
			},
			{
				"x": -2.3231402114,
				"y": 1.0456340934,
				"z": 2.6324232629,
				"element": "H" 
			},
			{
				"x": 0.0239448017,
				"y": 1.1331000617,
				"z": 3.5565265603,
				"element": "H" 
			},
			{
				"x": -0.1109418944,
				"y": -0.5355000834,
				"z": 4.0804907712,
				"element": "H" 
			},
			{
				"x": -0.3092736643,
				"y": -1.2861615173,
				"z": 1.7059279692,
				"element": "H" 
			},
			{
				"x": 1.21406107,
				"y": -0.4907342506,
				"z": 2.0643283995,
				"element": "H" 
			},
			{
				"x": 0.2759843288,
				"y": 1.6637259965,
				"z": 1.1055011873,
				"element": "H" 
			},
			{
				"x": -1.1541347137,
				"y": 0.7866282955,
				"z": 0.5897000847,
				"element": "H" 
			},
			{
				"x": 1.6982446365,
				"y": 0.1448244575,
				"z": -0.2972527365,
				"element": "H" 
			},
			{
				"x": 0.2138906103,
				"y": -1.8431284183,
				"z": -0.4432711455,
				"element": "H" 
			},
			{
				"x": -0.9851679998,
				"y": -0.9007027642,
				"z": -1.3196309587,
				"element": "H" 
			},
			{
				"x": 1.8510938797,
				"y": -1.570789127,
				"z": -2.2786613503,
				"element": "H" 
			},
			{
				"x": 0.3596162561,
				"y": -2.2656393401,
				"z": -2.8988050039,
				"element": "H" 
			},
			{
				"x": -0.3586410143,
				"y": -0.0551485374,
				"z": -3.7665550338,
				"element": "H" 
			},
			{
				"x": 1.2366699475,
				"y": -0.4439193255,
				"z": -4.399708892,
				"element": "H" 
			},
			{
				"x": 1.1089373975,
				"y": 1.9372211536,
				"z": -3.5857166319,
				"element": "H" 
			},
			{
				"x": 2.3113774266,
				"y": 1.0078628475,
				"z": -2.7003705928,
				"element": "H" 
			},
			{
				"x": -0.5287745296,
				"y": 1.6577126378,
				"z": -1.7426757859,
				"element": "H" 
			},
			{
				"x": 0.9583480043,
				"y": 2.3607938009,
				"z": -1.1196794409,
				"element": "H" 
			}
		],
		 "valence_orbital": [ 
			{
				"type": "occ",
				"energy": -0.31879,
				"method": "rhf"
			},
			{
				"type": "occ",
				"energy": -0.31211,
				"method": "rhf"
			},
			{
				"type": "occ",
				"energy": -0.30621,
				"method": "rhf"
			},
			{
				"type": "occ",
				"energy": -0.28722,
				"method": "rhf"
			},
			{
				"type": "occ",
				"energy": -0.28277,
				"method": "rhf"
			},
			{
				"type": "unocc",
				"energy": 0.08882,
				"method": "rhf"
			},
			{
				"type": "unocc",
				"energy": 0.09572,
				"method": "rhf"
			},
			{
				"type": "unocc",
				"energy": 0.10439,
				"method": "rhf"
			},
			{
				"type": "unocc",
				"energy": 0.12112,
				"method": "rhf"
			},
			{
				"type": "unocc",
				"energy": 0.12901,
				"method": "rhf"
			}
		],
		"cosmo_sigma_profile": { 
			"-0.025": 0.0,
			"-0.024": 0.0,
			"-0.023": 0.0,
			"-0.022": 0.0,
			"-0.021": 0.0,
			"-0.02": 0.0,
			"-0.019": 0.0,
			"-0.018": 0.0,
			"-0.017": 0.0,
			"-0.016": 0.0,
			"-0.015": 0.0,
			"-0.014": 0.0,
			"-0.013": 0.0,
			"-0.012": 0.0,
			"-0.011": 0.0,
			"-0.01": 0.0,
			"-0.009": 0.0,
			"-0.008": 0.0,
			"-0.007": 0.0,
			"-0.006": 0.0,
			"-0.005": 0.0,
			"-0.004": 0.0,
			"-0.003": 1.45461050857,
			"-0.002": 23.2134487876,
			"-0.001": 52.4970356557,
			"0.0": 62.7435069085,
			"0.001": 56.1889080722,
			"0.002": 23.398112514,
			"0.003": 0.677240235356,
			"0.004": 0.0,
			"0.005": 0.0,
			"0.006": 0.0,
			"0.007": 0.0,
			"0.008": 0.0,
			"0.009": 0.0,
			"0.01": 0.0,
			"0.011": 0.0,
			"0.012": 0.0,
			"0.013": 0.0,
			"0.014": 0.0,
			"0.015": 0.0,
			"0.016": 0.0,
			"0.017": 0.0,
			"0.018": 0.0,
			"0.019": 0.0,
			"0.02": 0.0,
			"0.021": 0.0,
			"0.022": 0.0,
			"0.023": 0.0,
			"0.024": 0.0,
			"0.025": 0.0
		}
	}
}
