{
	 "smiles": "NC1=C(C#N)C(C2=C(O1)N(N=C2C(F)(F)F)C1=CC=CC=C1)C1=CC=CC=C1", 
	 "Tm": 464.15, 
	 "num_atms": 41, 
	 "gaussian": { 
		 "optdone": 1, 
		 "sigma_profile": "yes", 
		 "theory": "DFT", 
		 "functional": "B3LYP", 
		 "basiset": "6-31G**", 
		 "properties": { 
			 "R2extent": 10395.1186, 
			 "electric_dipole_moment_norm": 5.71491416121, 
			 "electric_quadrupole_moment_norm": 29.7425262348, 
			 "total_energy": -1363.66370355, 
			 "HOMO_LUMO_gap": 0.18538, 
			 "cosmo_polarized_energy": -19.49, 
			 "cosmo_cavitation_energy": 47.87, 
			 "cosmo_dispersion_energy": -31.59, 
			 "cosmo_repulsion_energy": 2.34, 
			 "cosmo_total_nonelectrostatic_energy": 18.61, 
			 "SMD_solvation_energy": 9.71 
		},
		"coords": [
			{
				"x": -3.3454477763,
				"y": -1.8966384967,
				"z": 1.5477523293,
				"element": "N" 
			},
			{
				"x": -2.3222706965,
				"y": -1.0953306473,
				"z": 1.1254885428,
				"element": "C" 
			},
			{
				"x": -2.326693275,
				"y": 0.2703410947,
				"z": 1.0672847121,
				"element": "C" 
			},
			{
				"x": -3.4634557043,
				"y": 0.9229996005,
				"z": 1.6131681587,
				"element": "C" 
			},
			{
				"x": -4.4061789462,
				"y": 1.4233827,
				"z": 2.0850824234,
				"element": "N" 
			},
			{
				"x": -1.2138597584,
				"y": 1.1216770466,
				"z": 0.445188319,
				"element": "C" 
			},
			{
				"x": -0.0627856539,
				"y": 0.1906170271,
				"z": 0.1730194259,
				"element": "C" 
			},
			{
				"x": -0.1759932078,
				"y": -1.1694586916,
				"z": 0.2989286141,
				"element": "C" 
			},
			{
				"x": -1.2650593695,
				"y": -1.8727082706,
				"z": 0.7095027262,
				"element": "O" 
			},
			{
				"x": 1.0161802641,
				"y": -1.7595096431,
				"z": -0.002216276,
				"element": "N" 
			},
			{
				"x": 1.9340043108,
				"y": -0.8055852657,
				"z": -0.3184819395,
				"element": "N" 
			},
			{
				"x": 1.2909578641,
				"y": 0.3516175095,
				"z": -0.2107898708,
				"element": "C" 
			},
			{
				"x": 1.9968294116,
				"y": 1.6339051491,
				"z": -0.5288154612,
				"element": "C" 
			},
			{
				"x": 1.714464699,
				"y": 2.0662948944,
				"z": -1.7750437454,
				"element": "F" 
			},
			{
				"x": 1.5970510932,
				"y": 2.6101572312,
				"z": 0.3262390131,
				"element": "F" 
			},
			{
				"x": 3.3292392434,
				"y": 1.5160124466,
				"z": -0.4276708856,
				"element": "F" 
			},
			{
				"x": 1.391502536,
				"y": -3.134460526,
				"z": 0.022774778,
				"element": "C" 
			},
			{
				"x": 0.4504635105,
				"y": -4.1350498435,
				"z": -0.2400945311,
				"element": "C" 
			},
			{
				"x": 0.8505289131,
				"y": -5.4711362628,
				"z": -0.20596892,
				"element": "C" 
			},
			{
				"x": 2.1761737221,
				"y": -5.8083072122,
				"z": 0.0692073586,
				"element": "C" 
			},
			{
				"x": 3.1092802213,
				"y": -4.7979253615,
				"z": 0.3137404519,
				"element": "C" 
			},
			{
				"x": 2.7238481168,
				"y": -3.4595315022,
				"z": 0.2974633611,
				"element": "C" 
			},
			{
				"x": -1.6721099217,
				"y": 1.8879043351,
				"z": -0.8010042858,
				"element": "C" 
			},
			{
				"x": -1.4480183512,
				"y": 3.2645945449,
				"z": -0.8974972144,
				"element": "C" 
			},
			{
				"x": -1.8479459099,
				"y": 3.9718429682,
				"z": -2.0332585721,
				"element": "C" 
			},
			{
				"x": -2.4763450195,
				"y": 3.306882516,
				"z": -3.0857625008,
				"element": "C" 
			},
			{
				"x": -2.7026370239,
				"y": 1.9308264589,
				"z": -2.9975164273,
				"element": "C" 
			},
			{
				"x": -2.3031661109,
				"y": 1.2275006785,
				"z": -1.862586662,
				"element": "C" 
			},
			{
				"x": -4.1165309957,
				"y": -1.4264122107,
				"z": 2.0017882309,
				"element": "H" 
			},
			{
				"x": -3.0756419984,
				"y": -2.7826746634,
				"z": 1.9519036781,
				"element": "H" 
			},
			{
				"x": -0.8998888427,
				"y": 1.8684330803,
				"z": 1.184430045,
				"element": "H" 
			},
			{
				"x": -0.5741516099,
				"y": -3.8763045663,
				"z": -0.4771104377,
				"element": "H" 
			},
			{
				"x": 0.1207302162,
				"y": -6.2487920303,
				"z": -0.41029284,
				"element": "H" 
			},
			{
				"x": 2.4814692848,
				"y": -6.8499640723,
				"z": 0.0883013468,
				"element": "H" 
			},
			{
				"x": 4.1439689451,
				"y": -5.0504850986,
				"z": 0.5248476633,
				"element": "H" 
			},
			{
				"x": 3.4346203662,
				"y": -2.6636660116,
				"z": 0.4836303393,
				"element": "H" 
			},
			{
				"x": -0.9521766252,
				"y": 3.7852743471,
				"z": -0.0829919798,
				"element": "H" 
			},
			{
				"x": -1.6686835739,
				"y": 5.0414856797,
				"z": -2.092474692,
				"element": "H" 
			},
			{
				"x": -2.7900572788,
				"y": 3.855616333,
				"z": -3.9690374563,
				"element": "H" 
			},
			{
				"x": -3.1932567019,
				"y": 1.4062665212,
				"z": -3.8125419927,
				"element": "H" 
			},
			{
				"x": -2.4888583667,
				"y": 0.1586082137,
				"z": -1.797384827,
				"element": "H" 
			}
		],
		 "valence_orbital": [ 
			{
				"type": "occ",
				"energy": -0.26114,
				"method": "rhf"
			},
			{
				"type": "occ",
				"energy": -0.25022,
				"method": "rhf"
			},
			{
				"type": "occ",
				"energy": -0.24931,
				"method": "rhf"
			},
			{
				"type": "occ",
				"energy": -0.24049,
				"method": "rhf"
			},
			{
				"type": "occ",
				"energy": -0.22907,
				"method": "rhf"
			},
			{
				"type": "unocc",
				"energy": -0.04369,
				"method": "rhf"
			},
			{
				"type": "unocc",
				"energy": -0.02316,
				"method": "rhf"
			},
			{
				"type": "unocc",
				"energy": -0.01939,
				"method": "rhf"
			},
			{
				"type": "unocc",
				"energy": -0.00425,
				"method": "rhf"
			},
			{
				"type": "unocc",
				"energy": 0.00234,
				"method": "rhf"
			}
		],
		"cosmo_sigma_profile": { 
			"-0.025": 0.0,
			"-0.024": 0.0,
			"-0.023": 0.0,
			"-0.022": 0.0,
			"-0.021": 0.0,
			"-0.02": 0.0,
			"-0.019": 0.0,
			"-0.018": 0.0,
			"-0.017": 0.0,
			"-0.016": 0.137730063296,
			"-0.015": 1.35852365579,
			"-0.014": 2.37854083262,
			"-0.013": 2.06885926014,
			"-0.012": 2.31640709682,
			"-0.011": 1.80546447702,
			"-0.01": 2.02087043612,
			"-0.009": 1.52578797131,
			"-0.008": 2.23753048267,
			"-0.007": 5.91582702235,
			"-0.006": 20.3825053403,
			"-0.005": 26.8197311805,
			"-0.004": 27.4331941514,
			"-0.003": 25.419989497,
			"-0.002": 24.6397635388,
			"-0.001": 27.8455982724,
			"0.0": 24.7478342196,
			"0.001": 26.7004016819,
			"0.002": 39.0798789892,
			"0.003": 40.6030449439,
			"0.004": 27.7620886297,
			"0.005": 17.0749844779,
			"0.006": 7.33570049535,
			"0.007": 4.33112956112,
			"0.008": 5.01701815682,
			"0.009": 4.27405918877,
			"0.01": 4.35999380203,
			"0.011": 3.52226357794,
			"0.012": 3.12379936252,
			"0.013": 2.46754059962,
			"0.014": 1.1127338312,
			"0.015": 0.0,
			"0.016": 0.0,
			"0.017": 0.0,
			"0.018": 0.0,
			"0.019": 0.0,
			"0.02": 0.0,
			"0.021": 0.0,
			"0.022": 0.0,
			"0.023": 0.0,
			"0.024": 0.0,
			"0.025": 0.0
		}
	}
}
