{
	 "smiles": "C[Si](C)(C)CC(O)=O", 
	 "Tm": 314.15, 
	 "num_atms": 20, 
	 "gaussian": { 
		 "optdone": 1, 
		 "sigma_profile": "yes", 
		 "theory": "DFT", 
		 "functional": "B3LYP", 
		 "basiset": "6-31G**", 
		 "properties": { 
			 "R2extent": 1800.9621, 
			 "electric_dipole_moment_norm": 1.80571100124, 
			 "electric_quadrupole_moment_norm": 9.92198010984, 
			 "total_energy": -637.774782843, 
			 "HOMO_LUMO_gap": 0.28161, 
			 "cosmo_polarized_energy": -8.52, 
			 "cosmo_cavitation_energy": 24.62, 
			 "cosmo_dispersion_energy": -14.97, 
			 "cosmo_repulsion_energy": 1.38, 
			 "cosmo_total_nonelectrostatic_energy": 11.03, 
			 "SMD_solvation_energy": 6.92 
		},
		"coords": [
			{
				"x": -0.0621553864,
				"y": 0.5726894712,
				"z": 1.4442246628,
				"element": "C" 
			},
			{
				"x": -0.4186169662,
				"y": -0.4595571479,
				"z": -0.0977556455,
				"element": "Si" 
			},
			{
				"x": -0.1254200911,
				"y": 0.5673158414,
				"z": -1.6586559309,
				"element": "C" 
			},
			{
				"x": -2.1783144086,
				"y": -1.13932149,
				"z": -0.0585862463,
				"element": "C" 
			},
			{
				"x": 0.8050944034,
				"y": -1.9461643418,
				"z": -0.1542596816,
				"element": "C" 
			},
			{
				"x": 0.7822768393,
				"y": -2.7280304869,
				"z": 1.1205003429,
				"element": "C" 
			},
			{
				"x": 1.7954777213,
				"y": -2.3753784526,
				"z": 1.9582562972,
				"element": "O" 
			},
			{
				"x": -0.0498236572,
				"y": -3.5544773483,
				"z": 1.438820035,
				"element": "O" 
			},
			{
				"x": -0.7212263752,
				"y": 1.4468708618,
				"z": 1.4895913826,
				"element": "H" 
			},
			{
				"x": -0.2179629982,
				"y": -0.0076809225,
				"z": 2.3595532887,
				"element": "H" 
			},
			{
				"x": 0.9718835918,
				"y": 0.9333850009,
				"z": 1.4549982605,
				"element": "H" 
			},
			{
				"x": -0.8149383165,
				"y": 1.417921192,
				"z": -1.7013902648,
				"element": "H" 
			},
			{
				"x": -0.2803371522,
				"y": -0.0278774992,
				"z": -2.5652566562,
				"element": "H" 
			},
			{
				"x": 0.8941995022,
				"y": 0.9665321359,
				"z": -1.6914095417,
				"element": "H" 
			},
			{
				"x": -2.4293323212,
				"y": -1.6422687357,
				"z": -0.9989587542,
				"element": "H" 
			},
			{
				"x": -2.2910769755,
				"y": -1.8728451731,
				"z": 0.7460194446,
				"element": "H" 
			},
			{
				"x": -2.9122022759,
				"y": -0.3412097332,
				"z": 0.0986109432,
				"element": "H" 
			},
			{
				"x": 1.8130079149,
				"y": -1.5768661779,
				"z": -0.3623265633,
				"element": "H" 
			},
			{
				"x": 0.4857920242,
				"y": -2.6039311437,
				"z": -0.9680790305,
				"element": "H" 
			},
			{
				"x": 1.663574927,
				"y": -2.9033058503,
				"z": 2.7637036571,
				"element": "H" 
			}
		],
		 "valence_orbital": [ 
			{
				"type": "occ",
				"energy": -0.31585,
				"method": "rhf"
			},
			{
				"type": "occ",
				"energy": -0.30353,
				"method": "rhf"
			},
			{
				"type": "occ",
				"energy": -0.29945,
				"method": "rhf"
			},
			{
				"type": "occ",
				"energy": -0.29595,
				"method": "rhf"
			},
			{
				"type": "occ",
				"energy": -0.26458,
				"method": "rhf"
			},
			{
				"type": "unocc",
				"energy": 0.01703,
				"method": "rhf"
			},
			{
				"type": "unocc",
				"energy": 0.06789,
				"method": "rhf"
			},
			{
				"type": "unocc",
				"energy": 0.08331,
				"method": "rhf"
			},
			{
				"type": "unocc",
				"energy": 0.09699,
				"method": "rhf"
			},
			{
				"type": "unocc",
				"energy": 0.09848,
				"method": "rhf"
			}
		],
		"cosmo_sigma_profile": { 
			"-0.025": 0.0,
			"-0.024": 0.0,
			"-0.023": 0.0,
			"-0.022": 0.0,
			"-0.021": 0.0,
			"-0.02": 0.0,
			"-0.019": 0.0,
			"-0.018": 0.181869150403,
			"-0.017": 0.711115684263,
			"-0.016": 0.821517296961,
			"-0.015": 1.09418412915,
			"-0.014": 0.612442018153,
			"-0.013": 0.599196359537,
			"-0.012": 0.457764458389,
			"-0.011": 0.765477947685,
			"-0.01": 1.10466199014,
			"-0.009": 0.612649920498,
			"-0.008": 0.266150235733,
			"-0.007": 0.634590097046,
			"-0.006": 2.3897882474,
			"-0.005": 5.13642262674,
			"-0.004": 11.2453108183,
			"-0.003": 23.4587227297,
			"-0.002": 25.3142100034,
			"-0.001": 22.0160560822,
			"0.0": 18.2540340222,
			"0.001": 22.4671768891,
			"0.002": 12.9217388806,
			"0.003": 6.39079296726,
			"0.004": 3.38322867412,
			"0.005": 3.15480058328,
			"0.006": 3.1695010021,
			"0.007": 2.80931654756,
			"0.008": 2.53508944174,
			"0.009": 2.9772364205,
			"0.01": 3.1475664653,
			"0.011": 1.80479772072,
			"0.012": 4.22254969146,
			"0.013": 3.14340932439,
			"0.014": 0.175164717935,
			"0.015": 0.0,
			"0.016": 0.0,
			"0.017": 0.0,
			"0.018": 0.0,
			"0.019": 0.0,
			"0.02": 0.0,
			"0.021": 0.0,
			"0.022": 0.0,
			"0.023": 0.0,
			"0.024": 0.0,
			"0.025": 0.0
		}
	}
}
