{
	 "smiles": "OC(=O)C1=CNN=C1C1=CC(Cl)=CC=C1", 
	 "Tm": 525.15, 
	 "num_atms": 22, 
	 "gaussian": { 
		 "optdone": 1, 
		 "sigma_profile": "yes", 
		 "theory": "DFT", 
		 "functional": "B3LYP", 
		 "basiset": "6-31G**", 
		 "properties": { 
			 "R2extent": 4253.4322, 
			 "electric_dipole_moment_norm": 3.1548146776, 
			 "electric_quadrupole_moment_norm": 11.0775598924, 
			 "total_energy": -1105.4256784, 
			 "HOMO_LUMO_gap": 0.19865, 
			 "cosmo_polarized_energy": -16.23, 
			 "cosmo_cavitation_energy": 29.21, 
			 "cosmo_dispersion_energy": -21.41, 
			 "cosmo_repulsion_energy": 1.69, 
			 "cosmo_total_nonelectrostatic_energy": 9.48, 
			 "SMD_solvation_energy": 5.28 
		},
		"coords": [
			{
				"x": 2.3407282701,
				"y": 1.197245234,
				"z": -0.0177388085,
				"element": "O" 
			},
			{
				"x": 2.4462938078,
				"y": 0.1460188828,
				"z": -0.8643347038,
				"element": "C" 
			},
			{
				"x": 3.5174173285,
				"y": -0.2038552142,
				"z": -1.326194177,
				"element": "O" 
			},
			{
				"x": 1.1756397089,
				"y": -0.5337651111,
				"z": -1.1499811496,
				"element": "C" 
			},
			{
				"x": 1.1658340175,
				"y": -1.7060482091,
				"z": -1.8939181863,
				"element": "C" 
			},
			{
				"x": -0.1082460533,
				"y": -2.1333889967,
				"z": -1.9139398116,
				"element": "N" 
			},
			{
				"x": -0.9570997643,
				"y": -1.323546588,
				"z": -1.2419704488,
				"element": "N" 
			},
			{
				"x": -0.1947730232,
				"y": -0.3351945709,
				"z": -0.7641200425,
				"element": "C" 
			},
			{
				"x": -0.8581183886,
				"y": 0.7228616636,
				"z": 0.0291491911,
				"element": "C" 
			},
			{
				"x": -0.4869140919,
				"y": 2.0705042056,
				"z": -0.0800914786,
				"element": "C" 
			},
			{
				"x": -1.1760294868,
				"y": 3.0322074635,
				"z": 0.6533963807,
				"element": "C" 
			},
			{
				"x": -0.698827189,
				"y": 4.7212443971,
				"z": 0.5053758278,
				"element": "Cl" 
			},
			{
				"x": -2.2351008374,
				"y": 2.6951770767,
				"z": 1.494283783,
				"element": "C" 
			},
			{
				"x": -2.6068560827,
				"y": 1.3532426567,
				"z": 1.5911810987,
				"element": "C" 
			},
			{
				"x": -1.9300500641,
				"y": 0.3748244057,
				"z": 0.8673844315,
				"element": "C" 
			},
			{
				"x": 3.2443660939,
				"y": 1.537711925,
				"z": 0.092377097,
				"element": "H" 
			},
			{
				"x": 1.9812564542,
				"y": -2.2291280733,
				"z": -2.3700129275,
				"element": "H" 
			},
			{
				"x": -0.4796200113,
				"y": -2.9504427951,
				"z": -2.3744192757,
				"element": "H" 
			},
			{
				"x": 0.3273132711,
				"y": 2.368135435,
				"z": -0.7262451566,
				"element": "H" 
			},
			{
				"x": -2.7531943821,
				"y": 3.464458312,
				"z": 2.0558508424,
				"element": "H" 
			},
			{
				"x": -3.4304261493,
				"y": 1.0725968567,
				"z": 2.2410054603,
				"element": "H" 
			},
			{
				"x": -2.2224934279,
				"y": -0.666458956,
				"z": 0.9411620541,
				"element": "H" 
			}
		],
		 "valence_orbital": [ 
			{
				"type": "occ",
				"energy": -0.29401,
				"method": "rhf"
			},
			{
				"type": "occ",
				"energy": -0.27609,
				"method": "rhf"
			},
			{
				"type": "occ",
				"energy": -0.26742,
				"method": "rhf"
			},
			{
				"type": "occ",
				"energy": -0.24866,
				"method": "rhf"
			},
			{
				"type": "occ",
				"energy": -0.23774,
				"method": "rhf"
			},
			{
				"type": "unocc",
				"energy": -0.03909,
				"method": "rhf"
			},
			{
				"type": "unocc",
				"energy": -0.0217,
				"method": "rhf"
			},
			{
				"type": "unocc",
				"energy": -0.00817,
				"method": "rhf"
			},
			{
				"type": "unocc",
				"energy": 0.02563,
				"method": "rhf"
			},
			{
				"type": "unocc",
				"energy": 0.03376,
				"method": "rhf"
			}
		],
		"cosmo_sigma_profile": { 
			"-0.025": 0.0,
			"-0.024": 0.0,
			"-0.023": 0.0,
			"-0.022": 0.0,
			"-0.021": 0.0,
			"-0.02": 0.0,
			"-0.019": 0.0,
			"-0.018": 1.59080194955,
			"-0.017": 3.0782947756,
			"-0.016": 2.10177497244,
			"-0.015": 1.67010947294,
			"-0.014": 1.24227826372,
			"-0.013": 2.0295186043,
			"-0.012": 2.19389285736,
			"-0.011": 1.99747843419,
			"-0.01": 3.08821204702,
			"-0.009": 3.04371026789,
			"-0.008": 2.79147097911,
			"-0.007": 5.16846794365,
			"-0.006": 8.6285808225,
			"-0.005": 10.0860224339,
			"-0.004": 9.13551532742,
			"-0.003": 8.78530391121,
			"-0.002": 12.0992277118,
			"-0.001": 14.3970781552,
			"0.0": 15.0679580022,
			"0.001": 24.0864236794,
			"0.002": 21.7392670582,
			"0.003": 20.6532183346,
			"0.004": 20.7919651034,
			"0.005": 11.444353439,
			"0.006": 6.03204858904,
			"0.007": 2.86378581917,
			"0.008": 3.4016350065,
			"0.009": 3.73900660301,
			"0.01": 2.48894441232,
			"0.011": 3.12181954488,
			"0.012": 6.14140438872,
			"0.013": 1.77209763032,
			"0.014": 0.516587175485,
			"0.015": 0.0620564198967,
			"0.016": 0.0,
			"0.017": 0.0,
			"0.018": 0.0,
			"0.019": 0.0,
			"0.02": 0.0,
			"0.021": 0.0,
			"0.022": 0.0,
			"0.023": 0.0,
			"0.024": 0.0,
			"0.025": 0.0
		}
	}
}
