{
	 "smiles": "COC(=O)C1=CC=C(OC2=CN=CC=C2)C=C1", 
	 "Tm": 356.15, 
	 "num_atms": 28, 
	 "gaussian": { 
		 "optdone": 1, 
		 "sigma_profile": "yes", 
		 "theory": "DFT", 
		 "functional": "B3LYP", 
		 "basiset": "6-31G**", 
		 "properties": { 
			 "R2extent": 6309.3743, 
			 "electric_dipole_moment_norm": 2.72454868556, 
			 "electric_quadrupole_moment_norm": 15.4800913705, 
			 "total_energy": -782.429600167, 
			 "HOMO_LUMO_gap": 0.19041, 
			 "cosmo_polarized_energy": -11.7, 
			 "cosmo_cavitation_energy": 33.49, 
			 "cosmo_dispersion_energy": -24.23, 
			 "cosmo_repulsion_energy": 1.87, 
			 "cosmo_total_nonelectrostatic_energy": 11.13, 
			 "SMD_solvation_energy": 6.22 
		},
		"coords": [
			{
				"x": 2.1017739473,
				"y": 4.2578799859,
				"z": 1.5754710522,
				"element": "C" 
			},
			{
				"x": 1.3051040957,
				"y": 3.1282161579,
				"z": 1.1894166065,
				"element": "O" 
			},
			{
				"x": 2.000481741,
				"y": 2.0753270438,
				"z": 0.696564956,
				"element": "C" 
			},
			{
				"x": 3.2115474965,
				"y": 2.0776660992,
				"z": 0.5820970841,
				"element": "O" 
			},
			{
				"x": 1.1202803926,
				"y": 0.9386580972,
				"z": 0.3195301483,
				"element": "C" 
			},
			{
				"x": -0.2723592757,
				"y": 0.9763168059,
				"z": 0.4718745556,
				"element": "C" 
			},
			{
				"x": -1.0568063243,
				"y": -0.1135188314,
				"z": 0.1035822642,
				"element": "C" 
			},
			{
				"x": -0.440368774,
				"y": -1.2520188993,
				"z": -0.4280741065,
				"element": "C" 
			},
			{
				"x": -1.1281590296,
				"y": -2.3944644145,
				"z": -0.7711590998,
				"element": "O" 
			},
			{
				"x": -2.4547433901,
				"y": -2.3401406428,
				"z": -1.1467692314,
				"element": "C" 
			},
			{
				"x": -3.3294525682,
				"y": -3.2651410595,
				"z": -0.5698353256,
				"element": "C" 
			},
			{
				"x": -4.6155512755,
				"y": -3.365103319,
				"z": -0.917069544,
				"element": "N" 
			},
			{
				"x": -5.07302096,
				"y": -2.5291802661,
				"z": -1.8574311643,
				"element": "C" 
			},
			{
				"x": -4.2738673629,
				"y": -1.5744108857,
				"z": -2.4900338,
				"element": "C" 
			},
			{
				"x": -2.9304848368,
				"y": -1.4759298565,
				"z": -2.1337399527,
				"element": "C" 
			},
			{
				"x": 0.9499957279,
				"y": -1.3057943043,
				"z": -0.5806141349,
				"element": "C" 
			},
			{
				"x": 1.722033136,
				"y": -0.2146889811,
				"z": -0.2061278911,
				"element": "C" 
			},
			{
				"x": 2.6592727116,
				"y": 4.6473086738,
				"z": 0.7198209497,
				"element": "H" 
			},
			{
				"x": 1.3969298738,
				"y": 5.0030031385,
				"z": 1.9445498567,
				"element": "H" 
			},
			{
				"x": 2.8115108658,
				"y": 3.979746686,
				"z": 2.3587183746,
				"element": "H" 
			},
			{
				"x": -0.7402521316,
				"y": 1.8611128508,
				"z": 0.8878297039,
				"element": "H" 
			},
			{
				"x": -2.1324181093,
				"y": -0.0846341319,
				"z": 0.2351889138,
				"element": "H" 
			},
			{
				"x": -2.9557700466,
				"y": -3.9467720383,
				"z": 0.1913613499,
				"element": "H" 
			},
			{
				"x": -6.1247165358,
				"y": -2.6273955068,
				"z": -2.1182670935,
				"element": "H" 
			},
			{
				"x": -4.6928011623,
				"y": -0.9261261391,
				"z": -3.2533704915,
				"element": "H" 
			},
			{
				"x": -2.2678936253,
				"y": -0.7570190945,
				"z": -2.6045379365,
				"element": "H" 
			},
			{
				"x": 1.3975872794,
				"y": -2.2050922062,
				"z": -0.9898846727,
				"element": "H" 
			},
			{
				"x": 2.8008481406,
				"y": -0.2319049621,
				"z": -0.3170913709,
				"element": "H" 
			}
		],
		 "valence_orbital": [ 
			{
				"type": "occ",
				"energy": -0.27367,
				"method": "rhf"
			},
			{
				"type": "occ",
				"energy": -0.26735,
				"method": "rhf"
			},
			{
				"type": "occ",
				"energy": -0.26613,
				"method": "rhf"
			},
			{
				"type": "occ",
				"energy": -0.26296,
				"method": "rhf"
			},
			{
				"type": "occ",
				"energy": -0.23552,
				"method": "rhf"
			},
			{
				"type": "unocc",
				"energy": -0.04511,
				"method": "rhf"
			},
			{
				"type": "unocc",
				"energy": -0.03567,
				"method": "rhf"
			},
			{
				"type": "unocc",
				"energy": -0.01484,
				"method": "rhf"
			},
			{
				"type": "unocc",
				"energy": -0.01347,
				"method": "rhf"
			},
			{
				"type": "unocc",
				"energy": 0.0585,
				"method": "rhf"
			}
		],
		"cosmo_sigma_profile": { 
			"-0.025": 0.0,
			"-0.024": 0.0,
			"-0.023": 0.0,
			"-0.022": 0.0,
			"-0.021": 0.0,
			"-0.02": 0.0,
			"-0.019": 0.0,
			"-0.018": 0.0,
			"-0.017": 0.0,
			"-0.016": 0.0,
			"-0.015": 0.0,
			"-0.014": 0.0,
			"-0.013": 0.0,
			"-0.012": 0.0,
			"-0.011": 0.0,
			"-0.01": 0.0,
			"-0.009": 0.0349006679352,
			"-0.008": 1.86524849586,
			"-0.007": 9.86401031548,
			"-0.006": 19.0361666149,
			"-0.005": 21.0969003634,
			"-0.004": 21.299174672,
			"-0.003": 20.2610292164,
			"-0.002": 19.0756809088,
			"-0.001": 17.1919903285,
			"0.0": 20.2089601714,
			"0.001": 27.97393331,
			"0.002": 25.9492395484,
			"0.003": 19.4386342872,
			"0.004": 7.46289114129,
			"0.005": 7.2829488244,
			"0.006": 4.7164471024,
			"0.007": 4.18548473521,
			"0.008": 3.44436903968,
			"0.009": 2.85937243108,
			"0.01": 2.21910661251,
			"0.011": 3.62267902344,
			"0.012": 6.12412484081,
			"0.013": 1.11672609889,
			"0.014": 0.970235156723,
			"0.015": 0.813088958367,
			"0.016": 0.840354449424,
			"0.017": 0.023021977511,
			"0.018": 0.0,
			"0.019": 0.0,
			"0.02": 0.0,
			"0.021": 0.0,
			"0.022": 0.0,
			"0.023": 0.0,
			"0.024": 0.0,
			"0.025": 0.0
		}
	}
}
