{
	 "smiles": "CCOC1=CC=C(OCC(O)=O)C=C1", 
	 "Tm": 401.15, 
	 "num_atms": 26, 
	 "gaussian": { 
		 "optdone": 1, 
		 "sigma_profile": "yes", 
		 "theory": "DFT", 
		 "functional": "B3LYP", 
		 "basiset": "6-31G**", 
		 "properties": { 
			 "R2extent": 4672.5788, 
			 "electric_dipole_moment_norm": 3.66098456839, 
			 "electric_quadrupole_moment_norm": 19.5461254015, 
			 "total_energy": -689.18166607, 
			 "HOMO_LUMO_gap": 0.19927, 
			 "cosmo_polarized_energy": -13.77, 
			 "cosmo_cavitation_energy": 30.18, 
			 "cosmo_dispersion_energy": -22.08, 
			 "cosmo_repulsion_energy": 1.77, 
			 "cosmo_total_nonelectrostatic_energy": 9.87, 
			 "SMD_solvation_energy": 6.93 
		},
		"coords": [
			{
				"x": -0.741292673,
				"y": -4.6693557969,
				"z": 0.2576671629,
				"element": "C" 
			},
			{
				"x": -0.6617488904,
				"y": -3.1644092976,
				"z": 0.0705700317,
				"element": "C" 
			},
			{
				"x": 0.648732645,
				"y": -2.7510526209,
				"z": 0.4548825156,
				"element": "O" 
			},
			{
				"x": 0.9667668794,
				"y": -1.4265237433,
				"z": 0.3732101999,
				"element": "C" 
			},
			{
				"x": 0.1001386939,
				"y": -0.4193808599,
				"z": -0.0584941288,
				"element": "C" 
			},
			{
				"x": 0.5321919004,
				"y": 0.913376744,
				"z": -0.105096627,
				"element": "C" 
			},
			{
				"x": 1.8283523168,
				"y": 1.2379855281,
				"z": 0.2872298982,
				"element": "C" 
			},
			{
				"x": 2.3604226638,
				"y": 2.5222967587,
				"z": 0.2617468451,
				"element": "O" 
			},
			{
				"x": 1.455848454,
				"y": 3.6168698011,
				"z": 0.1827153032,
				"element": "C" 
			},
			{
				"x": 1.0894336044,
				"y": 3.9784686802,
				"z": -1.2619997072,
				"element": "C" 
			},
			{
				"x": 1.9294437306,
				"y": 3.4814919064,
				"z": -2.1883751991,
				"element": "O" 
			},
			{
				"x": 0.1520327983,
				"y": 4.6852150415,
				"z": -1.5369181162,
				"element": "O" 
			},
			{
				"x": 2.699843272,
				"y": 0.2310429468,
				"z": 0.7212662965,
				"element": "C" 
			},
			{
				"x": 2.2742290482,
				"y": -1.0874938921,
				"z": 0.7607482285,
				"element": "C" 
			},
			{
				"x": 0.0035751294,
				"y": -5.1746697707,
				"z": -0.3632981257,
				"element": "H" 
			},
			{
				"x": -1.7340498096,
				"y": -5.0315560964,
				"z": -0.0263049692,
				"element": "H" 
			},
			{
				"x": -0.5590126377,
				"y": -4.9379791382,
				"z": 1.3018995978,
				"element": "H" 
			},
			{
				"x": -0.8483885933,
				"y": -2.8895978327,
				"z": -0.9775356474,
				"element": "H" 
			},
			{
				"x": -1.4122416453,
				"y": -2.6525523899,
				"z": 0.6901039499,
				"element": "H" 
			},
			{
				"x": -0.9120321633,
				"y": -0.6476230329,
				"z": -0.3690208436,
				"element": "H" 
			},
			{
				"x": -0.1582355397,
				"y": 1.6703240139,
				"z": -0.4605690805,
				"element": "H" 
			},
			{
				"x": 1.976408605,
				"y": 4.4750843522,
				"z": 0.6203677555,
				"element": "H" 
			},
			{
				"x": 0.5403341137,
				"y": 3.4432106204,
				"z": 0.754931515,
				"element": "H" 
			},
			{
				"x": 2.5877525609,
				"y": 2.9332944533,
				"z": -1.7242365574,
				"element": "H" 
			},
			{
				"x": 3.7049789508,
				"y": 0.5028556249,
				"z": 1.0267770422,
				"element": "H" 
			},
			{
				"x": 2.9367165855,
				"y": -1.878422,
				"z": 1.0963326602,
				"element": "H" 
			}
		],
		 "valence_orbital": [ 
			{
				"type": "occ",
				"energy": -0.31605,
				"method": "rhf"
			},
			{
				"type": "occ",
				"energy": -0.3095,
				"method": "rhf"
			},
			{
				"type": "occ",
				"energy": -0.27001,
				"method": "rhf"
			},
			{
				"type": "occ",
				"energy": -0.26218,
				"method": "rhf"
			},
			{
				"type": "occ",
				"energy": -0.21471,
				"method": "rhf"
			},
			{
				"type": "unocc",
				"energy": -0.01544,
				"method": "rhf"
			},
			{
				"type": "unocc",
				"energy": 0.0054,
				"method": "rhf"
			},
			{
				"type": "unocc",
				"energy": 0.01201,
				"method": "rhf"
			},
			{
				"type": "unocc",
				"energy": 0.07922,
				"method": "rhf"
			},
			{
				"type": "unocc",
				"energy": 0.08459,
				"method": "rhf"
			}
		],
		"cosmo_sigma_profile": { 
			"-0.025": 0.0,
			"-0.024": 0.0,
			"-0.023": 0.0,
			"-0.022": 0.0,
			"-0.021": 0.0,
			"-0.02": 0.0,
			"-0.019": 0.0,
			"-0.018": 0.0,
			"-0.017": 0.0,
			"-0.016": 0.141313805369,
			"-0.015": 0.571990660631,
			"-0.014": 0.0986449434888,
			"-0.013": 0.844961739289,
			"-0.012": 0.75183651151,
			"-0.011": 1.16251253142,
			"-0.01": 1.5206583764,
			"-0.009": 4.27158600144,
			"-0.008": 5.38694539102,
			"-0.007": 7.76867014051,
			"-0.006": 12.0814142374,
			"-0.005": 16.7575531889,
			"-0.004": 19.7606209075,
			"-0.003": 20.6370881962,
			"-0.002": 17.0690245751,
			"-0.001": 14.4060070759,
			"0.0": 14.9765313523,
			"0.001": 13.0509399085,
			"0.002": 10.2209591567,
			"0.003": 13.2458938126,
			"0.004": 14.8375760155,
			"0.005": 11.9565794765,
			"0.006": 4.31812266025,
			"0.007": 4.742737447,
			"0.008": 5.76005208717,
			"0.009": 5.69446602246,
			"0.01": 6.38369103601,
			"0.011": 4.85325887947,
			"0.012": 4.80813096177,
			"0.013": 1.04406325254,
			"0.014": 0.0,
			"0.015": 0.0,
			"0.016": 0.0,
			"0.017": 0.0,
			"0.018": 0.0,
			"0.019": 0.0,
			"0.02": 0.0,
			"0.021": 0.0,
			"0.022": 0.0,
			"0.023": 0.0,
			"0.024": 0.0,
			"0.025": 0.0
		}
	}
}
