{
	 "smiles": "NCC1=CC=C(C=C1)C(=O)N1CCNC(=O)C1", 
	 "Tm": 417.15, 
	 "num_atms": 32, 
	 "gaussian": { 
		 "optdone": 1, 
		 "sigma_profile": "yes", 
		 "theory": "DFT", 
		 "functional": "B3LYP", 
		 "basiset": "6-31G**", 
		 "properties": { 
			 "R2extent": 5944.1612, 
			 "electric_dipole_moment_norm": 5.33963102564, 
			 "electric_quadrupole_moment_norm": 28.8727240909, 
			 "total_energy": -781.036880203, 
			 "HOMO_LUMO_gap": 0.1979, 
			 "cosmo_polarized_energy": -23.41, 
			 "cosmo_cavitation_energy": 35.22, 
			 "cosmo_dispersion_energy": -25.16, 
			 "cosmo_repulsion_energy": 1.98, 
			 "cosmo_total_nonelectrostatic_energy": 12.03, 
			 "SMD_solvation_energy": 4.27 
		},
		"coords": [
			{
				"x": -1.4510893294,
				"y": 3.5272483248,
				"z": 4.1084376568,
				"element": "N" 
			},
			{
				"x": -0.0713958312,
				"y": 3.3217683695,
				"z": 3.6397410652,
				"element": "C" 
			},
			{
				"x": 0.066831544,
				"y": 2.5139142865,
				"z": 2.3603529125,
				"element": "C" 
			},
			{
				"x": -0.0165144225,
				"y": 3.1351733908,
				"z": 1.1050305119,
				"element": "C" 
			},
			{
				"x": 0.0372753323,
				"y": 2.3912050513,
				"z": -0.0698416375,
				"element": "C" 
			},
			{
				"x": 0.2100236166,
				"y": 1.0009813759,
				"z": -0.0223113124,
				"element": "C" 
			},
			{
				"x": 0.2871713548,
				"y": 0.3711255813,
				"z": 1.2277033276,
				"element": "C" 
			},
			{
				"x": 0.2136744165,
				"y": 1.1210335844,
				"z": 2.401148754,
				"element": "C" 
			},
			{
				"x": 0.1846526504,
				"y": 0.2467192088,
				"z": -1.3221794242,
				"element": "C" 
			},
			{
				"x": -0.6174599545,
				"y": 0.550952429,
				"z": -2.2001762899,
				"element": "O" 
			},
			{
				"x": 1.0465193563,
				"y": -0.8249718522,
				"z": -1.482476129,
				"element": "N" 
			},
			{
				"x": 2.3539515147,
				"y": -0.9516759173,
				"z": -0.8461910822,
				"element": "C" 
			},
			{
				"x": 2.5800494671,
				"y": -2.4051462327,
				"z": -0.4428877594,
				"element": "C" 
			},
			{
				"x": 2.3358806498,
				"y": -3.2710352526,
				"z": -1.5882180046,
				"element": "N" 
			},
			{
				"x": 1.5235668522,
				"y": -2.9892740194,
				"z": -2.6535864921,
				"element": "C" 
			},
			{
				"x": 1.3109380054,
				"y": -3.7991178244,
				"z": -3.5442374655,
				"element": "O" 
			},
			{
				"x": 0.9239183203,
				"y": -1.586479623,
				"z": -2.7248461487,
				"element": "C" 
			},
			{
				"x": -1.9003091376,
				"y": 2.6231159184,
				"z": 4.2413408013,
				"element": "H" 
			},
			{
				"x": -1.9884753927,
				"y": 3.9955801361,
				"z": 3.3812965143,
				"element": "H" 
			},
			{
				"x": 0.3819844446,
				"y": 4.3098946643,
				"z": 3.5016120195,
				"element": "H" 
			},
			{
				"x": 0.4840464867,
				"y": 2.8307430688,
				"z": 4.4468480678,
				"element": "H" 
			},
			{
				"x": -0.1294751768,
				"y": 4.2157859213,
				"z": 1.0502499075,
				"element": "H" 
			},
			{
				"x": -0.0561669478,
				"y": 2.8729452037,
				"z": -1.0377428708,
				"element": "H" 
			},
			{
				"x": 0.378690557,
				"y": -0.7098447098,
				"z": 1.2838555057,
				"element": "H" 
			},
			{
				"x": 0.2685086855,
				"y": 0.6167172243,
				"z": 3.3634997691,
				"element": "H" 
			},
			{
				"x": 2.4138503333,
				"y": -0.3017175329,
				"z": 0.025014999,
				"element": "H" 
			},
			{
				"x": 3.1401630559,
				"y": -0.643422211,
				"z": -1.5531302705,
				"element": "H" 
			},
			{
				"x": 3.6145616735,
				"y": -2.5372862797,
				"z": -0.1060296336,
				"element": "H" 
			},
			{
				"x": 1.9186403996,
				"y": -2.6634359405,
				"z": 0.3972428805,
				"element": "H" 
			},
			{
				"x": 2.668510116,
				"y": -4.2263116439,
				"z": -1.5666413664,
				"element": "H" 
			},
			{
				"x": -0.130406135,
				"y": -1.6801008068,
				"z": -2.9849921844,
				"element": "H" 
			},
			{
				"x": 1.4054834951,
				"y": -1.0650838932,
				"z": -3.5660866216,
				"element": "H" 
			}
		],
		 "valence_orbital": [ 
			{
				"type": "occ",
				"energy": -0.26594,
				"method": "rhf"
			},
			{
				"type": "occ",
				"energy": -0.25635,
				"method": "rhf"
			},
			{
				"type": "occ",
				"energy": -0.25319,
				"method": "rhf"
			},
			{
				"type": "occ",
				"energy": -0.2396,
				"method": "rhf"
			},
			{
				"type": "occ",
				"energy": -0.23696,
				"method": "rhf"
			},
			{
				"type": "unocc",
				"energy": -0.03906,
				"method": "rhf"
			},
			{
				"type": "unocc",
				"energy": -0.01749,
				"method": "rhf"
			},
			{
				"type": "unocc",
				"energy": 0.02123,
				"method": "rhf"
			},
			{
				"type": "unocc",
				"energy": 0.03691,
				"method": "rhf"
			},
			{
				"type": "unocc",
				"energy": 0.06907,
				"method": "rhf"
			}
		],
		"cosmo_sigma_profile": { 
			"-0.025": 0.0,
			"-0.024": 0.0,
			"-0.023": 0.0,
			"-0.022": 0.0,
			"-0.021": 0.0,
			"-0.02": 0.0,
			"-0.019": 0.0,
			"-0.018": 0.0,
			"-0.017": 0.0,
			"-0.016": 0.0,
			"-0.015": 0.0159575196726,
			"-0.014": 0.831252428239,
			"-0.013": 1.43410567236,
			"-0.012": 0.743230410771,
			"-0.011": 1.09772210307,
			"-0.01": 1.68268620587,
			"-0.009": 2.97837631728,
			"-0.008": 4.44082592218,
			"-0.007": 6.11434515634,
			"-0.006": 25.6306158091,
			"-0.005": 29.7678721357,
			"-0.004": 28.9881377641,
			"-0.003": 24.3745372583,
			"-0.002": 17.3028384107,
			"-0.001": 16.2575309051,
			"0.0": 13.1239083743,
			"0.001": 11.4723828402,
			"0.002": 11.8220892081,
			"0.003": 9.75725031328,
			"0.004": 12.4548508219,
			"0.005": 7.25278568283,
			"0.006": 4.62262472047,
			"0.007": 3.7922183861,
			"0.008": 3.48592447894,
			"0.009": 3.04147333612,
			"0.01": 3.42847652551,
			"0.011": 4.2182282649,
			"0.012": 4.4456690889,
			"0.013": 8.80103279618,
			"0.014": 8.82873403546,
			"0.015": 2.33609778229,
			"0.016": 0.48618539154,
			"0.017": 0.751020671094,
			"0.018": 0.487767351265,
			"0.019": 0.794130787847,
			"0.02": 0.137722104007,
			"0.021": 0.0,
			"0.022": 0.0,
			"0.023": 0.0,
			"0.024": 0.0,
			"0.025": 0.0
		}
	}
}
