{
	 "smiles": "CON(C=C1C2CCC(C)(C1=O)C2(C)C)C1=CC=CC=C1", 
	 "Tm": 348.65, 
	 "num_atms": 44, 
	 "gaussian": { 
		 "optdone": 1, 
		 "sigma_profile": "yes", 
		 "theory": "DFT", 
		 "functional": "B3LYP", 
		 "basiset": "6-31G**", 
		 "properties": { 
			 "R2extent": 7669.6357, 
			 "electric_dipole_moment_norm": 2.43007610786, 
			 "electric_quadrupole_moment_norm": 8.3419857528, 
			 "total_energy": -904.90046461, 
			 "HOMO_LUMO_gap": 0.15459, 
			 "cosmo_polarized_energy": -10.23, 
			 "cosmo_cavitation_energy": 43.17, 
			 "cosmo_dispersion_energy": -29.7, 
			 "cosmo_repulsion_energy": 2.25, 
			 "cosmo_total_nonelectrostatic_energy": 15.73, 
			 "SMD_solvation_energy": 8.56 
		},
		"coords": [
			{
				"x": -1.5949143444,
				"y": 1.020148164,
				"z": 2.8297262893,
				"element": "C" 
			},
			{
				"x": -0.5934756518,
				"y": 1.5853691486,
				"z": 1.9655221046,
				"element": "O" 
			},
			{
				"x": -1.1271342924,
				"y": 1.8845570365,
				"z": 0.708627389,
				"element": "N" 
			},
			{
				"x": -0.547421988,
				"y": 1.2667784091,
				"z": -0.3747683309,
				"element": "C" 
			},
			{
				"x": 0.0799151761,
				"y": 0.0689329645,
				"z": -0.4862611381,
				"element": "C" 
			},
			{
				"x": 0.7997926289,
				"y": -0.3616632823,
				"z": -1.7591497987,
				"element": "C" 
			},
			{
				"x": 2.3202570592,
				"y": -0.2810600533,
				"z": -1.4441530193,
				"element": "C" 
			},
			{
				"x": 2.5073508396,
				"y": -1.441415296,
				"z": -0.4198960684,
				"element": "C" 
			},
			{
				"x": 1.0921444761,
				"y": -2.1061578162,
				"z": -0.3264118812,
				"element": "C" 
			},
			{
				"x": 1.072132354,
				"y": -3.4928389325,
				"z": 0.2906878869,
				"element": "C" 
			},
			{
				"x": 0.2438630961,
				"y": -1.0716773589,
				"z": 0.4453185456,
				"element": "C" 
			},
			{
				"x": -0.2071988617,
				"y": -1.2422599809,
				"z": 1.5695190238,
				"element": "O" 
			},
			{
				"x": 0.5377321013,
				"y": -1.9033978011,
				"z": -1.7849006393,
				"element": "C" 
			},
			{
				"x": -0.949355979,
				"y": -2.2673897268,
				"z": -1.9400576016,
				"element": "C" 
			},
			{
				"x": 1.3174830535,
				"y": -2.6603434269,
				"z": -2.8730975786,
				"element": "C" 
			},
			{
				"x": -1.7669116582,
				"y": 3.1438514087,
				"z": 0.6039009265,
				"element": "C" 
			},
			{
				"x": -1.5783859131,
				"y": 4.1259249534,
				"z": 1.587483312,
				"element": "C" 
			},
			{
				"x": -2.2176475804,
				"y": 5.357826519,
				"z": 1.4639669449,
				"element": "C" 
			},
			{
				"x": -3.0395300901,
				"y": 5.6318639638,
				"z": 0.368464948,
				"element": "C" 
			},
			{
				"x": -3.2298955302,
				"y": 4.648655659,
				"z": -0.6040743221,
				"element": "C" 
			},
			{
				"x": -2.6131720906,
				"y": 3.4041684417,
				"z": -0.485787001,
				"element": "C" 
			},
			{
				"x": -2.4116409306,
				"y": 1.7320966977,
				"z": 2.9944291935,
				"element": "H" 
			},
			{
				"x": -1.0700285727,
				"y": 0.8341804686,
				"z": 3.7683952026,
				"element": "H" 
			},
			{
				"x": -1.9568791233,
				"y": 0.0755908224,
				"z": 2.4241216033,
				"element": "H" 
			},
			{
				"x": -0.6158715213,
				"y": 1.8841506882,
				"z": -1.2686290567,
				"element": "H" 
			},
			{
				"x": 0.4957825564,
				"y": 0.1862599535,
				"z": -2.6574226435,
				"element": "H" 
			},
			{
				"x": 2.5881585646,
				"y": 0.6940466972,
				"z": -1.0292973583,
				"element": "H" 
			},
			{
				"x": 2.9263535251,
				"y": -0.4318065115,
				"z": -2.3429742257,
				"element": "H" 
			},
			{
				"x": 2.8436837235,
				"y": -1.0906307369,
				"z": 0.5606806592,
				"element": "H" 
			},
			{
				"x": 3.2435140941,
				"y": -2.1752575537,
				"z": -0.763393714,
				"element": "H" 
			},
			{
				"x": 0.0604034696,
				"y": -3.9099838782,
				"z": 0.3038299965,
				"element": "H" 
			},
			{
				"x": 1.7231895625,
				"y": -4.1821568212,
				"z": -0.2573381,
				"element": "H" 
			},
			{
				"x": 1.4129271085,
				"y": -3.4501094347,
				"z": 1.3295623126,
				"element": "H" 
			},
			{
				"x": -1.097701514,
				"y": -3.3471212376,
				"z": -1.8307841965,
				"element": "H" 
			},
			{
				"x": -1.589299764,
				"y": -1.7670811776,
				"z": -1.2091811622,
				"element": "H" 
			},
			{
				"x": -1.3060203363,
				"y": -1.989295931,
				"z": -2.9386901734,
				"element": "H" 
			},
			{
				"x": 0.9859913894,
				"y": -2.3380196941,
				"z": -3.867329242,
				"element": "H" 
			},
			{
				"x": 1.1267096152,
				"y": -3.7366193487,
				"z": -2.8009984593,
				"element": "H" 
			},
			{
				"x": 2.3983666802,
				"y": -2.5159082327,
				"z": -2.823850022,
				"element": "H" 
			},
			{
				"x": -0.9227120116,
				"y": 3.9178158536,
				"z": 2.4237824622,
				"element": "H" 
			},
			{
				"x": -2.0611038937,
				"y": 6.1135474969,
				"z": 2.2285267621,
				"element": "H" 
			},
			{
				"x": -3.5321159968,
				"y": 6.5950131431,
				"z": 0.2786341277,
				"element": "H" 
			},
			{
				"x": -3.8796607308,
				"y": 4.8396778844,
				"z": -1.453336165,
				"element": "H" 
			},
			{
				"x": -2.8049726989,
				"y": 2.6284378588,
				"z": -1.2198977924,
				"element": "H" 
			}
		],
		 "valence_orbital": [ 
			{
				"type": "occ",
				"energy": -0.28237,
				"method": "rhf"
			},
			{
				"type": "occ",
				"energy": -0.25984,
				"method": "rhf"
			},
			{
				"type": "occ",
				"energy": -0.25706,
				"method": "rhf"
			},
			{
				"type": "occ",
				"energy": -0.2203,
				"method": "rhf"
			},
			{
				"type": "occ",
				"energy": -0.19548,
				"method": "rhf"
			},
			{
				"type": "unocc",
				"energy": -0.04089,
				"method": "rhf"
			},
			{
				"type": "unocc",
				"energy": -0.00867,
				"method": "rhf"
			},
			{
				"type": "unocc",
				"energy": 0.00728,
				"method": "rhf"
			},
			{
				"type": "unocc",
				"energy": 0.07133,
				"method": "rhf"
			},
			{
				"type": "unocc",
				"energy": 0.08041,
				"method": "rhf"
			}
		],
		"cosmo_sigma_profile": { 
			"-0.025": 0.0,
			"-0.024": 0.0,
			"-0.023": 0.0,
			"-0.022": 0.0,
			"-0.021": 0.0,
			"-0.02": 0.0,
			"-0.019": 0.0,
			"-0.018": 0.0,
			"-0.017": 0.0,
			"-0.016": 0.0,
			"-0.015": 0.0,
			"-0.014": 0.0,
			"-0.013": 0.0,
			"-0.012": 0.0,
			"-0.011": 0.0,
			"-0.01": 0.0,
			"-0.009": 0.0,
			"-0.008": 0.194783646021,
			"-0.007": 3.27281438204,
			"-0.006": 10.5993203645,
			"-0.005": 14.3926154483,
			"-0.004": 19.2847162387,
			"-0.003": 34.2511469974,
			"-0.002": 45.1168993459,
			"-0.001": 45.4495300895,
			"0.0": 37.4096321475,
			"0.001": 40.3594593936,
			"0.002": 23.6322691852,
			"0.003": 14.7171537501,
			"0.004": 11.821727609,
			"0.005": 11.9540026755,
			"0.006": 5.47654997472,
			"0.007": 2.72291415962,
			"0.008": 2.76010034495,
			"0.009": 2.17555569839,
			"0.01": 3.57821728903,
			"0.011": 3.53208345632,
			"0.012": 2.14628165569,
			"0.013": 1.78958016754,
			"0.014": 1.40235578427,
			"0.015": 0.0643342931422,
			"0.016": 0.0,
			"0.017": 0.0,
			"0.018": 0.0,
			"0.019": 0.0,
			"0.02": 0.0,
			"0.021": 0.0,
			"0.022": 0.0,
			"0.023": 0.0,
			"0.024": 0.0,
			"0.025": 0.0
		}
	}
}
