{
	 "smiles": "N1C(C(C2=CC=CC=C12)C1=CC=CC=C1)C1=CC=CC=C1", 
	 "Tm": 446.15, 
	 "num_atms": 38, 
	 "gaussian": { 
		 "optdone": 1, 
		 "sigma_profile": "yes", 
		 "theory": "DFT", 
		 "functional": "B3LYP", 
		 "basiset": "6-31G**", 
		 "properties": { 
			 "R2extent": 6279.5033, 
			 "electric_dipole_moment_norm": 1.49281868959, 
			 "electric_quadrupole_moment_norm": 5.61885075171, 
			 "total_energy": -827.129937472, 
			 "HOMO_LUMO_gap": 0.18296, 
			 "cosmo_polarized_energy": -9.75, 
			 "cosmo_cavitation_energy": 40.09, 
			 "cosmo_dispersion_energy": -27.17, 
			 "cosmo_repulsion_energy": 2.09, 
			 "cosmo_total_nonelectrostatic_energy": 15.0, 
			 "SMD_solvation_energy": 4.93 
		},
		"coords": [
			{
				"x": -0.2476708517,
				"y": -1.2380911109,
				"z": -0.3640331999,
				"element": "N" 
			},
			{
				"x": -0.3227673996,
				"y": -0.3947854272,
				"z": 0.8449527757,
				"element": "C" 
			},
			{
				"x": -1.3896484148,
				"y": 0.698298228,
				"z": 0.4098396755,
				"element": "C" 
			},
			{
				"x": -1.2153430943,
				"y": 0.7212287936,
				"z": -1.0986196396,
				"element": "C" 
			},
			{
				"x": -1.6539445008,
				"y": 1.6245429508,
				"z": -2.0558090922,
				"element": "C" 
			},
			{
				"x": -1.4223519954,
				"y": 1.3523638186,
				"z": -3.4128361316,
				"element": "C" 
			},
			{
				"x": -0.7660789805,
				"y": 0.1780451973,
				"z": -3.7874562238,
				"element": "C" 
			},
			{
				"x": -0.3270141103,
				"y": -0.7457171209,
				"z": -2.8309990681,
				"element": "C" 
			},
			{
				"x": -0.5598256916,
				"y": -0.4598456795,
				"z": -1.4849806594,
				"element": "C" 
			},
			{
				"x": -1.3508809041,
				"y": 2.0167352712,
				"z": 1.1536071936,
				"element": "C" 
			},
			{
				"x": -2.2135670023,
				"y": 2.2250297678,
				"z": 2.238510431,
				"element": "C" 
			},
			{
				"x": -2.1921670019,
				"y": 3.420911682,
				"z": 2.9577377761,
				"element": "C" 
			},
			{
				"x": -1.3059551976,
				"y": 4.4363298454,
				"z": 2.5961995303,
				"element": "C" 
			},
			{
				"x": -0.4453210604,
				"y": 4.24459508,
				"z": 1.5133807649,
				"element": "C" 
			},
			{
				"x": -0.4673111849,
				"y": 3.0466081455,
				"z": 0.7991970299,
				"element": "C" 
			},
			{
				"x": 1.0290536178,
				"y": 0.1379856258,
				"z": 1.302175859,
				"element": "C" 
			},
			{
				"x": 2.0544872399,
				"y": 0.450032327,
				"z": 0.3978560261,
				"element": "C" 
			},
			{
				"x": 3.2818172798,
				"y": 0.935528703,
				"z": 0.8529386521,
				"element": "C" 
			},
			{
				"x": 3.5062020135,
				"y": 1.114152311,
				"z": 2.2189478843,
				"element": "C" 
			},
			{
				"x": 2.4938709183,
				"y": 0.8030125036,
				"z": 3.1284372941,
				"element": "C" 
			},
			{
				"x": 1.2692795265,
				"y": 0.3168983537,
				"z": 2.6709983824,
				"element": "C" 
			},
			{
				"x": 0.5722570792,
				"y": -1.8286664632,
				"z": -0.4317696583,
				"element": "H" 
			},
			{
				"x": -0.7450969097,
				"y": -0.9761809624,
				"z": 1.6712064027,
				"element": "H" 
			},
			{
				"x": -2.3673145042,
				"y": 0.2385096986,
				"z": 0.6156565943,
				"element": "H" 
			},
			{
				"x": -2.1602965758,
				"y": 2.5378397624,
				"z": -1.7557422831,
				"element": "H" 
			},
			{
				"x": -1.7533022418,
				"y": 2.0556517161,
				"z": -4.1707671644,
				"element": "H" 
			},
			{
				"x": -0.587104444,
				"y": -0.0257709784,
				"z": -4.8397110149,
				"element": "H" 
			},
			{
				"x": 0.1816005759,
				"y": -1.6579005905,
				"z": -3.1305175828,
				"element": "H" 
			},
			{
				"x": -2.9139012374,
				"y": 1.4413278922,
				"z": 2.5191330017,
				"element": "H" 
			},
			{
				"x": -2.8717837769,
				"y": 3.5607005259,
				"z": 3.793870643,
				"element": "H" 
			},
			{
				"x": -1.2891790383,
				"y": 5.3708863965,
				"z": 3.1497831853,
				"element": "H" 
			},
			{
				"x": 0.2460690307,
				"y": 5.0305715822,
				"z": 1.222342601,
				"element": "H" 
			},
			{
				"x": 0.2043173083,
				"y": 2.9072228723,
				"z": -0.041507512,
				"element": "H" 
			},
			{
				"x": 1.8940642377,
				"y": 0.3184903348,
				"z": -0.6678317655,
				"element": "H" 
			},
			{
				"x": 4.0643512074,
				"y": 1.1724838885,
				"z": 0.1373247054,
				"element": "H" 
			},
			{
				"x": 4.4630433333,
				"y": 1.4880454406,
				"z": 2.5719409682,
				"element": "H" 
			},
			{
				"x": 2.6594853919,
				"y": 0.9319531561,
				"z": 4.1943848608,
				"element": "H" 
			},
			{
				"x": 0.4863273581,
				"y": 0.0736764625,
				"z": 3.3851587585,
				"element": "H" 
			}
		],
		 "valence_orbital": [ 
			{
				"type": "occ",
				"energy": -0.24883,
				"method": "rhf"
			},
			{
				"type": "occ",
				"energy": -0.24357,
				"method": "rhf"
			},
			{
				"type": "occ",
				"energy": -0.24098,
				"method": "rhf"
			},
			{
				"type": "occ",
				"energy": -0.23231,
				"method": "rhf"
			},
			{
				"type": "occ",
				"energy": -0.19145,
				"method": "rhf"
			},
			{
				"type": "unocc",
				"energy": -0.00849,
				"method": "rhf"
			},
			{
				"type": "unocc",
				"energy": -0.00532,
				"method": "rhf"
			},
			{
				"type": "unocc",
				"energy": 0.00109,
				"method": "rhf"
			},
			{
				"type": "unocc",
				"energy": 0.00577,
				"method": "rhf"
			},
			{
				"type": "unocc",
				"energy": 0.00817,
				"method": "rhf"
			}
		],
		"cosmo_sigma_profile": { 
			"-0.025": 0.0,
			"-0.024": 0.0,
			"-0.023": 0.0,
			"-0.022": 0.0,
			"-0.021": 0.0,
			"-0.02": 0.0,
			"-0.019": 0.0,
			"-0.018": 0.0,
			"-0.017": 0.0,
			"-0.016": 0.0,
			"-0.015": 0.0,
			"-0.014": 0.0,
			"-0.013": 0.0208393952581,
			"-0.012": 0.696146393052,
			"-0.011": 1.16701893159,
			"-0.01": 1.02112106876,
			"-0.009": 1.34894044094,
			"-0.008": 1.15201737283,
			"-0.007": 1.36031093932,
			"-0.006": 8.10924705066,
			"-0.005": 29.4271932894,
			"-0.004": 32.8167877945,
			"-0.003": 33.2426986995,
			"-0.002": 25.1548467166,
			"-0.001": 22.5320127258,
			"0.0": 22.3980197142,
			"0.001": 20.9406246498,
			"0.002": 19.2721222675,
			"0.003": 19.1760794977,
			"0.004": 20.1198259099,
			"0.005": 21.3135743195,
			"0.006": 22.7426085381,
			"0.007": 10.9478207389,
			"0.008": 1.81997991679,
			"0.009": 0.379014937295,
			"0.01": 0.275311104085,
			"0.011": 0.992798649085,
			"0.012": 0.545847046255,
			"0.013": 0.366597393696,
			"0.014": 0.0948764909433,
			"0.015": 0.0,
			"0.016": 0.0,
			"0.017": 0.0,
			"0.018": 0.0,
			"0.019": 0.0,
			"0.02": 0.0,
			"0.021": 0.0,
			"0.022": 0.0,
			"0.023": 0.0,
			"0.024": 0.0,
			"0.025": 0.0
		}
	}
}
