{
	 "smiles": "CCOC(=O)C(=C/C1=CC=CC=C1)C1=C(C=CC=C1)[N+]([O-])=O", 
	 "Tm": 368.15, 
	 "num_atms": 37, 
	 "gaussian": { 
		 "optdone": 1, 
		 "sigma_profile": "yes", 
		 "theory": "DFT", 
		 "functional": "B3LYP", 
		 "basiset": "6-31G**", 
		 "properties": { 
			 "R2extent": 7402.6756, 
			 "electric_dipole_moment_norm": 4.82012591952, 
			 "electric_quadrupole_moment_norm": 21.4517690184, 
			 "total_energy": -1012.38864128, 
			 "HOMO_LUMO_gap": 0.1539, 
			 "cosmo_polarized_energy": -15.33, 
			 "cosmo_cavitation_energy": 42.29, 
			 "cosmo_dispersion_energy": -28.11, 
			 "cosmo_repulsion_energy": 2.17, 
			 "cosmo_total_nonelectrostatic_energy": 16.35, 
			 "SMD_solvation_energy": 10.06 
		},
		"coords": [
			{
				"x": 0.0379334768,
				"y": -4.0723531373,
				"z": -0.8718996397,
				"element": "C" 
			},
			{
				"x": 0.1826584884,
				"y": -2.8386526859,
				"z": -1.7424578963,
				"element": "C" 
			},
			{
				"x": -0.2811546968,
				"y": -1.7068066006,
				"z": -0.9684316099,
				"element": "O" 
			},
			{
				"x": -0.286173891,
				"y": -0.5240355807,
				"z": -1.6078619681,
				"element": "C" 
			},
			{
				"x": 0.0355028458,
				"y": -0.3961124196,
				"z": -2.7742353031,
				"element": "O" 
			},
			{
				"x": -0.8180810423,
				"y": 0.6070650905,
				"z": -0.7788754706,
				"element": "C" 
			},
			{
				"x": -1.0474393324,
				"y": 0.6172083565,
				"z": 0.5540198706,
				"element": "C" 
			},
			{
				"x": -0.6770436329,
				"y": -0.3267906683,
				"z": 1.6228831301,
				"element": "C" 
			},
			{
				"x": -1.5857825187,
				"y": -0.5482783768,
				"z": 2.672329651,
				"element": "C" 
			},
			{
				"x": -1.2605246907,
				"y": -1.3887011223,
				"z": 3.735652161,
				"element": "C" 
			},
			{
				"x": -0.0040033848,
				"y": -1.9947106792,
				"z": 3.7865105053,
				"element": "C" 
			},
			{
				"x": 0.9228301553,
				"y": -1.7520963824,
				"z": 2.7688026249,
				"element": "C" 
			},
			{
				"x": 0.5912012349,
				"y": -0.9284734572,
				"z": 1.6957902972,
				"element": "C" 
			},
			{
				"x": -1.241079409,
				"y": 1.7939022718,
				"z": -1.5842511399,
				"element": "C" 
			},
			{
				"x": -0.3743703788,
				"y": 2.5703977842,
				"z": -2.3752505478,
				"element": "C" 
			},
			{
				"x": -0.8285358876,
				"y": 3.6369222684,
				"z": -3.149096385,
				"element": "C" 
			},
			{
				"x": -2.1787713279,
				"y": 3.9750560734,
				"z": -3.1342496142,
				"element": "C" 
			},
			{
				"x": -3.0626688231,
				"y": 3.2341969787,
				"z": -2.3501347158,
				"element": "C" 
			},
			{
				"x": -2.596021787,
				"y": 2.1554518862,
				"z": -1.5988435607,
				"element": "C" 
			},
			{
				"x": 1.0819810607,
				"y": 2.3348570391,
				"z": -2.3780801465,
				"element": "N" 
			},
			{
				"x": 1.5760507325,
				"y": 1.7502322108,
				"z": -1.4152342583,
				"element": "O" 
			},
			{
				"x": 1.7251652328,
				"y": 2.777242905,
				"z": -3.3275723273,
				"element": "O" 
			},
			{
				"x": -1.0076477929,
				"y": -4.2345746231,
				"z": -0.5950819546,
				"element": "H" 
			},
			{
				"x": 0.3911991495,
				"y": -4.9528951615,
				"z": -1.4176370109,
				"element": "H" 
			},
			{
				"x": 0.6233285323,
				"y": -3.9749417212,
				"z": 0.0463825105,
				"element": "H" 
			},
			{
				"x": 1.2215318436,
				"y": -2.6597764158,
				"z": -2.0377516202,
				"element": "H" 
			},
			{
				"x": -0.411417257,
				"y": -2.905689757,
				"z": -2.6588710904,
				"element": "H" 
			},
			{
				"x": -1.5584664254,
				"y": 1.5068978602,
				"z": 0.9234886595,
				"element": "H" 
			},
			{
				"x": -2.5592212174,
				"y": -0.0649585934,
				"z": 2.6445246597,
				"element": "H" 
			},
			{
				"x": -1.9826117773,
				"y": -1.5605573121,
				"z": 4.5286572583,
				"element": "H" 
			},
			{
				"x": 0.2578738979,
				"y": -2.6390167577,
				"z": 4.6208370379,
				"element": "H" 
			},
			{
				"x": 1.9119661635,
				"y": -2.1987080689,
				"z": 2.8167844299,
				"element": "H" 
			},
			{
				"x": 1.3202576529,
				"y": -0.7260652032,
				"z": 0.9194869753,
				"element": "H" 
			},
			{
				"x": -0.1102139731,
				"y": 4.188547472,
				"z": -3.7423781043,
				"element": "H" 
			},
			{
				"x": -2.5335281396,
				"y": 4.8105107199,
				"z": -3.7291588601,
				"element": "H" 
			},
			{
				"x": -4.1193081831,
				"y": 3.4840560301,
				"z": -2.331833351,
				"element": "H" 
			},
			{
				"x": -3.2926148984,
				"y": 1.5573497775,
				"z": -1.0198631962,
				"element": "H" 
			}
		],
		 "valence_orbital": [ 
			{
				"type": "occ",
				"energy": -0.2755,
				"method": "rhf"
			},
			{
				"type": "occ",
				"energy": -0.27008,
				"method": "rhf"
			},
			{
				"type": "occ",
				"energy": -0.26641,
				"method": "rhf"
			},
			{
				"type": "occ",
				"energy": -0.25405,
				"method": "rhf"
			},
			{
				"type": "occ",
				"energy": -0.2327,
				"method": "rhf"
			},
			{
				"type": "unocc",
				"energy": -0.0788,
				"method": "rhf"
			},
			{
				"type": "unocc",
				"energy": -0.06111,
				"method": "rhf"
			},
			{
				"type": "unocc",
				"energy": -0.02175,
				"method": "rhf"
			},
			{
				"type": "unocc",
				"energy": -0.00469,
				"method": "rhf"
			},
			{
				"type": "unocc",
				"energy": 0.00304,
				"method": "rhf"
			}
		],
		"cosmo_sigma_profile": { 
			"-0.025": 0.0,
			"-0.024": 0.0,
			"-0.023": 0.0,
			"-0.022": 0.0,
			"-0.021": 0.0,
			"-0.02": 0.0,
			"-0.019": 0.0,
			"-0.018": 0.0,
			"-0.017": 0.0,
			"-0.016": 0.0,
			"-0.015": 0.0,
			"-0.014": 0.0,
			"-0.013": 0.0,
			"-0.012": 0.0,
			"-0.011": 0.0,
			"-0.01": 0.0,
			"-0.009": 0.0,
			"-0.008": 1.00512163201,
			"-0.007": 9.167040862,
			"-0.006": 20.6848642407,
			"-0.005": 27.4016233396,
			"-0.004": 30.6157079201,
			"-0.003": 31.9240731487,
			"-0.002": 25.199607237,
			"-0.001": 24.249611195,
			"0.0": 25.2237629397,
			"0.001": 23.9904366599,
			"0.002": 25.6026614372,
			"0.003": 17.5230330147,
			"0.004": 14.5097615146,
			"0.005": 15.0453309606,
			"0.006": 10.343043929,
			"0.007": 10.2033979855,
			"0.008": 9.3422446765,
			"0.009": 6.4100893064,
			"0.01": 4.17299512295,
			"0.011": 2.91362159554,
			"0.012": 1.96970395955,
			"0.013": 0.10203767189,
			"0.014": 0.0,
			"0.015": 0.0,
			"0.016": 0.0,
			"0.017": 0.0,
			"0.018": 0.0,
			"0.019": 0.0,
			"0.02": 0.0,
			"0.021": 0.0,
			"0.022": 0.0,
			"0.023": 0.0,
			"0.024": 0.0,
			"0.025": 0.0
		}
	}
}
