{
	 "smiles": "CCOC1=C(C=O)C=CC=C1", 
	 "Tm": 294.15, 
	 "num_atms": 21, 
	 "gaussian": { 
		 "optdone": 1, 
		 "sigma_profile": "yes", 
		 "theory": "DFT", 
		 "functional": "B3LYP", 
		 "basiset": "6-31G**", 
		 "properties": { 
			 "R2extent": 2396.3972, 
			 "electric_dipole_moment_norm": 4.9224108575, 
			 "electric_quadrupole_moment_norm": 15.5636977248, 
			 "total_energy": -499.417499449, 
			 "HOMO_LUMO_gap": 0.17604, 
			 "cosmo_polarized_energy": -9.06, 
			 "cosmo_cavitation_energy": 24.68, 
			 "cosmo_dispersion_energy": -18.0, 
			 "cosmo_repulsion_energy": 1.46, 
			 "cosmo_total_nonelectrostatic_energy": 8.13, 
			 "SMD_solvation_energy": 5.76 
		},
		"coords": [
			{
				"x": -2.45672154,
				"y": 0.8889068347,
				"z": -1.4514865409,
				"element": "C" 
			},
			{
				"x": -2.0061837848,
				"y": 0.8987702945,
				"z": 0.0048105388,
				"element": "C" 
			},
			{
				"x": -0.7387084825,
				"y": 1.543220441,
				"z": 0.1819664522,
				"element": "O" 
			},
			{
				"x": 0.4203119833,
				"y": 0.8777501996,
				"z": -0.0755626843,
				"element": "C" 
			},
			{
				"x": 1.6149817631,
				"y": 1.6173324546,
				"z": 0.0966075659,
				"element": "C" 
			},
			{
				"x": 1.5953246636,
				"y": 3.0376401794,
				"z": 0.5141401491,
				"element": "C" 
			},
			{
				"x": 2.6034876668,
				"y": 3.7069504946,
				"z": 0.6719724645,
				"element": "O" 
			},
			{
				"x": 2.8494578838,
				"y": 0.9935312595,
				"z": -0.1309926918,
				"element": "C" 
			},
			{
				"x": 2.9221879433,
				"y": -0.33757153,
				"z": -0.5233058451,
				"element": "C" 
			},
			{
				"x": 1.7365644441,
				"y": -1.0579583512,
				"z": -0.6929480476,
				"element": "C" 
			},
			{
				"x": 0.4926151456,
				"y": -0.4645352918,
				"z": -0.4757056618,
				"element": "C" 
			},
			{
				"x": -2.495498243,
				"y": 1.9094252087,
				"z": -1.8425351916,
				"element": "H" 
			},
			{
				"x": -3.4577977545,
				"y": 0.4518632471,
				"z": -1.5288115729,
				"element": "H" 
			},
			{
				"x": -1.7800030257,
				"y": 0.3069736842,
				"z": -2.0828054494,
				"element": "H" 
			},
			{
				"x": -2.6945898895,
				"y": 1.4924213657,
				"z": 0.6121859221,
				"element": "H" 
			},
			{
				"x": -1.9797962927,
				"y": -0.1110874308,
				"z": 0.4315970376,
				"element": "H" 
			},
			{
				"x": 0.5934039732,
				"y": 3.4743044154,
				"z": 0.6797093303,
				"element": "H" 
			},
			{
				"x": 3.7415552633,
				"y": 1.5951171866,
				"z": 0.0134172714,
				"element": "H" 
			},
			{
				"x": 3.8828779227,
				"y": -0.8112888237,
				"z": -0.6975390022,
				"element": "H" 
			},
			{
				"x": 1.7735829297,
				"y": -2.09902173,
				"z": -1.0019775193,
				"element": "H" 
			},
			{
				"x": -0.4061525698,
				"y": -1.0508441083,
				"z": -0.6215365251,
				"element": "H" 
			}
		],
		 "valence_orbital": [ 
			{
				"type": "occ",
				"energy": -0.33419,
				"method": "rhf"
			},
			{
				"type": "occ",
				"energy": -0.32912,
				"method": "rhf"
			},
			{
				"type": "occ",
				"energy": -0.25898,
				"method": "rhf"
			},
			{
				"type": "occ",
				"energy": -0.24137,
				"method": "rhf"
			},
			{
				"type": "occ",
				"energy": -0.23085,
				"method": "rhf"
			},
			{
				"type": "unocc",
				"energy": -0.05481,
				"method": "rhf"
			},
			{
				"type": "unocc",
				"energy": 0.00119,
				"method": "rhf"
			},
			{
				"type": "unocc",
				"energy": 0.04418,
				"method": "rhf"
			},
			{
				"type": "unocc",
				"energy": 0.07861,
				"method": "rhf"
			},
			{
				"type": "unocc",
				"energy": 0.09597,
				"method": "rhf"
			}
		],
		"cosmo_sigma_profile": { 
			"-0.025": 0.0,
			"-0.024": 0.0,
			"-0.023": 0.0,
			"-0.022": 0.0,
			"-0.021": 0.0,
			"-0.02": 0.0,
			"-0.019": 0.0,
			"-0.018": 0.0,
			"-0.017": 0.0,
			"-0.016": 0.0,
			"-0.015": 0.0,
			"-0.014": 0.0,
			"-0.013": 0.0,
			"-0.012": 0.0,
			"-0.011": 0.0,
			"-0.01": 0.0,
			"-0.009": 0.0,
			"-0.008": 0.604852997267,
			"-0.007": 3.10463653834,
			"-0.006": 9.5338508727,
			"-0.005": 15.7897267026,
			"-0.004": 19.8350617793,
			"-0.003": 21.1844329306,
			"-0.002": 15.3551082377,
			"-0.001": 14.6436027546,
			"0.0": 17.9641557313,
			"0.001": 14.1307462815,
			"0.002": 13.4269064661,
			"0.003": 12.8186949293,
			"0.004": 12.6021291187,
			"0.005": 5.63000066372,
			"0.006": 3.1932741709,
			"0.007": 1.34648629781,
			"0.008": 1.98258706263,
			"0.009": 1.94673639971,
			"0.01": 1.86752199741,
			"0.011": 3.6064020436,
			"0.012": 4.09071737745,
			"0.013": 1.59753786261,
			"0.014": 0.209301698009,
			"0.015": 0.0,
			"0.016": 0.0,
			"0.017": 0.0,
			"0.018": 0.0,
			"0.019": 0.0,
			"0.02": 0.0,
			"0.021": 0.0,
			"0.022": 0.0,
			"0.023": 0.0,
			"0.024": 0.0,
			"0.025": 0.0
		}
	}
}
