{
	 "smiles": "NC1=C(Cl)C=NN1C1CCN(CC2=CC=CC=C2)C1", 
	 "Tm": 380.15, 
	 "num_atms": 36, 
	 "gaussian": { 
		 "optdone": 1, 
		 "sigma_profile": "yes", 
		 "theory": "DFT", 
		 "functional": "B3LYP", 
		 "basiset": "6-31G**", 
		 "properties": { 
			 "R2extent": 8580.2081, 
			 "electric_dipole_moment_norm": 3.43280907421, 
			 "electric_quadrupole_moment_norm": 15.1143891289, 
			 "total_energy": -1222.90025572, 
			 "HOMO_LUMO_gap": 0.21942, 
			 "cosmo_polarized_energy": -14.66, 
			 "cosmo_cavitation_energy": 40.25, 
			 "cosmo_dispersion_energy": -28.15, 
			 "cosmo_repulsion_energy": 2.2, 
			 "cosmo_total_nonelectrostatic_energy": 14.3, 
			 "SMD_solvation_energy": 4.26 
		},
		"coords": [
			{
				"x": 2.3738140105,
				"y": -4.5392021981,
				"z": -1.427514066,
				"element": "N" 
			},
			{
				"x": 1.0497448139,
				"y": -4.2136923715,
				"z": -1.1114750522,
				"element": "C" 
			},
			{
				"x": 0.0130362437,
				"y": -4.9710481031,
				"z": -0.582367444,
				"element": "C" 
			},
			{
				"x": 0.0879964821,
				"y": -6.6710056813,
				"z": -0.2278706913,
				"element": "Cl" 
			},
			{
				"x": -1.0675292153,
				"y": -4.0836431063,
				"z": -0.4221023895,
				"element": "C" 
			},
			{
				"x": -0.7407908911,
				"y": -2.8599324458,
				"z": -0.8288529708,
				"element": "N" 
			},
			{
				"x": 0.554578728,
				"y": -2.9471827566,
				"z": -1.2256811817,
				"element": "N" 
			},
			{
				"x": 1.2628309471,
				"y": -1.7661876236,
				"z": -1.7100442193,
				"element": "C" 
			},
			{
				"x": 0.7086191056,
				"y": -1.2385639866,
				"z": -3.0605525308,
				"element": "C" 
			},
			{
				"x": 0.7557365047,
				"y": 0.2822277497,
				"z": -2.8917878484,
				"element": "C" 
			},
			{
				"x": 0.3924183343,
				"y": 0.4503679128,
				"z": -1.4882966884,
				"element": "N" 
			},
			{
				"x": 0.4915494188,
				"y": 1.8055016912,
				"z": -0.9765123911,
				"element": "C" 
			},
			{
				"x": -0.1863931012,
				"y": 1.9897533026,
				"z": 0.3708554786,
				"element": "C" 
			},
			{
				"x": 0.3012125079,
				"y": 2.9337872403,
				"z": 1.2820420112,
				"element": "C" 
			},
			{
				"x": -0.3457740448,
				"y": 3.1510738371,
				"z": 2.4997643039,
				"element": "C" 
			},
			{
				"x": -1.4865505132,
				"y": 2.4156750243,
				"z": 2.8258867034,
				"element": "C" 
			},
			{
				"x": -1.973234281,
				"y": 1.464109379,
				"z": 1.926768054,
				"element": "C" 
			},
			{
				"x": -1.3305198112,
				"y": 1.2538595934,
				"z": 0.7060914563,
				"element": "C" 
			},
			{
				"x": 1.160536999,
				"y": -0.5519696885,
				"z": -0.7484175727,
				"element": "C" 
			},
			{
				"x": 2.6141050447,
				"y": -5.4489493708,
				"z": -1.0478154437,
				"element": "H" 
			},
			{
				"x": 2.5524661144,
				"y": -4.5484005833,
				"z": -2.4279845836,
				"element": "H" 
			},
			{
				"x": -2.0571684131,
				"y": -4.2928224547,
				"z": -0.040444671,
				"element": "H" 
			},
			{
				"x": 2.3043587445,
				"y": -2.0808538402,
				"z": -1.7998064143,
				"element": "H" 
			},
			{
				"x": 1.2778586608,
				"y": -1.5975198372,
				"z": -3.9227814828,
				"element": "H" 
			},
			{
				"x": -0.3291387665,
				"y": -1.5659704337,
				"z": -3.1595483655,
				"element": "H" 
			},
			{
				"x": 0.0481467062,
				"y": 0.8087052993,
				"z": -3.5412261773,
				"element": "H" 
			},
			{
				"x": 1.7705575646,
				"y": 0.6696983969,
				"z": -3.1182863785,
				"element": "H" 
			},
			{
				"x": 1.5452748634,
				"y": 2.1443828826,
				"z": -0.9030288249,
				"element": "H" 
			},
			{
				"x": 0.0094320423,
				"y": 2.4660025052,
				"z": -1.7109167952,
				"element": "H" 
			},
			{
				"x": 1.1955445623,
				"y": 3.5027722662,
				"z": 1.0369900025,
				"element": "H" 
			},
			{
				"x": 0.0458738552,
				"y": 3.8879186813,
				"z": 3.1957632105,
				"element": "H" 
			},
			{
				"x": -1.9883270114,
				"y": 2.5781376695,
				"z": 3.7756951651,
				"element": "H" 
			},
			{
				"x": -2.8559387184,
				"y": 0.8817344524,
				"z": 2.1767175308,
				"element": "H" 
			},
			{
				"x": -1.6945737972,
				"y": 0.5064683037,
				"z": 0.0075895758,
				"element": "H" 
			},
			{
				"x": 2.1795866265,
				"y": -0.1895791577,
				"z": -0.5119500398,
				"element": "H" 
			},
			{
				"x": 0.667859684,
				"y": -0.8136525486,
				"z": 0.1898007306,
				"element": "H" 
			}
		],
		 "valence_orbital": [ 
			{
				"type": "occ",
				"energy": -0.24154,
				"method": "rhf"
			},
			{
				"type": "occ",
				"energy": -0.24044,
				"method": "rhf"
			},
			{
				"type": "occ",
				"energy": -0.23485,
				"method": "rhf"
			},
			{
				"type": "occ",
				"energy": -0.21875,
				"method": "rhf"
			},
			{
				"type": "occ",
				"energy": -0.21325,
				"method": "rhf"
			},
			{
				"type": "unocc",
				"energy": 0.00617,
				"method": "rhf"
			},
			{
				"type": "unocc",
				"energy": 0.00735,
				"method": "rhf"
			},
			{
				"type": "unocc",
				"energy": 0.01867,
				"method": "rhf"
			},
			{
				"type": "unocc",
				"energy": 0.04354,
				"method": "rhf"
			},
			{
				"type": "unocc",
				"energy": 0.06356,
				"method": "rhf"
			}
		],
		"cosmo_sigma_profile": { 
			"-0.025": 0.0,
			"-0.024": 0.0,
			"-0.023": 0.0,
			"-0.022": 0.0,
			"-0.021": 0.0,
			"-0.02": 0.0,
			"-0.019": 0.0,
			"-0.018": 0.0,
			"-0.017": 0.0,
			"-0.016": 0.0,
			"-0.015": 0.0,
			"-0.014": 0.13893155036,
			"-0.013": 1.38715991126,
			"-0.012": 2.27500170292,
			"-0.011": 2.46002074236,
			"-0.01": 3.54175770706,
			"-0.009": 2.3217039207,
			"-0.008": 3.3146030001,
			"-0.007": 3.70496807401,
			"-0.006": 5.30347522301,
			"-0.005": 17.1747590081,
			"-0.004": 24.2634420531,
			"-0.003": 32.2367940449,
			"-0.002": 34.8342372721,
			"-0.001": 30.51416593,
			"0.0": 20.6807087751,
			"0.001": 16.9859742778,
			"0.002": 20.626433908,
			"0.003": 22.2607213898,
			"0.004": 22.9326093791,
			"0.005": 18.5554550064,
			"0.006": 12.2632080699,
			"0.007": 6.47572861851,
			"0.008": 2.88554926026,
			"0.009": 2.5559450539,
			"0.01": 2.94970968144,
			"0.011": 2.76601488242,
			"0.012": 2.19135296934,
			"0.013": 1.70995705219,
			"0.014": 0.873860770693,
			"0.015": 0.0179680951134,
			"0.016": 0.0,
			"0.017": 0.0,
			"0.018": 0.0,
			"0.019": 0.0,
			"0.02": 0.0,
			"0.021": 0.0,
			"0.022": 0.0,
			"0.023": 0.0,
			"0.024": 0.0,
			"0.025": 0.0
		}
	}
}
