{
	 "smiles": "COC1=CC(OC)=CC(CNC(=O)C2=C(CCO)C3=CC=CC=C3N2)=C1", 
	 "Tm": 459.15, 
	 "num_atms": 48, 
	 "gaussian": { 
		 "optdone": 1, 
		 "sigma_profile": "yes", 
		 "theory": "DFT", 
		 "functional": "B3LYP", 
		 "basiset": "6-31G**", 
		 "properties": { 
			 "R2extent": 13241.1582, 
			 "electric_dipole_moment_norm": 1.34802504799, 
			 "electric_quadrupole_moment_norm": 20.1516916938, 
			 "total_energy": -1185.79131138, 
			 "HOMO_LUMO_gap": 0.16617, 
			 "cosmo_polarized_energy": -19.75, 
			 "cosmo_cavitation_energy": 50.96, 
			 "cosmo_dispersion_energy": -35.05, 
			 "cosmo_repulsion_energy": 2.68, 
			 "cosmo_total_nonelectrostatic_energy": 18.58, 
			 "SMD_solvation_energy": 9.09 
		},
		"coords": [
			{
				"x": 7.0250014949,
				"y": 1.2054303902,
				"z": 0.5541854785,
				"element": "C" 
			},
			{
				"x": 6.1029207681,
				"y": 0.3135324021,
				"z": -0.051788186,
				"element": "O" 
			},
			{
				"x": 5.0011870019,
				"y": 0.8409112494,
				"z": -0.6604677114,
				"element": "C" 
			},
			{
				"x": 4.7160273332,
				"y": 2.2016215249,
				"z": -0.7255862688,
				"element": "C" 
			},
			{
				"x": 3.5487383659,
				"y": 2.631320063,
				"z": -1.3829402453,
				"element": "C" 
			},
			{
				"x": 3.3667900927,
				"y": 3.9839809636,
				"z": -1.395237511,
				"element": "O" 
			},
			{
				"x": 2.2136465589,
				"y": 4.4966349254,
				"z": -2.0459118722,
				"element": "C" 
			},
			{
				"x": 2.6763611053,
				"y": 1.7135633381,
				"z": -1.9666785963,
				"element": "C" 
			},
			{
				"x": 2.9773698326,
				"y": 0.3411979749,
				"z": -1.8900014375,
				"element": "C" 
			},
			{
				"x": 2.0205401271,
				"y": -0.6638611157,
				"z": -2.5057281776,
				"element": "C" 
			},
			{
				"x": 0.7746550776,
				"y": -0.8232588169,
				"z": -1.7530487886,
				"element": "N" 
			},
			{
				"x": -0.3477847201,
				"y": -0.1106678821,
				"z": -2.0656493829,
				"element": "C" 
			},
			{
				"x": -0.4043831996,
				"y": 0.6619747487,
				"z": -3.0297818554,
				"element": "O" 
			},
			{
				"x": -1.5412720243,
				"y": -0.2903694371,
				"z": -1.2050750183,
				"element": "C" 
			},
			{
				"x": -1.9287650985,
				"y": -1.1709287006,
				"z": -0.2015240784,
				"element": "C" 
			},
			{
				"x": -1.1787525182,
				"y": -2.3338964415,
				"z": 0.3894918583,
				"element": "C" 
			},
			{
				"x": -0.4393654895,
				"y": -1.9963605108,
				"z": 1.6996823919,
				"element": "C" 
			},
			{
				"x": -1.3152521725,
				"y": -1.6058280363,
				"z": 2.7414648904,
				"element": "O" 
			},
			{
				"x": -3.2573373576,
				"y": -0.7687356154,
				"z": 0.1865848962,
				"element": "C" 
			},
			{
				"x": -4.1787335883,
				"y": -1.2521873175,
				"z": 1.1396841819,
				"element": "C" 
			},
			{
				"x": -5.4140345527,
				"y": -0.6322151243,
				"z": 1.2510910723,
				"element": "C" 
			},
			{
				"x": -5.7579536076,
				"y": 0.4664406236,
				"z": 0.4308892698,
				"element": "C" 
			},
			{
				"x": -4.8743677894,
				"y": 0.9690682764,
				"z": -0.5134987595,
				"element": "C" 
			},
			{
				"x": -3.6252372127,
				"y": 0.3422896372,
				"z": -0.6269782906,
				"element": "C" 
			},
			{
				"x": -2.5656729985,
				"y": 0.6061240222,
				"z": -1.4504220789,
				"element": "N" 
			},
			{
				"x": 4.1274811248,
				"y": -0.0948401574,
				"z": -1.2444685567,
				"element": "C" 
			},
			{
				"x": 6.5572463083,
				"y": 1.785518099,
				"z": 1.3600740409,
				"element": "H" 
			},
			{
				"x": 7.4591584134,
				"y": 1.897960393,
				"z": -0.1783225258,
				"element": "H" 
			},
			{
				"x": 7.8168549939,
				"y": 0.5823485487,
				"z": 0.9729559355,
				"element": "H" 
			},
			{
				"x": 5.3610630678,
				"y": 2.9548284221,
				"z": -0.2919395253,
				"element": "H" 
			},
			{
				"x": 1.2899490026,
				"y": 4.1278100305,
				"z": -1.5825928166,
				"element": "H" 
			},
			{
				"x": 2.2032886029,
				"y": 4.2395892196,
				"z": -3.112513809,
				"element": "H" 
			},
			{
				"x": 2.2640680018,
				"y": 5.5811902593,
				"z": -1.9366516345,
				"element": "H" 
			},
			{
				"x": 1.7742161052,
				"y": 2.0243501303,
				"z": -2.4785122154,
				"element": "H" 
			},
			{
				"x": 2.501939833,
				"y": -1.6441585057,
				"z": -2.5782871209,
				"element": "H" 
			},
			{
				"x": 1.7297057131,
				"y": -0.3505642854,
				"z": -3.5103817987,
				"element": "H" 
			},
			{
				"x": 0.839887468,
				"y": -1.2249777967,
				"z": -0.830220444,
				"element": "H" 
			},
			{
				"x": -0.4640038467,
				"y": -2.742880894,
				"z": -0.3348440252,
				"element": "H" 
			},
			{
				"x": -1.8875329078,
				"y": -3.141632935,
				"z": 0.6060343469,
				"element": "H" 
			},
			{
				"x": 0.3234113666,
				"y": -1.2207991313,
				"z": 1.5114774762,
				"element": "H" 
			},
			{
				"x": 0.0839312225,
				"y": -2.8867999336,
				"z": 2.0639442899,
				"element": "H" 
			},
			{
				"x": -1.7874993979,
				"y": -0.8142285025,
				"z": 2.4482096468,
				"element": "H" 
			},
			{
				"x": -3.913049973,
				"y": -2.0824306737,
				"z": 1.7867387237,
				"element": "H" 
			},
			{
				"x": -6.1317193933,
				"y": -0.9921703146,
				"z": 1.9821731916,
				"element": "H" 
			},
			{
				"x": -6.7344585693,
				"y": 0.9281415683,
				"z": 0.5442598037,
				"element": "H" 
			},
			{
				"x": -5.1393274218,
				"y": 1.8146050419,
				"z": -1.1413221289,
				"element": "H" 
			},
			{
				"x": -2.4938309386,
				"y": 1.2802720551,
				"z": -2.1988515871,
				"element": "H" 
			},
			{
				"x": 4.3792957957,
				"y": -1.148911779,
				"z": -1.1815150479,
				"element": "H" 
			}
		],
		 "valence_orbital": [ 
			{
				"type": "occ",
				"energy": -0.25751,
				"method": "rhf"
			},
			{
				"type": "occ",
				"energy": -0.22833,
				"method": "rhf"
			},
			{
				"type": "occ",
				"energy": -0.22613,
				"method": "rhf"
			},
			{
				"type": "occ",
				"energy": -0.21129,
				"method": "rhf"
			},
			{
				"type": "occ",
				"energy": -0.20873,
				"method": "rhf"
			},
			{
				"type": "unocc",
				"energy": -0.04256,
				"method": "rhf"
			},
			{
				"type": "unocc",
				"energy": 0.00059,
				"method": "rhf"
			},
			{
				"type": "unocc",
				"energy": 0.01614,
				"method": "rhf"
			},
			{
				"type": "unocc",
				"energy": 0.01957,
				"method": "rhf"
			},
			{
				"type": "unocc",
				"energy": 0.02613,
				"method": "rhf"
			}
		],
		"cosmo_sigma_profile": { 
			"-0.025": 0.0,
			"-0.024": 0.0,
			"-0.023": 0.0,
			"-0.022": 0.0,
			"-0.021": 0.0,
			"-0.02": 0.0,
			"-0.019": 0.0,
			"-0.018": 0.0,
			"-0.017": 0.0,
			"-0.016": 0.0,
			"-0.015": 0.0,
			"-0.014": 0.492293494325,
			"-0.013": 1.41681044636,
			"-0.012": 2.09783500978,
			"-0.011": 2.56854503471,
			"-0.01": 3.49057111474,
			"-0.009": 3.12697745256,
			"-0.008": 4.16650441424,
			"-0.007": 4.53903208513,
			"-0.006": 16.3399972203,
			"-0.005": 32.9014124338,
			"-0.004": 41.0908695585,
			"-0.003": 42.7511334432,
			"-0.002": 29.2790868555,
			"-0.001": 23.6999413083,
			"0.0": 22.3888200065,
			"0.001": 21.5067949461,
			"0.002": 21.4567401828,
			"0.003": 24.9973383423,
			"0.004": 27.952540398,
			"0.005": 26.1962707092,
			"0.006": 14.462512518,
			"0.007": 7.04489540851,
			"0.008": 4.81390218466,
			"0.009": 5.02376575272,
			"0.01": 5.42071387461,
			"0.011": 3.83066655649,
			"0.012": 2.84181165393,
			"0.013": 4.49178500329,
			"0.014": 2.94305423268,
			"0.015": 0.412119326599,
			"0.016": 0.0,
			"0.017": 0.0,
			"0.018": 0.0,
			"0.019": 0.0,
			"0.02": 0.0,
			"0.021": 0.0,
			"0.022": 0.0,
			"0.023": 0.0,
			"0.024": 0.0,
			"0.025": 0.0
		}
	}
}
