{
	 "smiles": "CC(C)(C)C1(C)OC(=O)CC(=O)O1", 
	 "Tm": 346.15, 
	 "num_atms": 27, 
	 "gaussian": { 
		 "optdone": 1, 
		 "sigma_profile": "yes", 
		 "theory": "DFT", 
		 "functional": "B3LYP", 
		 "basiset": "6-31G**", 
		 "properties": { 
			 "R2extent": 3079.7295, 
			 "electric_dipole_moment_norm": 3.29303626916, 
			 "electric_quadrupole_moment_norm": 14.6596234767, 
			 "total_energy": -652.318043315, 
			 "HOMO_LUMO_gap": 0.26013, 
			 "cosmo_polarized_energy": -13.69, 
			 "cosmo_cavitation_energy": 28.39, 
			 "cosmo_dispersion_energy": -19.97, 
			 "cosmo_repulsion_energy": 1.57, 
			 "cosmo_total_nonelectrostatic_energy": 9.99, 
			 "SMD_solvation_energy": 7.3 
		},
		"coords": [
			{
				"x": 0.8133128662,
				"y": -1.343098028,
				"z": 0.7133645219,
				"element": "C" 
			},
			{
				"x": 0.5336508501,
				"y": -1.1063978467,
				"z": -0.7852213576,
				"element": "C" 
			},
			{
				"x": -0.4429162179,
				"y": -2.1813533798,
				"z": -1.3055987933,
				"element": "C" 
			},
			{
				"x": 1.8604814455,
				"y": -1.2102100127,
				"z": -1.5677237699,
				"element": "C" 
			},
			{
				"x": -0.075763846,
				"y": 0.3164291516,
				"z": -0.9968715712,
				"element": "C" 
			},
			{
				"x": -1.4017326156,
				"y": 0.5755485028,
				"z": -0.2816024637,
				"element": "C" 
			},
			{
				"x": -0.2735411421,
				"y": 0.4562453036,
				"z": -2.4167708926,
				"element": "O" 
			},
			{
				"x": -0.2930223187,
				"y": 1.6746833626,
				"z": -3.020246305,
				"element": "C" 
			},
			{
				"x": -0.5715372291,
				"y": 1.7670542453,
				"z": -4.1869744597,
				"element": "O" 
			},
			{
				"x": 0.0730224092,
				"y": 2.8550693709,
				"z": -2.1417482053,
				"element": "C" 
			},
			{
				"x": 0.9788889779,
				"y": 2.52395016,
				"z": -0.9717247466,
				"element": "C" 
			},
			{
				"x": 1.7377251007,
				"y": 3.3092912815,
				"z": -0.4669885279,
				"element": "O" 
			},
			{
				"x": 0.9099385238,
				"y": 1.2468654263,
				"z": -0.5096397427,
				"element": "O" 
			},
			{
				"x": -0.1061239487,
				"y": -1.3765108834,
				"z": 1.3061433876,
				"element": "H" 
			},
			{
				"x": 1.4646489297,
				"y": -0.5692634916,
				"z": 1.1269188832,
				"element": "H" 
			},
			{
				"x": 1.3128685534,
				"y": -2.3088203789,
				"z": 0.837689212,
				"element": "H" 
			},
			{
				"x": -0.7021695755,
				"y": -2.0139842125,
				"z": -2.3538847892,
				"element": "H" 
			},
			{
				"x": -1.3673186804,
				"y": -2.2191416296,
				"z": -0.7208582717,
				"element": "H" 
			},
			{
				"x": 0.0297599112,
				"y": -3.1651661948,
				"z": -1.2261811694,
				"element": "H" 
			},
			{
				"x": 1.7040926659,
				"y": -1.0652336128,
				"z": -2.6395200764,
				"element": "H" 
			},
			{
				"x": 2.2906491081,
				"y": -2.2056776045,
				"z": -1.4210387852,
				"element": "H" 
			},
			{
				"x": 2.5884614011,
				"y": -0.4737306242,
				"z": -1.2185834702,
				"element": "H" 
			},
			{
				"x": -2.1658765139,
				"y": -0.1211079813,
				"z": -0.6291437407,
				"element": "H" 
			},
			{
				"x": -1.2810960921,
				"y": 0.4690917893,
				"z": 0.7973485724,
				"element": "H" 
			},
			{
				"x": -1.7562878183,
				"y": 1.5899020353,
				"z": -0.4813373501,
				"element": "H" 
			},
			{
				"x": 0.5465015613,
				"y": 3.6231804282,
				"z": -2.754143565,
				"element": "H" 
			},
			{
				"x": -0.8528163059,
				"y": 3.2950848235,
				"z": -1.7493625238,
				"element": "H" 
			}
		],
		 "valence_orbital": [ 
			{
				"type": "occ",
				"energy": -0.33817,
				"method": "rhf"
			},
			{
				"type": "occ",
				"energy": -0.32334,
				"method": "rhf"
			},
			{
				"type": "occ",
				"energy": -0.30966,
				"method": "rhf"
			},
			{
				"type": "occ",
				"energy": -0.29761,
				"method": "rhf"
			},
			{
				"type": "occ",
				"energy": -0.27838,
				"method": "rhf"
			},
			{
				"type": "unocc",
				"energy": -0.01825,
				"method": "rhf"
			},
			{
				"type": "unocc",
				"energy": -0.00287,
				"method": "rhf"
			},
			{
				"type": "unocc",
				"energy": 0.05908,
				"method": "rhf"
			},
			{
				"type": "unocc",
				"energy": 0.0863,
				"method": "rhf"
			},
			{
				"type": "unocc",
				"energy": 0.09667,
				"method": "rhf"
			}
		],
		"cosmo_sigma_profile": { 
			"-0.025": 0.0,
			"-0.024": 0.0,
			"-0.023": 0.0,
			"-0.022": 0.0,
			"-0.021": 0.0,
			"-0.02": 0.0,
			"-0.019": 0.0,
			"-0.018": 0.0,
			"-0.017": 0.0,
			"-0.016": 0.0,
			"-0.015": 0.0,
			"-0.014": 0.0,
			"-0.013": 0.0,
			"-0.012": 1.22732339033,
			"-0.011": 3.5376279692,
			"-0.01": 2.3556514996,
			"-0.009": 4.14582536504,
			"-0.008": 4.96359550534,
			"-0.007": 4.69691443425,
			"-0.006": 5.92472650035,
			"-0.005": 9.61189654774,
			"-0.004": 15.145917592,
			"-0.003": 23.4091123462,
			"-0.002": 20.9474166419,
			"-0.001": 24.004631229,
			"0.0": 23.9265635889,
			"0.001": 19.0780075702,
			"0.002": 5.82354263026,
			"0.003": 4.51476336596,
			"0.004": 4.31082261737,
			"0.005": 3.47340702466,
			"0.006": 3.72023880258,
			"0.007": 4.11397816375,
			"0.008": 3.72064790517,
			"0.009": 5.25299867398,
			"0.01": 7.93096913574,
			"0.011": 11.019286931,
			"0.012": 4.80926980462,
			"0.013": 0.146356641898,
			"0.014": 0.0,
			"0.015": 0.0,
			"0.016": 0.0,
			"0.017": 0.0,
			"0.018": 0.0,
			"0.019": 0.0,
			"0.02": 0.0,
			"0.021": 0.0,
			"0.022": 0.0,
			"0.023": 0.0,
			"0.024": 0.0,
			"0.025": 0.0
		}
	}
}
