{
	 "smiles": "NC(=S)N1CCCC1", 
	 "Tm": 414.15, 
	 "num_atms": 18, 
	 "gaussian": { 
		 "optdone": 1, 
		 "sigma_profile": "yes", 
		 "theory": "DFT", 
		 "functional": "B3LYP", 
		 "basiset": "6-31G**", 
		 "properties": { 
			 "R2extent": 1874.0902, 
			 "electric_dipole_moment_norm": 5.83947505175, 
			 "electric_quadrupole_moment_norm": 22.1531212999, 
			 "total_energy": -704.268158945, 
			 "HOMO_LUMO_gap": 0.20059, 
			 "cosmo_polarized_energy": -16.77, 
			 "cosmo_cavitation_energy": 21.48, 
			 "cosmo_dispersion_energy": -16.83, 
			 "cosmo_repulsion_energy": 1.37, 
			 "cosmo_total_nonelectrostatic_energy": 6.01, 
			 "SMD_solvation_energy": 1.74 
		},
		"coords": [
			{
				"x": 1.991406505,
				"y": -0.9764621261,
				"z": 1.0377346327,
				"element": "N" 
			},
			{
				"x": 2.1525447598,
				"y": -0.377420796,
				"z": -0.1906539572,
				"element": "C" 
			},
			{
				"x": 3.6833662128,
				"y": -0.2213694552,
				"z": -0.8823410626,
				"element": "S" 
			},
			{
				"x": 1.0120307381,
				"y": 0.0241036672,
				"z": -0.7969317177,
				"element": "N" 
			},
			{
				"x": 0.9954950116,
				"y": 0.6756903389,
				"z": -2.1162381229,
				"element": "C" 
			},
			{
				"x": -0.4681359079,
				"y": 1.106045612,
				"z": -2.2801800956,
				"element": "C" 
			},
			{
				"x": -1.2447654059,
				"y": 0.0302931853,
				"z": -1.50325942,
				"element": "C" 
			},
			{
				"x": -0.342449465,
				"y": -0.2466101233,
				"z": -0.2913638511,
				"element": "C" 
			},
			{
				"x": 2.8595711514,
				"y": -1.1363430978,
				"z": 1.5268519378,
				"element": "H" 
			},
			{
				"x": 1.2041468272,
				"y": -0.7204428477,
				"z": 1.618076977,
				"element": "H" 
			},
			{
				"x": 1.706980351,
				"y": 1.5041619442,
				"z": -2.1354227641,
				"element": "H" 
			},
			{
				"x": 1.3072978245,
				"y": -0.0380068565,
				"z": -2.8888581435,
				"element": "H" 
			},
			{
				"x": -0.6261667018,
				"y": 2.0897395424,
				"z": -1.8232824816,
				"element": "H" 
			},
			{
				"x": -0.7640902988,
				"y": 1.1741240503,
				"z": -3.3300259266,
				"element": "H" 
			},
			{
				"x": -2.2501683486,
				"y": 0.3429505995,
				"z": -1.209243344,
				"element": "H" 
			},
			{
				"x": -1.338377556,
				"y": -0.8783175757,
				"z": -2.1080063841,
				"element": "H" 
			},
			{
				"x": -0.4187668673,
				"y": -1.2780571136,
				"z": 0.0693821515,
				"element": "H" 
			},
			{
				"x": -0.58911883,
				"y": 0.425921052,
				"z": 0.545261572,
				"element": "H" 
			}
		],
		 "valence_orbital": [ 
			{
				"type": "occ",
				"energy": -0.34757,
				"method": "rhf"
			},
			{
				"type": "occ",
				"energy": -0.34507,
				"method": "rhf"
			},
			{
				"type": "occ",
				"energy": -0.25629,
				"method": "rhf"
			},
			{
				"type": "occ",
				"energy": -0.20289,
				"method": "rhf"
			},
			{
				"type": "occ",
				"energy": -0.19269,
				"method": "rhf"
			},
			{
				"type": "unocc",
				"energy": 0.0079,
				"method": "rhf"
			},
			{
				"type": "unocc",
				"energy": 0.06458,
				"method": "rhf"
			},
			{
				"type": "unocc",
				"energy": 0.08123,
				"method": "rhf"
			},
			{
				"type": "unocc",
				"energy": 0.09692,
				"method": "rhf"
			},
			{
				"type": "unocc",
				"energy": 0.10623,
				"method": "rhf"
			}
		],
		"cosmo_sigma_profile": { 
			"-0.025": 0.0,
			"-0.024": 0.0,
			"-0.023": 0.0,
			"-0.022": 0.0,
			"-0.021": 0.0,
			"-0.02": 0.0,
			"-0.019": 0.0,
			"-0.018": 0.0,
			"-0.017": 0.0,
			"-0.016": 0.0,
			"-0.015": 0.00200989065374,
			"-0.014": 0.86012145284,
			"-0.013": 2.14044802035,
			"-0.012": 2.34696910082,
			"-0.011": 3.03087794935,
			"-0.01": 2.72511015628,
			"-0.009": 2.28643567095,
			"-0.008": 1.22455581558,
			"-0.007": 2.58174191204,
			"-0.006": 3.75301720137,
			"-0.005": 7.40740857352,
			"-0.004": 21.6796096963,
			"-0.003": 24.1279184678,
			"-0.002": 17.4434721638,
			"-0.001": 13.1443416342,
			"0.0": 8.23766928241,
			"0.001": 3.98160112711,
			"0.002": 3.50512498714,
			"0.003": 2.34626543422,
			"0.004": 3.13727882155,
			"0.005": 4.37810527191,
			"0.006": 4.11406620044,
			"0.007": 4.5494918195,
			"0.008": 4.14313687375,
			"0.009": 4.67010921804,
			"0.01": 5.27864794635,
			"0.011": 4.62379226882,
			"0.012": 8.82601988987,
			"0.013": 3.62919267099,
			"0.014": 0.122575777996,
			"0.015": 0.0,
			"0.016": 0.0,
			"0.017": 0.0,
			"0.018": 0.0,
			"0.019": 0.0,
			"0.02": 0.0,
			"0.021": 0.0,
			"0.022": 0.0,
			"0.023": 0.0,
			"0.024": 0.0,
			"0.025": 0.0
		}
	}
}
