{
	 "smiles": "CC1=CC=C(C=C1)C1=CC=C(O1)C=CC(=O)C1=CC=CO1", 
	 "Tm": 383.15, 
	 "num_atms": 35, 
	 "gaussian": { 
		 "optdone": 1, 
		 "sigma_profile": "yes", 
		 "theory": "DFT", 
		 "functional": "B3LYP", 
		 "basiset": "6-31G**", 
		 "properties": { 
			 "R2extent": 11514.2996, 
			 "electric_dipole_moment_norm": 4.71924527017, 
			 "electric_quadrupole_moment_norm": 32.2333386696, 
			 "total_energy": -919.979148681, 
			 "HOMO_LUMO_gap": 0.12217, 
			 "cosmo_polarized_energy": -13.12, 
			 "cosmo_cavitation_energy": 41.32, 
			 "cosmo_dispersion_energy": -29.52, 
			 "cosmo_repulsion_energy": 2.22, 
			 "cosmo_total_nonelectrostatic_energy": 14.02, 
			 "SMD_solvation_energy": 8.89 
		},
		"coords": [
			{
				"x": 5.2916968183,
				"y": 0.4160883215,
				"z": -2.4193538904,
				"element": "C" 
			},
			{
				"x": 3.8034704515,
				"y": 0.5152742456,
				"z": -2.1872167715,
				"element": "C" 
			},
			{
				"x": 2.9379954984,
				"y": 0.9234334076,
				"z": -3.2135172375,
				"element": "C" 
			},
			{
				"x": 1.5700610469,
				"y": 1.0444425285,
				"z": -2.9998685831,
				"element": "C" 
			},
			{
				"x": 1.0117054428,
				"y": 0.7568802431,
				"z": -1.7407433046,
				"element": "C" 
			},
			{
				"x": 1.8739426959,
				"y": 0.3438888131,
				"z": -0.7100188564,
				"element": "C" 
			},
			{
				"x": 3.2420920551,
				"y": 0.2264246818,
				"z": -0.9362648975,
				"element": "C" 
			},
			{
				"x": -0.4207992432,
				"y": 0.8806971401,
				"z": -1.5178258478,
				"element": "C" 
			},
			{
				"x": -1.4757887234,
				"y": 1.2554590811,
				"z": -2.3252607669,
				"element": "C" 
			},
			{
				"x": -2.6466954478,
				"y": 1.1801745217,
				"z": -1.5343758702,
				"element": "C" 
			},
			{
				"x": -2.258159979,
				"y": 0.7630061186,
				"z": -0.2779915695,
				"element": "C" 
			},
			{
				"x": -0.8942123084,
				"y": 0.581714808,
				"z": -0.2753153233,
				"element": "O" 
			},
			{
				"x": -2.9317168557,
				"y": 0.4918198566,
				"z": 0.9586946514,
				"element": "C" 
			},
			{
				"x": -4.2674535973,
				"y": 0.6129403207,
				"z": 1.1501171281,
				"element": "C" 
			},
			{
				"x": -5.0446086169,
				"y": 0.3588485027,
				"z": 2.373440875,
				"element": "C" 
			},
			{
				"x": -6.2678975968,
				"y": 0.5248794004,
				"z": 2.3573830918,
				"element": "O" 
			},
			{
				"x": -4.4412434206,
				"y": -0.091331417,
				"z": 3.6444815356,
				"element": "C" 
			},
			{
				"x": -5.0678865219,
				"y": -0.3557215421,
				"z": 4.8353782344,
				"element": "C" 
			},
			{
				"x": -4.0556622242,
				"y": -0.7570871972,
				"z": 5.754300875,
				"element": "C" 
			},
			{
				"x": -2.8792414023,
				"y": -0.7109556514,
				"z": 5.0634112094,
				"element": "C" 
			},
			{
				"x": -3.0907716959,
				"y": -0.3100242515,
				"z": 3.7833630775,
				"element": "O" 
			},
			{
				"x": 5.7617629729,
				"y": -0.2750335541,
				"z": -1.7136921787,
				"element": "H" 
			},
			{
				"x": 5.5171906092,
				"y": 0.0714236329,
				"z": -3.433441628,
				"element": "H" 
			},
			{
				"x": 5.7784487896,
				"y": 1.3917416172,
				"z": -2.2939641461,
				"element": "H" 
			},
			{
				"x": 3.3441648113,
				"y": 1.1481471292,
				"z": -4.1966943747,
				"element": "H" 
			},
			{
				"x": 0.9289474118,
				"y": 1.3604309548,
				"z": -3.8172835806,
				"element": "H" 
			},
			{
				"x": 1.4628387867,
				"y": 0.1127320816,
				"z": 0.2665125701,
				"element": "H" 
			},
			{
				"x": 3.8880989471,
				"y": -0.0980940794,
				"z": -0.1242236987,
				"element": "H" 
			},
			{
				"x": -1.4150555884,
				"y": 1.5496737745,
				"z": -3.3626621461,
				"element": "H" 
			},
			{
				"x": -3.657256681,
				"y": 1.4041038982,
				"z": -1.8443242302,
				"element": "H" 
			},
			{
				"x": -2.2881572121,
				"y": 0.1702502772,
				"z": 1.7694772372,
				"element": "H" 
			},
			{
				"x": -4.9096477403,
				"y": 0.9358856308,
				"z": 0.3340290695,
				"element": "H" 
			},
			{
				"x": -6.1297892497,
				"y": -0.2653152979,
				"z": 5.0058566366,
				"element": "H" 
			},
			{
				"x": -4.1807414333,
				"y": -1.0420654953,
				"z": 6.7888574939,
				"element": "H" 
			},
			{
				"x": -1.8542307994,
				"y": -0.9230325016,
				"z": 5.3268352165,
				"element": "H" 
			}
		],
		 "valence_orbital": [ 
			{
				"type": "occ",
				"energy": -0.25993,
				"method": "rhf"
			},
			{
				"type": "occ",
				"energy": -0.25729,
				"method": "rhf"
			},
			{
				"type": "occ",
				"energy": -0.24406,
				"method": "rhf"
			},
			{
				"type": "occ",
				"energy": -0.23411,
				"method": "rhf"
			},
			{
				"type": "occ",
				"energy": -0.19949,
				"method": "rhf"
			},
			{
				"type": "unocc",
				"energy": -0.07732,
				"method": "rhf"
			},
			{
				"type": "unocc",
				"energy": -0.03105,
				"method": "rhf"
			},
			{
				"type": "unocc",
				"energy": -0.00831,
				"method": "rhf"
			},
			{
				"type": "unocc",
				"energy": -0.00266,
				"method": "rhf"
			},
			{
				"type": "unocc",
				"energy": 0.04717,
				"method": "rhf"
			}
		],
		"cosmo_sigma_profile": { 
			"-0.025": 0.0,
			"-0.024": 0.0,
			"-0.023": 0.0,
			"-0.022": 0.0,
			"-0.021": 0.0,
			"-0.02": 0.0,
			"-0.019": 0.0,
			"-0.018": 0.0,
			"-0.017": 0.0,
			"-0.016": 0.0,
			"-0.015": 0.0,
			"-0.014": 0.0,
			"-0.013": 0.0,
			"-0.012": 0.0,
			"-0.011": 0.0,
			"-0.01": 0.883243645126,
			"-0.009": 2.19235749111,
			"-0.008": 7.56500677326,
			"-0.007": 10.6553238553,
			"-0.006": 11.5729288519,
			"-0.005": 17.9871132797,
			"-0.004": 24.6112570381,
			"-0.003": 22.4770906751,
			"-0.002": 22.3559118753,
			"-0.001": 24.751779047,
			"0.0": 32.0468162584,
			"0.001": 35.7795055314,
			"0.002": 35.3422395424,
			"0.003": 31.3406184383,
			"0.004": 20.1389256442,
			"0.005": 12.3446708714,
			"0.006": 2.5217010475,
			"0.007": 1.68479005331,
			"0.008": 1.28293144983,
			"0.009": 1.76911255572,
			"0.01": 1.86326238555,
			"0.011": 1.61870024278,
			"0.012": 3.08624855863,
			"0.013": 5.00475276275,
			"0.014": 1.51327686209,
			"0.015": 0.106127036748,
			"0.016": 0.0,
			"0.017": 0.0,
			"0.018": 0.0,
			"0.019": 0.0,
			"0.02": 0.0,
			"0.021": 0.0,
			"0.022": 0.0,
			"0.023": 0.0,
			"0.024": 0.0,
			"0.025": 0.0
		}
	}
}
