{
	 "smiles": "CN1N=C(C)C2=C1N=CN=C2N", 
	 "Tm": 463.15, 
	 "num_atms": 21, 
	 "gaussian": { 
		 "optdone": 1, 
		 "sigma_profile": "yes", 
		 "theory": "DFT", 
		 "functional": "B3LYP", 
		 "basiset": "6-31G**", 
		 "properties": { 
			 "R2extent": 1936.2571, 
			 "electric_dipole_moment_norm": 2.53422279605, 
			 "electric_quadrupole_moment_norm": 13.4354960939, 
			 "total_energy": -545.936947271, 
			 "HOMO_LUMO_gap": 0.19323, 
			 "cosmo_polarized_energy": -13.42, 
			 "cosmo_cavitation_energy": 24.78, 
			 "cosmo_dispersion_energy": -18.63, 
			 "cosmo_repulsion_energy": 1.48, 
			 "cosmo_total_nonelectrostatic_energy": 7.63, 
			 "SMD_solvation_energy": 0.6 
		},
		"coords": [
			{
				"x": 3.402633315,
				"y": -0.7284306845,
				"z": -0.1383707812,
				"element": "C" 
			},
			{
				"x": 1.9600790161,
				"y": -0.7546240789,
				"z": -0.0194457464,
				"element": "N" 
			},
			{
				"x": 1.2648913441,
				"y": -1.9233319681,
				"z": -0.1608357446,
				"element": "N" 
			},
			{
				"x": -0.0186551283,
				"y": -1.6322293092,
				"z": -0.0056964238,
				"element": "C" 
			},
			{
				"x": -1.0583634658,
				"y": -2.7054805594,
				"z": -0.1039181326,
				"element": "C" 
			},
			{
				"x": -0.1802033192,
				"y": -0.2329890501,
				"z": 0.2451742459,
				"element": "C" 
			},
			{
				"x": 1.1286271043,
				"y": 0.2921691349,
				"z": 0.225502009,
				"element": "C" 
			},
			{
				"x": 1.4762135813,
				"y": 1.5784016149,
				"z": 0.4105326249,
				"element": "N" 
			},
			{
				"x": 0.4154430542,
				"y": 2.3518551845,
				"z": 0.6261454782,
				"element": "C" 
			},
			{
				"x": -0.8847318828,
				"y": 2.0054947098,
				"z": 0.6792231761,
				"element": "N" 
			},
			{
				"x": -1.2021884767,
				"y": 0.7157792466,
				"z": 0.4884518778,
				"element": "C" 
			},
			{
				"x": -2.5264250258,
				"y": 0.394596694,
				"z": 0.5117204923,
				"element": "N" 
			},
			{
				"x": 3.7261941584,
				"y": 0.3025754211,
				"z": 0.0096747874,
				"element": "H" 
			},
			{
				"x": 3.8585400947,
				"y": -1.3717362005,
				"z": 0.6194464285,
				"element": "H" 
			},
			{
				"x": 3.708888653,
				"y": -1.0733727778,
				"z": -1.1299485769,
				"element": "H" 
			},
			{
				"x": -1.602068603,
				"y": -2.8306638467,
				"z": 0.8411813708,
				"element": "H" 
			},
			{
				"x": -1.7940387807,
				"y": -2.4824681291,
				"z": -0.8858282787,
				"element": "H" 
			},
			{
				"x": -0.5806802856,
				"y": -3.6574283435,
				"z": -0.3448342983,
				"element": "H" 
			},
			{
				"x": 0.6185561149,
				"y": 3.4094112768,
				"z": 0.7857287568,
				"element": "H" 
			},
			{
				"x": -2.8133371216,
				"y": -0.5650372684,
				"z": 0.6098974955,
				"element": "H" 
			},
			{
				"x": -3.1543743467,
				"y": 1.1140089335,
				"z": 0.8374992391,
				"element": "H" 
			}
		],
		 "valence_orbital": [ 
			{
				"type": "occ",
				"energy": -0.281,
				"method": "rhf"
			},
			{
				"type": "occ",
				"energy": -0.27306,
				"method": "rhf"
			},
			{
				"type": "occ",
				"energy": -0.25309,
				"method": "rhf"
			},
			{
				"type": "occ",
				"energy": -0.2496,
				"method": "rhf"
			},
			{
				"type": "occ",
				"energy": -0.218,
				"method": "rhf"
			},
			{
				"type": "unocc",
				"energy": -0.02477,
				"method": "rhf"
			},
			{
				"type": "unocc",
				"energy": 0.01101,
				"method": "rhf"
			},
			{
				"type": "unocc",
				"energy": 0.04818,
				"method": "rhf"
			},
			{
				"type": "unocc",
				"energy": 0.06351,
				"method": "rhf"
			},
			{
				"type": "unocc",
				"energy": 0.11427,
				"method": "rhf"
			}
		],
		"cosmo_sigma_profile": { 
			"-0.025": 0.0,
			"-0.024": 0.0,
			"-0.023": 0.0,
			"-0.022": 0.0,
			"-0.021": 0.0,
			"-0.02": 0.0,
			"-0.019": 0.0,
			"-0.018": 0.0,
			"-0.017": 0.0,
			"-0.016": 0.0,
			"-0.015": 0.0,
			"-0.014": 0.8326573896,
			"-0.013": 2.04987528548,
			"-0.012": 2.42644731436,
			"-0.011": 2.19063636865,
			"-0.01": 2.97771453244,
			"-0.009": 2.61188360605,
			"-0.008": 2.37343003272,
			"-0.007": 3.4984720841,
			"-0.006": 9.48392168847,
			"-0.005": 12.7017382855,
			"-0.004": 12.9035131373,
			"-0.003": 16.762342955,
			"-0.002": 12.8479564188,
			"-0.001": 13.6652701548,
			"0.0": 16.6685150786,
			"0.001": 17.5626194355,
			"0.002": 12.1191864709,
			"0.003": 6.9334391327,
			"0.004": 7.11685204179,
			"0.005": 6.08878489881,
			"0.006": 4.80071036495,
			"0.007": 5.20763993405,
			"0.008": 4.57160772277,
			"0.009": 2.92897163831,
			"0.01": 3.05915884363,
			"0.011": 2.85816628909,
			"0.012": 2.98783171582,
			"0.013": 2.61098943651,
			"0.014": 2.38624062629,
			"0.015": 1.74833382195,
			"0.016": 0.361212290994,
			"0.017": 0.0,
			"0.018": 0.0,
			"0.019": 0.0,
			"0.02": 0.0,
			"0.021": 0.0,
			"0.022": 0.0,
			"0.023": 0.0,
			"0.024": 0.0,
			"0.025": 0.0
		}
	}
}
