{
	 "smiles": "COC(=O)C1=CC2=C(NN=C2C)N=C1", 
	 "Tm": 459.15, 
	 "num_atms": 23, 
	 "gaussian": { 
		 "optdone": 1, 
		 "sigma_profile": "yes", 
		 "theory": "DFT", 
		 "functional": "B3LYP", 
		 "basiset": "6-31G**", 
		 "properties": { 
			 "R2extent": 3493.0437, 
			 "electric_dipole_moment_norm": 0.799257386578, 
			 "electric_quadrupole_moment_norm": 8.15143700951, 
			 "total_energy": -663.088396655, 
			 "HOMO_LUMO_gap": 0.1849, 
			 "cosmo_polarized_energy": -11.94, 
			 "cosmo_cavitation_energy": 28.03, 
			 "cosmo_dispersion_energy": -20.76, 
			 "cosmo_repulsion_energy": 1.63, 
			 "cosmo_total_nonelectrostatic_energy": 8.9, 
			 "SMD_solvation_energy": 3.74 
		},
		"coords": [
			{
				"x": 0.0401930587,
				"y": 0.7058869295,
				"z": -5.3013315915,
				"element": "C" 
			},
			{
				"x": 0.2011217322,
				"y": 0.9479721732,
				"z": -3.8947314913,
				"element": "O" 
			},
			{
				"x": -0.1038107778,
				"y": -0.0970779083,
				"z": -3.0914767033,
				"element": "C" 
			},
			{
				"x": -0.4885841953,
				"y": -1.1709297877,
				"z": -3.5144400572,
				"element": "O" 
			},
			{
				"x": 0.0827123927,
				"y": 0.2182805536,
				"z": -1.6519517591,
				"element": "C" 
			},
			{
				"x": -0.2002628965,
				"y": -0.7821668931,
				"z": -0.7197113992,
				"element": "C" 
			},
			{
				"x": -0.0199893001,
				"y": -0.4707111646,
				"z": 0.6277718818,
				"element": "C" 
			},
			{
				"x": 0.4363850424,
				"y": 0.8390779328,
				"z": 0.9342344193,
				"element": "C" 
			},
			{
				"x": 0.5299478347,
				"y": 0.8904191627,
				"z": 2.2881079757,
				"element": "N" 
			},
			{
				"x": 0.1682846248,
				"y": -0.2876495347,
				"z": 2.8784308287,
				"element": "N" 
			},
			{
				"x": -0.1646623465,
				"y": -1.1169091632,
				"z": 1.9033960716,
				"element": "C" 
			},
			{
				"x": -0.6160252027,
				"y": -2.5126349088,
				"z": 2.1956304568,
				"element": "C" 
			},
			{
				"x": 0.7169980598,
				"y": 1.8215931917,
				"z": 0.0687720102,
				"element": "N" 
			},
			{
				"x": 0.5338544636,
				"y": 1.4893269916,
				"z": -1.2062435538,
				"element": "C" 
			},
			{
				"x": -0.9970777305,
				"y": 0.4502200805,
				"z": -5.5316282943,
				"element": "H" 
			},
			{
				"x": 0.6849967128,
				"y": -0.1142103342,
				"z": -5.6268949097,
				"element": "H" 
			},
			{
				"x": 0.3243845774,
				"y": 1.635876923,
				"z": -5.7933083186,
				"element": "H" 
			},
			{
				"x": -0.5445910338,
				"y": -1.7509126064,
				"z": -1.0678421095,
				"element": "H" 
			},
			{
				"x": 0.8231685011,
				"y": 1.6692526364,
				"z": 2.8566735507,
				"element": "H" 
			},
			{
				"x": 0.0422590625,
				"y": -3.2505030116,
				"z": 1.7233809811,
				"element": "H" 
			},
			{
				"x": -0.612051871,
				"y": -2.6833417378,
				"z": 3.273991446,
				"element": "H" 
			},
			{
				"x": -1.6294071955,
				"y": -2.6900471671,
				"z": 1.8182817222,
				"element": "H" 
			},
			{
				"x": 0.7502564871,
				"y": 2.2582876422,
				"z": -1.9417111566,
				"element": "H" 
			}
		],
		 "valence_orbital": [ 
			{
				"type": "occ",
				"energy": -0.30315,
				"method": "rhf"
			},
			{
				"type": "occ",
				"energy": -0.28288,
				"method": "rhf"
			},
			{
				"type": "occ",
				"energy": -0.26925,
				"method": "rhf"
			},
			{
				"type": "occ",
				"energy": -0.25797,
				"method": "rhf"
			},
			{
				"type": "occ",
				"energy": -0.241,
				"method": "rhf"
			},
			{
				"type": "unocc",
				"energy": -0.0561,
				"method": "rhf"
			},
			{
				"type": "unocc",
				"energy": -0.03363,
				"method": "rhf"
			},
			{
				"type": "unocc",
				"energy": 0.03998,
				"method": "rhf"
			},
			{
				"type": "unocc",
				"energy": 0.06608,
				"method": "rhf"
			},
			{
				"type": "unocc",
				"energy": 0.08721,
				"method": "rhf"
			}
		],
		"cosmo_sigma_profile": { 
			"-0.025": 0.0,
			"-0.024": 0.0,
			"-0.023": 0.0,
			"-0.022": 0.0,
			"-0.021": 0.0,
			"-0.02": 0.0,
			"-0.019": 0.0,
			"-0.018": 0.0,
			"-0.017": 0.608222305096,
			"-0.016": 1.66645355143,
			"-0.015": 0.881740673643,
			"-0.014": 0.897182830392,
			"-0.013": 0.97415379642,
			"-0.012": 0.850612594108,
			"-0.011": 0.799534430567,
			"-0.01": 1.00246857376,
			"-0.009": 0.504661924116,
			"-0.008": 0.607896236233,
			"-0.007": 2.99910921643,
			"-0.006": 9.0304106133,
			"-0.005": 15.7028798807,
			"-0.004": 19.2697657394,
			"-0.003": 18.6821251829,
			"-0.002": 16.6181561715,
			"-0.001": 24.5270737943,
			"0.0": 26.8482920588,
			"0.001": 17.5467886664,
			"0.002": 8.93509263719,
			"0.003": 7.67756846093,
			"0.004": 6.12307899965,
			"0.005": 6.04994537216,
			"0.006": 5.17934418499,
			"0.007": 3.57309029708,
			"0.008": 3.59719534651,
			"0.009": 3.85333260397,
			"0.01": 3.58859270996,
			"0.011": 5.04737348468,
			"0.012": 5.89397160796,
			"0.013": 2.07064840572,
			"0.014": 1.58245769496,
			"0.015": 0.924476520706,
			"0.016": 0.0,
			"0.017": 0.0,
			"0.018": 0.0,
			"0.019": 0.0,
			"0.02": 0.0,
			"0.021": 0.0,
			"0.022": 0.0,
			"0.023": 0.0,
			"0.024": 0.0,
			"0.025": 0.0
		}
	}
}
