{
	 "smiles": "CC1=CC(Cl)=C(C=C1N=C=O)N=C=O", 
	 "Tm": 335.15, 
	 "num_atms": 19, 
	 "gaussian": { 
		 "optdone": 1, 
		 "sigma_profile": "yes", 
		 "theory": "DFT", 
		 "functional": "B3LYP", 
		 "basiset": "6-31G**", 
		 "properties": { 
			 "R2extent": 4799.2722, 
			 "electric_dipole_moment_norm": 2.61575360652, 
			 "electric_quadrupole_moment_norm": 13.8010981588, 
			 "total_energy": -1066.11895114, 
			 "HOMO_LUMO_gap": 0.1931, 
			 "cosmo_polarized_energy": -6.16, 
			 "cosmo_cavitation_energy": 28.14, 
			 "cosmo_dispersion_energy": -19.82, 
			 "cosmo_repulsion_energy": 1.57, 
			 "cosmo_total_nonelectrostatic_energy": 9.89, 
			 "SMD_solvation_energy": 9.15 
		},
		"coords": [
			{
				"x": 1.3361003523,
				"y": -2.679307195,
				"z": -3.2071019872,
				"element": "C" 
			},
			{
				"x": 0.8409699151,
				"y": -2.3014936908,
				"z": -1.8356093984,
				"element": "C" 
			},
			{
				"x": 0.091525547,
				"y": -3.1888516404,
				"z": -1.0611687141,
				"element": "C" 
			},
			{
				"x": -0.3697202341,
				"y": -2.8461538434,
				"z": 0.2078631221,
				"element": "C" 
			},
			{
				"x": -1.3038670516,
				"y": -4.0079815224,
				"z": 1.1237019783,
				"element": "Cl" 
			},
			{
				"x": -0.0892041721,
				"y": -1.5786561989,
				"z": 0.7518352719,
				"element": "C" 
			},
			{
				"x": 0.6614756481,
				"y": -0.6822621494,
				"z": -0.0171448665,
				"element": "C" 
			},
			{
				"x": 1.120365551,
				"y": -1.0334066815,
				"z": -1.2886980775,
				"element": "C" 
			},
			{
				"x": 1.8700527054,
				"y": -0.1409726942,
				"z": -2.0590843962,
				"element": "N" 
			},
			{
				"x": 2.3236192016,
				"y": 0.9800500463,
				"z": -2.005758334,
				"element": "C" 
			},
			{
				"x": 2.8158962008,
				"y": 2.0467028693,
				"z": -2.0819357034,
				"element": "O" 
			},
			{
				"x": -0.5107012976,
				"y": -1.1606532866,
				"z": 2.0047591456,
				"element": "N" 
			},
			{
				"x": -1.1402114638,
				"y": -1.5656794584,
				"z": 2.960303648,
				"element": "C" 
			},
			{
				"x": -1.7167026094,
				"y": -1.7990658988,
				"z": 3.9574190776,
				"element": "O" 
			},
			{
				"x": 1.0291271648,
				"y": -3.6948166464,
				"z": -3.4679360639,
				"element": "H" 
			},
			{
				"x": 0.947889875,
				"y": -1.9958770106,
				"z": -3.9699224965,
				"element": "H" 
			},
			{
				"x": 2.4286620545,
				"y": -2.6252548408,
				"z": -3.2620043377,
				"element": "H" 
			},
			{
				"x": -0.1417698845,
				"y": -4.1735599875,
				"z": -1.4517325762,
				"element": "H" 
			},
			{
				"x": 0.8799924977,
				"y": 0.2953398295,
				"z": 0.3979147078,
				"element": "H" 
			}
		],
		 "valence_orbital": [ 
			{
				"type": "occ",
				"energy": -0.32419,
				"method": "rhf"
			},
			{
				"type": "occ",
				"energy": -0.31836,
				"method": "rhf"
			},
			{
				"type": "occ",
				"energy": -0.31133,
				"method": "rhf"
			},
			{
				"type": "occ",
				"energy": -0.2603,
				"method": "rhf"
			},
			{
				"type": "occ",
				"energy": -0.2379,
				"method": "rhf"
			},
			{
				"type": "unocc",
				"energy": -0.0448,
				"method": "rhf"
			},
			{
				"type": "unocc",
				"energy": -0.03573,
				"method": "rhf"
			},
			{
				"type": "unocc",
				"energy": -0.00667,
				"method": "rhf"
			},
			{
				"type": "unocc",
				"energy": 0.0053,
				"method": "rhf"
			},
			{
				"type": "unocc",
				"energy": 0.02924,
				"method": "rhf"
			}
		],
		"cosmo_sigma_profile": { 
			"-0.025": 0.0,
			"-0.024": 0.0,
			"-0.023": 0.0,
			"-0.022": 0.0,
			"-0.021": 0.0,
			"-0.02": 0.0,
			"-0.019": 0.0,
			"-0.018": 0.0,
			"-0.017": 0.0,
			"-0.016": 0.0,
			"-0.015": 0.0,
			"-0.014": 0.0,
			"-0.013": 0.0,
			"-0.012": 0.0,
			"-0.011": 0.0,
			"-0.01": 0.154334796155,
			"-0.009": 2.22262336895,
			"-0.008": 2.93337647581,
			"-0.007": 4.30312048947,
			"-0.006": 5.35366992291,
			"-0.005": 8.22628184187,
			"-0.004": 12.8924677546,
			"-0.003": 21.9624773063,
			"-0.002": 20.9286910138,
			"-0.001": 23.7851247529,
			"0.0": 26.801754662,
			"0.001": 29.6534264113,
			"0.002": 21.2486765906,
			"0.003": 12.8341215664,
			"0.004": 9.45517062141,
			"0.005": 4.67598101443,
			"0.006": 6.19916875542,
			"0.007": 15.0765720796,
			"0.008": 1.83758269013,
			"0.009": 0.0,
			"0.01": 0.0,
			"0.011": 0.0,
			"0.012": 0.0,
			"0.013": 0.0,
			"0.014": 0.0,
			"0.015": 0.0,
			"0.016": 0.0,
			"0.017": 0.0,
			"0.018": 0.0,
			"0.019": 0.0,
			"0.02": 0.0,
			"0.021": 0.0,
			"0.022": 0.0,
			"0.023": 0.0,
			"0.024": 0.0,
			"0.025": 0.0
		}
	}
}
