{
	 "smiles": "OC(=O)C1=CC=C(C=C1)C(=O)C(F)(F)F", 
	 "Tm": 453.15, 
	 "num_atms": 20, 
	 "gaussian": { 
		 "optdone": 1, 
		 "sigma_profile": "yes", 
		 "theory": "DFT", 
		 "functional": "B3LYP", 
		 "basiset": "6-31G**", 
		 "properties": { 
			 "R2extent": 4373.7981, 
			 "electric_dipole_moment_norm": 2.53097593232, 
			 "electric_quadrupole_moment_norm": 13.0653677602, 
			 "total_energy": -871.173456257, 
			 "HOMO_LUMO_gap": 0.17928, 
			 "cosmo_polarized_energy": -10.29, 
			 "cosmo_cavitation_energy": 27.2, 
			 "cosmo_dispersion_energy": -19.43, 
			 "cosmo_repulsion_energy": 1.45, 
			 "cosmo_total_nonelectrostatic_energy": 9.22, 
			 "SMD_solvation_energy": 7.75 
		},
		"coords": [
			{
				"x": -0.5284120998,
				"y": 1.8277920831,
				"z": 4.118254369,
				"element": "O" 
			},
			{
				"x": 0.2592299491,
				"y": 1.0491180325,
				"z": 3.3397819011,
				"element": "C" 
			},
			{
				"x": 1.1893055694,
				"y": 0.4086244677,
				"z": 3.7853138116,
				"element": "O" 
			},
			{
				"x": -0.1424756439,
				"y": 1.0693603772,
				"z": 1.9032859726,
				"element": "C" 
			},
			{
				"x": -1.2283374258,
				"y": 1.8284262835,
				"z": 1.4417596746,
				"element": "C" 
			},
			{
				"x": -1.5573690326,
				"y": 1.8095889781,
				"z": 0.0928213129,
				"element": "C" 
			},
			{
				"x": -0.8105667203,
				"y": 1.035867257,
				"z": -0.8121541889,
				"element": "C" 
			},
			{
				"x": 0.2766133595,
				"y": 0.2768945089,
				"z": -0.3449361143,
				"element": "C" 
			},
			{
				"x": 0.6050414839,
				"y": 0.2967068044,
				"z": 1.0060563187,
				"element": "C" 
			},
			{
				"x": -1.2323418432,
				"y": 1.0737424401,
				"z": -2.2395931765,
				"element": "C" 
			},
			{
				"x": -2.1708562462,
				"y": 1.7292930152,
				"z": -2.6435671918,
				"element": "O" 
			},
			{
				"x": -0.4341604381,
				"y": 0.2311696109,
				"z": -3.2722680612,
				"element": "C" 
			},
			{
				"x": 0.8626236712,
				"y": 0.6122895167,
				"z": -3.2938803106,
				"element": "F" 
			},
			{
				"x": -0.4710744908,
				"y": -1.0796272127,
				"z": -2.9439935611,
				"element": "F" 
			},
			{
				"x": -0.9355347862,
				"y": 0.3731250803,
				"z": -4.4972162243,
				"element": "F" 
			},
			{
				"x": -0.1828931915,
				"y": 1.7414859521,
				"z": 5.0221398534,
				"element": "H" 
			},
			{
				"x": -1.8034699811,
				"y": 2.4245686023,
				"z": 2.1405089737,
				"element": "H" 
			},
			{
				"x": -2.3921503587,
				"y": 2.3877933175,
				"z": -0.2879336836,
				"element": "H" 
			},
			{
				"x": 0.8646414583,
				"y": -0.3256325238,
				"z": -1.0255003547,
				"element": "H" 
			},
			{
				"x": 1.4395867669,
				"y": -0.281086591,
				"z": 1.3876206795,
				"element": "H" 
			}
		],
		 "valence_orbital": [ 
			{
				"type": "occ",
				"energy": -0.33503,
				"method": "rhf"
			},
			{
				"type": "occ",
				"energy": -0.29369,
				"method": "rhf"
			},
			{
				"type": "occ",
				"energy": -0.28793,
				"method": "rhf"
			},
			{
				"type": "occ",
				"energy": -0.28648,
				"method": "rhf"
			},
			{
				"type": "occ",
				"energy": -0.28193,
				"method": "rhf"
			},
			{
				"type": "unocc",
				"energy": -0.10265,
				"method": "rhf"
			},
			{
				"type": "unocc",
				"energy": -0.0319,
				"method": "rhf"
			},
			{
				"type": "unocc",
				"energy": -0.02789,
				"method": "rhf"
			},
			{
				"type": "unocc",
				"energy": 0.05107,
				"method": "rhf"
			},
			{
				"type": "unocc",
				"energy": 0.06463,
				"method": "rhf"
			}
		],
		"cosmo_sigma_profile": { 
			"-0.025": 0.0,
			"-0.024": 0.0,
			"-0.023": 0.0,
			"-0.022": 0.0,
			"-0.021": 0.0,
			"-0.02": 0.0,
			"-0.019": 0.49221744283,
			"-0.018": 0.963461554235,
			"-0.017": 1.20377284062,
			"-0.016": 0.440348631984,
			"-0.015": 0.287676996315,
			"-0.014": 0.56077461191,
			"-0.013": 0.877761432234,
			"-0.012": 1.16988698836,
			"-0.011": 0.668153456729,
			"-0.01": 0.779656953335,
			"-0.009": 0.604778387212,
			"-0.008": 1.82511213073,
			"-0.007": 6.54874029963,
			"-0.006": 9.55993594152,
			"-0.005": 8.70324490848,
			"-0.004": 9.06742625676,
			"-0.003": 13.3518003285,
			"-0.002": 15.1634816287,
			"-0.001": 18.8727087811,
			"0.0": 23.8392747307,
			"0.001": 33.521319196,
			"0.002": 26.567815712,
			"0.003": 5.34501340251,
			"0.004": 4.74546558433,
			"0.005": 5.01579622153,
			"0.006": 4.84527480206,
			"0.007": 4.02341948785,
			"0.008": 4.44137036114,
			"0.009": 5.54039474622,
			"0.01": 4.51343043026,
			"0.011": 4.62271743015,
			"0.012": 1.11232623802,
			"0.013": 0.0,
			"0.014": 0.0,
			"0.015": 0.0,
			"0.016": 0.0,
			"0.017": 0.0,
			"0.018": 0.0,
			"0.019": 0.0,
			"0.02": 0.0,
			"0.021": 0.0,
			"0.022": 0.0,
			"0.023": 0.0,
			"0.024": 0.0,
			"0.025": 0.0
		}
	}
}
