{
	 "smiles": "CCCCOC1=CC=C(C=C1)C1=NOC(N)=C1", 
	 "Tm": 386.15, 
	 "num_atms": 33, 
	 "gaussian": { 
		 "optdone": 1, 
		 "sigma_profile": "yes", 
		 "theory": "DFT", 
		 "functional": "B3LYP", 
		 "basiset": "6-31G**", 
		 "properties": { 
			 "R2extent": 8113.5179, 
			 "electric_dipole_moment_norm": 4.26724383531, 
			 "electric_quadrupole_moment_norm": 34.6670322086, 
			 "total_energy": -764.935349165, 
			 "HOMO_LUMO_gap": 0.18831, 
			 "cosmo_polarized_energy": -16.45, 
			 "cosmo_cavitation_energy": 36.78, 
			 "cosmo_dispersion_energy": -26.74, 
			 "cosmo_repulsion_energy": 2.1, 
			 "cosmo_total_nonelectrostatic_energy": 12.13, 
			 "SMD_solvation_energy": 6.31 
		},
		"coords": [
			{
				"x": -2.8544184158,
				"y": 3.8530409891,
				"z": 2.4623125931,
				"element": "C" 
			},
			{
				"x": -1.6802576642,
				"y": 4.5125717121,
				"z": 1.7297925408,
				"element": "C" 
			},
			{
				"x": -1.5571394398,
				"y": 4.1235441471,
				"z": 0.2474086193,
				"element": "C" 
			},
			{
				"x": -1.2304437396,
				"y": 2.6557106332,
				"z": -0.0033802892,
				"element": "C" 
			},
			{
				"x": 0.0373274443,
				"y": 2.3798469195,
				"z": 0.5929845336,
				"element": "O" 
			},
			{
				"x": 0.5446536582,
				"y": 1.1180703153,
				"z": 0.5118085344,
				"element": "C" 
			},
			{
				"x": -0.0814348918,
				"y": 0.0460860575,
				"z": -0.1347500281,
				"element": "C" 
			},
			{
				"x": 0.5381514265,
				"y": -1.2053862739,
				"z": -0.1525677935,
				"element": "C" 
			},
			{
				"x": 1.776011307,
				"y": -1.4184349431,
				"z": 0.4623951578,
				"element": "C" 
			},
			{
				"x": 2.3926454472,
				"y": -0.3281770639,
				"z": 1.1074359959,
				"element": "C" 
			},
			{
				"x": 1.7895726968,
				"y": 0.9180192269,
				"z": 1.1324805938,
				"element": "C" 
			},
			{
				"x": 2.4244428897,
				"y": -2.7402067275,
				"z": 0.4401813181,
				"element": "C" 
			},
			{
				"x": 3.618558526,
				"y": -2.8970820516,
				"z": 0.9840479226,
				"element": "N" 
			},
			{
				"x": 3.9362580708,
				"y": -4.2632119938,
				"z": 0.7936767033,
				"element": "O" 
			},
			{
				"x": 2.9226437666,
				"y": -4.8593373382,
				"z": 0.1435952025,
				"element": "C" 
			},
			{
				"x": 3.1050179105,
				"y": -6.1862110063,
				"z": -0.169941361,
				"element": "N" 
			},
			{
				"x": 1.9252299158,
				"y": -3.9584355263,
				"z": -0.1137975672,
				"element": "C" 
			},
			{
				"x": -2.9203185763,
				"y": 4.2100644896,
				"z": 3.4950871314,
				"element": "H" 
			},
			{
				"x": -2.7518462456,
				"y": 2.7634795738,
				"z": 2.5036156224,
				"element": "H" 
			},
			{
				"x": -3.8086449638,
				"y": 4.0795118773,
				"z": 1.9717966484,
				"element": "H" 
			},
			{
				"x": -0.7417246839,
				"y": 4.2653702919,
				"z": 2.2380855823,
				"element": "H" 
			},
			{
				"x": -1.7867652072,
				"y": 5.6027263478,
				"z": 1.789166406,
				"element": "H" 
			},
			{
				"x": -2.4954141205,
				"y": 4.3482398679,
				"z": -0.2777471153,
				"element": "H" 
			},
			{
				"x": -0.7773780276,
				"y": 4.7313868216,
				"z": -0.2266297044,
				"element": "H" 
			},
			{
				"x": -1.9962395405,
				"y": 1.9967262984,
				"z": 0.4287736276,
				"element": "H" 
			},
			{
				"x": -1.1865667463,
				"y": 2.4541871229,
				"z": -1.0830327571,
				"element": "H" 
			},
			{
				"x": -1.0393789345,
				"y": 0.1710395058,
				"z": -0.6247795798,
				"element": "H" 
			},
			{
				"x": 0.0379641333,
				"y": -2.0231186999,
				"z": -0.6624280865,
				"element": "H" 
			},
			{
				"x": 3.3531833932,
				"y": -0.4779266885,
				"z": 1.5884146229,
				"element": "H" 
			},
			{
				"x": 2.2604522783,
				"y": 1.7605239343,
				"z": 1.6285202156,
				"element": "H" 
			},
			{
				"x": 2.2545053086,
				"y": -6.7161659088,
				"z": -0.2941016961,
				"element": "H" 
			},
			{
				"x": 3.7883757184,
				"y": -6.658282871,
				"z": 0.4073247667,
				"element": "H" 
			},
			{
				"x": 0.9908773059,
				"y": -4.1390690393,
				"z": -0.6199483601,
				"element": "H" 
			}
		],
		 "valence_orbital": [ 
			{
				"type": "occ",
				"energy": -0.28744,
				"method": "rhf"
			},
			{
				"type": "occ",
				"energy": -0.28248,
				"method": "rhf"
			},
			{
				"type": "occ",
				"energy": -0.24932,
				"method": "rhf"
			},
			{
				"type": "occ",
				"energy": -0.21688,
				"method": "rhf"
			},
			{
				"type": "occ",
				"energy": -0.20569,
				"method": "rhf"
			},
			{
				"type": "unocc",
				"energy": -0.01738,
				"method": "rhf"
			},
			{
				"type": "unocc",
				"energy": 0.00105,
				"method": "rhf"
			},
			{
				"type": "unocc",
				"energy": 0.04046,
				"method": "rhf"
			},
			{
				"type": "unocc",
				"energy": 0.06598,
				"method": "rhf"
			},
			{
				"type": "unocc",
				"energy": 0.08434,
				"method": "rhf"
			}
		],
		"cosmo_sigma_profile": { 
			"-0.025": 0.0,
			"-0.024": 0.0,
			"-0.023": 0.0,
			"-0.022": 0.0,
			"-0.021": 0.0,
			"-0.02": 0.0,
			"-0.019": 0.0,
			"-0.018": 0.0,
			"-0.017": 0.0,
			"-0.016": 0.0,
			"-0.015": 0.295103627133,
			"-0.014": 2.74854229665,
			"-0.013": 2.44199842049,
			"-0.012": 2.8763771589,
			"-0.011": 3.08013037719,
			"-0.01": 2.53104660719,
			"-0.009": 1.49271480258,
			"-0.008": 3.75276114939,
			"-0.007": 6.33619585174,
			"-0.006": 8.21332694497,
			"-0.005": 12.787562293,
			"-0.004": 17.3272870452,
			"-0.003": 22.114200904,
			"-0.002": 23.8064998426,
			"-0.001": 24.4487163346,
			"0.0": 23.4455614882,
			"0.001": 23.3246190474,
			"0.002": 18.4511978151,
			"0.003": 21.2235618932,
			"0.004": 22.318128847,
			"0.005": 15.4490182817,
			"0.006": 6.30463322121,
			"0.007": 3.93178464941,
			"0.008": 5.42267878997,
			"0.009": 6.03612210634,
			"0.01": 2.97176742452,
			"0.011": 2.54946252467,
			"0.012": 2.07708492898,
			"0.013": 1.01599542191,
			"0.014": 1.46984904079,
			"0.015": 0.283655440014,
			"0.016": 0.0,
			"0.017": 0.0,
			"0.018": 0.0,
			"0.019": 0.0,
			"0.02": 0.0,
			"0.021": 0.0,
			"0.022": 0.0,
			"0.023": 0.0,
			"0.024": 0.0,
			"0.025": 0.0
		}
	}
}
