{
	 "smiles": "O=C(NC1CC1)C(=O)N1CCNCC1", 
	 "Tm": 374.15, 
	 "num_atms": 29, 
	 "gaussian": { 
		 "optdone": 1, 
		 "sigma_profile": "yes", 
		 "theory": "DFT", 
		 "functional": "B3LYP", 
		 "basiset": "6-31G**", 
		 "properties": { 
			 "R2extent": 3468.1337, 
			 "electric_dipole_moment_norm": 3.14637287205, 
			 "electric_quadrupole_moment_norm": 10.209579987, 
			 "total_energy": -666.66819319, 
			 "HOMO_LUMO_gap": 0.20104, 
			 "cosmo_polarized_energy": -16.0, 
			 "cosmo_cavitation_energy": 31.03, 
			 "cosmo_dispersion_energy": -22.14, 
			 "cosmo_repulsion_energy": 1.78, 
			 "cosmo_total_nonelectrostatic_energy": 10.66, 
			 "SMD_solvation_energy": 2.08 
		},
		"coords": [
			{
				"x": -0.0906763232,
				"y": 2.3158235586,
				"z": -0.8420507391,
				"element": "O" 
			},
			{
				"x": 0.7160660603,
				"y": 1.530154695,
				"z": -0.3526128688,
				"element": "C" 
			},
			{
				"x": 1.9141345323,
				"y": 1.2560241945,
				"z": -0.9421206299,
				"element": "N" 
			},
			{
				"x": 2.983695604,
				"y": 0.4246787307,
				"z": -0.4544683225,
				"element": "C" 
			},
			{
				"x": 3.7849617629,
				"y": -0.3313021151,
				"z": -1.4811504577,
				"element": "C" 
			},
			{
				"x": 2.8579223582,
				"y": -1.0747864646,
				"z": -0.5507056533,
				"element": "C" 
			},
			{
				"x": 0.4618572357,
				"y": 0.86761088,
				"z": 1.0133992037,
				"element": "C" 
			},
			{
				"x": 1.3601425394,
				"y": 0.8420533101,
				"z": 1.8553077601,
				"element": "O" 
			},
			{
				"x": -0.7939278726,
				"y": 0.4137676265,
				"z": 1.2659409374,
				"element": "N" 
			},
			{
				"x": -1.06116168,
				"y": -0.0740265547,
				"z": 2.6299822395,
				"element": "C" 
			},
			{
				"x": -2.5733295965,
				"y": -0.140025201,
				"z": 2.8594273842,
				"element": "C" 
			},
			{
				"x": -3.2952743542,
				"y": -0.9593387629,
				"z": 1.8786240676,
				"element": "N" 
			},
			{
				"x": -2.7219291427,
				"y": -0.9097065805,
				"z": 0.5223302412,
				"element": "C" 
			},
			{
				"x": -1.9111042439,
				"y": 0.3691239981,
				"z": 0.3109845365,
				"element": "C" 
			},
			{
				"x": 2.0930887614,
				"y": 1.8353899069,
				"z": -1.7537133496,
				"element": "H" 
			},
			{
				"x": 3.5048882089,
				"y": 0.8146567985,
				"z": 0.4139909743,
				"element": "H" 
			},
			{
				"x": 4.856779925,
				"y": -0.4087387472,
				"z": -1.3295423421,
				"element": "H" 
			},
			{
				"x": 3.4830193056,
				"y": -0.2419243414,
				"z": -2.5209427014,
				"element": "H" 
			},
			{
				"x": 3.2819928621,
				"y": -1.6653635337,
				"z": 0.2546692068,
				"element": "H" 
			},
			{
				"x": 1.9403665149,
				"y": -1.472004959,
				"z": -0.9730618002,
				"element": "H" 
			},
			{
				"x": -0.6035178598,
				"y": -1.0638419696,
				"z": 2.7679333861,
				"element": "H" 
			},
			{
				"x": -0.5759897742,
				"y": 0.6003070222,
				"z": 3.3417844465,
				"element": "H" 
			},
			{
				"x": -2.9765860593,
				"y": 0.8810598285,
				"z": 2.8471333287,
				"element": "H" 
			},
			{
				"x": -2.7708213273,
				"y": -0.5355051781,
				"z": 3.8602080608,
				"element": "H" 
			},
			{
				"x": -3.3341338293,
				"y": -1.9215342937,
				"z": 2.1959256858,
				"element": "H" 
			},
			{
				"x": -3.5274394728,
				"y": -0.9377087352,
				"z": -0.2233614077,
				"element": "H" 
			},
			{
				"x": -2.0625672313,
				"y": -1.7680152747,
				"z": 0.3149114119,
				"element": "H" 
			},
			{
				"x": -1.5242195058,
				"y": 0.4010434868,
				"z": -0.70566876,
				"element": "H" 
			},
			{
				"x": -2.5513373978,
				"y": 1.2513286751,
				"z": 0.4305461612,
				"element": "H" 
			}
		],
		 "valence_orbital": [ 
			{
				"type": "occ",
				"energy": -0.28828,
				"method": "rhf"
			},
			{
				"type": "occ",
				"energy": -0.25097,
				"method": "rhf"
			},
			{
				"type": "occ",
				"energy": -0.24089,
				"method": "rhf"
			},
			{
				"type": "occ",
				"energy": -0.22992,
				"method": "rhf"
			},
			{
				"type": "occ",
				"energy": -0.22169,
				"method": "rhf"
			},
			{
				"type": "unocc",
				"energy": -0.02065,
				"method": "rhf"
			},
			{
				"type": "unocc",
				"energy": 0.06895,
				"method": "rhf"
			},
			{
				"type": "unocc",
				"energy": 0.07027,
				"method": "rhf"
			},
			{
				"type": "unocc",
				"energy": 0.09337,
				"method": "rhf"
			},
			{
				"type": "unocc",
				"energy": 0.10254,
				"method": "rhf"
			}
		],
		"cosmo_sigma_profile": { 
			"-0.025": 0.0,
			"-0.024": 0.0,
			"-0.023": 0.0,
			"-0.022": 0.0,
			"-0.021": 0.0,
			"-0.02": 0.0,
			"-0.019": 0.0,
			"-0.018": 0.0,
			"-0.017": 0.0,
			"-0.016": 0.0,
			"-0.015": 0.0,
			"-0.014": 0.357461248047,
			"-0.013": 1.0253491232,
			"-0.012": 0.96659609845,
			"-0.011": 1.08106255603,
			"-0.01": 1.99561477981,
			"-0.009": 2.59507814863,
			"-0.008": 2.44537645251,
			"-0.007": 2.41219905272,
			"-0.006": 7.14598234113,
			"-0.005": 18.2559172045,
			"-0.004": 32.2271572711,
			"-0.003": 32.8959696434,
			"-0.002": 22.0923450843,
			"-0.001": 19.5028176396,
			"0.0": 15.3527284438,
			"0.001": 13.1317032676,
			"0.002": 8.21556068731,
			"0.003": 6.96210241832,
			"0.004": 6.58344239872,
			"0.005": 3.98267103227,
			"0.006": 4.94340760041,
			"0.007": 3.99232080793,
			"0.008": 3.24591071877,
			"0.009": 3.9718841569,
			"0.01": 3.38663699656,
			"0.011": 3.85797741239,
			"0.012": 6.02124404529,
			"0.013": 9.16983368693,
			"0.014": 2.47396741105,
			"0.015": 0.381710614556,
			"0.016": 0.244367179756,
			"0.017": 0.765728903416,
			"0.018": 0.397147760584,
			"0.019": 0.0,
			"0.02": 0.0,
			"0.021": 0.0,
			"0.022": 0.0,
			"0.023": 0.0,
			"0.024": 0.0,
			"0.025": 0.0
		}
	}
}
