{
	 "smiles": "NC1=NON=C1C1=C(Cl)C=C(Cl)C=C1", 
	 "Tm": 379.15, 
	 "num_atms": 19, 
	 "gaussian": { 
		 "optdone": 1, 
		 "sigma_profile": "yes", 
		 "theory": "DFT", 
		 "functional": "B3LYP", 
		 "basiset": "6-31G**", 
		 "properties": { 
			 "R2extent": 3913.8105, 
			 "electric_dipole_moment_norm": 3.19821705486, 
			 "electric_quadrupole_moment_norm": 15.7613889953, 
			 "total_energy": -1467.64233624, 
			 "HOMO_LUMO_gap": 0.18909, 
			 "cosmo_polarized_energy": -11.43, 
			 "cosmo_cavitation_energy": 27.78, 
			 "cosmo_dispersion_energy": -20.68, 
			 "cosmo_repulsion_energy": 1.63, 
			 "cosmo_total_nonelectrostatic_energy": 8.73, 
			 "SMD_solvation_energy": 3.55 
		},
		"coords": [
			{
				"x": -0.93093956,
				"y": -1.916445227,
				"z": 2.0904919875,
				"element": "N" 
			},
			{
				"x": -1.7069339519,
				"y": -0.8854303711,
				"z": 1.6083966256,
				"element": "C" 
			},
			{
				"x": -2.8959232085,
				"y": -0.606117349,
				"z": 2.0889281523,
				"element": "N" 
			},
			{
				"x": -3.4023569788,
				"y": 0.3827371008,
				"z": 1.2620694542,
				"element": "O" 
			},
			{
				"x": -2.5162306627,
				"y": 0.718413917,
				"z": 0.2874976154,
				"element": "N" 
			},
			{
				"x": -1.4579048416,
				"y": -0.0355042777,
				"z": 0.46783402,
				"element": "C" 
			},
			{
				"x": -0.3402290079,
				"y": 0.003680171,
				"z": -0.4944136713,
				"element": "C" 
			},
			{
				"x": 1.0110046042,
				"y": 0.1342932564,
				"z": -0.1368721371,
				"element": "C" 
			},
			{
				"x": 1.4825287845,
				"y": 0.3270460732,
				"z": 1.5491150476,
				"element": "Cl" 
			},
			{
				"x": 2.0290840811,
				"y": 0.1623899376,
				"z": -1.0884269173,
				"element": "C" 
			},
			{
				"x": 1.6899219138,
				"y": 0.0718691292,
				"z": -2.4364908191,
				"element": "C" 
			},
			{
				"x": 2.9620853374,
				"y": 0.1032056265,
				"z": -3.6388487547,
				"element": "Cl" 
			},
			{
				"x": 0.3585604769,
				"y": -0.0370214711,
				"z": -2.8378575018,
				"element": "C" 
			},
			{
				"x": -0.6358907771,
				"y": -0.0713985447,
				"z": -1.867012855,
				"element": "C" 
			},
			{
				"x": 0.0603290447,
				"y": -1.7184443115,
				"z": 2.1292779841,
				"element": "H" 
			},
			{
				"x": -1.2841628128,
				"y": -2.3068433974,
				"z": 2.9550075109,
				"element": "H" 
			},
			{
				"x": 3.0623316407,
				"y": 0.2671044907,
				"z": -0.7820140748,
				"element": "H" 
			},
			{
				"x": 0.1078345163,
				"y": -0.1001413486,
				"z": -3.890307054,
				"element": "H" 
			},
			{
				"x": -1.6754085981,
				"y": -0.1622934042,
				"z": -2.1620746125,
				"element": "H" 
			}
		],
		 "valence_orbital": [ 
			{
				"type": "occ",
				"energy": -0.31438,
				"method": "rhf"
			},
			{
				"type": "occ",
				"energy": -0.31169,
				"method": "rhf"
			},
			{
				"type": "occ",
				"energy": -0.28088,
				"method": "rhf"
			},
			{
				"type": "occ",
				"energy": -0.26676,
				"method": "rhf"
			},
			{
				"type": "occ",
				"energy": -0.24931,
				"method": "rhf"
			},
			{
				"type": "unocc",
				"energy": -0.06022,
				"method": "rhf"
			},
			{
				"type": "unocc",
				"energy": -0.04137,
				"method": "rhf"
			},
			{
				"type": "unocc",
				"energy": -0.02598,
				"method": "rhf"
			},
			{
				"type": "unocc",
				"energy": -0.00986,
				"method": "rhf"
			},
			{
				"type": "unocc",
				"energy": 0.03222,
				"method": "rhf"
			}
		],
		"cosmo_sigma_profile": { 
			"-0.025": 0.0,
			"-0.024": 0.0,
			"-0.023": 0.0,
			"-0.022": 0.0,
			"-0.021": 0.0,
			"-0.02": 0.0,
			"-0.019": 0.0,
			"-0.018": 0.0,
			"-0.017": 0.0,
			"-0.016": 0.0,
			"-0.015": 0.059548133014,
			"-0.014": 1.03954513459,
			"-0.013": 1.32664291267,
			"-0.012": 1.69929262099,
			"-0.011": 2.3462456834,
			"-0.01": 1.77917462219,
			"-0.009": 3.36695874722,
			"-0.008": 7.49664935718,
			"-0.007": 6.76811508847,
			"-0.006": 7.73025298438,
			"-0.005": 6.61429939096,
			"-0.004": 8.83428267713,
			"-0.003": 13.0462903781,
			"-0.002": 14.8316559238,
			"-0.001": 19.7414584428,
			"0.0": 27.0091154633,
			"0.001": 22.555816909,
			"0.002": 15.4380345214,
			"0.003": 17.7158655811,
			"0.004": 12.4970881197,
			"0.005": 6.35514551626,
			"0.006": 8.88111483479,
			"0.007": 7.05138930561,
			"0.008": 3.30557089119,
			"0.009": 3.09624100306,
			"0.01": 2.44557287059,
			"0.011": 3.14236180806,
			"0.012": 1.79944542357,
			"0.013": 0.479860097674,
			"0.014": 0.0,
			"0.015": 0.0,
			"0.016": 0.0,
			"0.017": 0.0,
			"0.018": 0.0,
			"0.019": 0.0,
			"0.02": 0.0,
			"0.021": 0.0,
			"0.022": 0.0,
			"0.023": 0.0,
			"0.024": 0.0,
			"0.025": 0.0
		}
	}
}
