{
	 "smiles": "CC1CCC2=CC=C(CCC(C)=NNC(N)=O)C=C2N1", 
	 "Tm": 401.15, 
	 "num_atms": 42, 
	 "gaussian": { 
		 "optdone": 1, 
		 "sigma_profile": "yes", 
		 "theory": "DFT", 
		 "functional": "B3LYP", 
		 "basiset": "6-31G**", 
		 "properties": { 
			 "R2extent": 6520.1597, 
			 "electric_dipole_moment_norm": 4.54670715353, 
			 "electric_quadrupole_moment_norm": 19.7761941604, 
			 "total_energy": -879.096559843, 
			 "HOMO_LUMO_gap": 0.19165, 
			 "cosmo_polarized_energy": -19.22, 
			 "cosmo_cavitation_energy": 43.26, 
			 "cosmo_dispersion_energy": -28.66, 
			 "cosmo_repulsion_energy": 2.24, 
			 "cosmo_total_nonelectrostatic_energy": 16.84, 
			 "SMD_solvation_energy": 5.92 
		},
		"coords": [
			{
				"x": -1.1176928953,
				"y": 4.3723613707,
				"z": -0.7508631218,
				"element": "C" 
			},
			{
				"x": -1.4330702904,
				"y": 2.9466473542,
				"z": -1.2019478672,
				"element": "C" 
			},
			{
				"x": -2.654615519,
				"y": 2.3592640823,
				"z": -0.4838424065,
				"element": "C" 
			},
			{
				"x": -2.9349667144,
				"y": 0.9297680344,
				"z": -0.9673933215,
				"element": "C" 
			},
			{
				"x": -1.6776959502,
				"y": 0.0812942276,
				"z": -0.993507133,
				"element": "C" 
			},
			{
				"x": -1.7377402515,
				"y": -1.3156045433,
				"z": -1.0316806079,
				"element": "C" 
			},
			{
				"x": -0.5900476137,
				"y": -2.1024935797,
				"z": -1.0984258128,
				"element": "C" 
			},
			{
				"x": 0.6746811148,
				"y": -1.49484287,
				"z": -1.120062898,
				"element": "C" 
			},
			{
				"x": 1.9312800878,
				"y": -2.3394494545,
				"z": -1.148760448,
				"element": "C" 
			},
			{
				"x": 2.3355200666,
				"y": -2.9385799798,
				"z": 0.2291129627,
				"element": "C" 
			},
			{
				"x": 2.8778681178,
				"y": -1.8947137939,
				"z": 1.186823694,
				"element": "C" 
			},
			{
				"x": 4.3623015019,
				"y": -1.635564222,
				"z": 1.1197228871,
				"element": "C" 
			},
			{
				"x": 2.2327166851,
				"y": -1.1632893505,
				"z": 2.0225412503,
				"element": "N" 
			},
			{
				"x": 0.8470317056,
				"y": -1.3729630561,
				"z": 2.1430192913,
				"element": "N" 
			},
			{
				"x": 0.3070191675,
				"y": -2.5336290664,
				"z": 2.6867827387,
				"element": "C" 
			},
			{
				"x": -1.0447879946,
				"y": -2.3769872651,
				"z": 2.9982850438,
				"element": "N" 
			},
			{
				"x": 0.9231647675,
				"y": -3.5712163931,
				"z": 2.8789442649,
				"element": "O" 
			},
			{
				"x": 0.7473068341,
				"y": -0.1033759261,
				"z": -1.0867863985,
				"element": "C" 
			},
			{
				"x": -0.4078599554,
				"y": 0.6968442245,
				"z": -1.0167743718,
				"element": "C" 
			},
			{
				"x": -0.2870997582,
				"y": 2.0843116135,
				"z": -0.9223005075,
				"element": "N" 
			},
			{
				"x": -1.9532037876,
				"y": 5.0418870256,
				"z": -0.977478163,
				"element": "H" 
			},
			{
				"x": -0.2314229008,
				"y": 4.7636994109,
				"z": -1.2640877174,
				"element": "H" 
			},
			{
				"x": -0.9261575143,
				"y": 4.4018617119,
				"z": 0.3265312386,
				"element": "H" 
			},
			{
				"x": -1.6552670698,
				"y": 2.9645121158,
				"z": -2.2854191331,
				"element": "H" 
			},
			{
				"x": -2.4536707881,
				"y": 2.3618118228,
				"z": 0.5948858996,
				"element": "H" 
			},
			{
				"x": -3.526396132,
				"y": 2.9996603496,
				"z": -0.6567980939,
				"element": "H" 
			},
			{
				"x": -3.3717913751,
				"y": 0.9712942432,
				"z": -1.9757600158,
				"element": "H" 
			},
			{
				"x": -3.6950899066,
				"y": 0.4584142771,
				"z": -0.3325056596,
				"element": "H" 
			},
			{
				"x": -2.7159235746,
				"y": -1.793699365,
				"z": -1.0268281353,
				"element": "H" 
			},
			{
				"x": -0.6729109112,
				"y": -3.1856757189,
				"z": -1.1331078175,
				"element": "H" 
			},
			{
				"x": 2.7649243406,
				"y": -1.7519980099,
				"z": -1.551836999,
				"element": "H" 
			},
			{
				"x": 1.7845972547,
				"y": -3.1804880989,
				"z": -1.8370592345,
				"element": "H" 
			},
			{
				"x": 3.1264222529,
				"y": -3.6780889954,
				"z": 0.0568213126,
				"element": "H" 
			},
			{
				"x": 1.4969344126,
				"y": -3.4763907494,
				"z": 0.6686556418,
				"element": "H" 
			},
			{
				"x": 4.6262197007,
				"y": -0.7681659883,
				"z": 1.726664857,
				"element": "H" 
			},
			{
				"x": 4.6863214761,
				"y": -1.4708248275,
				"z": 0.0846943379,
				"element": "H" 
			},
			{
				"x": 4.9150356383,
				"y": -2.5077393104,
				"z": 1.4901291933,
				"element": "H" 
			},
			{
				"x": 0.4104810214,
				"y": -0.5244788153,
				"z": 2.47860441,
				"element": "H" 
			},
			{
				"x": -1.4794036142,
				"y": -3.2657549494,
				"z": 3.2059367506,
				"element": "H" 
			},
			{
				"x": -1.5794535421,
				"y": -1.8109972388,
				"z": 2.3507504214,
				"element": "H" 
			},
			{
				"x": 1.7209772941,
				"y": 0.383142967,
				"z": -1.0967981506,
				"element": "H" 
			},
			{
				"x": 0.6007646193,
				"y": 2.4476367368,
				"z": -1.2431821817,
				"element": "H" 
			}
		],
		 "valence_orbital": [ 
			{
				"type": "occ",
				"energy": -0.26818,
				"method": "rhf"
			},
			{
				"type": "occ",
				"energy": -0.24683,
				"method": "rhf"
			},
			{
				"type": "occ",
				"energy": -0.23094,
				"method": "rhf"
			},
			{
				"type": "occ",
				"energy": -0.21265,
				"method": "rhf"
			},
			{
				"type": "occ",
				"energy": -0.18951,
				"method": "rhf"
			},
			{
				"type": "unocc",
				"energy": 0.00214,
				"method": "rhf"
			},
			{
				"type": "unocc",
				"energy": 0.00949,
				"method": "rhf"
			},
			{
				"type": "unocc",
				"energy": 0.01845,
				"method": "rhf"
			},
			{
				"type": "unocc",
				"energy": 0.05764,
				"method": "rhf"
			},
			{
				"type": "unocc",
				"energy": 0.07797,
				"method": "rhf"
			}
		],
		"cosmo_sigma_profile": { 
			"-0.025": 0.0,
			"-0.024": 0.0,
			"-0.023": 0.0,
			"-0.022": 0.0,
			"-0.021": 0.0,
			"-0.02": 0.0,
			"-0.019": 0.0,
			"-0.018": 0.0,
			"-0.017": 0.0,
			"-0.016": 0.0,
			"-0.015": 0.0,
			"-0.014": 0.520980249348,
			"-0.013": 1.7450865428,
			"-0.012": 2.79307323329,
			"-0.011": 4.17883468631,
			"-0.01": 4.0758064451,
			"-0.009": 4.32547078451,
			"-0.008": 4.24947310485,
			"-0.007": 4.06585652189,
			"-0.006": 3.33647581439,
			"-0.005": 9.69775250921,
			"-0.004": 25.3751257135,
			"-0.003": 36.3986683506,
			"-0.002": 43.9117330877,
			"-0.001": 39.2232790714,
			"0.0": 35.4844612964,
			"0.001": 24.2326935909,
			"0.002": 13.3259869613,
			"0.003": 9.21100248006,
			"0.004": 9.88573054863,
			"0.005": 10.4479770511,
			"0.006": 8.51272981718,
			"0.007": 7.55781363846,
			"0.008": 7.87348301333,
			"0.009": 5.24245840346,
			"0.01": 3.1778049853,
			"0.011": 3.44644305301,
			"0.012": 3.32814940976,
			"0.013": 4.71038276573,
			"0.014": 5.60395865995,
			"0.015": 1.13832483372,
			"0.016": 0.024399958715,
			"0.017": 0.0,
			"0.018": 0.0,
			"0.019": 0.0,
			"0.02": 0.0,
			"0.021": 0.0,
			"0.022": 0.0,
			"0.023": 0.0,
			"0.024": 0.0,
			"0.025": 0.0
		}
	}
}
