{
	 "smiles": "CSC1=NC(=NC(N)=N1)C1=CC(Cl)=CC(Cl)=C1", 
	 "Tm": 488.15, 
	 "num_atms": 25, 
	 "gaussian": { 
		 "optdone": 1, 
		 "sigma_profile": "yes", 
		 "theory": "DFT", 
		 "functional": "B3LYP", 
		 "basiset": "6-31G**", 
		 "properties": { 
			 "R2extent": 7569.496, 
			 "electric_dipole_moment_norm": 2.02341941031, 
			 "electric_quadrupole_moment_norm": 14.6846240585, 
			 "total_energy": -1923.50157626, 
			 "HOMO_LUMO_gap": 0.17044, 
			 "cosmo_polarized_energy": -11.22, 
			 "cosmo_cavitation_energy": 35.79, 
			 "cosmo_dispersion_energy": -26.55, 
			 "cosmo_repulsion_energy": 2.05, 
			 "cosmo_total_nonelectrostatic_energy": 11.29, 
			 "SMD_solvation_energy": 2.34 
		},
		"coords": [
			{
				"x": -0.8905161613,
				"y": -1.2808179225,
				"z": -4.374606291,
				"element": "C" 
			},
			{
				"x": -1.7920298471,
				"y": -2.7661408308,
				"z": -3.8182728985,
				"element": "S" 
			},
			{
				"x": -1.8728796428,
				"y": -2.5089743166,
				"z": -2.0717074849,
				"element": "C" 
			},
			{
				"x": -1.3264830884,
				"y": -1.4091077656,
				"z": -1.5389371072,
				"element": "N" 
			},
			{
				"x": -1.4489351593,
				"y": -1.3201609484,
				"z": -0.2019983943,
				"element": "C" 
			},
			{
				"x": -2.0513374927,
				"y": -2.2177588572,
				"z": 0.5783191309,
				"element": "N" 
			},
			{
				"x": -2.5618251678,
				"y": -3.2821711448,
				"z": -0.0786534517,
				"element": "C" 
			},
			{
				"x": -3.1833998837,
				"y": -4.2231799044,
				"z": 0.6624256426,
				"element": "N" 
			},
			{
				"x": -2.5013053697,
				"y": -3.4799463861,
				"z": -1.407201754,
				"element": "N" 
			},
			{
				"x": -0.8634523098,
				"y": -0.1212429666,
				"z": 0.4573388351,
				"element": "C" 
			},
			{
				"x": -0.2173162774,
				"y": 0.8549160255,
				"z": -0.312377684,
				"element": "C" 
			},
			{
				"x": 0.3236979726,
				"y": 1.968311347,
				"z": 0.321842875,
				"element": "C" 
			},
			{
				"x": 1.1353275441,
				"y": 3.1963469815,
				"z": -0.636283361,
				"element": "Cl" 
			},
			{
				"x": 0.2407334194,
				"y": 2.1401488513,
				"z": 1.7037469894,
				"element": "C" 
			},
			{
				"x": -0.4078697584,
				"y": 1.1536771507,
				"z": 2.4475288011,
				"element": "C" 
			},
			{
				"x": -0.5250105765,
				"y": 1.3478692281,
				"z": 4.1891793343,
				"element": "Cl" 
			},
			{
				"x": -0.9603750666,
				"y": 0.0275352354,
				"z": 1.8474035067,
				"element": "C" 
			},
			{
				"x": 0.1032856878,
				"y": -1.2402241681,
				"z": -3.9283911213,
				"element": "H" 
			},
			{
				"x": -1.4442838932,
				"y": -0.3752214388,
				"z": -4.1263584421,
				"element": "H" 
			},
			{
				"x": -0.8063916451,
				"y": -1.3785447378,
				"z": -5.4591643206,
				"element": "H" 
			},
			{
				"x": -3.2458662456,
				"y": -4.1062642161,
				"z": 1.6596359857,
				"element": "H" 
			},
			{
				"x": -3.5754298915,
				"y": -5.0302951998,
				"z": 0.2069586914,
				"element": "H" 
			},
			{
				"x": -0.1477871729,
				"y": 0.7307468888,
				"z": -1.3849323928,
				"element": "H" 
			},
			{
				"x": 0.6665041065,
				"y": 3.0121469906,
				"z": 2.1844120667,
				"element": "H" 
			},
			{
				"x": -1.4615540806,
				"y": -0.7324478953,
				"z": 2.4324928445,
				"element": "H" 
			}
		],
		 "valence_orbital": [ 
			{
				"type": "occ",
				"energy": -0.2727,
				"method": "rhf"
			},
			{
				"type": "occ",
				"energy": -0.26571,
				"method": "rhf"
			},
			{
				"type": "occ",
				"energy": -0.25984,
				"method": "rhf"
			},
			{
				"type": "occ",
				"energy": -0.25366,
				"method": "rhf"
			},
			{
				"type": "occ",
				"energy": -0.24207,
				"method": "rhf"
			},
			{
				"type": "unocc",
				"energy": -0.07163,
				"method": "rhf"
			},
			{
				"type": "unocc",
				"energy": -0.0305,
				"method": "rhf"
			},
			{
				"type": "unocc",
				"energy": -0.01635,
				"method": "rhf"
			},
			{
				"type": "unocc",
				"energy": 0.00575,
				"method": "rhf"
			},
			{
				"type": "unocc",
				"energy": 0.01304,
				"method": "rhf"
			}
		],
		"cosmo_sigma_profile": { 
			"-0.025": 0.0,
			"-0.024": 0.0,
			"-0.023": 0.0,
			"-0.022": 0.0,
			"-0.021": 0.0,
			"-0.02": 0.0,
			"-0.019": 0.0,
			"-0.018": 0.0,
			"-0.017": 0.0,
			"-0.016": 0.00642452433616,
			"-0.015": 1.19448771,
			"-0.014": 2.2059711011,
			"-0.013": 2.35809549008,
			"-0.012": 1.56799019697,
			"-0.011": 1.85317555522,
			"-0.01": 2.00053391715,
			"-0.009": 2.72185644882,
			"-0.008": 2.91796753103,
			"-0.007": 5.22598553275,
			"-0.006": 7.4496089958,
			"-0.005": 9.57306080672,
			"-0.004": 13.9482849785,
			"-0.003": 16.1041018287,
			"-0.002": 20.3659041925,
			"-0.001": 25.0926715819,
			"0.0": 32.6199402544,
			"0.001": 38.7859239123,
			"0.002": 22.7147555669,
			"0.003": 22.9008606503,
			"0.004": 30.9023788465,
			"0.005": 11.943150567,
			"0.006": 7.21825602402,
			"0.007": 5.57586570209,
			"0.008": 2.41338448739,
			"0.009": 1.53289645729,
			"0.01": 1.2488932321,
			"0.011": 0.429183813068,
			"0.012": 0.643482101913,
			"0.013": 0.61106839313,
			"0.014": 0.0028022218787,
			"0.015": 0.0,
			"0.016": 0.0,
			"0.017": 0.0,
			"0.018": 0.0,
			"0.019": 0.0,
			"0.02": 0.0,
			"0.021": 0.0,
			"0.022": 0.0,
			"0.023": 0.0,
			"0.024": 0.0,
			"0.025": 0.0
		}
	}
}
