{
	 "smiles": "CCN(CC)S(=O)(=O)C1=CNC(=C1)C(O)=O", 
	 "Tm": 524.15, 
	 "num_atms": 30, 
	 "gaussian": { 
		 "optdone": 1, 
		 "sigma_profile": "yes", 
		 "theory": "DFT", 
		 "functional": "B3LYP", 
		 "basiset": "6-31G**", 
		 "properties": { 
			 "R2extent": 4998.0793, 
			 "electric_dipole_moment_norm": 5.96573937915, 
			 "electric_quadrupole_moment_norm": 22.5434874405, 
			 "total_energy": -1159.92481936, 
			 "HOMO_LUMO_gap": 0.19568, 
			 "cosmo_polarized_energy": -22.5, 
			 "cosmo_cavitation_energy": 35.02, 
			 "cosmo_dispersion_energy": -24.71, 
			 "cosmo_repulsion_energy": 1.91, 
			 "cosmo_total_nonelectrostatic_energy": 12.23, 
			 "SMD_solvation_energy": 6.14 
		},
		"coords": [
			{
				"x": 3.1403482168,
				"y": -1.7347367226,
				"z": -0.9789247354,
				"element": "C" 
			},
			{
				"x": 2.0663332399,
				"y": -1.0130186309,
				"z": -0.1643725338,
				"element": "C" 
			},
			{
				"x": 0.9555556868,
				"y": -0.5488324824,
				"z": -1.0146108328,
				"element": "N" 
			},
			{
				"x": 0.0539518961,
				"y": -1.5744074282,
				"z": -1.5823898018,
				"element": "C" 
			},
			{
				"x": 0.0902631316,
				"y": -1.618361638,
				"z": -3.1092349109,
				"element": "C" 
			},
			{
				"x": 0.2599069916,
				"y": 0.9356682219,
				"z": -0.6519713462,
				"element": "S" 
			},
			{
				"x": 1.3496217993,
				"y": 1.8312261513,
				"z": -0.2625325332,
				"element": "O" 
			},
			{
				"x": -0.6508167466,
				"y": 1.2437066084,
				"z": -1.7587355666,
				"element": "O" 
			},
			{
				"x": -0.7688244337,
				"y": 0.6973417597,
				"z": 0.7711084013,
				"element": "C" 
			},
			{
				"x": -2.1535621506,
				"y": 0.5834354843,
				"z": 0.7217843019,
				"element": "C" 
			},
			{
				"x": -2.5912021781,
				"y": 0.3984799779,
				"z": 1.9925994283,
				"element": "N" 
			},
			{
				"x": -1.5172672036,
				"y": 0.3914133507,
				"z": 2.865665252,
				"element": "C" 
			},
			{
				"x": -0.3638674074,
				"y": 0.5785196602,
				"z": 2.1237150193,
				"element": "C" 
			},
			{
				"x": -1.6726304047,
				"y": 0.220424493,
				"z": 4.3067710752,
				"element": "C" 
			},
			{
				"x": -2.98573479,
				"y": 0.0799667961,
				"z": 4.6539308659,
				"element": "O" 
			},
			{
				"x": -0.7697322184,
				"y": 0.1992640687,
				"z": 5.1164685324,
				"element": "O" 
			},
			{
				"x": 2.7483281572,
				"y": -2.6297414097,
				"z": -1.4724906362,
				"element": "H" 
			},
			{
				"x": 3.548778781,
				"y": -1.07056069,
				"z": -1.7452942656,
				"element": "H" 
			},
			{
				"x": 3.9552155679,
				"y": -2.050690849,
				"z": -0.319285648,
				"element": "H" 
			},
			{
				"x": 2.5052693861,
				"y": -0.1321134739,
				"z": 0.3064987361,
				"element": "H" 
			},
			{
				"x": 1.6864572644,
				"y": -1.6707442577,
				"z": 0.6333043116,
				"element": "H" 
			},
			{
				"x": -0.9727046312,
				"y": -1.4036714927,
				"z": -1.2360001296,
				"element": "H" 
			},
			{
				"x": 0.3606713688,
				"y": -2.5383764402,
				"z": -1.1619231245,
				"element": "H" 
			},
			{
				"x": 1.1020849939,
				"y": -1.8247934693,
				"z": -3.4701097933,
				"element": "H" 
			},
			{
				"x": -0.2338275447,
				"y": -0.6598199198,
				"z": -3.5192259211,
				"element": "H" 
			},
			{
				"x": -0.5763989012,
				"y": -2.4046101435,
				"z": -3.4812877747,
				"element": "H" 
			},
			{
				"x": -2.8183767101,
				"y": 0.6506357001,
				"z": -0.1254178603,
				"element": "H" 
			},
			{
				"x": -3.5510087322,
				"y": 0.3012470857,
				"z": 2.2893587212,
				"element": "H" 
			},
			{
				"x": 0.6366808987,
				"y": 0.6443964756,
				"z": 2.5229917232,
				"element": "H" 
			},
			{
				"x": -2.9993133277,
				"y": -0.0249467857,
				"z": 5.6192110453,
				"element": "H" 
			}
		],
		 "valence_orbital": [ 
			{
				"type": "occ",
				"energy": -0.29612,
				"method": "rhf"
			},
			{
				"type": "occ",
				"energy": -0.29111,
				"method": "rhf"
			},
			{
				"type": "occ",
				"energy": -0.2837,
				"method": "rhf"
			},
			{
				"type": "occ",
				"energy": -0.25753,
				"method": "rhf"
			},
			{
				"type": "occ",
				"energy": -0.2436,
				"method": "rhf"
			},
			{
				"type": "unocc",
				"energy": -0.04792,
				"method": "rhf"
			},
			{
				"type": "unocc",
				"energy": 0.00443,
				"method": "rhf"
			},
			{
				"type": "unocc",
				"energy": 0.04905,
				"method": "rhf"
			},
			{
				"type": "unocc",
				"energy": 0.07542,
				"method": "rhf"
			},
			{
				"type": "unocc",
				"energy": 0.08091,
				"method": "rhf"
			}
		],
		"cosmo_sigma_profile": { 
			"-0.025": 0.0,
			"-0.024": 0.0,
			"-0.023": 0.0,
			"-0.022": 0.0,
			"-0.021": 0.0,
			"-0.02": 0.0,
			"-0.019": 0.295221488329,
			"-0.018": 0.840016176847,
			"-0.017": 2.09130273705,
			"-0.016": 1.45436745811,
			"-0.015": 1.56523020815,
			"-0.014": 2.00219145236,
			"-0.013": 1.62350238193,
			"-0.012": 1.15575066504,
			"-0.011": 2.04244678899,
			"-0.01": 2.81034901626,
			"-0.009": 2.93295711931,
			"-0.008": 3.3678205812,
			"-0.007": 4.77566476091,
			"-0.006": 5.15816620541,
			"-0.005": 11.3653425464,
			"-0.004": 19.8283523453,
			"-0.003": 28.5514516733,
			"-0.002": 28.0563246996,
			"-0.001": 23.0504237417,
			"0.0": 23.033554358,
			"0.001": 21.6028871208,
			"0.002": 12.4957717608,
			"0.003": 8.36030964549,
			"0.004": 6.55761957105,
			"0.005": 9.05055797159,
			"0.006": 6.91658212069,
			"0.007": 5.73925065502,
			"0.008": 5.21178293243,
			"0.009": 5.36663361426,
			"0.01": 7.67448763376,
			"0.011": 11.8796047714,
			"0.012": 9.24277888427,
			"0.013": 0.229477233309,
			"0.014": 0.0,
			"0.015": 0.0,
			"0.016": 0.0,
			"0.017": 0.0,
			"0.018": 0.0,
			"0.019": 0.0,
			"0.02": 0.0,
			"0.021": 0.0,
			"0.022": 0.0,
			"0.023": 0.0,
			"0.024": 0.0,
			"0.025": 0.0
		}
	}
}
