{
	 "smiles": "CC1=CC=CC(Br)=C1C(O)=O", 
	 "Tm": 382.15, 
	 "num_atms": 18, 
	 "gaussian": { 
		 "optdone": 1, 
		 "sigma_profile": "yes", 
		 "theory": "DFT", 
		 "functional": "B3LYP", 
		 "basiset": "6-31G**", 
		 "properties": { 
			 "R2extent": 5246.5231, 
			 "electric_dipole_moment_norm": 4.4042340594, 
			 "electric_quadrupole_moment_norm": 16.3861151989, 
			 "total_energy": -3030.93023808, 
			 "HOMO_LUMO_gap": 0.20775, 
			 "cosmo_polarized_energy": -10.66, 
			 "cosmo_cavitation_energy": 23.99, 
			 "cosmo_dispersion_energy": -18.17, 
			 "cosmo_repulsion_energy": 1.45, 
			 "cosmo_total_nonelectrostatic_energy": 7.27, 
			 "SMD_solvation_energy": 4.13 
		},
		"coords": [
			{
				"x": -2.021126301,
				"y": -2.2396785735,
				"z": -0.7417778469,
				"element": "C" 
			},
			{
				"x": -0.8546347429,
				"y": -1.9148873182,
				"z": -1.6468169914,
				"element": "C" 
			},
			{
				"x": 0.1319520577,
				"y": -2.884690427,
				"z": -1.8537874404,
				"element": "C" 
			},
			{
				"x": 1.2192993995,
				"y": -2.6543799767,
				"z": -2.6932757102,
				"element": "C" 
			},
			{
				"x": 1.3501440998,
				"y": -1.4307252699,
				"z": -3.3423223225,
				"element": "C" 
			},
			{
				"x": 0.385513387,
				"y": -0.4496106265,
				"z": -3.1264928915,
				"element": "C" 
			},
			{
				"x": 0.6454074867,
				"y": 1.2084934288,
				"z": -4.0721988175,
				"element": "Br" 
			},
			{
				"x": -0.7235750014,
				"y": -0.65713139,
				"z": -2.2906444366,
				"element": "C" 
			},
			{
				"x": -1.8158356792,
				"y": 0.365618458,
				"z": -2.0689437007,
				"element": "C" 
			},
			{
				"x": -1.4417400174,
				"y": 1.627008467,
				"z": -1.7602665279,
				"element": "O" 
			},
			{
				"x": -2.9888920665,
				"y": 0.0786311756,
				"z": -2.101883388,
				"element": "O" 
			},
			{
				"x": -2.1889452678,
				"y": -1.4612070394,
				"z": 0.0080958669,
				"element": "H" 
			},
			{
				"x": -2.9479684572,
				"y": -2.3192657012,
				"z": -1.3148098304,
				"element": "H" 
			},
			{
				"x": -1.8414706199,
				"y": -3.1843575499,
				"z": -0.2226283014,
				"element": "H" 
			},
			{
				"x": 0.0373482666,
				"y": -3.8413437115,
				"z": -1.3486895765,
				"element": "H" 
			},
			{
				"x": 1.9671794949,
				"y": -3.4268033033,
				"z": -2.8452673061,
				"element": "H" 
			},
			{
				"x": 2.1839125595,
				"y": -1.2332434074,
				"z": -4.0053256561,
				"element": "H" 
			},
			{
				"x": -0.4837685985,
				"y": 1.7385727651,
				"z": -1.8587651228,
				"element": "H" 
			}
		],
		 "valence_orbital": [ 
			{
				"type": "occ",
				"energy": -0.32072,
				"method": "rhf"
			},
			{
				"type": "occ",
				"energy": -0.30117,
				"method": "rhf"
			},
			{
				"type": "occ",
				"energy": -0.28252,
				"method": "rhf"
			},
			{
				"type": "occ",
				"energy": -0.26515,
				"method": "rhf"
			},
			{
				"type": "occ",
				"energy": -0.25853,
				"method": "rhf"
			},
			{
				"type": "unocc",
				"energy": -0.05078,
				"method": "rhf"
			},
			{
				"type": "unocc",
				"energy": -0.02651,
				"method": "rhf"
			},
			{
				"type": "unocc",
				"energy": -0.01479,
				"method": "rhf"
			},
			{
				"type": "unocc",
				"energy": 0.02712,
				"method": "rhf"
			},
			{
				"type": "unocc",
				"energy": 0.08812,
				"method": "rhf"
			}
		],
		"cosmo_sigma_profile": { 
			"-0.025": 0.0,
			"-0.024": 0.0,
			"-0.023": 0.0,
			"-0.022": 0.0,
			"-0.021": 0.0,
			"-0.02": 0.0,
			"-0.019": 0.0,
			"-0.018": 0.0,
			"-0.017": 0.0118689599833,
			"-0.016": 0.68210748414,
			"-0.015": 0.822276569261,
			"-0.014": 0.550586380092,
			"-0.013": 0.837564506317,
			"-0.012": 0.760259507861,
			"-0.011": 0.942408429282,
			"-0.01": 0.864818720813,
			"-0.009": 0.66391293941,
			"-0.008": 1.46335023229,
			"-0.007": 6.22032493698,
			"-0.006": 9.97077331694,
			"-0.005": 12.0713544022,
			"-0.004": 11.3971543581,
			"-0.003": 12.0665597403,
			"-0.002": 14.9638915849,
			"-0.001": 16.2765908348,
			"0.0": 18.0990290636,
			"0.001": 17.3067352201,
			"0.002": 19.1062157828,
			"0.003": 16.6894820372,
			"0.004": 4.95343092367,
			"0.005": 3.2995981718,
			"0.006": 1.92772689701,
			"0.007": 3.38544738586,
			"0.008": 2.55976934536,
			"0.009": 3.30632098668,
			"0.01": 5.36481049917,
			"0.011": 4.5777411215,
			"0.012": 3.02623722173,
			"0.013": 0.638119571008,
			"0.014": 0.0,
			"0.015": 0.0,
			"0.016": 0.0,
			"0.017": 0.0,
			"0.018": 0.0,
			"0.019": 0.0,
			"0.02": 0.0,
			"0.021": 0.0,
			"0.022": 0.0,
			"0.023": 0.0,
			"0.024": 0.0,
			"0.025": 0.0
		}
	}
}
