{
	 "smiles": "OC(=O)CCSC1=C2C=CC(Cl)=CC2=NC=C1", 
	 "Tm": 483.15, 
	 "num_atms": 27, 
	 "gaussian": { 
		 "optdone": 1, 
		 "sigma_profile": "yes", 
		 "theory": "DFT", 
		 "functional": "B3LYP", 
		 "basiset": "6-31G**", 
		 "properties": { 
			 "R2extent": 6222.0019, 
			 "electric_dipole_moment_norm": 2.91805148858, 
			 "electric_quadrupole_moment_norm": 11.4360241334, 
			 "total_energy": -1526.90143537, 
			 "HOMO_LUMO_gap": 0.16782, 
			 "cosmo_polarized_energy": -13.93, 
			 "cosmo_cavitation_energy": 34.62, 
			 "cosmo_dispersion_energy": -24.42, 
			 "cosmo_repulsion_energy": 1.85, 
			 "cosmo_total_nonelectrostatic_energy": 12.06, 
			 "SMD_solvation_energy": 4.38 
		},
		"coords": [
			{
				"x": -0.1624171293,
				"y": -0.7253020132,
				"z": -3.2332048751,
				"element": "O" 
			},
			{
				"x": 0.9641065798,
				"y": 0.017368527,
				"z": -3.1034691755,
				"element": "C" 
			},
			{
				"x": 1.0628952203,
				"y": 1.1412786124,
				"z": -3.5408257589,
				"element": "O" 
			},
			{
				"x": 2.0549018289,
				"y": -0.7478421234,
				"z": -2.3811437821,
				"element": "C" 
			},
			{
				"x": 1.6358426391,
				"y": -1.3434796061,
				"z": -1.0303702745,
				"element": "C" 
			},
			{
				"x": 1.3627269877,
				"y": -0.1078836372,
				"z": 0.3177650981,
				"element": "S" 
			},
			{
				"x": -0.3005569862,
				"y": 0.4814655899,
				"z": -0.0230426773,
				"element": "C" 
			},
			{
				"x": -1.4607540399,
				"y": -0.3074654154,
				"z": 0.2583163771,
				"element": "C" 
			},
			{
				"x": -1.4275787101,
				"y": -1.6100045636,
				"z": 0.8208668077,
				"element": "C" 
			},
			{
				"x": -2.5860613798,
				"y": -2.3179207334,
				"z": 1.0473431558,
				"element": "C" 
			},
			{
				"x": -3.8339615043,
				"y": -1.7399183704,
				"z": 0.715894098,
				"element": "C" 
			},
			{
				"x": -5.2938928866,
				"y": -2.6704403548,
				"z": 1.0092055325,
				"element": "Cl" 
			},
			{
				"x": -3.9208249397,
				"y": -0.475266243,
				"z": 0.1857256017,
				"element": "C" 
			},
			{
				"x": -2.7363544022,
				"y": 0.2724518126,
				"z": -0.0487649637,
				"element": "C" 
			},
			{
				"x": -2.882008983,
				"y": 1.5319183463,
				"z": -0.5556750389,
				"element": "N" 
			},
			{
				"x": -1.7875136981,
				"y": 2.2345480999,
				"z": -0.7601552156,
				"element": "C" 
			},
			{
				"x": -0.4753353366,
				"y": 1.758029412,
				"z": -0.5158888559,
				"element": "C" 
			},
			{
				"x": -0.8103566087,
				"y": -0.1649525417,
				"z": -3.6926034147,
				"element": "H" 
			},
			{
				"x": 2.9081270456,
				"y": -0.0768912755,
				"z": -2.2690348596,
				"element": "H" 
			},
			{
				"x": 2.3555355231,
				"y": -1.5764487476,
				"z": -3.0371747862,
				"element": "H" 
			},
			{
				"x": 2.4423380416,
				"y": -1.9742254863,
				"z": -0.6460771367,
				"element": "H" 
			},
			{
				"x": 0.7435308539,
				"y": -1.9636453548,
				"z": -1.1346119681,
				"element": "H" 
			},
			{
				"x": -0.4696876414,
				"y": -2.0388842228,
				"z": 1.0941739797,
				"element": "H" 
			},
			{
				"x": -2.5553445194,
				"y": -3.3100080898,
				"z": 1.4837140255,
				"element": "H" 
			},
			{
				"x": -4.8718155344,
				"y": -0.0169952919,
				"z": -0.0577805564,
				"element": "H" 
			},
			{
				"x": -1.9216631104,
				"y": 3.2394854994,
				"z": -1.1584429236,
				"element": "H" 
			},
			{
				"x": 0.3796226902,
				"y": 2.3829281715,
				"z": -0.746738413,
				"element": "H" 
			}
		],
		 "valence_orbital": [ 
			{
				"type": "occ",
				"energy": -0.28261,
				"method": "rhf"
			},
			{
				"type": "occ",
				"energy": -0.26757,
				"method": "rhf"
			},
			{
				"type": "occ",
				"energy": -0.25997,
				"method": "rhf"
			},
			{
				"type": "occ",
				"energy": -0.24857,
				"method": "rhf"
			},
			{
				"type": "occ",
				"energy": -0.24026,
				"method": "rhf"
			},
			{
				"type": "unocc",
				"energy": -0.07244,
				"method": "rhf"
			},
			{
				"type": "unocc",
				"energy": -0.03135,
				"method": "rhf"
			},
			{
				"type": "unocc",
				"energy": -0.01003,
				"method": "rhf"
			},
			{
				"type": "unocc",
				"energy": 0.00312,
				"method": "rhf"
			},
			{
				"type": "unocc",
				"energy": 0.02549,
				"method": "rhf"
			}
		],
		"cosmo_sigma_profile": { 
			"-0.025": 0.0,
			"-0.024": 0.0,
			"-0.023": 0.0,
			"-0.022": 0.0,
			"-0.021": 0.0,
			"-0.02": 0.0,
			"-0.019": 0.0,
			"-0.018": 0.667166051395,
			"-0.017": 1.12273753253,
			"-0.016": 0.346220911838,
			"-0.015": 0.705954592792,
			"-0.014": 0.703298295077,
			"-0.013": 0.606721484898,
			"-0.012": 0.345904118615,
			"-0.011": 1.29825276937,
			"-0.01": 0.581287201599,
			"-0.009": 0.452685400814,
			"-0.008": 2.76381949856,
			"-0.007": 13.8464162864,
			"-0.006": 16.5126220366,
			"-0.005": 18.0993593539,
			"-0.004": 16.9970934594,
			"-0.003": 15.1694252361,
			"-0.002": 13.8137054497,
			"-0.001": 19.2304451825,
			"0.0": 22.8737040574,
			"0.001": 31.436463991,
			"0.002": 24.7637007823,
			"0.003": 17.1051899324,
			"0.004": 17.7882926704,
			"0.005": 10.265105542,
			"0.006": 5.41038949656,
			"0.007": 5.26578301539,
			"0.008": 4.24233569226,
			"0.009": 3.71849356358,
			"0.01": 2.69322655952,
			"0.011": 4.40424290754,
			"0.012": 4.31073830796,
			"0.013": 1.48778415147,
			"0.014": 0.948697591874,
			"0.015": 0.585984069554,
			"0.016": 0.0572627577114,
			"0.017": 0.0,
			"0.018": 0.0,
			"0.019": 0.0,
			"0.02": 0.0,
			"0.021": 0.0,
			"0.022": 0.0,
			"0.023": 0.0,
			"0.024": 0.0,
			"0.025": 0.0
		}
	}
}
