{
	 "smiles": "OC(=O)C1=CNC(=O)C(Cl)=C1", 
	 "Tm": 558.15, 
	 "num_atms": 15, 
	 "gaussian": { 
		 "optdone": 1, 
		 "sigma_profile": "yes", 
		 "theory": "DFT", 
		 "functional": "B3LYP", 
		 "basiset": "6-31G**", 
		 "properties": { 
			 "R2extent": 3151.8537, 
			 "electric_dipole_moment_norm": 3.2264065057, 
			 "electric_quadrupole_moment_norm": 24.0575932761, 
			 "total_energy": -971.68428664, 
			 "HOMO_LUMO_gap": 0.17241, 
			 "cosmo_polarized_energy": -18.12, 
			 "cosmo_cavitation_energy": 22.45, 
			 "cosmo_dispersion_energy": -16.87, 
			 "cosmo_repulsion_energy": 1.36, 
			 "cosmo_total_nonelectrostatic_energy": 6.95, 
			 "SMD_solvation_energy": 5.91 
		},
		"coords": [
			{
				"x": -1.1864545592,
				"y": 0.217487802,
				"z": 2.4244707889,
				"element": "O" 
			},
			{
				"x": -1.0804281484,
				"y": -0.1514423793,
				"z": 1.1249317926,
				"element": "C" 
			},
			{
				"x": -2.0490538057,
				"y": -0.2926639904,
				"z": 0.4024895275,
				"element": "O" 
			},
			{
				"x": 0.3199360664,
				"y": -0.3530282312,
				"z": 0.7052316382,
				"element": "C" 
			},
			{
				"x": 0.5508145316,
				"y": -0.7283375654,
				"z": -0.5941876556,
				"element": "C" 
			},
			{
				"x": 1.8145135421,
				"y": -0.9262667652,
				"z": -1.0304971576,
				"element": "N" 
			},
			{
				"x": 2.9982891936,
				"y": -0.7843762171,
				"z": -0.2626608712,
				"element": "C" 
			},
			{
				"x": 4.085671067,
				"y": -0.9924755731,
				"z": -0.7729078394,
				"element": "O" 
			},
			{
				"x": 2.7138714067,
				"y": -0.3837866187,
				"z": 1.1167285506,
				"element": "C" 
			},
			{
				"x": 4.0939385551,
				"y": -0.1792549743,
				"z": 2.153771568,
				"element": "Cl" 
			},
			{
				"x": 1.4451314095,
				"y": -0.1801279335,
				"z": 1.5725572578,
				"element": "C" 
			},
			{
				"x": -2.1363073327,
				"y": 0.3239525174,
				"z": 2.5975559355,
				"element": "H" 
			},
			{
				"x": -0.2611235382,
				"y": -0.8745981663,
				"z": -1.2970245219,
				"element": "H" 
			},
			{
				"x": 1.9883035111,
				"y": -1.2036082174,
				"z": -1.9898362719,
				"element": "H" 
			},
			{
				"x": 1.2786981012,
				"y": 0.1160263124,
				"z": 2.6017772585,
				"element": "H" 
			}
		],
		 "valence_orbital": [ 
			{
				"type": "occ",
				"energy": -0.32011,
				"method": "rhf"
			},
			{
				"type": "occ",
				"energy": -0.30521,
				"method": "rhf"
			},
			{
				"type": "occ",
				"energy": -0.2935,
				"method": "rhf"
			},
			{
				"type": "occ",
				"energy": -0.27786,
				"method": "rhf"
			},
			{
				"type": "occ",
				"energy": -0.2378,
				"method": "rhf"
			},
			{
				"type": "unocc",
				"energy": -0.06539,
				"method": "rhf"
			},
			{
				"type": "unocc",
				"energy": -0.04954,
				"method": "rhf"
			},
			{
				"type": "unocc",
				"energy": 0.02376,
				"method": "rhf"
			},
			{
				"type": "unocc",
				"energy": 0.04659,
				"method": "rhf"
			},
			{
				"type": "unocc",
				"energy": 0.06077,
				"method": "rhf"
			}
		],
		"cosmo_sigma_profile": { 
			"-0.025": 0.0,
			"-0.024": 0.0,
			"-0.023": 0.0,
			"-0.022": 0.0,
			"-0.021": 0.0,
			"-0.02": 0.0,
			"-0.019": 0.244143512517,
			"-0.018": 1.2232444593,
			"-0.017": 2.5608898374,
			"-0.016": 2.67072171972,
			"-0.015": 2.2246716275,
			"-0.014": 1.52081310018,
			"-0.013": 1.51715199868,
			"-0.012": 1.92680430557,
			"-0.011": 2.99089978775,
			"-0.01": 2.58840136794,
			"-0.009": 2.5071419548,
			"-0.008": 2.8099987148,
			"-0.007": 3.54570335341,
			"-0.006": 4.64913308956,
			"-0.005": 4.98316503868,
			"-0.004": 6.72896089709,
			"-0.003": 13.8020851197,
			"-0.002": 15.5089470061,
			"-0.001": 14.7620313386,
			"0.0": 13.1007534034,
			"0.001": 8.44533649216,
			"0.002": 7.98955158501,
			"0.003": 9.05421173357,
			"0.004": 11.6848875161,
			"0.005": 5.16620561558,
			"0.006": 4.90475775328,
			"0.007": 4.18069323976,
			"0.008": 2.37094335349,
			"0.009": 3.47284938493,
			"0.01": 4.19975574344,
			"0.011": 6.20235631878,
			"0.012": 8.36509744518,
			"0.013": 4.08991560024,
			"0.014": 0.542835194806,
			"0.015": 0.0,
			"0.016": 0.0,
			"0.017": 0.0,
			"0.018": 0.0,
			"0.019": 0.0,
			"0.02": 0.0,
			"0.021": 0.0,
			"0.022": 0.0,
			"0.023": 0.0,
			"0.024": 0.0,
			"0.025": 0.0
		}
	}
}
