{
	 "smiles": "CCC(CCC(C)C1CCC2C3=CC=C4CC(O)CCC4(C)C3CCC12C)C(C)C", 
	 "Tm": 417.15, 
	 "num_atms": 78, 
	 "gaussian": { 
		 "optdone": 1, 
		 "sigma_profile": "yes", 
		 "theory": "DFT", 
		 "functional": "B3LYP", 
		 "basiset": "6-31G**", 
		 "properties": { 
			 "R2extent": 19392.6609, 
			 "electric_dipole_moment_norm": 0.889338923021, 
			 "electric_quadrupole_moment_norm": 10.3604209398, 
			 "total_energy": -1209.24595991, 
			 "HOMO_LUMO_gap": 0.17561, 
			 "cosmo_polarized_energy": -8.07, 
			 "cosmo_cavitation_energy": 66.31, 
			 "cosmo_dispersion_energy": -43.02, 
			 "cosmo_repulsion_energy": 3.19, 
			 "cosmo_total_nonelectrostatic_energy": 26.48, 
			 "SMD_solvation_energy": 9.47 
		},
		"coords": [
			{
				"x": 1.1786727903,
				"y": -5.72646334,
				"z": -2.7118469604,
				"element": "C" 
			},
			{
				"x": 1.100236519,
				"y": -4.5274478802,
				"z": -1.7563950583,
				"element": "C" 
			},
			{
				"x": 1.9358332363,
				"y": -3.2642015846,
				"z": -2.0939745303,
				"element": "C" 
			},
			{
				"x": 1.4276490759,
				"y": -2.4994120892,
				"z": -3.3473379379,
				"element": "C" 
			},
			{
				"x": 0.4915069729,
				"y": -1.301632276,
				"z": -3.0715507104,
				"element": "C" 
			},
			{
				"x": -0.8886763536,
				"y": -1.609553434,
				"z": -2.4466295102,
				"element": "C" 
			},
			{
				"x": -1.7625992905,
				"y": -2.4086547379,
				"z": -3.4327714415,
				"element": "C" 
			},
			{
				"x": -1.6723548757,
				"y": -0.3597121097,
				"z": -1.9456562199,
				"element": "C" 
			},
			{
				"x": -1.6196687665,
				"y": 0.9116905692,
				"z": -2.8275047732,
				"element": "C" 
			},
			{
				"x": -2.0716567096,
				"y": 2.0724390257,
				"z": -1.9026973189,
				"element": "C" 
			},
			{
				"x": -2.2851575752,
				"y": 1.4488222258,
				"z": -0.4841224062,
				"element": "C" 
			},
			{
				"x": -2.0219417592,
				"y": 2.4357419579,
				"z": 0.6312571468,
				"element": "C" 
			},
			{
				"x": -3.0087720397,
				"y": 3.2331001073,
				"z": 1.0874378148,
				"element": "C" 
			},
			{
				"x": -2.7336457356,
				"y": 4.3790761613,
				"z": 1.9449775497,
				"element": "C" 
			},
			{
				"x": -1.5339556812,
				"y": 4.5505378163,
				"z": 2.5261752082,
				"element": "C" 
			},
			{
				"x": -1.1496443293,
				"y": 5.7664673556,
				"z": 3.3197808823,
				"element": "C" 
			},
			{
				"x": 0.0548410056,
				"y": 6.5050786609,
				"z": 2.674801467,
				"element": "C" 
			},
			{
				"x": 0.8463453058,
				"y": 7.1607124975,
				"z": 3.6678322976,
				"element": "O" 
			},
			{
				"x": 0.9757022359,
				"y": 5.5172425466,
				"z": 1.9381887334,
				"element": "C" 
			},
			{
				"x": 0.9383602094,
				"y": 4.1188909881,
				"z": 2.5682594708,
				"element": "C" 
			},
			{
				"x": -0.4680439841,
				"y": 3.4530561087,
				"z": 2.4390942076,
				"element": "C" 
			},
			{
				"x": -0.7034093457,
				"y": 2.5155781588,
				"z": 3.6520423199,
				"element": "C" 
			},
			{
				"x": -0.5818389763,
				"y": 2.675554503,
				"z": 1.0790847776,
				"element": "C" 
			},
			{
				"x": 0.2223649732,
				"y": 1.353691418,
				"z": 1.0768765431,
				"element": "C" 
			},
			{
				"x": 0.0529035969,
				"y": 0.5516217259,
				"z": -0.2204965932,
				"element": "C" 
			},
			{
				"x": -1.4178130614,
				"y": 0.1572112078,
				"z": -0.4917548311,
				"element": "C" 
			},
			{
				"x": -1.9141024589,
				"y": -0.8529613174,
				"z": 0.555635739,
				"element": "C" 
			},
			{
				"x": 3.4747574852,
				"y": -3.5329030043,
				"z": -2.1066122444,
				"element": "C" 
			},
			{
				"x": 4.0466719003,
				"y": -4.0820305912,
				"z": -3.4277177934,
				"element": "C" 
			},
			{
				"x": 4.2525754751,
				"y": -2.2683017505,
				"z": -1.7024858625,
				"element": "C" 
			},
			{
				"x": 0.437711534,
				"y": -6.4819990463,
				"z": -2.4289658147,
				"element": "H" 
			},
			{
				"x": 0.9739018652,
				"y": -5.4443352895,
				"z": -3.7504073248,
				"element": "H" 
			},
			{
				"x": 2.1588396447,
				"y": -6.21093483,
				"z": -2.6846929636,
				"element": "H" 
			},
			{
				"x": 0.0493175274,
				"y": -4.2271773856,
				"z": -1.6711832054,
				"element": "H" 
			},
			{
				"x": 1.3926815749,
				"y": -4.8666207458,
				"z": -0.7531805616,
				"element": "H" 
			},
			{
				"x": 1.7763196784,
				"y": -2.5960567741,
				"z": -1.2341957237,
				"element": "H" 
			},
			{
				"x": 0.9541801133,
				"y": -3.1967920755,
				"z": -4.0487936826,
				"element": "H" 
			},
			{
				"x": 2.2848688633,
				"y": -2.089859707,
				"z": -3.8932372068,
				"element": "H" 
			},
			{
				"x": 0.3305456987,
				"y": -0.7803698957,
				"z": -4.0248986242,
				"element": "H" 
			},
			{
				"x": 1.036630622,
				"y": -0.5972669009,
				"z": -2.4342655516,
				"element": "H" 
			},
			{
				"x": -0.7268268118,
				"y": -2.2459030491,
				"z": -1.5666365702,
				"element": "H" 
			},
			{
				"x": -2.0010232474,
				"y": -1.8082048648,
				"z": -4.3190645127,
				"element": "H" 
			},
			{
				"x": -2.7093807744,
				"y": -2.7068045197,
				"z": -2.9697845639,
				"element": "H" 
			},
			{
				"x": -1.2651758434,
				"y": -3.3197724148,
				"z": -3.7784673866,
				"element": "H" 
			},
			{
				"x": -2.7278923856,
				"y": -0.6701729872,
				"z": -1.9250081336,
				"element": "H" 
			},
			{
				"x": -2.2575734216,
				"y": 0.8134605009,
				"z": -3.7118431429,
				"element": "H" 
			},
			{
				"x": -0.6068800767,
				"y": 1.0966710692,
				"z": -3.1963951645,
				"element": "H" 
			},
			{
				"x": -1.3121169895,
				"y": 2.8599391267,
				"z": -1.8668141639,
				"element": "H" 
			},
			{
				"x": -2.9933012625,
				"y": 2.5520075753,
				"z": -2.2453047,
				"element": "H" 
			},
			{
				"x": -3.337274305,
				"y": 1.1410109112,
				"z": -0.4163761012,
				"element": "H" 
			},
			{
				"x": -4.0268217416,
				"y": 3.0887195158,
				"z": 0.7299706399,
				"element": "H" 
			},
			{
				"x": -3.5146509221,
				"y": 5.1264089936,
				"z": 2.0739979325,
				"element": "H" 
			},
			{
				"x": -0.819201334,
				"y": 5.4687265832,
				"z": 4.3255646942,
				"element": "H" 
			},
			{
				"x": -2.0030504274,
				"y": 6.4428259394,
				"z": 3.4450618467,
				"element": "H" 
			},
			{
				"x": -0.3236680616,
				"y": 7.2458499649,
				"z": 1.9532713485,
				"element": "H" 
			},
			{
				"x": 0.2640534209,
				"y": 7.7433435063,
				"z": 4.1730184276,
				"element": "H" 
			},
			{
				"x": 1.9896255766,
				"y": 5.9294727524,
				"z": 1.9483304906,
				"element": "H" 
			},
			{
				"x": 0.6646058199,
				"y": 5.4573528367,
				"z": 0.8886541761,
				"element": "H" 
			},
			{
				"x": 1.7015510348,
				"y": 3.4770789018,
				"z": 2.1157757965,
				"element": "H" 
			},
			{
				"x": 1.2080465567,
				"y": 4.2064861095,
				"z": 3.6274720926,
				"element": "H" 
			},
			{
				"x": -0.7853846343,
				"y": 3.1034770609,
				"z": 4.5718311391,
				"element": "H" 
			},
			{
				"x": 0.1248203555,
				"y": 1.8133901255,
				"z": 3.7903765142,
				"element": "H" 
			},
			{
				"x": -1.6293588894,
				"y": 1.9443709194,
				"z": 3.5356530305,
				"element": "H" 
			},
			{
				"x": -0.1253297736,
				"y": 3.3189043421,
				"z": 0.3040253642,
				"element": "H" 
			},
			{
				"x": -0.0876643923,
				"y": 0.7304168772,
				"z": 1.9201269924,
				"element": "H" 
			},
			{
				"x": 1.2861534617,
				"y": 1.5672547568,
				"z": 1.2304546136,
				"element": "H" 
			},
			{
				"x": 0.67505349,
				"y": -0.3498447374,
				"z": -0.1666456192,
				"element": "H" 
			},
			{
				"x": 0.4419206006,
				"y": 1.1454539534,
				"z": -1.0570361693,
				"element": "H" 
			},
			{
				"x": -2.936412566,
				"y": -1.1746258713,
				"z": 0.3261229024,
				"element": "H" 
			},
			{
				"x": -1.282155952,
				"y": -1.7477481227,
				"z": 0.589058469,
				"element": "H" 
			},
			{
				"x": -1.9295729167,
				"y": -0.4239399397,
				"z": 1.5620055742,
				"element": "H" 
			},
			{
				"x": 3.6626147204,
				"y": -4.2894880296,
				"z": -1.3301458552,
				"element": "H" 
			},
			{
				"x": 5.1003301729,
				"y": -4.3517422672,
				"z": -3.2946342528,
				"element": "H" 
			},
			{
				"x": 3.5206407647,
				"y": -4.9699777251,
				"z": -3.7835843526,
				"element": "H" 
			},
			{
				"x": 4.0075504384,
				"y": -3.332931469,
				"z": -4.2259175689,
				"element": "H" 
			},
			{
				"x": 4.0782934601,
				"y": -1.4507856543,
				"z": -2.4128698727,
				"element": "H" 
			},
			{
				"x": 5.3317241517,
				"y": -2.456940503,
				"z": -1.6822301307,
				"element": "H" 
			},
			{
				"x": 3.9553957426,
				"y": -1.9142664364,
				"z": -0.7092830912,
				"element": "H" 
			}
		],
		 "valence_orbital": [ 
			{
				"type": "occ",
				"energy": -0.28604,
				"method": "rhf"
			},
			{
				"type": "occ",
				"energy": -0.27968,
				"method": "rhf"
			},
			{
				"type": "occ",
				"energy": -0.27078,
				"method": "rhf"
			},
			{
				"type": "occ",
				"energy": -0.25989,
				"method": "rhf"
			},
			{
				"type": "occ",
				"energy": -0.19102,
				"method": "rhf"
			},
			{
				"type": "unocc",
				"energy": -0.01541,
				"method": "rhf"
			},
			{
				"type": "unocc",
				"energy": 0.06443,
				"method": "rhf"
			},
			{
				"type": "unocc",
				"energy": 0.07103,
				"method": "rhf"
			},
			{
				"type": "unocc",
				"energy": 0.08054,
				"method": "rhf"
			},
			{
				"type": "unocc",
				"energy": 0.08452,
				"method": "rhf"
			}
		],
		"cosmo_sigma_profile": { 
			"-0.025": 0.0,
			"-0.024": 0.0,
			"-0.023": 0.0,
			"-0.022": 0.0,
			"-0.021": 0.0,
			"-0.02": 0.0,
			"-0.019": 0.0,
			"-0.018": 0.0,
			"-0.017": 0.0,
			"-0.016": 0.0,
			"-0.015": 0.546881777819,
			"-0.014": 0.945895214413,
			"-0.013": 1.18641292796,
			"-0.012": 0.746163050769,
			"-0.011": 0.858749916852,
			"-0.01": 0.80472222583,
			"-0.009": 1.12157541169,
			"-0.008": 0.301576821726,
			"-0.007": 0.912666071376,
			"-0.006": 1.52799034893,
			"-0.005": 1.38217516337,
			"-0.004": 5.5145609423,
			"-0.003": 26.2103032697,
			"-0.002": 84.2599771648,
			"-0.001": 103.561518946,
			"0.0": 99.2361308716,
			"0.001": 79.0416601007,
			"0.002": 51.9373694299,
			"0.003": 11.7992932057,
			"0.004": 6.22976011818,
			"0.005": 8.03274671129,
			"0.006": 7.1348781111,
			"0.007": 3.46762812672,
			"0.008": 1.17816169027,
			"0.009": 1.29832370097,
			"0.01": 0.837173310208,
			"0.011": 1.44678073049,
			"0.012": 1.63089083212,
			"0.013": 1.30030938827,
			"0.014": 1.89677093793,
			"0.015": 0.565995770614,
			"0.016": 0.0,
			"0.017": 0.0,
			"0.018": 0.0,
			"0.019": 0.0,
			"0.02": 0.0,
			"0.021": 0.0,
			"0.022": 0.0,
			"0.023": 0.0,
			"0.024": 0.0,
			"0.025": 0.0
		}
	}
}
