{
	 "smiles": "OC(=O)C1CN(CCC2=CC=C(Cl)C=C2)C(=O)C1", 
	 "Tm": 422.15, 
	 "num_atms": 32, 
	 "gaussian": { 
		 "optdone": 1, 
		 "sigma_profile": "yes", 
		 "theory": "DFT", 
		 "functional": "B3LYP", 
		 "basiset": "6-31G**", 
		 "properties": { 
			 "R2extent": 5718.4744, 
			 "electric_dipole_moment_norm": 6.00177516157, 
			 "electric_quadrupole_moment_norm": 4.67490700656, 
			 "total_energy": -1244.47538167, 
			 "HOMO_LUMO_gap": 0.22642, 
			 "cosmo_polarized_energy": -18.91, 
			 "cosmo_cavitation_energy": 37.1, 
			 "cosmo_dispersion_energy": -25.2, 
			 "cosmo_repulsion_energy": 1.99, 
			 "cosmo_total_nonelectrostatic_energy": 13.89, 
			 "SMD_solvation_energy": 7.15 
		},
		"coords": [
			{
				"x": -0.7054989952,
				"y": -2.8885096563,
				"z": -1.2692267184,
				"element": "O" 
			},
			{
				"x": 0.2537970654,
				"y": -2.1235877429,
				"z": -1.8447270227,
				"element": "C" 
			},
			{
				"x": 0.0719707036,
				"y": -1.5191765782,
				"z": -2.8764484124,
				"element": "O" 
			},
			{
				"x": 1.5605919294,
				"y": -2.1787030496,
				"z": -1.059204876,
				"element": "C" 
			},
			{
				"x": 1.3665089999,
				"y": -1.8726696686,
				"z": 0.4514724933,
				"element": "C" 
			},
			{
				"x": 1.7167428054,
				"y": -0.4641166555,
				"z": 0.5584147594,
				"element": "N" 
			},
			{
				"x": 1.5845127645,
				"y": 0.2850037928,
				"z": 1.796254877,
				"element": "C" 
			},
			{
				"x": 0.1351627686,
				"y": 0.5636520889,
				"z": 2.2231653828,
				"element": "C" 
			},
			{
				"x": -0.7359500451,
				"y": 1.3278311024,
				"z": 1.2408057392,
				"element": "C" 
			},
			{
				"x": -0.2124830146,
				"y": 2.1891450558,
				"z": 0.2669588211,
				"element": "C" 
			},
			{
				"x": -1.0542601609,
				"y": 2.9081786812,
				"z": -0.5844723586,
				"element": "C" 
			},
			{
				"x": -2.4343650542,
				"y": 2.7700195425,
				"z": -0.4611828035,
				"element": "C" 
			},
			{
				"x": -3.5002319095,
				"y": 3.6750693601,
				"z": -1.5305060249,
				"element": "Cl" 
			},
			{
				"x": -2.9847788693,
				"y": 1.9175108287,
				"z": 0.4946453917,
				"element": "C" 
			},
			{
				"x": -2.1298715924,
				"y": 1.2029808529,
				"z": 1.3318531239,
				"element": "C" 
			},
			{
				"x": 2.4465736044,
				"y": 0.0110574147,
				"z": -0.5056826558,
				"element": "C" 
			},
			{
				"x": 2.9300352243,
				"y": 1.1309691291,
				"z": -0.5871930504,
				"element": "O" 
			},
			{
				"x": 2.5513422184,
				"y": -1.1079980623,
				"z": -1.5390366445,
				"element": "C" 
			},
			{
				"x": -1.4906890629,
				"y": -2.8121508308,
				"z": -1.8373061779,
				"element": "H" 
			},
			{
				"x": 1.9422095448,
				"y": -3.1976749527,
				"z": -1.1841473351,
				"element": "H" 
			},
			{
				"x": 0.3411754382,
				"y": -2.0607904028,
				"z": 0.7790382547,
				"element": "H" 
			},
			{
				"x": 2.0348320134,
				"y": -2.492484401,
				"z": 1.0684059612,
				"element": "H" 
			},
			{
				"x": 2.1379226455,
				"y": 1.2148272549,
				"z": 1.6440025605,
				"element": "H" 
			},
			{
				"x": 2.0857277047,
				"y": -0.2622657313,
				"z": 2.6077265725,
				"element": "H" 
			},
			{
				"x": -0.3615361742,
				"y": -0.3822635138,
				"z": 2.4738271794,
				"element": "H" 
			},
			{
				"x": 0.1878507937,
				"y": 1.1202141109,
				"z": 3.1699877423,
				"element": "H" 
			},
			{
				"x": 0.8602848334,
				"y": 2.295978775,
				"z": 0.139545765,
				"element": "H" 
			},
			{
				"x": -0.6380656502,
				"y": 3.5653915908,
				"z": -1.3399807888,
				"element": "H" 
			},
			{
				"x": -4.061048003,
				"y": 1.8129923566,
				"z": 0.5780803186,
				"element": "H" 
			},
			{
				"x": -2.5600963721,
				"y": 0.5358018479,
				"z": 2.0753878552,
				"element": "H" 
			},
			{
				"x": 3.5833673183,
				"y": -1.4742255789,
				"z": -1.5485207053,
				"element": "H" 
			},
			{
				"x": 2.3124665277,
				"y": -0.7340069606,
				"z": -2.5356372237,
				"element": "H" 
			}
		],
		 "valence_orbital": [ 
			{
				"type": "occ",
				"energy": -0.28851,
				"method": "rhf"
			},
			{
				"type": "occ",
				"energy": -0.25707,
				"method": "rhf"
			},
			{
				"type": "occ",
				"energy": -0.25418,
				"method": "rhf"
			},
			{
				"type": "occ",
				"energy": -0.24643,
				"method": "rhf"
			},
			{
				"type": "occ",
				"energy": -0.23541,
				"method": "rhf"
			},
			{
				"type": "unocc",
				"energy": -0.00899,
				"method": "rhf"
			},
			{
				"type": "unocc",
				"energy": -0.00782,
				"method": "rhf"
			},
			{
				"type": "unocc",
				"energy": -0.00675,
				"method": "rhf"
			},
			{
				"type": "unocc",
				"energy": 0.02341,
				"method": "rhf"
			},
			{
				"type": "unocc",
				"energy": 0.03682,
				"method": "rhf"
			}
		],
		"cosmo_sigma_profile": { 
			"-0.025": 0.0,
			"-0.024": 0.0,
			"-0.023": 0.0,
			"-0.022": 0.0,
			"-0.021": 0.0,
			"-0.02": 0.0,
			"-0.019": 0.165624165837,
			"-0.018": 0.742828158836,
			"-0.017": 0.859921013482,
			"-0.016": 1.05060105026,
			"-0.015": 0.569631981837,
			"-0.014": 1.08126355756,
			"-0.013": 0.35737698077,
			"-0.012": 0.500680247235,
			"-0.011": 1.05753062644,
			"-0.01": 0.776137246607,
			"-0.009": 0.347264726652,
			"-0.008": 1.99295541313,
			"-0.007": 8.04494648147,
			"-0.006": 15.7046862621,
			"-0.005": 29.6575156587,
			"-0.004": 25.8219621235,
			"-0.003": 23.310109407,
			"-0.002": 22.5121668803,
			"-0.001": 16.6687963992,
			"0.0": 14.2787920856,
			"0.001": 15.9910913068,
			"0.002": 18.457372057,
			"0.003": 20.8437611079,
			"0.004": 22.4515418983,
			"0.005": 16.2763562137,
			"0.006": 4.6406785006,
			"0.007": 3.94864040858,
			"0.008": 3.55092230541,
			"0.009": 4.07815732672,
			"0.01": 2.96777260878,
			"0.011": 5.60698743997,
			"0.012": 3.90749608639,
			"0.013": 3.05309838876,
			"0.014": 3.56638607027,
			"0.015": 1.09073577924,
			"0.016": 0.0,
			"0.017": 0.0,
			"0.018": 0.0,
			"0.019": 0.0,
			"0.02": 0.0,
			"0.021": 0.0,
			"0.022": 0.0,
			"0.023": 0.0,
			"0.024": 0.0,
			"0.025": 0.0
		}
	}
}
