{
	 "smiles": "CCN1N=C(C)C(=C1C)S(Cl)(=O)=O", 
	 "Tm": 308.15, 
	 "num_atms": 24, 
	 "gaussian": { 
		 "optdone": 1, 
		 "sigma_profile": "yes", 
		 "theory": "DFT", 
		 "functional": "B3LYP", 
		 "basiset": "6-31G**", 
		 "properties": { 
			 "R2extent": 4084.2192, 
			 "electric_dipole_moment_norm": 6.21006141193, 
			 "electric_quadrupole_moment_norm": 13.5263530887, 
			 "total_energy": -1391.64064142, 
			 "HOMO_LUMO_gap": 0.18994, 
			 "cosmo_polarized_energy": -11.75, 
			 "cosmo_cavitation_energy": 30.56, 
			 "cosmo_dispersion_energy": -21.93, 
			 "cosmo_repulsion_energy": 1.72, 
			 "cosmo_total_nonelectrostatic_energy": 10.35, 
			 "SMD_solvation_energy": 3.27 
		},
		"coords": [
			{
				"x": 1.2527301679,
				"y": -1.802644543,
				"z": -2.6131873012,
				"element": "C" 
			},
			{
				"x": 1.0539922738,
				"y": -0.4173942478,
				"z": -1.9966601703,
				"element": "C" 
			},
			{
				"x": 0.045437209,
				"y": -0.4221960386,
				"z": -0.9379178063,
				"element": "N" 
			},
			{
				"x": -1.267434798,
				"y": -0.4779272128,
				"z": -1.305030236,
				"element": "N" 
			},
			{
				"x": -1.9643581971,
				"y": -0.5165348703,
				"z": -0.1789850434,
				"element": "C" 
			},
			{
				"x": -3.4579758577,
				"y": -0.5806757911,
				"z": -0.2023028435,
				"element": "C" 
			},
			{
				"x": -1.0668997573,
				"y": -0.4722551848,
				"z": 0.9303557157,
				"element": "C" 
			},
			{
				"x": 0.2292401323,
				"y": -0.4292102504,
				"z": 0.4009675413,
				"element": "C" 
			},
			{
				"x": 1.5757604398,
				"y": -0.3892701195,
				"z": 1.0500760222,
				"element": "C" 
			},
			{
				"x": -1.4996107362,
				"y": -0.5106134839,
				"z": 2.6129981488,
				"element": "S" 
			},
			{
				"x": -1.5042793897,
				"y": -2.6188552292,
				"z": 3.0450512392,
				"element": "Cl" 
			},
			{
				"x": -0.4243535905,
				"y": 0.0429559735,
				"z": 3.4313663396,
				"element": "O" 
			},
			{
				"x": -2.8837501679,
				"y": -0.0823510932,
				"z": 2.7719471233,
				"element": "O" 
			},
			{
				"x": 0.3075626953,
				"y": -2.1751161598,
				"z": -3.0154915625,
				"element": "H" 
			},
			{
				"x": 1.981012159,
				"y": -1.7469385429,
				"z": -3.4278897307,
				"element": "H" 
			},
			{
				"x": 1.6199634467,
				"y": -2.5186201716,
				"z": -1.8717052298,
				"element": "H" 
			},
			{
				"x": 1.9840118177,
				"y": -0.0353355677,
				"z": -1.5696020288,
				"element": "H" 
			},
			{
				"x": 0.7118437775,
				"y": 0.2959312743,
				"z": -2.7505707032,
				"element": "H" 
			},
			{
				"x": -3.8974123477,
				"y": 0.2856658556,
				"z": 0.2989892181,
				"element": "H" 
			},
			{
				"x": -3.7967277931,
				"y": -0.6108951846,
				"z": -1.2394634433,
				"element": "H" 
			},
			{
				"x": -3.8242631076,
				"y": -1.470077512,
				"z": 0.319585239,
				"element": "H" 
			},
			{
				"x": 1.4685571608,
				"y": -0.4030791621,
				"z": 2.1335374947,
				"element": "H" 
			},
			{
				"x": 2.1170204537,
				"y": 0.5232324884,
				"z": 0.7764431223,
				"element": "H" 
			},
			{
				"x": 2.1861340095,
				"y": -1.2461952267,
				"z": 0.745988895,
				"element": "H" 
			}
		],
		 "valence_orbital": [ 
			{
				"type": "occ",
				"energy": -0.32564,
				"method": "rhf"
			},
			{
				"type": "occ",
				"energy": -0.30643,
				"method": "rhf"
			},
			{
				"type": "occ",
				"energy": -0.30476,
				"method": "rhf"
			},
			{
				"type": "occ",
				"energy": -0.27302,
				"method": "rhf"
			},
			{
				"type": "occ",
				"energy": -0.26857,
				"method": "rhf"
			},
			{
				"type": "unocc",
				"energy": -0.07863,
				"method": "rhf"
			},
			{
				"type": "unocc",
				"energy": -0.01206,
				"method": "rhf"
			},
			{
				"type": "unocc",
				"energy": 0.01367,
				"method": "rhf"
			},
			{
				"type": "unocc",
				"energy": 0.06343,
				"method": "rhf"
			},
			{
				"type": "unocc",
				"energy": 0.07604,
				"method": "rhf"
			}
		],
		"cosmo_sigma_profile": { 
			"-0.025": 0.0,
			"-0.024": 0.0,
			"-0.023": 0.0,
			"-0.022": 0.0,
			"-0.021": 0.0,
			"-0.02": 0.0,
			"-0.019": 0.0,
			"-0.018": 0.0,
			"-0.017": 0.0,
			"-0.016": 0.0,
			"-0.015": 0.0,
			"-0.014": 0.0,
			"-0.013": 0.0,
			"-0.012": 0.0,
			"-0.011": 0.0,
			"-0.01": 0.0,
			"-0.009": 0.00935293881936,
			"-0.008": 1.33787206666,
			"-0.007": 5.79388268718,
			"-0.006": 12.0923609606,
			"-0.005": 15.8765900128,
			"-0.004": 23.4503260202,
			"-0.003": 24.2737236122,
			"-0.002": 23.2573056178,
			"-0.001": 24.4325973593,
			"0.0": 20.652336565,
			"0.001": 12.4244969334,
			"0.002": 11.9253139586,
			"0.003": 12.1933839651,
			"0.004": 16.8390649474,
			"0.005": 8.94523321335,
			"0.006": 5.96800786692,
			"0.007": 5.04802404071,
			"0.008": 7.86963476418,
			"0.009": 7.81569302327,
			"0.01": 1.52707759253,
			"0.011": 0.550307429529,
			"0.012": 1.19165761952,
			"0.013": 0.63900208114,
			"0.014": 0.452392313897,
			"0.015": 0.0,
			"0.016": 0.0,
			"0.017": 0.0,
			"0.018": 0.0,
			"0.019": 0.0,
			"0.02": 0.0,
			"0.021": 0.0,
			"0.022": 0.0,
			"0.023": 0.0,
			"0.024": 0.0,
			"0.025": 0.0
		}
	}
}
