{
	 "smiles": "CC1=C(C)C(CCl)=C(C)C(C)=C1CCl", 
	 "Tm": 467.15, 
	 "num_atms": 30, 
	 "gaussian": { 
		 "optdone": 1, 
		 "sigma_profile": "yes", 
		 "theory": "DFT", 
		 "functional": "B3LYP", 
		 "basiset": "6-31G**", 
		 "properties": { 
			 "R2extent": 4406.5578, 
			 "electric_dipole_moment_norm": 0.0, 
			 "electric_quadrupole_moment_norm": 17.1774268873, 
			 "total_energy": -1387.33347832, 
			 "HOMO_LUMO_gap": 0.19244, 
			 "cosmo_polarized_energy": -8.12, 
			 "cosmo_cavitation_energy": 33.28, 
			 "cosmo_dispersion_energy": -24.12, 
			 "cosmo_repulsion_energy": 1.88, 
			 "cosmo_total_nonelectrostatic_energy": 11.03, 
			 "SMD_solvation_energy": 4.71 
		},
		"coords": [
			{
				"x": -1.8594279241,
				"y": 0.4245044498,
				"z": -1.8990388015,
				"element": "C" 
			},
			{
				"x": -1.0477562159,
				"y": 0.0506931552,
				"z": -0.6734504162,
				"element": "C" 
			},
			{
				"x": -1.112071819,
				"y": -1.2578288749,
				"z": -0.1613719629,
				"element": "C" 
			},
			{
				"x": -2.0681723593,
				"y": -2.2638356664,
				"z": -0.7731962398,
				"element": "C" 
			},
			{
				"x": -0.2933936575,
				"y": -1.6162417582,
				"z": 0.9295981756,
				"element": "C" 
			},
			{
				"x": -0.2651802745,
				"y": -3.0449119896,
				"z": 1.3939338231,
				"element": "C" 
			},
			{
				"x": -1.5061888607,
				"y": -3.4086458249,
				"z": 2.7139357677,
				"element": "Cl" 
			},
			{
				"x": 0.5406168879,
				"y": -0.6670086701,
				"z": 1.5559156819,
				"element": "C" 
			},
			{
				"x": 1.3522920118,
				"y": -1.0408292649,
				"z": 2.7814986835,
				"element": "C" 
			},
			{
				"x": 0.6049290013,
				"y": 0.6415148553,
				"z": 1.0438389965,
				"element": "C" 
			},
			{
				"x": 1.5610160929,
				"y": 1.6475337861,
				"z": 1.6556591514,
				"element": "C" 
			},
			{
				"x": -0.2137462345,
				"y": 0.9999255936,
				"z": -0.0471301434,
				"element": "C" 
			},
			{
				"x": -0.2419454671,
				"y": 2.4286000604,
				"z": -0.511454056,
				"element": "C" 
			},
			{
				"x": 0.9990254412,
				"y": 2.7923195731,
				"z": -1.8314955846,
				"element": "Cl" 
			},
			{
				"x": -2.87747863,
				"y": 0.7449971163,
				"z": -1.6387966713,
				"element": "H" 
			},
			{
				"x": -1.3909136929,
				"y": 1.2291484615,
				"z": -2.4677333668,
				"element": "H" 
			},
			{
				"x": -1.9568600073,
				"y": -0.4227546275,
				"z": -2.5809933314,
				"element": "H" 
			},
			{
				"x": -2.9754168683,
				"y": -1.775929599,
				"z": -1.1354831812,
				"element": "H" 
			},
			{
				"x": -1.6233490314,
				"y": -2.7893451987,
				"z": -1.6292567516,
				"element": "H" 
			},
			{
				"x": -2.3870668174,
				"y": -3.01499169,
				"z": -0.0490019042,
				"element": "H" 
			},
			{
				"x": 0.6926904699,
				"y": -3.3205981374,
				"z": 1.828416358,
				"element": "H" 
			},
			{
				"x": -0.4953540643,
				"y": -3.7450651775,
				"z": 0.5944908868,
				"element": "H" 
			},
			{
				"x": 1.4497092575,
				"y": -0.1935835025,
				"z": 3.4634714599,
				"element": "H" 
			},
			{
				"x": 2.370348101,
				"y": -1.3613015135,
				"z": 2.5212521498,
				"element": "H" 
			},
			{
				"x": 0.8837896065,
				"y": -1.8454940824,
				"z": 3.3501742057,
				"element": "H" 
			},
			{
				"x": 1.1162129125,
				"y": 2.1729932903,
				"z": 2.5117613418,
				"element": "H" 
			},
			{
				"x": 1.8798440161,
				"y": 2.3987326475,
				"z": 0.9314791993,
				"element": "H" 
			},
			{
				"x": 2.4682985381,
				"y": 1.1596512211,
				"z": 2.0178840342,
				"element": "H" 
			},
			{
				"x": -1.199825027,
				"y": 2.7043131733,
				"z": -0.9458981333,
				"element": "H" 
			},
			{
				"x": -0.0117253853,
				"y": 3.128738194,
				"z": 0.2879906288,
				"element": "H" 
			}
		],
		 "valence_orbital": [ 
			{
				"type": "occ",
				"energy": -0.29403,
				"method": "rhf"
			},
			{
				"type": "occ",
				"energy": -0.29364,
				"method": "rhf"
			},
			{
				"type": "occ",
				"energy": -0.29259,
				"method": "rhf"
			},
			{
				"type": "occ",
				"energy": -0.24087,
				"method": "rhf"
			},
			{
				"type": "occ",
				"energy": -0.23304,
				"method": "rhf"
			},
			{
				"type": "unocc",
				"energy": -0.0406,
				"method": "rhf"
			},
			{
				"type": "unocc",
				"energy": -0.00497,
				"method": "rhf"
			},
			{
				"type": "unocc",
				"energy": 0.01814,
				"method": "rhf"
			},
			{
				"type": "unocc",
				"energy": 0.05425,
				"method": "rhf"
			},
			{
				"type": "unocc",
				"energy": 0.07449,
				"method": "rhf"
			}
		],
		"cosmo_sigma_profile": { 
			"-0.025": 0.0,
			"-0.024": 0.0,
			"-0.023": 0.0,
			"-0.022": 0.0,
			"-0.021": 0.0,
			"-0.02": 0.0,
			"-0.019": 0.0,
			"-0.018": 0.0,
			"-0.017": 0.0,
			"-0.016": 0.0,
			"-0.015": 0.0,
			"-0.014": 0.0,
			"-0.013": 0.0,
			"-0.012": 0.0,
			"-0.011": 0.0,
			"-0.01": 0.0,
			"-0.009": 0.0,
			"-0.008": 0.03354697423,
			"-0.007": 5.00749121121,
			"-0.006": 9.28044476502,
			"-0.005": 11.743706335,
			"-0.004": 27.8496324282,
			"-0.003": 32.319998808,
			"-0.002": 24.0641535899,
			"-0.001": 23.2168057745,
			"0.0": 24.9978558479,
			"0.001": 17.1865045734,
			"0.002": 15.5521279875,
			"0.003": 12.3942306232,
			"0.004": 14.3178712869,
			"0.005": 19.1039694632,
			"0.006": 17.4701196232,
			"0.007": 11.7693393402,
			"0.008": 0.126524170526,
			"0.009": 0.0,
			"0.01": 0.0,
			"0.011": 0.0,
			"0.012": 0.0,
			"0.013": 0.0,
			"0.014": 0.0,
			"0.015": 0.0,
			"0.016": 0.0,
			"0.017": 0.0,
			"0.018": 0.0,
			"0.019": 0.0,
			"0.02": 0.0,
			"0.021": 0.0,
			"0.022": 0.0,
			"0.023": 0.0,
			"0.024": 0.0,
			"0.025": 0.0
		}
	}
}
