{
	 "smiles": "OC(=O)C1=CC=C(Cl)C=C1Cl", 
	 "Tm": 437.15, 
	 "num_atms": 15, 
	 "gaussian": { 
		 "optdone": 1, 
		 "sigma_profile": "yes", 
		 "theory": "DFT", 
		 "functional": "B3LYP", 
		 "basiset": "6-31G**", 
		 "properties": { 
			 "R2extent": 4129.6673, 
			 "electric_dipole_moment_norm": 3.25894762922, 
			 "electric_quadrupole_moment_norm": 9.39020016453, 
			 "total_energy": -1339.9922908, 
			 "HOMO_LUMO_gap": 0.20333, 
			 "cosmo_polarized_energy": -9.91, 
			 "cosmo_cavitation_energy": 23.23, 
			 "cosmo_dispersion_energy": -17.79, 
			 "cosmo_repulsion_energy": 1.41, 
			 "cosmo_total_nonelectrostatic_energy": 6.85, 
			 "SMD_solvation_energy": 4.66 
		},
		"coords": [
			{
				"x": 2.178738635,
				"y": 1.6643290475,
				"z": -0.5031986229,
				"element": "O" 
			},
			{
				"x": 1.7090339146,
				"y": 0.4561282286,
				"z": -0.8532305509,
				"element": "C" 
			},
			{
				"x": 1.4606402813,
				"y": 0.2199336833,
				"z": -2.0142960378,
				"element": "O" 
			},
			{
				"x": 1.4920359163,
				"y": -0.6062633826,
				"z": 0.2104856532,
				"element": "C" 
			},
			{
				"x": 0.9935828767,
				"y": -1.8241678055,
				"z": -0.2875434495,
				"element": "C" 
			},
			{
				"x": 0.729552277,
				"y": -2.9167828493,
				"z": 0.5258383166,
				"element": "C" 
			},
			{
				"x": 0.9677957046,
				"y": -2.8052292234,
				"z": 1.8956059621,
				"element": "C" 
			},
			{
				"x": 0.647072091,
				"y": -4.1608142003,
				"z": 2.9518355462,
				"element": "Cl" 
			},
			{
				"x": 1.4608751648,
				"y": -1.6229734993,
				"z": 2.4411650336,
				"element": "C" 
			},
			{
				"x": 1.7160404329,
				"y": -0.5426151179,
				"z": 1.5970882396,
				"element": "C" 
			},
			{
				"x": 2.3404942646,
				"y": 0.9030412169,
				"z": 2.4097924115,
				"element": "Cl" 
			},
			{
				"x": 2.3386716663,
				"y": 1.7299068845,
				"z": 0.4524413984,
				"element": "H" 
			},
			{
				"x": 0.8202282442,
				"y": -1.8758802412,
				"z": -1.3563270206,
				"element": "H" 
			},
			{
				"x": 0.3457145725,
				"y": -3.8407462931,
				"z": 0.1093265216,
				"element": "H" 
			},
			{
				"x": 1.6447239584,
				"y": -1.5401664481,
				"z": 3.505016599,
				"element": "H" 
			}
		],
		 "valence_orbital": [ 
			{
				"type": "occ",
				"energy": -0.33673,
				"method": "rhf"
			},
			{
				"type": "occ",
				"energy": -0.3193,
				"method": "rhf"
			},
			{
				"type": "occ",
				"energy": -0.28587,
				"method": "rhf"
			},
			{
				"type": "occ",
				"energy": -0.28486,
				"method": "rhf"
			},
			{
				"type": "occ",
				"energy": -0.27553,
				"method": "rhf"
			},
			{
				"type": "unocc",
				"energy": -0.0722,
				"method": "rhf"
			},
			{
				"type": "unocc",
				"energy": -0.04485,
				"method": "rhf"
			},
			{
				"type": "unocc",
				"energy": -0.02075,
				"method": "rhf"
			},
			{
				"type": "unocc",
				"energy": 0.02378,
				"method": "rhf"
			},
			{
				"type": "unocc",
				"energy": 0.03412,
				"method": "rhf"
			}
		],
		"cosmo_sigma_profile": { 
			"-0.025": 0.0,
			"-0.024": 0.0,
			"-0.023": 0.0,
			"-0.022": 0.0,
			"-0.021": 0.0,
			"-0.02": 0.0,
			"-0.019": 0.0,
			"-0.018": 0.0,
			"-0.017": 0.0,
			"-0.016": 0.0,
			"-0.015": 0.0,
			"-0.014": 0.0,
			"-0.013": 0.0,
			"-0.012": 0.234353671019,
			"-0.011": 0.891668914653,
			"-0.01": 1.45287189679,
			"-0.009": 4.19118545592,
			"-0.008": 5.09294970492,
			"-0.007": 7.60182623176,
			"-0.006": 7.08829459133,
			"-0.005": 7.54880269931,
			"-0.004": 9.17386071053,
			"-0.003": 11.9747812284,
			"-0.002": 13.1827675798,
			"-0.001": 22.3901308886,
			"0.0": 25.2904489633,
			"0.001": 15.8596047108,
			"0.002": 13.8217436562,
			"0.003": 12.5372696855,
			"0.004": 6.92416445528,
			"0.005": 2.22354206323,
			"0.006": 2.25947546332,
			"0.007": 2.14249191756,
			"0.008": 2.84893044122,
			"0.009": 3.41034934032,
			"0.01": 4.79830749856,
			"0.011": 5.10280838782,
			"0.012": 3.04553062484,
			"0.013": 1.04673160426,
			"0.014": 0.000592704819209,
			"0.015": 0.0,
			"0.016": 0.0,
			"0.017": 0.0,
			"0.018": 0.0,
			"0.019": 0.0,
			"0.02": 0.0,
			"0.021": 0.0,
			"0.022": 0.0,
			"0.023": 0.0,
			"0.024": 0.0,
			"0.025": 0.0
		}
	}
}
