{
	 "smiles": "CC(C)(C)CC(C)(C)N", 
	 "Tm": 206.15, 
	 "num_atms": 28, 
	 "gaussian": { 
		 "optdone": 1, 
		 "sigma_profile": "yes", 
		 "theory": "DFT", 
		 "functional": "B3LYP", 
		 "basiset": "6-31G**", 
		 "properties": { 
			 "R2extent": 1578.8432, 
			 "electric_dipole_moment_norm": 1.24734160918, 
			 "electric_quadrupole_moment_norm": 4.73636831233, 
			 "total_energy": -371.069680818, 
			 "HOMO_LUMO_gap": 0.2854, 
			 "cosmo_polarized_energy": -4.94, 
			 "cosmo_cavitation_energy": 26.78, 
			 "cosmo_dispersion_energy": -18.8, 
			 "cosmo_repulsion_energy": 1.5, 
			 "cosmo_total_nonelectrostatic_energy": 9.48, 
			 "SMD_solvation_energy": 3.82 
		},
		"coords": [
			{
				"x": 0.6141136348,
				"y": 1.1322446537,
				"z": 2.2901659419,
				"element": "C" 
			},
			{
				"x": -0.6491449849,
				"y": 0.6232674639,
				"z": 1.5671051427,
				"element": "C" 
			},
			{
				"x": -1.5938650078,
				"y": 0.0167812283,
				"z": 2.630380454,
				"element": "C" 
			},
			{
				"x": -1.3826469601,
				"y": 1.8195520614,
				"z": 0.9231084547,
				"element": "C" 
			},
			{
				"x": -0.3658200224,
				"y": -0.5120272737,
				"z": 0.5334760346,
				"element": "C" 
			},
			{
				"x": 0.7775460086,
				"y": -0.4653413615,
				"z": -0.533516353,
				"element": "C" 
			},
			{
				"x": 0.7887932843,
				"y": 0.8166132963,
				"z": -1.382329334,
				"element": "C" 
			},
			{
				"x": 0.5584950079,
				"y": -1.6703047116,
				"z": -1.471408935,
				"element": "C" 
			},
			{
				"x": 2.1365541399,
				"y": -0.6262904867,
				"z": 0.0246224746,
				"element": "N" 
			},
			{
				"x": 1.1851636156,
				"y": 0.310005041,
				"z": 2.7351818884,
				"element": "H" 
			},
			{
				"x": 1.2779699472,
				"y": 1.6901710299,
				"z": 1.6216695196,
				"element": "H" 
			},
			{
				"x": 0.3344972682,
				"y": 1.8145932949,
				"z": 3.1013348071,
				"element": "H" 
			},
			{
				"x": -1.8935331142,
				"y": 0.7730825041,
				"z": 3.3647736319,
				"element": "H" 
			},
			{
				"x": -1.1091264712,
				"y": -0.8031741095,
				"z": 3.1724959492,
				"element": "H" 
			},
			{
				"x": -2.5054270991,
				"y": -0.3809737622,
				"z": 2.1699170801,
				"element": "H" 
			},
			{
				"x": -2.2963015662,
				"y": 1.491515491,
				"z": 0.4141630319,
				"element": "H" 
			},
			{
				"x": -0.7653331399,
				"y": 2.3474832807,
				"z": 0.193260852,
				"element": "H" 
			},
			{
				"x": -1.6752164661,
				"y": 2.5447310058,
				"z": 1.6913904979,
				"element": "H" 
			},
			{
				"x": -0.1861657611,
				"y": -1.4339406146,
				"z": 1.1060278793,
				"element": "H" 
			},
			{
				"x": -1.311993188,
				"y": -0.6847223223,
				"z": 0.0010266667,
				"element": "H" 
			},
			{
				"x": -0.1926881358,
				"y": 1.0094574239,
				"z": -1.8264641401,
				"element": "H" 
			},
			{
				"x": 1.5222411626,
				"y": 0.7147136392,
				"z": -2.1874823762,
				"element": "H" 
			},
			{
				"x": 1.0710191869,
				"y": 1.6941108018,
				"z": -0.7924038512,
				"element": "H" 
			},
			{
				"x": 0.5341177313,
				"y": -2.6097970742,
				"z": -0.9058542297,
				"element": "H" 
			},
			{
				"x": 1.3772780322,
				"y": -1.7324377291,
				"z": -2.1934317381,
				"element": "H" 
			},
			{
				"x": -0.3875443017,
				"y": -1.5855370285,
				"z": -2.0158898381,
				"element": "H" 
			},
			{
				"x": 2.3583121528,
				"y": 0.1446040773,
				"z": 0.6470367615,
				"element": "H" 
			},
			{
				"x": 2.1754050465,
				"y": -1.4705798193,
				"z": 0.5931437274,
				"element": "H" 
			}
		],
		 "valence_orbital": [ 
			{
				"type": "occ",
				"energy": -0.32856,
				"method": "rhf"
			},
			{
				"type": "occ",
				"energy": -0.32094,
				"method": "rhf"
			},
			{
				"type": "occ",
				"energy": -0.30863,
				"method": "rhf"
			},
			{
				"type": "occ",
				"energy": -0.29845,
				"method": "rhf"
			},
			{
				"type": "occ",
				"energy": -0.22518,
				"method": "rhf"
			},
			{
				"type": "unocc",
				"energy": 0.06022,
				"method": "rhf"
			},
			{
				"type": "unocc",
				"energy": 0.10606,
				"method": "rhf"
			},
			{
				"type": "unocc",
				"energy": 0.11243,
				"method": "rhf"
			},
			{
				"type": "unocc",
				"energy": 0.12175,
				"method": "rhf"
			},
			{
				"type": "unocc",
				"energy": 0.12662,
				"method": "rhf"
			}
		],
		"cosmo_sigma_profile": { 
			"-0.025": 0.0,
			"-0.024": 0.0,
			"-0.023": 0.0,
			"-0.022": 0.0,
			"-0.021": 0.0,
			"-0.02": 0.0,
			"-0.019": 0.0,
			"-0.018": 0.0,
			"-0.017": 0.0,
			"-0.016": 0.0,
			"-0.015": 0.0,
			"-0.014": 0.0,
			"-0.013": 0.0,
			"-0.012": 0.0,
			"-0.011": 0.0,
			"-0.01": 0.0,
			"-0.009": 0.252150578065,
			"-0.008": 0.997067909773,
			"-0.007": 2.78349910339,
			"-0.006": 3.51020550411,
			"-0.005": 3.80975474287,
			"-0.004": 5.35483822499,
			"-0.003": 11.251045731,
			"-0.002": 32.9159272647,
			"-0.001": 37.9943857849,
			"0.0": 29.2319564175,
			"0.001": 31.2623694707,
			"0.002": 28.853637865,
			"0.003": 3.56868304175,
			"0.004": 0.501719623483,
			"0.005": 1.43130403239,
			"0.006": 0.606907865758,
			"0.007": 1.18093273491,
			"0.008": 1.02058903477,
			"0.009": 0.826636057754,
			"0.01": 0.528057404673,
			"0.011": 0.84162338928,
			"0.012": 0.413922603603,
			"0.013": 0.884609143144,
			"0.014": 0.406849745886,
			"0.015": 1.14113558117,
			"0.016": 0.384999153258,
			"0.017": 0.433291465838,
			"0.018": 0.47963141947,
			"0.019": 0.563526315624,
			"0.02": 0.325682021301,
			"0.021": 0.0,
			"0.022": 0.0,
			"0.023": 0.0,
			"0.024": 0.0,
			"0.025": 0.0
		}
	}
}
