{
	 "smiles": "CC(C)C1=CC2=C(C=C1)C1=C(C=C2)C(C)=CC=C1", 
	 "Tm": 373.15, 
	 "num_atms": 36, 
	 "gaussian": { 
		 "optdone": 1, 
		 "sigma_profile": "yes", 
		 "theory": "DFT", 
		 "functional": "B3LYP", 
		 "basiset": "6-31G**", 
		 "properties": { 
			 "R2extent": 5924.172, 
			 "electric_dipole_moment_norm": 0.319811788401, 
			 "electric_quadrupole_moment_norm": 11.5679853402, 
			 "total_energy": -696.811910657, 
			 "HOMO_LUMO_gap": 0.17006, 
			 "cosmo_polarized_energy": -6.14, 
			 "cosmo_cavitation_energy": 37.27, 
			 "cosmo_dispersion_energy": -27.02, 
			 "cosmo_repulsion_energy": 2.04, 
			 "cosmo_total_nonelectrostatic_energy": 12.29, 
			 "SMD_solvation_energy": 5.77 
		},
		"coords": [
			{
				"x": -4.7005258919,
				"y": -0.3158414847,
				"z": 1.5948831497,
				"element": "C" 
			},
			{
				"x": -3.4906072144,
				"y": 0.5534687326,
				"z": 1.9873557576,
				"element": "C" 
			},
			{
				"x": -3.8766871237,
				"y": 2.0437763976,
				"z": 2.0471845224,
				"element": "C" 
			},
			{
				"x": -2.3005616451,
				"y": 0.3137084078,
				"z": 1.0698535406,
				"element": "C" 
			},
			{
				"x": -1.1100866619,
				"y": -0.1961539149,
				"z": 1.5580642479,
				"element": "C" 
			},
			{
				"x": 0.009987114,
				"y": -0.4282111603,
				"z": 0.725332923,
				"element": "C" 
			},
			{
				"x": -0.0677930267,
				"y": -0.1342072941,
				"z": -0.6662988053,
				"element": "C" 
			},
			{
				"x": -1.2919217432,
				"y": 0.3868738078,
				"z": -1.1504830552,
				"element": "C" 
			},
			{
				"x": -2.3694566121,
				"y": 0.6032361267,
				"z": -0.3138919896,
				"element": "C" 
			},
			{
				"x": 1.0907673033,
				"y": -0.3766908914,
				"z": -1.5162706982,
				"element": "C" 
			},
			{
				"x": 2.2862670241,
				"y": -0.9059247882,
				"z": -0.9382191644,
				"element": "C" 
			},
			{
				"x": 2.3110466053,
				"y": -1.1846052522,
				"z": 0.4709937657,
				"element": "C" 
			},
			{
				"x": 1.2276363449,
				"y": -0.9572881226,
				"z": 1.2630751867,
				"element": "C" 
			},
			{
				"x": 3.4304028396,
				"y": -1.1494855037,
				"z": -1.75748364,
				"element": "C" 
			},
			{
				"x": 4.7056873276,
				"y": -1.708564485,
				"z": -1.1696937609,
				"element": "C" 
			},
			{
				"x": 3.3618192594,
				"y": -0.8659774098,
				"z": -3.1118051854,
				"element": "C" 
			},
			{
				"x": 2.189101718,
				"y": -0.3452838816,
				"z": -3.6864935454,
				"element": "C" 
			},
			{
				"x": 1.0771077283,
				"y": -0.1057701333,
				"z": -2.9049995609,
				"element": "C" 
			},
			{
				"x": -4.4392499621,
				"y": -1.3785336268,
				"z": 1.5886219221,
				"element": "H" 
			},
			{
				"x": -5.5257227917,
				"y": -0.1706393698,
				"z": 2.3007196392,
				"element": "H" 
			},
			{
				"x": -5.0694638093,
				"y": -0.0572534851,
				"z": 0.5961955308,
				"element": "H" 
			},
			{
				"x": -3.1819534596,
				"y": 0.2521893605,
				"z": 2.9970962604,
				"element": "H" 
			},
			{
				"x": -4.2087461748,
				"y": 2.4087862784,
				"z": 1.068987595,
				"element": "H" 
			},
			{
				"x": -3.0291622855,
				"y": 2.6601031161,
				"z": 2.3625548388,
				"element": "H" 
			},
			{
				"x": -4.6971371363,
				"y": 2.2021152231,
				"z": 2.7557249842,
				"element": "H" 
			},
			{
				"x": -1.0198592236,
				"y": -0.4307945729,
				"z": 2.6170499751,
				"element": "H" 
			},
			{
				"x": -1.4008666256,
				"y": 0.6267480065,
				"z": -2.202284695,
				"element": "H" 
			},
			{
				"x": -3.28805097,
				"y": 1.0048938118,
				"z": -0.7331861726,
				"element": "H" 
			},
			{
				"x": 3.2172746172,
				"y": -1.5859967144,
				"z": 0.9109879402,
				"element": "H" 
			},
			{
				"x": 1.2701319213,
				"y": -1.1760760092,
				"z": 2.3271419703,
				"element": "H" 
			},
			{
				"x": 5.1205344878,
				"y": -1.0531751161,
				"z": -0.3947882478,
				"element": "H" 
			},
			{
				"x": 4.5472876767,
				"y": -2.690579305,
				"z": -0.7085400703,
				"element": "H" 
			},
			{
				"x": 5.4671422983,
				"y": -1.8266075316,
				"z": -1.9448394114,
				"element": "H" 
			},
			{
				"x": 4.2301162013,
				"y": -1.0497290396,
				"z": -3.7393050571,
				"element": "H" 
			},
			{
				"x": 2.159970729,
				"y": -0.1310943192,
				"z": -4.751077762,
				"element": "H" 
			},
			{
				"x": 0.1851711614,
				"y": 0.2958841426,
				"z": -3.3718629285,
				"element": "H" 
			}
		],
		 "valence_orbital": [ 
			{
				"type": "occ",
				"energy": -0.30561,
				"method": "rhf"
			},
			{
				"type": "occ",
				"energy": -0.2705,
				"method": "rhf"
			},
			{
				"type": "occ",
				"energy": -0.25216,
				"method": "rhf"
			},
			{
				"type": "occ",
				"energy": -0.21449,
				"method": "rhf"
			},
			{
				"type": "occ",
				"energy": -0.2059,
				"method": "rhf"
			},
			{
				"type": "unocc",
				"energy": -0.03584,
				"method": "rhf"
			},
			{
				"type": "unocc",
				"energy": -0.02517,
				"method": "rhf"
			},
			{
				"type": "unocc",
				"energy": 0.01108,
				"method": "rhf"
			},
			{
				"type": "unocc",
				"energy": 0.04242,
				"method": "rhf"
			},
			{
				"type": "unocc",
				"energy": 0.08311,
				"method": "rhf"
			}
		],
		"cosmo_sigma_profile": { 
			"-0.025": 0.0,
			"-0.024": 0.0,
			"-0.023": 0.0,
			"-0.022": 0.0,
			"-0.021": 0.0,
			"-0.02": 0.0,
			"-0.019": 0.0,
			"-0.018": 0.0,
			"-0.017": 0.0,
			"-0.016": 0.0,
			"-0.015": 0.0,
			"-0.014": 0.0,
			"-0.013": 0.0,
			"-0.012": 0.0,
			"-0.011": 0.0,
			"-0.01": 0.0,
			"-0.009": 0.0,
			"-0.008": 0.659155288954,
			"-0.007": 1.72267138373,
			"-0.006": 4.34029431025,
			"-0.005": 17.0677124618,
			"-0.004": 25.0859385195,
			"-0.003": 30.6310751277,
			"-0.002": 29.3391967039,
			"-0.001": 29.9576226913,
			"0.0": 29.9485630935,
			"0.001": 28.8369939102,
			"0.002": 18.9977157943,
			"0.003": 16.9946471518,
			"0.004": 27.5087979518,
			"0.005": 25.2849976898,
			"0.006": 8.61272260227,
			"0.007": 0.0131382433126,
			"0.008": 0.0,
			"0.009": 0.0,
			"0.01": 0.0,
			"0.011": 0.0,
			"0.012": 0.0,
			"0.013": 0.0,
			"0.014": 0.0,
			"0.015": 0.0,
			"0.016": 0.0,
			"0.017": 0.0,
			"0.018": 0.0,
			"0.019": 0.0,
			"0.02": 0.0,
			"0.021": 0.0,
			"0.022": 0.0,
			"0.023": 0.0,
			"0.024": 0.0,
			"0.025": 0.0
		}
	}
}
