{
	 "smiles": "OC(=O)CC1=C(C=C(Cl)C=C1)C(F)(F)F", 
	 "Tm": 362.15, 
	 "num_atms": 21, 
	 "gaussian": { 
		 "optdone": 1, 
		 "sigma_profile": "yes", 
		 "theory": "DFT", 
		 "functional": "B3LYP", 
		 "basiset": "6-31G**", 
		 "properties": { 
			 "R2extent": 4879.368, 
			 "electric_dipole_moment_norm": 2.98952327303, 
			 "electric_quadrupole_moment_norm": 15.8614227224, 
			 "total_energy": -1256.75326073, 
			 "HOMO_LUMO_gap": 0.20514, 
			 "cosmo_polarized_energy": -11.6, 
			 "cosmo_cavitation_energy": 28.3, 
			 "cosmo_dispersion_energy": -20.29, 
			 "cosmo_repulsion_energy": 1.53, 
			 "cosmo_total_nonelectrostatic_energy": 9.54, 
			 "SMD_solvation_energy": 6.5 
		},
		"coords": [
			{
				"x": 1.5862728446,
				"y": -1.8962202831,
				"z": -0.8078146576,
				"element": "O" 
			},
			{
				"x": 0.9136767618,
				"y": -2.000825066,
				"z": -1.9748176656,
				"element": "C" 
			},
			{
				"x": 0.4292839019,
				"y": -3.048547142,
				"z": -2.3231286347,
				"element": "O" 
			},
			{
				"x": 0.7858123303,
				"y": -0.705242733,
				"z": -2.7899681444,
				"element": "C" 
			},
			{
				"x": -0.2226410135,
				"y": 0.2413482686,
				"z": -2.1575482845,
				"element": "C" 
			},
			{
				"x": 0.1192417386,
				"y": 1.4363270401,
				"z": -1.4958463238,
				"element": "C" 
			},
			{
				"x": -0.8647629793,
				"y": 2.2489834648,
				"z": -0.923762319,
				"element": "C" 
			},
			{
				"x": -2.2006468758,
				"y": 1.8687633165,
				"z": -1.0032793097,
				"element": "C" 
			},
			{
				"x": -3.4303192704,
				"y": 2.8912403147,
				"z": -0.2883449766,
				"element": "Cl" 
			},
			{
				"x": -2.5678844678,
				"y": 0.6867415935,
				"z": -1.644455718,
				"element": "C" 
			},
			{
				"x": -1.5778317468,
				"y": -0.1108764065,
				"z": -2.211244088,
				"element": "C" 
			},
			{
				"x": 1.5549830242,
				"y": 1.8835132996,
				"z": -1.3903856184,
				"element": "C" 
			},
			{
				"x": 2.1300240088,
				"y": 2.0627429871,
				"z": -2.5985843813,
				"element": "F" 
			},
			{
				"x": 1.6966712127,
				"y": 3.0265250296,
				"z": -0.7026718763,
				"element": "F" 
			},
			{
				"x": 2.3272335338,
				"y": 0.9475001292,
				"z": -0.7426049141,
				"element": "F" 
			},
			{
				"x": 1.8950300284,
				"y": -0.9868241016,
				"z": -0.671836974,
				"element": "H" 
			},
			{
				"x": 1.764361439,
				"y": -0.2376919633,
				"z": -2.9090100223,
				"element": "H" 
			},
			{
				"x": 0.4362624012,
				"y": -1.0003702525,
				"z": -3.7809553623,
				"element": "H" 
			},
			{
				"x": -0.5891945594,
				"y": 3.1677845285,
				"z": -0.422631891,
				"element": "H" 
			},
			{
				"x": -3.6111770412,
				"y": 0.3965469933,
				"z": -1.6985665603,
				"element": "H" 
			},
			{
				"x": -1.8567952711,
				"y": -1.0377190174,
				"z": -2.7039422779,
				"element": "H" 
			}
		],
		 "valence_orbital": [ 
			{
				"type": "occ",
				"energy": -0.33187,
				"method": "rhf"
			},
			{
				"type": "occ",
				"energy": -0.31926,
				"method": "rhf"
			},
			{
				"type": "occ",
				"energy": -0.29536,
				"method": "rhf"
			},
			{
				"type": "occ",
				"energy": -0.28395,
				"method": "rhf"
			},
			{
				"type": "occ",
				"energy": -0.26202,
				"method": "rhf"
			},
			{
				"type": "unocc",
				"energy": -0.05688,
				"method": "rhf"
			},
			{
				"type": "unocc",
				"energy": -0.04448,
				"method": "rhf"
			},
			{
				"type": "unocc",
				"energy": 0.00665,
				"method": "rhf"
			},
			{
				"type": "unocc",
				"energy": 0.01323,
				"method": "rhf"
			},
			{
				"type": "unocc",
				"energy": 0.08424,
				"method": "rhf"
			}
		],
		"cosmo_sigma_profile": { 
			"-0.025": 0.0,
			"-0.024": 0.0,
			"-0.023": 0.0,
			"-0.022": 0.0,
			"-0.021": 0.0,
			"-0.02": 0.0,
			"-0.019": 0.0,
			"-0.018": 0.0,
			"-0.017": 0.0,
			"-0.016": 0.0,
			"-0.015": 0.0,
			"-0.014": 0.0,
			"-0.013": 0.130135522935,
			"-0.012": 0.515854660773,
			"-0.011": 0.937587218115,
			"-0.01": 2.61607257867,
			"-0.009": 2.53762560793,
			"-0.008": 5.43512774515,
			"-0.007": 10.2349178593,
			"-0.006": 10.9007305965,
			"-0.005": 9.92216112531,
			"-0.004": 13.5860750825,
			"-0.003": 11.5888484388,
			"-0.002": 14.3148105182,
			"-0.001": 18.4532467135,
			"0.0": 22.7667404397,
			"0.001": 28.6638301977,
			"0.002": 27.4466361053,
			"0.003": 8.5044088505,
			"0.004": 11.7846081616,
			"0.005": 3.13734910715,
			"0.006": 2.12856927705,
			"0.007": 1.87476162212,
			"0.008": 2.65797094918,
			"0.009": 3.62661364934,
			"0.01": 4.99481022673,
			"0.011": 5.3799931486,
			"0.012": 4.3253531417,
			"0.013": 1.22043243371,
			"0.014": 0.0,
			"0.015": 0.0,
			"0.016": 0.0,
			"0.017": 0.0,
			"0.018": 0.0,
			"0.019": 0.0,
			"0.02": 0.0,
			"0.021": 0.0,
			"0.022": 0.0,
			"0.023": 0.0,
			"0.024": 0.0,
			"0.025": 0.0
		}
	}
}
