{
	 "smiles": "CC1=C(C)C(N)=C(N)C=C1", 
	 "Tm": 323.15, 
	 "num_atms": 22, 
	 "gaussian": { 
		 "optdone": 1, 
		 "sigma_profile": "yes", 
		 "theory": "DFT", 
		 "functional": "B3LYP", 
		 "basiset": "6-31G**", 
		 "properties": { 
			 "R2extent": 1727.0865, 
			 "electric_dipole_moment_norm": 1.06073896412, 
			 "electric_quadrupole_moment_norm": 7.42443353731, 
			 "total_energy": -421.603802735, 
			 "HOMO_LUMO_gap": 0.20111, 
			 "cosmo_polarized_energy": -9.47, 
			 "cosmo_cavitation_energy": 23.87, 
			 "cosmo_dispersion_energy": -17.98, 
			 "cosmo_repulsion_energy": 1.45, 
			 "cosmo_total_nonelectrostatic_energy": 7.34, 
			 "SMD_solvation_energy": 3.96 
		},
		"coords": [
			{
				"x": -1.7778781375,
				"y": -0.314828118,
				"z": 1.2976564511,
				"element": "C" 
			},
			{
				"x": -0.656173571,
				"y": 0.0297009237,
				"z": 0.3414382786,
				"element": "C" 
			},
			{
				"x": -0.3654373959,
				"y": -0.7769077816,
				"z": -0.7804380489,
				"element": "C" 
			},
			{
				"x": -1.1532484491,
				"y": -2.0286504454,
				"z": -1.0969907788,
				"element": "C" 
			},
			{
				"x": 0.6812209975,
				"y": -0.4112108326,
				"z": -1.6452643363,
				"element": "C" 
			},
			{
				"x": 1.0278570192,
				"y": -1.1808774942,
				"z": -2.7724951613,
				"element": "N" 
			},
			{
				"x": 1.4668367059,
				"y": 0.7330126739,
				"z": -1.3823550642,
				"element": "C" 
			},
			{
				"x": 2.5002537787,
				"y": 1.0451142942,
				"z": -2.2993324722,
				"element": "N" 
			},
			{
				"x": 1.1638640176,
				"y": 1.5228242743,
				"z": -0.2767609264,
				"element": "C" 
			},
			{
				"x": 0.1067179912,
				"y": 1.1787929889,
				"z": 0.5665266359,
				"element": "C" 
			},
			{
				"x": -1.6298919478,
				"y": -1.2898740632,
				"z": 1.7779751475,
				"element": "H" 
			},
			{
				"x": -1.8452941535,
				"y": 0.4324764123,
				"z": 2.0930933402,
				"element": "H" 
			},
			{
				"x": -2.7543382054,
				"y": -0.3488952437,
				"z": 0.7991634372,
				"element": "H" 
			},
			{
				"x": -1.6758568644,
				"y": -1.9479289689,
				"z": -2.0614372407,
				"element": "H" 
			},
			{
				"x": -0.5009412336,
				"y": -2.9092618786,
				"z": -1.1598273766,
				"element": "H" 
			},
			{
				"x": -1.9121413642,
				"y": -2.23976985,
				"z": -0.3433578555,
				"element": "H" 
			},
			{
				"x": 1.3446879921,
				"y": -0.5956966964,
				"z": -3.5397824866,
				"element": "H" 
			},
			{
				"x": 0.2980143704,
				"y": -1.8083033789,
				"z": -3.082853403,
				"element": "H" 
			},
			{
				"x": 3.0560094847,
				"y": 1.8366450894,
				"z": -1.9966201598,
				"element": "H" 
			},
			{
				"x": 3.1123757541,
				"y": 0.2496897292,
				"z": -2.4631622224,
				"element": "H" 
			},
			{
				"x": 1.7617526479,
				"y": 2.4081578148,
				"z": -0.0711249363,
				"element": "H" 
			},
			{
				"x": -0.115389437,
				"y": 1.8062905508,
				"z": 1.4253491786,
				"element": "H" 
			}
		],
		 "valence_orbital": [ 
			{
				"type": "occ",
				"energy": -0.32404,
				"method": "rhf"
			},
			{
				"type": "occ",
				"energy": -0.29827,
				"method": "rhf"
			},
			{
				"type": "occ",
				"energy": -0.2813,
				"method": "rhf"
			},
			{
				"type": "occ",
				"energy": -0.20698,
				"method": "rhf"
			},
			{
				"type": "occ",
				"energy": -0.17985,
				"method": "rhf"
			},
			{
				"type": "unocc",
				"energy": 0.02126,
				"method": "rhf"
			},
			{
				"type": "unocc",
				"energy": 0.0349,
				"method": "rhf"
			},
			{
				"type": "unocc",
				"energy": 0.07766,
				"method": "rhf"
			},
			{
				"type": "unocc",
				"energy": 0.09996,
				"method": "rhf"
			},
			{
				"type": "unocc",
				"energy": 0.11271,
				"method": "rhf"
			}
		],
		"cosmo_sigma_profile": { 
			"-0.025": 0.0,
			"-0.024": 0.0,
			"-0.023": 0.0,
			"-0.022": 0.0,
			"-0.021": 0.0,
			"-0.02": 0.0,
			"-0.019": 0.0,
			"-0.018": 0.0,
			"-0.017": 0.0,
			"-0.016": 0.0,
			"-0.015": 0.0,
			"-0.014": 0.0,
			"-0.013": 0.0,
			"-0.012": 0.184282859475,
			"-0.011": 2.28446295471,
			"-0.01": 4.28981261575,
			"-0.009": 4.27185982894,
			"-0.008": 5.98822431928,
			"-0.007": 4.38382949873,
			"-0.006": 5.67875979623,
			"-0.005": 6.3302217456,
			"-0.004": 9.7493131054,
			"-0.003": 17.8458990135,
			"-0.002": 15.5460893629,
			"-0.001": 16.2408690076,
			"0.0": 17.0333843339,
			"0.001": 15.2374199128,
			"0.002": 8.21498657884,
			"0.003": 6.30154265614,
			"0.004": 7.49963594303,
			"0.005": 6.26930563523,
			"0.006": 8.66571320018,
			"0.007": 7.70395625942,
			"0.008": 7.15023327004,
			"0.009": 3.25872419978,
			"0.01": 0.920040858607,
			"0.011": 1.23975791066,
			"0.012": 1.22134910674,
			"0.013": 1.19705505838,
			"0.014": 0.992352833285,
			"0.015": 1.0005836591,
			"0.016": 0.146806651739,
			"0.017": 0.0,
			"0.018": 0.0,
			"0.019": 0.0,
			"0.02": 0.0,
			"0.021": 0.0,
			"0.022": 0.0,
			"0.023": 0.0,
			"0.024": 0.0,
			"0.025": 0.0
		}
	}
}
