{
	 "smiles": "ClCC1=CC=C(C=C1)C(=O)N1CCCC1", 
	 "Tm": 472.15, 
	 "num_atms": 29, 
	 "gaussian": { 
		 "optdone": 1, 
		 "sigma_profile": "yes", 
		 "theory": "DFT", 
		 "functional": "B3LYP", 
		 "basiset": "6-31G**", 
		 "properties": { 
			 "R2extent": 6754.7476, 
			 "electric_dipole_moment_norm": 5.50525043481, 
			 "electric_quadrupole_moment_norm": 23.1396408107, 
			 "total_energy": -1055.90311687, 
			 "HOMO_LUMO_gap": 0.19371, 
			 "cosmo_polarized_energy": -13.87, 
			 "cosmo_cavitation_energy": 33.34, 
			 "cosmo_dispersion_energy": -24.17, 
			 "cosmo_repulsion_energy": 1.93, 
			 "cosmo_total_nonelectrostatic_energy": 11.1, 
			 "SMD_solvation_energy": 4.51 
		},
		"coords": [
			{
				"x": 3.4420818837,
				"y": 3.1112002285,
				"z": 2.7349715327,
				"element": "Cl" 
			},
			{
				"x": 2.8289854094,
				"y": 1.4988167758,
				"z": 2.1012772339,
				"element": "C" 
			},
			{
				"x": 1.6907619202,
				"y": 1.6573363912,
				"z": 1.138496923,
				"element": "C" 
			},
			{
				"x": 1.9331462576,
				"y": 1.8103175877,
				"z": -0.2320407908,
				"element": "C" 
			},
			{
				"x": 0.875662528,
				"y": 1.9376929186,
				"z": -1.130647843,
				"element": "C" 
			},
			{
				"x": -0.4487634329,
				"y": 1.9254558057,
				"z": -0.6739217848,
				"element": "C" 
			},
			{
				"x": -0.6912285965,
				"y": 1.8110707119,
				"z": 0.7018981644,
				"element": "C" 
			},
			{
				"x": 0.3652120834,
				"y": 1.6626785168,
				"z": 1.5947649061,
				"element": "C" 
			},
			{
				"x": -1.6345224618,
				"y": 2.1460455663,
				"z": -1.5772621723,
				"element": "C" 
			},
			{
				"x": -2.5181699464,
				"y": 2.934697594,
				"z": -1.2432761709,
				"element": "O" 
			},
			{
				"x": -1.6843452204,
				"y": 1.4558216739,
				"z": -2.7619526849,
				"element": "N" 
			},
			{
				"x": -0.9498510892,
				"y": 0.2085772572,
				"z": -3.0669297194,
				"element": "C" 
			},
			{
				"x": -1.6329232392,
				"y": -0.3169090277,
				"z": -4.3407906765,
				"element": "C" 
			},
			{
				"x": -3.0714386527,
				"y": 0.2096396273,
				"z": -4.2246749345,
				"element": "C" 
			},
			{
				"x": -2.8790242157,
				"y": 1.6030824019,
				"z": -3.6160539298,
				"element": "C" 
			},
			{
				"x": 2.5383981155,
				"y": 0.9336147678,
				"z": 2.9869477397,
				"element": "H" 
			},
			{
				"x": 3.6944402916,
				"y": 1.0253168693,
				"z": 1.6373834928,
				"element": "H" 
			},
			{
				"x": 2.9567754951,
				"y": 1.837531038,
				"z": -0.5965231357,
				"element": "H" 
			},
			{
				"x": 1.0842983175,
				"y": 2.0768187029,
				"z": -2.1865787614,
				"element": "H" 
			},
			{
				"x": -1.7158549875,
				"y": 1.8479955085,
				"z": 1.0566167733,
				"element": "H" 
			},
			{
				"x": 0.1636562886,
				"y": 1.5621193171,
				"z": 2.6580648926,
				"element": "H" 
			},
			{
				"x": -1.0453041525,
				"y": -0.5050078063,
				"z": -2.2384647813,
				"element": "H" 
			},
			{
				"x": 0.1160039846,
				"y": 0.3875903483,
				"z": -3.2253465279,
				"element": "H" 
			},
			{
				"x": -1.1481281213,
				"y": 0.1107005596,
				"z": -5.2258587645,
				"element": "H" 
			},
			{
				"x": -1.5689280905,
				"y": -1.4055258643,
				"z": -4.420565938,
				"element": "H" 
			},
			{
				"x": -3.6514048395,
				"y": -0.4209815194,
				"z": -3.5408595507,
				"element": "H" 
			},
			{
				"x": -3.5979897341,
				"y": 0.2376549133,
				"z": -5.182406075,
				"element": "H" 
			},
			{
				"x": -3.7159691124,
				"y": 1.949950008,
				"z": -3.0078826719,
				"element": "H" 
			},
			{
				"x": -2.6943766827,
				"y": 2.357599128,
				"z": -4.3922847451,
				"element": "H" 
			}
		],
		 "valence_orbital": [ 
			{
				"type": "occ",
				"energy": -0.29344,
				"method": "rhf"
			},
			{
				"type": "occ",
				"energy": -0.26393,
				"method": "rhf"
			},
			{
				"type": "occ",
				"energy": -0.26093,
				"method": "rhf"
			},
			{
				"type": "occ",
				"energy": -0.24028,
				"method": "rhf"
			},
			{
				"type": "occ",
				"energy": -0.23761,
				"method": "rhf"
			},
			{
				"type": "unocc",
				"energy": -0.0439,
				"method": "rhf"
			},
			{
				"type": "unocc",
				"energy": -0.0132,
				"method": "rhf"
			},
			{
				"type": "unocc",
				"energy": 0.02232,
				"method": "rhf"
			},
			{
				"type": "unocc",
				"energy": 0.05558,
				"method": "rhf"
			},
			{
				"type": "unocc",
				"energy": 0.07143,
				"method": "rhf"
			}
		],
		"cosmo_sigma_profile": { 
			"-0.025": 0.0,
			"-0.024": 0.0,
			"-0.023": 0.0,
			"-0.022": 0.0,
			"-0.021": 0.0,
			"-0.02": 0.0,
			"-0.019": 0.0,
			"-0.018": 0.0,
			"-0.017": 0.0,
			"-0.016": 0.0,
			"-0.015": 0.0,
			"-0.014": 0.0,
			"-0.013": 0.0,
			"-0.012": 0.0,
			"-0.011": 0.0,
			"-0.01": 0.0,
			"-0.009": 0.0,
			"-0.008": 2.75366348431,
			"-0.007": 9.9189575186,
			"-0.006": 12.3354881185,
			"-0.005": 13.5797505438,
			"-0.004": 24.8945097758,
			"-0.003": 33.415945281,
			"-0.002": 29.6824218503,
			"-0.001": 21.1923018598,
			"0.0": 19.2490364183,
			"0.001": 11.8263332687,
			"0.002": 11.3931916879,
			"0.003": 14.288799284,
			"0.004": 16.4449328111,
			"0.005": 7.88252580294,
			"0.006": 11.0328630168,
			"0.007": 8.38212849831,
			"0.008": 1.72160189027,
			"0.009": 1.87260234011,
			"0.01": 1.90309894931,
			"0.011": 0.988572479475,
			"0.012": 1.73094484718,
			"0.013": 3.11011211761,
			"0.014": 4.99681642413,
			"0.015": 0.916291700716,
			"0.016": 0.0,
			"0.017": 0.0,
			"0.018": 0.0,
			"0.019": 0.0,
			"0.02": 0.0,
			"0.021": 0.0,
			"0.022": 0.0,
			"0.023": 0.0,
			"0.024": 0.0,
			"0.025": 0.0
		}
	}
}
