{
	 "smiles": "FC1=C(NC(=O)CNCC2=CC=C(Cl)C=C2)C=CC=C1", 
	 "Tm": 364.15, 
	 "num_atms": 34, 
	 "gaussian": { 
		 "optdone": 1, 
		 "sigma_profile": "yes", 
		 "theory": "DFT", 
		 "functional": "B3LYP", 
		 "basiset": "6-31G**", 
		 "properties": { 
			 "R2extent": 7211.3812, 
			 "electric_dipole_moment_norm": 4.73750772981, 
			 "electric_quadrupole_moment_norm": 10.9126269111, 
			 "total_energy": -1324.79048356, 
			 "HOMO_LUMO_gap": 0.20126, 
			 "cosmo_polarized_energy": -14.03, 
			 "cosmo_cavitation_energy": 40.16, 
			 "cosmo_dispersion_energy": -27.2, 
			 "cosmo_repulsion_energy": 2.1, 
			 "cosmo_total_nonelectrostatic_energy": 15.05, 
			 "SMD_solvation_energy": 6.76 
		},
		"coords": [
			{
				"x": 3.7997231176,
				"y": -1.521923184,
				"z": 0.4076475451,
				"element": "F" 
			},
			{
				"x": 3.2690003586,
				"y": -0.3189659424,
				"z": 0.7401488289,
				"element": "C" 
			},
			{
				"x": 2.1661443333,
				"y": 0.1321695562,
				"z": -0.0018468145,
				"element": "C" 
			},
			{
				"x": 1.695921121,
				"y": -0.7071308194,
				"z": -1.0272185189,
				"element": "N" 
			},
			{
				"x": 1.0957535114,
				"y": -0.4524462999,
				"z": -2.2436149636,
				"element": "C" 
			},
			{
				"x": 0.8307178455,
				"y": -1.3832910959,
				"z": -2.9936482486,
				"element": "O" 
			},
			{
				"x": 0.8143863934,
				"y": 0.9906576773,
				"z": -2.666688909,
				"element": "C" 
			},
			{
				"x": -0.459428764,
				"y": 1.5070220537,
				"z": -2.1500224475,
				"element": "N" 
			},
			{
				"x": -1.6579744556,
				"y": 0.7864601462,
				"z": -2.6177866095,
				"element": "C" 
			},
			{
				"x": -2.1034561483,
				"y": -0.3182863696,
				"z": -1.6752766204,
				"element": "C" 
			},
			{
				"x": -2.3059694837,
				"y": -0.0499693169,
				"z": -0.3153219496,
				"element": "C" 
			},
			{
				"x": -2.7634885162,
				"y": -1.0378992516,
				"z": 0.5542411041,
				"element": "C" 
			},
			{
				"x": -3.0227675374,
				"y": -2.3137022974,
				"z": 0.0522219794,
				"element": "C" 
			},
			{
				"x": -3.6031919867,
				"y": -3.5692093747,
				"z": 1.1417417471,
				"element": "Cl" 
			},
			{
				"x": -2.8239378252,
				"y": -2.6111655263,
				"z": -1.2938309626,
				"element": "C" 
			},
			{
				"x": -2.3617572029,
				"y": -1.6083670686,
				"z": -2.1478332216,
				"element": "C" 
			},
			{
				"x": 1.5907503932,
				"y": 1.3554857059,
				"z": 0.3689849116,
				"element": "C" 
			},
			{
				"x": 2.1433898842,
				"y": 2.102574019,
				"z": 1.4119090299,
				"element": "C" 
			},
			{
				"x": 3.249929054,
				"y": 1.6361641329,
				"z": 2.1217336517,
				"element": "C" 
			},
			{
				"x": 3.8142906737,
				"y": 0.4022170682,
				"z": 1.7879200079,
				"element": "C" 
			},
			{
				"x": 1.9485184812,
				"y": -1.6843853125,
				"z": -0.9356309731,
				"element": "H" 
			},
			{
				"x": 1.6134855055,
				"y": 1.6516336554,
				"z": -2.3149330538,
				"element": "H" 
			},
			{
				"x": 0.8454239712,
				"y": 0.9582870497,
				"z": -3.766134049,
				"element": "H" 
			},
			{
				"x": -0.5288158991,
				"y": 2.4812474655,
				"z": -2.4273117302,
				"element": "H" 
			},
			{
				"x": -1.5178467816,
				"y": 0.368784409,
				"z": -3.6261945938,
				"element": "H" 
			},
			{
				"x": -2.4647798598,
				"y": 1.5263485319,
				"z": -2.6905226872,
				"element": "H" 
			},
			{
				"x": -2.0942367981,
				"y": 0.9438376065,
				"z": 0.0680155398,
				"element": "H" 
			},
			{
				"x": -2.9193662845,
				"y": -0.8254616878,
				"z": 1.606266767,
				"element": "H" 
			},
			{
				"x": -3.0165679343,
				"y": -3.611420792,
				"z": -1.665574279,
				"element": "H" 
			},
			{
				"x": -2.1803704966,
				"y": -1.8429676236,
				"z": -3.1924941885,
				"element": "H" 
			},
			{
				"x": 0.6971345361,
				"y": 1.6911736718,
				"z": -0.1469197445,
				"element": "H" 
			},
			{
				"x": 1.6867757267,
				"y": 3.0500824125,
				"z": 1.6816334766,
				"element": "H" 
			},
			{
				"x": 3.6681204226,
				"y": 2.2175383838,
				"z": 2.9371302128,
				"element": "H" 
			},
			{
				"x": 4.6680906448,
				"y": -0.0048915829,
				"z": 2.318709763,
				"element": "H" 
			}
		],
		 "valence_orbital": [ 
			{
				"type": "occ",
				"energy": -0.25668,
				"method": "rhf"
			},
			{
				"type": "occ",
				"energy": -0.25591,
				"method": "rhf"
			},
			{
				"type": "occ",
				"energy": -0.24741,
				"method": "rhf"
			},
			{
				"type": "occ",
				"energy": -0.23493,
				"method": "rhf"
			},
			{
				"type": "occ",
				"energy": -0.22562,
				"method": "rhf"
			},
			{
				"type": "unocc",
				"energy": -0.02436,
				"method": "rhf"
			},
			{
				"type": "unocc",
				"energy": -0.01232,
				"method": "rhf"
			},
			{
				"type": "unocc",
				"energy": -0.00611,
				"method": "rhf"
			},
			{
				"type": "unocc",
				"energy": -0.00447,
				"method": "rhf"
			},
			{
				"type": "unocc",
				"energy": 0.02523,
				"method": "rhf"
			}
		],
		"cosmo_sigma_profile": { 
			"-0.025": 0.0,
			"-0.024": 0.0,
			"-0.023": 0.0,
			"-0.022": 0.0,
			"-0.021": 0.0,
			"-0.02": 0.0,
			"-0.019": 0.0,
			"-0.018": 0.0,
			"-0.017": 0.0,
			"-0.016": 0.0,
			"-0.015": 0.0,
			"-0.014": 0.0,
			"-0.013": 0.303828576519,
			"-0.012": 0.892699877402,
			"-0.011": 2.58712135121,
			"-0.01": 1.59490085043,
			"-0.009": 3.17584564123,
			"-0.008": 3.09828016993,
			"-0.007": 7.10260252243,
			"-0.006": 15.8228208345,
			"-0.005": 22.0727278629,
			"-0.004": 26.3780564665,
			"-0.003": 22.3306021261,
			"-0.002": 21.9260076611,
			"-0.001": 20.0637831824,
			"0.0": 20.6395008967,
			"0.001": 21.6909106599,
			"0.002": 27.0537563115,
			"0.003": 31.0516637034,
			"0.004": 36.7361395309,
			"0.005": 18.4183808333,
			"0.006": 2.98596154899,
			"0.007": 1.83276024875,
			"0.008": 2.15545956071,
			"0.009": 1.71143947451,
			"0.01": 1.34234058289,
			"0.011": 1.69369643884,
			"0.012": 2.10531985677,
			"0.013": 3.99431373072,
			"0.014": 1.56958820057,
			"0.015": 0.013960613924,
			"0.016": 0.0,
			"0.017": 0.0,
			"0.018": 0.0,
			"0.019": 0.0,
			"0.02": 0.0,
			"0.021": 0.0,
			"0.022": 0.0,
			"0.023": 0.0,
			"0.024": 0.0,
			"0.025": 0.0
		}
	}
}
