{
	 "smiles": "CCN(CC)CC", 
	 "Tm": 158.15, 
	 "num_atms": 22, 
	 "gaussian": { 
		 "optdone": 1, 
		 "sigma_profile": "yes", 
		 "theory": "DFT", 
		 "functional": "B3LYP", 
		 "basiset": "6-31G**", 
		 "properties": { 
			 "R2extent": 1058.9134, 
			 "electric_dipole_moment_norm": 0.520833063467, 
			 "electric_quadrupole_moment_norm": 1.38557365376, 
			 "total_energy": -292.430996039, 
			 "HOMO_LUMO_gap": 0.29598, 
			 "cosmo_polarized_energy": -2.51, 
			 "cosmo_cavitation_energy": 22.63, 
			 "cosmo_dispersion_energy": -16.33, 
			 "cosmo_repulsion_energy": 1.4, 
			 "cosmo_total_nonelectrostatic_energy": 7.7, 
			 "SMD_solvation_energy": 2.55 
		},
		"coords": [
			{
				"x": -0.8608609394,
				"y": 0.4552059355,
				"z": 1.9450875493,
				"element": "C" 
			},
			{
				"x": -0.6702574921,
				"y": -0.5260744287,
				"z": 0.7866195148,
				"element": "C" 
			},
			{
				"x": 0.0655558701,
				"y": 0.0546793172,
				"z": -0.343394146,
				"element": "N" 
			},
			{
				"x": -0.7875959897,
				"y": 0.9199477633,
				"z": -1.1674634956,
				"element": "C" 
			},
			{
				"x": 0.0011264472,
				"y": 1.9826616528,
				"z": -1.935509366,
				"element": "C" 
			},
			{
				"x": 0.7417931806,
				"y": -0.9731017518,
				"z": -1.1446942871,
				"element": "C" 
			},
			{
				"x": 2.0393577322,
				"y": -1.4729059447,
				"z": -0.5061294301,
				"element": "C" 
			},
			{
				"x": -1.3828119772,
				"y": -0.0320147816,
				"z": 2.7758275043,
				"element": "H" 
			},
			{
				"x": 0.1093937393,
				"y": 0.8119134972,
				"z": 2.3029002248,
				"element": "H" 
			},
			{
				"x": -1.4524531405,
				"y": 1.3293394623,
				"z": 1.6548420679,
				"element": "H" 
			},
			{
				"x": -0.099644279,
				"y": -1.3837356145,
				"z": 1.1558705196,
				"element": "H" 
			},
			{
				"x": -1.6508740423,
				"y": -0.9286409119,
				"z": 0.4646463765,
				"element": "H" 
			},
			{
				"x": -1.4917654384,
				"y": 1.4307063569,
				"z": -0.5035406394,
				"element": "H" 
			},
			{
				"x": -1.4063841125,
				"y": 0.3257699688,
				"z": -1.8684698481,
				"element": "H" 
			},
			{
				"x": 0.7090964685,
				"y": 1.5417698977,
				"z": -2.644543671,
				"element": "H" 
			},
			{
				"x": 0.5693350422,
				"y": 2.6083362096,
				"z": -1.2409969267,
				"element": "H" 
			},
			{
				"x": -0.6788978883,
				"y": 2.623200594,
				"z": -2.5075416643,
				"element": "H" 
			},
			{
				"x": 0.9863194546,
				"y": -0.5357541196,
				"z": -2.1175521377,
				"element": "H" 
			},
			{
				"x": 0.0685256346,
				"y": -1.8272837204,
				"z": -1.3554334436,
				"element": "H" 
			},
			{
				"x": 2.729432645,
				"y": -0.6389355986,
				"z": -0.3481321183,
				"element": "H" 
			},
			{
				"x": 2.5243256723,
				"y": -2.2105368102,
				"z": -1.1547134764,
				"element": "H" 
			},
			{
				"x": 1.8667834127,
				"y": -1.9525469735,
				"z": 0.462620893,
				"element": "H" 
			}
		],
		 "valence_orbital": [ 
			{
				"type": "occ",
				"energy": -0.34652,
				"method": "rhf"
			},
			{
				"type": "occ",
				"energy": -0.3453,
				"method": "rhf"
			},
			{
				"type": "occ",
				"energy": -0.3207,
				"method": "rhf"
			},
			{
				"type": "occ",
				"energy": -0.3207,
				"method": "rhf"
			},
			{
				"type": "occ",
				"energy": -0.20395,
				"method": "rhf"
			},
			{
				"type": "unocc",
				"energy": 0.09203,
				"method": "rhf"
			},
			{
				"type": "unocc",
				"energy": 0.10912,
				"method": "rhf"
			},
			{
				"type": "unocc",
				"energy": 0.10914,
				"method": "rhf"
			},
			{
				"type": "unocc",
				"energy": 0.1305,
				"method": "rhf"
			},
			{
				"type": "unocc",
				"energy": 0.1488,
				"method": "rhf"
			}
		],
		"cosmo_sigma_profile": { 
			"-0.025": 0.0,
			"-0.024": 0.0,
			"-0.023": 0.0,
			"-0.022": 0.0,
			"-0.021": 0.0,
			"-0.02": 0.0,
			"-0.019": 0.0,
			"-0.018": 0.0,
			"-0.017": 0.0,
			"-0.016": 0.0,
			"-0.015": 0.0,
			"-0.014": 0.0,
			"-0.013": 0.0,
			"-0.012": 0.0,
			"-0.011": 0.0,
			"-0.01": 0.0,
			"-0.009": 0.0,
			"-0.008": 0.0,
			"-0.007": 0.0,
			"-0.006": 0.0,
			"-0.005": 0.0423913454967,
			"-0.004": 5.62997651834,
			"-0.003": 14.3114619753,
			"-0.002": 23.0188683037,
			"-0.001": 35.4045270926,
			"0.0": 41.1293462171,
			"0.001": 28.7357642198,
			"0.002": 13.0878481033,
			"0.003": 2.64644168513,
			"0.004": 1.39558132033,
			"0.005": 1.08694977841,
			"0.006": 1.67776269834,
			"0.007": 0.754025764263,
			"0.008": 1.08765023452,
			"0.009": 0.780882041178,
			"0.01": 0.773012675034,
			"0.011": 0.686252649906,
			"0.012": 0.355124325612,
			"0.013": 0.580131034507,
			"0.014": 0.530103148166,
			"0.015": 0.440823396159,
			"0.016": 0.0385195447947,
			"0.017": 0.0,
			"0.018": 0.0,
			"0.019": 0.0,
			"0.02": 0.0,
			"0.021": 0.0,
			"0.022": 0.0,
			"0.023": 0.0,
			"0.024": 0.0,
			"0.025": 0.0
		}
	}
}
