{
	 "smiles": "OC(=O)C1=CN=C(Br)S1", 
	 "Tm": 455.15, 
	 "num_atms": 11, 
	 "gaussian": { 
		 "optdone": 1, 
		 "sigma_profile": "yes", 
		 "theory": "DFT", 
		 "functional": "B3LYP", 
		 "basiset": "6-31G**", 
		 "properties": { 
			 "R2extent": 2997.8442, 
			 "electric_dipole_moment_norm": 2.06117178566, 
			 "electric_quadrupole_moment_norm": 6.44859055298, 
			 "total_energy": -3328.41333547, 
			 "HOMO_LUMO_gap": 0.18388, 
			 "cosmo_polarized_energy": -9.07, 
			 "cosmo_cavitation_energy": 20.66, 
			 "cosmo_dispersion_energy": -16.36, 
			 "cosmo_repulsion_energy": 1.3, 
			 "cosmo_total_nonelectrostatic_energy": 5.6, 
			 "SMD_solvation_energy": 1.93 
		},
		"coords": [
			{
				"x": -0.087061739,
				"y": 2.740243643,
				"z": -0.4955004512,
				"element": "O" 
			},
			{
				"x": 1.1287472387,
				"y": 2.1702996333,
				"z": -0.3175194832,
				"element": "C" 
			},
			{
				"x": 2.1661240414,
				"y": 2.6742371129,
				"z": -0.694371236,
				"element": "O" 
			},
			{
				"x": 1.0404428207,
				"y": 0.8794521259,
				"z": 0.3784650701,
				"element": "C" 
			},
			{
				"x": 2.1030887237,
				"y": 0.0708841938,
				"z": 0.6981084605,
				"element": "C" 
			},
			{
				"x": 1.8058669612,
				"y": -1.0960493563,
				"z": 1.3502734809,
				"element": "N" 
			},
			{
				"x": 0.5236029597,
				"y": -1.184574335,
				"z": 1.5308931743,
				"element": "C" 
			},
			{
				"x": -0.3013940161,
				"y": -2.643504142,
				"z": 2.3941037792,
				"element": "Br" 
			},
			{
				"x": -0.4426677406,
				"y": 0.138135375,
				"z": 0.9273413715,
				"element": "S" 
			},
			{
				"x": 0.0664486895,
				"y": 3.5803692762,
				"z": -0.959165336,
				"element": "H" 
			},
			{
				"x": 3.1324020608,
				"y": 0.3126064733,
				"z": 0.46237117,
				"element": "H" 
			}
		],
		 "valence_orbital": [ 
			{
				"type": "occ",
				"energy": -0.31569,
				"method": "rhf"
			},
			{
				"type": "occ",
				"energy": -0.31018,
				"method": "rhf"
			},
			{
				"type": "occ",
				"energy": -0.30512,
				"method": "rhf"
			},
			{
				"type": "occ",
				"energy": -0.29524,
				"method": "rhf"
			},
			{
				"type": "occ",
				"energy": -0.26261,
				"method": "rhf"
			},
			{
				"type": "unocc",
				"energy": -0.07873,
				"method": "rhf"
			},
			{
				"type": "unocc",
				"energy": -0.02752,
				"method": "rhf"
			},
			{
				"type": "unocc",
				"energy": -0.00388,
				"method": "rhf"
			},
			{
				"type": "unocc",
				"energy": 0.00439,
				"method": "rhf"
			},
			{
				"type": "unocc",
				"energy": 0.0648,
				"method": "rhf"
			}
		],
		"cosmo_sigma_profile": { 
			"-0.025": 0.0,
			"-0.024": 0.0,
			"-0.023": 0.0,
			"-0.022": 0.0,
			"-0.021": 0.0,
			"-0.02": 0.0335373433519,
			"-0.019": 0.618398210361,
			"-0.018": 0.90224966941,
			"-0.017": 1.18438893212,
			"-0.016": 0.887194766284,
			"-0.015": 0.361698331751,
			"-0.014": 0.557294834489,
			"-0.013": 0.746907568739,
			"-0.012": 0.916590337619,
			"-0.011": 0.911474909826,
			"-0.01": 1.02586617131,
			"-0.009": 1.75291697799,
			"-0.008": 1.83549849531,
			"-0.007": 3.30888675035,
			"-0.006": 3.45631693318,
			"-0.005": 3.39742066553,
			"-0.004": 7.89929917056,
			"-0.003": 15.9434635052,
			"-0.002": 15.9342909724,
			"-0.001": 21.2725562409,
			"0.0": 17.2470117801,
			"0.001": 15.0370039618,
			"0.002": 14.188088376,
			"0.003": 7.96967317901,
			"0.004": 5.70339610136,
			"0.005": 3.79778997022,
			"0.006": 4.47455925757,
			"0.007": 3.6600465522,
			"0.008": 2.53461731307,
			"0.009": 2.58219395434,
			"0.01": 3.61641219881,
			"0.011": 6.57532602939,
			"0.012": 1.41372726884,
			"0.013": 0.581235609621,
			"0.014": 0.0,
			"0.015": 0.0,
			"0.016": 0.0,
			"0.017": 0.0,
			"0.018": 0.0,
			"0.019": 0.0,
			"0.02": 0.0,
			"0.021": 0.0,
			"0.022": 0.0,
			"0.023": 0.0,
			"0.024": 0.0,
			"0.025": 0.0
		}
	}
}
