{
	 "smiles": "NC(=O)CC1=CC=C(Cl)C=C1", 
	 "Tm": 457.15, 
	 "num_atms": 19, 
	 "gaussian": { 
		 "optdone": 1, 
		 "sigma_profile": "yes", 
		 "theory": "DFT", 
		 "functional": "B3LYP", 
		 "basiset": "6-31G**", 
		 "properties": { 
			 "R2extent": 3086.8984, 
			 "electric_dipole_moment_norm": 1.95917183269, 
			 "electric_quadrupole_moment_norm": 19.3237601988, 
			 "total_energy": -899.862324207, 
			 "HOMO_LUMO_gap": 0.21183, 
			 "cosmo_polarized_energy": -13.15, 
			 "cosmo_cavitation_energy": 25.2, 
			 "cosmo_dispersion_energy": -18.32, 
			 "cosmo_repulsion_energy": 1.5, 
			 "cosmo_total_nonelectrostatic_energy": 8.39, 
			 "SMD_solvation_energy": 4.77 
		},
		"coords": [
			{
				"x": -0.3259779085,
				"y": -2.5138090817,
				"z": -1.9370382281,
				"element": "N" 
			},
			{
				"x": 0.7789981001,
				"y": -2.5079468391,
				"z": -1.1394447952,
				"element": "C" 
			},
			{
				"x": 1.6039762856,
				"y": -3.4082942112,
				"z": -1.1377057933,
				"element": "O" 
			},
			{
				"x": 0.9701014362,
				"y": -1.2664159281,
				"z": -0.2438999921,
				"element": "C" 
			},
			{
				"x": -0.1945802432,
				"y": -0.3134691934,
				"z": -0.1139016328,
				"element": "C" 
			},
			{
				"x": -1.1874397127,
				"y": -0.5192400147,
				"z": 0.8558938278,
				"element": "C" 
			},
			{
				"x": -2.2789255069,
				"y": 0.3405821406,
				"z": 0.9715773833,
				"element": "C" 
			},
			{
				"x": -2.3835190237,
				"y": 1.4259040265,
				"z": 0.1016261071,
				"element": "C" 
			},
			{
				"x": -3.7541736952,
				"y": 2.5172085351,
				"z": 0.2390984746,
				"element": "Cl" 
			},
			{
				"x": -1.4144377911,
				"y": 1.658913062,
				"z": -0.8730557279,
				"element": "C" 
			},
			{
				"x": -0.3289348212,
				"y": 0.787721185,
				"z": -0.9723586279,
				"element": "C" 
			},
			{
				"x": -0.4798894836,
				"y": -3.3206060222,
				"z": -2.5221133456,
				"element": "H" 
			},
			{
				"x": -1.0286761389,
				"y": -1.7944281868,
				"z": -1.885750762,
				"element": "H" 
			},
			{
				"x": 1.2681962627,
				"y": -1.656554084,
				"z": 0.7336925497,
				"element": "H" 
			},
			{
				"x": 1.8481658767,
				"y": -0.7463260558,
				"z": -0.6432419349,
				"element": "H" 
			},
			{
				"x": -1.1045403592,
				"y": -1.3631579842,
				"z": 1.5358694656,
				"element": "H" 
			},
			{
				"x": -3.0379417473,
				"y": 0.1750779116,
				"z": 1.7282239931,
				"element": "H" 
			},
			{
				"x": -1.5051523991,
				"y": 2.5105898354,
				"z": -1.5382117049,
				"element": "H" 
			},
			{
				"x": 0.4304508694,
				"y": 0.973950905,
				"z": -1.7275592566,
				"element": "H" 
			}
		],
		 "valence_orbital": [ 
			{
				"type": "occ",
				"energy": -0.31925,
				"method": "rhf"
			},
			{
				"type": "occ",
				"energy": -0.27558,
				"method": "rhf"
			},
			{
				"type": "occ",
				"energy": -0.2674,
				"method": "rhf"
			},
			{
				"type": "occ",
				"energy": -0.26427,
				"method": "rhf"
			},
			{
				"type": "occ",
				"energy": -0.23797,
				"method": "rhf"
			},
			{
				"type": "unocc",
				"energy": -0.02614,
				"method": "rhf"
			},
			{
				"type": "unocc",
				"energy": -0.02556,
				"method": "rhf"
			},
			{
				"type": "unocc",
				"energy": 0.02175,
				"method": "rhf"
			},
			{
				"type": "unocc",
				"energy": 0.03159,
				"method": "rhf"
			},
			{
				"type": "unocc",
				"energy": 0.08463,
				"method": "rhf"
			}
		],
		"cosmo_sigma_profile": { 
			"-0.025": 0.0,
			"-0.024": 0.0,
			"-0.023": 0.0,
			"-0.022": 0.0,
			"-0.021": 0.0,
			"-0.02": 0.0,
			"-0.019": 0.0,
			"-0.018": 0.0,
			"-0.017": 0.0,
			"-0.016": 0.0,
			"-0.015": 0.0,
			"-0.014": 0.511153585747,
			"-0.013": 1.81327233624,
			"-0.012": 1.49110571828,
			"-0.011": 1.83582838857,
			"-0.01": 2.02908536074,
			"-0.009": 1.51709187629,
			"-0.008": 2.19729339924,
			"-0.007": 8.74549076334,
			"-0.006": 15.7602566855,
			"-0.005": 14.083775166,
			"-0.004": 10.8857406554,
			"-0.003": 11.6263419661,
			"-0.002": 12.0737632502,
			"-0.001": 11.7297789691,
			"0.0": 12.1349837922,
			"0.001": 14.3031974499,
			"0.002": 17.56493013,
			"0.003": 16.9619695456,
			"0.004": 15.0658424146,
			"0.005": 9.13941814908,
			"0.006": 1.69463481123,
			"0.007": 1.22885774571,
			"0.008": 1.36556617283,
			"0.009": 0.996273794977,
			"0.01": 0.742013418435,
			"0.011": 1.96248273879,
			"0.012": 1.553269915,
			"0.013": 2.87391217639,
			"0.014": 6.25636967278,
			"0.015": 2.5894388843,
			"0.016": 0.0620131443979,
			"0.017": 0.0,
			"0.018": 0.0,
			"0.019": 0.0,
			"0.02": 0.0,
			"0.021": 0.0,
			"0.022": 0.0,
			"0.023": 0.0,
			"0.024": 0.0,
			"0.025": 0.0
		}
	}
}
