{
	 "smiles": "O1C(=CN=C1C1=CC=C(C=C1)C1=NC=C(O1)C1=CC=CC=C1)C1=CC=CC=C1", 
	 "Tm": 517.15, 
	 "num_atms": 44, 
	 "gaussian": { 
		 "optdone": 1, 
		 "sigma_profile": "yes", 
		 "theory": "DFT", 
		 "functional": "B3LYP", 
		 "basiset": "6-31G**", 
		 "properties": { 
			 "R2extent": 21226.1688, 
			 "electric_dipole_moment_norm": 3.00002225658, 
			 "electric_quadrupole_moment_norm": 33.850766699, 
			 "total_energy": -1184.15565833, 
			 "HOMO_LUMO_gap": 0.12881, 
			 "cosmo_polarized_energy": -12.81, 
			 "cosmo_cavitation_energy": 50.6, 
			 "cosmo_dispersion_energy": -36.56, 
			 "cosmo_repulsion_energy": 2.64, 
			 "cosmo_total_nonelectrostatic_energy": 16.68, 
			 "SMD_solvation_energy": 5.83 
		},
		"coords": [
			{
				"x": -1.0234344402,
				"y": -0.4462108483,
				"z": -3.0661990131,
				"element": "O" 
			},
			{
				"x": -1.258263995,
				"y": -0.139189198,
				"z": -4.3871601239,
				"element": "C" 
			},
			{
				"x": -1.2281602398,
				"y": 1.2280710267,
				"z": -4.4769119538,
				"element": "C" 
			},
			{
				"x": -0.9797905552,
				"y": 1.7778523107,
				"z": -3.2396930627,
				"element": "N" 
			},
			{
				"x": -0.865040376,
				"y": 0.7542540884,
				"z": -2.4343397293,
				"element": "C" 
			},
			{
				"x": -0.5988953489,
				"y": 0.7620307267,
				"z": -1.0040834298,
				"element": "C" 
			},
			{
				"x": -0.4327186155,
				"y": 1.9934413182,
				"z": -0.3421659013,
				"element": "C" 
			},
			{
				"x": -0.17797203,
				"y": 2.0289167862,
				"z": 1.0192769642,
				"element": "C" 
			},
			{
				"x": -0.0822325496,
				"y": 0.8340017592,
				"z": 1.7576161957,
				"element": "C" 
			},
			{
				"x": -0.248225761,
				"y": -0.3951288763,
				"z": 1.0974307038,
				"element": "C" 
			},
			{
				"x": -0.5035438912,
				"y": -0.4306995964,
				"z": -0.2675565597,
				"element": "C" 
			},
			{
				"x": 0.186518753,
				"y": 0.900766923,
				"z": 3.1858446549,
				"element": "C" 
			},
			{
				"x": 0.3634474024,
				"y": 1.9646145571,
				"z": 3.9250643111,
				"element": "N" 
			},
			{
				"x": 0.5829550927,
				"y": 1.4803165153,
				"z": 5.1946731876,
				"element": "C" 
			},
			{
				"x": 0.5323156474,
				"y": 0.1107207026,
				"z": 5.1914952155,
				"element": "C" 
			},
			{
				"x": 0.275853574,
				"y": -0.2646799214,
				"z": 3.8923820812,
				"element": "O" 
			},
			{
				"x": 0.6823841538,
				"y": -0.9276460217,
				"z": 6.1984700868,
				"element": "C" 
			},
			{
				"x": 0.5638355747,
				"y": -2.2876646353,
				"z": 5.8612734737,
				"element": "C" 
			},
			{
				"x": 0.7098729315,
				"y": -3.2713475222,
				"z": 6.8369327902,
				"element": "C" 
			},
			{
				"x": 0.9757035113,
				"y": -2.919601201,
				"z": 8.1616088048,
				"element": "C" 
			},
			{
				"x": 1.0951392936,
				"y": -1.5700414768,
				"z": 8.5053870424,
				"element": "C" 
			},
			{
				"x": 0.9506015989,
				"y": -0.5822019269,
				"z": 7.5363829384,
				"element": "C" 
			},
			{
				"x": -1.469424838,
				"y": -1.2285160286,
				"z": -5.3271148289,
				"element": "C" 
			},
			{
				"x": -1.431965509,
				"y": -2.5690726181,
				"z": -4.9041047353,
				"element": "C" 
			},
			{
				"x": -1.6357509264,
				"y": -3.6022284868,
				"z": -5.8161965489,
				"element": "C" 
			},
			{
				"x": -1.8796809778,
				"y": -3.3200173087,
				"z": -7.1615633109,
				"element": "C" 
			},
			{
				"x": -1.9186597442,
				"y": -1.9902519499,
				"z": -7.5904833079,
				"element": "C" 
			},
			{
				"x": -1.7161523717,
				"y": -0.9532785877,
				"z": -6.6852921117,
				"element": "C" 
			},
			{
				"x": -1.3689777444,
				"y": 1.8474008664,
				"z": -5.350659694,
				"element": "H" 
			},
			{
				"x": -0.5076670852,
				"y": 2.910042681,
				"z": -0.9169131813,
				"element": "H" 
			},
			{
				"x": -0.0487859753,
				"y": 2.973945762,
				"z": 1.5353575587,
				"element": "H" 
			},
			{
				"x": -0.1758871761,
				"y": -1.3198499119,
				"z": 1.6592722031,
				"element": "H" 
			},
			{
				"x": -0.6303716886,
				"y": -1.3831672022,
				"z": -0.7702736951,
				"element": "H" 
			},
			{
				"x": 0.7624220213,
				"y": 2.144181022,
				"z": 6.0276865956,
				"element": "H" 
			},
			{
				"x": 0.3572395758,
				"y": -2.5651053427,
				"z": 4.8334831801,
				"element": "H" 
			},
			{
				"x": 0.6153727823,
				"y": -4.3174540253,
				"z": 6.5602261538,
				"element": "H" 
			},
			{
				"x": 1.0890359742,
				"y": -3.6885482295,
				"z": 8.9198952441,
				"element": "H" 
			},
			{
				"x": 1.3019608072,
				"y": -1.2861338981,
				"z": 9.5331430839,
				"element": "H" 
			},
			{
				"x": 1.0460922478,
				"y": 0.4626092453,
				"z": 7.8161298654,
				"element": "H" 
			},
			{
				"x": -1.242678087,
				"y": -2.792595946,
				"z": -3.8599682059,
				"element": "H" 
			},
			{
				"x": -1.6036187398,
				"y": -4.6324521439,
				"z": -5.4734989225,
				"element": "H" 
			},
			{
				"x": -2.03811353,
				"y": -4.1274022248,
				"z": -7.8701887444,
				"element": "H" 
			},
			{
				"x": -2.1078170997,
				"y": -1.7603025368,
				"z": -8.6349958108,
				"element": "H" 
			},
			{
				"x": -1.7492216462,
				"y": 0.0755213743,
				"z": -7.0309694638,
				"element": "H" 
			}
		],
		 "valence_orbital": [ 
			{
				"type": "occ",
				"energy": -0.26112,
				"method": "rhf"
			},
			{
				"type": "occ",
				"energy": -0.25878,
				"method": "rhf"
			},
			{
				"type": "occ",
				"energy": -0.25877,
				"method": "rhf"
			},
			{
				"type": "occ",
				"energy": -0.2218,
				"method": "rhf"
			},
			{
				"type": "occ",
				"energy": -0.19875,
				"method": "rhf"
			},
			{
				"type": "unocc",
				"energy": -0.06994,
				"method": "rhf"
			},
			{
				"type": "unocc",
				"energy": -0.03818,
				"method": "rhf"
			},
			{
				"type": "unocc",
				"energy": -0.02037,
				"method": "rhf"
			},
			{
				"type": "unocc",
				"energy": -0.00836,
				"method": "rhf"
			},
			{
				"type": "unocc",
				"energy": -0.00767,
				"method": "rhf"
			}
		],
		"cosmo_sigma_profile": { 
			"-0.025": 0.0,
			"-0.024": 0.0,
			"-0.023": 0.0,
			"-0.022": 0.0,
			"-0.021": 0.0,
			"-0.02": 0.0,
			"-0.019": 0.0,
			"-0.018": 0.0,
			"-0.017": 0.0,
			"-0.016": 0.0,
			"-0.015": 0.0,
			"-0.014": 0.0,
			"-0.013": 0.0,
			"-0.012": 0.0,
			"-0.011": 0.0,
			"-0.01": 0.0,
			"-0.009": 1.59451524464,
			"-0.008": 6.06266668093,
			"-0.007": 7.09977627317,
			"-0.006": 22.8836481015,
			"-0.005": 28.0800453417,
			"-0.004": 29.7651599083,
			"-0.003": 21.570130579,
			"-0.002": 25.8139806168,
			"-0.001": 32.9592180408,
			"0.0": 38.3116453717,
			"0.001": 44.4238432078,
			"0.002": 42.7064365392,
			"0.003": 39.5833533022,
			"0.004": 24.8711574271,
			"0.005": 22.7334528792,
			"0.006": 3.52153757662,
			"0.007": 3.26152925388,
			"0.008": 1.87449003491,
			"0.009": 3.00421983695,
			"0.01": 1.75438314577,
			"0.011": 1.92257033028,
			"0.012": 2.00712550668,
			"0.013": 2.14629214444,
			"0.014": 1.37364938933,
			"0.015": 0.0685187161238,
			"0.016": 0.0,
			"0.017": 0.0,
			"0.018": 0.0,
			"0.019": 0.0,
			"0.02": 0.0,
			"0.021": 0.0,
			"0.022": 0.0,
			"0.023": 0.0,
			"0.024": 0.0,
			"0.025": 0.0
		}
	}
}
