{
	 "smiles": "OC(=O)C1=CC(=CN1)S(=O)(=O)N1CCCC1", 
	 "Tm": 449.15, 
	 "num_atms": 28, 
	 "gaussian": { 
		 "optdone": 1, 
		 "sigma_profile": "yes", 
		 "theory": "DFT", 
		 "functional": "B3LYP", 
		 "basiset": "6-31G**", 
		 "properties": { 
			 "R2extent": 4569.2823, 
			 "electric_dipole_moment_norm": 5.40591805894, 
			 "electric_quadrupole_moment_norm": 21.1523629146, 
			 "total_energy": -1158.71629932, 
			 "HOMO_LUMO_gap": 0.19445, 
			 "cosmo_polarized_energy": -21.96, 
			 "cosmo_cavitation_energy": 32.96, 
			 "cosmo_dispersion_energy": -24.03, 
			 "cosmo_repulsion_energy": 1.86, 
			 "cosmo_total_nonelectrostatic_energy": 10.79, 
			 "SMD_solvation_energy": 4.69 
		},
		"coords": [
			{
				"x": -3.8908867475,
				"y": -1.2287539631,
				"z": 1.8798324422,
				"element": "O" 
			},
			{
				"x": -2.9453177611,
				"y": -2.1855321458,
				"z": 1.7581436188,
				"element": "C" 
			},
			{
				"x": -2.9557546295,
				"y": -3.2261993209,
				"z": 2.3948584137,
				"element": "O" 
			},
			{
				"x": -1.9093137249,
				"y": -1.8460705122,
				"z": 0.7896095338,
				"element": "C" 
			},
			{
				"x": -1.6930388639,
				"y": -0.7591962132,
				"z": -0.0418205738,
				"element": "C" 
			},
			{
				"x": -0.505544465,
				"y": -1.037289794,
				"z": -0.7642020216,
				"element": "C" 
			},
			{
				"x": -0.0323521582,
				"y": -2.2819703028,
				"z": -0.3581637093,
				"element": "C" 
			},
			{
				"x": -0.8894151335,
				"y": -2.7528183931,
				"z": 0.5795246973,
				"element": "N" 
			},
			{
				"x": 0.2891928571,
				"y": 0.000934483,
				"z": -1.9592300853,
				"element": "S" 
			},
			{
				"x": 1.1527037347,
				"y": -0.8707782732,
				"z": -2.7596453622,
				"element": "O" 
			},
			{
				"x": -0.7479838197,
				"y": 0.850630097,
				"z": -2.5440760734,
				"element": "O" 
			},
			{
				"x": 1.3076013052,
				"y": 1.0162896294,
				"z": -1.1184575535,
				"element": "N" 
			},
			{
				"x": 2.5538351433,
				"y": 0.4870396184,
				"z": -0.5354400683,
				"element": "C" 
			},
			{
				"x": 3.0870415384,
				"y": 1.706428399,
				"z": 0.2227386246,
				"element": "C" 
			},
			{
				"x": 1.8075761842,
				"y": 2.3424289259,
				"z": 0.7959543997,
				"element": "C" 
			},
			{
				"x": 0.7419628909,
				"y": 2.1153447314,
				"z": -0.2970338128,
				"element": "C" 
			},
			{
				"x": -4.5260699593,
				"y": -1.5587767661,
				"z": 2.5365285786,
				"element": "H" 
			},
			{
				"x": -2.3265053763,
				"y": 0.1086218376,
				"z": -0.1428678454,
				"element": "H" 
			},
			{
				"x": 0.8224917048,
				"y": -2.8415177909,
				"z": -0.70519185,
				"element": "H" 
			},
			{
				"x": -0.8510713889,
				"y": -3.6404998279,
				"z": 1.0616686404,
				"element": "H" 
			},
			{
				"x": 2.3582271912,
				"y": -0.3472587514,
				"z": 0.1582521452,
				"element": "H" 
			},
			{
				"x": 3.2150293825,
				"y": 0.1318870734,
				"z": -1.3271828269,
				"element": "H" 
			},
			{
				"x": 3.8126066972,
				"y": 1.4327370384,
				"z": 0.9935068403,
				"element": "H" 
			},
			{
				"x": 3.5756307654,
				"y": 2.3910102299,
				"z": -0.4785586749,
				"element": "H" 
			},
			{
				"x": 1.5152207035,
				"y": 1.8224493027,
				"z": 1.7148094673,
				"element": "H" 
			},
			{
				"x": 1.9268025699,
				"y": 3.4012637811,
				"z": 1.0398369562,
				"element": "H" 
			},
			{
				"x": -0.2277377209,
				"y": 1.844919353,
				"z": 0.1358899489,
				"element": "H" 
			},
			{
				"x": 0.5910690803,
				"y": 2.9945775546,
				"z": -0.9295838497,
				"element": "H" 
			}
		],
		 "valence_orbital": [ 
			{
				"type": "occ",
				"energy": -0.29543,
				"method": "rhf"
			},
			{
				"type": "occ",
				"energy": -0.29227,
				"method": "rhf"
			},
			{
				"type": "occ",
				"energy": -0.28116,
				"method": "rhf"
			},
			{
				"type": "occ",
				"energy": -0.25762,
				"method": "rhf"
			},
			{
				"type": "occ",
				"energy": -0.24211,
				"method": "rhf"
			},
			{
				"type": "unocc",
				"energy": -0.04766,
				"method": "rhf"
			},
			{
				"type": "unocc",
				"energy": 0.00422,
				"method": "rhf"
			},
			{
				"type": "unocc",
				"energy": 0.05911,
				"method": "rhf"
			},
			{
				"type": "unocc",
				"energy": 0.07061,
				"method": "rhf"
			},
			{
				"type": "unocc",
				"energy": 0.07736,
				"method": "rhf"
			}
		],
		"cosmo_sigma_profile": { 
			"-0.025": 0.0,
			"-0.024": 0.0,
			"-0.023": 0.0,
			"-0.022": 0.0,
			"-0.021": 0.0,
			"-0.02": 0.0,
			"-0.019": 0.251482423212,
			"-0.018": 1.03558524376,
			"-0.017": 1.41157652532,
			"-0.016": 1.65035381861,
			"-0.015": 1.91245000136,
			"-0.014": 1.75925786141,
			"-0.013": 1.96551943216,
			"-0.012": 1.28737960372,
			"-0.011": 1.53602233788,
			"-0.01": 3.59616892726,
			"-0.009": 2.59289402571,
			"-0.008": 3.70070103173,
			"-0.007": 3.95315066778,
			"-0.006": 4.30316744788,
			"-0.005": 9.72400063525,
			"-0.004": 24.483613413,
			"-0.003": 31.1632195481,
			"-0.002": 27.9605336507,
			"-0.001": 20.4884645659,
			"0.0": 14.9389518553,
			"0.001": 12.5957255037,
			"0.002": 11.0682398294,
			"0.003": 8.5499988768,
			"0.004": 5.72595123697,
			"0.005": 6.01058862983,
			"0.006": 7.47416209971,
			"0.007": 7.15675352469,
			"0.008": 7.13767854623,
			"0.009": 5.07061687758,
			"0.01": 7.26737009748,
			"0.011": 13.2834797139,
			"0.012": 9.21206474049,
			"0.013": 0.345082889158,
			"0.014": 0.0,
			"0.015": 0.0,
			"0.016": 0.0,
			"0.017": 0.0,
			"0.018": 0.0,
			"0.019": 0.0,
			"0.02": 0.0,
			"0.021": 0.0,
			"0.022": 0.0,
			"0.023": 0.0,
			"0.024": 0.0,
			"0.025": 0.0
		}
	}
}
