{
	 "smiles": "OC(=O)C1=C(C=CC(S)=C1)[N+]([O-])=O", 
	 "Tm": 508.15, 
	 "num_atms": 18, 
	 "gaussian": { 
		 "optdone": 1, 
		 "sigma_profile": "yes", 
		 "theory": "DFT", 
		 "functional": "B3LYP", 
		 "basiset": "6-31G**", 
		 "properties": { 
			 "R2extent": 3695.2134, 
			 "electric_dipole_moment_norm": 4.23271140169, 
			 "electric_quadrupole_moment_norm": 16.8542789012, 
			 "total_energy": -1023.49168842, 
			 "HOMO_LUMO_gap": 0.15658, 
			 "cosmo_polarized_energy": -16.37, 
			 "cosmo_cavitation_energy": 25.81, 
			 "cosmo_dispersion_energy": -19.14, 
			 "cosmo_repulsion_energy": 1.48, 
			 "cosmo_total_nonelectrostatic_energy": 8.15, 
			 "SMD_solvation_energy": 7.25 
		},
		"coords": [
			{
				"x": -0.4222832286,
				"y": 3.450154144,
				"z": -2.0111519798,
				"element": "O" 
			},
			{
				"x": -1.4430516904,
				"y": 2.7733518655,
				"z": -1.4513800407,
				"element": "C" 
			},
			{
				"x": -2.603408906,
				"y": 2.9201480831,
				"z": -1.7599124376,
				"element": "O" 
			},
			{
				"x": -0.9647330148,
				"y": 1.71607932,
				"z": -0.4946703026,
				"element": "C" 
			},
			{
				"x": -0.0804846029,
				"y": 1.9336893862,
				"z": 0.572006886,
				"element": "C" 
			},
			{
				"x": 0.3784444081,
				"y": 0.8762082504,
				"z": 1.3533501935,
				"element": "C" 
			},
			{
				"x": -0.0596466807,
				"y": -0.4175430334,
				"z": 1.0965671184,
				"element": "C" 
			},
			{
				"x": -0.9696788845,
				"y": -0.6566816722,
				"z": 0.0567028372,
				"element": "C" 
			},
			{
				"x": -1.5985239228,
				"y": -2.27198703,
				"z": -0.3304214802,
				"element": "S" 
			},
			{
				"x": -1.4132104353,
				"y": 0.41759373,
				"z": -0.7294259976,
				"element": "C" 
			},
			{
				"x": 0.3184905694,
				"y": 3.2895473229,
				"z": 0.9647859552,
				"element": "N" 
			},
			{
				"x": -0.4324272217,
				"y": 4.2137248165,
				"z": 0.6559391897,
				"element": "O" 
			},
			{
				"x": 1.3589703008,
				"y": 3.4102069503,
				"z": 1.6108828386,
				"element": "O" 
			},
			{
				"x": -0.8193339788,
				"y": 4.1179009237,
				"z": -2.5958075562,
				"element": "H" 
			},
			{
				"x": 1.0625992895,
				"y": 1.0865661932,
				"z": 2.1663463912,
				"element": "H" 
			},
			{
				"x": 0.2974671443,
				"y": -1.2334618748,
				"z": 1.7166481591,
				"element": "H" 
			},
			{
				"x": -0.9296537347,
				"y": -2.9374467081,
				"z": 0.6303027681,
				"element": "H" 
			},
			{
				"x": -2.1103354111,
				"y": 0.2529493327,
				"z": -1.5444625423,
				"element": "H" 
			}
		],
		 "valence_orbital": [ 
			{
				"type": "occ",
				"energy": -0.31273,
				"method": "rhf"
			},
			{
				"type": "occ",
				"energy": -0.30379,
				"method": "rhf"
			},
			{
				"type": "occ",
				"energy": -0.29701,
				"method": "rhf"
			},
			{
				"type": "occ",
				"energy": -0.28203,
				"method": "rhf"
			},
			{
				"type": "occ",
				"energy": -0.25275,
				"method": "rhf"
			},
			{
				"type": "unocc",
				"energy": -0.09617,
				"method": "rhf"
			},
			{
				"type": "unocc",
				"energy": -0.05362,
				"method": "rhf"
			},
			{
				"type": "unocc",
				"energy": -0.02094,
				"method": "rhf"
			},
			{
				"type": "unocc",
				"energy": -0.01074,
				"method": "rhf"
			},
			{
				"type": "unocc",
				"energy": 0.01375,
				"method": "rhf"
			}
		],
		"cosmo_sigma_profile": { 
			"-0.025": 0.0,
			"-0.024": 0.0,
			"-0.023": 0.0,
			"-0.022": 0.0,
			"-0.021": 0.0,
			"-0.02": 0.0227370877036,
			"-0.019": 0.571536572708,
			"-0.018": 1.25694998886,
			"-0.017": 0.72587641705,
			"-0.016": 0.73200670799,
			"-0.015": 0.67850842551,
			"-0.014": 0.501366406565,
			"-0.013": 1.18963904704,
			"-0.012": 3.42132406829,
			"-0.011": 3.52530943035,
			"-0.01": 2.35385238371,
			"-0.009": 5.08625482775,
			"-0.008": 6.96812853657,
			"-0.007": 7.9289341062,
			"-0.006": 7.72283902851,
			"-0.005": 7.00304369858,
			"-0.004": 8.35955466359,
			"-0.003": 7.47115668671,
			"-0.002": 10.9119542271,
			"-0.001": 15.9380052446,
			"0.0": 18.9468252008,
			"0.001": 13.690622237,
			"0.002": 9.64696183948,
			"0.003": 9.95373938044,
			"0.004": 9.0325324466,
			"0.005": 8.64093895905,
			"0.006": 10.2178949608,
			"0.007": 11.9986633261,
			"0.008": 8.72356399636,
			"0.009": 6.05636676648,
			"0.01": 4.74274637921,
			"0.011": 4.76984656289,
			"0.012": 0.841735633362,
			"0.013": 0.0,
			"0.014": 0.0,
			"0.015": 0.0,
			"0.016": 0.0,
			"0.017": 0.0,
			"0.018": 0.0,
			"0.019": 0.0,
			"0.02": 0.0,
			"0.021": 0.0,
			"0.022": 0.0,
			"0.023": 0.0,
			"0.024": 0.0,
			"0.025": 0.0
		}
	}
}
