{
	 "smiles": "NCC1=NN=C2CCCCCN12", 
	 "Tm": 344.15, 
	 "num_atms": 26, 
	 "gaussian": { 
		 "optdone": 1, 
		 "sigma_profile": "yes", 
		 "theory": "DFT", 
		 "functional": "B3LYP", 
		 "basiset": "6-31G**", 
		 "properties": { 
			 "R2extent": 2355.5388, 
			 "electric_dipole_moment_norm": 5.26972141768, 
			 "electric_quadrupole_moment_norm": 17.6999970876, 
			 "total_energy": -532.282929944, 
			 "HOMO_LUMO_gap": 0.2563, 
			 "cosmo_polarized_energy": -17.97, 
			 "cosmo_cavitation_energy": 26.98, 
			 "cosmo_dispersion_energy": -20.11, 
			 "cosmo_repulsion_energy": 1.62, 
			 "cosmo_total_nonelectrostatic_energy": 8.49, 
			 "SMD_solvation_energy": 0.54 
		},
		"coords": [
			{
				"x": 1.8100731709,
				"y": 1.8017463744,
				"z": -1.023545506,
				"element": "N" 
			},
			{
				"x": 0.5901904927,
				"y": 2.5505873919,
				"z": -0.6778792583,
				"element": "C" 
			},
			{
				"x": -0.5993661052,
				"y": 1.6453359643,
				"z": -0.635964581,
				"element": "C" 
			},
			{
				"x": -1.6422074617,
				"y": 1.7510229033,
				"z": -1.4276907795,
				"element": "N" 
			},
			{
				"x": -2.5092806407,
				"y": 0.7285418301,
				"z": -1.1104237995,
				"element": "N" 
			},
			{
				"x": -1.9687471881,
				"y": 0.0312328626,
				"z": -0.1338935075,
				"element": "C" 
			},
			{
				"x": -2.6047831955,
				"y": -1.1827949249,
				"z": 0.4771823286,
				"element": "C" 
			},
			{
				"x": -1.600981838,
				"y": -2.2902635576,
				"z": 0.8429183546,
				"element": "C" 
			},
			{
				"x": -0.8562964188,
				"y": -2.0401995863,
				"z": 2.1686303877,
				"element": "C" 
			},
			{
				"x": -0.4256117683,
				"y": -0.5809257685,
				"z": 2.40939963,
				"element": "C" 
			},
			{
				"x": 0.227921115,
				"y": 0.1117528127,
				"z": 1.2097408503,
				"element": "C" 
			},
			{
				"x": -0.7483165734,
				"y": 0.5700475032,
				"z": 0.2125293081,
				"element": "N" 
			},
			{
				"x": 2.6114040729,
				"y": 2.4282772521,
				"z": -1.0051367735,
				"element": "H" 
			},
			{
				"x": 1.7312308758,
				"y": 1.4622846735,
				"z": -1.9797979222,
				"element": "H" 
			},
			{
				"x": 0.7521570541,
				"y": 3.0110910882,
				"z": 0.3062362216,
				"element": "H" 
			},
			{
				"x": 0.3276122068,
				"y": 3.3614948341,
				"z": -1.3721516424,
				"element": "H" 
			},
			{
				"x": -3.18991458,
				"y": -0.9024169064,
				"z": 1.364615422,
				"element": "H" 
			},
			{
				"x": -3.3269728186,
				"y": -1.5409717631,
				"z": -0.2614552553,
				"element": "H" 
			},
			{
				"x": -0.8820943558,
				"y": -2.3977881201,
				"z": 0.0213562722,
				"element": "H" 
			},
			{
				"x": -2.1267217168,
				"y": -3.2491696342,
				"z": 0.9095661841,
				"element": "H" 
			},
			{
				"x": -1.4939112116,
				"y": -2.3457384226,
				"z": 3.0075694434,
				"element": "H" 
			},
			{
				"x": 0.0267070136,
				"y": -2.6903810806,
				"z": 2.2053897788,
				"element": "H" 
			},
			{
				"x": 0.2889116057,
				"y": -0.5586896854,
				"z": 3.240233176,
				"element": "H" 
			},
			{
				"x": -1.2819777522,
				"y": 0.0231335583,
				"z": 2.7321636198,
				"element": "H" 
			},
			{
				"x": 0.7753344703,
				"y": 0.9956092236,
				"z": 1.5439551723,
				"element": "H" 
			},
			{
				"x": 0.9631415471,
				"y": -0.5396188226,
				"z": 0.7240528757,
				"element": "H" 
			}
		],
		 "valence_orbital": [ 
			{
				"type": "occ",
				"energy": -0.28598,
				"method": "rhf"
			},
			{
				"type": "occ",
				"energy": -0.27023,
				"method": "rhf"
			},
			{
				"type": "occ",
				"energy": -0.24957,
				"method": "rhf"
			},
			{
				"type": "occ",
				"energy": -0.23392,
				"method": "rhf"
			},
			{
				"type": "occ",
				"energy": -0.23302,
				"method": "rhf"
			},
			{
				"type": "unocc",
				"energy": 0.02328,
				"method": "rhf"
			},
			{
				"type": "unocc",
				"energy": 0.05492,
				"method": "rhf"
			},
			{
				"type": "unocc",
				"energy": 0.07021,
				"method": "rhf"
			},
			{
				"type": "unocc",
				"energy": 0.09103,
				"method": "rhf"
			},
			{
				"type": "unocc",
				"energy": 0.10512,
				"method": "rhf"
			}
		],
		"cosmo_sigma_profile": { 
			"-0.025": 0.0,
			"-0.024": 0.0,
			"-0.023": 0.0,
			"-0.022": 0.0,
			"-0.021": 0.0,
			"-0.02": 0.0,
			"-0.019": 0.0,
			"-0.018": 0.0,
			"-0.017": 0.0,
			"-0.016": 0.0,
			"-0.015": 0.0,
			"-0.014": 0.0,
			"-0.013": 0.0,
			"-0.012": 0.0,
			"-0.011": 0.432664373464,
			"-0.01": 2.46253045298,
			"-0.009": 2.86886578752,
			"-0.008": 2.86493927861,
			"-0.007": 4.26644612958,
			"-0.006": 6.59904973517,
			"-0.005": 13.297017497,
			"-0.004": 25.0231887833,
			"-0.003": 32.2818473517,
			"-0.002": 29.1092041964,
			"-0.001": 20.1970041326,
			"0.0": 13.6079211442,
			"0.001": 6.45873026286,
			"0.002": 3.48999069308,
			"0.003": 4.1624550669,
			"0.004": 3.40803460461,
			"0.005": 2.42807201374,
			"0.006": 2.49137651082,
			"0.007": 3.03497398064,
			"0.008": 2.80502982133,
			"0.009": 2.26733427469,
			"0.01": 2.54902377515,
			"0.011": 3.15297465376,
			"0.012": 3.51313945361,
			"0.013": 2.27350350179,
			"0.014": 3.35979727109,
			"0.015": 4.35651727231,
			"0.016": 3.00641793418,
			"0.017": 1.9828408398,
			"0.018": 1.76576362153,
			"0.019": 0.0606501006241,
			"0.02": 0.0,
			"0.021": 0.0,
			"0.022": 0.0,
			"0.023": 0.0,
			"0.024": 0.0,
			"0.025": 0.0
		}
	}
}
