{
	 "smiles": "OC(=O)C1=CC(O)=CC=C1", 
	 "Tm": 475.15, 
	 "num_atms": 16, 
	 "gaussian": { 
		 "optdone": 1, 
		 "sigma_profile": "yes", 
		 "theory": "DFT", 
		 "functional": "B3LYP", 
		 "basiset": "6-31G**", 
		 "properties": { 
			 "R2extent": 1544.5495, 
			 "electric_dipole_moment_norm": 3.45072161873, 
			 "electric_quadrupole_moment_norm": 12.5665440679, 
			 "total_energy": -496.036212202, 
			 "HOMO_LUMO_gap": 0.19092, 
			 "cosmo_polarized_energy": -16.51, 
			 "cosmo_cavitation_energy": 20.75, 
			 "cosmo_dispersion_energy": -15.58, 
			 "cosmo_repulsion_energy": 1.26, 
			 "cosmo_total_nonelectrostatic_energy": 6.43, 
			 "SMD_solvation_energy": 5.17 
		},
		"coords": [
			{
				"x": 0.3631274407,
				"y": -2.651556523,
				"z": 1.0264669159,
				"element": "O" 
			},
			{
				"x": 0.4373614642,
				"y": -1.3433720598,
				"z": 1.3886024196,
				"element": "C" 
			},
			{
				"x": 0.8198348612,
				"y": -1.0438380547,
				"z": 2.4956337134,
				"element": "O" 
			},
			{
				"x": 0.0215067759,
				"y": -0.334126485,
				"z": 0.358920452,
				"element": "C" 
			},
			{
				"x": -0.2991617116,
				"y": 0.947084819,
				"z": 0.822654123,
				"element": "C" 
			},
			{
				"x": -0.6952616934,
				"y": 1.9379683593,
				"z": -0.0758935352,
				"element": "C" 
			},
			{
				"x": -1.0313197546,
				"y": 3.1980983848,
				"z": 0.3169458988,
				"element": "O" 
			},
			{
				"x": -0.7594817963,
				"y": 1.6543346789,
				"z": -1.4477298637,
				"element": "C" 
			},
			{
				"x": -0.4199409671,
				"y": 0.3854058755,
				"z": -1.905938472,
				"element": "C" 
			},
			{
				"x": -0.0295701345,
				"y": -0.6151803607,
				"z": -1.0125023446,
				"element": "C" 
			},
			{
				"x": -0.1058227648,
				"y": -2.7361415191,
				"z": 0.1847103414,
				"element": "H" 
			},
			{
				"x": -0.2291435905,
				"y": 1.1430629269,
				"z": 1.8890535614,
				"element": "H" 
			},
			{
				"x": -0.9318643021,
				"y": 3.2720398227,
				"z": 1.2753791298,
				"element": "H" 
			},
			{
				"x": -1.066778785,
				"y": 2.4395045816,
				"z": -2.1303880652,
				"element": "H" 
			},
			{
				"x": -0.4521307066,
				"y": 0.1754641587,
				"z": -2.9707265687,
				"element": "H" 
			},
			{
				"x": 0.2750456646,
				"y": -1.5833486052,
				"z": -1.4005877059,
				"element": "H" 
			}
		],
		 "valence_orbital": [ 
			{
				"type": "occ",
				"energy": -0.35241,
				"method": "rhf"
			},
			{
				"type": "occ",
				"energy": -0.31681,
				"method": "rhf"
			},
			{
				"type": "occ",
				"energy": -0.27867,
				"method": "rhf"
			},
			{
				"type": "occ",
				"energy": -0.26693,
				"method": "rhf"
			},
			{
				"type": "occ",
				"energy": -0.24233,
				"method": "rhf"
			},
			{
				"type": "unocc",
				"energy": -0.05141,
				"method": "rhf"
			},
			{
				"type": "unocc",
				"energy": -0.01248,
				"method": "rhf"
			},
			{
				"type": "unocc",
				"energy": 0.05166,
				"method": "rhf"
			},
			{
				"type": "unocc",
				"energy": 0.05997,
				"method": "rhf"
			},
			{
				"type": "unocc",
				"energy": 0.06406,
				"method": "rhf"
			}
		],
		"cosmo_sigma_profile": { 
			"-0.025": 0.0,
			"-0.024": 0.0,
			"-0.023": 0.0,
			"-0.022": 0.0,
			"-0.021": 0.0,
			"-0.02": 0.0,
			"-0.019": 0.0603109887074,
			"-0.018": 1.76294625557,
			"-0.017": 1.94441771413,
			"-0.016": 1.94198115794,
			"-0.015": 2.11589322495,
			"-0.014": 2.11151657843,
			"-0.013": 1.57473645084,
			"-0.012": 2.29465554405,
			"-0.011": 1.73180899326,
			"-0.01": 2.77186106522,
			"-0.009": 2.19241788357,
			"-0.008": 2.34299087091,
			"-0.007": 5.12595695325,
			"-0.006": 7.79453452981,
			"-0.005": 8.07205154411,
			"-0.004": 6.88616857414,
			"-0.003": 7.02720071904,
			"-0.002": 7.13862950629,
			"-0.001": 7.01056811522,
			"0.0": 8.34833755209,
			"0.001": 8.87289345475,
			"0.002": 11.8166138195,
			"0.003": 15.3601742169,
			"0.004": 9.81961292719,
			"0.005": 3.56185412553,
			"0.006": 4.55483110662,
			"0.007": 3.34767247988,
			"0.008": 3.54118597534,
			"0.009": 4.72341694237,
			"0.01": 6.76037821829,
			"0.011": 6.7458910567,
			"0.012": 4.98565589761,
			"0.013": 1.50622964336,
			"0.014": 0.059871957346,
			"0.015": 0.0,
			"0.016": 0.0,
			"0.017": 0.0,
			"0.018": 0.0,
			"0.019": 0.0,
			"0.02": 0.0,
			"0.021": 0.0,
			"0.022": 0.0,
			"0.023": 0.0,
			"0.024": 0.0,
			"0.025": 0.0
		}
	}
}
