{
	 "smiles": "CC1=C(C=C(C=C1)S(=O)(=O)NCC1CCCO1)C(O)=O", 
	 "Tm": 434.15, 
	 "num_atms": 37, 
	 "gaussian": { 
		 "optdone": 1, 
		 "sigma_profile": "yes", 
		 "theory": "DFT", 
		 "functional": "B3LYP", 
		 "basiset": "6-31G**", 
		 "properties": { 
			 "R2extent": 8341.0835, 
			 "electric_dipole_moment_norm": 3.84854334651, 
			 "electric_quadrupole_moment_norm": 20.5318932191, 
			 "total_energy": -1334.63146913, 
			 "HOMO_LUMO_gap": 0.19275, 
			 "cosmo_polarized_energy": -20.42, 
			 "cosmo_cavitation_energy": 41.5, 
			 "cosmo_dispersion_energy": -29.79, 
			 "cosmo_repulsion_energy": 2.28, 
			 "cosmo_total_nonelectrostatic_energy": 14.0, 
			 "SMD_solvation_energy": 6.24 
		},
		"coords": [
			{
				"x": -0.8961813549,
				"y": -2.2785470559,
				"z": 4.2464558819,
				"element": "C" 
			},
			{
				"x": -0.4616092318,
				"y": -2.1314913055,
				"z": 2.8097022375,
				"element": "C" 
			},
			{
				"x": 0.8758644561,
				"y": -1.8816663059,
				"z": 2.416495097,
				"element": "C" 
			},
			{
				"x": 1.201754226,
				"y": -1.7590321833,
				"z": 1.0555415704,
				"element": "C" 
			},
			{
				"x": 0.2105533953,
				"y": -1.8763536988,
				"z": 0.0902727334,
				"element": "C" 
			},
			{
				"x": -1.1142492162,
				"y": -2.1295032122,
				"z": 0.4516141646,
				"element": "C" 
			},
			{
				"x": -1.4301330999,
				"y": -2.251864387,
				"z": 1.7992830349,
				"element": "C" 
			},
			{
				"x": 0.6409694456,
				"y": -1.7365505073,
				"z": -1.6436789215,
				"element": "S" 
			},
			{
				"x": -0.1665254888,
				"y": -2.687802903,
				"z": -2.4142738753,
				"element": "O" 
			},
			{
				"x": 2.1058987647,
				"y": -1.7336312377,
				"z": -1.7328443981,
				"element": "O" 
			},
			{
				"x": 0.0051013513,
				"y": -0.2196799502,
				"z": -2.0454788126,
				"element": "N" 
			},
			{
				"x": 0.8492902385,
				"y": 0.9597367504,
				"z": -1.7996988104,
				"element": "C" 
			},
			{
				"x": 0.0615896112,
				"y": 2.2409224805,
				"z": -2.0927247523,
				"element": "C" 
			},
			{
				"x": -0.1388662746,
				"y": 2.5415867423,
				"z": -3.5994503076,
				"element": "C" 
			},
			{
				"x": 0.9356709304,
				"y": 3.6032377623,
				"z": -3.890499904,
				"element": "C" 
			},
			{
				"x": 0.9929031501,
				"y": 4.3423112096,
				"z": -2.5539336912,
				"element": "C" 
			},
			{
				"x": 0.8275148529,
				"y": 3.330254665,
				"z": -1.5602744314,
				"element": "O" 
			},
			{
				"x": 1.9625520551,
				"y": -1.7487024383,
				"z": 3.4274266797,
				"element": "C" 
			},
			{
				"x": 3.1720031267,
				"y": -1.500061542,
				"z": 2.86540785,
				"element": "O" 
			},
			{
				"x": 1.8318456658,
				"y": -1.8426271899,
				"z": 4.6330810876,
				"element": "O" 
			},
			{
				"x": -1.9725075335,
				"y": -2.4619603151,
				"z": 4.297469491,
				"element": "H" 
			},
			{
				"x": -0.3712033718,
				"y": -3.1007115276,
				"z": 4.7397130276,
				"element": "H" 
			},
			{
				"x": -0.6592295227,
				"y": -1.3844773379,
				"z": 4.8290046434,
				"element": "H" 
			},
			{
				"x": 2.2267390068,
				"y": -1.5851875178,
				"z": 0.7537404869,
				"element": "H" 
			},
			{
				"x": -1.876673773,
				"y": -2.238259283,
				"z": -0.312249046,
				"element": "H" 
			},
			{
				"x": -2.458493532,
				"y": -2.4512251345,
				"z": 2.0858945902,
				"element": "H" 
			},
			{
				"x": -0.3340043579,
				"y": -0.2983523769,
				"z": -3.0027184697,
				"element": "H" 
			},
			{
				"x": 1.1228290448,
				"y": 0.9675694326,
				"z": -0.740685312,
				"element": "H" 
			},
			{
				"x": 1.779471793,
				"y": 0.9418864985,
				"z": -2.3820491595,
				"element": "H" 
			},
			{
				"x": -0.9030733243,
				"y": 2.1814534843,
				"z": -1.5707352227,
				"element": "H" 
			},
			{
				"x": -1.1386303147,
				"y": 2.9515290072,
				"z": -3.7746922823,
				"element": "H" 
			},
			{
				"x": -0.0352329848,
				"y": 1.6524611753,
				"z": -4.230239722,
				"element": "H" 
			},
			{
				"x": 0.6819506129,
				"y": 4.2521683165,
				"z": -4.7331787848,
				"element": "H" 
			},
			{
				"x": 1.9010582013,
				"y": 3.1313014433,
				"z": -4.1018137632,
				"element": "H" 
			},
			{
				"x": 0.1850924586,
				"y": 5.0884918265,
				"z": -2.4828891545,
				"element": "H" 
			},
			{
				"x": 1.9443304595,
				"y": 4.8478253698,
				"z": -2.3637524035,
				"element": "H" 
			},
			{
				"x": 3.7975305343,
				"y": -1.4374487541,
				"z": 3.6054586485,
				"element": "H" 
			}
		],
		 "valence_orbital": [ 
			{
				"type": "occ",
				"energy": -0.28425,
				"method": "rhf"
			},
			{
				"type": "occ",
				"energy": -0.28052,
				"method": "rhf"
			},
			{
				"type": "occ",
				"energy": -0.277,
				"method": "rhf"
			},
			{
				"type": "occ",
				"energy": -0.26135,
				"method": "rhf"
			},
			{
				"type": "occ",
				"energy": -0.25631,
				"method": "rhf"
			},
			{
				"type": "unocc",
				"energy": -0.06356,
				"method": "rhf"
			},
			{
				"type": "unocc",
				"energy": -0.03513,
				"method": "rhf"
			},
			{
				"type": "unocc",
				"energy": 0.03376,
				"method": "rhf"
			},
			{
				"type": "unocc",
				"energy": 0.0544,
				"method": "rhf"
			},
			{
				"type": "unocc",
				"energy": 0.0704,
				"method": "rhf"
			}
		],
		"cosmo_sigma_profile": { 
			"-0.025": 0.0,
			"-0.024": 0.0,
			"-0.023": 0.0,
			"-0.022": 0.0,
			"-0.021": 0.0,
			"-0.02": 0.0,
			"-0.019": 0.101995225708,
			"-0.018": 0.823942781517,
			"-0.017": 0.791623078499,
			"-0.016": 1.05989917926,
			"-0.015": 0.853384121562,
			"-0.014": 0.743130142577,
			"-0.013": 1.18830550465,
			"-0.012": 2.46282675134,
			"-0.011": 2.79449130981,
			"-0.01": 1.85744139355,
			"-0.009": 1.43019133285,
			"-0.008": 3.50611843257,
			"-0.007": 6.57277492057,
			"-0.006": 8.35256108013,
			"-0.005": 12.4336254795,
			"-0.004": 26.4863982115,
			"-0.003": 37.7863144662,
			"-0.002": 37.4935219203,
			"-0.001": 33.3362566604,
			"0.0": 30.2408873344,
			"0.001": 20.9003278674,
			"0.002": 13.5206766817,
			"0.003": 8.04220082182,
			"0.004": 7.23204086118,
			"0.005": 8.01978158231,
			"0.006": 8.06888165418,
			"0.007": 6.81901403064,
			"0.008": 6.75652934215,
			"0.009": 5.55889582563,
			"0.01": 10.8647501387,
			"0.011": 13.4831257486,
			"0.012": 5.44039963611,
			"0.013": 1.44274555933,
			"0.014": 0.601537709317,
			"0.015": 0.0,
			"0.016": 0.0,
			"0.017": 0.0,
			"0.018": 0.0,
			"0.019": 0.0,
			"0.02": 0.0,
			"0.021": 0.0,
			"0.022": 0.0,
			"0.023": 0.0,
			"0.024": 0.0,
			"0.025": 0.0
		}
	}
}
