{
	 "smiles": "NCC1=CSC(CNC(=O)C2=CC=CC=C2)=N1", 
	 "Tm": 358.15, 
	 "num_atms": 30, 
	 "gaussian": { 
		 "optdone": 1, 
		 "sigma_profile": "yes", 
		 "theory": "DFT", 
		 "functional": "B3LYP", 
		 "basiset": "6-31G**", 
		 "properties": { 
			 "R2extent": 7465.854, 
			 "electric_dipole_moment_norm": 2.49693403197, 
			 "electric_quadrupole_moment_norm": 26.586826351, 
			 "total_energy": -1102.78611419, 
			 "HOMO_LUMO_gap": 0.20258, 
			 "cosmo_polarized_energy": -15.52, 
			 "cosmo_cavitation_energy": 36.31, 
			 "cosmo_dispersion_energy": -26.36, 
			 "cosmo_repulsion_energy": 2.04, 
			 "cosmo_total_nonelectrostatic_energy": 11.99, 
			 "SMD_solvation_energy": 3.29 
		},
		"coords": [
			{
				"x": -4.2359102027,
				"y": 0.6506744622,
				"z": 3.0496217342,
				"element": "N" 
			},
			{
				"x": -4.5421769981,
				"y": -0.7346819071,
				"z": 2.6790345852,
				"element": "C" 
			},
			{
				"x": -4.472783646,
				"y": -1.0348939861,
				"z": 1.1996816226,
				"element": "C" 
			},
			{
				"x": -5.4827135793,
				"y": -1.5048706312,
				"z": 0.411222912,
				"element": "C" 
			},
			{
				"x": -4.9451341094,
				"y": -1.6742081798,
				"z": -1.2340035278,
				"element": "S" 
			},
			{
				"x": -3.3705128761,
				"y": -1.0811951385,
				"z": -0.737084284,
				"element": "C" 
			},
			{
				"x": -2.2324190096,
				"y": -0.9195582089,
				"z": -1.7092673493,
				"element": "C" 
			},
			{
				"x": -1.0397652506,
				"y": -0.514105151,
				"z": -0.9947824036,
				"element": "N" 
			},
			{
				"x": 0.0296227668,
				"y": -0.0160242504,
				"z": -1.6852464954,
				"element": "C" 
			},
			{
				"x": 0.0338169014,
				"y": 0.0322188163,
				"z": -2.9142297754,
				"element": "O" 
			},
			{
				"x": 1.1918073186,
				"y": 0.4655243542,
				"z": -0.8632044537,
				"element": "C" 
			},
			{
				"x": 1.3991986199,
				"y": 0.0969082737,
				"z": 0.473711966,
				"element": "C" 
			},
			{
				"x": 2.5031252794,
				"y": 0.5836148319,
				"z": 1.1742154855,
				"element": "C" 
			},
			{
				"x": 3.4082208948,
				"y": 1.4413139231,
				"z": 0.5460058835,
				"element": "C" 
			},
			{
				"x": 3.2132113534,
				"y": 1.8020912396,
				"z": -0.7898687522,
				"element": "C" 
			},
			{
				"x": 2.1146535312,
				"y": 1.311857944,
				"z": -1.4919495827,
				"element": "C" 
			},
			{
				"x": -3.2825984359,
				"y": -0.798022911,
				"z": 0.5296170068,
				"element": "N" 
			},
			{
				"x": -4.8843244893,
				"y": 1.2774482674,
				"z": 2.5769981975,
				"element": "H" 
			},
			{
				"x": -3.3127536374,
				"y": 0.8862436844,
				"z": 2.691072742,
				"element": "H" 
			},
			{
				"x": -3.8329820086,
				"y": -1.3842959108,
				"z": 3.2064686237,
				"element": "H" 
			},
			{
				"x": -5.5391601173,
				"y": -0.9885727101,
				"z": 3.0535853796,
				"element": "H" 
			},
			{
				"x": -6.4935327109,
				"y": -1.7611013586,
				"z": 0.6953917577,
				"element": "H" 
			},
			{
				"x": -2.0598603516,
				"y": -1.8609862515,
				"z": -2.2480524738,
				"element": "H" 
			},
			{
				"x": -2.4813586839,
				"y": -0.175934518,
				"z": -2.478652711,
				"element": "H" 
			},
			{
				"x": -1.1551919511,
				"y": -0.3505874405,
				"z": -0.0037705111,
				"element": "H" 
			},
			{
				"x": 0.7230935082,
				"y": -0.5965487429,
				"z": 0.9656243095,
				"element": "H" 
			},
			{
				"x": 2.6602878753,
				"y": 0.2867750663,
				"z": 2.2071197113,
				"element": "H" 
			},
			{
				"x": 4.266456456,
				"y": 1.8207170616,
				"z": 1.0933083561,
				"element": "H" 
			},
			{
				"x": 3.9196142376,
				"y": 2.4632898523,
				"z": -1.2834631818,
				"element": "H" 
			},
			{
				"x": 1.9475693151,
				"y": 1.5671095194,
				"z": -2.5329047714,
				"element": "H" 
			}
		],
		 "valence_orbital": [ 
			{
				"type": "occ",
				"energy": -0.25787,
				"method": "rhf"
			},
			{
				"type": "occ",
				"energy": -0.25634,
				"method": "rhf"
			},
			{
				"type": "occ",
				"energy": -0.25013,
				"method": "rhf"
			},
			{
				"type": "occ",
				"energy": -0.24628,
				"method": "rhf"
			},
			{
				"type": "occ",
				"energy": -0.23775,
				"method": "rhf"
			},
			{
				"type": "unocc",
				"energy": -0.03517,
				"method": "rhf"
			},
			{
				"type": "unocc",
				"energy": -0.03338,
				"method": "rhf"
			},
			{
				"type": "unocc",
				"energy": -0.00647,
				"method": "rhf"
			},
			{
				"type": "unocc",
				"energy": 0.00622,
				"method": "rhf"
			},
			{
				"type": "unocc",
				"energy": 0.03411,
				"method": "rhf"
			}
		],
		"cosmo_sigma_profile": { 
			"-0.025": 0.0,
			"-0.024": 0.0,
			"-0.023": 0.0,
			"-0.022": 0.0,
			"-0.021": 0.0,
			"-0.02": 0.0,
			"-0.019": 0.0,
			"-0.018": 0.0,
			"-0.017": 0.0,
			"-0.016": 0.0,
			"-0.015": 0.0,
			"-0.014": 0.0,
			"-0.013": 0.0,
			"-0.012": 0.0,
			"-0.011": 0.0,
			"-0.01": 1.13813930203,
			"-0.009": 4.4763563741,
			"-0.008": 5.88038016493,
			"-0.007": 11.0125300342,
			"-0.006": 19.3076563157,
			"-0.005": 20.6891866713,
			"-0.004": 22.6158194455,
			"-0.003": 18.7655135604,
			"-0.002": 18.5525072727,
			"-0.001": 19.4668804985,
			"0.0": 21.266175262,
			"0.001": 23.3454779444,
			"0.002": 24.0065470407,
			"0.003": 22.3148798253,
			"0.004": 18.7056630201,
			"0.005": 9.66867829429,
			"0.006": 3.14563523169,
			"0.007": 3.01686848283,
			"0.008": 2.97118013117,
			"0.009": 2.07362490149,
			"0.01": 2.03652353104,
			"0.011": 2.23537724259,
			"0.012": 2.37851048113,
			"0.013": 4.01033683752,
			"0.014": 4.69184191012,
			"0.015": 0.706148601773,
			"0.016": 1.0731219787,
			"0.017": 0.276601382882,
			"0.018": 0.752966861696,
			"0.019": 0.667441943629,
			"0.02": 0.116640576608,
			"0.021": 0.0,
			"0.022": 0.0,
			"0.023": 0.0,
			"0.024": 0.0,
			"0.025": 0.0
		}
	}
}
