{
	 "smiles": "O=C(C1=CC=CC=C1)C1=CC(=CC=C1)C(=O)C1=CC=CC=C1", 
	 "Tm": 371.65, 
	 "num_atms": 36, 
	 "gaussian": { 
		 "optdone": 1, 
		 "sigma_profile": "yes", 
		 "theory": "DFT", 
		 "functional": "B3LYP", 
		 "basiset": "6-31G**", 
		 "properties": { 
			 "R2extent": 9650.9847, 
			 "electric_dipole_moment_norm": 2.63048882339, 
			 "electric_quadrupole_moment_norm": 19.0876262951, 
			 "total_energy": -921.018436962, 
			 "HOMO_LUMO_gap": 0.17453, 
			 "cosmo_polarized_energy": -13.24, 
			 "cosmo_cavitation_energy": 41.05, 
			 "cosmo_dispersion_energy": -29.0, 
			 "cosmo_repulsion_energy": 2.18, 
			 "cosmo_total_nonelectrostatic_energy": 14.24, 
			 "SMD_solvation_energy": 7.66 
		},
		"coords": [
			{
				"x": 1.5727352179,
				"y": 0.0598058402,
				"z": -1.25372122,
				"element": "O" 
			},
			{
				"x": 1.5848441772,
				"y": 0.612776304,
				"z": -0.1589905149,
				"element": "C" 
			},
			{
				"x": 2.719421838,
				"y": 0.369186842,
				"z": 0.7903123338,
				"element": "C" 
			},
			{
				"x": 3.953495052,
				"y": -0.0221209651,
				"z": 0.2454659833,
				"element": "C" 
			},
			{
				"x": 5.0330431519,
				"y": -0.3064547295,
				"z": 1.075863339,
				"element": "C" 
			},
			{
				"x": 4.88663478,
				"y": -0.2289024285,
				"z": 2.4646054538,
				"element": "C" 
			},
			{
				"x": 3.6571192746,
				"y": 0.1332097277,
				"z": 3.017060081,
				"element": "C" 
			},
			{
				"x": 2.5785423912,
				"y": 0.4371539342,
				"z": 2.1853886314,
				"element": "C" 
			},
			{
				"x": 0.4578170491,
				"y": 1.533353432,
				"z": 0.2143291878,
				"element": "C" 
			},
			{
				"x": -0.7906016116,
				"y": 1.3051685499,
				"z": -0.3858517791,
				"element": "C" 
			},
			{
				"x": -1.8757805856,
				"y": 2.1465981263,
				"z": -0.1259499968,
				"element": "C" 
			},
			{
				"x": -1.7015426302,
				"y": 3.2376444024,
				"z": 0.7440310015,
				"element": "C" 
			},
			{
				"x": -0.4577375073,
				"y": 3.4966753506,
				"z": 1.3090758507,
				"element": "C" 
			},
			{
				"x": 0.6207164442,
				"y": 2.6456668964,
				"z": 1.0519230368,
				"element": "C" 
			},
			{
				"x": -3.2590934839,
				"y": 1.8995201062,
				"z": -0.6624402849,
				"element": "C" 
			},
			{
				"x": -4.2274666155,
				"y": 2.282277947,
				"z": -0.0142003592,
				"element": "O" 
			},
			{
				"x": -3.4625588926,
				"y": 1.195710784,
				"z": -1.9695517828,
				"element": "C" 
			},
			{
				"x": -2.5240061036,
				"y": 1.2236697281,
				"z": -3.0133207329,
				"element": "C" 
			},
			{
				"x": -2.8056998557,
				"y": 0.5990051496,
				"z": -4.2288885336,
				"element": "C" 
			},
			{
				"x": -4.0191950296,
				"y": -0.0658892118,
				"z": -4.4100919715,
				"element": "C" 
			},
			{
				"x": -4.9630700514,
				"y": -0.0913273046,
				"z": -3.3782464288,
				"element": "C" 
			},
			{
				"x": -4.691401182,
				"y": 0.5451907223,
				"z": -2.1715553345,
				"element": "C" 
			},
			{
				"x": 4.0397220845,
				"y": -0.0978804332,
				"z": -0.8333508747,
				"element": "H" 
			},
			{
				"x": 5.987369737,
				"y": -0.5947649453,
				"z": 0.6448574834,
				"element": "H" 
			},
			{
				"x": 5.7274881322,
				"y": -0.4570227754,
				"z": 3.1134481074,
				"element": "H" 
			},
			{
				"x": 3.5353954009,
				"y": 0.175726727,
				"z": 4.0954283906,
				"element": "H" 
			},
			{
				"x": 1.620790766,
				"y": 0.7000101765,
				"z": 2.6219559078,
				"element": "H" 
			},
			{
				"x": -0.8907482309,
				"y": 0.4470215476,
				"z": -1.0400876877,
				"element": "H" 
			},
			{
				"x": -2.5582218804,
				"y": 3.8679766409,
				"z": 0.9580624052,
				"element": "H" 
			},
			{
				"x": -0.3226955479,
				"y": 4.3594962196,
				"z": 1.9544913411,
				"element": "H" 
			},
			{
				"x": 1.5913741709,
				"y": 2.8587054607,
				"z": 1.4871606666,
				"element": "H" 
			},
			{
				"x": -1.5841141412,
				"y": 1.750160919,
				"z": -2.8882130843,
				"element": "H" 
			},
			{
				"x": -2.0766635536,
				"y": 0.6331158615,
				"z": -5.032939359,
				"element": "H" 
			},
			{
				"x": -4.2324654353,
				"y": -0.5591462007,
				"z": -5.3542067787,
				"element": "H" 
			},
			{
				"x": -5.910347001,
				"y": -0.6035015229,
				"z": -3.5198141369,
				"element": "H" 
			},
			{
				"x": -5.4177003282,
				"y": 0.5545831215,
				"z": -1.365738341,
				"element": "H" 
			}
		],
		 "valence_orbital": [ 
			{
				"type": "occ",
				"energy": -0.26295,
				"method": "rhf"
			},
			{
				"type": "occ",
				"energy": -0.25993,
				"method": "rhf"
			},
			{
				"type": "occ",
				"energy": -0.25797,
				"method": "rhf"
			},
			{
				"type": "occ",
				"energy": -0.24979,
				"method": "rhf"
			},
			{
				"type": "occ",
				"energy": -0.24598,
				"method": "rhf"
			},
			{
				"type": "unocc",
				"energy": -0.07145,
				"method": "rhf"
			},
			{
				"type": "unocc",
				"energy": -0.06404,
				"method": "rhf"
			},
			{
				"type": "unocc",
				"energy": -0.01959,
				"method": "rhf"
			},
			{
				"type": "unocc",
				"energy": -0.01779,
				"method": "rhf"
			},
			{
				"type": "unocc",
				"energy": -0.01129,
				"method": "rhf"
			}
		],
		"cosmo_sigma_profile": { 
			"-0.025": 0.0,
			"-0.024": 0.0,
			"-0.023": 0.0,
			"-0.022": 0.0,
			"-0.021": 0.0,
			"-0.02": 0.0,
			"-0.019": 0.0,
			"-0.018": 0.0,
			"-0.017": 0.0,
			"-0.016": 0.0,
			"-0.015": 0.0,
			"-0.014": 0.0,
			"-0.013": 0.0,
			"-0.012": 0.0,
			"-0.011": 0.0,
			"-0.01": 0.0,
			"-0.009": 0.0,
			"-0.008": 0.0,
			"-0.007": 5.85080444884,
			"-0.006": 23.1832186239,
			"-0.005": 28.7460111175,
			"-0.004": 31.8397112219,
			"-0.003": 27.3677789486,
			"-0.002": 24.621254891,
			"-0.001": 22.816806473,
			"0.0": 22.800491191,
			"0.001": 22.9753465539,
			"0.002": 29.6755660808,
			"0.003": 27.1928677233,
			"0.004": 25.4943514122,
			"0.005": 6.12549838345,
			"0.006": 3.40959531579,
			"0.007": 2.99983451115,
			"0.008": 4.00419172042,
			"0.009": 4.34815240176,
			"0.01": 3.37088313822,
			"0.011": 6.07973538535,
			"0.012": 7.53258089085,
			"0.013": 0.40704339009,
			"0.014": 0.0,
			"0.015": 0.0,
			"0.016": 0.0,
			"0.017": 0.0,
			"0.018": 0.0,
			"0.019": 0.0,
			"0.02": 0.0,
			"0.021": 0.0,
			"0.022": 0.0,
			"0.023": 0.0,
			"0.024": 0.0,
			"0.025": 0.0
		}
	}
}
