{
	 "smiles": "OC(=O)CSC(=CC1=CC=CO1)C1=NC2=C(S1)C=CC=C2", 
	 "Tm": 407.15, 
	 "num_atms": 32, 
	 "gaussian": { 
		 "optdone": 1, 
		 "sigma_profile": "yes", 
		 "theory": "DFT", 
		 "functional": "B3LYP", 
		 "basiset": "6-31G**", 
		 "properties": { 
			 "R2extent": 8091.6372, 
			 "electric_dipole_moment_norm": 1.67169184361, 
			 "electric_quadrupole_moment_norm": 10.9094258827, 
			 "total_energy": -1654.99553531, 
			 "HOMO_LUMO_gap": 0.15156, 
			 "cosmo_polarized_energy": -16.33, 
			 "cosmo_cavitation_energy": 40.88, 
			 "cosmo_dispersion_energy": -28.72, 
			 "cosmo_repulsion_energy": 2.13, 
			 "cosmo_total_nonelectrostatic_energy": 14.29, 
			 "SMD_solvation_energy": 6.18 
		},
		"coords": [
			{
				"x": -2.8024788136,
				"y": 5.3106043306,
				"z": 0.9413213237,
				"element": "O" 
			},
			{
				"x": -1.8297842529,
				"y": 4.4035512882,
				"z": 0.6973127436,
				"element": "C" 
			},
			{
				"x": -1.2269290467,
				"y": 4.34761089,
				"z": -0.3533430119,
				"element": "O" 
			},
			{
				"x": -1.6242437599,
				"y": 3.4636525756,
				"z": 1.8599002583,
				"element": "C" 
			},
			{
				"x": -2.5442619003,
				"y": 1.8828635509,
				"z": 1.5925278543,
				"element": "S" 
			},
			{
				"x": -1.6450449197,
				"y": 1.1376484891,
				"z": 0.2411266196,
				"element": "C" 
			},
			{
				"x": -2.331837753,
				"y": 0.8146509612,
				"z": -0.8805772781,
				"element": "C" 
			},
			{
				"x": -1.8847839797,
				"y": 0.0170182639,
				"z": -1.9938042854,
				"element": "C" 
			},
			{
				"x": -0.8116666973,
				"y": -0.8013182551,
				"z": -2.2671963321,
				"element": "C" 
			},
			{
				"x": -1.0090906792,
				"y": -1.3130176134,
				"z": -3.5818772935,
				"element": "C" 
			},
			{
				"x": -2.1861516935,
				"y": -0.7811218753,
				"z": -4.0244900304,
				"element": "C" 
			},
			{
				"x": -2.7333163608,
				"y": 0.0213020632,
				"z": -3.0795308126,
				"element": "O" 
			},
			{
				"x": -0.2225003843,
				"y": 0.7964689854,
				"z": 0.464906855,
				"element": "C" 
			},
			{
				"x": 0.1972468497,
				"y": -0.1995914108,
				"z": 1.1812098319,
				"element": "N" 
			},
			{
				"x": 1.5808941552,
				"y": -0.2609669456,
				"z": 1.2004785176,
				"element": "C" 
			},
			{
				"x": 2.244276286,
				"y": 0.7498424765,
				"z": 0.4599322327,
				"element": "C" 
			},
			{
				"x": 1.0582674029,
				"y": 1.8133969724,
				"z": -0.2612242743,
				"element": "S" 
			},
			{
				"x": 3.6407932056,
				"y": 0.8018371917,
				"z": 0.3955167809,
				"element": "C" 
			},
			{
				"x": 4.3663715176,
				"y": -0.1711313348,
				"z": 1.0765063543,
				"element": "C" 
			},
			{
				"x": 3.7177996606,
				"y": -1.1799164454,
				"z": 1.8126748903,
				"element": "C" 
			},
			{
				"x": 2.3319362308,
				"y": -1.2329248455,
				"z": 1.8802877456,
				"element": "C" 
			},
			{
				"x": -2.8954058074,
				"y": 5.835880651,
				"z": 0.1284023239,
				"element": "H" 
			},
			{
				"x": -0.5598394054,
				"y": 3.2537893968,
				"z": 1.9766404493,
				"element": "H" 
			},
			{
				"x": -2.0269696631,
				"y": 3.8779471404,
				"z": 2.7854226864,
				"element": "H" 
			},
			{
				"x": -3.3562526019,
				"y": 1.1671709807,
				"z": -0.9673599408,
				"element": "H" 
			},
			{
				"x": 0.0035376888,
				"y": -1.0262037218,
				"z": -1.5972055937,
				"element": "H" 
			},
			{
				"x": -0.3648715886,
				"y": -1.9905676252,
				"z": -4.1232171683,
				"element": "H" 
			},
			{
				"x": -2.7425876115,
				"y": -0.874300266,
				"z": -4.9444459265,
				"element": "H" 
			},
			{
				"x": 4.1470568417,
				"y": 1.57741745,
				"z": -0.1702512344,
				"element": "H" 
			},
			{
				"x": 5.4514799902,
				"y": -0.1499879246,
				"z": 1.0377620538,
				"element": "H" 
			},
			{
				"x": 4.3108950344,
				"y": -1.9251613687,
				"z": 2.3340706602,
				"element": "H" 
			},
			{
				"x": 1.8151620554,
				"y": -2.0026440257,
				"z": 2.4439230006,
				"element": "H" 
			}
		],
		 "valence_orbital": [ 
			{
				"type": "occ",
				"energy": -0.27421,
				"method": "rhf"
			},
			{
				"type": "occ",
				"energy": -0.25055,
				"method": "rhf"
			},
			{
				"type": "occ",
				"energy": -0.2405,
				"method": "rhf"
			},
			{
				"type": "occ",
				"energy": -0.23335,
				"method": "rhf"
			},
			{
				"type": "occ",
				"energy": -0.20878,
				"method": "rhf"
			},
			{
				"type": "unocc",
				"energy": -0.05722,
				"method": "rhf"
			},
			{
				"type": "unocc",
				"energy": -0.03627,
				"method": "rhf"
			},
			{
				"type": "unocc",
				"energy": -0.00886,
				"method": "rhf"
			},
			{
				"type": "unocc",
				"energy": -0.00648,
				"method": "rhf"
			},
			{
				"type": "unocc",
				"energy": 0.01577,
				"method": "rhf"
			}
		],
		"cosmo_sigma_profile": { 
			"-0.025": 0.0,
			"-0.024": 0.0,
			"-0.023": 0.0,
			"-0.022": 0.0,
			"-0.021": 0.0,
			"-0.02": 0.0,
			"-0.019": 0.157826234758,
			"-0.018": 1.08893366484,
			"-0.017": 0.951793054596,
			"-0.016": 0.922155300765,
			"-0.015": 0.538250360827,
			"-0.014": 0.550777175822,
			"-0.013": 0.442994025811,
			"-0.012": 0.967625721728,
			"-0.011": 0.747606489377,
			"-0.01": 1.04082699046,
			"-0.009": 3.58492428234,
			"-0.008": 5.3635258111,
			"-0.007": 13.0685694802,
			"-0.006": 19.4720242829,
			"-0.005": 22.0628191799,
			"-0.004": 21.8963941749,
			"-0.003": 15.8926141932,
			"-0.002": 17.9390412795,
			"-0.001": 18.5555798065,
			"0.0": 19.2738632232,
			"0.001": 26.8522374842,
			"0.002": 30.807170448,
			"0.003": 30.6470744461,
			"0.004": 27.2241038642,
			"0.005": 13.5092635324,
			"0.006": 8.03433030336,
			"0.007": 7.09582144317,
			"0.008": 7.61455257441,
			"0.009": 4.81074671107,
			"0.01": 4.0136834551,
			"0.011": 3.8117673958,
			"0.012": 1.6264168384,
			"0.013": 0.859333071336,
			"0.014": 0.917629503609,
			"0.015": 0.145483259028,
			"0.016": 0.0,
			"0.017": 0.0,
			"0.018": 0.0,
			"0.019": 0.0,
			"0.02": 0.0,
			"0.021": 0.0,
			"0.022": 0.0,
			"0.023": 0.0,
			"0.024": 0.0,
			"0.025": 0.0
		}
	}
}
