{
	 "smiles": "SC1=NC2=C(C=NN2C2=CC(Cl)=CC=C2)C(=O)N1", 
	 "Tm": 529.15, 
	 "num_atms": 25, 
	 "gaussian": { 
		 "optdone": 1, 
		 "sigma_profile": "yes", 
		 "theory": "DFT", 
		 "functional": "B3LYP", 
		 "basiset": "6-31G**", 
		 "properties": { 
			 "R2extent": 6317.8569, 
			 "electric_dipole_moment_norm": 1.72345454248, 
			 "electric_quadrupole_moment_norm": 20.0606413125, 
			 "total_energy": -1575.99983458, 
			 "HOMO_LUMO_gap": 0.17869, 
			 "cosmo_polarized_energy": -14.29, 
			 "cosmo_cavitation_energy": 33.99, 
			 "cosmo_dispersion_energy": -25.47, 
			 "cosmo_repulsion_energy": 1.89, 
			 "cosmo_total_nonelectrostatic_energy": 10.41, 
			 "SMD_solvation_energy": 4.42 
		},
		"coords": [
			{
				"x": -1.4989840882,
				"y": -0.0374728338,
				"z": -3.7630249313,
				"element": "S" 
			},
			{
				"x": -1.1606135459,
				"y": 0.7522840823,
				"z": -2.2062735417,
				"element": "C" 
			},
			{
				"x": -0.3081715461,
				"y": 0.2295803703,
				"z": -1.3703819143,
				"element": "N" 
			},
			{
				"x": -0.1521069201,
				"y": 0.9468483548,
				"z": -0.2184656131,
				"element": "C" 
			},
			{
				"x": -0.8058814735,
				"y": 2.1393664813,
				"z": 0.1132514634,
				"element": "C" 
			},
			{
				"x": -0.3125903841,
				"y": 2.4843054766,
				"z": 1.3929873476,
				"element": "C" 
			},
			{
				"x": 0.5638057149,
				"y": 1.5967017374,
				"z": 1.8222814983,
				"element": "N" 
			},
			{
				"x": 0.6707300773,
				"y": 0.643054812,
				"z": 0.8353886444,
				"element": "N" 
			},
			{
				"x": 1.56265132,
				"y": -0.449636705,
				"z": 1.0385954658,
				"element": "C" 
			},
			{
				"x": 1.7119022946,
				"y": -1.4467947224,
				"z": 0.0666563484,
				"element": "C" 
			},
			{
				"x": 2.5975359432,
				"y": -2.4917779283,
				"z": 0.3176719305,
				"element": "C" 
			},
			{
				"x": 2.7840038392,
				"y": -3.7445784696,
				"z": -0.9051826467,
				"element": "Cl" 
			},
			{
				"x": 3.3340289375,
				"y": -2.5754562628,
				"z": 1.496414473,
				"element": "C" 
			},
			{
				"x": 3.1671028,
				"y": -1.5689873131,
				"z": 2.4490164742,
				"element": "C" 
			},
			{
				"x": 2.291390054,
				"y": -0.508718805,
				"z": 2.2342302704,
				"element": "C" 
			},
			{
				"x": -1.7484008411,
				"y": 2.7213485833,
				"z": -0.8062772993,
				"element": "C" 
			},
			{
				"x": -2.4123981768,
				"y": 3.7377757666,
				"z": -0.7089092036,
				"element": "O" 
			},
			{
				"x": -1.852368374,
				"y": 1.910342021,
				"z": -1.9831138822,
				"element": "N" 
			},
			{
				"x": -0.6485863273,
				"y": -1.0542905317,
				"z": -3.534158457,
				"element": "H" 
			},
			{
				"x": -0.5659033255,
				"y": 3.339171177,
				"z": 2.0044412495,
				"element": "H" 
			},
			{
				"x": 1.1528257623,
				"y": -1.4059680518,
				"z": -0.8562067805,
				"element": "H" 
			},
			{
				"x": 4.0153414477,
				"y": -3.4019421667,
				"z": 1.6615436828,
				"element": "H" 
			},
			{
				"x": 3.7305370999,
				"y": -1.6125044552,
				"z": 3.3760884555,
				"element": "H" 
			},
			{
				"x": 2.161281253,
				"y": 0.2716236118,
				"z": 2.9715418579,
				"element": "H" 
			},
			{
				"x": -2.502431541,
				"y": 2.2636257711,
				"z": -2.676114892,
				"element": "H" 
			}
		],
		 "valence_orbital": [ 
			{
				"type": "occ",
				"energy": -0.29649,
				"method": "rhf"
			},
			{
				"type": "occ",
				"energy": -0.27902,
				"method": "rhf"
			},
			{
				"type": "occ",
				"energy": -0.25776,
				"method": "rhf"
			},
			{
				"type": "occ",
				"energy": -0.24507,
				"method": "rhf"
			},
			{
				"type": "occ",
				"energy": -0.23709,
				"method": "rhf"
			},
			{
				"type": "unocc",
				"energy": -0.0584,
				"method": "rhf"
			},
			{
				"type": "unocc",
				"energy": -0.0271,
				"method": "rhf"
			},
			{
				"type": "unocc",
				"energy": -0.02522,
				"method": "rhf"
			},
			{
				"type": "unocc",
				"energy": -0.0196,
				"method": "rhf"
			},
			{
				"type": "unocc",
				"energy": -0.00917,
				"method": "rhf"
			}
		],
		"cosmo_sigma_profile": { 
			"-0.025": 0.0,
			"-0.024": 0.0,
			"-0.023": 0.0,
			"-0.022": 0.0,
			"-0.021": 0.0,
			"-0.02": 0.0,
			"-0.019": 0.0,
			"-0.018": 0.115912952318,
			"-0.017": 1.08102419084,
			"-0.016": 1.2970280652,
			"-0.015": 0.448648891427,
			"-0.014": 1.12240017239,
			"-0.013": 2.23008074179,
			"-0.012": 2.13694047347,
			"-0.011": 1.98573167397,
			"-0.01": 2.46042714586,
			"-0.009": 3.73509151327,
			"-0.008": 3.88202689665,
			"-0.007": 6.8066663329,
			"-0.006": 9.26975759841,
			"-0.005": 11.6010924956,
			"-0.004": 12.3111480383,
			"-0.003": 14.3728518583,
			"-0.002": 21.5224755478,
			"-0.001": 21.5038874449,
			"0.0": 24.0699840367,
			"0.001": 28.883263533,
			"0.002": 28.4072686705,
			"0.003": 24.2531482248,
			"0.004": 18.091292294,
			"0.005": 11.9901840891,
			"0.006": 4.116349266,
			"0.007": 2.67375279243,
			"0.008": 2.77405250391,
			"0.009": 2.48648088338,
			"0.01": 3.16972593166,
			"0.011": 2.34002723311,
			"0.012": 5.97835377557,
			"0.013": 2.75584370086,
			"0.014": 0.0799490527407,
			"0.015": 0.0,
			"0.016": 0.0,
			"0.017": 0.0,
			"0.018": 0.0,
			"0.019": 0.0,
			"0.02": 0.0,
			"0.021": 0.0,
			"0.022": 0.0,
			"0.023": 0.0,
			"0.024": 0.0,
			"0.025": 0.0
		}
	}
}
