{
	 "smiles": "CC1=CC=CC(C)=C1C(N)=O", 
	 "Tm": 410.15, 
	 "num_atms": 22, 
	 "gaussian": { 
		 "optdone": 1, 
		 "sigma_profile": "yes", 
		 "theory": "DFT", 
		 "functional": "B3LYP", 
		 "basiset": "6-31G**", 
		 "properties": { 
			 "R2extent": 1824.857, 
			 "electric_dipole_moment_norm": 3.42176790855, 
			 "electric_quadrupole_moment_norm": 15.2784406685, 
			 "total_energy": -479.589421843, 
			 "HOMO_LUMO_gap": 0.22153, 
			 "cosmo_polarized_energy": -12.79, 
			 "cosmo_cavitation_energy": 25.19, 
			 "cosmo_dispersion_energy": -18.01, 
			 "cosmo_repulsion_energy": 1.46, 
			 "cosmo_total_nonelectrostatic_energy": 8.64, 
			 "SMD_solvation_energy": 5.03 
		},
		"coords": [
			{
				"x": -0.2752733709,
				"y": 2.3741673294,
				"z": 1.081341009,
				"element": "C" 
			},
			{
				"x": -0.1783353081,
				"y": 0.8938366014,
				"z": 0.7895718647,
				"element": "C" 
			},
			{
				"x": 0.3517500987,
				"y": 0.0176508356,
				"z": 1.7421856771,
				"element": "C" 
			},
			{
				"x": 0.424809053,
				"y": -1.3518578921,
				"z": 1.4923498985,
				"element": "C" 
			},
			{
				"x": -0.0364811396,
				"y": -1.8637029583,
				"z": 0.2822545671,
				"element": "C" 
			},
			{
				"x": -0.5631290107,
				"y": -1.0178624936,
				"z": -0.7023476671,
				"element": "C" 
			},
			{
				"x": -1.0768674258,
				"y": -1.6040932695,
				"z": -2.0007354237,
				"element": "C" 
			},
			{
				"x": -0.6183326656,
				"y": 0.3651429054,
				"z": -0.440906139,
				"element": "C" 
			},
			{
				"x": -1.2207852936,
				"y": 1.3103150915,
				"z": -1.4576100419,
				"element": "C" 
			},
			{
				"x": -0.4653110622,
				"y": 1.4991416607,
				"z": -2.5828022801,
				"element": "N" 
			},
			{
				"x": -2.2961634917,
				"y": 1.8711968999,
				"z": -1.2928728152,
				"element": "O" 
			},
			{
				"x": -1.3147704573,
				"y": 2.7113655688,
				"z": 1.0392462643,
				"element": "H" 
			},
			{
				"x": 0.279408177,
				"y": 2.9673051172,
				"z": 0.3446246924,
				"element": "H" 
			},
			{
				"x": 0.1294956901,
				"y": 2.6043231338,
				"z": 2.0701616707,
				"element": "H" 
			},
			{
				"x": 0.7023859708,
				"y": 0.4156328767,
				"z": 2.6907998358,
				"element": "H" 
			},
			{
				"x": 0.8328679822,
				"y": -2.0206412359,
				"z": 2.2450743812,
				"element": "H" 
			},
			{
				"x": 0.0032133296,
				"y": -2.9336902262,
				"z": 0.0952568997,
				"element": "H" 
			},
			{
				"x": -2.0530799031,
				"y": -1.1893040581,
				"z": -2.2704196077,
				"element": "H" 
			},
			{
				"x": -0.4021042448,
				"y": -1.4029839942,
				"z": -2.8407736839,
				"element": "H" 
			},
			{
				"x": -1.1826605992,
				"y": -2.6888985026,
				"z": -1.9168841865,
				"element": "H" 
			},
			{
				"x": -0.7985610355,
				"y": 2.1484318999,
				"z": -3.2803515212,
				"element": "H" 
			},
			{
				"x": 0.4612247068,
				"y": 1.11412471,
				"z": -2.6689633941,
				"element": "H" 
			}
		],
		 "valence_orbital": [ 
			{
				"type": "occ",
				"energy": -0.33615,
				"method": "rhf"
			},
			{
				"type": "occ",
				"energy": -0.26725,
				"method": "rhf"
			},
			{
				"type": "occ",
				"energy": -0.25579,
				"method": "rhf"
			},
			{
				"type": "occ",
				"energy": -0.23799,
				"method": "rhf"
			},
			{
				"type": "occ",
				"energy": -0.23458,
				"method": "rhf"
			},
			{
				"type": "unocc",
				"energy": -0.01305,
				"method": "rhf"
			},
			{
				"type": "unocc",
				"energy": 0.00367,
				"method": "rhf"
			},
			{
				"type": "unocc",
				"energy": 0.03607,
				"method": "rhf"
			},
			{
				"type": "unocc",
				"energy": 0.07597,
				"method": "rhf"
			},
			{
				"type": "unocc",
				"energy": 0.09967,
				"method": "rhf"
			}
		],
		"cosmo_sigma_profile": { 
			"-0.025": 0.0,
			"-0.024": 0.0,
			"-0.023": 0.0,
			"-0.022": 0.0,
			"-0.021": 0.0,
			"-0.02": 0.0,
			"-0.019": 0.0,
			"-0.018": 0.0,
			"-0.017": 0.0,
			"-0.016": 0.0,
			"-0.015": 0.091147653356,
			"-0.014": 1.47674641712,
			"-0.013": 2.20041621934,
			"-0.012": 2.19291119171,
			"-0.011": 1.76401828832,
			"-0.01": 2.13608064966,
			"-0.009": 1.95568390994,
			"-0.008": 2.70923809832,
			"-0.007": 2.29061849281,
			"-0.006": 3.35131327097,
			"-0.005": 11.1724195802,
			"-0.004": 15.2444385385,
			"-0.003": 17.0718249355,
			"-0.002": 17.4820466627,
			"-0.001": 18.6854442942,
			"0.0": 19.8371701308,
			"0.001": 13.7072081496,
			"0.002": 10.8267149023,
			"0.003": 8.88670252721,
			"0.004": 8.75287805987,
			"0.005": 10.1317086783,
			"0.006": 7.50690815718,
			"0.007": 1.9717161411,
			"0.008": 1.28740551407,
			"0.009": 1.28095033325,
			"0.01": 1.35869436826,
			"0.011": 1.6343146732,
			"0.012": 1.9225246166,
			"0.013": 3.34532914581,
			"0.014": 4.84934574732,
			"0.015": 1.2469482349,
			"0.016": 0.0129844647021,
			"0.017": 0.0,
			"0.018": 0.0,
			"0.019": 0.0,
			"0.02": 0.0,
			"0.021": 0.0,
			"0.022": 0.0,
			"0.023": 0.0,
			"0.024": 0.0,
			"0.025": 0.0
		}
	}
}
