{
	 "smiles": "[O-][N+](=O)C1=CC=C(C=C/C2=CC=CC=C2C=NNC2=CC=CC=C2)C(=C1)[N+]([O-])=O", 
	 "Tm": 466.15, 
	 "num_atms": 45, 
	 "gaussian": { 
		 "optdone": 1, 
		 "sigma_profile": "yes", 
		 "theory": "DFT", 
		 "functional": "B3LYP", 
		 "basiset": "6-31G**", 
		 "properties": { 
			 "R2extent": 13106.1873, 
			 "electric_dipole_moment_norm": 4.63496730193, 
			 "electric_quadrupole_moment_norm": 21.4208121683, 
			 "total_energy": -1329.5109162, 
			 "HOMO_LUMO_gap": 0.09221, 
			 "cosmo_polarized_energy": -19.44, 
			 "cosmo_cavitation_energy": 51.27, 
			 "cosmo_dispersion_energy": -33.24, 
			 "cosmo_repulsion_energy": 2.52, 
			 "cosmo_total_nonelectrostatic_energy": 20.55, 
			 "SMD_solvation_energy": 12.19 
		},
		"coords": [
			{
				"x": -1.8816796814,
				"y": 5.0933737585,
				"z": 4.0759871091,
				"element": "O" 
			},
			{
				"x": -0.8756548288,
				"y": 4.9737615027,
				"z": 3.3794882899,
				"element": "N" 
			},
			{
				"x": 0.2034365512,
				"y": 5.5237567673,
				"z": 3.5938740697,
				"element": "O" 
			},
			{
				"x": -0.9667897246,
				"y": 4.1040252473,
				"z": 2.1965782973,
				"element": "C" 
			},
			{
				"x": 0.1509597967,
				"y": 3.9390463705,
				"z": 1.3800647644,
				"element": "C" 
			},
			{
				"x": 0.0503313075,
				"y": 3.1041955186,
				"z": 0.2749932841,
				"element": "C" 
			},
			{
				"x": -1.1422759681,
				"y": 2.4287012845,
				"z": -0.0512731731,
				"element": "C" 
			},
			{
				"x": -1.1255836947,
				"y": 1.5388643884,
				"z": -1.2322187001,
				"element": "C" 
			},
			{
				"x": -1.5062014942,
				"y": 0.2545767821,
				"z": -1.3116447946,
				"element": "C" 
			},
			{
				"x": -2.0662810544,
				"y": -0.600275474,
				"z": -0.2374744693,
				"element": "C" 
			},
			{
				"x": -3.3075160114,
				"y": -1.2169094366,
				"z": -0.4754567543,
				"element": "C" 
			},
			{
				"x": -3.9394166319,
				"y": -1.9746577175,
				"z": 0.5058051905,
				"element": "C" 
			},
			{
				"x": -3.3301925711,
				"y": -2.1410048063,
				"z": 1.7514884779,
				"element": "C" 
			},
			{
				"x": -2.0861667944,
				"y": -1.565718962,
				"z": 1.9924245454,
				"element": "C" 
			},
			{
				"x": -1.4240482068,
				"y": -0.8093935529,
				"z": 1.0095609941,
				"element": "C" 
			},
			{
				"x": -0.076872867,
				"y": -0.2768638094,
				"z": 1.3465748488,
				"element": "C" 
			},
			{
				"x": 1.0405429588,
				"y": -0.4666143031,
				"z": 0.7294861926,
				"element": "N" 
			},
			{
				"x": 1.0760538934,
				"y": -1.2119100169,
				"z": -0.3882316812,
				"element": "N" 
			},
			{
				"x": 2.2898167894,
				"y": -1.5123875752,
				"z": -1.014161566,
				"element": "C" 
			},
			{
				"x": 2.2851133284,
				"y": -2.4102664142,
				"z": -2.0933595637,
				"element": "C" 
			},
			{
				"x": 3.4729192622,
				"y": -2.715644926,
				"z": -2.7537723412,
				"element": "C" 
			},
			{
				"x": 4.677913708,
				"y": -2.1354333707,
				"z": -2.3524358249,
				"element": "C" 
			},
			{
				"x": 4.6766319377,
				"y": -1.2433764753,
				"z": -1.2769617925,
				"element": "C" 
			},
			{
				"x": 3.4976938251,
				"y": -0.9258327897,
				"z": -0.6061715716,
				"element": "C" 
			},
			{
				"x": -2.2499875092,
				"y": 2.6690259433,
				"z": 0.7865121346,
				"element": "C" 
			},
			{
				"x": -2.171923333,
				"y": 3.473576348,
				"z": 1.9184869076,
				"element": "C" 
			},
			{
				"x": -3.5929294268,
				"y": 2.1330498107,
				"z": 0.4822077896,
				"element": "N" 
			},
			{
				"x": -3.9386755378,
				"y": 2.0980243686,
				"z": -0.6947069742,
				"element": "O" 
			},
			{
				"x": -4.2890702937,
				"y": 1.8013745319,
				"z": 1.4394042034,
				"element": "O" 
			},
			{
				"x": 1.0729452363,
				"y": 4.450456662,
				"z": 1.626461265,
				"element": "H" 
			},
			{
				"x": 0.9226865255,
				"y": 2.9370411001,
				"z": -0.3481997602,
				"element": "H" 
			},
			{
				"x": -0.6969262499,
				"y": 1.9919025606,
				"z": -2.1240983305,
				"element": "H" 
			},
			{
				"x": -1.434564587,
				"y": -0.2106234236,
				"z": -2.2943412691,
				"element": "H" 
			},
			{
				"x": -3.7951233964,
				"y": -1.0580881519,
				"z": -1.4329727596,
				"element": "H" 
			},
			{
				"x": -4.9075536887,
				"y": -2.4225158395,
				"z": 0.3038380341,
				"element": "H" 
			},
			{
				"x": -3.8183963711,
				"y": -2.7224623918,
				"z": 2.5277031975,
				"element": "H" 
			},
			{
				"x": -1.5989451183,
				"y": -1.7125828366,
				"z": 2.9524955455,
				"element": "H" 
			},
			{
				"x": 0.0144222764,
				"y": 0.2957300376,
				"z": 2.2678663336,
				"element": "H" 
			},
			{
				"x": 0.2564318809,
				"y": -1.7465061701,
				"z": -0.6593665523,
				"element": "H" 
			},
			{
				"x": 1.3507202063,
				"y": -2.8679618889,
				"z": -2.4107727417,
				"element": "H" 
			},
			{
				"x": 3.453302984,
				"y": -3.4137560309,
				"z": -3.5859446388,
				"element": "H" 
			},
			{
				"x": 5.6024628532,
				"y": -2.375354495,
				"z": -2.8680135219,
				"element": "H" 
			},
			{
				"x": 5.6071887381,
				"y": -0.7862593865,
				"z": -0.9515507639,
				"element": "H" 
			},
			{
				"x": 3.4933038382,
				"y": -0.2381122488,
				"z": 0.2304211107,
				"element": "H" 
			},
			{
				"x": -3.0341028565,
				"y": 3.619029511,
				"z": 2.5553069592,
				"element": "H" 
			}
		],
		 "valence_orbital": [ 
			{
				"type": "occ",
				"energy": -0.28076,
				"method": "rhf"
			},
			{
				"type": "occ",
				"energy": -0.26364,
				"method": "rhf"
			},
			{
				"type": "occ",
				"energy": -0.25123,
				"method": "rhf"
			},
			{
				"type": "occ",
				"energy": -0.24979,
				"method": "rhf"
			},
			{
				"type": "occ",
				"energy": -0.19986,
				"method": "rhf"
			},
			{
				"type": "unocc",
				"energy": -0.10765,
				"method": "rhf"
			},
			{
				"type": "unocc",
				"energy": -0.09142,
				"method": "rhf"
			},
			{
				"type": "unocc",
				"energy": -0.05293,
				"method": "rhf"
			},
			{
				"type": "unocc",
				"energy": -0.04027,
				"method": "rhf"
			},
			{
				"type": "unocc",
				"energy": -0.02984,
				"method": "rhf"
			}
		],
		"cosmo_sigma_profile": { 
			"-0.025": 0.0,
			"-0.024": 0.0,
			"-0.023": 0.0,
			"-0.022": 0.0,
			"-0.021": 0.0,
			"-0.02": 0.0,
			"-0.019": 0.0,
			"-0.018": 0.0,
			"-0.017": 0.0,
			"-0.016": 0.0,
			"-0.015": 0.0,
			"-0.014": 0.0,
			"-0.013": 0.162705130766,
			"-0.012": 1.10461926601,
			"-0.011": 1.45480875579,
			"-0.01": 0.904558159926,
			"-0.009": 3.02736113281,
			"-0.008": 9.00251548631,
			"-0.007": 15.3529261749,
			"-0.006": 26.2414449186,
			"-0.005": 31.1206951114,
			"-0.004": 29.7022232972,
			"-0.003": 32.673622406,
			"-0.002": 31.7219998197,
			"-0.001": 22.447468653,
			"0.0": 20.3693473062,
			"0.001": 21.8031261779,
			"0.002": 18.8372609763,
			"0.003": 23.6381724519,
			"0.004": 28.4529351077,
			"0.005": 23.372400875,
			"0.006": 22.380824443,
			"0.007": 23.4233965488,
			"0.008": 13.5296776657,
			"0.009": 7.66567919878,
			"0.01": 2.76006342655,
			"0.011": 0.201700528665,
			"0.012": 0.0,
			"0.013": 0.0,
			"0.014": 0.0,
			"0.015": 0.0,
			"0.016": 0.0,
			"0.017": 0.0,
			"0.018": 0.0,
			"0.019": 0.0,
			"0.02": 0.0,
			"0.021": 0.0,
			"0.022": 0.0,
			"0.023": 0.0,
			"0.024": 0.0,
			"0.025": 0.0
		}
	}
}
