{
	 "smiles": "OC(=O)C1=CC(=C(Br)O1)S(Cl)(=O)=O", 
	 "Tm": 413.15, 
	 "num_atms": 15, 
	 "gaussian": { 
		 "optdone": 1, 
		 "sigma_profile": "yes", 
		 "theory": "DFT", 
		 "functional": "B3LYP", 
		 "basiset": "6-31G**", 
		 "properties": { 
			 "R2extent": 5543.5257, 
			 "electric_dipole_moment_norm": 3.21896059932, 
			 "electric_quadrupole_moment_norm": 20.1043647554, 
			 "total_energy": -3997.52457889, 
			 "HOMO_LUMO_gap": 0.1814, 
			 "cosmo_polarized_energy": -15.66, 
			 "cosmo_cavitation_energy": 27.23, 
			 "cosmo_dispersion_energy": -20.61, 
			 "cosmo_repulsion_energy": 1.6, 
			 "cosmo_total_nonelectrostatic_energy": 8.22, 
			 "SMD_solvation_energy": 4.28 
		},
		"coords": [
			{
				"x": 2.575911212,
				"y": -0.9464498193,
				"z": -0.3752721208,
				"element": "O" 
			},
			{
				"x": 2.0989897422,
				"y": -0.0759098041,
				"z": 0.5399501507,
				"element": "C" 
			},
			{
				"x": 2.823628224,
				"y": 0.5979466406,
				"z": 1.2308842783,
				"element": "O" 
			},
			{
				"x": 0.6284732459,
				"y": 0.0090308709,
				"z": 0.6514021641,
				"element": "C" 
			},
			{
				"x": -0.1694781755,
				"y": 0.7673317972,
				"z": 1.4547236026,
				"element": "C" 
			},
			{
				"x": -1.5102001896,
				"y": 0.4187476454,
				"z": 1.1121147577,
				"element": "C" 
			},
			{
				"x": -1.4355480925,
				"y": -0.5307962088,
				"z": 0.1205473206,
				"element": "C" 
			},
			{
				"x": -2.7309323885,
				"y": -1.4568306741,
				"z": -0.8252525857,
				"element": "Br" 
			},
			{
				"x": -0.1452641963,
				"y": -0.7898703083,
				"z": -0.1697809265,
				"element": "O" 
			},
			{
				"x": -3.0529181039,
				"y": 1.0219879554,
				"z": 1.7656075512,
				"element": "S" 
			},
			{
				"x": -2.339429587,
				"y": 2.403338747,
				"z": 3.1963245704,
				"element": "Cl" 
			},
			{
				"x": -3.7403318875,
				"y": 1.7874966558,
				"z": 0.7371093139,
				"element": "O" 
			},
			{
				"x": -3.7130050319,
				"y": -0.0487890828,
				"z": 2.4964148678,
				"element": "O" 
			},
			{
				"x": 1.8515639389,
				"y": -1.3985286675,
				"z": -0.8351131152,
				"element": "H" 
			},
			{
				"x": 0.1629412897,
				"y": 1.4798942526,
				"z": 2.1927401709,
				"element": "H" 
			}
		],
		 "valence_orbital": [ 
			{
				"type": "occ",
				"energy": -0.34501,
				"method": "rhf"
			},
			{
				"type": "occ",
				"energy": -0.3353,
				"method": "rhf"
			},
			{
				"type": "occ",
				"energy": -0.33298,
				"method": "rhf"
			},
			{
				"type": "occ",
				"energy": -0.30588,
				"method": "rhf"
			},
			{
				"type": "occ",
				"energy": -0.28156,
				"method": "rhf"
			},
			{
				"type": "unocc",
				"energy": -0.10016,
				"method": "rhf"
			},
			{
				"type": "unocc",
				"energy": -0.0883,
				"method": "rhf"
			},
			{
				"type": "unocc",
				"energy": -0.04005,
				"method": "rhf"
			},
			{
				"type": "unocc",
				"energy": -0.03915,
				"method": "rhf"
			},
			{
				"type": "unocc",
				"energy": 0.01527,
				"method": "rhf"
			}
		],
		"cosmo_sigma_profile": { 
			"-0.025": 0.0,
			"-0.024": 0.0,
			"-0.023": 0.0,
			"-0.022": 0.0,
			"-0.021": 0.0,
			"-0.02": 0.0,
			"-0.019": 0.00407425821329,
			"-0.018": 0.492163571585,
			"-0.017": 0.650238788218,
			"-0.016": 1.04943071872,
			"-0.015": 1.24396620865,
			"-0.014": 0.307941064613,
			"-0.013": 1.22995157864,
			"-0.012": 1.45715243151,
			"-0.011": 1.18121921768,
			"-0.01": 2.2008188283,
			"-0.009": 3.54917162501,
			"-0.008": 4.27893670274,
			"-0.007": 6.11397888849,
			"-0.006": 8.53377583,
			"-0.005": 12.6924441225,
			"-0.004": 13.3978740406,
			"-0.003": 16.8725053454,
			"-0.002": 17.5180932918,
			"-0.001": 17.7629070423,
			"0.0": 18.9748053125,
			"0.001": 17.3733122082,
			"0.002": 13.2935989499,
			"0.003": 8.32457121748,
			"0.004": 4.03663233751,
			"0.005": 5.00252137778,
			"0.006": 7.05481016664,
			"0.007": 13.3591369934,
			"0.008": 11.4270937511,
			"0.009": 5.78972683663,
			"0.01": 4.2934909831,
			"0.011": 5.06996203867,
			"0.012": 1.43529504095,
			"0.013": 0.0392894910806,
			"0.014": 0.0,
			"0.015": 0.0,
			"0.016": 0.0,
			"0.017": 0.0,
			"0.018": 0.0,
			"0.019": 0.0,
			"0.02": 0.0,
			"0.021": 0.0,
			"0.022": 0.0,
			"0.023": 0.0,
			"0.024": 0.0,
			"0.025": 0.0
		}
	}
}
