{
	 "smiles": "CC(C)C1=CC(=C(C)C(CN(CC(O)=O)CC(O)=O)=C1O)C1(OC(=O)C2=CC=CC=C12)C1=CC(C(C)C)=C(O)C(CN(CC(O)=O)CC(O)=O)=C1C", 
	 "Tm": 464.15, 
	 "num_atms": 96, 
	 "gaussian": { 
		 "optdone": 1, 
		 "sigma_profile": "yes", 
		 "theory": "DFT", 
		 "functional": "B3LYP", 
		 "basiset": "6-31G**", 
		 "properties": { 
			 "R2extent": 34389.6911, 
			 "electric_dipole_moment_norm": 9.72137000633, 
			 "electric_quadrupole_moment_norm": 34.2370669451, 
			 "total_energy": -2486.81766183, 
			 "HOMO_LUMO_gap": 0.15864, 
			 "cosmo_polarized_energy": -49.36, 
			 "cosmo_cavitation_energy": 92.51, 
			 "cosmo_dispersion_energy": -53.21, 
			 "cosmo_repulsion_energy": 4.0, 
			 "cosmo_total_nonelectrostatic_energy": 43.3, 
			 "SMD_solvation_energy": 20.36 
		},
		"coords": [
			{
				"x": 3.1688942751,
				"y": -5.211138449,
				"z": 1.5491711813,
				"element": "C" 
			},
			{
				"x": 3.4587368129,
				"y": -3.7080572152,
				"z": 1.3496694973,
				"element": "C" 
			},
			{
				"x": 4.6362530642,
				"y": -3.5067942567,
				"z": 0.3857297277,
				"element": "C" 
			},
			{
				"x": 2.1921399378,
				"y": -2.966564168,
				"z": 0.9444731082,
				"element": "C" 
			},
			{
				"x": 1.9271008768,
				"y": -2.5506794914,
				"z": -0.3585781589,
				"element": "C" 
			},
			{
				"x": 0.7647152774,
				"y": -1.8583178293,
				"z": -0.7295575392,
				"element": "C" 
			},
			{
				"x": -0.2500264197,
				"y": -1.6614302292,
				"z": 0.2343854661,
				"element": "C" 
			},
			{
				"x": -1.6063333002,
				"y": -1.0728984728,
				"z": -0.1112994576,
				"element": "C" 
			},
			{
				"x": -0.001141009,
				"y": -2.0653660517,
				"z": 1.564454041,
				"element": "C" 
			},
			{
				"x": -1.0206421788,
				"y": -1.8876585684,
				"z": 2.6730807624,
				"element": "C" 
			},
			{
				"x": -0.4761001984,
				"y": -1.0670232076,
				"z": 3.7902047362,
				"element": "N" 
			},
			{
				"x": -0.1595311034,
				"y": 0.2857309803,
				"z": 3.336728475,
				"element": "C" 
			},
			{
				"x": 0.8593965622,
				"y": 1.0610807679,
				"z": 4.1512948633,
				"element": "C" 
			},
			{
				"x": 1.3562779968,
				"y": 0.3928810358,
				"z": 5.2100310072,
				"element": "O" 
			},
			{
				"x": 1.2017313162,
				"y": 2.1904914917,
				"z": 3.8647771448,
				"element": "O" 
			},
			{
				"x": -1.3730975713,
				"y": -1.0563909887,
				"z": 4.9430823676,
				"element": "C" 
			},
			{
				"x": -1.4581146816,
				"y": -2.3692874916,
				"z": 5.707190803,
				"element": "C" 
			},
			{
				"x": -0.3384261827,
				"y": -3.1168202679,
				"z": 5.5940970377,
				"element": "O" 
			},
			{
				"x": -2.4062847634,
				"y": -2.6906992462,
				"z": 6.3851785871,
				"element": "O" 
			},
			{
				"x": 1.2230451367,
				"y": -2.6690787935,
				"z": 1.9177742984,
				"element": "C" 
			},
			{
				"x": 1.494964574,
				"y": -3.0078355639,
				"z": 3.2068323392,
				"element": "O" 
			},
			{
				"x": 0.6123218791,
				"y": -1.3487007918,
				"z": -2.1760342044,
				"element": "C" 
			},
			{
				"x": -0.4940054405,
				"y": -2.14101911,
				"z": -2.7424776052,
				"element": "O" 
			},
			{
				"x": -0.0973659748,
				"y": -2.9255034308,
				"z": -3.794925937,
				"element": "C" 
			},
			{
				"x": -0.8480187707,
				"y": -3.6810154831,
				"z": -4.3625981258,
				"element": "O" 
			},
			{
				"x": 1.3255130819,
				"y": -2.6300194505,
				"z": -4.0516155879,
				"element": "C" 
			},
			{
				"x": 2.140757647,
				"y": -3.125062045,
				"z": -5.067724865,
				"element": "C" 
			},
			{
				"x": 3.4502063705,
				"y": -2.6543830954,
				"z": -5.1364189884,
				"element": "C" 
			},
			{
				"x": 3.9063859683,
				"y": -1.7056796165,
				"z": -4.2090570104,
				"element": "C" 
			},
			{
				"x": 3.075626513,
				"y": -1.2148333593,
				"z": -3.1975188991,
				"element": "C" 
			},
			{
				"x": 1.7693866341,
				"y": -1.6995032011,
				"z": -3.1180571638,
				"element": "C" 
			},
			{
				"x": 0.2578412566,
				"y": 0.1569914634,
				"z": -2.3204497389,
				"element": "C" 
			},
			{
				"x": -0.7126795582,
				"y": 0.4965820458,
				"z": -3.276668629,
				"element": "C" 
			},
			{
				"x": -1.147750027,
				"y": 1.7949157583,
				"z": -3.517715414,
				"element": "C" 
			},
			{
				"x": -2.2163819809,
				"y": 2.0517759032,
				"z": -4.5739673851,
				"element": "C" 
			},
			{
				"x": -3.5231843021,
				"y": 2.6052207285,
				"z": -3.9714460096,
				"element": "C" 
			},
			{
				"x": -1.7080293024,
				"y": 2.9398307342,
				"z": -5.7269627636,
				"element": "C" 
			},
			{
				"x": -0.5750860772,
				"y": 2.8230445664,
				"z": -2.7414626754,
				"element": "C" 
			},
			{
				"x": -1.0153691008,
				"y": 4.0836784675,
				"z": -2.9691267895,
				"element": "O" 
			},
			{
				"x": 0.4323791395,
				"y": 2.5295323105,
				"z": -1.7994015447,
				"element": "C" 
			},
			{
				"x": 1.0159812319,
				"y": 3.6978867173,
				"z": -1.0276081798,
				"element": "C" 
			},
			{
				"x": 0.0074878527,
				"y": 4.3432560602,
				"z": -0.1515473288,
				"element": "N" 
			},
			{
				"x": -0.4806168893,
				"y": 3.4428484252,
				"z": 0.8848638745,
				"element": "C" 
			},
			{
				"x": -1.7978732607,
				"y": 3.8857413348,
				"z": 1.4930404516,
				"element": "C" 
			},
			{
				"x": -2.4013930071,
				"y": 2.8490115174,
				"z": 2.1290237755,
				"element": "O" 
			},
			{
				"x": -2.2742928776,
				"y": 4.9984162066,
				"z": 1.476513361,
				"element": "O" 
			},
			{
				"x": 0.4498650502,
				"y": 5.6288224949,
				"z": 0.3505521472,
				"element": "C" 
			},
			{
				"x": 0.3709104656,
				"y": 6.7100656997,
				"z": -0.7246217374,
				"element": "C" 
			},
			{
				"x": 0.828564279,
				"y": 7.9260468901,
				"z": -0.3528772543,
				"element": "O" 
			},
			{
				"x": -0.0646030145,
				"y": 6.5425170254,
				"z": -1.8395890337,
				"element": "O" 
			},
			{
				"x": 0.8725386753,
				"y": 1.197914456,
				"z": -1.5917372904,
				"element": "C" 
			},
			{
				"x": 2.0183989006,
				"y": 0.9736428572,
				"z": -0.6181637201,
				"element": "C" 
			},
			{
				"x": 2.8522074362,
				"y": -5.6738126154,
				"z": 0.6075744925,
				"element": "H" 
			},
			{
				"x": 4.0660745695,
				"y": -5.7345748417,
				"z": 1.898700311,
				"element": "H" 
			},
			{
				"x": 2.3778930225,
				"y": -5.3615422382,
				"z": 2.288250913,
				"element": "H" 
			},
			{
				"x": 3.751081848,
				"y": -3.3069824637,
				"z": 2.3279678242,
				"element": "H" 
			},
			{
				"x": 4.851396521,
				"y": -2.4455437321,
				"z": 0.2217554705,
				"element": "H" 
			},
			{
				"x": 5.5379585182,
				"y": -3.9732400799,
				"z": 0.7957171026,
				"element": "H" 
			},
			{
				"x": 4.4507733885,
				"y": -3.9685929576,
				"z": -0.5906278906,
				"element": "H" 
			},
			{
				"x": 2.6779512179,
				"y": -2.7397708988,
				"z": -1.1147513423,
				"element": "H" 
			},
			{
				"x": -1.7984657688,
				"y": -0.1344972673,
				"z": 0.4232193607,
				"element": "H" 
			},
			{
				"x": -1.7146735928,
				"y": -0.8760844865,
				"z": -1.172190695,
				"element": "H" 
			},
			{
				"x": -2.4048312077,
				"y": -1.7706451686,
				"z": 0.1635352045,
				"element": "H" 
			},
			{
				"x": -1.2638217305,
				"y": -2.8683075602,
				"z": 3.0991759324,
				"element": "H" 
			},
			{
				"x": -1.9580291805,
				"y": -1.4585549125,
				"z": 2.298555513,
				"element": "H" 
			},
			{
				"x": 0.2715484737,
				"y": 0.2134656075,
				"z": 2.3335345955,
				"element": "H" 
			},
			{
				"x": -1.046722677,
				"y": 0.9337449435,
				"z": 3.2398450411,
				"element": "H" 
			},
			{
				"x": 2.0012980821,
				"y": 0.9876626236,
				"z": 5.6303242176,
				"element": "H" 
			},
			{
				"x": -2.4064139048,
				"y": -0.7720787438,
				"z": 4.6874249743,
				"element": "H" 
			},
			{
				"x": -1.0025980091,
				"y": -0.3218004596,
				"z": 5.666316996,
				"element": "H" 
			},
			{
				"x": -0.4814328469,
				"y": -3.9187523854,
				"z": 6.1248631922,
				"element": "H" 
			},
			{
				"x": 0.9444010415,
				"y": -2.4575222878,
				"z": 3.8021491795,
				"element": "H" 
			},
			{
				"x": 1.749136514,
				"y": -3.8475875296,
				"z": -5.7768214433,
				"element": "H" 
			},
			{
				"x": 4.1194772422,
				"y": -3.012765116,
				"z": -5.9125907946,
				"element": "H" 
			},
			{
				"x": 4.9263674006,
				"y": -1.338790592,
				"z": -4.2810678349,
				"element": "H" 
			},
			{
				"x": 3.4504687522,
				"y": -0.4742757372,
				"z": -2.5002667357,
				"element": "H" 
			},
			{
				"x": -1.1790854322,
				"y": -0.2999838871,
				"z": -3.8440114477,
				"element": "H" 
			},
			{
				"x": -2.4523870555,
				"y": 1.0696866332,
				"z": -5.0047167012,
				"element": "H" 
			},
			{
				"x": -3.3650730517,
				"y": 3.5924162678,
				"z": -3.5318297074,
				"element": "H" 
			},
			{
				"x": -4.2900512162,
				"y": 2.6931033712,
				"z": -4.7493167509,
				"element": "H" 
			},
			{
				"x": -3.9091714779,
				"y": 1.9385456882,
				"z": -3.1929369142,
				"element": "H" 
			},
			{
				"x": -1.4654994908,
				"y": 3.9439287552,
				"z": -5.3722799086,
				"element": "H" 
			},
			{
				"x": -2.4757738813,
				"y": 3.0246666219,
				"z": -6.5043576668,
				"element": "H" 
			},
			{
				"x": -0.8106606544,
				"y": 2.5114129309,
				"z": -6.1857211778,
				"element": "H" 
			},
			{
				"x": -0.7250486742,
				"y": 4.7274423752,
				"z": -2.2945918545,
				"element": "H" 
			},
			{
				"x": 1.9011746048,
				"y": 3.4012798692,
				"z": -0.449262428,
				"element": "H" 
			},
			{
				"x": 1.3476353421,
				"y": 4.4654369206,
				"z": -1.7350566376,
				"element": "H" 
			},
			{
				"x": 0.2262522125,
				"y": 3.2874782785,
				"z": 1.7225062864,
				"element": "H" 
			},
			{
				"x": -0.6435633517,
				"y": 2.4621237875,
				"z": 0.4313637753,
				"element": "H" 
			},
			{
				"x": -3.2148622281,
				"y": 3.2085346489,
				"z": 2.5224784762,
				"element": "H" 
			},
			{
				"x": 1.4812659182,
				"y": 5.6118209735,
				"z": 0.7585856648,
				"element": "H" 
			},
			{
				"x": -0.2198923059,
				"y": 5.9417746354,
				"z": 1.1572525975,
				"element": "H" 
			},
			{
				"x": 1.1353748114,
				"y": 7.9071679345,
				"z": 0.5658173988,
				"element": "H" 
			},
			{
				"x": 1.7765248565,
				"y": 1.3233627884,
				"z": 0.392463207,
				"element": "H" 
			},
			{
				"x": 2.9118594717,
				"y": 1.5249892477,
				"z": -0.9338573802,
				"element": "H" 
			},
			{
				"x": 2.2935627095,
				"y": -0.0718050047,
				"z": -0.5263624312,
				"element": "H" 
			}
		],
		 "valence_orbital": [ 
			{
				"type": "occ",
				"energy": -0.24303,
				"method": "rhf"
			},
			{
				"type": "occ",
				"energy": -0.24009,
				"method": "rhf"
			},
			{
				"type": "occ",
				"energy": -0.23297,
				"method": "rhf"
			},
			{
				"type": "occ",
				"energy": -0.21493,
				"method": "rhf"
			},
			{
				"type": "occ",
				"energy": -0.20439,
				"method": "rhf"
			},
			{
				"type": "unocc",
				"energy": -0.04575,
				"method": "rhf"
			},
			{
				"type": "unocc",
				"energy": -0.02372,
				"method": "rhf"
			},
			{
				"type": "unocc",
				"energy": -0.01995,
				"method": "rhf"
			},
			{
				"type": "unocc",
				"energy": -0.0109,
				"method": "rhf"
			},
			{
				"type": "unocc",
				"energy": -0.00877,
				"method": "rhf"
			}
		],
		"cosmo_sigma_profile": { 
			"-0.025": 0.0,
			"-0.024": 0.0,
			"-0.023": 0.0,
			"-0.022": 0.0,
			"-0.021": 0.0111896528059,
			"-0.02": 0.618265813869,
			"-0.019": 1.69278601916,
			"-0.018": 4.08558234209,
			"-0.017": 4.28016860806,
			"-0.016": 3.10234174799,
			"-0.015": 2.96230931159,
			"-0.014": 4.03517363969,
			"-0.013": 2.89108714605,
			"-0.012": 2.95853072328,
			"-0.011": 3.6880835034,
			"-0.01": 3.15888947677,
			"-0.009": 3.36919595795,
			"-0.008": 5.6359952933,
			"-0.007": 15.3230142687,
			"-0.006": 27.5016621322,
			"-0.005": 38.2079501582,
			"-0.004": 45.1918904713,
			"-0.003": 49.6693647502,
			"-0.002": 60.8764487229,
			"-0.001": 60.6946991989,
			"0.0": 63.3558226977,
			"0.001": 65.9262882511,
			"0.002": 53.4762960475,
			"0.003": 39.7036890162,
			"0.004": 29.6007519802,
			"0.005": 25.0241157284,
			"0.006": 18.4170662329,
			"0.007": 16.4445627754,
			"0.008": 15.169530085,
			"0.009": 14.131848488,
			"0.01": 15.1752853199,
			"0.011": 17.7978660221,
			"0.012": 12.4164228618,
			"0.013": 1.87102180406,
			"0.014": 0.0376115583787,
			"0.015": 0.0,
			"0.016": 0.0,
			"0.017": 0.0,
			"0.018": 0.0,
			"0.019": 0.0,
			"0.02": 0.0,
			"0.021": 0.0,
			"0.022": 0.0,
			"0.023": 0.0,
			"0.024": 0.0,
			"0.025": 0.0
		}
	}
}
