{
	 "smiles": "CC1CCC2=C(C1)SC1=C2C(=O)NC(CCC(O)=O)=N1", 
	 "Tm": 533.15, 
	 "num_atms": 36, 
	 "gaussian": { 
		 "optdone": 1, 
		 "sigma_profile": "yes", 
		 "theory": "DFT", 
		 "functional": "B3LYP", 
		 "basiset": "6-31G**", 
		 "properties": { 
			 "R2extent": 8165.4773, 
			 "electric_dipole_moment_norm": 2.27724130693, 
			 "electric_quadrupole_moment_norm": 21.1332961506, 
			 "total_energy": -1276.56343499, 
			 "HOMO_LUMO_gap": 0.16943, 
			 "cosmo_polarized_energy": -18.78, 
			 "cosmo_cavitation_energy": 40.19, 
			 "cosmo_dispersion_energy": -29.22, 
			 "cosmo_repulsion_energy": 2.23, 
			 "cosmo_total_nonelectrostatic_energy": 13.2, 
			 "SMD_solvation_energy": 5.81 
		},
		"coords": [
			{
				"x": -3.9500869623,
				"y": -3.0505875404,
				"z": -2.3498607168,
				"element": "C" 
			},
			{
				"x": -3.217646911,
				"y": -2.1556649531,
				"z": -1.3448970029,
				"element": "C" 
			},
			{
				"x": -3.8867533577,
				"y": -0.7769414907,
				"z": -1.2008942317,
				"element": "C" 
			},
			{
				"x": -3.2470314332,
				"y": 0.0689393635,
				"z": -0.0881809791,
				"element": "C" 
			},
			{
				"x": -1.7405999726,
				"y": 0.0227980532,
				"z": -0.1620857558,
				"element": "C" 
			},
			{
				"x": -1.0784936153,
				"y": -0.9179036995,
				"z": -0.9032665538,
				"element": "C" 
			},
			{
				"x": -1.7325643779,
				"y": -1.9865972907,
				"z": -1.7339975327,
				"element": "C" 
			},
			{
				"x": 0.670047644,
				"y": -0.7461840284,
				"z": -0.8044558781,
				"element": "S" 
			},
			{
				"x": 0.5071619914,
				"y": 0.6256162724,
				"z": 0.2650804891,
				"element": "C" 
			},
			{
				"x": -0.8335542529,
				"y": 0.910446133,
				"z": 0.51236272,
				"element": "C" 
			},
			{
				"x": -1.1431191324,
				"y": 2.0255589074,
				"z": 1.3842427272,
				"element": "C" 
			},
			{
				"x": -2.2419888197,
				"y": 2.4446027547,
				"z": 1.7282746042,
				"element": "O" 
			},
			{
				"x": 0.0355986114,
				"y": 2.6566772883,
				"z": 1.855353676,
				"element": "N" 
			},
			{
				"x": 1.3184484846,
				"y": 2.2911837046,
				"z": 1.5481863221,
				"element": "C" 
			},
			{
				"x": 2.4298959597,
				"y": 3.1408094805,
				"z": 2.1217944824,
				"element": "C" 
			},
			{
				"x": 3.7561795121,
				"y": 2.3912452773,
				"z": 2.2270483311,
				"element": "C" 
			},
			{
				"x": 3.7204783002,
				"y": 1.3384456559,
				"z": 3.3146532094,
				"element": "C" 
			},
			{
				"x": 4.8315767957,
				"y": 0.5692214982,
				"z": 3.2996951683,
				"element": "O" 
			},
			{
				"x": 2.8305667248,
				"y": 1.1928859016,
				"z": 4.1246919062,
				"element": "O" 
			},
			{
				"x": 1.5904683165,
				"y": 1.289660964,
				"z": 0.7583853281,
				"element": "N" 
			},
			{
				"x": -3.9752663883,
				"y": -2.5866512176,
				"z": -3.3433349591,
				"element": "H" 
			},
			{
				"x": -3.4597332495,
				"y": -4.0253382009,
				"z": -2.4502015552,
				"element": "H" 
			},
			{
				"x": -4.985206042,
				"y": -3.2274972996,
				"z": -2.0391651767,
				"element": "H" 
			},
			{
				"x": -3.2465538079,
				"y": -2.645085966,
				"z": -0.3602081894,
				"element": "H" 
			},
			{
				"x": -4.95727278,
				"y": -0.9009257901,
				"z": -0.999591607,
				"element": "H" 
			},
			{
				"x": -3.8080159114,
				"y": -0.2444984638,
				"z": -2.1593792639,
				"element": "H" 
			},
			{
				"x": -3.5690910857,
				"y": -0.2976808051,
				"z": 0.8963839624,
				"element": "H" 
			},
			{
				"x": -3.5892062194,
				"y": 1.1069881454,
				"z": -0.1334115233,
				"element": "H" 
			},
			{
				"x": -1.2068045265,
				"y": -2.9433423241,
				"z": -1.6213877733,
				"element": "H" 
			},
			{
				"x": -1.6633971263,
				"y": -1.7261652095,
				"z": -2.8013935208,
				"element": "H" 
			},
			{
				"x": -0.1316938743,
				"y": 3.4251527701,
				"z": 2.4942845419,
				"element": "H" 
			},
			{
				"x": 2.1312596155,
				"y": 3.5030382759,
				"z": 3.1108697251,
				"element": "H" 
			},
			{
				"x": 2.5585713072,
				"y": 4.0208690095,
				"z": 1.4781984349,
				"element": "H" 
			},
			{
				"x": 4.5732059492,
				"y": 3.0851607636,
				"z": 2.4567756558,
				"element": "H" 
			},
			{
				"x": 4.0043105732,
				"y": 1.9042540533,
				"z": 1.2807604889,
				"element": "H" 
			},
			{
				"x": 4.7315100609,
				"y": -0.0682899928,
				"z": 4.0266704468,
				"element": "H" 
			}
		],
		 "valence_orbital": [ 
			{
				"type": "occ",
				"energy": -0.28297,
				"method": "rhf"
			},
			{
				"type": "occ",
				"energy": -0.28067,
				"method": "rhf"
			},
			{
				"type": "occ",
				"energy": -0.25634,
				"method": "rhf"
			},
			{
				"type": "occ",
				"energy": -0.24765,
				"method": "rhf"
			},
			{
				"type": "occ",
				"energy": -0.2075,
				"method": "rhf"
			},
			{
				"type": "unocc",
				"energy": -0.03807,
				"method": "rhf"
			},
			{
				"type": "unocc",
				"energy": -0.00238,
				"method": "rhf"
			},
			{
				"type": "unocc",
				"energy": 0.00668,
				"method": "rhf"
			},
			{
				"type": "unocc",
				"energy": 0.02441,
				"method": "rhf"
			},
			{
				"type": "unocc",
				"energy": 0.03368,
				"method": "rhf"
			}
		],
		"cosmo_sigma_profile": { 
			"-0.025": 0.0,
			"-0.024": 0.0,
			"-0.023": 0.0,
			"-0.022": 0.0,
			"-0.021": 0.0,
			"-0.02": 0.0,
			"-0.019": 0.0,
			"-0.018": 0.693220932628,
			"-0.017": 1.03801383042,
			"-0.016": 1.75892196233,
			"-0.015": 1.7265612182,
			"-0.014": 1.93794961374,
			"-0.013": 2.00646041111,
			"-0.012": 1.53572669421,
			"-0.011": 2.26478089613,
			"-0.01": 1.94756588839,
			"-0.009": 1.22035710722,
			"-0.008": 2.09545007309,
			"-0.007": 7.04957789385,
			"-0.006": 8.66424140993,
			"-0.005": 10.7085127904,
			"-0.004": 15.5754903452,
			"-0.003": 28.0665764992,
			"-0.002": 39.2805174733,
			"-0.001": 32.0846190956,
			"0.0": 26.2683655959,
			"0.001": 27.5036042189,
			"0.002": 23.1606775995,
			"0.003": 16.7280230221,
			"0.004": 13.0529726736,
			"0.005": 7.31006074757,
			"0.006": 5.96335699192,
			"0.007": 5.053644186,
			"0.008": 5.16610244042,
			"0.009": 6.30905162381,
			"0.01": 4.66278240612,
			"0.011": 4.56211277347,
			"0.012": 6.17549191258,
			"0.013": 5.188643452,
			"0.014": 1.36625982728,
			"0.015": 0.0,
			"0.016": 0.0,
			"0.017": 0.0,
			"0.018": 0.0,
			"0.019": 0.0,
			"0.02": 0.0,
			"0.021": 0.0,
			"0.022": 0.0,
			"0.023": 0.0,
			"0.024": 0.0,
			"0.025": 0.0
		}
	}
}
