{
	 "smiles": "COC1=CC2=C(C=C1OC)C(N)=NC(=N2)N1CCN(CC1)C(=O)C1=CC=CO1", 
	 "Tm": 558.15, 
	 "num_atms": 49, 
	 "gaussian": { 
		 "optdone": 1, 
		 "sigma_profile": "yes", 
		 "theory": "DFT", 
		 "functional": "B3LYP", 
		 "basiset": "6-31G**", 
		 "properties": { 
			 "R2extent": 18520.1015, 
			 "electric_dipole_moment_norm": 3.84161401237, 
			 "electric_quadrupole_moment_norm": 28.23412366, 
			 "total_energy": -1311.30986193, 
			 "HOMO_LUMO_gap": 0.15349, 
			 "cosmo_polarized_energy": -22.02, 
			 "cosmo_cavitation_energy": 51.86, 
			 "cosmo_dispersion_energy": -37.35, 
			 "cosmo_repulsion_energy": 2.8, 
			 "cosmo_total_nonelectrostatic_energy": 17.31, 
			 "SMD_solvation_energy": 7.73 
		},
		"coords": [
			{
				"x": -3.9022909745,
				"y": 4.5284242427,
				"z": 3.4370984292,
				"element": "C" 
			},
			{
				"x": -4.1006787505,
				"y": 3.9696392533,
				"z": 2.1322081808,
				"element": "O" 
			},
			{
				"x": -3.8605800797,
				"y": 2.6194837642,
				"z": 2.0339559806,
				"element": "C" 
			},
			{
				"x": -2.8008344739,
				"y": 2.1815440586,
				"z": 1.2686918565,
				"element": "C" 
			},
			{
				"x": -2.5341912071,
				"y": 0.7964495384,
				"z": 1.1091915883,
				"element": "C" 
			},
			{
				"x": -3.3753972153,
				"y": -0.1328116043,
				"z": 1.7875004582,
				"element": "C" 
			},
			{
				"x": -4.4777187689,
				"y": 0.3311875293,
				"z": 2.5407086421,
				"element": "C" 
			},
			{
				"x": -4.7307253895,
				"y": 1.6804727861,
				"z": 2.6670051323,
				"element": "C" 
			},
			{
				"x": -5.8014957967,
				"y": 2.1050259489,
				"z": 3.4252159619,
				"element": "O" 
			},
			{
				"x": -6.8832003531,
				"y": 2.6622030393,
				"z": 2.668122157,
				"element": "C" 
			},
			{
				"x": -3.0132807148,
				"y": -1.5144073578,
				"z": 1.6201943237,
				"element": "C" 
			},
			{
				"x": -3.7356008288,
				"y": -2.5126149413,
				"z": 2.2212311044,
				"element": "N" 
			},
			{
				"x": -1.9957039447,
				"y": -1.8887563129,
				"z": 0.8645798257,
				"element": "N" 
			},
			{
				"x": -1.2885172261,
				"y": -0.9053090029,
				"z": 0.2352616002,
				"element": "C" 
			},
			{
				"x": -1.4920681376,
				"y": 0.4058046264,
				"z": 0.3288202603,
				"element": "N" 
			},
			{
				"x": -0.2609375877,
				"y": -1.3474511437,
				"z": -0.5570394232,
				"element": "N" 
			},
			{
				"x": 0.6281763343,
				"y": -0.4124289057,
				"z": -1.2340944008,
				"element": "C" 
			},
			{
				"x": 2.0802111209,
				"y": -0.882035183,
				"z": -1.1487110934,
				"element": "C" 
			},
			{
				"x": 2.2134942597,
				"y": -2.2387235397,
				"z": -1.7055526348,
				"element": "N" 
			},
			{
				"x": 0.9741755788,
				"y": -3.0050019013,
				"z": -1.8760878935,
				"element": "C" 
			},
			{
				"x": 0.0202592073,
				"y": -2.7762908083,
				"z": -0.7073986835,
				"element": "C" 
			},
			{
				"x": 3.3727331956,
				"y": -2.8243984181,
				"z": -2.1489209383,
				"element": "C" 
			},
			{
				"x": 3.3710759259,
				"y": -3.9131761866,
				"z": -2.730622352,
				"element": "O" 
			},
			{
				"x": 4.6842126829,
				"y": -2.1707514011,
				"z": -1.9308847192,
				"element": "C" 
			},
			{
				"x": 5.8976837884,
				"y": -2.5716856627,
				"z": -2.4224562052,
				"element": "C" 
			},
			{
				"x": 6.8700121188,
				"y": -1.664088311,
				"z": -1.9077064538,
				"element": "C" 
			},
			{
				"x": 6.1840935082,
				"y": -0.7750062414,
				"z": -1.1333355104,
				"element": "C" 
			},
			{
				"x": 4.8556785569,
				"y": -1.0638836539,
				"z": -1.1338634812,
				"element": "O" 
			},
			{
				"x": -4.5560986536,
				"y": 4.0576341267,
				"z": 4.1772071043,
				"element": "H" 
			},
			{
				"x": -4.1427027144,
				"y": 5.5900878534,
				"z": 3.352755649,
				"element": "H" 
			},
			{
				"x": -2.8558313056,
				"y": 4.4182947912,
				"z": 3.7478562908,
				"element": "H" 
			},
			{
				"x": -2.1575137922,
				"y": 2.90192612,
				"z": 0.7762344555,
				"element": "H" 
			},
			{
				"x": -5.170046464,
				"y": -0.3539081442,
				"z": 3.0206803689,
				"element": "H" 
			},
			{
				"x": -6.5597326386,
				"y": 3.5383448105,
				"z": 2.097415143,
				"element": "H" 
			},
			{
				"x": -7.3021439753,
				"y": 1.9145673376,
				"z": 1.9827399349,
				"element": "H" 
			},
			{
				"x": -7.6459089656,
				"y": 2.955291952,
				"z": 3.3927462186,
				"element": "H" 
			},
			{
				"x": -4.2423030924,
				"y": -2.3011298197,
				"z": 3.0660055167,
				"element": "H" 
			},
			{
				"x": -3.3030220204,
				"y": -3.4244663046,
				"z": 2.1827554662,
				"element": "H" 
			},
			{
				"x": 0.5250249659,
				"y": 0.5599086706,
				"z": -0.7522802096,
				"element": "H" 
			},
			{
				"x": 0.3373928718,
				"y": -0.2847198505,
				"z": -2.287301592,
				"element": "H" 
			},
			{
				"x": 2.4110704098,
				"y": -0.8583472102,
				"z": -0.103288647,
				"element": "H" 
			},
			{
				"x": 2.7092763212,
				"y": -0.1848791472,
				"z": -1.7065098965,
				"element": "H" 
			},
			{
				"x": 0.4847402265,
				"y": -2.7386949813,
				"z": -2.8231912415,
				"element": "H" 
			},
			{
				"x": 1.2451842417,
				"y": -4.0587687789,
				"z": -1.9436343667,
				"element": "H" 
			},
			{
				"x": -0.9115168726,
				"y": -3.3198773378,
				"z": -0.8860262317,
				"element": "H" 
			},
			{
				"x": 0.4550433718,
				"y": -3.1856809929,
				"z": 0.2152592034,
				"element": "H" 
			},
			{
				"x": 6.0498313038,
				"y": -3.4222394482,
				"z": -3.068799922,
				"element": "H" 
			},
			{
				"x": 7.9356222529,
				"y": -1.6712232834,
				"z": -2.0856920357,
				"element": "H" 
			},
			{
				"x": 6.4781497003,
				"y": 0.0790654251,
				"z": -0.5425429203,
				"element": "H" 
			}
		],
		 "valence_orbital": [ 
			{
				"type": "occ",
				"energy": -0.23762,
				"method": "rhf"
			},
			{
				"type": "occ",
				"energy": -0.2331,
				"method": "rhf"
			},
			{
				"type": "occ",
				"energy": -0.23204,
				"method": "rhf"
			},
			{
				"type": "occ",
				"energy": -0.23007,
				"method": "rhf"
			},
			{
				"type": "occ",
				"energy": -0.19048,
				"method": "rhf"
			},
			{
				"type": "unocc",
				"energy": -0.03699,
				"method": "rhf"
			},
			{
				"type": "unocc",
				"energy": -0.02681,
				"method": "rhf"
			},
			{
				"type": "unocc",
				"energy": -6e-05,
				"method": "rhf"
			},
			{
				"type": "unocc",
				"energy": 0.0385,
				"method": "rhf"
			},
			{
				"type": "unocc",
				"energy": 0.04717,
				"method": "rhf"
			}
		],
		"cosmo_sigma_profile": { 
			"-0.025": 0.0,
			"-0.024": 0.0,
			"-0.023": 0.0,
			"-0.022": 0.0,
			"-0.021": 0.0,
			"-0.02": 0.0,
			"-0.019": 0.0,
			"-0.018": 0.0,
			"-0.017": 0.0,
			"-0.016": 0.0,
			"-0.015": 0.286309703105,
			"-0.014": 1.12308590766,
			"-0.013": 2.90554015435,
			"-0.012": 1.8647512347,
			"-0.011": 2.01751771653,
			"-0.01": 3.28384464136,
			"-0.009": 4.80479843624,
			"-0.008": 4.53635156621,
			"-0.007": 6.84827589553,
			"-0.006": 9.93314029526,
			"-0.005": 27.8148224178,
			"-0.004": 40.2003468584,
			"-0.003": 38.6157381882,
			"-0.002": 35.5212049332,
			"-0.001": 27.2409470148,
			"0.0": 27.150053152,
			"0.001": 27.2993926001,
			"0.002": 29.2043555625,
			"0.003": 33.8826660585,
			"0.004": 20.4770898824,
			"0.005": 11.0527712899,
			"0.006": 9.09162510407,
			"0.007": 8.41378095476,
			"0.008": 7.86729599048,
			"0.009": 6.73016085532,
			"0.01": 5.93790727313,
			"0.011": 5.41580377243,
			"0.012": 3.78245037147,
			"0.013": 3.16992599384,
			"0.014": 5.13957811218,
			"0.015": 0.212226514678,
			"0.016": 0.0,
			"0.017": 0.0,
			"0.018": 0.0,
			"0.019": 0.0,
			"0.02": 0.0,
			"0.021": 0.0,
			"0.022": 0.0,
			"0.023": 0.0,
			"0.024": 0.0,
			"0.025": 0.0
		}
	}
}
