{
	 "smiles": "OC1=CC=C(Br)C=C1", 
	 "Tm": 337.65, 
	 "num_atms": 13, 
	 "gaussian": { 
		 "optdone": 1, 
		 "sigma_profile": "yes", 
		 "theory": "DFT", 
		 "functional": "B3LYP", 
		 "basiset": "6-31G**", 
		 "properties": { 
			 "R2extent": 3362.5981, 
			 "electric_dipole_moment_norm": 2.43039302583, 
			 "electric_quadrupole_moment_norm": 10.5322210744, 
			 "total_energy": -2878.27392392, 
			 "HOMO_LUMO_gap": 0.20667, 
			 "cosmo_polarized_energy": -8.4, 
			 "cosmo_cavitation_energy": 19.48, 
			 "cosmo_dispersion_energy": -15.14, 
			 "cosmo_repulsion_energy": 1.25, 
			 "cosmo_total_nonelectrostatic_energy": 5.6, 
			 "SMD_solvation_energy": 2.61 
		},
		"coords": [
			{
				"x": 1.3574199221,
				"y": 1.0068209692,
				"z": -1.1739627693,
				"element": "O" 
			},
			{
				"x": 0.5524645842,
				"y": -0.0834736593,
				"z": -1.0119454937,
				"element": "C" 
			},
			{
				"x": 1.0081071112,
				"y": -1.39511342,
				"z": -1.1826923117,
				"element": "C" 
			},
			{
				"x": 0.1366880825,
				"y": -2.469772043,
				"z": -1.0030216756,
				"element": "C" 
			},
			{
				"x": -1.1889705664,
				"y": -2.2272961422,
				"z": -0.6527436196,
				"element": "C" 
			},
			{
				"x": -2.3864973205,
				"y": -3.6984184303,
				"z": -0.4058982252,
				"element": "Br" 
			},
			{
				"x": -1.6528671638,
				"y": -0.9226538579,
				"z": -0.4801320629,
				"element": "C" 
			},
			{
				"x": -0.7823051894,
				"y": 0.1486062954,
				"z": -0.6597157201,
				"element": "C" 
			},
			{
				"x": 2.2463349104,
				"y": 0.7150507397,
				"z": -1.4142105138,
				"element": "H" 
			},
			{
				"x": 2.0441610653,
				"y": -1.5827321303,
				"z": -1.4564094612,
				"element": "H" 
			},
			{
				"x": 0.4901039263,
				"y": -3.485989837,
				"z": -1.1354615035,
				"element": "H" 
			},
			{
				"x": -2.6868520644,
				"y": -0.7443531301,
				"z": -0.2073810007,
				"element": "H" 
			},
			{
				"x": -1.1222872974,
				"y": 1.1706246457,
				"z": -0.5305256428,
				"element": "H" 
			}
		],
		 "valence_orbital": [ 
			{
				"type": "occ",
				"energy": -0.35337,
				"method": "rhf"
			},
			{
				"type": "occ",
				"energy": -0.29362,
				"method": "rhf"
			},
			{
				"type": "occ",
				"energy": -0.28368,
				"method": "rhf"
			},
			{
				"type": "occ",
				"energy": -0.26528,
				"method": "rhf"
			},
			{
				"type": "occ",
				"energy": -0.22213,
				"method": "rhf"
			},
			{
				"type": "unocc",
				"energy": -0.01546,
				"method": "rhf"
			},
			{
				"type": "unocc",
				"energy": 0.00021,
				"method": "rhf"
			},
			{
				"type": "unocc",
				"energy": 0.00965,
				"method": "rhf"
			},
			{
				"type": "unocc",
				"energy": 0.06399,
				"method": "rhf"
			},
			{
				"type": "unocc",
				"energy": 0.10745,
				"method": "rhf"
			}
		],
		"cosmo_sigma_profile": { 
			"-0.025": 0.0,
			"-0.024": 0.0,
			"-0.023": 0.0,
			"-0.022": 0.0,
			"-0.021": 0.0,
			"-0.02": 0.0,
			"-0.019": 0.00347240220732,
			"-0.018": 0.636296946929,
			"-0.017": 1.2303705597,
			"-0.016": 1.16070255889,
			"-0.015": 1.1051710573,
			"-0.014": 1.05901090213,
			"-0.013": 0.957443002208,
			"-0.012": 0.661703149972,
			"-0.011": 1.29948340592,
			"-0.01": 1.12786981043,
			"-0.009": 1.31510266486,
			"-0.008": 1.1761531396,
			"-0.007": 4.98873839132,
			"-0.006": 7.24565440223,
			"-0.005": 7.4649152764,
			"-0.004": 7.93359334351,
			"-0.003": 7.43696588738,
			"-0.002": 7.53079254236,
			"-0.001": 7.33910486809,
			"0.0": 8.26168056497,
			"0.001": 9.72212589218,
			"0.002": 13.9419630992,
			"0.003": 20.4449556603,
			"0.004": 22.1538962195,
			"0.005": 13.261377035,
			"0.006": 1.97334602916,
			"0.007": 1.50391718525,
			"0.008": 1.27669306683,
			"0.009": 1.18096372146,
			"0.01": 1.92482833473,
			"0.011": 1.75648649418,
			"0.012": 0.21057308872,
			"0.013": 0.0,
			"0.014": 0.0,
			"0.015": 0.0,
			"0.016": 0.0,
			"0.017": 0.0,
			"0.018": 0.0,
			"0.019": 0.0,
			"0.02": 0.0,
			"0.021": 0.0,
			"0.022": 0.0,
			"0.023": 0.0,
			"0.024": 0.0,
			"0.025": 0.0
		}
	}
}
