{
	 "smiles": "ClC1=C(Cl)C(=O)C1=O", 
	 "Tm": 323.15, 
	 "num_atms": 8, 
	 "gaussian": { 
		 "optdone": 1, 
		 "sigma_profile": "yes", 
		 "theory": "DFT", 
		 "functional": "B3LYP", 
		 "basiset": "6-31G**", 
		 "properties": { 
			 "R2extent": 1632.5732, 
			 "electric_dipole_moment_norm": 3.22388557644, 
			 "electric_quadrupole_moment_norm": 5.97663192526, 
			 "total_energy": -1223.17949448, 
			 "HOMO_LUMO_gap": 0.16502, 
			 "cosmo_polarized_energy": -7.5, 
			 "cosmo_cavitation_energy": 18.29, 
			 "cosmo_dispersion_energy": -13.32, 
			 "cosmo_repulsion_energy": 1.15, 
			 "cosmo_total_nonelectrostatic_energy": 6.12, 
			 "SMD_solvation_energy": 4.49 
		},
		"coords": [
			{
				"x": -2.1922316628,
				"y": 0.7219501395,
				"z": 1.7772230559,
				"element": "Cl" 
			},
			{
				"x": -1.1416159767,
				"y": -0.2610863314,
				"z": 0.8876146847,
				"element": "C" 
			},
			{
				"x": -0.9609416407,
				"y": -0.4808597213,
				"z": -0.4483819378,
				"element": "C" 
			},
			{
				"x": -1.7027428733,
				"y": 0.1266175516,
				"z": -1.8420310648,
				"element": "Cl" 
			},
			{
				"x": 0.1558682301,
				"y": -1.4762872035,
				"z": -0.2398748804,
				"element": "C" 
			},
			{
				"x": 0.859621933,
				"y": -2.1394366322,
				"z": -0.945178806,
				"element": "O" 
			},
			{
				"x": -0.0524102906,
				"y": -1.2231820856,
				"z": 1.2994573672,
				"element": "C" 
			},
			{
				"x": 0.415952281,
				"y": -1.6001157174,
				"z": 2.3343715812,
				"element": "O" 
			}
		],
		 "valence_orbital": [ 
			{
				"type": "occ",
				"energy": -0.37109,
				"method": "rhf"
			},
			{
				"type": "occ",
				"energy": -0.36985,
				"method": "rhf"
			},
			{
				"type": "occ",
				"energy": -0.343,
				"method": "rhf"
			},
			{
				"type": "occ",
				"energy": -0.30313,
				"method": "rhf"
			},
			{
				"type": "occ",
				"energy": -0.26399,
				"method": "rhf"
			},
			{
				"type": "unocc",
				"energy": -0.09897,
				"method": "rhf"
			},
			{
				"type": "unocc",
				"energy": -0.07959,
				"method": "rhf"
			},
			{
				"type": "unocc",
				"energy": -0.00689,
				"method": "rhf"
			},
			{
				"type": "unocc",
				"energy": 0.02085,
				"method": "rhf"
			},
			{
				"type": "unocc",
				"energy": 0.088,
				"method": "rhf"
			}
		],
		"cosmo_sigma_profile": { 
			"-0.025": 0.0,
			"-0.024": 0.0,
			"-0.023": 0.0,
			"-0.022": 0.0,
			"-0.021": 0.0,
			"-0.02": 0.0,
			"-0.019": 0.0,
			"-0.018": 0.0,
			"-0.017": 0.0,
			"-0.016": 0.0,
			"-0.015": 0.0,
			"-0.014": 0.0,
			"-0.013": 0.0,
			"-0.012": 0.0,
			"-0.011": 0.0,
			"-0.01": 1.05997754228,
			"-0.009": 2.3887002424,
			"-0.008": 3.16080980144,
			"-0.007": 4.88908109237,
			"-0.006": 9.75269628818,
			"-0.005": 9.02056379007,
			"-0.004": 9.28407923236,
			"-0.003": 9.20690399763,
			"-0.002": 10.2461988323,
			"-0.001": 15.2181882428,
			"0.0": 21.2676844343,
			"0.001": 17.0526793831,
			"0.002": 4.28595234349,
			"0.003": 2.69796224825,
			"0.004": 2.85189747685,
			"0.005": 2.95255306386,
			"0.006": 4.07075789073,
			"0.007": 4.57760591813,
			"0.008": 6.84950171899,
			"0.009": 10.2471826067,
			"0.01": 2.90300038576,
			"0.011": 0.0,
			"0.012": 0.0,
			"0.013": 0.0,
			"0.014": 0.0,
			"0.015": 0.0,
			"0.016": 0.0,
			"0.017": 0.0,
			"0.018": 0.0,
			"0.019": 0.0,
			"0.02": 0.0,
			"0.021": 0.0,
			"0.022": 0.0,
			"0.023": 0.0,
			"0.024": 0.0,
			"0.025": 0.0
		}
	}
}
