{
	 "smiles": "NC1=CC2=C(OCC(=O)N2)C=C1", 
	 "Tm": 489.15, 
	 "num_atms": 20, 
	 "gaussian": { 
		 "optdone": 1, 
		 "sigma_profile": "yes", 
		 "theory": "DFT", 
		 "functional": "B3LYP", 
		 "basiset": "6-31G**", 
		 "properties": { 
			 "R2extent": 2175.6005, 
			 "electric_dipole_moment_norm": 4.29943429884, 
			 "electric_quadrupole_moment_norm": 9.59893679946, 
			 "total_energy": -569.628494774, 
			 "HOMO_LUMO_gap": 0.17945, 
			 "cosmo_polarized_energy": -15.93, 
			 "cosmo_cavitation_energy": 23.96, 
			 "cosmo_dispersion_energy": -18.31, 
			 "cosmo_repulsion_energy": 1.46, 
			 "cosmo_total_nonelectrostatic_energy": 7.11, 
			 "SMD_solvation_energy": 4.82 
		},
		"coords": [
			{
				"x": -3.1270516924,
				"y": -0.4475446773,
				"z": -2.3974979033,
				"element": "N" 
			},
			{
				"x": -2.1883343244,
				"y": 0.0604493482,
				"z": -1.4911687792,
				"element": "C" 
			},
			{
				"x": -1.2043074956,
				"y": -0.7783310868,
				"z": -0.9434496686,
				"element": "C" 
			},
			{
				"x": -0.3128492691,
				"y": -0.2898850751,
				"z": 0.0114430072,
				"element": "C" 
			},
			{
				"x": -0.3764402585,
				"y": 1.049897604,
				"z": 0.4209999977,
				"element": "C" 
			},
			{
				"x": 0.4721914096,
				"y": 1.515282616,
				"z": 1.4018483964,
				"element": "O" 
			},
			{
				"x": 1.7604958497,
				"y": 0.9050612983,
				"z": 1.4037621516,
				"element": "C" 
			},
			{
				"x": 1.7215960041,
				"y": -0.6204149862,
				"z": 1.3292087497,
				"element": "C" 
			},
			{
				"x": 2.5833570136,
				"y": -1.330021712,
				"z": 1.8207471676,
				"element": "O" 
			},
			{
				"x": 0.6592674218,
				"y": -1.1094216609,
				"z": 0.6109374642,
				"element": "N" 
			},
			{
				"x": -1.3433859921,
				"y": 1.8858309106,
				"z": -0.1251779073,
				"element": "C" 
			},
			{
				"x": -2.248043152,
				"y": 1.3986115376,
				"z": -1.0676454741,
				"element": "C" 
			},
			{
				"x": -2.8118101732,
				"y": -1.2450951469,
				"z": -2.9330762469,
				"element": "H" 
			},
			{
				"x": -3.5517484469,
				"y": 0.2490411134,
				"z": -2.9947406192,
				"element": "H" 
			},
			{
				"x": -1.1409957786,
				"y": -1.8190381875,
				"z": -1.252733117,
				"element": "H" 
			},
			{
				"x": 2.3664808933,
				"y": 1.2742095593,
				"z": 0.5602767898,
				"element": "H" 
			},
			{
				"x": 2.2503726197,
				"y": 1.1898940149,
				"z": 2.3350072704,
				"element": "H" 
			},
			{
				"x": 0.6278143239,
				"y": -2.1126712816,
				"z": 0.4832727709,
				"element": "H" 
			},
			{
				"x": -1.3844898254,
				"y": 2.9185643448,
				"z": 0.2052812913,
				"element": "H" 
			},
			{
				"x": -3.0045191273,
				"y": 2.0599814671,
				"z": -1.4805953413,
				"element": "H" 
			}
		],
		 "valence_orbital": [ 
			{
				"type": "occ",
				"energy": -0.31405,
				"method": "rhf"
			},
			{
				"type": "occ",
				"energy": -0.28105,
				"method": "rhf"
			},
			{
				"type": "occ",
				"energy": -0.25474,
				"method": "rhf"
			},
			{
				"type": "occ",
				"energy": -0.23184,
				"method": "rhf"
			},
			{
				"type": "occ",
				"energy": -0.19303,
				"method": "rhf"
			},
			{
				"type": "unocc",
				"energy": -0.01358,
				"method": "rhf"
			},
			{
				"type": "unocc",
				"energy": 0.00859,
				"method": "rhf"
			},
			{
				"type": "unocc",
				"energy": 0.03827,
				"method": "rhf"
			},
			{
				"type": "unocc",
				"energy": 0.075,
				"method": "rhf"
			},
			{
				"type": "unocc",
				"energy": 0.08215,
				"method": "rhf"
			}
		],
		"cosmo_sigma_profile": { 
			"-0.025": 0.0,
			"-0.024": 0.0,
			"-0.023": 0.0,
			"-0.022": 0.0,
			"-0.021": 0.0,
			"-0.02": 0.0,
			"-0.019": 0.0,
			"-0.018": 0.0,
			"-0.017": 0.0,
			"-0.016": 0.0459419189785,
			"-0.015": 1.08938243246,
			"-0.014": 0.981417303407,
			"-0.013": 1.29734711072,
			"-0.012": 3.90652086657,
			"-0.011": 4.30349813789,
			"-0.01": 3.14350604535,
			"-0.009": 4.40573057176,
			"-0.008": 5.79835858235,
			"-0.007": 10.3362640595,
			"-0.006": 11.1006698963,
			"-0.005": 10.1626783486,
			"-0.004": 9.91263738932,
			"-0.003": 9.45877651991,
			"-0.002": 7.72751168455,
			"-0.001": 8.28781460145,
			"0.0": 9.15949931796,
			"0.001": 8.84542382794,
			"0.002": 8.71254331959,
			"0.003": 9.23055498794,
			"0.004": 10.7259818377,
			"0.005": 11.937615862,
			"0.006": 9.11933701056,
			"0.007": 4.0199174241,
			"0.008": 3.57638508697,
			"0.009": 2.9428729079,
			"0.01": 3.68181244587,
			"0.011": 3.65799354491,
			"0.012": 4.41335375642,
			"0.013": 6.22232046465,
			"0.014": 1.70911901976,
			"0.015": 0.444997700231,
			"0.016": 0.00544272339934,
			"0.017": 0.0,
			"0.018": 0.0,
			"0.019": 0.0,
			"0.02": 0.0,
			"0.021": 0.0,
			"0.022": 0.0,
			"0.023": 0.0,
			"0.024": 0.0,
			"0.025": 0.0
		}
	}
}
