{
	 "smiles": "ClC1=CC(=NC2=NC=NN12)C1=CN=CC=C1", 
	 "Tm": 449.15, 
	 "num_atms": 22, 
	 "gaussian": { 
		 "optdone": 1, 
		 "sigma_profile": "yes", 
		 "theory": "DFT", 
		 "functional": "B3LYP", 
		 "basiset": "6-31G**", 
		 "properties": { 
			 "R2extent": 4611.8225, 
			 "electric_dipole_moment_norm": 4.6572518227, 
			 "electric_quadrupole_moment_norm": 12.0403493886, 
			 "total_energy": -1118.5964321, 
			 "HOMO_LUMO_gap": 0.1662, 
			 "cosmo_polarized_energy": -15.71, 
			 "cosmo_cavitation_energy": 29.25, 
			 "cosmo_dispersion_energy": -22.07, 
			 "cosmo_repulsion_energy": 1.67, 
			 "cosmo_total_nonelectrostatic_energy": 8.85, 
			 "SMD_solvation_energy": -0.36 
		},
		"coords": [
			{
				"x": 1.6293401424,
				"y": 0.9464802972,
				"z": 3.4170822272,
				"element": "Cl" 
			},
			{
				"x": 1.0173084416,
				"y": 1.0205035926,
				"z": 1.808851723,
				"element": "C" 
			},
			{
				"x": 0.9192372049,
				"y": -0.065807369,
				"z": 0.978085922,
				"element": "C" 
			},
			{
				"x": 0.388911935,
				"y": 0.1060130079,
				"z": -0.338781314,
				"element": "C" 
			},
			{
				"x": -0.0321417012,
				"y": 1.2838143155,
				"z": -0.7872559022,
				"element": "N" 
			},
			{
				"x": 0.0630853476,
				"y": 2.3348116358,
				"z": 0.0322613834,
				"element": "C" 
			},
			{
				"x": -0.2779859082,
				"y": 3.6063902605,
				"z": -0.1660164379,
				"element": "N" 
			},
			{
				"x": 0.0547563736,
				"y": 4.1988418866,
				"z": 1.0000016032,
				"element": "C" 
			},
			{
				"x": 0.5883181111,
				"y": 3.4262069338,
				"z": 1.9524301467,
				"element": "N" 
			},
			{
				"x": 0.5971877877,
				"y": 2.2218207474,
				"z": 1.3358942921,
				"element": "N" 
			},
			{
				"x": 0.2705396771,
				"y": -1.0475074438,
				"z": -1.2614604919,
				"element": "C" 
			},
			{
				"x": -0.6009839355,
				"y": -0.9727362064,
				"z": -2.3649637834,
				"element": "C" 
			},
			{
				"x": -0.7774238826,
				"y": -1.9599466653,
				"z": -3.2451982106,
				"element": "N" 
			},
			{
				"x": -0.073596208,
				"y": -3.0856080006,
				"z": -3.0637045051,
				"element": "C" 
			},
			{
				"x": 0.8224794473,
				"y": -3.2701197077,
				"z": -2.0103312603,
				"element": "C" 
			},
			{
				"x": 0.9963283778,
				"y": -2.2351884644,
				"z": -1.0963283425,
				"element": "C" 
			},
			{
				"x": 1.2214262583,
				"y": -1.0349598408,
				"z": 1.3480982647,
				"element": "H" 
			},
			{
				"x": -0.0934158746,
				"y": 5.2551118461,
				"z": 1.1814993613,
				"element": "H" 
			},
			{
				"x": -1.1751021015,
				"y": -0.0642189933,
				"z": -2.5223040466,
				"element": "H" 
			},
			{
				"x": -0.2318802228,
				"y": -3.8741881298,
				"z": -3.7970381916,
				"element": "H" 
			},
			{
				"x": 1.3756862546,
				"y": -4.1987840498,
				"z": -1.9143263577,
				"element": "H" 
			},
			{
				"x": 1.7073244758,
				"y": -2.3488296525,
				"z": -0.2836960797,
				"element": "H" 
			}
		],
		 "valence_orbital": [ 
			{
				"type": "occ",
				"energy": -0.29127,
				"method": "rhf"
			},
			{
				"type": "occ",
				"energy": -0.28965,
				"method": "rhf"
			},
			{
				"type": "occ",
				"energy": -0.27349,
				"method": "rhf"
			},
			{
				"type": "occ",
				"energy": -0.26265,
				"method": "rhf"
			},
			{
				"type": "occ",
				"energy": -0.25246,
				"method": "rhf"
			},
			{
				"type": "unocc",
				"energy": -0.08626,
				"method": "rhf"
			},
			{
				"type": "unocc",
				"energy": -0.05217,
				"method": "rhf"
			},
			{
				"type": "unocc",
				"energy": -0.03136,
				"method": "rhf"
			},
			{
				"type": "unocc",
				"energy": -0.00323,
				"method": "rhf"
			},
			{
				"type": "unocc",
				"energy": -0.00053,
				"method": "rhf"
			}
		],
		"cosmo_sigma_profile": { 
			"-0.025": 0.0,
			"-0.024": 0.0,
			"-0.023": 0.0,
			"-0.022": 0.0,
			"-0.021": 0.0,
			"-0.02": 0.0,
			"-0.019": 0.0,
			"-0.018": 0.0,
			"-0.017": 0.0,
			"-0.016": 0.0,
			"-0.015": 0.0,
			"-0.014": 0.0,
			"-0.013": 0.0,
			"-0.012": 0.366209718121,
			"-0.011": 1.57806865354,
			"-0.01": 3.1768834038,
			"-0.009": 4.41845899806,
			"-0.008": 4.6671644555,
			"-0.007": 11.2960314527,
			"-0.006": 12.995966667,
			"-0.005": 13.8958266652,
			"-0.004": 15.3133691406,
			"-0.003": 17.401509708,
			"-0.002": 18.2073586366,
			"-0.001": 17.3768506587,
			"0.0": 19.7621364324,
			"0.001": 26.0299446079,
			"0.002": 14.9967153589,
			"0.003": 7.52742586321,
			"0.004": 6.7823495001,
			"0.005": 4.98745381098,
			"0.006": 4.62428053833,
			"0.007": 4.76938930297,
			"0.008": 4.95550305878,
			"0.009": 5.18592685141,
			"0.01": 3.5488827849,
			"0.011": 4.9749181495,
			"0.012": 4.11903284808,
			"0.013": 2.26960713595,
			"0.014": 2.26638854691,
			"0.015": 1.95286320904,
			"0.016": 0.829183060597,
			"0.017": 0.054722185193,
			"0.018": 0.0,
			"0.019": 0.0,
			"0.02": 0.0,
			"0.021": 0.0,
			"0.022": 0.0,
			"0.023": 0.0,
			"0.024": 0.0,
			"0.025": 0.0
		}
	}
}
