{
	 "smiles": "NC1=C(F)C(=CC(Cl)=C1)C(O)=O", 
	 "Tm": 470.15, 
	 "num_atms": 17, 
	 "gaussian": { 
		 "optdone": 1, 
		 "sigma_profile": "yes", 
		 "theory": "DFT", 
		 "functional": "B3LYP", 
		 "basiset": "6-31G**", 
		 "properties": { 
			 "R2extent": 2822.3707, 
			 "electric_dipole_moment_norm": 6.3980289371, 
			 "electric_quadrupole_moment_norm": 11.1850436781, 
			 "total_energy": -1034.99654194, 
			 "HOMO_LUMO_gap": 0.17399, 
			 "cosmo_polarized_energy": -15.53, 
			 "cosmo_cavitation_energy": 23.92, 
			 "cosmo_dispersion_energy": -18.12, 
			 "cosmo_repulsion_energy": 1.43, 
			 "cosmo_total_nonelectrostatic_energy": 7.23, 
			 "SMD_solvation_energy": 5.31 
		},
		"coords": [
			{
				"x": 0.7461288739,
				"y": 0.0414479283,
				"z": -2.6187630875,
				"element": "N" 
			},
			{
				"x": 0.3079199404,
				"y": -0.4477236288,
				"z": -1.3993650935,
				"element": "C" 
			},
			{
				"x": 1.1541592553,
				"y": -0.4169140326,
				"z": -0.2818274512,
				"element": "C" 
			},
			{
				"x": 2.4273663464,
				"y": 0.0536428136,
				"z": -0.5149116345,
				"element": "F" 
			},
			{
				"x": 0.7748994991,
				"y": -0.83520829,
				"z": 0.9897700589,
				"element": "C" 
			},
			{
				"x": -0.5325224481,
				"y": -1.3162158271,
				"z": 1.1606286149,
				"element": "C" 
			},
			{
				"x": -1.3881188623,
				"y": -1.3590142558,
				"z": 0.0678040443,
				"element": "C" 
			},
			{
				"x": -3.0223017196,
				"y": -1.9646651213,
				"z": 0.2770891057,
				"element": "Cl" 
			},
			{
				"x": -0.991786033,
				"y": -0.9350949024,
				"z": -1.2004316764,
				"element": "C" 
			},
			{
				"x": 1.6567429178,
				"y": -0.8208535101,
				"z": 2.216346615,
				"element": "C" 
			},
			{
				"x": 2.9130071546,
				"y": -0.349918563,
				"z": 2.0849696892,
				"element": "O" 
			},
			{
				"x": 1.2573951406,
				"y": -1.2161617075,
				"z": 3.2865003776,
				"element": "O" 
			},
			{
				"x": 0.2649374744,
				"y": -0.3053312217,
				"z": -3.435404273,
				"element": "H" 
			},
			{
				"x": 1.747573211,
				"y": 0.0979011027,
				"z": -2.732319991,
				"element": "H" 
			},
			{
				"x": -0.8365232021,
				"y": -1.6443316528,
				"z": 2.1461660415,
				"element": "H" 
			},
			{
				"x": -1.6868806998,
				"y": -0.9756734758,
				"z": -2.0321533472,
				"element": "H" 
			},
			{
				"x": 3.0828031513,
				"y": -0.0720856556,
				"z": 1.1717020072,
				"element": "H" 
			}
		],
		 "valence_orbital": [ 
			{
				"type": "occ",
				"energy": -0.3229,
				"method": "rhf"
			},
			{
				"type": "occ",
				"energy": -0.31105,
				"method": "rhf"
			},
			{
				"type": "occ",
				"energy": -0.28006,
				"method": "rhf"
			},
			{
				"type": "occ",
				"energy": -0.26775,
				"method": "rhf"
			},
			{
				"type": "occ",
				"energy": -0.23514,
				"method": "rhf"
			},
			{
				"type": "unocc",
				"energy": -0.06115,
				"method": "rhf"
			},
			{
				"type": "unocc",
				"energy": -0.01712,
				"method": "rhf"
			},
			{
				"type": "unocc",
				"energy": 0.01776,
				"method": "rhf"
			},
			{
				"type": "unocc",
				"energy": 0.04346,
				"method": "rhf"
			},
			{
				"type": "unocc",
				"energy": 0.05209,
				"method": "rhf"
			}
		],
		"cosmo_sigma_profile": { 
			"-0.025": 0.0,
			"-0.024": 0.0,
			"-0.023": 0.0,
			"-0.022": 0.0,
			"-0.021": 0.0,
			"-0.02": 0.0,
			"-0.019": 0.0,
			"-0.018": 0.0,
			"-0.017": 0.0,
			"-0.016": 0.0,
			"-0.015": 0.0093010425479,
			"-0.014": 1.34282938856,
			"-0.013": 2.97922211903,
			"-0.012": 3.15919070075,
			"-0.011": 4.18877825745,
			"-0.01": 4.40764118678,
			"-0.009": 4.00837720854,
			"-0.008": 5.82960949505,
			"-0.007": 5.35317776316,
			"-0.006": 6.01603982648,
			"-0.005": 5.55587681543,
			"-0.004": 6.4265935354,
			"-0.003": 7.47464807666,
			"-0.002": 11.3479345065,
			"-0.001": 13.321344447,
			"0.0": 16.530328431,
			"0.001": 21.7188907573,
			"0.002": 16.7858706223,
			"0.003": 9.34513990293,
			"0.004": 13.1172700696,
			"0.005": 5.5922208694,
			"0.006": 2.37104861359,
			"0.007": 3.66539888464,
			"0.008": 3.71490097276,
			"0.009": 3.70995576411,
			"0.01": 5.43596943784,
			"0.011": 6.23262821072,
			"0.012": 3.8723902812,
			"0.013": 0.961056875161,
			"0.014": 0.0,
			"0.015": 0.0,
			"0.016": 0.0,
			"0.017": 0.0,
			"0.018": 0.0,
			"0.019": 0.0,
			"0.02": 0.0,
			"0.021": 0.0,
			"0.022": 0.0,
			"0.023": 0.0,
			"0.024": 0.0,
			"0.025": 0.0
		}
	}
}
