{
	 "smiles": "CCO[Si](CC)(OCC)OCC", 
	 "Tm": 195.15, 
	 "num_atms": 32, 
	 "gaussian": { 
		 "optdone": 1, 
		 "sigma_profile": "yes", 
		 "theory": "DFT", 
		 "functional": "B3LYP", 
		 "basiset": "6-31G**", 
		 "properties": { 
			 "R2extent": 3267.1667, 
			 "electric_dipole_moment_norm": 1.13793558254, 
			 "electric_quadrupole_moment_norm": 8.74919703116, 
			 "total_energy": -832.216178778, 
			 "HOMO_LUMO_gap": 0.3319, 
			 "cosmo_polarized_energy": -8.27, 
			 "cosmo_cavitation_energy": 35.78, 
			 "cosmo_dispersion_energy": -22.21, 
			 "cosmo_repulsion_energy": 1.96, 
			 "cosmo_total_nonelectrostatic_energy": 15.53, 
			 "SMD_solvation_energy": 6.5 
		},
		"coords": [
			{
				"x": 3.8772618346,
				"y": 0.8074999004,
				"z": -1.9439722627,
				"element": "C" 
			},
			{
				"x": 2.707050485,
				"y": 1.4095706246,
				"z": -1.1817870847,
				"element": "C" 
			},
			{
				"x": 1.5272614257,
				"y": 0.6665739174,
				"z": -1.4806947703,
				"element": "O" 
			},
			{
				"x": 0.0670227138,
				"y": 0.894308295,
				"z": -0.7338950706,
				"element": "Si" 
			},
			{
				"x": -0.4859730627,
				"y": 2.6841780743,
				"z": -0.7912489628,
				"element": "C" 
			},
			{
				"x": -1.7697868564,
				"y": 3.0080347008,
				"z": -0.0041023973,
				"element": "C" 
			},
			{
				"x": -0.9099534311,
				"y": -0.1466609784,
				"z": -1.5702147499,
				"element": "O" 
			},
			{
				"x": -2.2197173566,
				"y": -0.550908833,
				"z": -1.1776932293,
				"element": "C" 
			},
			{
				"x": -2.518028538,
				"y": -1.9226271602,
				"z": -1.7643632884,
				"element": "C" 
			},
			{
				"x": 0.1331230569,
				"y": 0.4977785904,
				"z": 0.8779425613,
				"element": "O" 
			},
			{
				"x": 0.6016931331,
				"y": -0.7598576461,
				"z": 1.3722359241,
				"element": "C" 
			},
			{
				"x": 0.8379006642,
				"y": -0.6499508509,
				"z": 2.8702324028,
				"element": "C" 
			},
			{
				"x": 4.0304822413,
				"y": -0.235180407,
				"z": -1.6503776778,
				"element": "H" 
			},
			{
				"x": 4.7968268999,
				"y": 1.3663059765,
				"z": -1.7398321895,
				"element": "H" 
			},
			{
				"x": 3.6848207231,
				"y": 0.8335076056,
				"z": -3.0204227989,
				"element": "H" 
			},
			{
				"x": 2.9089241297,
				"y": 1.3900205525,
				"z": -0.1008763838,
				"element": "H" 
			},
			{
				"x": 2.5724561658,
				"y": 2.462115868,
				"z": -1.4704108916,
				"element": "H" 
			},
			{
				"x": -0.6059391985,
				"y": 2.9637657073,
				"z": -1.8461032289,
				"element": "H" 
			},
			{
				"x": 0.3386789754,
				"y": 3.3020725894,
				"z": -0.4109512802,
				"element": "H" 
			},
			{
				"x": -2.0095149718,
				"y": 4.0760081216,
				"z": -0.0522742492,
				"element": "H" 
			},
			{
				"x": -1.6644298553,
				"y": 2.7351729464,
				"z": 1.0500570775,
				"element": "H" 
			},
			{
				"x": -2.6340402342,
				"y": 2.4642671925,
				"z": -0.4004128469,
				"element": "H" 
			},
			{
				"x": -2.952535872,
				"y": 0.1815397824,
				"z": -1.5447680278,
				"element": "H" 
			},
			{
				"x": -2.3049964579,
				"y": -0.5780850517,
				"z": -0.0822170446,
				"element": "H" 
			},
			{
				"x": -3.5326618068,
				"y": -2.2404990408,
				"z": -1.5010168551,
				"element": "H" 
			},
			{
				"x": -1.8102419644,
				"y": -2.6660250985,
				"z": -1.3854509059,
				"element": "H" 
			},
			{
				"x": -2.433135057,
				"y": -1.8969734548,
				"z": -2.8545881419,
				"element": "H" 
			},
			{
				"x": -0.1424040036,
				"y": -1.5402053858,
				"z": 1.1605507017,
				"element": "H" 
			},
			{
				"x": 1.5282845028,
				"y": -1.0459083565,
				"z": 0.8567297562,
				"element": "H" 
			},
			{
				"x": 1.1829440542,
				"y": -1.6071236496,
				"z": 3.2755614796,
				"element": "H" 
			},
			{
				"x": -0.0857622772,
				"y": -0.368344265,
				"z": 3.3847395592,
				"element": "H" 
			},
			{
				"x": 1.5937899384,
				"y": 0.1111297336,
				"z": 3.0862248758,
				"element": "H" 
			}
		],
		 "valence_orbital": [ 
			{
				"type": "occ",
				"energy": -0.30725,
				"method": "rhf"
			},
			{
				"type": "occ",
				"energy": -0.28461,
				"method": "rhf"
			},
			{
				"type": "occ",
				"energy": -0.2794,
				"method": "rhf"
			},
			{
				"type": "occ",
				"energy": -0.26904,
				"method": "rhf"
			},
			{
				"type": "occ",
				"energy": -0.26739,
				"method": "rhf"
			},
			{
				"type": "unocc",
				"energy": 0.06451,
				"method": "rhf"
			},
			{
				"type": "unocc",
				"energy": 0.07884,
				"method": "rhf"
			},
			{
				"type": "unocc",
				"energy": 0.09358,
				"method": "rhf"
			},
			{
				"type": "unocc",
				"energy": 0.09667,
				"method": "rhf"
			},
			{
				"type": "unocc",
				"energy": 0.11327,
				"method": "rhf"
			}
		],
		"cosmo_sigma_profile": { 
			"-0.025": 0.0,
			"-0.024": 0.0,
			"-0.023": 0.0,
			"-0.022": 0.0,
			"-0.021": 0.0,
			"-0.02": 0.0,
			"-0.019": 0.0,
			"-0.018": 0.0,
			"-0.017": 0.0,
			"-0.016": 0.0,
			"-0.015": 0.0,
			"-0.014": 0.0,
			"-0.013": 0.0,
			"-0.012": 0.0,
			"-0.011": 0.0,
			"-0.01": 0.0,
			"-0.009": 0.0,
			"-0.008": 0.0,
			"-0.007": 0.0,
			"-0.006": 0.0,
			"-0.005": 0.153666940481,
			"-0.004": 19.3751767434,
			"-0.003": 46.7834435473,
			"-0.002": 48.3119911026,
			"-0.001": 40.4678555496,
			"0.0": 37.0797546672,
			"0.001": 32.1180166952,
			"0.002": 9.75894643596,
			"0.003": 3.96790011568,
			"0.004": 3.82649203466,
			"0.005": 4.43720730322,
			"0.006": 3.48632801051,
			"0.007": 3.39805825238,
			"0.008": 2.98692915723,
			"0.009": 2.69003682562,
			"0.01": 3.35260577762,
			"0.011": 2.86596332636,
			"0.012": 1.70011136081,
			"0.013": 2.21905681473,
			"0.014": 2.59615443812,
			"0.015": 0.77756935824,
			"0.016": 0.0,
			"0.017": 0.0,
			"0.018": 0.0,
			"0.019": 0.0,
			"0.02": 0.0,
			"0.021": 0.0,
			"0.022": 0.0,
			"0.023": 0.0,
			"0.024": 0.0,
			"0.025": 0.0
		}
	}
}
