{
	 "smiles": "CNC(=O)COC1=CC(CC(O)=O)=CC=C1", 
	 "Tm": 402.15, 
	 "num_atms": 29, 
	 "gaussian": { 
		 "optdone": 1, 
		 "sigma_profile": "yes", 
		 "theory": "DFT", 
		 "functional": "B3LYP", 
		 "basiset": "6-31G**", 
		 "properties": { 
			 "R2extent": 4333.3484, 
			 "electric_dipole_moment_norm": 5.19583021374, 
			 "electric_quadrupole_moment_norm": 10.6822767049, 
			 "total_energy": -782.666512279, 
			 "HOMO_LUMO_gap": 0.20671, 
			 "cosmo_polarized_energy": -23.69, 
			 "cosmo_cavitation_energy": 34.07, 
			 "cosmo_dispersion_energy": -22.92, 
			 "cosmo_repulsion_energy": 1.82, 
			 "cosmo_total_nonelectrostatic_energy": 12.97, 
			 "SMD_solvation_energy": 7.63 
		},
		"coords": [
			{
				"x": 1.6682431347,
				"y": 2.9311236788,
				"z": 0.6484530169,
				"element": "C" 
			},
			{
				"x": 0.7552771014,
				"y": 2.1583902363,
				"z": 1.4732495653,
				"element": "N" 
			},
			{
				"x": -0.4248968076,
				"y": 1.6634298933,
				"z": 0.9910867229,
				"element": "C" 
			},
			{
				"x": -0.8165697862,
				"y": 1.8214792152,
				"z": -0.1530220421,
				"element": "O" 
			},
			{
				"x": -1.2650405471,
				"y": 0.9300731617,
				"z": 2.0554318757,
				"element": "C" 
			},
			{
				"x": -2.1986833386,
				"y": 0.0350387572,
				"z": 1.5006561658,
				"element": "O" 
			},
			{
				"x": -1.7492834023,
				"y": -1.1399020533,
				"z": 0.9580664016,
				"element": "C" 
			},
			{
				"x": -0.4066941585,
				"y": -1.5181973994,
				"z": 0.8855836187,
				"element": "C" 
			},
			{
				"x": -0.0561585625,
				"y": -2.7576400653,
				"z": 0.329150138,
				"element": "C" 
			},
			{
				"x": 1.4096974029,
				"y": -3.152527368,
				"z": 0.2258971503,
				"element": "C" 
			},
			{
				"x": 2.0878608736,
				"y": -2.4609442559,
				"z": -0.9447516018,
				"element": "C" 
			},
			{
				"x": 2.4404788031,
				"y": -1.1863433627,
				"z": -0.6366840602,
				"element": "O" 
			},
			{
				"x": 2.2859433984,
				"y": -2.9470098213,
				"z": -2.0342199371,
				"element": "O" 
			},
			{
				"x": -1.051916004,
				"y": -3.6085287717,
				"z": -0.1528439617,
				"element": "C" 
			},
			{
				"x": -2.393942808,
				"y": -3.2213983196,
				"z": -0.0762763844,
				"element": "C" 
			},
			{
				"x": -2.7482199296,
				"y": -1.9969712144,
				"z": 0.4753958609,
				"element": "C" 
			},
			{
				"x": 2.605922289,
				"y": 2.3904986724,
				"z": 0.4761399486,
				"element": "H" 
			},
			{
				"x": 1.1753115444,
				"y": 3.0982129152,
				"z": -0.3098016585,
				"element": "H" 
			},
			{
				"x": 1.8961624877,
				"y": 3.8973860321,
				"z": 1.1108532035,
				"element": "H" 
			},
			{
				"x": 1.0338268598,
				"y": 1.9276834796,
				"z": 2.4152400591,
				"element": "H" 
			},
			{
				"x": -0.6212060247,
				"y": 0.4293304521,
				"z": 2.7942690641,
				"element": "H" 
			},
			{
				"x": -1.8628059888,
				"y": 1.6783754049,
				"z": 2.5863061355,
				"element": "H" 
			},
			{
				"x": 0.382068656,
				"y": -0.8576504125,
				"z": 1.2254318154,
				"element": "H" 
			},
			{
				"x": 1.9413990221,
				"y": -2.8880966013,
				"z": 1.1456482234,
				"element": "H" 
			},
			{
				"x": 1.5031387664,
				"y": -4.227380912,
				"z": 0.0619585809,
				"element": "H" 
			},
			{
				"x": 2.7943202846,
				"y": -0.8009435807,
				"z": -1.4560528721,
				"element": "H" 
			},
			{
				"x": -0.7823008406,
				"y": -4.5652340484,
				"z": -0.5899365983,
				"element": "H" 
			},
			{
				"x": -3.1690135891,
				"y": -3.883736238,
				"z": -0.4508438008,
				"element": "H" 
			},
			{
				"x": -3.7832188365,
				"y": -1.6797174744,
				"z": 0.5445153704,
				"element": "H" 
			}
		],
		 "valence_orbital": [ 
			{
				"type": "occ",
				"energy": -0.27797,
				"method": "rhf"
			},
			{
				"type": "occ",
				"energy": -0.26117,
				"method": "rhf"
			},
			{
				"type": "occ",
				"energy": -0.25585,
				"method": "rhf"
			},
			{
				"type": "occ",
				"energy": -0.24362,
				"method": "rhf"
			},
			{
				"type": "occ",
				"energy": -0.21927,
				"method": "rhf"
			},
			{
				"type": "unocc",
				"energy": -0.01256,
				"method": "rhf"
			},
			{
				"type": "unocc",
				"energy": 0.00905,
				"method": "rhf"
			},
			{
				"type": "unocc",
				"energy": 0.01895,
				"method": "rhf"
			},
			{
				"type": "unocc",
				"energy": 0.02511,
				"method": "rhf"
			},
			{
				"type": "unocc",
				"energy": 0.05929,
				"method": "rhf"
			}
		],
		"cosmo_sigma_profile": { 
			"-0.025": 0.0,
			"-0.024": 0.0,
			"-0.023": 0.0,
			"-0.022": 0.0,
			"-0.021": 0.0,
			"-0.02": 0.0,
			"-0.019": 0.0,
			"-0.018": 0.472055491877,
			"-0.017": 1.09429090527,
			"-0.016": 1.03981729436,
			"-0.015": 0.987784120058,
			"-0.014": 2.26014434224,
			"-0.013": 2.99263585355,
			"-0.012": 2.47039280489,
			"-0.011": 2.40738493011,
			"-0.01": 1.91976627082,
			"-0.009": 2.49973192259,
			"-0.008": 4.51159905234,
			"-0.007": 7.46632996131,
			"-0.006": 15.1012978846,
			"-0.005": 19.2639108066,
			"-0.004": 22.343226323,
			"-0.003": 20.3802636124,
			"-0.002": 18.7311874498,
			"-0.001": 14.6824150703,
			"0.0": 10.4323391343,
			"0.001": 11.5916673849,
			"0.002": 14.1840413404,
			"0.003": 12.8544863354,
			"0.004": 14.9590547865,
			"0.005": 15.6745290136,
			"0.006": 6.38512689821,
			"0.007": 5.06581578051,
			"0.008": 5.69428230837,
			"0.009": 4.21249785172,
			"0.01": 4.9762970188,
			"0.011": 6.57391940761,
			"0.012": 6.42582316766,
			"0.013": 5.50889683518,
			"0.014": 3.54512715164,
			"0.015": 0.739270920192,
			"0.016": 0.0,
			"0.017": 0.0,
			"0.018": 0.0,
			"0.019": 0.0,
			"0.02": 0.0,
			"0.021": 0.0,
			"0.022": 0.0,
			"0.023": 0.0,
			"0.024": 0.0,
			"0.025": 0.0
		}
	}
}
