{
	 "smiles": "COC1=CC=C(C=C2SC(=S)N(CN3CCOCC3)C2=O)C=C1", 
	 "Tm": 406.15, 
	 "num_atms": 41, 
	 "gaussian": { 
		 "optdone": 1, 
		 "sigma_profile": "yes", 
		 "theory": "DFT", 
		 "functional": "B3LYP", 
		 "basiset": "6-31G**", 
		 "properties": { 
			 "R2extent": 12753.0553, 
			 "electric_dipole_moment_norm": 5.10153256385, 
			 "electric_quadrupole_moment_norm": 32.481697649, 
			 "total_energy": -1752.06861358, 
			 "HOMO_LUMO_gap": 0.12326, 
			 "cosmo_polarized_energy": -14.68, 
			 "cosmo_cavitation_energy": 46.34, 
			 "cosmo_dispersion_energy": -33.85, 
			 "cosmo_repulsion_energy": 2.46, 
			 "cosmo_total_nonelectrostatic_energy": 14.95, 
			 "SMD_solvation_energy": 5.7 
		},
		"coords": [
			{
				"x": 1.8629416078,
				"y": 7.3573392849,
				"z": 0.4421542933,
				"element": "C" 
			},
			{
				"x": 2.7671609058,
				"y": 6.3092009066,
				"z": 0.1135160098,
				"element": "O" 
			},
			{
				"x": 2.2721097916,
				"y": 5.0649528924,
				"z": -0.1000161595,
				"element": "C" 
			},
			{
				"x": 0.9135595492,
				"y": 4.7214008486,
				"z": -0.0228891328,
				"element": "C" 
			},
			{
				"x": 0.5152827726,
				"y": 3.4100216277,
				"z": -0.2619462188,
				"element": "C" 
			},
			{
				"x": 1.4458453571,
				"y": 2.4019325878,
				"z": -0.5830153541,
				"element": "C" 
			},
			{
				"x": 1.1113040405,
				"y": 1.0171896708,
				"z": -0.8438413848,
				"element": "C" 
			},
			{
				"x": -0.0748174565,
				"y": 0.3592959593,
				"z": -0.8596541573,
				"element": "C" 
			},
			{
				"x": -1.7151789356,
				"y": 0.944969385,
				"z": -0.5718056673,
				"element": "S" 
			},
			{
				"x": -2.4222105753,
				"y": -0.6655130299,
				"z": -0.8536072623,
				"element": "C" 
			},
			{
				"x": -4.0553908837,
				"y": -0.9096011073,
				"z": -0.8092788311,
				"element": "S" 
			},
			{
				"x": -1.4310140234,
				"y": -1.5798224139,
				"z": -1.1075931884,
				"element": "N" 
			},
			{
				"x": -1.7028754356,
				"y": -3.0412053722,
				"z": -1.4285897983,
				"element": "C" 
			},
			{
				"x": -1.5261484885,
				"y": -3.9775160042,
				"z": -0.3785744668,
				"element": "N" 
			},
			{
				"x": -2.4230180474,
				"y": -3.8625376153,
				"z": 0.7734865915,
				"element": "C" 
			},
			{
				"x": -2.0540297234,
				"y": -4.9225491463,
				"z": 1.8055062812,
				"element": "C" 
			},
			{
				"x": -0.7353632562,
				"y": -4.7518910839,
				"z": 2.320413121,
				"element": "O" 
			},
			{
				"x": 0.1897361812,
				"y": -4.1749405489,
				"z": 1.3981529063,
				"element": "C" 
			},
			{
				"x": -0.1740285764,
				"y": -4.4661047891,
				"z": -0.05609915,
				"element": "C" 
			},
			{
				"x": -0.1120717522,
				"y": -1.0890570252,
				"z": -1.1641644521,
				"element": "C" 
			},
			{
				"x": 0.8492200926,
				"y": -1.7924532922,
				"z": -1.4376253644,
				"element": "O" 
			},
			{
				"x": 2.8092521515,
				"y": 2.7772946018,
				"z": -0.6532247363,
				"element": "C" 
			},
			{
				"x": 3.2193252358,
				"y": 4.0762819396,
				"z": -0.4188293781,
				"element": "C" 
			},
			{
				"x": 1.134751823,
				"y": 7.5259966718,
				"z": -0.3604607951,
				"element": "H" 
			},
			{
				"x": 2.4750071539,
				"y": 8.2511491153,
				"z": 0.5671168269,
				"element": "H" 
			},
			{
				"x": 1.3299586142,
				"y": 7.1492880727,
				"z": 1.3778608168,
				"element": "H" 
			},
			{
				"x": 0.1644457905,
				"y": 5.4646937557,
				"z": 0.221274638,
				"element": "H" 
			},
			{
				"x": -0.5420896236,
				"y": 3.1813714609,
				"z": -0.1929282576,
				"element": "H" 
			},
			{
				"x": 1.9545162078,
				"y": 0.3665325273,
				"z": -1.0728595457,
				"element": "H" 
			},
			{
				"x": -2.7388097794,
				"y": -3.0461383919,
				"z": -1.7727517728,
				"element": "H" 
			},
			{
				"x": -1.0269272939,
				"y": -3.2736688317,
				"z": -2.2524421275,
				"element": "H" 
			},
			{
				"x": -2.3692570573,
				"y": -2.8700568877,
				"z": 1.2506831135,
				"element": "H" 
			},
			{
				"x": -3.4607241113,
				"y": -4.0010745369,
				"z": 0.4469113053,
				"element": "H" 
			},
			{
				"x": -2.736028831,
				"y": -4.8652147215,
				"z": 2.6599102079,
				"element": "H" 
			},
			{
				"x": -2.1624682218,
				"y": -5.921789408,
				"z": 1.3550318705,
				"element": "H" 
			},
			{
				"x": 0.2460581126,
				"y": -3.0861656958,
				"z": 1.552973457,
				"element": "H" 
			},
			{
				"x": 1.1750671511,
				"y": -4.5931290098,
				"z": 1.6323172932,
				"element": "H" 
			},
			{
				"x": -0.1234729299,
				"y": -5.5517406718,
				"z": -0.223515349,
				"element": "H" 
			},
			{
				"x": 0.5560321032,
				"y": -3.9886984689,
				"z": -0.7122171323,
				"element": "H" 
			},
			{
				"x": 3.5506389633,
				"y": 2.0217768689,
				"z": -0.8984735369,
				"element": "H" 
			},
			{
				"x": 4.2651113974,
				"y": 4.3589798754,
				"z": -0.4741055129,
				"element": "H" 
			}
		],
		 "valence_orbital": [ 
			{
				"type": "occ",
				"energy": -0.25391,
				"method": "rhf"
			},
			{
				"type": "occ",
				"energy": -0.24374,
				"method": "rhf"
			},
			{
				"type": "occ",
				"energy": -0.23048,
				"method": "rhf"
			},
			{
				"type": "occ",
				"energy": -0.21643,
				"method": "rhf"
			},
			{
				"type": "occ",
				"energy": -0.21366,
				"method": "rhf"
			},
			{
				"type": "unocc",
				"energy": -0.0904,
				"method": "rhf"
			},
			{
				"type": "unocc",
				"energy": -0.03578,
				"method": "rhf"
			},
			{
				"type": "unocc",
				"energy": -0.02029,
				"method": "rhf"
			},
			{
				"type": "unocc",
				"energy": 0.00254,
				"method": "rhf"
			},
			{
				"type": "unocc",
				"energy": 0.01733,
				"method": "rhf"
			}
		],
		"cosmo_sigma_profile": { 
			"-0.025": 0.0,
			"-0.024": 0.0,
			"-0.023": 0.0,
			"-0.022": 0.0,
			"-0.021": 0.0,
			"-0.02": 0.0,
			"-0.019": 0.0,
			"-0.018": 0.0,
			"-0.017": 0.0,
			"-0.016": 0.0,
			"-0.015": 0.0,
			"-0.014": 0.0,
			"-0.013": 0.0,
			"-0.012": 0.0,
			"-0.011": 0.0,
			"-0.01": 0.0,
			"-0.009": 0.323980021852,
			"-0.008": 2.05071923155,
			"-0.007": 8.17663767165,
			"-0.006": 19.2935871901,
			"-0.005": 27.2226245911,
			"-0.004": 36.6704882853,
			"-0.003": 40.4917901333,
			"-0.002": 31.7198219739,
			"-0.001": 24.2187901327,
			"0.0": 24.8424460271,
			"0.001": 28.6355970946,
			"0.002": 27.0365913532,
			"0.003": 26.974314715,
			"0.004": 16.5667425957,
			"0.005": 12.0690010157,
			"0.006": 10.6826162536,
			"0.007": 10.0790913047,
			"0.008": 5.93961172721,
			"0.009": 6.49251287788,
			"0.01": 4.30527257371,
			"0.011": 3.7945008273,
			"0.012": 2.02977243153,
			"0.013": 1.85384017683,
			"0.014": 1.10629761051,
			"0.015": 0.0,
			"0.016": 0.0,
			"0.017": 0.0,
			"0.018": 0.0,
			"0.019": 0.0,
			"0.02": 0.0,
			"0.021": 0.0,
			"0.022": 0.0,
			"0.023": 0.0,
			"0.024": 0.0,
			"0.025": 0.0
		}
	}
}
