{
	 "smiles": "CC1=NN2C(=C1)N=C(C)C=C2C(O)=O", 
	 "Tm": 463.15, 
	 "num_atms": 23, 
	 "gaussian": { 
		 "optdone": 1, 
		 "sigma_profile": "yes", 
		 "theory": "DFT", 
		 "functional": "B3LYP", 
		 "basiset": "6-31G**", 
		 "properties": { 
			 "R2extent": 3013.363, 
			 "electric_dipole_moment_norm": 4.06260463004, 
			 "electric_quadrupole_moment_norm": 14.4462262214, 
			 "total_energy": -663.089567475, 
			 "HOMO_LUMO_gap": 0.15376, 
			 "cosmo_polarized_energy": -11.1, 
			 "cosmo_cavitation_energy": 27.37, 
			 "cosmo_dispersion_energy": -20.51, 
			 "cosmo_repulsion_energy": 1.61, 
			 "cosmo_total_nonelectrostatic_energy": 8.48, 
			 "SMD_solvation_energy": 4.13 
		},
		"coords": [
			{
				"x": 3.3678468165,
				"y": 0.6610264456,
				"z": -1.9875196781,
				"element": "C" 
			},
			{
				"x": 2.2322814266,
				"y": 0.8778428037,
				"z": -1.0364918474,
				"element": "C" 
			},
			{
				"x": 1.0008936048,
				"y": 0.4136984242,
				"z": -1.3450167244,
				"element": "N" 
			},
			{
				"x": 0.2205831733,
				"y": 0.7677735008,
				"z": -0.2986297177,
				"element": "N" 
			},
			{
				"x": 0.9399652679,
				"y": 1.4599040932,
				"z": 0.6882729875,
				"element": "C" 
			},
			{
				"x": 2.2486912972,
				"y": 1.5286444298,
				"z": 0.2026836026,
				"element": "C" 
			},
			{
				"x": 0.3468694027,
				"y": 1.8999151054,
				"z": 1.8112526015,
				"element": "N" 
			},
			{
				"x": -0.9484687413,
				"y": 1.6618404792,
				"z": 1.9661207182,
				"element": "C" 
			},
			{
				"x": -1.5922761241,
				"y": 2.1640568151,
				"z": 3.2325597153,
				"element": "C" 
			},
			{
				"x": -1.7140127207,
				"y": 0.9629391489,
				"z": 0.9879135431,
				"element": "C" 
			},
			{
				"x": -1.1150239763,
				"y": 0.5105822986,
				"z": -0.1614955424,
				"element": "C" 
			},
			{
				"x": -1.8912868757,
				"y": -0.2363219884,
				"z": -1.2265079934,
				"element": "C" 
			},
			{
				"x": -1.208834995,
				"y": -0.6288037113,
				"z": -2.2993575257,
				"element": "O" 
			},
			{
				"x": -3.0740951171,
				"y": -0.4470184736,
				"z": -1.072233811,
				"element": "O" 
			},
			{
				"x": 4.2890512268,
				"y": 1.0937331812,
				"z": -1.5923268022,
				"element": "H" 
			},
			{
				"x": 3.5336607095,
				"y": -0.4071795255,
				"z": -2.1606396284,
				"element": "H" 
			},
			{
				"x": 3.157660147,
				"y": 1.1217012785,
				"z": -2.9581557444,
				"element": "H" 
			},
			{
				"x": 3.0877799819,
				"y": 1.9927696122,
				"z": 0.6961956807,
				"element": "H" 
			},
			{
				"x": -1.4750388608,
				"y": 3.249517815,
				"z": 3.3100894631,
				"element": "H" 
			},
			{
				"x": -2.6564072374,
				"y": 1.9217703152,
				"z": 3.2701240529,
				"element": "H" 
			},
			{
				"x": -1.0997556985,
				"y": 1.724487783,
				"z": 4.1055938375,
				"element": "H" 
			},
			{
				"x": -2.7713287009,
				"y": 0.7695355759,
				"z": 1.1160505975,
				"element": "H" 
			},
			{
				"x": -0.2522540065,
				"y": -0.3545154066,
				"z": -2.2251817846,
				"element": "H" 
			}
		],
		 "valence_orbital": [ 
			{
				"type": "occ",
				"energy": -0.31053,
				"method": "rhf"
			},
			{
				"type": "occ",
				"energy": -0.28427,
				"method": "rhf"
			},
			{
				"type": "occ",
				"energy": -0.27978,
				"method": "rhf"
			},
			{
				"type": "occ",
				"energy": -0.26868,
				"method": "rhf"
			},
			{
				"type": "occ",
				"energy": -0.24006,
				"method": "rhf"
			},
			{
				"type": "unocc",
				"energy": -0.0863,
				"method": "rhf"
			},
			{
				"type": "unocc",
				"energy": -0.02893,
				"method": "rhf"
			},
			{
				"type": "unocc",
				"energy": 0.02078,
				"method": "rhf"
			},
			{
				"type": "unocc",
				"energy": 0.06477,
				"method": "rhf"
			},
			{
				"type": "unocc",
				"energy": 0.09331,
				"method": "rhf"
			}
		],
		"cosmo_sigma_profile": { 
			"-0.025": 0.0,
			"-0.024": 0.0,
			"-0.023": 0.0,
			"-0.022": 0.0,
			"-0.021": 0.0,
			"-0.02": 0.0,
			"-0.019": 0.0,
			"-0.018": 0.0,
			"-0.017": 0.0,
			"-0.016": 0.0,
			"-0.015": 0.0,
			"-0.014": 0.0,
			"-0.013": 0.0,
			"-0.012": 0.0,
			"-0.011": 0.0,
			"-0.01": 0.0,
			"-0.009": 0.067191782115,
			"-0.008": 2.75448244539,
			"-0.007": 5.42097277593,
			"-0.006": 9.74165041169,
			"-0.005": 19.9646365969,
			"-0.004": 18.4122613946,
			"-0.003": 21.583236163,
			"-0.002": 26.1080127415,
			"-0.001": 24.9022932171,
			"0.0": 13.6586680086,
			"0.001": 11.3010074606,
			"0.002": 10.6852516501,
			"0.003": 9.69066791232,
			"0.004": 7.06653591206,
			"0.005": 4.19757590698,
			"0.006": 3.38930549603,
			"0.007": 4.04921600658,
			"0.008": 3.2529045732,
			"0.009": 5.00390459725,
			"0.01": 6.27157598597,
			"0.011": 6.27745564167,
			"0.012": 3.82187430893,
			"0.013": 0.899141552959,
			"0.014": 0.704527661554,
			"0.015": 0.140184547887,
			"0.016": 0.0,
			"0.017": 0.0,
			"0.018": 0.0,
			"0.019": 0.0,
			"0.02": 0.0,
			"0.021": 0.0,
			"0.022": 0.0,
			"0.023": 0.0,
			"0.024": 0.0,
			"0.025": 0.0
		}
	}
}
