{
	 "smiles": "CC1=NN(C(=O)C1=C/C1=CC(C=C2C(C)=NN(C2=O)C2=CC=CC=C2)=CC=C1)C1=CC=CC=C1", 
	 "Tm": 493.15, 
	 "num_atms": 56, 
	 "gaussian": { 
		 "optdone": 1, 
		 "sigma_profile": "yes", 
		 "theory": "DFT", 
		 "functional": "B3LYP", 
		 "basiset": "6-31G**", 
		 "properties": { 
			 "R2extent": 27434.4338, 
			 "electric_dipole_moment_norm": 3.77479731641, 
			 "electric_quadrupole_moment_norm": 30.2076340302, 
			 "total_energy": -1449.66196458, 
			 "HOMO_LUMO_gap": 0.10288, 
			 "cosmo_polarized_energy": -17.78, 
			 "cosmo_cavitation_energy": 60.82, 
			 "cosmo_dispersion_energy": -43.26, 
			 "cosmo_repulsion_energy": 3.14, 
			 "cosmo_total_nonelectrostatic_energy": 20.71, 
			 "SMD_solvation_energy": 9.62 
		},
		"coords": [
			{
				"x": 2.3392429369,
				"y": -0.254232957,
				"z": 3.2586081955,
				"element": "C" 
			},
			{
				"x": 2.5928734245,
				"y": -1.6097819015,
				"z": 2.6807527732,
				"element": "C" 
			},
			{
				"x": 3.2624810389,
				"y": -2.500766892,
				"z": 3.3434880951,
				"element": "N" 
			},
			{
				"x": 3.3376246545,
				"y": -3.6549401801,
				"z": 2.5600603072,
				"element": "N" 
			},
			{
				"x": 2.6903692422,
				"y": -3.5092234746,
				"z": 1.3370490588,
				"element": "C" 
			},
			{
				"x": 2.6034616632,
				"y": -4.366444302,
				"z": 0.4591200017,
				"element": "O" 
			},
			{
				"x": 2.1610654592,
				"y": -2.1116554193,
				"z": 1.377263675,
				"element": "C" 
			},
			{
				"x": 1.4420355004,
				"y": -1.3728140264,
				"z": 0.4879015765,
				"element": "C" 
			},
			{
				"x": 0.8991344716,
				"y": -1.6241356076,
				"z": -0.8417251461,
				"element": "C" 
			},
			{
				"x": 0.1955781465,
				"y": -0.555185195,
				"z": -1.4291624618,
				"element": "C" 
			},
			{
				"x": -0.3769911239,
				"y": -0.6704863677,
				"z": -2.7085873039,
				"element": "C" 
			},
			{
				"x": -1.1184766182,
				"y": 0.3808350608,
				"z": -3.3882446158,
				"element": "C" 
			},
			{
				"x": -1.4675228078,
				"y": 1.6593834546,
				"z": -3.071762437,
				"element": "C" 
			},
			{
				"x": -2.2379404036,
				"y": 2.5299006866,
				"z": -3.9572848611,
				"element": "C" 
			},
			{
				"x": -2.7669976141,
				"y": 2.2018519703,
				"z": -5.3169588247,
				"element": "C" 
			},
			{
				"x": -2.4412815475,
				"y": 3.6971550256,
				"z": -3.4301015821,
				"element": "N" 
			},
			{
				"x": -1.8379407787,
				"y": 3.7124311322,
				"z": -2.1710163128,
				"element": "N" 
			},
			{
				"x": -1.2165507579,
				"y": 2.5058946923,
				"z": -1.8658922836,
				"element": "C" 
			},
			{
				"x": -0.6118046439,
				"y": 2.2476077335,
				"z": -0.825498466,
				"element": "O" 
			},
			{
				"x": -1.926427132,
				"y": 4.8966204945,
				"z": -1.392245758,
				"element": "C" 
			},
			{
				"x": -1.3390166046,
				"y": 4.9781929849,
				"z": -0.1197179773,
				"element": "C" 
			},
			{
				"x": -1.4506016886,
				"y": 6.1613720537,
				"z": 0.6104751374,
				"element": "C" 
			},
			{
				"x": -2.1351379868,
				"y": 7.2633884212,
				"z": 0.0980988327,
				"element": "C" 
			},
			{
				"x": -2.7157872816,
				"y": 7.1725676424,
				"z": -1.1680710506,
				"element": "C" 
			},
			{
				"x": -2.6169941829,
				"y": 6.0012106884,
				"z": -1.9149030613,
				"element": "C" 
			},
			{
				"x": -0.2272553828,
				"y": -1.8965655128,
				"z": -3.3960221133,
				"element": "C" 
			},
			{
				"x": 0.4660646583,
				"y": -2.9581483871,
				"z": -2.8242337324,
				"element": "C" 
			},
			{
				"x": 1.0304355748,
				"y": -2.8363390218,
				"z": -1.5563615485,
				"element": "C" 
			},
			{
				"x": 4.0301265963,
				"y": -4.7807587819,
				"z": 3.0776211828,
				"element": "C" 
			},
			{
				"x": 4.1379953669,
				"y": -5.9719771996,
				"z": 2.3421830257,
				"element": "C" 
			},
			{
				"x": 4.8277585178,
				"y": -7.0536312659,
				"z": 2.8896620619,
				"element": "C" 
			},
			{
				"x": 5.4114318565,
				"y": -6.9719941229,
				"z": 4.1539280481,
				"element": "C" 
			},
			{
				"x": 5.2987511052,
				"y": -5.7834945063,
				"z": 4.8774171874,
				"element": "C" 
			},
			{
				"x": 4.6147512781,
				"y": -4.6906772946,
				"z": 4.3506415971,
				"element": "C" 
			},
			{
				"x": 2.7929807693,
				"y": -0.1923457464,
				"z": 4.2493794814,
				"element": "H" 
			},
			{
				"x": 1.2657675315,
				"y": -0.0544083205,
				"z": 3.3524915705,
				"element": "H" 
			},
			{
				"x": 2.7657031977,
				"y": 0.534770594,
				"z": 2.6287672589,
				"element": "H" 
			},
			{
				"x": 1.2153755839,
				"y": -0.3658500605,
				"z": 0.837459547,
				"element": "H" 
			},
			{
				"x": 0.085223465,
				"y": 0.3821114132,
				"z": -0.8952015652,
				"element": "H" 
			},
			{
				"x": -1.4704438875,
				"y": 0.0665333098,
				"z": -4.3712335864,
				"element": "H" 
			},
			{
				"x": -1.9577912051,
				"y": 1.9419980183,
				"z": -6.009120228,
				"element": "H" 
			},
			{
				"x": -3.4578719702,
				"y": 1.3515823705,
				"z": -5.2829667309,
				"element": "H" 
			},
			{
				"x": -3.3003763658,
				"y": 3.066569028,
				"z": -5.7157770899,
				"element": "H" 
			},
			{
				"x": -0.8077645768,
				"y": 4.1277875984,
				"z": 0.2820136279,
				"element": "H" 
			},
			{
				"x": -0.9926377673,
				"y": 6.2146811012,
				"z": 1.5942234081,
				"element": "H" 
			},
			{
				"x": -2.2153057983,
				"y": 8.1791731089,
				"z": 0.6759735445,
				"element": "H" 
			},
			{
				"x": -3.2530516815,
				"y": 8.0201247445,
				"z": -1.584282589,
				"element": "H" 
			},
			{
				"x": -3.0660907079,
				"y": 5.9284123508,
				"z": -2.8964814614,
				"element": "H" 
			},
			{
				"x": -0.6620901983,
				"y": -2.0070189154,
				"z": -4.3862376384,
				"element": "H" 
			},
			{
				"x": 0.5697884293,
				"y": -3.8914783685,
				"z": -3.3689900401,
				"element": "H" 
			},
			{
				"x": 1.5717379816,
				"y": -3.6604538289,
				"z": -1.1060982271,
				"element": "H" 
			},
			{
				"x": 3.6880744248,
				"y": -6.0407893011,
				"z": 1.3624858376,
				"element": "H" 
			},
			{
				"x": 4.9055866104,
				"y": -7.9708824703,
				"z": 2.31261429,
				"element": "H" 
			},
			{
				"x": 5.9459431199,
				"y": -7.8209007881,
				"z": 4.5695991102,
				"element": "H" 
			},
			{
				"x": 5.7465061054,
				"y": -5.7003306957,
				"z": 5.8637977957,
				"element": "H" 
			},
			{
				"x": 4.5258820029,
				"y": -3.7684447671,
				"z": 4.9093024647,
				"element": "H" 
			}
		],
		 "valence_orbital": [ 
			{
				"type": "occ",
				"energy": -0.24636,
				"method": "rhf"
			},
			{
				"type": "occ",
				"energy": -0.24412,
				"method": "rhf"
			},
			{
				"type": "occ",
				"energy": -0.24207,
				"method": "rhf"
			},
			{
				"type": "occ",
				"energy": -0.21186,
				"method": "rhf"
			},
			{
				"type": "occ",
				"energy": -0.20717,
				"method": "rhf"
			},
			{
				"type": "unocc",
				"energy": -0.10429,
				"method": "rhf"
			},
			{
				"type": "unocc",
				"energy": -0.0961,
				"method": "rhf"
			},
			{
				"type": "unocc",
				"energy": -0.01238,
				"method": "rhf"
			},
			{
				"type": "unocc",
				"energy": -0.00986,
				"method": "rhf"
			},
			{
				"type": "unocc",
				"energy": -0.00574,
				"method": "rhf"
			}
		],
		"cosmo_sigma_profile": { 
			"-0.025": 0.0,
			"-0.024": 0.0,
			"-0.023": 0.0,
			"-0.022": 0.0,
			"-0.021": 0.0,
			"-0.02": 0.0,
			"-0.019": 0.0,
			"-0.018": 0.0,
			"-0.017": 0.0,
			"-0.016": 0.0,
			"-0.015": 0.0,
			"-0.014": 0.0,
			"-0.013": 0.0,
			"-0.012": 0.0,
			"-0.011": 0.0,
			"-0.01": 0.387419402005,
			"-0.009": 2.22865357395,
			"-0.008": 4.10018598863,
			"-0.007": 10.5495295208,
			"-0.006": 23.1374680583,
			"-0.005": 33.9878057389,
			"-0.004": 33.1270738828,
			"-0.003": 38.3046006825,
			"-0.002": 39.0372676565,
			"-0.001": 48.1719078196,
			"0.0": 44.4758008444,
			"0.001": 40.8585276492,
			"0.002": 38.0777057941,
			"0.003": 32.2148238873,
			"0.004": 27.721436339,
			"0.005": 28.7541900082,
			"0.006": 18.0081660281,
			"0.007": 6.34256511093,
			"0.008": 6.91237551896,
			"0.009": 6.68914978378,
			"0.01": 5.94864486108,
			"0.011": 1.545426498,
			"0.012": 0.0,
			"0.013": 0.0,
			"0.014": 0.0,
			"0.015": 0.0,
			"0.016": 0.0,
			"0.017": 0.0,
			"0.018": 0.0,
			"0.019": 0.0,
			"0.02": 0.0,
			"0.021": 0.0,
			"0.022": 0.0,
			"0.023": 0.0,
			"0.024": 0.0,
			"0.025": 0.0
		}
	}
}
