{
	 "smiles": "FC(F)(F)C1CCCC(=O)N1", 
	 "Tm": 397.15, 
	 "num_atms": 19, 
	 "gaussian": { 
		 "optdone": 1, 
		 "sigma_profile": "yes", 
		 "theory": "DFT", 
		 "functional": "B3LYP", 
		 "basiset": "6-31G**", 
		 "properties": { 
			 "R2extent": 2862.335, 
			 "electric_dipole_moment_norm": 3.45441599406, 
			 "electric_quadrupole_moment_norm": 14.3618633882, 
			 "total_energy": -662.988213188, 
			 "HOMO_LUMO_gap": 0.26681, 
			 "cosmo_polarized_energy": -10.83, 
			 "cosmo_cavitation_energy": 22.93, 
			 "cosmo_dispersion_energy": -16.63, 
			 "cosmo_repulsion_energy": 1.29, 
			 "cosmo_total_nonelectrostatic_energy": 7.59, 
			 "SMD_solvation_energy": 4.88 
		},
		"coords": [
			{
				"x": -0.2468266475,
				"y": 1.6904816829,
				"z": -1.8001941139,
				"element": "F" 
			},
			{
				"x": 0.6676879221,
				"y": 2.2325021032,
				"z": -0.9759780385,
				"element": "C" 
			},
			{
				"x": 1.3733511701,
				"y": 3.1394200277,
				"z": -1.6926215449,
				"element": "F" 
			},
			{
				"x": 0.0086032516,
				"y": 2.9003554164,
				"z": -0.0062501584,
				"element": "F" 
			},
			{
				"x": 1.6013462734,
				"y": 1.1903186862,
				"z": -0.3629237539,
				"element": "C" 
			},
			{
				"x": 0.8194097254,
				"y": 0.1188030385,
				"z": 0.4033801716,
				"element": "C" 
			},
			{
				"x": 1.7468640157,
				"y": -1.0399793154,
				"z": 0.7773820358,
				"element": "C" 
			},
			{
				"x": 2.3151959623,
				"y": -1.6845636882,
				"z": -0.492201439,
				"element": "C" 
			},
			{
				"x": 2.889733014,
				"y": -0.6871311615,
				"z": -1.4911787681,
				"element": "C" 
			},
			{
				"x": 3.7005885473,
				"y": -1.0089123197,
				"z": -2.3460525267,
				"element": "O" 
			},
			{
				"x": 2.4136726609,
				"y": 0.6042727526,
				"z": -1.4168189,
				"element": "N" 
			},
			{
				"x": 2.2312164329,
				"y": 1.7521991364,
				"z": 0.344732679,
				"element": "H" 
			},
			{
				"x": 0.3691473287,
				"y": 0.5781724367,
				"z": 1.2876020806,
				"element": "H" 
			},
			{
				"x": 0.0035895416,
				"y": -0.247724581,
				"z": -0.2299661396,
				"element": "H" 
			},
			{
				"x": 2.5644994435,
				"y": -0.6697028683,
				"z": 1.4095718329,
				"element": "H" 
			},
			{
				"x": 1.2043268352,
				"y": -1.7830922617,
				"z": 1.370532899,
				"element": "H" 
			},
			{
				"x": 1.52560075,
				"y": -2.2367647486,
				"z": -1.0190724166,
				"element": "H" 
			},
			{
				"x": 3.1064595505,
				"y": -2.4062681084,
				"z": -0.2748196178,
				"element": "H" 
			},
			{
				"x": 2.8665342222,
				"y": 1.2406137722,
				"z": -2.0617242816,
				"element": "H" 
			}
		],
		 "valence_orbital": [ 
			{
				"type": "occ",
				"energy": -0.36326,
				"method": "rhf"
			},
			{
				"type": "occ",
				"energy": -0.35442,
				"method": "rhf"
			},
			{
				"type": "occ",
				"energy": -0.35027,
				"method": "rhf"
			},
			{
				"type": "occ",
				"energy": -0.26201,
				"method": "rhf"
			},
			{
				"type": "occ",
				"energy": -0.24938,
				"method": "rhf"
			},
			{
				"type": "unocc",
				"energy": 0.01743,
				"method": "rhf"
			},
			{
				"type": "unocc",
				"energy": 0.07434,
				"method": "rhf"
			},
			{
				"type": "unocc",
				"energy": 0.09565,
				"method": "rhf"
			},
			{
				"type": "unocc",
				"energy": 0.1064,
				"method": "rhf"
			},
			{
				"type": "unocc",
				"energy": 0.12658,
				"method": "rhf"
			}
		],
		"cosmo_sigma_profile": { 
			"-0.025": 0.0,
			"-0.024": 0.0,
			"-0.023": 0.0,
			"-0.022": 0.0,
			"-0.021": 0.0,
			"-0.02": 0.0,
			"-0.019": 0.0,
			"-0.018": 0.0,
			"-0.017": 0.0,
			"-0.016": 0.0,
			"-0.015": 0.0,
			"-0.014": 0.0,
			"-0.013": 0.275693254787,
			"-0.012": 0.726567389944,
			"-0.011": 0.907784850445,
			"-0.01": 1.13904970177,
			"-0.009": 0.432989431319,
			"-0.008": 1.65108106378,
			"-0.007": 5.32354175575,
			"-0.006": 7.13905748595,
			"-0.005": 14.3269075555,
			"-0.004": 17.4776155191,
			"-0.003": 17.8243318635,
			"-0.002": 16.3220272815,
			"-0.001": 12.3371999831,
			"0.0": 8.92450619781,
			"0.001": 7.53794724417,
			"0.002": 22.1984677,
			"0.003": 22.2194226959,
			"0.004": 1.64379765642,
			"0.005": 1.29217474184,
			"0.006": 1.0201265259,
			"0.007": 0.923754017835,
			"0.008": 1.89951710322,
			"0.009": 1.26139047523,
			"0.01": 0.953528908017,
			"0.011": 1.54502182089,
			"0.012": 1.77333538639,
			"0.013": 4.30198985144,
			"0.014": 5.33425908369,
			"0.015": 1.3445797698,
			"0.016": 0.0,
			"0.017": 0.0,
			"0.018": 0.0,
			"0.019": 0.0,
			"0.02": 0.0,
			"0.021": 0.0,
			"0.022": 0.0,
			"0.023": 0.0,
			"0.024": 0.0,
			"0.025": 0.0
		}
	}
}
