{
	 "smiles": "CC(=O)C1CCC2C3CCC4CC(N)CCC4(C)C3CCC12C", 
	 "Tm": 399.15, 
	 "num_atms": 58, 
	 "gaussian": { 
		 "optdone": 1, 
		 "sigma_profile": "yes", 
		 "theory": "DFT", 
		 "functional": "B3LYP", 
		 "basiset": "6-31G**", 
		 "properties": { 
			 "R2extent": 9296.8081, 
			 "electric_dipole_moment_norm": 1.5732416248, 
			 "electric_quadrupole_moment_norm": 21.7182921193, 
			 "total_energy": -951.331610937, 
			 "HOMO_LUMO_gap": 0.21512, 
			 "cosmo_polarized_energy": -11.65, 
			 "cosmo_cavitation_energy": 48.35, 
			 "cosmo_dispersion_energy": -33.78, 
			 "cosmo_repulsion_energy": 2.47, 
			 "cosmo_total_nonelectrostatic_energy": 17.04, 
			 "SMD_solvation_energy": 5.79 
		},
		"coords": [
			{
				"x": -5.8735582876,
				"y": -1.3721725448,
				"z": -1.2874314391,
				"element": "C" 
			},
			{
				"x": -4.7144625305,
				"y": -0.3914865175,
				"z": -1.2637377997,
				"element": "C" 
			},
			{
				"x": -4.9128689904,
				"y": 0.8094220423,
				"z": -1.3465078104,
				"element": "O" 
			},
			{
				"x": -3.2873359605,
				"y": -0.9212905799,
				"z": -1.1310630358,
				"element": "C" 
			},
			{
				"x": -3.0375311376,
				"y": -2.4295612397,
				"z": -1.2769971554,
				"element": "C" 
			},
			{
				"x": -1.574803967,
				"y": -2.5674581611,
				"z": -0.8329492056,
				"element": "C" 
			},
			{
				"x": -1.4177255231,
				"y": -1.5884555043,
				"z": 0.3601735706,
				"element": "C" 
			},
			{
				"x": -0.0094554442,
				"y": -0.9614346531,
				"z": 0.4637400915,
				"element": "C" 
			},
			{
				"x": 1.0425281916,
				"y": -2.041524418,
				"z": 0.7593701252,
				"element": "C" 
			},
			{
				"x": 2.4442778777,
				"y": -1.4460388179,
				"z": 0.8795272106,
				"element": "C" 
			},
			{
				"x": 2.5280891578,
				"y": -0.3569554933,
				"z": 1.967218536,
				"element": "C" 
			},
			{
				"x": 3.9618211118,
				"y": 0.2113313357,
				"z": 2.1141797092,
				"element": "C" 
			},
			{
				"x": 4.4065510183,
				"y": 1.2228767258,
				"z": 1.0341120112,
				"element": "C" 
			},
			{
				"x": 4.8791029619,
				"y": 0.5402434854,
				"z": -0.1852903592,
				"element": "N" 
			},
			{
				"x": 3.3070099077,
				"y": 2.2845363114,
				"z": 0.7996568746,
				"element": "C" 
			},
			{
				"x": 1.9064754738,
				"y": 1.6768477847,
				"z": 0.6011163989,
				"element": "C" 
			},
			{
				"x": 1.4595646053,
				"y": 0.7717968258,
				"z": 1.7819920951,
				"element": "C" 
			},
			{
				"x": 1.3709090405,
				"y": 1.6032696694,
				"z": 3.0846714498,
				"element": "C" 
			},
			{
				"x": 0.0379410528,
				"y": 0.1371350513,
				"z": 1.5554439022,
				"element": "C" 
			},
			{
				"x": -1.0901927748,
				"y": 1.2014464065,
				"z": 1.3600535502,
				"element": "C" 
			},
			{
				"x": -2.0312507468,
				"y": 0.8952227333,
				"z": 0.1859019647,
				"element": "C" 
			},
			{
				"x": -2.589314844,
				"y": -0.5376883415,
				"z": 0.2283032036,
				"element": "C" 
			},
			{
				"x": -3.5654846338,
				"y": -0.6957028242,
				"z": 1.4127649849,
				"element": "C" 
			},
			{
				"x": -6.8088313516,
				"y": -0.8221165571,
				"z": -1.4001565073,
				"element": "H" 
			},
			{
				"x": -5.7620642849,
				"y": -2.0869062647,
				"z": -2.1106517615,
				"element": "H" 
			},
			{
				"x": -5.9019970657,
				"y": -1.9587641526,
				"z": -0.3620641699,
				"element": "H" 
			},
			{
				"x": -2.7270705642,
				"y": -0.4088173031,
				"z": -1.9253635611,
				"element": "H" 
			},
			{
				"x": -3.2106076137,
				"y": -2.7978805282,
				"z": -2.2939677077,
				"element": "H" 
			},
			{
				"x": -3.6921196191,
				"y": -3.0027349617,
				"z": -0.6090885012,
				"element": "H" 
			},
			{
				"x": -1.3037303256,
				"y": -3.5963501363,
				"z": -0.5779440021,
				"element": "H" 
			},
			{
				"x": -0.9162513979,
				"y": -2.2584630684,
				"z": -1.6560713568,
				"element": "H" 
			},
			{
				"x": -1.5796446576,
				"y": -2.1511449121,
				"z": 1.2905053798,
				"element": "H" 
			},
			{
				"x": 0.2337174965,
				"y": -0.5134053685,
				"z": -0.5118664755,
				"element": "H" 
			},
			{
				"x": 0.7742913841,
				"y": -2.547857916,
				"z": 1.6989887354,
				"element": "H" 
			},
			{
				"x": 1.0300939747,
				"y": -2.8110441962,
				"z": -0.0215632719,
				"element": "H" 
			},
			{
				"x": 2.7312681899,
				"y": -1.0482153024,
				"z": -0.1003202847,
				"element": "H" 
			},
			{
				"x": 3.1759200893,
				"y": -2.2311273201,
				"z": 1.1057488091,
				"element": "H" 
			},
			{
				"x": 2.2906616282,
				"y": -0.8621763818,
				"z": 2.9167659719,
				"element": "H" 
			},
			{
				"x": 4.6822165705,
				"y": -0.6141115039,
				"z": 2.1278922538,
				"element": "H" 
			},
			{
				"x": 4.0430595936,
				"y": 0.7084626403,
				"z": 3.0877579814,
				"element": "H" 
			},
			{
				"x": 5.2919361525,
				"y": 1.7383049969,
				"z": 1.428463436,
				"element": "H" 
			},
			{
				"x": 4.0941582271,
				"y": 0.1734291959,
				"z": -0.7173131108,
				"element": "H" 
			},
			{
				"x": 5.3238997477,
				"y": 1.2256284157,
				"z": -0.7932285581,
				"element": "H" 
			},
			{
				"x": 3.5734243735,
				"y": 2.8926423721,
				"z": -0.0748460883,
				"element": "H" 
			},
			{
				"x": 3.2863487845,
				"y": 2.9762442554,
				"z": 1.6509012464,
				"element": "H" 
			},
			{
				"x": 1.1898092348,
				"y": 2.4914664575,
				"z": 0.4513679918,
				"element": "H" 
			},
			{
				"x": 1.8947225455,
				"y": 1.0975531273,
				"z": -0.3311502742,
				"element": "H" 
			},
			{
				"x": 1.0336432519,
				"y": 0.9725892092,
				"z": 3.9154019977,
				"element": "H" 
			},
			{
				"x": 2.3284251314,
				"y": 2.0387818184,
				"z": 3.3770555115,
				"element": "H" 
			},
			{
				"x": 0.6591606612,
				"y": 2.4286676912,
				"z": 2.9859134516,
				"element": "H" 
			},
			{
				"x": -0.1793509789,
				"y": -0.3956500394,
				"z": 2.4947985081,
				"element": "H" 
			},
			{
				"x": -1.6721772558,
				"y": 1.2899773368,
				"z": 2.283925897,
				"element": "H" 
			},
			{
				"x": -0.663904445,
				"y": 2.1950936383,
				"z": 1.1943420602,
				"element": "H" 
			},
			{
				"x": -2.8575478422,
				"y": 1.61328646,
				"z": 0.1572616369,
				"element": "H" 
			},
			{
				"x": -1.4845095727,
				"y": 1.0331222641,
				"z": -0.7556092194,
				"element": "H" 
			},
			{
				"x": -3.9983887699,
				"y": -1.7021533742,
				"z": 1.4451211818,
				"element": "H" 
			},
			{
				"x": -3.0499229258,
				"y": -0.5433499244,
				"z": 2.3659774939,
				"element": "H" 
			},
			{
				"x": -4.3844239254,
				"y": 0.0292600557,
				"z": 1.3593664331,
				"element": "H" 
			}
		],
		 "valence_orbital": [ 
			{
				"type": "occ",
				"energy": -0.28488,
				"method": "rhf"
			},
			{
				"type": "occ",
				"energy": -0.27117,
				"method": "rhf"
			},
			{
				"type": "occ",
				"energy": -0.26853,
				"method": "rhf"
			},
			{
				"type": "occ",
				"energy": -0.23551,
				"method": "rhf"
			},
			{
				"type": "occ",
				"energy": -0.22699,
				"method": "rhf"
			},
			{
				"type": "unocc",
				"energy": -0.01187,
				"method": "rhf"
			},
			{
				"type": "unocc",
				"energy": 0.06695,
				"method": "rhf"
			},
			{
				"type": "unocc",
				"energy": 0.06904,
				"method": "rhf"
			},
			{
				"type": "unocc",
				"energy": 0.0753,
				"method": "rhf"
			},
			{
				"type": "unocc",
				"energy": 0.08937,
				"method": "rhf"
			}
		],
		"cosmo_sigma_profile": { 
			"-0.025": 0.0,
			"-0.024": 0.0,
			"-0.023": 0.0,
			"-0.022": 0.0,
			"-0.021": 0.0,
			"-0.02": 0.0,
			"-0.019": 0.0,
			"-0.018": 0.0,
			"-0.017": 0.0,
			"-0.016": 0.0,
			"-0.015": 0.0,
			"-0.014": 0.0,
			"-0.013": 0.0,
			"-0.012": 0.0,
			"-0.011": 0.0,
			"-0.01": 0.0,
			"-0.009": 0.923364478123,
			"-0.008": 2.54841601464,
			"-0.007": 3.07744559852,
			"-0.006": 3.76338224749,
			"-0.005": 9.60294971033,
			"-0.004": 14.6739502895,
			"-0.003": 29.7407432241,
			"-0.002": 54.0956039384,
			"-0.001": 75.126805861,
			"0.0": 64.8359355108,
			"0.001": 47.4525970929,
			"0.002": 21.4583250757,
			"0.003": 5.12251304336,
			"0.004": 3.85405764841,
			"0.005": 2.75021649125,
			"0.006": 2.30020422415,
			"0.007": 3.11138749033,
			"0.008": 3.15302953497,
			"0.009": 1.80405948698,
			"0.01": 2.88749336259,
			"0.011": 2.89100188617,
			"0.012": 4.38456888243,
			"0.013": 4.12908126351,
			"0.014": 1.37643182176,
			"0.015": 0.59523599361,
			"0.016": 0.420234033187,
			"0.017": 0.601349747966,
			"0.018": 0.54034486621,
			"0.019": 0.657193960317,
			"0.02": 0.318638962969,
			"0.021": 0.0687957662427,
			"0.022": 0.0,
			"0.023": 0.0,
			"0.024": 0.0,
			"0.025": 0.0
		}
	}
}
