{
	 "smiles": "CN1C(C)=NC2=C1C=CC(N)=C2", 
	 "Tm": 438.15, 
	 "num_atms": 23, 
	 "gaussian": { 
		 "optdone": 1, 
		 "sigma_profile": "yes", 
		 "theory": "DFT", 
		 "functional": "B3LYP", 
		 "basiset": "6-31G**", 
		 "properties": { 
			 "R2extent": 2551.1074, 
			 "electric_dipole_moment_norm": 3.17998159743, 
			 "electric_quadrupole_moment_norm": 15.3114448672, 
			 "total_energy": -513.861198556, 
			 "HOMO_LUMO_gap": 0.17779, 
			 "cosmo_polarized_energy": -15.25, 
			 "cosmo_cavitation_energy": 26.15, 
			 "cosmo_dispersion_energy": -19.43, 
			 "cosmo_repulsion_energy": 1.54, 
			 "cosmo_total_nonelectrostatic_energy": 8.26, 
			 "SMD_solvation_energy": 2.4 
		},
		"coords": [
			{
				"x": 2.3861886322,
				"y": 1.5567635669,
				"z": -1.1266219478,
				"element": "C" 
			},
			{
				"x": 1.7203083051,
				"y": 1.0929447872,
				"z": 0.0726376722,
				"element": "N" 
			},
			{
				"x": 1.7354370249,
				"y": 1.6551259039,
				"z": 1.3375321375,
				"element": "C" 
			},
			{
				"x": 2.494617197,
				"y": 2.9015920278,
				"z": 1.6622893718,
				"element": "C" 
			},
			{
				"x": 1.0184565243,
				"y": 0.9829397351,
				"z": 2.2119473953,
				"element": "N" 
			},
			{
				"x": 0.4896869559,
				"y": -0.086836564,
				"z": 1.5049618567,
				"element": "C" 
			},
			{
				"x": 0.9172427182,
				"y": -0.0389757816,
				"z": 0.1594695063,
				"element": "C" 
			},
			{
				"x": 0.5315520883,
				"y": -1.0034773434,
				"z": -0.7703298934,
				"element": "C" 
			},
			{
				"x": -0.3003001788,
				"y": -2.0257086963,
				"z": -0.3215004863,
				"element": "C" 
			},
			{
				"x": -0.7420955315,
				"y": -2.0965977512,
				"z": 1.0230749462,
				"element": "C" 
			},
			{
				"x": -1.6311307299,
				"y": -3.1193198965,
				"z": 1.402193889,
				"element": "N" 
			},
			{
				"x": -0.3432582741,
				"y": -1.1214239656,
				"z": 1.9435762374,
				"element": "C" 
			},
			{
				"x": 2.9490622772,
				"y": 2.4644148189,
				"z": -0.9072034665,
				"element": "H" 
			},
			{
				"x": 3.0829194649,
				"y": 0.7991506702,
				"z": -1.5033179382,
				"element": "H" 
			},
			{
				"x": 1.6584005377,
				"y": 1.7816921344,
				"z": -1.9146632595,
				"element": "H" 
			},
			{
				"x": 3.5707174187,
				"y": 2.7871618791,
				"z": 1.4859604212,
				"element": "H" 
			},
			{
				"x": 2.3397322359,
				"y": 3.1244549102,
				"z": 2.7182824729,
				"element": "H" 
			},
			{
				"x": 2.1503668405,
				"y": 3.7595298319,
				"z": 1.0727249008,
				"element": "H" 
			},
			{
				"x": 0.8581435071,
				"y": -0.9733781689,
				"z": -1.8057025519,
				"element": "H" 
			},
			{
				"x": -0.6301915557,
				"y": -2.7898395633,
				"z": -1.0207651221,
				"element": "H" 
			},
			{
				"x": -1.5242490443,
				"y": -3.9741780894,
				"z": 0.871558029,
				"element": "H" 
			},
			{
				"x": -1.627577275,
				"y": -3.3150953369,
				"z": 2.3948629468,
				"element": "H" 
			},
			{
				"x": -0.6718291386,
				"y": -1.1565391086,
				"z": 2.9783328829,
				"element": "H" 
			}
		],
		 "valence_orbital": [ 
			{
				"type": "occ",
				"energy": -0.28626,
				"method": "rhf"
			},
			{
				"type": "occ",
				"energy": -0.26966,
				"method": "rhf"
			},
			{
				"type": "occ",
				"energy": -0.25431,
				"method": "rhf"
			},
			{
				"type": "occ",
				"energy": -0.20885,
				"method": "rhf"
			},
			{
				"type": "occ",
				"energy": -0.18118,
				"method": "rhf"
			},
			{
				"type": "unocc",
				"energy": -0.00339,
				"method": "rhf"
			},
			{
				"type": "unocc",
				"energy": 0.04251,
				"method": "rhf"
			},
			{
				"type": "unocc",
				"energy": 0.06778,
				"method": "rhf"
			},
			{
				"type": "unocc",
				"energy": 0.0831,
				"method": "rhf"
			},
			{
				"type": "unocc",
				"energy": 0.09337,
				"method": "rhf"
			}
		],
		"cosmo_sigma_profile": { 
			"-0.025": 0.0,
			"-0.024": 0.0,
			"-0.023": 0.0,
			"-0.022": 0.0,
			"-0.021": 0.0,
			"-0.02": 0.0,
			"-0.019": 0.0,
			"-0.018": 0.0,
			"-0.017": 0.0,
			"-0.016": 0.0,
			"-0.015": 0.0,
			"-0.014": 0.0,
			"-0.013": 0.0,
			"-0.012": 1.05334474119,
			"-0.011": 2.46812807755,
			"-0.01": 3.11109528321,
			"-0.009": 2.40129121634,
			"-0.008": 2.8758183653,
			"-0.007": 4.23116281102,
			"-0.006": 13.1443825138,
			"-0.005": 21.7360056711,
			"-0.004": 19.9514387461,
			"-0.003": 20.8788526315,
			"-0.002": 13.1159769776,
			"-0.001": 12.7293093929,
			"0.0": 8.15723995543,
			"0.001": 6.72984319332,
			"0.002": 7.64159209421,
			"0.003": 7.02038032778,
			"0.004": 7.79338027144,
			"0.005": 9.52646340661,
			"0.006": 11.8699461867,
			"0.007": 9.94794757206,
			"0.008": 3.54630171716,
			"0.009": 2.95709671812,
			"0.01": 0.93840195341,
			"0.011": 2.50432931707,
			"0.012": 2.15232299569,
			"0.013": 1.67927089905,
			"0.014": 1.571244857,
			"0.015": 2.00503766901,
			"0.016": 1.27203537401,
			"0.017": 1.15438192574,
			"0.018": 0.727019310264,
			"0.019": 0.191021546363,
			"0.02": 0.0,
			"0.021": 0.0,
			"0.022": 0.0,
			"0.023": 0.0,
			"0.024": 0.0,
			"0.025": 0.0
		}
	}
}
