{
	 "smiles": "NC1=C(Cl)C(=CC(=C1)C#N)[N+]([O-])=O", 
	 "Tm": 479.15, 
	 "num_atms": 17, 
	 "gaussian": { 
		 "optdone": 1, 
		 "sigma_profile": "yes", 
		 "theory": "DFT", 
		 "functional": "B3LYP", 
		 "basiset": "6-31G**", 
		 "properties": { 
			 "R2extent": 3520.4604, 
			 "electric_dipole_moment_norm": 5.78576021366, 
			 "electric_quadrupole_moment_norm": 23.5082067266, 
			 "total_energy": -1043.91994732, 
			 "HOMO_LUMO_gap": 0.1475, 
			 "cosmo_polarized_energy": -16.55, 
			 "cosmo_cavitation_energy": 25.42, 
			 "cosmo_dispersion_energy": -18.28, 
			 "cosmo_repulsion_energy": 1.45, 
			 "cosmo_total_nonelectrostatic_energy": 8.59, 
			 "SMD_solvation_energy": 7.81 
		},
		"coords": [
			{
				"x": -1.1752423242,
				"y": -3.399168416,
				"z": 0.3598462106,
				"element": "N" 
			},
			{
				"x": -0.5429122937,
				"y": -2.2444723114,
				"z": 0.7502489966,
				"element": "C" 
			},
			{
				"x": -1.2769051709,
				"y": -1.0678300592,
				"z": 1.0456161871,
				"element": "C" 
			},
			{
				"x": -3.0099640595,
				"y": -1.1328810703,
				"z": 0.8705587895,
				"element": "Cl" 
			},
			{
				"x": -0.6020412716,
				"y": 0.0668635306,
				"z": 1.5120516241,
				"element": "C" 
			},
			{
				"x": 0.7748679892,
				"y": 0.0787475254,
				"z": 1.7049143963,
				"element": "C" 
			},
			{
				"x": 1.5030670374,
				"y": -1.0734099218,
				"z": 1.3875526359,
				"element": "C" 
			},
			{
				"x": 0.8525198224,
				"y": -2.2161522159,
				"z": 0.9142054475,
				"element": "C" 
			},
			{
				"x": 2.9286775522,
				"y": -1.0862141061,
				"z": 1.5487907301,
				"element": "C" 
			},
			{
				"x": 4.0843169169,
				"y": -1.1029822542,
				"z": 1.6752230056,
				"element": "N" 
			},
			{
				"x": -1.3012297527,
				"y": 1.3342156448,
				"z": 1.8110441709,
				"element": "N" 
			},
			{
				"x": -2.2283898215,
				"y": 1.6655775945,
				"z": 1.0813026083,
				"element": "O" 
			},
			{
				"x": -0.8694440362,
				"y": 1.9862025938,
				"z": 2.7593182778,
				"element": "O" 
			},
			{
				"x": -2.1225072564,
				"y": -3.3266439227,
				"z": 0.0213170747,
				"element": "H" 
			},
			{
				"x": -0.6124150262,
				"y": -4.1149910611,
				"z": -0.0722794843,
				"element": "H" 
			},
			{
				"x": 1.2537495846,
				"y": 0.9697455531,
				"z": 2.0875548428,
				"element": "H" 
			},
			{
				"x": 1.4309521102,
				"y": -3.1047071036,
				"z": 0.6833344867,
				"element": "H" 
			}
		],
		 "valence_orbital": [ 
			{
				"type": "occ",
				"energy": -0.32207,
				"method": "rhf"
			},
			{
				"type": "occ",
				"energy": -0.31834,
				"method": "rhf"
			},
			{
				"type": "occ",
				"energy": -0.30522,
				"method": "rhf"
			},
			{
				"type": "occ",
				"energy": -0.2853,
				"method": "rhf"
			},
			{
				"type": "occ",
				"energy": -0.2489,
				"method": "rhf"
			},
			{
				"type": "unocc",
				"energy": -0.1014,
				"method": "rhf"
			},
			{
				"type": "unocc",
				"energy": -0.06689,
				"method": "rhf"
			},
			{
				"type": "unocc",
				"energy": -0.02631,
				"method": "rhf"
			},
			{
				"type": "unocc",
				"energy": -0.0043,
				"method": "rhf"
			},
			{
				"type": "unocc",
				"energy": 0.0201,
				"method": "rhf"
			}
		],
		"cosmo_sigma_profile": { 
			"-0.025": 0.0,
			"-0.024": 0.0,
			"-0.023": 0.0,
			"-0.022": 0.0,
			"-0.021": 0.0,
			"-0.02": 0.0,
			"-0.019": 0.0,
			"-0.018": 0.0,
			"-0.017": 0.0,
			"-0.016": 0.0,
			"-0.015": 0.895003482332,
			"-0.014": 2.18365441677,
			"-0.013": 2.84522032305,
			"-0.012": 2.10961367779,
			"-0.011": 3.41545657327,
			"-0.01": 3.09320132562,
			"-0.009": 5.31099728015,
			"-0.008": 6.11690424286,
			"-0.007": 6.89571853067,
			"-0.006": 5.50755423244,
			"-0.005": 7.00941109149,
			"-0.004": 7.73909485109,
			"-0.003": 12.0544217544,
			"-0.002": 19.1080965571,
			"-0.001": 19.7827783635,
			"0.0": 12.787550626,
			"0.001": 8.81334621205,
			"0.002": 10.8336353441,
			"0.003": 8.44877614464,
			"0.004": 6.52983661158,
			"0.005": 6.45358328189,
			"0.006": 10.0500777725,
			"0.007": 15.4383064614,
			"0.008": 9.63486947889,
			"0.009": 6.37049998242,
			"0.01": 3.32934898489,
			"0.011": 2.54480319199,
			"0.012": 2.12292418404,
			"0.013": 0.359931350111,
			"0.014": 0.0,
			"0.015": 0.0,
			"0.016": 0.0,
			"0.017": 0.0,
			"0.018": 0.0,
			"0.019": 0.0,
			"0.02": 0.0,
			"0.021": 0.0,
			"0.022": 0.0,
			"0.023": 0.0,
			"0.024": 0.0,
			"0.025": 0.0
		}
	}
}
