{
	 "smiles": "OC(=O)C1=CC=C(C=C1)C1=CC(C=O)=CC=C1", 
	 "Tm": 505.15, 
	 "num_atms": 27, 
	 "gaussian": { 
		 "optdone": 1, 
		 "sigma_profile": "yes", 
		 "theory": "DFT", 
		 "functional": "B3LYP", 
		 "basiset": "6-31G**", 
		 "properties": { 
			 "R2extent": 6186.4216, 
			 "electric_dipole_moment_norm": 1.72520370391, 
			 "electric_quadrupole_moment_norm": 42.5048555049, 
			 "total_energy": -765.196055115, 
			 "HOMO_LUMO_gap": 0.1744, 
			 "cosmo_polarized_energy": -19.47, 
			 "cosmo_cavitation_energy": 32.68, 
			 "cosmo_dispersion_energy": -23.54, 
			 "cosmo_repulsion_energy": 1.79, 
			 "cosmo_total_nonelectrostatic_energy": 10.93, 
			 "SMD_solvation_energy": 7.55 
		},
		"coords": [
			{
				"x": -0.6924939164,
				"y": -0.5807465094,
				"z": -5.6937889757,
				"element": "O" 
			},
			{
				"x": -0.1218982912,
				"y": -1.4380833141,
				"z": -4.804960604,
				"element": "C" 
			},
			{
				"x": 0.2284456344,
				"y": -2.5369762347,
				"z": -5.165864466,
				"element": "O" 
			},
			{
				"x": 0.0371704434,
				"y": -0.9467085617,
				"z": -3.397927571,
				"element": "C" 
			},
			{
				"x": 0.0387082226,
				"y": 0.4115802885,
				"z": -3.0510649181,
				"element": "C" 
			},
			{
				"x": 0.2084465864,
				"y": 0.8032827158,
				"z": -1.7260145267,
				"element": "C" 
			},
			{
				"x": 0.377753068,
				"y": -0.1498471822,
				"z": -0.7077319702,
				"element": "C" 
			},
			{
				"x": 0.3865643277,
				"y": -1.5100454154,
				"z": -1.0671062338,
				"element": "C" 
			},
			{
				"x": 0.2292076915,
				"y": -1.9020061115,
				"z": -2.3907634773,
				"element": "C" 
			},
			{
				"x": 0.5503272214,
				"y": 0.268764201,
				"z": 0.7059946687,
				"element": "C" 
			},
			{
				"x": -0.167349295,
				"y": 1.3535691603,
				"z": 1.2321861585,
				"element": "C" 
			},
			{
				"x": -0.0055661997,
				"y": 1.7472625991,
				"z": 2.5639839454,
				"element": "C" 
			},
			{
				"x": -0.7870519164,
				"y": 2.8917460908,
				"z": 3.090186547,
				"element": "C" 
			},
			{
				"x": -0.7135189609,
				"y": 3.3106496729,
				"z": 4.2289452196,
				"element": "O" 
			},
			{
				"x": 0.8857356831,
				"y": 1.0576255971,
				"z": 3.3990939744,
				"element": "C" 
			},
			{
				"x": 1.6035099861,
				"y": -0.019539268,
				"z": 2.8908133686,
				"element": "C" 
			},
			{
				"x": 1.4377252417,
				"y": -0.4098122967,
				"z": 1.5593116274,
				"element": "C" 
			},
			{
				"x": -1.0676638496,
				"y": 0.1810651389,
				"z": -5.23115473,
				"element": "H" 
			},
			{
				"x": -0.0419524138,
				"y": 1.1818184024,
				"z": -3.8146470647,
				"element": "H" 
			},
			{
				"x": 0.2446198127,
				"y": 1.8605934917,
				"z": -1.4827137058,
				"element": "H" 
			},
			{
				"x": 0.4957723728,
				"y": -2.2663817864,
				"z": -0.2959976594,
				"element": "H" 
			},
			{
				"x": 0.2410022618,
				"y": -2.9502408715,
				"z": -2.6692124292,
				"element": "H" 
			},
			{
				"x": -0.8810845178,
				"y": 1.8841903658,
				"z": 0.6063010582,
				"element": "H" 
			},
			{
				"x": -1.4717502934,
				"y": 3.3639367316,
				"z": 2.3504077016,
				"element": "H" 
			},
			{
				"x": 0.9934647286,
				"y": 1.3838886271,
				"z": 4.4284231113,
				"element": "H" 
			},
			{
				"x": 2.3023169868,
				"y": -0.5577207225,
				"z": 3.524217687,
				"element": "H" 
			},
			{
				"x": 2.0230593852,
				"y": -1.2368648089,
				"z": 1.1686832641,
				"element": "H" 
			}
		],
		 "valence_orbital": [ 
			{
				"type": "occ",
				"energy": -0.28049,
				"method": "rhf"
			},
			{
				"type": "occ",
				"energy": -0.27828,
				"method": "rhf"
			},
			{
				"type": "occ",
				"energy": -0.27605,
				"method": "rhf"
			},
			{
				"type": "occ",
				"energy": -0.26411,
				"method": "rhf"
			},
			{
				"type": "occ",
				"energy": -0.25136,
				"method": "rhf"
			},
			{
				"type": "unocc",
				"energy": -0.07696,
				"method": "rhf"
			},
			{
				"type": "unocc",
				"energy": -0.06458,
				"method": "rhf"
			},
			{
				"type": "unocc",
				"energy": -0.03162,
				"method": "rhf"
			},
			{
				"type": "unocc",
				"energy": -0.01826,
				"method": "rhf"
			},
			{
				"type": "unocc",
				"energy": 0.02317,
				"method": "rhf"
			}
		],
		"cosmo_sigma_profile": { 
			"-0.025": 0.0,
			"-0.024": 0.0,
			"-0.023": 0.0,
			"-0.022": 0.0,
			"-0.021": 0.0,
			"-0.02": 0.0,
			"-0.019": 0.306281254162,
			"-0.018": 0.676297140881,
			"-0.017": 1.02247026618,
			"-0.016": 0.844238677442,
			"-0.015": 1.05297041519,
			"-0.014": 0.775336415313,
			"-0.013": 1.28985438066,
			"-0.012": 1.29715857609,
			"-0.011": 0.977718789499,
			"-0.01": 0.995458510647,
			"-0.009": 1.755944124,
			"-0.008": 3.35500711004,
			"-0.007": 12.9058097163,
			"-0.006": 19.8472629916,
			"-0.005": 17.5956741756,
			"-0.004": 15.4382064916,
			"-0.003": 15.2367500964,
			"-0.002": 14.9788210744,
			"-0.001": 13.4542451762,
			"0.0": 16.6062799199,
			"0.001": 21.018947784,
			"0.002": 23.9993819793,
			"0.003": 23.6582806976,
			"0.004": 5.33074090922,
			"0.005": 4.54018780569,
			"0.006": 3.33110479762,
			"0.007": 4.17664140688,
			"0.008": 4.99609874437,
			"0.009": 4.51647222735,
			"0.01": 7.56954215922,
			"0.011": 9.49028577774,
			"0.012": 7.6899893569,
			"0.013": 2.15392474193,
			"0.014": 0.041151222202,
			"0.015": 0.0,
			"0.016": 0.0,
			"0.017": 0.0,
			"0.018": 0.0,
			"0.019": 0.0,
			"0.02": 0.0,
			"0.021": 0.0,
			"0.022": 0.0,
			"0.023": 0.0,
			"0.024": 0.0,
			"0.025": 0.0
		}
	}
}
