{
	 "smiles": "COC1=C(OC)C=C(C=C[N+]([O-])=O)C=C1", 
	 "Tm": 414.15, 
	 "num_atms": 26, 
	 "gaussian": { 
		 "optdone": 1, 
		 "sigma_profile": "yes", 
		 "theory": "DFT", 
		 "functional": "B3LYP", 
		 "basiset": "6-31G**", 
		 "properties": { 
			 "R2extent": 4639.7821, 
			 "electric_dipole_moment_norm": 5.81297398067, 
			 "electric_quadrupole_moment_norm": 19.8550814718, 
			 "total_energy": -743.181527023, 
			 "HOMO_LUMO_gap": 0.14325, 
			 "cosmo_polarized_energy": -11.8, 
			 "cosmo_cavitation_energy": 30.74, 
			 "cosmo_dispersion_energy": -22.14, 
			 "cosmo_repulsion_energy": 1.74, 
			 "cosmo_total_nonelectrostatic_energy": 10.34, 
			 "SMD_solvation_energy": 9.32 
		},
		"coords": [
			{
				"x": -3.0432933259,
				"y": 2.3460712495,
				"z": 1.4488926538,
				"element": "C" 
			},
			{
				"x": -2.5484352022,
				"y": 1.0021570078,
				"z": 1.563352628,
				"element": "O" 
			},
			{
				"x": -1.5737623513,
				"y": 0.6448278667,
				"z": 0.6718729633,
				"element": "C" 
			},
			{
				"x": -0.3050130573,
				"y": 1.2616711619,
				"z": 0.6550914432,
				"element": "C" 
			},
			{
				"x": 0.0126671744,
				"y": 2.2904861244,
				"z": 1.5133383523,
				"element": "O" 
			},
			{
				"x": 0.1553588962,
				"y": 1.9001539346,
				"z": 2.8862646842,
				"element": "C" 
			},
			{
				"x": 0.6424457355,
				"y": 0.8423163552,
				"z": -0.2691503686,
				"element": "C" 
			},
			{
				"x": 0.3825293312,
				"y": -0.1954058945,
				"z": -1.1937669553,
				"element": "C" 
			},
			{
				"x": 1.4853347295,
				"y": -0.5179037122,
				"z": -2.0939147026,
				"element": "C" 
			},
			{
				"x": 1.7472616885,
				"y": -1.3288077244,
				"z": -3.1436719065,
				"element": "C" 
			},
			{
				"x": 0.8982760148,
				"y": -2.2630602231,
				"z": -3.8425487916,
				"element": "N" 
			},
			{
				"x": 1.4522451764,
				"y": -2.9046674497,
				"z": -4.7414195124,
				"element": "O" 
			},
			{
				"x": -0.2963344962,
				"y": -2.3792572303,
				"z": -3.5489788827,
				"element": "O" 
			},
			{
				"x": -0.8777140915,
				"y": -0.8270950234,
				"z": -1.1349220305,
				"element": "C" 
			},
			{
				"x": -1.829863632,
				"y": -0.4057899987,
				"z": -0.2147737996,
				"element": "C" 
			},
			{
				"x": -3.5238975092,
				"y": 2.4926324192,
				"z": 0.4743920278,
				"element": "H" 
			},
			{
				"x": -2.2438179562,
				"y": 3.0803849673,
				"z": 1.5770078466,
				"element": "H" 
			},
			{
				"x": -3.7869209864,
				"y": 2.4600804479,
				"z": 2.2392787938,
				"element": "H" 
			},
			{
				"x": 0.399562465,
				"y": 2.8098086449,
				"z": 3.4380022547,
				"element": "H" 
			},
			{
				"x": 0.9716671275,
				"y": 1.1762876587,
				"z": 2.9995025185,
				"element": "H" 
			},
			{
				"x": -0.7708771512,
				"y": 1.4671816896,
				"z": 3.277071596,
				"element": "H" 
			},
			{
				"x": 1.6061256719,
				"y": 1.3432886507,
				"z": -0.2573805521,
				"element": "H" 
			},
			{
				"x": 2.3752517357,
				"y": 0.0642977547,
				"z": -1.8550762986,
				"element": "H" 
			},
			{
				"x": 2.7303953928,
				"y": -1.3335700528,
				"z": -3.5937797012,
				"element": "H" 
			},
			{
				"x": -1.1020470317,
				"y": -1.6294171104,
				"z": -1.8204441154,
				"element": "H" 
			},
			{
				"x": -2.8057443483,
				"y": -0.8786715137,
				"z": -0.1719401454,
				"element": "H" 
			}
		],
		 "valence_orbital": [ 
			{
				"type": "occ",
				"energy": -0.29807,
				"method": "rhf"
			},
			{
				"type": "occ",
				"energy": -0.28027,
				"method": "rhf"
			},
			{
				"type": "occ",
				"energy": -0.27706,
				"method": "rhf"
			},
			{
				"type": "occ",
				"energy": -0.25767,
				"method": "rhf"
			},
			{
				"type": "occ",
				"energy": -0.23754,
				"method": "rhf"
			},
			{
				"type": "unocc",
				"energy": -0.09429,
				"method": "rhf"
			},
			{
				"type": "unocc",
				"energy": -0.02177,
				"method": "rhf"
			},
			{
				"type": "unocc",
				"energy": -0.01349,
				"method": "rhf"
			},
			{
				"type": "unocc",
				"energy": 0.05318,
				"method": "rhf"
			},
			{
				"type": "unocc",
				"energy": 0.06582,
				"method": "rhf"
			}
		],
		"cosmo_sigma_profile": { 
			"-0.025": 0.0,
			"-0.024": 0.0,
			"-0.023": 0.0,
			"-0.022": 0.0,
			"-0.021": 0.0,
			"-0.02": 0.0,
			"-0.019": 0.0,
			"-0.018": 0.0,
			"-0.017": 0.0,
			"-0.016": 0.0,
			"-0.015": 0.0,
			"-0.014": 0.0,
			"-0.013": 0.0,
			"-0.012": 0.0,
			"-0.011": 0.0,
			"-0.01": 0.579591353141,
			"-0.009": 4.99977394119,
			"-0.008": 4.86629341683,
			"-0.007": 4.33201865549,
			"-0.006": 8.56970742998,
			"-0.005": 14.8169296529,
			"-0.004": 20.4997567212,
			"-0.003": 26.4582751865,
			"-0.002": 22.9585882057,
			"-0.001": 20.0295179385,
			"0.0": 17.3175865551,
			"0.001": 18.9373717325,
			"0.002": 18.4766956568,
			"0.003": 12.4384342868,
			"0.004": 6.35382515054,
			"0.005": 5.21603158216,
			"0.006": 5.01523175964,
			"0.007": 6.24078661194,
			"0.008": 7.03698043582,
			"0.009": 9.68450778742,
			"0.01": 6.48783769533,
			"0.011": 3.73491791245,
			"0.012": 0.306388037084,
			"0.013": 0.0,
			"0.014": 0.0,
			"0.015": 0.0,
			"0.016": 0.0,
			"0.017": 0.0,
			"0.018": 0.0,
			"0.019": 0.0,
			"0.02": 0.0,
			"0.021": 0.0,
			"0.022": 0.0,
			"0.023": 0.0,
			"0.024": 0.0,
			"0.025": 0.0
		}
	}
}
