{
	 "smiles": "NC(=S)C1=CC(O)=CC=C1", 
	 "Tm": 426.15, 
	 "num_atms": 17, 
	 "gaussian": { 
		 "optdone": 1, 
		 "sigma_profile": "yes", 
		 "theory": "DFT", 
		 "functional": "B3LYP", 
		 "basiset": "6-31G**", 
		 "properties": { 
			 "R2extent": 2187.1017, 
			 "electric_dipole_moment_norm": 4.64538504863, 
			 "electric_quadrupole_moment_norm": 20.4075378765, 
			 "total_energy": -799.130142284, 
			 "HOMO_LUMO_gap": 0.14662, 
			 "cosmo_polarized_energy": -19.45, 
			 "cosmo_cavitation_energy": 22.96, 
			 "cosmo_dispersion_energy": -17.55, 
			 "cosmo_repulsion_energy": 1.39, 
			 "cosmo_total_nonelectrostatic_energy": 6.8, 
			 "SMD_solvation_energy": 3.44 
		},
		"coords": [
			{
				"x": -1.430074915,
				"y": -0.6847246014,
				"z": -1.8658183443,
				"element": "N" 
			},
			{
				"x": -1.9704650265,
				"y": -0.3053696223,
				"z": -0.6822250175,
				"element": "C" 
			},
			{
				"x": -3.6184475372,
				"y": -0.1393026349,
				"z": -0.4906753132,
				"element": "S" 
			},
			{
				"x": -0.9861031353,
				"y": -0.0897241963,
				"z": 0.4155991826,
				"element": "C" 
			},
			{
				"x": 0.197004818,
				"y": -0.8489753993,
				"z": 0.4686070352,
				"element": "C" 
			},
			{
				"x": 1.1213827129,
				"y": -0.6441504581,
				"z": 1.4957349816,
				"element": "C" 
			},
			{
				"x": 2.2718473889,
				"y": -1.3711309864,
				"z": 1.6066921546,
				"element": "O" 
			},
			{
				"x": 0.8840130352,
				"y": 0.3348186968,
				"z": 2.4673938233,
				"element": "C" 
			},
			{
				"x": -0.2885371261,
				"y": 1.0845513263,
				"z": 2.4108019491,
				"element": "C" 
			},
			{
				"x": -1.2280812887,
				"y": 0.8752916298,
				"z": 1.401874561,
				"element": "C" 
			},
			{
				"x": -0.446670087,
				"y": -0.5504708094,
				"z": -2.0509390612,
				"element": "H" 
			},
			{
				"x": -2.0537435079,
				"y": -0.8038382552,
				"z": -2.6510898493,
				"element": "H" 
			},
			{
				"x": 0.3715659852,
				"y": -1.6386760966,
				"z": -0.2588923224,
				"element": "H" 
			},
			{
				"x": 2.3046380263,
				"y": -2.0305539357,
				"z": 0.9016311303,
				"element": "H" 
			},
			{
				"x": 1.6164138468,
				"y": 0.4810096866,
				"z": 3.2542346211,
				"element": "H" 
			},
			{
				"x": -0.473553628,
				"y": 1.8414675197,
				"z": 3.1671477249,
				"element": "H" 
			},
			{
				"x": -2.1464895617,
				"y": 1.4487781363,
				"z": 1.3612227444,
				"element": "H" 
			}
		],
		 "valence_orbital": [ 
			{
				"type": "occ",
				"energy": -0.3378,
				"method": "rhf"
			},
			{
				"type": "occ",
				"energy": -0.26712,
				"method": "rhf"
			},
			{
				"type": "occ",
				"energy": -0.23926,
				"method": "rhf"
			},
			{
				"type": "occ",
				"energy": -0.22838,
				"method": "rhf"
			},
			{
				"type": "occ",
				"energy": -0.20681,
				"method": "rhf"
			},
			{
				"type": "unocc",
				"energy": -0.06019,
				"method": "rhf"
			},
			{
				"type": "unocc",
				"energy": -0.00382,
				"method": "rhf"
			},
			{
				"type": "unocc",
				"energy": 0.02135,
				"method": "rhf"
			},
			{
				"type": "unocc",
				"energy": 0.05833,
				"method": "rhf"
			},
			{
				"type": "unocc",
				"energy": 0.07254,
				"method": "rhf"
			}
		],
		"cosmo_sigma_profile": { 
			"-0.025": 0.0,
			"-0.024": 0.0,
			"-0.023": 0.0,
			"-0.022": 0.0,
			"-0.021": 0.0,
			"-0.02": 0.0,
			"-0.019": 0.0395651929939,
			"-0.018": 0.981432198149,
			"-0.017": 1.00115867034,
			"-0.016": 1.30778138145,
			"-0.015": 2.62587628895,
			"-0.014": 3.57570855964,
			"-0.013": 3.15725449091,
			"-0.012": 3.06560581051,
			"-0.011": 4.08509828697,
			"-0.01": 4.17530594629,
			"-0.009": 3.41164486319,
			"-0.008": 2.49084238361,
			"-0.007": 3.30335622217,
			"-0.006": 6.19863859154,
			"-0.005": 7.81345628904,
			"-0.004": 8.72176212987,
			"-0.003": 7.04748919551,
			"-0.002": 6.63476713778,
			"-0.001": 7.07767649244,
			"0.0": 9.6061162287,
			"0.001": 8.71781828827,
			"0.002": 11.3862101479,
			"0.003": 15.6309894751,
			"0.004": 14.041166916,
			"0.005": 8.7984228457,
			"0.006": 5.59541810234,
			"0.007": 5.72960435505,
			"0.008": 8.81704292594,
			"0.009": 7.61091180744,
			"0.01": 5.77853028653,
			"0.011": 5.26602070351,
			"0.012": 2.12718904733,
			"0.013": 0.0164797318343,
			"0.014": 0.0,
			"0.015": 0.0,
			"0.016": 0.0,
			"0.017": 0.0,
			"0.018": 0.0,
			"0.019": 0.0,
			"0.02": 0.0,
			"0.021": 0.0,
			"0.022": 0.0,
			"0.023": 0.0,
			"0.024": 0.0,
			"0.025": 0.0
		}
	}
}
