{
	 "smiles": "CC(C)(C)C1=CC=CC(O)=C1", 
	 "Tm": 316.15, 
	 "num_atms": 25, 
	 "gaussian": { 
		 "optdone": 1, 
		 "sigma_profile": "yes", 
		 "theory": "DFT", 
		 "functional": "B3LYP", 
		 "basiset": "6-31G**", 
		 "properties": { 
			 "R2extent": 2087.9199, 
			 "electric_dipole_moment_norm": 1.04943564357, 
			 "electric_quadrupole_moment_norm": 9.0670879355, 
			 "total_energy": -464.735762251, 
			 "HOMO_LUMO_gap": 0.2193, 
			 "cosmo_polarized_energy": -7.74, 
			 "cosmo_cavitation_energy": 26.55, 
			 "cosmo_dispersion_energy": -19.14, 
			 "cosmo_repulsion_energy": 1.52, 
			 "cosmo_total_nonelectrostatic_energy": 8.94, 
			 "SMD_solvation_energy": 5.03 
		},
		"coords": [
			{
				"x": 0.7441448193,
				"y": -1.8819979755,
				"z": 0.8695515717,
				"element": "C" 
			},
			{
				"x": 0.0493322009,
				"y": -0.5144937491,
				"z": 1.0730005413,
				"element": "C" 
			},
			{
				"x": -1.4522996136,
				"y": -0.7688809397,
				"z": 1.3028933498,
				"element": "C" 
			},
			{
				"x": 0.6216738479,
				"y": 0.1679706448,
				"z": 2.3382822382,
				"element": "C" 
			},
			{
				"x": 0.3136597991,
				"y": 0.379737868,
				"z": -0.1530033264,
				"element": "C" 
			},
			{
				"x": 1.6363045032,
				"y": 0.7107275739,
				"z": -0.5053948198,
				"element": "C" 
			},
			{
				"x": 1.9009881498,
				"y": 1.5167678857,
				"z": -1.6083998776,
				"element": "C" 
			},
			{
				"x": 0.8613109353,
				"y": 2.0180325727,
				"z": -2.3940318097,
				"element": "C" 
			},
			{
				"x": -0.4531241805,
				"y": 1.6965352192,
				"z": -2.0541454776,
				"element": "C" 
			},
			{
				"x": -1.5324428553,
				"y": 2.1436338046,
				"z": -2.7674537317,
				"element": "O" 
			},
			{
				"x": -0.72138423,
				"y": 0.8852620941,
				"z": -0.9441645078,
				"element": "C" 
			},
			{
				"x": 1.8254229788,
				"y": -1.7747722588,
				"z": 0.7434112992,
				"element": "H" 
			},
			{
				"x": 0.3534567187,
				"y": -2.3908919255,
				"z": -0.0177618173,
				"element": "H" 
			},
			{
				"x": 0.5718244568,
				"y": -2.5298470956,
				"z": 1.7366524642,
				"element": "H" 
			},
			{
				"x": -1.5874393431,
				"y": -1.4072698045,
				"z": 2.1821187662,
				"element": "H" 
			},
			{
				"x": -1.9144338782,
				"y": -1.2783308205,
				"z": 0.4510389159,
				"element": "H" 
			},
			{
				"x": -2.0003307856,
				"y": 0.1616259749,
				"z": 1.4833823823,
				"element": "H" 
			},
			{
				"x": 0.1424936081,
				"y": 1.1373764385,
				"z": 2.5102579837,
				"element": "H" 
			},
			{
				"x": 0.4481867121,
				"y": -0.4584932208,
				"z": 3.2207207092,
				"element": "H" 
			},
			{
				"x": 1.6991651687,
				"y": 0.3384188221,
				"z": 2.2572637452,
				"element": "H" 
			},
			{
				"x": 2.4668878006,
				"y": 0.3370831785,
				"z": 0.0847262583,
				"element": "H" 
			},
			{
				"x": 2.9282851735,
				"y": 1.7611438036,
				"z": -1.8644471297,
				"element": "H" 
			},
			{
				"x": 1.0703356268,
				"y": 2.6480833233,
				"z": -3.2560799809,
				"element": "H" 
			},
			{
				"x": -1.2195051213,
				"y": 2.6881452557,
				"z": -3.5012428777,
				"element": "H" 
			},
			{
				"x": -1.760612492,
				"y": 0.6695333303,
				"z": -0.7291748689,
				"element": "H" 
			}
		],
		 "valence_orbital": [ 
			{
				"type": "occ",
				"energy": -0.31556,
				"method": "rhf"
			},
			{
				"type": "occ",
				"energy": -0.31544,
				"method": "rhf"
			},
			{
				"type": "occ",
				"energy": -0.31431,
				"method": "rhf"
			},
			{
				"type": "occ",
				"energy": -0.24035,
				"method": "rhf"
			},
			{
				"type": "occ",
				"energy": -0.21408,
				"method": "rhf"
			},
			{
				"type": "unocc",
				"energy": 0.00522,
				"method": "rhf"
			},
			{
				"type": "unocc",
				"energy": 0.01707,
				"method": "rhf"
			},
			{
				"type": "unocc",
				"energy": 0.07392,
				"method": "rhf"
			},
			{
				"type": "unocc",
				"energy": 0.0852,
				"method": "rhf"
			},
			{
				"type": "unocc",
				"energy": 0.11144,
				"method": "rhf"
			}
		],
		"cosmo_sigma_profile": { 
			"-0.025": 0.0,
			"-0.024": 0.0,
			"-0.023": 0.0,
			"-0.022": 0.0,
			"-0.021": 0.0,
			"-0.02": 0.0,
			"-0.019": 0.0,
			"-0.018": 0.0634158963174,
			"-0.017": 0.831858184757,
			"-0.016": 1.33070010593,
			"-0.015": 0.848361687263,
			"-0.014": 0.918616840761,
			"-0.013": 1.00696982471,
			"-0.012": 1.17174541477,
			"-0.011": 0.953797868587,
			"-0.01": 0.685093408719,
			"-0.009": 1.18263585609,
			"-0.008": 1.06839710515,
			"-0.007": 1.25095415179,
			"-0.006": 2.3364480707,
			"-0.005": 5.90694902751,
			"-0.004": 9.22242382363,
			"-0.003": 19.511521878,
			"-0.002": 26.1671298053,
			"-0.001": 20.6856546645,
			"0.0": 20.1881443433,
			"0.001": 26.0741782575,
			"0.002": 15.5618263611,
			"0.003": 7.46167058491,
			"0.004": 10.1714624517,
			"0.005": 9.83463527279,
			"0.006": 9.49076303778,
			"0.007": 5.49364303301,
			"0.008": 1.66187779052,
			"0.009": 1.48898887089,
			"0.01": 1.47215506263,
			"0.011": 1.81703272072,
			"0.012": 1.50692024759,
			"0.013": 0.0,
			"0.014": 0.0,
			"0.015": 0.0,
			"0.016": 0.0,
			"0.017": 0.0,
			"0.018": 0.0,
			"0.019": 0.0,
			"0.02": 0.0,
			"0.021": 0.0,
			"0.022": 0.0,
			"0.023": 0.0,
			"0.024": 0.0,
			"0.025": 0.0
		}
	}
}
