{
	 "smiles": "NC1=NC(O)=NC2=C1C=NN2CCO", 
	 "Tm": 581.15, 
	 "num_atms": 23, 
	 "gaussian": { 
		 "optdone": 1, 
		 "sigma_profile": "yes", 
		 "theory": "DFT", 
		 "functional": "B3LYP", 
		 "basiset": "6-31G**", 
		 "properties": { 
			 "R2extent": 3318.8334, 
			 "electric_dipole_moment_norm": 5.28202597589, 
			 "electric_quadrupole_moment_norm": 11.2759652035, 
			 "total_energy": -696.379378305, 
			 "HOMO_LUMO_gap": 0.19366, 
			 "cosmo_polarized_energy": -19.42, 
			 "cosmo_cavitation_energy": 27.18, 
			 "cosmo_dispersion_energy": -20.7, 
			 "cosmo_repulsion_energy": 1.65, 
			 "cosmo_total_nonelectrostatic_energy": 8.14, 
			 "SMD_solvation_energy": 1.55 
		},
		"coords": [
			{
				"x": -2.8550702747,
				"y": -0.8650697682,
				"z": 0.3772694406,
				"element": "N" 
			},
			{
				"x": -1.8163871536,
				"y": -0.0021027621,
				"z": 0.2268168568,
				"element": "C" 
			},
			{
				"x": -2.0177057851,
				"y": 1.0770347203,
				"z": -0.5365468458,
				"element": "N" 
			},
			{
				"x": -1.0019946316,
				"y": 1.9603491942,
				"z": -0.671042811,
				"element": "C" 
			},
			{
				"x": -1.2685875824,
				"y": 3.0240042287,
				"z": -1.4497256199,
				"element": "O" 
			},
			{
				"x": 0.2141793275,
				"y": 1.9205231336,
				"z": -0.1479138701,
				"element": "N" 
			},
			{
				"x": 0.3883549475,
				"y": 0.8262157991,
				"z": 0.6105359013,
				"element": "C" 
			},
			{
				"x": -0.5612476235,
				"y": -0.1887326149,
				"z": 0.8601122164,
				"element": "C" 
			},
			{
				"x": 0.1099263578,
				"y": -1.1083650325,
				"z": 1.7102137906,
				"element": "C" 
			},
			{
				"x": 1.3436574187,
				"y": -0.7028830408,
				"z": 1.9622987435,
				"element": "N" 
			},
			{
				"x": 1.5138584754,
				"y": 0.479574447,
				"z": 1.2870995992,
				"element": "N" 
			},
			{
				"x": 2.7807042687,
				"y": 1.1999150917,
				"z": 1.353500565,
				"element": "C" 
			},
			{
				"x": 3.9743715657,
				"y": 0.277835933,
				"z": 1.0858796916,
				"element": "C" 
			},
			{
				"x": 4.1969643669,
				"y": -0.645170121,
				"z": 2.1297755267,
				"element": "O" 
			},
			{
				"x": -2.7036136685,
				"y": -1.7813498515,
				"z": 0.7645590529,
				"element": "H" 
			},
			{
				"x": -3.6599400205,
				"y": -0.7247131738,
				"z": -0.2138862489,
				"element": "H" 
			},
			{
				"x": -2.1830888835,
				"y": 2.9111719961,
				"z": -1.750086695,
				"element": "H" 
			},
			{
				"x": -0.244844652,
				"y": -2.0324144786,
				"z": 2.1478345253,
				"element": "H" 
			},
			{
				"x": 2.8874786004,
				"y": 1.6526051302,
				"z": 2.3459078016,
				"element": "H" 
			},
			{
				"x": 2.7153245425,
				"y": 1.9969012192,
				"z": 0.6082914062,
				"element": "H" 
			},
			{
				"x": 3.82855526,
				"y": -0.2199344793,
				"z": 0.1124922907,
				"element": "H" 
			},
			{
				"x": 4.8752980825,
				"y": 0.8963460201,
				"z": 1.0066699279,
				"element": "H" 
			},
			{
				"x": 3.3442070618,
				"y": -1.0852415906,
				"z": 2.2882447544,
				"element": "H" 
			}
		],
		 "valence_orbital": [ 
			{
				"type": "occ",
				"energy": -0.27901,
				"method": "rhf"
			},
			{
				"type": "occ",
				"energy": -0.26772,
				"method": "rhf"
			},
			{
				"type": "occ",
				"energy": -0.26325,
				"method": "rhf"
			},
			{
				"type": "occ",
				"energy": -0.25136,
				"method": "rhf"
			},
			{
				"type": "occ",
				"energy": -0.22579,
				"method": "rhf"
			},
			{
				"type": "unocc",
				"energy": -0.03213,
				"method": "rhf"
			},
			{
				"type": "unocc",
				"energy": 0.0084,
				"method": "rhf"
			},
			{
				"type": "unocc",
				"energy": 0.043,
				"method": "rhf"
			},
			{
				"type": "unocc",
				"energy": 0.05783,
				"method": "rhf"
			},
			{
				"type": "unocc",
				"energy": 0.08977,
				"method": "rhf"
			}
		],
		"cosmo_sigma_profile": { 
			"-0.025": 0.0,
			"-0.024": 0.0,
			"-0.023": 0.0,
			"-0.022": 0.0,
			"-0.021": 0.0,
			"-0.02": 0.0,
			"-0.019": 0.0,
			"-0.018": 0.0625341815654,
			"-0.017": 0.696644268914,
			"-0.016": 0.997624207402,
			"-0.015": 1.6866278566,
			"-0.014": 2.2949335627,
			"-0.013": 3.43803288484,
			"-0.012": 3.38161690867,
			"-0.011": 3.31987144326,
			"-0.01": 3.48131456223,
			"-0.009": 4.31088872362,
			"-0.008": 3.78413873307,
			"-0.007": 3.69846788831,
			"-0.006": 7.20003656441,
			"-0.005": 12.2218618094,
			"-0.004": 14.1809077462,
			"-0.003": 12.272890864,
			"-0.002": 11.1882916135,
			"-0.001": 13.5270906837,
			"0.0": 17.2534381503,
			"0.001": 14.5471573808,
			"0.002": 12.5847628707,
			"0.003": 9.72166809538,
			"0.004": 8.80407991663,
			"0.005": 7.60380326795,
			"0.006": 5.81366859426,
			"0.007": 5.0339383983,
			"0.008": 5.14639565457,
			"0.009": 5.83516006191,
			"0.01": 5.08044699218,
			"0.011": 4.80157175079,
			"0.012": 3.94013435682,
			"0.013": 3.11394127522,
			"0.014": 3.17420182804,
			"0.015": 1.68564649872,
			"0.016": 0.0,
			"0.017": 0.0,
			"0.018": 0.0,
			"0.019": 0.0,
			"0.02": 0.0,
			"0.021": 0.0,
			"0.022": 0.0,
			"0.023": 0.0,
			"0.024": 0.0,
			"0.025": 0.0
		}
	}
}
