{
	 "smiles": "CCC#CCC", 
	 "Tm": 170.15, 
	 "num_atms": 16, 
	 "gaussian": { 
		 "optdone": 1, 
		 "sigma_profile": "yes", 
		 "theory": "DFT", 
		 "functional": "B3LYP", 
		 "basiset": "6-31G**", 
		 "properties": { 
			 "R2extent": 1463.6077, 
			 "electric_dipole_moment_norm": 0.122700203749, 
			 "electric_quadrupole_moment_norm": 4.117004094, 
			 "total_energy": -234.614989837, 
			 "HOMO_LUMO_gap": 0.29762, 
			 "cosmo_polarized_energy": -3.06, 
			 "cosmo_cavitation_energy": 19.61, 
			 "cosmo_dispersion_energy": -14.12, 
			 "cosmo_repulsion_energy": 1.29, 
			 "cosmo_total_nonelectrostatic_energy": 6.77, 
			 "SMD_solvation_energy": 3.95 
		},
		"coords": [
			{
				"x": -1.1627687104,
				"y": 2.7459922978,
				"z": 1.856043987,
				"element": "C" 
			},
			{
				"x": 0.3691820156,
				"y": 2.8869571867,
				"z": 1.7795816797,
				"element": "C" 
			},
			{
				"x": 1.0498968395,
				"y": 1.6267757941,
				"z": 1.4720734649,
				"element": "C" 
			},
			{
				"x": 1.5992655844,
				"y": 0.577824942,
				"z": 1.2206897708,
				"element": "C" 
			},
			{
				"x": 2.2498535186,
				"y": -0.6960062044,
				"z": 0.9041764217,
				"element": "C" 
			},
			{
				"x": 1.3498365986,
				"y": -1.6538652199,
				"z": 0.1011153882,
				"element": "C" 
			},
			{
				"x": -1.568502939,
				"y": 2.3892053784,
				"z": 0.9050418845,
				"element": "H" 
			},
			{
				"x": -1.6253960586,
				"y": 3.7107262707,
				"z": 2.0875493465,
				"element": "H" 
			},
			{
				"x": -1.4492922717,
				"y": 2.0314965618,
				"z": 2.6330290154,
				"element": "H" 
			},
			{
				"x": 0.62904724,
				"y": 3.6368941523,
				"z": 1.0204229741,
				"element": "H" 
			},
			{
				"x": 0.7470184574,
				"y": 3.2813992285,
				"z": 2.7324543475,
				"element": "H" 
			},
			{
				"x": 2.565021646,
				"y": -1.1859869096,
				"z": 1.8352224291,
				"element": "H" 
			},
			{
				"x": 3.1720365361,
				"y": -0.5028879374,
				"z": 0.3397827934,
				"element": "H" 
			},
			{
				"x": 0.4394902039,
				"y": -1.8916508504,
				"z": 0.6588402591,
				"element": "H" 
			},
			{
				"x": 1.0531667053,
				"y": -1.2029818223,
				"z": -0.8502005031,
				"element": "H" 
			},
			{
				"x": 1.8780446342,
				"y": -2.5889928681,
				"z": -0.1107232588,
				"element": "H" 
			}
		],
		 "valence_orbital": [ 
			{
				"type": "occ",
				"energy": -0.36183,
				"method": "rhf"
			},
			{
				"type": "occ",
				"energy": -0.35909,
				"method": "rhf"
			},
			{
				"type": "occ",
				"energy": -0.35337,
				"method": "rhf"
			},
			{
				"type": "occ",
				"energy": -0.24021,
				"method": "rhf"
			},
			{
				"type": "occ",
				"energy": -0.23824,
				"method": "rhf"
			},
			{
				"type": "unocc",
				"energy": 0.05938,
				"method": "rhf"
			},
			{
				"type": "unocc",
				"energy": 0.06885,
				"method": "rhf"
			},
			{
				"type": "unocc",
				"energy": 0.10815,
				"method": "rhf"
			},
			{
				"type": "unocc",
				"energy": 0.12333,
				"method": "rhf"
			},
			{
				"type": "unocc",
				"energy": 0.15332,
				"method": "rhf"
			}
		],
		"cosmo_sigma_profile": { 
			"-0.025": 0.0,
			"-0.024": 0.0,
			"-0.023": 0.0,
			"-0.022": 0.0,
			"-0.021": 0.0,
			"-0.02": 0.0,
			"-0.019": 0.0,
			"-0.018": 0.0,
			"-0.017": 0.0,
			"-0.016": 0.0,
			"-0.015": 0.0,
			"-0.014": 0.0,
			"-0.013": 0.0,
			"-0.012": 0.0,
			"-0.011": 0.0,
			"-0.01": 0.0,
			"-0.009": 0.0,
			"-0.008": 0.0,
			"-0.007": 0.0,
			"-0.006": 0.0,
			"-0.005": 3.7564534962,
			"-0.004": 10.2498342033,
			"-0.003": 20.4672963201,
			"-0.002": 23.6979695246,
			"-0.001": 26.3062304944,
			"0.0": 19.1256944866,
			"0.001": 15.7634644864,
			"0.002": 5.34222141498,
			"0.003": 4.83550733943,
			"0.004": 4.18908064146,
			"0.005": 3.3559371483,
			"0.006": 4.10234692892,
			"0.007": 5.95615436213,
			"0.008": 6.52289765539,
			"0.009": 0.196080290677,
			"0.01": 0.0,
			"0.011": 0.0,
			"0.012": 0.0,
			"0.013": 0.0,
			"0.014": 0.0,
			"0.015": 0.0,
			"0.016": 0.0,
			"0.017": 0.0,
			"0.018": 0.0,
			"0.019": 0.0,
			"0.02": 0.0,
			"0.021": 0.0,
			"0.022": 0.0,
			"0.023": 0.0,
			"0.024": 0.0,
			"0.025": 0.0
		}
	}
}
