{
	 "smiles": "COC1CC2C3(C)CCCC2(COC3)C2C(O)CC3C(O)C12C(=O)C3=C", 
	 "Tm": 561.15, 
	 "num_atms": 56, 
	 "gaussian": { 
		 "optdone": 1, 
		 "sigma_profile": "yes", 
		 "theory": "DFT", 
		 "functional": "B3LYP", 
		 "basiset": "6-31G**", 
		 "properties": { 
			 "R2extent": 8376.5859, 
			 "electric_dipole_moment_norm": 5.71525258409, 
			 "electric_quadrupole_moment_norm": 20.7537301093, 
			 "total_energy": -1194.36456772, 
			 "HOMO_LUMO_gap": 0.15547, 
			 "cosmo_polarized_energy": -19.49, 
			 "cosmo_cavitation_energy": 46.77, 
			 "cosmo_dispersion_energy": -32.95, 
			 "cosmo_repulsion_energy": 2.4, 
			 "cosmo_total_nonelectrostatic_energy": 16.23, 
			 "SMD_solvation_energy": 8.53 
		},
		"coords": [
			{
				"x": -0.2578177523,
				"y": -1.6188745699,
				"z": -3.27875922,
				"element": "C" 
			},
			{
				"x": 0.1620260697,
				"y": -1.0170663243,
				"z": -2.0697678876,
				"element": "O" 
			},
			{
				"x": -0.7029982143,
				"y": -1.2136078629,
				"z": -0.9529124078,
				"element": "C" 
			},
			{
				"x": -1.1129280121,
				"y": 0.1715661672,
				"z": -0.4316511862,
				"element": "C" 
			},
			{
				"x": 0.1487105836,
				"y": 0.9516763262,
				"z": -0.0393174048,
				"element": "C" 
			},
			{
				"x": -0.0335404296,
				"y": 2.4715540848,
				"z": 0.2326397669,
				"element": "C" 
			},
			{
				"x": -0.7438101136,
				"y": 3.1841165059,
				"z": -0.931052237,
				"element": "C" 
			},
			{
				"x": -0.8210137951,
				"y": 2.6991178867,
				"z": 1.5428212992,
				"element": "C" 
			},
			{
				"x": -0.1739933764,
				"y": 2.0353235753,
				"z": 2.7680370611,
				"element": "C" 
			},
			{
				"x": 0.2080644231,
				"y": 0.5649652034,
				"z": 2.5038044485,
				"element": "C" 
			},
			{
				"x": 0.9281801197,
				"y": 0.3063808228,
				"z": 1.151712581,
				"element": "C" 
			},
			{
				"x": 2.3155205705,
				"y": 1.0182694299,
				"z": 1.1351461328,
				"element": "C" 
			},
			{
				"x": 2.218657604,
				"y": 2.4288805808,
				"z": 1.2864290379,
				"element": "O" 
			},
			{
				"x": 1.3934606814,
				"y": 3.0588699386,
				"z": 0.321468053,
				"element": "C" 
			},
			{
				"x": 1.179780623,
				"y": -1.2223065478,
				"z": 0.8343741207,
				"element": "C" 
			},
			{
				"x": 1.8132219214,
				"y": -2.114964667,
				"z": 1.9537154603,
				"element": "C" 
			},
			{
				"x": 2.6735415551,
				"y": -1.3429840475,
				"z": 2.7874889144,
				"element": "O" 
			},
			{
				"x": 0.8011997724,
				"y": -2.9042045524,
				"z": 2.8049828369,
				"element": "C" 
			},
			{
				"x": -0.1978370444,
				"y": -3.6861186855,
				"z": 1.924602791,
				"element": "C" 
			},
			{
				"x": -1.050847542,
				"y": -2.6669431511,
				"z": 1.1390560032,
				"element": "C" 
			},
			{
				"x": -1.7680414484,
				"y": -1.748269765,
				"z": 1.9393496985,
				"element": "O" 
			},
			{
				"x": -0.0136582564,
				"y": -2.0365722231,
				"z": 0.1621323044,
				"element": "C" 
			},
			{
				"x": 0.6273452256,
				"y": -3.3734982986,
				"z": -0.3321553686,
				"element": "C" 
			},
			{
				"x": 1.1699560673,
				"y": -3.5877987794,
				"z": -1.3970796767,
				"element": "O" 
			},
			{
				"x": 0.4798148044,
				"y": -4.3900931691,
				"z": 0.7731344467,
				"element": "C" 
			},
			{
				"x": 0.8563461753,
				"y": -5.6635237632,
				"z": 0.6382773449,
				"element": "C" 
			},
			{
				"x": -1.2519423742,
				"y": -1.259809112,
				"z": -3.5883562728,
				"element": "H" 
			},
			{
				"x": -0.2715677947,
				"y": -2.7127951906,
				"z": -3.2095591,
				"element": "H" 
			},
			{
				"x": 0.4686925894,
				"y": -1.3293954536,
				"z": -4.0424957501,
				"element": "H" 
			},
			{
				"x": -1.5970858691,
				"y": -1.7675013445,
				"z": -1.2765747068,
				"element": "H" 
			},
			{
				"x": -1.6373281184,
				"y": 0.6840701292,
				"z": -1.2446941995,
				"element": "H" 
			},
			{
				"x": -1.8134316208,
				"y": 0.0604958984,
				"z": 0.4001948171,
				"element": "H" 
			},
			{
				"x": 0.8035603948,
				"y": 0.8816046962,
				"z": -0.9185029098,
				"element": "H" 
			},
			{
				"x": -0.7017674054,
				"y": 4.271919346,
				"z": -0.7980240225,
				"element": "H" 
			},
			{
				"x": -0.276766223,
				"y": 2.9462290599,
				"z": -1.8938449079,
				"element": "H" 
			},
			{
				"x": -1.8005198684,
				"y": 2.9075854251,
				"z": -0.9927832841,
				"element": "H" 
			},
			{
				"x": -0.9370124474,
				"y": 3.7778939453,
				"z": 1.7157289151,
				"element": "H" 
			},
			{
				"x": -1.8369405024,
				"y": 2.3034569176,
				"z": 1.403688378,
				"element": "H" 
			},
			{
				"x": -0.8754799003,
				"y": 2.0705678809,
				"z": 3.6122137089,
				"element": "H" 
			},
			{
				"x": 0.708492506,
				"y": 2.6043419866,
				"z": 3.0659697982,
				"element": "H" 
			},
			{
				"x": -0.6986839659,
				"y": -0.0382514145,
				"z": 2.5345258945,
				"element": "H" 
			},
			{
				"x": 0.8539185562,
				"y": 0.2090969686,
				"z": 3.3125443322,
				"element": "H" 
			},
			{
				"x": 2.944653735,
				"y": 0.6761333749,
				"z": 1.9540774907,
				"element": "H" 
			},
			{
				"x": 2.8233380621,
				"y": 0.7807630524,
				"z": 0.1827416809,
				"element": "H" 
			},
			{
				"x": 1.8634617681,
				"y": 2.9921658734,
				"z": -0.6767105704,
				"element": "H" 
			},
			{
				"x": 1.3572977566,
				"y": 4.1175869095,
				"z": 0.6040851686,
				"element": "H" 
			},
			{
				"x": 1.9236888381,
				"y": -1.1943316087,
				"z": 0.0278454653,
				"element": "H" 
			},
			{
				"x": 2.4279568285,
				"y": -2.8595290052,
				"z": 1.4244247849,
				"element": "H" 
			},
			{
				"x": 3.1302573456,
				"y": -1.9532022147,
				"z": 3.3807639401,
				"element": "H" 
			},
			{
				"x": 0.2501691778,
				"y": -2.2205768021,
				"z": 3.4570489479,
				"element": "H" 
			},
			{
				"x": 1.3545579974,
				"y": -3.6041138584,
				"z": 3.4454224326,
				"element": "H" 
			},
			{
				"x": -0.8085039576,
				"y": -4.361779482,
				"z": 2.5350709701,
				"element": "H" 
			},
			{
				"x": -1.7654233639,
				"y": -3.2261768251,
				"z": 0.5105197985,
				"element": "H" 
			},
			{
				"x": -2.4137961513,
				"y": -2.2467818759,
				"z": 2.4575623122,
				"element": "H" 
			},
			{
				"x": 1.3107293219,
				"y": -5.9928438899,
				"z": -0.2920507284,
				"element": "H" 
			},
			{
				"x": 0.7258344729,
				"y": -6.3971175015,
				"z": 1.4287907043,
				"element": "H" 
			}
		],
		 "valence_orbital": [ 
			{
				"type": "occ",
				"energy": -0.26363,
				"method": "rhf"
			},
			{
				"type": "occ",
				"energy": -0.25856,
				"method": "rhf"
			},
			{
				"type": "occ",
				"energy": -0.2485,
				"method": "rhf"
			},
			{
				"type": "occ",
				"energy": -0.23076,
				"method": "rhf"
			},
			{
				"type": "occ",
				"energy": -0.21914,
				"method": "rhf"
			},
			{
				"type": "unocc",
				"energy": -0.06367,
				"method": "rhf"
			},
			{
				"type": "unocc",
				"energy": 0.04856,
				"method": "rhf"
			},
			{
				"type": "unocc",
				"energy": 0.05883,
				"method": "rhf"
			},
			{
				"type": "unocc",
				"energy": 0.06681,
				"method": "rhf"
			},
			{
				"type": "unocc",
				"energy": 0.09369,
				"method": "rhf"
			}
		],
		"cosmo_sigma_profile": { 
			"-0.025": 0.0,
			"-0.024": 0.0,
			"-0.023": 0.0,
			"-0.022": 0.0,
			"-0.021": 0.0,
			"-0.02": 0.0,
			"-0.019": 0.0,
			"-0.018": 0.0,
			"-0.017": 0.114894844475,
			"-0.016": 1.02943691722,
			"-0.015": 2.12392189835,
			"-0.014": 2.10517338748,
			"-0.013": 1.93456183787,
			"-0.012": 1.96219288488,
			"-0.011": 1.86887972149,
			"-0.01": 1.1050540578,
			"-0.009": 1.98806465592,
			"-0.008": 2.14101577968,
			"-0.007": 4.54927673373,
			"-0.006": 7.26484773848,
			"-0.005": 12.1066800064,
			"-0.004": 19.9417987678,
			"-0.003": 30.0375444515,
			"-0.002": 49.5333164034,
			"-0.001": 41.6956449401,
			"0.0": 34.1769712306,
			"0.001": 34.0791179879,
			"0.002": 28.7483557327,
			"0.003": 15.4843239499,
			"0.004": 9.73492280856,
			"0.005": 8.70586348705,
			"0.006": 7.88806382747,
			"0.007": 8.95065294807,
			"0.008": 7.07199498143,
			"0.009": 5.45805534775,
			"0.01": 4.26146703721,
			"0.011": 4.92029282464,
			"0.012": 4.45236786624,
			"0.013": 2.03609180758,
			"0.014": 1.88464881886,
			"0.015": 0.296849851471,
			"0.016": 0.0,
			"0.017": 0.0,
			"0.018": 0.0,
			"0.019": 0.0,
			"0.02": 0.0,
			"0.021": 0.0,
			"0.022": 0.0,
			"0.023": 0.0,
			"0.024": 0.0,
			"0.025": 0.0
		}
	}
}
