{
	 "smiles": "COC1=C(C=O)C=C(F)C=C1", 
	 "Tm": 316.65, 
	 "num_atms": 18, 
	 "gaussian": { 
		 "optdone": 1, 
		 "sigma_profile": "yes", 
		 "theory": "DFT", 
		 "functional": "B3LYP", 
		 "basiset": "6-31G**", 
		 "properties": { 
			 "R2extent": 1808.3719, 
			 "electric_dipole_moment_norm": 2.17243928569, 
			 "electric_quadrupole_moment_norm": 10.2250717826, 
			 "total_energy": -559.319484259, 
			 "HOMO_LUMO_gap": 0.17395, 
			 "cosmo_polarized_energy": -8.48, 
			 "cosmo_cavitation_energy": 22.88, 
			 "cosmo_dispersion_energy": -16.54, 
			 "cosmo_repulsion_energy": 1.3, 
			 "cosmo_total_nonelectrostatic_energy": 7.64, 
			 "SMD_solvation_energy": 6.28 
		},
		"coords": [
			{
				"x": 1.8375254325,
				"y": -1.4881617598,
				"z": -1.8708034644,
				"element": "C" 
			},
			{
				"x": 1.3408956883,
				"y": -0.1733881911,
				"z": -1.5875659053,
				"element": "O" 
			},
			{
				"x": 0.2643782846,
				"y": -0.0871217583,
				"z": -0.7530601875,
				"element": "C" 
			},
			{
				"x": 0.3499924276,
				"y": -0.2397236315,
				"z": 0.6534726177,
				"element": "C" 
			},
			{
				"x": 1.5991460167,
				"y": -0.5151510856,
				"z": 1.4009032651,
				"element": "C" 
			},
			{
				"x": 2.6908368181,
				"y": -0.7759343259,
				"z": 0.933701463,
				"element": "O" 
			},
			{
				"x": -0.8073196863,
				"y": -0.057211569,
				"z": 1.4306822776,
				"element": "C" 
			},
			{
				"x": -2.0115987426,
				"y": 0.2604390656,
				"z": 0.8268952959,
				"element": "C" 
			},
			{
				"x": -3.1120886375,
				"y": 0.4243741467,
				"z": 1.589133061,
				"element": "F" 
			},
			{
				"x": -2.1074620199,
				"y": 0.4267824119,
				"z": -0.5512292751,
				"element": "C" 
			},
			{
				"x": -0.9654367035,
				"y": 0.2518086764,
				"z": -1.3296596367,
				"element": "C" 
			},
			{
				"x": 2.6311487577,
				"y": -1.3525571908,
				"z": -2.6074303556,
				"element": "H" 
			},
			{
				"x": 2.2527819536,
				"y": -1.9545793222,
				"z": -0.9752535827,
				"element": "H" 
			},
			{
				"x": 1.0458346026,
				"y": -2.1146384342,
				"z": -2.3008011482,
				"element": "H" 
			},
			{
				"x": 1.4617809815,
				"y": -0.4579323659,
				"z": 2.5043590613,
				"element": "H" 
			},
			{
				"x": -0.7617671267,
				"y": -0.1578533697,
				"z": 2.5112065949,
				"element": "H" 
			},
			{
				"x": -3.0621131617,
				"y": 0.6872535968,
				"z": -0.9957179721,
				"element": "H" 
			},
			{
				"x": -1.002734885,
				"y": 0.3827951067,
				"z": -2.4059321088,
				"element": "H" 
			}
		],
		 "valence_orbital": [ 
			{
				"type": "occ",
				"energy": -0.34129,
				"method": "rhf"
			},
			{
				"type": "occ",
				"energy": -0.28282,
				"method": "rhf"
			},
			{
				"type": "occ",
				"energy": -0.27879,
				"method": "rhf"
			},
			{
				"type": "occ",
				"energy": -0.25918,
				"method": "rhf"
			},
			{
				"type": "occ",
				"energy": -0.24535,
				"method": "rhf"
			},
			{
				"type": "unocc",
				"energy": -0.0714,
				"method": "rhf"
			},
			{
				"type": "unocc",
				"energy": -0.0149,
				"method": "rhf"
			},
			{
				"type": "unocc",
				"energy": 0.03387,
				"method": "rhf"
			},
			{
				"type": "unocc",
				"energy": 0.0816,
				"method": "rhf"
			},
			{
				"type": "unocc",
				"energy": 0.10719,
				"method": "rhf"
			}
		],
		"cosmo_sigma_profile": { 
			"-0.025": 0.0,
			"-0.024": 0.0,
			"-0.023": 0.0,
			"-0.022": 0.0,
			"-0.021": 0.0,
			"-0.02": 0.0,
			"-0.019": 0.0,
			"-0.018": 0.0,
			"-0.017": 0.0,
			"-0.016": 0.0,
			"-0.015": 0.0,
			"-0.014": 0.0,
			"-0.013": 0.0,
			"-0.012": 0.0,
			"-0.011": 0.0,
			"-0.01": 0.0,
			"-0.009": 1.55944727186,
			"-0.008": 5.527291424,
			"-0.007": 6.66825425155,
			"-0.006": 8.93393067229,
			"-0.005": 10.4319905258,
			"-0.004": 12.4908414256,
			"-0.003": 15.796353686,
			"-0.002": 16.7581397383,
			"-0.001": 13.0338318673,
			"0.0": 15.58277954,
			"0.001": 17.8976794727,
			"0.002": 11.1416123216,
			"0.003": 7.6747830688,
			"0.004": 12.8305681506,
			"0.005": 3.41835315862,
			"0.006": 2.45430207904,
			"0.007": 2.75728560959,
			"0.008": 2.57183397825,
			"0.009": 3.18853630192,
			"0.01": 4.63496444164,
			"0.011": 5.18951317899,
			"0.012": 2.55654124189,
			"0.013": 0.410653456652,
			"0.014": 0.0,
			"0.015": 0.0,
			"0.016": 0.0,
			"0.017": 0.0,
			"0.018": 0.0,
			"0.019": 0.0,
			"0.02": 0.0,
			"0.021": 0.0,
			"0.022": 0.0,
			"0.023": 0.0,
			"0.024": 0.0,
			"0.025": 0.0
		}
	}
}
