{
	 "smiles": "COC(=O)NC(C(C)C)C(O)=O", 
	 "Tm": 357.15, 
	 "num_atms": 25, 
	 "gaussian": { 
		 "optdone": 1, 
		 "sigma_profile": "yes", 
		 "theory": "DFT", 
		 "functional": "B3LYP", 
		 "basiset": "6-31G**", 
		 "properties": { 
			 "R2extent": 2653.247, 
			 "electric_dipole_moment_norm": 1.25201085459, 
			 "electric_quadrupole_moment_norm": 12.3792356719, 
			 "total_energy": -630.271662687, 
			 "HOMO_LUMO_gap": 0.24744, 
			 "cosmo_polarized_energy": -12.52, 
			 "cosmo_cavitation_energy": 28.38, 
			 "cosmo_dispersion_energy": -19.93, 
			 "cosmo_repulsion_energy": 1.63, 
			 "cosmo_total_nonelectrostatic_energy": 10.07, 
			 "SMD_solvation_energy": 7.59 
		},
		"coords": [
			{
				"x": -2.2875613036,
				"y": -3.4258611649,
				"z": -1.2069553016,
				"element": "C" 
			},
			{
				"x": -1.6596240277,
				"y": -2.7558282334,
				"z": -0.1069492229,
				"element": "O" 
			},
			{
				"x": -0.9721791912,
				"y": -1.6333658366,
				"z": -0.4464360673,
				"element": "C" 
			},
			{
				"x": -0.8693836601,
				"y": -1.202773154,
				"z": -1.5837530098,
				"element": "O" 
			},
			{
				"x": -0.4298572308,
				"y": -1.0588472066,
				"z": 0.6620907531,
				"element": "N" 
			},
			{
				"x": 0.4597749777,
				"y": 0.0821017783,
				"z": 0.5505626386,
				"element": "C" 
			},
			{
				"x": -0.3288210706,
				"y": 1.4253035233,
				"z": 0.4076927015,
				"element": "C" 
			},
			{
				"x": 0.5493424543,
				"y": 2.5834216992,
				"z": -0.0827768951,
				"element": "C" 
			},
			{
				"x": -1.0971159385,
				"y": 1.7843109982,
				"z": 1.6855476591,
				"element": "C" 
			},
			{
				"x": 1.368091634,
				"y": 0.0489961504,
				"z": 1.7707590021,
				"element": "C" 
			},
			{
				"x": 2.435484573,
				"y": 0.8629865998,
				"z": 1.6445265311,
				"element": "O" 
			},
			{
				"x": 1.1671244412,
				"y": -0.6194027055,
				"z": 2.7637667522,
				"element": "O" 
			},
			{
				"x": -1.5455157889,
				"y": -3.7534468621,
				"z": -1.9398175002,
				"element": "H" 
			},
			{
				"x": -2.7969992392,
				"y": -4.2864980684,
				"z": -0.7725044237,
				"element": "H" 
			},
			{
				"x": -3.0061402071,
				"y": -2.7694314946,
				"z": -1.704686196,
				"element": "H" 
			},
			{
				"x": -0.4611804918,
				"y": -1.544377625,
				"z": 1.5483607532,
				"element": "H" 
			},
			{
				"x": 1.079197393,
				"y": -0.0323273809,
				"z": -0.3467162553,
				"element": "H" 
			},
			{
				"x": -1.053734339,
				"y": 1.2015061079,
				"z": -0.3834507047,
				"element": "H" 
			},
			{
				"x": 1.2952156341,
				"y": 2.8754724795,
				"z": 0.6616171323,
				"element": "H" 
			},
			{
				"x": 1.0792758019,
				"y": 2.3190557307,
				"z": -1.0041285953,
				"element": "H" 
			},
			{
				"x": -0.0737889944,
				"y": 3.4578882247,
				"z": -0.2968992109,
				"element": "H" 
			},
			{
				"x": -0.4180417507,
				"y": 2.0659688239,
				"z": 2.499382972,
				"element": "H" 
			},
			{
				"x": -1.7612106327,
				"y": 2.6353841009,
				"z": 1.5046604598,
				"element": "H" 
			},
			{
				"x": -1.7109493764,
				"y": 0.9470580858,
				"z": 2.0308381941,
				"element": "H" 
			},
			{
				"x": 2.9336963335,
				"y": 0.7917054293,
				"z": 2.4768678339,
				"element": "H" 
			}
		],
		 "valence_orbital": [ 
			{
				"type": "occ",
				"energy": -0.32987,
				"method": "rhf"
			},
			{
				"type": "occ",
				"energy": -0.2939,
				"method": "rhf"
			},
			{
				"type": "occ",
				"energy": -0.29107,
				"method": "rhf"
			},
			{
				"type": "occ",
				"energy": -0.26939,
				"method": "rhf"
			},
			{
				"type": "occ",
				"energy": -0.2541,
				"method": "rhf"
			},
			{
				"type": "unocc",
				"energy": -0.00666,
				"method": "rhf"
			},
			{
				"type": "unocc",
				"energy": 0.05497,
				"method": "rhf"
			},
			{
				"type": "unocc",
				"energy": 0.06389,
				"method": "rhf"
			},
			{
				"type": "unocc",
				"energy": 0.09849,
				"method": "rhf"
			},
			{
				"type": "unocc",
				"energy": 0.11159,
				"method": "rhf"
			}
		],
		"cosmo_sigma_profile": { 
			"-0.025": 0.0,
			"-0.024": 0.0,
			"-0.023": 0.0,
			"-0.022": 0.0,
			"-0.021": 0.0,
			"-0.02": 0.0,
			"-0.019": 0.316873318853,
			"-0.018": 1.17835553324,
			"-0.017": 0.954965048288,
			"-0.016": 0.728065356895,
			"-0.015": 0.850300942722,
			"-0.014": 0.316535609495,
			"-0.013": 0.54440909037,
			"-0.012": 0.997953846335,
			"-0.011": 1.06209762159,
			"-0.01": 1.5321274018,
			"-0.009": 0.911319194677,
			"-0.008": 1.27930601819,
			"-0.007": 2.15765127812,
			"-0.006": 6.73094118297,
			"-0.005": 10.2280490291,
			"-0.004": 14.5285306957,
			"-0.003": 24.7526299018,
			"-0.002": 23.424405059,
			"-0.001": 24.0954356697,
			"0.0": 21.2201525123,
			"0.001": 20.6543140846,
			"0.002": 10.1621572669,
			"0.003": 6.12835683415,
			"0.004": 5.39163878261,
			"0.005": 5.03904905354,
			"0.006": 4.85789156678,
			"0.007": 5.36464635955,
			"0.008": 4.90109831082,
			"0.009": 3.63382380973,
			"0.01": 4.65086829124,
			"0.011": 4.87557836706,
			"0.012": 2.11414796092,
			"0.013": 4.82533997738,
			"0.014": 1.03007462458,
			"0.015": 0.0,
			"0.016": 0.0,
			"0.017": 0.0,
			"0.018": 0.0,
			"0.019": 0.0,
			"0.02": 0.0,
			"0.021": 0.0,
			"0.022": 0.0,
			"0.023": 0.0,
			"0.024": 0.0,
			"0.025": 0.0
		}
	}
}
