{
	 "smiles": "CC1=CC(C)=C(NS(=O)(=O)C2=CC(N)=C(C)C=C2)C=C1", 
	 "Tm": 385.15, 
	 "num_atms": 38, 
	 "gaussian": { 
		 "optdone": 1, 
		 "sigma_profile": "yes", 
		 "theory": "DFT", 
		 "functional": "B3LYP", 
		 "basiset": "6-31G**", 
		 "properties": { 
			 "R2extent": 7324.1797, 
			 "electric_dipole_moment_norm": 6.27841145992, 
			 "electric_quadrupole_moment_norm": 21.749436655, 
			 "total_energy": -1240.54027576, 
			 "HOMO_LUMO_gap": 0.18613, 
			 "cosmo_polarized_energy": -19.86, 
			 "cosmo_cavitation_energy": 41.88, 
			 "cosmo_dispersion_energy": -28.96, 
			 "cosmo_repulsion_energy": 2.21, 
			 "cosmo_total_nonelectrostatic_energy": 15.13, 
			 "SMD_solvation_energy": 6.33 
		},
		"coords": [
			{
				"x": 2.6816683264,
				"y": 3.163183908,
				"z": 2.8081919988,
				"element": "C" 
			},
			{
				"x": 2.5831108895,
				"y": 2.4708448409,
				"z": 1.4691697815,
				"element": "C" 
			},
			{
				"x": 3.6473354255,
				"y": 1.7038332603,
				"z": 0.9791326901,
				"element": "C" 
			},
			{
				"x": 3.5979051481,
				"y": 1.028388038,
				"z": -0.2459629481,
				"element": "C" 
			},
			{
				"x": 4.7916172038,
				"y": 0.2527805083,
				"z": -0.7426637085,
				"element": "C" 
			},
			{
				"x": 2.409051736,
				"y": 1.1251674094,
				"z": -0.9966435243,
				"element": "C" 
			},
			{
				"x": 2.327447761,
				"y": 0.4871009154,
				"z": -2.2810428386,
				"element": "N" 
			},
			{
				"x": 1.7942693467,
				"y": -1.1243128826,
				"z": -2.4268829445,
				"element": "S" 
			},
			{
				"x": 1.8210393374,
				"y": -1.3869238786,
				"z": -3.866848102,
				"element": "O" 
			},
			{
				"x": 2.5703529818,
				"y": -1.9128439793,
				"z": -1.4684084348,
				"element": "O" 
			},
			{
				"x": 0.0794933344,
				"y": -1.1629380324,
				"z": -1.8956802918,
				"element": "C" 
			},
			{
				"x": -0.2045447285,
				"y": -1.3991339669,
				"z": -0.5527429992,
				"element": "C" 
			},
			{
				"x": -1.5365151625,
				"y": -1.4034895052,
				"z": -0.1121883041,
				"element": "C" 
			},
			{
				"x": -1.82651364,
				"y": -1.5866057834,
				"z": 1.2392524709,
				"element": "N" 
			},
			{
				"x": -2.5791717735,
				"y": -1.1634973447,
				"z": -1.0402952357,
				"element": "C" 
			},
			{
				"x": -4.0131152908,
				"y": -1.1529291948,
				"z": -0.5756974046,
				"element": "C" 
			},
			{
				"x": -2.250856214,
				"y": -0.9402132715,
				"z": -2.3800572259,
				"element": "C" 
			},
			{
				"x": -0.9307502142,
				"y": -0.9340375097,
				"z": -2.8304157302,
				"element": "C" 
			},
			{
				"x": 1.3376904144,
				"y": 1.8924340035,
				"z": -0.5257090867,
				"element": "C" 
			},
			{
				"x": 1.4246698439,
				"y": 2.5661200347,
				"z": 0.6898369897,
				"element": "C" 
			},
			{
				"x": 2.3728391793,
				"y": 2.4958667956,
				"z": 3.6228177848,
				"element": "H" 
			},
			{
				"x": 2.0381178412,
				"y": 4.0469350651,
				"z": 2.8507239688,
				"element": "H" 
			},
			{
				"x": 3.7073654705,
				"y": 3.479506032,
				"z": 3.021262948,
				"element": "H" 
			},
			{
				"x": 4.5629291944,
				"y": 1.6426975813,
				"z": 1.5636860822,
				"element": "H" 
			},
			{
				"x": 4.9708212077,
				"y": 0.4521306146,
				"z": -1.8032577997,
				"element": "H" 
			},
			{
				"x": 4.6256172661,
				"y": -0.8243181509,
				"z": -0.6529740337,
				"element": "H" 
			},
			{
				"x": 5.687796508,
				"y": 0.5193374711,
				"z": -0.1757113274,
				"element": "H" 
			},
			{
				"x": 1.8695874082,
				"y": 1.0429213285,
				"z": -2.9983624806,
				"element": "H" 
			},
			{
				"x": 0.6058439195,
				"y": -1.5987803802,
				"z": 0.1405981071,
				"element": "H" 
			},
			{
				"x": -1.0782737793,
				"y": -1.9901343698,
				"z": 1.7858554966,
				"element": "H" 
			},
			{
				"x": -2.7191937516,
				"y": -2.0117443444,
				"z": 1.4463224732,
				"element": "H" 
			},
			{
				"x": -4.3278751555,
				"y": -2.1347229582,
				"z": -0.1940006004,
				"element": "H" 
			},
			{
				"x": -4.6905144167,
				"y": -0.8924495587,
				"z": -1.3922609754,
				"element": "H" 
			},
			{
				"x": -4.1640185863,
				"y": -0.4300986097,
				"z": 0.2355778007,
				"element": "H" 
			},
			{
				"x": -3.0555744753,
				"y": -0.7720778639,
				"z": -3.0912452814,
				"element": "H" 
			},
			{
				"x": -0.6891557984,
				"y": -0.7866832452,
				"z": -3.8765254346,
				"element": "H" 
			},
			{
				"x": 0.4320128927,
				"y": 1.9610455557,
				"z": -1.1224172485,
				"element": "H" 
			},
			{
				"x": 0.5855903501,
				"y": 3.1644414676,
				"z": 1.0350653684,
				"element": "H" 
			}
		],
		 "valence_orbital": [ 
			{
				"type": "occ",
				"energy": -0.28897,
				"method": "rhf"
			},
			{
				"type": "occ",
				"energy": -0.25529,
				"method": "rhf"
			},
			{
				"type": "occ",
				"energy": -0.24387,
				"method": "rhf"
			},
			{
				"type": "occ",
				"energy": -0.23049,
				"method": "rhf"
			},
			{
				"type": "occ",
				"energy": -0.21583,
				"method": "rhf"
			},
			{
				"type": "unocc",
				"energy": -0.0297,
				"method": "rhf"
			},
			{
				"type": "unocc",
				"energy": -0.00694,
				"method": "rhf"
			},
			{
				"type": "unocc",
				"energy": -0.00294,
				"method": "rhf"
			},
			{
				"type": "unocc",
				"energy": 0.00313,
				"method": "rhf"
			},
			{
				"type": "unocc",
				"energy": 0.06479,
				"method": "rhf"
			}
		],
		"cosmo_sigma_profile": { 
			"-0.025": 0.0,
			"-0.024": 0.0,
			"-0.023": 0.0,
			"-0.022": 0.0,
			"-0.021": 0.0,
			"-0.02": 0.0,
			"-0.019": 0.0,
			"-0.018": 0.0,
			"-0.017": 0.0,
			"-0.016": 0.0,
			"-0.015": 0.564182718795,
			"-0.014": 1.00670186647,
			"-0.013": 1.76521120462,
			"-0.012": 3.8213573574,
			"-0.011": 3.95437963285,
			"-0.01": 5.05765999178,
			"-0.009": 4.14150316862,
			"-0.008": 3.64864851408,
			"-0.007": 4.6190627271,
			"-0.006": 9.46585845737,
			"-0.005": 16.565063344,
			"-0.004": 27.5950738535,
			"-0.003": 22.4483110168,
			"-0.002": 24.1898377635,
			"-0.001": 27.1718378314,
			"0.0": 32.0452519201,
			"0.001": 23.0642599182,
			"0.002": 17.0645610081,
			"0.003": 21.6312589385,
			"0.004": 22.8904621372,
			"0.005": 15.8723574064,
			"0.006": 7.40071662713,
			"0.007": 6.15377425662,
			"0.008": 4.72961973494,
			"0.009": 4.81690896918,
			"0.01": 5.71823784672,
			"0.011": 8.08849842308,
			"0.012": 4.84544440492,
			"0.013": 0.523017956107,
			"0.014": 0.152508420615,
			"0.015": 0.0,
			"0.016": 0.0,
			"0.017": 0.0,
			"0.018": 0.0,
			"0.019": 0.0,
			"0.02": 0.0,
			"0.021": 0.0,
			"0.022": 0.0,
			"0.023": 0.0,
			"0.024": 0.0,
			"0.025": 0.0
		}
	}
}
