{
	 "smiles": "O=C1NCCC1C1=CC=CC=C1", 
	 "Tm": 356.15, 
	 "num_atms": 23, 
	 "gaussian": { 
		 "optdone": 1, 
		 "sigma_profile": "yes", 
		 "theory": "DFT", 
		 "functional": "B3LYP", 
		 "basiset": "6-31G**", 
		 "properties": { 
			 "R2extent": 2436.1199, 
			 "electric_dipole_moment_norm": 3.81494245435, 
			 "electric_quadrupole_moment_norm": 19.4353021741, 
			 "total_energy": -517.685475981, 
			 "HOMO_LUMO_gap": 0.2293, 
			 "cosmo_polarized_energy": -13.31, 
			 "cosmo_cavitation_energy": 25.83, 
			 "cosmo_dispersion_energy": -18.88, 
			 "cosmo_repulsion_energy": 1.52, 
			 "cosmo_total_nonelectrostatic_energy": 8.47, 
			 "SMD_solvation_energy": 4.13 
		},
		"coords": [
			{
				"x": -1.5468409694,
				"y": 3.2893192993,
				"z": 0.2385739684,
				"element": "O" 
			},
			{
				"x": -1.3756018514,
				"y": 2.4452448015,
				"z": 1.0992355815,
				"element": "C" 
			},
			{
				"x": -2.2731143185,
				"y": 2.1003973378,
				"z": 2.0774683279,
				"element": "N" 
			},
			{
				"x": -1.8538957498,
				"y": 1.0264823411,
				"z": 2.9643687517,
				"element": "C" 
			},
			{
				"x": -0.3273921434,
				"y": 0.9754816671,
				"z": 2.7219496646,
				"element": "C" 
			},
			{
				"x": -0.1296738798,
				"y": 1.5540589233,
				"z": 1.2951275471,
				"element": "C" 
			},
			{
				"x": -0.0033851277,
				"y": 0.497398589,
				"z": 0.208741269,
				"element": "C" 
			},
			{
				"x": -1.1120227079,
				"y": -0.2301790192,
				"z": -0.2485271159,
				"element": "C" 
			},
			{
				"x": -0.9633874631,
				"y": -1.2287465793,
				"z": -1.2113129656,
				"element": "C" 
			},
			{
				"x": 0.2974470114,
				"y": -1.5182234022,
				"z": -1.7361457945,
				"element": "C" 
			},
			{
				"x": 1.4072673108,
				"y": -0.7970683405,
				"z": -1.2939670359,
				"element": "C" 
			},
			{
				"x": 1.2550310971,
				"y": 0.2017760112,
				"z": -0.3313473501,
				"element": "C" 
			},
			{
				"x": -3.1975457296,
				"y": 2.506580993,
				"z": 2.0802719801,
				"element": "H" 
			},
			{
				"x": -2.3383365732,
				"y": 0.0743765014,
				"z": 2.7062173221,
				"element": "H" 
			},
			{
				"x": -2.0976433017,
				"y": 1.2525716922,
				"z": 4.0078519933,
				"element": "H" 
			},
			{
				"x": 0.1752412486,
				"y": 1.6200875557,
				"z": 3.4497762663,
				"element": "H" 
			},
			{
				"x": 0.0742379998,
				"y": -0.0340990583,
				"z": 2.8304475744,
				"element": "H" 
			},
			{
				"x": 0.7519987712,
				"y": 2.19900551,
				"z": 1.2509547964,
				"element": "H" 
			},
			{
				"x": -2.103148559,
				"y": -0.0037896092,
				"z": 0.1351315346,
				"element": "H" 
			},
			{
				"x": -1.8356987359,
				"y": -1.7768171098,
				"z": -1.5564149366,
				"element": "H" 
			},
			{
				"x": 0.4122691647,
				"y": -2.293699876,
				"z": -2.4879323505,
				"element": "H" 
			},
			{
				"x": 2.3923037591,
				"y": -1.0072953237,
				"z": -1.7012443221,
				"element": "H" 
			},
			{
				"x": 2.1237907477,
				"y": 0.7627370957,
				"z": 0.0043752938,
				"element": "H" 
			}
		],
		 "valence_orbital": [ 
			{
				"type": "occ",
				"energy": -0.32526,
				"method": "rhf"
			},
			{
				"type": "occ",
				"energy": -0.25145,
				"method": "rhf"
			},
			{
				"type": "occ",
				"energy": -0.25057,
				"method": "rhf"
			},
			{
				"type": "occ",
				"energy": -0.2488,
				"method": "rhf"
			},
			{
				"type": "occ",
				"energy": -0.23159,
				"method": "rhf"
			},
			{
				"type": "unocc",
				"energy": -0.00229,
				"method": "rhf"
			},
			{
				"type": "unocc",
				"energy": -0.00141,
				"method": "rhf"
			},
			{
				"type": "unocc",
				"energy": 0.03287,
				"method": "rhf"
			},
			{
				"type": "unocc",
				"energy": 0.08018,
				"method": "rhf"
			},
			{
				"type": "unocc",
				"energy": 0.10083,
				"method": "rhf"
			}
		],
		"cosmo_sigma_profile": { 
			"-0.025": 0.0,
			"-0.024": 0.0,
			"-0.023": 0.0,
			"-0.022": 0.0,
			"-0.021": 0.0,
			"-0.02": 0.0,
			"-0.019": 0.0,
			"-0.018": 0.0,
			"-0.017": 0.0,
			"-0.016": 0.0,
			"-0.015": 0.0419100625877,
			"-0.014": 0.928923149131,
			"-0.013": 1.20207555905,
			"-0.012": 1.00593434711,
			"-0.011": 1.32271529808,
			"-0.01": 0.872370270843,
			"-0.009": 0.58842317137,
			"-0.008": 0.977619727861,
			"-0.007": 1.12575176048,
			"-0.006": 6.16505123639,
			"-0.005": 18.52369893,
			"-0.004": 27.1294354544,
			"-0.003": 26.058641874,
			"-0.002": 18.3025994828,
			"-0.001": 15.0539286718,
			"0.0": 9.74457980184,
			"0.001": 7.96734811948,
			"0.002": 8.03832024931,
			"0.003": 8.81356792157,
			"0.004": 9.32234635315,
			"0.005": 9.02513790885,
			"0.006": 10.2171466509,
			"0.007": 1.99798754056,
			"0.008": 1.94566898795,
			"0.009": 1.43904164857,
			"0.01": 1.19614012103,
			"0.011": 1.48267372676,
			"0.012": 1.82334281133,
			"0.013": 3.34143307491,
			"0.014": 6.28491495004,
			"0.015": 2.24099088849,
			"0.016": 0.0326295253772,
			"0.017": 0.0,
			"0.018": 0.0,
			"0.019": 0.0,
			"0.02": 0.0,
			"0.021": 0.0,
			"0.022": 0.0,
			"0.023": 0.0,
			"0.024": 0.0,
			"0.025": 0.0
		}
	}
}
