{
	 "smiles": "CN1C=NC(=C1SC1=NC=NC2=C1NC=N2)[N+]([O-])=O", 
	 "Tm": 517.15, 
	 "num_atms": 26, 
	 "gaussian": { 
		 "optdone": 1, 
		 "sigma_profile": "yes", 
		 "theory": "DFT", 
		 "functional": "B3LYP", 
		 "basiset": "6-31G**", 
		 "properties": { 
			 "R2extent": 5174.8755, 
			 "electric_dipole_moment_norm": 4.6207339298, 
			 "electric_quadrupole_moment_norm": 31.9026113195, 
			 "total_energy": -1278.95547848, 
			 "HOMO_LUMO_gap": 0.15736, 
			 "cosmo_polarized_energy": -23.57, 
			 "cosmo_cavitation_energy": 33.05, 
			 "cosmo_dispersion_energy": -24.01, 
			 "cosmo_repulsion_energy": 1.76, 
			 "cosmo_total_nonelectrostatic_energy": 10.8, 
			 "SMD_solvation_energy": 1.62 
		},
		"coords": [
			{
				"x": 1.100320067,
				"y": 1.8608404377,
				"z": 2.2896045069,
				"element": "C" 
			},
			{
				"x": 0.0369535306,
				"y": 1.6185457281,
				"z": 1.3147413349,
				"element": "N" 
			},
			{
				"x": -0.895463189,
				"y": 2.5249841495,
				"z": 0.8934803949,
				"element": "C" 
			},
			{
				"x": -1.767628521,
				"y": 2.0063528672,
				"z": 0.0580469668,
				"element": "N" 
			},
			{
				"x": -1.3740480645,
				"y": 0.7148134646,
				"z": -0.0781798504,
				"element": "C" 
			},
			{
				"x": -0.2467261208,
				"y": 0.4195996524,
				"z": 0.6868476721,
				"element": "C" 
			},
			{
				"x": 0.643726219,
				"y": -1.0561962577,
				"z": 1.0529598068,
				"element": "S" 
			},
			{
				"x": 2.1190345402,
				"y": -0.8061020786,
				"z": 0.0236443073,
				"element": "C" 
			},
			{
				"x": 3.2756056288,
				"y": -0.5404978112,
				"z": 0.6250931732,
				"element": "N" 
			},
			{
				"x": 4.3776406401,
				"y": -0.4201656563,
				"z": -0.1508082801,
				"element": "C" 
			},
			{
				"x": 4.4632681636,
				"y": -0.5257839114,
				"z": -1.4754433118,
				"element": "N" 
			},
			{
				"x": 3.2986694623,
				"y": -0.7823833317,
				"z": -2.0815020089,
				"element": "C" 
			},
			{
				"x": 2.0821077413,
				"y": -0.9357549819,
				"z": -1.3590712699,
				"element": "C" 
			},
			{
				"x": 1.1243097866,
				"y": -1.1933546932,
				"z": -2.3046771659,
				"element": "N" 
			},
			{
				"x": 1.779671458,
				"y": -1.1801058437,
				"z": -3.5108392158,
				"element": "C" 
			},
			{
				"x": 3.0710130786,
				"y": -0.9452105822,
				"z": -3.4305206538,
				"element": "N" 
			},
			{
				"x": -2.1259041285,
				"y": -0.168808522,
				"z": -0.9380699688,
				"element": "N" 
			},
			{
				"x": -3.2620230071,
				"y": 0.1575552481,
				"z": -1.2417422386,
				"element": "O" 
			},
			{
				"x": -1.5759633536,
				"y": -1.2210481975,
				"z": -1.3186096763,
				"element": "O" 
			},
			{
				"x": 0.8591579065,
				"y": 1.3785921984,
				"z": 3.2401111904,
				"element": "H" 
			},
			{
				"x": 2.0472617271,
				"y": 1.462910904,
				"z": 1.9225399319,
				"element": "H" 
			},
			{
				"x": 1.1841134223,
				"y": 2.9381437323,
				"z": 2.4390930275,
				"element": "H" 
			},
			{
				"x": -0.8814569295,
				"y": 3.5547903578,
				"z": 1.2241976596,
				"element": "H" 
			},
			{
				"x": 5.3012361639,
				"y": -0.2100719508,
				"z": 0.3826687481,
				"element": "H" 
			},
			{
				"x": 0.1266082243,
				"y": -1.3086501954,
				"z": -2.1199893382,
				"element": "H" 
			},
			{
				"x": 1.2444155538,
				"y": -1.3539947265,
				"z": -4.4355757418,
				"element": "H" 
			}
		],
		 "valence_orbital": [ 
			{
				"type": "occ",
				"energy": -0.28455,
				"method": "rhf"
			},
			{
				"type": "occ",
				"energy": -0.28271,
				"method": "rhf"
			},
			{
				"type": "occ",
				"energy": -0.27716,
				"method": "rhf"
			},
			{
				"type": "occ",
				"energy": -0.265,
				"method": "rhf"
			},
			{
				"type": "occ",
				"energy": -0.26103,
				"method": "rhf"
			},
			{
				"type": "unocc",
				"energy": -0.10367,
				"method": "rhf"
			},
			{
				"type": "unocc",
				"energy": -0.06954,
				"method": "rhf"
			},
			{
				"type": "unocc",
				"energy": -0.02932,
				"method": "rhf"
			},
			{
				"type": "unocc",
				"energy": -0.02167,
				"method": "rhf"
			},
			{
				"type": "unocc",
				"energy": 0.01169,
				"method": "rhf"
			}
		],
		"cosmo_sigma_profile": { 
			"-0.025": 0.0,
			"-0.024": 0.0,
			"-0.023": 0.0,
			"-0.022": 0.0,
			"-0.021": 0.0,
			"-0.02": 0.0,
			"-0.019": 0.0,
			"-0.018": 0.0,
			"-0.017": 0.0,
			"-0.016": 0.0,
			"-0.015": 0.0,
			"-0.014": 0.0,
			"-0.013": 0.156910941929,
			"-0.012": 1.52837683816,
			"-0.011": 6.54254653201,
			"-0.01": 5.73691943842,
			"-0.009": 5.91722606681,
			"-0.008": 8.07456601696,
			"-0.007": 10.839367566,
			"-0.006": 13.4039475252,
			"-0.005": 17.8457881074,
			"-0.004": 24.2339890748,
			"-0.003": 23.4190344983,
			"-0.002": 16.7327225159,
			"-0.001": 14.4318658358,
			"0.0": 12.1199648722,
			"0.001": 8.43779428325,
			"0.002": 11.2443285814,
			"0.003": 9.39783170162,
			"0.004": 7.67473301315,
			"0.005": 8.32842316899,
			"0.006": 8.54301605131,
			"0.007": 12.2685370989,
			"0.008": 9.74110458969,
			"0.009": 7.24432814185,
			"0.01": 4.87399928302,
			"0.011": 4.87094814888,
			"0.012": 5.53145522081,
			"0.013": 4.17807773134,
			"0.014": 3.72315490999,
			"0.015": 2.43516766849,
			"0.016": 0.444789615432,
			"0.017": 0.0,
			"0.018": 0.0,
			"0.019": 0.0,
			"0.02": 0.0,
			"0.021": 0.0,
			"0.022": 0.0,
			"0.023": 0.0,
			"0.024": 0.0,
			"0.025": 0.0
		}
	}
}
