{
	 "smiles": "ClC1=NC(OC2=CC(OC3=NC(Cl)=NC(Cl)=N3)=CC(OC3=NC(Cl)=NC(Cl)=N3)=C2)=NC(Cl)=N1", 
	 "Tm": 513.15, 
	 "num_atms": 36, 
	 "gaussian": { 
		 "optdone": 1, 
		 "sigma_profile": "yes", 
		 "theory": "DFT", 
		 "functional": "B3LYP", 
		 "basiset": "6-31G**", 
		 "properties": { 
			 "R2extent": 25691.303, 
			 "electric_dipole_moment_norm": 1.0459969216, 
			 "electric_quadrupole_moment_norm": 2.8789259143, 
			 "total_energy": -4052.95470844, 
			 "HOMO_LUMO_gap": 0.19752, 
			 "cosmo_polarized_energy": -19.06, 
			 "cosmo_cavitation_energy": 59.1, 
			 "cosmo_dispersion_energy": -40.73, 
			 "cosmo_repulsion_energy": 3.23, 
			 "cosmo_total_nonelectrostatic_energy": 21.59, 
			 "SMD_solvation_energy": -2.74 
		},
		"coords": [
			{
				"x": -4.6364930944,
				"y": 3.3378941922,
				"z": -4.1817395261,
				"element": "Cl" 
			},
			{
				"x": -3.6153900043,
				"y": 2.7530304434,
				"z": -2.9061204143,
				"element": "C" 
			},
			{
				"x": -3.1324030917,
				"y": 1.5292758175,
				"z": -3.047523115,
				"element": "N" 
			},
			{
				"x": -2.355183245,
				"y": 1.1488968543,
				"z": -2.0277044264,
				"element": "C" 
			},
			{
				"x": -1.848161394,
				"y": -0.0835354147,
				"z": -2.1665316918,
				"element": "O" 
			},
			{
				"x": -1.0325308302,
				"y": -0.6528020463,
				"z": -1.1869514343,
				"element": "C" 
			},
			{
				"x": 0.2323622268,
				"y": -1.0550475448,
				"z": -1.5967357738,
				"element": "C" 
			},
			{
				"x": 1.0348437284,
				"y": -1.7175694194,
				"z": -0.6700646347,
				"element": "C" 
			},
			{
				"x": 2.2760762617,
				"y": -2.243486413,
				"z": -1.0331364653,
				"element": "O" 
			},
			{
				"x": 3.2765727704,
				"y": -1.4551673642,
				"z": -1.4488130959,
				"element": "C" 
			},
			{
				"x": 3.1069222181,
				"y": -0.1323555141,
				"z": -1.49696464,
				"element": "N" 
			},
			{
				"x": 4.184961762,
				"y": 0.5216333697,
				"z": -1.9129677586,
				"element": "C" 
			},
			{
				"x": 4.0524498188,
				"y": 2.2502906087,
				"z": -2.0052755439,
				"element": "Cl" 
			},
			{
				"x": 5.3531002311,
				"y": -0.0024336347,
				"z": -2.2670264367,
				"element": "N" 
			},
			{
				"x": 5.3733610903,
				"y": -1.3333274859,
				"z": -2.1709947093,
				"element": "C" 
			},
			{
				"x": 6.8605624439,
				"y": -2.1090023302,
				"z": -2.6165305751,
				"element": "Cl" 
			},
			{
				"x": 4.3880775115,
				"y": -2.1232597597,
				"z": -1.7760033584,
				"element": "N" 
			},
			{
				"x": 0.6026038323,
				"y": -1.9935806283,
				"z": 0.6208973234,
				"element": "C" 
			},
			{
				"x": -0.6744019492,
				"y": -1.5691760988,
				"z": 0.9825355271,
				"element": "C" 
			},
			{
				"x": -1.22050455,
				"y": -1.896744222,
				"z": 2.2249297176,
				"element": "O" 
			},
			{
				"x": -0.6711631239,
				"y": -1.4636108096,
				"z": 3.3676848372,
				"element": "C" 
			},
			{
				"x": 0.4062297191,
				"y": -0.676844885,
				"z": 3.3329861647,
				"element": "N" 
			},
			{
				"x": 0.8318172661,
				"y": -0.3139316719,
				"z": 4.5371614236,
				"element": "C" 
			},
			{
				"x": 2.2312678237,
				"y": 0.7125026349,
				"z": 4.5853016557,
				"element": "Cl" 
			},
			{
				"x": 0.3043282287,
				"y": -0.6512941036,
				"z": 5.7087129802,
				"element": "N" 
			},
			{
				"x": -0.7639615401,
				"y": -1.441687635,
				"z": 5.5866445137,
				"element": "C" 
			},
			{
				"x": -1.5205606316,
				"y": -1.9378822841,
				"z": 7.0676145938,
				"element": "Cl" 
			},
			{
				"x": -1.3068263076,
				"y": -1.8876527041,
				"z": 4.4653683112,
				"element": "N" 
			},
			{
				"x": -1.5132780762,
				"y": -0.9054660594,
				"z": 0.0963297648,
				"element": "C" 
			},
			{
				"x": -2.059595967,
				"y": 1.8735269535,
				"z": -0.9467218154,
				"element": "N" 
			},
			{
				"x": -2.6192495066,
				"y": 3.0775356531,
				"z": -0.9510994091,
				"element": "C" 
			},
			{
				"x": -2.2867218642,
				"y": 4.0893151405,
				"z": 0.4200653569,
				"element": "Cl" 
			},
			{
				"x": -3.4064780975,
				"y": 3.5917811103,
				"z": -1.8894035126,
				"element": "N" 
			},
			{
				"x": 0.5694676966,
				"y": -0.8575134688,
				"z": -2.6057840225,
				"element": "H" 
			},
			{
				"x": 1.2445557824,
				"y": -2.5244992892,
				"z": 1.3114571675,
				"element": "H" 
			},
			{
				"x": -2.5057571385,
				"y": -0.6035119913,
				"z": 0.403903022,
				"element": "H" 
			}
		],
		 "valence_orbital": [ 
			{
				"type": "occ",
				"energy": -0.31483,
				"method": "rhf"
			},
			{
				"type": "occ",
				"energy": -0.31481,
				"method": "rhf"
			},
			{
				"type": "occ",
				"energy": -0.31481,
				"method": "rhf"
			},
			{
				"type": "occ",
				"energy": -0.2813,
				"method": "rhf"
			},
			{
				"type": "occ",
				"energy": -0.28125,
				"method": "rhf"
			},
			{
				"type": "unocc",
				"energy": -0.08373,
				"method": "rhf"
			},
			{
				"type": "unocc",
				"energy": -0.08371,
				"method": "rhf"
			},
			{
				"type": "unocc",
				"energy": -0.08308,
				"method": "rhf"
			},
			{
				"type": "unocc",
				"energy": -0.07267,
				"method": "rhf"
			},
			{
				"type": "unocc",
				"energy": -0.07261,
				"method": "rhf"
			}
		],
		"cosmo_sigma_profile": { 
			"-0.025": 0.0,
			"-0.024": 0.0,
			"-0.023": 0.0,
			"-0.022": 0.0,
			"-0.021": 0.0,
			"-0.02": 0.0,
			"-0.019": 0.0,
			"-0.018": 0.0,
			"-0.017": 0.0,
			"-0.016": 0.0,
			"-0.015": 0.0,
			"-0.014": 0.0,
			"-0.013": 0.0,
			"-0.012": 0.0,
			"-0.011": 1.08285513753,
			"-0.01": 6.74871227045,
			"-0.009": 13.3669515478,
			"-0.008": 12.3413482146,
			"-0.007": 14.2789609017,
			"-0.006": 17.5840716139,
			"-0.005": 23.3402340878,
			"-0.004": 25.57962027,
			"-0.003": 26.6919128186,
			"-0.002": 28.8436066804,
			"-0.001": 42.1895171455,
			"0.0": 39.6458980335,
			"0.001": 45.926543528,
			"0.002": 65.6219735673,
			"0.003": 37.8465587353,
			"0.004": 22.145377572,
			"0.005": 17.6928193092,
			"0.006": 14.6843708789,
			"0.007": 14.1469219782,
			"0.008": 9.08579419745,
			"0.009": 7.38500442959,
			"0.01": 5.73876347825,
			"0.011": 4.06828535746,
			"0.012": 0.321080544592,
			"0.013": 0.0,
			"0.014": 0.0,
			"0.015": 0.0,
			"0.016": 0.0,
			"0.017": 0.0,
			"0.018": 0.0,
			"0.019": 0.0,
			"0.02": 0.0,
			"0.021": 0.0,
			"0.022": 0.0,
			"0.023": 0.0,
			"0.024": 0.0,
			"0.025": 0.0
		}
	}
}
