{
	 "smiles": "CC(CC1CCCCC1)C1CCCCC1", 
	 "Tm": 251.15, 
	 "num_atms": 43, 
	 "gaussian": { 
		 "optdone": 1, 
		 "sigma_profile": "yes", 
		 "theory": "DFT", 
		 "functional": "B3LYP", 
		 "basiset": "6-31G**", 
		 "properties": { 
			 "R2extent": 3795.0869, 
			 "electric_dipole_moment_norm": 0.0924784839841, 
			 "electric_quadrupole_moment_norm": 0.707771474418, 
			 "total_energy": -588.491855678, 
			 "HOMO_LUMO_gap": 0.33905, 
			 "cosmo_polarized_energy": -0.82, 
			 "cosmo_cavitation_energy": 36.48, 
			 "cosmo_dispersion_energy": -26.12, 
			 "cosmo_repulsion_energy": 2.01, 
			 "cosmo_total_nonelectrostatic_energy": 12.38, 
			 "SMD_solvation_energy": 4.28 
		},
		"coords": [
			{
				"x": -0.1520639079,
				"y": -1.7268559185,
				"z": 2.2931428185,
				"element": "C" 
			},
			{
				"x": 0.6456991113,
				"y": -1.3301284623,
				"z": 1.0343331385,
				"element": "C" 
			},
			{
				"x": 1.4217265096,
				"y": 0.00890121,
				"z": 1.2244659304,
				"element": "C" 
			},
			{
				"x": 0.8300758305,
				"y": 1.4510475787,
				"z": 1.377829091,
				"element": "C" 
			},
			{
				"x": 0.5580638356,
				"y": 2.2410250945,
				"z": 0.0680502518,
				"element": "C" 
			},
			{
				"x": -0.8606777247,
				"y": 2.1297437831,
				"z": -0.5100839306,
				"element": "C" 
			},
			{
				"x": -1.9217694683,
				"y": 2.4364183334,
				"z": 0.5553461244,
				"element": "C" 
			},
			{
				"x": -1.7464405713,
				"y": 1.5192943745,
				"z": 1.773422631,
				"element": "C" 
			},
			{
				"x": -0.3379613462,
				"y": 1.6471955189,
				"z": 2.3786787616,
				"element": "C" 
			},
			{
				"x": -0.1796237227,
				"y": -1.5126284763,
				"z": -0.2651603504,
				"element": "C" 
			},
			{
				"x": -0.770373527,
				"y": -2.9510513407,
				"z": -0.3567601179,
				"element": "C" 
			},
			{
				"x": -1.0717846886,
				"y": -3.4078204099,
				"z": -1.8038945026,
				"element": "C" 
			},
			{
				"x": -1.4568202094,
				"y": -2.2194331034,
				"z": -2.6909295413,
				"element": "C" 
			},
			{
				"x": -0.2730719213,
				"y": -1.2334110796,
				"z": -2.8119881876,
				"element": "C" 
			},
			{
				"x": 0.6223775825,
				"y": -1.2231025502,
				"z": -1.5485056865,
				"element": "C" 
			},
			{
				"x": -1.0733260841,
				"y": -1.1487514593,
				"z": 2.4050456944,
				"element": "H" 
			},
			{
				"x": 0.4488121098,
				"y": -1.5702485475,
				"z": 3.1955529647,
				"element": "H" 
			},
			{
				"x": -0.4326759894,
				"y": -2.7834263359,
				"z": 2.2708960725,
				"element": "H" 
			},
			{
				"x": 1.4613165007,
				"y": -2.0687055501,
				"z": 0.9580474233,
				"element": "H" 
			},
			{
				"x": 2.1729359964,
				"y": 0.0774673797,
				"z": 0.4273688001,
				"element": "H" 
			},
			{
				"x": 2.0067624072,
				"y": -0.157034852,
				"z": 2.1397596879,
				"element": "H" 
			},
			{
				"x": 1.6833029117,
				"y": 1.9760039408,
				"z": 1.829386193,
				"element": "H" 
			},
			{
				"x": 0.7327927545,
				"y": 3.3033689324,
				"z": 0.2919295874,
				"element": "H" 
			},
			{
				"x": 1.3033782548,
				"y": 1.9707445263,
				"z": -0.6902600403,
				"element": "H" 
			},
			{
				"x": -1.0341032714,
				"y": 1.1253619511,
				"z": -0.9111165977,
				"element": "H" 
			},
			{
				"x": -0.961288162,
				"y": 2.8195329748,
				"z": -1.3574786316,
				"element": "H" 
			},
			{
				"x": -2.9290761337,
				"y": 2.3260030009,
				"z": 0.1357363343,
				"element": "H" 
			},
			{
				"x": -1.8281647734,
				"y": 3.4854528798,
				"z": 0.8722620916,
				"element": "H" 
			},
			{
				"x": -1.9410749805,
				"y": 0.4850396407,
				"z": 1.4654168966,
				"element": "H" 
			},
			{
				"x": -2.4938509352,
				"y": 1.7572028246,
				"z": 2.5406128935,
				"element": "H" 
			},
			{
				"x": -0.2232673264,
				"y": 0.9700981047,
				"z": 3.2323249584,
				"element": "H" 
			},
			{
				"x": -0.2528430587,
				"y": 2.6640016082,
				"z": 2.7880986555,
				"element": "H" 
			},
			{
				"x": -1.0243260319,
				"y": -0.8117862643,
				"z": -0.232928095,
				"element": "H" 
			},
			{
				"x": -0.0692742237,
				"y": -3.6613314997,
				"z": 0.1015392137,
				"element": "H" 
			},
			{
				"x": -1.6890499934,
				"y": -3.0021916965,
				"z": 0.2385940919,
				"element": "H" 
			},
			{
				"x": -0.1878133234,
				"y": -3.8968344306,
				"z": -2.2341798974,
				"element": "H" 
			},
			{
				"x": -1.863838125,
				"y": -4.1653757197,
				"z": -1.7979811494,
				"element": "H" 
			},
			{
				"x": -1.7732755115,
				"y": -2.5578977322,
				"z": -3.6840883164,
				"element": "H" 
			},
			{
				"x": -2.3253479225,
				"y": -1.7123608045,
				"z": -2.25018372,
				"element": "H" 
			},
			{
				"x": 0.3414436699,
				"y": -1.4962548103,
				"z": -3.6816479044,
				"element": "H" 
			},
			{
				"x": -0.6561366598,
				"y": -0.2242196163,
				"z": -3.0045169108,
				"element": "H" 
			},
			{
				"x": 1.1409391914,
				"y": -0.2627986054,
				"z": -1.4841634526,
				"element": "H" 
			},
			{
				"x": 1.4092929278,
				"y": -1.9848543918,
				"z": -1.6414732733,
				"element": "H" 
			}
		],
		 "valence_orbital": [ 
			{
				"type": "occ",
				"energy": -0.28966,
				"method": "rhf"
			},
			{
				"type": "occ",
				"energy": -0.28746,
				"method": "rhf"
			},
			{
				"type": "occ",
				"energy": -0.28645,
				"method": "rhf"
			},
			{
				"type": "occ",
				"energy": -0.28114,
				"method": "rhf"
			},
			{
				"type": "occ",
				"energy": -0.27539,
				"method": "rhf"
			},
			{
				"type": "unocc",
				"energy": 0.06366,
				"method": "rhf"
			},
			{
				"type": "unocc",
				"energy": 0.0844,
				"method": "rhf"
			},
			{
				"type": "unocc",
				"energy": 0.09256,
				"method": "rhf"
			},
			{
				"type": "unocc",
				"energy": 0.09962,
				"method": "rhf"
			},
			{
				"type": "unocc",
				"energy": 0.11433,
				"method": "rhf"
			}
		],
		"cosmo_sigma_profile": { 
			"-0.025": 0.0,
			"-0.024": 0.0,
			"-0.023": 0.0,
			"-0.022": 0.0,
			"-0.021": 0.0,
			"-0.02": 0.0,
			"-0.019": 0.0,
			"-0.018": 0.0,
			"-0.017": 0.0,
			"-0.016": 0.0,
			"-0.015": 0.0,
			"-0.014": 0.0,
			"-0.013": 0.0,
			"-0.012": 0.0,
			"-0.011": 0.0,
			"-0.01": 0.0,
			"-0.009": 0.0,
			"-0.008": 0.0,
			"-0.007": 0.0,
			"-0.006": 0.0,
			"-0.005": 0.0,
			"-0.004": 0.00610173288816,
			"-0.003": 1.40070662373,
			"-0.002": 26.9732128563,
			"-0.001": 72.171921206,
			"0.0": 82.016443173,
			"0.001": 60.1042499453,
			"0.002": 33.4033709704,
			"0.003": 1.50353166752,
			"0.004": 0.0,
			"0.005": 0.0,
			"0.006": 0.0,
			"0.007": 0.0,
			"0.008": 0.0,
			"0.009": 0.0,
			"0.01": 0.0,
			"0.011": 0.0,
			"0.012": 0.0,
			"0.013": 0.0,
			"0.014": 0.0,
			"0.015": 0.0,
			"0.016": 0.0,
			"0.017": 0.0,
			"0.018": 0.0,
			"0.019": 0.0,
			"0.02": 0.0,
			"0.021": 0.0,
			"0.022": 0.0,
			"0.023": 0.0,
			"0.024": 0.0,
			"0.025": 0.0
		}
	}
}
