{
	 "smiles": "CC(=O)OC1=C(NC2=CC(=CC=C12)[N+]([O-])=O)C1=CC=CC=C1", 
	 "Tm": 464.15, 
	 "num_atms": 34, 
	 "gaussian": { 
		 "optdone": 1, 
		 "sigma_profile": "yes", 
		 "theory": "DFT", 
		 "functional": "B3LYP", 
		 "basiset": "6-31G**", 
		 "properties": { 
			 "R2extent": 8149.1452, 
			 "electric_dipole_moment_norm": 8.01833999154, 
			 "electric_quadrupole_moment_norm": 24.1370660711, 
			 "total_energy": -1027.25431975, 
			 "HOMO_LUMO_gap": 0.13488, 
			 "cosmo_polarized_energy": -19.4, 
			 "cosmo_cavitation_energy": 39.94, 
			 "cosmo_dispersion_energy": -28.2, 
			 "cosmo_repulsion_energy": 2.13, 
			 "cosmo_total_nonelectrostatic_energy": 13.87, 
			 "SMD_solvation_energy": 9.64 
		},
		"coords": [
			{
				"x": 0.1983617844,
				"y": 3.4386005328,
				"z": 3.1171338159,
				"element": "C" 
			},
			{
				"x": -0.3588023413,
				"y": 2.3911090845,
				"z": 2.1867870137,
				"element": "C" 
			},
			{
				"x": -1.5152270578,
				"y": 2.0703565894,
				"z": 2.0780040332,
				"element": "O" 
			},
			{
				"x": 0.6650700826,
				"y": 1.8231980868,
				"z": 1.465493531,
				"element": "O" 
			},
			{
				"x": 0.3865891831,
				"y": 0.8042461328,
				"z": 0.5698513298,
				"element": "C" 
			},
			{
				"x": 0.8899246823,
				"y": 0.7929876307,
				"z": -0.7214060777,
				"element": "C" 
			},
			{
				"x": 0.5845674347,
				"y": -0.4425380265,
				"z": -1.2742234417,
				"element": "N" 
			},
			{
				"x": -0.1328273221,
				"y": -1.1989481842,
				"z": -0.3728089191,
				"element": "C" 
			},
			{
				"x": -0.6612254463,
				"y": -2.4787857879,
				"z": -0.510083514,
				"element": "C" 
			},
			{
				"x": -1.3141539246,
				"y": -2.9970302538,
				"z": 0.6023404547,
				"element": "C" 
			},
			{
				"x": -1.4502673538,
				"y": -2.2899911829,
				"z": 1.8135986046,
				"element": "C" 
			},
			{
				"x": -0.9272963829,
				"y": -1.0145565339,
				"z": 1.9308691778,
				"element": "C" 
			},
			{
				"x": -0.2616449319,
				"y": -0.4420959722,
				"z": 0.828458663,
				"element": "C" 
			},
			{
				"x": -1.8817766028,
				"y": -4.3432656721,
				"z": 0.5034177559,
				"element": "N" 
			},
			{
				"x": -2.447229147,
				"y": -4.8044791536,
				"z": 1.4963020044,
				"element": "O" 
			},
			{
				"x": -1.7610930857,
				"y": -4.9420043538,
				"z": -0.5687528485,
				"element": "O" 
			},
			{
				"x": 1.6649113785,
				"y": 1.7870585342,
				"z": -1.4668133832,
				"element": "C" 
			},
			{
				"x": 2.5815563567,
				"y": 1.3794995265,
				"z": -2.4541725249,
				"element": "C" 
			},
			{
				"x": 3.3069736967,
				"y": 2.3187006467,
				"z": -3.1839982391,
				"element": "C" 
			},
			{
				"x": 3.1369364041,
				"y": 3.6823817865,
				"z": -2.9384794797,
				"element": "C" 
			},
			{
				"x": 2.2347102426,
				"y": 4.0986198618,
				"z": -1.9566074784,
				"element": "C" 
			},
			{
				"x": 1.5030490601,
				"y": 3.1638453296,
				"z": -1.2285561739,
				"element": "C" 
			},
			{
				"x": 0.8596726915,
				"y": 2.9678129423,
				"z": 3.851077273,
				"element": "H" 
			},
			{
				"x": -0.6225380041,
				"y": 3.9397657402,
				"z": 3.6285103779,
				"element": "H" 
			},
			{
				"x": 0.7977208196,
				"y": 4.1642087992,
				"z": 2.5601940198,
				"element": "H" 
			},
			{
				"x": 0.6817155647,
				"y": -0.653751061,
				"z": -2.254699835,
				"element": "H" 
			},
			{
				"x": -0.5782960561,
				"y": -3.0654661778,
				"z": -1.4164106715,
				"element": "H" 
			},
			{
				"x": -1.9746750971,
				"y": -2.7637761431,
				"z": 2.6329909839,
				"element": "H" 
			},
			{
				"x": -1.0500062853,
				"y": -0.4570279918,
				"z": 2.8511842438,
				"element": "H" 
			},
			{
				"x": 2.7525108042,
				"y": 0.3208673461,
				"z": -2.6285397668,
				"element": "H" 
			},
			{
				"x": 4.013236411,
				"y": 1.9837757157,
				"z": -3.9379810307,
				"element": "H" 
			},
			{
				"x": 3.7035846044,
				"y": 4.4145014423,
				"z": -3.5058864323,
				"element": "H" 
			},
			{
				"x": 2.0927353322,
				"y": 5.1578622916,
				"z": -1.7630692861,
				"element": "H" 
			},
			{
				"x": 0.7905325054,
				"y": 3.4962184751,
				"z": -0.4831241797,
				"element": "H" 
			}
		],
		 "valence_orbital": [ 
			{
				"type": "occ",
				"energy": -0.28077,
				"method": "rhf"
			},
			{
				"type": "occ",
				"energy": -0.27741,
				"method": "rhf"
			},
			{
				"type": "occ",
				"energy": -0.26954,
				"method": "rhf"
			},
			{
				"type": "occ",
				"energy": -0.24096,
				"method": "rhf"
			},
			{
				"type": "occ",
				"energy": -0.21625,
				"method": "rhf"
			},
			{
				"type": "unocc",
				"energy": -0.08137,
				"method": "rhf"
			},
			{
				"type": "unocc",
				"energy": -0.04303,
				"method": "rhf"
			},
			{
				"type": "unocc",
				"energy": -0.02056,
				"method": "rhf"
			},
			{
				"type": "unocc",
				"energy": -0.00771,
				"method": "rhf"
			},
			{
				"type": "unocc",
				"energy": -0.00283,
				"method": "rhf"
			}
		],
		"cosmo_sigma_profile": { 
			"-0.025": 0.0,
			"-0.024": 0.0,
			"-0.023": 0.0,
			"-0.022": 0.0,
			"-0.021": 0.0,
			"-0.02": 0.0,
			"-0.019": 0.0,
			"-0.018": 0.0,
			"-0.017": 0.174744649882,
			"-0.016": 1.0708612171,
			"-0.015": 1.52781088592,
			"-0.014": 1.23677218582,
			"-0.013": 1.0031652519,
			"-0.012": 1.71477236688,
			"-0.011": 1.89695668994,
			"-0.01": 1.54969279961,
			"-0.009": 1.74087624694,
			"-0.008": 3.0717976722,
			"-0.007": 7.80841324049,
			"-0.006": 22.213057349,
			"-0.005": 23.2399975572,
			"-0.004": 23.1203527847,
			"-0.003": 20.4271323207,
			"-0.002": 21.360307549,
			"-0.001": 16.8585713594,
			"0.0": 20.7619883301,
			"0.001": 27.0340972532,
			"0.002": 24.9409989606,
			"0.003": 18.9532872378,
			"0.004": 18.7908234443,
			"0.005": 12.6525191277,
			"0.006": 5.75469691599,
			"0.007": 7.21629182247,
			"0.008": 12.2663007967,
			"0.009": 7.74298073417,
			"0.01": 7.15984798159,
			"0.011": 5.97421542418,
			"0.012": 1.74647675474,
			"0.013": 0.0203647579106,
			"0.014": 0.0,
			"0.015": 0.0,
			"0.016": 0.0,
			"0.017": 0.0,
			"0.018": 0.0,
			"0.019": 0.0,
			"0.02": 0.0,
			"0.021": 0.0,
			"0.022": 0.0,
			"0.023": 0.0,
			"0.024": 0.0,
			"0.025": 0.0
		}
	}
}
