{
	 "smiles": "OC(=O)C1=CC(=CC=C1)S(=O)(=O)NCC1=CN=CC=C1", 
	 "Tm": 505.15, 
	 "num_atms": 32, 
	 "gaussian": { 
		 "optdone": 1, 
		 "sigma_profile": "yes", 
		 "theory": "DFT", 
		 "functional": "B3LYP", 
		 "basiset": "6-31G**", 
		 "properties": { 
			 "R2extent": 5970.2731, 
			 "electric_dipole_moment_norm": 2.55317337641, 
			 "electric_quadrupole_moment_norm": 28.0323825637, 
			 "total_energy": -1311.14069339, 
			 "HOMO_LUMO_gap": 0.18748, 
			 "cosmo_polarized_energy": -21.81, 
			 "cosmo_cavitation_energy": 38.39, 
			 "cosmo_dispersion_energy": -25.82, 
			 "cosmo_repulsion_energy": 1.93, 
			 "cosmo_total_nonelectrostatic_energy": 14.51, 
			 "SMD_solvation_energy": 4.75 
		},
		"coords": [
			{
				"x": 3.5048768734,
				"y": -1.1386859471,
				"z": 1.3752864869,
				"element": "O" 
			},
			{
				"x": 2.2587802002,
				"y": -1.3870395585,
				"z": 0.9048359368,
				"element": "C" 
			},
			{
				"x": 1.407882068,
				"y": -1.9361911034,
				"z": 1.5752547429,
				"element": "O" 
			},
			{
				"x": 2.0628444882,
				"y": -0.9148848998,
				"z": -0.4937629689,
				"element": "C" 
			},
			{
				"x": 0.8185416128,
				"y": -1.153990319,
				"z": -1.0899671663,
				"element": "C" 
			},
			{
				"x": 0.5959887057,
				"y": -0.7081120327,
				"z": -2.3874638533,
				"element": "C" 
			},
			{
				"x": 1.591332573,
				"y": -0.0481545704,
				"z": -3.1144331808,
				"element": "C" 
			},
			{
				"x": 2.8291502376,
				"y": 0.1796041525,
				"z": -2.5149964531,
				"element": "C" 
			},
			{
				"x": 3.0664415058,
				"y": -0.2475358223,
				"z": -1.2077825666,
				"element": "C" 
			},
			{
				"x": -0.9953776321,
				"y": -1.0057867475,
				"z": -3.16422177,
				"element": "S" 
			},
			{
				"x": -0.7683771268,
				"y": -1.1559775279,
				"z": -4.6058614511,
				"element": "O" 
			},
			{
				"x": -1.6873350081,
				"y": -2.0320446316,
				"z": -2.3759115583,
				"element": "O" 
			},
			{
				"x": -1.8098513821,
				"y": 0.4787848308,
				"z": -3.0105857137,
				"element": "N" 
			},
			{
				"x": -2.8176373587,
				"y": 0.6133610529,
				"z": -1.9344874788,
				"element": "C" 
			},
			{
				"x": -2.1946102084,
				"y": 0.8624790377,
				"z": -0.5787816915,
				"element": "C" 
			},
			{
				"x": -1.5053232713,
				"y": 2.0534284291,
				"z": -0.3106172067,
				"element": "C" 
			},
			{
				"x": -0.9313418561,
				"y": 2.3426796354,
				"z": 0.860192642,
				"element": "N" 
			},
			{
				"x": -1.0246020755,
				"y": 1.4236499284,
				"z": 1.832362146,
				"element": "C" 
			},
			{
				"x": -1.6837924244,
				"y": 0.2046316617,
				"z": 1.679644408,
				"element": "C" 
			},
			{
				"x": -2.2811271631,
				"y": -0.0772880488,
				"z": 0.4510233606,
				"element": "C" 
			},
			{
				"x": 3.5198799425,
				"y": -1.4794778743,
				"z": 2.2847240728,
				"element": "H" 
			},
			{
				"x": 0.05084543,
				"y": -1.6823870444,
				"z": -0.5386908852,
				"element": "H" 
			},
			{
				"x": 1.3973688083,
				"y": 0.2646901842,
				"z": -4.1345799524,
				"element": "H" 
			},
			{
				"x": 3.6112577077,
				"y": 0.6886941751,
				"z": -3.069200461,
				"element": "H" 
			},
			{
				"x": 4.0265036595,
				"y": -0.0686955571,
				"z": -0.7375537107,
				"element": "H" 
			},
			{
				"x": -2.1801842043,
				"y": 0.6871744561,
				"z": -3.9352098617,
				"element": "H" 
			},
			{
				"x": -3.4733503463,
				"y": -0.2632262109,
				"z": -1.8864766067,
				"element": "H" 
			},
			{
				"x": -3.4302088054,
				"y": 1.4735641217,
				"z": -2.2249636702,
				"element": "H" 
			},
			{
				"x": -1.4117565135,
				"y": 2.8086939702,
				"z": -1.0905944218,
				"element": "H" 
			},
			{
				"x": -0.5481410909,
				"y": 1.676994553,
				"z": 2.7777574008,
				"element": "H" 
			},
			{
				"x": -1.7180249841,
				"y": -0.5084826408,
				"z": 2.4965924464,
				"element": "H" 
			},
			{
				"x": -2.7937523618,
				"y": -1.0206696522,
				"z": 0.2838689853,
				"element": "H" 
			}
		],
		 "valence_orbital": [ 
			{
				"type": "occ",
				"energy": -0.28635,
				"method": "rhf"
			},
			{
				"type": "occ",
				"energy": -0.27832,
				"method": "rhf"
			},
			{
				"type": "occ",
				"energy": -0.27181,
				"method": "rhf"
			},
			{
				"type": "occ",
				"energy": -0.25984,
				"method": "rhf"
			},
			{
				"type": "occ",
				"energy": -0.25335,
				"method": "rhf"
			},
			{
				"type": "unocc",
				"energy": -0.06587,
				"method": "rhf"
			},
			{
				"type": "unocc",
				"energy": -0.04069,
				"method": "rhf"
			},
			{
				"type": "unocc",
				"energy": -0.02564,
				"method": "rhf"
			},
			{
				"type": "unocc",
				"energy": -0.02015,
				"method": "rhf"
			},
			{
				"type": "unocc",
				"energy": 0.03225,
				"method": "rhf"
			}
		],
		"cosmo_sigma_profile": { 
			"-0.025": 0.0,
			"-0.024": 0.0,
			"-0.023": 0.0,
			"-0.022": 0.0,
			"-0.021": 0.0,
			"-0.02": 0.0,
			"-0.019": 0.241427162478,
			"-0.018": 1.19572254718,
			"-0.017": 0.677701996004,
			"-0.016": 0.653166714349,
			"-0.015": 1.54601053762,
			"-0.014": 2.21757526585,
			"-0.013": 1.17696113739,
			"-0.012": 2.11490741546,
			"-0.011": 1.78165658394,
			"-0.01": 1.65657558784,
			"-0.009": 1.84009147869,
			"-0.008": 6.3008302359,
			"-0.007": 13.3660737475,
			"-0.006": 19.7098963289,
			"-0.005": 17.8676981817,
			"-0.004": 17.0493717322,
			"-0.003": 17.5398433261,
			"-0.002": 17.5270811266,
			"-0.001": 18.913293022,
			"0.0": 23.7725090481,
			"0.001": 29.3694236433,
			"0.002": 21.8442904014,
			"0.003": 12.2948516117,
			"0.004": 10.4614791213,
			"0.005": 10.1386984784,
			"0.006": 6.83598774761,
			"0.007": 6.62777064993,
			"0.008": 8.24625446021,
			"0.009": 5.22075133311,
			"0.01": 10.4543226391,
			"0.011": 11.6167513858,
			"0.012": 2.74099174552,
			"0.013": 1.0225577639,
			"0.014": 1.19556069339,
			"0.015": 0.793226265088,
			"0.016": 0.750939892747,
			"0.017": 0.335333595704,
			"0.018": 0.0,
			"0.019": 0.0,
			"0.02": 0.0,
			"0.021": 0.0,
			"0.022": 0.0,
			"0.023": 0.0,
			"0.024": 0.0,
			"0.025": 0.0
		}
	}
}
