{
	 "smiles": "OC(=O)C1=CN(N=C1C1=CC=C(Cl)S1)C1=CC=CC=C1", 
	 "Tm": 483.15, 
	 "num_atms": 29, 
	 "gaussian": { 
		 "optdone": 1, 
		 "sigma_profile": "yes", 
		 "theory": "DFT", 
		 "functional": "B3LYP", 
		 "basiset": "6-31G**", 
		 "properties": { 
			 "R2extent": 8952.6473, 
			 "electric_dipole_moment_norm": 7.56530032451, 
			 "electric_quadrupole_moment_norm": 14.3651585971, 
			 "total_energy": -1657.21462595, 
			 "HOMO_LUMO_gap": 0.15697, 
			 "cosmo_polarized_energy": -19.66, 
			 "cosmo_cavitation_energy": 37.9, 
			 "cosmo_dispersion_energy": -28.24, 
			 "cosmo_repulsion_energy": 2.1, 
			 "cosmo_total_nonelectrostatic_energy": 11.76, 
			 "SMD_solvation_energy": 6.43 
		},
		"coords": [
			{
				"x": -1.4977716035,
				"y": -1.2598208877,
				"z": -3.3627097701,
				"element": "O" 
			},
			{
				"x": -0.8845004215,
				"y": -1.7360504499,
				"z": -2.2415435791,
				"element": "C" 
			},
			{
				"x": -0.8597757144,
				"y": -2.9288702798,
				"z": -2.0360356819,
				"element": "O" 
			},
			{
				"x": -0.2610110956,
				"y": -0.7265368885,
				"z": -1.3694831566,
				"element": "C" 
			},
			{
				"x": 0.176591048,
				"y": 0.5300693485,
				"z": -1.7644623948,
				"element": "C" 
			},
			{
				"x": 0.7356857448,
				"y": 1.1200273691,
				"z": -0.6812701524,
				"element": "N" 
			},
			{
				"x": 0.6998320174,
				"y": 0.3139639608,
				"z": 0.4080989434,
				"element": "N" 
			},
			{
				"x": 0.1018767128,
				"y": -0.8169795753,
				"z": 0.0175731969,
				"element": "C" 
			},
			{
				"x": -0.123184437,
				"y": -1.845283091,
				"z": 1.0304466192,
				"element": "C" 
			},
			{
				"x": -0.0062539751,
				"y": -1.6258895253,
				"z": 2.3879119613,
				"element": "C" 
			},
			{
				"x": -0.2291400788,
				"y": -2.7790575476,
				"z": 3.1829051483,
				"element": "C" 
			},
			{
				"x": -0.5132484267,
				"y": -3.871084851,
				"z": 2.4077572849,
				"element": "C" 
			},
			{
				"x": -0.8636151975,
				"y": -5.4722171752,
				"z": 2.9702681743,
				"element": "Cl" 
			},
			{
				"x": -0.520369558,
				"y": -3.5248190161,
				"z": 0.7038478816,
				"element": "S" 
			},
			{
				"x": 1.3601960105,
				"y": 2.3967586627,
				"z": -0.6042403483,
				"element": "C" 
			},
			{
				"x": 2.3281350822,
				"y": 2.6259339373,
				"z": 0.3785569795,
				"element": "C" 
			},
			{
				"x": 2.9469173048,
				"y": 3.8723433841,
				"z": 0.447388056,
				"element": "C" 
			},
			{
				"x": 2.6139547444,
				"y": 4.8829735126,
				"z": -0.4574518187,
				"element": "C" 
			},
			{
				"x": 1.6428059642,
				"y": 4.6448420564,
				"z": -1.431258454,
				"element": "C" 
			},
			{
				"x": 1.0054681135,
				"y": 3.4069151427,
				"z": -1.504147576,
				"element": "C" 
			},
			{
				"x": -1.6242310696,
				"y": -0.3039268636,
				"z": -3.289358805,
				"element": "H" 
			},
			{
				"x": 0.1977898705,
				"y": 0.9966069481,
				"z": -2.7380994967,
				"element": "H" 
			},
			{
				"x": 0.2334390465,
				"y": -0.6489970927,
				"z": 2.7887765027,
				"element": "H" 
			},
			{
				"x": -0.1888029082,
				"y": -2.801598605,
				"z": 4.2646751647,
				"element": "H" 
			},
			{
				"x": 2.5779498863,
				"y": 1.82951579,
				"z": 1.0685166071,
				"element": "H" 
			},
			{
				"x": 3.6992932403,
				"y": 4.0502654314,
				"z": 1.2097341753,
				"element": "H" 
			},
			{
				"x": 3.1030805224,
				"y": 5.8503719213,
				"z": -0.4005996662,
				"element": "H" 
			},
			{
				"x": 1.365936271,
				"y": 5.4280602246,
				"z": -2.1303013859,
				"element": "H" 
			},
			{
				"x": 0.2242529062,
				"y": 3.241884159,
				"z": -2.2387944093,
				"element": "H" 
			}
		],
		 "valence_orbital": [ 
			{
				"type": "occ",
				"energy": -0.27807,
				"method": "rhf"
			},
			{
				"type": "occ",
				"energy": -0.27484,
				"method": "rhf"
			},
			{
				"type": "occ",
				"energy": -0.25661,
				"method": "rhf"
			},
			{
				"type": "occ",
				"energy": -0.25433,
				"method": "rhf"
			},
			{
				"type": "occ",
				"energy": -0.21272,
				"method": "rhf"
			},
			{
				"type": "unocc",
				"energy": -0.05575,
				"method": "rhf"
			},
			{
				"type": "unocc",
				"energy": -0.04577,
				"method": "rhf"
			},
			{
				"type": "unocc",
				"energy": -0.0252,
				"method": "rhf"
			},
			{
				"type": "unocc",
				"energy": -0.00254,
				"method": "rhf"
			},
			{
				"type": "unocc",
				"energy": 0.02063,
				"method": "rhf"
			}
		],
		"cosmo_sigma_profile": { 
			"-0.025": 0.0,
			"-0.024": 0.0,
			"-0.023": 0.0,
			"-0.022": 0.0,
			"-0.021": 0.0,
			"-0.02": 0.0,
			"-0.019": 0.634515455568,
			"-0.018": 0.937535066747,
			"-0.017": 1.12812176459,
			"-0.016": 1.45295019614,
			"-0.015": 1.4333609149,
			"-0.014": 0.848508098467,
			"-0.013": 1.24737379211,
			"-0.012": 1.88044957377,
			"-0.011": 3.06079385303,
			"-0.01": 2.05947616372,
			"-0.009": 2.17145572057,
			"-0.008": 4.68114148099,
			"-0.007": 6.56024130202,
			"-0.006": 14.9638925319,
			"-0.005": 15.2519030036,
			"-0.004": 15.6415713368,
			"-0.003": 15.1639594795,
			"-0.002": 16.0812161292,
			"-0.001": 21.8664999942,
			"0.0": 23.4770930903,
			"0.001": 24.9845152012,
			"0.002": 32.1706628826,
			"0.003": 35.2078805756,
			"0.004": 27.1595295996,
			"0.005": 7.69626591158,
			"0.006": 6.34431362701,
			"0.007": 4.21822138671,
			"0.008": 4.85932065853,
			"0.009": 4.7452579559,
			"0.01": 4.64045784422,
			"0.011": 4.01344803038,
			"0.012": 2.59232396847,
			"0.013": 1.06317909599,
			"0.014": 0.0,
			"0.015": 0.0,
			"0.016": 0.0,
			"0.017": 0.0,
			"0.018": 0.0,
			"0.019": 0.0,
			"0.02": 0.0,
			"0.021": 0.0,
			"0.022": 0.0,
			"0.023": 0.0,
			"0.024": 0.0,
			"0.025": 0.0
		}
	}
}
