{
	 "smiles": "CC(=O)OCC(COC(C)=O)OC(C)=O", 
	 "Tm": 351.15, 
	 "num_atms": 29, 
	 "gaussian": { 
		 "optdone": 1, 
		 "sigma_profile": "yes", 
		 "theory": "DFT", 
		 "functional": "B3LYP", 
		 "basiset": "6-31G**", 
		 "properties": { 
			 "R2extent": 4956.1172, 
			 "electric_dipole_moment_norm": 1.71017693237, 
			 "electric_quadrupole_moment_norm": 14.1370847836, 
			 "total_energy": -802.778642385, 
			 "HOMO_LUMO_gap": 0.27549, 
			 "cosmo_polarized_energy": -14.44, 
			 "cosmo_cavitation_energy": 33.84, 
			 "cosmo_dispersion_energy": -23.14, 
			 "cosmo_repulsion_energy": 1.87, 
			 "cosmo_total_nonelectrostatic_energy": 12.58, 
			 "SMD_solvation_energy": 9.02 
		},
		"coords": [
			{
				"x": -0.2095444559,
				"y": 2.8739648807,
				"z": -1.6334729405,
				"element": "C" 
			},
			{
				"x": -1.0872238343,
				"y": 1.6683701834,
				"z": -1.4181624462,
				"element": "C" 
			},
			{
				"x": -1.6885238674,
				"y": 1.0705125032,
				"z": -2.2847030971,
				"element": "O" 
			},
			{
				"x": -1.0899695983,
				"y": 1.311199697,
				"z": -0.1085755927,
				"element": "O" 
			},
			{
				"x": -1.7769721825,
				"y": 0.100843924,
				"z": 0.251618643,
				"element": "C" 
			},
			{
				"x": -0.8298203383,
				"y": -1.0980611396,
				"z": 0.2789728591,
				"element": "C" 
			},
			{
				"x": -1.4005554858,
				"y": -2.2635506877,
				"z": 1.0822009899,
				"element": "C" 
			},
			{
				"x": -1.4881346037,
				"y": -1.8299667206,
				"z": 2.4509463348,
				"element": "O" 
			},
			{
				"x": -1.953020972,
				"y": -2.7563499623,
				"z": 3.330905013,
				"element": "C" 
			},
			{
				"x": -1.9980621691,
				"y": -2.1918102736,
				"z": 4.7295573018,
				"element": "C" 
			},
			{
				"x": -2.2772122753,
				"y": -3.8745290237,
				"z": 3.0031248264,
				"element": "O" 
			},
			{
				"x": -0.6480782357,
				"y": -1.6269623822,
				"z": -1.0509123442,
				"element": "O" 
			},
			{
				"x": 0.4244894284,
				"y": -1.1963337421,
				"z": -1.7680547817,
				"element": "C" 
			},
			{
				"x": 0.3673008747,
				"y": -1.7363785455,
				"z": -3.1726854135,
				"element": "C" 
			},
			{
				"x": 1.2761966882,
				"y": -0.4550877629,
				"z": -1.329300091,
				"element": "O" 
			},
			{
				"x": 0.832153002,
				"y": 2.5355302085,
				"z": -1.6353286834,
				"element": "H" 
			},
			{
				"x": -0.4418259243,
				"y": 3.3286007886,
				"z": -2.5963945693,
				"element": "H" 
			},
			{
				"x": -0.3263628626,
				"y": 3.5975005816,
				"z": -0.8239444308,
				"element": "H" 
			},
			{
				"x": -2.1625426017,
				"y": 0.2737091917,
				"z": 1.2583285446,
				"element": "H" 
			},
			{
				"x": -2.5986494688,
				"y": -0.0849505536,
				"z": -0.4448868025,
				"element": "H" 
			},
			{
				"x": 0.1383851028,
				"y": -0.7895051461,
				"z": 0.6818550775,
				"element": "H" 
			},
			{
				"x": -0.7437073145,
				"y": -3.1336097634,
				"z": 1.0033057367,
				"element": "H" 
			},
			{
				"x": -2.3909126854,
				"y": -2.5573204555,
				"z": 0.7190107347,
				"element": "H" 
			},
			{
				"x": -2.3670024308,
				"y": -2.9539605396,
				"z": 5.4148643557,
				"element": "H" 
			},
			{
				"x": -2.6512999313,
				"y": -1.3147275994,
				"z": 4.7605268247,
				"element": "H" 
			},
			{
				"x": -0.9996259472,
				"y": -1.8655667012,
				"z": 5.0351364189,
				"element": "H" 
			},
			{
				"x": -0.3631447763,
				"y": -1.1398409152,
				"z": -3.7295935976,
				"element": "H" 
			},
			{
				"x": 1.3460326549,
				"y": -1.6397968529,
				"z": -3.6422909788,
				"element": "H" 
			},
			{
				"x": 0.03173421,
				"y": -2.7755231916,
				"z": -3.1837478916,
				"element": "H" 
			}
		],
		 "valence_orbital": [ 
			{
				"type": "occ",
				"energy": -0.31124,
				"method": "rhf"
			},
			{
				"type": "occ",
				"energy": -0.29083,
				"method": "rhf"
			},
			{
				"type": "occ",
				"energy": -0.28113,
				"method": "rhf"
			},
			{
				"type": "occ",
				"energy": -0.27495,
				"method": "rhf"
			},
			{
				"type": "occ",
				"energy": -0.27259,
				"method": "rhf"
			},
			{
				"type": "unocc",
				"energy": 0.0029,
				"method": "rhf"
			},
			{
				"type": "unocc",
				"energy": 0.00609,
				"method": "rhf"
			},
			{
				"type": "unocc",
				"energy": 0.01289,
				"method": "rhf"
			},
			{
				"type": "unocc",
				"energy": 0.08,
				"method": "rhf"
			},
			{
				"type": "unocc",
				"energy": 0.0999,
				"method": "rhf"
			}
		],
		"cosmo_sigma_profile": { 
			"-0.025": 0.0,
			"-0.024": 0.0,
			"-0.023": 0.0,
			"-0.022": 0.0,
			"-0.021": 0.0,
			"-0.02": 0.0,
			"-0.019": 0.0,
			"-0.018": 0.0,
			"-0.017": 0.0,
			"-0.016": 0.0,
			"-0.015": 0.0,
			"-0.014": 0.0,
			"-0.013": 0.0,
			"-0.012": 0.0,
			"-0.011": 0.0,
			"-0.01": 0.0,
			"-0.009": 0.0,
			"-0.008": 0.522176995546,
			"-0.007": 5.66934687139,
			"-0.006": 21.4585698578,
			"-0.005": 25.0586499343,
			"-0.004": 27.634618968,
			"-0.003": 28.9868682826,
			"-0.002": 31.9627233477,
			"-0.001": 19.9053877667,
			"0.0": 10.7524332998,
			"0.001": 11.7798768899,
			"0.002": 9.07038449127,
			"0.003": 8.40712312589,
			"0.004": 7.50629425372,
			"0.005": 7.53640874932,
			"0.006": 7.38748986622,
			"0.007": 7.50012001557,
			"0.008": 5.41265000081,
			"0.009": 5.48997444125,
			"0.01": 5.47205565801,
			"0.011": 9.34830210142,
			"0.012": 7.70066850078,
			"0.013": 1.40286774702,
			"0.014": 0.0,
			"0.015": 0.0,
			"0.016": 0.0,
			"0.017": 0.0,
			"0.018": 0.0,
			"0.019": 0.0,
			"0.02": 0.0,
			"0.021": 0.0,
			"0.022": 0.0,
			"0.023": 0.0,
			"0.024": 0.0,
			"0.025": 0.0
		}
	}
}
