{
	 "smiles": "COC1=CC(NC(N)=S)=CC=C1", 
	 "Tm": 433.15, 
	 "num_atms": 22, 
	 "gaussian": { 
		 "optdone": 1, 
		 "sigma_profile": "yes", 
		 "theory": "DFT", 
		 "functional": "B3LYP", 
		 "basiset": "6-31G**", 
		 "properties": { 
			 "R2extent": 3279.502, 
			 "electric_dipole_moment_norm": 5.0008227863, 
			 "electric_quadrupole_moment_norm": 23.2400559231, 
			 "total_energy": -893.798545154, 
			 "HOMO_LUMO_gap": 0.17496, 
			 "cosmo_polarized_energy": -18.18, 
			 "cosmo_cavitation_energy": 27.62, 
			 "cosmo_dispersion_energy": -20.9, 
			 "cosmo_repulsion_energy": 1.64, 
			 "cosmo_total_nonelectrostatic_energy": 8.36, 
			 "SMD_solvation_energy": 4.64 
		},
		"coords": [
			{
				"x": -2.0361439273,
				"y": 3.0299112251,
				"z": 0.0864412108,
				"element": "C" 
			},
			{
				"x": -0.8091364314,
				"y": 3.052066616,
				"z": 0.8014848269,
				"element": "O" 
			},
			{
				"x": 0.0587929389,
				"y": 2.0167751867,
				"z": 0.636988313,
				"element": "C" 
			},
			{
				"x": -0.1834694305,
				"y": 0.908735863,
				"z": -0.1791370391,
				"element": "C" 
			},
			{
				"x": 0.7818500146,
				"y": -0.10784233,
				"z": -0.2836852291,
				"element": "C" 
			},
			{
				"x": 0.5032270629,
				"y": -1.183881031,
				"z": -1.1615161761,
				"element": "N" 
			},
			{
				"x": 0.7341970524,
				"y": -2.5265582803,
				"z": -1.0147007727,
				"element": "C" 
			},
			{
				"x": 1.309207592,
				"y": -2.9339632944,
				"z": 0.1460002248,
				"element": "N" 
			},
			{
				"x": 0.3192278878,
				"y": -3.6025820847,
				"z": -2.2392496059,
				"element": "S" 
			},
			{
				"x": 1.9864449515,
				"y": -0.0122951845,
				"z": 0.4231755236,
				"element": "C" 
			},
			{
				"x": 2.2005671166,
				"y": 1.0942372612,
				"z": 1.2526566143,
				"element": "C" 
			},
			{
				"x": 1.2560689317,
				"y": 2.1044111569,
				"z": 1.3668838575,
				"element": "C" 
			},
			{
				"x": -1.8712151966,
				"y": 3.0140313916,
				"z": -0.9983222484,
				"element": "H" 
			},
			{
				"x": -2.5577261485,
				"y": 3.9488984814,
				"z": 0.3567763556,
				"element": "H" 
			},
			{
				"x": -2.653609464,
				"y": 2.1680738722,
				"z": 0.3698838653,
				"element": "H" 
			},
			{
				"x": -1.1131907773,
				"y": 0.8058020856,
				"z": -0.7260968334,
				"element": "H" 
			},
			{
				"x": -0.0210422435,
				"y": -0.9735644388,
				"z": -1.9995257689,
				"element": "H" 
			},
			{
				"x": 1.3418085169,
				"y": -3.9307792852,
				"z": 0.2900666112,
				"element": "H" 
			},
			{
				"x": 1.321695543,
				"y": -2.3303370214,
				"z": 0.9566506444,
				"element": "H" 
			},
			{
				"x": 2.7592469153,
				"y": -0.7606051246,
				"z": 0.2933632177,
				"element": "H" 
			},
			{
				"x": 3.1347681465,
				"y": 1.172778399,
				"z": 1.8009349177,
				"element": "H" 
			},
			{
				"x": 1.4179309488,
				"y": 2.9701865365,
				"z": 1.9994274911,
				"element": "H" 
			}
		],
		 "valence_orbital": [ 
			{
				"type": "occ",
				"energy": -0.29758,
				"method": "rhf"
			},
			{
				"type": "occ",
				"energy": -0.25455,
				"method": "rhf"
			},
			{
				"type": "occ",
				"energy": -0.23458,
				"method": "rhf"
			},
			{
				"type": "occ",
				"energy": -0.20774,
				"method": "rhf"
			},
			{
				"type": "occ",
				"energy": -0.20411,
				"method": "rhf"
			},
			{
				"type": "unocc",
				"energy": -0.02915,
				"method": "rhf"
			},
			{
				"type": "unocc",
				"energy": -0.00914,
				"method": "rhf"
			},
			{
				"type": "unocc",
				"energy": 0.01945,
				"method": "rhf"
			},
			{
				"type": "unocc",
				"energy": 0.06816,
				"method": "rhf"
			},
			{
				"type": "unocc",
				"energy": 0.08472,
				"method": "rhf"
			}
		],
		"cosmo_sigma_profile": { 
			"-0.025": 0.0,
			"-0.024": 0.0,
			"-0.023": 0.0,
			"-0.022": 0.0,
			"-0.021": 0.0,
			"-0.02": 0.0,
			"-0.019": 0.0,
			"-0.018": 0.0,
			"-0.017": 0.0,
			"-0.016": 0.0,
			"-0.015": 0.341758504511,
			"-0.014": 1.95238570758,
			"-0.013": 3.04044893775,
			"-0.012": 3.77410577829,
			"-0.011": 3.02949861963,
			"-0.01": 2.57230256229,
			"-0.009": 2.51551414869,
			"-0.008": 3.716200214,
			"-0.007": 4.76648413105,
			"-0.006": 14.960173245,
			"-0.005": 17.2991285604,
			"-0.004": 16.3143041026,
			"-0.003": 15.8701174831,
			"-0.002": 10.918685203,
			"-0.001": 9.48168992645,
			"0.0": 10.0682176116,
			"0.001": 9.80216588121,
			"0.002": 11.6676332501,
			"0.003": 13.8205941831,
			"0.004": 15.2427290946,
			"0.005": 9.3635387777,
			"0.006": 5.0252040753,
			"0.007": 4.69470544735,
			"0.008": 4.98127302131,
			"0.009": 4.83067699979,
			"0.01": 6.68679674687,
			"0.011": 8.08006940532,
			"0.012": 6.13293598295,
			"0.013": 1.45261418253,
			"0.014": 0.0,
			"0.015": 0.0,
			"0.016": 0.0,
			"0.017": 0.0,
			"0.018": 0.0,
			"0.019": 0.0,
			"0.02": 0.0,
			"0.021": 0.0,
			"0.022": 0.0,
			"0.023": 0.0,
			"0.024": 0.0,
			"0.025": 0.0
		}
	}
}
