{
	 "smiles": "CC(=O)OC1CCC2(C)C3CCC4(C)C(CCC4C3C(=O)C=C2C1)OCC1=CC=CC=C1", 
	 "Tm": 476.15, 
	 "num_atms": 68, 
	 "gaussian": { 
		 "optdone": 1, 
		 "sigma_profile": "yes", 
		 "theory": "DFT", 
		 "functional": "B3LYP", 
		 "basiset": "6-31G**", 
		 "properties": { 
			 "R2extent": 15746.0889, 
			 "electric_dipole_moment_norm": 4.39767450023, 
			 "electric_quadrupole_moment_norm": 15.4894219828, 
			 "total_energy": -1389.58145933, 
			 "HOMO_LUMO_gap": 0.18669, 
			 "cosmo_polarized_energy": -16.85, 
			 "cosmo_cavitation_energy": 62.41, 
			 "cosmo_dispersion_energy": -40.27, 
			 "cosmo_repulsion_energy": 3.01, 
			 "cosmo_total_nonelectrostatic_energy": 25.15, 
			 "SMD_solvation_energy": 10.72 
		},
		"coords": [
			{
				"x": 6.8994840772,
				"y": 0.3474884719,
				"z": 2.3734391327,
				"element": "C" 
			},
			{
				"x": 5.6777278427,
				"y": -0.5335030256,
				"z": 2.2527069137,
				"element": "C" 
			},
			{
				"x": 5.6857578129,
				"y": -1.7021182927,
				"z": 1.931711652,
				"element": "O" 
			},
			{
				"x": 4.5555700149,
				"y": 0.1618344829,
				"z": 2.5588686561,
				"element": "O" 
			},
			{
				"x": 3.2923046992,
				"y": -0.5622943103,
				"z": 2.4998553071,
				"element": "C" 
			},
			{
				"x": 2.7300584165,
				"y": -0.5498157338,
				"z": 1.0718252778,
				"element": "C" 
			},
			{
				"x": 1.9689100466,
				"y": 0.7455653165,
				"z": 0.7650375715,
				"element": "C" 
			},
			{
				"x": 0.7327238903,
				"y": 0.985941446,
				"z": 1.6999033823,
				"element": "C" 
			},
			{
				"x": 0.6849950484,
				"y": 2.5100552349,
				"z": 2.0017511951,
				"element": "C" 
			},
			{
				"x": -0.6094193158,
				"y": 0.5448543019,
				"z": 1.0311783458,
				"element": "C" 
			},
			{
				"x": -0.5698341544,
				"y": -0.8615393238,
				"z": 0.3876399411,
				"element": "C" 
			},
			{
				"x": -1.9670420107,
				"y": -1.4799922913,
				"z": 0.1283105887,
				"element": "C" 
			},
			{
				"x": -3.167194715,
				"y": -0.5133009628,
				"z": 0.131547914,
				"element": "C" 
			},
			{
				"x": -4.4599763614,
				"y": -1.3565208265,
				"z": 0.0752479267,
				"element": "C" 
			},
			{
				"x": -3.2039336326,
				"y": 0.4985415198,
				"z": -1.0745790879,
				"element": "C" 
			},
			{
				"x": -3.464370101,
				"y": 1.9033582285,
				"z": -0.4697995533,
				"element": "C" 
			},
			{
				"x": -3.9243047833,
				"y": 1.649345499,
				"z": 0.9758024461,
				"element": "C" 
			},
			{
				"x": -3.1869925886,
				"y": 0.368161818,
				"z": 1.422759457,
				"element": "C" 
			},
			{
				"x": -1.7863036187,
				"y": 0.6291882922,
				"z": 2.0334037612,
				"element": "C" 
			},
			{
				"x": -1.4926709665,
				"y": -0.2649391824,
				"z": 3.2480738741,
				"element": "C" 
			},
			{
				"x": -2.365352102,
				"y": -0.8744006301,
				"z": 3.8545605114,
				"element": "O" 
			},
			{
				"x": -0.0860559206,
				"y": -0.3169652805,
				"z": 3.6949215913,
				"element": "C" 
			},
			{
				"x": 0.9371871292,
				"y": 0.2348263489,
				"z": 3.0129775097,
				"element": "C" 
			},
			{
				"x": 2.3591667959,
				"y": 0.1505822038,
				"z": 3.5067708017,
				"element": "C" 
			},
			{
				"x": -1.9948889381,
				"y": 0.4359088621,
				"z": -1.8306912032,
				"element": "O" 
			},
			{
				"x": -2.0529729457,
				"y": 1.1241977155,
				"z": -3.0698489399,
				"element": "C" 
			},
			{
				"x": -0.7896136696,
				"y": 0.863082133,
				"z": -3.8573075206,
				"element": "C" 
			},
			{
				"x": -0.177289072,
				"y": 1.8933373091,
				"z": -4.5787545716,
				"element": "C" 
			},
			{
				"x": 0.9642518059,
				"y": 1.6466372621,
				"z": -5.3445296142,
				"element": "C" 
			},
			{
				"x": 1.5127620549,
				"y": 0.364442488,
				"z": -5.3874985729,
				"element": "C" 
			},
			{
				"x": 0.9116179421,
				"y": -0.6687179311,
				"z": -4.6638052668,
				"element": "C" 
			},
			{
				"x": -0.2337366767,
				"y": -0.4222409737,
				"z": -3.9073275507,
				"element": "C" 
			},
			{
				"x": 6.810419192,
				"y": 1.2069644255,
				"z": 1.7024003385,
				"element": "H" 
			},
			{
				"x": 6.9824047982,
				"y": 0.7373512547,
				"z": 3.3922688704,
				"element": "H" 
			},
			{
				"x": 7.7885898616,
				"y": -0.2299250028,
				"z": 2.122308792,
				"element": "H" 
			},
			{
				"x": 3.4933600538,
				"y": -1.5909898461,
				"z": 2.8047942684,
				"element": "H" 
			},
			{
				"x": 3.5523212113,
				"y": -0.7013278066,
				"z": 0.3664609833,
				"element": "H" 
			},
			{
				"x": 2.0699337473,
				"y": -1.4154457822,
				"z": 0.961838586,
				"element": "H" 
			},
			{
				"x": 2.6695764268,
				"y": 1.5815623554,
				"z": 0.8772203758,
				"element": "H" 
			},
			{
				"x": 1.6437614269,
				"y": 0.7624970196,
				"z": -0.2802000078,
				"element": "H" 
			},
			{
				"x": 1.6082038459,
				"y": 2.8414591656,
				"z": 2.4870770275,
				"element": "H" 
			},
			{
				"x": -0.1454889049,
				"y": 2.7874123283,
				"z": 2.655111841,
				"element": "H" 
			},
			{
				"x": 0.5857993613,
				"y": 3.0702084321,
				"z": 1.0652580866,
				"element": "H" 
			},
			{
				"x": -0.7996571975,
				"y": 1.255269369,
				"z": 0.2206294465,
				"element": "H" 
			},
			{
				"x": -0.0179003225,
				"y": -0.7995944069,
				"z": -0.5523934877,
				"element": "H" 
			},
			{
				"x": -0.02155018,
				"y": -1.5484790844,
				"z": 1.0398725096,
				"element": "H" 
			},
			{
				"x": -2.1742068453,
				"y": -2.218530125,
				"z": 0.9123242658,
				"element": "H" 
			},
			{
				"x": -1.9517228656,
				"y": -2.0356975731,
				"z": -0.8151608897,
				"element": "H" 
			},
			{
				"x": -4.5193983138,
				"y": -2.0335861606,
				"z": 0.9332012811,
				"element": "H" 
			},
			{
				"x": -5.356974375,
				"y": -0.7273667838,
				"z": 0.0856080939,
				"element": "H" 
			},
			{
				"x": -4.4919752489,
				"y": -1.9618612562,
				"z": -0.8382816868,
				"element": "H" 
			},
			{
				"x": -4.0289460859,
				"y": 0.2195709421,
				"z": -1.7493973696,
				"element": "H" 
			},
			{
				"x": -2.520927367,
				"y": 2.4609840466,
				"z": -0.4789404387,
				"element": "H" 
			},
			{
				"x": -4.1878460569,
				"y": 2.4885672446,
				"z": -1.0468413294,
				"element": "H" 
			},
			{
				"x": -5.0060613754,
				"y": 1.4717503416,
				"z": 0.9961960734,
				"element": "H" 
			},
			{
				"x": -3.7372331575,
				"y": 2.5035100068,
				"z": 1.6357907219,
				"element": "H" 
			},
			{
				"x": -3.7581546702,
				"y": -0.1404997635,
				"z": 2.2048400408,
				"element": "H" 
			},
			{
				"x": -1.8047798827,
				"y": 1.6424035814,
				"z": 2.459210378,
				"element": "H" 
			},
			{
				"x": 0.0847983606,
				"y": -0.8580612274,
				"z": 4.623041739,
				"element": "H" 
			},
			{
				"x": 2.4066365835,
				"y": -0.329042347,
				"z": 4.4882332212,
				"element": "H" 
			},
			{
				"x": 2.7491854186,
				"y": 1.1691639787,
				"z": 3.6299991839,
				"element": "H" 
			},
			{
				"x": -2.1804841487,
				"y": 2.2071777424,
				"z": -2.9190187505,
				"element": "H" 
			},
			{
				"x": -2.9347327424,
				"y": 0.7777792809,
				"z": -3.6390253137,
				"element": "H" 
			},
			{
				"x": -0.5943287378,
				"y": 2.8970460329,
				"z": -4.5397880674,
				"element": "H" 
			},
			{
				"x": 1.42823529,
				"y": 2.45751165,
				"z": -5.8990805249,
				"element": "H" 
			},
			{
				"x": 2.4039142897,
				"y": 0.1709911901,
				"z": -5.9777855898,
				"element": "H" 
			},
			{
				"x": 1.3350545127,
				"y": -1.6689696411,
				"z": -4.6910096627,
				"element": "H" 
			},
			{
				"x": -0.701391906,
				"y": -1.2223037514,
				"z": -3.3425148819,
				"element": "H" 
			}
		],
		 "valence_orbital": [ 
			{
				"type": "occ",
				"energy": -0.25654,
				"method": "rhf"
			},
			{
				"type": "occ",
				"energy": -0.25449,
				"method": "rhf"
			},
			{
				"type": "occ",
				"energy": -0.25051,
				"method": "rhf"
			},
			{
				"type": "occ",
				"energy": -0.2423,
				"method": "rhf"
			},
			{
				"type": "occ",
				"energy": -0.23166,
				"method": "rhf"
			},
			{
				"type": "unocc",
				"energy": -0.04497,
				"method": "rhf"
			},
			{
				"type": "unocc",
				"energy": -0.00538,
				"method": "rhf"
			},
			{
				"type": "unocc",
				"energy": -0.0019,
				"method": "rhf"
			},
			{
				"type": "unocc",
				"energy": 0.0114,
				"method": "rhf"
			},
			{
				"type": "unocc",
				"energy": 0.05414,
				"method": "rhf"
			}
		],
		"cosmo_sigma_profile": { 
			"-0.025": 0.0,
			"-0.024": 0.0,
			"-0.023": 0.0,
			"-0.022": 0.0,
			"-0.021": 0.0,
			"-0.02": 0.0,
			"-0.019": 0.0,
			"-0.018": 0.0,
			"-0.017": 0.0,
			"-0.016": 0.0,
			"-0.015": 0.0,
			"-0.014": 0.0,
			"-0.013": 0.0,
			"-0.012": 0.0,
			"-0.011": 0.0,
			"-0.01": 0.0,
			"-0.009": 0.0,
			"-0.008": 0.0,
			"-0.007": 0.519554585342,
			"-0.006": 9.2901353941,
			"-0.005": 30.1013848172,
			"-0.004": 39.3965844164,
			"-0.003": 56.9759728434,
			"-0.002": 73.2779735968,
			"-0.001": 61.6232209321,
			"0.0": 47.586919336,
			"0.001": 42.5360020709,
			"0.002": 25.9294983782,
			"0.003": 17.7418647752,
			"0.004": 14.9135778267,
			"0.005": 15.5261385125,
			"0.006": 14.4173981079,
			"0.007": 6.17785628905,
			"0.008": 3.62637694756,
			"0.009": 3.43787275339,
			"0.01": 2.66369172648,
			"0.011": 5.09386238596,
			"0.012": 7.44810704077,
			"0.013": 5.88470589531,
			"0.014": 1.52404459226,
			"0.015": 0.0217422894308,
			"0.016": 0.0,
			"0.017": 0.0,
			"0.018": 0.0,
			"0.019": 0.0,
			"0.02": 0.0,
			"0.021": 0.0,
			"0.022": 0.0,
			"0.023": 0.0,
			"0.024": 0.0,
			"0.025": 0.0
		}
	}
}
