{
	 "smiles": "NC(=O)C1=C(Cl)C=C(Cl)C=C1", 
	 "Tm": 464.65, 
	 "num_atms": 16, 
	 "gaussian": { 
		 "optdone": 1, 
		 "sigma_profile": "yes", 
		 "theory": "DFT", 
		 "functional": "B3LYP", 
		 "basiset": "6-31G**", 
		 "properties": { 
			 "R2extent": 2795.6969, 
			 "electric_dipole_moment_norm": 1.99365522847, 
			 "electric_quadrupole_moment_norm": 9.5291197264, 
			 "total_energy": -1320.13293106, 
			 "HOMO_LUMO_gap": 0.2042, 
			 "cosmo_polarized_energy": -9.97, 
			 "cosmo_cavitation_energy": 23.96, 
			 "cosmo_dispersion_energy": -18.29, 
			 "cosmo_repulsion_energy": 1.47, 
			 "cosmo_total_nonelectrostatic_energy": 7.13, 
			 "SMD_solvation_energy": 4.29 
		},
		"coords": [
			{
				"x": -0.0428027541,
				"y": -3.0377787642,
				"z": 0.5344859523,
				"element": "N" 
			},
			{
				"x": -0.2122312352,
				"y": -2.3725356068,
				"z": -0.6376278248,
				"element": "C" 
			},
			{
				"x": -0.6863182992,
				"y": -2.9255596164,
				"z": -1.6249656739,
				"element": "O" 
			},
			{
				"x": 0.2479109383,
				"y": -0.927099085,
				"z": -0.7385241314,
				"element": "C" 
			},
			{
				"x": 0.5375252806,
				"y": -0.0010603415,
				"z": 0.2786186649,
				"element": "C" 
			},
			{
				"x": 0.3828604213,
				"y": -0.3663480457,
				"z": 2.0030857281,
				"element": "Cl" 
			},
			{
				"x": 0.9464885365,
				"y": 1.3036620264,
				"z": -0.0043556726,
				"element": "C" 
			},
			{
				"x": 1.0761917724,
				"y": 1.7014528384,
				"z": -1.3314797752,
				"element": "C" 
			},
			{
				"x": 1.5967195191,
				"y": 3.3358572286,
				"z": -1.684458096,
				"element": "Cl" 
			},
			{
				"x": 0.7923296793,
				"y": 0.8202570246,
				"z": -2.3738580233,
				"element": "C" 
			},
			{
				"x": 0.3804970722,
				"y": -0.4677209929,
				"z": -2.0610407027,
				"element": "C" 
			},
			{
				"x": 0.3028649071,
				"y": -2.605829169,
				"z": 1.3748817119,
				"element": "H" 
			},
			{
				"x": -0.3695421438,
				"y": -3.9916995007,
				"z": 0.5581899073,
				"element": "H" 
			},
			{
				"x": 1.1548733304,
				"y": 1.9955106664,
				"z": 0.8020282441,
				"element": "H" 
			},
			{
				"x": 0.889760284,
				"y": 1.139443312,
				"z": -3.4050298902,
				"element": "H" 
			},
			{
				"x": 0.135172691,
				"y": -1.176351974,
				"z": -2.8440504184,
				"element": "H" 
			}
		],
		 "valence_orbital": [ 
			{
				"type": "occ",
				"energy": -0.327,
				"method": "rhf"
			},
			{
				"type": "occ",
				"energy": -0.27578,
				"method": "rhf"
			},
			{
				"type": "occ",
				"energy": -0.27182,
				"method": "rhf"
			},
			{
				"type": "occ",
				"energy": -0.26613,
				"method": "rhf"
			},
			{
				"type": "occ",
				"energy": -0.2598,
				"method": "rhf"
			},
			{
				"type": "unocc",
				"energy": -0.0556,
				"method": "rhf"
			},
			{
				"type": "unocc",
				"energy": -0.03295,
				"method": "rhf"
			},
			{
				"type": "unocc",
				"energy": -0.00718,
				"method": "rhf"
			},
			{
				"type": "unocc",
				"energy": 0.03475,
				"method": "rhf"
			},
			{
				"type": "unocc",
				"energy": 0.0472,
				"method": "rhf"
			}
		],
		"cosmo_sigma_profile": { 
			"-0.025": 0.0,
			"-0.024": 0.0,
			"-0.023": 0.0,
			"-0.022": 0.0,
			"-0.021": 0.0,
			"-0.02": 0.0,
			"-0.019": 0.0,
			"-0.018": 0.0,
			"-0.017": 0.0,
			"-0.016": 0.0,
			"-0.015": 0.237661591191,
			"-0.014": 0.968172467712,
			"-0.013": 0.944750511447,
			"-0.012": 1.96537635651,
			"-0.011": 1.70253336658,
			"-0.01": 1.66971694305,
			"-0.009": 2.51582953658,
			"-0.008": 5.17841439666,
			"-0.007": 5.04103734885,
			"-0.006": 7.46569241042,
			"-0.005": 6.10379709749,
			"-0.004": 7.14738955887,
			"-0.003": 10.4643607291,
			"-0.002": 12.3311602681,
			"-0.001": 17.5030028317,
			"0.0": 25.4583578127,
			"0.001": 23.4009785482,
			"0.002": 18.4729024595,
			"0.003": 16.0434602345,
			"0.004": 12.1519733643,
			"0.005": 2.74005945275,
			"0.006": 0.979473913051,
			"0.007": 1.92376983731,
			"0.008": 1.19550109408,
			"0.009": 0.912696405349,
			"0.01": 1.49195017956,
			"0.011": 1.65418823857,
			"0.012": 2.32486235119,
			"0.013": 4.75166165325,
			"0.014": 2.2144786041,
			"0.015": 0.0540288933431,
			"0.016": 0.0,
			"0.017": 0.0,
			"0.018": 0.0,
			"0.019": 0.0,
			"0.02": 0.0,
			"0.021": 0.0,
			"0.022": 0.0,
			"0.023": 0.0,
			"0.024": 0.0,
			"0.025": 0.0
		}
	}
}
