{
	 "smiles": "COC1=C(C=CC(O)=O)C=C2C=CC=CC2=N1", 
	 "Tm": 493.15, 
	 "num_atms": 28, 
	 "gaussian": { 
		 "optdone": 1, 
		 "sigma_profile": "yes", 
		 "theory": "DFT", 
		 "functional": "B3LYP", 
		 "basiset": "6-31G**", 
		 "properties": { 
			 "R2extent": 5820.8084, 
			 "electric_dipole_moment_norm": 5.64962255465, 
			 "electric_quadrupole_moment_norm": 28.8413133789, 
			 "total_energy": -782.436140395, 
			 "HOMO_LUMO_gap": 0.15225, 
			 "cosmo_polarized_energy": -16.97, 
			 "cosmo_cavitation_energy": 33.27, 
			 "cosmo_dispersion_energy": -24.12, 
			 "cosmo_repulsion_energy": 1.87, 
			 "cosmo_total_nonelectrostatic_energy": 11.01, 
			 "SMD_solvation_energy": 6.66 
		},
		"coords": [
			{
				"x": -1.7992231389,
				"y": 3.384435955,
				"z": 0.4729573683,
				"element": "C" 
			},
			{
				"x": -1.9925582773,
				"y": 2.0918781555,
				"z": -0.1138610659,
				"element": "O" 
			},
			{
				"x": -0.8833285182,
				"y": 1.366263206,
				"z": -0.3806083064,
				"element": "C" 
			},
			{
				"x": -1.1180066476,
				"y": 0.0770032558,
				"z": -0.9888035413,
				"element": "C" 
			},
			{
				"x": -2.4870021487,
				"y": -0.3500502387,
				"z": -1.2772615979,
				"element": "C" 
			},
			{
				"x": -2.8859755994,
				"y": -1.5890432918,
				"z": -1.6220300013,
				"element": "C" 
			},
			{
				"x": -4.2768574191,
				"y": -1.9638484441,
				"z": -1.9832305668,
				"element": "C" 
			},
			{
				"x": -5.283365066,
				"y": -1.1535864034,
				"z": -1.5508593786,
				"element": "O" 
			},
			{
				"x": -4.5301060689,
				"y": -2.9442101079,
				"z": -2.6455944792,
				"element": "O" 
			},
			{
				"x": 0.0068422863,
				"y": -0.6728083261,
				"z": -1.2691304933,
				"element": "C" 
			},
			{
				"x": 1.3033254095,
				"y": -0.193898839,
				"z": -0.9596486485,
				"element": "C" 
			},
			{
				"x": 2.4872217089,
				"y": -0.9284766766,
				"z": -1.2280428906,
				"element": "C" 
			},
			{
				"x": 3.7203533132,
				"y": -0.4047860331,
				"z": -0.905643972,
				"element": "C" 
			},
			{
				"x": 3.81351084,
				"y": 0.8737911254,
				"z": -0.3053845665,
				"element": "C" 
			},
			{
				"x": 2.679428424,
				"y": 1.612136331,
				"z": -0.0352153973,
				"element": "C" 
			},
			{
				"x": 1.3998559448,
				"y": 1.0977408152,
				"z": -0.3547379144,
				"element": "C" 
			},
			{
				"x": 0.2920299293,
				"y": 1.8510569736,
				"z": -0.0802668313,
				"element": "N" 
			},
			{
				"x": -1.198144088,
				"y": 4.0228143876,
				"z": -0.1798765145,
				"element": "H" 
			},
			{
				"x": -2.8007939557,
				"y": 3.7977354223,
				"z": 0.5967281852,
				"element": "H" 
			},
			{
				"x": -1.2954013608,
				"y": 3.3013051107,
				"z": 1.4394539254,
				"element": "H" 
			},
			{
				"x": -3.2220237304,
				"y": 0.4481800331,
				"z": -1.206058081,
				"element": "H" 
			},
			{
				"x": -2.1826171638,
				"y": -2.4082367056,
				"z": -1.7346121033,
				"element": "H" 
			},
			{
				"x": -4.9435351828,
				"y": -0.5186626688,
				"z": -0.9051934656,
				"element": "H" 
			},
			{
				"x": -0.0915616399,
				"y": -1.6419082089,
				"z": -1.750490097,
				"element": "H" 
			},
			{
				"x": 2.4048025781,
				"y": -1.9091010792,
				"z": -1.689695063,
				"element": "H" 
			},
			{
				"x": 4.6241241604,
				"y": -0.9701254827,
				"z": -1.1111716076,
				"element": "H" 
			},
			{
				"x": 4.7911780522,
				"y": 1.276292238,
				"z": -0.0564332389,
				"element": "H" 
			},
			{
				"x": 2.7334273588,
				"y": 2.5941094969,
				"z": 0.4231103434,
				"element": "H" 
			}
		],
		 "valence_orbital": [ 
			{
				"type": "occ",
				"energy": -0.29315,
				"method": "rhf"
			},
			{
				"type": "occ",
				"energy": -0.27899,
				"method": "rhf"
			},
			{
				"type": "occ",
				"energy": -0.26712,
				"method": "rhf"
			},
			{
				"type": "occ",
				"energy": -0.23779,
				"method": "rhf"
			},
			{
				"type": "occ",
				"energy": -0.23638,
				"method": "rhf"
			},
			{
				"type": "unocc",
				"energy": -0.08413,
				"method": "rhf"
			},
			{
				"type": "unocc",
				"energy": -0.03737,
				"method": "rhf"
			},
			{
				"type": "unocc",
				"energy": -0.00527,
				"method": "rhf"
			},
			{
				"type": "unocc",
				"energy": 0.0128,
				"method": "rhf"
			},
			{
				"type": "unocc",
				"energy": 0.06269,
				"method": "rhf"
			}
		],
		"cosmo_sigma_profile": { 
			"-0.025": 0.0,
			"-0.024": 0.0,
			"-0.023": 0.0,
			"-0.022": 0.0,
			"-0.021": 0.0,
			"-0.02": 0.0,
			"-0.019": 0.0195242817489,
			"-0.018": 1.03702828777,
			"-0.017": 0.743548014363,
			"-0.016": 0.684269436263,
			"-0.015": 1.06904753396,
			"-0.014": 0.883016073621,
			"-0.013": 1.3222502668,
			"-0.012": 1.04126261788,
			"-0.011": 0.811517401864,
			"-0.01": 0.570326120659,
			"-0.009": 2.66886724623,
			"-0.008": 5.13227691757,
			"-0.007": 6.0925693836,
			"-0.006": 14.290874618,
			"-0.005": 16.6441293221,
			"-0.004": 18.748535161,
			"-0.003": 18.8871034028,
			"-0.002": 16.8506825325,
			"-0.001": 19.9192663804,
			"0.0": 20.4957179566,
			"0.001": 22.0473385369,
			"0.002": 18.5808443904,
			"0.003": 17.6926177387,
			"0.004": 15.8356068438,
			"0.005": 6.98281931523,
			"0.006": 4.34926413644,
			"0.007": 4.89198669431,
			"0.008": 3.64126695702,
			"0.009": 3.94045441538,
			"0.01": 4.90567899285,
			"0.011": 6.03851786604,
			"0.012": 6.43799273732,
			"0.013": 3.29553030519,
			"0.014": 0.295224668745,
			"0.015": 0.0,
			"0.016": 0.0,
			"0.017": 0.0,
			"0.018": 0.0,
			"0.019": 0.0,
			"0.02": 0.0,
			"0.021": 0.0,
			"0.022": 0.0,
			"0.023": 0.0,
			"0.024": 0.0,
			"0.025": 0.0
		}
	}
}
