{
	 "smiles": "CC(=O)CC(=O)NC1=CC=C(F)C=C1", 
	 "Tm": 375.15, 
	 "num_atms": 24, 
	 "gaussian": { 
		 "optdone": 1, 
		 "sigma_profile": "yes", 
		 "theory": "DFT", 
		 "functional": "B3LYP", 
		 "basiset": "6-31G**", 
		 "properties": { 
			 "R2extent": 4021.1443, 
			 "electric_dipole_moment_norm": 4.19885972259, 
			 "electric_quadrupole_moment_norm": 16.0300215399, 
			 "total_energy": -692.133423176, 
			 "HOMO_LUMO_gap": 0.20835, 
			 "cosmo_polarized_energy": -15.49, 
			 "cosmo_cavitation_energy": 29.38, 
			 "cosmo_dispersion_energy": -20.6, 
			 "cosmo_repulsion_energy": 1.62, 
			 "cosmo_total_nonelectrostatic_energy": 10.4, 
			 "SMD_solvation_energy": 6.96 
		},
		"coords": [
			{
				"x": -0.5669904593,
				"y": -3.7121878444,
				"z": 1.3520822345,
				"element": "C" 
			},
			{
				"x": -0.4251536033,
				"y": -3.20148744,
				"z": -0.0657196724,
				"element": "C" 
			},
			{
				"x": -0.3895893763,
				"y": -3.9447007259,
				"z": -1.0252872905,
				"element": "O" 
			},
			{
				"x": -0.3779434699,
				"y": -1.6817461603,
				"z": -0.2748208664,
				"element": "C" 
			},
			{
				"x": 0.7116739427,
				"y": -0.9972740209,
				"z": 0.5428466404,
				"element": "C" 
			},
			{
				"x": 1.688220582,
				"y": -1.605076797,
				"z": 0.9622859189,
				"element": "O" 
			},
			{
				"x": 0.5750284708,
				"y": 0.3500217958,
				"z": 0.8087444949,
				"element": "N" 
			},
			{
				"x": -0.4602309428,
				"y": 1.2605467706,
				"z": 0.469977453,
				"element": "C" 
			},
			{
				"x": -1.0062005562,
				"y": 2.0713715123,
				"z": 1.4760751701,
				"element": "C" 
			},
			{
				"x": -1.9923433431,
				"y": 3.0086332551,
				"z": 1.1772307772,
				"element": "C" 
			},
			{
				"x": -2.4425063165,
				"y": 3.1131178472,
				"z": -0.1345896777,
				"element": "C" 
			},
			{
				"x": -3.4061583897,
				"y": 4.0084380811,
				"z": -0.4275998281,
				"element": "F" 
			},
			{
				"x": -1.9195003135,
				"y": 2.3238773702,
				"z": -1.1521521995,
				"element": "C" 
			},
			{
				"x": -0.9122036391,
				"y": 1.4088503939,
				"z": -0.8486762389,
				"element": "C" 
			},
			{
				"x": -0.7820737442,
				"y": -4.7813063339,
				"z": 1.3338877311,
				"element": "H" 
			},
			{
				"x": 0.3700737543,
				"y": -3.5295061481,
				"z": 1.886730802,
				"element": "H" 
			},
			{
				"x": -1.360562869,
				"y": -3.1779512324,
				"z": 1.8873305288,
				"element": "H" 
			},
			{
				"x": -1.3615176746,
				"y": -1.2546514301,
				"z": -0.043322478,
				"element": "H" 
			},
			{
				"x": -0.1946676109,
				"y": -1.5188697722,
				"z": -1.3410625161,
				"element": "H" 
			},
			{
				"x": 1.3078974278,
				"y": 0.6877199998,
				"z": 1.4217294912,
				"element": "H" 
			},
			{
				"x": -0.6579682624,
				"y": 1.9596445414,
				"z": 2.4987074507,
				"element": "H" 
			},
			{
				"x": -2.4211359746,
				"y": 3.6437101253,
				"z": 1.9445543579,
				"element": "H" 
			},
			{
				"x": -2.2829113983,
				"y": 2.4460699323,
				"z": -2.1665256764,
				"element": "H" 
			},
			{
				"x": -0.4640362337,
				"y": 0.8222562803,
				"z": -1.6425266067,
				"element": "H" 
			}
		],
		 "valence_orbital": [ 
			{
				"type": "occ",
				"energy": -0.30071,
				"method": "rhf"
			},
			{
				"type": "occ",
				"energy": -0.2809,
				"method": "rhf"
			},
			{
				"type": "occ",
				"energy": -0.26829,
				"method": "rhf"
			},
			{
				"type": "occ",
				"energy": -0.24697,
				"method": "rhf"
			},
			{
				"type": "occ",
				"energy": -0.24066,
				"method": "rhf"
			},
			{
				"type": "unocc",
				"energy": -0.03231,
				"method": "rhf"
			},
			{
				"type": "unocc",
				"energy": -0.02554,
				"method": "rhf"
			},
			{
				"type": "unocc",
				"energy": -0.01484,
				"method": "rhf"
			},
			{
				"type": "unocc",
				"energy": 0.01804,
				"method": "rhf"
			},
			{
				"type": "unocc",
				"energy": 0.0675,
				"method": "rhf"
			}
		],
		"cosmo_sigma_profile": { 
			"-0.025": 0.0,
			"-0.024": 0.0,
			"-0.023": 0.0,
			"-0.022": 0.0,
			"-0.021": 0.0,
			"-0.02": 0.0,
			"-0.019": 0.0,
			"-0.018": 0.0,
			"-0.017": 0.0,
			"-0.016": 0.0,
			"-0.015": 0.167967062021,
			"-0.014": 0.878275917974,
			"-0.013": 1.21908590034,
			"-0.012": 1.05070550152,
			"-0.011": 1.15632154251,
			"-0.01": 0.813936368522,
			"-0.009": 2.56595675275,
			"-0.008": 7.21661299325,
			"-0.007": 13.6573006886,
			"-0.006": 12.7393622774,
			"-0.005": 14.3987177368,
			"-0.004": 13.330778167,
			"-0.003": 14.7678875954,
			"-0.002": 14.0722518102,
			"-0.001": 16.447545759,
			"0.0": 16.0383837699,
			"0.001": 16.5965792097,
			"0.002": 16.477953294,
			"0.003": 16.5027189414,
			"0.004": 14.6742833062,
			"0.005": 6.04048041568,
			"0.006": 3.47070669914,
			"0.007": 1.45676191657,
			"0.008": 2.61636861012,
			"0.009": 3.63546716912,
			"0.01": 3.94969626243,
			"0.011": 5.44214939103,
			"0.012": 6.70711795765,
			"0.013": 5.2989702493,
			"0.014": 0.531827948347,
			"0.015": 0.0,
			"0.016": 0.0,
			"0.017": 0.0,
			"0.018": 0.0,
			"0.019": 0.0,
			"0.02": 0.0,
			"0.021": 0.0,
			"0.022": 0.0,
			"0.023": 0.0,
			"0.024": 0.0,
			"0.0": 0.0
		}
	}
}
