{
	 "smiles": "CC1=C(C(O)=O)C2=C(O1)C(F)=C(F)C(F)=C2F", 
	 "Tm": 480.15, 
	 "num_atms": 21, 
	 "gaussian": { 
		 "optdone": 1, 
		 "sigma_profile": "yes", 
		 "theory": "DFT", 
		 "functional": "B3LYP", 
		 "basiset": "6-31G**", 
		 "properties": { 
			 "R2extent": 4148.5764, 
			 "electric_dipole_moment_norm": 1.92102325077, 
			 "electric_quadrupole_moment_norm": 7.81096954545, 
			 "total_energy": -1008.46321168, 
			 "HOMO_LUMO_gap": 0.18678, 
			 "cosmo_polarized_energy": -8.77, 
			 "cosmo_cavitation_energy": 28.69, 
			 "cosmo_dispersion_energy": -20.56, 
			 "cosmo_repulsion_energy": 1.49, 
			 "cosmo_total_nonelectrostatic_energy": 9.62, 
			 "SMD_solvation_energy": 8.41 
		},
		"coords": [
			{
				"x": -1.751089954,
				"y": -2.1047640039,
				"z": 1.8651002704,
				"element": "C" 
			},
			{
				"x": -1.1482201902,
				"y": -1.1312165901,
				"z": 0.9171529647,
				"element": "C" 
			},
			{
				"x": -0.3772983461,
				"y": -1.2802803589,
				"z": -0.2114554084,
				"element": "C" 
			},
			{
				"x": 0.0108577349,
				"y": -2.607140352,
				"z": -0.7046678691,
				"element": "C" 
			},
			{
				"x": 0.7669392841,
				"y": -2.5692822749,
				"z": -1.821396159,
				"element": "O" 
			},
			{
				"x": -0.3102644293,
				"y": -3.6536627788,
				"z": -0.1672449703,
				"element": "O" 
			},
			{
				"x": -0.0994953127,
				"y": 0.0619812149,
				"z": -0.7016506638,
				"element": "C" 
			},
			{
				"x": -0.7524982801,
				"y": 0.911332952,
				"z": 0.2109116526,
				"element": "C" 
			},
			{
				"x": -1.3821307364,
				"y": 0.1863512106,
				"z": 1.1833288367,
				"element": "O" 
			},
			{
				"x": -0.7496295979,
				"y": 2.2977769484,
				"z": 0.1236793208,
				"element": "C" 
			},
			{
				"x": -1.3850101418,
				"y": 3.0663735694,
				"z": 1.0152127722,
				"element": "F" 
			},
			{
				"x": -0.0528617975,
				"y": 2.8620373238,
				"z": -0.9381613468,
				"element": "C" 
			},
			{
				"x": -0.0083079533,
				"y": 4.1909029777,
				"z": -1.0834418953,
				"element": "F" 
			},
			{
				"x": 0.6099760222,
				"y": 2.0470541764,
				"z": -1.8673238975,
				"element": "C" 
			},
			{
				"x": 1.2699404942,
				"y": 2.6302441337,
				"z": -2.876122642,
				"element": "F" 
			},
			{
				"x": 0.5951987895,
				"y": 0.6594507175,
				"z": -1.762309167,
				"element": "C" 
			},
			{
				"x": 1.2520023502,
				"y": -0.0454418495,
				"z": -2.688979388,
				"element": "F" 
			},
			{
				"x": -2.2994510037,
				"y": -1.5707786585,
				"z": 2.6432184981,
				"element": "H" 
			},
			{
				"x": -0.9766090545,
				"y": -2.7286832805,
				"z": 2.3196606592,
				"element": "H" 
			},
			{
				"x": -2.4247554089,
				"y": -2.786818084,
				"z": 1.3390636628,
				"element": "H" 
			},
			{
				"x": 0.9566075316,
				"y": -3.4957369935,
				"z": -2.0449752302,
				"element": "H" 
			}
		],
		 "valence_orbital": [ 
			{
				"type": "occ",
				"energy": -0.32795,
				"method": "rhf"
			},
			{
				"type": "occ",
				"energy": -0.30557,
				"method": "rhf"
			},
			{
				"type": "occ",
				"energy": -0.287,
				"method": "rhf"
			},
			{
				"type": "occ",
				"energy": -0.25546,
				"method": "rhf"
			},
			{
				"type": "occ",
				"energy": -0.23855,
				"method": "rhf"
			},
			{
				"type": "unocc",
				"energy": -0.05177,
				"method": "rhf"
			},
			{
				"type": "unocc",
				"energy": -0.02023,
				"method": "rhf"
			},
			{
				"type": "unocc",
				"energy": -0.00934,
				"method": "rhf"
			},
			{
				"type": "unocc",
				"energy": 0.02226,
				"method": "rhf"
			},
			{
				"type": "unocc",
				"energy": 0.07491,
				"method": "rhf"
			}
		],
		"cosmo_sigma_profile": { 
			"-0.025": 0.0,
			"-0.024": 0.0,
			"-0.023": 0.0,
			"-0.022": 0.0,
			"-0.021": 0.0,
			"-0.02": 0.0,
			"-0.019": 0.0693013851245,
			"-0.018": 1.18138568059,
			"-0.017": 0.660731912566,
			"-0.016": 0.772168319144,
			"-0.015": 0.827625790937,
			"-0.014": 0.478437487194,
			"-0.013": 0.312652654889,
			"-0.012": 0.869567784381,
			"-0.011": 1.10311190072,
			"-0.01": 0.786665916441,
			"-0.009": 0.455916270162,
			"-0.008": 0.772098232246,
			"-0.007": 1.44969193447,
			"-0.006": 5.64988446005,
			"-0.005": 5.99884674144,
			"-0.004": 9.43731694973,
			"-0.003": 30.3165898543,
			"-0.002": 31.4983966733,
			"-0.001": 20.6413315073,
			"0.0": 13.7091157096,
			"0.001": 11.0525745902,
			"0.002": 26.059269547,
			"0.003": 34.5619311184,
			"0.004": 8.04920287858,
			"0.005": 5.47272628416,
			"0.006": 3.69506997018,
			"0.007": 3.49754083422,
			"0.008": 3.01432583059,
			"0.009": 1.67403131366,
			"0.01": 1.96266978239,
			"0.011": 2.76309940246,
			"0.012": 2.90830003857,
			"0.013": 0.150203750192,
			"0.014": 0.0,
			"0.015": 0.0,
			"0.016": 0.0,
			"0.017": 0.0,
			"0.018": 0.0,
			"0.019": 0.0,
			"0.02": 0.0,
			"0.021": 0.0,
			"0.022": 0.0,
			"0.023": 0.0,
			"0.024": 0.0,
			"0.025": 0.0
		}
	}
}
