{
	 "smiles": "CSC1=C(C=O)C=C2OCCOC2=C1", 
	 "Tm": 386.15, 
	 "num_atms": 24, 
	 "gaussian": { 
		 "optdone": 1, 
		 "sigma_profile": "yes", 
		 "theory": "DFT", 
		 "functional": "B3LYP", 
		 "basiset": "6-31G**", 
		 "properties": { 
			 "R2extent": 3938.9734, 
			 "electric_dipole_moment_norm": 5.66436595657, 
			 "electric_quadrupole_moment_norm": 6.85804045045, 
			 "total_energy": -1010.91657032, 
			 "HOMO_LUMO_gap": 0.15176, 
			 "cosmo_polarized_energy": -12.56, 
			 "cosmo_cavitation_energy": 28.79, 
			 "cosmo_dispersion_energy": -22.02, 
			 "cosmo_repulsion_energy": 1.67, 
			 "cosmo_total_nonelectrostatic_energy": 8.45, 
			 "SMD_solvation_energy": 6.29 
		},
		"coords": [
			{
				"x": -0.1465993306,
				"y": -0.9393466503,
				"z": -4.4942665124,
				"element": "C" 
			},
			{
				"x": -0.1993109937,
				"y": 0.495446058,
				"z": -3.3597855207,
				"element": "S" 
			},
			{
				"x": 0.2687645138,
				"y": -0.1934414498,
				"z": -1.7746575151,
				"element": "C" 
			},
			{
				"x": 1.5375598414,
				"y": -0.7484941558,
				"z": -1.4474735257,
				"element": "C" 
			},
			{
				"x": 2.6916682462,
				"y": -0.8849153849,
				"z": -2.3602931341,
				"element": "C" 
			},
			{
				"x": 2.7273874655,
				"y": -0.656767412,
				"z": -3.5555071445,
				"element": "O" 
			},
			{
				"x": 1.7722083514,
				"y": -1.1819486342,
				"z": -0.1318643369,
				"element": "C" 
			},
			{
				"x": 0.8152107567,
				"y": -1.0619267093,
				"z": 0.8657715478,
				"element": "C" 
			},
			{
				"x": 1.1037481579,
				"y": -1.5161327116,
				"z": 2.1273068913,
				"element": "O" 
			},
			{
				"x": -0.0505147894,
				"y": -1.6738910323,
				"z": 2.9546981112,
				"element": "C" 
			},
			{
				"x": -0.9471018066,
				"y": -0.4521118592,
				"z": 2.8409349943,
				"element": "C" 
			},
			{
				"x": -1.3941844296,
				"y": -0.2887875296,
				"z": 1.4907715334,
				"element": "O" 
			},
			{
				"x": -0.4191540818,
				"y": -0.4670267592,
				"z": 0.5521328859,
				"element": "C" 
			},
			{
				"x": -0.6801486405,
				"y": -0.0584492997,
				"z": -0.7577100128,
				"element": "C" 
			},
			{
				"x": -0.5678945022,
				"y": -0.579012964,
				"z": -5.4361126754,
				"element": "H" 
			},
			{
				"x": 0.8827492821,
				"y": -1.2598775636,
				"z": -4.6477446689,
				"element": "H" 
			},
			{
				"x": -0.7670221451,
				"y": -1.7538984256,
				"z": -4.1150999407,
				"element": "H" 
			},
			{
				"x": 3.61032333,
				"y": -1.233528358,
				"z": -1.8360797418,
				"element": "H" 
			},
			{
				"x": 2.7301609624,
				"y": -1.6231983997,
				"z": 0.1300469257,
				"element": "H" 
			},
			{
				"x": 0.3151261141,
				"y": -1.8024573768,
				"z": 3.9761727019,
				"element": "H" 
			},
			{
				"x": -0.6031583781,
				"y": -2.5748298601,
				"z": 2.6556807147,
				"element": "H" 
			},
			{
				"x": -1.8465423798,
				"y": -0.5587771785,
				"z": 3.4517947417,
				"element": "H" 
			},
			{
				"x": -0.4016683052,
				"y": 0.4461236695,
				"z": 3.1583458325,
				"element": "H" 
			},
			{
				"x": -1.6515072389,
				"y": 0.3726499867,
				"z": -0.9733621513,
				"element": "H" 
			}
		],
		 "valence_orbital": [ 
			{
				"type": "occ",
				"energy": -0.30577,
				"method": "rhf"
			},
			{
				"type": "occ",
				"energy": -0.2571,
				"method": "rhf"
			},
			{
				"type": "occ",
				"energy": -0.25131,
				"method": "rhf"
			},
			{
				"type": "occ",
				"energy": -0.23274,
				"method": "rhf"
			},
			{
				"type": "occ",
				"energy": -0.21041,
				"method": "rhf"
			},
			{
				"type": "unocc",
				"energy": -0.05865,
				"method": "rhf"
			},
			{
				"type": "unocc",
				"energy": -0.01636,
				"method": "rhf"
			},
			{
				"type": "unocc",
				"energy": 0.04115,
				"method": "rhf"
			},
			{
				"type": "unocc",
				"energy": 0.05469,
				"method": "rhf"
			},
			{
				"type": "unocc",
				"energy": 0.07369,
				"method": "rhf"
			}
		],
		"cosmo_sigma_profile": { 
			"-0.025": 0.0,
			"-0.024": 0.0,
			"-0.023": 0.0,
			"-0.022": 0.0,
			"-0.021": 0.0,
			"-0.02": 0.0,
			"-0.019": 0.0,
			"-0.018": 0.0,
			"-0.017": 0.0,
			"-0.016": 0.0,
			"-0.015": 0.0,
			"-0.014": 0.0,
			"-0.013": 0.0,
			"-0.012": 0.0,
			"-0.011": 0.0,
			"-0.01": 0.0,
			"-0.009": 0.158865093202,
			"-0.008": 4.5874775836,
			"-0.007": 13.4348062605,
			"-0.006": 19.8746928006,
			"-0.005": 17.329368635,
			"-0.004": 14.82671844,
			"-0.003": 12.7595071867,
			"-0.002": 13.8696283459,
			"-0.001": 18.4013581342,
			"0.0": 16.9454867799,
			"0.001": 16.8939203506,
			"0.002": 20.6580320759,
			"0.003": 9.96803104312,
			"0.004": 7.03990667231,
			"0.005": 7.78124249158,
			"0.006": 6.00521852469,
			"0.007": 5.47447857371,
			"0.008": 6.91512070091,
			"0.009": 6.02196147794,
			"0.01": 3.7058707389,
			"0.011": 3.38538197802,
			"0.012": 3.80046573301,
			"0.013": 1.50205112553,
			"0.014": 0.0250087420938,
			"0.015": 0.0,
			"0.016": 0.0,
			"0.017": 0.0,
			"0.018": 0.0,
			"0.019": 0.0,
			"0.02": 0.0,
			"0.021": 0.0,
			"0.022": 0.0,
			"0.023": 0.0,
			"0.024": 0.0,
			"0.025": 0.0
		}
	}
}
