{
	 "smiles": "COC1=CC(CN2C(=O)NC(=O)C=C2N)=CC=C1", 
	 "Tm": 566.15, 
	 "num_atms": 31, 
	 "gaussian": { 
		 "optdone": 1, 
		 "sigma_profile": "yes", 
		 "theory": "DFT", 
		 "functional": "B3LYP", 
		 "basiset": "6-31G**", 
		 "properties": { 
			 "R2extent": 5429.913, 
			 "electric_dipole_moment_norm": 6.34375671743, 
			 "electric_quadrupole_moment_norm": 21.3622266644, 
			 "total_energy": -855.064448501, 
			 "HOMO_LUMO_gap": 0.20224, 
			 "cosmo_polarized_energy": -25.0, 
			 "cosmo_cavitation_energy": 34.76, 
			 "cosmo_dispersion_energy": -24.87, 
			 "cosmo_repulsion_energy": 1.92, 
			 "cosmo_total_nonelectrostatic_energy": 11.81, 
			 "SMD_solvation_energy": 7.99 
		},
		"coords": [
			{
				"x": -3.3321981155,
				"y": -0.9701129793,
				"z": 1.1492981246,
				"element": "C" 
			},
			{
				"x": -3.5739116881,
				"y": -0.3254085066,
				"z": -0.0898774452,
				"element": "O" 
			},
			{
				"x": -2.530545059,
				"y": -0.1814138333,
				"z": -0.9595287462,
				"element": "C" 
			},
			{
				"x": -1.2344627118,
				"y": -0.6511266412,
				"z": -0.7245674618,
				"element": "C" 
			},
			{
				"x": -0.2304670079,
				"y": -0.449755746,
				"z": -1.6850741954,
				"element": "C" 
			},
			{
				"x": 1.1792117719,
				"y": -0.9587658149,
				"z": -1.4398462824,
				"element": "C" 
			},
			{
				"x": 2.0559064011,
				"y": 0.0066469189,
				"z": -0.7319209949,
				"element": "N" 
			},
			{
				"x": 2.7034603934,
				"y": 0.9449881424,
				"z": -1.5602770358,
				"element": "C" 
			},
			{
				"x": 2.6679248382,
				"y": 0.8681860561,
				"z": -2.7800007998,
				"element": "O" 
			},
			{
				"x": 3.3702575553,
				"y": 1.9450704541,
				"z": -0.8946708201,
				"element": "N" 
			},
			{
				"x": 3.4715315853,
				"y": 2.1456441319,
				"z": 0.5015384793,
				"element": "C" 
			},
			{
				"x": 4.0958522002,
				"y": 3.1032450768,
				"z": 0.936036152,
				"element": "O" 
			},
			{
				"x": 2.8110873074,
				"y": 1.1181686958,
				"z": 1.2645275729,
				"element": "C" 
			},
			{
				"x": 2.1344885268,
				"y": 0.1003775722,
				"z": 0.6526750089,
				"element": "C" 
			},
			{
				"x": 1.4588746081,
				"y": -0.868193139,
				"z": 1.381538517,
				"element": "N" 
			},
			{
				"x": -0.5278770125,
				"y": 0.2172805489,
				"z": -2.8763610954,
				"element": "C" 
			},
			{
				"x": -1.8278384502,
				"y": 0.6809017767,
				"z": -3.1030065342,
				"element": "C" 
			},
			{
				"x": -2.8268318548,
				"y": 0.4855259612,
				"z": -2.1576937097,
				"element": "C" 
			},
			{
				"x": -3.0124821276,
				"y": -2.0114788111,
				"z": 1.0099030128,
				"element": "H" 
			},
			{
				"x": -4.2818894673,
				"y": -0.9575186913,
				"z": 1.6864989757,
				"element": "H" 
			},
			{
				"x": -2.5748477713,
				"y": -0.4404447599,
				"z": 1.7416679401,
				"element": "H" 
			},
			{
				"x": -0.9871215965,
				"y": -1.1556781742,
				"z": 0.2013155675,
				"element": "H" 
			},
			{
				"x": 1.1611417915,
				"y": -1.8961579498,
				"z": -0.8813671816,
				"element": "H" 
			},
			{
				"x": 1.6746025772,
				"y": -1.1546050561,
				"z": -2.3898643085,
				"element": "H" 
			},
			{
				"x": 3.8297052856,
				"y": 2.6279081766,
				"z": -1.4841161195,
				"element": "H" 
			},
			{
				"x": 2.8891892345,
				"y": 1.1613725488,
				"z": 2.342769113,
				"element": "H" 
			},
			{
				"x": 1.6617285268,
				"y": -0.8232525297,
				"z": 2.3710810816,
				"element": "H" 
			},
			{
				"x": 1.5228193879,
				"y": -1.8145744034,
				"z": 1.03145209,
				"element": "H" 
			},
			{
				"x": 0.2559144892,
				"y": 0.3826007117,
				"z": -3.6073124989,
				"element": "H" 
			},
			{
				"x": -2.0618050547,
				"y": 1.1985261132,
				"z": -4.0288172161,
				"element": "H" 
			},
			{
				"x": -3.8407185633,
				"y": 0.8371441506,
				"z": -2.3182991899,
				"element": "H" 
			}
		],
		 "valence_orbital": [ 
			{
				"type": "occ",
				"energy": -0.27369,
				"method": "rhf"
			},
			{
				"type": "occ",
				"energy": -0.25408,
				"method": "rhf"
			},
			{
				"type": "occ",
				"energy": -0.24825,
				"method": "rhf"
			},
			{
				"type": "occ",
				"energy": -0.22562,
				"method": "rhf"
			},
			{
				"type": "occ",
				"energy": -0.22182,
				"method": "rhf"
			},
			{
				"type": "unocc",
				"energy": -0.01958,
				"method": "rhf"
			},
			{
				"type": "unocc",
				"energy": -0.00936,
				"method": "rhf"
			},
			{
				"type": "unocc",
				"energy": 0.008,
				"method": "rhf"
			},
			{
				"type": "unocc",
				"energy": 0.0184,
				"method": "rhf"
			},
			{
				"type": "unocc",
				"energy": 0.0424,
				"method": "rhf"
			}
		],
		"cosmo_sigma_profile": { 
			"-0.025": 0.0,
			"-0.024": 0.0,
			"-0.023": 0.0,
			"-0.022": 0.0,
			"-0.021": 0.0,
			"-0.02": 0.0,
			"-0.019": 0.0,
			"-0.018": 0.0,
			"-0.017": 0.0,
			"-0.016": 0.352733248806,
			"-0.015": 2.86001694492,
			"-0.014": 3.78933723203,
			"-0.013": 3.77143221872,
			"-0.012": 3.82126599676,
			"-0.011": 3.2934269748,
			"-0.01": 4.77409058255,
			"-0.009": 3.24358394407,
			"-0.008": 3.44132005703,
			"-0.007": 3.98294561411,
			"-0.006": 9.4474550129,
			"-0.005": 16.8683320575,
			"-0.004": 21.9670367025,
			"-0.003": 24.2931739226,
			"-0.002": 19.0971281958,
			"-0.001": 13.9295830204,
			"0.0": 14.0437337696,
			"0.001": 12.8123660249,
			"0.002": 13.6626807536,
			"0.003": 16.4984039843,
			"0.004": 18.1732985104,
			"0.005": 14.9150868659,
			"0.006": 8.30739257846,
			"0.007": 4.59788291195,
			"0.008": 3.91542398369,
			"0.009": 3.68510911161,
			"0.01": 4.52682988107,
			"0.011": 3.98979382492,
			"0.012": 4.20456797554,
			"0.013": 6.50744055543,
			"0.014": 6.08736815801,
			"0.015": 1.55751167246,
			"0.016": 0.0162653226455,
			"0.017": 0.0,
			"0.018": 0.0,
			"0.019": 0.0,
			"0.02": 0.0,
			"0.021": 0.0,
			"0.022": 0.0,
			"0.023": 0.0,
			"0.024": 0.0,
			"0.025": 0.0
		}
	}
}
