{
	 "smiles": "CC(=O)CCC1=CC=CC=C1", 
	 "Tm": 260.15, 
	 "num_atms": 23, 
	 "gaussian": { 
		 "optdone": 1, 
		 "sigma_profile": "yes", 
		 "theory": "DFT", 
		 "functional": "B3LYP", 
		 "basiset": "6-31G**", 
		 "properties": { 
			 "R2extent": 2361.5078, 
			 "electric_dipole_moment_norm": 2.60052285512, 
			 "electric_quadrupole_moment_norm": 6.99232057761, 
			 "total_energy": -463.528891816, 
			 "HOMO_LUMO_gap": 0.22048, 
			 "cosmo_polarized_energy": -8.23, 
			 "cosmo_cavitation_energy": 26.2, 
			 "cosmo_dispersion_energy": -18.66, 
			 "cosmo_repulsion_energy": 1.52, 
			 "cosmo_total_nonelectrostatic_energy": 9.07, 
			 "SMD_solvation_energy": 4.92 
		},
		"coords": [
			{
				"x": -2.0407504515,
				"y": 2.8024176829,
				"z": 0.3543578022,
				"element": "C" 
			},
			{
				"x": -0.9409404453,
				"y": 1.9000965069,
				"z": -0.1749600951,
				"element": "C" 
			},
			{
				"x": -1.1527383689,
				"y": 1.0872672707,
				"z": -1.0560839195,
				"element": "O" 
			},
			{
				"x": 0.4433310261,
				"y": 2.0881409843,
				"z": 0.4405290713,
				"element": "C" 
			},
			{
				"x": 1.4181015296,
				"y": 0.9252961478,
				"z": 0.1798476975,
				"element": "C" 
			},
			{
				"x": 1.1612388875,
				"y": -0.28722839,
				"z": 1.0534386006,
				"element": "C" 
			},
			{
				"x": 0.2748952885,
				"y": -1.2976522826,
				"z": 0.6528478388,
				"element": "C" 
			},
			{
				"x": 0.0304001916,
				"y": -2.3984984766,
				"z": 1.475562234,
				"element": "C" 
			},
			{
				"x": 0.6667328836,
				"y": -2.5088739462,
				"z": 2.7134339916,
				"element": "C" 
			},
			{
				"x": 1.5519437911,
				"y": -1.5101315615,
				"z": 3.1230637432,
				"element": "C" 
			},
			{
				"x": 1.7954421808,
				"y": -0.4112462386,
				"z": 2.2978128715,
				"element": "C" 
			},
			{
				"x": -2.3110740156,
				"y": 2.4853301586,
				"z": 1.3691790327,
				"element": "H" 
			},
			{
				"x": -2.9204528667,
				"y": 2.7342463836,
				"z": -0.2871756427,
				"element": "H" 
			},
			{
				"x": -1.7038331678,
				"y": 3.8425309832,
				"z": 0.424556882,
				"element": "H" 
			},
			{
				"x": 0.3407816519,
				"y": 2.2862957852,
				"z": 1.5148258312,
				"element": "H" 
			},
			{
				"x": 0.8415594083,
				"y": 3.0181380405,
				"z": 0.0060473424,
				"element": "H" 
			},
			{
				"x": 2.4384678548,
				"y": 1.2845725521,
				"z": 0.3530924455,
				"element": "H" 
			},
			{
				"x": 1.3445757834,
				"y": 0.6494580812,
				"z": -0.8763157599,
				"element": "H" 
			},
			{
				"x": -0.2271370371,
				"y": -1.2086510347,
				"z": -0.3055031199,
				"element": "H" 
			},
			{
				"x": -0.6570127843,
				"y": -3.1731392994,
				"z": 1.1465660027,
				"element": "H" 
			},
			{
				"x": 0.4781075897,
				"y": -3.3676993341,
				"z": 3.3514653642,
				"element": "H" 
			},
			{
				"x": 2.057778854,
				"y": -1.5889739721,
				"z": 4.0815935674,
				"element": "H" 
			},
			{
				"x": 2.4939822166,
				"y": 0.3583039588,
				"z": 2.6200182184,
				"element": "H" 
			}
		],
		 "valence_orbital": [ 
			{
				"type": "occ",
				"energy": -0.3287,
				"method": "rhf"
			},
			{
				"type": "occ",
				"energy": -0.32459,
				"method": "rhf"
			},
			{
				"type": "occ",
				"energy": -0.24888,
				"method": "rhf"
			},
			{
				"type": "occ",
				"energy": -0.24238,
				"method": "rhf"
			},
			{
				"type": "occ",
				"energy": -0.23463,
				"method": "rhf"
			},
			{
				"type": "unocc",
				"energy": -0.01415,
				"method": "rhf"
			},
			{
				"type": "unocc",
				"energy": 0.00472,
				"method": "rhf"
			},
			{
				"type": "unocc",
				"energy": 0.00638,
				"method": "rhf"
			},
			{
				"type": "unocc",
				"energy": 0.08908,
				"method": "rhf"
			},
			{
				"type": "unocc",
				"energy": 0.1018,
				"method": "rhf"
			}
		],
		"cosmo_sigma_profile": { 
			"-0.025": 0.0,
			"-0.024": 0.0,
			"-0.023": 0.0,
			"-0.022": 0.0,
			"-0.021": 0.0,
			"-0.02": 0.0,
			"-0.019": 0.0,
			"-0.018": 0.0,
			"-0.017": 0.0,
			"-0.016": 0.0,
			"-0.015": 0.0,
			"-0.014": 0.0,
			"-0.013": 0.0,
			"-0.012": 0.0,
			"-0.011": 0.0,
			"-0.01": 0.0,
			"-0.009": 0.0,
			"-0.008": 0.0,
			"-0.007": 0.53808228625,
			"-0.006": 8.69389534802,
			"-0.005": 18.6339853148,
			"-0.004": 21.0933823416,
			"-0.003": 25.4422435161,
			"-0.002": 22.1050762446,
			"-0.001": 20.004324387,
			"0.0": 14.0702873491,
			"0.001": 9.81919918211,
			"0.002": 8.81695981187,
			"0.003": 10.0177965424,
			"0.004": 10.2887858097,
			"0.005": 10.1381733807,
			"0.006": 9.48990150597,
			"0.007": 5.93701862839,
			"0.008": 1.38844718975,
			"0.009": 1.59342105534,
			"0.01": 1.79981953244,
			"0.011": 2.45545895745,
			"0.012": 2.86171937466,
			"0.013": 1.51111478844,
			"0.014": 0.188418387333,
			"0.015": 0.0,
			"0.016": 0.0,
			"0.017": 0.0,
			"0.018": 0.0,
			"0.019": 0.0,
			"0.02": 0.0,
			"0.021": 0.0,
			"0.022": 0.0,
			"0.023": 0.0,
			"0.024": 0.0,
			"0.025": 0.0
		}
	}
}
