{
	 "smiles": "CCOC1=C(OC)C=C(C=C1Cl)C(O)=O", 
	 "Tm": 390.15, 
	 "num_atms": 26, 
	 "gaussian": { 
		 "optdone": 1, 
		 "sigma_profile": "yes", 
		 "theory": "DFT", 
		 "functional": "B3LYP", 
		 "basiset": "6-31G**", 
		 "properties": { 
			 "R2extent": 5135.6293, 
			 "electric_dipole_moment_norm": 1.39987168698, 
			 "electric_quadrupole_moment_norm": 12.3495426519, 
			 "total_energy": -1148.77425213, 
			 "HOMO_LUMO_gap": 0.19487, 
			 "cosmo_polarized_energy": -10.9, 
			 "cosmo_cavitation_energy": 32.38, 
			 "cosmo_dispersion_energy": -22.72, 
			 "cosmo_repulsion_energy": 1.81, 
			 "cosmo_total_nonelectrostatic_energy": 11.47, 
			 "SMD_solvation_energy": 7.65 
		},
		"coords": [
			{
				"x": 1.8228366239,
				"y": -0.8164154366,
				"z": -2.8392895874,
				"element": "C" 
			},
			{
				"x": 1.3728486714,
				"y": -0.951031533,
				"z": -1.3975420679,
				"element": "C" 
			},
			{
				"x": -0.0722138582,
				"y": -0.8432910806,
				"z": -1.3815921392,
				"element": "O" 
			},
			{
				"x": -0.6596561665,
				"y": -0.9540673955,
				"z": -0.1579000911,
				"element": "C" 
			},
			{
				"x": -0.5714769346,
				"y": 0.0870306951,
				"z": 0.7929806861,
				"element": "C" 
			},
			{
				"x": 0.1733600087,
				"y": 1.2092177242,
				"z": 0.5218130843,
				"element": "O" 
			},
			{
				"x": -0.4140311103,
				"y": 2.1072463097,
				"z": -0.4305585856,
				"element": "C" 
			},
			{
				"x": -1.1982435795,
				"y": -0.0323108612,
				"z": 2.0276897602,
				"element": "C" 
			},
			{
				"x": -1.9343913004,
				"y": -1.1829225177,
				"z": 2.3351826946,
				"element": "C" 
			},
			{
				"x": -2.0515714685,
				"y": -2.2158599232,
				"z": 1.3983894883,
				"element": "C" 
			},
			{
				"x": -1.4114339485,
				"y": -2.0947314805,
				"z": 0.1681583383,
				"element": "C" 
			},
			{
				"x": -1.5361017412,
				"y": -3.3953263103,
				"z": -0.9985899551,
				"element": "Cl" 
			},
			{
				"x": -2.5854586704,
				"y": -1.2558994684,
				"z": 3.6694224379,
				"element": "C" 
			},
			{
				"x": -3.2763993314,
				"y": -2.4073029345,
				"z": 3.8603788318,
				"element": "O" 
			},
			{
				"x": -2.522675163,
				"y": -0.3900279396,
				"z": 4.5194834943,
				"element": "O" 
			},
			{
				"x": 1.5382402661,
				"y": 0.157931372,
				"z": -3.2470090828,
				"element": "H" 
			},
			{
				"x": 2.9115996252,
				"y": -0.9105393178,
				"z": -2.899554375,
				"element": "H" 
			},
			{
				"x": 1.3710255656,
				"y": -1.5958047184,
				"z": -3.4588808185,
				"element": "H" 
			},
			{
				"x": 1.8002346239,
				"y": -0.1662742838,
				"z": -0.764838474,
				"element": "H" 
			},
			{
				"x": 1.6557022485,
				"y": -1.9277571534,
				"z": -0.9854144618,
				"element": "H" 
			},
			{
				"x": -1.3702909277,
				"y": 2.4939864308,
				"z": -0.0577666009,
				"element": "H" 
			},
			{
				"x": -0.5677044114,
				"y": 1.6165580664,
				"z": -1.396448664,
				"element": "H" 
			},
			{
				"x": 0.2903952125,
				"y": 2.9333224992,
				"z": -0.5432267688,
				"element": "H" 
			},
			{
				"x": -1.116410326,
				"y": 0.7680211918,
				"z": 2.7540348903,
				"element": "H" 
			},
			{
				"x": -2.6233006912,
				"y": -3.1058266728,
				"z": 1.6278527236,
				"element": "H" 
			},
			{
				"x": -3.6534832171,
				"y": -2.3445252621,
				"z": 4.7531252426,
				"element": "H" 
			}
		],
		 "valence_orbital": [ 
			{
				"type": "occ",
				"energy": -0.30373,
				"method": "rhf"
			},
			{
				"type": "occ",
				"energy": -0.28094,
				"method": "rhf"
			},
			{
				"type": "occ",
				"energy": -0.27571,
				"method": "rhf"
			},
			{
				"type": "occ",
				"energy": -0.2506,
				"method": "rhf"
			},
			{
				"type": "occ",
				"energy": -0.24852,
				"method": "rhf"
			},
			{
				"type": "unocc",
				"energy": -0.05365,
				"method": "rhf"
			},
			{
				"type": "unocc",
				"energy": -0.01723,
				"method": "rhf"
			},
			{
				"type": "unocc",
				"energy": 0.02518,
				"method": "rhf"
			},
			{
				"type": "unocc",
				"energy": 0.04982,
				"method": "rhf"
			},
			{
				"type": "unocc",
				"energy": 0.07612,
				"method": "rhf"
			}
		],
		"cosmo_sigma_profile": { 
			"-0.025": 0.0,
			"-0.024": 0.0,
			"-0.023": 0.0,
			"-0.022": 0.0,
			"-0.021": 0.0,
			"-0.02": 0.0,
			"-0.019": 0.107039784247,
			"-0.018": 0.848304225068,
			"-0.017": 1.21863614412,
			"-0.016": 0.511567434961,
			"-0.015": 0.418843236064,
			"-0.014": 0.940689306057,
			"-0.013": 0.799547077572,
			"-0.012": 0.871362505934,
			"-0.011": 1.03145544299,
			"-0.01": 0.442498540177,
			"-0.009": 0.328831804009,
			"-0.008": 0.672878616562,
			"-0.007": 2.10867150072,
			"-0.006": 4.35556475099,
			"-0.005": 10.9838774099,
			"-0.004": 19.1341277,
			"-0.003": 29.6717084287,
			"-0.002": 27.7484338288,
			"-0.001": 24.7063595485,
			"0.0": 29.6484505243,
			"0.001": 23.711438595,
			"0.002": 14.6691175974,
			"0.003": 11.4679784112,
			"0.004": 14.1815253559,
			"0.005": 8.44508905873,
			"0.006": 4.79944409294,
			"0.007": 5.18563339872,
			"0.008": 4.03544611488,
			"0.009": 3.91468581181,
			"0.01": 3.98776731931,
			"0.011": 5.43554264097,
			"0.012": 2.84425530434,
			"0.013": 0.00173433017657,
			"0.014": 0.0,
			"0.015": 0.0,
			"0.016": 0.0,
			"0.017": 0.0,
			"0.018": 0.0,
			"0.019": 0.0,
			"0.02": 0.0,
			"0.021": 0.0,
			"0.022": 0.0,
			"0.023": 0.0,
			"0.024": 0.0,
			"0.025": 0.0
		}
	}
}
