{
	 "smiles": "CC1(C)N(O)C(=O)C(C)(C)N(O)C1=O", 
	 "Tm": 575.15, 
	 "num_atms": 28, 
	 "gaussian": { 
		 "optdone": 1, 
		 "sigma_profile": "yes", 
		 "theory": "DFT", 
		 "functional": "B3LYP", 
		 "basiset": "6-31G**", 
		 "properties": { 
			 "R2extent": 2557.1353, 
			 "electric_dipole_moment_norm": 0.456189631623, 
			 "electric_quadrupole_moment_norm": 10.9793844873, 
			 "total_energy": -723.612175166, 
			 "HOMO_LUMO_gap": 0.23794, 
			 "cosmo_polarized_energy": -11.16, 
			 "cosmo_cavitation_energy": 29.57, 
			 "cosmo_dispersion_energy": -20.73, 
			 "cosmo_repulsion_energy": 1.61, 
			 "cosmo_total_nonelectrostatic_energy": 10.45, 
			 "SMD_solvation_energy": 7.41 
		},
		"coords": [
			{
				"x": 1.5987083229,
				"y": 1.5912409707,
				"z": 1.7948487688,
				"element": "C" 
			},
			{
				"x": 0.9851878264,
				"y": 0.2834230533,
				"z": 1.2585659606,
				"element": "C" 
			},
			{
				"x": 1.8590745653,
				"y": -0.930761523,
				"z": 1.6366021381,
				"element": "C" 
			},
			{
				"x": 0.8416296629,
				"y": 0.3745145128,
				"z": -0.1954542714,
				"element": "N" 
			},
			{
				"x": 2.0639958816,
				"y": 0.5443985588,
				"z": -0.860800418,
				"element": "O" 
			},
			{
				"x": -0.1837008007,
				"y": 0.0136930549,
				"z": -0.9931609366,
				"element": "C" 
			},
			{
				"x": -0.0193680157,
				"y": -0.0680660901,
				"z": -2.2173618727,
				"element": "O" 
			},
			{
				"x": -1.547825364,
				"y": -0.2495526968,
				"z": -0.355896644,
				"element": "C" 
			},
			{
				"x": -2.5738725667,
				"y": 0.7067735548,
				"z": -0.993847581,
				"element": "C" 
			},
			{
				"x": -1.9325277052,
				"y": -1.7214961925,
				"z": -0.6134092934,
				"element": "C" 
			},
			{
				"x": -1.4683439012,
				"y": 0.0119664335,
				"z": 1.0823206291,
				"element": "N" 
			},
			{
				"x": -2.6826511855,
				"y": -0.2021711907,
				"z": 1.7496808397,
				"element": "O" 
			},
			{
				"x": -0.3941657126,
				"y": 0.1039903626,
				"z": 1.8919818479,
				"element": "C" 
			},
			{
				"x": -0.5384004015,
				"y": 0.0752106997,
				"z": 3.1210930701,
				"element": "O" 
			},
			{
				"x": 2.6025688241,
				"y": 1.7251224999,
				"z": 1.3875568156,
				"element": "H" 
			},
			{
				"x": 1.6463397214,
				"y": 1.5434240821,
				"z": 2.883844214,
				"element": "H" 
			},
			{
				"x": 0.985771474,
				"y": 2.4492355313,
				"z": 1.505536317,
				"element": "H" 
			},
			{
				"x": 1.9253145114,
				"y": -1.0016149063,
				"z": 2.7238608351,
				"element": "H" 
			},
			{
				"x": 1.4245704751,
				"y": -1.8581694627,
				"z": 1.2512718228,
				"element": "H" 
			},
			{
				"x": 2.8585275864,
				"y": -0.8127073846,
				"z": 1.2143934221,
				"element": "H" 
			},
			{
				"x": 1.7796517146,
				"y": 0.3663192879,
				"z": -1.7874105243,
				"element": "H" 
			},
			{
				"x": -2.5847073791,
				"y": 0.5505607852,
				"z": -2.0736391885,
				"element": "H" 
			},
			{
				"x": -2.3066957749,
				"y": 1.7473084193,
				"z": -0.7903128777,
				"element": "H" 
			},
			{
				"x": -3.5668156879,
				"y": 0.5137541699,
				"z": -0.5835480904,
				"element": "H" 
			},
			{
				"x": -1.9513950227,
				"y": -1.9052793125,
				"z": -1.6892404468,
				"element": "H" 
			},
			{
				"x": -2.9166281009,
				"y": -1.9263188409,
				"z": -0.1883001738,
				"element": "H" 
			},
			{
				"x": -1.2063000783,
				"y": -2.3997010545,
				"z": -0.1551666934,
				"element": "H" 
			},
			{
				"x": -2.3683428691,
				"y": -0.188497322,
				"z": 2.683592331,
				"element": "H" 
			}
		],
		 "valence_orbital": [ 
			{
				"type": "occ",
				"energy": -0.33984,
				"method": "rhf"
			},
			{
				"type": "occ",
				"energy": -0.2881,
				"method": "rhf"
			},
			{
				"type": "occ",
				"energy": -0.28058,
				"method": "rhf"
			},
			{
				"type": "occ",
				"energy": -0.2441,
				"method": "rhf"
			},
			{
				"type": "occ",
				"energy": -0.23742,
				"method": "rhf"
			},
			{
				"type": "unocc",
				"energy": 0.00052,
				"method": "rhf"
			},
			{
				"type": "unocc",
				"energy": 0.00732,
				"method": "rhf"
			},
			{
				"type": "unocc",
				"energy": 0.05608,
				"method": "rhf"
			},
			{
				"type": "unocc",
				"energy": 0.07624,
				"method": "rhf"
			},
			{
				"type": "unocc",
				"energy": 0.08615,
				"method": "rhf"
			}
		],
		"cosmo_sigma_profile": { 
			"-0.025": 0.0,
			"-0.024": 0.0,
			"-0.023": 0.0,
			"-0.022": 0.0,
			"-0.021": 0.0,
			"-0.02": 0.0,
			"-0.019": 0.0,
			"-0.018": 0.0,
			"-0.017": 0.0,
			"-0.016": 0.0,
			"-0.015": 0.0,
			"-0.014": 0.0,
			"-0.013": 0.642339634651,
			"-0.012": 0.754169575494,
			"-0.011": 1.24793409126,
			"-0.01": 1.54893018425,
			"-0.009": 1.90739847533,
			"-0.008": 2.04990984199,
			"-0.007": 2.49447898921,
			"-0.006": 5.32991462154,
			"-0.005": 14.8627479771,
			"-0.004": 21.6302796709,
			"-0.003": 26.1407032688,
			"-0.002": 24.4802425479,
			"-0.001": 30.946374123,
			"0.0": 20.637387231,
			"0.001": 7.77891045187,
			"0.002": 8.62555718107,
			"0.003": 7.0833887034,
			"0.004": 6.82271703001,
			"0.005": 8.00803996589,
			"0.006": 6.49616984462,
			"0.007": 5.71318381268,
			"0.008": 4.97243595994,
			"0.009": 4.86929694574,
			"0.01": 3.55435767361,
			"0.011": 4.21385971284,
			"0.012": 5.27511925431,
			"0.013": 2.36520310457,
			"0.014": 0.0,
			"0.015": 0.0,
			"0.016": 0.0,
			"0.017": 0.0,
			"0.018": 0.0,
			"0.019": 0.0,
			"0.02": 0.0,
			"0.021": 0.0,
			"0.022": 0.0,
			"0.023": 0.0,
			"0.024": 0.0,
			"0.025": 0.0
		}
	}
}
