{
	 "smiles": "CN1C=C(C=C1C(N)=O)S(Cl)(=O)=O", 
	 "Tm": 406.15, 
	 "num_atms": 20, 
	 "gaussian": { 
		 "optdone": 1, 
		 "sigma_profile": "yes", 
		 "theory": "DFT", 
		 "functional": "B3LYP", 
		 "basiset": "6-31G**", 
		 "properties": { 
			 "R2extent": 4603.3617, 
			 "electric_dipole_moment_norm": 8.84849785557, 
			 "electric_quadrupole_moment_norm": 11.31884493, 
			 "total_energy": -1426.34420605, 
			 "HOMO_LUMO_gap": 0.1789, 
			 "cosmo_polarized_energy": -22.96, 
			 "cosmo_cavitation_energy": 28.42, 
			 "cosmo_dispersion_energy": -20.99, 
			 "cosmo_repulsion_energy": 1.64, 
			 "cosmo_total_nonelectrostatic_energy": 9.06, 
			 "SMD_solvation_energy": 4.72 
		},
		"coords": [
			{
				"x": -0.8947461053,
				"y": 1.4644310326,
				"z": 0.3822051463,
				"element": "C" 
			},
			{
				"x": 0.0090684438,
				"y": 0.3226134287,
				"z": 0.2530452565,
				"element": "N" 
			},
			{
				"x": 0.1025511347,
				"y": -0.4201066089,
				"z": -0.8806133645,
				"element": "C" 
			},
			{
				"x": 0.9761342056,
				"y": -1.4673946943,
				"z": -0.629678292,
				"element": "C" 
			},
			{
				"x": 1.4274098142,
				"y": -1.3668879893,
				"z": 0.7057833777,
				"element": "C" 
			},
			{
				"x": 0.8221967185,
				"y": -0.2460280939,
				"z": 1.2405512863,
				"element": "C" 
			},
			{
				"x": 1.0273704723,
				"y": 0.2171638135,
				"z": 2.6366874844,
				"element": "C" 
			},
			{
				"x": 0.7376538626,
				"y": 1.5393296921,
				"z": 2.9238370448,
				"element": "N" 
			},
			{
				"x": 1.4229865946,
				"y": -0.5579681918,
				"z": 3.4945398952,
				"element": "O" 
			},
			{
				"x": 1.3954197996,
				"y": -2.6860641345,
				"z": -1.8063379951,
				"element": "S" 
			},
			{
				"x": 3.2295840043,
				"y": -1.9230317652,
				"z": -2.6084213966,
				"element": "Cl" 
			},
			{
				"x": 0.434406249,
				"y": -2.6339807954,
				"z": -2.9025984397,
				"element": "O" 
			},
			{
				"x": 1.7501135603,
				"y": -3.924663558,
				"z": -1.1279673503,
				"element": "O" 
			},
			{
				"x": -1.6706720343,
				"y": 1.3812241167,
				"z": -0.3796947506,
				"element": "H" 
			},
			{
				"x": -1.3580441658,
				"y": 1.4647834656,
				"z": 1.3685604867,
				"element": "H" 
			},
			{
				"x": -0.3638651654,
				"y": 2.4109686537,
				"z": 0.2326581854,
				"element": "H" 
			},
			{
				"x": -0.458693858,
				"y": -0.1865806436,
				"z": -1.7726028284,
				"element": "H" 
			},
			{
				"x": 2.1038587228,
				"y": -2.0230369529,
				"z": 1.231211534,
				"element": "H" 
			},
			{
				"x": 1.0308463588,
				"y": 1.8168184819,
				"z": 3.8521153187,
				"element": "H" 
			},
			{
				"x": 0.8730213876,
				"y": 2.2387107428,
				"z": 2.207919401,
				"element": "H" 
			}
		],
		 "valence_orbital": [ 
			{
				"type": "occ",
				"energy": -0.30544,
				"method": "rhf"
			},
			{
				"type": "occ",
				"energy": -0.29843,
				"method": "rhf"
			},
			{
				"type": "occ",
				"energy": -0.28599,
				"method": "rhf"
			},
			{
				"type": "occ",
				"energy": -0.27635,
				"method": "rhf"
			},
			{
				"type": "occ",
				"energy": -0.25773,
				"method": "rhf"
			},
			{
				"type": "unocc",
				"energy": -0.07883,
				"method": "rhf"
			},
			{
				"type": "unocc",
				"energy": -0.04603,
				"method": "rhf"
			},
			{
				"type": "unocc",
				"energy": -0.00317,
				"method": "rhf"
			},
			{
				"type": "unocc",
				"energy": 0.03334,
				"method": "rhf"
			},
			{
				"type": "unocc",
				"energy": 0.06564,
				"method": "rhf"
			}
		],
		"cosmo_sigma_profile": { 
			"-0.025": 0.0,
			"-0.024": 0.0,
			"-0.023": 0.0,
			"-0.022": 0.0,
			"-0.021": 0.0,
			"-0.02": 0.0,
			"-0.019": 0.0,
			"-0.018": 0.0,
			"-0.017": 0.0,
			"-0.016": 0.0,
			"-0.015": 0.440097499093,
			"-0.014": 3.14044357228,
			"-0.013": 2.52110619892,
			"-0.012": 2.7309098769,
			"-0.011": 4.97230822244,
			"-0.01": 5.08716912184,
			"-0.009": 4.13652576223,
			"-0.008": 6.604904756,
			"-0.007": 8.5087682784,
			"-0.006": 9.47739217335,
			"-0.005": 12.5963225458,
			"-0.004": 12.5707697494,
			"-0.003": 9.33732765926,
			"-0.002": 9.94314059192,
			"-0.001": 12.4100165434,
			"0.0": 14.379549242,
			"0.001": 13.1149039205,
			"0.002": 13.8928047884,
			"0.003": 13.2690530402,
			"0.004": 17.3768338569,
			"0.005": 7.50490459883,
			"0.006": 4.94607488066,
			"0.007": 6.78986601784,
			"0.008": 11.86874113,
			"0.009": 8.37645115264,
			"0.01": 1.91920610149,
			"0.011": 1.69055077184,
			"0.012": 3.45852196666,
			"0.013": 5.43928041729,
			"0.014": 0.98240962057,
			"0.015": 0.0,
			"0.016": 0.0,
			"0.017": 0.0,
			"0.018": 0.0,
			"0.019": 0.0,
			"0.02": 0.0,
			"0.021": 0.0,
			"0.022": 0.0,
			"0.023": 0.0,
			"0.024": 0.0,
			"0.025": 0.0
		}
	}
}
