{
	 "smiles": "FC(F)(F)C1=CC=CN=C1S", 
	 "Tm": 454.15, 
	 "num_atms": 15, 
	 "gaussian": { 
		 "optdone": 1, 
		 "sigma_profile": "yes", 
		 "theory": "DFT", 
		 "functional": "B3LYP", 
		 "basiset": "6-31G**", 
		 "properties": { 
			 "R2extent": 2157.9823, 
			 "electric_dipole_moment_norm": 2.92240096154, 
			 "electric_quadrupole_moment_norm": 4.54815486324, 
			 "total_energy": -983.504302709, 
			 "HOMO_LUMO_gap": 0.19482, 
			 "cosmo_polarized_energy": -6.24, 
			 "cosmo_cavitation_energy": 22.11, 
			 "cosmo_dispersion_energy": -16.66, 
			 "cosmo_repulsion_energy": 1.23, 
			 "cosmo_total_nonelectrostatic_energy": 6.68, 
			 "SMD_solvation_energy": 3.42 
		},
		"coords": [
			{
				"x": 0.3498437527,
				"y": 2.3285442828,
				"z": -0.3889338301,
				"element": "F" 
			},
			{
				"x": -0.7325240453,
				"y": 1.59848599,
				"z": -0.0439376398,
				"element": "C" 
			},
			{
				"x": -1.4387939714,
				"y": 1.3713191238,
				"z": -1.1726962423,
				"element": "F" 
			},
			{
				"x": -1.5011494731,
				"y": 2.373245727,
				"z": 0.7519916574,
				"element": "F" 
			},
			{
				"x": -0.3405435154,
				"y": 0.3120225077,
				"z": 0.6384508989,
				"element": "C" 
			},
			{
				"x": 1.0068117765,
				"y": 0.01551498,
				"z": 0.8362361031,
				"element": "C" 
			},
			{
				"x": 1.3678247994,
				"y": -1.1729337105,
				"z": 1.4664993567,
				"element": "C" 
			},
			{
				"x": 0.346149416,
				"y": -2.0249715736,
				"z": 1.8770534379,
				"element": "C" 
			},
			{
				"x": -0.95289339,
				"y": -1.7620827381,
				"z": 1.6983416592,
				"element": "N" 
			},
			{
				"x": -1.2986163013,
				"y": -0.6215695581,
				"z": 1.0935247984,
				"element": "C" 
			},
			{
				"x": -3.0480006043,
				"y": -0.3385754729,
				"z": 0.8898548491,
				"element": "S" 
			},
			{
				"x": 1.7590747498,
				"y": 0.7174670924,
				"z": 0.4951131058,
				"element": "H" 
			},
			{
				"x": 2.4077786313,
				"y": -1.4298999981,
				"z": 1.6337863992,
				"element": "H" 
			},
			{
				"x": 0.5730353315,
				"y": -2.9659928727,
				"z": 2.3741905059,
				"element": "H" 
			},
			{
				"x": -3.3728971563,
				"y": -1.5016737797,
				"z": 1.4847249407,
				"element": "H" 
			}
		],
		 "valence_orbital": [ 
			{
				"type": "occ",
				"energy": -0.35742,
				"method": "rhf"
			},
			{
				"type": "occ",
				"energy": -0.32095,
				"method": "rhf"
			},
			{
				"type": "occ",
				"energy": -0.30397,
				"method": "rhf"
			},
			{
				"type": "occ",
				"energy": -0.2775,
				"method": "rhf"
			},
			{
				"type": "occ",
				"energy": -0.24216,
				"method": "rhf"
			},
			{
				"type": "unocc",
				"energy": -0.04734,
				"method": "rhf"
			},
			{
				"type": "unocc",
				"energy": -0.03654,
				"method": "rhf"
			},
			{
				"type": "unocc",
				"energy": 0.01524,
				"method": "rhf"
			},
			{
				"type": "unocc",
				"energy": 0.07014,
				"method": "rhf"
			},
			{
				"type": "unocc",
				"energy": 0.098,
				"method": "rhf"
			}
		],
		"cosmo_sigma_profile": { 
			"-0.025": 0.0,
			"-0.024": 0.0,
			"-0.023": 0.0,
			"-0.022": 0.0,
			"-0.021": 0.0,
			"-0.02": 0.0,
			"-0.019": 0.0,
			"-0.018": 0.0,
			"-0.017": 0.0,
			"-0.016": 0.0,
			"-0.015": 0.0,
			"-0.014": 0.0,
			"-0.013": 0.0,
			"-0.012": 0.0478466991976,
			"-0.011": 0.974050182594,
			"-0.01": 1.43262634362,
			"-0.009": 1.02527915495,
			"-0.008": 4.94509819724,
			"-0.007": 7.84877954491,
			"-0.006": 7.61850546982,
			"-0.005": 6.89022269837,
			"-0.004": 7.9967683821,
			"-0.003": 7.20673869241,
			"-0.002": 8.1902611788,
			"-0.001": 14.4141991086,
			"0.0": 16.7435030254,
			"0.001": 18.7102230282,
			"0.002": 29.6538936135,
			"0.003": 22.7096050079,
			"0.004": 6.74252140724,
			"0.005": 5.00287735076,
			"0.006": 4.62656921367,
			"0.007": 3.06269029225,
			"0.008": 1.26215752178,
			"0.009": 1.20681202405,
			"0.01": 0.732584262763,
			"0.011": 0.33063216604,
			"0.012": 0.728409148755,
			"0.013": 0.363601224104,
			"0.014": 0.0,
			"0.015": 0.0,
			"0.016": 0.0,
			"0.017": 0.0,
			"0.018": 0.0,
			"0.019": 0.0,
			"0.02": 0.0,
			"0.021": 0.0,
			"0.022": 0.0,
			"0.023": 0.0,
			"0.024": 0.0,
			"0.025": 0.0
		}
	}
}
