{
	 "smiles": "CN1C=CC=C(N)C1=O", 
	 "Tm": 386.15, 
	 "num_atms": 17, 
	 "gaussian": { 
		 "optdone": 1, 
		 "sigma_profile": "yes", 
		 "theory": "DFT", 
		 "functional": "B3LYP", 
		 "basiset": "6-31G**", 
		 "properties": { 
			 "R2extent": 2195.7371, 
			 "electric_dipole_moment_norm": 2.59071848529, 
			 "electric_quadrupole_moment_norm": 12.2833345851, 
			 "total_energy": -418.195971773, 
			 "HOMO_LUMO_gap": 0.16757, 
			 "cosmo_polarized_energy": -12.07, 
			 "cosmo_cavitation_energy": 20.36, 
			 "cosmo_dispersion_energy": -15.46, 
			 "cosmo_repulsion_energy": 1.26, 
			 "cosmo_total_nonelectrostatic_energy": 6.16, 
			 "SMD_solvation_energy": 4.48 
		},
		"coords": [
			{
				"x": -0.6312908194,
				"y": 0.4864313897,
				"z": -2.1237093042,
				"element": "C" 
			},
			{
				"x": 0.3862444972,
				"y": -0.3701618642,
				"z": -1.5150827675,
				"element": "N" 
			},
			{
				"x": 0.0374297396,
				"y": -1.3845776088,
				"z": -0.6463248389,
				"element": "C" 
			},
			{
				"x": 0.9925379037,
				"y": -2.1881701481,
				"z": -0.1024262319,
				"element": "C" 
			},
			{
				"x": 2.3620092817,
				"y": -1.9756468974,
				"z": -0.4235993837,
				"element": "C" 
			},
			{
				"x": 2.7225293239,
				"y": -0.9617765718,
				"z": -1.2789159876,
				"element": "C" 
			},
			{
				"x": 4.0105881982,
				"y": -0.6136876716,
				"z": -1.6283619204,
				"element": "N" 
			},
			{
				"x": 1.7001834241,
				"y": -0.1043726961,
				"z": -1.885952476,
				"element": "C" 
			},
			{
				"x": 1.9723920446,
				"y": 0.7986958489,
				"z": -2.6906963521,
				"element": "O" 
			},
			{
				"x": -0.4424155919,
				"y": 1.5317752233,
				"z": -1.868242674,
				"element": "H" 
			},
			{
				"x": -1.6142433925,
				"y": 0.1857964156,
				"z": -1.7596521665,
				"element": "H" 
			},
			{
				"x": -0.5936132743,
				"y": 0.3985491924,
				"z": -3.2122421033,
				"element": "H" 
			},
			{
				"x": -1.0205706151,
				"y": -1.4875483155,
				"z": -0.4402814458,
				"element": "H" 
			},
			{
				"x": 0.7018325214,
				"y": -2.9814955786,
				"z": 0.5758992691,
				"element": "H" 
			},
			{
				"x": 3.1252972827,
				"y": -2.6120619152,
				"z": 0.0166136789,
				"element": "H" 
			},
			{
				"x": 4.7137434232,
				"y": -1.3361821846,
				"z": -1.6017167053,
				"element": "H" 
			},
			{
				"x": 4.0439460528,
				"y": 0.0067333821,
				"z": -2.4284085907,
				"element": "H" 
			}
		],
		 "valence_orbital": [ 
			{
				"type": "occ",
				"energy": -0.32997,
				"method": "rhf"
			},
			{
				"type": "occ",
				"energy": -0.32422,
				"method": "rhf"
			},
			{
				"type": "occ",
				"energy": -0.25065,
				"method": "rhf"
			},
			{
				"type": "occ",
				"energy": -0.24754,
				"method": "rhf"
			},
			{
				"type": "occ",
				"energy": -0.18194,
				"method": "rhf"
			},
			{
				"type": "unocc",
				"energy": -0.01437,
				"method": "rhf"
			},
			{
				"type": "unocc",
				"energy": 0.02662,
				"method": "rhf"
			},
			{
				"type": "unocc",
				"energy": 0.08814,
				"method": "rhf"
			},
			{
				"type": "unocc",
				"energy": 0.09949,
				"method": "rhf"
			},
			{
				"type": "unocc",
				"energy": 0.11549,
				"method": "rhf"
			}
		],
		"cosmo_sigma_profile": { 
			"-0.025": 0.0,
			"-0.024": 0.0,
			"-0.023": 0.0,
			"-0.022": 0.0,
			"-0.021": 0.0,
			"-0.02": 0.0,
			"-0.019": 0.0,
			"-0.018": 0.0,
			"-0.017": 0.0,
			"-0.016": 0.0,
			"-0.015": 0.0,
			"-0.014": 0.0,
			"-0.013": 0.575440026897,
			"-0.012": 1.23269676127,
			"-0.011": 1.45662020947,
			"-0.01": 1.82721366956,
			"-0.009": 3.42515083501,
			"-0.008": 5.2070434234,
			"-0.007": 6.15511587581,
			"-0.006": 9.48847325767,
			"-0.005": 10.8026273557,
			"-0.004": 11.788297651,
			"-0.003": 14.0847197624,
			"-0.002": 11.4927387446,
			"-0.001": 7.42798701499,
			"0.0": 8.25423217907,
			"0.001": 9.72401776189,
			"0.002": 7.68114394609,
			"0.003": 7.89622858139,
			"0.004": 7.65516389157,
			"0.005": 8.15426008196,
			"0.006": 4.15177417688,
			"0.007": 2.94148730808,
			"0.008": 2.41540857912,
			"0.009": 1.84229921888,
			"0.01": 1.89296659646,
			"0.011": 2.29210822513,
			"0.012": 2.24898626323,
			"0.013": 2.44274222479,
			"0.014": 4.32399931026,
			"0.015": 2.45500513638,
			"0.016": 0.0,
			"0.017": 0.0,
			"0.018": 0.0,
			"0.019": 0.0,
			"0.02": 0.0,
			"0.021": 0.0,
			"0.022": 0.0,
			"0.023": 0.0,
			"0.024": 0.0,
			"0.025": 0.0
		}
	}
}
