{
	 "smiles": "FC(F)(F)C(F)(F)C(F)(F)C(F)(F)C(F)(F)C(F)(F)C(F)(F)C(F)(F)CCI", 
	 "Tm": 355.65, 
	 "num_atms": 32, 
	 "gaussian": { 
		 "optdone": 1, 
		 "sigma_profile": "no", 
		 "theory": "DFT", 
		 "functional": "B3LYP", 
		 "basiset": "6-31G**", 
		 "properties": { 
			 "R2extent": 11260.0231, 
			 "electric_dipole_moment_norm": 2.17501637925, 
			 "electric_quadrupole_moment_norm": 10.6847568919, 
			 "total_energy": -2092.08573256, 
			 "HOMO_LUMO_gap": 0.21173, 
			 "cosmo_polarized_energy": -99820.02, 
			 "cosmo_cavitation_energy": 43.1, 
			 "cosmo_dispersion_energy": -29.67, 
			 "cosmo_repulsion_energy": 1.92, 
			 "cosmo_total_nonelectrostatic_energy": 15.35, 
			 "SMD_solvation_energy": 11.18 
		},
		"coords": [
			{
				"x": -2.8027785951,
				"y": 3.0136161913,
				"z": 1.8910132855,
				"element": "F" 
			},
			{
				"x": -3.0246477086,
				"y": 2.5088139063,
				"z": 3.1115232451,
				"element": "C" 
			},
			{
				"x": -4.0380139483,
				"y": 3.1761704194,
				"z": 3.6737689404,
				"element": "F" 
			},
			{
				"x": -1.9280775775,
				"y": 2.6688540362,
				"z": 3.8615693529,
				"element": "F" 
			},
			{
				"x": -3.404843417,
				"y": 1.0114413268,
				"z": 3.0136856393,
				"element": "C" 
			},
			{
				"x": -4.4174452946,
				"y": 0.8926297611,
				"z": 2.128384305,
				"element": "F" 
			},
			{
				"x": -3.8395129912,
				"y": 0.6263130539,
				"z": 4.2361312987,
				"element": "F" 
			},
			{
				"x": -2.2788384768,
				"y": 0.0027624517,
				"z": 2.6265514446,
				"element": "C" 
			},
			{
				"x": -2.8791875176,
				"y": -1.2082699003,
				"z": 2.5575446565,
				"element": "F" 
			},
			{
				"x": -1.3674905322,
				"y": -0.0162767278,
				"z": 3.6231660139,
				"element": "F" 
			},
			{
				"x": -1.5312417368,
				"y": 0.2891472749,
				"z": 1.2900986752,
				"element": "C" 
			},
			{
				"x": -0.7167354011,
				"y": 1.345683261,
				"z": 1.5152447733,
				"element": "F" 
			},
			{
				"x": -2.4302402755,
				"y": 0.6109014658,
				"z": 0.3334652587,
				"element": "F" 
			},
			{
				"x": -0.6845800458,
				"y": -0.9065693465,
				"z": 0.7702722831,
				"element": "C" 
			},
			{
				"x": -1.5364774646,
				"y": -1.9120210091,
				"z": 0.4631522712,
				"element": "F" 
			},
			{
				"x": 0.1400132865,
				"y": -1.3260452667,
				"z": 1.7622457858,
				"element": "F" 
			},
			{
				"x": 0.1580040072,
				"y": -0.6903090843,
				"z": -0.5291898285,
				"element": "C" 
			},
			{
				"x": 0.7231861717,
				"y": -1.9064230635,
				"z": -0.7804102111,
				"element": "F" 
			},
			{
				"x": -0.7093948291,
				"y": -0.4053561458,
				"z": -1.5244135817,
				"element": "F" 
			},
			{
				"x": 1.3005335413,
				"y": 0.3638853022,
				"z": -0.6191243462,
				"element": "C" 
			},
			{
				"x": 0.7416060343,
				"y": 1.593291424,
				"z": -0.5995197261,
				"element": "F" 
			},
			{
				"x": 1.8521646252,
				"y": 0.1757425125,
				"z": -1.8511683309,
				"element": "F" 
			},
			{
				"x": 2.4500842809,
				"y": 0.3254094491,
				"z": 0.4255171832,
				"element": "C" 
			},
			{
				"x": 1.8958327368,
				"y": 0.6759700354,
				"z": 1.6275359029,
				"element": "F" 
			},
			{
				"x": 3.2921563518,
				"y": 1.3290855065,
				"z": 0.0622091297,
				"element": "F" 
			},
			{
				"x": 3.2087232,
				"y": -0.9819849985,
				"z": 0.624967969,
				"element": "C" 
			},
			{
				"x": 3.9054313768,
				"y": -1.6141987978,
				"z": -0.577144955,
				"element": "C" 
			},
			{
				"x": 5.7234356425,
				"y": -0.6091136412,
				"z": -1.2466446592,
				"element": "I" 
			},
			{
				"x": 3.9229195762,
				"y": -0.7839375818,
				"z": 1.4295830714,
				"element": "H" 
			},
			{
				"x": 2.4884468985,
				"y": -1.7100046099,
				"z": 1.0111747908,
				"element": "H" 
			},
			{
				"x": 4.2455915374,
				"y": -2.6138024699,
				"z": -0.313898867,
				"element": "H" 
			},
			{
				"x": 3.2667765445,
				"y": -1.671804735,
				"z": -1.4536907705,
				"element": "H" 
			}
		],
		 "valence_orbital": [ 
			{
				"type": "occ",
				"energy": -0.35826,
				"method": "rhf"
			},
			{
				"type": "occ",
				"energy": -0.3521,
				"method": "rhf"
			},
			{
				"type": "occ",
				"energy": -0.34783,
				"method": "rhf"
			},
			{
				"type": "occ",
				"energy": -0.26628,
				"method": "rhf"
			},
			{
				"type": "occ",
				"energy": -0.26308,
				"method": "rhf"
			},
			{
				"type": "unocc",
				"energy": -0.05135,
				"method": "rhf"
			},
			{
				"type": "unocc",
				"energy": -0.00286,
				"method": "rhf"
			},
			{
				"type": "unocc",
				"energy": 0.01202,
				"method": "rhf"
			},
			{
				"type": "unocc",
				"energy": 0.03271,
				"method": "rhf"
			},
			{
				"type": "unocc",
				"energy": 0.03801,
				"method": "rhf"
			}
		],
		"cosmo_sigma_profile": { 
			"0.0": 0.0,
			"0.0": 0.0,
			"0.0": 0.0,
			"0.0": 0.0,
			"0.0": 0.0,
			"0.0": 0.0,
			"0.0": 0.0,
			"0.0": 0.0,
			"0.0": 0.0,
			"0.0": 0.0,
			"0.0": 0.0,
			"0.0": 0.0,
			"0.0": 0.0,
			"0.0": 0.0,
			"0.0": 0.0,
			"0.0": 0.0,
			"0.0": 0.0,
			"0.0": 0.0,
			"0.0": 0.0,
			"0.0": 0.0,
			"0.0": 0.0,
			"0.0": 0.0,
			"0.0": 0.0,
			"0.0": 0.0,
			"0.0": 0.0,
			"0.0": 0.0,
			"0.0": 0.0,
			"0.0": 0.0,
			"0.0": 0.0,
			"0.0": 0.0,
			"0.0": 0.0,
			"0.0": 0.0,
			"0.0": 0.0,
			"0.0": 0.0,
			"0.0": 0.0,
			"0.0": 0.0,
			"0.0": 0.0,
			"0.0": 0.0,
			"0.0": 0.0,
			"0.0": 0.0,
			"0.0": 0.0,
			"0.0": 0.0,
			"0.0": 0.0,
			"0.0": 0.0,
			"0.0": 0.0,
			"0.0": 0.0,
			"0.0": 0.0,
			"0.0": 0.0,
			"0.0": 0.0,
			"0.0": 0.0,
			"0.0": 0.0
		}
	}
}
