{
	 "smiles": "NC(=O)C1=NN(C(=N1)C1=CC=CC=C1)C1=CC(COCC(F)(F)C(F)(F)F)=C(Cl)C=C1", 
	 "Tm": 419.15, 
	 "num_atms": 45, 
	 "gaussian": { 
		 "optdone": 1, 
		 "sigma_profile": "yes", 
		 "theory": "DFT", 
		 "functional": "B3LYP", 
		 "basiset": "6-31G**", 
		 "properties": { 
			 "R2extent": 19267.63, 
			 "electric_dipole_moment_norm": 2.97631609544, 
			 "electric_quadrupole_moment_norm": 46.5382656374, 
			 "total_energy": -2061.29458136, 
			 "HOMO_LUMO_gap": 0.18184, 
			 "cosmo_polarized_energy": -25.77, 
			 "cosmo_cavitation_energy": 55.63, 
			 "cosmo_dispersion_energy": -35.94, 
			 "cosmo_repulsion_energy": 2.66, 
			 "cosmo_total_nonelectrostatic_energy": 22.35, 
			 "SMD_solvation_energy": 9.43 
		},
		"coords": [
			{
				"x": 5.5013515903,
				"y": 0.1649275267,
				"z": 2.4520419632,
				"element": "N" 
			},
			{
				"x": 4.5892438299,
				"y": 0.2548251061,
				"z": 3.4631291939,
				"element": "C" 
			},
			{
				"x": 4.880876191,
				"y": 0.3847941728,
				"z": 4.6404630104,
				"element": "O" 
			},
			{
				"x": 3.1650627637,
				"y": 0.1719916179,
				"z": 2.9938441565,
				"element": "C" 
			},
			{
				"x": 2.8546731312,
				"y": 0.052760555,
				"z": 1.7081873982,
				"element": "N" 
			},
			{
				"x": 1.4939082922,
				"y": 0.0297601341,
				"z": 1.7240944367,
				"element": "N" 
			},
			{
				"x": 1.0533509323,
				"y": 0.1200023489,
				"z": 3.0272066969,
				"element": "C" 
			},
			{
				"x": 2.0999892358,
				"y": 0.219946558,
				"z": 3.8337513729,
				"element": "N" 
			},
			{
				"x": -0.3404866895,
				"y": 0.0695742267,
				"z": 3.4981658989,
				"element": "C" 
			},
			{
				"x": -1.3282088333,
				"y": -0.7064746954,
				"z": 2.8704878248,
				"element": "C" 
			},
			{
				"x": -2.6207754204,
				"y": -0.7497863888,
				"z": 3.3905666326,
				"element": "C" 
			},
			{
				"x": -2.941066165,
				"y": -0.0257276155,
				"z": 4.5407315415,
				"element": "C" 
			},
			{
				"x": -1.9582977595,
				"y": 0.7349145548,
				"z": 5.1787378636,
				"element": "C" 
			},
			{
				"x": -0.6643511543,
				"y": 0.7805292987,
				"z": 4.6657077275,
				"element": "C" 
			},
			{
				"x": 0.7920204147,
				"y": 0.0224868258,
				"z": 0.4828550343,
				"element": "C" 
			},
			{
				"x": 1.1906114051,
				"y": -0.8711018711,
				"z": -0.5134602379,
				"element": "C" 
			},
			{
				"x": 0.5599290353,
				"y": -0.8953286126,
				"z": -1.7612332268,
				"element": "C" 
			},
			{
				"x": 1.0155781797,
				"y": -1.8787987941,
				"z": -2.8217899627,
				"element": "C" 
			},
			{
				"x": 0.0788554975,
				"y": -2.9195167065,
				"z": -3.077733756,
				"element": "O" 
			},
			{
				"x": -0.0447738892,
				"y": -3.8468879865,
				"z": -2.0291649677,
				"element": "C" 
			},
			{
				"x": -1.023326276,
				"y": -4.9210944707,
				"z": -2.4824203119,
				"element": "C" 
			},
			{
				"x": -0.5712929239,
				"y": -5.5376030311,
				"z": -3.6062291089,
				"element": "F" 
			},
			{
				"x": -2.2381744802,
				"y": -4.3756961872,
				"z": -2.7543795131,
				"element": "F" 
			},
			{
				"x": -1.2443641055,
				"y": -6.0168191602,
				"z": -1.4195195624,
				"element": "C" 
			},
			{
				"x": -2.1084810635,
				"y": -6.9368141284,
				"z": -1.8550765937,
				"element": "F" 
			},
			{
				"x": -1.727588342,
				"y": -5.4707176079,
				"z": -0.2871992729,
				"element": "F" 
			},
			{
				"x": -0.0773605502,
				"y": -6.6214358607,
				"z": -1.1286696517,
				"element": "F" 
			},
			{
				"x": -0.4965635229,
				"y": 0.0059922209,
				"z": -1.9766802464,
				"element": "C" 
			},
			{
				"x": -1.3306553983,
				"y": 0.0466905086,
				"z": -3.5177766902,
				"element": "Cl" 
			},
			{
				"x": -0.8968950325,
				"y": 0.9048265135,
				"z": -0.9879653806,
				"element": "C" 
			},
			{
				"x": -0.2478545569,
				"y": 0.922234791,
				"z": 0.2441361386,
				"element": "C" 
			},
			{
				"x": 6.4766061536,
				"y": 0.2679450746,
				"z": 2.683110732,
				"element": "H" 
			},
			{
				"x": 5.206505523,
				"y": 0.1278566131,
				"z": 1.4889662389,
				"element": "H" 
			},
			{
				"x": -1.0855110242,
				"y": -1.2917715935,
				"z": 1.9903203159,
				"element": "H" 
			},
			{
				"x": -3.3754012102,
				"y": -1.3583522097,
				"z": 2.9013487737,
				"element": "H" 
			},
			{
				"x": -3.9493871537,
				"y": -0.0613908311,
				"z": 4.9425308283,
				"element": "H" 
			},
			{
				"x": -2.1988164592,
				"y": 1.2916019619,
				"z": 6.0794875168,
				"element": "H" 
			},
			{
				"x": 0.1118553493,
				"y": 1.3539129911,
				"z": 5.1607199427,
				"element": "H" 
			},
			{
				"x": 2.0175173868,
				"y": -1.544425808,
				"z": -0.3125820879,
				"element": "H" 
			},
			{
				"x": 1.1410272,
				"y": -1.371857446,
				"z": -3.7814576957,
				"element": "H" 
			},
			{
				"x": 1.9865663918,
				"y": -2.3036033122,
				"z": -2.526538165,
				"element": "H" 
			},
			{
				"x": 0.9156312074,
				"y": -4.330265021,
				"z": -1.7937314715,
				"element": "H" 
			},
			{
				"x": -0.4358934787,
				"y": -3.3924173875,
				"z": -1.1086767863,
				"element": "H" 
			},
			{
				"x": -1.7034089651,
				"y": 1.6003004189,
				"z": -1.1902867458,
				"element": "H" 
			},
			{
				"x": -0.5440252565,
				"y": 1.6329127067,
				"z": 1.0068801961,
				"element": "H" 
			}
		],
		 "valence_orbital": [ 
			{
				"type": "occ",
				"energy": -0.26933,
				"method": "rhf"
			},
			{
				"type": "occ",
				"energy": -0.26641,
				"method": "rhf"
			},
			{
				"type": "occ",
				"energy": -0.2631,
				"method": "rhf"
			},
			{
				"type": "occ",
				"energy": -0.25178,
				"method": "rhf"
			},
			{
				"type": "occ",
				"energy": -0.2456,
				"method": "rhf"
			},
			{
				"type": "unocc",
				"energy": -0.06376,
				"method": "rhf"
			},
			{
				"type": "unocc",
				"energy": -0.04616,
				"method": "rhf"
			},
			{
				"type": "unocc",
				"energy": -0.03541,
				"method": "rhf"
			},
			{
				"type": "unocc",
				"energy": -0.0234,
				"method": "rhf"
			},
			{
				"type": "unocc",
				"energy": -0.01533,
				"method": "rhf"
			}
		],
		"cosmo_sigma_profile": { 
			"-0.025": 0.0,
			"-0.024": 0.0,
			"-0.023": 0.0,
			"-0.022": 0.0,
			"-0.021": 0.0,
			"-0.02": 0.0,
			"-0.019": 0.0,
			"-0.018": 0.0,
			"-0.017": 0.0,
			"-0.016": 0.0,
			"-0.015": 0.350370708411,
			"-0.014": 1.39323571501,
			"-0.013": 1.25812012238,
			"-0.012": 1.7975729425,
			"-0.011": 2.23748140809,
			"-0.01": 1.98459498366,
			"-0.009": 2.32289678326,
			"-0.008": 8.66844787654,
			"-0.007": 15.6680058327,
			"-0.006": 28.6527068324,
			"-0.005": 25.5369163665,
			"-0.004": 25.2234004153,
			"-0.003": 24.3926677609,
			"-0.002": 25.2025556091,
			"-0.001": 29.2008305045,
			"0.0": 33.7565035197,
			"0.001": 54.95499221,
			"0.002": 49.5866032755,
			"0.003": 35.6122940355,
			"0.004": 27.1114907551,
			"0.005": 9.22679603423,
			"0.006": 5.72231576917,
			"0.007": 6.18223959472,
			"0.008": 4.3426963361,
			"0.009": 4.24561108241,
			"0.01": 3.9508681566,
			"0.011": 1.76871449619,
			"0.012": 2.84748603728,
			"0.013": 7.02313339453,
			"0.014": 3.70994375272,
			"0.015": 1.82743916975,
			"0.016": 1.87276819072,
			"0.017": 0.221735538491,
			"0.018": 0.0,
			"0.019": 0.0,
			"0.02": 0.0,
			"0.021": 0.0,
			"0.022": 0.0,
			"0.023": 0.0,
			"0.024": 0.0,
			"0.025": 0.0
		}
	}
}
