{
	 "smiles": "CNC1=NC=NC=C1", 
	 "Tm": 351.15, 
	 "num_atms": 15, 
	 "gaussian": { 
		 "optdone": 1, 
		 "sigma_profile": "yes", 
		 "theory": "DFT", 
		 "functional": "B3LYP", 
		 "basiset": "6-31G**", 
		 "properties": { 
			 "R2extent": 1329.6891, 
			 "electric_dipole_moment_norm": 4.10320808515, 
			 "electric_quadrupole_moment_norm": 7.53737517973, 
			 "total_energy": -359.005714766, 
			 "HOMO_LUMO_gap": 0.20748, 
			 "cosmo_polarized_energy": -10.09, 
			 "cosmo_cavitation_energy": 18.74, 
			 "cosmo_dispersion_energy": -14.26, 
			 "cosmo_repulsion_energy": 1.18, 
			 "cosmo_total_nonelectrostatic_energy": 5.66, 
			 "SMD_solvation_energy": 0.14 
		},
		"coords": [
			{
				"x": 1.0170555994,
				"y": -2.3832954985,
				"z": 2.4079221872,
				"element": "C" 
			},
			{
				"x": 1.3013318692,
				"y": -1.201842576,
				"z": 1.6245536288,
				"element": "N" 
			},
			{
				"x": 0.9535096957,
				"y": -1.0274630991,
				"z": 0.321433577,
				"element": "C" 
			},
			{
				"x": 1.3125352957,
				"y": 0.151138581,
				"z": -0.2319918951,
				"element": "N" 
			},
			{
				"x": 0.9779095821,
				"y": 0.3346300985,
				"z": -1.507558046,
				"element": "C" 
			},
			{
				"x": 0.3259999761,
				"y": -0.5061707517,
				"z": -2.3180220851,
				"element": "N" 
			},
			{
				"x": -0.0219950807,
				"y": -1.6726844214,
				"z": -1.7478946103,
				"element": "C" 
			},
			{
				"x": 0.2598692276,
				"y": -2.0003060957,
				"z": -0.4318399739,
				"element": "C" 
			},
			{
				"x": 1.4876908183,
				"y": -3.2801453484,
				"z": 1.9837875208,
				"element": "H" 
			},
			{
				"x": 1.4126276745,
				"y": -2.2402706609,
				"z": 3.4149148483,
				"element": "H" 
			},
			{
				"x": -0.0616746581,
				"y": -2.5704432783,
				"z": 2.4916289187,
				"element": "H" 
			},
			{
				"x": 1.7940286281,
				"y": -0.4250460649,
				"z": 2.038497436,
				"element": "H" 
			},
			{
				"x": 1.2735840007,
				"y": 1.2893705776,
				"z": -1.9411894644,
				"element": "H" 
			},
			{
				"x": -0.5546993002,
				"y": -2.37910896,
				"z": -2.3832073891,
				"element": "H" 
			},
			{
				"x": -0.0393733284,
				"y": -2.9532625021,
				"z": -0.0120346529,
				"element": "H" 
			}
		],
		 "valence_orbital": [ 
			{
				"type": "occ",
				"energy": -0.33143,
				"method": "rhf"
			},
			{
				"type": "occ",
				"energy": -0.287,
				"method": "rhf"
			},
			{
				"type": "occ",
				"energy": -0.28269,
				"method": "rhf"
			},
			{
				"type": "occ",
				"energy": -0.24279,
				"method": "rhf"
			},
			{
				"type": "occ",
				"energy": -0.22478,
				"method": "rhf"
			},
			{
				"type": "unocc",
				"energy": -0.0173,
				"method": "rhf"
			},
			{
				"type": "unocc",
				"energy": 0.00109,
				"method": "rhf"
			},
			{
				"type": "unocc",
				"energy": 0.07974,
				"method": "rhf"
			},
			{
				"type": "unocc",
				"energy": 0.09685,
				"method": "rhf"
			},
			{
				"type": "unocc",
				"energy": 0.13041,
				"method": "rhf"
			}
		],
		"cosmo_sigma_profile": { 
			"-0.025": 0.0,
			"-0.024": 0.0,
			"-0.023": 0.0,
			"-0.022": 0.0,
			"-0.021": 0.0,
			"-0.02": 0.0,
			"-0.019": 0.0,
			"-0.018": 0.0,
			"-0.017": 0.0,
			"-0.016": 0.0,
			"-0.015": 0.0,
			"-0.014": 0.322925474178,
			"-0.013": 1.07980803327,
			"-0.012": 0.939328018274,
			"-0.011": 1.18949999015,
			"-0.01": 1.22551114095,
			"-0.009": 0.927037833128,
			"-0.008": 0.609989911954,
			"-0.007": 3.97469689347,
			"-0.006": 9.70405126651,
			"-0.005": 13.4949787239,
			"-0.004": 12.8091721217,
			"-0.003": 11.276703758,
			"-0.002": 11.7342060464,
			"-0.001": 7.61241766283,
			"0.0": 7.96294898979,
			"0.001": 13.4178307287,
			"0.002": 11.6297110225,
			"0.003": 9.64310025363,
			"0.004": 3.95875510758,
			"0.005": 3.30510489606,
			"0.006": 2.24269881006,
			"0.007": 2.88655077338,
			"0.008": 2.40111610546,
			"0.009": 2.07337760441,
			"0.01": 2.09827131436,
			"0.011": 2.1188808731,
			"0.012": 1.8560118844,
			"0.013": 1.54501462999,
			"0.014": 2.04616015225,
			"0.015": 1.34777290522,
			"0.016": 1.21166581898,
			"0.017": 0.630809359661,
			"0.018": 0.0573384477529,
			"0.019": 0.0,
			"0.02": 0.0,
			"0.021": 0.0,
			"0.022": 0.0,
			"0.023": 0.0,
			"0.024": 0.0,
			"0.025": 0.0
		}
	}
}
