{
	 "smiles": "CN(C)C1=NC(Cl)=CC=N1", 
	 "Tm": 353.15, 
	 "num_atms": 18, 
	 "gaussian": { 
		 "optdone": 1, 
		 "sigma_profile": "yes", 
		 "theory": "DFT", 
		 "functional": "B3LYP", 
		 "basiset": "6-31G**", 
		 "properties": { 
			 "R2extent": 3747.4615, 
			 "electric_dipole_moment_norm": 2.1020733051, 
			 "electric_quadrupole_moment_norm": 12.0279191226, 
			 "total_energy": -857.911715589, 
			 "HOMO_LUMO_gap": 0.18209, 
			 "cosmo_polarized_energy": -5.8, 
			 "cosmo_cavitation_energy": 23.35, 
			 "cosmo_dispersion_energy": -17.69, 
			 "cosmo_repulsion_energy": 1.45, 
			 "cosmo_total_nonelectrostatic_energy": 7.12, 
			 "SMD_solvation_energy": 2.2 
		},
		"coords": [
			{
				"x": -0.5211741942,
				"y": -2.6244969748,
				"z": -1.6633739545,
				"element": "C" 
			},
			{
				"x": -0.4771005088,
				"y": -1.3515653252,
				"z": -0.9625644293,
				"element": "N" 
			},
			{
				"x": 0.6159377327,
				"y": -0.4633816281,
				"z": -1.3229474937,
				"element": "C" 
			},
			{
				"x": -1.4039014418,
				"y": -1.0066292818,
				"z": -0.0230511652,
				"element": "C" 
			},
			{
				"x": -2.3856254498,
				"y": -1.9064425932,
				"z": 0.2414905739,
				"element": "N" 
			},
			{
				"x": -3.2680448294,
				"y": -1.5575545473,
				"z": 1.1477204629,
				"element": "C" 
			},
			{
				"x": -4.5449174456,
				"y": -2.7248385959,
				"z": 1.4935296526,
				"element": "Cl" 
			},
			{
				"x": -3.257786918,
				"y": -0.346368524,
				"z": 1.8390571057,
				"element": "C" 
			},
			{
				"x": -2.2062208553,
				"y": 0.4991805865,
				"z": 1.4874976245,
				"element": "C" 
			},
			{
				"x": -1.2828387004,
				"y": 0.1994783978,
				"z": 0.5767714241,
				"element": "N" 
			},
			{
				"x": -1.3742275583,
				"y": -3.2037533674,
				"z": -1.3185878726,
				"element": "H" 
			},
			{
				"x": -0.6079556878,
				"y": -2.4592044526,
				"z": -2.7452006453,
				"element": "H" 
			},
			{
				"x": 0.400817633,
				"y": -3.1912767429,
				"z": -1.4792482113,
				"element": "H" 
			},
			{
				"x": 0.5497683391,
				"y": 0.4503747838,
				"z": -0.7375153934,
				"element": "H" 
			},
			{
				"x": 0.5679224691,
				"y": -0.2159351645,
				"z": -2.3914958853,
				"element": "H" 
			},
			{
				"x": 1.5804601704,
				"y": -0.9510231921,
				"z": -1.1302847822,
				"element": "H" 
			},
			{
				"x": -4.0001989045,
				"y": -0.08806769,
				"z": 2.5810915936,
				"element": "H" 
			},
			{
				"x": -2.1043138504,
				"y": 1.4715043117,
				"z": 1.9678113956,
				"element": "H" 
			}
		],
		 "valence_orbital": [ 
			{
				"type": "occ",
				"energy": -0.31548,
				"method": "rhf"
			},
			{
				"type": "occ",
				"energy": -0.31183,
				"method": "rhf"
			},
			{
				"type": "occ",
				"energy": -0.28698,
				"method": "rhf"
			},
			{
				"type": "occ",
				"energy": -0.25378,
				"method": "rhf"
			},
			{
				"type": "occ",
				"energy": -0.21755,
				"method": "rhf"
			},
			{
				"type": "unocc",
				"energy": -0.03546,
				"method": "rhf"
			},
			{
				"type": "unocc",
				"energy": -0.00494,
				"method": "rhf"
			},
			{
				"type": "unocc",
				"energy": 0.03318,
				"method": "rhf"
			},
			{
				"type": "unocc",
				"energy": 0.09453,
				"method": "rhf"
			},
			{
				"type": "unocc",
				"energy": 0.12421,
				"method": "rhf"
			}
		],
		"cosmo_sigma_profile": { 
			"-0.025": 0.0,
			"-0.024": 0.0,
			"-0.023": 0.0,
			"-0.022": 0.0,
			"-0.021": 0.0,
			"-0.02": 0.0,
			"-0.019": 0.0,
			"-0.018": 0.0,
			"-0.017": 0.0,
			"-0.016": 0.0,
			"-0.015": 0.0,
			"-0.014": 0.0,
			"-0.013": 0.0,
			"-0.012": 0.0,
			"-0.011": 0.0,
			"-0.01": 0.0,
			"-0.009": 0.0,
			"-0.008": 1.70236086801,
			"-0.007": 4.88584059125,
			"-0.006": 3.83187576384,
			"-0.005": 8.85868026131,
			"-0.004": 16.0168556915,
			"-0.003": 16.0873444018,
			"-0.002": 21.7063010353,
			"-0.001": 18.6622851642,
			"0.0": 18.3667234393,
			"0.001": 19.1436479385,
			"0.002": 12.6863310161,
			"0.003": 10.6577738636,
			"0.004": 12.8049454814,
			"0.005": 6.71187984945,
			"0.006": 4.30357740578,
			"0.007": 3.86597865414,
			"0.008": 2.602614745,
			"0.009": 3.27179241936,
			"0.01": 1.86519443508,
			"0.011": 0.655522793982,
			"0.012": 0.0,
			"0.013": 0.0,
			"0.014": 0.0,
			"0.015": 0.0,
			"0.016": 0.0,
			"0.017": 0.0,
			"0.018": 0.0,
			"0.019": 0.0,
			"0.02": 0.0,
			"0.021": 0.0,
			"0.022": 0.0,
			"0.023": 0.0,
			"0.024": 0.0,
			"0.025": 0.0
		}
	}
}
