{
	 "smiles": "FC1=C(F)C(F)=C(OC(=O)OC2=C(F)C(F)=C(F)C(F)=C2F)C(F)=C1F", 
	 "Tm": 322.65, 
	 "num_atms": 26, 
	 "gaussian": { 
		 "optdone": 1, 
		 "sigma_profile": "yes", 
		 "theory": "DFT", 
		 "functional": "B3LYP", 
		 "basiset": "6-31G**", 
		 "properties": { 
			 "R2extent": 13249.8787, 
			 "electric_dipole_moment_norm": 0.942054886936, 
			 "electric_quadrupole_moment_norm": 4.01326239237, 
			 "total_energy": -1719.30005242, 
			 "HOMO_LUMO_gap": 0.22853, 
			 "cosmo_polarized_energy": -5.97, 
			 "cosmo_cavitation_energy": 40.45, 
			 "cosmo_dispersion_energy": -26.12, 
			 "cosmo_repulsion_energy": 1.76, 
			 "cosmo_total_nonelectrostatic_energy": 16.09, 
			 "SMD_solvation_energy": 13.33 
		},
		"coords": [
			{
				"x": 4.8127580616,
				"y": -2.5596269243,
				"z": -2.1732820545,
				"element": "F" 
			},
			{
				"x": 3.6514809439,
				"y": -2.3193713272,
				"z": -1.562755229,
				"element": "C" 
			},
			{
				"x": 3.4766981158,
				"y": -1.1378409178,
				"z": -0.8433261368,
				"element": "C" 
			},
			{
				"x": 4.4692918333,
				"y": -0.2479039156,
				"z": -0.7701196794,
				"element": "F" 
			},
			{
				"x": 2.2631946316,
				"y": -0.8901864848,
				"z": -0.2057540572,
				"element": "C" 
			},
			{
				"x": 2.0869524711,
				"y": 0.2440789085,
				"z": 0.4745039703,
				"element": "F" 
			},
			{
				"x": 1.2305541755,
				"y": -1.8228223169,
				"z": -0.2784294119,
				"element": "C" 
			},
			{
				"x": 0.0543259473,
				"y": -1.6093950642,
				"z": 0.4185214137,
				"element": "O" 
			},
			{
				"x": -0.9222420046,
				"y": -0.9562636668,
				"z": -0.261313969,
				"element": "C" 
			},
			{
				"x": -0.8723667188,
				"y": -0.5503130007,
				"z": -1.387004838,
				"element": "O" 
			},
			{
				"x": -1.9671174034,
				"y": -0.8588676061,
				"z": 0.5996128838,
				"element": "O" 
			},
			{
				"x": -3.0911026191,
				"y": -0.2181038746,
				"z": 0.1088077105,
				"element": "C" 
			},
			{
				"x": -4.0972605197,
				"y": -0.9540472665,
				"z": -0.5136892216,
				"element": "C" 
			},
			{
				"x": -3.940072252,
				"y": -2.2653550151,
				"z": -0.7037552908,
				"element": "F" 
			},
			{
				"x": -5.2641657215,
				"y": -0.3240785659,
				"z": -0.9401229812,
				"element": "C" 
			},
			{
				"x": -6.231687933,
				"y": -1.0286648186,
				"z": -1.5317831797,
				"element": "F" 
			},
			{
				"x": -5.4182121219,
				"y": 1.0485686657,
				"z": -0.7497392498,
				"element": "C" 
			},
			{
				"x": -6.5349742166,
				"y": 1.654250194,
				"z": -1.1559511895,
				"element": "F" 
			},
			{
				"x": -4.4096123689,
				"y": 1.7906203453,
				"z": -0.1363668154,
				"element": "C" 
			},
			{
				"x": -4.5611030343,
				"y": 3.1054382983,
				"z": 0.0394406143,
				"element": "F" 
			},
			{
				"x": -3.2449344334,
				"y": 1.1550997238,
				"z": 0.2879544553,
				"element": "C" 
			},
			{
				"x": -2.2720145484,
				"y": 1.8626157066,
				"z": 0.8651960344,
				"element": "F" 
			},
			{
				"x": 1.4060708059,
				"y": -2.99765338,
				"z": -1.0067362172,
				"element": "C" 
			},
			{
				"x": 0.4093128971,
				"y": -3.880474203,
				"z": -1.0931543874,
				"element": "F" 
			},
			{
				"x": 2.6172817526,
				"y": -3.2508027259,
				"z": -1.6464767997,
				"element": "C" 
			},
			{
				"x": 2.7891442599,
				"y": -4.3785007684,
				"z": -2.3402763741,
				"element": "F" 
			}
		],
		 "valence_orbital": [ 
			{
				"type": "occ",
				"energy": -0.33105,
				"method": "rhf"
			},
			{
				"type": "occ",
				"energy": -0.2803,
				"method": "rhf"
			},
			{
				"type": "occ",
				"energy": -0.27741,
				"method": "rhf"
			},
			{
				"type": "occ",
				"energy": -0.27183,
				"method": "rhf"
			},
			{
				"type": "occ",
				"energy": -0.27171,
				"method": "rhf"
			},
			{
				"type": "unocc",
				"energy": -0.04318,
				"method": "rhf"
			},
			{
				"type": "unocc",
				"energy": -0.03742,
				"method": "rhf"
			},
			{
				"type": "unocc",
				"energy": -0.03199,
				"method": "rhf"
			},
			{
				"type": "unocc",
				"energy": -0.0319,
				"method": "rhf"
			},
			{
				"type": "unocc",
				"energy": -0.01807,
				"method": "rhf"
			}
		],
		"cosmo_sigma_profile": { 
			"-0.025": 0.0,
			"-0.024": 0.0,
			"-0.023": 0.0,
			"-0.022": 0.0,
			"-0.021": 0.0,
			"-0.02": 0.0,
			"-0.019": 0.0,
			"-0.018": 0.0,
			"-0.017": 0.0,
			"-0.016": 0.0,
			"-0.015": 0.0,
			"-0.014": 0.0,
			"-0.013": 0.0,
			"-0.012": 0.0,
			"-0.011": 0.0,
			"-0.01": 0.0,
			"-0.009": 0.0,
			"-0.008": 0.00148392294266,
			"-0.007": 0.791078332257,
			"-0.006": 3.40308355059,
			"-0.005": 19.1957459318,
			"-0.004": 38.6419302241,
			"-0.003": 22.2119824811,
			"-0.002": 23.4749565536,
			"-0.001": 21.1920731168,
			"0.0": 24.3394036147,
			"0.001": 43.6590818468,
			"0.002": 99.911952088,
			"0.003": 14.6266546491,
			"0.004": 4.0473749862,
			"0.005": 5.11762940067,
			"0.006": 1.89186875649,
			"0.007": 1.4287283835,
			"0.008": 2.65976653394,
			"0.009": 3.9108617679,
			"0.01": 0.191286679431,
			"0.011": 0.0,
			"0.012": 0.0,
			"0.013": 0.0,
			"0.014": 0.0,
			"0.015": 0.0,
			"0.016": 0.0,
			"0.017": 0.0,
			"0.018": 0.0,
			"0.019": 0.0,
			"0.02": 0.0,
			"0.021": 0.0,
			"0.022": 0.0,
			"0.023": 0.0,
			"0.024": 0.0,
			"0.025": 0.0
		}
	}
}
