{
	 "smiles": "OC(=O)C1=CN=C2C=CC=CN12", 
	 "Tm": 469.15, 
	 "num_atms": 18, 
	 "gaussian": { 
		 "optdone": 1, 
		 "sigma_profile": "yes", 
		 "theory": "DFT", 
		 "functional": "B3LYP", 
		 "basiset": "6-31G**", 
		 "properties": { 
			 "R2extent": 2076.3578, 
			 "electric_dipole_moment_norm": 1.76177303022, 
			 "electric_quadrupole_moment_norm": 14.3029446367, 
			 "total_energy": -568.432713695, 
			 "HOMO_LUMO_gap": 0.17835, 
			 "cosmo_polarized_energy": -11.53, 
			 "cosmo_cavitation_energy": 22.79, 
			 "cosmo_dispersion_energy": -17.23, 
			 "cosmo_repulsion_energy": 1.34, 
			 "cosmo_total_nonelectrostatic_energy": 6.9, 
			 "SMD_solvation_energy": 3.65 
		},
		"coords": [
			{
				"x": -0.5164217824,
				"y": -3.0593243116,
				"z": -1.3666856557,
				"element": "O" 
			},
			{
				"x": 0.0964744689,
				"y": -1.8659557362,
				"z": -1.5734797126,
				"element": "C" 
			},
			{
				"x": 0.447604152,
				"y": -1.4980674489,
				"z": -2.6863266924,
				"element": "O" 
			},
			{
				"x": 0.2676563432,
				"y": -1.1241284993,
				"z": -0.3427649165,
				"element": "C" 
			},
			{
				"x": -0.0778433275,
				"y": -1.4147938323,
				"z": 0.9776836366,
				"element": "C" 
			},
			{
				"x": 0.2691758861,
				"y": -0.4320016455,
				"z": 1.829682449,
				"element": "N" 
			},
			{
				"x": 0.8459647484,
				"y": 0.5097621306,
				"z": 1.064834902,
				"element": "C" 
			},
			{
				"x": 1.3973264489,
				"y": 1.756166443,
				"z": 1.4248757507,
				"element": "C" 
			},
			{
				"x": 1.939622927,
				"y": 2.5599564283,
				"z": 0.4478310343,
				"element": "C" 
			},
			{
				"x": 1.9432493859,
				"y": 2.137662563,
				"z": -0.9075348171,
				"element": "C" 
			},
			{
				"x": 1.4088984038,
				"y": 0.9275608529,
				"z": -1.2631289415,
				"element": "C" 
			},
			{
				"x": 0.8699372649,
				"y": 0.1312692471,
				"z": -0.2838018319,
				"element": "N" 
			},
			{
				"x": -0.5831100845,
				"y": -3.4740716528,
				"z": -2.242150053,
				"element": "H" 
			},
			{
				"x": -0.5695968626,
				"y": -2.3171984319,
				"z": 1.3161523246,
				"element": "H" 
			},
			{
				"x": 1.374141661,
				"y": 2.0400475268,
				"z": 2.4702691826,
				"element": "H" 
			},
			{
				"x": 2.3675844907,
				"y": 3.5219724183,
				"z": 0.7102381949,
				"element": "H" 
			},
			{
				"x": 2.3689375709,
				"y": 2.7666033605,
				"z": -1.6808017171,
				"element": "H" 
			},
			{
				"x": 1.3687983053,
				"y": 0.5270405882,
				"z": -2.2665931369,
				"element": "H" 
			}
		],
		 "valence_orbital": [ 
			{
				"type": "occ",
				"energy": -0.3179,
				"method": "rhf"
			},
			{
				"type": "occ",
				"energy": -0.29045,
				"method": "rhf"
			},
			{
				"type": "occ",
				"energy": -0.27397,
				"method": "rhf"
			},
			{
				"type": "occ",
				"energy": -0.25836,
				"method": "rhf"
			},
			{
				"type": "occ",
				"energy": -0.2251,
				"method": "rhf"
			},
			{
				"type": "unocc",
				"energy": -0.04675,
				"method": "rhf"
			},
			{
				"type": "unocc",
				"energy": -0.03662,
				"method": "rhf"
			},
			{
				"type": "unocc",
				"energy": 0.02002,
				"method": "rhf"
			},
			{
				"type": "unocc",
				"energy": 0.07782,
				"method": "rhf"
			},
			{
				"type": "unocc",
				"energy": 0.08836,
				"method": "rhf"
			}
		],
		"cosmo_sigma_profile": { 
			"-0.025": 0.0,
			"-0.024": 0.0,
			"-0.023": 0.0,
			"-0.022": 0.0,
			"-0.021": 0.0,
			"-0.02": 0.0,
			"-0.019": 0.008525180816,
			"-0.018": 0.764812916387,
			"-0.017": 1.19682117902,
			"-0.016": 0.435842599738,
			"-0.015": 0.898537867826,
			"-0.014": 0.500874017536,
			"-0.013": 1.08848042494,
			"-0.012": 0.779866892293,
			"-0.011": 0.405554962657,
			"-0.01": 0.537268563661,
			"-0.009": 0.727928591747,
			"-0.008": 4.35255377701,
			"-0.007": 9.91122942997,
			"-0.006": 9.92731010392,
			"-0.005": 9.04443550115,
			"-0.004": 6.90238127543,
			"-0.003": 8.3443721437,
			"-0.002": 15.586628456,
			"-0.001": 16.6321985792,
			"0.0": 15.1781640906,
			"0.001": 17.8250593517,
			"0.002": 15.4760184212,
			"0.003": 7.86015158453,
			"0.004": 4.61973587078,
			"0.005": 4.69848022793,
			"0.006": 4.44636566336,
			"0.007": 3.76383296262,
			"0.008": 4.34891205646,
			"0.009": 2.5365471862,
			"0.01": 2.95483691667,
			"0.011": 3.78721633813,
			"0.012": 3.48114945831,
			"0.013": 1.4175339692,
			"0.014": 1.23825886804,
			"0.015": 0.541705880923,
			"0.016": 1.20949000684,
			"0.017": 0.516220653523,
			"0.018": 0.0,
			"0.019": 0.0,
			"0.02": 0.0,
			"0.021": 0.0,
			"0.022": 0.0,
			"0.023": 0.0,
			"0.024": 0.0,
			"0.025": 0.0
		}
	}
}
