{
	 "smiles": "COCCCC(N)=S", 
	 "Tm": 322.15, 
	 "num_atms": 19, 
	 "gaussian": { 
		 "optdone": 1, 
		 "sigma_profile": "yes", 
		 "theory": "DFT", 
		 "functional": "B3LYP", 
		 "basiset": "6-31G**", 
		 "properties": { 
			 "R2extent": 2777.8316, 
			 "electric_dipole_moment_norm": 6.78474999024, 
			 "electric_quadrupole_moment_norm": 26.7903912215, 
			 "total_energy": -725.324371502, 
			 "HOMO_LUMO_gap": 0.17613, 
			 "cosmo_polarized_energy": -14.13, 
			 "cosmo_cavitation_energy": 23.17, 
			 "cosmo_dispersion_energy": -17.44, 
			 "cosmo_repulsion_energy": 1.43, 
			 "cosmo_total_nonelectrostatic_energy": 7.16, 
			 "SMD_solvation_energy": 3.4 
		},
		"coords": [
			{
				"x": 2.5680383858,
				"y": 1.4208176963,
				"z": 0.7444552089,
				"element": "C" 
			},
			{
				"x": 1.5298746482,
				"y": 1.0072127571,
				"z": -0.1260793546,
				"element": "O" 
			},
			{
				"x": 0.2539226303,
				"y": 0.9480574821,
				"z": 0.5040077463,
				"element": "C" 
			},
			{
				"x": -0.8253234425,
				"y": 0.5711429453,
				"z": -0.5057684559,
				"element": "C" 
			},
			{
				"x": -1.1193425397,
				"y": 1.618991351,
				"z": -1.6118848562,
				"element": "C" 
			},
			{
				"x": -0.4319750474,
				"y": 1.3993903189,
				"z": -2.9555704759,
				"element": "C" 
			},
			{
				"x": 0.8859722738,
				"y": 1.1613100679,
				"z": -2.893653293,
				"element": "N" 
			},
			{
				"x": -1.2713285336,
				"y": 1.4827120761,
				"z": -4.3968630994,
				"element": "S" 
			},
			{
				"x": 2.6794687211,
				"y": 0.7261700665,
				"z": 1.5895208945,
				"element": "H" 
			},
			{
				"x": 3.4949654099,
				"y": 1.429052719,
				"z": 0.1670987104,
				"element": "H" 
			},
			{
				"x": 2.3831981086,
				"y": 2.429545093,
				"z": 1.142045021,
				"element": "H" 
			},
			{
				"x": 0.021097581,
				"y": 1.9250531306,
				"z": 0.9596933606,
				"element": "H" 
			},
			{
				"x": 0.2834546262,
				"y": 0.2045414106,
				"z": 1.3163778174,
				"element": "H" 
			},
			{
				"x": -0.5813601141,
				"y": -0.3990518601,
				"z": -0.9528153809,
				"element": "H" 
			},
			{
				"x": -1.743691993,
				"y": 0.4184245582,
				"z": 0.0726731635,
				"element": "H" 
			},
			{
				"x": -2.189457116,
				"y": 1.6517678777,
				"z": -1.8142125624,
				"element": "H" 
			},
			{
				"x": -0.8384946234,
				"y": 2.6200993205,
				"z": -1.2539135437,
				"element": "H" 
			},
			{
				"x": 1.3691582087,
				"y": 1.1108657909,
				"z": -1.9989797562,
				"element": "H" 
			},
			{
				"x": 1.387222816,
				"y": 1.0126971983,
				"z": -3.7571311445,
				"element": "H" 
			}
		],
		 "valence_orbital": [ 
			{
				"type": "occ",
				"energy": -0.33543,
				"method": "rhf"
			},
			{
				"type": "occ",
				"energy": -0.33401,
				"method": "rhf"
			},
			{
				"type": "occ",
				"energy": -0.28538,
				"method": "rhf"
			},
			{
				"type": "occ",
				"energy": -0.21492,
				"method": "rhf"
			},
			{
				"type": "occ",
				"energy": -0.19148,
				"method": "rhf"
			},
			{
				"type": "unocc",
				"energy": -0.01535,
				"method": "rhf"
			},
			{
				"type": "unocc",
				"energy": 0.06361,
				"method": "rhf"
			},
			{
				"type": "unocc",
				"energy": 0.08781,
				"method": "rhf"
			},
			{
				"type": "unocc",
				"energy": 0.10492,
				"method": "rhf"
			},
			{
				"type": "unocc",
				"energy": 0.11445,
				"method": "rhf"
			}
		],
		"cosmo_sigma_profile": { 
			"-0.025": 0.0,
			"-0.024": 0.0,
			"-0.023": 0.0,
			"-0.022": 0.0,
			"-0.021": 0.0,
			"-0.02": 0.0,
			"-0.019": 0.0,
			"-0.018": 0.0,
			"-0.017": 0.0,
			"-0.016": 0.0,
			"-0.015": 0.059610279998,
			"-0.014": 0.877126800024,
			"-0.013": 1.29761532063,
			"-0.012": 0.864872593017,
			"-0.011": 0.881445239516,
			"-0.01": 1.4940481153,
			"-0.009": 1.561071471,
			"-0.008": 0.733425777069,
			"-0.007": 1.11075831493,
			"-0.006": 3.3321344101,
			"-0.005": 11.2078102633,
			"-0.004": 29.6233079507,
			"-0.003": 26.2090407262,
			"-0.002": 22.029096154,
			"-0.001": 13.5838335491,
			"0.0": 6.75881372779,
			"0.001": 5.84750732339,
			"0.002": 4.82175067803,
			"0.003": 5.56928401452,
			"0.004": 4.20986624778,
			"0.005": 4.18805733071,
			"0.006": 4.41766890816,
			"0.007": 3.74266357339,
			"0.008": 4.64992668792,
			"0.009": 5.88111451615,
			"0.01": 7.04504140138,
			"0.011": 5.30749156923,
			"0.012": 3.58704132512,
			"0.013": 2.70984515555,
			"0.014": 0.144616535941,
			"0.015": 0.0,
			"0.016": 0.0,
			"0.017": 0.0,
			"0.018": 0.0,
			"0.019": 0.0,
			"0.02": 0.0,
			"0.021": 0.0,
			"0.022": 0.0,
			"0.023": 0.0,
			"0.024": 0.0,
			"0.025": 0.0
		}
	}
}
