{
	 "smiles": "NC(=O)C1=CC(Br)=CC=C1", 
	 "Tm": 428.15, 
	 "num_atms": 16, 
	 "gaussian": { 
		 "optdone": 1, 
		 "sigma_profile": "yes", 
		 "theory": "DFT", 
		 "functional": "B3LYP", 
		 "basiset": "6-31G**", 
		 "properties": { 
			 "R2extent": 3600.5735, 
			 "electric_dipole_moment_norm": 4.52898060716, 
			 "electric_quadrupole_moment_norm": 9.31955402635, 
			 "total_energy": -2971.7583728, 
			 "HOMO_LUMO_gap": 0.20174, 
			 "cosmo_polarized_energy": -13.19, 
			 "cosmo_cavitation_energy": 22.89, 
			 "cosmo_dispersion_energy": -17.42, 
			 "cosmo_repulsion_energy": 1.42, 
			 "cosmo_total_nonelectrostatic_energy": 6.89, 
			 "SMD_solvation_energy": 3.6 
		},
		"coords": [
			{
				"x": -1.2820503397,
				"y": -1.8325556889,
				"z": -2.0667033364,
				"element": "N" 
			},
			{
				"x": -0.5670608529,
				"y": -0.8205549575,
				"z": -1.4727012797,
				"element": "C" 
			},
			{
				"x": 0.5856966174,
				"y": -0.5654026875,
				"z": -1.7953148518,
				"element": "O" 
			},
			{
				"x": -1.2734949631,
				"y": -0.0590883441,
				"z": -0.3828433625,
				"element": "C" 
			},
			{
				"x": -0.7280244464,
				"y": 1.1804575251,
				"z": -0.0252490986,
				"element": "C" 
			},
			{
				"x": -1.3372191217,
				"y": 1.9326647698,
				"z": 0.9721255912,
				"element": "C" 
			},
			{
				"x": -0.6035080247,
				"y": 3.631897198,
				"z": 1.4490492578,
				"element": "Br" 
			},
			{
				"x": -2.4747733433,
				"y": 1.4719189297,
				"z": 1.6366110091,
				"element": "C" 
			},
			{
				"x": -3.0019870459,
				"y": 0.2275963121,
				"z": 1.2897838414,
				"element": "C" 
			},
			{
				"x": -2.4082476251,
				"y": -0.5372638236,
				"z": 0.2855889286,
				"element": "C" 
			},
			{
				"x": -2.2898309087,
				"y": -1.8255357054,
				"z": -2.0500003429,
				"element": "H" 
			},
			{
				"x": -0.8417148996,
				"y": -2.2560526201,
				"z": -2.8710068993,
				"element": "H" 
			},
			{
				"x": 0.1633229456,
				"y": 1.5255329674,
				"z": -0.5350571619,
				"element": "H" 
			},
			{
				"x": -2.9330240593,
				"y": 2.0724352052,
				"z": 2.4141062607,
				"element": "H" 
			},
			{
				"x": -3.8763004237,
				"y": -0.1472354957,
				"z": 1.8133829517,
				"element": "H" 
			},
			{
				"x": -2.8110835088,
				"y": -1.5182135846,
				"z": 0.0535284926,
				"element": "H" 
			}
		],
		 "valence_orbital": [ 
			{
				"type": "occ",
				"energy": -0.28962,
				"method": "rhf"
			},
			{
				"type": "occ",
				"energy": -0.2799,
				"method": "rhf"
			},
			{
				"type": "occ",
				"energy": -0.27151,
				"method": "rhf"
			},
			{
				"type": "occ",
				"energy": -0.25647,
				"method": "rhf"
			},
			{
				"type": "occ",
				"energy": -0.25018,
				"method": "rhf"
			},
			{
				"type": "unocc",
				"energy": -0.04844,
				"method": "rhf"
			},
			{
				"type": "unocc",
				"energy": -0.02265,
				"method": "rhf"
			},
			{
				"type": "unocc",
				"energy": 0.00429,
				"method": "rhf"
			},
			{
				"type": "unocc",
				"energy": 0.04877,
				"method": "rhf"
			},
			{
				"type": "unocc",
				"energy": 0.07233,
				"method": "rhf"
			}
		],
		"cosmo_sigma_profile": { 
			"-0.025": 0.0,
			"-0.024": 0.0,
			"-0.023": 0.0,
			"-0.022": 0.0,
			"-0.021": 0.0,
			"-0.02": 0.0,
			"-0.019": 0.0,
			"-0.018": 0.0,
			"-0.017": 0.0,
			"-0.016": 0.0,
			"-0.015": 0.410463830118,
			"-0.014": 1.59316396198,
			"-0.013": 2.61116083511,
			"-0.012": 2.48777276919,
			"-0.011": 2.41712021996,
			"-0.01": 2.84034571378,
			"-0.009": 2.67928957904,
			"-0.008": 3.04346043215,
			"-0.007": 6.8372726964,
			"-0.006": 7.82874877865,
			"-0.005": 8.13488195485,
			"-0.004": 7.89027997843,
			"-0.003": 8.6681935886,
			"-0.002": 9.60239983903,
			"-0.001": 10.2066262699,
			"0.0": 13.1161565379,
			"0.001": 16.5927953393,
			"0.002": 21.7619107734,
			"0.003": 17.3135585963,
			"0.004": 13.8905255506,
			"0.005": 6.2459562829,
			"0.006": 2.24470810127,
			"0.007": 1.74383451752,
			"0.008": 1.95502675323,
			"0.009": 1.55975643821,
			"0.01": 1.09115936733,
			"0.011": 1.84861536009,
			"0.012": 2.3856283513,
			"0.013": 5.07348273477,
			"0.014": 2.50396420628,
			"0.015": 0.0366973715488,
			"0.016": 0.0,
			"0.017": 0.0,
			"0.018": 0.0,
			"0.019": 0.0,
			"0.02": 0.0,
			"0.021": 0.0,
			"0.022": 0.0,
			"0.023": 0.0,
			"0.024": 0.0,
			"0.025": 0.0
		}
	}
}
