{
	 "smiles": "N#CC1=CC(CN2C=NC=N2)=CC=C1", 
	 "Tm": 364.65, 
	 "num_atms": 22, 
	 "gaussian": { 
		 "optdone": 1, 
		 "sigma_profile": "yes", 
		 "theory": "DFT", 
		 "functional": "B3LYP", 
		 "basiset": "6-31G**", 
		 "properties": { 
			 "R2extent": 3607.7357, 
			 "electric_dipole_moment_norm": 2.43986454337, 
			 "electric_quadrupole_moment_norm": 25.7454541166, 
			 "total_energy": -604.856371608, 
			 "HOMO_LUMO_gap": 0.20923, 
			 "cosmo_polarized_energy": -16.45, 
			 "cosmo_cavitation_energy": 28.22, 
			 "cosmo_dispersion_energy": -19.62, 
			 "cosmo_repulsion_energy": 1.53, 
			 "cosmo_total_nonelectrostatic_energy": 10.13, 
			 "SMD_solvation_energy": 4.34 
		},
		"coords": [
			{
				"x": -4.9123922808,
				"y": -1.4588451851,
				"z": 2.8212045334,
				"element": "N" 
			},
			{
				"x": -4.1786295196,
				"y": -1.0701835832,
				"z": 2.0065970739,
				"element": "C" 
			},
			{
				"x": -3.2708079315,
				"y": -0.5934550308,
				"z": 1.003368205,
				"element": "C" 
			},
			{
				"x": -1.927626554,
				"y": -1.0076618136,
				"z": 1.0248715319,
				"element": "C" 
			},
			{
				"x": -1.0351512726,
				"y": -0.5525996582,
				"z": 0.0552254619,
				"element": "C" 
			},
			{
				"x": 0.4070122287,
				"y": -1.0309634345,
				"z": 0.0660596979,
				"element": "C" 
			},
			{
				"x": 1.3847641829,
				"y": 0.0497247668,
				"z": 0.0163243169,
				"element": "N" 
			},
			{
				"x": 2.0026581506,
				"y": 0.7055680286,
				"z": 1.0261274854,
				"element": "C" 
			},
			{
				"x": 2.7765960806,
				"y": 1.6661462706,
				"z": 0.5504356644,
				"element": "N" 
			},
			{
				"x": 2.584294031,
				"y": 1.559529236,
				"z": -0.7934335375,
				"element": "C" 
			},
			{
				"x": 1.7520045695,
				"y": 0.5987471022,
				"z": -1.1727568318,
				"element": "N" 
			},
			{
				"x": -1.49065627,
				"y": 0.325567174,
				"z": -0.939160582,
				"element": "C" 
			},
			{
				"x": -2.821261523,
				"y": 0.7420879982,
				"z": -0.9576825665,
				"element": "C" 
			},
			{
				"x": -3.7184831511,
				"y": 0.2871395867,
				"z": 0.0069866041,
				"element": "C" 
			},
			{
				"x": -1.595359631,
				"y": -1.6863241434,
				"z": 1.8048714035,
				"element": "H" 
			},
			{
				"x": 0.6049602676,
				"y": -1.6185511336,
				"z": 0.9663974375,
				"element": "H" 
			},
			{
				"x": 0.608612594,
				"y": -1.6691369479,
				"z": -0.7990821835,
				"element": "H" 
			},
			{
				"x": 1.8660947186,
				"y": 0.4470255763,
				"z": 2.0674183404,
				"element": "H" 
			},
			{
				"x": 3.0751211015,
				"y": 2.1992819388,
				"z": -1.5139221895,
				"element": "H" 
			},
			{
				"x": -0.791649835,
				"y": 0.6844158984,
				"z": -1.6884328396,
				"element": "H" 
			},
			{
				"x": -3.1625673147,
				"y": 1.4241382127,
				"z": -1.7301006455,
				"element": "H" 
			},
			{
				"x": -4.7552326416,
				"y": 0.6058491409,
				"z": -0.0025163804,
				"element": "H" 
			}
		],
		 "valence_orbital": [ 
			{
				"type": "occ",
				"energy": -0.29877,
				"method": "rhf"
			},
			{
				"type": "occ",
				"energy": -0.28703,
				"method": "rhf"
			},
			{
				"type": "occ",
				"energy": -0.28153,
				"method": "rhf"
			},
			{
				"type": "occ",
				"energy": -0.27534,
				"method": "rhf"
			},
			{
				"type": "occ",
				"energy": -0.27085,
				"method": "rhf"
			},
			{
				"type": "unocc",
				"energy": -0.06162,
				"method": "rhf"
			},
			{
				"type": "unocc",
				"energy": -0.03588,
				"method": "rhf"
			},
			{
				"type": "unocc",
				"energy": -0.00436,
				"method": "rhf"
			},
			{
				"type": "unocc",
				"energy": 0.0301,
				"method": "rhf"
			},
			{
				"type": "unocc",
				"energy": 0.04333,
				"method": "rhf"
			}
		],
		"cosmo_sigma_profile": { 
			"-0.025": 0.0,
			"-0.024": 0.0,
			"-0.023": 0.0,
			"-0.022": 0.0,
			"-0.021": 0.0,
			"-0.02": 0.0,
			"-0.019": 0.0,
			"-0.018": 0.0,
			"-0.017": 0.0,
			"-0.016": 0.0,
			"-0.015": 0.0,
			"-0.014": 0.0,
			"-0.013": 0.0,
			"-0.012": 0.0,
			"-0.011": 1.21546768872,
			"-0.01": 3.81591425372,
			"-0.009": 5.58238554794,
			"-0.008": 10.9521572075,
			"-0.007": 12.8830082101,
			"-0.006": 14.3283891324,
			"-0.005": 13.6993094205,
			"-0.004": 10.2878263083,
			"-0.003": 11.7758092046,
			"-0.002": 12.9274870338,
			"-0.001": 16.7987739496,
			"0.0": 16.3575519966,
			"0.001": 16.894625257,
			"0.002": 17.3409173278,
			"0.003": 9.61863471602,
			"0.004": 5.59239908421,
			"0.005": 6.00818473393,
			"0.006": 4.4114635014,
			"0.007": 4.89815869667,
			"0.008": 5.87960318694,
			"0.009": 5.83419091636,
			"0.01": 5.44094102139,
			"0.011": 4.62588582061,
			"0.012": 4.41194122098,
			"0.013": 2.59969159909,
			"0.014": 2.04916596528,
			"0.015": 1.10108796319,
			"0.016": 0.870389790825,
			"0.017": 0.330871314653,
			"0.018": 0.0,
			"0.019": 0.0,
			"0.02": 0.0,
			"0.021": 0.0,
			"0.022": 0.0,
			"0.023": 0.0,
			"0.024": 0.0,
			"0.025": 0.0
		}
	}
}
