{
	 "smiles": "BrC1=CC2=C(OC3=C2C=CC=C3)C=C1", 
	 "Tm": 383.15, 
	 "num_atms": 21, 
	 "gaussian": { 
		 "optdone": 1, 
		 "sigma_profile": "yes", 
		 "theory": "DFT", 
		 "functional": "B3LYP", 
		 "basiset": "6-31G**", 
		 "properties": { 
			 "R2extent": 7704.3548, 
			 "electric_dipole_moment_norm": 1.79702808826, 
			 "electric_quadrupole_moment_norm": 10.3582595541, 
			 "total_energy": -3108.13178846, 
			 "HOMO_LUMO_gap": 0.18155, 
			 "cosmo_polarized_energy": -5.49, 
			 "cosmo_cavitation_energy": 27.73, 
			 "cosmo_dispersion_energy": -21.24, 
			 "cosmo_repulsion_energy": 1.63, 
			 "cosmo_total_nonelectrostatic_energy": 8.12, 
			 "SMD_solvation_energy": 3.49 
		},
		"coords": [
			{
				"x": -0.0553318475,
				"y": -2.8543280389,
				"z": 5.4346502128,
				"element": "Br" 
			},
			{
				"x": -0.066691434,
				"y": -2.137704476,
				"z": 3.6592595436,
				"element": "C" 
			},
			{
				"x": -0.8472045923,
				"y": -1.0178251594,
				"z": 3.3882034527,
				"element": "C" 
			},
			{
				"x": -0.8348277814,
				"y": -0.5171680802,
				"z": 2.0818473285,
				"element": "C" 
			},
			{
				"x": -0.0455637617,
				"y": -1.1547928259,
				"z": 1.1050960966,
				"element": "C" 
			},
			{
				"x": -0.150970848,
				"y": -0.5346515573,
				"z": -0.1168026079,
				"element": "O" 
			},
			{
				"x": -1.0189800618,
				"y": 0.5189298394,
				"z": 0.0665901331,
				"element": "C" 
			},
			{
				"x": -1.4783213292,
				"y": 0.5889186924,
				"z": 1.3960933691,
				"element": "C" 
			},
			{
				"x": -2.3712853671,
				"y": 1.6053122693,
				"z": 1.7549938632,
				"element": "C" 
			},
			{
				"x": -2.7735775438,
				"y": 2.5137164957,
				"z": 0.7777726228,
				"element": "C" 
			},
			{
				"x": -2.2977922037,
				"y": 2.4182923082,
				"z": -0.5412470765,
				"element": "C" 
			},
			{
				"x": -1.4069220123,
				"y": 1.4131244174,
				"z": -0.9216700232,
				"element": "C" 
			},
			{
				"x": 0.7339243157,
				"y": -2.2716139432,
				"z": 1.3715220029,
				"element": "C" 
			},
			{
				"x": 0.7153208012,
				"y": -2.7639378597,
				"z": 2.6771708219,
				"element": "C" 
			},
			{
				"x": -1.4411814895,
				"y": -0.5556776923,
				"z": 4.1681919543,
				"element": "H" 
			},
			{
				"x": -2.7431058861,
				"y": 1.6852892883,
				"z": 2.7721005802,
				"element": "H" 
			},
			{
				"x": -3.4656712832,
				"y": 3.308875489,
				"z": 1.0372621696,
				"element": "H" 
			},
			{
				"x": -2.6289709887,
				"y": 3.14060024,
				"z": -1.2811773605,
				"element": "H" 
			},
			{
				"x": -1.0315966198,
				"y": 1.3272368416,
				"z": -1.9353738336,
				"element": "H" 
			},
			{
				"x": 1.3312281011,
				"y": -2.740492744,
				"z": 0.5975832756,
				"element": "H" 
			},
			{
				"x": 1.3062218322,
				"y": -3.6339035044,
				"z": 2.9382334747,
				"element": "H" 
			}
		],
		 "valence_orbital": [ 
			{
				"type": "occ",
				"energy": -0.29212,
				"method": "rhf"
			},
			{
				"type": "occ",
				"energy": -0.28676,
				"method": "rhf"
			},
			{
				"type": "occ",
				"energy": -0.25971,
				"method": "rhf"
			},
			{
				"type": "occ",
				"energy": -0.23286,
				"method": "rhf"
			},
			{
				"type": "occ",
				"energy": -0.22687,
				"method": "rhf"
			},
			{
				"type": "unocc",
				"energy": -0.04532,
				"method": "rhf"
			},
			{
				"type": "unocc",
				"energy": -0.0099,
				"method": "rhf"
			},
			{
				"type": "unocc",
				"energy": 0.00403,
				"method": "rhf"
			},
			{
				"type": "unocc",
				"energy": 0.00648,
				"method": "rhf"
			},
			{
				"type": "unocc",
				"energy": 0.02604,
				"method": "rhf"
			}
		],
		"cosmo_sigma_profile": { 
			"-0.025": 0.0,
			"-0.024": 0.0,
			"-0.023": 0.0,
			"-0.022": 0.0,
			"-0.021": 0.0,
			"-0.02": 0.0,
			"-0.019": 0.0,
			"-0.018": 0.0,
			"-0.017": 0.0,
			"-0.016": 0.0,
			"-0.015": 0.0,
			"-0.014": 0.0,
			"-0.013": 0.0,
			"-0.012": 0.0,
			"-0.011": 0.0,
			"-0.01": 0.0,
			"-0.009": 0.0,
			"-0.008": 1.92196710415,
			"-0.007": 8.76928551458,
			"-0.006": 14.7245799756,
			"-0.005": 13.0528289696,
			"-0.004": 13.9311453535,
			"-0.003": 12.0657670074,
			"-0.002": 11.9764972588,
			"-0.001": 13.244513071,
			"0.0": 15.9335452962,
			"0.001": 23.8134781077,
			"0.002": 30.2793678663,
			"0.003": 27.2678097349,
			"0.004": 21.360585688,
			"0.005": 14.6832207717,
			"0.006": 1.74149092469,
			"0.007": 1.34348112293,
			"0.008": 1.18487718475,
			"0.009": 0.28455835709,
			"0.01": 0.0,
			"0.011": 0.0,
			"0.012": 0.0,
			"0.013": 0.0,
			"0.014": 0.0,
			"0.015": 0.0,
			"0.016": 0.0,
			"0.017": 0.0,
			"0.018": 0.0,
			"0.019": 0.0,
			"0.02": 0.0,
			"0.021": 0.0,
			"0.022": 0.0,
			"0.023": 0.0,
			"0.024": 0.0,
			"0.025": 0.0
		}
	}
}
