{
	 "smiles": "CCOC1=CC2=C(C=C1)C(=O)NC2=O", 
	 "Tm": 433.15, 
	 "num_atms": 23, 
	 "gaussian": { 
		 "optdone": 1, 
		 "sigma_profile": "yes", 
		 "theory": "DFT", 
		 "functional": "B3LYP", 
		 "basiset": "6-31G**", 
		 "properties": { 
			 "R2extent": 4567.4077, 
			 "electric_dipole_moment_norm": 4.67467987032, 
			 "electric_quadrupole_moment_norm": 6.90030363825, 
			 "total_energy": -666.939029033, 
			 "HOMO_LUMO_gap": 0.16864, 
			 "cosmo_polarized_energy": -13.26, 
			 "cosmo_cavitation_energy": 28.11, 
			 "cosmo_dispersion_energy": -20.71, 
			 "cosmo_repulsion_energy": 1.64, 
			 "cosmo_total_nonelectrostatic_energy": 9.05, 
			 "SMD_solvation_energy": 6.54 
		},
		"coords": [
			{
				"x": 1.9011583141,
				"y": 1.5677413853,
				"z": -2.320379573,
				"element": "C" 
			},
			{
				"x": 1.0219331699,
				"y": 1.5050522293,
				"z": -1.0844930894,
				"element": "C" 
			},
			{
				"x": 0.9271610131,
				"y": 0.1309090027,
				"z": -0.6943982967,
				"element": "O" 
			},
			{
				"x": 0.1913059714,
				"y": -0.2048008714,
				"z": 0.3936529996,
				"element": "C" 
			},
			{
				"x": 0.1606965981,
				"y": -1.5829565468,
				"z": 0.6956604215,
				"element": "C" 
			},
			{
				"x": -0.5740427901,
				"y": -1.9796730897,
				"z": 1.793689481,
				"element": "C" 
			},
			{
				"x": -1.27184655,
				"y": -1.0654569533,
				"z": 2.5935312003,
				"element": "C" 
			},
			{
				"x": -1.2460425086,
				"y": 0.2892980762,
				"z": 2.302628349,
				"element": "C" 
			},
			{
				"x": -0.507811496,
				"y": 0.7194687663,
				"z": 1.1934522045,
				"element": "C" 
			},
			{
				"x": -1.9548730215,
				"y": -1.8105950172,
				"z": 3.6850004735,
				"element": "C" 
			},
			{
				"x": -2.6570609294,
				"y": -1.3984792308,
				"z": 4.5853175046,
				"element": "O" 
			},
			{
				"x": -1.6144639567,
				"y": -3.1585256642,
				"z": 3.4646724703,
				"element": "N" 
			},
			{
				"x": -0.7880819988,
				"y": -3.3537335852,
				"z": 2.3503695465,
				"element": "C" 
			},
			{
				"x": -0.3603515661,
				"y": -4.4179668082,
				"z": 1.9549954341,
				"element": "O" 
			},
			{
				"x": 2.0016749623,
				"y": 2.6046088119,
				"z": -2.6550307622,
				"element": "H" 
			},
			{
				"x": 2.8981160505,
				"y": 1.174108796,
				"z": -2.1048804574,
				"element": "H" 
			},
			{
				"x": 1.4657926071,
				"y": 0.9809296969,
				"z": -3.1336582931,
				"element": "H" 
			},
			{
				"x": 0.0183604376,
				"y": 1.8998836209,
				"z": -1.2941313095,
				"element": "H" 
			},
			{
				"x": 1.4535506383,
				"y": 2.0935225113,
				"z": -0.2632671293,
				"element": "H" 
			},
			{
				"x": 0.7021841748,
				"y": -2.2873593747,
				"z": 0.074018407,
				"element": "H" 
			},
			{
				"x": -1.7852867944,
				"y": 1.0010201236,
				"z": 2.9197848189,
				"element": "H" 
			},
			{
				"x": -0.4798596528,
				"y": 1.7756061636,
				"z": 0.9557730306,
				"element": "H" 
			},
			{
				"x": -1.9358126728,
				"y": -3.9133020425,
				"z": 4.0541925692,
				"element": "H" 
			}
		],
		 "valence_orbital": [ 
			{
				"type": "occ",
				"energy": -0.28791,
				"method": "rhf"
			},
			{
				"type": "occ",
				"energy": -0.28694,
				"method": "rhf"
			},
			{
				"type": "occ",
				"energy": -0.27586,
				"method": "rhf"
			},
			{
				"type": "occ",
				"energy": -0.26177,
				"method": "rhf"
			},
			{
				"type": "occ",
				"energy": -0.2421,
				"method": "rhf"
			},
			{
				"type": "unocc",
				"energy": -0.07346,
				"method": "rhf"
			},
			{
				"type": "unocc",
				"energy": -0.0369,
				"method": "rhf"
			},
			{
				"type": "unocc",
				"energy": 0.04052,
				"method": "rhf"
			},
			{
				"type": "unocc",
				"energy": 0.08252,
				"method": "rhf"
			},
			{
				"type": "unocc",
				"energy": 0.08254,
				"method": "rhf"
			}
		],
		"cosmo_sigma_profile": { 
			"-0.025": 0.0,
			"-0.024": 0.0,
			"-0.023": 0.0,
			"-0.022": 0.0,
			"-0.021": 0.0,
			"-0.02": 0.0,
			"-0.019": 0.0,
			"-0.018": 0.0,
			"-0.017": 0.13778060947,
			"-0.016": 1.24714698365,
			"-0.015": 1.1428429782,
			"-0.014": 0.853639619135,
			"-0.013": 0.685748943871,
			"-0.012": 0.755938374566,
			"-0.011": 1.01434736876,
			"-0.01": 1.10889239807,
			"-0.009": 0.550871439032,
			"-0.008": 2.30426127091,
			"-0.007": 6.50480855165,
			"-0.006": 9.45327339113,
			"-0.005": 14.1903981555,
			"-0.004": 19.6772016737,
			"-0.003": 19.7708323687,
			"-0.002": 18.7104187059,
			"-0.001": 19.5773822376,
			"0.0": 19.4558972981,
			"0.001": 19.6204979699,
			"0.002": 14.1890257516,
			"0.003": 6.07476569831,
			"0.004": 4.07202512996,
			"0.005": 4.46013093927,
			"0.006": 4.43714529013,
			"0.007": 3.27557841261,
			"0.008": 4.14962731446,
			"0.009": 4.6447473999,
			"0.01": 4.69418636231,
			"0.011": 10.2703693733,
			"0.012": 6.89815808655,
			"0.013": 0.466349736764,
			"0.014": 0.0,
			"0.015": 0.0,
			"0.016": 0.0,
			"0.017": 0.0,
			"0.018": 0.0,
			"0.019": 0.0,
			"0.02": 0.0,
			"0.021": 0.0,
			"0.022": 0.0,
			"0.023": 0.0,
			"0.024": 0.0,
			"0.025": 0.0
		}
	}
}
