{
	 "smiles": "COC1=CC=C(C=C1O)C(C)=O", 
	 "Tm": 362.65, 
	 "num_atms": 22, 
	 "gaussian": { 
		 "optdone": 1, 
		 "sigma_profile": "yes", 
		 "theory": "DFT", 
		 "functional": "B3LYP", 
		 "basiset": "6-31G**", 
		 "properties": { 
			 "R2extent": 2515.9524, 
			 "electric_dipole_moment_norm": 6.01531217311, 
			 "electric_quadrupole_moment_norm": 8.69096356626, 
			 "total_energy": -574.645732407, 
			 "HOMO_LUMO_gap": 0.17335, 
			 "cosmo_polarized_energy": -13.19, 
			 "cosmo_cavitation_energy": 25.97, 
			 "cosmo_dispersion_energy": -19.2, 
			 "cosmo_repulsion_energy": 1.52, 
			 "cosmo_total_nonelectrostatic_energy": 8.3, 
			 "SMD_solvation_energy": 6.29 
		},
		"coords": [
			{
				"x": -2.6447532107,
				"y": 1.8769629163,
				"z": -1.7274063082,
				"element": "C" 
			},
			{
				"x": -2.4519405921,
				"y": 0.6330585872,
				"z": -1.0672368863,
				"element": "O" 
			},
			{
				"x": -1.2289696462,
				"y": 0.3724374263,
				"z": -0.5096071432,
				"element": "C" 
			},
			{
				"x": -0.1249921133,
				"y": 1.2217985667,
				"z": -0.5221064449,
				"element": "C" 
			},
			{
				"x": 1.0642231204,
				"y": 0.8173408037,
				"z": 0.0919820063,
				"element": "C" 
			},
			{
				"x": 1.1531364459,
				"y": -0.4314945834,
				"z": 0.7175849625,
				"element": "C" 
			},
			{
				"x": 0.0324114995,
				"y": -1.2819671828,
				"z": 0.724742748,
				"element": "C" 
			},
			{
				"x": -1.1503857288,
				"y": -0.8919155194,
				"z": 0.1197309828,
				"element": "C" 
			},
			{
				"x": -2.2334776335,
				"y": -1.7149186612,
				"z": 0.1271720051,
				"element": "O" 
			},
			{
				"x": 2.3990563064,
				"y": -0.9139465418,
				"z": 1.3889710034,
				"element": "C" 
			},
			{
				"x": 3.6258022036,
				"y": -0.0138269776,
				"z": 1.3955440006,
				"element": "C" 
			},
			{
				"x": 2.438146258,
				"y": -2.0122824692,
				"z": 1.9249492265,
				"element": "O" 
			},
			{
				"x": -2.5054955875,
				"y": 2.7184417882,
				"z": -1.0379868375,
				"element": "H" 
			},
			{
				"x": -3.6732905241,
				"y": 1.8721297,
				"z": -2.0900336086,
				"element": "H" 
			},
			{
				"x": -1.9595461443,
				"y": 1.9864178878,
				"z": -2.5766870302,
				"element": "H" 
			},
			{
				"x": -0.1811500733,
				"y": 2.1914507066,
				"z": -1.0031370888,
				"element": "H" 
			},
			{
				"x": 1.9152228251,
				"y": 1.4891074651,
				"z": 0.074217625,
				"element": "H" 
			},
			{
				"x": 0.1015942119,
				"y": -2.2491581655,
				"z": 1.2094207904,
				"element": "H" 
			},
			{
				"x": -2.9468027628,
				"y": -1.257211441,
				"z": -0.3434498906,
				"element": "H" 
			},
			{
				"x": 4.4292424878,
				"y": -0.5270911262,
				"z": 1.9244660775,
				"element": "H" 
			},
			{
				"x": 3.9517719551,
				"y": 0.2162650922,
				"z": 0.3752159715,
				"element": "H" 
			},
			{
				"x": 3.4135967027,
				"y": 0.9386017281,
				"z": 1.8936538385,
				"element": "H" 
			}
		],
		 "valence_orbital": [ 
			{
				"type": "occ",
				"energy": -0.34417,
				"method": "rhf"
			},
			{
				"type": "occ",
				"energy": -0.32104,
				"method": "rhf"
			},
			{
				"type": "occ",
				"energy": -0.24491,
				"method": "rhf"
			},
			{
				"type": "occ",
				"energy": -0.23972,
				"method": "rhf"
			},
			{
				"type": "occ",
				"energy": -0.21676,
				"method": "rhf"
			},
			{
				"type": "unocc",
				"energy": -0.04341,
				"method": "rhf"
			},
			{
				"type": "unocc",
				"energy": 0.00208,
				"method": "rhf"
			},
			{
				"type": "unocc",
				"energy": 0.05556,
				"method": "rhf"
			},
			{
				"type": "unocc",
				"energy": 0.07112,
				"method": "rhf"
			},
			{
				"type": "unocc",
				"energy": 0.08515,
				"method": "rhf"
			}
		],
		"cosmo_sigma_profile": { 
			"-0.025": 0.0,
			"-0.024": 0.0,
			"-0.023": 0.0,
			"-0.022": 0.0,
			"-0.021": 0.0,
			"-0.02": 0.0,
			"-0.019": 0.0,
			"-0.018": 0.0,
			"-0.017": 0.0,
			"-0.016": 0.0,
			"-0.015": 0.0562852519021,
			"-0.014": 0.455942835097,
			"-0.013": 0.727188465637,
			"-0.012": 0.374981430253,
			"-0.011": 0.845441477176,
			"-0.01": 0.477014575068,
			"-0.009": 0.730179018848,
			"-0.008": 0.827474724883,
			"-0.007": 4.08960483973,
			"-0.006": 17.2072224794,
			"-0.005": 19.6301467303,
			"-0.004": 19.4568926601,
			"-0.003": 15.8617828881,
			"-0.002": 12.9344183803,
			"-0.001": 12.9222800407,
			"0.0": 12.7366103941,
			"0.001": 12.3076048508,
			"0.002": 10.920299156,
			"0.003": 16.0809325923,
			"0.004": 14.3507034005,
			"0.005": 4.7799321614,
			"0.006": 3.05204141804,
			"0.007": 3.39719364,
			"0.008": 2.88883871135,
			"0.009": 3.3413872026,
			"0.01": 3.30326758062,
			"0.011": 4.92401464638,
			"0.012": 4.36237325454,
			"0.013": 2.73069123578,
			"0.014": 0.467179487194,
			"0.015": 0.0,
			"0.016": 0.0,
			"0.017": 0.0,
			"0.018": 0.0,
			"0.019": 0.0,
			"0.02": 0.0,
			"0.021": 0.0,
			"0.022": 0.0,
			"0.023": 0.0,
			"0.024": 0.0,
			"0.025": 0.0
		}
	}
}
