{
	 "smiles": "CC=C1/CC(C)C(O)(CO)C(=O)OCC2=CCN3CCC(OC1=O)C23", 
	 "Tm": 485.15, 
	 "num_atms": 50, 
	 "gaussian": { 
		 "optdone": 1, 
		 "sigma_profile": "yes", 
		 "theory": "DFT", 
		 "functional": "B3LYP", 
		 "basiset": "6-31G**", 
		 "properties": { 
			 "R2extent": 8671.3731, 
			 "electric_dipole_moment_norm": 3.31574177674, 
			 "electric_quadrupole_moment_norm": 23.0481558236, 
			 "total_energy": -1207.0302307, 
			 "HOMO_LUMO_gap": 0.17302, 
			 "cosmo_polarized_energy": -20.45, 
			 "cosmo_cavitation_energy": 48.13, 
			 "cosmo_dispersion_energy": -32.53, 
			 "cosmo_repulsion_energy": 2.45, 
			 "cosmo_total_nonelectrostatic_energy": 18.04, 
			 "SMD_solvation_energy": 6.15 
		},
		"coords": [
			{
				"x": -2.9610280733,
				"y": 2.5364568656,
				"z": 3.3435544259,
				"element": "C" 
			},
			{
				"x": -1.5907417336,
				"y": 2.3218898329,
				"z": 2.7820938719,
				"element": "C" 
			},
			{
				"x": -1.2363562198,
				"y": 1.5888402862,
				"z": 1.7104911875,
				"element": "C" 
			},
			{
				"x": -2.1614935552,
				"y": 0.779911047,
				"z": 0.8249456794,
				"element": "C" 
			},
			{
				"x": -1.9682874671,
				"y": -0.7481275503,
				"z": 1.0510887887,
				"element": "C" 
			},
			{
				"x": -2.6372928387,
				"y": -1.2049876441,
				"z": 2.3548603885,
				"element": "C" 
			},
			{
				"x": -2.3727264335,
				"y": -1.6767323781,
				"z": -0.1649898006,
				"element": "C" 
			},
			{
				"x": -3.4440687576,
				"y": -2.504955065,
				"z": 0.2282833312,
				"element": "O" 
			},
			{
				"x": -2.7860607804,
				"y": -0.9401901614,
				"z": -1.4502912041,
				"element": "C" 
			},
			{
				"x": -3.1399442179,
				"y": -1.9738681941,
				"z": -2.3703588295,
				"element": "O" 
			},
			{
				"x": -1.1246706103,
				"y": -2.5429473384,
				"z": -0.4593612099,
				"element": "C" 
			},
			{
				"x": -0.9844214521,
				"y": -3.70639417,
				"z": -0.1678041424,
				"element": "O" 
			},
			{
				"x": -0.15348445,
				"y": -1.7778869458,
				"z": -1.0157787929,
				"element": "O" 
			},
			{
				"x": 1.1797763039,
				"y": -2.3273048613,
				"z": -1.0280576201,
				"element": "C" 
			},
			{
				"x": 2.0889237486,
				"y": -1.3223247386,
				"z": -1.6696050129,
				"element": "C" 
			},
			{
				"x": 3.1903992163,
				"y": -1.5934891213,
				"z": -2.3747479543,
				"element": "C" 
			},
			{
				"x": 3.8678656272,
				"y": -0.3367033791,
				"z": -2.8547888814,
				"element": "C" 
			},
			{
				"x": 3.0167521926,
				"y": 0.7498444318,
				"z": -2.3532947381,
				"element": "N" 
			},
			{
				"x": 3.6666058688,
				"y": 1.7674893916,
				"z": -1.5186507178,
				"element": "C" 
			},
			{
				"x": 2.5685581211,
				"y": 2.2184855414,
				"z": -0.5516683221,
				"element": "C" 
			},
			{
				"x": 1.8350865713,
				"y": 0.9040627844,
				"z": -0.2562147851,
				"element": "C" 
			},
			{
				"x": 0.4630219409,
				"y": 1.0679309563,
				"z": 0.1507495852,
				"element": "O" 
			},
			{
				"x": 0.2306024118,
				"y": 1.5706101562,
				"z": 1.3909896836,
				"element": "C" 
			},
			{
				"x": 1.1208823995,
				"y": 1.9532392042,
				"z": 2.1266978137,
				"element": "O" 
			},
			{
				"x": 1.8579487698,
				"y": 0.1777064917,
				"z": -1.6224348108,
				"element": "C" 
			},
			{
				"x": -3.7445852159,
				"y": 2.0095334469,
				"z": 2.796140081,
				"element": "H" 
			},
			{
				"x": -3.2059166304,
				"y": 3.6062653783,
				"z": 3.352008458,
				"element": "H" 
			},
			{
				"x": -2.9968732825,
				"y": 2.2059692399,
				"z": 4.3893491955,
				"element": "H" 
			},
			{
				"x": -0.7786243021,
				"y": 2.8239447411,
				"z": 3.305410292,
				"element": "H" 
			},
			{
				"x": -1.9366939916,
				"y": 1.0436292721,
				"z": -0.2103082534,
				"element": "H" 
			},
			{
				"x": -3.2046222127,
				"y": 1.0547562418,
				"z": 1.0088078816,
				"element": "H" 
			},
			{
				"x": -0.8910134844,
				"y": -0.8833058475,
				"z": 1.1801386751,
				"element": "H" 
			},
			{
				"x": -2.4230068017,
				"y": -2.255625237,
				"z": 2.5611411167,
				"element": "H" 
			},
			{
				"x": -3.7236460368,
				"y": -1.0957747883,
				"z": 2.3044192456,
				"element": "H" 
			},
			{
				"x": -2.26040848,
				"y": -0.6035865734,
				"z": 3.187779785,
				"element": "H" 
			},
			{
				"x": -3.6770421598,
				"y": -3.0276429718,
				"z": -0.5537521758,
				"element": "H" 
			},
			{
				"x": -1.9661913594,
				"y": -0.3283800944,
				"z": -1.8407694606,
				"element": "H" 
			},
			{
				"x": -3.6481840812,
				"y": -0.2971211542,
				"z": -1.2277001227,
				"element": "H" 
			},
			{
				"x": -3.4964097378,
				"y": -1.5713921201,
				"z": -3.1707039845,
				"element": "H" 
			},
			{
				"x": 1.1881854845,
				"y": -3.2841654081,
				"z": -1.5578882673,
				"element": "H" 
			},
			{
				"x": 1.4690004729,
				"y": -2.5295731577,
				"z": 0.0121885826,
				"element": "H" 
			},
			{
				"x": 3.564892859,
				"y": -2.5865403755,
				"z": -2.6047252298,
				"element": "H" 
			},
			{
				"x": 4.8975897931,
				"y": -0.2517434443,
				"z": -2.4674965235,
				"element": "H" 
			},
			{
				"x": 3.9510819103,
				"y": -0.3206965216,
				"z": -3.9531434906,
				"element": "H" 
			},
			{
				"x": 4.5221810438,
				"y": 1.3505688378,
				"z": -0.9559372787,
				"element": "H" 
			},
			{
				"x": 4.0533838049,
				"y": 2.5960843764,
				"z": -2.1239180619,
				"element": "H" 
			},
			{
				"x": 1.8736625327,
				"y": 2.9027062053,
				"z": -1.0515571691,
				"element": "H" 
			},
			{
				"x": 2.9462982172,
				"y": 2.7008297112,
				"z": 0.3501106864,
				"element": "H" 
			},
			{
				"x": 2.3618875636,
				"y": 0.341175242,
				"z": 0.5217732174,
				"element": "H" 
			},
			{
				"x": 0.909107512,
				"y": 0.4199295592,
				"z": -2.1249751328,
				"element": "H" 
			}
		],
		 "valence_orbital": [ 
			{
				"type": "occ",
				"energy": -0.26937,
				"method": "rhf"
			},
			{
				"type": "occ",
				"energy": -0.25974,
				"method": "rhf"
			},
			{
				"type": "occ",
				"energy": -0.25275,
				"method": "rhf"
			},
			{
				"type": "occ",
				"energy": -0.24908,
				"method": "rhf"
			},
			{
				"type": "occ",
				"energy": -0.20737,
				"method": "rhf"
			},
			{
				"type": "unocc",
				"energy": -0.03435,
				"method": "rhf"
			},
			{
				"type": "unocc",
				"energy": 0.00761,
				"method": "rhf"
			},
			{
				"type": "unocc",
				"energy": 0.01367,
				"method": "rhf"
			},
			{
				"type": "unocc",
				"energy": 0.06324,
				"method": "rhf"
			},
			{
				"type": "unocc",
				"energy": 0.07122,
				"method": "rhf"
			}
		],
		"cosmo_sigma_profile": { 
			"-0.025": 0.0,
			"-0.024": 0.0,
			"-0.023": 0.0,
			"-0.022": 0.0,
			"-0.021": 0.0,
			"-0.02": 0.0,
			"-0.019": 0.0,
			"-0.018": 0.0,
			"-0.017": 0.303652043414,
			"-0.016": 1.33019851271,
			"-0.015": 0.783515173268,
			"-0.014": 0.908318738396,
			"-0.013": 1.1488428528,
			"-0.012": 1.51656386256,
			"-0.011": 1.10300126229,
			"-0.01": 1.22685126118,
			"-0.009": 1.39777572143,
			"-0.008": 1.59616101098,
			"-0.007": 2.48030839694,
			"-0.006": 11.3155830598,
			"-0.005": 23.0461230235,
			"-0.004": 32.5710173474,
			"-0.003": 44.7638699205,
			"-0.002": 43.0878426817,
			"-0.001": 41.5842856235,
			"0.0": 32.6137822466,
			"0.001": 23.5119188392,
			"0.002": 17.717889231,
			"0.003": 14.9699036164,
			"0.004": 10.7902735396,
			"0.005": 9.45588312346,
			"0.006": 8.31175059491,
			"0.007": 5.94010303462,
			"0.008": 6.15254288243,
			"0.009": 5.30854380195,
			"0.01": 7.56384419219,
			"0.011": 8.24989439053,
			"0.012": 9.22440886858,
			"0.013": 2.87959407502,
			"0.014": 1.27670053042,
			"0.015": 0.238715823678,
			"0.016": 0.412016787041,
			"0.017": 0.0,
			"0.018": 0.0,
			"0.019": 0.0,
			"0.02": 0.0,
			"0.021": 0.0,
			"0.022": 0.0,
			"0.023": 0.0,
			"0.024": 0.0,
			"0.025": 0.0
		}
	}
}
