{
	 "smiles": "CCCCCCCCCF", 
	 "Tm": 274.15, 
	 "num_atms": 29, 
	 "gaussian": { 
		 "optdone": 1, 
		 "sigma_profile": "yes", 
		 "theory": "DFT", 
		 "functional": "B3LYP", 
		 "basiset": "6-31G**", 
		 "properties": { 
			 "R2extent": 3200.5721, 
			 "electric_dipole_moment_norm": 1.9519672487, 
			 "electric_quadrupole_moment_norm": 12.8818428103, 
			 "total_energy": -454.267628359, 
			 "HOMO_LUMO_gap": 0.37721, 
			 "cosmo_polarized_energy": -3.04, 
			 "cosmo_cavitation_energy": 30.24, 
			 "cosmo_dispersion_energy": -21.02, 
			 "cosmo_repulsion_energy": 1.76, 
			 "cosmo_total_nonelectrostatic_energy": 10.97, 
			 "SMD_solvation_energy": 4.84 
		},
		"coords": [
			{
				"x": 2.2739565219,
				"y": -2.6871637816,
				"z": 1.7913819435,
				"element": "C" 
			},
			{
				"x": 2.337898665,
				"y": -1.2071904715,
				"z": 1.4008664933,
				"element": "C" 
			},
			{
				"x": 1.3120755909,
				"y": -0.81760461,
				"z": 0.328247894,
				"element": "C" 
			},
			{
				"x": 1.3751615641,
				"y": 0.6658332315,
				"z": -0.0606285705,
				"element": "C" 
			},
			{
				"x": 0.4270296065,
				"y": 1.0733778903,
				"z": -1.2025744008,
				"element": "C" 
			},
			{
				"x": -1.0776858512,
				"y": 0.9168202026,
				"z": -0.9191975,
				"element": "C" 
			},
			{
				"x": -1.5983300485,
				"y": 1.8052027027,
				"z": 0.2223487838,
				"element": "C" 
			},
			{
				"x": -3.1268242004,
				"y": 1.8022328358,
				"z": 0.3871149886,
				"element": "C" 
			},
			{
				"x": -3.6964352219,
				"y": 0.4619824102,
				"z": 0.8264802256,
				"element": "C" 
			},
			{
				"x": -5.0699722177,
				"y": 0.583055063,
				"z": 1.0282854184,
				"element": "F" 
			},
			{
				"x": 1.2877724847,
				"y": -2.9498023435,
				"z": 2.1913336787,
				"element": "H" 
			},
			{
				"x": 3.0181079728,
				"y": -2.9326405929,
				"z": 2.5561718452,
				"element": "H" 
			},
			{
				"x": 2.4608540498,
				"y": -3.3337827339,
				"z": 0.9263254813,
				"element": "H" 
			},
			{
				"x": 3.3469770097,
				"y": -0.9667187605,
				"z": 1.0392335949,
				"element": "H" 
			},
			{
				"x": 2.1811566972,
				"y": -0.5858804047,
				"z": 2.2933474453,
				"element": "H" 
			},
			{
				"x": 1.473069394,
				"y": -1.434648804,
				"z": -0.5678844028,
				"element": "H" 
			},
			{
				"x": 0.3063408863,
				"y": -1.0697890335,
				"z": 0.6913734314,
				"element": "H" 
			},
			{
				"x": 1.1795387271,
				"y": 1.2821462432,
				"z": 0.8272467562,
				"element": "H" 
			},
			{
				"x": 2.4025688213,
				"y": 0.9058177025,
				"z": -0.3663727006,
				"element": "H" 
			},
			{
				"x": 0.625427268,
				"y": 2.1211617333,
				"z": -1.4669445905,
				"element": "H" 
			},
			{
				"x": 0.6779825223,
				"y": 0.4837619592,
				"z": -2.0947718782,
				"element": "H" 
			},
			{
				"x": -1.3041572366,
				"y": -0.1365776878,
				"z": -0.7114614975,
				"element": "H" 
			},
			{
				"x": -1.6294498257,
				"y": 1.165452392,
				"z": -1.8361357361,
				"element": "H" 
			},
			{
				"x": -1.133906273,
				"y": 1.5078662637,
				"z": 1.1722468045,
				"element": "H" 
			},
			{
				"x": -1.2734433379,
				"y": 2.8380498695,
				"z": 0.0408136135,
				"element": "H" 
			},
			{
				"x": -3.4186899283,
				"y": 2.5477982605,
				"z": 1.1363132211,
				"element": "H" 
			},
			{
				"x": -3.608587688,
				"y": 2.096076074,
				"z": -0.5540731148,
				"element": "H" 
			},
			{
				"x": -3.2393263745,
				"y": 0.1319216133,
				"z": 1.769480559,
				"element": "H" 
			},
			{
				"x": -3.5353095778,
				"y": -0.3189572231,
				"z": 0.0737322135,
				"element": "H" 
			}
		],
		 "valence_orbital": [ 
			{
				"type": "occ",
				"energy": -0.32092,
				"method": "rhf"
			},
			{
				"type": "occ",
				"energy": -0.31872,
				"method": "rhf"
			},
			{
				"type": "occ",
				"energy": -0.31111,
				"method": "rhf"
			},
			{
				"type": "occ",
				"energy": -0.30931,
				"method": "rhf"
			},
			{
				"type": "occ",
				"energy": -0.3049,
				"method": "rhf"
			},
			{
				"type": "unocc",
				"energy": 0.07231,
				"method": "rhf"
			},
			{
				"type": "unocc",
				"energy": 0.09817,
				"method": "rhf"
			},
			{
				"type": "unocc",
				"energy": 0.10252,
				"method": "rhf"
			},
			{
				"type": "unocc",
				"energy": 0.10912,
				"method": "rhf"
			},
			{
				"type": "unocc",
				"energy": 0.11526,
				"method": "rhf"
			}
		],
		"cosmo_sigma_profile": { 
			"-0.025": 0.0,
			"-0.024": 0.0,
			"-0.023": 0.0,
			"-0.022": 0.0,
			"-0.021": 0.0,
			"-0.02": 0.0,
			"-0.019": 0.0,
			"-0.018": 0.0,
			"-0.017": 0.0,
			"-0.016": 0.0,
			"-0.015": 0.0,
			"-0.014": 0.0,
			"-0.013": 0.0,
			"-0.012": 0.0,
			"-0.011": 0.0,
			"-0.01": 0.0,
			"-0.009": 0.0,
			"-0.008": 0.0,
			"-0.007": 0.0,
			"-0.006": 0.0,
			"-0.005": 1.61264771681,
			"-0.004": 7.44152768668,
			"-0.003": 15.5160191692,
			"-0.002": 37.347515674,
			"-0.001": 46.2740630173,
			"0.0": 47.7672147744,
			"0.001": 37.225902052,
			"0.002": 16.0129827606,
			"0.003": 1.90820900692,
			"0.004": 2.54370989734,
			"0.005": 2.21576348453,
			"0.006": 4.15585183833,
			"0.007": 10.0261515116,
			"0.008": 1.86793940426,
			"0.009": 0.0,
			"0.01": 0.0,
			"0.011": 0.0,
			"0.012": 0.0,
			"0.013": 0.0,
			"0.014": 0.0,
			"0.015": 0.0,
			"0.016": 0.0,
			"0.017": 0.0,
			"0.018": 0.0,
			"0.019": 0.0,
			"0.02": 0.0,
			"0.021": 0.0,
			"0.022": 0.0,
			"0.023": 0.0,
			"0.024": 0.0,
			"0.025": 0.0
		}
	}
}
