{
	 "smiles": "NC(=S)CF", 
	 "Tm": 327.15, 
	 "num_atms": 9, 
	 "gaussian": { 
		 "optdone": 1, 
		 "sigma_profile": "yes", 
		 "theory": "DFT", 
		 "functional": "B3LYP", 
		 "basiset": "6-31G**", 
		 "properties": { 
			 "R2extent": 1975.5997, 
			 "electric_dipole_moment_norm": 3.23827726577, 
			 "electric_quadrupole_moment_norm": 12.2658354656, 
			 "total_energy": -631.399780519, 
			 "HOMO_LUMO_gap": 0.18116, 
			 "cosmo_polarized_energy": -12.22, 
			 "cosmo_cavitation_energy": 14.87, 
			 "cosmo_dispersion_energy": -11.64, 
			 "cosmo_repulsion_energy": 0.98, 
			 "cosmo_total_nonelectrostatic_energy": 4.21, 
			 "SMD_solvation_energy": 2.34 
		},
		"coords": [
			{
				"x": 1.843404474,
				"y": -0.9877786248,
				"z": -0.0718301419,
				"element": "N" 
			},
			{
				"x": 1.944537336,
				"y": -1.6589533129,
				"z": 1.0799925768,
				"element": "C" 
			},
			{
				"x": 2.655197248,
				"y": -1.1018839271,
				"z": 2.4723242169,
				"element": "S" 
			},
			{
				"x": 1.3325675212,
				"y": -3.0474303041,
				"z": 1.034828186,
				"element": "C" 
			},
			{
				"x": 0.788569129,
				"y": -3.3254493037,
				"z": -0.2215383322,
				"element": "F" 
			},
			{
				"x": 1.3891079517,
				"y": -1.4211176402,
				"z": -0.864079122,
				"element": "H" 
			},
			{
				"x": 2.2211198525,
				"y": -0.0543619802,
				"z": -0.1413504032,
				"element": "H" 
			},
			{
				"x": 0.5401478784,
				"y": -3.1190693445,
				"z": 1.7855228573,
				"element": "H" 
			},
			{
				"x": 2.1034486092,
				"y": -3.7909555625,
				"z": 1.2573301623,
				"element": "H" 
			}
		],
		 "valence_orbital": [ 
			{
				"type": "occ",
				"energy": -0.39282,
				"method": "rhf"
			},
			{
				"type": "occ",
				"energy": -0.36081,
				"method": "rhf"
			},
			{
				"type": "occ",
				"energy": -0.35567,
				"method": "rhf"
			},
			{
				"type": "occ",
				"energy": -0.23833,
				"method": "rhf"
			},
			{
				"type": "occ",
				"energy": -0.21838,
				"method": "rhf"
			},
			{
				"type": "unocc",
				"energy": -0.03722,
				"method": "rhf"
			},
			{
				"type": "unocc",
				"energy": 0.06211,
				"method": "rhf"
			},
			{
				"type": "unocc",
				"energy": 0.09122,
				"method": "rhf"
			},
			{
				"type": "unocc",
				"energy": 0.10729,
				"method": "rhf"
			},
			{
				"type": "unocc",
				"energy": 0.12512,
				"method": "rhf"
			}
		],
		"cosmo_sigma_profile": { 
			"-0.025": 0.0,
			"-0.024": 0.0,
			"-0.023": 0.0,
			"-0.022": 0.0,
			"-0.021": 0.0,
			"-0.02": 0.0,
			"-0.019": 0.0,
			"-0.018": 0.0,
			"-0.017": 0.0,
			"-0.016": 0.48997739409,
			"-0.015": 1.96615627288,
			"-0.014": 1.67925898769,
			"-0.013": 1.86361541684,
			"-0.012": 3.25871028721,
			"-0.011": 1.43612491627,
			"-0.01": 1.17712945849,
			"-0.009": 1.86255599173,
			"-0.008": 5.96688573356,
			"-0.007": 5.69862845611,
			"-0.006": 6.09593356173,
			"-0.005": 6.16032129155,
			"-0.004": 5.32911153071,
			"-0.003": 4.81317998247,
			"-0.002": 5.02427297793,
			"-0.001": 3.12914602386,
			"0.0": 4.67578149438,
			"0.001": 4.67511689384,
			"0.002": 3.8256255917,
			"0.003": 5.57207744874,
			"0.004": 5.76426237523,
			"0.005": 8.68505100782,
			"0.006": 4.37274704253,
			"0.007": 4.60464197955,
			"0.008": 5.39845471863,
			"0.009": 7.00525514314,
			"0.01": 4.62757438127,
			"0.011": 3.69344570591,
			"0.012": 1.88394018092,
			"0.013": 0.00337151221561,
			"0.014": 0.0,
			"0.015": 0.0,
			"0.016": 0.0,
			"0.017": 0.0,
			"0.018": 0.0,
			"0.019": 0.0,
			"0.02": 0.0,
			"0.021": 0.0,
			"0.022": 0.0,
			"0.023": 0.0,
			"0.024": 0.0,
			"0.025": 0.0
		}
	}
}
