{
	 "smiles": "CC1=C(C(=NN1)C(O)=O)[N+]([O-])=O", 
	 "Tm": 457.15, 
	 "num_atms": 17, 
	 "gaussian": { 
		 "optdone": 1, 
		 "sigma_profile": "yes", 
		 "theory": "DFT", 
		 "functional": "B3LYP", 
		 "basiset": "6-31G**", 
		 "properties": { 
			 "R2extent": 2197.7473, 
			 "electric_dipole_moment_norm": 8.78459381588, 
			 "electric_quadrupole_moment_norm": 8.74348719562, 
			 "total_energy": -658.577513495, 
			 "HOMO_LUMO_gap": 0.18709, 
			 "cosmo_polarized_energy": -24.42, 
			 "cosmo_cavitation_energy": 22.87, 
			 "cosmo_dispersion_energy": -16.97, 
			 "cosmo_repulsion_energy": 1.37, 
			 "cosmo_total_nonelectrostatic_energy": 7.27, 
			 "SMD_solvation_energy": 6.72 
		},
		"coords": [
			{
				"x": 1.025393777,
				"y": -1.9394964561,
				"z": 1.9044377218,
				"element": "C" 
			},
			{
				"x": 0.5110341514,
				"y": -1.028414994,
				"z": 0.8416179283,
				"element": "C" 
			},
			{
				"x": -0.7637287171,
				"y": -0.7932109616,
				"z": 0.3320045727,
				"element": "C" 
			},
			{
				"x": -0.6181567075,
				"y": 0.19191954,
				"z": -0.6826302688,
				"element": "C" 
			},
			{
				"x": 0.6626943115,
				"y": 0.540383248,
				"z": -0.788430146,
				"element": "N" 
			},
			{
				"x": 1.3107360427,
				"y": -0.1936635906,
				"z": 0.1360952434,
				"element": "N" 
			},
			{
				"x": -1.5804117516,
				"y": 0.7849827874,
				"z": -1.6709182449,
				"element": "C" 
			},
			{
				"x": -1.0669110618,
				"y": 1.8337522201,
				"z": -2.3499417995,
				"element": "O" 
			},
			{
				"x": -2.6885789554,
				"y": 0.3641563874,
				"z": -1.878034133,
				"element": "O" 
			},
			{
				"x": -1.9535806743,
				"y": -1.4091222927,
				"z": 0.8621074312,
				"element": "N" 
			},
			{
				"x": -1.7910405369,
				"y": -2.4730358967,
				"z": 1.4752804245,
				"element": "O" 
			},
			{
				"x": -3.0242330075,
				"y": -0.8374433791,
				"z": 0.7049824601,
				"element": "O" 
			},
			{
				"x": 0.4072672456,
				"y": -1.8693301775,
				"z": 2.8018023411,
				"element": "H" 
			},
			{
				"x": 2.0596279824,
				"y": -1.6927238349,
				"z": 2.1609843055,
				"element": "H" 
			},
			{
				"x": 0.9784928997,
				"y": -2.9799320961,
				"z": 1.5714861643,
				"element": "H" 
			},
			{
				"x": 2.3106136934,
				"y": -0.0881053623,
				"z": 0.2349085344,
				"element": "H" 
			},
			{
				"x": -0.1441186913,
				"y": 1.9681848585,
				"z": -2.0717525353,
				"element": "H" 
			}
		],
		 "valence_orbital": [ 
			{
				"type": "occ",
				"energy": -0.31038,
				"method": "rhf"
			},
			{
				"type": "occ",
				"energy": -0.30707,
				"method": "rhf"
			},
			{
				"type": "occ",
				"energy": -0.30299,
				"method": "rhf"
			},
			{
				"type": "occ",
				"energy": -0.28871,
				"method": "rhf"
			},
			{
				"type": "occ",
				"energy": -0.27416,
				"method": "rhf"
			},
			{
				"type": "unocc",
				"energy": -0.08707,
				"method": "rhf"
			},
			{
				"type": "unocc",
				"energy": -0.04938,
				"method": "rhf"
			},
			{
				"type": "unocc",
				"energy": 0.00478,
				"method": "rhf"
			},
			{
				"type": "unocc",
				"energy": 0.03789,
				"method": "rhf"
			},
			{
				"type": "unocc",
				"energy": 0.08446,
				"method": "rhf"
			}
		],
		"cosmo_sigma_profile": { 
			"-0.025": 0.0,
			"-0.024": 0.0,
			"-0.023": 0.0,
			"-0.022": 0.0,
			"-0.021": 0.0,
			"-0.02": 0.0,
			"-0.019": 0.76347032053,
			"-0.018": 1.66141864408,
			"-0.017": 1.35878451088,
			"-0.016": 1.47947466597,
			"-0.015": 1.73743811606,
			"-0.014": 2.2200114553,
			"-0.013": 1.52206934653,
			"-0.012": 1.68267754528,
			"-0.011": 2.10931519231,
			"-0.01": 2.21715806855,
			"-0.009": 1.48015885358,
			"-0.008": 2.55881187753,
			"-0.007": 5.2406627023,
			"-0.006": 9.83062349146,
			"-0.005": 11.028965056,
			"-0.004": 12.6258839078,
			"-0.003": 18.2534190905,
			"-0.002": 13.5058095797,
			"-0.001": 6.55697023882,
			"0.0": 5.44832563185,
			"0.001": 4.72872603212,
			"0.002": 5.07479843202,
			"0.003": 4.83142964875,
			"0.004": 5.16205759095,
			"0.005": 6.10835073169,
			"0.006": 5.91876520943,
			"0.007": 8.07292111931,
			"0.008": 10.1500945805,
			"0.009": 10.3043518749,
			"0.01": 8.37048874234,
			"0.011": 5.74740624469,
			"0.012": 4.70200887129,
			"0.013": 0.448452095121,
			"0.014": 0.0,
			"0.015": 0.0,
			"0.016": 0.0,
			"0.017": 0.0,
			"0.018": 0.0,
			"0.019": 0.0,
			"0.02": 0.0,
			"0.021": 0.0,
			"0.022": 0.0,
			"0.023": 0.0,
			"0.024": 0.0,
			"0.025": 0.0
		}
	}
}
