{
	 "smiles": "CCOCOC(=O)C1=C(NC2=C(Cl)C=CC(C)=C2Cl)C=CC=C1", 
	 "Tm": 346.65, 
	 "num_atms": 40, 
	 "gaussian": { 
		 "optdone": 1, 
		 "sigma_profile": "yes", 
		 "theory": "DFT", 
		 "functional": "B3LYP", 
		 "basiset": "6-31G**", 
		 "properties": { 
			 "R2extent": 9030.4435, 
			 "electric_dipole_moment_norm": 4.86573319141, 
			 "electric_quadrupole_moment_norm": 7.18894210228, 
			 "total_energy": -1858.87511268, 
			 "HOMO_LUMO_gap": 0.16581, 
			 "cosmo_polarized_energy": -13.09, 
			 "cosmo_cavitation_energy": 46.92, 
			 "cosmo_dispersion_energy": -30.99, 
			 "cosmo_repulsion_energy": 2.36, 
			 "cosmo_total_nonelectrostatic_energy": 18.29, 
			 "SMD_solvation_energy": 8.57 
		},
		"coords": [
			{
				"x": -1.5880656825,
				"y": -0.2162726084,
				"z": -4.0214791896,
				"element": "C" 
			},
			{
				"x": -0.9477355059,
				"y": -1.5981443067,
				"z": -4.079103431,
				"element": "C" 
			},
			{
				"x": -1.464642898,
				"y": -2.4796789324,
				"z": -3.0729358307,
				"element": "O" 
			},
			{
				"x": -0.7184505726,
				"y": -2.6120484107,
				"z": -1.9224010702,
				"element": "C" 
			},
			{
				"x": -0.7592183326,
				"y": -1.4352080504,
				"z": -1.0709759027,
				"element": "O" 
			},
			{
				"x": -1.8122138327,
				"y": -1.3492815515,
				"z": -0.189221262,
				"element": "C" 
			},
			{
				"x": -2.6513763111,
				"y": -2.2214907794,
				"z": -0.1086370494,
				"element": "O" 
			},
			{
				"x": -1.8248575195,
				"y": -0.0972838286,
				"z": 0.6118296101,
				"element": "C" 
			},
			{
				"x": -0.7424383897,
				"y": 0.8156756749,
				"z": 0.7690678122,
				"element": "C" 
			},
			{
				"x": 0.4955815623,
				"y": 0.5820779708,
				"z": 0.1770003411,
				"element": "N" 
			},
			{
				"x": 1.6427317387,
				"y": 1.3757183403,
				"z": 0.3139282009,
				"element": "C" 
			},
			{
				"x": 2.2053986794,
				"y": 2.0250861698,
				"z": -0.8036380199,
				"element": "C" 
			},
			{
				"x": 1.4163132316,
				"y": 1.888651436,
				"z": -2.3678976916,
				"element": "Cl" 
			},
			{
				"x": 3.372668337,
				"y": 2.7738960359,
				"z": -0.7085093099,
				"element": "C" 
			},
			{
				"x": 4.0019153572,
				"y": 2.9034836145,
				"z": 0.5256858061,
				"element": "C" 
			},
			{
				"x": 3.5071578137,
				"y": 2.2711101954,
				"z": 1.6719432511,
				"element": "C" 
			},
			{
				"x": 4.2274900632,
				"y": 2.3979565132,
				"z": 2.9900066961,
				"element": "C" 
			},
			{
				"x": 2.34358215,
				"y": 1.4977603135,
				"z": 1.5351301118,
				"element": "C" 
			},
			{
				"x": 1.763232157,
				"y": 0.6066332217,
				"z": 2.929401631,
				"element": "Cl" 
			},
			{
				"x": -0.9542525577,
				"y": 1.9673781947,
				"z": 1.5529349738,
				"element": "C" 
			},
			{
				"x": -2.170205167,
				"y": 2.20087554,
				"z": 2.1788136909,
				"element": "C" 
			},
			{
				"x": -3.2284918707,
				"y": 1.2954113924,
				"z": 2.0475380556,
				"element": "C" 
			},
			{
				"x": -3.0415131714,
				"y": 0.1640955818,
				"z": 1.269234199,
				"element": "C" 
			},
			{
				"x": -1.2505462323,
				"y": 0.3898584239,
				"z": -4.8696158562,
				"element": "H" 
			},
			{
				"x": -2.6772562955,
				"y": -0.3025495991,
				"z": -4.0739745032,
				"element": "H" 
			},
			{
				"x": -1.3267227577,
				"y": 0.3053584672,
				"z": -3.0979968725,
				"element": "H" 
			},
			{
				"x": 0.1463228534,
				"y": -1.5292906523,
				"z": -3.9891497557,
				"element": "H" 
			},
			{
				"x": -1.1723386414,
				"y": -2.0802017916,
				"z": -5.0366943955,
				"element": "H" 
			},
			{
				"x": -1.1276225417,
				"y": -3.4535506412,
				"z": -1.3649425724,
				"element": "H" 
			},
			{
				"x": 0.3519411294,
				"y": -2.7346590899,
				"z": -2.1299604803,
				"element": "H" 
			},
			{
				"x": 0.4689871273,
				"y": -0.0443608228,
				"z": -0.6172537774,
				"element": "H" 
			},
			{
				"x": 3.7721438171,
				"y": 3.2604250515,
				"z": -1.5909502094,
				"element": "H" 
			},
			{
				"x": 4.905575237,
				"y": 3.5005663458,
				"z": 0.6024917178,
				"element": "H" 
			},
			{
				"x": 5.0952539088,
				"y": 3.0543761161,
				"z": 2.8911283425,
				"element": "H" 
			},
			{
				"x": 4.5734563853,
				"y": 1.4233267343,
				"z": 3.3501440931,
				"element": "H" 
			},
			{
				"x": 3.5722885233,
				"y": 2.8064803863,
				"z": 3.7662715998,
				"element": "H" 
			},
			{
				"x": -0.1495438166,
				"y": 2.6858147309,
				"z": 1.6575758907,
				"element": "H" 
			},
			{
				"x": -2.2936848689,
				"y": 3.1037290826,
				"z": 2.7706464753,
				"element": "H" 
			},
			{
				"x": -4.1789555174,
				"y": 1.4758425733,
				"z": 2.5385901909,
				"element": "H" 
			},
			{
				"x": -3.8372075889,
				"y": -0.5608670419,
				"z": 1.1381744903,
				"element": "H" 
			}
		],
		 "valence_orbital": [ 
			{
				"type": "occ",
				"energy": -0.27008,
				"method": "rhf"
			},
			{
				"type": "occ",
				"energy": -0.26201,
				"method": "rhf"
			},
			{
				"type": "occ",
				"energy": -0.25193,
				"method": "rhf"
			},
			{
				"type": "occ",
				"energy": -0.24931,
				"method": "rhf"
			},
			{
				"type": "occ",
				"energy": -0.20689,
				"method": "rhf"
			},
			{
				"type": "unocc",
				"energy": -0.04108,
				"method": "rhf"
			},
			{
				"type": "unocc",
				"energy": -0.02831,
				"method": "rhf"
			},
			{
				"type": "unocc",
				"energy": -0.02357,
				"method": "rhf"
			},
			{
				"type": "unocc",
				"energy": 0.00416,
				"method": "rhf"
			},
			{
				"type": "unocc",
				"energy": 0.01292,
				"method": "rhf"
			}
		],
		"cosmo_sigma_profile": { 
			"-0.025": 0.0,
			"-0.024": 0.0,
			"-0.023": 0.0,
			"-0.022": 0.0,
			"-0.021": 0.0,
			"-0.02": 0.0,
			"-0.019": 0.0,
			"-0.018": 0.0,
			"-0.017": 0.0,
			"-0.016": 0.0,
			"-0.015": 0.0,
			"-0.014": 0.0,
			"-0.013": 0.0,
			"-0.012": 0.0,
			"-0.011": 0.0,
			"-0.01": 0.0,
			"-0.009": 0.312688685274,
			"-0.008": 1.67818193735,
			"-0.007": 8.31975091121,
			"-0.006": 16.9492256869,
			"-0.005": 22.5532447325,
			"-0.004": 27.840281474,
			"-0.003": 31.2445432227,
			"-0.002": 30.4857548838,
			"-0.001": 39.6810002932,
			"0.0": 41.2483734649,
			"0.001": 32.6606612848,
			"0.002": 30.0072530173,
			"0.003": 26.9296694538,
			"0.004": 25.7450125641,
			"0.005": 16.1575416947,
			"0.006": 4.68303316741,
			"0.007": 2.05463006283,
			"0.008": 2.88917016012,
			"0.009": 3.59213573079,
			"0.01": 3.68090029811,
			"0.011": 5.29757214965,
			"0.012": 3.71769047894,
			"0.013": 0.0264851278234,
			"0.014": 0.0,
			"0.015": 0.0,
			"0.016": 0.0,
			"0.017": 0.0,
			"0.018": 0.0,
			"0.019": 0.0,
			"0.02": 0.0,
			"0.021": 0.0,
			"0.022": 0.0,
			"0.023": 0.0,
			"0.024": 0.0,
			"0.025": 0.0
		}
	}
}
