{
	 "smiles": "OC(=O)C1=CC=C(OCC2=CC=CC=C2)C=C1", 
	 "Tm": 462.15, 
	 "num_atms": 29, 
	 "gaussian": { 
		 "optdone": 1, 
		 "sigma_profile": "yes", 
		 "theory": "DFT", 
		 "functional": "B3LYP", 
		 "basiset": "6-31G**", 
		 "properties": { 
			 "R2extent": 5896.3135, 
			 "electric_dipole_moment_norm": 3.64788558757, 
			 "electric_quadrupole_moment_norm": 10.6967843229, 
			 "total_energy": -766.406485623, 
			 "HOMO_LUMO_gap": 0.1946, 
			 "cosmo_polarized_energy": -12.35, 
			 "cosmo_cavitation_energy": 33.79, 
			 "cosmo_dispersion_energy": -24.19, 
			 "cosmo_repulsion_energy": 1.88, 
			 "cosmo_total_nonelectrostatic_energy": 11.48, 
			 "SMD_solvation_energy": 7.08 
		},
		"coords": [
			{
				"x": 2.3729573089,
				"y": 4.5814241245,
				"z": 1.7351061861,
				"element": "O" 
			},
			{
				"x": 2.6762939116,
				"y": 3.4390484821,
				"z": 2.4081319786,
				"element": "C" 
			},
			{
				"x": 3.4042783639,
				"y": 3.4471121902,
				"z": 3.3833387432,
				"element": "O" 
			},
			{
				"x": 2.0385891164,
				"y": 2.235023881,
				"z": 1.8314291817,
				"element": "C" 
			},
			{
				"x": 1.2047446841,
				"y": 2.2877880021,
				"z": 0.7081434252,
				"element": "C" 
			},
			{
				"x": 0.6215798913,
				"y": 1.1307818605,
				"z": 0.1951398422,
				"element": "C" 
			},
			{
				"x": 0.8782160508,
				"y": -0.102471829,
				"z": 0.8111124752,
				"element": "C" 
			},
			{
				"x": 0.3790892526,
				"y": -1.300393872,
				"z": 0.3934166306,
				"element": "O" 
			},
			{
				"x": -0.3708596524,
				"y": -1.3684803893,
				"z": -0.8210487838,
				"element": "C" 
			},
			{
				"x": -1.8046687436,
				"y": -0.8917964247,
				"z": -0.6937636267,
				"element": "C" 
			},
			{
				"x": -2.4548460813,
				"y": -0.3280344238,
				"z": -1.7976382913,
				"element": "C" 
			},
			{
				"x": -3.7936857578,
				"y": 0.0578463906,
				"z": -1.7115982882,
				"element": "C" 
			},
			{
				"x": -4.4929052007,
				"y": -0.1087260937,
				"z": -0.5152184387,
				"element": "C" 
			},
			{
				"x": -3.8476277851,
				"y": -0.665380216,
				"z": 0.5914207935,
				"element": "C" 
			},
			{
				"x": -2.5123769089,
				"y": -1.0590433762,
				"z": 0.5022579699,
				"element": "C" 
			},
			{
				"x": 1.709977311,
				"y": -0.1626302031,
				"z": 1.9426138626,
				"element": "C" 
			},
			{
				"x": 2.2818746434,
				"y": 0.9941421215,
				"z": 2.4444292172,
				"element": "C" 
			},
			{
				"x": 2.8435898907,
				"y": 5.2894025896,
				"z": 2.2041624267,
				"element": "H" 
			},
			{
				"x": 1.0053823744,
				"y": 3.2428275727,
				"z": 0.2352705651,
				"element": "H" 
			},
			{
				"x": -0.0418497827,
				"y": 1.2003801277,
				"z": -0.6575922525,
				"element": "H" 
			},
			{
				"x": -0.3499913797,
				"y": -2.4326474732,
				"z": -1.0795866198,
				"element": "H" 
			},
			{
				"x": 0.1493090056,
				"y": -0.8265624787,
				"z": -1.6213311365,
				"element": "H" 
			},
			{
				"x": -1.9120795407,
				"y": -0.1889478904,
				"z": -2.7302616112,
				"element": "H" 
			},
			{
				"x": -4.2861045046,
				"y": 0.4955261241,
				"z": -2.5752800538,
				"element": "H" 
			},
			{
				"x": -5.5327026061,
				"y": 0.1968742147,
				"z": -0.444058969,
				"element": "H" 
			},
			{
				"x": -4.3854715987,
				"y": -0.7940590149,
				"z": 1.5264186912,
				"element": "H" 
			},
			{
				"x": -2.0084483641,
				"y": -1.4891087037,
				"z": 1.3622365098,
				"element": "H" 
			},
			{
				"x": 1.8923384421,
				"y": -1.1295088186,
				"z": 2.3996708416,
				"element": "H" 
			},
			{
				"x": 2.9285976598,
				"y": 0.9633135256,
				"z": 3.3147787311,
				"element": "H" 
			}
		],
		 "valence_orbital": [ 
			{
				"type": "occ",
				"energy": -0.26868,
				"method": "rhf"
			},
			{
				"type": "occ",
				"energy": -0.26025,
				"method": "rhf"
			},
			{
				"type": "occ",
				"energy": -0.25766,
				"method": "rhf"
			},
			{
				"type": "occ",
				"energy": -0.25122,
				"method": "rhf"
			},
			{
				"type": "occ",
				"energy": -0.23044,
				"method": "rhf"
			},
			{
				"type": "unocc",
				"energy": -0.03584,
				"method": "rhf"
			},
			{
				"type": "unocc",
				"energy": -0.01414,
				"method": "rhf"
			},
			{
				"type": "unocc",
				"energy": -0.01048,
				"method": "rhf"
			},
			{
				"type": "unocc",
				"energy": -0.00413,
				"method": "rhf"
			},
			{
				"type": "unocc",
				"energy": 0.06875,
				"method": "rhf"
			}
		],
		"cosmo_sigma_profile": { 
			"-0.025": 0.0,
			"-0.024": 0.0,
			"-0.023": 0.0,
			"-0.022": 0.0,
			"-0.021": 0.0,
			"-0.02": 0.0,
			"-0.019": 0.0,
			"-0.018": 0.54907305957,
			"-0.017": 0.847842312755,
			"-0.016": 0.974874638817,
			"-0.015": 0.703961258255,
			"-0.014": 0.659552587481,
			"-0.013": 0.712318797233,
			"-0.012": 0.328626453906,
			"-0.011": 0.850866713486,
			"-0.01": 1.11418843689,
			"-0.009": 0.494558876587,
			"-0.008": 0.347979810326,
			"-0.007": 5.35450847572,
			"-0.006": 17.1780372438,
			"-0.005": 21.1272510377,
			"-0.004": 22.0952326194,
			"-0.003": 17.5626865377,
			"-0.002": 17.4108017503,
			"-0.001": 17.008028431,
			"0.0": 14.0692416305,
			"0.001": 20.550140037,
			"0.002": 22.8477285862,
			"0.003": 26.0696791811,
			"0.004": 19.0334927296,
			"0.005": 12.6051264679,
			"0.006": 8.49025377199,
			"0.007": 3.87346511198,
			"0.008": 4.24523214232,
			"0.009": 2.41308706274,
			"0.01": 1.97988155548,
			"0.011": 2.61090656663,
			"0.012": 5.43896619037,
			"0.013": 0.6172755332,
			"0.014": 0.0,
			"0.015": 0.0,
			"0.016": 0.0,
			"0.017": 0.0,
			"0.018": 0.0,
			"0.019": 0.0,
			"0.02": 0.0,
			"0.021": 0.0,
			"0.022": 0.0,
			"0.023": 0.0,
			"0.024": 0.0,
			"0.025": 0.0
		}
	}
}
