{
	 "smiles": "COC1=CC=C(C=C1)C1=CC[C@@]2(C)[C@@H](CCC3C4CC[C@H](O)[C@@]4(C)CCC23)C1", 
	 "Tm": 439.15, 
	 "num_atms": 64, 
	 "gaussian": { 
		 "optdone": 1, 
		 "sigma_profile": "yes", 
		 "theory": "DFT", 
		 "functional": "B3LYP", 
		 "basiset": "6-31G**", 
		 "properties": { 
			 "R2extent": 18732.8617, 
			 "electric_dipole_moment_norm": 2.36579103261, 
			 "electric_quadrupole_moment_norm": 17.8311268514, 
			 "total_energy": -1162.8903862, 
			 "HOMO_LUMO_gap": 0.19296, 
			 "cosmo_polarized_energy": -11.37, 
			 "cosmo_cavitation_energy": 55.47, 
			 "cosmo_dispersion_energy": -39.4, 
			 "cosmo_repulsion_energy": 2.86, 
			 "cosmo_total_nonelectrostatic_energy": 18.93, 
			 "SMD_solvation_energy": 8.14 
		},
		"coords": [
			{
				"x": 5.2018581512,
				"y": 5.771672269,
				"z": -5.7685274129,
				"element": "C" 
			},
			{
				"x": 3.9206955347,
				"y": 6.1558050574,
				"z": -5.2780405019,
				"element": "O" 
			},
			{
				"x": 3.325043789,
				"y": 5.2273032472,
				"z": -4.4473957696,
				"element": "C" 
			},
			{
				"x": 2.4657605564,
				"y": 4.2632492231,
				"z": -4.9768131633,
				"element": "C" 
			},
			{
				"x": 1.8341504899,
				"y": 3.3534653176,
				"z": -4.1301372175,
				"element": "C" 
			},
			{
				"x": 2.0355719922,
				"y": 3.3833016404,
				"z": -2.7380477654,
				"element": "C" 
			},
			{
				"x": 2.9193575814,
				"y": 4.3552373371,
				"z": -2.2318307725,
				"element": "C" 
			},
			{
				"x": 3.5533667632,
				"y": 5.2687215721,
				"z": -3.0691200116,
				"element": "C" 
			},
			{
				"x": 1.3456417511,
				"y": 2.4191037159,
				"z": -1.8417512825,
				"element": "C" 
			},
			{
				"x": 1.0182880301,
				"y": 2.7320914332,
				"z": -0.5758777515,
				"element": "C" 
			},
			{
				"x": 0.3634167117,
				"y": 1.7924143274,
				"z": 0.4010348319,
				"element": "C" 
			},
			{
				"x": -0.3201731991,
				"y": 0.5514311878,
				"z": -0.2383299422,
				"element": "C" 
			},
			{
				"x": -1.6601512301,
				"y": 1.0247421141,
				"z": -0.8507852153,
				"element": "C" 
			},
			{
				"x": 0.6222456583,
				"y": 0.0046898198,
				"z": -1.3450168675,
				"element": "C" 
			},
			{
				"x": 0.0771453581,
				"y": -1.2754857753,
				"z": -2.0309696159,
				"element": "C" 
			},
			{
				"x": -0.8495809837,
				"y": -2.1176205987,
				"z": -1.1335747176,
				"element": "C" 
			},
			{
				"x": -0.4296825754,
				"y": -2.0297217498,
				"z": 0.3407589833,
				"element": "C" 
			},
			{
				"x": -1.1825233318,
				"y": -3.0260089091,
				"z": 1.2541847659,
				"element": "C" 
			},
			{
				"x": -0.4887465348,
				"y": -3.2140612814,
				"z": 2.6482850764,
				"element": "C" 
			},
			{
				"x": -1.5943435135,
				"y": -3.0939743178,
				"z": 3.7257836022,
				"element": "C" 
			},
			{
				"x": -2.906614751,
				"y": -3.3249040803,
				"z": 2.9665910718,
				"element": "C" 
			},
			{
				"x": -3.2166951083,
				"y": -4.7201662131,
				"z": 2.9001848614,
				"element": "O" 
			},
			{
				"x": -2.682211597,
				"y": -2.6828082753,
				"z": 1.5587566253,
				"element": "C" 
			},
			{
				"x": -3.674564385,
				"y": -3.2858554454,
				"z": 0.5494594585,
				"element": "C" 
			},
			{
				"x": -2.8873865624,
				"y": -1.1379449727,
				"z": 1.6023708746,
				"element": "C" 
			},
			{
				"x": -1.6218500332,
				"y": -0.3125523299,
				"z": 1.8822954524,
				"element": "C" 
			},
			{
				"x": -0.4596877438,
				"y": -0.5546383817,
				"z": 0.8810982434,
				"element": "C" 
			},
			{
				"x": 0.9769694649,
				"y": 1.0620879409,
				"z": -2.4063389913,
				"element": "C" 
			},
			{
				"x": 5.553625799,
				"y": 6.5886049648,
				"z": -6.4025014369,
				"element": "H" 
			},
			{
				"x": 5.1452405093,
				"y": 4.8501983917,
				"z": -6.3639289328,
				"element": "H" 
			},
			{
				"x": 5.9173436907,
				"y": 5.6158980284,
				"z": -4.9496400149,
				"element": "H" 
			},
			{
				"x": 2.2869927873,
				"y": 4.2451532553,
				"z": -6.0477029956,
				"element": "H" 
			},
			{
				"x": 1.1596906847,
				"y": 2.6207474043,
				"z": -4.5617091498,
				"element": "H" 
			},
			{
				"x": 3.1283391209,
				"y": 4.3812428519,
				"z": -1.1668359119,
				"element": "H" 
			},
			{
				"x": 4.2281359682,
				"y": 6.0184306314,
				"z": -2.6667095913,
				"element": "H" 
			},
			{
				"x": 1.2474002158,
				"y": 3.7266470331,
				"z": -0.197824951,
				"element": "H" 
			},
			{
				"x": 1.1300725413,
				"y": 1.4616072993,
				"z": 1.1191049975,
				"element": "H" 
			},
			{
				"x": -0.3674366398,
				"y": 2.3494525663,
				"z": 1.0032793127,
				"element": "H" 
			},
			{
				"x": -2.3606121992,
				"y": 1.3505792114,
				"z": -0.0769972874,
				"element": "H" 
			},
			{
				"x": -1.4904363954,
				"y": 1.8868126338,
				"z": -1.5028861316,
				"element": "H" 
			},
			{
				"x": -2.1574367702,
				"y": 0.2556349578,
				"z": -1.4457326024,
				"element": "H" 
			},
			{
				"x": 1.5588925063,
				"y": -0.2603339553,
				"z": -0.8322163598,
				"element": "H" 
			},
			{
				"x": 0.9310492515,
				"y": -1.8836070783,
				"z": -2.3546395399,
				"element": "H" 
			},
			{
				"x": -0.4595705089,
				"y": -1.0036738247,
				"z": -2.9483680888,
				"element": "H" 
			},
			{
				"x": -1.884521784,
				"y": -1.7848401839,
				"z": -1.2507497925,
				"element": "H" 
			},
			{
				"x": -0.8334250481,
				"y": -3.164496053,
				"z": -1.4612052227,
				"element": "H" 
			},
			{
				"x": 0.621964473,
				"y": -2.3519231487,
				"z": 0.3623801485,
				"element": "H" 
			},
			{
				"x": -1.1631577816,
				"y": -3.9944616006,
				"z": 0.7352679985,
				"element": "H" 
			},
			{
				"x": 0.00249223,
				"y": -4.1927515466,
				"z": 2.6944420883,
				"element": "H" 
			},
			{
				"x": 0.303853772,
				"y": -2.4769238976,
				"z": 2.8083231791,
				"element": "H" 
			},
			{
				"x": -1.5906056841,
				"y": -2.0989525304,
				"z": 4.1811824613,
				"element": "H" 
			},
			{
				"x": -1.4894398792,
				"y": -3.816720441,
				"z": 4.5405877174,
				"element": "H" 
			},
			{
				"x": -3.7735391101,
				"y": -2.8804394856,
				"z": 3.4672422228,
				"element": "H" 
			},
			{
				"x": -2.4376995732,
				"y": -5.1848054053,
				"z": 2.5663332151,
				"element": "H" 
			},
			{
				"x": -3.5994050285,
				"y": -4.3746285316,
				"z": 0.5133591945,
				"element": "H" 
			},
			{
				"x": -3.5122722694,
				"y": -2.8927165935,
				"z": -0.457483894,
				"element": "H" 
			},
			{
				"x": -4.7041953855,
				"y": -3.0425430081,
				"z": 0.8376197323,
				"element": "H" 
			},
			{
				"x": -3.6566136111,
				"y": -0.8913280505,
				"z": 2.3463899763,
				"element": "H" 
			},
			{
				"x": -3.3004498102,
				"y": -0.8198384452,
				"z": 0.6383806435,
				"element": "H" 
			},
			{
				"x": -1.2637481664,
				"y": -0.5300467746,
				"z": 2.8930052926,
				"element": "H" 
			},
			{
				"x": -1.8866776322,
				"y": 0.7501850206,
				"z": 1.9033342666,
				"element": "H" 
			},
			{
				"x": 0.461352601,
				"y": -0.447528597,
				"z": 1.4657213214,
				"element": "H" 
			},
			{
				"x": 1.7996253627,
				"y": 0.6835446041,
				"z": -3.027236637,
				"element": "H" 
			},
			{
				"x": 0.1265714804,
				"y": 1.1773464254,
				"z": -3.0953320768,
				"element": "H" 
			}
		],
		 "valence_orbital": [ 
			{
				"type": "occ",
				"energy": -0.26587,
				"method": "rhf"
			},
			{
				"type": "occ",
				"energy": -0.26336,
				"method": "rhf"
			},
			{
				"type": "occ",
				"energy": -0.25125,
				"method": "rhf"
			},
			{
				"type": "occ",
				"energy": -0.24805,
				"method": "rhf"
			},
			{
				"type": "occ",
				"energy": -0.20933,
				"method": "rhf"
			},
			{
				"type": "unocc",
				"energy": -0.01637,
				"method": "rhf"
			},
			{
				"type": "unocc",
				"energy": 0.00014,
				"method": "rhf"
			},
			{
				"type": "unocc",
				"energy": 0.05057,
				"method": "rhf"
			},
			{
				"type": "unocc",
				"energy": 0.0584,
				"method": "rhf"
			},
			{
				"type": "unocc",
				"energy": 0.0743,
				"method": "rhf"
			}
		],
		"cosmo_sigma_profile": { 
			"-0.025": 0.0,
			"-0.024": 0.0,
			"-0.023": 0.0,
			"-0.022": 0.0,
			"-0.021": 0.0,
			"-0.02": 0.0,
			"-0.019": 0.0,
			"-0.018": 0.0,
			"-0.017": 0.0,
			"-0.016": 0.0,
			"-0.015": 0.0,
			"-0.014": 0.165737908977,
			"-0.013": 0.670555396108,
			"-0.012": 0.870370400648,
			"-0.011": 1.1300462552,
			"-0.01": 0.603846002319,
			"-0.009": 0.839654645954,
			"-0.008": 1.18087315811,
			"-0.007": 1.5864247911,
			"-0.006": 4.48421229253,
			"-0.005": 12.6075780644,
			"-0.004": 19.9784755199,
			"-0.003": 41.8794557542,
			"-0.002": 65.1487216786,
			"-0.001": 68.0025875484,
			"0.0": 59.3643317046,
			"0.001": 45.998682634,
			"0.002": 29.225878346,
			"0.003": 14.2739330738,
			"0.004": 15.4690210978,
			"0.005": 15.3223931286,
			"0.006": 8.44963494017,
			"0.007": 2.80160039215,
			"0.008": 2.58416055367,
			"0.009": 3.04621759783,
			"0.01": 2.16985765045,
			"0.011": 2.06331827294,
			"0.012": 3.50276018623,
			"0.013": 1.67874774497,
			"0.014": 1.6681911394,
			"0.015": 1.68787468918,
			"0.016": 0.00221290770643,
			"0.017": 0.0,
			"0.018": 0.0,
			"0.019": 0.0,
			"0.02": 0.0,
			"0.021": 0.0,
			"0.022": 0.0,
			"0.023": 0.0,
			"0.024": 0.0,
			"0.025": 0.0
		}
	}
}
