{
	 "smiles": "COC1=C(SC(F)(F)F)C=CC(CC#N)=C1", 
	 "Tm": 333.15, 
	 "num_atms": 24, 
	 "gaussian": { 
		 "optdone": 1, 
		 "sigma_profile": "yes", 
		 "theory": "DFT", 
		 "functional": "B3LYP", 
		 "basiset": "6-31G**", 
		 "properties": { 
			 "R2extent": 5838.3516, 
			 "electric_dipole_moment_norm": 2.0485847261, 
			 "electric_quadrupole_moment_norm": 23.5190232231, 
			 "total_energy": -1213.52967276, 
			 "HOMO_LUMO_gap": 0.19975, 
			 "cosmo_polarized_energy": -12.55, 
			 "cosmo_cavitation_energy": 32.52, 
			 "cosmo_dispersion_energy": -22.1, 
			 "cosmo_repulsion_energy": 1.64, 
			 "cosmo_total_nonelectrostatic_energy": 12.06, 
			 "SMD_solvation_energy": 8.36 
		},
		"coords": [
			{
				"x": 3.3397621508,
				"y": 0.0437018748,
				"z": 0.603140304,
				"element": "C" 
			},
			{
				"x": 2.7716429377,
				"y": -0.2442803539,
				"z": -0.6701292505,
				"element": "O" 
			},
			{
				"x": 1.463234729,
				"y": 0.0187855591,
				"z": -0.8793970783,
				"element": "C" 
			},
			{
				"x": 0.940631157,
				"y": -0.2862549254,
				"z": -2.1569262449,
				"element": "C" 
			},
			{
				"x": 1.9907643296,
				"y": -0.9355934149,
				"z": -3.4501963171,
				"element": "S" 
			},
			{
				"x": 1.8057634085,
				"y": -2.7196585107,
				"z": -3.1175005016,
				"element": "C" 
			},
			{
				"x": 0.534650431,
				"y": -3.1426169743,
				"z": -3.2487028512,
				"element": "F" 
			},
			{
				"x": 2.5600299531,
				"y": -3.3767475127,
				"z": -4.0150403425,
				"element": "F" 
			},
			{
				"x": 2.2100251657,
				"y": -3.0713294402,
				"z": -1.8861971146,
				"element": "F" 
			},
			{
				"x": -0.4061520354,
				"y": -0.0270861323,
				"z": -2.4250128291,
				"element": "C" 
			},
			{
				"x": -1.2411511411,
				"y": 0.5220468522,
				"z": -1.4555377787,
				"element": "C" 
			},
			{
				"x": -0.726314596,
				"y": 0.8214245968,
				"z": -0.1906107296,
				"element": "C" 
			},
			{
				"x": -1.6708688266,
				"y": 1.4077995779,
				"z": 0.8548899184,
				"element": "C" 
			},
			{
				"x": -1.0279031631,
				"y": 1.8130150648,
				"z": 2.1063465342,
				"element": "C" 
			},
			{
				"x": -0.5087559183,
				"y": 2.1274604177,
				"z": 3.0954388393,
				"element": "N" 
			},
			{
				"x": 0.6171433968,
				"y": 0.5718098123,
				"z": 0.0941142651,
				"element": "C" 
			},
			{
				"x": 3.2758431884,
				"y": 1.112372708,
				"z": 0.8398693487,
				"element": "H" 
			},
			{
				"x": 2.8556649868,
				"y": -0.5349373195,
				"z": 1.3986427478,
				"element": "H" 
			},
			{
				"x": 4.3874032531,
				"y": -0.2488381951,
				"z": 0.529623741,
				"element": "H" 
			},
			{
				"x": -0.7940920795,
				"y": -0.2615454635,
				"z": -3.4105571403,
				"element": "H" 
			},
			{
				"x": -2.2851673097,
				"y": 0.7152669192,
				"z": -1.6847598638,
				"element": "H" 
			},
			{
				"x": -2.4532909516,
				"y": 0.6775674509,
				"z": 1.0991290368,
				"element": "H" 
			},
			{
				"x": -2.1880704474,
				"y": 2.2816792635,
				"z": 0.4400376923,
				"element": "H" 
			},
			{
				"x": 1.003107381,
				"y": 0.8116581452,
				"z": 1.0770356146,
				"element": "H" 
			}
		],
		 "valence_orbital": [ 
			{
				"type": "occ",
				"energy": -0.33619,
				"method": "rhf"
			},
			{
				"type": "occ",
				"energy": -0.33079,
				"method": "rhf"
			},
			{
				"type": "occ",
				"energy": -0.27179,
				"method": "rhf"
			},
			{
				"type": "occ",
				"energy": -0.25882,
				"method": "rhf"
			},
			{
				"type": "occ",
				"energy": -0.24058,
				"method": "rhf"
			},
			{
				"type": "unocc",
				"energy": -0.04083,
				"method": "rhf"
			},
			{
				"type": "unocc",
				"energy": -0.01614,
				"method": "rhf"
			},
			{
				"type": "unocc",
				"energy": 0.01622,
				"method": "rhf"
			},
			{
				"type": "unocc",
				"energy": 0.02372,
				"method": "rhf"
			},
			{
				"type": "unocc",
				"energy": 0.03233,
				"method": "rhf"
			}
		],
		"cosmo_sigma_profile": { 
			"-0.025": 0.0,
			"-0.024": 0.0,
			"-0.023": 0.0,
			"-0.022": 0.0,
			"-0.021": 0.0,
			"-0.02": 0.0,
			"-0.019": 0.0,
			"-0.018": 0.0,
			"-0.017": 0.0,
			"-0.016": 0.0,
			"-0.015": 0.0,
			"-0.014": 0.0,
			"-0.013": 0.0,
			"-0.012": 0.0,
			"-0.011": 0.0,
			"-0.01": 0.961316421328,
			"-0.009": 5.55076430356,
			"-0.008": 6.12415953049,
			"-0.007": 10.8543017246,
			"-0.006": 18.1400419077,
			"-0.005": 16.0238614515,
			"-0.004": 13.3513788947,
			"-0.003": 12.5186886622,
			"-0.002": 13.3936997686,
			"-0.001": 14.8174287839,
			"0.0": 18.8747894254,
			"0.001": 23.1214828446,
			"0.002": 41.7769503731,
			"0.003": 24.163320437,
			"0.004": 7.9682666,
			"0.005": 5.82570811273,
			"0.006": 4.93238724634,
			"0.007": 4.34369490051,
			"0.008": 4.45320538841,
			"0.009": 4.22605063835,
			"0.01": 4.2666435932,
			"0.011": 3.45117540024,
			"0.012": 2.50966739317,
			"0.013": 1.42441126928,
			"0.014": 0.0358046672429,
			"0.015": 0.0,
			"0.016": 0.0,
			"0.017": 0.0,
			"0.018": 0.0,
			"0.019": 0.0,
			"0.02": 0.0,
			"0.021": 0.0,
			"0.022": 0.0,
			"0.023": 0.0,
			"0.024": 0.0,
			"0.025": 0.0
		}
	}
}
