{
	 "smiles": "C1CN=C(NC2=NN=C(S2)C2=CC=CC=C2)N1", 
	 "Tm": 466.15, 
	 "num_atms": 28, 
	 "gaussian": { 
		 "optdone": 1, 
		 "sigma_profile": "yes", 
		 "theory": "DFT", 
		 "functional": "B3LYP", 
		 "basiset": "6-31G**", 
		 "properties": { 
			 "R2extent": 6830.1362, 
			 "electric_dipole_moment_norm": 4.3340097681, 
			 "electric_quadrupole_moment_norm": 11.4207188482, 
			 "total_energy": -1097.7114898, 
			 "HOMO_LUMO_gap": 0.15776, 
			 "cosmo_polarized_energy": -16.8, 
			 "cosmo_cavitation_energy": 33.68, 
			 "cosmo_dispersion_energy": -25.89, 
			 "cosmo_repulsion_energy": 1.95, 
			 "cosmo_total_nonelectrostatic_energy": 9.74, 
			 "SMD_solvation_energy": -0.78 
		},
		"coords": [
			{
				"x": -2.9508915088,
				"y": -2.5342818057,
				"z": -2.704876245,
				"element": "C" 
			},
			{
				"x": -2.9495097071,
				"y": -1.5209081472,
				"z": -3.8889861653,
				"element": "C" 
			},
			{
				"x": -1.6606609709,
				"y": -0.820840855,
				"z": -3.8290855019,
				"element": "N" 
			},
			{
				"x": -1.1142187093,
				"y": -1.1786044505,
				"z": -2.7266832567,
				"element": "C" 
			},
			{
				"x": 0.1303453268,
				"y": -0.7041456457,
				"z": -2.3442995984,
				"element": "N" 
			},
			{
				"x": 0.7283075609,
				"y": -0.673742496,
				"z": -1.1079776874,
				"element": "C" 
			},
			{
				"x": 1.9616360989,
				"y": -0.2493944127,
				"z": -0.9809496564,
				"element": "N" 
			},
			{
				"x": 2.3855634299,
				"y": -0.2474613164,
				"z": 0.3113717397,
				"element": "N" 
			},
			{
				"x": 1.5037348444,
				"y": -0.6699025468,
				"z": 1.1723975268,
				"element": "C" 
			},
			{
				"x": -0.0419008868,
				"y": -1.112873621,
				"z": 0.4116493399,
				"element": "S" 
			},
			{
				"x": 1.7479264794,
				"y": -0.777461801,
				"z": 2.6148892267,
				"element": "C" 
			},
			{
				"x": 0.7520286634,
				"y": -1.2038843734,
				"z": 3.5078259471,
				"element": "C" 
			},
			{
				"x": 1.018114933,
				"y": -1.2952687249,
				"z": 4.8729608997,
				"element": "C" 
			},
			{
				"x": 2.2801609899,
				"y": -0.9609211413,
				"z": 5.366139252,
				"element": "C" 
			},
			{
				"x": 3.2767146483,
				"y": -0.5337181174,
				"z": 4.4833531774,
				"element": "C" 
			},
			{
				"x": 3.0179500294,
				"y": -0.4417350176,
				"z": 3.1196750776,
				"element": "C" 
			},
			{
				"x": -1.8158390009,
				"y": -2.0517311363,
				"z": -1.8892651657,
				"element": "N" 
			},
			{
				"x": -3.8801618312,
				"y": -2.5203611844,
				"z": -2.1290230221,
				"element": "H" 
			},
			{
				"x": -2.7739247025,
				"y": -3.5613174832,
				"z": -3.0480337112,
				"element": "H" 
			},
			{
				"x": -3.081967476,
				"y": -2.0142059554,
				"z": -4.8578806474,
				"element": "H" 
			},
			{
				"x": -3.762935609,
				"y": -0.7911604034,
				"z": -3.7857308388,
				"element": "H" 
			},
			{
				"x": 0.6182204245,
				"y": -0.1789003018,
				"z": -3.059444995,
				"element": "H" 
			},
			{
				"x": -0.2369603849,
				"y": -1.4637294398,
				"z": 3.1400061664,
				"element": "H" 
			},
			{
				"x": 0.2370278457,
				"y": -1.6264587563,
				"z": 5.5508878289,
				"element": "H" 
			},
			{
				"x": 2.4863318903,
				"y": -1.0317044282,
				"z": 6.4300471376,
				"element": "H" 
			},
			{
				"x": 4.2610868667,
				"y": -0.2716894249,
				"z": 4.8602481853,
				"element": "H" 
			},
			{
				"x": 3.783446118,
				"y": -0.1124405509,
				"z": 2.42608205,
				"element": "H" 
			},
			{
				"x": -1.2609253618,
				"y": -2.769856463,
				"z": -1.4375970638,
				"element": "H" 
			}
		],
		 "valence_orbital": [ 
			{
				"type": "occ",
				"energy": -0.27061,
				"method": "rhf"
			},
			{
				"type": "occ",
				"energy": -0.26211,
				"method": "rhf"
			},
			{
				"type": "occ",
				"energy": -0.25872,
				"method": "rhf"
			},
			{
				"type": "occ",
				"energy": -0.23739,
				"method": "rhf"
			},
			{
				"type": "occ",
				"energy": -0.21291,
				"method": "rhf"
			},
			{
				"type": "unocc",
				"energy": -0.05515,
				"method": "rhf"
			},
			{
				"type": "unocc",
				"energy": -0.00951,
				"method": "rhf"
			},
			{
				"type": "unocc",
				"energy": 0.00084,
				"method": "rhf"
			},
			{
				"type": "unocc",
				"energy": 0.00394,
				"method": "rhf"
			},
			{
				"type": "unocc",
				"energy": 0.04384,
				"method": "rhf"
			}
		],
		"cosmo_sigma_profile": { 
			"-0.025": 0.0,
			"-0.024": 0.0,
			"-0.023": 0.0,
			"-0.022": 0.0,
			"-0.021": 0.0,
			"-0.02": 0.0,
			"-0.019": 0.0,
			"-0.018": 0.0,
			"-0.017": 0.0,
			"-0.016": 0.206367973757,
			"-0.015": 0.860703062045,
			"-0.014": 0.952199915662,
			"-0.013": 2.55189546015,
			"-0.012": 1.43456302328,
			"-0.011": 2.4631033431,
			"-0.01": 2.25947083602,
			"-0.009": 2.09751381065,
			"-0.008": 1.40605070725,
			"-0.007": 4.73142139586,
			"-0.006": 11.7423728688,
			"-0.005": 17.5265531892,
			"-0.004": 25.8607788607,
			"-0.003": 22.4948087194,
			"-0.002": 24.0487391193,
			"-0.001": 19.2199452005,
			"0.0": 19.0925692222,
			"0.001": 17.4487548357,
			"0.002": 17.1154334576,
			"0.003": 16.081437137,
			"0.004": 16.5694277662,
			"0.005": 9.45325176754,
			"0.006": 3.81791363097,
			"0.007": 3.57231945813,
			"0.008": 4.24951100678,
			"0.009": 3.66852142698,
			"0.01": 3.99441600378,
			"0.011": 3.89414469852,
			"0.012": 3.8237736024,
			"0.013": 3.12315567901,
			"0.014": 2.39516266409,
			"0.015": 1.1260375504,
			"0.016": 1.08974779319,
			"0.017": 0.750991964745,
			"0.018": 0.40651741795,
			"0.019": 0.0,
			"0.02": 0.0,
			"0.021": 0.0,
			"0.022": 0.0,
			"0.023": 0.0,
			"0.024": 0.0,
			"0.025": 0.0
		}
	}
}
