{
	 "smiles": "CCCC1=CC=C(C=C1)S(N)(=O)=O", 
	 "Tm": 482.15, 
	 "num_atms": 26, 
	 "gaussian": { 
		 "optdone": 1, 
		 "sigma_profile": "yes", 
		 "theory": "DFT", 
		 "functional": "B3LYP", 
		 "basiset": "6-31G**", 
		 "properties": { 
			 "R2extent": 5120.1275, 
			 "electric_dipole_moment_norm": 6.4279341907, 
			 "electric_quadrupole_moment_norm": 29.2470910034, 
			 "total_energy": -954.123739318, 
			 "HOMO_LUMO_gap": 0.22145, 
			 "cosmo_polarized_energy": -17.99, 
			 "cosmo_cavitation_energy": 30.55, 
			 "cosmo_dispersion_energy": -22.3, 
			 "cosmo_repulsion_energy": 1.74, 
			 "cosmo_total_nonelectrostatic_energy": 9.99, 
			 "SMD_solvation_energy": 4.65 
		},
		"coords": [
			{
				"x": -0.9593241317,
				"y": -1.3037632347,
				"z": 2.4621409168,
				"element": "C" 
			},
			{
				"x": -0.9642093079,
				"y": -1.8977982835,
				"z": 1.0508678242,
				"element": "C" 
			},
			{
				"x": -1.5399708087,
				"y": -0.9526306653,
				"z": -0.0285773352,
				"element": "C" 
			},
			{
				"x": -0.7127195086,
				"y": 0.2945289694,
				"z": -0.256447172,
				"element": "C" 
			},
			{
				"x": -1.1012081673,
				"y": 1.5337974969,
				"z": 0.2720282271,
				"element": "C" 
			},
			{
				"x": -0.3254570561,
				"y": 2.6769544791,
				"z": 0.0811462414,
				"element": "C" 
			},
			{
				"x": 0.8565341817,
				"y": 2.5818406266,
				"z": -0.6548757697,
				"element": "C" 
			},
			{
				"x": 1.2737324167,
				"y": 1.3581932384,
				"z": -1.1855461705,
				"element": "C" 
			},
			{
				"x": 0.4860799039,
				"y": 0.2275473342,
				"z": -0.9845116268,
				"element": "C" 
			},
			{
				"x": 1.8459662361,
				"y": 4.0549856953,
				"z": -0.9387792388,
				"element": "S" 
			},
			{
				"x": 1.2923090804,
				"y": 4.7468444416,
				"z": -2.3708135736,
				"element": "N" 
			},
			{
				"x": 3.212758956,
				"y": 3.6185488538,
				"z": -1.219776525,
				"element": "O" 
			},
			{
				"x": 1.5149034545,
				"y": 5.0159177833,
				"z": 0.112164184,
				"element": "O" 
			},
			{
				"x": -0.3503445992,
				"y": -0.39581034,
				"z": 2.5143069365,
				"element": "H" 
			},
			{
				"x": -0.5544086849,
				"y": -2.0181453002,
				"z": 3.1858248816,
				"element": "H" 
			},
			{
				"x": -1.9740954412,
				"y": -1.0435286561,
				"z": 2.7852660419,
				"element": "H" 
			},
			{
				"x": 0.0566845165,
				"y": -2.1838213935,
				"z": 0.7673684024,
				"element": "H" 
			},
			{
				"x": -1.5553836251,
				"y": -2.8219213387,
				"z": 1.0439439707,
				"element": "H" 
			},
			{
				"x": -2.5609526119,
				"y": -0.6673204895,
				"z": 0.2526953623,
				"element": "H" 
			},
			{
				"x": -1.6186234587,
				"y": -1.5066539137,
				"z": -0.9721409576,
				"element": "H" 
			},
			{
				"x": -2.0214483377,
				"y": 1.6041551969,
				"z": 0.8457044826,
				"element": "H" 
			},
			{
				"x": -0.617096632,
				"y": 3.6285815851,
				"z": 0.513024628,
				"element": "H" 
			},
			{
				"x": 2.2108439225,
				"y": 1.2975859829,
				"z": -1.72900593,
				"element": "H" 
			},
			{
				"x": 0.8084255517,
				"y": -0.725573725,
				"z": -1.3963098167,
				"element": "H" 
			},
			{
				"x": 0.3334438184,
				"y": 5.0733082364,
				"z": -2.3025695716,
				"element": "H" 
			},
			{
				"x": 1.4516603326,
				"y": 4.1537774202,
				"z": -3.1792284119,
				"element": "H" 
			}
		],
		 "valence_orbital": [ 
			{
				"type": "occ",
				"energy": -0.31329,
				"method": "rhf"
			},
			{
				"type": "occ",
				"energy": -0.30099,
				"method": "rhf"
			},
			{
				"type": "occ",
				"energy": -0.2993,
				"method": "rhf"
			},
			{
				"type": "occ",
				"energy": -0.2716,
				"method": "rhf"
			},
			{
				"type": "occ",
				"energy": -0.25964,
				"method": "rhf"
			},
			{
				"type": "unocc",
				"energy": -0.03819,
				"method": "rhf"
			},
			{
				"type": "unocc",
				"energy": -0.02339,
				"method": "rhf"
			},
			{
				"type": "unocc",
				"energy": 0.0525,
				"method": "rhf"
			},
			{
				"type": "unocc",
				"energy": 0.07233,
				"method": "rhf"
			},
			{
				"type": "unocc",
				"energy": 0.08715,
				"method": "rhf"
			}
		],
		"cosmo_sigma_profile": { 
			"-0.025": 0.0,
			"-0.024": 0.0,
			"-0.023": 0.0,
			"-0.022": 0.0,
			"-0.021": 0.0,
			"-0.02": 0.0,
			"-0.019": 0.0,
			"-0.018": 0.0,
			"-0.017": 0.0,
			"-0.016": 0.131625234003,
			"-0.015": 1.71261410993,
			"-0.014": 2.93075737194,
			"-0.013": 2.61955220355,
			"-0.012": 2.7717265927,
			"-0.011": 2.38855625052,
			"-0.01": 2.07433460393,
			"-0.009": 2.25112251889,
			"-0.008": 1.95016302302,
			"-0.007": 3.91829428366,
			"-0.006": 8.50382081271,
			"-0.005": 11.5344162153,
			"-0.004": 12.8153927854,
			"-0.003": 17.6726265112,
			"-0.002": 22.0311055592,
			"-0.001": 23.0324683791,
			"0.0": 23.8485803701,
			"0.001": 20.3950544339,
			"0.002": 14.450544555,
			"0.003": 13.1478511917,
			"0.004": 6.17496602926,
			"0.005": 3.99725312376,
			"0.006": 2.67325669565,
			"0.007": 3.68379761365,
			"0.008": 4.68407700916,
			"0.009": 4.57385543324,
			"0.01": 7.03549372943,
			"0.011": 10.6453896801,
			"0.012": 6.47686281978,
			"0.013": 0.44107738739,
			"0.014": 0.0,
			"0.015": 0.0,
			"0.016": 0.0,
			"0.017": 0.0,
			"0.018": 0.0,
			"0.019": 0.0,
			"0.02": 0.0,
			"0.021": 0.0,
			"0.022": 0.0,
			"0.023": 0.0,
			"0.024": 0.0,
			"0.025": 0.0
		}
	}
}
