{
	 "smiles": "C=CC1=C2C=CC=CC2=CC2=C1C=CC=C2", 
	 "Tm": 338.15, 
	 "num_atms": 28, 
	 "gaussian": { 
		 "optdone": 1, 
		 "sigma_profile": "yes", 
		 "theory": "DFT", 
		 "functional": "B3LYP", 
		 "basiset": "6-31G**", 
		 "properties": { 
			 "R2extent": 3522.5695, 
			 "electric_dipole_moment_norm": 0.222890645833, 
			 "electric_quadrupole_moment_norm": 9.31241258375, 
			 "total_energy": -616.92603418, 
			 "HOMO_LUMO_gap": 0.1298, 
			 "cosmo_polarized_energy": -5.62, 
			 "cosmo_cavitation_energy": 31.17, 
			 "cosmo_dispersion_energy": -22.61, 
			 "cosmo_repulsion_energy": 1.72, 
			 "cosmo_total_nonelectrostatic_energy": 10.28, 
			 "SMD_solvation_energy": 5.12 
		},
		"coords": [
			{
				"x": -2.4500198117,
				"y": 2.2986762771,
				"z": 0.7638736952,
				"element": "C" 
			},
			{
				"x": -1.981129843,
				"y": 1.3619816346,
				"z": -0.0628456185,
				"element": "C" 
			},
			{
				"x": -0.7025345351,
				"y": 0.6156092446,
				"z": 0.128733108,
				"element": "C" 
			},
			{
				"x": 0.4936814467,
				"y": 1.1093166355,
				"z": -0.4418794211,
				"element": "C" 
			},
			{
				"x": 0.5462095709,
				"y": 2.3407022039,
				"z": -1.1716505283,
				"element": "C" 
			},
			{
				"x": 1.7180673594,
				"y": 2.794093948,
				"z": -1.7189500465,
				"element": "C" 
			},
			{
				"x": 2.9242232429,
				"y": 2.0500757175,
				"z": -1.5725305317,
				"element": "C" 
			},
			{
				"x": 2.9210514592,
				"y": 0.8685560499,
				"z": -0.8809608571,
				"element": "C" 
			},
			{
				"x": 1.7195055014,
				"y": 0.3562993004,
				"z": -0.2980322939,
				"element": "C" 
			},
			{
				"x": 1.7044246463,
				"y": -0.8531563646,
				"z": 0.4033184045,
				"element": "C" 
			},
			{
				"x": 0.5296370139,
				"y": -1.3564976764,
				"z": 0.9702651386,
				"element": "C" 
			},
			{
				"x": -0.7016675255,
				"y": -0.6113892465,
				"z": 0.8321319155,
				"element": "C" 
			},
			{
				"x": -1.886251233,
				"y": -1.160837646,
				"z": 1.4207821667,
				"element": "C" 
			},
			{
				"x": -1.8587294664,
				"y": -2.3546705202,
				"z": 2.093347032,
				"element": "C" 
			},
			{
				"x": -0.6425753721,
				"y": -3.0842460695,
				"z": 2.2293775138,
				"element": "C" 
			},
			{
				"x": 0.5144133096,
				"y": -2.595732719,
				"z": 1.6843956488,
				"element": "C" 
			},
			{
				"x": -3.3901492994,
				"y": 2.8071031168,
				"z": 0.5684149717,
				"element": "H" 
			},
			{
				"x": -1.9108883934,
				"y": 2.5880738838,
				"z": 1.6620247933,
				"element": "H" 
			},
			{
				"x": -2.5615979142,
				"y": 1.107653893,
				"z": -0.9523056519,
				"element": "H" 
			},
			{
				"x": -0.3650464282,
				"y": 2.9190700165,
				"z": -1.2773306794,
				"element": "H" 
			},
			{
				"x": 1.7322013658,
				"y": 3.7313831896,
				"z": -2.2679217082,
				"element": "H" 
			},
			{
				"x": 3.8441692616,
				"y": 2.4262708879,
				"z": -2.0106814044,
				"element": "H" 
			},
			{
				"x": 3.8360901579,
				"y": 0.2937541208,
				"z": -0.7619855759,
				"element": "H" 
			},
			{
				"x": 2.6283632866,
				"y": -1.4178488662,
				"z": 0.5075191082,
				"element": "H" 
			},
			{
				"x": -2.8136670924,
				"y": -0.6057827064,
				"z": 1.332086079,
				"element": "H" 
			},
			{
				"x": -2.7706472338,
				"y": -2.7504605068,
				"z": 2.5313390913,
				"element": "H" 
			},
			{
				"x": -0.6391327533,
				"y": -4.0273341365,
				"z": 2.7682408337,
				"element": "H" 
			},
			{
				"x": 1.4480992794,
				"y": -3.1436636616,
				"z": 1.7836248168,
				"element": "H" 
			}
		],
		 "valence_orbital": [ 
			{
				"type": "occ",
				"energy": -0.28953,
				"method": "rhf"
			},
			{
				"type": "occ",
				"energy": -0.26718,
				"method": "rhf"
			},
			{
				"type": "occ",
				"energy": -0.25202,
				"method": "rhf"
			},
			{
				"type": "occ",
				"energy": -0.23654,
				"method": "rhf"
			},
			{
				"type": "occ",
				"energy": -0.18994,
				"method": "rhf"
			},
			{
				"type": "unocc",
				"energy": -0.06014,
				"method": "rhf"
			},
			{
				"type": "unocc",
				"energy": -0.01113,
				"method": "rhf"
			},
			{
				"type": "unocc",
				"energy": 0.00573,
				"method": "rhf"
			},
			{
				"type": "unocc",
				"energy": 0.01452,
				"method": "rhf"
			},
			{
				"type": "unocc",
				"energy": 0.04302,
				"method": "rhf"
			}
		],
		"cosmo_sigma_profile": { 
			"-0.025": 0.0,
			"-0.024": 0.0,
			"-0.023": 0.0,
			"-0.022": 0.0,
			"-0.021": 0.0,
			"-0.02": 0.0,
			"-0.019": 0.0,
			"-0.018": 0.0,
			"-0.017": 0.0,
			"-0.016": 0.0,
			"-0.015": 0.0,
			"-0.014": 0.0,
			"-0.013": 0.0,
			"-0.012": 0.0,
			"-0.011": 0.0,
			"-0.01": 0.0,
			"-0.009": 0.0,
			"-0.008": 0.0,
			"-0.007": 0.0,
			"-0.006": 11.2794391832,
			"-0.005": 22.4244175663,
			"-0.004": 21.523440012,
			"-0.003": 22.7227215904,
			"-0.002": 17.6160543086,
			"-0.001": 19.0090215946,
			"0.0": 16.2756402486,
			"0.001": 16.7656210098,
			"0.002": 19.3573243604,
			"0.003": 27.4282904284,
			"0.004": 32.8335384839,
			"0.005": 19.7327342483,
			"0.006": 3.51577484139,
			"0.007": 0.0,
			"0.008": 0.0,
			"0.009": 0.0,
			"0.01": 0.0,
			"0.011": 0.0,
			"0.012": 0.0,
			"0.013": 0.0,
			"0.014": 0.0,
			"0.015": 0.0,
			"0.016": 0.0,
			"0.017": 0.0,
			"0.018": 0.0,
			"0.019": 0.0,
			"0.02": 0.0,
			"0.021": 0.0,
			"0.022": 0.0,
			"0.023": 0.0,
			"0.024": 0.0,
			"0.025": 0.0
		}
	}
}
