{
	 "smiles": "NS(=O)(=O)C1=CC2=C(NCNS2(=O)=O)C=C1C(F)(F)F", 
	 "Tm": 545.15, 
	 "num_atms": 28, 
	 "gaussian": { 
		 "optdone": 1, 
		 "sigma_profile": "yes", 
		 "theory": "DFT", 
		 "functional": "B3LYP", 
		 "basiset": "6-31G**", 
		 "properties": { 
			 "R2extent": 6976.139, 
			 "electric_dipole_moment_norm": 10.0298968639, 
			 "electric_quadrupole_moment_norm": 20.388260133, 
			 "total_energy": -1870.56803718, 
			 "HOMO_LUMO_gap": 0.17832, 
			 "cosmo_polarized_energy": -35.14, 
			 "cosmo_cavitation_energy": 35.04, 
			 "cosmo_dispersion_energy": -26.75, 
			 "cosmo_repulsion_energy": 1.88, 
			 "cosmo_total_nonelectrostatic_energy": 10.17, 
			 "SMD_solvation_energy": 3.81 
		},
		"coords": [
			{
				"x": 0.9696687815,
				"y": -0.9819301196,
				"z": 3.7915460192,
				"element": "N" 
			},
			{
				"x": -0.5822297741,
				"y": -0.7298102118,
				"z": 3.2236774591,
				"element": "S" 
			},
			{
				"x": -1.2513311138,
				"y": 0.142459851,
				"z": 4.1802849776,
				"element": "O" 
			},
			{
				"x": -1.0884693229,
				"y": -2.0564148544,
				"z": 2.8775838998,
				"element": "O" 
			},
			{
				"x": -0.4482176479,
				"y": 0.1718681293,
				"z": 1.6504750538,
				"element": "C" 
			},
			{
				"x": -0.7107344075,
				"y": -0.5792649407,
				"z": 0.5074722283,
				"element": "C" 
			},
			{
				"x": -0.6639406168,
				"y": -0.0064816264,
				"z": -0.7604158224,
				"element": "C" 
			},
			{
				"x": -0.3336594091,
				"y": 1.3564706118,
				"z": -0.9302065852,
				"element": "C" 
			},
			{
				"x": -0.2050914498,
				"y": 1.9396355382,
				"z": -2.168567225,
				"element": "N" 
			},
			{
				"x": -0.6746577093,
				"y": 1.2806976781,
				"z": -3.3872738939,
				"element": "C" 
			},
			{
				"x": -0.294963561,
				"y": -0.1220144961,
				"z": -3.4165236325,
				"element": "N" 
			},
			{
				"x": -1.0486812797,
				"y": -1.0185069018,
				"z": -2.1874133278,
				"element": "S" 
			},
			{
				"x": -2.4849229592,
				"y": -0.9530458765,
				"z": -2.4411474865,
				"element": "O" 
			},
			{
				"x": -0.3354066636,
				"y": -2.2877164529,
				"z": -2.0837129846,
				"element": "O" 
			},
			{
				"x": -0.0652383792,
				"y": 2.1035529828,
				"z": 0.2359527025,
				"element": "C" 
			},
			{
				"x": -0.1249202559,
				"y": 1.5423647891,
				"z": 1.5041730405,
				"element": "C" 
			},
			{
				"x": 0.1383286865,
				"y": 2.4820104279,
				"z": 2.6702171474,
				"element": "C" 
			},
			{
				"x": 0.7156749243,
				"y": 3.63099554,
				"z": 2.2496294353,
				"element": "F" 
			},
			{
				"x": 0.9993185613,
				"y": 1.9411209624,
				"z": 3.5721238194,
				"element": "F" 
			},
			{
				"x": -0.9820533067,
				"y": 2.8159715605,
				"z": 3.3161255267,
				"element": "F" 
			},
			{
				"x": 1.4652708568,
				"y": -0.1204585457,
				"z": 3.9922405322,
				"element": "H" 
			},
			{
				"x": 1.4917119711,
				"y": -1.6435342948,
				"z": 3.2267826311,
				"element": "H" 
			},
			{
				"x": -0.9598439884,
				"y": -1.6294734133,
				"z": 0.6168320336,
				"element": "H" 
			},
			{
				"x": -0.1117283343,
				"y": 2.9447142693,
				"z": -2.1925355563,
				"element": "H" 
			},
			{
				"x": -1.7665200848,
				"y": 1.3186322615,
				"z": -3.482810922,
				"element": "H" 
			},
			{
				"x": -0.232355714,
				"y": 1.7887718855,
				"z": -4.2474274411,
				"element": "H" 
			},
			{
				"x": 0.711295321,
				"y": -0.2784766756,
				"z": -3.3840681777,
				"element": "H" 
			},
			{
				"x": 0.1971968755,
				"y": 3.1503619223,
				"z": 0.1364865486,
				"element": "H" 
			}
		],
		 "valence_orbital": [ 
			{
				"type": "occ",
				"energy": -0.31489,
				"method": "rhf"
			},
			{
				"type": "occ",
				"energy": -0.31033,
				"method": "rhf"
			},
			{
				"type": "occ",
				"energy": -0.30403,
				"method": "rhf"
			},
			{
				"type": "occ",
				"energy": -0.29754,
				"method": "rhf"
			},
			{
				"type": "occ",
				"energy": -0.25178,
				"method": "rhf"
			},
			{
				"type": "unocc",
				"energy": -0.07346,
				"method": "rhf"
			},
			{
				"type": "unocc",
				"energy": -0.05067,
				"method": "rhf"
			},
			{
				"type": "unocc",
				"energy": 0.03355,
				"method": "rhf"
			},
			{
				"type": "unocc",
				"energy": 0.03446,
				"method": "rhf"
			},
			{
				"type": "unocc",
				"energy": 0.044,
				"method": "rhf"
			}
		],
		"cosmo_sigma_profile": { 
			"-0.025": 0.0,
			"-0.024": 0.0,
			"-0.023": 0.0,
			"-0.022": 0.0,
			"-0.021": 0.0,
			"-0.02": 0.0,
			"-0.019": 0.0,
			"-0.018": 0.0,
			"-0.017": 0.0511605677232,
			"-0.016": 2.55722546622,
			"-0.015": 4.58211975724,
			"-0.014": 4.68682148375,
			"-0.013": 5.0585819519,
			"-0.012": 5.12995318951,
			"-0.011": 5.26642971034,
			"-0.01": 5.57577975868,
			"-0.009": 8.49331375501,
			"-0.008": 6.80842750671,
			"-0.007": 9.03532724814,
			"-0.006": 9.45322701852,
			"-0.005": 9.39203633181,
			"-0.004": 9.24202990291,
			"-0.003": 10.4460923071,
			"-0.002": 12.8594672599,
			"-0.001": 19.8436955207,
			"0.0": 15.4249469635,
			"0.001": 14.1593347606,
			"0.002": 23.5783022327,
			"0.003": 10.927304222,
			"0.004": 6.33452827832,
			"0.005": 7.22233471794,
			"0.006": 8.31328147206,
			"0.007": 9.37716643113,
			"0.008": 8.21701874229,
			"0.009": 12.6231047641,
			"0.01": 20.3701371979,
			"0.011": 13.9947017686,
			"0.012": 1.2410528367,
			"0.013": 0.0,
			"0.014": 0.0,
			"0.015": 0.0,
			"0.016": 0.0,
			"0.017": 0.0,
			"0.018": 0.0,
			"0.019": 0.0,
			"0.02": 0.0,
			"0.021": 0.0,
			"0.022": 0.0,
			"0.023": 0.0,
			"0.024": 0.0,
			"0.025": 0.0
		}
	}
}
