{
	 "smiles": "COC(=O)C1=C(N)C(Br)=CC(F)=C1", 
	 "Tm": 310.15, 
	 "num_atms": 20, 
	 "gaussian": { 
		 "optdone": 1, 
		 "sigma_profile": "yes", 
		 "theory": "DFT", 
		 "functional": "B3LYP", 
		 "basiset": "6-31G**", 
		 "properties": { 
			 "R2extent": 4006.5116, 
			 "electric_dipole_moment_norm": 3.58163579667, 
			 "electric_quadrupole_moment_norm": 8.57350722458, 
			 "total_energy": -3185.52072546, 
			 "HOMO_LUMO_gap": 0.15729, 
			 "cosmo_polarized_energy": -8.71, 
			 "cosmo_cavitation_energy": 27.0, 
			 "cosmo_dispersion_energy": -20.42, 
			 "cosmo_repulsion_energy": 1.58, 
			 "cosmo_total_nonelectrostatic_energy": 8.17, 
			 "SMD_solvation_energy": 5.46 
		},
		"coords": [
			{
				"x": -1.2766106901,
				"y": 2.182453252,
				"z": 2.9302601103,
				"element": "C" 
			},
			{
				"x": -0.8330944957,
				"y": 1.4615481183,
				"z": 1.7662242931,
				"element": "O" 
			},
			{
				"x": -0.9005289673,
				"y": 0.1033696958,
				"z": 1.8678434677,
				"element": "C" 
			},
			{
				"x": -1.314463504,
				"y": -0.4358768447,
				"z": 2.8755395444,
				"element": "O" 
			},
			{
				"x": -0.4423102268,
				"y": -0.6287832477,
				"z": 0.656651028,
				"element": "C" 
			},
			{
				"x": 0.0902933613,
				"y": -0.0266243077,
				"z": -0.5233888269,
				"element": "C" 
			},
			{
				"x": 0.2974742224,
				"y": 1.316317468,
				"z": -0.6583644842,
				"element": "N" 
			},
			{
				"x": 0.4437884832,
				"y": -0.9141087187,
				"z": -1.5744098847,
				"element": "C" 
			},
			{
				"x": 1.1492569678,
				"y": -0.19414059,
				"z": -3.2058665901,
				"element": "Br" 
			},
			{
				"x": 0.3034470205,
				"y": -2.2884410675,
				"z": -1.4831178333,
				"element": "C" 
			},
			{
				"x": -0.2086418679,
				"y": -2.8325876621,
				"z": -0.3077875923,
				"element": "C" 
			},
			{
				"x": -0.3439922589,
				"y": -4.1734676474,
				"z": -0.2160161521,
				"element": "F" 
			},
			{
				"x": -0.5778949447,
				"y": -2.0260857449,
				"z": 0.7457863412,
				"element": "C" 
			},
			{
				"x": -1.1498103927,
				"y": 3.2373763748,
				"z": 2.6873531362,
				"element": "H" 
			},
			{
				"x": -0.67350401,
				"y": 1.9113315775,
				"z": 3.7993336719,
				"element": "H" 
			},
			{
				"x": -2.3242892329,
				"y": 1.9582086627,
				"z": 3.1422879373,
				"element": "H" 
			},
			{
				"x": 0.4950274008,
				"y": 1.6707935612,
				"z": -1.5805418196,
				"element": "H" 
			},
			{
				"x": -0.1166624317,
				"y": 1.9287032501,
				"z": 0.0251145606,
				"element": "H" 
			},
			{
				"x": 0.5839027431,
				"y": -2.9346149219,
				"z": -2.3059811879,
				"element": "H" 
			},
			{
				"x": -0.9809871765,
				"y": -2.4511712077,
				"z": 1.6566802804,
				"element": "H" 
			}
		],
		 "valence_orbital": [ 
			{
				"type": "occ",
				"energy": -0.30803,
				"method": "rhf"
			},
			{
				"type": "occ",
				"energy": -0.30353,
				"method": "rhf"
			},
			{
				"type": "occ",
				"energy": -0.28344,
				"method": "rhf"
			},
			{
				"type": "occ",
				"energy": -0.25898,
				"method": "rhf"
			},
			{
				"type": "occ",
				"energy": -0.21118,
				"method": "rhf"
			},
			{
				"type": "unocc",
				"energy": -0.05389,
				"method": "rhf"
			},
			{
				"type": "unocc",
				"energy": -0.00473,
				"method": "rhf"
			},
			{
				"type": "unocc",
				"energy": 0.00193,
				"method": "rhf"
			},
			{
				"type": "unocc",
				"energy": 0.05081,
				"method": "rhf"
			},
			{
				"type": "unocc",
				"energy": 0.09002,
				"method": "rhf"
			}
		],
		"cosmo_sigma_profile": { 
			"-0.025": 0.0,
			"-0.024": 0.0,
			"-0.023": 0.0,
			"-0.022": 0.0,
			"-0.021": 0.0,
			"-0.02": 0.0,
			"-0.019": 0.0,
			"-0.018": 0.0,
			"-0.017": 0.0,
			"-0.016": 0.0,
			"-0.015": 0.0,
			"-0.014": 0.0,
			"-0.013": 0.0466369825091,
			"-0.012": 0.465616274432,
			"-0.011": 0.893023745652,
			"-0.01": 1.72020503406,
			"-0.009": 2.39554047542,
			"-0.008": 3.64678993421,
			"-0.007": 4.20349965223,
			"-0.006": 9.37980365144,
			"-0.005": 12.8964882155,
			"-0.004": 14.096245541,
			"-0.003": 15.8935490999,
			"-0.002": 13.7761808583,
			"-0.001": 13.0987856384,
			"0.0": 19.5112213618,
			"0.001": 30.4387158159,
			"0.002": 21.7215671843,
			"0.003": 14.0334003539,
			"0.004": 17.9985454511,
			"0.005": 6.88784339775,
			"0.006": 1.80420968703,
			"0.007": 2.17666937033,
			"0.008": 2.15084873101,
			"0.009": 2.29201883622,
			"0.01": 1.56995708471,
			"0.011": 3.40308869061,
			"0.012": 3.15124640608,
			"0.013": 0.0247629452155,
			"0.014": 0.0,
			"0.015": 0.0,
			"0.016": 0.0,
			"0.017": 0.0,
			"0.018": 0.0,
			"0.019": 0.0,
			"0.02": 0.0,
			"0.021": 0.0,
			"0.022": 0.0,
			"0.023": 0.0,
			"0.024": 0.0,
			"0.025": 0.0
		}
	}
}
