{
	 "smiles": "CN(C)C1=CC=CC2=C1C=CC=C2S(Cl)(=O)=O", 
	 "Tm": 344.15, 
	 "num_atms": 29, 
	 "gaussian": { 
		 "optdone": 1, 
		 "sigma_profile": "yes", 
		 "theory": "DFT", 
		 "functional": "B3LYP", 
		 "basiset": "6-31G**", 
		 "properties": { 
			 "R2extent": 6996.9534, 
			 "electric_dipole_moment_norm": 6.99406967366, 
			 "electric_quadrupole_moment_norm": 22.4438194657, 
			 "total_energy": -1528.01737732, 
			 "HOMO_LUMO_gap": 0.12952, 
			 "cosmo_polarized_energy": -10.0, 
			 "cosmo_cavitation_energy": 34.57, 
			 "cosmo_dispersion_energy": -25.54, 
			 "cosmo_repulsion_energy": 1.92, 
			 "cosmo_total_nonelectrostatic_energy": 10.95, 
			 "SMD_solvation_energy": 4.02 
		},
		"coords": [
			{
				"x": 3.0824626615,
				"y": -1.6929934714,
				"z": -0.7549535579,
				"element": "C" 
			},
			{
				"x": 1.706770509,
				"y": -1.3529740238,
				"z": -0.4131842838,
				"element": "N" 
			},
			{
				"x": 0.7765957426,
				"y": -2.4154862153,
				"z": -0.8151075064,
				"element": "C" 
			},
			{
				"x": 1.2822988938,
				"y": -0.036397637,
				"z": -0.7369556351,
				"element": "C" 
			},
			{
				"x": 1.8568647508,
				"y": 0.7071564663,
				"z": -1.7524408904,
				"element": "C" 
			},
			{
				"x": 1.3814898853,
				"y": 1.9993291144,
				"z": -2.0601428302,
				"element": "C" 
			},
			{
				"x": 0.3229211749,
				"y": 2.5586370879,
				"z": -1.3825424091,
				"element": "C" 
			},
			{
				"x": -0.277068802,
				"y": 1.8538440751,
				"z": -0.3053234621,
				"element": "C" 
			},
			{
				"x": 0.229996199,
				"y": 0.5549496087,
				"z": 0.0496008549,
				"element": "C" 
			},
			{
				"x": -0.2790092144,
				"y": -0.1037779258,
				"z": 1.1984111256,
				"element": "C" 
			},
			{
				"x": -1.2966795831,
				"y": 0.4377851451,
				"z": 1.9519315943,
				"element": "C" 
			},
			{
				"x": -1.8508098052,
				"y": 1.6815924004,
				"z": 1.5940209105,
				"element": "C" 
			},
			{
				"x": -1.3487880339,
				"y": 2.3580847065,
				"z": 0.4998640589,
				"element": "C" 
			},
			{
				"x": -2.1364890213,
				"y": 3.9320540729,
				"z": 0.1614674939,
				"element": "S" 
			},
			{
				"x": -0.6286859046,
				"y": 5.3207155882,
				"z": 0.7903482252,
				"element": "Cl" 
			},
			{
				"x": -2.2960370865,
				"y": 4.1404733536,
				"z": -1.2738102812,
				"element": "O" 
			},
			{
				"x": -3.2548131576,
				"y": 4.1176828426,
				"z": 1.0788437907,
				"element": "O" 
			},
			{
				"x": 3.24547453,
				"y": -1.8518993046,
				"z": -1.8353488606,
				"element": "H" 
			},
			{
				"x": 3.7570829116,
				"y": -0.9045408776,
				"z": -0.413188918,
				"element": "H" 
			},
			{
				"x": 3.3509197828,
				"y": -2.6224356449,
				"z": -0.2426707647,
				"element": "H" 
			},
			{
				"x": 0.8038380386,
				"y": -2.6005948292,
				"z": -1.9023225267,
				"element": "H" 
			},
			{
				"x": 1.0430605685,
				"y": -3.3454123757,
				"z": -0.3021187455,
				"element": "H" 
			},
			{
				"x": -0.246506931,
				"y": -2.1530753231,
				"z": -0.5425081347,
				"element": "H" 
			},
			{
				"x": 2.6632793399,
				"y": 0.2885429315,
				"z": -2.34393352,
				"element": "H" 
			},
			{
				"x": 1.8451988402,
				"y": 2.5513590366,
				"z": -2.8723845017,
				"element": "H" 
			},
			{
				"x": -0.0467746608,
				"y": 3.5327593646,
				"z": -1.6701470104,
				"element": "H" 
			},
			{
				"x": 0.1809227436,
				"y": -1.0404504405,
				"z": 1.4913024968,
				"element": "H" 
			},
			{
				"x": -1.6668392129,
				"y": -0.0788941906,
				"z": 2.8313854191,
				"element": "H" 
			},
			{
				"x": -2.6546751588,
				"y": 2.1191664653,
				"z": 2.1737078684,
				"element": "H" 
			}
		],
		 "valence_orbital": [ 
			{
				"type": "occ",
				"energy": -0.30721,
				"method": "rhf"
			},
			{
				"type": "occ",
				"energy": -0.30286,
				"method": "rhf"
			},
			{
				"type": "occ",
				"energy": -0.26689,
				"method": "rhf"
			},
			{
				"type": "occ",
				"energy": -0.26001,
				"method": "rhf"
			},
			{
				"type": "occ",
				"energy": -0.21793,
				"method": "rhf"
			},
			{
				"type": "unocc",
				"energy": -0.08841,
				"method": "rhf"
			},
			{
				"type": "unocc",
				"energy": -0.05644,
				"method": "rhf"
			},
			{
				"type": "unocc",
				"energy": -0.03244,
				"method": "rhf"
			},
			{
				"type": "unocc",
				"energy": 0.0024,
				"method": "rhf"
			},
			{
				"type": "unocc",
				"energy": 0.05827,
				"method": "rhf"
			}
		],
		"cosmo_sigma_profile": { 
			"-0.025": 0.0,
			"-0.024": 0.0,
			"-0.023": 0.0,
			"-0.022": 0.0,
			"-0.021": 0.0,
			"-0.02": 0.0,
			"-0.019": 0.0,
			"-0.018": 0.0,
			"-0.017": 0.0,
			"-0.016": 0.0,
			"-0.015": 0.0,
			"-0.014": 0.0,
			"-0.013": 0.0,
			"-0.012": 0.0,
			"-0.011": 0.0,
			"-0.01": 0.0,
			"-0.009": 0.0656305091695,
			"-0.008": 1.3789666088,
			"-0.007": 4.8882228711,
			"-0.006": 10.6842109693,
			"-0.005": 15.2016217176,
			"-0.004": 22.9101977993,
			"-0.003": 26.0343739863,
			"-0.002": 26.7268800026,
			"-0.001": 29.334646195,
			"0.0": 20.0894807395,
			"0.001": 24.1293203389,
			"0.002": 25.4626541173,
			"0.003": 22.1375069941,
			"0.004": 18.9541749482,
			"0.005": 5.010749346,
			"0.006": 4.67685510567,
			"0.007": 5.76664293522,
			"0.008": 9.54089269451,
			"0.009": 5.55045757128,
			"0.01": 0.0812675921287,
			"0.011": 0.0,
			"0.012": 0.0,
			"0.013": 0.0,
			"0.014": 0.0,
			"0.015": 0.0,
			"0.016": 0.0,
			"0.017": 0.0,
			"0.018": 0.0,
			"0.019": 0.0,
			"0.02": 0.0,
			"0.021": 0.0,
			"0.022": 0.0,
			"0.023": 0.0,
			"0.024": 0.0,
			"0.025": 0.0
		}
	}
}
