{
	 "smiles": "C[Si](C)(C)C#CC#C[Si](C)(C)C", 
	 "Tm": 384.65, 
	 "num_atms": 30, 
	 "gaussian": { 
		 "optdone": 1, 
		 "sigma_profile": "yes", 
		 "theory": "DFT", 
		 "functional": "B3LYP", 
		 "basiset": "6-31G**", 
		 "properties": { 
			 "R2extent": 6588.3506, 
			 "electric_dipole_moment_norm": 0.00111803398875, 
			 "electric_quadrupole_moment_norm": 11.2390593339, 
			 "total_energy": -970.90146066, 
			 "HOMO_LUMO_gap": 0.20533, 
			 "cosmo_polarized_energy": -4.79, 
			 "cosmo_cavitation_energy": 38.31, 
			 "cosmo_dispersion_energy": -21.9, 
			 "cosmo_repulsion_energy": 2.08, 
			 "cosmo_total_nonelectrostatic_energy": 18.49, 
			 "SMD_solvation_energy": 11.47 
		},
		"coords": [
			{
				"x": 2.5097891485,
				"y": 0.524453677,
				"z": -3.5629652805,
				"element": "C" 
			},
			{
				"x": 2.4437649947,
				"y": -0.9998660946,
				"z": -2.4499709341,
				"element": "Si" 
			},
			{
				"x": 1.5140634233,
				"y": -2.4031702485,
				"z": -3.3061452707,
				"element": "C" 
			},
			{
				"x": 4.1881171582,
				"y": -1.5522142913,
				"z": -1.9821519647,
				"element": "C" 
			},
			{
				"x": 1.5382302299,
				"y": -0.556438944,
				"z": -0.9066959909,
				"element": "C" 
			},
			{
				"x": 0.9356171414,
				"y": -0.2617832405,
				"z": 0.1192944878,
				"element": "C" 
			},
			{
				"x": 0.2652188347,
				"y": 0.0660227872,
				"z": 1.2608992227,
				"element": "C" 
			},
			{
				"x": -0.3374200601,
				"y": 0.3606443339,
				"z": 2.2868909146,
				"element": "C" 
			},
			{
				"x": -1.2432677427,
				"y": 0.8027009068,
				"z": 3.8303773557,
				"element": "Si" 
			},
			{
				"x": -1.8076801752,
				"y": -0.7922251444,
				"z": 4.669651868,
				"element": "C" 
			},
			{
				"x": -0.0707676413,
				"y": 1.7628049191,
				"z": 4.957377904,
				"element": "C" 
			},
			{
				"x": -2.7324760554,
				"y": 1.8671916691,
				"z": 3.3659216445,
				"element": "C" 
			},
			{
				"x": 1.5044200879,
				"y": 0.8682314025,
				"z": -3.8263705059,
				"element": "H" 
			},
			{
				"x": 3.0290267171,
				"y": 1.3534019643,
				"z": -3.0714675646,
				"element": "H" 
			},
			{
				"x": 3.0424833307,
				"y": 0.2993131757,
				"z": -4.494076825,
				"element": "H" 
			},
			{
				"x": 1.4504488487,
				"y": -3.2876302951,
				"z": -2.664262639,
				"element": "H" 
			},
			{
				"x": 2.0240234201,
				"y": -2.6955167409,
				"z": -4.2312915955,
				"element": "H" 
			},
			{
				"x": 0.4936309121,
				"y": -2.1037879423,
				"z": -3.5657927754,
				"element": "H" 
			},
			{
				"x": 4.7327454758,
				"y": -0.7549914895,
				"z": -1.4662608953,
				"element": "H" 
			},
			{
				"x": 4.7593146045,
				"y": -1.8244604841,
				"z": -2.8771627773,
				"element": "H" 
			},
			{
				"x": 4.1651301574,
				"y": -2.4242362958,
				"z": -1.3207933966,
				"element": "H" 
			},
			{
				"x": -2.3515203201,
				"y": -0.5694754275,
				"z": 5.5948757706,
				"element": "H" 
			},
			{
				"x": -2.4733477248,
				"y": -1.3693353908,
				"z": 4.0199105974,
				"element": "H" 
			},
			{
				"x": -0.9554369583,
				"y": -1.429398955,
				"z": 4.9265940697,
				"element": "H" 
			},
			{
				"x": 0.8075405734,
				"y": 1.1643454062,
				"z": 5.2195830306,
				"element": "H" 
			},
			{
				"x": -0.575511908,
				"y": 2.0444716069,
				"z": 5.8886781963,
				"element": "H" 
			},
			{
				"x": 0.2811187837,
				"y": 2.6806662613,
				"z": 4.4756802828,
				"element": "H" 
			},
			{
				"x": -3.4114274452,
				"y": 1.3303103692,
				"z": 2.6957602826,
				"element": "H" 
			},
			{
				"x": -2.4215902327,
				"y": 2.7872828647,
				"z": 2.860837217,
				"element": "H" 
			},
			{
				"x": -3.2982375782,
				"y": 2.1500896403,
				"z": 4.2610755713,
				"element": "H" 
			}
		],
		 "valence_orbital": [ 
			{
				"type": "occ",
				"energy": -0.30894,
				"method": "rhf"
			},
			{
				"type": "occ",
				"energy": -0.30017,
				"method": "rhf"
			},
			{
				"type": "occ",
				"energy": -0.30016,
				"method": "rhf"
			},
			{
				"type": "occ",
				"energy": -0.2376,
				"method": "rhf"
			},
			{
				"type": "occ",
				"energy": -0.23759,
				"method": "rhf"
			},
			{
				"type": "unocc",
				"energy": -0.03226,
				"method": "rhf"
			},
			{
				"type": "unocc",
				"energy": -0.03225,
				"method": "rhf"
			},
			{
				"type": "unocc",
				"energy": 0.07625,
				"method": "rhf"
			},
			{
				"type": "unocc",
				"energy": 0.07667,
				"method": "rhf"
			},
			{
				"type": "unocc",
				"energy": 0.08415,
				"method": "rhf"
			}
		],
		"cosmo_sigma_profile": { 
			"-0.025": 0.0,
			"-0.024": 0.0,
			"-0.023": 0.0,
			"-0.022": 0.0,
			"-0.021": 0.0,
			"-0.02": 0.0,
			"-0.019": 0.0,
			"-0.018": 0.0,
			"-0.017": 0.0,
			"-0.016": 0.0,
			"-0.015": 0.0,
			"-0.014": 0.0,
			"-0.013": 0.0,
			"-0.012": 0.0,
			"-0.011": 0.0,
			"-0.01": 0.0,
			"-0.009": 0.0,
			"-0.008": 0.0,
			"-0.007": 0.0,
			"-0.006": 0.0,
			"-0.005": 1.08517049464,
			"-0.004": 25.6727812859,
			"-0.003": 38.3788753036,
			"-0.002": 37.6989530468,
			"-0.001": 34.4865652902,
			"0.0": 34.8319271148,
			"0.001": 42.25249273,
			"0.002": 20.7053890393,
			"0.003": 21.6845838991,
			"0.004": 14.060826163,
			"0.005": 20.9281300219,
			"0.006": 3.98213867662,
			"0.007": 0.0,
			"0.008": 0.0,
			"0.009": 0.0,
			"0.01": 0.0,
			"0.011": 0.0,
			"0.012": 0.0,
			"0.013": 0.0,
			"0.014": 0.0,
			"0.015": 0.0,
			"0.016": 0.0,
			"0.017": 0.0,
			"0.018": 0.0,
			"0.019": 0.0,
			"0.02": 0.0,
			"0.021": 0.0,
			"0.022": 0.0,
			"0.023": 0.0,
			"0.024": 0.0,
			"0.025": 0.0
		}
	}
}
