{
	 "smiles": "OC1=CC=C(OCC2=CC=NC=C2)C=C1", 
	 "Tm": 453.15, 
	 "num_atms": 26, 
	 "gaussian": { 
		 "optdone": 1, 
		 "sigma_profile": "yes", 
		 "theory": "DFT", 
		 "functional": "B3LYP", 
		 "basiset": "6-31G**", 
		 "properties": { 
			 "R2extent": 5121.158, 
			 "electric_dipole_moment_norm": 3.65310611124, 
			 "electric_quadrupole_moment_norm": 15.2987915497, 
			 "total_energy": -669.081765186, 
			 "HOMO_LUMO_gap": 0.18232, 
			 "cosmo_polarized_energy": -14.34, 
			 "cosmo_cavitation_energy": 30.61, 
			 "cosmo_dispersion_energy": -22.58, 
			 "cosmo_repulsion_energy": 1.75, 
			 "cosmo_total_nonelectrostatic_energy": 9.78, 
			 "SMD_solvation_energy": 4.21 
		},
		"coords": [
			{
				"x": 3.7715633753,
				"y": -3.3126058526,
				"z": -0.6528096574,
				"element": "O" 
			},
			{
				"x": 2.7834524175,
				"y": -2.3999025857,
				"z": -0.394348144,
				"element": "C" 
			},
			{
				"x": 2.0684414979,
				"y": -2.5450912752,
				"z": 0.8027767432,
				"element": "C" 
			},
			{
				"x": 1.0555297825,
				"y": -1.6523983589,
				"z": 1.1215889221,
				"element": "C" 
			},
			{
				"x": 0.7346674351,
				"y": -0.5974411575,
				"z": 0.2544715255,
				"element": "C" 
			},
			{
				"x": -0.2838612548,
				"y": 0.2252515715,
				"z": 0.6691604554,
				"element": "O" 
			},
			{
				"x": -0.6521686122,
				"y": 1.3062539088,
				"z": -0.1644805794,
				"element": "C" 
			},
			{
				"x": -1.7832049571,
				"y": 2.0797668646,
				"z": 0.4718524815,
				"element": "C" 
			},
			{
				"x": -2.3172482483,
				"y": 3.1931670141,
				"z": -0.1865828477,
				"element": "C" 
			},
			{
				"x": -3.3589703345,
				"y": 3.8977296866,
				"z": 0.4124854442,
				"element": "C" 
			},
			{
				"x": -3.8935841445,
				"y": 3.5746432926,
				"z": 1.59810439,
				"element": "N" 
			},
			{
				"x": -3.3754942455,
				"y": 2.5085373331,
				"z": 2.2183496235,
				"element": "C" 
			},
			{
				"x": -2.3318449515,
				"y": 1.7337930823,
				"z": 1.707166214,
				"element": "C" 
			},
			{
				"x": 1.444469336,
				"y": -0.4495260308,
				"z": -0.9387243629,
				"element": "C" 
			},
			{
				"x": 2.4664312027,
				"y": -1.3524782203,
				"z": -1.257490636,
				"element": "C" 
			},
			{
				"x": 4.1820498027,
				"y": -3.1015939301,
				"z": -1.5009767348,
				"element": "H" 
			},
			{
				"x": 2.3214174963,
				"y": -3.3630220482,
				"z": 1.4691430712,
				"element": "H" 
			},
			{
				"x": 0.4948523221,
				"y": -1.7541295622,
				"z": 2.0450663697,
				"element": "H" 
			},
			{
				"x": -0.9669060588,
				"y": 0.9386634589,
				"z": -1.153862539,
				"element": "H" 
			},
			{
				"x": 0.2071136479,
				"y": 1.9757997019,
				"z": -0.3273571564,
				"element": "H" 
			},
			{
				"x": -1.9312569041,
				"y": 3.5111146657,
				"z": -1.1520296516,
				"element": "H" 
			},
			{
				"x": -3.7864341843,
				"y": 4.7663657005,
				"z": -0.0857790637,
				"element": "H" 
			},
			{
				"x": -3.8166407308,
				"y": 2.2542460473,
				"z": 3.1809210073,
				"element": "H" 
			},
			{
				"x": -1.952724785,
				"y": 0.8800624895,
				"z": 2.2552825513,
				"element": "H" 
			},
			{
				"x": 1.2223189683,
				"y": 0.3538900428,
				"z": -1.6307341596,
				"element": "H" 
			},
			{
				"x": 3.0139321269,
				"y": -1.2289958387,
				"z": -2.1895932665,
				"element": "H" 
			}
		],
		 "valence_orbital": [ 
			{
				"type": "occ",
				"energy": -0.27526,
				"method": "rhf"
			},
			{
				"type": "occ",
				"energy": -0.26084,
				"method": "rhf"
			},
			{
				"type": "occ",
				"energy": -0.25677,
				"method": "rhf"
			},
			{
				"type": "occ",
				"energy": -0.25186,
				"method": "rhf"
			},
			{
				"type": "occ",
				"energy": -0.20616,
				"method": "rhf"
			},
			{
				"type": "unocc",
				"energy": -0.02384,
				"method": "rhf"
			},
			{
				"type": "unocc",
				"energy": -0.00955,
				"method": "rhf"
			},
			{
				"type": "unocc",
				"energy": -0.00721,
				"method": "rhf"
			},
			{
				"type": "unocc",
				"energy": 0.02179,
				"method": "rhf"
			},
			{
				"type": "unocc",
				"energy": 0.06817,
				"method": "rhf"
			}
		],
		"cosmo_sigma_profile": { 
			"-0.025": 0.0,
			"-0.024": 0.0,
			"-0.023": 0.0,
			"-0.022": 0.0,
			"-0.021": 0.0,
			"-0.02": 0.0,
			"-0.019": 0.0,
			"-0.018": 0.212264118387,
			"-0.017": 0.907090659251,
			"-0.016": 1.26594208408,
			"-0.015": 0.929203732097,
			"-0.014": 1.09284650057,
			"-0.013": 1.11566278343,
			"-0.012": 0.504141880874,
			"-0.011": 0.420030649543,
			"-0.01": 1.55159138549,
			"-0.009": 1.59194239417,
			"-0.008": 1.08586015127,
			"-0.007": 8.91406544937,
			"-0.006": 21.3931692689,
			"-0.005": 18.6934004242,
			"-0.004": 16.2980015018,
			"-0.003": 12.9244513765,
			"-0.002": 11.2090317825,
			"-0.001": 10.9797616161,
			"0.0": 11.7358449636,
			"0.001": 14.061908894,
			"0.002": 20.523974484,
			"0.003": 22.6734587743,
			"0.004": 17.6971994149,
			"0.005": 17.8953243685,
			"0.006": 7.6016717233,
			"0.007": 3.33440786419,
			"0.008": 3.51354764435,
			"0.009": 2.59524977408,
			"0.01": 2.48474224142,
			"0.011": 2.42786132203,
			"0.012": 2.90282694777,
			"0.013": 1.21617639634,
			"0.014": 0.424652768867,
			"0.015": 1.04451204641,
			"0.016": 0.943230166321,
			"0.017": 0.551726453384,
			"0.018": 0.00422198648344,
			"0.019": 0.0,
			"0.02": 0.0,
			"0.021": 0.0,
			"0.022": 0.0,
			"0.023": 0.0,
			"0.024": 0.0,
			"0.025": 0.0
		}
	}
}
