{
	 "smiles": "OC(=O)C1=CC(=CC=C1)C1=NC=NN1", 
	 "Tm": 513.15, 
	 "num_atms": 21, 
	 "gaussian": { 
		 "optdone": 1, 
		 "sigma_profile": "yes", 
		 "theory": "DFT", 
		 "functional": "B3LYP", 
		 "basiset": "6-31G**", 
		 "properties": { 
			 "R2extent": 3761.5623, 
			 "electric_dipole_moment_norm": 1.87449339289, 
			 "electric_quadrupole_moment_norm": 22.8442002375, 
			 "total_energy": -661.875710042, 
			 "HOMO_LUMO_gap": 0.18701, 
			 "cosmo_polarized_energy": -22.55, 
			 "cosmo_cavitation_energy": 26.6, 
			 "cosmo_dispersion_energy": -19.67, 
			 "cosmo_repulsion_energy": 1.52, 
			 "cosmo_total_nonelectrostatic_energy": 8.45, 
			 "SMD_solvation_energy": 3.42 
		},
		"coords": [
			{
				"x": 3.1622862049,
				"y": -2.6604163758,
				"z": -1.2926415497,
				"element": "O" 
			},
			{
				"x": 3.0726589559,
				"y": -1.7974475327,
				"z": -0.2433555274,
				"element": "C" 
			},
			{
				"x": 3.9552582025,
				"y": -1.7483485483,
				"z": 0.5788535728,
				"element": "O" 
			},
			{
				"x": 1.8392752454,
				"y": -0.9452514773,
				"z": -0.1786397738,
				"element": "C" 
			},
			{
				"x": 0.6282986148,
				"y": -1.3298698314,
				"z": -0.766170402,
				"element": "C" 
			},
			{
				"x": -0.5067520654,
				"y": -0.5134436795,
				"z": -0.6631791786,
				"element": "C" 
			},
			{
				"x": -0.4062059682,
				"y": 0.7109550153,
				"z": 0.0167401383,
				"element": "C" 
			},
			{
				"x": 0.7964653104,
				"y": 1.0902499391,
				"z": 0.6090054963,
				"element": "C" 
			},
			{
				"x": 1.9137667962,
				"y": 0.2613156545,
				"z": 0.5291009042,
				"element": "C" 
			},
			{
				"x": -1.7985193796,
				"y": -0.8940735859,
				"z": -1.2427533654,
				"element": "C" 
			},
			{
				"x": -2.8333066992,
				"y": -0.0816752222,
				"z": -1.434066646,
				"element": "N" 
			},
			{
				"x": -3.7735119318,
				"y": -0.8957615499,
				"z": -1.9826945048,
				"element": "C" 
			},
			{
				"x": -3.4060014409,
				"y": -2.1592088314,
				"z": -2.1469061336,
				"element": "N" 
			},
			{
				"x": -2.1359709575,
				"y": -2.1394656401,
				"z": -1.6713197572,
				"element": "N" 
			},
			{
				"x": 2.4999719853,
				"y": -2.4399603822,
				"z": -1.9622542569,
				"element": "H" 
			},
			{
				"x": 0.5620777097,
				"y": -2.2817421895,
				"z": -1.2879049726,
				"element": "H" 
			},
			{
				"x": -1.2857173343,
				"y": 1.3425878861,
				"z": 0.0759583467,
				"element": "H" 
			},
			{
				"x": 0.8594157909,
				"y": 2.0339751967,
				"z": 1.1418194964,
				"element": "H" 
			},
			{
				"x": 2.8536840797,
				"y": 0.5295203932,
				"z": 0.9989477293,
				"element": "H" 
			},
			{
				"x": -4.7566489765,
				"y": -0.5518163236,
				"z": -2.2724158153,
				"element": "H" 
			},
			{
				"x": -1.6164241422,
				"y": -3.002422915,
				"z": -1.6180238007,
				"element": "H" 
			}
		],
		 "valence_orbital": [ 
			{
				"type": "occ",
				"energy": -0.30495,
				"method": "rhf"
			},
			{
				"type": "occ",
				"energy": -0.29024,
				"method": "rhf"
			},
			{
				"type": "occ",
				"energy": -0.28772,
				"method": "rhf"
			},
			{
				"type": "occ",
				"energy": -0.28041,
				"method": "rhf"
			},
			{
				"type": "occ",
				"energy": -0.25241,
				"method": "rhf"
			},
			{
				"type": "unocc",
				"energy": -0.0654,
				"method": "rhf"
			},
			{
				"type": "unocc",
				"energy": -0.05701,
				"method": "rhf"
			},
			{
				"type": "unocc",
				"energy": 0.01432,
				"method": "rhf"
			},
			{
				"type": "unocc",
				"energy": 0.0299,
				"method": "rhf"
			},
			{
				"type": "unocc",
				"energy": 0.03631,
				"method": "rhf"
			}
		],
		"cosmo_sigma_profile": { 
			"-0.025": 0.0,
			"-0.024": 0.0,
			"-0.023": 0.0,
			"-0.022": 0.0,
			"-0.021": 0.0,
			"-0.02": 0.0,
			"-0.019": 0.517407590941,
			"-0.018": 1.42583331046,
			"-0.017": 2.58860536371,
			"-0.016": 2.86737720673,
			"-0.015": 2.70448172555,
			"-0.014": 2.20671860107,
			"-0.013": 2.81262943228,
			"-0.012": 2.43220925766,
			"-0.011": 2.18644312688,
			"-0.01": 1.84979412777,
			"-0.009": 2.60056197543,
			"-0.008": 3.26651039684,
			"-0.007": 7.68503847943,
			"-0.006": 10.3345666095,
			"-0.005": 8.79833797257,
			"-0.004": 8.84248768934,
			"-0.003": 8.66822443364,
			"-0.002": 10.2929028138,
			"-0.001": 13.3186077847,
			"0.0": 13.7870351403,
			"0.001": 17.6049967195,
			"0.002": 19.1439702703,
			"0.003": 8.5285803723,
			"0.004": 6.41207736657,
			"0.005": 4.86434213188,
			"0.006": 5.25514806559,
			"0.007": 5.2424830145,
			"0.008": 5.70908906445,
			"0.009": 5.56705695021,
			"0.01": 7.86245453823,
			"0.011": 7.28892692961,
			"0.012": 5.52914329222,
			"0.013": 3.73634385543,
			"0.014": 1.81579178943,
			"0.015": 0.697172604181,
			"0.016": 0.0,
			"0.017": 0.0,
			"0.018": 0.0,
			"0.019": 0.0,
			"0.02": 0.0,
			"0.021": 0.0,
			"0.022": 0.0,
			"0.023": 0.0,
			"0.024": 0.0,
			"0.025": 0.0
		}
	}
}
