{
	 "smiles": "CCCS(=O)(=O)NC1=CC(N)=CC=C1", 
	 "Tm": 337.15, 
	 "num_atms": 28, 
	 "gaussian": { 
		 "optdone": 1, 
		 "sigma_profile": "yes", 
		 "theory": "DFT", 
		 "functional": "B3LYP", 
		 "basiset": "6-31G**", 
		 "properties": { 
			 "R2extent": 3596.2421, 
			 "electric_dipole_moment_norm": 4.65211860339, 
			 "electric_quadrupole_moment_norm": 21.4078223785, 
			 "total_energy": -1009.48319447, 
			 "HOMO_LUMO_gap": 0.20211, 
			 "cosmo_polarized_energy": -18.62, 
			 "cosmo_cavitation_energy": 32.32, 
			 "cosmo_dispersion_energy": -23.23, 
			 "cosmo_repulsion_energy": 1.82, 
			 "cosmo_total_nonelectrostatic_energy": 10.91, 
			 "SMD_solvation_energy": 4.47 
		},
		"coords": [
			{
				"x": -2.1407096226,
				"y": -3.285385396,
				"z": -1.4220729502,
				"element": "C" 
			},
			{
				"x": -1.3430485929,
				"y": -2.8293988091,
				"z": -0.1945350855,
				"element": "C" 
			},
			{
				"x": -1.8787428626,
				"y": -1.5124975815,
				"z": 0.366135899,
				"element": "C" 
			},
			{
				"x": -1.040425731,
				"y": -0.9643517615,
				"z": 1.8829414181,
				"element": "S" 
			},
			{
				"x": -1.6766896047,
				"y": 0.2897487978,
				"z": 2.2895930741,
				"element": "O" 
			},
			{
				"x": -0.9218367458,
				"y": -2.0975791397,
				"z": 2.803871755,
				"element": "O" 
			},
			{
				"x": 0.5585632208,
				"y": -0.6356355711,
				"z": 1.4322819905,
				"element": "N" 
			},
			{
				"x": 0.9395023366,
				"y": 0.2193694869,
				"z": 0.3642404342,
				"element": "C" 
			},
			{
				"x": 0.3014707164,
				"y": 1.4478149745,
				"z": 0.1665182015,
				"element": "C" 
			},
			{
				"x": 0.7053762424,
				"y": 2.2895060289,
				"z": -0.8830878537,
				"element": "C" 
			},
			{
				"x": 0.0257232899,
				"y": 3.4817088912,
				"z": -1.1204233901,
				"element": "N" 
			},
			{
				"x": 1.7731365829,
				"y": 1.8975433105,
				"z": -1.7109512756,
				"element": "C" 
			},
			{
				"x": 2.4097607523,
				"y": 0.6806684305,
				"z": -1.4883996911,
				"element": "C" 
			},
			{
				"x": 1.9989164839,
				"y": -0.1744607201,
				"z": -0.4666125739,
				"element": "C" 
			},
			{
				"x": -3.1953648471,
				"y": -3.4456120458,
				"z": -1.1735611643,
				"element": "H" 
			},
			{
				"x": -1.7437306551,
				"y": -4.2272760317,
				"z": -1.8124418768,
				"element": "H" 
			},
			{
				"x": -2.0948734887,
				"y": -2.5440476809,
				"z": -2.2270047878,
				"element": "H" 
			},
			{
				"x": -0.2888264864,
				"y": -2.7042800963,
				"z": -0.4685764789,
				"element": "H" 
			},
			{
				"x": -1.3832246462,
				"y": -3.5924979034,
				"z": 0.5892713476,
				"element": "H" 
			},
			{
				"x": -2.9305032368,
				"y": -1.5881640439,
				"z": 0.6605912407,
				"element": "H" 
			},
			{
				"x": -1.7829962078,
				"y": -0.6853761538,
				"z": -0.343800427,
				"element": "H" 
			},
			{
				"x": 1.1308715262,
				"y": -1.4622821217,
				"z": 1.5617032262,
				"element": "H" 
			},
			{
				"x": -0.4939054659,
				"y": 1.7526826896,
				"z": 0.8375711006,
				"element": "H" 
			},
			{
				"x": 0.5525686532,
				"y": 4.1937368704,
				"z": -1.606354893,
				"element": "H" 
			},
			{
				"x": -0.4874348183,
				"y": 3.8539101602,
				"z": -0.3334467331,
				"element": "H" 
			},
			{
				"x": 2.0952216457,
				"y": 2.5468428382,
				"z": -2.5204043059,
				"element": "H" 
			},
			{
				"x": 3.2365897764,
				"y": 0.3863635433,
				"z": -2.1286566513,
				"element": "H" 
			},
			{
				"x": 2.4943117853,
				"y": -1.1282509655,
				"z": -0.3084895493,
				"element": "H" 
			}
		],
		 "valence_orbital": [ 
			{
				"type": "occ",
				"energy": -0.30115,
				"method": "rhf"
			},
			{
				"type": "occ",
				"energy": -0.29664,
				"method": "rhf"
			},
			{
				"type": "occ",
				"energy": -0.29365,
				"method": "rhf"
			},
			{
				"type": "occ",
				"energy": -0.23184,
				"method": "rhf"
			},
			{
				"type": "occ",
				"energy": -0.20697,
				"method": "rhf"
			},
			{
				"type": "unocc",
				"energy": -0.00486,
				"method": "rhf"
			},
			{
				"type": "unocc",
				"energy": 0.0085,
				"method": "rhf"
			},
			{
				"type": "unocc",
				"energy": 0.05858,
				"method": "rhf"
			},
			{
				"type": "unocc",
				"energy": 0.07327,
				"method": "rhf"
			},
			{
				"type": "unocc",
				"energy": 0.07666,
				"method": "rhf"
			}
		],
		"cosmo_sigma_profile": { 
			"-0.025": 0.0,
			"-0.024": 0.0,
			"-0.023": 0.0,
			"-0.022": 0.0,
			"-0.021": 0.0,
			"-0.02": 0.0,
			"-0.019": 0.0,
			"-0.018": 0.0,
			"-0.017": 0.0,
			"-0.016": 0.0,
			"-0.015": 0.603685875859,
			"-0.014": 0.875355529258,
			"-0.013": 1.26712533879,
			"-0.012": 3.97324989905,
			"-0.011": 3.84489157569,
			"-0.01": 4.25855619843,
			"-0.009": 4.56236429841,
			"-0.008": 6.045186948,
			"-0.007": 6.95462795425,
			"-0.006": 10.6005368519,
			"-0.005": 11.6901983619,
			"-0.004": 18.5663387911,
			"-0.003": 21.4506877129,
			"-0.002": 20.1189102115,
			"-0.001": 19.1553699626,
			"0.0": 16.7069562493,
			"0.001": 10.907057495,
			"0.002": 7.84329019494,
			"0.003": 9.40471991832,
			"0.004": 9.77165874742,
			"0.005": 13.3975204504,
			"0.006": 12.8784414479,
			"0.007": 6.2837007199,
			"0.008": 5.06988331305,
			"0.009": 4.57295432931,
			"0.01": 6.78621376432,
			"0.011": 10.5727004738,
			"0.012": 5.05092165246,
			"0.013": 0.593234519934,
			"0.014": 0.4656333224,
			"0.015": 0.124003576842,
			"0.016": 0.0,
			"0.017": 0.0,
			"0.018": 0.0,
			"0.019": 0.0,
			"0.02": 0.0,
			"0.021": 0.0,
			"0.022": 0.0,
			"0.023": 0.0,
			"0.024": 0.0,
			"0.025": 0.0
		}
	}
}
