{
	 "smiles": "ClC1=C(CS(Cl)(=O)=O)C=CC=C1", 
	 "Tm": 334.15, 
	 "num_atms": 18, 
	 "gaussian": { 
		 "optdone": 1, 
		 "sigma_profile": "yes", 
		 "theory": "DFT", 
		 "functional": "B3LYP", 
		 "basiset": "6-31G**", 
		 "properties": { 
			 "R2extent": 3895.1126, 
			 "electric_dipole_moment_norm": 5.31886394449, 
			 "electric_quadrupole_moment_norm": 15.3781408554, 
			 "total_energy": -1739.31664822, 
			 "HOMO_LUMO_gap": 0.17637, 
			 "cosmo_polarized_energy": -11.61, 
			 "cosmo_cavitation_energy": 27.12, 
			 "cosmo_dispersion_energy": -20.11, 
			 "cosmo_repulsion_energy": 1.55, 
			 "cosmo_total_nonelectrostatic_energy": 8.56, 
			 "SMD_solvation_energy": 2.95 
		},
		"coords": [
			{
				"x": -1.2729744461,
				"y": 2.6367053301,
				"z": -0.7387307326,
				"element": "Cl" 
			},
			{
				"x": 0.0439583876,
				"y": 1.4794075997,
				"z": -0.6375880958,
				"element": "C" 
			},
			{
				"x": -0.000195761,
				"y": 0.4203004919,
				"z": 0.2866513357,
				"element": "C" 
			},
			{
				"x": -1.1459904667,
				"y": 0.227168648,
				"z": 1.2252184583,
				"element": "C" 
			},
			{
				"x": -0.9930126287,
				"y": 1.1358593858,
				"z": 2.8311220738,
				"element": "S" 
			},
			{
				"x": 0.475734047,
				"y": -0.0785844491,
				"z": 3.8215034143,
				"element": "Cl" 
			},
			{
				"x": -2.2426075133,
				"y": 0.9563098934,
				"z": 3.5600919334,
				"element": "O" 
			},
			{
				"x": -0.3899844849,
				"y": 2.445709818,
				"z": 2.6342384476,
				"element": "O" 
			},
			{
				"x": 1.0749618646,
				"y": -0.4823964472,
				"z": 0.299194928,
				"element": "C" 
			},
			{
				"x": 2.1549351599,
				"y": -0.3359419597,
				"z": -0.5664056786,
				"element": "C" 
			},
			{
				"x": 2.1763534119,
				"y": 0.7264648956,
				"z": -1.4708868803,
				"element": "C" 
			},
			{
				"x": 1.119089199,
				"y": 1.6343622251,
				"z": -1.5112045108,
				"element": "C" 
			},
			{
				"x": -2.0878713318,
				"y": 0.6255475783,
				"z": 0.8398614954,
				"element": "H" 
			},
			{
				"x": -1.2882355567,
				"y": -0.8127421436,
				"z": 1.5229126677,
				"element": "H" 
			},
			{
				"x": 1.0556148871,
				"y": -1.3063030731,
				"z": 1.0057856079,
				"element": "H" 
			},
			{
				"x": 2.973601244,
				"y": -1.0474973214,
				"z": -0.535477223,
				"element": "H" 
			},
			{
				"x": 3.0129423357,
				"y": 0.8509641649,
				"z": -2.1515586001,
				"element": "H" 
			},
			{
				"x": 1.1210816522,
				"y": 2.4604653634,
				"z": -2.2131286407,
				"element": "H" 
			}
		],
		 "valence_orbital": [ 
			{
				"type": "occ",
				"energy": -0.33204,
				"method": "rhf"
			},
			{
				"type": "occ",
				"energy": -0.32878,
				"method": "rhf"
			},
			{
				"type": "occ",
				"energy": -0.31521,
				"method": "rhf"
			},
			{
				"type": "occ",
				"energy": -0.27989,
				"method": "rhf"
			},
			{
				"type": "occ",
				"energy": -0.26579,
				"method": "rhf"
			},
			{
				"type": "unocc",
				"energy": -0.08942,
				"method": "rhf"
			},
			{
				"type": "unocc",
				"energy": -0.04184,
				"method": "rhf"
			},
			{
				"type": "unocc",
				"energy": -0.03287,
				"method": "rhf"
			},
			{
				"type": "unocc",
				"energy": 0.01243,
				"method": "rhf"
			},
			{
				"type": "unocc",
				"energy": 0.04291,
				"method": "rhf"
			}
		],
		"cosmo_sigma_profile": { 
			"-0.025": 0.0,
			"-0.024": 0.0,
			"-0.023": 0.0,
			"-0.022": 0.0,
			"-0.021": 0.0,
			"-0.02": 0.0,
			"-0.019": 0.0,
			"-0.018": 0.0,
			"-0.017": 0.0,
			"-0.016": 0.0,
			"-0.015": 0.0,
			"-0.014": 0.0,
			"-0.013": 0.0,
			"-0.012": 0.0,
			"-0.011": 1.7417209087,
			"-0.01": 3.60842630602,
			"-0.009": 4.32720127559,
			"-0.008": 4.52726471727,
			"-0.007": 12.049081855,
			"-0.006": 13.1535712385,
			"-0.005": 10.1617204761,
			"-0.004": 8.45551558145,
			"-0.003": 8.60523446579,
			"-0.002": 10.4760621959,
			"-0.001": 12.75449272,
			"0.0": 16.7170169124,
			"0.001": 20.1725950966,
			"0.002": 22.7226157938,
			"0.003": 23.6006194571,
			"0.004": 17.086544678,
			"0.005": 4.35307384415,
			"0.006": 4.37063473603,
			"0.007": 6.34785092222,
			"0.008": 11.6277076397,
			"0.009": 5.1803843967,
			"0.01": 0.0232986048572,
			"0.011": 0.0,
			"0.012": 0.0,
			"0.013": 0.0,
			"0.014": 0.0,
			"0.015": 0.0,
			"0.016": 0.0,
			"0.017": 0.0,
			"0.018": 0.0,
			"0.019": 0.0,
			"0.02": 0.0,
			"0.021": 0.0,
			"0.022": 0.0,
			"0.023": 0.0,
			"0.024": 0.0,
			"0.025": 0.0
		}
	}
}
