{
	 "smiles": "CCC1N(CCNC1=O)C(N)=S", 
	 "Tm": 490.15, 
	 "num_atms": 25, 
	 "gaussian": { 
		 "optdone": 1, 
		 "sigma_profile": "yes", 
		 "theory": "DFT", 
		 "functional": "B3LYP", 
		 "basiset": "6-31G**", 
		 "properties": { 
			 "R2extent": 2668.9526, 
			 "electric_dipole_moment_norm": 4.47782164562, 
			 "electric_quadrupole_moment_norm": 29.6675636388, 
			 "total_energy": -912.271172503, 
			 "HOMO_LUMO_gap": 0.19598, 
			 "cosmo_polarized_energy": -22.55, 
			 "cosmo_cavitation_energy": 27.77, 
			 "cosmo_dispersion_energy": -20.8, 
			 "cosmo_repulsion_energy": 1.63, 
			 "cosmo_total_nonelectrostatic_energy": 8.59, 
			 "SMD_solvation_energy": 3.22 
		},
		"coords": [
			{
				"x": 1.1388402124,
				"y": 1.7481146592,
				"z": -0.9500186956,
				"element": "C" 
			},
			{
				"x": 1.2476228564,
				"y": 0.3040403185,
				"z": -0.4534833351,
				"element": "C" 
			},
			{
				"x": 0.2498795493,
				"y": -0.0927984373,
				"z": 0.6676208823,
				"element": "C" 
			},
			{
				"x": -1.1746158375,
				"y": -0.0075964323,
				"z": 0.2707523427,
				"element": "N" 
			},
			{
				"x": -1.8415100487,
				"y": -1.2083168252,
				"z": -0.2615499704,
				"element": "C" 
			},
			{
				"x": -0.8437722791,
				"y": -2.3141334255,
				"z": -0.5886275775,
				"element": "C" 
			},
			{
				"x": 0.0469522904,
				"y": -2.5278180459,
				"z": 0.5413332868,
				"element": "N" 
			},
			{
				"x": 0.6483933964,
				"y": -1.4888962503,
				"z": 1.1821184179,
				"element": "C" 
			},
			{
				"x": 1.4876560027,
				"y": -1.620114501,
				"z": 2.0605546253,
				"element": "O" 
			},
			{
				"x": -1.9752084318,
				"y": 1.0348760567,
				"z": 0.653131356,
				"element": "C" 
			},
			{
				"x": -1.3611595146,
				"y": 2.110326135,
				"z": 1.2459597635,
				"element": "N" 
			},
			{
				"x": -3.6532444853,
				"y": 1.0311848987,
				"z": 0.4725462064,
				"element": "S" 
			},
			{
				"x": 1.8425223343,
				"y": 1.9218870284,
				"z": -1.769727697,
				"element": "H" 
			},
			{
				"x": 0.135846308,
				"y": 1.9749146051,
				"z": -1.324459405,
				"element": "H" 
			},
			{
				"x": 1.391393297,
				"y": 2.4676307938,
				"z": -0.1609111949,
				"element": "H" 
			},
			{
				"x": 2.2523363303,
				"y": 0.1236267728,
				"z": -0.0548173104,
				"element": "H" 
			},
			{
				"x": 1.1211999023,
				"y": -0.3769641711,
				"z": -1.3028259759,
				"element": "H" 
			},
			{
				"x": 0.3981166508,
				"y": 0.5560539556,
				"z": 1.5326476204,
				"element": "H" 
			},
			{
				"x": -2.5602532495,
				"y": -1.5712825003,
				"z": 0.4807642844,
				"element": "H" 
			},
			{
				"x": -2.4143585012,
				"y": -0.939247487,
				"z": -1.1532028686,
				"element": "H" 
			},
			{
				"x": -1.4038000108,
				"y": -3.2332034524,
				"z": -0.7768698682,
				"element": "H" 
			},
			{
				"x": -0.2816887989,
				"y": -2.0860088158,
				"z": -1.5052184586,
				"element": "H" 
			},
			{
				"x": 0.3603565018,
				"y": -3.4548951228,
				"z": 0.7948063245,
				"element": "H" 
			},
			{
				"x": -0.414963307,
				"y": 2.3597258208,
				"z": 0.9998590329,
				"element": "H" 
			},
			{
				"x": -1.9872411679,
				"y": 2.8848944222,
				"z": 1.4088182142,
				"element": "H" 
			}
		],
		 "valence_orbital": [ 
			{
				"type": "occ",
				"energy": -0.27547,
				"method": "rhf"
			},
			{
				"type": "occ",
				"energy": -0.26806,
				"method": "rhf"
			},
			{
				"type": "occ",
				"energy": -0.25167,
				"method": "rhf"
			},
			{
				"type": "occ",
				"energy": -0.21328,
				"method": "rhf"
			},
			{
				"type": "occ",
				"energy": -0.20133,
				"method": "rhf"
			},
			{
				"type": "unocc",
				"energy": -0.00535,
				"method": "rhf"
			},
			{
				"type": "unocc",
				"energy": 0.01511,
				"method": "rhf"
			},
			{
				"type": "unocc",
				"energy": 0.05621,
				"method": "rhf"
			},
			{
				"type": "unocc",
				"energy": 0.07136,
				"method": "rhf"
			},
			{
				"type": "unocc",
				"energy": 0.08023,
				"method": "rhf"
			}
		],
		"cosmo_sigma_profile": { 
			"-0.025": 0.0,
			"-0.024": 0.0,
			"-0.023": 0.0,
			"-0.022": 0.0,
			"-0.021": 0.0,
			"-0.02": 0.0,
			"-0.019": 0.0,
			"-0.018": 0.0,
			"-0.017": 0.0,
			"-0.016": 0.0,
			"-0.015": 0.284722848507,
			"-0.014": 1.62322643668,
			"-0.013": 3.4598459135,
			"-0.012": 3.7929710339,
			"-0.011": 3.3058771661,
			"-0.01": 4.0358759376,
			"-0.009": 3.14054700014,
			"-0.008": 3.69206374036,
			"-0.007": 7.55920614522,
			"-0.006": 10.3308639996,
			"-0.005": 14.2999287506,
			"-0.004": 18.0571435922,
			"-0.003": 19.4809758435,
			"-0.002": 17.7853661492,
			"-0.001": 16.0738281104,
			"0.0": 12.7008337606,
			"0.001": 6.76138560785,
			"0.002": 4.8725975779,
			"0.003": 4.25652554355,
			"0.004": 4.62997221045,
			"0.005": 5.46839142519,
			"0.006": 5.13600198132,
			"0.007": 5.22774646888,
			"0.008": 5.99455767674,
			"0.009": 5.54522186037,
			"0.01": 6.76800202647,
			"0.011": 9.60412819831,
			"0.012": 5.7788068281,
			"0.013": 5.31215086095,
			"0.014": 4.37530464033,
			"0.015": 0.33274115052,
			"0.016": 0.0,
			"0.017": 0.0,
			"0.018": 0.0,
			"0.019": 0.0,
			"0.02": 0.0,
			"0.021": 0.0,
			"0.022": 0.0,
			"0.023": 0.0,
			"0.024": 0.0,
			"0.025": 0.0
		}
	}
}
