{
	 "smiles": "CC(C)C1=CC=C(C=C1)C1=NC=C(CSC2=NN=C(N)N2)S1", 
	 "Tm": 442.15, 
	 "num_atms": 39, 
	 "gaussian": { 
		 "optdone": 1, 
		 "sigma_profile": "yes", 
		 "theory": "DFT", 
		 "functional": "B3LYP", 
		 "basiset": "6-31G**", 
		 "properties": { 
			 "R2extent": 13399.2451, 
			 "electric_dipole_moment_norm": 3.99994861217, 
			 "electric_quadrupole_moment_norm": 24.2337090201, 
			 "total_energy": -1651.9633742, 
			 "HOMO_LUMO_gap": 0.15729, 
			 "cosmo_polarized_energy": -25.39, 
			 "cosmo_cavitation_energy": 46.21, 
			 "cosmo_dispersion_energy": -33.7, 
			 "cosmo_repulsion_energy": 2.52, 
			 "cosmo_total_nonelectrostatic_energy": 15.03, 
			 "SMD_solvation_energy": 4.04 
		},
		"coords": [
			{
				"x": -2.4192817651,
				"y": -3.972145202,
				"z": -4.6727997016,
				"element": "C" 
			},
			{
				"x": -3.3190024402,
				"y": -3.6475456291,
				"z": -3.4649955148,
				"element": "C" 
			},
			{
				"x": -3.4230238878,
				"y": -4.8541868072,
				"z": -2.5125047022,
				"element": "C" 
			},
			{
				"x": -2.8604586234,
				"y": -2.3914642539,
				"z": -2.7381255475,
				"element": "C" 
			},
			{
				"x": -3.6913622414,
				"y": -1.2652844885,
				"z": -2.6554057402,
				"element": "C" 
			},
			{
				"x": -3.2883434847,
				"y": -0.1098711917,
				"z": -1.9932743078,
				"element": "C" 
			},
			{
				"x": -2.0240702212,
				"y": -0.0420225066,
				"z": -1.3844493363,
				"element": "C" 
			},
			{
				"x": -1.1856621072,
				"y": -1.166546157,
				"z": -1.4628490285,
				"element": "C" 
			},
			{
				"x": -1.5990742672,
				"y": -2.3165833353,
				"z": -2.1272885218,
				"element": "C" 
			},
			{
				"x": -1.6256628433,
				"y": 1.1897874575,
				"z": -0.6920347928,
				"element": "C" 
			},
			{
				"x": -2.3953746132,
				"y": 2.2474777568,
				"z": -0.5899790202,
				"element": "N" 
			},
			{
				"x": -1.7723771651,
				"y": 3.2464561202,
				"z": 0.1023178623,
				"element": "C" 
			},
			{
				"x": -0.5035303697,
				"y": 2.9925180537,
				"z": 0.5572216605,
				"element": "C" 
			},
			{
				"x": 0.3685366663,
				"y": 3.9074762315,
				"z": 1.3427331155,
				"element": "C" 
			},
			{
				"x": 1.7069116215,
				"y": 4.7693124142,
				"z": 0.3708181785,
				"element": "S" 
			},
			{
				"x": 2.9534150769,
				"y": 3.5288803443,
				"z": 0.4847914632,
				"element": "C" 
			},
			{
				"x": 2.9009462638,
				"y": 2.407307318,
				"z": 1.1560901362,
				"element": "N" 
			},
			{
				"x": 4.1027901484,
				"y": 1.7323207062,
				"z": 0.9426530146,
				"element": "N" 
			},
			{
				"x": 4.8364138755,
				"y": 2.4871548266,
				"z": 0.1654222502,
				"element": "C" 
			},
			{
				"x": 6.1478035395,
				"y": 2.2515491396,
				"z": -0.2297853412,
				"element": "N" 
			},
			{
				"x": 4.1592704586,
				"y": 3.6371286116,
				"z": -0.1715372163,
				"element": "N" 
			},
			{
				"x": -0.0504088696,
				"y": 1.3751027261,
				"z": 0.0825993471,
				"element": "S" 
			},
			{
				"x": -2.3717391506,
				"y": -3.1296667972,
				"z": -5.3696780141,
				"element": "H" 
			},
			{
				"x": -1.3958608295,
				"y": -4.2012914643,
				"z": -4.3560134038,
				"element": "H" 
			},
			{
				"x": -2.8014907903,
				"y": -4.8436147989,
				"z": -5.2156098495,
				"element": "H" 
			},
			{
				"x": -4.3268349089,
				"y": -3.4446271795,
				"z": -3.850461251,
				"element": "H" 
			},
			{
				"x": -4.0905274157,
				"y": -4.63963579,
				"z": -1.672294416,
				"element": "H" 
			},
			{
				"x": -3.8107299165,
				"y": -5.7315358183,
				"z": -3.0418079977,
				"element": "H" 
			},
			{
				"x": -2.4435718677,
				"y": -5.1209271134,
				"z": -2.1004606184,
				"element": "H" 
			},
			{
				"x": -4.6744112273,
				"y": -1.2954632067,
				"z": -3.1194871843,
				"element": "H" 
			},
			{
				"x": -3.9398746953,
				"y": 0.755022895,
				"z": -1.935027574,
				"element": "H" 
			},
			{
				"x": -0.2023243402,
				"y": -1.1474760138,
				"z": -1.0005633318,
				"element": "H" 
			},
			{
				"x": -0.9265849749,
				"y": -3.1691152801,
				"z": -2.168321981,
				"element": "H" 
			},
			{
				"x": -2.2966115319,
				"y": 4.1826835635,
				"z": 0.2668915537,
				"element": "H" 
			},
			{
				"x": 0.8814568523,
				"y": 3.4007847046,
				"z": 2.1617411777,
				"element": "H" 
			},
			{
				"x": -0.2280281954,
				"y": 4.7282428254,
				"z": 1.7475526862,
				"element": "H" 
			},
			{
				"x": 6.4686234798,
				"y": 1.3758783723,
				"z": 0.168804211,
				"element": "H" 
			},
			{
				"x": 6.2738525798,
				"y": 2.2388491686,
				"z": -1.2372009761,
				"element": "H" 
			},
			{
				"x": 4.5194021811,
				"y": 4.4350697979,
				"z": -0.6727812876,
				"element": "H" 
			}
		],
		 "valence_orbital": [ 
			{
				"type": "occ",
				"energy": -0.26367,
				"method": "rhf"
			},
			{
				"type": "occ",
				"energy": -0.25587,
				"method": "rhf"
			},
			{
				"type": "occ",
				"energy": -0.24821,
				"method": "rhf"
			},
			{
				"type": "occ",
				"energy": -0.21604,
				"method": "rhf"
			},
			{
				"type": "occ",
				"energy": -0.20637,
				"method": "rhf"
			},
			{
				"type": "unocc",
				"energy": -0.04908,
				"method": "rhf"
			},
			{
				"type": "unocc",
				"energy": -0.00277,
				"method": "rhf"
			},
			{
				"type": "unocc",
				"energy": 0.00296,
				"method": "rhf"
			},
			{
				"type": "unocc",
				"energy": 0.02407,
				"method": "rhf"
			},
			{
				"type": "unocc",
				"energy": 0.03225,
				"method": "rhf"
			}
		],
		"cosmo_sigma_profile": { 
			"-0.025": 0.0,
			"-0.024": 0.0,
			"-0.023": 0.0,
			"-0.022": 0.0,
			"-0.021": 0.0,
			"-0.02": 0.0,
			"-0.019": 0.0,
			"-0.018": 0.582427979199,
			"-0.017": 1.75500728618,
			"-0.016": 1.18057859488,
			"-0.015": 1.18090295103,
			"-0.014": 3.16159120168,
			"-0.013": 4.18117505363,
			"-0.012": 3.80392039365,
			"-0.011": 4.33522517205,
			"-0.01": 3.0758206797,
			"-0.009": 3.48469816229,
			"-0.008": 7.03440583311,
			"-0.007": 7.00214013469,
			"-0.006": 9.76507085281,
			"-0.005": 15.7970001632,
			"-0.004": 18.1226414282,
			"-0.003": 25.2753559604,
			"-0.002": 26.1972872093,
			"-0.001": 29.6504112223,
			"0.0": 29.9078556538,
			"0.001": 35.3881346086,
			"0.002": 28.3629244192,
			"0.003": 27.4132050291,
			"0.004": 22.0613313168,
			"0.005": 16.1013805396,
			"0.006": 7.99773062039,
			"0.007": 6.85315065258,
			"0.008": 5.15759621375,
			"0.009": 2.75764771824,
			"0.01": 4.04947521697,
			"0.011": 3.89298390435,
			"0.012": 3.3456640619,
			"0.013": 4.88641325742,
			"0.014": 2.80362859551,
			"0.015": 1.82942617832,
			"0.016": 1.3530731566,
			"0.017": 0.954808748453,
			"0.018": 0.066076705278,
			"0.019": 0.0,
			"0.02": 0.0,
			"0.021": 0.0,
			"0.022": 0.0,
			"0.023": 0.0,
			"0.024": 0.0,
			"0.025": 0.0
		}
	}
}
