{
	 "smiles": "COC1=C(C=C(Cl)C(C)=C1)S(N)(=O)=O", 
	 "Tm": 443.15, 
	 "num_atms": 24, 
	 "gaussian": { 
		 "optdone": 1, 
		 "sigma_profile": "yes", 
		 "theory": "DFT", 
		 "functional": "B3LYP", 
		 "basiset": "6-31G**", 
		 "properties": { 
			 "R2extent": 3745.1669, 
			 "electric_dipole_moment_norm": 6.12057320273, 
			 "electric_quadrupole_moment_norm": 9.14713166025, 
			 "total_energy": -1449.60449673, 
			 "HOMO_LUMO_gap": 0.2088, 
			 "cosmo_polarized_energy": -16.51, 
			 "cosmo_cavitation_energy": 30.4, 
			 "cosmo_dispersion_energy": -22.67, 
			 "cosmo_repulsion_energy": 1.74, 
			 "cosmo_total_nonelectrostatic_energy": 9.47, 
			 "SMD_solvation_energy": 5.31 
		},
		"coords": [
			{
				"x": 1.8729232673,
				"y": -0.2689881184,
				"z": 2.796208409,
				"element": "C" 
			},
			{
				"x": 0.7953568828,
				"y": -1.0267805869,
				"z": 2.2111983828,
				"element": "O" 
			},
			{
				"x": 0.6512165089,
				"y": -0.8938538748,
				"z": 0.8490910661,
				"element": "C" 
			},
			{
				"x": -0.4042070556,
				"y": -0.131522133,
				"z": 0.332692835,
				"element": "C" 
			},
			{
				"x": -0.6133251376,
				"y": -0.0582576009,
				"z": -1.0430379319,
				"element": "C" 
			},
			{
				"x": 0.2472177067,
				"y": -0.741401642,
				"z": -1.8981771088,
				"element": "C" 
			},
			{
				"x": -0.0382754567,
				"y": -0.6268061675,
				"z": -3.6291623588,
				"element": "Cl" 
			},
			{
				"x": 1.3194432239,
				"y": -1.5129305528,
				"z": -1.4175312507,
				"element": "C" 
			},
			{
				"x": 2.2442167308,
				"y": -2.2590945713,
				"z": -2.3426962055,
				"element": "C" 
			},
			{
				"x": 1.4933185803,
				"y": -1.5755424983,
				"z": -0.028885421,
				"element": "C" 
			},
			{
				"x": -1.4771644861,
				"y": 0.8069018074,
				"z": 1.4328387661,
				"element": "S" 
			},
			{
				"x": -2.1051910732,
				"y": -0.3004662674,
				"z": 2.5218759602,
				"element": "N" 
			},
			{
				"x": -2.6020442247,
				"y": 1.2872019479,
				"z": 0.6312816476,
				"element": "O" 
			},
			{
				"x": -0.6278342958,
				"y": 1.7179485872,
				"z": 2.199282227,
				"element": "O" 
			},
			{
				"x": 2.8284107246,
				"y": -0.5273491209,
				"z": 2.3266684767,
				"element": "H" 
			},
			{
				"x": 1.6753330341,
				"y": 0.8017776016,
				"z": 2.6984561483,
				"element": "H" 
			},
			{
				"x": 1.8992347702,
				"y": -0.5481806535,
				"z": 3.8504367481,
				"element": "H" 
			},
			{
				"x": -1.4381522631,
				"y": 0.5296820742,
				"z": -1.4285322212,
				"element": "H" 
			},
			{
				"x": 1.692370325,
				"y": -2.9766967893,
				"z": -2.9588137498,
				"element": "H" 
			},
			{
				"x": 2.7480789165,
				"y": -1.5736551521,
				"z": -3.0322606576,
				"element": "H" 
			},
			{
				"x": 3.0054444976,
				"y": -2.8020519229,
				"z": -1.7780960639,
				"element": "H" 
			},
			{
				"x": 2.2936196515,
				"y": -2.1821469216,
				"z": 0.3843903728,
				"element": "H" 
			},
			{
				"x": -1.3543953495,
				"y": -0.8114702569,
				"z": 2.982292117,
				"element": "H" 
			},
			{
				"x": -2.784495478,
				"y": -0.9117171878,
				"z": 2.0779798128,
				"element": "H" 
			}
		],
		 "valence_orbital": [ 
			{
				"type": "occ",
				"energy": -0.30839,
				"method": "rhf"
			},
			{
				"type": "occ",
				"energy": -0.30274,
				"method": "rhf"
			},
			{
				"type": "occ",
				"energy": -0.29457,
				"method": "rhf"
			},
			{
				"type": "occ",
				"energy": -0.27502,
				"method": "rhf"
			},
			{
				"type": "occ",
				"energy": -0.25315,
				"method": "rhf"
			},
			{
				"type": "unocc",
				"energy": -0.04435,
				"method": "rhf"
			},
			{
				"type": "unocc",
				"energy": -0.03135,
				"method": "rhf"
			},
			{
				"type": "unocc",
				"energy": 0.01561,
				"method": "rhf"
			},
			{
				"type": "unocc",
				"energy": 0.06192,
				"method": "rhf"
			},
			{
				"type": "unocc",
				"energy": 0.06933,
				"method": "rhf"
			}
		],
		"cosmo_sigma_profile": { 
			"-0.025": 0.0,
			"-0.024": 0.0,
			"-0.023": 0.0,
			"-0.022": 0.0,
			"-0.021": 0.0,
			"-0.02": 0.0,
			"-0.019": 0.0,
			"-0.018": 0.0,
			"-0.017": 0.0,
			"-0.016": 0.166250213992,
			"-0.015": 1.3870076502,
			"-0.014": 1.63568259027,
			"-0.013": 1.03681686618,
			"-0.012": 2.28020575049,
			"-0.011": 2.42642114103,
			"-0.01": 1.33995391714,
			"-0.009": 1.80912810845,
			"-0.008": 2.70637678056,
			"-0.007": 6.46003048141,
			"-0.006": 9.31537657052,
			"-0.005": 13.5407445695,
			"-0.004": 17.2329382209,
			"-0.003": 21.2612668073,
			"-0.002": 19.5329522352,
			"-0.001": 20.1039564024,
			"0.0": 19.1459681228,
			"0.001": 22.1882398976,
			"0.002": 11.3492000814,
			"0.003": 11.8766025613,
			"0.004": 11.6619411586,
			"0.005": 6.18791144673,
			"0.006": 3.37411099458,
			"0.007": 4.82719466439,
			"0.008": 5.52398325129,
			"0.009": 4.96320207516,
			"0.01": 7.35932604117,
			"0.011": 9.28287379904,
			"0.012": 3.67537026256,
			"0.013": 0.224945219855,
			"0.014": 0.0,
			"0.015": 0.0,
			"0.016": 0.0,
			"0.017": 0.0,
			"0.018": 0.0,
			"0.019": 0.0,
			"0.02": 0.0,
			"0.021": 0.0,
			"0.022": 0.0,
			"0.023": 0.0,
			"0.024": 0.0,
			"0.025": 0.0
		}
	}
}
