{
	 "smiles": "COC1=CC=C(NC(=O)CS)C=C1", 
	 "Tm": 391.15, 
	 "num_atms": 24, 
	 "gaussian": { 
		 "optdone": 1, 
		 "sigma_profile": "yes", 
		 "theory": "DFT", 
		 "functional": "B3LYP", 
		 "basiset": "6-31G**", 
		 "properties": { 
			 "R2extent": 4717.571, 
			 "electric_dipole_moment_norm": 5.78655347249, 
			 "electric_quadrupole_moment_norm": 18.3278520269, 
			 "total_energy": -952.96592594, 
			 "HOMO_LUMO_gap": 0.19986, 
			 "cosmo_polarized_energy": -15.58, 
			 "cosmo_cavitation_energy": 29.63, 
			 "cosmo_dispersion_energy": -21.89, 
			 "cosmo_repulsion_energy": 1.71, 
			 "cosmo_total_nonelectrostatic_energy": 9.45, 
			 "SMD_solvation_energy": 6.16 
		},
		"coords": [
			{
				"x": 2.3063087015,
				"y": -2.244208154,
				"z": -1.9221737377,
				"element": "C" 
			},
			{
				"x": 1.9841386365,
				"y": -2.1641857649,
				"z": -0.5424959906,
				"element": "O" 
			},
			{
				"x": 1.3988272683,
				"y": -1.0223643629,
				"z": -0.0808975818,
				"element": "C" 
			},
			{
				"x": 1.1135046395,
				"y": -0.9946519647,
				"z": 1.2925540978,
				"element": "C" 
			},
			{
				"x": 0.530769001,
				"y": 0.1259778621,
				"z": 1.8697612999,
				"element": "C" 
			},
			{
				"x": 0.1843270932,
				"y": 1.2328974087,
				"z": 1.0777523533,
				"element": "C" 
			},
			{
				"x": -0.3932363428,
				"y": 2.4044771705,
				"z": 1.6406522596,
				"element": "N" 
			},
			{
				"x": -1.4676590976,
				"y": 2.5612011695,
				"z": 2.487526005,
				"element": "C" 
			},
			{
				"x": -1.7586419557,
				"y": 3.662816135,
				"z": 2.9309692739,
				"element": "O" 
			},
			{
				"x": -2.3042244248,
				"y": 1.3306729865,
				"z": 2.8210560541,
				"element": "C" 
			},
			{
				"x": -2.0251377106,
				"y": 0.8866423527,
				"z": 4.5972836193,
				"element": "S" 
			},
			{
				"x": 0.4695032534,
				"y": 1.2003113266,
				"z": -0.2898142327,
				"element": "C" 
			},
			{
				"x": 1.0825712738,
				"y": 0.088995423,
				"z": -0.8718610677,
				"element": "C" 
			},
			{
				"x": 2.7613822654,
				"y": -3.2247671503,
				"z": -2.0689287365,
				"element": "H" 
			},
			{
				"x": 1.4112886951,
				"y": -2.1644607412,
				"z": -2.5526694336,
				"element": "H" 
			},
			{
				"x": 3.0229667201,
				"y": -1.4666340729,
				"z": -2.2165941204,
				"element": "H" 
			},
			{
				"x": 1.3803855809,
				"y": -1.8573099366,
				"z": 1.8940846045,
				"element": "H" 
			},
			{
				"x": 0.3489875961,
				"y": 0.1537396909,
				"z": 2.9398289411,
				"element": "H" 
			},
			{
				"x": 0.0377019366,
				"y": 3.292884268,
				"z": 1.413015254,
				"element": "H" 
			},
			{
				"x": -2.0628836646,
				"y": 0.4760402224,
				"z": 2.1900007125,
				"element": "H" 
			},
			{
				"x": -3.3493881783,
				"y": 1.6146976255,
				"z": 2.6858239055,
				"element": "H" 
			},
			{
				"x": -2.525236493,
				"y": -0.3621172464,
				"z": 4.5040231028,
				"element": "H" 
			},
			{
				"x": 0.2048679049,
				"y": 2.0523037455,
				"z": -0.909834247,
				"element": "H" 
			},
			{
				"x": 1.294377301,
				"y": 0.0984420071,
				"z": -1.9342623352,
				"element": "H" 
			}
		],
		 "valence_orbital": [ 
			{
				"type": "occ",
				"energy": -0.27676,
				"method": "rhf"
			},
			{
				"type": "occ",
				"energy": -0.26418,
				"method": "rhf"
			},
			{
				"type": "occ",
				"energy": -0.2554,
				"method": "rhf"
			},
			{
				"type": "occ",
				"energy": -0.24114,
				"method": "rhf"
			},
			{
				"type": "occ",
				"energy": -0.21763,
				"method": "rhf"
			},
			{
				"type": "unocc",
				"energy": -0.01777,
				"method": "rhf"
			},
			{
				"type": "unocc",
				"energy": -0.01115,
				"method": "rhf"
			},
			{
				"type": "unocc",
				"energy": 0.01132,
				"method": "rhf"
			},
			{
				"type": "unocc",
				"energy": 0.02992,
				"method": "rhf"
			},
			{
				"type": "unocc",
				"energy": 0.07876,
				"method": "rhf"
			}
		],
		"cosmo_sigma_profile": { 
			"-0.025": 0.0,
			"-0.024": 0.0,
			"-0.023": 0.0,
			"-0.022": 0.0,
			"-0.021": 0.0,
			"-0.02": 0.0,
			"-0.019": 0.0,
			"-0.018": 0.0,
			"-0.017": 0.0,
			"-0.016": 0.0,
			"-0.015": 0.0258363007879,
			"-0.014": 0.814265483016,
			"-0.013": 1.20373846319,
			"-0.012": 0.834042405624,
			"-0.011": 0.886561684215,
			"-0.01": 2.87949040254,
			"-0.009": 3.62197575714,
			"-0.008": 3.17090787335,
			"-0.007": 7.03883304675,
			"-0.006": 15.2033157088,
			"-0.005": 19.9330770223,
			"-0.004": 21.8550044116,
			"-0.003": 18.2122580027,
			"-0.002": 14.3441994939,
			"-0.001": 11.1947473241,
			"0.0": 12.5739184059,
			"0.001": 13.2338696939,
			"0.002": 11.6747188207,
			"0.003": 13.9062519585,
			"0.004": 17.5070516538,
			"0.005": 10.8783739636,
			"0.006": 4.57200462292,
			"0.007": 5.52939785749,
			"0.008": 5.43147750371,
			"0.009": 4.59618121699,
			"0.01": 3.65571240999,
			"0.011": 1.74422649402,
			"0.012": 2.48077454933,
			"0.013": 5.49160824379,
			"0.014": 2.89214897191,
			"0.015": 0.16210837151,
			"0.016": 0.0,
			"0.017": 0.0,
			"0.018": 0.0,
			"0.019": 0.0,
			"0.02": 0.0,
			"0.021": 0.0,
			"0.022": 0.0,
			"0.023": 0.0,
			"0.024": 0.0,
			"0.025": 0.0
		}
	}
}
