{
	 "smiles": "OC(=O)CCN1C(=O)C2C3CCC(O3)C2C1=O", 
	 "Tm": 459.15, 
	 "num_atms": 30, 
	 "gaussian": { 
		 "optdone": 1, 
		 "sigma_profile": "yes", 
		 "theory": "DFT", 
		 "functional": "B3LYP", 
		 "basiset": "6-31G**", 
		 "properties": { 
			 "R2extent": 4127.834, 
			 "electric_dipole_moment_norm": 5.26462651382, 
			 "electric_quadrupole_moment_norm": 18.8777572603, 
			 "total_energy": -857.901920274, 
			 "HOMO_LUMO_gap": 0.21323, 
			 "cosmo_polarized_energy": -19.44, 
			 "cosmo_cavitation_energy": 31.31, 
			 "cosmo_dispersion_energy": -22.83, 
			 "cosmo_repulsion_energy": 1.76, 
			 "cosmo_total_nonelectrostatic_energy": 10.25, 
			 "SMD_solvation_energy": 6.3 
		},
		"coords": [
			{
				"x": 3.1049708629,
				"y": 0.4229201245,
				"z": 1.85598794,
				"element": "O" 
			},
			{
				"x": 3.8145237615,
				"y": 0.2965687155,
				"z": 0.714478987,
				"element": "C" 
			},
			{
				"x": 4.6004989217,
				"y": 1.1447683766,
				"z": 0.3669985592,
				"element": "O" 
			},
			{
				"x": 3.5427708478,
				"y": -0.9673681845,
				"z": -0.104045477,
				"element": "C" 
			},
			{
				"x": 2.5443317411,
				"y": -0.73643676,
				"z": -1.2490621655,
				"element": "C" 
			},
			{
				"x": 1.2327176082,
				"y": -0.193367205,
				"z": -0.8594082273,
				"element": "N" 
			},
			{
				"x": 0.5105679056,
				"y": -0.4890454597,
				"z": 0.2880498049,
				"element": "C" 
			},
			{
				"x": 0.9058557417,
				"y": -1.1930441321,
				"z": 1.2098844076,
				"element": "O" 
			},
			{
				"x": -0.8307187139,
				"y": 0.2152967186,
				"z": 0.2128433889,
				"element": "C" 
			},
			{
				"x": -2.0979458053,
				"y": -0.6822249304,
				"z": 0.0397684994,
				"element": "C" 
			},
			{
				"x": -1.8463517817,
				"y": -1.8320493408,
				"z": -0.9599259099,
				"element": "C" 
			},
			{
				"x": -1.8372215391,
				"y": -1.0580383827,
				"z": -2.3144536523,
				"element": "C" 
			},
			{
				"x": -2.0793375291,
				"y": 0.3887880363,
				"z": -1.8326657324,
				"element": "C" 
			},
			{
				"x": -2.9526282468,
				"y": 0.201116549,
				"z": -0.7053570451,
				"element": "O" 
			},
			{
				"x": -0.8148192796,
				"y": 0.978534969,
				"z": -1.1297237646,
				"element": "C" 
			},
			{
				"x": 0.5305911457,
				"y": 0.6526507553,
				"z": -1.7499169671,
				"element": "C" 
			},
			{
				"x": 0.9681684239,
				"y": 1.0115031528,
				"z": -2.8204315006,
				"element": "O" 
			},
			{
				"x": 2.4557528366,
				"y": -0.3028592062,
				"z": 1.9241533363,
				"element": "H" 
			},
			{
				"x": 4.4897090671,
				"y": -1.2490830317,
				"z": -0.5719305747,
				"element": "H" 
			},
			{
				"x": 3.2110828129,
				"y": -1.7897941948,
				"z": 0.5313901011,
				"element": "H" 
			},
			{
				"x": 2.9505809658,
				"y": -0.0195992654,
				"z": -1.9657461246,
				"element": "H" 
			},
			{
				"x": 2.385406876,
				"y": -1.681692971,
				"z": -1.7807542027,
				"element": "H" 
			},
			{
				"x": -0.9438171821,
				"y": 0.8578653264,
				"z": 1.0891807183,
				"element": "H" 
			},
			{
				"x": -2.5785726526,
				"y": -0.964570051,
				"z": 0.975513631,
				"element": "H" 
			},
			{
				"x": -0.9238371348,
				"y": -2.3833437582,
				"z": -0.7597342124,
				"element": "H" 
			},
			{
				"x": -2.6724632384,
				"y": -2.5453271653,
				"z": -0.9162310329,
				"element": "H" 
			},
			{
				"x": -0.911758775,
				"y": -1.17331116,
				"z": -2.8841772675,
				"element": "H" 
			},
			{
				"x": -2.6620520057,
				"y": -1.3746325633,
				"z": -2.9567403509,
				"element": "H" 
			},
			{
				"x": -2.5437141594,
				"y": 1.0574172834,
				"z": -2.5562264241,
				"element": "H" 
			},
			{
				"x": -0.9125914751,
				"y": 2.0615577546,
				"z": -1.0250187423,
				"element": "H" 
			}
		],
		 "valence_orbital": [ 
			{
				"type": "occ",
				"energy": -0.30641,
				"method": "rhf"
			},
			{
				"type": "occ",
				"energy": -0.29896,
				"method": "rhf"
			},
			{
				"type": "occ",
				"energy": -0.28427,
				"method": "rhf"
			},
			{
				"type": "occ",
				"energy": -0.28206,
				"method": "rhf"
			},
			{
				"type": "occ",
				"energy": -0.26337,
				"method": "rhf"
			},
			{
				"type": "unocc",
				"energy": -0.05014,
				"method": "rhf"
			},
			{
				"type": "unocc",
				"energy": -0.0055,
				"method": "rhf"
			},
			{
				"type": "unocc",
				"energy": 0.01012,
				"method": "rhf"
			},
			{
				"type": "unocc",
				"energy": 0.06378,
				"method": "rhf"
			},
			{
				"type": "unocc",
				"energy": 0.07497,
				"method": "rhf"
			}
		],
		"cosmo_sigma_profile": { 
			"-0.025": 0.0,
			"-0.024": 0.0,
			"-0.023": 0.0,
			"-0.022": 0.0,
			"-0.021": 0.0,
			"-0.02": 0.0,
			"-0.019": 0.0,
			"-0.018": 0.0,
			"-0.017": 0.0,
			"-0.016": 0.0,
			"-0.015": 0.0,
			"-0.014": 0.0,
			"-0.013": 0.0,
			"-0.012": 0.0,
			"-0.011": 0.299651818334,
			"-0.01": 0.769630440483,
			"-0.009": 1.18941177413,
			"-0.008": 5.7947111372,
			"-0.007": 21.932212953,
			"-0.006": 24.1828213121,
			"-0.005": 21.4464746521,
			"-0.004": 24.180958072,
			"-0.003": 18.6620763475,
			"-0.002": 14.9721354221,
			"-0.001": 14.3952384616,
			"0.0": 9.42382251158,
			"0.001": 7.02543949895,
			"0.002": 5.46877450829,
			"0.003": 5.43234751226,
			"0.004": 5.73605587744,
			"0.005": 5.44059044587,
			"0.006": 6.12364308471,
			"0.007": 4.97364389593,
			"0.008": 4.969418805,
			"0.009": 8.12386245867,
			"0.01": 10.1426476399,
			"0.011": 12.4741757641,
			"0.012": 9.19969745207,
			"0.013": 3.77607527388,
			"0.014": 0.206458496792,
			"0.015": 0.0,
			"0.016": 0.0,
			"0.017": 0.0,
			"0.018": 0.0,
			"0.019": 0.0,
			"0.02": 0.0,
			"0.021": 0.0,
			"0.022": 0.0,
			"0.023": 0.0,
			"0.024": 0.0,
			"0.025": 0.0
		}
	}
}
