{
	 "smiles": "CNC(=O)C1=CC2=C(N1)C=CC=C2", 
	 "Tm": 495.15, 
	 "num_atms": 23, 
	 "gaussian": { 
		 "optdone": 1, 
		 "sigma_profile": "yes", 
		 "theory": "DFT", 
		 "functional": "B3LYP", 
		 "basiset": "6-31G**", 
		 "properties": { 
			 "R2extent": 3029.5381, 
			 "electric_dipole_moment_norm": 4.00180756909, 
			 "electric_quadrupole_moment_norm": 17.6702271502, 
			 "total_energy": -571.831343015, 
			 "HOMO_LUMO_gap": 0.17184, 
			 "cosmo_polarized_energy": -14.94, 
			 "cosmo_cavitation_energy": 27.01, 
			 "cosmo_dispersion_energy": -19.88, 
			 "cosmo_repulsion_energy": 1.58, 
			 "cosmo_total_nonelectrostatic_energy": 8.71, 
			 "SMD_solvation_energy": 4.76 
		},
		"coords": [
			{
				"x": -2.1890715352,
				"y": 2.4814580759,
				"z": 1.3782343828,
				"element": "C" 
			},
			{
				"x": -2.5337026266,
				"y": 2.6883804959,
				"z": -0.0288272169,
				"element": "N" 
			},
			{
				"x": -2.4792445757,
				"y": 1.7155588156,
				"z": -1.0192518789,
				"element": "C" 
			},
			{
				"x": -3.3372042288,
				"y": 1.6522523934,
				"z": -1.8930378479,
				"element": "O" 
			},
			{
				"x": -1.3061080031,
				"y": 0.812069129,
				"z": -1.0355574379,
				"element": "C" 
			},
			{
				"x": -1.2403031989,
				"y": -0.447815566,
				"z": -1.5828408233,
				"element": "C" 
			},
			{
				"x": 0.100160154,
				"y": -0.9207510832,
				"z": -1.4157361368,
				"element": "C" 
			},
			{
				"x": 0.8273069356,
				"y": 0.1182200386,
				"z": -0.7666614545,
				"element": "C" 
			},
			{
				"x": -0.0568006662,
				"y": 1.1470417933,
				"z": -0.5147211438,
				"element": "N" 
			},
			{
				"x": 2.1921643457,
				"y": 0.0053309354,
				"z": -0.475441116,
				"element": "C" 
			},
			{
				"x": 2.8258645864,
				"y": -1.1777753728,
				"z": -0.8333944026,
				"element": "C" 
			},
			{
				"x": 2.1223350376,
				"y": -2.2271319804,
				"z": -1.4648621609,
				"element": "C" 
			},
			{
				"x": 0.7714582541,
				"y": -2.1105134947,
				"z": -1.7568981923,
				"element": "C" 
			},
			{
				"x": -1.3934535772,
				"y": 1.7422583649,
				"z": 1.4662456242,
				"element": "H" 
			},
			{
				"x": -1.8400257022,
				"y": 3.419229773,
				"z": 1.8224237211,
				"element": "H" 
			},
			{
				"x": -3.0473111281,
				"y": 2.1223858377,
				"z": 1.9612152194,
				"element": "H" 
			},
			{
				"x": -3.3594951765,
				"y": 3.2596177327,
				"z": -0.1732646941,
				"element": "H" 
			},
			{
				"x": -2.0726368527,
				"y": -0.9625007553,
				"z": -2.0399369363,
				"element": "H" 
			},
			{
				"x": 0.2071556031,
				"y": 2.0845860285,
				"z": -0.254976832,
				"element": "H" 
			},
			{
				"x": 2.7352292321,
				"y": 0.8090759309,
				"z": 0.0136266613,
				"element": "H" 
			},
			{
				"x": 3.8839182925,
				"y": -1.2997499436,
				"z": -0.6208135483,
				"element": "H" 
			},
			{
				"x": 2.6531578161,
				"y": -3.1377977109,
				"z": -1.7259943696,
				"element": "H" 
			},
			{
				"x": 0.2378070141,
				"y": -2.9199294379,
				"z": -2.2468294166,
				"element": "H" 
			}
		],
		 "valence_orbital": [ 
			{
				"type": "occ",
				"energy": -0.28193,
				"method": "rhf"
			},
			{
				"type": "occ",
				"energy": -0.26719,
				"method": "rhf"
			},
			{
				"type": "occ",
				"energy": -0.24613,
				"method": "rhf"
			},
			{
				"type": "occ",
				"energy": -0.22598,
				"method": "rhf"
			},
			{
				"type": "occ",
				"energy": -0.20997,
				"method": "rhf"
			},
			{
				"type": "unocc",
				"energy": -0.03813,
				"method": "rhf"
			},
			{
				"type": "unocc",
				"energy": 0.01609,
				"method": "rhf"
			},
			{
				"type": "unocc",
				"energy": 0.03034,
				"method": "rhf"
			},
			{
				"type": "unocc",
				"energy": 0.07063,
				"method": "rhf"
			},
			{
				"type": "unocc",
				"energy": 0.09416,
				"method": "rhf"
			}
		],
		"cosmo_sigma_profile": { 
			"-0.025": 0.0,
			"-0.024": 0.0,
			"-0.023": 0.0,
			"-0.022": 0.0,
			"-0.021": 0.0,
			"-0.02": 0.0,
			"-0.019": 0.0,
			"-0.018": 0.0,
			"-0.017": 0.0,
			"-0.016": 0.250646554316,
			"-0.015": 0.902586543046,
			"-0.014": 1.14796295646,
			"-0.013": 1.64887406098,
			"-0.012": 1.77126713746,
			"-0.011": 2.21373873728,
			"-0.01": 2.26352979784,
			"-0.009": 2.66880866691,
			"-0.008": 2.31630128272,
			"-0.007": 2.98071149824,
			"-0.006": 8.01950799413,
			"-0.005": 16.5589023967,
			"-0.004": 18.4922969303,
			"-0.003": 20.9649926774,
			"-0.002": 18.5549291399,
			"-0.001": 11.7770713566,
			"0.0": 9.62450884529,
			"0.001": 8.99233419716,
			"0.002": 10.2271826117,
			"0.003": 13.5342992335,
			"0.004": 12.4687708095,
			"0.005": 15.2809321281,
			"0.006": 10.9730991665,
			"0.007": 4.0130626373,
			"0.008": 1.62780109671,
			"0.009": 1.18236653557,
			"0.01": 1.72133029899,
			"0.011": 1.69893809051,
			"0.012": 2.33484850005,
			"0.013": 4.92479230877,
			"0.014": 4.01531607703,
			"0.015": 0.28046083016,
			"0.016": 0.0,
			"0.017": 0.0,
			"0.018": 0.0,
			"0.019": 0.0,
			"0.02": 0.0,
			"0.021": 0.0,
			"0.022": 0.0,
			"0.023": 0.0,
			"0.024": 0.0,
			"0.025": 0.0
		}
	}
}
