{
	 "smiles": "CC1=C(C=CC(=C1)C#N)C(O)=O", 
	 "Tm": 466.15, 
	 "num_atms": 19, 
	 "gaussian": { 
		 "optdone": 1, 
		 "sigma_profile": "yes", 
		 "theory": "DFT", 
		 "functional": "B3LYP", 
		 "basiset": "6-31G**", 
		 "properties": { 
			 "R2extent": 2412.8308, 
			 "electric_dipole_moment_norm": 2.040719111, 
			 "electric_quadrupole_moment_norm": 28.4640703279, 
			 "total_energy": -552.370336955, 
			 "HOMO_LUMO_gap": 0.19206, 
			 "cosmo_polarized_energy": -17.18, 
			 "cosmo_cavitation_energy": 24.71, 
			 "cosmo_dispersion_energy": -17.49, 
			 "cosmo_repulsion_energy": 1.39, 
			 "cosmo_total_nonelectrostatic_energy": 8.61, 
			 "SMD_solvation_energy": 6.77 
		},
		"coords": [
			{
				"x": -1.1176964,
				"y": 0.147460501,
				"z": 1.5794411012,
				"element": "C" 
			},
			{
				"x": -0.3411468704,
				"y": 0.2903800002,
				"z": 0.2929637473,
				"element": "C" 
			},
			{
				"x": -0.2986274162,
				"y": -0.7215993187,
				"z": -0.6948749417,
				"element": "C" 
			},
			{
				"x": 0.4193606784,
				"y": -0.5188953711,
				"z": -1.8844314113,
				"element": "C" 
			},
			{
				"x": 1.1122427853,
				"y": 0.6621544484,
				"z": -2.1187753016,
				"element": "C" 
			},
			{
				"x": 1.0980852762,
				"y": 1.6607642335,
				"z": -1.1347519511,
				"element": "C" 
			},
			{
				"x": 0.3776103389,
				"y": 1.4649251698,
				"z": 0.0539269837,
				"element": "C" 
			},
			{
				"x": 1.8169308898,
				"y": 2.8850218346,
				"z": -1.3414709788,
				"element": "C" 
			},
			{
				"x": 2.4016197829,
				"y": 3.8762568394,
				"z": -1.5093477401,
				"element": "N" 
			},
			{
				"x": -1.0626858353,
				"y": -2.0031077499,
				"z": -0.5099608633,
				"element": "C" 
			},
			{
				"x": -0.4996933355,
				"y": -3.1154133938,
				"z": -1.0544158337,
				"element": "O" 
			},
			{
				"x": -2.1225577373,
				"y": -2.0842633102,
				"z": 0.0632806158,
				"element": "O" 
			},
			{
				"x": -2.1926664604,
				"y": 0.1320698902,
				"z": 1.3829988666,
				"element": "H" 
			},
			{
				"x": -0.8911472126,
				"y": 0.9758462181,
				"z": 2.2550095718,
				"element": "H" 
			},
			{
				"x": -0.8882582206,
				"y": -0.7919801424,
				"z": 2.0899512745,
				"element": "H" 
			},
			{
				"x": 0.4059863977,
				"y": -1.2809205033,
				"z": -2.6588376267,
				"element": "H" 
			},
			{
				"x": 1.6541455325,
				"y": 0.8160207554,
				"z": -3.0451722206,
				"element": "H" 
			},
			{
				"x": 0.3775626707,
				"y": 2.2500314036,
				"z": 0.8031424017,
				"element": "H" 
			},
			{
				"x": 0.4082351359,
				"y": -2.9289515048,
				"z": -1.3320756937,
				"element": "H" 
			}
		],
		 "valence_orbital": [ 
			{
				"type": "occ",
				"energy": -0.34277,
				"method": "rhf"
			},
			{
				"type": "occ",
				"energy": -0.33047,
				"method": "rhf"
			},
			{
				"type": "occ",
				"energy": -0.29198,
				"method": "rhf"
			},
			{
				"type": "occ",
				"energy": -0.28584,
				"method": "rhf"
			},
			{
				"type": "occ",
				"energy": -0.27633,
				"method": "rhf"
			},
			{
				"type": "unocc",
				"energy": -0.08427,
				"method": "rhf"
			},
			{
				"type": "unocc",
				"energy": -0.04146,
				"method": "rhf"
			},
			{
				"type": "unocc",
				"energy": 0.00455,
				"method": "rhf"
			},
			{
				"type": "unocc",
				"energy": 0.02434,
				"method": "rhf"
			},
			{
				"type": "unocc",
				"energy": 0.05499,
				"method": "rhf"
			}
		],
		"cosmo_sigma_profile": { 
			"-0.025": 0.0,
			"-0.024": 0.0,
			"-0.023": 0.0,
			"-0.022": 0.0,
			"-0.021": 0.0,
			"-0.02": 0.0,
			"-0.019": 0.42150019445,
			"-0.018": 0.98722908197,
			"-0.017": 0.934759807809,
			"-0.016": 1.07631176203,
			"-0.015": 0.776703099887,
			"-0.014": 0.707057814115,
			"-0.013": 1.46109750544,
			"-0.012": 1.38721581466,
			"-0.011": 0.776823715806,
			"-0.01": 1.02272449878,
			"-0.009": 2.78968056209,
			"-0.008": 7.16739683529,
			"-0.007": 8.89471869388,
			"-0.006": 8.47344986453,
			"-0.005": 9.10338999393,
			"-0.004": 10.7251466625,
			"-0.003": 12.2420662399,
			"-0.002": 14.9476657648,
			"-0.001": 18.1035359354,
			"0.0": 18.6754029177,
			"0.001": 14.2510074323,
			"0.002": 5.3357041438,
			"0.003": 3.94603149786,
			"0.004": 3.82133425199,
			"0.005": 5.65502588768,
			"0.006": 4.4265100603,
			"0.007": 5.52940756054,
			"0.008": 6.63706443224,
			"0.009": 6.81485847493,
			"0.01": 8.10383474104,
			"0.011": 7.42416962291,
			"0.012": 4.89650462807,
			"0.013": 1.34681284836,
			"0.014": 0.0,
			"0.015": 0.0,
			"0.016": 0.0,
			"0.017": 0.0,
			"0.018": 0.0,
			"0.019": 0.0,
			"0.02": 0.0,
			"0.021": 0.0,
			"0.022": 0.0,
			"0.023": 0.0,
			"0.024": 0.0,
			"0.025": 0.0
		}
	}
}
