{
	 "smiles": "[O-][N+](=O)C1=CC=C(C=C1)N1CCOCC1", 
	 "Tm": 425.15, 
	 "num_atms": 27, 
	 "gaussian": { 
		 "optdone": 1, 
		 "sigma_profile": "yes", 
		 "theory": "DFT", 
		 "functional": "B3LYP", 
		 "basiset": "6-31G**", 
		 "properties": { 
			 "R2extent": 4588.126, 
			 "electric_dipole_moment_norm": 6.49004439122, 
			 "electric_quadrupole_moment_norm": 27.5802241283, 
			 "total_energy": -723.34861628, 
			 "HOMO_LUMO_gap": 0.14723, 
			 "cosmo_polarized_energy": -15.28, 
			 "cosmo_cavitation_energy": 29.81, 
			 "cosmo_dispersion_energy": -22.41, 
			 "cosmo_repulsion_energy": 1.73, 
			 "cosmo_total_nonelectrostatic_energy": 9.14, 
			 "SMD_solvation_energy": 6.28 
		},
		"coords": [
			{
				"x": -0.9570465634,
				"y": -4.4753173419,
				"z": -2.317885089,
				"element": "O" 
			},
			{
				"x": -1.165684223,
				"y": -3.3231436642,
				"z": -2.7100574498,
				"element": "N" 
			},
			{
				"x": -1.7478321872,
				"y": -3.0425428689,
				"z": -3.7622949278,
				"element": "O" 
			},
			{
				"x": -0.6958158954,
				"y": -2.2263636693,
				"z": -1.8793531967,
				"element": "C" 
			},
			{
				"x": -0.901884541,
				"y": -0.9083642446,
				"z": -2.2917912976,
				"element": "C" 
			},
			{
				"x": -0.4531823489,
				"y": 0.1377228746,
				"z": -1.5031401767,
				"element": "C" 
			},
			{
				"x": 0.2125046296,
				"y": -0.1060702293,
				"z": -0.2734438239,
				"element": "C" 
			},
			{
				"x": 0.4038986567,
				"y": -1.4570346112,
				"z": 0.1176767733,
				"element": "C" 
			},
			{
				"x": -0.0424497522,
				"y": -2.5002507861,
				"z": -0.6761040296,
				"element": "C" 
			},
			{
				"x": 0.6570940283,
				"y": 0.9320705396,
				"z": 0.512879347,
				"element": "N" 
			},
			{
				"x": 1.5712128489,
				"y": 0.7176890105,
				"z": 1.6347679144,
				"element": "C" 
			},
			{
				"x": 2.3919131886,
				"y": 1.9821305352,
				"z": 1.8822781544,
				"element": "C" 
			},
			{
				"x": 1.5955902121,
				"y": 3.1244306292,
				"z": 2.1735233808,
				"element": "O" 
			},
			{
				"x": 0.3014009128,
				"y": 3.1035730069,
				"z": 1.5831169693,
				"element": "C" 
			},
			{
				"x": 0.2437417498,
				"y": 2.3152053935,
				"z": 0.2759220218,
				"element": "C" 
			},
			{
				"x": -1.4019411006,
				"y": -0.7231754629,
				"z": -3.2345265497,
				"element": "H" 
			},
			{
				"x": -0.5928227829,
				"y": 1.1517359713,
				"z": -1.8567784617,
				"element": "H" 
			},
			{
				"x": 0.8781646512,
				"y": -1.6898524545,
				"z": 1.0630102447,
				"element": "H" 
			},
			{
				"x": 0.0952303963,
				"y": -3.5311878684,
				"z": -0.3739289879,
				"element": "H" 
			},
			{
				"x": 2.2641250237,
				"y": -0.0947288558,
				"z": 1.3928335829,
				"element": "H" 
			},
			{
				"x": 1.0317720114,
				"y": 0.4306601517,
				"z": 2.5504415719,
				"element": "H" 
			},
			{
				"x": 3.0550990381,
				"y": 1.8266343131,
				"z": 2.7393134035,
				"element": "H" 
			},
			{
				"x": 3.0227535773,
				"y": 2.1755084267,
				"z": 1.0009436676,
				"element": "H" 
			},
			{
				"x": 0.017357262,
				"y": 4.1442177365,
				"z": 1.3963450136,
				"element": "H" 
			},
			{
				"x": -0.4291722945,
				"y": 2.6779863654,
				"z": 2.288269098,
				"element": "H" 
			},
			{
				"x": -0.789661953,
				"y": 2.3320236822,
				"z": -0.0852654871,
				"element": "H" 
			},
			{
				"x": 0.8691354553,
				"y": 2.8019434206,
				"z": -0.4881516655,
				"element": "H" 
			}
		],
		 "valence_orbital": [ 
			{
				"type": "occ",
				"energy": -0.29041,
				"method": "rhf"
			},
			{
				"type": "occ",
				"energy": -0.27208,
				"method": "rhf"
			},
			{
				"type": "occ",
				"energy": -0.27085,
				"method": "rhf"
			},
			{
				"type": "occ",
				"energy": -0.26851,
				"method": "rhf"
			},
			{
				"type": "occ",
				"energy": -0.21723,
				"method": "rhf"
			},
			{
				"type": "unocc",
				"energy": -0.07,
				"method": "rhf"
			},
			{
				"type": "unocc",
				"energy": -0.01953,
				"method": "rhf"
			},
			{
				"type": "unocc",
				"energy": 0.02223,
				"method": "rhf"
			},
			{
				"type": "unocc",
				"energy": 0.062,
				"method": "rhf"
			},
			{
				"type": "unocc",
				"energy": 0.08745,
				"method": "rhf"
			}
		],
		"cosmo_sigma_profile": { 
			"-0.025": 0.0,
			"-0.024": 0.0,
			"-0.023": 0.0,
			"-0.022": 0.0,
			"-0.021": 0.0,
			"-0.02": 0.0,
			"-0.019": 0.0,
			"-0.018": 0.0,
			"-0.017": 0.0,
			"-0.016": 0.0,
			"-0.015": 0.0,
			"-0.014": 0.0,
			"-0.013": 0.0,
			"-0.012": 0.0,
			"-0.011": 0.0,
			"-0.01": 0.0,
			"-0.009": 0.0,
			"-0.008": 0.615617932914,
			"-0.007": 7.98058737804,
			"-0.006": 17.087403658,
			"-0.005": 28.1250999558,
			"-0.004": 30.0405717372,
			"-0.003": 18.5946159242,
			"-0.002": 12.7549409393,
			"-0.001": 12.2475794823,
			"0.0": 12.8927677333,
			"0.001": 13.8715095038,
			"0.002": 14.4496363263,
			"0.003": 14.314318695,
			"0.004": 7.21276250225,
			"0.005": 3.7293843028,
			"0.006": 3.87961164989,
			"0.007": 4.64089144292,
			"0.008": 7.12038825582,
			"0.009": 10.8706184232,
			"0.01": 6.15036218719,
			"0.011": 5.15122239142,
			"0.012": 2.29928542228,
			"0.013": 1.74994304682,
			"0.014": 0.190554062107,
			"0.015": 0.0,
			"0.016": 0.0,
			"0.017": 0.0,
			"0.018": 0.0,
			"0.019": 0.0,
			"0.02": 0.0,
			"0.021": 0.0,
			"0.022": 0.0,
			"0.023": 0.0,
			"0.024": 0.0,
			"0.025": 0.0
		}
	}
}
