{
	 "smiles": "[O-][N+](=O)C1=CC=C(C=C1)C1=NN2C(S1)=NN=C2C(F)(F)F", 
	 "Tm": 486.15, 
	 "num_atms": 25, 
	 "gaussian": { 
		 "optdone": 1, 
		 "sigma_profile": "yes", 
		 "theory": "DFT", 
		 "functional": "B3LYP", 
		 "basiset": "6-31G**", 
		 "properties": { 
			 "R2extent": 9378.0664, 
			 "electric_dipole_moment_norm": 2.31898805732, 
			 "electric_quadrupole_moment_norm": 34.8912155231, 
			 "total_energy": -1505.21392488, 
			 "HOMO_LUMO_gap": 0.15305, 
			 "cosmo_polarized_energy": -16.83, 
			 "cosmo_cavitation_energy": 35.5, 
			 "cosmo_dispersion_energy": -25.74, 
			 "cosmo_repulsion_energy": 1.82, 
			 "cosmo_total_nonelectrostatic_energy": 11.58, 
			 "SMD_solvation_energy": 6.45 
		},
		"coords": [
			{
				"x": -3.2374191996,
				"y": -4.4040658616,
				"z": -2.2683492516,
				"element": "O" 
			},
			{
				"x": -2.0979258063,
				"y": -3.9768229227,
				"z": -2.4432399611,
				"element": "N" 
			},
			{
				"x": -1.3334666511,
				"y": -4.3420568079,
				"z": -3.3337501806,
				"element": "O" 
			},
			{
				"x": -1.6093260291,
				"y": -2.9443956386,
				"z": -1.510486214,
				"element": "C" 
			},
			{
				"x": -2.4502127732,
				"y": -2.5085844565,
				"z": -0.4901556377,
				"element": "C" 
			},
			{
				"x": -1.9849684738,
				"y": -1.5349528363,
				"z": 0.386822879,
				"element": "C" 
			},
			{
				"x": -0.69250029,
				"y": -1.0045055012,
				"z": 0.2429077163,
				"element": "C" 
			},
			{
				"x": 0.1352278285,
				"y": -1.4649071533,
				"z": -0.798746464,
				"element": "C" 
			},
			{
				"x": -0.3215236872,
				"y": -2.4367511163,
				"z": -1.6786827611,
				"element": "C" 
			},
			{
				"x": -0.184227083,
				"y": 0.0238052467,
				"z": 1.159193033,
				"element": "C" 
			},
			{
				"x": 1.0106352307,
				"y": 0.5277949835,
				"z": 1.0441068246,
				"element": "N" 
			},
			{
				"x": 1.1950701175,
				"y": 1.4480379219,
				"z": 2.0254382422,
				"element": "N" 
			},
			{
				"x": 0.1783793487,
				"y": 1.6888820671,
				"z": 2.9176004055,
				"element": "C" 
			},
			{
				"x": -1.1763443893,
				"y": 0.664911878,
				"z": 2.5112473116,
				"element": "S" 
			},
			{
				"x": 0.513960103,
				"y": 2.5998977635,
				"z": 3.7980271482,
				"element": "N" 
			},
			{
				"x": 1.8061582418,
				"y": 2.9745889803,
				"z": 3.4718619147,
				"element": "N" 
			},
			{
				"x": 2.2034847372,
				"y": 2.2896057616,
				"z": 2.4222060796,
				"element": "C" 
			},
			{
				"x": 3.5326506944,
				"y": 2.3808194286,
				"z": 1.737622785,
				"element": "C" 
			},
			{
				"x": 4.3136818653,
				"y": 3.2796131275,
				"z": 2.3390209209,
				"element": "F" 
			},
			{
				"x": 4.1575784518,
				"y": 1.1848332707,
				"z": 1.7504067155,
				"element": "F" 
			},
			{
				"x": 3.3788018573,
				"y": 2.7353242436,
				"z": 0.4446663875,
				"element": "F" 
			},
			{
				"x": -3.4425172331,
				"y": -2.9314456447,
				"z": -0.3981242609,
				"element": "H" 
			},
			{
				"x": -2.6379957843,
				"y": -1.1927272297,
				"z": 1.1838417021,
				"element": "H" 
			},
			{
				"x": 1.1318340686,
				"y": -1.0528991134,
				"z": -0.9061961369,
				"element": "H" 
			},
			{
				"x": 0.2961648553,
				"y": -2.8067003911,
				"z": -2.4873391976,
				"element": "H" 
			}
		],
		 "valence_orbital": [ 
			{
				"type": "occ",
				"energy": -0.31104,
				"method": "rhf"
			},
			{
				"type": "occ",
				"energy": -0.30735,
				"method": "rhf"
			},
			{
				"type": "occ",
				"energy": -0.28983,
				"method": "rhf"
			},
			{
				"type": "occ",
				"energy": -0.28669,
				"method": "rhf"
			},
			{
				"type": "occ",
				"energy": -0.27872,
				"method": "rhf"
			},
			{
				"type": "unocc",
				"energy": -0.12567,
				"method": "rhf"
			},
			{
				"type": "unocc",
				"energy": -0.07549,
				"method": "rhf"
			},
			{
				"type": "unocc",
				"energy": -0.0558,
				"method": "rhf"
			},
			{
				"type": "unocc",
				"energy": -0.04056,
				"method": "rhf"
			},
			{
				"type": "unocc",
				"energy": -0.02116,
				"method": "rhf"
			}
		],
		"cosmo_sigma_profile": { 
			"-0.025": 0.0,
			"-0.024": 0.0,
			"-0.023": 0.0,
			"-0.022": 0.0,
			"-0.021": 0.0,
			"-0.02": 0.0,
			"-0.019": 0.0,
			"-0.018": 0.0,
			"-0.017": 0.0,
			"-0.016": 0.0,
			"-0.015": 0.0,
			"-0.014": 0.0,
			"-0.013": 0.0,
			"-0.012": 0.0,
			"-0.011": 0.0185761460084,
			"-0.01": 1.61510553089,
			"-0.009": 3.50917078198,
			"-0.008": 9.5717114087,
			"-0.007": 11.3936477837,
			"-0.006": 13.3315856686,
			"-0.005": 15.8696099485,
			"-0.004": 18.3913936505,
			"-0.003": 21.1062325116,
			"-0.002": 22.7662353496,
			"-0.001": 27.5752244736,
			"0.0": 23.555653526,
			"0.001": 23.8958920584,
			"0.002": 30.942979728,
			"0.003": 8.27933090652,
			"0.004": 5.93524652528,
			"0.005": 7.51271108087,
			"0.006": 5.70329418649,
			"0.007": 11.988190826,
			"0.008": 7.49929268701,
			"0.009": 6.48166088511,
			"0.01": 3.20931713255,
			"0.011": 4.10852044499,
			"0.012": 2.5913807148,
			"0.013": 2.14108087465,
			"0.014": 1.77048518374,
			"0.015": 0.196542806837,
			"0.016": 0.0,
			"0.017": 0.0,
			"0.018": 0.0,
			"0.019": 0.0,
			"0.02": 0.0,
			"0.021": 0.0,
			"0.022": 0.0,
			"0.023": 0.0,
			"0.024": 0.0,
			"0.025": 0.0
		}
	}
}
