{
	 "smiles": "FC(F)(F)OC1=CC2=C(C=C1)C(=O)C(=O)N2", 
	 "Tm": 457.15, 
	 "num_atms": 20, 
	 "gaussian": { 
		 "optdone": 1, 
		 "sigma_profile": "yes", 
		 "theory": "DFT", 
		 "functional": "B3LYP", 
		 "basiset": "6-31G**", 
		 "properties": { 
			 "R2extent": 4664.9808, 
			 "electric_dipole_moment_norm": 4.30804399003, 
			 "electric_quadrupole_moment_norm": 24.8226321108, 
			 "total_energy": -925.312553073, 
			 "HOMO_LUMO_gap": 0.14755, 
			 "cosmo_polarized_energy": -15.09, 
			 "cosmo_cavitation_energy": 27.61, 
			 "cosmo_dispersion_energy": -19.95, 
			 "cosmo_repulsion_energy": 1.48, 
			 "cosmo_total_nonelectrostatic_energy": 9.14, 
			 "SMD_solvation_energy": 7.63 
		},
		"coords": [
			{
				"x": -3.7852261178,
				"y": 0.8947101042,
				"z": 1.7263760872,
				"element": "F" 
			},
			{
				"x": -2.7853821317,
				"y": 0.4064561536,
				"z": 2.4813311246,
				"element": "C" 
			},
			{
				"x": -3.3071791122,
				"y": -0.3228259137,
				"z": 3.4627269448,
				"element": "F" 
			},
			{
				"x": -2.1342002204,
				"y": 1.4528300928,
				"z": 3.0189790503,
				"element": "F" 
			},
			{
				"x": -1.9551174957,
				"y": -0.4111843736,
				"z": 1.773932741,
				"element": "O" 
			},
			{
				"x": -1.2455587876,
				"y": 0.0430115259,
				"z": 0.671883537,
				"element": "C" 
			},
			{
				"x": -0.4504853445,
				"y": -0.9540204212,
				"z": 0.0874528194,
				"element": "C" 
			},
			{
				"x": 0.297904726,
				"y": -0.5973075404,
				"z": -1.0220052796,
				"element": "C" 
			},
			{
				"x": 0.2595682561,
				"y": 0.7153735701,
				"z": -1.5398132719,
				"element": "C" 
			},
			{
				"x": -0.5378669736,
				"y": 1.6828994295,
				"z": -0.939771854,
				"element": "C" 
			},
			{
				"x": -1.3038534854,
				"y": 1.3538651329,
				"z": 0.1801491704,
				"element": "C" 
			},
			{
				"x": 1.1537982323,
				"y": 0.768982132,
				"z": -2.7037053174,
				"element": "C" 
			},
			{
				"x": 1.4272991121,
				"y": 1.6841756779,
				"z": -3.4491073673,
				"element": "O" 
			},
			{
				"x": 1.7404862946,
				"y": -0.6829819546,
				"z": -2.8272660981,
				"element": "C" 
			},
			{
				"x": 2.5239880666,
				"y": -1.1039726398,
				"z": -3.6451537623,
				"element": "O" 
			},
			{
				"x": 1.1611907702,
				"y": -1.3929665799,
				"z": -1.7806161648,
				"element": "N" 
			},
			{
				"x": -0.4452693888,
				"y": -1.9515570469,
				"z": 0.5115235331,
				"element": "H" 
			},
			{
				"x": -0.56050457,
				"y": 2.6895255494,
				"z": -1.3454284567,
				"element": "H" 
			},
			{
				"x": -1.926299801,
				"y": 2.1004069862,
				"z": 0.6524130729,
				"element": "H" 
			},
			{
				"x": 1.3562079709,
				"y": -2.3685198843,
				"z": -1.6082005089,
				"element": "H" 
			}
		],
		 "valence_orbital": [ 
			{
				"type": "occ",
				"energy": -0.33299,
				"method": "rhf"
			},
			{
				"type": "occ",
				"energy": -0.31631,
				"method": "rhf"
			},
			{
				"type": "occ",
				"energy": -0.27847,
				"method": "rhf"
			},
			{
				"type": "occ",
				"energy": -0.2531,
				"method": "rhf"
			},
			{
				"type": "occ",
				"energy": -0.25023,
				"method": "rhf"
			},
			{
				"type": "unocc",
				"energy": -0.10268,
				"method": "rhf"
			},
			{
				"type": "unocc",
				"energy": -0.03485,
				"method": "rhf"
			},
			{
				"type": "unocc",
				"energy": -0.00048,
				"method": "rhf"
			},
			{
				"type": "unocc",
				"energy": 0.06821,
				"method": "rhf"
			},
			{
				"type": "unocc",
				"energy": 0.07321,
				"method": "rhf"
			}
		],
		"cosmo_sigma_profile": { 
			"-0.025": 0.0,
			"-0.024": 0.0,
			"-0.023": 0.0,
			"-0.022": 0.0,
			"-0.021": 0.0,
			"-0.02": 0.0,
			"-0.019": 0.0,
			"-0.018": 0.0,
			"-0.017": 0.789234581913,
			"-0.016": 1.43786545361,
			"-0.015": 1.72961749979,
			"-0.014": 0.953055950856,
			"-0.013": 1.22043926769,
			"-0.012": 1.67670902816,
			"-0.011": 1.28100480902,
			"-0.01": 1.15746667367,
			"-0.009": 2.68460078136,
			"-0.008": 5.52327825436,
			"-0.007": 7.51658645599,
			"-0.006": 7.08745655084,
			"-0.005": 5.9698537832,
			"-0.004": 7.30915676853,
			"-0.003": 11.3364112151,
			"-0.002": 16.6295344143,
			"-0.001": 21.268639519,
			"0.0": 26.1760692191,
			"0.001": 36.9379562853,
			"0.002": 19.8526097604,
			"0.003": 3.67182564187,
			"0.004": 4.19365648363,
			"0.005": 2.46213263825,
			"0.006": 2.38293446943,
			"0.007": 3.08399707877,
			"0.008": 3.85473787724,
			"0.009": 4.45175575668,
			"0.01": 9.29661748561,
			"0.011": 8.44202942111,
			"0.012": 2.941873295,
			"0.013": 0.0469606421519,
			"0.014": 0.0,
			"0.015": 0.0,
			"0.016": 0.0,
			"0.017": 0.0,
			"0.018": 0.0,
			"0.019": 0.0,
			"0.02": 0.0,
			"0.021": 0.0,
			"0.022": 0.0,
			"0.023": 0.0,
			"0.024": 0.0,
			"0.025": 0.0
		}
	}
}
