{
	 "smiles": "CC1=C(C)N=C(S1)N1CCNCC1", 
	 "Tm": 346.15, 
	 "num_atms": 28, 
	 "gaussian": { 
		 "optdone": 1, 
		 "sigma_profile": "yes", 
		 "theory": "DFT", 
		 "functional": "B3LYP", 
		 "basiset": "6-31G**", 
		 "properties": { 
			 "R2extent": 3494.4967, 
			 "electric_dipole_moment_norm": 0.498172951895, 
			 "electric_quadrupole_moment_norm": 3.08641477122, 
			 "total_energy": -914.429156528, 
			 "HOMO_LUMO_gap": 0.19634, 
			 "cosmo_polarized_energy": -9.47, 
			 "cosmo_cavitation_energy": 30.5, 
			 "cosmo_dispersion_energy": -23.22, 
			 "cosmo_repulsion_energy": 1.82, 
			 "cosmo_total_nonelectrostatic_energy": 9.1, 
			 "SMD_solvation_energy": 0.22 
		},
		"coords": [
			{
				"x": 1.2839383489,
				"y": -1.6530036643,
				"z": -3.2894928554,
				"element": "C" 
			},
			{
				"x": 1.0248997872,
				"y": -0.990096864,
				"z": -1.9713168453,
				"element": "C" 
			},
			{
				"x": 1.5032371275,
				"y": -1.2637742728,
				"z": -0.7217470678,
				"element": "C" 
			},
			{
				"x": 2.4557262964,
				"y": -2.3640285738,
				"z": -0.3497972899,
				"element": "C" 
			},
			{
				"x": 1.0694582234,
				"y": -0.4351549994,
				"z": 0.3038596129,
				"element": "N" 
			},
			{
				"x": 0.2442991084,
				"y": 0.4749902724,
				"z": -0.134036691,
				"element": "C" 
			},
			{
				"x": -0.0555306729,
				"y": 0.4076096707,
				"z": -1.884657495,
				"element": "S" 
			},
			{
				"x": -0.3758917725,
				"y": 1.3836742144,
				"z": 0.6795754494,
				"element": "N" 
			},
			{
				"x": -1.0586404475,
				"y": 2.5634609975,
				"z": 0.1669653988,
				"element": "C" 
			},
			{
				"x": -2.3141006217,
				"y": 2.869627149,
				"z": 1.0264739986,
				"element": "C" 
			},
			{
				"x": -2.1784161096,
				"y": 2.4694801152,
				"z": 2.4345169198,
				"element": "N" 
			},
			{
				"x": -0.7777720618,
				"y": 2.4667102352,
				"z": 2.8510430436,
				"element": "C" 
			},
			{
				"x": 0.0719276636,
				"y": 1.4391150705,
				"z": 2.0781507538,
				"element": "C" 
			},
			{
				"x": 0.3661643408,
				"y": -2.0548775116,
				"z": -3.7361292187,
				"element": "H" 
			},
			{
				"x": 1.7250076267,
				"y": -0.9615919188,
				"z": -4.0180511078,
				"element": "H" 
			},
			{
				"x": 1.9799595456,
				"y": -2.4861235167,
				"z": -3.165003064,
				"element": "H" 
			},
			{
				"x": 1.9990270444,
				"y": -3.029763352,
				"z": 0.3910449326,
				"element": "H" 
			},
			{
				"x": 3.3589997855,
				"y": -1.9467206452,
				"z": 0.1090244426,
				"element": "H" 
			},
			{
				"x": 2.7548547054,
				"y": -2.9645356721,
				"z": -1.21118702,
				"element": "H" 
			},
			{
				"x": -1.3560624077,
				"y": 2.3893276139,
				"z": -0.8697235235,
				"element": "H" 
			},
			{
				"x": -0.3777873738,
				"y": 3.4294292164,
				"z": 0.1577717653,
				"element": "H" 
			},
			{
				"x": -3.1867027252,
				"y": 2.3574133278,
				"z": 0.6099264249,
				"element": "H" 
			},
			{
				"x": -2.5166829084,
				"y": 3.9477608485,
				"z": 0.9675727017,
				"element": "H" 
			},
			{
				"x": -2.5478172359,
				"y": 1.5288142163,
				"z": 2.5452260716,
				"element": "H" 
			},
			{
				"x": -0.3818693109,
				"y": 3.4800358831,
				"z": 2.7107002294,
				"element": "H" 
			},
			{
				"x": -0.7125230351,
				"y": 2.2543706558,
				"z": 3.9230578922,
				"element": "H" 
			},
			{
				"x": -0.0457714316,
				"y": 0.4380519055,
				"z": 2.5060708738,
				"element": "H" 
			},
			{
				"x": 1.1445685107,
				"y": 1.6792995984,
				"z": 2.1373616675,
				"element": "H" 
			}
		],
		 "valence_orbital": [ 
			{
				"type": "occ",
				"energy": -0.27256,
				"method": "rhf"
			},
			{
				"type": "occ",
				"energy": -0.25578,
				"method": "rhf"
			},
			{
				"type": "occ",
				"energy": -0.2538,
				"method": "rhf"
			},
			{
				"type": "occ",
				"energy": -0.22552,
				"method": "rhf"
			},
			{
				"type": "occ",
				"energy": -0.18437,
				"method": "rhf"
			},
			{
				"type": "unocc",
				"energy": 0.01197,
				"method": "rhf"
			},
			{
				"type": "unocc",
				"energy": 0.02226,
				"method": "rhf"
			},
			{
				"type": "unocc",
				"energy": 0.07031,
				"method": "rhf"
			},
			{
				"type": "unocc",
				"energy": 0.07496,
				"method": "rhf"
			},
			{
				"type": "unocc",
				"energy": 0.09779,
				"method": "rhf"
			}
		],
		"cosmo_sigma_profile": { 
			"-0.025": 0.0,
			"-0.024": 0.0,
			"-0.023": 0.0,
			"-0.022": 0.0,
			"-0.021": 0.0,
			"-0.02": 0.0,
			"-0.019": 0.0,
			"-0.018": 0.0,
			"-0.017": 0.0,
			"-0.016": 0.0,
			"-0.015": 0.0,
			"-0.014": 0.0,
			"-0.013": 0.0,
			"-0.012": 0.0,
			"-0.011": 0.0546174612445,
			"-0.01": 0.988030247432,
			"-0.009": 1.17979489197,
			"-0.008": 1.66794618618,
			"-0.007": 1.49949925288,
			"-0.006": 3.86499203365,
			"-0.005": 11.7490206495,
			"-0.004": 30.1522514136,
			"-0.003": 32.9645541026,
			"-0.002": 27.6579730809,
			"-0.001": 23.9481903218,
			"0.0": 21.2473064197,
			"0.001": 12.7102343506,
			"0.002": 9.70719383574,
			"0.003": 11.9628512463,
			"0.004": 11.5353522122,
			"0.005": 11.6467684106,
			"0.006": 6.73296913551,
			"0.007": 3.24105069121,
			"0.008": 2.83715349036,
			"0.009": 1.72373479762,
			"0.01": 2.31078067145,
			"0.011": 1.67560811523,
			"0.012": 1.58505108428,
			"0.013": 1.94732612751,
			"0.014": 1.21476883503,
			"0.015": 1.31886338972,
			"0.016": 0.701956018226,
			"0.017": 0.386129136389,
			"0.018": 0.442707946129,
			"0.019": 0.0819904454818,
			"0.02": 0.0,
			"0.021": 0.0,
			"0.022": 0.0,
			"0.023": 0.0,
			"0.024": 0.0,
			"0.025": 0.0
		}
	}
}
