{
	 "smiles": "CCCCCCCC1=CC=C(NC(=O)C2=CC=C(CC)C=C2)C=C1", 
	 "Tm": 375.15, 
	 "num_atms": 53, 
	 "gaussian": { 
		 "optdone": 1, 
		 "sigma_profile": "yes", 
		 "theory": "DFT", 
		 "functional": "B3LYP", 
		 "basiset": "6-31G**", 
		 "properties": { 
			 "R2extent": 15846.3875, 
			 "electric_dipole_moment_norm": 3.60561995085, 
			 "electric_quadrupole_moment_norm": 20.3509091325, 
			 "total_energy": -985.850754327, 
			 "HOMO_LUMO_gap": 0.16915, 
			 "cosmo_polarized_energy": -12.99, 
			 "cosmo_cavitation_energy": 54.27, 
			 "cosmo_dispersion_energy": -37.1, 
			 "cosmo_repulsion_energy": 2.87, 
			 "cosmo_total_nonelectrostatic_energy": 20.04, 
			 "SMD_solvation_energy": 8.52 
		},
		"coords": [
			{
				"x": -6.5612834241,
				"y": -1.7863040693,
				"z": -1.3701710615,
				"element": "C" 
			},
			{
				"x": -5.6152690723,
				"y": -1.8107890935,
				"z": -0.1644969203,
				"element": "C" 
			},
			{
				"x": -4.6799321713,
				"y": -3.0279091112,
				"z": -0.1695408752,
				"element": "C" 
			},
			{
				"x": -3.6292569008,
				"y": -3.0789780686,
				"z": 0.9544910977,
				"element": "C" 
			},
			{
				"x": -4.2018076942,
				"y": -3.2141887515,
				"z": 2.3855613768,
				"element": "C" 
			},
			{
				"x": -4.4612881683,
				"y": -1.9011241119,
				"z": 3.1564506834,
				"element": "C" 
			},
			{
				"x": -3.2489573541,
				"y": -1.3432505624,
				"z": 3.939471475,
				"element": "C" 
			},
			{
				"x": -2.0833481574,
				"y": -0.8597965835,
				"z": 3.1018995016,
				"element": "C" 
			},
			{
				"x": -2.1616490621,
				"y": 0.3373991932,
				"z": 2.3759552529,
				"element": "C" 
			},
			{
				"x": -1.1111008545,
				"y": 0.8028620501,
				"z": 1.5881638891,
				"element": "C" 
			},
			{
				"x": 0.0777008241,
				"y": 0.0585032794,
				"z": 1.5147606005,
				"element": "C" 
			},
			{
				"x": 1.2007993914,
				"y": 0.4529817322,
				"z": 0.757840092,
				"element": "N" 
			},
			{
				"x": 1.3395841806,
				"y": 1.5331369057,
				"z": -0.0875104409,
				"element": "C" 
			},
			{
				"x": 0.4358087693,
				"y": 2.326232782,
				"z": -0.3332699361,
				"element": "O" 
			},
			{
				"x": 2.6955362888,
				"y": 1.6714954161,
				"z": -0.7217053182,
				"element": "C" 
			},
			{
				"x": 2.7738853404,
				"y": 2.4023225052,
				"z": -1.915002156,
				"element": "C" 
			},
			{
				"x": 3.9949196048,
				"y": 2.5787560151,
				"z": -2.5575453575,
				"element": "C" 
			},
			{
				"x": 5.1789032141,
				"y": 2.0471450514,
				"z": -2.0247254067,
				"element": "C" 
			},
			{
				"x": 6.4993062239,
				"y": 2.2094604099,
				"z": -2.7457761915,
				"element": "C" 
			},
			{
				"x": 6.7718101183,
				"y": 1.0753672884,
				"z": -3.751192136,
				"element": "C" 
			},
			{
				"x": 5.0983055072,
				"y": 1.3388486932,
				"z": -0.8183813069,
				"element": "C" 
			},
			{
				"x": 3.8768596319,
				"y": 1.1514254761,
				"z": -0.1734990726,
				"element": "C" 
			},
			{
				"x": 0.1769049548,
				"y": -1.1365496288,
				"z": 2.2424994873,
				"element": "C" 
			},
			{
				"x": -0.8870670671,
				"y": -1.5831337568,
				"z": 3.0213759629,
				"element": "C" 
			},
			{
				"x": -7.221286717,
				"y": -0.9127987932,
				"z": -1.3459848569,
				"element": "H" 
			},
			{
				"x": -6.0012977788,
				"y": -1.7542053058,
				"z": -2.3118850492,
				"element": "H" 
			},
			{
				"x": -7.1947404591,
				"y": -2.6807248676,
				"z": -1.3948022325,
				"element": "H" 
			},
			{
				"x": -6.210205567,
				"y": -1.80044482,
				"z": 0.7574329942,
				"element": "H" 
			},
			{
				"x": -5.0139191123,
				"y": -0.8914919741,
				"z": -0.1521520841,
				"element": "H" 
			},
			{
				"x": -4.1539021066,
				"y": -3.0564182581,
				"z": -1.134202604,
				"element": "H" 
			},
			{
				"x": -5.2880994434,
				"y": -3.9440831306,
				"z": -0.1327726216,
				"element": "H" 
			},
			{
				"x": -2.9781426265,
				"y": -3.9398052052,
				"z": 0.7560135224,
				"element": "H" 
			},
			{
				"x": -2.9829725703,
				"y": -2.1966945384,
				"z": 0.8913448388,
				"element": "H" 
			},
			{
				"x": -5.1398259018,
				"y": -3.7831503786,
				"z": 2.3297554518,
				"element": "H" 
			},
			{
				"x": -3.5242577424,
				"y": -3.8328820251,
				"z": 2.989208973,
				"element": "H" 
			},
			{
				"x": -5.2613400402,
				"y": -2.0736259048,
				"z": 3.8879425511,
				"element": "H" 
			},
			{
				"x": -4.8360379004,
				"y": -1.1284518106,
				"z": 2.4757021352,
				"element": "H" 
			},
			{
				"x": -2.8965208188,
				"y": -2.1160550512,
				"z": 4.6344093756,
				"element": "H" 
			},
			{
				"x": -3.6051145659,
				"y": -0.5119949789,
				"z": 4.5622230381,
				"element": "H" 
			},
			{
				"x": -3.0722753269,
				"y": 0.9303235066,
				"z": 2.4257312986,
				"element": "H" 
			},
			{
				"x": -1.1941993653,
				"y": 1.7253417893,
				"z": 1.031780464,
				"element": "H" 
			},
			{
				"x": 1.9723976091,
				"y": -0.1971229677,
				"z": 0.7755339378,
				"element": "H" 
			},
			{
				"x": 1.8609507268,
				"y": 2.828785423,
				"z": -2.3166919814,
				"element": "H" 
			},
			{
				"x": 4.0350671188,
				"y": 3.1446141667,
				"z": -3.4852669672,
				"element": "H" 
			},
			{
				"x": 7.3141198768,
				"y": 2.245928853,
				"z": -2.0130626383,
				"element": "H" 
			},
			{
				"x": 6.5106722058,
				"y": 3.1701409848,
				"z": -3.2739674313,
				"element": "H" 
			},
			{
				"x": 6.7984230397,
				"y": 0.1031465933,
				"z": -3.2484928945,
				"element": "H" 
			},
			{
				"x": 5.9893053398,
				"y": 1.0320282812,
				"z": -4.5155460707,
				"element": "H" 
			},
			{
				"x": 7.7321001095,
				"y": 1.2236336995,
				"z": -4.2557731757,
				"element": "H" 
			},
			{
				"x": 6.0057236489,
				"y": 0.9413862943,
				"z": -0.3702064853,
				"element": "H" 
			},
			{
				"x": 3.864935818,
				"y": 0.6356280676,
				"z": 0.78332447,
				"element": "H" 
			},
			{
				"x": 1.0953060923,
				"y": -1.7189829782,
				"z": 2.201075102,
				"element": "H" 
			},
			{
				"x": -0.7823276663,
				"y": -2.5111377321,
				"z": 3.5778757003,
				"element": "H" 
			}
		],
		 "valence_orbital": [ 
			{
				"type": "occ",
				"energy": -0.25938,
				"method": "rhf"
			},
			{
				"type": "occ",
				"energy": -0.25668,
				"method": "rhf"
			},
			{
				"type": "occ",
				"energy": -0.2472,
				"method": "rhf"
			},
			{
				"type": "occ",
				"energy": -0.24423,
				"method": "rhf"
			},
			{
				"type": "occ",
				"energy": -0.2094,
				"method": "rhf"
			},
			{
				"type": "unocc",
				"energy": -0.04025,
				"method": "rhf"
			},
			{
				"type": "unocc",
				"energy": -0.01077,
				"method": "rhf"
			},
			{
				"type": "unocc",
				"energy": 0.00092,
				"method": "rhf"
			},
			{
				"type": "unocc",
				"energy": 0.01126,
				"method": "rhf"
			},
			{
				"type": "unocc",
				"energy": 0.06366,
				"method": "rhf"
			}
		],
		"cosmo_sigma_profile": { 
			"-0.025": 0.0,
			"-0.024": 0.0,
			"-0.023": 0.0,
			"-0.022": 0.0,
			"-0.021": 0.0,
			"-0.02": 0.0,
			"-0.019": 0.0,
			"-0.018": 0.0,
			"-0.017": 0.0,
			"-0.016": 0.0,
			"-0.015": 0.415179722611,
			"-0.014": 1.01632883885,
			"-0.013": 1.48049515702,
			"-0.012": 1.24949477035,
			"-0.011": 1.44001608543,
			"-0.01": 1.57946675074,
			"-0.009": 1.452981128,
			"-0.008": 2.03685469482,
			"-0.007": 2.19134397674,
			"-0.006": 5.79571033973,
			"-0.005": 12.9863652273,
			"-0.004": 20.1388362937,
			"-0.003": 30.6220114448,
			"-0.002": 45.1364164068,
			"-0.001": 62.6502022645,
			"0.0": 64.655128818,
			"0.001": 55.6902479278,
			"0.002": 32.0044165572,
			"0.003": 21.6727186,
			"0.004": 23.3468336476,
			"0.005": 16.4362525188,
			"0.006": 5.75189674678,
			"0.007": 2.38546870146,
			"0.008": 1.97373237061,
			"0.009": 1.33855070119,
			"0.01": 1.27805393939,
			"0.011": 2.39545759177,
			"0.012": 2.28085075658,
			"0.013": 2.94087301106,
			"0.014": 0.755109415435,
			"0.015": 0.0,
			"0.016": 0.0,
			"0.017": 0.0,
			"0.018": 0.0,
			"0.019": 0.0,
			"0.02": 0.0,
			"0.021": 0.0,
			"0.022": 0.0,
			"0.023": 0.0,
			"0.024": 0.0,
			"0.025": 0.0
		}
	}
}
