{
	 "smiles": "COC(=O)C1=C(C)NC(=O)N(C=O)C1C1=CC=CC=C1", 
	 "Tm": 509.15, 
	 "num_atms": 34, 
	 "gaussian": { 
		 "optdone": 1, 
		 "sigma_profile": "yes", 
		 "theory": "DFT", 
		 "functional": "B3LYP", 
		 "basiset": "6-31G**", 
		 "properties": { 
			 "R2extent": 5302.9655, 
			 "electric_dipole_moment_norm": 5.81154532375, 
			 "electric_quadrupole_moment_norm": 13.8101237366, 
			 "total_energy": -952.356553364, 
			 "HOMO_LUMO_gap": 0.1838, 
			 "cosmo_polarized_energy": -19.34, 
			 "cosmo_cavitation_energy": 37.86, 
			 "cosmo_dispersion_energy": -26.04, 
			 "cosmo_repulsion_energy": 2.01, 
			 "cosmo_total_nonelectrostatic_energy": 13.83, 
			 "SMD_solvation_energy": 10.15 
		},
		"coords": [
			{
				"x": -1.3229099069,
				"y": 2.6773211794,
				"z": -2.8931927887,
				"element": "C" 
			},
			{
				"x": -1.169970943,
				"y": 2.1781839329,
				"z": -1.5536135725,
				"element": "O" 
			},
			{
				"x": -0.233572569,
				"y": 1.2055459119,
				"z": -1.4115375559,
				"element": "C" 
			},
			{
				"x": 0.427360171,
				"y": 0.8031207735,
				"z": -2.352612483,
				"element": "O" 
			},
			{
				"x": -0.0639683971,
				"y": 0.6846055612,
				"z": -0.0404304258,
				"element": "C" 
			},
			{
				"x": -0.737666176,
				"y": 1.059280022,
				"z": 1.077842982,
				"element": "C" 
			},
			{
				"x": -1.8595438456,
				"y": 2.0506224778,
				"z": 1.2244754384,
				"element": "C" 
			},
			{
				"x": -0.3622374485,
				"y": 0.4843632285,
				"z": 2.2939169959,
				"element": "N" 
			},
			{
				"x": 0.8566121198,
				"y": -0.127135621,
				"z": 2.5596640035,
				"element": "C" 
			},
			{
				"x": 1.2252562151,
				"y": -0.350678356,
				"z": 3.6999871862,
				"element": "O" 
			},
			{
				"x": 1.5970813524,
				"y": -0.4089697991,
				"z": 1.4125167885,
				"element": "N" 
			},
			{
				"x": 2.9380425348,
				"y": -0.76489658,
				"z": 1.5523853613,
				"element": "C" 
			},
			{
				"x": 3.6571340619,
				"y": -1.0354477004,
				"z": 0.6123270034,
				"element": "O" 
			},
			{
				"x": 0.9862808308,
				"y": -0.4079211281,
				"z": 0.0564169424,
				"element": "C" 
			},
			{
				"x": 0.4737420453,
				"y": -1.8026068742,
				"z": -0.3166710319,
				"element": "C" 
			},
			{
				"x": 1.3300195484,
				"y": -2.683873378,
				"z": -0.9902890134,
				"element": "C" 
			},
			{
				"x": 0.9054649258,
				"y": -3.9713216268,
				"z": -1.3191490014,
				"element": "C" 
			},
			{
				"x": -0.3801264199,
				"y": -4.395379304,
				"z": -0.9782858726,
				"element": "C" 
			},
			{
				"x": -1.2394752845,
				"y": -3.5233097244,
				"z": -0.30807593,
				"element": "C" 
			},
			{
				"x": -0.8155925973,
				"y": -2.2342985706,
				"z": 0.0178806091,
				"element": "C" 
			},
			{
				"x": -2.096172333,
				"y": 3.4433044734,
				"z": -2.8323645907,
				"element": "H" 
			},
			{
				"x": -0.3847312134,
				"y": 3.105540192,
				"z": -3.2536226892,
				"element": "H" 
			},
			{
				"x": -1.626937746,
				"y": 1.8763457763,
				"z": -3.5712725221,
				"element": "H" 
			},
			{
				"x": -2.3378543156,
				"y": 2.261168465,
				"z": 0.2737571295,
				"element": "H" 
			},
			{
				"x": -2.6056753031,
				"y": 1.6605252531,
				"z": 1.9263739042,
				"element": "H" 
			},
			{
				"x": -1.4798645772,
				"y": 2.9929568495,
				"z": 1.6378973416,
				"element": "H" 
			},
			{
				"x": -0.8638242603,
				"y": 0.7393156972,
				"z": 3.133599435,
				"element": "H" 
			},
			{
				"x": 3.2615768208,
				"y": -0.7580872023,
				"z": 2.6022050015,
				"element": "H" 
			},
			{
				"x": 1.8018844704,
				"y": -0.1665345482,
				"z": -0.6252618249,
				"element": "H" 
			},
			{
				"x": 2.3333042018,
				"y": -2.3569787228,
				"z": -1.2433660037,
				"element": "H" 
			},
			{
				"x": 1.5792053108,
				"y": -4.6417202106,
				"z": -1.8451149138,
				"element": "H" 
			},
			{
				"x": -0.71162956,
				"y": -5.3972492606,
				"z": -1.2360755335,
				"element": "H" 
			},
			{
				"x": -2.2430325184,
				"y": -3.843873077,
				"z": -0.0424865554,
				"element": "H" 
			},
			{
				"x": -1.4983791946,
				"y": -1.5601181096,
				"z": 0.525676186,
				"element": "H" 
			}
		],
		 "valence_orbital": [ 
			{
				"type": "occ",
				"energy": -0.2769,
				"method": "rhf"
			},
			{
				"type": "occ",
				"energy": -0.2658,
				"method": "rhf"
			},
			{
				"type": "occ",
				"energy": -0.2516,
				"method": "rhf"
			},
			{
				"type": "occ",
				"energy": -0.24601,
				"method": "rhf"
			},
			{
				"type": "occ",
				"energy": -0.23841,
				"method": "rhf"
			},
			{
				"type": "unocc",
				"energy": -0.05461,
				"method": "rhf"
			},
			{
				"type": "unocc",
				"energy": -0.01284,
				"method": "rhf"
			},
			{
				"type": "unocc",
				"energy": -0.00402,
				"method": "rhf"
			},
			{
				"type": "unocc",
				"energy": 0.00185,
				"method": "rhf"
			},
			{
				"type": "unocc",
				"energy": 0.05425,
				"method": "rhf"
			}
		],
		"cosmo_sigma_profile": { 
			"-0.025": 0.0,
			"-0.024": 0.0,
			"-0.023": 0.0,
			"-0.022": 0.0,
			"-0.021": 0.0,
			"-0.02": 0.0,
			"-0.019": 0.0,
			"-0.018": 0.0,
			"-0.017": 0.00298818421468,
			"-0.016": 0.727866379945,
			"-0.015": 1.2020293411,
			"-0.014": 0.566670235462,
			"-0.013": 1.72627398013,
			"-0.012": 1.06763661254,
			"-0.011": 1.12386387871,
			"-0.01": 1.16544800697,
			"-0.009": 1.51072161205,
			"-0.008": 2.49314906579,
			"-0.007": 4.62999031959,
			"-0.006": 15.0471276407,
			"-0.005": 23.804137558,
			"-0.004": 29.5754431749,
			"-0.003": 30.2428535591,
			"-0.002": 27.5147356954,
			"-0.001": 24.4147837218,
			"0.0": 17.2930896426,
			"0.001": 14.8282736447,
			"0.002": 13.3960396956,
			"0.003": 13.5011053055,
			"0.004": 13.4331997515,
			"0.005": 13.1245741671,
			"0.006": 9.38795373377,
			"0.007": 4.93844341502,
			"0.008": 5.09564389564,
			"0.009": 4.07103883641,
			"0.01": 6.06968610419,
			"0.011": 9.05635298496,
			"0.012": 9.61032200711,
			"0.013": 1.23549481247,
			"0.014": 0.0,
			"0.015": 0.0,
			"0.016": 0.0,
			"0.017": 0.0,
			"0.018": 0.0,
			"0.019": 0.0,
			"0.02": 0.0,
			"0.021": 0.0,
			"0.022": 0.0,
			"0.023": 0.0,
			"0.024": 0.0,
			"0.025": 0.0
		}
	}
}
