{
	 "smiles": "NS(=O)(=O)C1=CC(=CC=C1Cl)C1(O)NC(=O)C2=CC=CC=C12", 
	 "Tm": 512.15, 
	 "num_atms": 33, 
	 "gaussian": { 
		 "optdone": 1, 
		 "sigma_profile": "yes", 
		 "theory": "DFT", 
		 "functional": "B3LYP", 
		 "basiset": "6-31G**", 
		 "properties": { 
			 "R2extent": 8052.1682, 
			 "electric_dipole_moment_norm": 8.29316702955, 
			 "electric_quadrupole_moment_norm": 16.924046551, 
			 "total_energy": -1808.83851898, 
			 "HOMO_LUMO_gap": 0.2019, 
			 "cosmo_polarized_energy": -28.49, 
			 "cosmo_cavitation_energy": 40.84, 
			 "cosmo_dispersion_energy": -28.78, 
			 "cosmo_repulsion_energy": 2.17, 
			 "cosmo_total_nonelectrostatic_energy": 14.23, 
			 "SMD_solvation_energy": 6.66 
		},
		"coords": [
			{
				"x": -2.2728986158,
				"y": 1.565019257,
				"z": -3.2506575667,
				"element": "N" 
			},
			{
				"x": -2.5842120146,
				"y": 1.5899263863,
				"z": -1.6090101053,
				"element": "S" 
			},
			{
				"x": -1.7446749462,
				"y": 2.6539640294,
				"z": -1.0624223292,
				"element": "O" 
			},
			{
				"x": -4.0336200184,
				"y": 1.5776467714,
				"z": -1.4516471663,
				"element": "O" 
			},
			{
				"x": -1.9356406158,
				"y": 0.0398777787,
				"z": -0.9207064991,
				"element": "C" 
			},
			{
				"x": -0.9858029898,
				"y": 0.1589110328,
				"z": 0.0948963272,
				"element": "C" 
			},
			{
				"x": -0.4629492205,
				"y": -0.9714428653,
				"z": 0.7294441486,
				"element": "C" 
			},
			{
				"x": -0.9048366861,
				"y": -2.2357310701,
				"z": 0.331777207,
				"element": "C" 
			},
			{
				"x": -1.8524109329,
				"y": -2.3679544748,
				"z": -0.6831479427,
				"element": "C" 
			},
			{
				"x": -2.3712767261,
				"y": -1.2362034684,
				"z": -1.3071738025,
				"element": "C" 
			},
			{
				"x": -3.5515055383,
				"y": -1.4748069242,
				"z": -2.5853319826,
				"element": "Cl" 
			},
			{
				"x": 0.5981614033,
				"y": -0.8117019437,
				"z": 1.820358297,
				"element": "C" 
			},
			{
				"x": 0.6778368451,
				"y": -2.0623643262,
				"z": 2.4863049918,
				"element": "O" 
			},
			{
				"x": 0.2994393977,
				"y": 0.2822810629,
				"z": 2.7347714256,
				"element": "N" 
			},
			{
				"x": 1.2725584552,
				"y": 1.2660974497,
				"z": 2.8306805428,
				"element": "C" 
			},
			{
				"x": 1.239660077,
				"y": 2.2494872044,
				"z": 3.5459144715,
				"element": "O" 
			},
			{
				"x": 2.3402545114,
				"y": 0.836806387,
				"z": 1.8778858317,
				"element": "C" 
			},
			{
				"x": 3.5536749644,
				"y": 1.4493114886,
				"z": 1.584413379,
				"element": "C" 
			},
			{
				"x": 4.3927366698,
				"y": 0.8208818591,
				"z": 0.6605199227,
				"element": "C" 
			},
			{
				"x": 4.0158124128,
				"y": -0.3885509411,
				"z": 0.0602663756,
				"element": "C" 
			},
			{
				"x": 2.7916239793,
				"y": -0.9966535555,
				"z": 0.362670099,
				"element": "C" 
			},
			{
				"x": 1.9588951228,
				"y": -0.3608037931,
				"z": 1.2761320612,
				"element": "C" 
			},
			{
				"x": -1.2827793354,
				"y": 1.6156620605,
				"z": -3.4666610675,
				"element": "H" 
			},
			{
				"x": -2.7684401117,
				"y": 0.8288147595,
				"z": -3.7434861808,
				"element": "H" 
			},
			{
				"x": -0.6700428661,
				"y": 1.155214282,
				"z": 0.3836813073,
				"element": "H" 
			},
			{
				"x": -0.5129674831,
				"y": -3.1179522091,
				"z": 0.8223723207,
				"element": "H" 
			},
			{
				"x": -2.1967792298,
				"y": -3.3494069629,
				"z": -0.9899131754,
				"element": "H" 
			},
			{
				"x": 1.3918623249,
				"y": -1.9972179126,
				"z": 3.1356594168,
				"element": "H" 
			},
			{
				"x": -0.5633707621,
				"y": 0.3334788176,
				"z": 3.2569878355,
				"element": "H" 
			},
			{
				"x": 3.8258393602,
				"y": 2.3838012838,
				"z": 2.0648368222,
				"element": "H" 
			},
			{
				"x": 5.3472387935,
				"y": 1.2702836547,
				"z": 0.403447605,
				"element": "H" 
			},
			{
				"x": 4.6854164529,
				"y": -0.8614486108,
				"z": -0.6523242447,
				"element": "H" 
			},
			{
				"x": 2.5044973226,
				"y": -1.9337265079,
				"z": -0.1050383254,
				"element": "H" 
			}
		],
		 "valence_orbital": [ 
			{
				"type": "occ",
				"energy": -0.28037,
				"method": "rhf"
			},
			{
				"type": "occ",
				"energy": -0.27847,
				"method": "rhf"
			},
			{
				"type": "occ",
				"energy": -0.2737,
				"method": "rhf"
			},
			{
				"type": "occ",
				"energy": -0.26149,
				"method": "rhf"
			},
			{
				"type": "occ",
				"energy": -0.25826,
				"method": "rhf"
			},
			{
				"type": "unocc",
				"energy": -0.05636,
				"method": "rhf"
			},
			{
				"type": "unocc",
				"energy": -0.05026,
				"method": "rhf"
			},
			{
				"type": "unocc",
				"energy": -0.03979,
				"method": "rhf"
			},
			{
				"type": "unocc",
				"energy": -0.02798,
				"method": "rhf"
			},
			{
				"type": "unocc",
				"energy": 0.00121,
				"method": "rhf"
			}
		],
		"cosmo_sigma_profile": { 
			"-0.025": 0.0,
			"-0.024": 0.0,
			"-0.023": 0.0,
			"-0.022": 0.0,
			"-0.021": 0.0,
			"-0.02": 0.0,
			"-0.019": 0.0,
			"-0.018": 0.0,
			"-0.017": 0.541852291608,
			"-0.016": 1.63371717356,
			"-0.015": 2.94355865038,
			"-0.014": 3.46859910932,
			"-0.013": 4.38644158082,
			"-0.012": 4.59885549654,
			"-0.011": 2.85654002804,
			"-0.01": 3.31996951625,
			"-0.009": 4.4666268481,
			"-0.008": 6.15914394349,
			"-0.007": 10.8731373303,
			"-0.006": 15.9305056241,
			"-0.005": 15.8564174975,
			"-0.004": 18.3248273632,
			"-0.003": 18.5836090041,
			"-0.002": 18.64594353,
			"-0.001": 18.9445837125,
			"0.0": 25.9095382818,
			"0.001": 27.8500048993,
			"0.002": 20.0841959254,
			"0.003": 21.1341396666,
			"0.004": 11.9185914551,
			"0.005": 5.72576613939,
			"0.006": 6.93614894206,
			"0.007": 7.64249293338,
			"0.008": 7.16912448912,
			"0.009": 7.67940169925,
			"0.01": 11.437232009,
			"0.011": 12.1532952478,
			"0.012": 4.82276560536,
			"0.013": 5.68957884992,
			"0.014": 1.31289724761,
			"0.015": 0.0,
			"0.016": 0.0,
			"0.017": 0.0,
			"0.018": 0.0,
			"0.019": 0.0,
			"0.02": 0.0,
			"0.021": 0.0,
			"0.022": 0.0,
			"0.023": 0.0,
			"0.024": 0.0,
			"0.025": 0.0
		}
	}
}
