{
	 "smiles": "NNC(=O)N1CCSCC1", 
	 "Tm": 403.15, 
	 "num_atms": 21, 
	 "gaussian": { 
		 "optdone": 1, 
		 "sigma_profile": "yes", 
		 "theory": "DFT", 
		 "functional": "B3LYP", 
		 "basiset": "6-31G**", 
		 "properties": { 
			 "R2extent": 2345.0397, 
			 "electric_dipole_moment_norm": 2.48147633074, 
			 "electric_quadrupole_moment_norm": 11.4555152115, 
			 "total_energy": -834.806706753, 
			 "HOMO_LUMO_gap": 0.25446, 
			 "cosmo_polarized_energy": -15.12, 
			 "cosmo_cavitation_energy": 24.3, 
			 "cosmo_dispersion_energy": -18.51, 
			 "cosmo_repulsion_energy": 1.45, 
			 "cosmo_total_nonelectrostatic_energy": 7.23, 
			 "SMD_solvation_energy": 4.16 
		},
		"coords": [
			{
				"x": 1.6936822446,
				"y": -3.4475882147,
				"z": 0.6027968838,
				"element": "N" 
			},
			{
				"x": 0.7552965422,
				"y": -2.7877678914,
				"z": 1.4412701871,
				"element": "N" 
			},
			{
				"x": 0.0330700861,
				"y": -1.664150766,
				"z": 1.0238638571,
				"element": "C" 
			},
			{
				"x": -1.1581857201,
				"y": -1.559335135,
				"z": 1.28997369,
				"element": "O" 
			},
			{
				"x": 0.7380492903,
				"y": -0.7194276709,
				"z": 0.279820527,
				"element": "N" 
			},
			{
				"x": 2.1021406848,
				"y": -0.3225996701,
				"z": 0.6504223455,
				"element": "C" 
			},
			{
				"x": 2.9402848012,
				"y": 0.0253579136,
				"z": -0.5801053212,
				"element": "C" 
			},
			{
				"x": 2.2363421385,
				"y": 1.4352278734,
				"z": -1.5199612023,
				"element": "S" 
			},
			{
				"x": 0.515710206,
				"y": 0.8020075122,
				"z": -1.6475301089,
				"element": "C" 
			},
			{
				"x": -0.0597555385,
				"y": 0.3654402208,
				"z": -0.3008137329,
				"element": "C" 
			},
			{
				"x": 2.6342132943,
				"y": -3.1474040943,
				"z": 0.8439097117,
				"element": "H" 
			},
			{
				"x": 1.526049439,
				"y": -3.1956660598,
				"z": -0.3697174209,
				"element": "H" 
			},
			{
				"x": 0.1121581735,
				"y": -3.4499484791,
				"z": 1.8594874576,
				"element": "H" 
			},
			{
				"x": 2.57403733,
				"y": -1.1312087543,
				"z": 1.2093300589,
				"element": "H" 
			},
			{
				"x": 2.0598829266,
				"y": 0.5513641176,
				"z": 1.3176084804,
				"element": "H" 
			},
			{
				"x": 3.0307470559,
				"y": -0.8470461617,
				"z": -1.2365432745,
				"element": "H" 
			},
			{
				"x": 3.9448131311,
				"y": 0.3364470536,
				"z": -0.2796260164,
				"element": "H" 
			},
			{
				"x": -0.0732426748,
				"y": 1.6255926993,
				"z": -2.060476996,
				"element": "H" 
			},
			{
				"x": 0.4876021882,
				"y": -0.0301265742,
				"z": -2.3585072913,
				"element": "H" 
			},
			{
				"x": -1.0784975321,
				"y": -0.0060587531,
				"z": -0.4239190835,
				"element": "H" 
			},
			{
				"x": -0.1007980668,
				"y": 1.2233908344,
				"z": 0.3860172487,
				"element": "H" 
			}
		],
		 "valence_orbital": [ 
			{
				"type": "occ",
				"energy": -0.30211,
				"method": "rhf"
			},
			{
				"type": "occ",
				"energy": -0.26745,
				"method": "rhf"
			},
			{
				"type": "occ",
				"energy": -0.25224,
				"method": "rhf"
			},
			{
				"type": "occ",
				"energy": -0.24529,
				"method": "rhf"
			},
			{
				"type": "occ",
				"energy": -0.22874,
				"method": "rhf"
			},
			{
				"type": "unocc",
				"energy": 0.02572,
				"method": "rhf"
			},
			{
				"type": "unocc",
				"energy": 0.02831,
				"method": "rhf"
			},
			{
				"type": "unocc",
				"energy": 0.05288,
				"method": "rhf"
			},
			{
				"type": "unocc",
				"energy": 0.07288,
				"method": "rhf"
			},
			{
				"type": "unocc",
				"energy": 0.10116,
				"method": "rhf"
			}
		],
		"cosmo_sigma_profile": { 
			"-0.025": 0.0,
			"-0.024": 0.0,
			"-0.023": 0.0,
			"-0.022": 0.0,
			"-0.021": 0.0,
			"-0.02": 0.0,
			"-0.019": 0.0,
			"-0.018": 0.0,
			"-0.017": 0.0,
			"-0.016": 0.0,
			"-0.015": 0.0,
			"-0.014": 0.0,
			"-0.013": 0.0495336521552,
			"-0.012": 1.96846183223,
			"-0.011": 2.69121477868,
			"-0.01": 2.91069115496,
			"-0.009": 5.44638720938,
			"-0.008": 2.85150753944,
			"-0.007": 4.66062133916,
			"-0.006": 8.91439076086,
			"-0.005": 15.3221029913,
			"-0.004": 21.9959982986,
			"-0.003": 20.2250549145,
			"-0.002": 13.8960038179,
			"-0.001": 10.1413335892,
			"0.0": 8.22997775347,
			"0.001": 7.18205424765,
			"0.002": 5.77744278248,
			"0.003": 6.35450141814,
			"0.004": 5.20301969361,
			"0.005": 6.15089741812,
			"0.006": 5.62508729672,
			"0.007": 5.76952955156,
			"0.008": 5.25200586429,
			"0.009": 3.8797276879,
			"0.01": 4.28558600287,
			"0.011": 2.74346983351,
			"0.012": 2.83059065614,
			"0.013": 4.354938764,
			"0.014": 5.31948775617,
			"0.015": 0.844904500374,
			"0.016": 0.58719532786,
			"0.017": 0.0815398338468,
			"0.018": 0.0,
			"0.019": 0.0,
			"0.02": 0.0,
			"0.021": 0.0,
			"0.022": 0.0,
			"0.023": 0.0,
			"0.024": 0.0,
			"0.025": 0.0
		}
	}
}
