{
	 "smiles": "CCCCCCCCCCCC=O", 
	 "Tm": 317.65, 
	 "num_atms": 37, 
	 "gaussian": { 
		 "optdone": 1, 
		 "sigma_profile": "yes", 
		 "theory": "DFT", 
		 "functional": "B3LYP", 
		 "basiset": "6-31G**", 
		 "properties": { 
			 "R2extent": 6306.8045, 
			 "electric_dipole_moment_norm": 3.02105505246, 
			 "electric_quadrupole_moment_norm": 23.6573592996, 
			 "total_energy": -546.985075774, 
			 "HOMO_LUMO_gap": 0.22744, 
			 "cosmo_polarized_energy": -6.27, 
			 "cosmo_cavitation_energy": 37.97, 
			 "cosmo_dispersion_energy": -26.14, 
			 "cosmo_repulsion_energy": 2.18, 
			 "cosmo_total_nonelectrostatic_energy": 14.01, 
			 "SMD_solvation_energy": 6.29 
		},
		"coords": [
			{
				"x": -0.0669903303,
				"y": -1.4464907041,
				"z": 3.4877827295,
				"element": "C" 
			},
			{
				"x": -1.3905388698,
				"y": -2.0361664497,
				"z": 2.9864478407,
				"element": "C" 
			},
			{
				"x": -2.4544968195,
				"y": -0.9860301293,
				"z": 2.6196999129,
				"element": "C" 
			},
			{
				"x": -2.0908012293,
				"y": -0.034598781,
				"z": 1.4658614326,
				"element": "C" 
			},
			{
				"x": -1.8989741625,
				"y": -0.7301132136,
				"z": 0.1093678578,
				"element": "C" 
			},
			{
				"x": -1.7037510207,
				"y": 0.2294738777,
				"z": -1.0765014586,
				"element": "C" 
			},
			{
				"x": -0.404414782,
				"y": 1.0472253355,
				"z": -1.0361921164,
				"element": "C" 
			},
			{
				"x": -0.2209322674,
				"y": 1.9345555146,
				"z": -2.2760431696,
				"element": "C" 
			},
			{
				"x": 1.0263740147,
				"y": 2.8330345885,
				"z": -2.2505003695,
				"element": "C" 
			},
			{
				"x": 2.3599470863,
				"y": 2.0732859817,
				"z": -2.2962794198,
				"element": "C" 
			},
			{
				"x": 3.5769957165,
				"y": 3.0163053952,
				"z": -2.350170014,
				"element": "C" 
			},
			{
				"x": 4.8855790617,
				"y": 2.2626866393,
				"z": -2.2928780469,
				"element": "C" 
			},
			{
				"x": 5.7732532878,
				"y": 2.3476491924,
				"z": -3.1124248655,
				"element": "O" 
			},
			{
				"x": -0.2284376511,
				"y": -0.7921102367,
				"z": 4.3525844911,
				"element": "H" 
			},
			{
				"x": 0.4357171672,
				"y": -0.8541367861,
				"z": 2.7159676039,
				"element": "H" 
			},
			{
				"x": 0.6255168253,
				"y": -2.2371412468,
				"z": 3.7950193973,
				"element": "H" 
			},
			{
				"x": -1.1969997853,
				"y": -2.6878870258,
				"z": 2.12491766,
				"element": "H" 
			},
			{
				"x": -1.8069063493,
				"y": -2.6884623032,
				"z": 3.7647519662,
				"element": "H" 
			},
			{
				"x": -3.3886505776,
				"y": -1.5057290095,
				"z": 2.3655350327,
				"element": "H" 
			},
			{
				"x": -2.6753611771,
				"y": -0.3854986108,
				"z": 3.5129836504,
				"element": "H" 
			},
			{
				"x": -2.8929838378,
				"y": 0.7100402025,
				"z": 1.3670961563,
				"element": "H" 
			},
			{
				"x": -1.1889785359,
				"y": 0.532492589,
				"z": 1.7276358462,
				"element": "H" 
			},
			{
				"x": -2.7779698117,
				"y": -1.3589578562,
				"z": -0.0890838972,
				"element": "H" 
			},
			{
				"x": -1.0422163619,
				"y": -1.4159516211,
				"z": 0.1567571968,
				"element": "H" 
			},
			{
				"x": -1.7224300498,
				"y": -0.3526912327,
				"z": -2.0079772549,
				"element": "H" 
			},
			{
				"x": -2.5611113497,
				"y": 0.9157715133,
				"z": -1.1321489535,
				"element": "H" 
			},
			{
				"x": -0.3881250309,
				"y": 1.6816887607,
				"z": -0.1398222778,
				"element": "H" 
			},
			{
				"x": 0.4445629621,
				"y": 0.3569257026,
				"z": -0.9378904951,
				"element": "H" 
			},
			{
				"x": -0.1937758312,
				"y": 1.3026245365,
				"z": -3.1753072398,
				"element": "H" 
			},
			{
				"x": -1.1073429769,
				"y": 2.573867955,
				"z": -2.3847590052,
				"element": "H" 
			},
			{
				"x": 0.9850048167,
				"y": 3.5205146078,
				"z": -3.1055911644,
				"element": "H" 
			},
			{
				"x": 1.0024176971,
				"y": 3.4651031262,
				"z": -1.3511915826,
				"element": "H" 
			},
			{
				"x": 2.3744433228,
				"y": 1.4148379115,
				"z": -3.1750339395,
				"element": "H" 
			},
			{
				"x": 2.450779292,
				"y": 1.4195635161,
				"z": -1.4193657945,
				"element": "H" 
			},
			{
				"x": 3.545532997,
				"y": 3.6894704753,
				"z": -1.4795944627,
				"element": "H" 
			},
			{
				"x": 3.5710406519,
				"y": 3.6335911334,
				"z": -3.2539764604,
				"element": "H" 
			},
			{
				"x": 4.9899239086,
				"y": 1.5854566519,
				"z": -1.4115767865,
				"element": "H" 
			}
		],
		 "valence_orbital": [ 
			{
				"type": "occ",
				"energy": -0.3211,
				"method": "rhf"
			},
			{
				"type": "occ",
				"energy": -0.3111,
				"method": "rhf"
			},
			{
				"type": "occ",
				"energy": -0.30659,
				"method": "rhf"
			},
			{
				"type": "occ",
				"energy": -0.30396,
				"method": "rhf"
			},
			{
				"type": "occ",
				"energy": -0.24823,
				"method": "rhf"
			},
			{
				"type": "unocc",
				"energy": -0.02079,
				"method": "rhf"
			},
			{
				"type": "unocc",
				"energy": 0.07823,
				"method": "rhf"
			},
			{
				"type": "unocc",
				"energy": 0.08655,
				"method": "rhf"
			},
			{
				"type": "unocc",
				"energy": 0.1007,
				"method": "rhf"
			},
			{
				"type": "unocc",
				"energy": 0.1036,
				"method": "rhf"
			}
		],
		"cosmo_sigma_profile": { 
			"-0.025": 0.0,
			"-0.024": 0.0,
			"-0.023": 0.0,
			"-0.022": 0.0,
			"-0.021": 0.0,
			"-0.02": 0.0,
			"-0.019": 0.0,
			"-0.018": 0.0,
			"-0.017": 0.0,
			"-0.016": 0.0,
			"-0.015": 0.0,
			"-0.014": 0.0,
			"-0.013": 0.0,
			"-0.012": 0.0,
			"-0.011": 0.0,
			"-0.01": 0.0,
			"-0.009": 0.0,
			"-0.008": 0.0,
			"-0.007": 0.0,
			"-0.006": 3.84713449234,
			"-0.005": 9.38770394038,
			"-0.004": 9.53027125127,
			"-0.003": 14.3424563581,
			"-0.002": 41.6640194116,
			"-0.001": 61.8751054419,
			"0.0": 59.4822449355,
			"0.001": 47.8287509479,
			"0.002": 19.222750761,
			"0.003": 2.00555965575,
			"0.004": 1.75508484218,
			"0.005": 1.41813368245,
			"0.006": 1.8549881415,
			"0.007": 1.38567433602,
			"0.008": 1.97824394117,
			"0.009": 1.6091156733,
			"0.01": 2.57012273033,
			"0.011": 4.40588492024,
			"0.012": 3.90218801451,
			"0.013": 1.33915123957,
			"0.014": 0.0,
			"0.015": 0.0,
			"0.016": 0.0,
			"0.017": 0.0,
			"0.018": 0.0,
			"0.019": 0.0,
			"0.02": 0.0,
			"0.021": 0.0,
			"0.022": 0.0,
			"0.023": 0.0,
			"0.024": 0.0,
			"0.025": 0.0
		}
	}
}
