{
	 "smiles": "[O-][N+](=O)C1=CC(=CC=C1)[N+]([O-])=O", 
	 "Tm": 362.65, 
	 "num_atms": 16, 
	 "gaussian": { 
		 "optdone": 1, 
		 "sigma_profile": "yes", 
		 "theory": "DFT", 
		 "functional": "B3LYP", 
		 "basiset": "6-31G**", 
		 "properties": { 
			 "R2extent": 2491.775, 
			 "electric_dipole_moment_norm": 4.18600427138, 
			 "electric_quadrupole_moment_norm": 13.0608570484, 
			 "total_energy": -641.240274984, 
			 "HOMO_LUMO_gap": 0.19402, 
			 "cosmo_polarized_energy": -11.21, 
			 "cosmo_cavitation_energy": 22.41, 
			 "cosmo_dispersion_energy": -16.47, 
			 "cosmo_repulsion_energy": 1.3, 
			 "cosmo_total_nonelectrostatic_energy": 7.25, 
			 "SMD_solvation_energy": 8.53 
		},
		"coords": [
			{
				"x": -3.181898736,
				"y": -1.2645165154,
				"z": 2.0989709068,
				"element": "O" 
			},
			{
				"x": -2.5253464543,
				"y": -1.8706282163,
				"z": 1.2566868396,
				"element": "N" 
			},
			{
				"x": -2.705431383,
				"y": -3.0392266985,
				"z": 0.9210590702,
				"element": "O" 
			},
			{
				"x": -1.4293882497,
				"y": -1.1369392224,
				"z": 0.5923416116,
				"element": "C" 
			},
			{
				"x": -1.2017690941,
				"y": 0.1864573556,
				"z": 0.9516468558,
				"element": "C" 
			},
			{
				"x": -0.1623266471,
				"y": 0.8462108737,
				"z": 0.3061996606,
				"element": "C" 
			},
			{
				"x": 0.6301068587,
				"y": 0.2294955716,
				"z": -0.6612988884,
				"element": "C" 
			},
			{
				"x": 0.3714164872,
				"y": -1.099675709,
				"z": -0.9954186834,
				"element": "C" 
			},
			{
				"x": -0.6631488634,
				"y": -1.7945506371,
				"z": -0.3692764813,
				"element": "C" 
			},
			{
				"x": 0.109681614,
				"y": 2.2535652053,
				"z": 0.6615790308,
				"element": "N" 
			},
			{
				"x": -0.6050379643,
				"y": 2.7687756958,
				"z": 1.5168931495,
				"element": "O" 
			},
			{
				"x": 1.0339073195,
				"y": 2.8138856331,
				"z": 0.0763408052,
				"element": "O" 
			},
			{
				"x": -1.8062947196,
				"y": 0.680618621,
				"z": 1.699808202,
				"element": "H" 
			},
			{
				"x": 1.4262408241,
				"y": 0.7940427808,
				"z": -1.1304166715,
				"element": "H" 
			},
			{
				"x": 0.9777830549,
				"y": -1.5953955508,
				"z": -1.7458617514,
				"element": "H" 
			},
			{
				"x": -0.8872940467,
				"y": -2.8267191874,
				"z": -0.6080536561,
				"element": "H" 
			}
		],
		 "valence_orbital": [ 
			{
				"type": "occ",
				"energy": -0.32359,
				"method": "rhf"
			},
			{
				"type": "occ",
				"energy": -0.31316,
				"method": "rhf"
			},
			{
				"type": "occ",
				"energy": -0.31119,
				"method": "rhf"
			},
			{
				"type": "occ",
				"energy": -0.31015,
				"method": "rhf"
			},
			{
				"type": "occ",
				"energy": -0.30895,
				"method": "rhf"
			},
			{
				"type": "unocc",
				"energy": -0.11493,
				"method": "rhf"
			},
			{
				"type": "unocc",
				"energy": -0.1048,
				"method": "rhf"
			},
			{
				"type": "unocc",
				"energy": -0.0389,
				"method": "rhf"
			},
			{
				"type": "unocc",
				"energy": -0.01109,
				"method": "rhf"
			},
			{
				"type": "unocc",
				"energy": 0.05682,
				"method": "rhf"
			}
		],
		"cosmo_sigma_profile": { 
			"-0.025": 0.0,
			"-0.024": 0.0,
			"-0.023": 0.0,
			"-0.022": 0.0,
			"-0.021": 0.0,
			"-0.02": 0.0,
			"-0.019": 0.0,
			"-0.018": 0.0,
			"-0.017": 0.0,
			"-0.016": 0.0,
			"-0.015": 0.0,
			"-0.014": 0.0,
			"-0.013": 0.0,
			"-0.012": 0.0,
			"-0.011": 0.0,
			"-0.01": 0.0579520798042,
			"-0.009": 3.46084605937,
			"-0.008": 8.36606136608,
			"-0.007": 8.9991800877,
			"-0.006": 10.0210343472,
			"-0.005": 10.5098668392,
			"-0.004": 12.0389242534,
			"-0.003": 18.0195222356,
			"-0.002": 16.8749492708,
			"-0.001": 12.1637909125,
			"0.0": 8.67718898072,
			"0.001": 4.16616186706,
			"0.002": 4.42344189922,
			"0.003": 5.03305009947,
			"0.004": 5.27083208776,
			"0.005": 6.92359003217,
			"0.006": 10.8810345366,
			"0.007": 17.8473431659,
			"0.008": 9.74253426735,
			"0.009": 6.42437707033,
			"0.01": 1.13917636676,
			"0.011": 0.0,
			"0.012": 0.0,
			"0.013": 0.0,
			"0.014": 0.0,
			"0.015": 0.0,
			"0.016": 0.0,
			"0.017": 0.0,
			"0.018": 0.0,
			"0.019": 0.0,
			"0.02": 0.0,
			"0.021": 0.0,
			"0.022": 0.0,
			"0.023": 0.0,
			"0.024": 0.0,
			"0.025": 0.0
		}
	}
}
