{
	 "smiles": "CC1=C(C=CC=C1N)N1C=NN=N1", 
	 "Tm": 398.15, 
	 "num_atms": 22, 
	 "gaussian": { 
		 "optdone": 1, 
		 "sigma_profile": "yes", 
		 "theory": "DFT", 
		 "functional": "B3LYP", 
		 "basiset": "6-31G**", 
		 "properties": { 
			 "R2extent": 2940.2996, 
			 "electric_dipole_moment_norm": 7.7590136493, 
			 "electric_quadrupole_moment_norm": 15.9716836896, 
			 "total_energy": -583.978583522, 
			 "HOMO_LUMO_gap": 0.18872, 
			 "cosmo_polarized_energy": -18.54, 
			 "cosmo_cavitation_energy": 26.08, 
			 "cosmo_dispersion_energy": -19.04, 
			 "cosmo_repulsion_energy": 1.48, 
			 "cosmo_total_nonelectrostatic_energy": 8.52, 
			 "SMD_solvation_energy": 3.05 
		},
		"coords": [
			{
				"x": -1.0674686579,
				"y": -0.9111604402,
				"z": -0.2619577607,
				"element": "C" 
			},
			{
				"x": 0.0890781162,
				"y": -0.1983162954,
				"z": 0.3950270341,
				"element": "C" 
			},
			{
				"x": -0.0570246361,
				"y": 0.9511743233,
				"z": 1.1862786593,
				"element": "C" 
			},
			{
				"x": 1.0309846413,
				"y": 1.6578100985,
				"z": 1.7048658843,
				"element": "C" 
			},
			{
				"x": 2.3155056861,
				"y": 1.192722536,
				"z": 1.4412907062,
				"element": "C" 
			},
			{
				"x": 2.5031695549,
				"y": 0.0328856162,
				"z": 0.6965176076,
				"element": "C" 
			},
			{
				"x": 1.4064365532,
				"y": -0.6699560093,
				"z": 0.1735850848,
				"element": "C" 
			},
			{
				"x": 1.6122358109,
				"y": -1.7915522631,
				"z": -0.630676488,
				"element": "N" 
			},
			{
				"x": -1.3633286033,
				"y": 1.4539177257,
				"z": 1.488768182,
				"element": "N" 
			},
			{
				"x": -2.4202563835,
				"y": 0.8594919643,
				"z": 2.0879525068,
				"element": "C" 
			},
			{
				"x": -3.3914374176,
				"y": 1.736022446,
				"z": 2.2262942404,
				"element": "N" 
			},
			{
				"x": -2.9095119376,
				"y": 2.8987377302,
				"z": 1.7026411415,
				"element": "N" 
			},
			{
				"x": -1.7042349099,
				"y": 2.7527940589,
				"z": 1.2620694616,
				"element": "N" 
			},
			{
				"x": -1.9768864224,
				"y": -0.3092200099,
				"z": -0.2617529014,
				"element": "H" 
			},
			{
				"x": -0.8215175242,
				"y": -1.1394392063,
				"z": -1.3047871444,
				"element": "H" 
			},
			{
				"x": -1.3059685583,
				"y": -1.8648154233,
				"z": 0.2305070921,
				"element": "H" 
			},
			{
				"x": 0.8555537749,
				"y": 2.5476509031,
				"z": 2.2972084801,
				"element": "H" 
			},
			{
				"x": 3.1753865878,
				"y": 1.7267636569,
				"z": 1.8334169781,
				"element": "H" 
			},
			{
				"x": 3.5078938141,
				"y": -0.3364808131,
				"z": 0.5071106679,
				"element": "H" 
			},
			{
				"x": 0.8969290768,
				"y": -2.5037025041,
				"z": -0.5946768724,
				"element": "H" 
			},
			{
				"x": 2.5408234136,
				"y": -2.1866857637,
				"z": -0.5791275267,
				"element": "H" 
			},
			{
				"x": -2.433661979,
				"y": -0.1709423306,
				"z": 2.4070449669,
				"element": "H" 
			}
		],
		 "valence_orbital": [ 
			{
				"type": "occ",
				"energy": -0.299,
				"method": "rhf"
			},
			{
				"type": "occ",
				"energy": -0.29275,
				"method": "rhf"
			},
			{
				"type": "occ",
				"energy": -0.28307,
				"method": "rhf"
			},
			{
				"type": "occ",
				"energy": -0.25598,
				"method": "rhf"
			},
			{
				"type": "occ",
				"energy": -0.22201,
				"method": "rhf"
			},
			{
				"type": "unocc",
				"energy": -0.03329,
				"method": "rhf"
			},
			{
				"type": "unocc",
				"energy": -0.00747,
				"method": "rhf"
			},
			{
				"type": "unocc",
				"energy": 0.00368,
				"method": "rhf"
			},
			{
				"type": "unocc",
				"energy": 0.02553,
				"method": "rhf"
			},
			{
				"type": "unocc",
				"energy": 0.06053,
				"method": "rhf"
			}
		],
		"cosmo_sigma_profile": { 
			"-0.025": 0.0,
			"-0.024": 0.0,
			"-0.023": 0.0,
			"-0.022": 0.0,
			"-0.021": 0.0,
			"-0.02": 0.0,
			"-0.019": 0.0,
			"-0.018": 0.0,
			"-0.017": 0.0,
			"-0.016": 0.0,
			"-0.015": 0.0,
			"-0.014": 0.0,
			"-0.013": 0.795176835367,
			"-0.012": 3.62893094913,
			"-0.011": 5.07311564528,
			"-0.01": 4.86955683387,
			"-0.009": 4.38489895433,
			"-0.008": 4.95141005168,
			"-0.007": 5.35279686347,
			"-0.006": 10.8536433152,
			"-0.005": 14.5360386245,
			"-0.004": 16.7263907805,
			"-0.003": 12.5364619952,
			"-0.002": 11.6145356663,
			"-0.001": 12.2693543887,
			"0.0": 10.512897253,
			"0.001": 7.54810411926,
			"0.002": 9.72187086909,
			"0.003": 8.46972094519,
			"0.004": 13.2936190363,
			"0.005": 10.9748647099,
			"0.006": 4.42563711457,
			"0.007": 3.94253371722,
			"0.008": 6.76547969286,
			"0.009": 5.68411664386,
			"0.01": 4.98523392658,
			"0.011": 5.03801269374,
			"0.012": 4.39050037455,
			"0.013": 2.63094620835,
			"0.014": 2.10351450958,
			"0.015": 0.471568138324,
			"0.016": 0.0,
			"0.017": 0.0,
			"0.018": 0.0,
			"0.019": 0.0,
			"0.02": 0.0,
			"0.021": 0.0,
			"0.022": 0.0,
			"0.023": 0.0,
			"0.024": 0.0,
			"0.025": 0.0
		}
	}
}
