{
	 "smiles": "COC1=CC=C(OCC(N)=O)C=C1", 
	 "Tm": 388.15, 
	 "num_atms": 24, 
	 "gaussian": { 
		 "optdone": 1, 
		 "sigma_profile": "yes", 
		 "theory": "DFT", 
		 "functional": "B3LYP", 
		 "basiset": "6-31G**", 
		 "properties": { 
			 "R2extent": 3958.0555, 
			 "electric_dipole_moment_norm": 4.25394740917, 
			 "electric_quadrupole_moment_norm": 12.9544489447, 
			 "total_energy": -630.000653939, 
			 "HOMO_LUMO_gap": 0.19651, 
			 "cosmo_polarized_energy": -14.71, 
			 "cosmo_cavitation_energy": 28.38, 
			 "cosmo_dispersion_energy": -21.0, 
			 "cosmo_repulsion_energy": 1.68, 
			 "cosmo_total_nonelectrostatic_energy": 9.06, 
			 "SMD_solvation_energy": 6.74 
		},
		"coords": [
			{
				"x": -1.6183754837,
				"y": -4.0714238362,
				"z": 2.4453555698,
				"element": "C" 
			},
			{
				"x": -2.0629040204,
				"y": -2.9586126579,
				"z": 1.6893328064,
				"element": "O" 
			},
			{
				"x": -1.1182849495,
				"y": -2.1355723166,
				"z": 1.1389925723,
				"element": "C" 
			},
			{
				"x": -1.604952949,
				"y": -1.0508224238,
				"z": 0.401769154,
				"element": "C" 
			},
			{
				"x": -0.7330419419,
				"y": -0.1480387777,
				"z": -0.2030700605,
				"element": "C" 
			},
			{
				"x": 0.6502302622,
				"y": -0.3241419385,
				"z": -0.0744907789,
				"element": "C" 
			},
			{
				"x": 1.5951385583,
				"y": 0.5075855066,
				"z": -0.630688013,
				"element": "O" 
			},
			{
				"x": 1.1563236349,
				"y": 1.6236362782,
				"z": -1.3897482242,
				"element": "C" 
			},
			{
				"x": 2.3482292035,
				"y": 2.4203771418,
				"z": -1.9216711909,
				"element": "C" 
			},
			{
				"x": 3.5690747146,
				"y": 1.9349917645,
				"z": -1.5854241665,
				"element": "N" 
			},
			{
				"x": 2.1560275321,
				"y": 3.419139562,
				"z": -2.5991303905,
				"element": "O" 
			},
			{
				"x": 1.1390166945,
				"y": -1.4060222453,
				"z": 0.6608436046,
				"element": "C" 
			},
			{
				"x": 0.2662694217,
				"y": -2.3093853191,
				"z": 1.2660764166,
				"element": "C" 
			},
			{
				"x": -1.0289356785,
				"y": -3.7615152232,
				"z": 3.318665425,
				"element": "H" 
			},
			{
				"x": -2.5187662911,
				"y": -4.5847706303,
				"z": 2.7867862636,
				"element": "H" 
			},
			{
				"x": -1.019126561,
				"y": -4.7632762922,
				"z": 1.8383953356,
				"element": "H" 
			},
			{
				"x": -2.678932915,
				"y": -0.9264215197,
				"z": 0.3102891208,
				"element": "H" 
			},
			{
				"x": -1.1427616849,
				"y": 0.6814759493,
				"z": -0.767056955,
				"element": "H" 
			},
			{
				"x": 0.5552452964,
				"y": 1.3095794508,
				"z": -2.2531688535,
				"element": "H" 
			},
			{
				"x": 0.5454549341,
				"y": 2.3053865245,
				"z": -0.7835538991,
				"element": "H" 
			},
			{
				"x": 3.6501256331,
				"y": 1.1038303178,
				"z": -1.0219504877,
				"element": "H" 
			},
			{
				"x": 4.3887883585,
				"y": 2.4228990772,
				"z": -1.9105827954,
				"element": "H" 
			},
			{
				"x": 2.2128952674,
				"y": -1.5329936194,
				"z": 0.7540933792,
				"element": "H" 
			},
			{
				"x": 0.6766629636,
				"y": -3.138604773,
				"z": 1.8299361676,
				"element": "H" 
			}
		],
		 "valence_orbital": [ 
			{
				"type": "occ",
				"energy": -0.29555,
				"method": "rhf"
			},
			{
				"type": "occ",
				"energy": -0.2655,
				"method": "rhf"
			},
			{
				"type": "occ",
				"energy": -0.25705,
				"method": "rhf"
			},
			{
				"type": "occ",
				"energy": -0.24986,
				"method": "rhf"
			},
			{
				"type": "occ",
				"energy": -0.20524,
				"method": "rhf"
			},
			{
				"type": "unocc",
				"energy": -0.00873,
				"method": "rhf"
			},
			{
				"type": "unocc",
				"energy": 0.01921,
				"method": "rhf"
			},
			{
				"type": "unocc",
				"energy": 0.03301,
				"method": "rhf"
			},
			{
				"type": "unocc",
				"energy": 0.08531,
				"method": "rhf"
			},
			{
				"type": "unocc",
				"energy": 0.08612,
				"method": "rhf"
			}
		],
		"cosmo_sigma_profile": { 
			"-0.025": 0.0,
			"-0.024": 0.0,
			"-0.023": 0.0,
			"-0.022": 0.0,
			"-0.021": 0.0,
			"-0.02": 0.0,
			"-0.019": 0.0,
			"-0.018": 0.0,
			"-0.017": 0.0,
			"-0.016": 0.0,
			"-0.015": 0.12741229252,
			"-0.014": 1.25389265286,
			"-0.013": 1.18950585979,
			"-0.012": 1.76421232527,
			"-0.011": 1.88985374807,
			"-0.01": 1.89668270798,
			"-0.009": 1.86988812758,
			"-0.008": 1.93791983896,
			"-0.007": 8.16537082517,
			"-0.006": 15.7289989367,
			"-0.005": 19.6131207268,
			"-0.004": 19.1556624962,
			"-0.003": 18.032577112,
			"-0.002": 11.7421887054,
			"-0.001": 9.96469017236,
			"0.0": 11.2216432851,
			"0.001": 11.8865185064,
			"0.002": 10.5407048472,
			"0.003": 12.9235463928,
			"0.004": 16.7290834649,
			"0.005": 15.9751332928,
			"0.006": 5.75699337135,
			"0.007": 2.77973185448,
			"0.008": 2.5478795423,
			"0.009": 2.24854896497,
			"0.01": 2.11670151411,
			"0.011": 3.17443221017,
			"0.012": 1.68388222342,
			"0.013": 4.21095090509,
			"0.014": 5.37628607912,
			"0.015": 1.39400081319,
			"0.016": 0.0,
			"0.017": 0.0,
			"0.018": 0.0,
			"0.019": 0.0,
			"0.02": 0.0,
			"0.021": 0.0,
			"0.022": 0.0,
			"0.023": 0.0,
			"0.024": 0.0,
			"0.025": 0.0
		}
	}
}
