{
	 "smiles": "ClC1=C2C3=C(CCCC3)SC2=NC(CSC2=CC=CC=C2)=N1", 
	 "Tm": 329.15, 
	 "num_atms": 37, 
	 "gaussian": { 
		 "optdone": 1, 
		 "sigma_profile": "yes", 
		 "theory": "DFT", 
		 "functional": "B3LYP", 
		 "basiset": "6-31G**", 
		 "properties": { 
			 "R2extent": 9818.9486, 
			 "electric_dipole_moment_norm": 4.59265005634, 
			 "electric_quadrupole_moment_norm": 11.1167213395, 
			 "total_energy": -2022.9390058, 
			 "HOMO_LUMO_gap": 0.1684, 
			 "cosmo_polarized_energy": -10.97, 
			 "cosmo_cavitation_energy": 44.83, 
			 "cosmo_dispersion_energy": -31.95, 
			 "cosmo_repulsion_energy": 2.39, 
			 "cosmo_total_nonelectrostatic_energy": 15.27, 
			 "SMD_solvation_energy": 2.41 
		},
		"coords": [
			{
				"x": -1.422120583,
				"y": -3.2878612726,
				"z": -0.4928399513,
				"element": "Cl" 
			},
			{
				"x": -1.1304913202,
				"y": -1.6747948649,
				"z": 0.1573151432,
				"element": "C" 
			},
			{
				"x": 0.180009185,
				"y": -1.1922913453,
				"z": 0.3375912954,
				"element": "C" 
			},
			{
				"x": 1.5094003388,
				"y": -1.709195261,
				"z": 0.0887673475,
				"element": "C" 
			},
			{
				"x": 2.474209554,
				"y": -0.8296587967,
				"z": 0.495777704,
				"element": "C" 
			},
			{
				"x": 3.9586459212,
				"y": -1.0531710861,
				"z": 0.3993642945,
				"element": "C" 
			},
			{
				"x": 4.2641478873,
				"y": -2.539185103,
				"z": 0.1463379564,
				"element": "C" 
			},
			{
				"x": 3.3478517985,
				"y": -3.1023464547,
				"z": -0.9465344864,
				"element": "C" 
			},
			{
				"x": 1.8661577974,
				"y": -3.0401173002,
				"z": -0.5370684536,
				"element": "C" 
			},
			{
				"x": 1.8353591867,
				"y": 0.6654839415,
				"z": 1.1733548143,
				"element": "S" 
			},
			{
				"x": 0.1974723632,
				"y": 0.1045093746,
				"z": 0.918298396,
				"element": "C" 
			},
			{
				"x": -0.8699325273,
				"y": 0.8252187712,
				"z": 1.2502560235,
				"element": "N" 
			},
			{
				"x": -2.0446988116,
				"y": 0.2441886848,
				"z": 0.996337024,
				"element": "C" 
			},
			{
				"x": -3.2905710176,
				"y": 1.0203953542,
				"z": 1.3082576585,
				"element": "C" 
			},
			{
				"x": -3.9917813165,
				"y": 1.8988402611,
				"z": -0.1688491922,
				"element": "S" 
			},
			{
				"x": -2.8500177077,
				"y": 3.2716020999,
				"z": -0.3580942868,
				"element": "C" 
			},
			{
				"x": -2.9256562629,
				"y": 4.3836634513,
				"z": 0.4923037684,
				"element": "C" 
			},
			{
				"x": -2.0623437937,
				"y": 5.4637028709,
				"z": 0.3109071358,
				"element": "C" 
			},
			{
				"x": -1.1310716496,
				"y": 5.4502391988,
				"z": -0.7305047155,
				"element": "C" 
			},
			{
				"x": -1.0626943074,
				"y": 4.3514215952,
				"z": -1.5880123111,
				"element": "C" 
			},
			{
				"x": -1.9160049099,
				"y": 3.2620395261,
				"z": -1.401679336,
				"element": "C" 
			},
			{
				"x": -2.2060772551,
				"y": -0.987737035,
				"z": 0.4675811781,
				"element": "N" 
			},
			{
				"x": 4.4553220702,
				"y": -0.7091669596,
				"z": 1.3145875327,
				"element": "H" 
			},
			{
				"x": 4.3685821989,
				"y": -0.4419405247,
				"z": -0.4176534806,
				"element": "H" 
			},
			{
				"x": 5.3170806275,
				"y": -2.6551787294,
				"z": -0.1320306968,
				"element": "H" 
			},
			{
				"x": 4.1156418634,
				"y": -3.1038753135,
				"z": 1.0756860299,
				"element": "H" 
			},
			{
				"x": 3.494301308,
				"y": -2.5252301922,
				"z": -1.8692045132,
				"element": "H" 
			},
			{
				"x": 3.6178267182,
				"y": -4.1382318579,
				"z": -1.1779165004,
				"element": "H" 
			},
			{
				"x": 1.2322896236,
				"y": -3.2253132696,
				"z": -1.4088730672,
				"element": "H" 
			},
			{
				"x": 1.6380950155,
				"y": -3.8479380219,
				"z": 0.1715217127,
				"element": "H" 
			},
			{
				"x": -4.0866601326,
				"y": 0.3401898422,
				"z": 1.6173957469,
				"element": "H" 
			},
			{
				"x": -3.0954489606,
				"y": 1.7511431725,
				"z": 2.093930771,
				"element": "H" 
			},
			{
				"x": -3.6644441741,
				"y": 4.4005137005,
				"z": 1.2879103258,
				"element": "H" 
			},
			{
				"x": -2.1240370168,
				"y": 6.3205888751,
				"z": 0.9758024157,
				"element": "H" 
			},
			{
				"x": -0.464450221,
				"y": 6.2956766543,
				"z": -0.8746342218,
				"element": "H" 
			},
			{
				"x": -0.3416317636,
				"y": 4.3376926964,
				"z": -2.4003998526,
				"element": "H" 
			},
			{
				"x": -1.863859726,
				"y": 2.4025233178,
				"z": -2.0621892089,
				"element": "H" 
			}
		],
		 "valence_orbital": [ 
			{
				"type": "occ",
				"energy": -0.26451,
				"method": "rhf"
			},
			{
				"type": "occ",
				"energy": -0.25305,
				"method": "rhf"
			},
			{
				"type": "occ",
				"energy": -0.25186,
				"method": "rhf"
			},
			{
				"type": "occ",
				"energy": -0.23243,
				"method": "rhf"
			},
			{
				"type": "occ",
				"energy": -0.22203,
				"method": "rhf"
			},
			{
				"type": "unocc",
				"energy": -0.05363,
				"method": "rhf"
			},
			{
				"type": "unocc",
				"energy": -0.03912,
				"method": "rhf"
			},
			{
				"type": "unocc",
				"energy": -0.0143,
				"method": "rhf"
			},
			{
				"type": "unocc",
				"energy": -0.00344,
				"method": "rhf"
			},
			{
				"type": "unocc",
				"energy": 0.004,
				"method": "rhf"
			}
		],
		"cosmo_sigma_profile": { 
			"-0.025": 0.0,
			"-0.024": 0.0,
			"-0.023": 0.0,
			"-0.022": 0.0,
			"-0.021": 0.0,
			"-0.02": 0.0,
			"-0.019": 0.0,
			"-0.018": 0.0,
			"-0.017": 0.0,
			"-0.016": 0.0,
			"-0.015": 0.0,
			"-0.014": 0.0,
			"-0.013": 0.0,
			"-0.012": 0.0,
			"-0.011": 0.0,
			"-0.01": 0.0,
			"-0.009": 0.0,
			"-0.008": 0.336312247593,
			"-0.007": 2.31669011821,
			"-0.006": 11.7487873894,
			"-0.005": 20.6787455578,
			"-0.004": 25.5343387099,
			"-0.003": 39.503851341,
			"-0.002": 45.2167146676,
			"-0.001": 37.7141765529,
			"0.0": 34.9116775856,
			"0.001": 31.4493210426,
			"0.002": 25.5027649239,
			"0.003": 23.5574050973,
			"0.004": 21.4961479747,
			"0.005": 15.4840154284,
			"0.006": 6.93064510094,
			"0.007": 5.73773017237,
			"0.008": 6.00985659088,
			"0.009": 4.0489058044,
			"0.01": 1.83990417263,
			"0.011": 1.48648505063,
			"0.012": 1.62645620614,
			"0.013": 0.383714553484,
			"0.014": 0.00483493584829,
			"0.015": 0.0,
			"0.016": 0.0,
			"0.017": 0.0,
			"0.018": 0.0,
			"0.019": 0.0,
			"0.02": 0.0,
			"0.021": 0.0,
			"0.022": 0.0,
			"0.023": 0.0,
			"0.024": 0.0,
			"0.025": 0.0
		}
	}
}
