{
	 "smiles": "CCCCCCC1=CC=C(C=C1)C(=O)OC1=CC=C(C=C1)C#N", 
	 "Tm": 319.15, 
	 "num_atms": 44, 
	 "gaussian": { 
		 "optdone": 1, 
		 "sigma_profile": "yes", 
		 "theory": "DFT", 
		 "functional": "B3LYP", 
		 "basiset": "6-31G**", 
		 "properties": { 
			 "R2extent": 15989.1984, 
			 "electric_dipole_moment_norm": 7.25895608197, 
			 "electric_quadrupole_moment_norm": 56.6062162983, 
			 "total_energy": -980.003828506, 
			 "HOMO_LUMO_gap": 0.18681, 
			 "cosmo_polarized_energy": -12.57, 
			 "cosmo_cavitation_energy": 48.99, 
			 "cosmo_dispersion_energy": -33.41, 
			 "cosmo_repulsion_energy": 2.56, 
			 "cosmo_total_nonelectrostatic_energy": 18.15, 
			 "SMD_solvation_energy": 9.91 
		},
		"coords": [
			{
				"x": 2.3850158801,
				"y": -4.7721164457,
				"z": 3.781924458,
				"element": "C" 
			},
			{
				"x": 0.9808803011,
				"y": -4.2610594723,
				"z": 3.437231743,
				"element": "C" 
			},
			{
				"x": 0.5613878981,
				"y": -4.4805178382,
				"z": 1.9733505152,
				"element": "C" 
			},
			{
				"x": 1.3803088887,
				"y": -3.6772528598,
				"z": 0.9516843178,
				"element": "C" 
			},
			{
				"x": 0.9637963279,
				"y": -3.8975154778,
				"z": -0.512088626,
				"element": "C" 
			},
			{
				"x": -0.4328479528,
				"y": -3.3536546215,
				"z": -0.8995589914,
				"element": "C" 
			},
			{
				"x": -0.5467360825,
				"y": -1.8473394376,
				"z": -0.8115238322,
				"element": "C" 
			},
			{
				"x": -1.2215462626,
				"y": -1.225812358,
				"z": 0.2500802055,
				"element": "C" 
			},
			{
				"x": -1.3044736472,
				"y": 0.1603497925,
				"z": 0.3351930818,
				"element": "C" 
			},
			{
				"x": -0.7127792794,
				"y": 0.9637314757,
				"z": -0.6494120512,
				"element": "C" 
			},
			{
				"x": -0.0385154631,
				"y": 0.3555343498,
				"z": -1.7196315527,
				"element": "C" 
			},
			{
				"x": 0.0398009409,
				"y": -1.0310336412,
				"z": -1.7925574007,
				"element": "C" 
			},
			{
				"x": -0.8363374839,
				"y": 2.4338878009,
				"z": -0.5022476748,
				"element": "C" 
			},
			{
				"x": -1.3937313144,
				"y": 3.0003736054,
				"z": 0.4106793272,
				"element": "O" 
			},
			{
				"x": -0.234685474,
				"y": 3.0933674066,
				"z": -1.5534231833,
				"element": "O" 
			},
			{
				"x": -0.2021440848,
				"y": 4.4756169901,
				"z": -1.6331553607,
				"element": "C" 
			},
			{
				"x": -0.312112694,
				"y": 4.9991405021,
				"z": -2.9241682034,
				"element": "C" 
			},
			{
				"x": -0.217282537,
				"y": 6.3702893162,
				"z": -3.1252902244,
				"element": "C" 
			},
			{
				"x": -0.0125914778,
				"y": 7.2263025591,
				"z": -2.0295821296,
				"element": "C" 
			},
			{
				"x": 0.0989772479,
				"y": 6.6853635462,
				"z": -0.7377001419,
				"element": "C" 
			},
			{
				"x": 0.0076865642,
				"y": 5.3123032265,
				"z": -0.5325110058,
				"element": "C" 
			},
			{
				"x": 0.0851843577,
				"y": 8.6420281926,
				"z": -2.2298692434,
				"element": "C" 
			},
			{
				"x": 0.1657711621,
				"y": 9.7910634928,
				"z": -2.3941392589,
				"element": "N" 
			},
			{
				"x": 2.4819864974,
				"y": -5.8406187464,
				"z": 3.5561225261,
				"element": "H" 
			},
			{
				"x": 2.6008607445,
				"y": -4.6379145125,
				"z": 4.8469324233,
				"element": "H" 
			},
			{
				"x": 3.1636380196,
				"y": -4.2436386932,
				"z": 3.2225495697,
				"element": "H" 
			},
			{
				"x": 0.2523180594,
				"y": -4.761449869,
				"z": 4.0877829963,
				"element": "H" 
			},
			{
				"x": 0.9128142435,
				"y": -3.1904854052,
				"z": 3.674615526,
				"element": "H" 
			},
			{
				"x": 0.6346677675,
				"y": -5.5513736883,
				"z": 1.7329264389,
				"element": "H" 
			},
			{
				"x": -0.5011928584,
				"y": -4.2223515696,
				"z": 1.8772213036,
				"element": "H" 
			},
			{
				"x": 1.317480022,
				"y": -2.6079448468,
				"z": 1.1947373039,
				"element": "H" 
			},
			{
				"x": 2.4391784906,
				"y": -3.9469794345,
				"z": 1.0440538095,
				"element": "H" 
			},
			{
				"x": 1.7097873205,
				"y": -3.4326187261,
				"z": -1.1689808655,
				"element": "H" 
			},
			{
				"x": 0.9858743819,
				"y": -4.9722410347,
				"z": -0.7364817291,
				"element": "H" 
			},
			{
				"x": -0.646947441,
				"y": -3.6677237787,
				"z": -1.9286028227,
				"element": "H" 
			},
			{
				"x": -1.2010489941,
				"y": -3.8158287873,
				"z": -0.2704248799,
				"element": "H" 
			},
			{
				"x": -1.6907813161,
				"y": -1.8382263511,
				"z": 1.0153324484,
				"element": "H" 
			},
			{
				"x": -1.8262349343,
				"y": 0.6408072951,
				"z": 1.1559762718,
				"element": "H" 
			},
			{
				"x": 0.4158185987,
				"y": 0.9703100979,
				"z": -2.4878086622,
				"element": "H" 
			},
			{
				"x": 0.5595840988,
				"y": -1.4923144739,
				"z": -2.6285772731,
				"element": "H" 
			},
			{
				"x": -0.4692048426,
				"y": 4.3204204289,
				"z": -3.7553394367,
				"element": "H" 
			},
			{
				"x": -0.3017898393,
				"y": 6.7841305324,
				"z": -4.1242376233,
				"element": "H" 
			},
			{
				"x": 0.2598931316,
				"y": 7.3468365048,
				"z": 0.1067741357,
				"element": "H" 
			},
			{
				"x": 0.0848730346,
				"y": 4.8997549538,
				"z": 0.4633437712,
				"element": "H" 
			}
		],
		 "valence_orbital": [ 
			{
				"type": "occ",
				"energy": -0.29283,
				"method": "rhf"
			},
			{
				"type": "occ",
				"energy": -0.27608,
				"method": "rhf"
			},
			{
				"type": "occ",
				"energy": -0.26819,
				"method": "rhf"
			},
			{
				"type": "occ",
				"energy": -0.26203,
				"method": "rhf"
			},
			{
				"type": "occ",
				"energy": -0.25224,
				"method": "rhf"
			},
			{
				"type": "unocc",
				"energy": -0.06543,
				"method": "rhf"
			},
			{
				"type": "unocc",
				"energy": -0.04153,
				"method": "rhf"
			},
			{
				"type": "unocc",
				"energy": -0.02583,
				"method": "rhf"
			},
			{
				"type": "unocc",
				"energy": -0.01781,
				"method": "rhf"
			},
			{
				"type": "unocc",
				"energy": 0.03862,
				"method": "rhf"
			}
		],
		"cosmo_sigma_profile": { 
			"-0.025": 0.0,
			"-0.024": 0.0,
			"-0.023": 0.0,
			"-0.022": 0.0,
			"-0.021": 0.0,
			"-0.02": 0.0,
			"-0.019": 0.0,
			"-0.018": 0.0,
			"-0.017": 0.0,
			"-0.016": 0.0,
			"-0.015": 0.0,
			"-0.014": 0.0,
			"-0.013": 0.0,
			"-0.012": 0.0,
			"-0.011": 0.0,
			"-0.01": 0.0,
			"-0.009": 0.53009927278,
			"-0.008": 5.85742011132,
			"-0.007": 8.15842343309,
			"-0.006": 12.203242147,
			"-0.005": 16.4664036842,
			"-0.004": 21.487185595,
			"-0.003": 25.0868532108,
			"-0.002": 39.7271516145,
			"-0.001": 48.463937305,
			"0.0": 57.6579213749,
			"0.001": 56.7187468688,
			"0.002": 28.9482146624,
			"0.003": 16.3997481741,
			"0.004": 12.1279573802,
			"0.005": 3.83257657384,
			"0.006": 4.40881761454,
			"0.007": 4.41213800845,
			"0.008": 5.21358547906,
			"0.009": 5.16651377756,
			"0.01": 6.06279117761,
			"0.011": 5.71943695089,
			"0.012": 2.65000788275,
			"0.013": 1.5755685615,
			"0.014": 0.0331263586597,
			"0.015": 0.0,
			"0.016": 0.0,
			"0.017": 0.0,
			"0.018": 0.0,
			"0.019": 0.0,
			"0.02": 0.0,
			"0.021": 0.0,
			"0.022": 0.0,
			"0.023": 0.0,
			"0.024": 0.0,
			"0.025": 0.0
		}
	}
}
