{
	 "smiles": "[O-][N+](=O)C1=CC(=CC=C1)N1CCCC1=O", 
	 "Tm": 381.15, 
	 "num_atms": 25, 
	 "gaussian": { 
		 "optdone": 1, 
		 "sigma_profile": "yes", 
		 "theory": "DFT", 
		 "functional": "B3LYP", 
		 "basiset": "6-31G**", 
		 "properties": { 
			 "R2extent": 3980.6306, 
			 "electric_dipole_moment_norm": 8.20308811668, 
			 "electric_quadrupole_moment_norm": 6.17056966252, 
			 "total_energy": -722.18525739, 
			 "HOMO_LUMO_gap": 0.15578, 
			 "cosmo_polarized_energy": -15.48, 
			 "cosmo_cavitation_energy": 28.93, 
			 "cosmo_dispersion_energy": -21.47, 
			 "cosmo_repulsion_energy": 1.66, 
			 "cosmo_total_nonelectrostatic_energy": 9.12, 
			 "SMD_solvation_energy": 7.13 
		},
		"coords": [
			{
				"x": -0.3201016657,
				"y": -3.0914966995,
				"z": 0.4433691369,
				"element": "O" 
			},
			{
				"x": 0.8310694387,
				"y": -3.1135649463,
				"z": 0.014486255,
				"element": "N" 
			},
			{
				"x": 1.5500718074,
				"y": -4.1127504516,
				"z": -0.0127488355,
				"element": "O" 
			},
			{
				"x": 1.3983048378,
				"y": -1.8541693863,
				"z": -0.5097949158,
				"element": "C" 
			},
			{
				"x": 0.6041867635,
				"y": -0.7147713189,
				"z": -0.4741277028,
				"element": "C" 
			},
			{
				"x": 1.1327559466,
				"y": 0.4884169722,
				"z": -0.9751398661,
				"element": "C" 
			},
			{
				"x": 2.4428899985,
				"y": 0.490466874,
				"z": -1.490476388,
				"element": "C" 
			},
			{
				"x": 3.2067347436,
				"y": -0.6767299218,
				"z": -1.5101216096,
				"element": "C" 
			},
			{
				"x": 2.6953276855,
				"y": -1.872905419,
				"z": -1.0179938319,
				"element": "C" 
			},
			{
				"x": 0.3769636146,
				"y": 1.6784420784,
				"z": -0.9838475462,
				"element": "N" 
			},
			{
				"x": 0.8513914768,
				"y": 2.8870627429,
				"z": -1.671253486,
				"element": "C" 
			},
			{
				"x": -0.3771345391,
				"y": 3.8143026276,
				"z": -1.6809829448,
				"element": "C" 
			},
			{
				"x": -1.1666257202,
				"y": 3.3781340335,
				"z": -0.4431282968,
				"element": "C" 
			},
			{
				"x": -0.78641227,
				"y": 1.9139352488,
				"z": -0.2473576885,
				"element": "C" 
			},
			{
				"x": -1.3787179979,
				"y": 1.1060408946,
				"z": 0.4437130183,
				"element": "O" 
			},
			{
				"x": -0.3907437663,
				"y": -0.7568564087,
				"z": -0.058479128,
				"element": "H" 
			},
			{
				"x": 2.8797615019,
				"y": 1.4055062957,
				"z": -1.8715323925,
				"element": "H" 
			},
			{
				"x": 4.2142843134,
				"y": -0.6451322868,
				"z": -1.9126249921,
				"element": "H" 
			},
			{
				"x": 3.263582308,
				"y": -2.7934463754,
				"z": -1.0183808337,
				"element": "H" 
			},
			{
				"x": 1.1958083152,
				"y": 2.6424240996,
				"z": -2.6803294982,
				"element": "H" 
			},
			{
				"x": 1.6940024916,
				"y": 3.3347291136,
				"z": -1.1254934805,
				"element": "H" 
			},
			{
				"x": -0.0905374397,
				"y": 4.8681789312,
				"z": -1.6725623534,
				"element": "H" 
			},
			{
				"x": -0.9659135631,
				"y": 3.6339817918,
				"z": -2.5856619952,
				"element": "H" 
			},
			{
				"x": -2.2502548656,
				"y": 3.4755389955,
				"z": -0.5318149689,
				"element": "H" 
			},
			{
				"x": -0.8602934156,
				"y": 3.9263625148,
				"z": 0.4566843443,
				"element": "H" 
			}
		],
		 "valence_orbital": [ 
			{
				"type": "occ",
				"energy": -0.2999,
				"method": "rhf"
			},
			{
				"type": "occ",
				"energy": -0.28361,
				"method": "rhf"
			},
			{
				"type": "occ",
				"energy": -0.27809,
				"method": "rhf"
			},
			{
				"type": "occ",
				"energy": -0.26248,
				"method": "rhf"
			},
			{
				"type": "occ",
				"energy": -0.23777,
				"method": "rhf"
			},
			{
				"type": "unocc",
				"energy": -0.08199,
				"method": "rhf"
			},
			{
				"type": "unocc",
				"energy": -0.03009,
				"method": "rhf"
			},
			{
				"type": "unocc",
				"energy": -0.00075,
				"method": "rhf"
			},
			{
				"type": "unocc",
				"energy": 0.0312,
				"method": "rhf"
			},
			{
				"type": "unocc",
				"energy": 0.06834,
				"method": "rhf"
			}
		],
		"cosmo_sigma_profile": { 
			"-0.025": 0.0,
			"-0.024": 0.0,
			"-0.023": 0.0,
			"-0.022": 0.0,
			"-0.021": 0.0,
			"-0.02": 0.0,
			"-0.019": 0.0,
			"-0.018": 0.0,
			"-0.017": 0.0,
			"-0.016": 0.0,
			"-0.015": 0.0,
			"-0.014": 0.0,
			"-0.013": 0.0,
			"-0.012": 0.0,
			"-0.011": 0.0,
			"-0.01": 0.0,
			"-0.009": 0.0,
			"-0.008": 2.09976294841,
			"-0.007": 7.61157960639,
			"-0.006": 16.5109116697,
			"-0.005": 23.5834978483,
			"-0.004": 24.2852894205,
			"-0.003": 17.8808513479,
			"-0.002": 14.9185051272,
			"-0.001": 18.1818923606,
			"0.0": 13.6167660209,
			"0.001": 17.6794912305,
			"0.002": 14.3831825817,
			"0.003": 8.69016182224,
			"0.004": 3.89873473559,
			"0.005": 3.65465054778,
			"0.006": 5.72106473656,
			"0.007": 9.8501110413,
			"0.008": 9.77602634994,
			"0.009": 5.40815694902,
			"0.01": 4.54697397528,
			"0.011": 2.4241169927,
			"0.012": 2.99974550855,
			"0.013": 2.33502934388,
			"0.014": 0.630850733034,
			"0.015": 0.0,
			"0.016": 0.0,
			"0.017": 0.0,
			"0.018": 0.0,
			"0.019": 0.0,
			"0.02": 0.0,
			"0.021": 0.0,
			"0.022": 0.0,
			"0.023": 0.0,
			"0.024": 0.0,
			"0.025": 0.0
		}
	}
}
