{
	 "smiles": "ClC1CCC2=C(C=CC(=C2)S(Cl)(=O)=O)C1=O", 
	 "Tm": 398.15, 
	 "num_atms": 24, 
	 "gaussian": { 
		 "optdone": 1, 
		 "sigma_profile": "yes", 
		 "theory": "DFT", 
		 "functional": "B3LYP", 
		 "basiset": "6-31G**", 
		 "properties": { 
			 "R2extent": 6152.0435, 
			 "electric_dipole_moment_norm": 4.12060003034, 
			 "electric_quadrupole_moment_norm": 24.1521485462, 
			 "total_energy": -1930.07116629, 
			 "HOMO_LUMO_gap": 0.16669, 
			 "cosmo_polarized_energy": -13.4, 
			 "cosmo_cavitation_energy": 32.89, 
			 "cosmo_dispersion_energy": -24.44, 
			 "cosmo_repulsion_energy": 1.86, 
			 "cosmo_total_nonelectrostatic_energy": 10.31, 
			 "SMD_solvation_energy": 3.9 
		},
		"coords": [
			{
				"x": 0.6632179932,
				"y": -3.1914193146,
				"z": -1.9184176241,
				"element": "Cl" 
			},
			{
				"x": 1.4308649134,
				"y": -2.6668235425,
				"z": -0.3377777093,
				"element": "C" 
			},
			{
				"x": 2.3460751705,
				"y": -1.4663684945,
				"z": -0.5486699062,
				"element": "C" 
			},
			{
				"x": 1.5665613413,
				"y": -0.2253541492,
				"z": -0.9976590449,
				"element": "C" 
			},
			{
				"x": 0.3670096022,
				"y": 0.0577992122,
				"z": -0.1199895084,
				"element": "C" 
			},
			{
				"x": -0.2441413295,
				"y": -0.9622951375,
				"z": 0.6380636483,
				"element": "C" 
			},
			{
				"x": -1.3583828896,
				"y": -0.6900171871,
				"z": 1.4481112383,
				"element": "C" 
			},
			{
				"x": -1.8940231976,
				"y": 0.5886692479,
				"z": 1.5102246078,
				"element": "C" 
			},
			{
				"x": -1.2799801377,
				"y": 1.5872034301,
				"z": 0.7493793136,
				"element": "C" 
			},
			{
				"x": -0.1676445674,
				"y": 1.3498525194,
				"z": -0.0518187763,
				"element": "C" 
			},
			{
				"x": -1.9264749109,
				"y": 3.2572387553,
				"z": 0.8366220992,
				"element": "S" 
			},
			{
				"x": -3.3713267612,
				"y": 3.2147053482,
				"z": -0.72783053,
				"element": "Cl" 
			},
			{
				"x": -0.8938962163,
				"y": 4.195653142,
				"z": 0.415787792,
				"element": "O" 
			},
			{
				"x": -2.6704404383,
				"y": 3.4195226247,
				"z": 2.0786419542,
				"element": "O" 
			},
			{
				"x": 0.2900736416,
				"y": -2.3594161227,
				"z": 0.6357209297,
				"element": "C" 
			},
			{
				"x": -0.1423655876,
				"y": -3.2208329736,
				"z": 1.3791567758,
				"element": "O" 
			},
			{
				"x": 1.9630237009,
				"y": -3.5451527531,
				"z": 0.0271278104,
				"element": "H" 
			},
			{
				"x": 3.1305920599,
				"y": -1.7130600008,
				"z": -1.2694429597,
				"element": "H" 
			},
			{
				"x": 2.8403710668,
				"y": -1.2677397706,
				"z": 0.4124808453,
				"element": "H" 
			},
			{
				"x": 1.2201834792,
				"y": -0.3743839828,
				"z": -2.0284853301,
				"element": "H" 
			},
			{
				"x": 2.2266067765,
				"y": 0.6477830575,
				"z": -1.015695338,
				"element": "H" 
			},
			{
				"x": -1.7845815633,
				"y": -1.5048103207,
				"z": 2.0234417627,
				"element": "H" 
			},
			{
				"x": -2.7503278654,
				"y": 0.8184208456,
				"z": 2.1336227181,
				"element": "H" 
			},
			{
				"x": 0.2840057194,
				"y": 2.1655255667,
				"z": -0.6066947682,
				"element": "H" 
			}
		],
		 "valence_orbital": [ 
			{
				"type": "occ",
				"energy": -0.32021,
				"method": "rhf"
			},
			{
				"type": "occ",
				"energy": -0.31877,
				"method": "rhf"
			},
			{
				"type": "occ",
				"energy": -0.29814,
				"method": "rhf"
			},
			{
				"type": "occ",
				"energy": -0.29032,
				"method": "rhf"
			},
			{
				"type": "occ",
				"energy": -0.27766,
				"method": "rhf"
			},
			{
				"type": "unocc",
				"energy": -0.11097,
				"method": "rhf"
			},
			{
				"type": "unocc",
				"energy": -0.07943,
				"method": "rhf"
			},
			{
				"type": "unocc",
				"energy": -0.04817,
				"method": "rhf"
			},
			{
				"type": "unocc",
				"energy": -0.02858,
				"method": "rhf"
			},
			{
				"type": "unocc",
				"energy": 0.02366,
				"method": "rhf"
			}
		],
		"cosmo_sigma_profile": { 
			"-0.025": 0.0,
			"-0.024": 0.0,
			"-0.023": 0.0,
			"-0.022": 0.0,
			"-0.021": 0.0,
			"-0.02": 0.0,
			"-0.019": 0.0,
			"-0.018": 0.0,
			"-0.017": 0.0,
			"-0.016": 0.0,
			"-0.015": 0.0,
			"-0.014": 0.0,
			"-0.013": 0.0,
			"-0.012": 0.0,
			"-0.011": 0.0,
			"-0.01": 0.0143128152514,
			"-0.009": 2.41415871068,
			"-0.008": 8.58509341541,
			"-0.007": 10.9973813832,
			"-0.006": 14.9848454963,
			"-0.005": 17.3327392033,
			"-0.004": 18.9123716036,
			"-0.003": 16.8121609653,
			"-0.002": 15.333734535,
			"-0.001": 25.7692300284,
			"0.0": 21.64511181,
			"0.001": 14.494831374,
			"0.002": 14.3089514414,
			"0.003": 22.7185389266,
			"0.004": 14.3771012021,
			"0.005": 11.138653718,
			"0.006": 6.50041055228,
			"0.007": 8.80941707177,
			"0.008": 11.2454669403,
			"0.009": 5.22929855595,
			"0.01": 3.76703981471,
			"0.011": 2.01353086054,
			"0.012": 0.278289796021,
			"0.013": 0.0,
			"0.014": 0.0,
			"0.015": 0.0,
			"0.016": 0.0,
			"0.017": 0.0,
			"0.018": 0.0,
			"0.019": 0.0,
			"0.02": 0.0,
			"0.021": 0.0,
			"0.022": 0.0,
			"0.023": 0.0,
			"0.024": 0.0,
			"0.025": 0.0
		}
	}
}
