{
	 "smiles": "NC(=O)C1=CC=C(S1)S(N)(=O)=O", 
	 "Tm": 488.15, 
	 "num_atms": 18, 
	 "gaussian": { 
		 "optdone": 1, 
		 "sigma_profile": "yes", 
		 "theory": "DFT", 
		 "functional": "B3LYP", 
		 "basiset": "6-31G**", 
		 "properties": { 
			 "R2extent": 5291.5925, 
			 "electric_dipole_moment_norm": 3.54026485026, 
			 "electric_quadrupole_moment_norm": 36.51398941, 
			 "total_energy": -1325.62177887, 
			 "HOMO_LUMO_gap": 0.18541, 
			 "cosmo_polarized_energy": -24.9, 
			 "cosmo_cavitation_energy": 26.26, 
			 "cosmo_dispersion_energy": -20.22, 
			 "cosmo_repulsion_energy": 1.54, 
			 "cosmo_total_nonelectrostatic_energy": 7.59, 
			 "SMD_solvation_energy": 4.79 
		},
		"coords": [
			{
				"x": -0.9748882592,
				"y": -1.8193194899,
				"z": -0.4803730953,
				"element": "N" 
			},
			{
				"x": -0.7963725373,
				"y": -0.6067143904,
				"z": 0.1345490616,
				"element": "C" 
			},
			{
				"x": -1.2424435562,
				"y": -0.3524626087,
				"z": 1.2446807298,
				"element": "O" 
			},
			{
				"x": 0.0117581817,
				"y": 0.4036727661,
				"z": -0.6088310849,
				"element": "C" 
			},
			{
				"x": 0.0629101386,
				"y": 1.7380897538,
				"z": -0.2816398024,
				"element": "C" 
			},
			{
				"x": 0.8881909776,
				"y": 2.495731368,
				"z": -1.1531131473,
				"element": "C" 
			},
			{
				"x": 1.4634174999,
				"y": 1.7194980219,
				"z": -2.1293878233,
				"element": "C" 
			},
			{
				"x": 0.9962761423,
				"y": 0.0493512676,
				"z": -2.0073572017,
				"element": "S" 
			},
			{
				"x": 2.5997767496,
				"y": 2.2827367493,
				"z": -3.3812378039,
				"element": "S" 
			},
			{
				"x": 4.1469617153,
				"y": 2.0523181776,
				"z": -2.7850216773,
				"element": "N" 
			},
			{
				"x": 2.4177684504,
				"y": 3.7269494808,
				"z": -3.4781152283,
				"element": "O" 
			},
			{
				"x": 2.4717682093,
				"y": 1.3672947305,
				"z": -4.5111539803,
				"element": "O" 
			},
			{
				"x": -1.5993509365,
				"y": -2.4601645876,
				"z": -0.0119065663,
				"element": "H" 
			},
			{
				"x": -0.882883418,
				"y": -1.9180976515,
				"z": -1.4803009858,
				"element": "H" 
			},
			{
				"x": -0.4929100956,
				"y": 2.1382846958,
				"z": 0.5572610442,
				"element": "H" 
			},
			{
				"x": 1.0492599627,
				"y": 3.5648462632,
				"z": -1.0855208795,
				"element": "H" 
			},
			{
				"x": 4.3536408546,
				"y": 2.6191436376,
				"z": -1.9690838297,
				"element": "H" 
			},
			{
				"x": 4.3964199209,
				"y": 1.074541816,
				"z": -2.6774477296,
				"element": "H" 
			}
		],
		 "valence_orbital": [ 
			{
				"type": "occ",
				"energy": -0.31724,
				"method": "rhf"
			},
			{
				"type": "occ",
				"energy": -0.29235,
				"method": "rhf"
			},
			{
				"type": "occ",
				"energy": -0.2846,
				"method": "rhf"
			},
			{
				"type": "occ",
				"energy": -0.27332,
				"method": "rhf"
			},
			{
				"type": "occ",
				"energy": -0.26344,
				"method": "rhf"
			},
			{
				"type": "unocc",
				"energy": -0.07803,
				"method": "rhf"
			},
			{
				"type": "unocc",
				"energy": -0.00761,
				"method": "rhf"
			},
			{
				"type": "unocc",
				"energy": 0.00346,
				"method": "rhf"
			},
			{
				"type": "unocc",
				"energy": 0.03908,
				"method": "rhf"
			},
			{
				"type": "unocc",
				"energy": 0.04683,
				"method": "rhf"
			}
		],
		"cosmo_sigma_profile": { 
			"-0.025": 0.0,
			"-0.024": 0.0,
			"-0.023": 0.0,
			"-0.022": 0.0,
			"-0.021": 0.0,
			"-0.02": 0.0,
			"-0.019": 0.0,
			"-0.018": 0.0,
			"-0.017": 0.0,
			"-0.016": 0.982998236917,
			"-0.015": 3.697119047,
			"-0.014": 4.46578119715,
			"-0.013": 5.01337144747,
			"-0.012": 6.6070628054,
			"-0.011": 4.73521410665,
			"-0.01": 4.07331269433,
			"-0.009": 4.04582250448,
			"-0.008": 6.3911509718,
			"-0.007": 7.12998279417,
			"-0.006": 7.2045765874,
			"-0.005": 6.26606457235,
			"-0.004": 5.41250176977,
			"-0.003": 7.16884552776,
			"-0.002": 10.1670104795,
			"-0.001": 11.0012451333,
			"0.0": 16.7819241462,
			"0.001": 14.5440336205,
			"0.002": 11.3422536705,
			"0.003": 6.18762534909,
			"0.004": 6.30714411422,
			"0.005": 5.19956509527,
			"0.006": 5.47664743064,
			"0.007": 7.2922385508,
			"0.008": 5.74368543828,
			"0.009": 5.99433773198,
			"0.01": 11.3690598013,
			"0.011": 10.8423340781,
			"0.012": 4.18603826203,
			"0.013": 5.25653742251,
			"0.014": 0.740929229166,
			"0.015": 0.0,
			"0.016": 0.0,
			"0.017": 0.0,
			"0.018": 0.0,
			"0.019": 0.0,
			"0.02": 0.0,
			"0.021": 0.0,
			"0.022": 0.0,
			"0.023": 0.0,
			"0.024": 0.0,
			"0.025": 0.0
		}
	}
}
