{
	 "smiles": "OC(=O)C1=NC(OC2=CC=C(Cl)C=C2)=CC=C1", 
	 "Tm": 389.15, 
	 "num_atms": 25, 
	 "gaussian": { 
		 "optdone": 1, 
		 "sigma_profile": "yes", 
		 "theory": "DFT", 
		 "functional": "B3LYP", 
		 "basiset": "6-31G**", 
		 "properties": { 
			 "R2extent": 5773.9435, 
			 "electric_dipole_moment_norm": 5.18873898553, 
			 "electric_quadrupole_moment_norm": 19.0767645087, 
			 "total_energy": -1202.72476912, 
			 "HOMO_LUMO_gap": 0.18392, 
			 "cosmo_polarized_energy": -13.48, 
			 "cosmo_cavitation_energy": 33.07, 
			 "cosmo_dispersion_energy": -23.38, 
			 "cosmo_repulsion_energy": 1.83, 
			 "cosmo_total_nonelectrostatic_energy": 11.52, 
			 "SMD_solvation_energy": 6.47 
		},
		"coords": [
			{
				"x": -1.0140033039,
				"y": -2.7845484129,
				"z": -0.4542902332,
				"element": "O" 
			},
			{
				"x": -2.0986628118,
				"y": -2.1298130103,
				"z": -0.8974663506,
				"element": "C" 
			},
			{
				"x": -3.0415610335,
				"y": -2.6843803084,
				"z": -1.414855638,
				"element": "O" 
			},
			{
				"x": -2.0360610688,
				"y": -0.6360489168,
				"z": -0.6918432451,
				"element": "C" 
			},
			{
				"x": -0.913862455,
				"y": -0.1797919223,
				"z": -0.1000499513,
				"element": "N" 
			},
			{
				"x": -0.8061565428,
				"y": 1.1232621152,
				"z": 0.1048657089,
				"element": "C" 
			},
			{
				"x": 0.3093079087,
				"y": 1.6306391968,
				"z": 0.6995320807,
				"element": "O" 
			},
			{
				"x": 1.3328722852,
				"y": 0.7651402715,
				"z": 1.0883092776,
				"element": "C" 
			},
			{
				"x": 2.3793524282,
				"y": 0.5056987442,
				"z": 0.2067374094,
				"element": "C" 
			},
			{
				"x": 3.4497791086,
				"y": -0.2849878947,
				"z": 0.6240466107,
				"element": "C" 
			},
			{
				"x": 3.452490805,
				"y": -0.8025806003,
				"z": 1.9198009774,
				"element": "C" 
			},
			{
				"x": 4.8003734557,
				"y": -1.7957448147,
				"z": 2.4490012509,
				"element": "Cl" 
			},
			{
				"x": 2.4053436542,
				"y": -0.5408709844,
				"z": 2.8040388934,
				"element": "C" 
			},
			{
				"x": 1.3370047123,
				"y": 0.2503176745,
				"z": 2.3823440835,
				"element": "C" 
			},
			{
				"x": -1.7989407989,
				"y": 2.0488197623,
				"z": -0.26238524,
				"element": "C" 
			},
			{
				"x": -2.9462253038,
				"y": 1.5606304245,
				"z": -0.8699937397,
				"element": "C" 
			},
			{
				"x": -3.0794702051,
				"y": 0.1844299487,
				"z": -1.0957435858,
				"element": "C" 
			},
			{
				"x": -0.4098618266,
				"y": -2.1082616084,
				"z": -0.0850387617,
				"element": "H" 
			},
			{
				"x": 2.3565336035,
				"y": 0.9255543942,
				"z": -0.793197319,
				"element": "H" 
			},
			{
				"x": 4.2740281456,
				"y": -0.4959683006,
				"z": -0.0478061156,
				"element": "H" 
			},
			{
				"x": 2.4265602936,
				"y": -0.9485886974,
				"z": 3.8083295867,
				"element": "H" 
			},
			{
				"x": 0.5139789764,
				"y": 0.4741334005,
				"z": 3.0525716334,
				"element": "H" 
			},
			{
				"x": -1.6464706748,
				"y": 3.1034400077,
				"z": -0.0652241833,
				"element": "H" 
			},
			{
				"x": -3.7346473609,
				"y": 2.2452956522,
				"z": -1.1675767063,
				"element": "H" 
			},
			{
				"x": -3.9514019913,
				"y": -0.2535761212,
				"z": -1.5654064431,
				"element": "H" 
			}
		],
		 "valence_orbital": [ 
			{
				"type": "occ",
				"energy": -0.31051,
				"method": "rhf"
			},
			{
				"type": "occ",
				"energy": -0.27971,
				"method": "rhf"
			},
			{
				"type": "occ",
				"energy": -0.2702,
				"method": "rhf"
			},
			{
				"type": "occ",
				"energy": -0.26158,
				"method": "rhf"
			},
			{
				"type": "occ",
				"energy": -0.25353,
				"method": "rhf"
			},
			{
				"type": "unocc",
				"energy": -0.06961,
				"method": "rhf"
			},
			{
				"type": "unocc",
				"energy": -0.03296,
				"method": "rhf"
			},
			{
				"type": "unocc",
				"energy": -0.02811,
				"method": "rhf"
			},
			{
				"type": "unocc",
				"energy": -0.02459,
				"method": "rhf"
			},
			{
				"type": "unocc",
				"energy": 0.02017,
				"method": "rhf"
			}
		],
		"cosmo_sigma_profile": { 
			"-0.025": 0.0,
			"-0.024": 0.0,
			"-0.023": 0.0,
			"-0.022": 0.0,
			"-0.021": 0.0,
			"-0.02": 0.0,
			"-0.019": 0.0,
			"-0.018": 0.0,
			"-0.017": 0.0,
			"-0.016": 0.0,
			"-0.015": 0.0,
			"-0.014": 0.0,
			"-0.013": 0.0,
			"-0.012": 0.0143567198236,
			"-0.011": 0.437868049974,
			"-0.01": 0.690280345361,
			"-0.009": 1.17388554711,
			"-0.008": 8.93189946573,
			"-0.007": 14.2323399228,
			"-0.006": 16.3775331499,
			"-0.005": 13.2669021097,
			"-0.004": 13.0298656714,
			"-0.003": 14.86034551,
			"-0.002": 17.8240867623,
			"-0.001": 20.9218578288,
			"0.0": 22.6019105614,
			"0.001": 29.2825441622,
			"0.002": 27.5850621727,
			"0.003": 15.9966023832,
			"0.004": 13.5707930316,
			"0.005": 7.83286124276,
			"0.006": 3.46415875961,
			"0.007": 4.24776406725,
			"0.008": 3.31146918649,
			"0.009": 3.93819237666,
			"0.01": 5.28927846019,
			"0.011": 5.01719335796,
			"0.012": 4.01730378092,
			"0.013": 1.18221959519,
			"0.014": 0.0,
			"0.015": 0.0,
			"0.016": 0.0,
			"0.017": 0.0,
			"0.018": 0.0,
			"0.019": 0.0,
			"0.02": 0.0,
			"0.021": 0.0,
			"0.022": 0.0,
			"0.023": 0.0,
			"0.024": 0.0,
			"0.025": 0.0
		}
	}
}
