{
	 "smiles": "CC(O)C(N)C(O)=O", 
	 "Tm": 547.15, 
	 "num_atms": 17, 
	 "gaussian": { 
		 "optdone": 1, 
		 "sigma_profile": "yes", 
		 "theory": "DFT", 
		 "functional": "B3LYP", 
		 "basiset": "6-31G**", 
		 "properties": { 
			 "R2extent": 1540.11, 
			 "electric_dipole_moment_norm": 4.13240871769, 
			 "electric_quadrupole_moment_norm": 10.1064001469, 
			 "total_energy": -438.285551178, 
			 "HOMO_LUMO_gap": 0.26394, 
			 "cosmo_polarized_energy": -13.98, 
			 "cosmo_cavitation_energy": 19.79, 
			 "cosmo_dispersion_energy": -14.77, 
			 "cosmo_repulsion_energy": 1.25, 
			 "cosmo_total_nonelectrostatic_energy": 6.27, 
			 "SMD_solvation_energy": 4.22 
		},
		"coords": [
			{
				"x": -1.1351218873,
				"y": 2.2477876045,
				"z": -0.3427802982,
				"element": "C" 
			},
			{
				"x": 0.0458258175,
				"y": 1.7628224342,
				"z": -1.1722603884,
				"element": "C" 
			},
			{
				"x": 1.2268176278,
				"y": 2.3540382112,
				"z": -0.6280194768,
				"element": "O" 
			},
			{
				"x": 0.205777915,
				"y": 0.2286852356,
				"z": -1.1626612132,
				"element": "C" 
			},
			{
				"x": 0.4310494173,
				"y": -0.3697458641,
				"z": 0.1615838574,
				"element": "N" 
			},
			{
				"x": 1.3947627211,
				"y": -0.1737831255,
				"z": -2.0644706014,
				"element": "C" 
			},
			{
				"x": 2.0059027243,
				"y": -1.2953351818,
				"z": -1.6718517106,
				"element": "O" 
			},
			{
				"x": 1.738253962,
				"y": 0.4678498994,
				"z": -3.0345444135,
				"element": "O" 
			},
			{
				"x": -1.0204931347,
				"y": 1.9618537188,
				"z": 0.7078507238,
				"element": "H" 
			},
			{
				"x": -1.1965682249,
				"y": 3.3377503125,
				"z": -0.3869887353,
				"element": "H" 
			},
			{
				"x": -2.07520046,
				"y": 1.8299646604,
				"z": -0.7179366952,
				"element": "H" 
			},
			{
				"x": -0.0859450846,
				"y": 2.0696601443,
				"z": -2.2174241232,
				"element": "H" 
			},
			{
				"x": 1.9094594441,
				"y": 2.2844399663,
				"z": -1.3112029125,
				"element": "H" 
			},
			{
				"x": -0.6871172209,
				"y": -0.2350579455,
				"z": -1.6031917225,
				"element": "H" 
			},
			{
				"x": 1.0072006566,
				"y": 0.2724375001,
				"z": 0.7058281379,
				"element": "H" 
			},
			{
				"x": -0.4393316605,
				"y": -0.506109032,
				"z": 0.6655602384,
				"element": "H" 
			},
			{
				"x": 1.583927387,
				"y": -1.5113585384,
				"z": -0.8043906667,
				"element": "H" 
			}
		],
		 "valence_orbital": [ 
			{
				"type": "occ",
				"energy": -0.33657,
				"method": "rhf"
			},
			{
				"type": "occ",
				"energy": -0.30978,
				"method": "rhf"
			},
			{
				"type": "occ",
				"energy": -0.306,
				"method": "rhf"
			},
			{
				"type": "occ",
				"energy": -0.2799,
				"method": "rhf"
			},
			{
				"type": "occ",
				"energy": -0.25748,
				"method": "rhf"
			},
			{
				"type": "unocc",
				"energy": 0.00646,
				"method": "rhf"
			},
			{
				"type": "unocc",
				"energy": 0.05967,
				"method": "rhf"
			},
			{
				"type": "unocc",
				"energy": 0.09091,
				"method": "rhf"
			},
			{
				"type": "unocc",
				"energy": 0.10794,
				"method": "rhf"
			},
			{
				"type": "unocc",
				"energy": 0.13077,
				"method": "rhf"
			}
		],
		"cosmo_sigma_profile": { 
			"-0.025": 0.0,
			"-0.024": 0.0,
			"-0.023": 0.0,
			"-0.022": 0.0,
			"-0.021": 0.0,
			"-0.02": 0.0,
			"-0.019": 0.0,
			"-0.018": 0.0,
			"-0.017": 0.0,
			"-0.016": 0.0,
			"-0.015": 0.0,
			"-0.014": 0.0315555619012,
			"-0.013": 0.48226621161,
			"-0.012": 1.52634290476,
			"-0.011": 2.12513785208,
			"-0.01": 2.51409855671,
			"-0.009": 3.49816586363,
			"-0.008": 6.00376692869,
			"-0.007": 9.7712348162,
			"-0.006": 8.43860826415,
			"-0.005": 8.74566476182,
			"-0.004": 11.2337493182,
			"-0.003": 11.3116366693,
			"-0.002": 10.0775426886,
			"-0.001": 8.69771283687,
			"0.0": 9.74279457406,
			"0.001": 7.7210682916,
			"0.002": 3.94138819874,
			"0.003": 3.43432505297,
			"0.004": 3.8802523735,
			"0.005": 3.24118885474,
			"0.006": 3.81724650485,
			"0.007": 3.92589430446,
			"0.008": 3.75582843402,
			"0.009": 3.93230270402,
			"0.01": 5.80901666843,
			"0.011": 5.87160795064,
			"0.012": 5.3852081144,
			"0.013": 3.46179957425,
			"0.014": 1.24336078979,
			"0.015": 0.0,
			"0.016": 0.0,
			"0.017": 0.0,
			"0.018": 0.0,
			"0.019": 0.0,
			"0.02": 0.0,
			"0.021": 0.0,
			"0.022": 0.0,
			"0.023": 0.0,
			"0.024": 0.0,
			"0.025": 0.0
		}
	}
}
