{
	 "smiles": "COC1=CC(N)=C(Cl)C=C1C(=O)NC1CCN(CC2=CC=CC=C2)CC1", 
	 "Tm": 467.15, 
	 "num_atms": 50, 
	 "gaussian": { 
		 "optdone": 1, 
		 "sigma_profile": "yes", 
		 "theory": "DFT", 
		 "functional": "B3LYP", 
		 "basiset": "6-31G**", 
		 "properties": { 
			 "R2extent": 15837.9901, 
			 "electric_dipole_moment_norm": 4.07545451208, 
			 "electric_quadrupole_moment_norm": 24.080265392, 
			 "total_energy": -1551.49088818, 
			 "HOMO_LUMO_gap": 0.1922, 
			 "cosmo_polarized_energy": -19.54, 
			 "cosmo_cavitation_energy": 52.77, 
			 "cosmo_dispersion_energy": -36.26, 
			 "cosmo_repulsion_energy": 2.75, 
			 "cosmo_total_nonelectrostatic_energy": 19.27, 
			 "SMD_solvation_energy": 7.3 
		},
		"coords": [
			{
				"x": -1.8075116181,
				"y": 1.9595147111,
				"z": -3.5360772999,
				"element": "C" 
			},
			{
				"x": -1.8366620265,
				"y": 0.7401854719,
				"z": -4.2744131357,
				"element": "O" 
			},
			{
				"x": -1.3830025385,
				"y": -0.4301553526,
				"z": -3.7543546429,
				"element": "C" 
			},
			{
				"x": -1.9601027945,
				"y": -1.5564296029,
				"z": -4.3517305021,
				"element": "C" 
			},
			{
				"x": -1.6396520153,
				"y": -2.8641443157,
				"z": -3.9692009371,
				"element": "C" 
			},
			{
				"x": -2.1763905797,
				"y": -3.9539181311,
				"z": -4.6221849187,
				"element": "N" 
			},
			{
				"x": -0.7204785789,
				"y": -3.0111630706,
				"z": -2.9077328586,
				"element": "C" 
			},
			{
				"x": -0.2842563398,
				"y": -4.6308450787,
				"z": -2.3576280081,
				"element": "Cl" 
			},
			{
				"x": -0.1486811684,
				"y": -1.9067968832,
				"z": -2.3035854059,
				"element": "C" 
			},
			{
				"x": -0.448441624,
				"y": -0.5911099852,
				"z": -2.7029430911,
				"element": "C" 
			},
			{
				"x": 0.4097337612,
				"y": 0.5127442457,
				"z": -2.1592076122,
				"element": "C" 
			},
			{
				"x": 0.9945078022,
				"y": 1.3020391926,
				"z": -2.8994684924,
				"element": "O" 
			},
			{
				"x": 0.6085195103,
				"y": 0.5614844115,
				"z": -0.7967256238,
				"element": "N" 
			},
			{
				"x": -0.2695152809,
				"y": 0.0757667959,
				"z": 0.2743856608,
				"element": "C" 
			},
			{
				"x": 0.5163396665,
				"y": -0.7227545186,
				"z": 1.331790399,
				"element": "C" 
			},
			{
				"x": 1.3960668778,
				"y": 0.1831704543,
				"z": 2.1991057446,
				"element": "C" 
			},
			{
				"x": 0.5961429607,
				"y": 1.2263432937,
				"z": 2.8476116834,
				"element": "N" 
			},
			{
				"x": 1.3807238828,
				"y": 2.0138207944,
				"z": 3.7989273547,
				"element": "C" 
			},
			{
				"x": 1.7932147536,
				"y": 1.2298999759,
				"z": 5.0316307482,
				"element": "C" 
			},
			{
				"x": 0.8696572251,
				"y": 0.4087714807,
				"z": 5.6937113469,
				"element": "C" 
			},
			{
				"x": 1.2319967083,
				"y": -0.2750521678,
				"z": 6.8535235143,
				"element": "C" 
			},
			{
				"x": 2.523194317,
				"y": -0.1453172019,
				"z": 7.3725295536,
				"element": "C" 
			},
			{
				"x": 3.4496979166,
				"y": 0.6680343659,
				"z": 6.7196610668,
				"element": "C" 
			},
			{
				"x": 3.0856851091,
				"y": 1.3470396181,
				"z": 5.5543764772,
				"element": "C" 
			},
			{
				"x": -0.0751635545,
				"y": 2.0689894408,
				"z": 1.8582196127,
				"element": "C" 
			},
			{
				"x": -1.0096202624,
				"y": 1.2353626107,
				"z": 0.9747380229,
				"element": "C" 
			},
			{
				"x": -2.5701457772,
				"y": 2.5952030116,
				"z": -3.9916130565,
				"element": "H" 
			},
			{
				"x": -0.8274864991,
				"y": 2.4352337184,
				"z": -3.5935733892,
				"element": "H" 
			},
			{
				"x": -2.0676184562,
				"y": 1.7887564817,
				"z": -2.4835578094,
				"element": "H" 
			},
			{
				"x": -2.6839153679,
				"y": -1.385621008,
				"z": -5.1424833169,
				"element": "H" 
			},
			{
				"x": -2.1490206994,
				"y": -4.8356735036,
				"z": -4.1317646852,
				"element": "H" 
			},
			{
				"x": -3.0177754982,
				"y": -3.7929147851,
				"z": -5.1543133629,
				"element": "H" 
			},
			{
				"x": 0.5872164196,
				"y": -2.0635478592,
				"z": -1.5229843878,
				"element": "H" 
			},
			{
				"x": 1.2600975224,
				"y": 1.2987553006,
				"z": -0.5552667668,
				"element": "H" 
			},
			{
				"x": -1.0041132578,
				"y": -0.577053508,
				"z": -0.2003367458,
				"element": "H" 
			},
			{
				"x": -0.1989871099,
				"y": -1.2389018281,
				"z": 1.9825820492,
				"element": "H" 
			},
			{
				"x": 1.13502945,
				"y": -1.4843896814,
				"z": 0.8458203006,
				"element": "H" 
			},
			{
				"x": 1.8852837218,
				"y": -0.4111247837,
				"z": 2.9758045987,
				"element": "H" 
			},
			{
				"x": 2.2070921996,
				"y": 0.6268729395,
				"z": 1.5841105011,
				"element": "H" 
			},
			{
				"x": 0.7542531802,
				"y": 2.8605057584,
				"z": 4.1103741858,
				"element": "H" 
			},
			{
				"x": 2.2810912516,
				"y": 2.4545941712,
				"z": 3.3277301411,
				"element": "H" 
			},
			{
				"x": -0.1283879207,
				"y": 0.3045298783,
				"z": 5.2787203034,
				"element": "H" 
			},
			{
				"x": 0.5062578643,
				"y": -0.9095729189,
				"z": 7.355020408,
				"element": "H" 
			},
			{
				"x": 2.8047552052,
				"y": -0.6777580921,
				"z": 8.2765817039,
				"element": "H" 
			},
			{
				"x": 4.457927716,
				"y": 0.769890035,
				"z": 7.1114521701,
				"element": "H" 
			},
			{
				"x": 3.8136140685,
				"y": 1.9744952275,
				"z": 5.0451426391,
				"element": "H" 
			},
			{
				"x": 0.6550413787,
				"y": 2.6188054045,
				"z": 1.2266316417,
				"element": "H" 
			},
			{
				"x": -0.6561145034,
				"y": 2.8326101758,
				"z": 2.3874276949,
				"element": "H" 
			},
			{
				"x": -1.7962942438,
				"y": 0.8105199051,
				"z": 1.6091898499,
				"element": "H" 
			},
			{
				"x": -1.4924027541,
				"y": 1.8782054055,
				"z": 0.2302466761,
				"element": "H" 
			}
		],
		 "valence_orbital": [ 
			{
				"type": "occ",
				"energy": -0.2439,
				"method": "rhf"
			},
			{
				"type": "occ",
				"energy": -0.24091,
				"method": "rhf"
			},
			{
				"type": "occ",
				"energy": -0.22536,
				"method": "rhf"
			},
			{
				"type": "occ",
				"energy": -0.22319,
				"method": "rhf"
			},
			{
				"type": "occ",
				"energy": -0.20754,
				"method": "rhf"
			},
			{
				"type": "unocc",
				"energy": -0.01534,
				"method": "rhf"
			},
			{
				"type": "unocc",
				"energy": -0.00369,
				"method": "rhf"
			},
			{
				"type": "unocc",
				"energy": -0.00095,
				"method": "rhf"
			},
			{
				"type": "unocc",
				"energy": -7e-05,
				"method": "rhf"
			},
			{
				"type": "unocc",
				"energy": 0.02734,
				"method": "rhf"
			}
		],
		"cosmo_sigma_profile": { 
			"-0.025": 0.0,
			"-0.024": 0.0,
			"-0.023": 0.0,
			"-0.022": 0.0,
			"-0.021": 0.0,
			"-0.02": 0.0,
			"-0.019": 0.0,
			"-0.018": 0.0,
			"-0.017": 0.0,
			"-0.016": 0.0,
			"-0.015": 0.0,
			"-0.014": 0.384274191419,
			"-0.013": 1.48045390434,
			"-0.012": 2.23786311516,
			"-0.011": 2.47935378371,
			"-0.01": 3.80354335185,
			"-0.009": 4.36425025656,
			"-0.008": 3.59530845475,
			"-0.007": 3.61315926016,
			"-0.006": 8.05067371648,
			"-0.005": 21.5875367902,
			"-0.004": 36.2264816079,
			"-0.003": 46.644193088,
			"-0.002": 44.8143599351,
			"-0.001": 39.9767790741,
			"0.0": 30.4663443498,
			"0.001": 22.1703967334,
			"0.002": 22.3959072894,
			"0.003": 30.264121737,
			"0.004": 26.7152830996,
			"0.005": 19.8503629686,
			"0.006": 13.6977576819,
			"0.007": 7.52271673657,
			"0.008": 4.80298184211,
			"0.009": 4.83853027821,
			"0.01": 3.2999040143,
			"0.011": 2.02470832897,
			"0.012": 2.34565735304,
			"0.013": 3.05790183501,
			"0.014": 3.98363274756,
			"0.015": 0.997257409833,
			"0.016": 0.0,
			"0.017": 0.0,
			"0.018": 0.0,
			"0.019": 0.0,
			"0.02": 0.0,
			"0.021": 0.0,
			"0.022": 0.0,
			"0.023": 0.0,
			"0.024": 0.0,
			"0.025": 0.0
		}
	}
}
