{
	 "smiles": "COC1=CC=C(C=C1)C1=CSC(=N1)C(=NNC1=CC=CC(C)=C1C)C#N", 
	 "Tm": 437.15, 
	 "num_atms": 44, 
	 "gaussian": { 
		 "optdone": 1, 
		 "sigma_profile": "yes", 
		 "theory": "DFT", 
		 "functional": "B3LYP", 
		 "basiset": "6-31G**", 
		 "properties": { 
			 "R2extent": 14331.8074, 
			 "electric_dipole_moment_norm": 5.73956029065, 
			 "electric_quadrupole_moment_norm": 40.5780174983, 
			 "total_energy": -1465.31858292, 
			 "HOMO_LUMO_gap": 0.12391, 
			 "cosmo_polarized_energy": -19.43, 
			 "cosmo_cavitation_energy": 50.38, 
			 "cosmo_dispersion_energy": -34.61, 
			 "cosmo_repulsion_energy": 2.58, 
			 "cosmo_total_nonelectrostatic_energy": 18.35, 
			 "SMD_solvation_energy": 8.86 
		},
		"coords": [
			{
				"x": 2.9191942585,
				"y": -5.9609182927,
				"z": -3.9558131608,
				"element": "C" 
			},
			{
				"x": 3.431853303,
				"y": -4.7741916531,
				"z": -3.3690593935,
				"element": "O" 
			},
			{
				"x": 2.5455238651,
				"y": -3.8362080545,
				"z": -2.9306671589,
				"element": "C" 
			},
			{
				"x": 1.1526607255,
				"y": -3.9517192327,
				"z": -3.0118847615,
				"element": "C" 
			},
			{
				"x": 0.3428862133,
				"y": -2.9241363467,
				"z": -2.5286367641,
				"element": "C" 
			},
			{
				"x": 0.8922829875,
				"y": -1.7673310096,
				"z": -1.9597129056,
				"element": "C" 
			},
			{
				"x": 2.2942767921,
				"y": -1.670537093,
				"z": -1.8825086856,
				"element": "C" 
			},
			{
				"x": 3.1102056349,
				"y": -2.6843357773,
				"z": -2.3593862616,
				"element": "C" 
			},
			{
				"x": 0.0060280789,
				"y": -0.697755331,
				"z": -1.4676434013,
				"element": "C" 
			},
			{
				"x": 0.3825619965,
				"y": 0.5506552115,
				"z": -1.0143923817,
				"element": "C" 
			},
			{
				"x": -0.9843651725,
				"y": 1.4726028255,
				"z": -0.519708581,
				"element": "S" 
			},
			{
				"x": -2.0127813957,
				"y": 0.1168156893,
				"z": -0.9694975016,
				"element": "C" 
			},
			{
				"x": -1.3514395392,
				"y": -0.9085808043,
				"z": -1.4423053418,
				"element": "N" 
			},
			{
				"x": -3.4816923548,
				"y": 0.1633537957,
				"z": -1.0180563185,
				"element": "C" 
			},
			{
				"x": -4.3464073073,
				"y": 0.9510321409,
				"z": -0.4449925102,
				"element": "N" 
			},
			{
				"x": -3.9837871203,
				"y": 1.8641899496,
				"z": 0.4915130555,
				"element": "N" 
			},
			{
				"x": -3.232519558,
				"y": 1.5979174365,
				"z": 1.6860242146,
				"element": "C" 
			},
			{
				"x": -3.0163878671,
				"y": 0.290806058,
				"z": 2.1350157426,
				"element": "C" 
			},
			{
				"x": -2.3390345184,
				"y": 0.084496101,
				"z": 3.3313435692,
				"element": "C" 
			},
			{
				"x": -1.8977093287,
				"y": 1.1730134192,
				"z": 4.0819008984,
				"element": "C" 
			},
			{
				"x": -2.116861043,
				"y": 2.4851529055,
				"z": 3.6479435721,
				"element": "C" 
			},
			{
				"x": -1.6304494144,
				"y": 3.6403402851,
				"z": 4.4938145647,
				"element": "C" 
			},
			{
				"x": -2.7828201853,
				"y": 2.7110849826,
				"z": 2.4247383455,
				"element": "C" 
			},
			{
				"x": -3.0297913484,
				"y": 4.1110713369,
				"z": 1.9115960174,
				"element": "C" 
			},
			{
				"x": -4.0824381062,
				"y": -0.7681356243,
				"z": -1.9460698168,
				"element": "C" 
			},
			{
				"x": -4.5794990213,
				"y": -1.5196995412,
				"z": -2.680248471,
				"element": "N" 
			},
			{
				"x": 2.3297504098,
				"y": -5.7452640724,
				"z": -4.8560235434,
				"element": "H" 
			},
			{
				"x": 2.2992473788,
				"y": -6.5267902334,
				"z": -3.2487885599,
				"element": "H" 
			},
			{
				"x": 3.788243007,
				"y": -6.5604679487,
				"z": -4.2308407624,
				"element": "H" 
			},
			{
				"x": 0.6888845279,
				"y": -4.8287838355,
				"z": -3.4473043608,
				"element": "H" 
			},
			{
				"x": -0.7359701236,
				"y": -3.0123617777,
				"z": -2.593116807,
				"element": "H" 
			},
			{
				"x": 2.7582757434,
				"y": -0.7956525654,
				"z": -1.4364922738,
				"element": "H" 
			},
			{
				"x": 4.1911592188,
				"y": -2.6129090982,
				"z": -2.2988226861,
				"element": "H" 
			},
			{
				"x": 1.3747709022,
				"y": 0.97131032,
				"z": -0.9412935061,
				"element": "H" 
			},
			{
				"x": -4.787433567,
				"y": 2.4533355256,
				"z": 0.6766914493,
				"element": "H" 
			},
			{
				"x": -3.3863975396,
				"y": -0.5516768641,
				"z": 1.5625670499,
				"element": "H" 
			},
			{
				"x": -2.1689731695,
				"y": -0.9279800743,
				"z": 3.6848332727,
				"element": "H" 
			},
			{
				"x": -1.37566931,
				"y": 1.0055491681,
				"z": 5.0198779075,
				"element": "H" 
			},
			{
				"x": -1.1845608702,
				"y": 3.2783633736,
				"z": 5.423567322,
				"element": "H" 
			},
			{
				"x": -0.8701459418,
				"y": 4.2360294867,
				"z": 3.9741860902,
				"element": "H" 
			},
			{
				"x": -2.4448573932,
				"y": 4.3241717339,
				"z": 4.7586467535,
				"element": "H" 
			},
			{
				"x": -2.2616187615,
				"y": 4.8067224278,
				"z": 2.2554118818,
				"element": "H" 
			},
			{
				"x": -3.0394378239,
				"y": 4.1340369313,
				"z": 0.8186653745,
				"element": "H" 
			},
			{
				"x": -3.9944572623,
				"y": 4.509884126,
				"z": 2.2570288336,
				"element": "H" 
			}
		],
		 "valence_orbital": [ 
			{
				"type": "occ",
				"energy": -0.25907,
				"method": "rhf"
			},
			{
				"type": "occ",
				"energy": -0.25185,
				"method": "rhf"
			},
			{
				"type": "occ",
				"energy": -0.24796,
				"method": "rhf"
			},
			{
				"type": "occ",
				"energy": -0.2201,
				"method": "rhf"
			},
			{
				"type": "occ",
				"energy": -0.20461,
				"method": "rhf"
			},
			{
				"type": "unocc",
				"energy": -0.0807,
				"method": "rhf"
			},
			{
				"type": "unocc",
				"energy": -0.02731,
				"method": "rhf"
			},
			{
				"type": "unocc",
				"energy": -0.01431,
				"method": "rhf"
			},
			{
				"type": "unocc",
				"energy": -0.00461,
				"method": "rhf"
			},
			{
				"type": "unocc",
				"energy": -0.00144,
				"method": "rhf"
			}
		],
		"cosmo_sigma_profile": { 
			"-0.025": 0.0,
			"-0.024": 0.0,
			"-0.023": 0.0,
			"-0.022": 0.0,
			"-0.021": 0.0,
			"-0.02": 0.0,
			"-0.019": 0.0,
			"-0.018": 0.0,
			"-0.017": 0.0,
			"-0.016": 0.0315519107886,
			"-0.015": 0.705982981446,
			"-0.014": 1.19610186802,
			"-0.013": 0.899364649311,
			"-0.012": 0.798646067931,
			"-0.011": 1.26104211721,
			"-0.01": 3.29248686241,
			"-0.009": 3.83478776915,
			"-0.008": 3.11725109292,
			"-0.007": 5.50873555806,
			"-0.006": 15.3853803798,
			"-0.005": 27.6203149793,
			"-0.004": 33.3741507456,
			"-0.003": 35.71164504,
			"-0.002": 31.6380393947,
			"-0.001": 29.4706731478,
			"0.0": 34.00352763,
			"0.001": 29.980307243,
			"0.002": 27.922547074,
			"0.003": 24.6630845373,
			"0.004": 26.4974742243,
			"0.005": 24.9942524517,
			"0.006": 9.02178201983,
			"0.007": 6.64949872937,
			"0.008": 8.6167695365,
			"0.009": 7.01535104655,
			"0.01": 5.86641044173,
			"0.011": 2.89375063306,
			"0.012": 2.34879515577,
			"0.013": 0.944536317351,
			"0.014": 0.0,
			"0.015": 0.0,
			"0.016": 0.0,
			"0.017": 0.0,
			"0.018": 0.0,
			"0.019": 0.0,
			"0.02": 0.0,
			"0.021": 0.0,
			"0.022": 0.0,
			"0.023": 0.0,
			"0.024": 0.0,
			"0.025": 0.0
		}
	}
}
