{
	 "smiles": "CCOC(=O)C1=C(C)NC(=O)NC1C1=C(C=CC=C1)[N+]([O-])=O", 
	 "Tm": 493.15, 
	 "num_atms": 37, 
	 "gaussian": { 
		 "optdone": 1, 
		 "sigma_profile": "yes", 
		 "theory": "DFT", 
		 "functional": "B3LYP", 
		 "basiset": "6-31G**", 
		 "properties": { 
			 "R2extent": 7248.809, 
			 "electric_dipole_moment_norm": 4.84239188212, 
			 "electric_quadrupole_moment_norm": 32.3741470508, 
			 "total_energy": -1082.83230793, 
			 "HOMO_LUMO_gap": 0.14024, 
			 "cosmo_polarized_energy": -20.61, 
			 "cosmo_cavitation_energy": 40.29, 
			 "cosmo_dispersion_energy": -27.61, 
			 "cosmo_repulsion_energy": 2.12, 
			 "cosmo_total_nonelectrostatic_energy": 14.8, 
			 "SMD_solvation_energy": 10.19 
		},
		"coords": [
			{
				"x": 3.2750999694,
				"y": 2.4033455957,
				"z": 0.2296436822,
				"element": "C" 
			},
			{
				"x": 2.364408744,
				"y": 2.6750718485,
				"z": -0.9585260379,
				"element": "C" 
			},
			{
				"x": 1.8774103883,
				"y": 1.4447748882,
				"z": -1.5437901546,
				"element": "O" 
			},
			{
				"x": 0.7740183386,
				"y": 0.8991325963,
				"z": -0.9674869098,
				"element": "C" 
			},
			{
				"x": 0.2232385838,
				"y": 1.4127392753,
				"z": -0.0013280125,
				"element": "O" 
			},
			{
				"x": 0.2977286459,
				"y": -0.3348169562,
				"z": -1.5966715991,
				"element": "C" 
			},
			{
				"x": 0.6755060812,
				"y": -0.7857633366,
				"z": -2.8295873137,
				"element": "C" 
			},
			{
				"x": 1.7611526201,
				"y": -0.2121831984,
				"z": -3.7063903424,
				"element": "C" 
			},
			{
				"x": 0.0235711787,
				"y": -1.858737173,
				"z": -3.3903314378,
				"element": "N" 
			},
			{
				"x": -1.0739367675,
				"y": -2.5272236672,
				"z": -2.8426603798,
				"element": "C" 
			},
			{
				"x": -1.6295266698,
				"y": -3.4332037108,
				"z": -3.4434839456,
				"element": "O" 
			},
			{
				"x": -1.4696178637,
				"y": -2.0498720216,
				"z": -1.6283569245,
				"element": "N" 
			},
			{
				"x": -0.8170568422,
				"y": -1.0268464919,
				"z": -0.8153415365,
				"element": "C" 
			},
			{
				"x": -0.4288355779,
				"y": -1.5699523264,
				"z": 0.5815754767,
				"element": "C" 
			},
			{
				"x": 0.2083623555,
				"y": -2.7894310857,
				"z": 0.8850002722,
				"element": "C" 
			},
			{
				"x": 0.3875766243,
				"y": -3.234510319,
				"z": 2.1979487464,
				"element": "C" 
			},
			{
				"x": -0.0393284011,
				"y": -2.4502294473,
				"z": 3.262582937,
				"element": "C" 
			},
			{
				"x": -0.6658366663,
				"y": -1.2324882828,
				"z": 2.9997794427,
				"element": "C" 
			},
			{
				"x": -0.8653404325,
				"y": -0.8193787289,
				"z": 1.6841679614,
				"element": "C" 
			},
			{
				"x": 0.7609668545,
				"y": -3.6868829063,
				"z": -0.1443384058,
				"element": "N" 
			},
			{
				"x": 1.2372751244,
				"y": -3.1785575584,
				"z": -1.1579818354,
				"element": "O" 
			},
			{
				"x": 0.755003865,
				"y": -4.8938954798,
				"z": 0.0925840689,
				"element": "O" 
			},
			{
				"x": 3.691359118,
				"y": 3.3454547833,
				"z": 0.6022078773,
				"element": "H" 
			},
			{
				"x": 4.1051336633,
				"y": 1.7505117564,
				"z": -0.0564664448,
				"element": "H" 
			},
			{
				"x": 2.7147187296,
				"y": 1.9304288461,
				"z": 1.0393091056,
				"element": "H" 
			},
			{
				"x": 1.5112094654,
				"y": 3.2914792748,
				"z": -0.6667824405,
				"element": "H" 
			},
			{
				"x": 2.9056534258,
				"y": 3.1654084134,
				"z": -1.77184167,
				"element": "H" 
			},
			{
				"x": 1.596902092,
				"y": 0.8496311242,
				"z": -3.8950645419,
				"element": "H" 
			},
			{
				"x": 2.7347889021,
				"y": -0.3014583584,
				"z": -3.2205310414,
				"element": "H" 
			},
			{
				"x": 1.7947896524,
				"y": -0.7380873775,
				"z": -4.6644430608,
				"element": "H" 
			},
			{
				"x": 0.3355797926,
				"y": -2.2432039505,
				"z": -4.2693320818,
				"element": "H" 
			},
			{
				"x": -2.2935738723,
				"y": -2.5028818389,
				"z": -1.2602335403,
				"element": "H" 
			},
			{
				"x": -1.5617594486,
				"y": -0.2528672186,
				"z": -0.5930610833,
				"element": "H" 
			},
			{
				"x": 0.8669255364,
				"y": -4.1924971691,
				"z": 2.3564783274,
				"element": "H" 
			},
			{
				"x": 0.1136585039,
				"y": -2.7898086748,
				"z": 4.2819632486,
				"element": "H" 
			},
			{
				"x": -1.012366956,
				"y": -0.6062943289,
				"z": 3.8164134615,
				"element": "H" 
			},
			{
				"x": -1.357558757,
				"y": 0.1263932049,
				"z": 1.4895761322,
				"element": "H" 
			}
		],
		 "valence_orbital": [ 
			{
				"type": "occ",
				"energy": -0.27433,
				"method": "rhf"
			},
			{
				"type": "occ",
				"energy": -0.26616,
				"method": "rhf"
			},
			{
				"type": "occ",
				"energy": -0.2658,
				"method": "rhf"
			},
			{
				"type": "occ",
				"energy": -0.25214,
				"method": "rhf"
			},
			{
				"type": "occ",
				"energy": -0.22271,
				"method": "rhf"
			},
			{
				"type": "unocc",
				"energy": -0.08247,
				"method": "rhf"
			},
			{
				"type": "unocc",
				"energy": -0.04151,
				"method": "rhf"
			},
			{
				"type": "unocc",
				"energy": -0.0183,
				"method": "rhf"
			},
			{
				"type": "unocc",
				"energy": -0.00555,
				"method": "rhf"
			},
			{
				"type": "unocc",
				"energy": 0.05899,
				"method": "rhf"
			}
		],
		"cosmo_sigma_profile": { 
			"-0.025": 0.0,
			"-0.024": 0.0,
			"-0.023": 0.0,
			"-0.022": 0.0,
			"-0.021": 0.0,
			"-0.02": 0.0,
			"-0.019": 0.0,
			"-0.018": 0.0,
			"-0.017": 0.0,
			"-0.016": 0.151199212429,
			"-0.015": 1.63176575841,
			"-0.014": 2.2372828882,
			"-0.013": 1.94940607046,
			"-0.012": 1.68742846998,
			"-0.011": 2.81834900197,
			"-0.01": 2.17843846906,
			"-0.009": 2.46071985588,
			"-0.008": 2.24879296902,
			"-0.007": 8.77975714727,
			"-0.006": 13.7652584647,
			"-0.005": 21.4296807623,
			"-0.004": 21.844875722,
			"-0.003": 26.7433845677,
			"-0.002": 26.3974469105,
			"-0.001": 25.4975525735,
			"0.0": 29.8979829062,
			"0.001": 22.6852315516,
			"0.002": 18.4218067932,
			"0.003": 14.0703009407,
			"0.004": 9.97038905927,
			"0.005": 7.39706704966,
			"0.006": 7.18614708,
			"0.007": 9.68918829218,
			"0.008": 9.23388289431,
			"0.009": 6.16021159455,
			"0.01": 4.92031931126,
			"0.011": 3.96003281816,
			"0.012": 3.09262846051,
			"0.013": 7.01852397385,
			"0.014": 3.8056732987,
			"0.015": 0.0660320963529,
			"0.016": 0.0,
			"0.017": 0.0,
			"0.018": 0.0,
			"0.019": 0.0,
			"0.02": 0.0,
			"0.021": 0.0,
			"0.022": 0.0,
			"0.023": 0.0,
			"0.024": 0.0,
			"0.025": 0.0
		}
	}
}
