{
	 "smiles": "CCCCCCOC1=CC=CC=C1", 
	 "Tm": 254.15, 
	 "num_atms": 31, 
	 "gaussian": { 
		 "optdone": 1, 
		 "sigma_profile": "yes", 
		 "theory": "DFT", 
		 "functional": "B3LYP", 
		 "basiset": "6-31G**", 
		 "properties": { 
			 "R2extent": 4716.328, 
			 "electric_dipole_moment_norm": 1.19708046513, 
			 "electric_quadrupole_moment_norm": 4.55408395399, 
			 "total_energy": -543.359863331, 
			 "HOMO_LUMO_gap": 0.21801, 
			 "cosmo_polarized_energy": -5.1, 
			 "cosmo_cavitation_energy": 33.09, 
			 "cosmo_dispersion_energy": -23.84, 
			 "cosmo_repulsion_energy": 1.94, 
			 "cosmo_total_nonelectrostatic_energy": 11.19, 
			 "SMD_solvation_energy": 5.35 
		},
		"coords": [
			{
				"x": 1.9848262124,
				"y": -0.8838785085,
				"z": -5.0152635232,
				"element": "C" 
			},
			{
				"x": 1.3641048558,
				"y": -0.7109870106,
				"z": -3.6250261499,
				"element": "C" 
			},
			{
				"x": 2.3487239199,
				"y": -0.1302568938,
				"z": -2.599719301,
				"element": "C" 
			},
			{
				"x": 1.752982763,
				"y": 0.1291106865,
				"z": -1.2066217783,
				"element": "C" 
			},
			{
				"x": 1.3504522902,
				"y": -1.1402644084,
				"z": -0.4428709816,
				"element": "C" 
			},
			{
				"x": 0.8143897562,
				"y": -0.8632872821,
				"z": 0.956058651,
				"element": "C" 
			},
			{
				"x": -0.3946547598,
				"y": -0.1172349642,
				"z": 0.8252785974,
				"element": "O" 
			},
			{
				"x": -1.0573297482,
				"y": 0.2690726366,
				"z": 1.9549486004,
				"element": "C" 
			},
			{
				"x": -2.2329704879,
				"y": 1.0071289433,
				"z": 1.7470999986,
				"element": "C" 
			},
			{
				"x": -2.9815052677,
				"y": 1.4458121339,
				"z": 2.8332705296,
				"element": "C" 
			},
			{
				"x": -2.5738353306,
				"y": 1.1583254648,
				"z": 4.1409454463,
				"element": "C" 
			},
			{
				"x": -1.4066943933,
				"y": 0.4253723907,
				"z": 4.3422011795,
				"element": "C" 
			},
			{
				"x": -0.6422096561,
				"y": -0.0236620732,
				"z": 3.2600453694,
				"element": "C" 
			},
			{
				"x": 1.2633262152,
				"y": -1.2959022766,
				"z": -5.7284259415,
				"element": "H" 
			},
			{
				"x": 2.8451010042,
				"y": -1.5625118668,
				"z": -4.9837179078,
				"element": "H" 
			},
			{
				"x": 2.3367889292,
				"y": 0.074530807,
				"z": -5.4140716309,
				"element": "H" 
			},
			{
				"x": 0.4877347932,
				"y": -0.0519887268,
				"z": -3.6934341958,
				"element": "H" 
			},
			{
				"x": 0.9874789713,
				"y": -1.6808712642,
				"z": -3.2764287495,
				"element": "H" 
			},
			{
				"x": 2.7439650295,
				"y": 0.8163923391,
				"z": -2.9925856939,
				"element": "H" 
			},
			{
				"x": 3.2146666574,
				"y": -0.802427863,
				"z": -2.508024158,
				"element": "H" 
			},
			{
				"x": 0.8776538605,
				"y": 0.7835544457,
				"z": -1.2948601265,
				"element": "H" 
			},
			{
				"x": 2.4878904623,
				"y": 0.6804701464,
				"z": -0.6038482627,
				"element": "H" 
			},
			{
				"x": 2.2192822485,
				"y": -1.8049635273,
				"z": -0.3418693129,
				"element": "H" 
			},
			{
				"x": 0.5883657773,
				"y": -1.6998291993,
				"z": -0.9971276512,
				"element": "H" 
			},
			{
				"x": 1.54608016,
				"y": -0.289985005,
				"z": 1.5450725542,
				"element": "H" 
			},
			{
				"x": 0.6162594121,
				"y": -1.8047081286,
				"z": 1.4883213283,
				"element": "H" 
			},
			{
				"x": -2.5342582791,
				"y": 1.2210915363,
				"z": 0.7266671234,
				"element": "H" 
			},
			{
				"x": -3.8895646842,
				"y": 2.0163594,
				"z": 2.6588635368,
				"element": "H" 
			},
			{
				"x": -3.1599940579,
				"y": 1.5021389016,
				"z": 4.9875251431,
				"element": "H" 
			},
			{
				"x": -1.0770636083,
				"y": 0.1937824878,
				"z": 5.3513958557,
				"element": "H" 
			},
			{
				"x": 0.2613069549,
				"y": -0.5927833214,
				"z": 3.443401451,
				"element": "H" 
			}
		],
		 "valence_orbital": [ 
			{
				"type": "occ",
				"energy": -0.31675,
				"method": "rhf"
			},
			{
				"type": "occ",
				"energy": -0.31015,
				"method": "rhf"
			},
			{
				"type": "occ",
				"energy": -0.30527,
				"method": "rhf"
			},
			{
				"type": "occ",
				"energy": -0.24529,
				"method": "rhf"
			},
			{
				"type": "occ",
				"energy": -0.21389,
				"method": "rhf"
			},
			{
				"type": "unocc",
				"energy": 0.00412,
				"method": "rhf"
			},
			{
				"type": "unocc",
				"energy": 0.01845,
				"method": "rhf"
			},
			{
				"type": "unocc",
				"energy": 0.09189,
				"method": "rhf"
			},
			{
				"type": "unocc",
				"energy": 0.09516,
				"method": "rhf"
			},
			{
				"type": "unocc",
				"energy": 0.10175,
				"method": "rhf"
			}
		],
		"cosmo_sigma_profile": { 
			"-0.025": 0.0,
			"-0.024": 0.0,
			"-0.023": 0.0,
			"-0.022": 0.0,
			"-0.021": 0.0,
			"-0.02": 0.0,
			"-0.019": 0.0,
			"-0.018": 0.0,
			"-0.017": 0.0,
			"-0.016": 0.0,
			"-0.015": 0.0,
			"-0.014": 0.0,
			"-0.013": 0.0,
			"-0.012": 0.0,
			"-0.011": 0.0,
			"-0.01": 0.0,
			"-0.009": 0.0,
			"-0.008": 0.0,
			"-0.007": 0.00134343221632,
			"-0.006": 3.64948991196,
			"-0.005": 12.1235583869,
			"-0.004": 16.5052624018,
			"-0.003": 25.533036216,
			"-0.002": 31.7361040696,
			"-0.001": 35.9116038787,
			"0.0": 33.6075009564,
			"0.001": 29.8342375668,
			"0.002": 17.5290586145,
			"0.003": 9.87482870479,
			"0.004": 11.2344441625,
			"0.005": 11.9474455602,
			"0.006": 11.7827768931,
			"0.007": 3.90673290793,
			"0.008": 1.77035475023,
			"0.009": 0.609647854804,
			"0.01": 0.790397125804,
			"0.011": 0.0502031947337,
			"0.012": 0.0,
			"0.013": 0.0,
			"0.014": 0.0,
			"0.015": 0.0,
			"0.016": 0.0,
			"0.017": 0.0,
			"0.018": 0.0,
			"0.019": 0.0,
			"0.02": 0.0,
			"0.021": 0.0,
			"0.022": 0.0,
			"0.023": 0.0,
			"0.024": 0.0,
			"0.025": 0.0
		}
	}
}
