{
	 "smiles": "OC(=O)C1CCN(CC1)C(=O)C1=C2C=CC=CC2=CC=C1", 
	 "Tm": 464.15, 
	 "num_atms": 38, 
	 "gaussian": { 
		 "optdone": 1, 
		 "sigma_profile": "yes", 
		 "theory": "DFT", 
		 "functional": "B3LYP", 
		 "basiset": "6-31G**", 
		 "properties": { 
			 "R2extent": 8240.0747, 
			 "electric_dipole_moment_norm": 2.63114653526, 
			 "electric_quadrupole_moment_norm": 18.5562010862, 
			 "total_energy": -938.518193954, 
			 "HOMO_LUMO_gap": 0.17053, 
			 "cosmo_polarized_energy": -17.91, 
			 "cosmo_cavitation_energy": 40.24, 
			 "cosmo_dispersion_energy": -28.47, 
			 "cosmo_repulsion_energy": 2.16, 
			 "cosmo_total_nonelectrostatic_energy": 13.93, 
			 "SMD_solvation_energy": 6.89 
		},
		"coords": [
			{
				"x": -2.0558419237,
				"y": 2.8049380814,
				"z": 4.697338236,
				"element": "O" 
			},
			{
				"x": -1.7020839399,
				"y": 1.5657104746,
				"z": 4.276800993,
				"element": "C" 
			},
			{
				"x": -1.4603762553,
				"y": 0.664065347,
				"z": 5.0502218231,
				"element": "O" 
			},
			{
				"x": -1.6325605018,
				"y": 1.4954189835,
				"z": 2.7611507974,
				"element": "C" 
			},
			{
				"x": -0.4973740967,
				"y": 2.4264016323,
				"z": 2.2487278971,
				"element": "C" 
			},
			{
				"x": -0.0719351633,
				"y": 2.0495105988,
				"z": 0.8313711221,
				"element": "C" 
			},
			{
				"x": 0.4541220876,
				"y": 0.6752177638,
				"z": 0.7995720042,
				"element": "N" 
			},
			{
				"x": 0.0174892237,
				"y": -0.2370576694,
				"z": 1.8672924672,
				"element": "C" 
			},
			{
				"x": -1.437239527,
				"y": 0.0469928583,
				"z": 2.2564851339,
				"element": "C" 
			},
			{
				"x": 1.0836699922,
				"y": 0.299153021,
				"z": -0.3619307408,
				"element": "C" 
			},
			{
				"x": 1.1498333247,
				"y": 1.0700358892,
				"z": -1.3209527181,
				"element": "O" 
			},
			{
				"x": 1.7403139355,
				"y": -1.0574372984,
				"z": -0.407980303,
				"element": "C" 
			},
			{
				"x": 1.4982947162,
				"y": -1.9431490566,
				"z": -1.5100069791,
				"element": "C" 
			},
			{
				"x": 0.5834698022,
				"y": -1.6480684452,
				"z": -2.5594232618,
				"element": "C" 
			},
			{
				"x": 0.3630719027,
				"y": -2.5494054736,
				"z": -3.5769140045,
				"element": "C" 
			},
			{
				"x": 1.0449430598,
				"y": -3.7895330778,
				"z": -3.6054941242,
				"element": "C" 
			},
			{
				"x": 1.9426677352,
				"y": -4.1023265769,
				"z": -2.6115305043,
				"element": "C" 
			},
			{
				"x": 2.1951981076,
				"y": -3.1974102735,
				"z": -1.544784502,
				"element": "C" 
			},
			{
				"x": 3.1269747527,
				"y": -3.5098379807,
				"z": -0.5186868814,
				"element": "C" 
			},
			{
				"x": 3.3598602028,
				"y": -2.6306480612,
				"z": 0.51249974,
				"element": "C" 
			},
			{
				"x": 2.655645339,
				"y": -1.4064622751,
				"z": 0.5686629533,
				"element": "C" 
			},
			{
				"x": -2.0521462233,
				"y": 2.773771758,
				"z": 5.6689497996,
				"element": "H" 
			},
			{
				"x": -2.5843293948,
				"y": 1.8909763753,
				"z": 2.3870359914,
				"element": "H" 
			},
			{
				"x": -0.8263013046,
				"y": 3.4682955663,
				"z": 2.2726370527,
				"element": "H" 
			},
			{
				"x": 0.3731635283,
				"y": 2.3563453289,
				"z": 2.912042384,
				"element": "H" 
			},
			{
				"x": 0.7065041221,
				"y": 2.7220750825,
				"z": 0.4628154278,
				"element": "H" 
			},
			{
				"x": -0.9166616941,
				"y": 2.1483692162,
				"z": 0.1344241416,
				"element": "H" 
			},
			{
				"x": 0.6594095143,
				"y": -0.1381230042,
				"z": 2.7533122727,
				"element": "H" 
			},
			{
				"x": 0.1179505855,
				"y": -1.2631633396,
				"z": 1.5140741828,
				"element": "H" 
			},
			{
				"x": -2.0737218899,
				"y": -0.1239466709,
				"z": 1.3820219581,
				"element": "H" 
			},
			{
				"x": -1.7409277129,
				"y": -0.6597561965,
				"z": 3.03293777,
				"element": "H" 
			},
			{
				"x": 0.0820217269,
				"y": -0.6879955407,
				"z": -2.5604676729,
				"element": "H" 
			},
			{
				"x": -0.3366088334,
				"y": -2.3040049729,
				"z": -4.3707734482,
				"element": "H" 
			},
			{
				"x": 0.8604383275,
				"y": -4.4889587625,
				"z": -4.4158230791,
				"element": "H" 
			},
			{
				"x": 2.4755655045,
				"y": -5.0497010078,
				"z": -2.6262301868,
				"element": "H" 
			},
			{
				"x": 3.6563985279,
				"y": -4.4580660778,
				"z": -0.5659263315,
				"element": "H" 
			},
			{
				"x": 4.080834424,
				"y": -2.8703998499,
				"z": 1.2883831947,
				"element": "H" 
			},
			{
				"x": 2.8474680178,
				"y": -0.720026366,
				"z": 1.388267395,
				"element": "H" 
			}
		],
		 "valence_orbital": [ 
			{
				"type": "occ",
				"energy": -0.28218,
				"method": "rhf"
			},
			{
				"type": "occ",
				"energy": -0.24633,
				"method": "rhf"
			},
			{
				"type": "occ",
				"energy": -0.24115,
				"method": "rhf"
			},
			{
				"type": "occ",
				"energy": -0.23429,
				"method": "rhf"
			},
			{
				"type": "occ",
				"energy": -0.21495,
				"method": "rhf"
			},
			{
				"type": "unocc",
				"energy": -0.04442,
				"method": "rhf"
			},
			{
				"type": "unocc",
				"energy": -0.00969,
				"method": "rhf"
			},
			{
				"type": "unocc",
				"energy": 0.00082,
				"method": "rhf"
			},
			{
				"type": "unocc",
				"energy": 0.01057,
				"method": "rhf"
			},
			{
				"type": "unocc",
				"energy": 0.05574,
				"method": "rhf"
			}
		],
		"cosmo_sigma_profile": { 
			"-0.025": 0.0,
			"-0.024": 0.0,
			"-0.023": 0.0,
			"-0.022": 0.0,
			"-0.021": 0.0,
			"-0.02": 0.0,
			"-0.019": 0.00952184337899,
			"-0.018": 0.806834517542,
			"-0.017": 0.682025246648,
			"-0.016": 0.734687778982,
			"-0.015": 1.14189921608,
			"-0.014": 0.416823546909,
			"-0.013": 0.253264960552,
			"-0.012": 1.31710016999,
			"-0.011": 0.565239617645,
			"-0.01": 1.03653103857,
			"-0.009": 0.480452018702,
			"-0.008": 0.296379756272,
			"-0.007": 1.94433426398,
			"-0.006": 15.2521367092,
			"-0.005": 25.9805147501,
			"-0.004": 39.3623634936,
			"-0.003": 34.4145716279,
			"-0.002": 27.5342329817,
			"-0.001": 21.4259985964,
			"0.0": 16.8921520386,
			"0.001": 14.6642558405,
			"0.002": 15.434199409,
			"0.003": 19.614548485,
			"0.004": 23.3412245753,
			"0.005": 13.5829652846,
			"0.006": 5.26232927941,
			"0.007": 4.48117555567,
			"0.008": 4.12599646137,
			"0.009": 4.94228788971,
			"0.01": 2.9891207922,
			"0.011": 5.16410265719,
			"0.012": 6.05601527126,
			"0.013": 2.45644764689,
			"0.014": 4.47122136747,
			"0.015": 1.06084436577,
			"0.016": 0.0,
			"0.017": 0.0,
			"0.018": 0.0,
			"0.019": 0.0,
			"0.02": 0.0,
			"0.021": 0.0,
			"0.022": 0.0,
			"0.023": 0.0,
			"0.024": 0.0,
			"0.025": 0.0
		}
	}
}
