{
	 "smiles": "BrC1=CC=C(O1)C(=O)N1CCNCC1", 
	 "Tm": 392.15, 
	 "num_atms": 25, 
	 "gaussian": { 
		 "optdone": 1, 
		 "sigma_profile": "yes", 
		 "theory": "DFT", 
		 "functional": "B3LYP", 
		 "basiset": "6-31G**", 
		 "properties": { 
			 "R2extent": 5695.1867, 
			 "electric_dipole_moment_norm": 2.40815361013, 
			 "electric_quadrupole_moment_norm": 9.17305328721, 
			 "total_energy": -3180.91050286, 
			 "HOMO_LUMO_gap": 0.18909, 
			 "cosmo_polarized_energy": -10.69, 
			 "cosmo_cavitation_energy": 30.25, 
			 "cosmo_dispersion_energy": -22.67, 
			 "cosmo_repulsion_energy": 1.8, 
			 "cosmo_total_nonelectrostatic_energy": 9.38, 
			 "SMD_solvation_energy": 2.1 
		},
		"coords": [
			{
				"x": 2.1986094975,
				"y": -4.3714321496,
				"z": -0.4463648099,
				"element": "Br" 
			},
			{
				"x": 1.8794165578,
				"y": -2.9241741305,
				"z": 0.6922006168,
				"element": "C" 
			},
			{
				"x": 2.1656620183,
				"y": -2.7258050366,
				"z": 2.0107320534,
				"element": "C" 
			},
			{
				"x": 1.6779876741,
				"y": -1.4193511361,
				"z": 2.3094975583,
				"element": "C" 
			},
			{
				"x": 1.1244636253,
				"y": -0.9193752978,
				"z": 1.1622424705,
				"element": "C" 
			},
			{
				"x": 1.2529666013,
				"y": -1.8529052606,
				"z": 0.1513372084,
				"element": "O" 
			},
			{
				"x": 0.5424544144,
				"y": 0.4349260918,
				"z": 0.9784703046,
				"element": "C" 
			},
			{
				"x": 0.731226323,
				"y": 1.2338105766,
				"z": 1.8998627399,
				"element": "O" 
			},
			{
				"x": -0.1415165405,
				"y": 0.7776096533,
				"z": -0.1606026416,
				"element": "N" 
			},
			{
				"x": -0.593574243,
				"y": 2.1669948598,
				"z": -0.29982282,
				"element": "C" 
			},
			{
				"x": -2.1206542716,
				"y": 2.2317994462,
				"z": -0.3685448067,
				"element": "C" 
			},
			{
				"x": -2.5850435079,
				"y": 1.3838778404,
				"z": -1.4682834863,
				"element": "N" 
			},
			{
				"x": -2.1951850743,
				"y": -0.0090952286,
				"z": -1.2602117859,
				"element": "C" 
			},
			{
				"x": -0.6656406153,
				"y": -0.1105685395,
				"z": -1.2026736572,
				"element": "C" 
			},
			{
				"x": 2.6616839434,
				"y": -3.4211875759,
				"z": 2.6700676721,
				"element": "H" 
			},
			{
				"x": 1.7276519309,
				"y": -0.8898272763,
				"z": 3.2484944634,
				"element": "H" 
			},
			{
				"x": -0.1750494506,
				"y": 2.5743534684,
				"z": -1.2294700815,
				"element": "H" 
			},
			{
				"x": -0.2105655162,
				"y": 2.7293848782,
				"z": 0.550391623,
				"element": "H" 
			},
			{
				"x": -2.431609057,
				"y": 3.2649964924,
				"z": -0.5579764861,
				"element": "H" 
			},
			{
				"x": -2.5293727296,
				"y": 1.9292652207,
				"z": 0.6135392825,
				"element": "H" 
			},
			{
				"x": -3.5941938986,
				"y": 1.4531354369,
				"z": -1.5623969234,
				"element": "H" 
			},
			{
				"x": -2.5612141626,
				"y": -0.613306333,
				"z": -2.0978173064,
				"element": "H" 
			},
			{
				"x": -2.6063728686,
				"y": -0.4399766649,
				"z": -0.3270650916,
				"element": "H" 
			},
			{
				"x": -0.2508654797,
				"y": 0.2006606533,
				"z": -2.1705825102,
				"element": "H" 
			},
			{
				"x": -0.3650651706,
				"y": -1.1369099884,
				"z": -1.0169235859,
				"element": "H" 
			}
		],
		 "valence_orbital": [ 
			{
				"type": "occ",
				"energy": -0.29533,
				"method": "rhf"
			},
			{
				"type": "occ",
				"energy": -0.25528,
				"method": "rhf"
			},
			{
				"type": "occ",
				"energy": -0.24263,
				"method": "rhf"
			},
			{
				"type": "occ",
				"energy": -0.23143,
				"method": "rhf"
			},
			{
				"type": "occ",
				"energy": -0.22552,
				"method": "rhf"
			},
			{
				"type": "unocc",
				"energy": -0.03643,
				"method": "rhf"
			},
			{
				"type": "unocc",
				"energy": 0.00131,
				"method": "rhf"
			},
			{
				"type": "unocc",
				"energy": 0.03517,
				"method": "rhf"
			},
			{
				"type": "unocc",
				"energy": 0.08012,
				"method": "rhf"
			},
			{
				"type": "unocc",
				"energy": 0.10007,
				"method": "rhf"
			}
		],
		"cosmo_sigma_profile": { 
			"-0.025": 0.0,
			"-0.024": 0.0,
			"-0.023": 0.0,
			"-0.022": 0.0,
			"-0.021": 0.0,
			"-0.02": 0.0,
			"-0.019": 0.0,
			"-0.018": 0.0,
			"-0.017": 0.0,
			"-0.016": 0.0,
			"-0.015": 0.0,
			"-0.014": 0.0,
			"-0.013": 0.0,
			"-0.012": 0.0,
			"-0.011": 0.390294791877,
			"-0.01": 1.59684411127,
			"-0.009": 1.4328982037,
			"-0.008": 3.77032107397,
			"-0.007": 5.21502226812,
			"-0.006": 5.50921571854,
			"-0.005": 9.04482432621,
			"-0.004": 21.7754508172,
			"-0.003": 25.8259178294,
			"-0.002": 27.3067203046,
			"-0.001": 27.0764021478,
			"0.0": 21.2198701363,
			"0.001": 20.1534394142,
			"0.002": 21.3946661674,
			"0.003": 19.4203855516,
			"0.004": 4.2179059664,
			"0.005": 2.90673834201,
			"0.006": 2.18528002555,
			"0.007": 2.50186670084,
			"0.008": 2.73888335773,
			"0.009": 0.864617326049,
			"0.01": 1.91914619084,
			"0.011": 3.00705270367,
			"0.012": 2.17987649724,
			"0.013": 3.87124452985,
			"0.014": 4.0799148087,
			"0.015": 0.487543290002,
			"0.016": 0.485033288803,
			"0.017": 0.52207812194,
			"0.018": 0.0793367183198,
			"0.019": 0.0,
			"0.02": 0.0,
			"0.021": 0.0,
			"0.022": 0.0,
			"0.023": 0.0,
			"0.024": 0.0,
			"0.025": 0.0
		}
	}
}
