{
	 "smiles": "NC1=NC2=C(O1)C=CC(Cl)=C2", 
	 "Tm": 457.15, 
	 "num_atms": 16, 
	 "gaussian": { 
		 "optdone": 1, 
		 "sigma_profile": "yes", 
		 "theory": "DFT", 
		 "functional": "B3LYP", 
		 "basiset": "6-31G**", 
		 "properties": { 
			 "R2extent": 2485.5301, 
			 "electric_dipole_moment_norm": 4.38642891086, 
			 "electric_quadrupole_moment_norm": 10.7597220029, 
			 "total_energy": -914.682504187, 
			 "HOMO_LUMO_gap": 0.20126, 
			 "cosmo_polarized_energy": -11.43, 
			 "cosmo_cavitation_energy": 22.59, 
			 "cosmo_dispersion_energy": -17.47, 
			 "cosmo_repulsion_energy": 1.4, 
			 "cosmo_total_nonelectrostatic_energy": 6.53, 
			 "SMD_solvation_energy": 1.95 
		},
		"coords": [
			{
				"x": -1.3395085494,
				"y": -2.6685277244,
				"z": 2.3792937109,
				"element": "N" 
			},
			{
				"x": -0.6502707484,
				"y": -1.6579767854,
				"z": 1.7841623104,
				"element": "C" 
			},
			{
				"x": -0.8048430765,
				"y": -0.3792377513,
				"z": 1.9577426883,
				"element": "N" 
			},
			{
				"x": 0.1018577218,
				"y": 0.1810323272,
				"z": 1.0569075998,
				"element": "C" 
			},
			{
				"x": 0.7764594545,
				"y": -0.8449848918,
				"z": 0.3778285776,
				"element": "C" 
			},
			{
				"x": 0.2818604944,
				"y": -2.0463716798,
				"z": 0.8546301808,
				"element": "O" 
			},
			{
				"x": 1.7484955818,
				"y": -0.6323641299,
				"z": -0.5798233743,
				"element": "C" 
			},
			{
				"x": 2.052117513,
				"y": 0.70494899,
				"z": -0.8656820593,
				"element": "C" 
			},
			{
				"x": 1.3854111375,
				"y": 1.7393419077,
				"z": -0.1950747608,
				"element": "C" 
			},
			{
				"x": 1.8067240314,
				"y": 3.4038114558,
				"z": -0.5934528927,
				"element": "Cl" 
			},
			{
				"x": 0.4043772836,
				"y": 1.5128773616,
				"z": 0.7726480894,
				"element": "C" 
			},
			{
				"x": -0.8925352397,
				"y": -3.5727643625,
				"z": 2.4028292026,
				"element": "H" 
			},
			{
				"x": -1.8531614164,
				"y": -2.4026292718,
				"z": 3.2059073448,
				"element": "H" 
			},
			{
				"x": 2.2507234494,
				"y": -1.4487616,
				"z": -1.0863647689,
				"element": "H" 
			},
			{
				"x": 2.803879982,
				"y": 0.9464108187,
				"z": -1.6076823409,
				"element": "H" 
			},
			{
				"x": -0.096687619,
				"y": 2.3297953359,
				"z": 1.2771304925,
				"element": "H" 
			}
		],
		 "valence_orbital": [ 
			{
				"type": "occ",
				"energy": -0.30705,
				"method": "rhf"
			},
			{
				"type": "occ",
				"energy": -0.29818,
				"method": "rhf"
			},
			{
				"type": "occ",
				"energy": -0.29287,
				"method": "rhf"
			},
			{
				"type": "occ",
				"energy": -0.2414,
				"method": "rhf"
			},
			{
				"type": "occ",
				"energy": -0.21892,
				"method": "rhf"
			},
			{
				"type": "unocc",
				"energy": -0.01766,
				"method": "rhf"
			},
			{
				"type": "unocc",
				"energy": 0.00222,
				"method": "rhf"
			},
			{
				"type": "unocc",
				"energy": 0.03298,
				"method": "rhf"
			},
			{
				"type": "unocc",
				"energy": 0.04791,
				"method": "rhf"
			},
			{
				"type": "unocc",
				"energy": 0.06846,
				"method": "rhf"
			}
		],
		"cosmo_sigma_profile": { 
			"-0.025": 0.0,
			"-0.024": 0.0,
			"-0.023": 0.0,
			"-0.022": 0.0,
			"-0.021": 0.0,
			"-0.02": 0.0,
			"-0.019": 0.0,
			"-0.018": 0.0,
			"-0.017": 0.0,
			"-0.016": 0.286105521395,
			"-0.015": 2.10293060161,
			"-0.014": 2.66449396538,
			"-0.013": 2.50042726975,
			"-0.012": 2.62729384932,
			"-0.011": 1.42279022029,
			"-0.01": 1.77184219523,
			"-0.009": 1.87544778567,
			"-0.008": 4.0024409446,
			"-0.007": 6.16346523841,
			"-0.006": 7.42218127703,
			"-0.005": 5.97684086243,
			"-0.004": 5.83370078696,
			"-0.003": 7.46390632702,
			"-0.002": 9.29499261158,
			"-0.001": 9.46126226523,
			"0.0": 10.964244704,
			"0.001": 14.5870576942,
			"0.002": 19.9057144211,
			"0.003": 22.2405573659,
			"0.004": 15.724555376,
			"0.005": 12.879256352,
			"0.006": 3.68608803377,
			"0.007": 3.24110793643,
			"0.008": 1.53362461215,
			"0.009": 1.57376065165,
			"0.01": 0.335285698702,
			"0.011": 1.47973362099,
			"0.012": 1.42449461773,
			"0.013": 0.987818118682,
			"0.014": 1.08574775027,
			"0.015": 0.703900851209,
			"0.016": 0.736546624109,
			"0.017": 0.00281325420762,
			"0.018": 0.0,
			"0.019": 0.0,
			"0.02": 0.0,
			"0.021": 0.0,
			"0.022": 0.0,
			"0.023": 0.0,
			"0.024": 0.0,
			"0.025": 0.0
		}
	}
}
