{
	 "smiles": "OC(=O)CC(N1C=NC2=C(C=CS2)C1=O)C(F)(F)F", 
	 "Tm": 462.15, 
	 "num_atms": 26, 
	 "gaussian": { 
		 "optdone": 1, 
		 "sigma_profile": "yes", 
		 "theory": "DFT", 
		 "functional": "B3LYP", 
		 "basiset": "6-31G**", 
		 "properties": { 
			 "R2extent": 5632.9664, 
			 "electric_dipole_moment_norm": 6.54091722161, 
			 "electric_quadrupole_moment_norm": 25.4083588459, 
			 "total_energy": -1418.18413078, 
			 "HOMO_LUMO_gap": 0.17793, 
			 "cosmo_polarized_energy": -20.13, 
			 "cosmo_cavitation_energy": 32.59, 
			 "cosmo_dispersion_energy": -23.95, 
			 "cosmo_repulsion_energy": 1.69, 
			 "cosmo_total_nonelectrostatic_energy": 10.33, 
			 "SMD_solvation_energy": 6.12 
		},
		"coords": [
			{
				"x": 0.9342937999,
				"y": -0.2897735764,
				"z": 2.7205188427,
				"element": "O" 
			},
			{
				"x": 0.3665782185,
				"y": 0.9038083133,
				"z": 2.8969259954,
				"element": "C" 
			},
			{
				"x": 0.5362324239,
				"y": 1.5627410093,
				"z": 3.8958436114,
				"element": "O" 
			},
			{
				"x": -0.5802307372,
				"y": 1.3972674581,
				"z": 1.7813265872,
				"element": "C" 
			},
			{
				"x": -0.0128831127,
				"y": 1.6684375898,
				"z": 0.3554484098,
				"element": "C" 
			},
			{
				"x": -0.5379698285,
				"y": 0.7947932698,
				"z": -0.7169622206,
				"element": "N" 
			},
			{
				"x": -0.9769888374,
				"y": 1.4052705978,
				"z": -1.879734764,
				"element": "C" 
			},
			{
				"x": -1.4436114416,
				"y": 0.8002051497,
				"z": -2.9252129575,
				"element": "N" 
			},
			{
				"x": -1.4776627366,
				"y": -0.5563121646,
				"z": -2.8324706177,
				"element": "C" 
			},
			{
				"x": -1.0608313279,
				"y": -1.3014178224,
				"z": -1.7321583988,
				"element": "C" 
			},
			{
				"x": -1.2114828766,
				"y": -2.7104529752,
				"z": -1.9173389329,
				"element": "C" 
			},
			{
				"x": -1.7355737099,
				"y": -3.0059507673,
				"z": -3.1403881186,
				"element": "C" 
			},
			{
				"x": -2.0625849871,
				"y": -1.5877421023,
				"z": -4.1088497711,
				"element": "S" 
			},
			{
				"x": -0.5373695064,
				"y": -0.6156435556,
				"z": -0.577292544,
				"element": "C" 
			},
			{
				"x": -0.1374154636,
				"y": -1.1729759055,
				"z": 0.4487006324,
				"element": "O" 
			},
			{
				"x": 1.5169268049,
				"y": 1.7763046605,
				"z": 0.2243867568,
				"element": "C" 
			},
			{
				"x": 2.1513887072,
				"y": 0.5978381175,
				"z": 0.289005958,
				"element": "F" 
			},
			{
				"x": 1.8153926028,
				"y": 2.3281531689,
				"z": -0.9756514474,
				"element": "F" 
			},
			{
				"x": 2.001873232,
				"y": 2.5820747852,
				"z": 1.182197074,
				"element": "F" 
			},
			{
				"x": 0.6295856755,
				"y": -0.6869481828,
				"z": 1.8711276718,
				"element": "H" 
			},
			{
				"x": -0.988092095,
				"y": 2.333480045,
				"z": 2.1618524118,
				"element": "H" 
			},
			{
				"x": -1.4066381817,
				"y": 0.6873681292,
				"z": 1.6925797829,
				"element": "H" 
			},
			{
				"x": -0.3495699937,
				"y": 2.671359672,
				"z": 0.0857753066,
				"element": "H" 
			},
			{
				"x": -0.914549525,
				"y": 2.4892506747,
				"z": -1.883299964,
				"element": "H" 
			},
			{
				"x": -0.9384156772,
				"y": -3.4451535859,
				"z": -1.1708442815,
				"element": "H" 
			},
			{
				"x": -1.9559014266,
				"y": -3.9830820028,
				"z": -3.5477850228,
				"element": "H" 
			}
		],
		 "valence_orbital": [ 
			{
				"type": "occ",
				"energy": -0.30554,
				"method": "rhf"
			},
			{
				"type": "occ",
				"energy": -0.29741,
				"method": "rhf"
			},
			{
				"type": "occ",
				"energy": -0.28732,
				"method": "rhf"
			},
			{
				"type": "occ",
				"energy": -0.26,
				"method": "rhf"
			},
			{
				"type": "occ",
				"energy": -0.25293,
				"method": "rhf"
			},
			{
				"type": "unocc",
				"energy": -0.075,
				"method": "rhf"
			},
			{
				"type": "unocc",
				"energy": -0.04585,
				"method": "rhf"
			},
			{
				"type": "unocc",
				"energy": -0.0024,
				"method": "rhf"
			},
			{
				"type": "unocc",
				"energy": -0.0008,
				"method": "rhf"
			},
			{
				"type": "unocc",
				"energy": 0.01511,
				"method": "rhf"
			}
		],
		"cosmo_sigma_profile": { 
			"-0.025": 0.0,
			"-0.024": 0.0,
			"-0.023": 0.0,
			"-0.022": 0.0,
			"-0.021": 0.0,
			"-0.02": 0.0,
			"-0.019": 0.0,
			"-0.018": 0.0,
			"-0.017": 0.0,
			"-0.016": 0.0,
			"-0.015": 0.0821647216802,
			"-0.014": 1.14782539051,
			"-0.013": 1.9685551518,
			"-0.012": 3.55664717464,
			"-0.011": 3.44176625088,
			"-0.01": 2.77932665309,
			"-0.009": 6.39914902476,
			"-0.008": 9.98747870736,
			"-0.007": 10.0494539857,
			"-0.006": 10.4309520426,
			"-0.005": 11.2496275256,
			"-0.004": 9.99770381174,
			"-0.003": 8.75702368005,
			"-0.002": 13.3237632699,
			"-0.001": 16.8659286967,
			"0.0": 24.4067582202,
			"0.001": 29.6134276438,
			"0.002": 33.8367983889,
			"0.003": 13.693516884,
			"0.004": 7.485493492,
			"0.005": 4.36277128566,
			"0.006": 4.32495043535,
			"0.007": 4.63895342893,
			"0.008": 4.92297273386,
			"0.009": 4.91406326993,
			"0.01": 5.38129924785,
			"0.011": 6.54944601316,
			"0.012": 6.66011135735,
			"0.013": 3.14725104756,
			"0.014": 0.37259387735,
			"0.015": 0.0,
			"0.016": 0.0,
			"0.017": 0.0,
			"0.018": 0.0,
			"0.019": 0.0,
			"0.02": 0.0,
			"0.021": 0.0,
			"0.022": 0.0,
			"0.023": 0.0,
			"0.024": 0.0,
			"0.025": 0.0
		}
	}
}
