{
	 "smiles": "CCC1(O)C(C)C2=CC=CC=C12", 
	 "Tm": 325.15, 
	 "num_atms": 26, 
	 "gaussian": { 
		 "optdone": 1, 
		 "sigma_profile": "yes", 
		 "theory": "DFT", 
		 "functional": "B3LYP", 
		 "basiset": "6-31G**", 
		 "properties": { 
			 "R2extent": 2515.9308, 
			 "electric_dipole_moment_norm": 1.50995189658, 
			 "electric_quadrupole_moment_norm": 9.21872255033, 
			 "total_energy": -502.800844642, 
			 "HOMO_LUMO_gap": 0.23062, 
			 "cosmo_polarized_energy": -7.9, 
			 "cosmo_cavitation_energy": 27.89, 
			 "cosmo_dispersion_energy": -19.57, 
			 "cosmo_repulsion_energy": 1.58, 
			 "cosmo_total_nonelectrostatic_energy": 9.9, 
			 "SMD_solvation_energy": 4.63 
		},
		"coords": [
			{
				"x": -0.0151005249,
				"y": -0.8034166271,
				"z": -1.5404832393,
				"element": "C" 
			},
			{
				"x": 0.2460244209,
				"y": -1.2032460327,
				"z": -0.0849146484,
				"element": "C" 
			},
			{
				"x": -0.0447235447,
				"y": -0.1369781735,
				"z": 0.9831436313,
				"element": "C" 
			},
			{
				"x": 0.0903178296,
				"y": -0.708567458,
				"z": 2.2782968101,
				"element": "O" 
			},
			{
				"x": 0.6878062389,
				"y": 1.2836452911,
				"z": 0.7966147937,
				"element": "C" 
			},
			{
				"x": 1.5334885294,
				"y": 1.756392769,
				"z": 1.976577557,
				"element": "C" 
			},
			{
				"x": -0.7178999978,
				"y": 1.8610388624,
				"z": 0.67047652,
				"element": "C" 
			},
			{
				"x": -1.4317043047,
				"y": 3.0348919495,
				"z": 0.4616912619,
				"element": "C" 
			},
			{
				"x": -2.8303069995,
				"y": 2.9159779056,
				"z": 0.4698239441,
				"element": "C" 
			},
			{
				"x": -3.4663452267,
				"y": 1.6817589808,
				"z": 0.6744537981,
				"element": "C" 
			},
			{
				"x": -2.7339869541,
				"y": 0.5019654504,
				"z": 0.8773766716,
				"element": "C" 
			},
			{
				"x": -1.3520443126,
				"y": 0.6371250119,
				"z": 0.8649526243,
				"element": "C" 
			},
			{
				"x": -1.0619291617,
				"y": -0.5245275618,
				"z": -1.6917828744,
				"element": "H" 
			},
			{
				"x": 0.6035248853,
				"y": 0.0437506636,
				"z": -1.8527225435,
				"element": "H" 
			},
			{
				"x": 0.2110324803,
				"y": -1.6386920743,
				"z": -2.210706032,
				"element": "H" 
			},
			{
				"x": -0.3605641173,
				"y": -2.081643456,
				"z": 0.1688544708,
				"element": "H" 
			},
			{
				"x": 1.2973389362,
				"y": -1.5116683964,
				"z": 0.0262509965,
				"element": "H" 
			},
			{
				"x": 0.9462314622,
				"y": -1.1583976057,
				"z": 2.3138317405,
				"element": "H" 
			},
			{
				"x": 1.2745321051,
				"y": 1.3431681127,
				"z": -0.1293407427,
				"element": "H" 
			},
			{
				"x": 1.8174783517,
				"y": 2.8070846068,
				"z": 1.853743336,
				"element": "H" 
			},
			{
				"x": 2.4590885534,
				"y": 1.1735831924,
				"z": 2.0564005514,
				"element": "H" 
			},
			{
				"x": 0.9847127541,
				"y": 1.6512885796,
				"z": 2.9154076832,
				"element": "H" 
			},
			{
				"x": -0.9567309879,
				"y": 3.9999466766,
				"z": 0.3064420847,
				"element": "H" 
			},
			{
				"x": -3.4415350488,
				"y": 3.8016364748,
				"z": 0.3169455688,
				"element": "H" 
			},
			{
				"x": -4.5524150329,
				"y": 1.6443430758,
				"z": 0.6765077049,
				"element": "H" 
			},
			{
				"x": -3.2361903336,
				"y": -0.4474602174,
				"z": 1.0399583315,
				"element": "H" 
			}
		],
		 "valence_orbital": [ 
			{
				"type": "occ",
				"energy": -0.30882,
				"method": "rhf"
			},
			{
				"type": "occ",
				"energy": -0.29681,
				"method": "rhf"
			},
			{
				"type": "occ",
				"energy": -0.2569,
				"method": "rhf"
			},
			{
				"type": "occ",
				"energy": -0.24494,
				"method": "rhf"
			},
			{
				"type": "occ",
				"energy": -0.23446,
				"method": "rhf"
			},
			{
				"type": "unocc",
				"energy": -0.00384,
				"method": "rhf"
			},
			{
				"type": "unocc",
				"energy": 0.00754,
				"method": "rhf"
			},
			{
				"type": "unocc",
				"energy": 0.07382,
				"method": "rhf"
			},
			{
				"type": "unocc",
				"energy": 0.10382,
				"method": "rhf"
			},
			{
				"type": "unocc",
				"energy": 0.1056,
				"method": "rhf"
			}
		],
		"cosmo_sigma_profile": { 
			"-0.025": 0.0,
			"-0.024": 0.0,
			"-0.023": 0.0,
			"-0.022": 0.0,
			"-0.021": 0.0,
			"-0.02": 0.0,
			"-0.019": 0.0,
			"-0.018": 0.0,
			"-0.017": 0.0,
			"-0.016": 0.0,
			"-0.015": 0.45978863364,
			"-0.014": 0.763847498014,
			"-0.013": 1.010669878,
			"-0.012": 0.75492392813,
			"-0.011": 1.11708992794,
			"-0.01": 0.627701836545,
			"-0.009": 1.17034747146,
			"-0.008": 1.0604426668,
			"-0.007": 1.07977972827,
			"-0.006": 3.65100730106,
			"-0.005": 9.5573015869,
			"-0.004": 12.5564235356,
			"-0.003": 22.3435898623,
			"-0.002": 22.2480248521,
			"-0.001": 27.223546431,
			"0.0": 27.043505815,
			"0.001": 22.951175018,
			"0.002": 14.6717546685,
			"0.003": 8.64902992871,
			"0.004": 8.59589938232,
			"0.005": 8.49741941199,
			"0.006": 9.2591471447,
			"0.007": 3.44659533416,
			"0.008": 1.71325327136,
			"0.009": 1.14851295613,
			"0.01": 1.02275559762,
			"0.011": 1.41368769564,
			"0.012": 1.3617615069,
			"0.013": 1.56601857815,
			"0.014": 1.51193288142,
			"0.015": 0.133139771712,
			"0.016": 0.0,
			"0.017": 0.0,
			"0.018": 0.0,
			"0.019": 0.0,
			"0.02": 0.0,
			"0.021": 0.0,
			"0.022": 0.0,
			"0.023": 0.0,
			"0.024": 0.0,
			"0.025": 0.0
		}
	}
}
