{
	 "smiles": "CC1=C(Cl)C=C(NC(=O)C(Cl)C2=CC=CC=C2)C=C1", 
	 "Tm": 394.15, 
	 "num_atms": 32, 
	 "gaussian": { 
		 "optdone": 1, 
		 "sigma_profile": "yes", 
		 "theory": "DFT", 
		 "functional": "B3LYP", 
		 "basiset": "6-31G**", 
		 "properties": { 
			 "R2extent": 7409.7616, 
			 "electric_dipole_moment_norm": 3.38159203039, 
			 "electric_quadrupole_moment_norm": 2.5857176528, 
			 "total_energy": -1629.806669, 
			 "HOMO_LUMO_gap": 0.20608, 
			 "cosmo_polarized_energy": -11.36, 
			 "cosmo_cavitation_energy": 38.87, 
			 "cosmo_dispersion_energy": -26.88, 
			 "cosmo_repulsion_energy": 2.08, 
			 "cosmo_total_nonelectrostatic_energy": 14.07, 
			 "SMD_solvation_energy": 6.46 
		},
		"coords": [
			{
				"x": 1.4573646233,
				"y": -5.0941203779,
				"z": -0.2301266711,
				"element": "C" 
			},
			{
				"x": 0.5167114417,
				"y": -3.9932770504,
				"z": 0.1848307405,
				"element": "C" 
			},
			{
				"x": -0.8730978052,
				"y": -4.1790315095,
				"z": 0.2540815543,
				"element": "C" 
			},
			{
				"x": -1.5652640623,
				"y": -5.7471215561,
				"z": -0.1537026124,
				"element": "Cl" 
			},
			{
				"x": -1.7446469545,
				"y": -3.1602887585,
				"z": 0.6261938861,
				"element": "C" 
			},
			{
				"x": -1.2332366527,
				"y": -1.9024768466,
				"z": 0.9618337147,
				"element": "C" 
			},
			{
				"x": -2.1403551094,
				"y": -0.8987367234,
				"z": 1.4086256322,
				"element": "N" 
			},
			{
				"x": -2.3583000944,
				"y": 0.3969299844,
				"z": 1.0183060194,
				"element": "C" 
			},
			{
				"x": -3.0988172361,
				"y": 1.1237916688,
				"z": 1.6699703785,
				"element": "O" 
			},
			{
				"x": -1.6989043707,
				"y": 1.0000519564,
				"z": -0.2382530996,
				"element": "C" 
			},
			{
				"x": -1.7893150289,
				"y": -0.1137743444,
				"z": -1.675857012,
				"element": "Cl" 
			},
			{
				"x": -0.3103710327,
				"y": 1.578712836,
				"z": 0.0265732043,
				"element": "C" 
			},
			{
				"x": 0.7873693814,
				"y": 1.3613700396,
				"z": -0.8112095839,
				"element": "C" 
			},
			{
				"x": 2.0180097422,
				"y": 1.9594592274,
				"z": -0.5291888089,
				"element": "C" 
			},
			{
				"x": 2.1660587608,
				"y": 2.7799349292,
				"z": 0.5885586884,
				"element": "C" 
			},
			{
				"x": 1.0705856774,
				"y": 3.0049010567,
				"z": 1.4250629612,
				"element": "C" 
			},
			{
				"x": -0.1605312364,
				"y": 2.4127293689,
				"z": 1.1468821352,
				"element": "C" 
			},
			{
				"x": 0.1466282321,
				"y": -1.6903045348,
				"z": 0.931491973,
				"element": "C" 
			},
			{
				"x": 0.9930361769,
				"y": -2.7219808996,
				"z": 0.5309824331,
				"element": "C" 
			},
			{
				"x": 1.2346295191,
				"y": -5.4470993793,
				"z": -1.2427943698,
				"element": "H" 
			},
			{
				"x": 1.3733431037,
				"y": -5.9622817728,
				"z": 0.4322975358,
				"element": "H" 
			},
			{
				"x": 2.4926674835,
				"y": -4.7453862524,
				"z": -0.209125059,
				"element": "H" 
			},
			{
				"x": -2.8142688484,
				"y": -3.3368389139,
				"z": 0.6420281584,
				"element": "H" 
			},
			{
				"x": -2.7308144953,
				"y": -1.1390294521,
				"z": 2.1968980356,
				"element": "H" 
			},
			{
				"x": -2.3743214572,
				"y": 1.8156387415,
				"z": -0.4981312515,
				"element": "H" 
			},
			{
				"x": 0.6825895221,
				"y": 0.7235595858,
				"z": -1.6809865679,
				"element": "H" 
			},
			{
				"x": 2.8612775709,
				"y": 1.7807058905,
				"z": -1.1902216659,
				"element": "H" 
			},
			{
				"x": 3.1241532196,
				"y": 3.243377582,
				"z": 0.8049116031,
				"element": "H" 
			},
			{
				"x": 1.1706626204,
				"y": 3.6461574819,
				"z": 2.2960161615,
				"element": "H" 
			},
			{
				"x": -1.0117101795,
				"y": 2.596764613,
				"z": 1.7952710798,
				"element": "H" 
			},
			{
				"x": 0.5539313912,
				"y": -0.7302606825,
				"z": 1.2240928331,
				"element": "H" 
			},
			{
				"x": 2.0644360975,
				"y": -2.5440759079,
				"z": 0.5025879737,
				"element": "H" 
			}
		],
		 "valence_orbital": [ 
			{
				"type": "occ",
				"energy": -0.26772,
				"method": "rhf"
			},
			{
				"type": "occ",
				"energy": -0.26075,
				"method": "rhf"
			},
			{
				"type": "occ",
				"energy": -0.25654,
				"method": "rhf"
			},
			{
				"type": "occ",
				"energy": -0.25428,
				"method": "rhf"
			},
			{
				"type": "occ",
				"energy": -0.23762,
				"method": "rhf"
			},
			{
				"type": "unocc",
				"energy": -0.03154,
				"method": "rhf"
			},
			{
				"type": "unocc",
				"energy": -0.02262,
				"method": "rhf"
			},
			{
				"type": "unocc",
				"energy": -0.01364,
				"method": "rhf"
			},
			{
				"type": "unocc",
				"energy": -0.00885,
				"method": "rhf"
			},
			{
				"type": "unocc",
				"energy": -0.00176,
				"method": "rhf"
			}
		],
		"cosmo_sigma_profile": { 
			"-0.025": 0.0,
			"-0.024": 0.0,
			"-0.023": 0.0,
			"-0.022": 0.0,
			"-0.021": 0.0,
			"-0.02": 0.0,
			"-0.019": 0.0,
			"-0.018": 0.0,
			"-0.017": 0.0,
			"-0.016": 0.0,
			"-0.015": 0.912381287168,
			"-0.014": 0.905728023307,
			"-0.013": 0.864270548459,
			"-0.012": 0.950878030836,
			"-0.011": 0.956711341467,
			"-0.01": 1.14602365125,
			"-0.009": 1.78538806868,
			"-0.008": 3.32821039693,
			"-0.007": 4.7898605675,
			"-0.006": 11.775334854,
			"-0.005": 18.5509165151,
			"-0.004": 22.7551254676,
			"-0.003": 22.0057916353,
			"-0.002": 22.1018310161,
			"-0.001": 26.8541792132,
			"0.0": 28.4113923354,
			"0.001": 27.477761853,
			"0.002": 27.3896088747,
			"0.003": 28.9514875695,
			"0.004": 26.7776470104,
			"0.005": 18.6670622421,
			"0.006": 3.11954912555,
			"0.007": 0.975466923233,
			"0.008": 0.970047505407,
			"0.009": 1.20868034595,
			"0.01": 1.46947642947,
			"0.011": 1.9905614189,
			"0.012": 4.28443895584,
			"0.013": 2.76914319959,
			"0.014": 0.0659084691571,
			"0.015": 0.0,
			"0.016": 0.0,
			"0.017": 0.0,
			"0.018": 0.0,
			"0.019": 0.0,
			"0.02": 0.0,
			"0.021": 0.0,
			"0.022": 0.0,
			"0.023": 0.0,
			"0.024": 0.0,
			"0.025": 0.0
		}
	}
}
