{
	 "smiles": "OC(=O)C1=CN=C(S1)C1=CC=CC=C1", 
	 "Tm": 461.15, 
	 "num_atms": 21, 
	 "gaussian": { 
		 "optdone": 1, 
		 "sigma_profile": "yes", 
		 "theory": "DFT", 
		 "functional": "B3LYP", 
		 "basiset": "6-31G**", 
		 "properties": { 
			 "R2extent": 4701.4459, 
			 "electric_dipole_moment_norm": 5.66996691437, 
			 "electric_quadrupole_moment_norm": 20.4003187884, 
			 "total_energy": -988.6709439, 
			 "HOMO_LUMO_gap": 0.15553, 
			 "cosmo_polarized_energy": -14.55, 
			 "cosmo_cavitation_energy": 27.77, 
			 "cosmo_dispersion_energy": -21.16, 
			 "cosmo_repulsion_energy": 1.59, 
			 "cosmo_total_nonelectrostatic_energy": 8.2, 
			 "SMD_solvation_energy": 4.49 
		},
		"coords": [
			{
				"x": -1.7333861832,
				"y": -2.9771409294,
				"z": -4.1607553799,
				"element": "O" 
			},
			{
				"x": -2.0597724615,
				"y": -3.442241156,
				"z": -2.9267543698,
				"element": "C" 
			},
			{
				"x": -2.7333115092,
				"y": -4.4397139136,
				"z": -2.8122529898,
				"element": "O" 
			},
			{
				"x": -1.5627010749,
				"y": -2.6921586066,
				"z": -1.7513124285,
				"element": "C" 
			},
			{
				"x": -1.8122466949,
				"y": -3.0449498671,
				"z": -0.4463394919,
				"element": "C" 
			},
			{
				"x": -1.2792732016,
				"y": -2.2442498691,
				"z": 0.5152078742,
				"element": "N" 
			},
			{
				"x": -0.5999182531,
				"y": -1.2457196673,
				"z": 0.0034072272,
				"element": "C" 
			},
			{
				"x": -0.5838183758,
				"y": -1.2443323929,
				"z": -1.7666094709,
				"element": "S" 
			},
			{
				"x": 0.0856216433,
				"y": -0.221324504,
				"z": 0.7970390524,
				"element": "C" 
			},
			{
				"x": 0.8020504228,
				"y": 0.8309422955,
				"z": 0.2031624354,
				"element": "C" 
			},
			{
				"x": 1.4393772745,
				"y": 1.7838620207,
				"z": 0.9932613737,
				"element": "C" 
			},
			{
				"x": 1.3706520472,
				"y": 1.7000111734,
				"z": 2.385938275,
				"element": "C" 
			},
			{
				"x": 0.659895265,
				"y": 0.6562473924,
				"z": 2.9845842369,
				"element": "C" 
			},
			{
				"x": 0.0208450176,
				"y": -0.2991639628,
				"z": 2.2004306976,
				"element": "C" 
			},
			{
				"x": -1.1924657753,
				"y": -2.1760332521,
				"z": -4.1133644673,
				"element": "H" 
			},
			{
				"x": -2.4011282187,
				"y": -3.9126481889,
				"z": -0.1745122154,
				"element": "H" 
			},
			{
				"x": 0.8640558501,
				"y": 0.908853322,
				"z": -0.8789504466,
				"element": "H" 
			},
			{
				"x": 1.9898983555,
				"y": 2.5922600751,
				"z": 0.5217973063,
				"element": "H" 
			},
			{
				"x": 1.8682872231,
				"y": 2.4440547459,
				"z": 3.0007741675,
				"element": "H" 
			},
			{
				"x": 0.6036534934,
				"y": 0.5868974392,
				"z": 4.0668446952,
				"element": "H" 
			},
			{
				"x": -0.5340148445,
				"y": -1.1142521544,
				"z": 2.6510039188,
				"element": "H" 
			}
		],
		 "valence_orbital": [ 
			{
				"type": "occ",
				"energy": -0.29661,
				"method": "rhf"
			},
			{
				"type": "occ",
				"energy": -0.29395,
				"method": "rhf"
			},
			{
				"type": "occ",
				"energy": -0.28142,
				"method": "rhf"
			},
			{
				"type": "occ",
				"energy": -0.27026,
				"method": "rhf"
			},
			{
				"type": "occ",
				"energy": -0.24082,
				"method": "rhf"
			},
			{
				"type": "unocc",
				"energy": -0.08529,
				"method": "rhf"
			},
			{
				"type": "unocc",
				"energy": -0.02494,
				"method": "rhf"
			},
			{
				"type": "unocc",
				"energy": -0.01777,
				"method": "rhf"
			},
			{
				"type": "unocc",
				"energy": -0.01744,
				"method": "rhf"
			},
			{
				"type": "unocc",
				"energy": 0.03435,
				"method": "rhf"
			}
		],
		"cosmo_sigma_profile": { 
			"-0.025": 0.0,
			"-0.024": 0.0,
			"-0.023": 0.0,
			"-0.022": 0.0,
			"-0.021": 0.0,
			"-0.02": 0.0,
			"-0.019": 0.068235062005,
			"-0.018": 0.906706011288,
			"-0.017": 0.89816762983,
			"-0.016": 0.819420234304,
			"-0.015": 0.993452828148,
			"-0.014": 1.06173809189,
			"-0.013": 0.980019259618,
			"-0.012": 1.32172449882,
			"-0.011": 0.775697399628,
			"-0.01": 0.851486575601,
			"-0.009": 1.55502851488,
			"-0.008": 3.37614598699,
			"-0.007": 6.03304676657,
			"-0.006": 12.0645865357,
			"-0.005": 13.6530517816,
			"-0.004": 14.1862326722,
			"-0.003": 11.9610945351,
			"-0.002": 15.0807244041,
			"-0.001": 19.3864798893,
			"0.0": 19.8419963624,
			"0.001": 17.301744036,
			"0.002": 16.398878117,
			"0.003": 14.6896419161,
			"0.004": 14.0837560702,
			"0.005": 4.78068660296,
			"0.006": 3.86617477346,
			"0.007": 3.56995593489,
			"0.008": 3.85151909792,
			"0.009": 4.72212731753,
			"0.01": 5.9077834137,
			"0.011": 6.80707187985,
			"0.012": 3.65084317782,
			"0.013": 0.769045442605,
			"0.014": 0.0,
			"0.015": 0.0,
			"0.016": 0.0,
			"0.017": 0.0,
			"0.018": 0.0,
			"0.019": 0.0,
			"0.02": 0.0,
			"0.021": 0.0,
			"0.022": 0.0,
			"0.023": 0.0,
			"0.024": 0.0,
			"0.025": 0.0
		}
	}
}
