{
	 "smiles": "NC1=NC2=C(COCC2)S1", 
	 "Tm": 418.15, 
	 "num_atms": 18, 
	 "gaussian": { 
		 "optdone": 1, 
		 "sigma_profile": "yes", 
		 "theory": "DFT", 
		 "functional": "B3LYP", 
		 "basiset": "6-31G**", 
		 "properties": { 
			 "R2extent": 1993.345, 
			 "electric_dipole_moment_norm": 2.52242713869, 
			 "electric_quadrupole_moment_norm": 8.24475665196, 
			 "total_energy": -816.356353431, 
			 "HOMO_LUMO_gap": 0.20057, 
			 "cosmo_polarized_energy": -11.38, 
			 "cosmo_cavitation_energy": 22.42, 
			 "cosmo_dispersion_energy": -17.93, 
			 "cosmo_repulsion_energy": 1.42, 
			 "cosmo_total_nonelectrostatic_energy": 5.92, 
			 "SMD_solvation_energy": 1.45 
		},
		"coords": [
			{
				"x": -1.9890929087,
				"y": 2.1153177166,
				"z": 2.590489482,
				"element": "N" 
			},
			{
				"x": -1.0379482346,
				"y": 1.4408373276,
				"z": 1.855392494,
				"element": "C" 
			},
			{
				"x": -0.2364836173,
				"y": 2.0069233321,
				"z": 1.0029298715,
				"element": "N" 
			},
			{
				"x": 0.653707025,
				"y": 1.0801474869,
				"z": 0.4876816417,
				"element": "C" 
			},
			{
				"x": 0.5406614949,
				"y": -0.1978839831,
				"z": 0.9404746457,
				"element": "C" 
			},
			{
				"x": 1.4076334064,
				"y": -1.3333983619,
				"z": 0.4691556408,
				"element": "C" 
			},
			{
				"x": 2.5300946474,
				"y": -0.8374262816,
				"z": -0.2458976433,
				"element": "O" 
			},
			{
				"x": 2.1841346884,
				"y": 0.1522205249,
				"z": -1.2120643939,
				"element": "C" 
			},
			{
				"x": 1.6867361601,
				"y": 1.4402924687,
				"z": -0.5419955055,
				"element": "C" 
			},
			{
				"x": -0.7650124501,
				"y": -0.2973857856,
				"z": 2.1096566282,
				"element": "S" 
			},
			{
				"x": -2.8262244087,
				"y": 1.6024038976,
				"z": 2.8287795286,
				"element": "H" 
			},
			{
				"x": -2.1702927224,
				"y": 3.0435484588,
				"z": 2.2300881274,
				"element": "H" 
			},
			{
				"x": 1.8145366905,
				"y": -1.9104880781,
				"z": 1.3071480814,
				"element": "H" 
			},
			{
				"x": 0.8277001113,
				"y": -2.0316400297,
				"z": -0.1613428308,
				"element": "H" 
			},
			{
				"x": 1.410077922,
				"y": -0.2371226494,
				"z": -1.8934447815,
				"element": "H" 
			},
			{
				"x": 3.0916092282,
				"y": 0.3313192525,
				"z": -1.7948836517,
				"element": "H" 
			},
			{
				"x": 1.257421893,
				"y": 2.1170542674,
				"z": -1.2903007511,
				"element": "H" 
			},
			{
				"x": 2.5238410747,
				"y": 1.9723804363,
				"z": -0.0716665836,
				"element": "H" 
			}
		],
		 "valence_orbital": [ 
			{
				"type": "occ",
				"energy": -0.30403,
				"method": "rhf"
			},
			{
				"type": "occ",
				"energy": -0.27077,
				"method": "rhf"
			},
			{
				"type": "occ",
				"energy": -0.26958,
				"method": "rhf"
			},
			{
				"type": "occ",
				"energy": -0.25482,
				"method": "rhf"
			},
			{
				"type": "occ",
				"energy": -0.2021,
				"method": "rhf"
			},
			{
				"type": "unocc",
				"energy": -0.00153,
				"method": "rhf"
			},
			{
				"type": "unocc",
				"energy": 0.01152,
				"method": "rhf"
			},
			{
				"type": "unocc",
				"energy": 0.0619,
				"method": "rhf"
			},
			{
				"type": "unocc",
				"energy": 0.07095,
				"method": "rhf"
			},
			{
				"type": "unocc",
				"energy": 0.09836,
				"method": "rhf"
			}
		],
		"cosmo_sigma_profile": { 
			"-0.025": 0.0,
			"-0.024": 0.0,
			"-0.023": 0.0,
			"-0.022": 0.0,
			"-0.021": 0.0,
			"-0.02": 0.0,
			"-0.019": 0.0,
			"-0.018": 0.0,
			"-0.017": 0.0,
			"-0.016": 0.0,
			"-0.015": 0.233554467003,
			"-0.014": 1.60264479637,
			"-0.013": 2.54596900928,
			"-0.012": 2.70075274543,
			"-0.011": 2.28435984415,
			"-0.01": 2.92061323888,
			"-0.009": 1.86407903035,
			"-0.008": 1.9947660359,
			"-0.007": 1.48934135337,
			"-0.006": 4.96628003856,
			"-0.005": 9.20466018905,
			"-0.004": 18.5583497012,
			"-0.003": 18.5195833061,
			"-0.002": 12.9754127097,
			"-0.001": 9.87613159139,
			"0.0": 8.6338697209,
			"0.001": 7.94171002403,
			"0.002": 10.5661270019,
			"0.003": 11.8244803349,
			"0.004": 11.9955997057,
			"0.005": 7.74886029469,
			"0.006": 4.59330409091,
			"0.007": 3.83024447214,
			"0.008": 3.03794163705,
			"0.009": 3.50305396997,
			"0.01": 3.03440478836,
			"0.011": 2.94844778188,
			"0.012": 3.1063222111,
			"0.013": 2.3740912376,
			"0.014": 1.09732449491,
			"0.015": 0.877496405912,
			"0.016": 0.285724296352,
			"0.017": 0.0,
			"0.018": 0.0,
			"0.019": 0.0,
			"0.02": 0.0,
			"0.021": 0.0,
			"0.022": 0.0,
			"0.023": 0.0,
			"0.024": 0.0,
			"0.025": 0.0
		}
	}
}
