{
	 "smiles": "CCC1=CSC(=N1)N1C=C(C=N1)C(O)=O", 
	 "Tm": 433.15, 
	 "num_atms": 24, 
	 "gaussian": { 
		 "optdone": 1, 
		 "sigma_profile": "yes", 
		 "theory": "DFT", 
		 "functional": "B3LYP", 
		 "basiset": "6-31G**", 
		 "properties": { 
			 "R2extent": 6383.7942, 
			 "electric_dipole_moment_norm": 4.23488317785, 
			 "electric_quadrupole_moment_norm": 11.3202669876, 
			 "total_energy": -1061.25510054, 
			 "HOMO_LUMO_gap": 0.17931, 
			 "cosmo_polarized_energy": -16.06, 
			 "cosmo_cavitation_energy": 31.38, 
			 "cosmo_dispersion_energy": -23.13, 
			 "cosmo_repulsion_energy": 1.79, 
			 "cosmo_total_nonelectrostatic_energy": 10.04, 
			 "SMD_solvation_energy": 4.86 
		},
		"coords": [
			{
				"x": -2.5024938784,
				"y": -1.6505443921,
				"z": 0.3949478475,
				"element": "C" 
			},
			{
				"x": -1.5360000334,
				"y": -1.9701565798,
				"z": -0.7569091894,
				"element": "C" 
			},
			{
				"x": -0.6115662384,
				"y": -0.8265384125,
				"z": -1.073326796,
				"element": "C" 
			},
			{
				"x": -0.5471561108,
				"y": -0.144234194,
				"z": -2.256304076,
				"element": "C" 
			},
			{
				"x": 0.6450731569,
				"y": 1.1196338489,
				"z": -2.1748373273,
				"element": "S" 
			},
			{
				"x": 0.9880182335,
				"y": 0.5919006595,
				"z": -0.5313214343,
				"element": "C" 
			},
			{
				"x": 0.2745074418,
				"y": -0.3970492404,
				"z": -0.1015289593,
				"element": "N" 
			},
			{
				"x": 1.9684342371,
				"y": 1.243244094,
				"z": 0.233714325,
				"element": "N" 
			},
			{
				"x": 3.0739662838,
				"y": 1.896713654,
				"z": -0.2240470163,
				"element": "C" 
			},
			{
				"x": 3.7323449128,
				"y": 2.3784817534,
				"z": 0.8909118056,
				"element": "C" 
			},
			{
				"x": 2.9339920867,
				"y": 1.9541842257,
				"z": 1.9895184892,
				"element": "C" 
			},
			{
				"x": 1.8717076384,
				"y": 1.2728411487,
				"z": 1.601095029,
				"element": "N" 
			},
			{
				"x": 4.9772083056,
				"y": 3.1454564596,
				"z": 0.9641896213,
				"element": "C" 
			},
			{
				"x": 5.5067608648,
				"y": 3.3915793175,
				"z": -0.263395281,
				"element": "O" 
			},
			{
				"x": 5.4975197873,
				"y": 3.5301876142,
				"z": 1.9922970283,
				"element": "O" 
			},
			{
				"x": -3.1656495488,
				"y": -0.8198473804,
				"z": 0.1331965089,
				"element": "H" 
			},
			{
				"x": -3.1226405176,
				"y": -2.5208856216,
				"z": 0.630785831,
				"element": "H" 
			},
			{
				"x": -1.9460673663,
				"y": -1.3690998842,
				"z": 1.2929571708,
				"element": "H" 
			},
			{
				"x": -0.9277216635,
				"y": -2.8422928501,
				"z": -0.4862907884,
				"element": "H" 
			},
			{
				"x": -2.0940890485,
				"y": -2.2396886274,
				"z": -1.6600438427,
				"element": "H" 
			},
			{
				"x": -1.1156887199,
				"y": -0.3069706748,
				"z": -3.1607606392,
				"element": "H" 
			},
			{
				"x": 3.3216905799,
				"y": 1.9534284932,
				"z": -1.2729876822,
				"element": "H" 
			},
			{
				"x": 3.1135896713,
				"y": 2.1371945021,
				"z": 3.0398001702,
				"element": "H" 
			},
			{
				"x": 6.3199599258,
				"y": 3.8986620867,
				"z": -0.104160795,
				"element": "H" 
			}
		],
		 "valence_orbital": [ 
			{
				"type": "occ",
				"energy": -0.2913,
				"method": "rhf"
			},
			{
				"type": "occ",
				"energy": -0.28708,
				"method": "rhf"
			},
			{
				"type": "occ",
				"energy": -0.2806,
				"method": "rhf"
			},
			{
				"type": "occ",
				"energy": -0.27196,
				"method": "rhf"
			},
			{
				"type": "occ",
				"energy": -0.23807,
				"method": "rhf"
			},
			{
				"type": "unocc",
				"energy": -0.05876,
				"method": "rhf"
			},
			{
				"type": "unocc",
				"energy": -0.02054,
				"method": "rhf"
			},
			{
				"type": "unocc",
				"energy": -0.0018,
				"method": "rhf"
			},
			{
				"type": "unocc",
				"energy": 0.01383,
				"method": "rhf"
			},
			{
				"type": "unocc",
				"energy": 0.04367,
				"method": "rhf"
			}
		],
		"cosmo_sigma_profile": { 
			"-0.025": 0.0,
			"-0.024": 0.0,
			"-0.023": 0.0,
			"-0.022": 0.0,
			"-0.021": 0.0,
			"-0.02": 0.0,
			"-0.019": 0.0846077542575,
			"-0.018": 0.69705988759,
			"-0.017": 1.15949218499,
			"-0.016": 0.645940215334,
			"-0.015": 0.767533946711,
			"-0.014": 0.796203674294,
			"-0.013": 0.392183729447,
			"-0.012": 0.603662533599,
			"-0.011": 1.91970634371,
			"-0.01": 2.30022340169,
			"-0.009": 5.49469872981,
			"-0.008": 5.97679938447,
			"-0.007": 5.36893209534,
			"-0.006": 7.91001923134,
			"-0.005": 8.39940927436,
			"-0.004": 11.2656681216,
			"-0.003": 16.665329638,
			"-0.002": 23.3997163722,
			"-0.001": 30.2114926506,
			"0.0": 29.598758609,
			"0.001": 24.6619564327,
			"0.002": 16.0035863315,
			"0.003": 8.91436217854,
			"0.004": 5.62569049121,
			"0.005": 5.65975426516,
			"0.006": 4.26397220271,
			"0.007": 4.7287212285,
			"0.008": 4.72850028195,
			"0.009": 4.17640450164,
			"0.01": 3.07454417791,
			"0.011": 5.92975747474,
			"0.012": 5.84911034958,
			"0.013": 1.84433484835,
			"0.014": 1.6197643189,
			"0.015": 1.94911694865,
			"0.016": 0.450755787543,
			"0.017": 0.0,
			"0.018": 0.0,
			"0.019": 0.0,
			"0.02": 0.0,
			"0.021": 0.0,
			"0.022": 0.0,
			"0.023": 0.0,
			"0.024": 0.0,
			"0.025": 0.0
		}
	}
}
