{
	 "smiles": "CN1C(N)=NC2=C1C=CC(F)=C2", 
	 "Tm": 426.15, 
	 "num_atms": 20, 
	 "gaussian": { 
		 "optdone": 1, 
		 "sigma_profile": "yes", 
		 "theory": "DFT", 
		 "functional": "B3LYP", 
		 "basiset": "6-31G**", 
		 "properties": { 
			 "R2extent": 2509.6788, 
			 "electric_dipole_moment_norm": 5.44008820333, 
			 "electric_quadrupole_moment_norm": 7.43278726656, 
			 "total_energy": -573.776582024, 
			 "HOMO_LUMO_gap": 0.19788, 
			 "cosmo_polarized_energy": -14.42, 
			 "cosmo_cavitation_energy": 24.34, 
			 "cosmo_dispersion_energy": -18.06, 
			 "cosmo_repulsion_energy": 1.4, 
			 "cosmo_total_nonelectrostatic_energy": 7.68, 
			 "SMD_solvation_energy": 2.66 
		},
		"coords": [
			{
				"x": 0.9375501438,
				"y": 1.8339923438,
				"z": 1.8754112165,
				"element": "C" 
			},
			{
				"x": 0.7975313872,
				"y": 0.7836087118,
				"z": 0.8880196122,
				"element": "N" 
			},
			{
				"x": 0.7893198761,
				"y": -0.57885294,
				"z": 1.1123033155,
				"element": "C" 
			},
			{
				"x": 0.8910041947,
				"y": -1.0889781716,
				"z": 2.3974847847,
				"element": "N" 
			},
			{
				"x": 0.7515688735,
				"y": -1.3069685109,
				"z": 0.019216031,
				"element": "N" 
			},
			{
				"x": 0.7363005125,
				"y": -0.3812344196,
				"z": -1.0130609051,
				"element": "C" 
			},
			{
				"x": 0.7484892081,
				"y": 0.9387888417,
				"z": -0.4972233359,
				"element": "C" 
			},
			{
				"x": 0.7192098298,
				"y": 2.0648349909,
				"z": -1.3140843939,
				"element": "C" 
			},
			{
				"x": 0.6854258403,
				"y": 1.8521118396,
				"z": -2.6946001592,
				"element": "C" 
			},
			{
				"x": 0.6752345475,
				"y": 0.5464495763,
				"z": -3.1975511528,
				"element": "C" 
			},
			{
				"x": 0.6382477725,
				"y": 0.3865536541,
				"z": -4.5428833293,
				"element": "F" 
			},
			{
				"x": 0.6986992865,
				"y": -0.5869256909,
				"z": -2.3959409926,
				"element": "C" 
			},
			{
				"x": 1.5977206953,
				"y": 2.6151927805,
				"z": 1.4879483488,
				"element": "H" 
			},
			{
				"x": 1.3939114966,
				"y": 1.4183071598,
				"z": 2.7765278237,
				"element": "H" 
			},
			{
				"x": -0.0261022939,
				"y": 2.2891237253,
				"z": 2.1352590862,
				"element": "H" 
			},
			{
				"x": 0.8375521991,
				"y": -2.1001660225,
				"z": 2.3749536121,
				"element": "H" 
			},
			{
				"x": 0.2331870798,
				"y": -0.7024787132,
				"z": 3.0643758273,
				"element": "H" 
			},
			{
				"x": 0.7206063128,
				"y": 3.0725923399,
				"z": -0.9103852859,
				"element": "H" 
			},
			{
				"x": 0.663755934,
				"y": 2.6823248948,
				"z": -3.3914013784,
				"element": "H" 
			},
			{
				"x": 0.6885871037,
				"y": -1.5798763897,
				"z": -2.8296687249,
				"element": "H" 
			}
		],
		 "valence_orbital": [ 
			{
				"type": "occ",
				"energy": -0.29545,
				"method": "rhf"
			},
			{
				"type": "occ",
				"energy": -0.28861,
				"method": "rhf"
			},
			{
				"type": "occ",
				"energy": -0.26956,
				"method": "rhf"
			},
			{
				"type": "occ",
				"energy": -0.21656,
				"method": "rhf"
			},
			{
				"type": "occ",
				"energy": -0.20369,
				"method": "rhf"
			},
			{
				"type": "unocc",
				"energy": -0.00581,
				"method": "rhf"
			},
			{
				"type": "unocc",
				"energy": 0.03104,
				"method": "rhf"
			},
			{
				"type": "unocc",
				"energy": 0.05843,
				"method": "rhf"
			},
			{
				"type": "unocc",
				"energy": 0.07139,
				"method": "rhf"
			},
			{
				"type": "unocc",
				"energy": 0.0952,
				"method": "rhf"
			}
		],
		"cosmo_sigma_profile": { 
			"-0.025": 0.0,
			"-0.024": 0.0,
			"-0.023": 0.0,
			"-0.022": 0.0,
			"-0.021": 0.0,
			"-0.02": 0.0,
			"-0.019": 0.0,
			"-0.018": 0.0,
			"-0.017": 0.0,
			"-0.016": 0.0,
			"-0.015": 0.0,
			"-0.014": 0.919062089163,
			"-0.013": 2.30067325382,
			"-0.012": 2.75085672664,
			"-0.011": 2.25789610191,
			"-0.01": 3.19129396652,
			"-0.009": 2.99162358826,
			"-0.008": 1.4089514617,
			"-0.007": 4.4874783903,
			"-0.006": 13.7997317728,
			"-0.005": 14.5770049054,
			"-0.004": 12.4724373399,
			"-0.003": 13.9000912674,
			"-0.002": 8.38811376539,
			"-0.001": 7.57910664637,
			"0.0": 6.4671333923,
			"0.001": 9.54310940076,
			"0.002": 12.1193749032,
			"0.003": 14.3400372564,
			"0.004": 17.6445871212,
			"0.005": 21.8295890464,
			"0.006": 4.99490316258,
			"0.007": 2.02900080438,
			"0.008": 2.36417831984,
			"0.009": 1.74243352471,
			"0.01": 1.54762939453,
			"0.011": 1.24555212962,
			"0.012": 1.65806281833,
			"0.013": 1.70351660125,
			"0.014": 0.922906684493,
			"0.015": 0.940524764812,
			"0.016": 1.09290288634,
			"0.017": 0.773960573171,
			"0.018": 0.350632826186,
			"0.019": 0.0,
			"0.02": 0.0,
			"0.021": 0.0,
			"0.022": 0.0,
			"0.023": 0.0,
			"0.024": 0.0,
			"0.025": 0.0
		}
	}
}
