{
	 "smiles": "COC(=O)C1=C(F)C(=CC(=C1)[N+]([O-])=O)[N+]([O-])=O", 
	 "Tm": 341.15, 
	 "num_atms": 22, 
	 "gaussian": { 
		 "optdone": 1, 
		 "sigma_profile": "yes", 
		 "theory": "DFT", 
		 "functional": "B3LYP", 
		 "basiset": "6-31G**", 
		 "properties": { 
			 "R2extent": 4725.4777, 
			 "electric_dipole_moment_norm": 4.35182900744, 
			 "electric_quadrupole_moment_norm": 19.4562519746, 
			 "total_energy": -968.328220461, 
			 "HOMO_LUMO_gap": 0.1844, 
			 "cosmo_polarized_energy": -14.89, 
			 "cosmo_cavitation_energy": 29.92, 
			 "cosmo_dispersion_energy": -21.47, 
			 "cosmo_repulsion_energy": 1.65, 
			 "cosmo_total_nonelectrostatic_energy": 10.1, 
			 "SMD_solvation_energy": 11.76 
		},
		"coords": [
			{
				"x": -3.557929723,
				"y": 0.8023467464,
				"z": 0.9675637419,
				"element": "C" 
			},
			{
				"x": -2.1496164657,
				"y": 0.5261034297,
				"z": 0.8444932931,
				"element": "O" 
			},
			{
				"x": -1.7484985833,
				"y": 0.1237007723,
				"z": -0.3788603805,
				"element": "C" 
			},
			{
				"x": -2.4916680615,
				"y": -0.0040428298,
				"z": -1.3254317574,
				"element": "O" 
			},
			{
				"x": -0.2705357587,
				"y": -0.1397787179,
				"z": -0.3943320309,
				"element": "C" 
			},
			{
				"x": 0.3776804418,
				"y": -0.5249300996,
				"z": -1.5844443603,
				"element": "C" 
			},
			{
				"x": -0.3191977392,
				"y": -0.670330896,
				"z": -2.69446775,
				"element": "F" 
			},
			{
				"x": 1.7604368045,
				"y": -0.7816674586,
				"z": -1.5822572661,
				"element": "C" 
			},
			{
				"x": 2.5034317236,
				"y": -0.6724426692,
				"z": -0.4134339849,
				"element": "C" 
			},
			{
				"x": 1.8523434328,
				"y": -0.2796518,
				"z": 0.7475416793,
				"element": "C" 
			},
			{
				"x": 0.4885860077,
				"y": -0.0127021534,
				"z": 0.7725841468,
				"element": "C" 
			},
			{
				"x": 2.6326292709,
				"y": -0.1455091121,
				"z": 1.9905605629,
				"element": "N" 
			},
			{
				"x": 2.024706969,
				"y": 0.1953015995,
				"z": 3.0023795311,
				"element": "O" 
			},
			{
				"x": 3.8357893195,
				"y": -0.3836610501,
				"z": 1.9279155434,
				"element": "O" 
			},
			{
				"x": 2.4801306597,
				"y": -1.1708917664,
				"z": -2.8100959219,
				"element": "N" 
			},
			{
				"x": 1.9763412901,
				"y": -0.8756964115,
				"z": -3.886955293,
				"element": "O" 
			},
			{
				"x": 3.5530503055,
				"y": -1.7503769073,
				"z": -2.6543585457,
				"element": "O" 
			},
			{
				"x": -3.7041232756,
				"y": 1.1087647718,
				"z": 2.0024584972,
				"element": "H" 
			},
			{
				"x": -4.142088971,
				"y": -0.0925548914,
				"z": 0.7417815827,
				"element": "H" 
			},
			{
				"x": -3.8498459745,
				"y": 1.6007801552,
				"z": 0.2817673046,
				"element": "H" 
			},
			{
				"x": 3.5630324081,
				"y": -0.8913676761,
				"z": -0.4184333734,
				"element": "H" 
			},
			{
				"x": 0.0173459191,
				"y": 0.2879069646,
				"z": 1.698224781,
				"element": "H" 
			}
		],
		 "valence_orbital": [ 
			{
				"type": "occ",
				"energy": -0.3246,
				"method": "rhf"
			},
			{
				"type": "occ",
				"energy": -0.31661,
				"method": "rhf"
			},
			{
				"type": "occ",
				"energy": -0.31128,
				"method": "rhf"
			},
			{
				"type": "occ",
				"energy": -0.30765,
				"method": "rhf"
			},
			{
				"type": "occ",
				"energy": -0.30214,
				"method": "rhf"
			},
			{
				"type": "unocc",
				"energy": -0.11774,
				"method": "rhf"
			},
			{
				"type": "unocc",
				"energy": -0.11377,
				"method": "rhf"
			},
			{
				"type": "unocc",
				"energy": -0.07868,
				"method": "rhf"
			},
			{
				"type": "unocc",
				"energy": -0.0211,
				"method": "rhf"
			},
			{
				"type": "unocc",
				"energy": 0.02312,
				"method": "rhf"
			}
		],
		"cosmo_sigma_profile": { 
			"-0.025": 0.0,
			"-0.024": 0.0,
			"-0.023": 0.0,
			"-0.022": 0.0,
			"-0.021": 0.0,
			"-0.02": 0.0,
			"-0.019": 0.0,
			"-0.018": 0.0,
			"-0.017": 0.0,
			"-0.016": 0.0,
			"-0.015": 0.0,
			"-0.014": 0.0,
			"-0.013": 0.0,
			"-0.012": 0.0,
			"-0.011": 0.125137860074,
			"-0.01": 0.815391025306,
			"-0.009": 1.93685714939,
			"-0.008": 4.66686922563,
			"-0.007": 10.539881326,
			"-0.006": 22.3331031315,
			"-0.005": 25.5158535498,
			"-0.004": 27.2416399938,
			"-0.003": 15.6384084922,
			"-0.002": 8.7978694936,
			"-0.001": 9.66343162958,
			"0.0": 8.44284565013,
			"0.001": 8.14299864344,
			"0.002": 9.66256711801,
			"0.003": 10.7803646595,
			"0.004": 8.60618258226,
			"0.005": 10.0707072955,
			"0.006": 17.5837236623,
			"0.007": 16.3794552179,
			"0.008": 11.0103173259,
			"0.009": 6.24858126366,
			"0.01": 3.58664020707,
			"0.011": 3.55878145756,
			"0.012": 0.0220067158836,
			"0.013": 0.0,
			"0.014": 0.0,
			"0.015": 0.0,
			"0.016": 0.0,
			"0.017": 0.0,
			"0.018": 0.0,
			"0.019": 0.0,
			"0.02": 0.0,
			"0.021": 0.0,
			"0.022": 0.0,
			"0.023": 0.0,
			"0.024": 0.0,
			"0.025": 0.0
		}
	}
}
