{
	 "smiles": "CCOC(=O)C(O)(C1=CC=CC=C1)C1=CC=CC=C1", 
	 "Tm": 305.15, 
	 "num_atms": 35, 
	 "gaussian": { 
		 "optdone": 1, 
		 "sigma_profile": "yes", 
		 "theory": "DFT", 
		 "functional": "B3LYP", 
		 "basiset": "6-31G**", 
		 "properties": { 
			 "R2extent": 5007.6298, 
			 "electric_dipole_moment_norm": 2.67764067418, 
			 "electric_quadrupole_moment_norm": 7.98181707007, 
			 "total_energy": -845.024968804, 
			 "HOMO_LUMO_gap": 0.22266, 
			 "cosmo_polarized_energy": -9.93, 
			 "cosmo_cavitation_energy": 37.9, 
			 "cosmo_dispersion_energy": -25.91, 
			 "cosmo_repulsion_energy": 2.04, 
			 "cosmo_total_nonelectrostatic_energy": 14.02, 
			 "SMD_solvation_energy": 7.46 
		},
		"coords": [
			{
				"x": 0.0792031221,
				"y": -3.9469698886,
				"z": -1.0677978999,
				"element": "C" 
			},
			{
				"x": -0.1933020009,
				"y": -2.7525903452,
				"z": -1.9672721947,
				"element": "C" 
			},
			{
				"x": -0.0910036104,
				"y": -1.5051000186,
				"z": -1.2236465465,
				"element": "O" 
			},
			{
				"x": 1.1295936397,
				"y": -0.979704923,
				"z": -1.0916049447,
				"element": "C" 
			},
			{
				"x": 2.1456376088,
				"y": -1.4705797337,
				"z": -1.5487357759,
				"element": "O" 
			},
			{
				"x": 1.1701081657,
				"y": 0.3524496487,
				"z": -0.2947037034,
				"element": "C" 
			},
			{
				"x": 2.5262917407,
				"y": 0.5276633206,
				"z": 0.0788463832,
				"element": "O" 
			},
			{
				"x": 0.7218524236,
				"y": 1.5200870092,
				"z": -1.2039013998,
				"element": "C" 
			},
			{
				"x": -0.3264705788,
				"y": 1.419392107,
				"z": -2.1288430689,
				"element": "C" 
			},
			{
				"x": -0.692571497,
				"y": 2.5189384721,
				"z": -2.9094397554,
				"element": "C" 
			},
			{
				"x": -0.0189471797,
				"y": 3.7325538751,
				"z": -2.7770992458,
				"element": "C" 
			},
			{
				"x": 1.0269325959,
				"y": 3.8390693446,
				"z": -1.8581112616,
				"element": "C" 
			},
			{
				"x": 1.3962453043,
				"y": 2.7421613602,
				"z": -1.080643771,
				"element": "C" 
			},
			{
				"x": 0.3371999229,
				"y": 0.2325534191,
				"z": 0.9944095625,
				"element": "C" 
			},
			{
				"x": 0.941254345,
				"y": -0.3104682548,
				"z": 2.1360797615,
				"element": "C" 
			},
			{
				"x": 0.2142902078,
				"y": -0.4675117592,
				"z": 3.3161557055,
				"element": "C" 
			},
			{
				"x": -1.126517807,
				"y": -0.0836713726,
				"z": 3.3729772574,
				"element": "C" 
			},
			{
				"x": -1.7325092727,
				"y": 0.4602390721,
				"z": 2.2399266265,
				"element": "C" 
			},
			{
				"x": -1.0061706731,
				"y": 0.6180686479,
				"z": 1.0585532023,
				"element": "C" 
			},
			{
				"x": 1.1138074819,
				"y": -3.9379727303,
				"z": -0.7168853092,
				"element": "H" 
			},
			{
				"x": -0.5898675731,
				"y": -3.9429773092,
				"z": -0.2028695664,
				"element": "H" 
			},
			{
				"x": -0.0851938859,
				"y": -4.8734409928,
				"z": -1.6278695855,
				"element": "H" 
			},
			{
				"x": -1.2193543524,
				"y": -2.7543929931,
				"z": -2.3407947765,
				"element": "H" 
			},
			{
				"x": 0.5028598518,
				"y": -2.7159133618,
				"z": -2.8080748548,
				"element": "H" 
			},
			{
				"x": 3.0419726733,
				"y": 0.0189850153,
				"z": -0.5712709556,
				"element": "H" 
			},
			{
				"x": -0.8622503194,
				"y": 0.4839159939,
				"z": -2.2443003039,
				"element": "H" 
			},
			{
				"x": -1.504898092,
				"y": 2.420669833,
				"z": -3.6242665978,
				"element": "H" 
			},
			{
				"x": -0.3034719578,
				"y": 4.5862180779,
				"z": -3.3856080083,
				"element": "H" 
			},
			{
				"x": 1.5610441028,
				"y": 4.778728394,
				"z": -1.7473506167,
				"element": "H" 
			},
			{
				"x": 2.2168031823,
				"y": 2.8158049123,
				"z": -0.3767152443,
				"element": "H" 
			},
			{
				"x": 1.9877662835,
				"y": -0.588859429,
				"z": 2.0936181054,
				"element": "H" 
			},
			{
				"x": 0.69967329,
				"y": -0.885484784,
				"z": 4.193850335,
				"element": "H" 
			},
			{
				"x": -1.6920498556,
				"y": -0.2019521555,
				"z": 4.2929904582,
				"element": "H" 
			},
			{
				"x": -2.7732799282,
				"y": 0.7702385491,
				"z": 2.2738343565,
				"element": "H" 
			},
			{
				"x": -1.4877773582,
				"y": 1.0528529994,
				"z": 0.1900636327,
				"element": "H" 
			}
		],
		 "valence_orbital": [ 
			{
				"type": "occ",
				"energy": -0.28036,
				"method": "rhf"
			},
			{
				"type": "occ",
				"energy": -0.24844,
				"method": "rhf"
			},
			{
				"type": "occ",
				"energy": -0.24613,
				"method": "rhf"
			},
			{
				"type": "occ",
				"energy": -0.24132,
				"method": "rhf"
			},
			{
				"type": "occ",
				"energy": -0.23752,
				"method": "rhf"
			},
			{
				"type": "unocc",
				"energy": -0.01486,
				"method": "rhf"
			},
			{
				"type": "unocc",
				"energy": -0.00715,
				"method": "rhf"
			},
			{
				"type": "unocc",
				"energy": 0.0026,
				"method": "rhf"
			},
			{
				"type": "unocc",
				"energy": 0.00711,
				"method": "rhf"
			},
			{
				"type": "unocc",
				"energy": 0.01582,
				"method": "rhf"
			}
		],
		"cosmo_sigma_profile": { 
			"-0.025": 0.0,
			"-0.024": 0.0,
			"-0.023": 0.0,
			"-0.022": 0.0,
			"-0.021": 0.0,
			"-0.02": 0.0,
			"-0.019": 0.0,
			"-0.018": 0.0,
			"-0.017": 0.0,
			"-0.016": 0.0,
			"-0.015": 0.0,
			"-0.014": 0.0,
			"-0.013": 0.0,
			"-0.012": 0.149406963596,
			"-0.011": 0.491315374413,
			"-0.01": 0.464053375128,
			"-0.009": 0.338614389812,
			"-0.008": 0.548277144746,
			"-0.007": 0.817923221605,
			"-0.006": 10.7193441884,
			"-0.005": 23.626945073,
			"-0.004": 32.9751603705,
			"-0.003": 34.5949158024,
			"-0.002": 25.0196188345,
			"-0.001": 25.2819724013,
			"0.0": 21.4229930645,
			"0.001": 17.3637782289,
			"0.002": 17.7542849748,
			"0.003": 19.3046072258,
			"0.004": 20.0813154584,
			"0.005": 21.3140460112,
			"0.006": 13.0983000273,
			"0.007": 4.4301580001,
			"0.008": 2.9340070796,
			"0.009": 2.70214782413,
			"0.01": 3.43452262382,
			"0.011": 2.01781833604,
			"0.012": 0.592409807233,
			"0.013": 0.0914660609041,
			"0.014": 0.0,
			"0.015": 0.0,
			"0.016": 0.0,
			"0.017": 0.0,
			"0.018": 0.0,
			"0.019": 0.0,
			"0.02": 0.0,
			"0.021": 0.0,
			"0.022": 0.0,
			"0.023": 0.0,
			"0.024": 0.0,
			"0.025": 0.0
		}
	}
}
