{
	 "smiles": "CC1=CC(=NO1)C1=C(C(Cl)=O)C(C)=NO1", 
	 "Tm": 330.15, 
	 "num_atms": 22, 
	 "gaussian": { 
		 "optdone": 1, 
		 "sigma_profile": "yes", 
		 "theory": "DFT", 
		 "functional": "B3LYP", 
		 "basiset": "6-31G**", 
		 "properties": { 
			 "R2extent": 4100.816, 
			 "electric_dipole_moment_norm": 4.14532338666, 
			 "electric_quadrupole_moment_norm": 22.9261851391, 
			 "total_energy": -1142.44978, 
			 "HOMO_LUMO_gap": 0.18693, 
			 "cosmo_polarized_energy": -11.27, 
			 "cosmo_cavitation_energy": 29.86, 
			 "cosmo_dispersion_energy": -21.5, 
			 "cosmo_repulsion_energy": 1.7, 
			 "cosmo_total_nonelectrostatic_energy": 10.06, 
			 "SMD_solvation_energy": 5.86 
		},
		"coords": [
			{
				"x": -1.9980812228,
				"y": 4.2527113817,
				"z": -0.6713451033,
				"element": "C" 
			},
			{
				"x": -1.5636175977,
				"y": 2.8301646486,
				"z": -0.6191616999,
				"element": "C" 
			},
			{
				"x": -0.5290606116,
				"y": 2.1775513837,
				"z": -0.0197561693,
				"element": "C" 
			},
			{
				"x": -0.7202823087,
				"y": 0.8178017745,
				"z": -0.4054201645,
				"element": "C" 
			},
			{
				"x": -1.7929641236,
				"y": 0.6615627659,
				"z": -1.1580639659,
				"element": "N" 
			},
			{
				"x": -2.3206444399,
				"y": 1.9336281848,
				"z": -1.2983365806,
				"element": "O" 
			},
			{
				"x": 0.0886863526,
				"y": -0.3268822667,
				"z": -0.0031467062,
				"element": "C" 
			},
			{
				"x": 0.422156039,
				"y": -1.5546089659,
				"z": -0.5352612349,
				"element": "C" 
			},
			{
				"x": 0.1843863364,
				"y": -2.1925624834,
				"z": -1.83213181,
				"element": "C" 
			},
			{
				"x": -0.0292404307,
				"y": -1.0735827079,
				"z": -3.2354507696,
				"element": "Cl" 
			},
			{
				"x": 0.2098748943,
				"y": -3.3758855108,
				"z": -2.0185608743,
				"element": "O" 
			},
			{
				"x": 1.1884500115,
				"y": -2.1869988717,
				"z": 0.5107771989,
				"element": "C" 
			},
			{
				"x": 1.8174744562,
				"y": -3.54301446,
				"z": 0.516249165,
				"element": "C" 
			},
			{
				"x": 1.3253987256,
				"y": -1.3939120278,
				"z": 1.5441750903,
				"element": "N" 
			},
			{
				"x": 0.6197646854,
				"y": -0.2225350352,
				"z": 1.2257462871,
				"element": "O" 
			},
			{
				"x": -3.0090360761,
				"y": 4.3660080645,
				"z": -0.2667411783,
				"element": "H" 
			},
			{
				"x": -2.0101764139,
				"y": 4.618517753,
				"z": -1.7031496108,
				"element": "H" 
			},
			{
				"x": -1.3166157359,
				"y": 4.8745519605,
				"z": -0.08813259,
				"element": "H" 
			},
			{
				"x": 0.2568894018,
				"y": 2.5859796691,
				"z": 0.5951428952,
				"element": "H" 
			},
			{
				"x": 1.0540763844,
				"y": -4.3193690723,
				"z": 0.422687024,
				"element": "H" 
			},
			{
				"x": 2.4977922703,
				"y": -3.659392851,
				"z": -0.3323976186,
				"element": "H" 
			},
			{
				"x": 2.3722694034,
				"y": -3.6843333338,
				"z": 1.4453784158,
				"element": "H" 
			}
		],
		 "valence_orbital": [ 
			{
				"type": "occ",
				"energy": -0.31409,
				"method": "rhf"
			},
			{
				"type": "occ",
				"energy": -0.30998,
				"method": "rhf"
			},
			{
				"type": "occ",
				"energy": -0.29643,
				"method": "rhf"
			},
			{
				"type": "occ",
				"energy": -0.28068,
				"method": "rhf"
			},
			{
				"type": "occ",
				"energy": -0.2712,
				"method": "rhf"
			},
			{
				"type": "unocc",
				"energy": -0.08427,
				"method": "rhf"
			},
			{
				"type": "unocc",
				"energy": -0.03466,
				"method": "rhf"
			},
			{
				"type": "unocc",
				"energy": -0.01434,
				"method": "rhf"
			},
			{
				"type": "unocc",
				"energy": 0.01505,
				"method": "rhf"
			},
			{
				"type": "unocc",
				"energy": 0.0428,
				"method": "rhf"
			}
		],
		"cosmo_sigma_profile": { 
			"-0.025": 0.0,
			"-0.024": 0.0,
			"-0.023": 0.0,
			"-0.022": 0.0,
			"-0.021": 0.0,
			"-0.02": 0.0,
			"-0.019": 0.0,
			"-0.018": 0.0,
			"-0.017": 0.0,
			"-0.016": 0.0,
			"-0.015": 0.0,
			"-0.014": 0.0,
			"-0.013": 0.0,
			"-0.012": 0.0,
			"-0.011": 0.0,
			"-0.01": 0.174047913128,
			"-0.009": 1.48376308976,
			"-0.008": 1.7786592051,
			"-0.007": 7.4160615689,
			"-0.006": 14.3923818247,
			"-0.005": 16.1816339706,
			"-0.004": 20.2797210026,
			"-0.003": 24.9078981044,
			"-0.002": 27.1028680933,
			"-0.001": 17.8477465603,
			"0.0": 13.6626676328,
			"0.001": 12.5806474261,
			"0.002": 11.1402144888,
			"0.003": 12.1514695677,
			"0.004": 13.354654461,
			"0.005": 9.57824526796,
			"0.006": 10.5939342986,
			"0.007": 8.00309996372,
			"0.008": 7.12749340738,
			"0.009": 5.26605426231,
			"0.01": 2.49012483607,
			"0.011": 1.85250239532,
			"0.012": 2.38701063253,
			"0.013": 0.360569518921,
			"0.014": 0.0,
			"0.015": 0.0,
			"0.016": 0.0,
			"0.017": 0.0,
			"0.018": 0.0,
			"0.019": 0.0,
			"0.02": 0.0,
			"0.021": 0.0,
			"0.022": 0.0,
			"0.023": 0.0,
			"0.024": 0.0,
			"0.025": 0.0
		}
	}
}
