{
	 "smiles": "CCOC(=O)C1=CNC=C1C(F)(F)F", 
	 "Tm": 435.15, 
	 "num_atms": 22, 
	 "gaussian": { 
		 "optdone": 1, 
		 "sigma_profile": "yes", 
		 "theory": "DFT", 
		 "functional": "B3LYP", 
		 "basiset": "6-31G**", 
		 "properties": { 
			 "R2extent": 3401.9428, 
			 "electric_dipole_moment_norm": 6.03071302418, 
			 "electric_quadrupole_moment_norm": 18.2786895118, 
			 "total_energy": -814.406360352, 
			 "HOMO_LUMO_gap": 0.21977, 
			 "cosmo_polarized_energy": -15.54, 
			 "cosmo_cavitation_energy": 27.93, 
			 "cosmo_dispersion_energy": -19.78, 
			 "cosmo_repulsion_energy": 1.53, 
			 "cosmo_total_nonelectrostatic_energy": 9.69, 
			 "SMD_solvation_energy": 7.35 
		},
		"coords": [
			{
				"x": 0.8789061684,
				"y": 1.1397347745,
				"z": 3.0864050178,
				"element": "C" 
			},
			{
				"x": 0.956572242,
				"y": -0.2468530608,
				"z": 2.4642462831,
				"element": "C" 
			},
			{
				"x": 1.3377353243,
				"y": -0.180586616,
				"z": 1.0709861945,
				"element": "O" 
			},
			{
				"x": 0.3285749003,
				"y": 0.0260121362,
				"z": 0.1828513894,
				"element": "C" 
			},
			{
				"x": -0.8377867821,
				"y": 0.1457255062,
				"z": 0.5000814992,
				"element": "O" 
			},
			{
				"x": 0.8385561353,
				"y": 0.0789100081,
				"z": -1.1954716397,
				"element": "C" 
			},
			{
				"x": 2.1609714742,
				"y": -0.0600029715,
				"z": -1.5770370787,
				"element": "C" 
			},
			{
				"x": 2.2206018619,
				"y": 0.0503741922,
				"z": -2.9371342987,
				"element": "N" 
			},
			{
				"x": 0.9628091922,
				"y": 0.2579470827,
				"z": -3.4500473611,
				"element": "C" 
			},
			{
				"x": 0.0790710624,
				"y": 0.282023451,
				"z": -2.3975141115,
				"element": "C" 
			},
			{
				"x": -1.3907143306,
				"y": 0.4875150036,
				"z": -2.5552019496,
				"element": "C" 
			},
			{
				"x": -2.1111339125,
				"y": -0.5583533737,
				"z": -2.105791707,
				"element": "F" 
			},
			{
				"x": -1.6985446458,
				"y": 0.6448642568,
				"z": -3.871399642,
				"element": "F" 
			},
			{
				"x": -1.8309487952,
				"y": 1.5881364807,
				"z": -1.9147193956,
				"element": "F" 
			},
			{
				"x": 1.8262348833,
				"y": 1.6743930791,
				"z": 2.968442229,
				"element": "H" 
			},
			{
				"x": 0.0818041841,
				"y": 1.72374414,
				"z": 2.6202460399,
				"element": "H" 
			},
			{
				"x": 0.6624542489,
				"y": 1.055757162,
				"z": 4.156764612,
				"element": "H" 
			},
			{
				"x": -0.0013576551,
				"y": -0.7662655935,
				"z": 2.543558286,
				"element": "H" 
			},
			{
				"x": 1.7373623309,
				"y": -0.8523588525,
				"z": 2.9315769467,
				"element": "H" 
			},
			{
				"x": 3.0391567772,
				"y": -0.2262430401,
				"z": -0.9736022418,
				"element": "H" 
			},
			{
				"x": 3.0637776655,
				"y": -0.0116120411,
				"z": -3.486056022,
				"element": "H" 
			},
			{
				"x": 0.7884976704,
				"y": 0.3723382761,
				"z": -4.5079830499,
				"element": "H" 
			}
		],
		 "valence_orbital": [ 
			{
				"type": "occ",
				"energy": -0.3366,
				"method": "rhf"
			},
			{
				"type": "occ",
				"energy": -0.29224,
				"method": "rhf"
			},
			{
				"type": "occ",
				"energy": -0.26979,
				"method": "rhf"
			},
			{
				"type": "occ",
				"energy": -0.26759,
				"method": "rhf"
			},
			{
				"type": "occ",
				"energy": -0.24215,
				"method": "rhf"
			},
			{
				"type": "unocc",
				"energy": -0.02238,
				"method": "rhf"
			},
			{
				"type": "unocc",
				"energy": 0.01551,
				"method": "rhf"
			},
			{
				"type": "unocc",
				"energy": 0.05653,
				"method": "rhf"
			},
			{
				"type": "unocc",
				"energy": 0.1074,
				"method": "rhf"
			},
			{
				"type": "unocc",
				"energy": 0.11477,
				"method": "rhf"
			}
		],
		"cosmo_sigma_profile": { 
			"-0.025": 0.0,
			"-0.024": 0.0,
			"-0.023": 0.0,
			"-0.022": 0.0,
			"-0.021": 0.0,
			"-0.02": 0.0,
			"-0.019": 0.0,
			"-0.018": 0.127715393328,
			"-0.017": 1.75567378234,
			"-0.016": 1.79340040097,
			"-0.015": 1.76323563026,
			"-0.014": 0.964920382595,
			"-0.013": 1.0082638544,
			"-0.012": 1.5413113148,
			"-0.011": 1.02989775295,
			"-0.01": 2.47819795437,
			"-0.009": 3.82799733983,
			"-0.008": 3.62230701357,
			"-0.007": 2.56435279282,
			"-0.006": 4.47247707955,
			"-0.005": 7.27158949799,
			"-0.004": 11.5472459846,
			"-0.003": 13.5799865229,
			"-0.002": 14.2327859268,
			"-0.001": 14.861692198,
			"0.0": 19.404405979,
			"0.001": 15.0764433554,
			"0.002": 19.8989131429,
			"0.003": 37.5567426026,
			"0.004": 16.0085668319,
			"0.005": 4.3504563693,
			"0.006": 5.10279171126,
			"0.007": 3.05092576374,
			"0.008": 1.9937114213,
			"0.009": 2.07101870131,
			"0.01": 2.65777832023,
			"0.011": 3.32363767959,
			"0.012": 3.09462475323,
			"0.013": 0.387640474237,
			"0.014": 0.0,
			"0.015": 0.0,
			"0.016": 0.0,
			"0.017": 0.0,
			"0.018": 0.0,
			"0.019": 0.0,
			"0.02": 0.0,
			"0.021": 0.0,
			"0.022": 0.0,
			"0.023": 0.0,
			"0.024": 0.0,
			"0.025": 0.0
		}
	}
}
