{
	 "smiles": "NS(=O)(=O)C1=CC=C(CN=C=S)C=C1", 
	 "Tm": 433.15, 
	 "num_atms": 22, 
	 "gaussian": { 
		 "optdone": 1, 
		 "sigma_profile": "yes", 
		 "theory": "DFT", 
		 "functional": "B3LYP", 
		 "basiset": "6-31G**", 
		 "properties": { 
			 "R2extent": 6014.0468, 
			 "electric_dipole_moment_norm": 4.95163517537, 
			 "electric_quadrupole_moment_norm": 40.4585996973, 
			 "total_energy": -1365.91700802, 
			 "HOMO_LUMO_gap": 0.20699, 
			 "cosmo_polarized_energy": -22.1, 
			 "cosmo_cavitation_energy": 31.2, 
			 "cosmo_dispersion_energy": -23.52, 
			 "cosmo_repulsion_energy": 1.79, 
			 "cosmo_total_nonelectrostatic_energy": 9.47, 
			 "SMD_solvation_energy": 4.71 
		},
		"coords": [
			{
				"x": -3.8443925152,
				"y": -2.4213919401,
				"z": 1.1841046973,
				"element": "N" 
			},
			{
				"x": -3.7563974299,
				"y": -1.0708462942,
				"z": 0.1877850341,
				"element": "S" 
			},
			{
				"x": -4.2801495324,
				"y": 0.0380615729,
				"z": 0.9822930438,
				"element": "O" 
			},
			{
				"x": -4.3346233369,
				"y": -1.4859585803,
				"z": -1.0887849259,
				"element": "O" 
			},
			{
				"x": -2.0093938354,
				"y": -0.7460817599,
				"z": -0.0989922834,
				"element": "C" 
			},
			{
				"x": -1.308535584,
				"y": 0.0795212508,
				"z": 0.7801808849,
				"element": "C" 
			},
			{
				"x": 0.0509045152,
				"y": 0.3101245514,
				"z": 0.5659903582,
				"element": "C" 
			},
			{
				"x": 0.705083736,
				"y": -0.2747661917,
				"z": -0.5211154009,
				"element": "C" 
			},
			{
				"x": 2.1774635536,
				"y": -0.0310204429,
				"z": -0.8002794963,
				"element": "C" 
			},
			{
				"x": 2.834500375,
				"y": 0.7038183482,
				"z": 0.2406858737,
				"element": "N" 
			},
			{
				"x": 3.8643589527,
				"y": 1.1716201478,
				"z": 0.6326379634,
				"element": "C" 
			},
			{
				"x": 5.1688573237,
				"y": 1.8308060538,
				"z": 1.2532766269,
				"element": "S" 
			},
			{
				"x": -0.0171751162,
				"y": -1.0918169458,
				"z": -1.4013656998,
				"element": "C" 
			},
			{
				"x": -1.3734753043,
				"y": -1.3295826339,
				"z": -1.1983431511,
				"element": "C" 
			},
			{
				"x": -3.4941284712,
				"y": -3.2658949028,
				"z": 0.7436109549,
				"element": "H" 
			},
			{
				"x": -3.4599470383,
				"y": -2.260093132,
				"z": 2.109401273,
				"element": "H" 
			},
			{
				"x": -1.8281461645,
				"y": 0.5526000862,
				"z": 1.6067632363,
				"element": "H" 
			},
			{
				"x": 0.6069213495,
				"y": 0.9520343482,
				"z": 1.2410049188,
				"element": "H" 
			},
			{
				"x": 2.2844200687,
				"y": 0.5221307198,
				"z": -1.7437900118,
				"element": "H" 
			},
			{
				"x": 2.6908819161,
				"y": -0.9923198119,
				"z": -0.9361333153,
				"element": "H" 
			},
			{
				"x": 0.4811847049,
				"y": -1.5401968371,
				"z": -2.2576143361,
				"element": "H" 
			},
			{
				"x": -1.9437121671,
				"y": -1.9403476066,
				"z": -1.8900162446,
				"element": "H" 
			}
		],
		 "valence_orbital": [ 
			{
				"type": "occ",
				"energy": -0.30759,
				"method": "rhf"
			},
			{
				"type": "occ",
				"energy": -0.28381,
				"method": "rhf"
			},
			{
				"type": "occ",
				"energy": -0.27478,
				"method": "rhf"
			},
			{
				"type": "occ",
				"energy": -0.26875,
				"method": "rhf"
			},
			{
				"type": "occ",
				"energy": -0.25751,
				"method": "rhf"
			},
			{
				"type": "unocc",
				"energy": -0.05052,
				"method": "rhf"
			},
			{
				"type": "unocc",
				"energy": -0.03667,
				"method": "rhf"
			},
			{
				"type": "unocc",
				"energy": -0.03385,
				"method": "rhf"
			},
			{
				"type": "unocc",
				"energy": -0.0043,
				"method": "rhf"
			},
			{
				"type": "unocc",
				"energy": 0.04622,
				"method": "rhf"
			}
		],
		"cosmo_sigma_profile": { 
			"-0.025": 0.0,
			"-0.024": 0.0,
			"-0.023": 0.0,
			"-0.022": 0.0,
			"-0.021": 0.0,
			"-0.02": 0.0,
			"-0.019": 0.0,
			"-0.018": 0.0,
			"-0.017": 0.0,
			"-0.016": 0.110773658034,
			"-0.015": 2.3311617521,
			"-0.014": 2.46803458154,
			"-0.013": 2.94092156308,
			"-0.012": 2.60959685912,
			"-0.011": 3.04635572031,
			"-0.01": 2.19960058983,
			"-0.009": 2.61684954305,
			"-0.008": 11.156119609,
			"-0.007": 14.1652714405,
			"-0.006": 13.3989324953,
			"-0.005": 12.4291240797,
			"-0.004": 9.0504968337,
			"-0.003": 8.93953524838,
			"-0.002": 11.4052414128,
			"-0.001": 12.4721471478,
			"0.0": 15.3233966042,
			"0.001": 19.803744664,
			"0.002": 19.2603107782,
			"0.003": 16.3066770551,
			"0.004": 8.72824484288,
			"0.005": 15.1035022823,
			"0.006": 11.1819949739,
			"0.007": 4.12414778378,
			"0.008": 4.41258035026,
			"0.009": 4.35768920835,
			"0.01": 7.48895316377,
			"0.011": 10.4454822291,
			"0.012": 5.48193526147,
			"0.013": 0.178214311344,
			"0.014": 0.0,
			"0.015": 0.0,
			"0.016": 0.0,
			"0.017": 0.0,
			"0.018": 0.0,
			"0.019": 0.0,
			"0.02": 0.0,
			"0.021": 0.0,
			"0.022": 0.0,
			"0.023": 0.0,
			"0.024": 0.0,
			"0.025": 0.0
		}
	}
}
