{
	 "smiles": "CCN(CC)C(=O)C1CN(C)C2CC3=C(Br)NC4=CC=CC(=C34)C2=C1", 
	 "Tm": 397.15, 
	 "num_atms": 49, 
	 "gaussian": { 
		 "optdone": 1, 
		 "sigma_profile": "yes", 
		 "theory": "DFT", 
		 "functional": "B3LYP", 
		 "basiset": "6-31G**", 
		 "properties": { 
			 "R2extent": 16724.7701, 
			 "electric_dipole_moment_norm": 2.47531486684, 
			 "electric_quadrupole_moment_norm": 23.5280577743, 
			 "total_energy": -3587.47864074, 
			 "HOMO_LUMO_gap": 0.16783, 
			 "cosmo_polarized_energy": -17.33, 
			 "cosmo_cavitation_energy": 50.71, 
			 "cosmo_dispersion_energy": -35.52, 
			 "cosmo_repulsion_energy": 2.69, 
			 "cosmo_total_nonelectrostatic_energy": 17.87, 
			 "SMD_solvation_energy": 4.48 
		},
		"coords": [
			{
				"x": -1.8100395509,
				"y": 4.5938775532,
				"z": -0.6998759633,
				"element": "C" 
			},
			{
				"x": -0.6598312412,
				"y": 3.821913239,
				"z": -1.3577798275,
				"element": "C" 
			},
			{
				"x": -1.0730220098,
				"y": 2.6134581349,
				"z": -2.0746194763,
				"element": "N" 
			},
			{
				"x": -1.6063632159,
				"y": 2.7621670034,
				"z": -3.4385558377,
				"element": "C" 
			},
			{
				"x": -3.1325930454,
				"y": 2.6671174006,
				"z": -3.5326090578,
				"element": "C" 
			},
			{
				"x": -1.0223164953,
				"y": 1.3356689637,
				"z": -1.570510921,
				"element": "C" 
			},
			{
				"x": -1.4037001332,
				"y": 0.3759227007,
				"z": -2.2395096814,
				"element": "O" 
			},
			{
				"x": -0.4477670852,
				"y": 1.1130047713,
				"z": -0.1628510737,
				"element": "C" 
			},
			{
				"x": 1.0771893407,
				"y": 0.9310338846,
				"z": -0.2286099506,
				"element": "C" 
			},
			{
				"x": 1.6046482264,
				"y": 0.5996126475,
				"z": 1.0947457256,
				"element": "N" 
			},
			{
				"x": 3.0621795264,
				"y": 0.6855333977,
				"z": 1.0934582426,
				"element": "C" 
			},
			{
				"x": 1.1254506934,
				"y": -0.697343175,
				"z": 1.5988498437,
				"element": "C" 
			},
			{
				"x": 1.3694787526,
				"y": -0.7904792409,
				"z": 3.1392709518,
				"element": "C" 
			},
			{
				"x": 0.7822748728,
				"y": -2.0613019072,
				"z": 3.6686061854,
				"element": "C" 
			},
			{
				"x": 1.015743716,
				"y": -2.8827823302,
				"z": 4.7372334862,
				"element": "C" 
			},
			{
				"x": 2.3117710011,
				"y": -2.754883104,
				"z": 6.0959097877,
				"element": "Br" 
			},
			{
				"x": 0.1147807047,
				"y": -3.9453204208,
				"z": 4.7485283982,
				"element": "N" 
			},
			{
				"x": -0.7280425645,
				"y": -3.8207282364,
				"z": 3.6561815684,
				"element": "C" 
			},
			{
				"x": -1.8046785692,
				"y": -4.571079854,
				"z": 3.1704661303,
				"element": "C" 
			},
			{
				"x": -2.4188914005,
				"y": -4.1053449624,
				"z": 2.0049227881,
				"element": "C" 
			},
			{
				"x": -1.9961493349,
				"y": -2.9430275909,
				"z": 1.3264056774,
				"element": "C" 
			},
			{
				"x": -0.9271418282,
				"y": -2.1859333242,
				"z": 1.8122846859,
				"element": "C" 
			},
			{
				"x": -0.3145651884,
				"y": -2.6561412155,
				"z": 2.9811251618,
				"element": "C" 
			},
			{
				"x": -0.3465996516,
				"y": -0.9534853916,
				"z": 1.2367490294,
				"element": "C" 
			},
			{
				"x": -1.0467933142,
				"y": -0.122578951,
				"z": 0.4517748957,
				"element": "C" 
			},
			{
				"x": -1.4229424136,
				"y": 5.4740311589,
				"z": -0.1750793892,
				"element": "H" 
			},
			{
				"x": -2.5369679584,
				"y": 4.9374418836,
				"z": -1.4413555454,
				"element": "H" 
			},
			{
				"x": -2.3377891303,
				"y": 3.9672353491,
				"z": 0.025879497,
				"element": "H" 
			},
			{
				"x": -0.1436908211,
				"y": 4.471692322,
				"z": -2.0749024896,
				"element": "H" 
			},
			{
				"x": 0.0835427825,
				"y": 3.557528133,
				"z": -0.6042162978,
				"element": "H" 
			},
			{
				"x": -1.1621993193,
				"y": 1.9753373352,
				"z": -4.0544683214,
				"element": "H" 
			},
			{
				"x": -1.2579377019,
				"y": 3.7277763905,
				"z": -3.8195310759,
				"element": "H" 
			},
			{
				"x": -3.6267075605,
				"y": 3.4464352167,
				"z": -2.9444735304,
				"element": "H" 
			},
			{
				"x": -3.4495207523,
				"y": 2.7771814862,
				"z": -4.5754825339,
				"element": "H" 
			},
			{
				"x": -3.466298987,
				"y": 1.690896033,
				"z": -3.1751454369,
				"element": "H" 
			},
			{
				"x": -0.6619017325,
				"y": 1.9735687832,
				"z": 0.483511493,
				"element": "H" 
			},
			{
				"x": 1.3056952605,
				"y": 0.1568313754,
				"z": -0.9847428311,
				"element": "H" 
			},
			{
				"x": 1.5621359397,
				"y": 1.8562513777,
				"z": -0.5591086266,
				"element": "H" 
			},
			{
				"x": 3.4615776911,
				"y": 0.5578015797,
				"z": 2.101677807,
				"element": "H" 
			},
			{
				"x": 3.5411951672,
				"y": -0.0678615898,
				"z": 0.4393650372,
				"element": "H" 
			},
			{
				"x": 3.366376716,
				"y": 1.6775611111,
				"z": 0.7454591226,
				"element": "H" 
			},
			{
				"x": 1.7032703476,
				"y": -1.5243887569,
				"z": 1.1353589017,
				"element": "H" 
			},
			{
				"x": 0.9000818484,
				"y": 0.0860366202,
				"z": 3.6049932604,
				"element": "H" 
			},
			{
				"x": 2.4389433022,
				"y": -0.7347103135,
				"z": 3.3599725708,
				"element": "H" 
			},
			{
				"x": 0.1044451362,
				"y": -4.6724508238,
				"z": 5.4446824117,
				"element": "H" 
			},
			{
				"x": -2.1512964899,
				"y": -5.4744813611,
				"z": 3.6628664066,
				"element": "H" 
			},
			{
				"x": -3.2506418572,
				"y": -4.6711484061,
				"z": 1.5949690232,
				"element": "H" 
			},
			{
				"x": -2.4946352479,
				"y": -2.6567112603,
				"z": 0.4052959349,
				"element": "H" 
			},
			{
				"x": -2.086256425,
				"y": -0.3392336366,
				"z": 0.225283843,
				"element": "H" 
			}
		],
		 "valence_orbital": [ 
			{
				"type": "occ",
				"energy": -0.23966,
				"method": "rhf"
			},
			{
				"type": "occ",
				"energy": -0.2344,
				"method": "rhf"
			},
			{
				"type": "occ",
				"energy": -0.21629,
				"method": "rhf"
			},
			{
				"type": "occ",
				"energy": -0.21369,
				"method": "rhf"
			},
			{
				"type": "occ",
				"energy": -0.19157,
				"method": "rhf"
			},
			{
				"type": "unocc",
				"energy": -0.02374,
				"method": "rhf"
			},
			{
				"type": "unocc",
				"energy": 0.01255,
				"method": "rhf"
			},
			{
				"type": "unocc",
				"energy": 0.01486,
				"method": "rhf"
			},
			{
				"type": "unocc",
				"energy": 0.02706,
				"method": "rhf"
			},
			{
				"type": "unocc",
				"energy": 0.05032,
				"method": "rhf"
			}
		],
		"cosmo_sigma_profile": { 
			"-0.025": 0.0,
			"-0.024": 0.0,
			"-0.023": 0.0,
			"-0.022": 0.0,
			"-0.021": 0.0,
			"-0.02": 0.0,
			"-0.019": 0.0,
			"-0.018": 0.0,
			"-0.017": 0.0,
			"-0.016": 0.55514162389,
			"-0.015": 1.60875541409,
			"-0.014": 0.888680824089,
			"-0.013": 1.28280466333,
			"-0.012": 0.880870529209,
			"-0.011": 1.15017056994,
			"-0.01": 0.861293106123,
			"-0.009": 1.62757432657,
			"-0.008": 1.05169668938,
			"-0.007": 1.79414299223,
			"-0.006": 7.90871336801,
			"-0.005": 21.1543358553,
			"-0.004": 32.2329236345,
			"-0.003": 40.6163939439,
			"-0.002": 49.705907186,
			"-0.001": 44.2481496171,
			"0.0": 36.5187005036,
			"0.001": 30.0011355118,
			"0.002": 24.2393542683,
			"0.003": 26.4442216457,
			"0.004": 27.1443430219,
			"0.005": 14.6029209686,
			"0.006": 10.8670319373,
			"0.007": 4.90932194349,
			"0.008": 2.69477077157,
			"0.009": 2.40157973665,
			"0.01": 1.60737091977,
			"0.011": 1.81869564881,
			"0.012": 2.29686740073,
			"0.013": 2.50229680225,
			"0.014": 4.05134657701,
			"0.015": 2.32768416843,
			"0.016": 0.110285607523,
			"0.017": 0.0,
			"0.018": 0.0,
			"0.019": 0.0,
			"0.02": 0.0,
			"0.021": 0.0,
			"0.022": 0.0,
			"0.023": 0.0,
			"0.024": 0.0,
			"0.025": 0.0
		}
	}
}
