{
	 "smiles": "COC1=CC(OC)=C(C=C1)C1=NOC(CCl)=N1", 
	 "Tm": 351.15, 
	 "num_atms": 28, 
	 "gaussian": { 
		 "optdone": 1, 
		 "sigma_profile": "yes", 
		 "theory": "DFT", 
		 "functional": "B3LYP", 
		 "basiset": "6-31G**", 
		 "properties": { 
			 "R2extent": 7662.0486, 
			 "electric_dipole_moment_norm": 3.5807337586, 
			 "electric_quadrupole_moment_norm": 14.4234748393, 
			 "total_energy": -1221.0993472, 
			 "HOMO_LUMO_gap": 0.16972, 
			 "cosmo_polarized_energy": -13.22, 
			 "cosmo_cavitation_energy": 34.73, 
			 "cosmo_dispersion_energy": -25.34, 
			 "cosmo_repulsion_energy": 1.99, 
			 "cosmo_total_nonelectrostatic_energy": 11.38, 
			 "SMD_solvation_energy": 5.93 
		},
		"coords": [
			{
				"x": -0.7085732693,
				"y": 0.7874502142,
				"z": 4.3881173551,
				"element": "C" 
			},
			{
				"x": -0.7888547273,
				"y": -0.5376472987,
				"z": 3.8811058276,
				"element": "O" 
			},
			{
				"x": -0.68368098,
				"y": -0.725340426,
				"z": 2.5392187512,
				"element": "C" 
			},
			{
				"x": -0.5114059728,
				"y": 0.3027091722,
				"z": 1.607252938,
				"element": "C" 
			},
			{
				"x": -0.4112517692,
				"y": 0.0095518218,
				"z": 0.243457718,
				"element": "C" 
			},
			{
				"x": -0.1773073432,
				"y": 1.053708796,
				"z": -0.6140504008,
				"element": "O" 
			},
			{
				"x": -1.3425587695,
				"y": 1.6731654115,
				"z": -1.165547499,
				"element": "C" 
			},
			{
				"x": -0.4796290212,
				"y": -1.3214169649,
				"z": -0.2139174437,
				"element": "C" 
			},
			{
				"x": -0.6461222313,
				"y": -2.3391667685,
				"z": 0.7476174275,
				"element": "C" 
			},
			{
				"x": -0.7534428908,
				"y": -2.0570073837,
				"z": 2.0975196193,
				"element": "C" 
			},
			{
				"x": -0.3540276985,
				"y": -1.7077686338,
				"z": -1.6223566017,
				"element": "C" 
			},
			{
				"x": -0.3321498691,
				"y": -0.8712586277,
				"z": -2.6433881146,
				"element": "N" 
			},
			{
				"x": -0.2119235312,
				"y": -1.7168319585,
				"z": -3.7602030151,
				"element": "O" 
			},
			{
				"x": -0.1725203656,
				"y": -2.9696870016,
				"z": -3.2861687532,
				"element": "C" 
			},
			{
				"x": -0.044607652,
				"y": -4.092556439,
				"z": -4.251930453,
				"element": "C" 
			},
			{
				"x": 1.6675602918,
				"y": -4.2991857451,
				"z": -4.8241491261,
				"element": "Cl" 
			},
			{
				"x": -0.2592052718,
				"y": -3.041921122,
				"z": -1.9944255712,
				"element": "N" 
			},
			{
				"x": -0.8125799542,
				"y": 0.7012128175,
				"z": 5.4704737677,
				"element": "H" 
			},
			{
				"x": -1.5160085849,
				"y": 1.4184498327,
				"z": 3.9960633672,
				"element": "H" 
			},
			{
				"x": 0.2574340847,
				"y": 1.2509439082,
				"z": 4.152730505,
				"element": "H" 
			},
			{
				"x": -0.429404771,
				"y": 1.3412088833,
				"z": 1.9022279712,
				"element": "H" 
			},
			{
				"x": -1.8963698168,
				"y": 0.9785829627,
				"z": -1.8047495877,
				"element": "H" 
			},
			{
				"x": -0.9848864455,
				"y": 2.5064068899,
				"z": -1.7726028933,
				"element": "H" 
			},
			{
				"x": -1.9974337328,
				"y": 2.0533634679,
				"z": -0.3706772222,
				"element": "H" 
			},
			{
				"x": -0.6852404147,
				"y": -3.3665396252,
				"z": 0.4040757256,
				"element": "H" 
			},
			{
				"x": -0.8812976312,
				"y": -2.845079391,
				"z": 2.83133678,
				"element": "H" 
			},
			{
				"x": -0.6510573537,
				"y": -3.915765473,
				"z": -5.1400734167,
				"element": "H" 
			},
			{
				"x": -0.3377543093,
				"y": -5.0202813192,
				"z": -3.764557655,
				"element": "H" 
			}
		],
		 "valence_orbital": [ 
			{
				"type": "occ",
				"energy": -0.29962,
				"method": "rhf"
			},
			{
				"type": "occ",
				"energy": -0.29277,
				"method": "rhf"
			},
			{
				"type": "occ",
				"energy": -0.26975,
				"method": "rhf"
			},
			{
				"type": "occ",
				"energy": -0.25167,
				"method": "rhf"
			},
			{
				"type": "occ",
				"energy": -0.2226,
				"method": "rhf"
			},
			{
				"type": "unocc",
				"energy": -0.05288,
				"method": "rhf"
			},
			{
				"type": "unocc",
				"energy": -0.0255,
				"method": "rhf"
			},
			{
				"type": "unocc",
				"energy": -0.00562,
				"method": "rhf"
			},
			{
				"type": "unocc",
				"energy": 0.03909,
				"method": "rhf"
			},
			{
				"type": "unocc",
				"energy": 0.07211,
				"method": "rhf"
			}
		],
		"cosmo_sigma_profile": { 
			"-0.025": 0.0,
			"-0.024": 0.0,
			"-0.023": 0.0,
			"-0.022": 0.0,
			"-0.021": 0.0,
			"-0.02": 0.0,
			"-0.019": 0.0,
			"-0.018": 0.0,
			"-0.017": 0.0,
			"-0.016": 0.0,
			"-0.015": 0.0,
			"-0.014": 0.0,
			"-0.013": 0.0,
			"-0.012": 0.0,
			"-0.011": 0.126414737952,
			"-0.01": 3.9727852325,
			"-0.009": 3.55198799099,
			"-0.008": 4.96898857244,
			"-0.007": 7.2069263176,
			"-0.006": 14.7959633075,
			"-0.005": 18.4136446903,
			"-0.004": 22.7020079539,
			"-0.003": 23.5257370893,
			"-0.002": 19.1563762783,
			"-0.001": 16.0148160228,
			"0.0": 17.1940341341,
			"0.001": 16.9759813026,
			"0.002": 21.2545722323,
			"0.003": 23.2273141534,
			"0.004": 16.631991564,
			"0.005": 15.7325616451,
			"0.006": 8.95852238813,
			"0.007": 6.94663819941,
			"0.008": 4.4795668243,
			"0.009": 4.64642669707,
			"0.01": 2.98094063491,
			"0.011": 3.54466291793,
			"0.012": 1.76298149062,
			"0.013": 0.8924338774,
			"0.014": 0.152638452125,
			"0.015": 0.0,
			"0.016": 0.0,
			"0.017": 0.0,
			"0.018": 0.0,
			"0.019": 0.0,
			"0.02": 0.0,
			"0.021": 0.0,
			"0.022": 0.0,
			"0.023": 0.0,
			"0.024": 0.0,
			"0.025": 0.0
		}
	}
}
