{
	 "smiles": "COC1=CC(=CC(OC)=C1OC)C(=O)OCC1=CC=CC(COC(=O)C2=CC(OC)=C(OC)C(OC)=C2)=N1", 
	 "Tm": 392.15, 
	 "num_atms": 67, 
	 "gaussian": { 
		 "optdone": 1, 
		 "sigma_profile": "yes", 
		 "theory": "DFT", 
		 "functional": "B3LYP", 
		 "basiset": "6-31G**", 
		 "properties": { 
			 "R2extent": 33964.9335, 
			 "electric_dipole_moment_norm": 2.67767216253, 
			 "electric_quadrupole_moment_norm": 33.8110783929, 
			 "total_energy": -1853.26963691, 
			 "HOMO_LUMO_gap": 0.17873, 
			 "cosmo_polarized_energy": -20.94, 
			 "cosmo_cavitation_energy": 72.86, 
			 "cosmo_dispersion_energy": -49.43, 
			 "cosmo_repulsion_energy": 3.78, 
			 "cosmo_total_nonelectrostatic_energy": 27.21, 
			 "SMD_solvation_energy": 17.26 
		},
		"coords": [
			{
				"x": -6.2696027462,
				"y": -1.1448708358,
				"z": -5.8740690524,
				"element": "C" 
			},
			{
				"x": -4.875321527,
				"y": -1.0765998237,
				"z": -5.5568667135,
				"element": "O" 
			},
			{
				"x": -4.5694216445,
				"y": -0.9558672099,
				"z": -4.2250926282,
				"element": "C" 
			},
			{
				"x": -3.8787626422,
				"y": -1.9897896313,
				"z": -3.5964468503,
				"element": "C" 
			},
			{
				"x": -3.4748561756,
				"y": -1.85966264,
				"z": -2.2625455677,
				"element": "C" 
			},
			{
				"x": -3.7844375118,
				"y": -0.6985711476,
				"z": -1.542387645,
				"element": "C" 
			},
			{
				"x": -4.4805896538,
				"y": 0.3353138873,
				"z": -2.1640097085,
				"element": "C" 
			},
			{
				"x": -4.7219112161,
				"y": 1.4951216896,
				"z": -1.4639788468,
				"element": "O" 
			},
			{
				"x": -6.0959151348,
				"y": 1.7303064082,
				"z": -1.1331733353,
				"element": "C" 
			},
			{
				"x": -4.8704101896,
				"y": 0.2203292716,
				"z": -3.5119857372,
				"element": "C" 
			},
			{
				"x": -5.5526542514,
				"y": 1.2375889026,
				"z": -4.135029434,
				"element": "O" 
			},
			{
				"x": -4.7281906322,
				"y": 2.3480931604,
				"z": -4.5219003163,
				"element": "C" 
			},
			{
				"x": -2.7288694997,
				"y": -2.9948350856,
				"z": -1.6525089796,
				"element": "C" 
			},
			{
				"x": -2.4411765063,
				"y": -4.0200248021,
				"z": -2.2453043636,
				"element": "O" 
			},
			{
				"x": -2.4082375272,
				"y": -2.7613597653,
				"z": -0.3595390584,
				"element": "O" 
			},
			{
				"x": -1.7144520291,
				"y": -3.8193740616,
				"z": 0.3497665672,
				"element": "C" 
			},
			{
				"x": -0.2132190821,
				"y": -3.6404259004,
				"z": 0.296354877,
				"element": "C" 
			},
			{
				"x": 0.5159626462,
				"y": -3.9415582021,
				"z": -0.8607889007,
				"element": "C" 
			},
			{
				"x": 1.8964364342,
				"y": -3.7543137595,
				"z": -0.8425493946,
				"element": "C" 
			},
			{
				"x": 2.5017614149,
				"y": -3.2819138632,
				"z": 0.3200762433,
				"element": "C" 
			},
			{
				"x": 1.6926847035,
				"y": -3.0086970823,
				"z": 1.4300177348,
				"element": "C" 
			},
			{
				"x": 2.2809580415,
				"y": -2.4965697536,
				"z": 2.7263528097,
				"element": "C" 
			},
			{
				"x": 2.6118428577,
				"y": -1.0870401775,
				"z": 2.6480896401,
				"element": "O" 
			},
			{
				"x": 3.8771257259,
				"y": -0.770131108,
				"z": 2.2930491712,
				"element": "C" 
			},
			{
				"x": 4.7260981361,
				"y": -1.5991179741,
				"z": 2.0096562924,
				"element": "O" 
			},
			{
				"x": 4.1142277566,
				"y": 0.6988193582,
				"z": 2.291710814,
				"element": "C" 
			},
			{
				"x": 3.1103699648,
				"y": 1.6159311653,
				"z": 2.6094707813,
				"element": "C" 
			},
			{
				"x": 3.3963387316,
				"y": 2.9830257685,
				"z": 2.598250646,
				"element": "C" 
			},
			{
				"x": 2.4158621119,
				"y": 3.8624509827,
				"z": 2.982876923,
				"element": "O" 
			},
			{
				"x": 1.9185365073,
				"y": 4.7285936116,
				"z": 1.9571792861,
				"element": "C" 
			},
			{
				"x": 4.6811019842,
				"y": 3.4369956397,
				"z": 2.2603643517,
				"element": "C" 
			},
			{
				"x": 4.9307938469,
				"y": 4.7832262566,
				"z": 2.2160774095,
				"element": "O" 
			},
			{
				"x": 5.7274740065,
				"y": 5.2926866193,
				"z": 3.2924874159,
				"element": "C" 
			},
			{
				"x": 5.6873151658,
				"y": 2.5011653827,
				"z": 1.9257617914,
				"element": "C" 
			},
			{
				"x": 6.9007633523,
				"y": 3.0362131377,
				"z": 1.6062332834,
				"element": "O" 
			},
			{
				"x": 7.9454935981,
				"y": 2.1436741643,
				"z": 1.2442750944,
				"element": "C" 
			},
			{
				"x": 5.4010821501,
				"y": 1.1379607172,
				"z": 1.9445664703,
				"element": "C" 
			},
			{
				"x": 0.3627077259,
				"y": -3.1844342161,
				"z": 1.4188079774,
				"element": "N" 
			},
			{
				"x": -6.7349014157,
				"y": -2.0168062635,
				"z": -5.3967000973,
				"element": "H" 
			},
			{
				"x": -6.327441863,
				"y": -1.2572627459,
				"z": -6.9585796338,
				"element": "H" 
			},
			{
				"x": -6.7935380322,
				"y": -0.2345720322,
				"z": -5.5694359659,
				"element": "H" 
			},
			{
				"x": -3.6366886655,
				"y": -2.8886791428,
				"z": -4.1511171424,
				"element": "H" 
			},
			{
				"x": -3.4812625249,
				"y": -0.5836561391,
				"z": -0.5092553838,
				"element": "H" 
			},
			{
				"x": -6.4832793487,
				"y": 0.9286441723,
				"z": -0.4919301017,
				"element": "H" 
			},
			{
				"x": -6.7140032994,
				"y": 1.811744831,
				"z": -2.0324407187,
				"element": "H" 
			},
			{
				"x": -6.1194445461,
				"y": 2.6732373976,
				"z": -0.5832919686,
				"element": "H" 
			},
			{
				"x": -3.9678886851,
				"y": 2.0293413263,
				"z": -5.2437256807,
				"element": "H" 
			},
			{
				"x": -4.2478095063,
				"y": 2.7988703422,
				"z": -3.6479963094,
				"element": "H" 
			},
			{
				"x": -5.39495781,
				"y": 3.0734736681,
				"z": -4.9920224246,
				"element": "H" 
			},
			{
				"x": -2.0172132018,
				"y": -4.7783202674,
				"z": -0.0762158754,
				"element": "H" 
			},
			{
				"x": -2.0436292094,
				"y": -3.7315726351,
				"z": 1.3849139684,
				"element": "H" 
			},
			{
				"x": -0.000178503,
				"y": -4.3114136629,
				"z": -1.7400139245,
				"element": "H" 
			},
			{
				"x": 2.4940832185,
				"y": -3.9827379521,
				"z": -1.720435611,
				"element": "H" 
			},
			{
				"x": 3.5725998201,
				"y": -3.1227772061,
				"z": 0.3845373727,
				"element": "H" 
			},
			{
				"x": 3.1815238145,
				"y": -3.0498598579,
				"z": 3.0011384968,
				"element": "H" 
			},
			{
				"x": 1.5260670858,
				"y": -2.5679073117,
				"z": 3.5090874119,
				"element": "H" 
			},
			{
				"x": 2.1149638721,
				"y": 1.2880263816,
				"z": 2.8803739862,
				"element": "H" 
			},
			{
				"x": 1.4763731929,
				"y": 4.1473468399,
				"z": 1.1378030461,
				"element": "H" 
			},
			{
				"x": 1.1410406089,
				"y": 5.3357326371,
				"z": 2.4254777762,
				"element": "H" 
			},
			{
				"x": 2.7074145053,
				"y": 5.3765440258,
				"z": 1.565471943,
				"element": "H" 
			},
			{
				"x": 6.7241903804,
				"y": 4.8414701836,
				"z": 3.2925410697,
				"element": "H" 
			},
			{
				"x": 5.2366285961,
				"y": 5.1144741719,
				"z": 4.2565236966,
				"element": "H" 
			},
			{
				"x": 5.8139246022,
				"y": 6.3677193024,
				"z": 3.1231015383,
				"element": "H" 
			},
			{
				"x": 8.809447446,
				"y": 2.7703479928,
				"z": 1.018596795,
				"element": "H" 
			},
			{
				"x": 7.6818361566,
				"y": 1.5557659688,
				"z": 0.3565349189,
				"element": "H" 
			},
			{
				"x": 8.1964788073,
				"y": 1.4600268705,
				"z": 2.0649627583,
				"element": "H" 
			},
			{
				"x": 6.1447556125,
				"y": 0.3916600214,
				"z": 1.6978470118,
				"element": "H" 
			}
		],
		 "valence_orbital": [ 
			{
				"type": "occ",
				"energy": -0.25508,
				"method": "rhf"
			},
			{
				"type": "occ",
				"energy": -0.23895,
				"method": "rhf"
			},
			{
				"type": "occ",
				"energy": -0.23586,
				"method": "rhf"
			},
			{
				"type": "occ",
				"energy": -0.23143,
				"method": "rhf"
			},
			{
				"type": "occ",
				"energy": -0.22299,
				"method": "rhf"
			},
			{
				"type": "unocc",
				"energy": -0.04426,
				"method": "rhf"
			},
			{
				"type": "unocc",
				"energy": -0.04165,
				"method": "rhf"
			},
			{
				"type": "unocc",
				"energy": -0.02568,
				"method": "rhf"
			},
			{
				"type": "unocc",
				"energy": -0.02231,
				"method": "rhf"
			},
			{
				"type": "unocc",
				"energy": -0.00017,
				"method": "rhf"
			}
		],
		"cosmo_sigma_profile": { 
			"-0.025": 0.0,
			"-0.024": 0.0,
			"-0.023": 0.0,
			"-0.022": 0.0,
			"-0.021": 0.0,
			"-0.02": 0.0,
			"-0.019": 0.0,
			"-0.018": 0.0,
			"-0.017": 0.0,
			"-0.016": 0.0,
			"-0.015": 0.0,
			"-0.014": 0.0,
			"-0.013": 0.0,
			"-0.012": 0.0,
			"-0.011": 0.0,
			"-0.01": 0.0,
			"-0.009": 0.0,
			"-0.008": 0.327139626443,
			"-0.007": 3.77589207501,
			"-0.006": 24.7176314886,
			"-0.005": 44.4974563854,
			"-0.004": 55.2230860783,
			"-0.003": 70.7885367863,
			"-0.002": 57.8246700078,
			"-0.001": 44.2215051538,
			"0.0": 40.4974944153,
			"0.001": 49.5737552055,
			"0.002": 50.2644401178,
			"0.003": 33.7550014795,
			"0.004": 21.0716954991,
			"0.005": 17.3436522277,
			"0.006": 12.6974103014,
			"0.007": 9.59916320835,
			"0.008": 8.6808047974,
			"0.009": 8.87888215061,
			"0.01": 9.6007899934,
			"0.011": 11.1082965983,
			"0.012": 4.47150432246,
			"0.013": 0.664292854828,
			"0.014": 0.132390452581,
			"0.015": 0.0,
			"0.016": 0.0,
			"0.017": 0.0,
			"0.018": 0.0,
			"0.019": 0.0,
			"0.02": 0.0,
			"0.021": 0.0,
			"0.022": 0.0,
			"0.023": 0.0,
			"0.024": 0.0,
			"0.025": 0.0
		}
	}
}
