{
	 "smiles": "CC1=NC(=NN1)C1=CC(N)=CC=C1", 
	 "Tm": 330.15, 
	 "num_atms": 23, 
	 "gaussian": { 
		 "optdone": 1, 
		 "sigma_profile": "yes", 
		 "theory": "DFT", 
		 "functional": "B3LYP", 
		 "basiset": "6-31G**", 
		 "properties": { 
			 "R2extent": 3428.0408, 
			 "electric_dipole_moment_norm": 2.95460968319, 
			 "electric_quadrupole_moment_norm": 20.1710136666, 
			 "total_energy": -567.998542046, 
			 "HOMO_LUMO_gap": 0.1774, 
			 "cosmo_polarized_energy": -18.1, 
			 "cosmo_cavitation_energy": 27.33, 
			 "cosmo_dispersion_energy": -20.53, 
			 "cosmo_repulsion_energy": 1.64, 
			 "cosmo_total_nonelectrostatic_energy": 8.44, 
			 "SMD_solvation_energy": 2.34 
		},
		"coords": [
			{
				"x": -3.3341501595,
				"y": 2.3017674836,
				"z": -1.5908171666,
				"element": "C" 
			},
			{
				"x": -2.1081763124,
				"y": 1.5410177985,
				"z": -1.2050445342,
				"element": "C" 
			},
			{
				"x": -1.8757153226,
				"y": 0.2589152754,
				"z": -1.4224768387,
				"element": "N" 
			},
			{
				"x": -0.6291099654,
				"y": 0.0539423192,
				"z": -0.8837068435,
				"element": "C" 
			},
			{
				"x": -0.0822883912,
				"y": 1.1427372774,
				"z": -0.3471415978,
				"element": "N" 
			},
			{
				"x": -1.041186505,
				"y": 2.0791999955,
				"z": -0.5623050241,
				"element": "N" 
			},
			{
				"x": 0.043320996,
				"y": -1.2540558626,
				"z": -0.8978778991,
				"element": "C" 
			},
			{
				"x": 1.3131440077,
				"y": -1.3982582586,
				"z": -0.3258524603,
				"element": "C" 
			},
			{
				"x": 1.9667708821,
				"y": -2.6377484133,
				"z": -0.3347445517,
				"element": "C" 
			},
			{
				"x": 3.2103540297,
				"y": -2.7907210497,
				"z": 0.2888860216,
				"element": "N" 
			},
			{
				"x": 1.3248948236,
				"y": -3.7383757615,
				"z": -0.9302673489,
				"element": "C" 
			},
			{
				"x": 0.0617633382,
				"y": -3.5894926245,
				"z": -1.4983769923,
				"element": "C" 
			},
			{
				"x": -0.5890601566,
				"y": -2.3568336083,
				"z": -1.4895672869,
				"element": "C" 
			},
			{
				"x": -4.0226344043,
				"y": 1.6207934086,
				"z": -2.0921372344,
				"element": "H" 
			},
			{
				"x": -3.8391819996,
				"y": 2.724743256,
				"z": -0.7154526311,
				"element": "H" 
			},
			{
				"x": -3.1002813641,
				"y": 3.1255013367,
				"z": -2.2741951484,
				"element": "H" 
			},
			{
				"x": -0.8940564646,
				"y": 3.0268250217,
				"z": -0.2487800427,
				"element": "H" 
			},
			{
				"x": 1.7888629327,
				"y": -0.5353963123,
				"z": 0.1310269021,
				"element": "H" 
			},
			{
				"x": 3.7473989901,
				"y": -1.9381192659,
				"z": 0.3722484524,
				"element": "H" 
			},
			{
				"x": 3.7733888154,
				"y": -3.5496243654,
				"z": -0.0706422878,
				"element": "H" 
			},
			{
				"x": 1.8193023897,
				"y": -4.7069293803,
				"z": -0.9395418176,
				"element": "H" 
			},
			{
				"x": -0.4196547682,
				"y": -4.4493882586,
				"z": -1.9561637827,
				"element": "H" 
			},
			{
				"x": -1.5710053917,
				"y": -2.2333000115,
				"z": -1.9308698873,
				"element": "H" 
			}
		],
		 "valence_orbital": [ 
			{
				"type": "occ",
				"energy": -0.28439,
				"method": "rhf"
			},
			{
				"type": "occ",
				"energy": -0.26678,
				"method": "rhf"
			},
			{
				"type": "occ",
				"energy": -0.26629,
				"method": "rhf"
			},
			{
				"type": "occ",
				"energy": -0.21763,
				"method": "rhf"
			},
			{
				"type": "occ",
				"energy": -0.19256,
				"method": "rhf"
			},
			{
				"type": "unocc",
				"energy": -0.01516,
				"method": "rhf"
			},
			{
				"type": "unocc",
				"energy": 0.0209,
				"method": "rhf"
			},
			{
				"type": "unocc",
				"energy": 0.02817,
				"method": "rhf"
			},
			{
				"type": "unocc",
				"energy": 0.07466,
				"method": "rhf"
			},
			{
				"type": "unocc",
				"energy": 0.08582,
				"method": "rhf"
			}
		],
		"cosmo_sigma_profile": { 
			"-0.025": 0.0,
			"-0.024": 0.0,
			"-0.023": 0.0,
			"-0.022": 0.0,
			"-0.021": 0.0,
			"-0.02": 0.0,
			"-0.019": 0.0,
			"-0.018": 0.120752569707,
			"-0.017": 1.28935744532,
			"-0.016": 1.62920061906,
			"-0.015": 1.06117204512,
			"-0.014": 0.711400133128,
			"-0.013": 1.25547734266,
			"-0.012": 3.66327421662,
			"-0.011": 3.89772290187,
			"-0.01": 3.34260925706,
			"-0.009": 4.37113326566,
			"-0.008": 4.89017366055,
			"-0.007": 3.71124599273,
			"-0.006": 11.0068905566,
			"-0.005": 12.1570331713,
			"-0.004": 12.7791198826,
			"-0.003": 13.2202484136,
			"-0.002": 14.5186075399,
			"-0.001": 11.6817706115,
			"0.0": 9.21989780995,
			"0.001": 8.35196441797,
			"0.002": 9.82621705235,
			"0.003": 10.5818993707,
			"0.004": 14.6209058933,
			"0.005": 15.0062905297,
			"0.006": 15.002711165,
			"0.007": 8.50889088406,
			"0.008": 3.8820824778,
			"0.009": 2.58094967546,
			"0.01": 3.07942488282,
			"0.011": 3.33147488817,
			"0.012": 2.39808917402,
			"0.013": 3.37740353226,
			"0.014": 1.77978642228,
			"0.015": 0.681357096255,
			"0.016": 0.0,
			"0.017": 0.0,
			"0.018": 0.0,
			"0.019": 0.0,
			"0.02": 0.0,
			"0.021": 0.0,
			"0.022": 0.0,
			"0.023": 0.0,
			"0.024": 0.0,
			"0.025": 0.0
		}
	}
}
