{
	 "smiles": "CCOC(=O)C1=C(O)C(O)=C(O1)C(=O)OCC", 
	 "Tm": 452.15, 
	 "num_atms": 29, 
	 "gaussian": { 
		 "optdone": 1, 
		 "sigma_profile": "yes", 
		 "theory": "DFT", 
		 "functional": "B3LYP", 
		 "basiset": "6-31G**", 
		 "properties": { 
			 "R2extent": 6535.6434, 
			 "electric_dipole_moment_norm": 4.19722750515, 
			 "electric_quadrupole_moment_norm": 15.3110627966, 
			 "total_energy": -914.852970301, 
			 "HOMO_LUMO_gap": 0.17339, 
			 "cosmo_polarized_energy": -19.31, 
			 "cosmo_cavitation_energy": 35.18, 
			 "cosmo_dispersion_energy": -25.22, 
			 "cosmo_repulsion_energy": 2.03, 
			 "cosmo_total_nonelectrostatic_energy": 11.99, 
			 "SMD_solvation_energy": 9.68 
		},
		"coords": [
			{
				"x": 0.5611447072,
				"y": 1.743834088,
				"z": -4.9471862439,
				"element": "C" 
			},
			{
				"x": -0.6399559062,
				"y": 1.0728144163,
				"z": -4.3095396693,
				"element": "C" 
			},
			{
				"x": -0.2186301396,
				"y": 0.5371011428,
				"z": -3.0301991953,
				"element": "O" 
			},
			{
				"x": -1.1939460341,
				"y": -0.1136970891,
				"z": -2.3080099515,
				"element": "C" 
			},
			{
				"x": -2.3349485177,
				"y": -0.2462158915,
				"z": -2.688128789,
				"element": "O" 
			},
			{
				"x": -0.6139792092,
				"y": -0.5869810554,
				"z": -1.0613876346,
				"element": "C" 
			},
			{
				"x": 0.6698282154,
				"y": -0.4681290663,
				"z": -0.5739979797,
				"element": "C" 
			},
			{
				"x": 1.7583977447,
				"y": 0.1193580927,
				"z": -1.1092095964,
				"element": "O" 
			},
			{
				"x": 0.6865194457,
				"y": -1.1148650972,
				"z": 0.6954097124,
				"element": "C" 
			},
			{
				"x": 1.7496837613,
				"y": -1.2291333809,
				"z": 1.5133161272,
				"element": "O" 
			},
			{
				"x": -0.5954436573,
				"y": -1.5873090555,
				"z": 0.8977691035,
				"element": "C" 
			},
			{
				"x": -1.3891180154,
				"y": -1.2670038518,
				"z": -0.170690587,
				"element": "O" 
			},
			{
				"x": -1.1579458619,
				"y": -2.3299010225,
				"z": 2.0286713163,
				"element": "C" 
			},
			{
				"x": -0.506906552,
				"y": -2.6439427552,
				"z": 3.0067410522,
				"element": "O" 
			},
			{
				"x": -2.4629701684,
				"y": -2.6133581666,
				"z": 1.8481184885,
				"element": "O" 
			},
			{
				"x": -3.0931959836,
				"y": -3.3465630158,
				"z": 2.9229593024,
				"element": "C" 
			},
			{
				"x": -4.5422745238,
				"y": -3.5654912876,
				"z": 2.5323620306,
				"element": "C" 
			},
			{
				"x": 0.9342409546,
				"y": 2.5613638453,
				"z": -4.3228008568,
				"element": "H" 
			},
			{
				"x": 0.2774127505,
				"y": 2.1608408261,
				"z": -5.9181792613,
				"element": "H" 
			},
			{
				"x": 1.3730687865,
				"y": 1.0283789712,
				"z": -5.1093857597,
				"element": "H" 
			},
			{
				"x": -1.0257022219,
				"y": 0.2513888661,
				"z": -4.9203549401,
				"element": "H" 
			},
			{
				"x": -1.4617530299,
				"y": 1.7744021115,
				"z": -4.1390322053,
				"element": "H" 
			},
			{
				"x": 1.4898876771,
				"y": 0.4843842679,
				"z": -1.9715003578,
				"element": "H" 
			},
			{
				"x": 2.5015772898,
				"y": -0.7935240192,
				"z": 1.0853484965,
				"element": "H" 
			},
			{
				"x": -2.5576126084,
				"y": -4.2901946764,
				"z": 3.0686792192,
				"element": "H" 
			},
			{
				"x": -2.9975312056,
				"y": -2.7692741536,
				"z": 3.8482318239,
				"element": "H" 
			},
			{
				"x": -5.0590881008,
				"y": -4.1196724347,
				"z": 3.3221802171,
				"element": "H" 
			},
			{
				"x": -5.0559723899,
				"y": -2.6110811927,
				"z": 2.3867886301,
				"element": "H" 
			},
			{
				"x": -4.614087207,
				"y": -4.138929416,
				"z": 1.6039275081,
				"element": "H" 
			}
		],
		 "valence_orbital": [ 
			{
				"type": "occ",
				"energy": -0.29383,
				"method": "rhf"
			},
			{
				"type": "occ",
				"energy": -0.28857,
				"method": "rhf"
			},
			{
				"type": "occ",
				"energy": -0.2704,
				"method": "rhf"
			},
			{
				"type": "occ",
				"energy": -0.24605,
				"method": "rhf"
			},
			{
				"type": "occ",
				"energy": -0.23593,
				"method": "rhf"
			},
			{
				"type": "unocc",
				"energy": -0.06254,
				"method": "rhf"
			},
			{
				"type": "unocc",
				"energy": 0.01095,
				"method": "rhf"
			},
			{
				"type": "unocc",
				"energy": 0.04565,
				"method": "rhf"
			},
			{
				"type": "unocc",
				"energy": 0.08122,
				"method": "rhf"
			},
			{
				"type": "unocc",
				"energy": 0.09672,
				"method": "rhf"
			}
		],
		"cosmo_sigma_profile": { 
			"-0.025": 0.0,
			"-0.024": 0.0,
			"-0.023": 0.0,
			"-0.022": 0.0,
			"-0.021": 0.0,
			"-0.02": 0.0,
			"-0.019": 0.0924205935245,
			"-0.018": 0.630927133914,
			"-0.017": 0.63648453037,
			"-0.016": 0.610375659959,
			"-0.015": 0.591409188757,
			"-0.014": 0.704992550445,
			"-0.013": 0.822118680149,
			"-0.012": 0.936867666013,
			"-0.011": 1.23520795592,
			"-0.01": 2.09015010238,
			"-0.009": 1.65120632288,
			"-0.008": 2.25997523211,
			"-0.007": 2.86171674746,
			"-0.006": 6.0958688814,
			"-0.005": 17.4708907803,
			"-0.004": 33.1648116146,
			"-0.003": 33.6071617664,
			"-0.002": 30.975119736,
			"-0.001": 28.9088187389,
			"0.0": 21.1779019006,
			"0.001": 10.6694020809,
			"0.002": 7.35169441478,
			"0.003": 6.14135735782,
			"0.004": 6.44875379804,
			"0.005": 7.53897777055,
			"0.006": 5.95357205521,
			"0.007": 8.0369492497,
			"0.008": 6.54405850149,
			"0.009": 7.09488568744,
			"0.01": 6.78919285465,
			"0.011": 9.6232659472,
			"0.012": 7.657070909,
			"0.013": 2.13139872463,
			"0.014": 0.114379959554,
			"0.015": 0.0,
			"0.016": 0.0,
			"0.017": 0.0,
			"0.018": 0.0,
			"0.019": 0.0,
			"0.02": 0.0,
			"0.021": 0.0,
			"0.022": 0.0,
			"0.023": 0.0,
			"0.024": 0.0,
			"0.025": 0.0
		}
	}
}
