{
	 "smiles": "CCOC1=C(Cl)C=C(C=C1)C1=NN(C=C1C=O)C1=CC=CC=C1", 
	 "Tm": 374.15, 
	 "num_atms": 38, 
	 "gaussian": { 
		 "optdone": 1, 
		 "sigma_profile": "yes", 
		 "theory": "DFT", 
		 "functional": "B3LYP", 
		 "basiset": "6-31G**", 
		 "properties": { 
			 "R2extent": 11821.4346, 
			 "electric_dipole_moment_norm": 3.34541944156, 
			 "electric_quadrupole_moment_norm": 30.4796491706, 
			 "total_energy": -1415.06886197, 
			 "HOMO_LUMO_gap": 0.17167, 
			 "cosmo_polarized_energy": -14.1, 
			 "cosmo_cavitation_energy": 45.21, 
			 "cosmo_dispersion_energy": -31.89, 
			 "cosmo_repulsion_energy": 2.43, 
			 "cosmo_total_nonelectrostatic_energy": 15.75, 
			 "SMD_solvation_energy": 8.08 
		},
		"coords": [
			{
				"x": -4.7000292323,
				"y": -2.073967403,
				"z": 4.2310772451,
				"element": "C" 
			},
			{
				"x": -3.8681240363,
				"y": -1.7323847574,
				"z": 3.0096413232,
				"element": "C" 
			},
			{
				"x": -2.8235582776,
				"y": -0.8319959375,
				"z": 3.4308837773,
				"element": "O" 
			},
			{
				"x": -1.9538614678,
				"y": -0.4384010888,
				"z": 2.4527281764,
				"element": "C" 
			},
			{
				"x": -0.8147865956,
				"y": -1.1943744407,
				"z": 2.1251881934,
				"element": "C" 
			},
			{
				"x": -0.5096116203,
				"y": -2.708148066,
				"z": 2.956826103,
				"element": "Cl" 
			},
			{
				"x": 0.0922405369,
				"y": -0.7483469377,
				"z": 1.1703910145,
				"element": "C" 
			},
			{
				"x": -0.1170123782,
				"y": 0.47206651,
				"z": 0.50866773,
				"element": "C" 
			},
			{
				"x": -1.2588404386,
				"y": 1.2245467952,
				"z": 0.8243581976,
				"element": "C" 
			},
			{
				"x": -2.159338803,
				"y": 0.7723561196,
				"z": 1.7849391407,
				"element": "C" 
			},
			{
				"x": 0.8515069455,
				"y": 0.9162729968,
				"z": -0.5096538721,
				"element": "C" 
			},
			{
				"x": 1.4693374341,
				"y": 0.0122246264,
				"z": -1.2682474484,
				"element": "N" 
			},
			{
				"x": 2.2930399938,
				"y": 0.7224634133,
				"z": -2.0903202255,
				"element": "N" 
			},
			{
				"x": 2.200340955,
				"y": 2.0541909898,
				"z": -1.8733260581,
				"element": "C" 
			},
			{
				"x": 1.2847270604,
				"y": 2.2412520461,
				"z": -0.8469579158,
				"element": "C" 
			},
			{
				"x": 0.9772007152,
				"y": 3.5402823983,
				"z": -0.2489582961,
				"element": "C" 
			},
			{
				"x": 1.4061120992,
				"y": 4.5992387775,
				"z": -0.6797991252,
				"element": "O" 
			},
			{
				"x": 3.0961942916,
				"y": 0.0401736159,
				"z": -3.0482369942,
				"element": "C" 
			},
			{
				"x": 4.2342193992,
				"y": 0.6571220305,
				"z": -3.5780727947,
				"element": "C" 
			},
			{
				"x": 4.9986068322,
				"y": -0.0167778532,
				"z": -4.5295296194,
				"element": "C" 
			},
			{
				"x": 4.6437492853,
				"y": -1.3025737033,
				"z": -4.9407591776,
				"element": "C" 
			},
			{
				"x": 3.5144416752,
				"y": -1.9147364289,
				"z": -4.3927928031,
				"element": "C" 
			},
			{
				"x": 2.7340814283,
				"y": -1.2496566325,
				"z": -3.4492844091,
				"element": "C" 
			},
			{
				"x": -4.0834071823,
				"y": -2.5652662739,
				"z": 4.9886493053,
				"element": "H" 
			},
			{
				"x": -5.1313847901,
				"y": -1.1697739473,
				"z": 4.669951147,
				"element": "H" 
			},
			{
				"x": -5.5152115201,
				"y": -2.7493412987,
				"z": 3.9532432138,
				"element": "H" 
			},
			{
				"x": -3.4230803469,
				"y": -2.6338691453,
				"z": 2.5706782041,
				"element": "H" 
			},
			{
				"x": -4.4768115926,
				"y": -1.2414118859,
				"z": 2.2373501604,
				"element": "H" 
			},
			{
				"x": 0.969260933,
				"y": -1.3405096342,
				"z": 0.9378237459,
				"element": "H" 
			},
			{
				"x": -1.4627068417,
				"y": 2.1505839832,
				"z": 0.2976770363,
				"element": "H" 
			},
			{
				"x": -3.0413280588,
				"y": 1.351335648,
				"z": 2.0394580629,
				"element": "H" 
			},
			{
				"x": 2.7578978044,
				"y": 2.7868867356,
				"z": -2.4347309233,
				"element": "H" 
			},
			{
				"x": 0.3335127656,
				"y": 3.5146290196,
				"z": 0.6530791132,
				"element": "H" 
			},
			{
				"x": 4.5365335797,
				"y": 1.6423010521,
				"z": -3.2397188307,
				"element": "H" 
			},
			{
				"x": 5.8819695699,
				"y": 0.4637980392,
				"z": -4.9388391317,
				"element": "H" 
			},
			{
				"x": 5.2455349067,
				"y": -1.8249693563,
				"z": -5.6779465168,
				"element": "H" 
			},
			{
				"x": 3.2324840028,
				"y": -2.9160288708,
				"z": -4.7041980177,
				"element": "H" 
			},
			{
				"x": 1.8540009683,
				"y": -1.708691136,
				"z": -3.0165387303,
				"element": "H" 
			}
		],
		 "valence_orbital": [ 
			{
				"type": "occ",
				"energy": -0.26827,
				"method": "rhf"
			},
			{
				"type": "occ",
				"energy": -0.25767,
				"method": "rhf"
			},
			{
				"type": "occ",
				"energy": -0.25482,
				"method": "rhf"
			},
			{
				"type": "occ",
				"energy": -0.24736,
				"method": "rhf"
			},
			{
				"type": "occ",
				"energy": -0.22904,
				"method": "rhf"
			},
			{
				"type": "unocc",
				"energy": -0.05737,
				"method": "rhf"
			},
			{
				"type": "unocc",
				"energy": -0.04318,
				"method": "rhf"
			},
			{
				"type": "unocc",
				"energy": -0.01902,
				"method": "rhf"
			},
			{
				"type": "unocc",
				"energy": -0.01834,
				"method": "rhf"
			},
			{
				"type": "unocc",
				"energy": -0.00367,
				"method": "rhf"
			}
		],
		"cosmo_sigma_profile": { 
			"-0.025": 0.0,
			"-0.024": 0.0,
			"-0.023": 0.0,
			"-0.022": 0.0,
			"-0.021": 0.0,
			"-0.02": 0.0,
			"-0.019": 0.0,
			"-0.018": 0.0,
			"-0.017": 0.0,
			"-0.016": 0.0,
			"-0.015": 0.0,
			"-0.014": 0.0,
			"-0.013": 0.0,
			"-0.012": 0.0,
			"-0.011": 1.03009618985,
			"-0.01": 2.2383763547,
			"-0.009": 1.90820563283,
			"-0.008": 4.39169376877,
			"-0.007": 7.80263789878,
			"-0.006": 17.7365720828,
			"-0.005": 20.4072524722,
			"-0.004": 27.7445162028,
			"-0.003": 29.6861280038,
			"-0.002": 29.8973496011,
			"-0.001": 28.2396205224,
			"0.0": 33.1382301306,
			"0.001": 32.8910338958,
			"0.002": 30.507001437,
			"0.003": 27.9791516039,
			"0.004": 24.2110141357,
			"0.005": 11.0918543719,
			"0.006": 5.49955826431,
			"0.007": 5.21317861253,
			"0.008": 4.16375266812,
			"0.009": 4.45579039103,
			"0.01": 3.725909742,
			"0.011": 5.11211087915,
			"0.012": 4.09421390207,
			"0.013": 1.47003153041,
			"0.014": 0.145057391421,
			"0.015": 0.0,
			"0.016": 0.0,
			"0.017": 0.0,
			"0.018": 0.0,
			"0.019": 0.0,
			"0.02": 0.0,
			"0.021": 0.0,
			"0.022": 0.0,
			"0.023": 0.0,
			"0.024": 0.0,
			"0.025": 0.0
		}
	}
}
