{
	 "smiles": "COC1=C(SC(=C1)C(O)=O)S(N)(=O)=O", 
	 "Tm": 528.15, 
	 "num_atms": 21, 
	 "gaussian": { 
		 "optdone": 1, 
		 "sigma_profile": "yes", 
		 "theory": "DFT", 
		 "functional": "B3LYP", 
		 "basiset": "6-31G**", 
		 "properties": { 
			 "R2extent": 4139.5497, 
			 "electric_dipole_moment_norm": 2.55348360872, 
			 "electric_quadrupole_moment_norm": 29.7318348519, 
			 "total_energy": -1459.9916102, 
			 "HOMO_LUMO_gap": 0.17703, 
			 "cosmo_polarized_energy": -28.26, 
			 "cosmo_cavitation_energy": 29.15, 
			 "cosmo_dispersion_energy": -21.95, 
			 "cosmo_repulsion_energy": 1.65, 
			 "cosmo_total_nonelectrostatic_energy": 8.85, 
			 "SMD_solvation_energy": 6.63 
		},
		"coords": [
			{
				"x": 1.3472075383,
				"y": -0.9275175651,
				"z": -2.2143228795,
				"element": "C" 
			},
			{
				"x": 0.2932115767,
				"y": -1.3263289434,
				"z": -1.3157799676,
				"element": "O" 
			},
			{
				"x": -0.6050007408,
				"y": -0.3611618817,
				"z": -0.9954793939,
				"element": "C" 
			},
			{
				"x": -0.5071999927,
				"y": 0.4708783937,
				"z": 0.1044464098,
				"element": "C" 
			},
			{
				"x": -1.8797977818,
				"y": 1.5197597901,
				"z": 0.2598071823,
				"element": "S" 
			},
			{
				"x": -2.6016061778,
				"y": 0.8360482433,
				"z": -1.1686961416,
				"element": "C" 
			},
			{
				"x": -1.8086511027,
				"y": -0.1389226258,
				"z": -1.726770629,
				"element": "C" 
			},
			{
				"x": -3.9066966662,
				"y": 1.3975607436,
				"z": -1.5908495537,
				"element": "C" 
			},
			{
				"x": -4.5464368157,
				"y": 0.7637196829,
				"z": -2.6029869819,
				"element": "O" 
			},
			{
				"x": -4.3905077244,
				"y": 2.3759063794,
				"z": -1.069471646,
				"element": "O" 
			},
			{
				"x": 0.825213372,
				"y": 0.4434908177,
				"z": 1.299089208,
				"element": "S" 
			},
			{
				"x": 0.5854269125,
				"y": 1.7880373987,
				"z": 2.2477239299,
				"element": "N" 
			},
			{
				"x": 2.0617634725,
				"y": 0.6707714757,
				"z": 0.5547314273,
				"element": "O" 
			},
			{
				"x": 0.6393392456,
				"y": -0.7090681374,
				"z": 2.171406854,
				"element": "O" 
			},
			{
				"x": 1.9332669611,
				"y": -1.8282349195,
				"z": -2.3994517466,
				"element": "H" 
			},
			{
				"x": 1.9751139994,
				"y": -0.1634865062,
				"z": -1.7494263475,
				"element": "H" 
			},
			{
				"x": 0.9327953678,
				"y": -0.5585112587,
				"z": -3.1604932618,
				"element": "H" 
			},
			{
				"x": -2.0379117187,
				"y": -0.6985119182,
				"z": -2.6279158241,
				"element": "H" 
			},
			{
				"x": -4.095132114,
				"y": -0.0577084155,
				"z": -2.8419824521,
				"element": "H" 
			},
			{
				"x": -0.1657873264,
				"y": 1.7232862743,
				"z": 2.9239773359,
				"element": "H" 
			},
			{
				"x": 0.7102897156,
				"y": 2.685492972,
				"z": 1.7951444785,
				"element": "H" 
			}
		],
		 "valence_orbital": [ 
			{
				"type": "occ",
				"energy": -0.32078,
				"method": "rhf"
			},
			{
				"type": "occ",
				"energy": -0.3025,
				"method": "rhf"
			},
			{
				"type": "occ",
				"energy": -0.29397,
				"method": "rhf"
			},
			{
				"type": "occ",
				"energy": -0.28821,
				"method": "rhf"
			},
			{
				"type": "occ",
				"energy": -0.26437,
				"method": "rhf"
			},
			{
				"type": "unocc",
				"energy": -0.08734,
				"method": "rhf"
			},
			{
				"type": "unocc",
				"energy": -0.01065,
				"method": "rhf"
			},
			{
				"type": "unocc",
				"energy": -0.00319,
				"method": "rhf"
			},
			{
				"type": "unocc",
				"energy": 0.02578,
				"method": "rhf"
			},
			{
				"type": "unocc",
				"energy": 0.03333,
				"method": "rhf"
			}
		],
		"cosmo_sigma_profile": { 
			"-0.025": 0.0,
			"-0.024": 0.0,
			"-0.023": 0.0,
			"-0.022": 0.0,
			"-0.021": 0.0,
			"-0.02": 0.528697156254,
			"-0.019": 1.1705003796,
			"-0.018": 1.00292764788,
			"-0.017": 1.43999473367,
			"-0.016": 2.69335360961,
			"-0.015": 3.85245045126,
			"-0.014": 4.19939031212,
			"-0.013": 3.39597938026,
			"-0.012": 4.46166161519,
			"-0.011": 3.95224311607,
			"-0.01": 3.59880816512,
			"-0.009": 3.53020221267,
			"-0.008": 3.40944309533,
			"-0.007": 4.27337072514,
			"-0.006": 7.92542828789,
			"-0.005": 8.84076124099,
			"-0.004": 13.4781594835,
			"-0.003": 13.6033114389,
			"-0.002": 10.9965511113,
			"-0.001": 15.5845996781,
			"0.0": 15.3119773738,
			"0.001": 10.1653819098,
			"0.002": 7.22695580469,
			"0.003": 6.5286267691,
			"0.004": 7.29858374046,
			"0.005": 8.37487474554,
			"0.006": 8.0354139705,
			"0.007": 9.19246349714,
			"0.008": 9.34699341919,
			"0.009": 11.1500955867,
			"0.01": 16.3427743745,
			"0.011": 11.4921397594,
			"0.012": 2.03346897087,
			"0.013": 0.201542641374,
			"0.014": 0.0,
			"0.015": 0.0,
			"0.016": 0.0,
			"0.017": 0.0,
			"0.018": 0.0,
			"0.019": 0.0,
			"0.02": 0.0,
			"0.021": 0.0,
			"0.022": 0.0,
			"0.023": 0.0,
			"0.024": 0.0,
			"0.025": 0.0
		}
	}
}
