{
	 "smiles": "CC(C)CCN", 
	 "Tm": 213.15, 
	 "num_atms": 19, 
	 "gaussian": { 
		 "optdone": 1, 
		 "sigma_profile": "yes", 
		 "theory": "DFT", 
		 "functional": "B3LYP", 
		 "basiset": "6-31G**", 
		 "properties": { 
			 "R2extent": 942.8931, 
			 "electric_dipole_moment_norm": 1.52364654038, 
			 "electric_quadrupole_moment_norm": 6.2643673256, 
			 "total_energy": -253.123762584, 
			 "HOMO_LUMO_gap": 0.29302, 
			 "cosmo_polarized_energy": -4.87, 
			 "cosmo_cavitation_energy": 19.88, 
			 "cosmo_dispersion_energy": -14.58, 
			 "cosmo_repulsion_energy": 1.26, 
			 "cosmo_total_nonelectrostatic_energy": 6.56, 
			 "SMD_solvation_energy": 1.95 
		},
		"coords": [
			{
				"x": -0.1967715151,
				"y": -1.7407330169,
				"z": -1.2000149767,
				"element": "C" 
			},
			{
				"x": 0.8783993952,
				"y": -1.2854887095,
				"z": -0.2002020959,
				"element": "C" 
			},
			{
				"x": 2.2618908389,
				"y": -1.2459902459,
				"z": -0.8709285442,
				"element": "C" 
			},
			{
				"x": 0.4843001536,
				"y": 0.0225750112,
				"z": 0.527085135,
				"element": "C" 
			},
			{
				"x": 0.3621093366,
				"y": 1.3184432486,
				"z": -0.3056400523,
				"element": "C" 
			},
			{
				"x": 1.5974295747,
				"y": 2.0253599709,
				"z": -0.6617181542,
				"element": "N" 
			},
			{
				"x": -0.2959347793,
				"y": -1.0388257483,
				"z": -2.0358870535,
				"element": "H" 
			},
			{
				"x": 0.0538790817,
				"y": -2.7185672189,
				"z": -1.6257202326,
				"element": "H" 
			},
			{
				"x": -1.1777155719,
				"y": -1.8268564825,
				"z": -0.7197534732,
				"element": "H" 
			},
			{
				"x": 0.9306664299,
				"y": -2.0533870645,
				"z": 0.585531433,
				"element": "H" 
			},
			{
				"x": 2.562034172,
				"y": -2.2492130656,
				"z": -1.1935424484,
				"element": "H" 
			},
			{
				"x": 3.0338804053,
				"y": -0.8707980133,
				"z": -0.1902163286,
				"element": "H" 
			},
			{
				"x": 2.2625532847,
				"y": -0.614215805,
				"z": -1.7668853293,
				"element": "H" 
			},
			{
				"x": -0.4837928113,
				"y": -0.1564956397,
				"z": 1.01659653,
				"element": "H" 
			},
			{
				"x": 1.2004871312,
				"y": 0.2072241831,
				"z": 1.3414366126,
				"element": "H" 
			},
			{
				"x": -0.1890235746,
				"y": 1.1229353942,
				"z": -1.2335052947,
				"element": "H" 
			},
			{
				"x": -0.257651058,
				"y": 2.0252631927,
				"z": 0.2602090823,
				"element": "H" 
			},
			{
				"x": 2.1859870723,
				"y": 1.4417491622,
				"z": -1.2480020185,
				"element": "H" 
			},
			{
				"x": 2.1376724341,
				"y": 2.2156208472,
				"z": 0.1797572091,
				"element": "H" 
			}
		],
		 "valence_orbital": [ 
			{
				"type": "occ",
				"energy": -0.35328,
				"method": "rhf"
			},
			{
				"type": "occ",
				"energy": -0.3283,
				"method": "rhf"
			},
			{
				"type": "occ",
				"energy": -0.31882,
				"method": "rhf"
			},
			{
				"type": "occ",
				"energy": -0.31084,
				"method": "rhf"
			},
			{
				"type": "occ",
				"energy": -0.22403,
				"method": "rhf"
			},
			{
				"type": "unocc",
				"energy": 0.06899,
				"method": "rhf"
			},
			{
				"type": "unocc",
				"energy": 0.10612,
				"method": "rhf"
			},
			{
				"type": "unocc",
				"energy": 0.11531,
				"method": "rhf"
			},
			{
				"type": "unocc",
				"energy": 0.13208,
				"method": "rhf"
			},
			{
				"type": "unocc",
				"energy": 0.14288,
				"method": "rhf"
			}
		],
		"cosmo_sigma_profile": { 
			"-0.025": 0.0,
			"-0.024": 0.0,
			"-0.023": 0.0,
			"-0.022": 0.0,
			"-0.021": 0.0,
			"-0.02": 0.0,
			"-0.019": 0.0,
			"-0.018": 0.0,
			"-0.017": 0.0,
			"-0.016": 0.0,
			"-0.015": 0.0,
			"-0.014": 0.0,
			"-0.013": 0.0,
			"-0.012": 0.0,
			"-0.011": 0.0,
			"-0.01": 0.0,
			"-0.009": 0.685381772717,
			"-0.008": 1.83305990973,
			"-0.007": 2.57700128661,
			"-0.006": 2.89129918177,
			"-0.005": 3.93370430496,
			"-0.004": 3.93383342722,
			"-0.003": 8.96469106509,
			"-0.002": 24.9459960641,
			"-0.001": 27.1651937206,
			"0.0": 27.0814085185,
			"0.001": 21.8902001549,
			"0.002": 12.0949135971,
			"0.003": 1.5906533993,
			"0.004": 0.865966249242,
			"0.005": 0.954395236786,
			"0.006": 1.08087448554,
			"0.007": 0.6468226043,
			"0.008": 0.806055377835,
			"0.009": 0.727528218306,
			"0.01": 0.820372284768,
			"0.011": 0.612643913276,
			"0.012": 0.461036068871,
			"0.013": 0.69522042542,
			"0.014": 0.842849521267,
			"0.015": 0.54721003099,
			"0.016": 0.483516439642,
			"0.017": 0.837758183889,
			"0.018": 0.833913804397,
			"0.019": 0.597677143725,
			"0.02": 0.479657970746,
			"0.021": 0.20028127738,
			"0.022": 0.0,
			"0.023": 0.0,
			"0.024": 0.0,
			"0.025": 0.0
		}
	}
}
