{
	 "smiles": "OC(=O)C1=C(F)C(Cl)=C(F)C(=C1)S(Cl)(=O)=O", 
	 "Tm": 465.15, 
	 "num_atms": 18, 
	 "gaussian": { 
		 "optdone": 1, 
		 "sigma_profile": "yes", 
		 "theory": "DFT", 
		 "functional": "B3LYP", 
		 "basiset": "6-31G**", 
		 "properties": { 
			 "R2extent": 5446.3734, 
			 "electric_dipole_moment_norm": 1.49988835918, 
			 "electric_quadrupole_moment_norm": 18.2744096033, 
			 "total_energy": -2086.99551077, 
			 "HOMO_LUMO_gap": 0.18888, 
			 "cosmo_polarized_energy": -18.09, 
			 "cosmo_cavitation_energy": 30.17, 
			 "cosmo_dispersion_energy": -22.19, 
			 "cosmo_repulsion_energy": 1.67, 
			 "cosmo_total_nonelectrostatic_energy": 9.65, 
			 "SMD_solvation_energy": 5.68 
		},
		"coords": [
			{
				"x": 0.7809282808,
				"y": 2.9756821571,
				"z": 0.946411503,
				"element": "O" 
			},
			{
				"x": 1.1742812831,
				"y": 1.9348940573,
				"z": 1.7224638044,
				"element": "C" 
			},
			{
				"x": 2.0371993374,
				"y": 2.067985916,
				"z": 2.5498684087,
				"element": "O" 
			},
			{
				"x": 0.4924953392,
				"y": 0.6211020333,
				"z": 1.4406277677,
				"element": "C" 
			},
			{
				"x": 0.2589973753,
				"y": -0.2919066859,
				"z": 2.4806246926,
				"element": "C" 
			},
			{
				"x": 0.5579394336,
				"y": 0.0312348388,
				"z": 3.7295608028,
				"element": "F" 
			},
			{
				"x": -0.315676972,
				"y": -1.5465541457,
				"z": 2.2455344295,
				"element": "C" 
			},
			{
				"x": -0.6093479758,
				"y": -2.6416513159,
				"z": 3.5475886652,
				"element": "Cl" 
			},
			{
				"x": -0.6498801833,
				"y": -1.8980097034,
				"z": 0.935804617,
				"element": "C" 
			},
			{
				"x": -1.1769371484,
				"y": -3.0910912715,
				"z": 0.6987601205,
				"element": "F" 
			},
			{
				"x": -0.4175089944,
				"y": -1.0038646688,
				"z": -0.112480196,
				"element": "C" 
			},
			{
				"x": 0.1496826466,
				"y": 0.2436701251,
				"z": 0.1396086199,
				"element": "C" 
			},
			{
				"x": -0.8867467544,
				"y": -1.4012367928,
				"z": -1.7938646768,
				"element": "S" 
			},
			{
				"x": 0.5237129693,
				"y": -2.8950577243,
				"z": -2.2761467224,
				"element": "Cl" 
			},
			{
				"x": -2.1973250972,
				"y": -2.0299000046,
				"z": -1.8036804882,
				"element": "O" 
			},
			{
				"x": -0.5727680047,
				"y": -0.241205342,
				"z": -2.6182751856,
				"element": "O" 
			},
			{
				"x": -0.0285946832,
				"y": 2.7636593142,
				"z": 0.4602253989,
				"element": "H" 
			},
			{
				"x": 0.3456491479,
				"y": 0.9003492131,
				"z": -0.7012315613,
				"element": "H" 
			}
		],
		 "valence_orbital": [ 
			{
				"type": "occ",
				"energy": -0.34631,
				"method": "rhf"
			},
			{
				"type": "occ",
				"energy": -0.33509,
				"method": "rhf"
			},
			{
				"type": "occ",
				"energy": -0.31458,
				"method": "rhf"
			},
			{
				"type": "occ",
				"energy": -0.30286,
				"method": "rhf"
			},
			{
				"type": "occ",
				"energy": -0.29962,
				"method": "rhf"
			},
			{
				"type": "unocc",
				"energy": -0.11074,
				"method": "rhf"
			},
			{
				"type": "unocc",
				"energy": -0.08915,
				"method": "rhf"
			},
			{
				"type": "unocc",
				"energy": -0.0781,
				"method": "rhf"
			},
			{
				"type": "unocc",
				"energy": -0.02745,
				"method": "rhf"
			},
			{
				"type": "unocc",
				"energy": -0.00829,
				"method": "rhf"
			}
		],
		"cosmo_sigma_profile": { 
			"-0.025": 0.0,
			"-0.024": 0.0,
			"-0.023": 0.0,
			"-0.022": 0.0,
			"-0.021": 0.0107109974785,
			"-0.02": 0.787531544292,
			"-0.019": 1.01500948415,
			"-0.018": 1.08011068188,
			"-0.017": 1.70414060261,
			"-0.016": 0.982419557944,
			"-0.015": 0.963669158182,
			"-0.014": 0.772051182001,
			"-0.013": 1.38012094171,
			"-0.012": 1.41804819124,
			"-0.011": 1.41663491549,
			"-0.01": 1.53457719484,
			"-0.009": 2.50497247913,
			"-0.008": 3.65272007517,
			"-0.007": 5.88159626565,
			"-0.006": 12.7878802976,
			"-0.005": 15.821027383,
			"-0.004": 12.7106997513,
			"-0.003": 11.7809899241,
			"-0.002": 12.0358361537,
			"-0.001": 11.4115819259,
			"0.0": 15.4032741505,
			"0.001": 27.2538351922,
			"0.002": 34.6245274769,
			"0.003": 11.8886654569,
			"0.004": 6.48000431924,
			"0.005": 5.64715399033,
			"0.006": 7.87325283838,
			"0.007": 12.3360015587,
			"0.008": 10.3583740331,
			"0.009": 5.70643099701,
			"0.01": 5.23330520015,
			"0.011": 3.83647939564,
			"0.012": 0.803476323573,
			"0.013": 0.0,
			"0.014": 0.0,
			"0.015": 0.0,
			"0.016": 0.0,
			"0.017": 0.0,
			"0.018": 0.0,
			"0.019": 0.0,
			"0.02": 0.0,
			"0.021": 0.0,
			"0.022": 0.0,
			"0.023": 0.0,
			"0.024": 0.0,
			"0.025": 0.0
		}
	}
}
