{
	 "smiles": "CC1OC(OC2=CC=C(C=C2)[N+]([O-])=O)C(O)C(O)C1O", 
	 "Tm": 465.15, 
	 "num_atms": 35, 
	 "gaussian": { 
		 "optdone": 1, 
		 "sigma_profile": "yes", 
		 "theory": "DFT", 
		 "functional": "B3LYP", 
		 "basiset": "6-31G**", 
		 "properties": { 
			 "R2extent": 7688.2617, 
			 "electric_dipole_moment_norm": 5.65473014122, 
			 "electric_quadrupole_moment_norm": 17.4502766886, 
			 "total_energy": -1047.51150071, 
			 "HOMO_LUMO_gap": 0.17552, 
			 "cosmo_polarized_energy": -18.6, 
			 "cosmo_cavitation_energy": 37.4, 
			 "cosmo_dispersion_energy": -26.72, 
			 "cosmo_repulsion_energy": 2.03, 
			 "cosmo_total_nonelectrostatic_energy": 12.71, 
			 "SMD_solvation_energy": 8.18 
		},
		"coords": [
			{
				"x": -2.4130597041,
				"y": -0.362417127,
				"z": -2.1917179011,
				"element": "C" 
			},
			{
				"x": -1.7832617637,
				"y": 1.0158614017,
				"z": -2.0651748288,
				"element": "C" 
			},
			{
				"x": -1.2546610785,
				"y": 1.1044770791,
				"z": -0.7149200139,
				"element": "O" 
			},
			{
				"x": -0.2037743572,
				"y": 1.9952745807,
				"z": -0.4700860996,
				"element": "C" 
			},
			{
				"x": 1.0773781764,
				"y": 1.326536943,
				"z": -0.5880495936,
				"element": "O" 
			},
			{
				"x": 1.5346923678,
				"y": 0.5901413278,
				"z": 0.4767136128,
				"element": "C" 
			},
			{
				"x": 2.9237036672,
				"y": 0.410208064,
				"z": 0.5461372294,
				"element": "C" 
			},
			{
				"x": 3.4756910375,
				"y": -0.3343441329,
				"z": 1.5786261222,
				"element": "C" 
			},
			{
				"x": 2.6281249294,
				"y": -0.8895711092,
				"z": 2.5391066298,
				"element": "C" 
			},
			{
				"x": 1.2462376495,
				"y": -0.7229991104,
				"z": 2.4788308542,
				"element": "C" 
			},
			{
				"x": 0.6907215943,
				"y": 0.0151160351,
				"z": 1.4377685075,
				"element": "C" 
			},
			{
				"x": 3.2064204346,
				"y": -1.6730780325,
				"z": 3.6347246108,
				"element": "N" 
			},
			{
				"x": 4.4300935028,
				"y": -1.8110813468,
				"z": 3.654850137,
				"element": "O" 
			},
			{
				"x": 2.4346286361,
				"y": -2.1465772862,
				"z": 4.4696209411,
				"element": "O" 
			},
			{
				"x": -0.1966142249,
				"y": 3.1881878674,
				"z": -1.4359701604,
				"element": "C" 
			},
			{
				"x": 0.8342390975,
				"y": 4.0873106012,
				"z": -1.1355590921,
				"element": "O" 
			},
			{
				"x": -0.1397590588,
				"y": 2.7383268573,
				"z": -2.9288330056,
				"element": "C" 
			},
			{
				"x": 1.1909361485,
				"y": 2.8154293641,
				"z": -3.4084780274,
				"element": "O" 
			},
			{
				"x": -0.7040210904,
				"y": 1.3000511997,
				"z": -3.1170312616,
				"element": "C" 
			},
			{
				"x": 0.3522813944,
				"y": 0.3436349654,
				"z": -3.1000798105,
				"element": "O" 
			},
			{
				"x": -1.6431033386,
				"y": -1.1366180091,
				"z": -2.163441798,
				"element": "H" 
			},
			{
				"x": -2.9553938643,
				"y": -0.4453724286,
				"z": -3.1385355995,
				"element": "H" 
			},
			{
				"x": -3.116883616,
				"y": -0.5300351469,
				"z": -1.3726901942,
				"element": "H" 
			},
			{
				"x": -2.561106274,
				"y": 1.7872386134,
				"z": -2.1760530198,
				"element": "H" 
			},
			{
				"x": -0.295713824,
				"y": 2.3382398089,
				"z": 0.5643898775,
				"element": "H" 
			},
			{
				"x": 3.5501108612,
				"y": 0.8717959862,
				"z": -0.2092731818,
				"element": "H" 
			},
			{
				"x": 4.5446448074,
				"y": -0.485185626,
				"z": 1.6610670443,
				"element": "H" 
			},
			{
				"x": 0.623562712,
				"y": -1.1818123484,
				"z": 3.2366415671,
				"element": "H" 
			},
			{
				"x": -0.3843462584,
				"y": 0.1153305852,
				"z": 1.3537760464,
				"element": "H" 
			},
			{
				"x": -1.1556236344,
				"y": 3.6959783664,
				"z": -1.2662086895,
				"element": "H" 
			},
			{
				"x": 1.5501735826,
				"y": 3.853397761,
				"z": -1.7526957748,
				"element": "H" 
			},
			{
				"x": -0.7434651056,
				"y": 3.4429091206,
				"z": -3.5124324433,
				"element": "H" 
			},
			{
				"x": 1.4902222659,
				"y": 1.8904671924,
				"z": -3.4776135878,
				"element": "H" 
			},
			{
				"x": -1.1537586297,
				"y": 1.2123474289,
				"z": -4.1107703154,
				"element": "H" 
			},
			{
				"x": 0.6935829575,
				"y": 0.3056305546,
				"z": -2.1888387812,
				"element": "H" 
			}
		],
		 "valence_orbital": [ 
			{
				"type": "occ",
				"energy": -0.29369,
				"method": "rhf"
			},
			{
				"type": "occ",
				"energy": -0.28819,
				"method": "rhf"
			},
			{
				"type": "occ",
				"energy": -0.28382,
				"method": "rhf"
			},
			{
				"type": "occ",
				"energy": -0.27149,
				"method": "rhf"
			},
			{
				"type": "occ",
				"energy": -0.2616,
				"method": "rhf"
			},
			{
				"type": "unocc",
				"energy": -0.08608,
				"method": "rhf"
			},
			{
				"type": "unocc",
				"energy": -0.03286,
				"method": "rhf"
			},
			{
				"type": "unocc",
				"energy": 0.00424,
				"method": "rhf"
			},
			{
				"type": "unocc",
				"energy": 0.05149,
				"method": "rhf"
			},
			{
				"type": "unocc",
				"energy": 0.06564,
				"method": "rhf"
			}
		],
		"cosmo_sigma_profile": { 
			"-0.025": 0.0,
			"-0.024": 0.0,
			"-0.023": 0.0,
			"-0.022": 0.0,
			"-0.021": 0.0,
			"-0.02": 0.0,
			"-0.019": 0.0,
			"-0.018": 0.0,
			"-0.017": 0.0,
			"-0.016": 0.0,
			"-0.015": 0.0,
			"-0.014": 0.0,
			"-0.013": 0.0,
			"-0.012": 0.0,
			"-0.011": 0.197671586792,
			"-0.01": 0.714845869338,
			"-0.009": 1.91970784262,
			"-0.008": 7.23336897154,
			"-0.007": 17.3367934866,
			"-0.006": 25.7960532284,
			"-0.005": 20.9050705967,
			"-0.004": 17.2895969534,
			"-0.003": 19.899535008,
			"-0.002": 19.7892315557,
			"-0.001": 21.447429978,
			"0.0": 22.4507914673,
			"0.001": 23.099063515,
			"0.002": 16.0845983477,
			"0.003": 7.2887056688,
			"0.004": 7.72458474862,
			"0.005": 7.44112707785,
			"0.006": 7.67823401356,
			"0.007": 10.7884248798,
			"0.008": 11.6488042785,
			"0.009": 7.58748871962,
			"0.01": 7.16567544209,
			"0.011": 4.40485343586,
			"0.012": 3.48893242711,
			"0.013": 3.99027410471,
			"0.014": 1.46324529256,
			"0.015": 0.0762760679377,
			"0.016": 0.0,
			"0.017": 0.0,
			"0.018": 0.0,
			"0.019": 0.0,
			"0.02": 0.0,
			"0.021": 0.0,
			"0.022": 0.0,
			"0.023": 0.0,
			"0.024": 0.0,
			"0.025": 0.0
		}
	}
}
