{
	 "smiles": "CC1=C(SC2=C1C=CC=C2)C(=O)C1=CC=CC=C1C(O)=O", 
	 "Tm": 455.15, 
	 "num_atms": 33, 
	 "gaussian": { 
		 "optdone": 1, 
		 "sigma_profile": "yes", 
		 "theory": "DFT", 
		 "functional": "B3LYP", 
		 "basiset": "6-31G**", 
		 "properties": { 
			 "R2extent": 7680.4833, 
			 "electric_dipole_moment_norm": 7.59922032909, 
			 "electric_quadrupole_moment_norm": 27.3830915063, 
			 "total_energy": -1278.92176035, 
			 "HOMO_LUMO_gap": 0.14018, 
			 "cosmo_polarized_energy": -15.12, 
			 "cosmo_cavitation_energy": 38.32, 
			 "cosmo_dispersion_energy": -28.12, 
			 "cosmo_repulsion_energy": 2.07, 
			 "cosmo_total_nonelectrostatic_energy": 12.27, 
			 "SMD_solvation_energy": 7.28 
		},
		"coords": [
			{
				"x": 0.2707041224,
				"y": -1.0612951872,
				"z": -2.235446569,
				"element": "C" 
			},
			{
				"x": 0.658157683,
				"y": 0.0534487186,
				"z": -1.306024847,
				"element": "C" 
			},
			{
				"x": 0.3483110179,
				"y": 0.1206844463,
				"z": 0.0415135266,
				"element": "C" 
			},
			{
				"x": 0.9866899731,
				"y": 1.5811017904,
				"z": 0.8193072433,
				"element": "S" 
			},
			{
				"x": 1.6866854951,
				"y": 2.1109413587,
				"z": -0.6871135726,
				"element": "C" 
			},
			{
				"x": 1.4205349334,
				"y": 1.197458117,
				"z": -1.738866146,
				"element": "C" 
			},
			{
				"x": 1.9200061326,
				"y": 1.4858099769,
				"z": -3.027612532,
				"element": "C" 
			},
			{
				"x": 2.6514906277,
				"y": 2.6428113102,
				"z": -3.237002897,
				"element": "C" 
			},
			{
				"x": 2.9034485751,
				"y": 3.5372602285,
				"z": -2.1770354349,
				"element": "C" 
			},
			{
				"x": 2.4264684578,
				"y": 3.2816011719,
				"z": -0.8987817839,
				"element": "C" 
			},
			{
				"x": -0.3191313269,
				"y": -0.9254091659,
				"z": 0.8263751969,
				"element": "C" 
			},
			{
				"x": -0.4276169857,
				"y": -2.067975146,
				"z": 0.3556003436,
				"element": "O" 
			},
			{
				"x": -0.8869469635,
				"y": -0.5996084033,
				"z": 2.179238016,
				"element": "C" 
			},
			{
				"x": -1.670625171,
				"y": 0.5654417444,
				"z": 2.2682707364,
				"element": "C" 
			},
			{
				"x": -2.3076444578,
				"y": 0.9260364264,
				"z": 3.4527526058,
				"element": "C" 
			},
			{
				"x": -2.1350368915,
				"y": 0.1396719052,
				"z": 4.5899623258,
				"element": "C" 
			},
			{
				"x": -1.349131102,
				"y": -1.0077618254,
				"z": 4.5227141715,
				"element": "C" 
			},
			{
				"x": -0.7429190601,
				"y": -1.4207506094,
				"z": 3.3284363099,
				"element": "C" 
			},
			{
				"x": 0.0617398744,
				"y": -2.7076148202,
				"z": 3.4709903553,
				"element": "C" 
			},
			{
				"x": 0.1844309314,
				"y": -3.5139859214,
				"z": 2.4157324013,
				"element": "O" 
			},
			{
				"x": 0.5340968652,
				"y": -3.0103337507,
				"z": 4.5472486129,
				"element": "O" 
			},
			{
				"x": -0.6889455719,
				"y": -1.4997802754,
				"z": -1.9617993606,
				"element": "H" 
			},
			{
				"x": 0.2219432268,
				"y": -0.7058260073,
				"z": -3.2679267293,
				"element": "H" 
			},
			{
				"x": 1.0057386681,
				"y": -1.873229368,
				"z": -2.1897584205,
				"element": "H" 
			},
			{
				"x": 1.7372028576,
				"y": 0.8001859676,
				"z": -3.848756622,
				"element": "H" 
			},
			{
				"x": 3.038255599,
				"y": 2.8648200945,
				"z": -4.2267537723,
				"element": "H" 
			},
			{
				"x": 3.4793804288,
				"y": 4.439045029,
				"z": -2.3621160265,
				"element": "H" 
			},
			{
				"x": 2.6224715958,
				"y": 3.9707051925,
				"z": -0.0834157836,
				"element": "H" 
			},
			{
				"x": -1.7991936241,
				"y": 1.1828838425,
				"z": 1.3862014307,
				"element": "H" 
			},
			{
				"x": -2.9245881006,
				"y": 1.8188514851,
				"z": 3.4842314584,
				"element": "H" 
			},
			{
				"x": -2.6077963977,
				"y": 0.4167900438,
				"z": 5.5274323958,
				"element": "H" 
			},
			{
				"x": -1.1816144912,
				"y": -1.6185465541,
				"z": 5.402310386,
				"element": "H" 
			},
			{
				"x": -0.2388669213,
				"y": -3.1279318151,
				"z": 1.6115929811,
				"element": "H" 
			}
		],
		 "valence_orbital": [ 
			{
				"type": "occ",
				"energy": -0.27362,
				"method": "rhf"
			},
			{
				"type": "occ",
				"energy": -0.27161,
				"method": "rhf"
			},
			{
				"type": "occ",
				"energy": -0.25571,
				"method": "rhf"
			},
			{
				"type": "occ",
				"energy": -0.25327,
				"method": "rhf"
			},
			{
				"type": "occ",
				"energy": -0.23447,
				"method": "rhf"
			},
			{
				"type": "unocc",
				"energy": -0.09429,
				"method": "rhf"
			},
			{
				"type": "unocc",
				"energy": -0.0481,
				"method": "rhf"
			},
			{
				"type": "unocc",
				"energy": -0.03203,
				"method": "rhf"
			},
			{
				"type": "unocc",
				"energy": -0.0208,
				"method": "rhf"
			},
			{
				"type": "unocc",
				"energy": 0.00359,
				"method": "rhf"
			}
		],
		"cosmo_sigma_profile": { 
			"-0.025": 0.0,
			"-0.024": 0.0,
			"-0.023": 0.0,
			"-0.022": 0.0,
			"-0.021": 0.0,
			"-0.02": 0.0,
			"-0.019": 0.0,
			"-0.018": 0.0,
			"-0.017": 0.0,
			"-0.016": 0.0,
			"-0.015": 0.0,
			"-0.014": 0.0,
			"-0.013": 0.0,
			"-0.012": 0.0,
			"-0.011": 0.0,
			"-0.01": 0.0,
			"-0.009": 0.0,
			"-0.008": 1.54812901664,
			"-0.007": 14.280672729,
			"-0.006": 20.0724013159,
			"-0.005": 22.9798914044,
			"-0.004": 21.8525091773,
			"-0.003": 21.9016880749,
			"-0.002": 22.1186481725,
			"-0.001": 24.789786636,
			"0.0": 24.8749678582,
			"0.001": 28.881798365,
			"0.002": 31.610758219,
			"0.003": 22.1138120141,
			"0.004": 14.8568879354,
			"0.005": 4.72715165005,
			"0.006": 4.32558199125,
			"0.007": 3.93927159889,
			"0.008": 4.55739328691,
			"0.009": 3.02872555606,
			"0.01": 3.34993906966,
			"0.011": 5.29869875038,
			"0.012": 6.14231450571,
			"0.013": 2.56864880327,
			"0.014": 0.666132724496,
			"0.015": 0.0,
			"0.016": 0.0,
			"0.017": 0.0,
			"0.018": 0.0,
			"0.019": 0.0,
			"0.02": 0.0,
			"0.021": 0.0,
			"0.022": 0.0,
			"0.023": 0.0,
			"0.024": 0.0,
			"0.025": 0.0
		}
	}
}
