{
	 "smiles": "CN1N=C(C)C2=C1OCC(=O)N2", 
	 "Tm": 493.15, 
	 "num_atms": 21, 
	 "gaussian": { 
		 "optdone": 1, 
		 "sigma_profile": "yes", 
		 "theory": "DFT", 
		 "functional": "B3LYP", 
		 "basiset": "6-31G**", 
		 "properties": { 
			 "R2extent": 2230.4769, 
			 "electric_dipole_moment_norm": 1.84655085497, 
			 "electric_quadrupole_moment_norm": 14.5759940968, 
			 "total_energy": -586.843723074, 
			 "HOMO_LUMO_gap": 0.20364, 
			 "cosmo_polarized_energy": -13.73, 
			 "cosmo_cavitation_energy": 25.0, 
			 "cosmo_dispersion_energy": -18.68, 
			 "cosmo_repulsion_energy": 1.51, 
			 "cosmo_total_nonelectrostatic_energy": 7.83, 
			 "SMD_solvation_energy": 4.57 
		},
		"coords": [
			{
				"x": -0.7298253184,
				"y": 2.2610244073,
				"z": -0.6323883487,
				"element": "C" 
			},
			{
				"x": -0.1590197538,
				"y": 0.9328791786,
				"z": -0.7134965264,
				"element": "N" 
			},
			{
				"x": -0.0479846161,
				"y": 0.2880964113,
				"z": -1.9102005197,
				"element": "N" 
			},
			{
				"x": 0.4513411047,
				"y": -0.9240743603,
				"z": -1.6339280646,
				"element": "C" 
			},
			{
				"x": 0.7238881094,
				"y": -1.9075391147,
				"z": -2.7288609794,
				"element": "C" 
			},
			{
				"x": 0.6346766707,
				"y": -1.0689566426,
				"z": -0.2398854255,
				"element": "C" 
			},
			{
				"x": 0.23042819,
				"y": 0.1283656527,
				"z": 0.3017184933,
				"element": "C" 
			},
			{
				"x": 0.2218256419,
				"y": 0.451836103,
				"z": 1.6154669963,
				"element": "O" 
			},
			{
				"x": 1.1896532876,
				"y": -0.3356148543,
				"z": 2.3492696797,
				"element": "C" 
			},
			{
				"x": 1.3268310866,
				"y": -1.8180459473,
				"z": 1.9385622801,
				"element": "C" 
			},
			{
				"x": 1.6724217317,
				"y": -2.6549609115,
				"z": 2.757982298,
				"element": "O" 
			},
			{
				"x": 1.1068922183,
				"y": -2.0833614081,
				"z": 0.614775309,
				"element": "N" 
			},
			{
				"x": -1.821872155,
				"y": 2.228691945,
				"z": -0.7063022418,
				"element": "H" 
			},
			{
				"x": -0.4481758445,
				"y": 2.7048917746,
				"z": 0.3241962535,
				"element": "H" 
			},
			{
				"x": -0.3338081694,
				"y": 2.8640721076,
				"z": -1.4511460015,
				"element": "H" 
			},
			{
				"x": 0.1260097065,
				"y": -2.8200333514,
				"z": -2.6160738182,
				"element": "H" 
			},
			{
				"x": 1.7786326006,
				"y": -2.2058962165,
				"z": -2.7522906734,
				"element": "H" 
			},
			{
				"x": 0.4741315284,
				"y": -1.4554333496,
				"z": -3.6909841944,
				"element": "H" 
			},
			{
				"x": 0.8819717606,
				"y": -0.3113077989,
				"z": 3.3934790962,
				"element": "H" 
			},
			{
				"x": 2.1801237227,
				"y": 0.1328379685,
				"z": 2.2572216919,
				"element": "H" 
			},
			{
				"x": 1.1861584976,
				"y": -3.0458715934,
				"z": 0.3169846955,
				"element": "H" 
			}
		],
		 "valence_orbital": [ 
			{
				"type": "occ",
				"energy": -0.31461,
				"method": "rhf"
			},
			{
				"type": "occ",
				"energy": -0.29075,
				"method": "rhf"
			},
			{
				"type": "occ",
				"energy": -0.25977,
				"method": "rhf"
			},
			{
				"type": "occ",
				"energy": -0.23472,
				"method": "rhf"
			},
			{
				"type": "occ",
				"energy": -0.20226,
				"method": "rhf"
			},
			{
				"type": "unocc",
				"energy": 0.00138,
				"method": "rhf"
			},
			{
				"type": "unocc",
				"energy": 0.0265,
				"method": "rhf"
			},
			{
				"type": "unocc",
				"energy": 0.07185,
				"method": "rhf"
			},
			{
				"type": "unocc",
				"energy": 0.08723,
				"method": "rhf"
			},
			{
				"type": "unocc",
				"energy": 0.09496,
				"method": "rhf"
			}
		],
		"cosmo_sigma_profile": { 
			"-0.025": 0.0,
			"-0.024": 0.0,
			"-0.023": 0.0,
			"-0.022": 0.0,
			"-0.021": 0.0,
			"-0.02": 0.0,
			"-0.019": 0.0,
			"-0.018": 0.0,
			"-0.017": 0.0,
			"-0.016": 0.160502183778,
			"-0.015": 0.786698363881,
			"-0.014": 1.13956713212,
			"-0.013": 1.09969413094,
			"-0.012": 0.413102152457,
			"-0.011": 0.896109502659,
			"-0.01": 1.99269463345,
			"-0.009": 1.11484388071,
			"-0.008": 4.65385291051,
			"-0.007": 6.45500981267,
			"-0.006": 10.8299306541,
			"-0.005": 14.0390865401,
			"-0.004": 17.8712084324,
			"-0.003": 19.9454824609,
			"-0.002": 14.0180707102,
			"-0.001": 14.235558072,
			"0.0": 13.1387499619,
			"0.001": 10.5255052358,
			"0.002": 9.27787534167,
			"0.003": 8.11125285098,
			"0.004": 6.42023190513,
			"0.005": 4.80282913475,
			"0.006": 4.38249818683,
			"0.007": 4.93237490249,
			"0.008": 2.98225065903,
			"0.009": 2.8547562126,
			"0.01": 2.41202409143,
			"0.011": 2.99158221909,
			"0.012": 4.7062272611,
			"0.013": 7.01740988547,
			"0.014": 2.11393679795,
			"0.015": 0.876599166333,
			"0.016": 0.959115792394,
			"0.017": 0.0951489612729,
			"0.018": 0.0,
			"0.019": 0.0,
			"0.02": 0.0,
			"0.021": 0.0,
			"0.022": 0.0,
			"0.023": 0.0,
			"0.024": 0.0,
			"0.025": 0.0
		}
	}
}
