{
	 "smiles": "CC(C)NC1=C(C=C(Br)C=C1)[N+]([O-])=O", 
	 "Tm": 371.15, 
	 "num_atms": 25, 
	 "gaussian": { 
		 "optdone": 1, 
		 "sigma_profile": "yes", 
		 "theory": "DFT", 
		 "functional": "B3LYP", 
		 "basiset": "6-31G**", 
		 "properties": { 
			 "R2extent": 6349.6987, 
			 "electric_dipole_moment_norm": 4.6728815414, 
			 "electric_quadrupole_moment_norm": 6.98364429149, 
			 "total_energy": -3180.83152267, 
			 "HOMO_LUMO_gap": 0.14516, 
			 "cosmo_polarized_energy": -11.98, 
			 "cosmo_cavitation_energy": 30.67, 
			 "cosmo_dispersion_energy": -21.95, 
			 "cosmo_repulsion_energy": 1.73, 
			 "cosmo_total_nonelectrostatic_energy": 10.44, 
			 "SMD_solvation_energy": 5.51 
		},
		"coords": [
			{
				"x": 0.7330348404,
				"y": -0.0994592426,
				"z": -1.6369891667,
				"element": "C" 
			},
			{
				"x": 1.6537261509,
				"y": 0.6360801182,
				"z": -0.6626991836,
				"element": "C" 
			},
			{
				"x": 1.4986167855,
				"y": 2.1608132918,
				"z": -0.7851319586,
				"element": "C" 
			},
			{
				"x": 1.5310244394,
				"y": 0.1608874202,
				"z": 0.7488718911,
				"element": "N" 
			},
			{
				"x": 0.3703496029,
				"y": 0.4113067692,
				"z": 1.5046483731,
				"element": "C" 
			},
			{
				"x": -0.8361960913,
				"y": -0.3092464098,
				"z": 1.3651272876,
				"element": "C" 
			},
			{
				"x": -1.9824187453,
				"y": -0.0037801667,
				"z": 2.1006868563,
				"element": "C" 
			},
			{
				"x": -1.9279014421,
				"y": 0.9917908303,
				"z": 3.0665357539,
				"element": "C" 
			},
			{
				"x": -3.4775359388,
				"y": 1.3959098794,
				"z": 4.1002858824,
				"element": "Br" 
			},
			{
				"x": -0.7399838591,
				"y": 1.6885467108,
				"z": 3.2875616261,
				"element": "C" 
			},
			{
				"x": 0.3722430212,
				"y": 1.4069964995,
				"z": 2.5019120395,
				"element": "C" 
			},
			{
				"x": -0.9556519485,
				"y": -1.4991596678,
				"z": 0.5021492301,
				"element": "N" 
			},
			{
				"x": -0.025246989,
				"y": -2.2974466547,
				"z": 0.4956846645,
				"element": "O" 
			},
			{
				"x": -2.0106633453,
				"y": -1.6352104741,
				"z": -0.1199464851,
				"element": "O" 
			},
			{
				"x": -0.3220831803,
				"y": 0.1328803304,
				"z": -1.4599999217,
				"element": "H" 
			},
			{
				"x": 0.8692053138,
				"y": -1.1800517886,
				"z": -1.5715659225,
				"element": "H" 
			},
			{
				"x": 0.9631760784,
				"y": 0.2200094031,
				"z": -2.6581023531,
				"element": "H" 
			},
			{
				"x": 2.6850666127,
				"y": 0.3738179338,
				"z": -0.9279296729,
				"element": "H" 
			},
			{
				"x": 2.1971944893,
				"y": 2.6885713994,
				"z": -0.1258795231,
				"element": "H" 
			},
			{
				"x": 0.4827337118,
				"y": 2.4763949484,
				"z": -0.52436344,
				"element": "H" 
			},
			{
				"x": 1.6984323666,
				"y": 2.4867242178,
				"z": -1.8112021394,
				"element": "H" 
			},
			{
				"x": 2.3304412607,
				"y": 0.5183694445,
				"z": 1.2619219244,
				"element": "H" 
			},
			{
				"x": -2.8870236093,
				"y": -0.5707443903,
				"z": 1.9228471427,
				"element": "H" 
			},
			{
				"x": -0.6923371216,
				"y": 2.4608301815,
				"z": 4.0468833627,
				"element": "H" 
			},
			{
				"x": 1.2799975971,
				"y": 1.9865694161,
				"z": 2.6465937323,
				"element": "H" 
			}
		],
		 "valence_orbital": [ 
			{
				"type": "occ",
				"energy": -0.30177,
				"method": "rhf"
			},
			{
				"type": "occ",
				"energy": -0.29652,
				"method": "rhf"
			},
			{
				"type": "occ",
				"energy": -0.27741,
				"method": "rhf"
			},
			{
				"type": "occ",
				"energy": -0.27395,
				"method": "rhf"
			},
			{
				"type": "occ",
				"energy": -0.22844,
				"method": "rhf"
			},
			{
				"type": "unocc",
				"energy": -0.08328,
				"method": "rhf"
			},
			{
				"type": "unocc",
				"energy": -0.03207,
				"method": "rhf"
			},
			{
				"type": "unocc",
				"energy": -0.01961,
				"method": "rhf"
			},
			{
				"type": "unocc",
				"energy": -0.00179,
				"method": "rhf"
			},
			{
				"type": "unocc",
				"energy": 0.06174,
				"method": "rhf"
			}
		],
		"cosmo_sigma_profile": { 
			"-0.025": 0.0,
			"-0.024": 0.0,
			"-0.023": 0.0,
			"-0.022": 0.0,
			"-0.021": 0.0,
			"-0.02": 0.0,
			"-0.019": 0.0,
			"-0.018": 0.0,
			"-0.017": 0.0,
			"-0.016": 0.0,
			"-0.015": 0.0,
			"-0.014": 0.0,
			"-0.013": 0.417806581704,
			"-0.012": 1.66039760547,
			"-0.011": 1.42901850573,
			"-0.01": 1.82502587432,
			"-0.009": 1.73963860932,
			"-0.008": 5.54256810626,
			"-0.007": 7.48375258791,
			"-0.006": 7.27979783521,
			"-0.005": 8.08180114937,
			"-0.004": 14.2770030334,
			"-0.003": 21.6082922679,
			"-0.002": 18.8392642948,
			"-0.001": 21.1321385557,
			"0.0": 29.812840685,
			"0.001": 30.253082007,
			"0.002": 13.8063694403,
			"0.003": 10.3587212864,
			"0.004": 14.2087727914,
			"0.005": 5.15401669415,
			"0.006": 2.9367543116,
			"0.007": 7.66386128199,
			"0.008": 8.95004965693,
			"0.009": 4.85226008459,
			"0.01": 2.9455441948,
			"0.011": 0.875824250335,
			"0.012": 0.783806585517,
			"0.013": 0.653471370123,
			"0.014": 0.809532658071,
			"0.015": 0.522949256746,
			"0.016": 0.044242073046,
			"0.017": 0.0,
			"0.018": 0.0,
			"0.019": 0.0,
			"0.02": 0.0,
			"0.021": 0.0,
			"0.022": 0.0,
			"0.023": 0.0,
			"0.024": 0.0,
			"0.025": 0.0
		}
	}
}
