{
	 "smiles": "CC(=O)SC1CC2=CC(=O)CC(SC(C)=O)C2(C)C2CCC3(C)C(CCC3(C)O)C12", 
	 "Tm": 479.15, 
	 "num_atms": 64, 
	 "gaussian": { 
		 "optdone": 1, 
		 "sigma_profile": "yes", 
		 "theory": "DFT", 
		 "functional": "B3LYP", 
		 "basiset": "6-31G**", 
		 "properties": { 
			 "R2extent": 14078.4118, 
			 "electric_dipole_moment_norm": 5.12839922978, 
			 "electric_quadrupole_moment_norm": 27.4162077492, 
			 "total_energy": -2032.32252831, 
			 "HOMO_LUMO_gap": 0.18404, 
			 "cosmo_polarized_energy": -21.63, 
			 "cosmo_cavitation_energy": 58.04, 
			 "cosmo_dispersion_energy": -38.92, 
			 "cosmo_repulsion_energy": 2.79, 
			 "cosmo_total_nonelectrostatic_energy": 21.92, 
			 "SMD_solvation_energy": 10.29 
		},
		"coords": [
			{
				"x": -0.8968218873,
				"y": -3.4424324718,
				"z": -3.2721642644,
				"element": "C" 
			},
			{
				"x": -0.6914673274,
				"y": -2.4678894179,
				"z": -2.1241298576,
				"element": "C" 
			},
			{
				"x": -1.5080450922,
				"y": -1.6199271088,
				"z": -1.8416350039,
				"element": "O" 
			},
			{
				"x": 0.8880880666,
				"y": -2.773884427,
				"z": -1.3082772408,
				"element": "S" 
			},
			{
				"x": 1.1209569027,
				"y": -1.8199471834,
				"z": 0.2874566365,
				"element": "C" 
			},
			{
				"x": 0.4557992544,
				"y": -2.5459599049,
				"z": 1.4847666767,
				"element": "C" 
			},
			{
				"x": -0.9933783895,
				"y": -2.1566750876,
				"z": 1.5414970266,
				"element": "C" 
			},
			{
				"x": -1.952430247,
				"y": -3.0422296215,
				"z": 1.2000867224,
				"element": "C" 
			},
			{
				"x": -3.3361656009,
				"y": -2.6569441873,
				"z": 0.8660899513,
				"element": "C" 
			},
			{
				"x": -4.1840120911,
				"y": -3.479895947,
				"z": 0.5524586151,
				"element": "O" 
			},
			{
				"x": -3.5894534138,
				"y": -1.1581534318,
				"z": 0.822015883,
				"element": "C" 
			},
			{
				"x": -2.7968457857,
				"y": -0.4204985972,
				"z": 1.9081363412,
				"element": "C" 
			},
			{
				"x": -3.5499735676,
				"y": -0.896856838,
				"z": 3.5472346113,
				"element": "S" 
			},
			{
				"x": -3.8213134568,
				"y": 0.725308959,
				"z": 4.2770809189,
				"element": "C" 
			},
			{
				"x": -4.5786091985,
				"y": 0.6700716873,
				"z": 5.5898779596,
				"element": "C" 
			},
			{
				"x": -3.4579211591,
				"y": 1.7654721723,
				"z": 3.7680519613,
				"element": "O" 
			},
			{
				"x": -1.2562950822,
				"y": -0.6795323154,
				"z": 1.8217660968,
				"element": "C" 
			},
			{
				"x": -0.582575924,
				"y": -0.2494956133,
				"z": 3.1522798588,
				"element": "C" 
			},
			{
				"x": -0.6215604606,
				"y": 0.1199001212,
				"z": 0.6072662861,
				"element": "C" 
			},
			{
				"x": -0.7425157167,
				"y": 1.6567150625,
				"z": 0.7404728237,
				"element": "C" 
			},
			{
				"x": -0.1619449321,
				"y": 2.4103383471,
				"z": -0.4746005483,
				"element": "C" 
			},
			{
				"x": 1.3043425727,
				"y": 2.0205679911,
				"z": -0.7191896247,
				"element": "C" 
			},
			{
				"x": 2.1894339738,
				"y": 2.5534464406,
				"z": 0.4322432166,
				"element": "C" 
			},
			{
				"x": 1.3879318465,
				"y": 0.4753809633,
				"z": -0.8810647121,
				"element": "C" 
			},
			{
				"x": 2.8289181729,
				"y": 0.2428204283,
				"z": -1.3756241867,
				"element": "C" 
			},
			{
				"x": 3.1262402798,
				"y": 1.4906851877,
				"z": -2.2588593888,
				"element": "C" 
			},
			{
				"x": 1.9187474819,
				"y": 2.4670366719,
				"z": -2.0856555336,
				"element": "C" 
			},
			{
				"x": 2.307300551,
				"y": 3.9427373213,
				"z": -2.203936683,
				"element": "C" 
			},
			{
				"x": 0.9159492311,
				"y": 2.1794518371,
				"z": -3.0761185624,
				"element": "O" 
			},
			{
				"x": 0.8644200673,
				"y": -0.2923901975,
				"z": 0.340394465,
				"element": "C" 
			},
			{
				"x": 0.0340316501,
				"y": -3.8904774108,
				"z": -3.6257439742,
				"element": "H" 
			},
			{
				"x": -1.397989631,
				"y": -2.9159831776,
				"z": -4.0876503949,
				"element": "H" 
			},
			{
				"x": -1.5587014733,
				"y": -4.2431282261,
				"z": -2.9244555555,
				"element": "H" 
			},
			{
				"x": 2.2048999245,
				"y": -1.9656738349,
				"z": 0.3671742887,
				"element": "H" 
			},
			{
				"x": 0.5740698526,
				"y": -3.6277105522,
				"z": 1.3860581511,
				"element": "H" 
			},
			{
				"x": 0.9885342681,
				"y": -2.2355343492,
				"z": 2.3920363898,
				"element": "H" 
			},
			{
				"x": -1.7057555282,
				"y": -4.0889782561,
				"z": 1.0370720204,
				"element": "H" 
			},
			{
				"x": -3.2627697319,
				"y": -0.8177073761,
				"z": -0.169025942,
				"element": "H" 
			},
			{
				"x": -4.6617708041,
				"y": -0.9694097896,
				"z": 0.9032707746,
				"element": "H" 
			},
			{
				"x": -2.9856921994,
				"y": 0.6535976587,
				"z": 1.8698170057,
				"element": "H" 
			},
			{
				"x": -5.6124506627,
				"y": 0.9821929324,
				"z": 5.4063789095,
				"element": "H" 
			},
			{
				"x": -4.1306692442,
				"y": 1.3835255471,
				"z": 6.2861709552,
				"element": "H" 
			},
			{
				"x": -4.5881431744,
				"y": -0.3296242524,
				"z": 6.0291629337,
				"element": "H" 
			},
			{
				"x": -0.7703281568,
				"y": -0.976812086,
				"z": 3.9450717495,
				"element": "H" 
			},
			{
				"x": -0.9833260055,
				"y": 0.7126104877,
				"z": 3.4799796254,
				"element": "H" 
			},
			{
				"x": 0.4990587508,
				"y": -0.1388260297,
				"z": 3.0499580587,
				"element": "H" 
			},
			{
				"x": -1.1749881124,
				"y": -0.175526089,
				"z": -0.2858066012,
				"element": "H" 
			},
			{
				"x": -1.7949691435,
				"y": 1.9376510307,
				"z": 0.8454568869,
				"element": "H" 
			},
			{
				"x": -0.2526002157,
				"y": 1.9991560147,
				"z": 1.6588174009,
				"element": "H" 
			},
			{
				"x": -0.2574657893,
				"y": 3.4911658659,
				"z": -0.3079453602,
				"element": "H" 
			},
			{
				"x": -0.7456642402,
				"y": 2.1732110389,
				"z": -1.3688416051,
				"element": "H" 
			},
			{
				"x": 2.052494572,
				"y": 3.633192585,
				"z": 0.5473035698,
				"element": "H" 
			},
			{
				"x": 1.9331823822,
				"y": 2.099274675,
				"z": 1.3917557049,
				"element": "H" 
			},
			{
				"x": 3.2553481946,
				"y": 2.3734551141,
				"z": 0.266530799,
				"element": "H" 
			},
			{
				"x": 0.7226419689,
				"y": 0.2325268946,
				"z": -1.717348397,
				"element": "H" 
			},
			{
				"x": 3.5311603425,
				"y": 0.1918019735,
				"z": -0.534365276,
				"element": "H" 
			},
			{
				"x": 2.9296800901,
				"y": -0.6913644777,
				"z": -1.9332663819,
				"element": "H" 
			},
			{
				"x": 4.0657823331,
				"y": 1.9712475064,
				"z": -1.9674646309,
				"element": "H" 
			},
			{
				"x": 3.2259804675,
				"y": 1.2255292233,
				"z": -3.3170618782,
				"element": "H" 
			},
			{
				"x": 2.7079463583,
				"y": 4.1441861321,
				"z": -3.2056174626,
				"element": "H" 
			},
			{
				"x": 3.0767296435,
				"y": 4.2333854442,
				"z": -1.4843314551,
				"element": "H" 
			},
			{
				"x": 1.4319810844,
				"y": 4.5836521038,
				"z": -2.0609420469,
				"element": "H" 
			},
			{
				"x": 1.2981570269,
				"y": 2.3728528198,
				"z": -3.9418960002,
				"element": "H" 
			},
			{
				"x": 1.4612061348,
				"y": 0.0174200188,
				"z": 1.2111272934,
				"element": "H" 
			}
		],
		 "valence_orbital": [ 
			{
				"type": "occ",
				"energy": -0.25804,
				"method": "rhf"
			},
			{
				"type": "occ",
				"energy": -0.25518,
				"method": "rhf"
			},
			{
				"type": "occ",
				"energy": -0.24842,
				"method": "rhf"
			},
			{
				"type": "occ",
				"energy": -0.2466,
				"method": "rhf"
			},
			{
				"type": "occ",
				"energy": -0.2276,
				"method": "rhf"
			},
			{
				"type": "unocc",
				"energy": -0.04356,
				"method": "rhf"
			},
			{
				"type": "unocc",
				"energy": -0.02111,
				"method": "rhf"
			},
			{
				"type": "unocc",
				"energy": -0.01672,
				"method": "rhf"
			},
			{
				"type": "unocc",
				"energy": 0.02704,
				"method": "rhf"
			},
			{
				"type": "unocc",
				"energy": 0.02994,
				"method": "rhf"
			}
		],
		"cosmo_sigma_profile": { 
			"-0.025": 0.0,
			"-0.024": 0.0,
			"-0.023": 0.0,
			"-0.022": 0.0,
			"-0.021": 0.0,
			"-0.02": 0.0,
			"-0.019": 0.0,
			"-0.018": 0.0,
			"-0.017": 0.0,
			"-0.016": 0.0,
			"-0.015": 0.0936933245741,
			"-0.014": 1.00057470463,
			"-0.013": 0.603519951751,
			"-0.012": 0.994968085362,
			"-0.011": 1.0160954528,
			"-0.01": 1.00694394553,
			"-0.009": 0.99069650538,
			"-0.008": 1.08626892258,
			"-0.007": 6.8471307956,
			"-0.006": 19.3671793339,
			"-0.005": 26.8128439455,
			"-0.004": 31.0325842743,
			"-0.003": 46.6366022693,
			"-0.002": 58.3563023341,
			"-0.001": 49.435747258,
			"0.0": 42.9932545535,
			"0.001": 37.4186353545,
			"0.002": 26.0922979845,
			"0.003": 17.4874648191,
			"0.004": 14.0479242349,
			"0.005": 13.1294029164,
			"0.006": 10.2433984175,
			"0.007": 7.4160855775,
			"0.008": 5.33759986692,
			"0.009": 5.59766669787,
			"0.01": 6.87477714574,
			"0.011": 7.65821797829,
			"0.012": 7.00496280637,
			"0.013": 4.99125872932,
			"0.014": 1.85964068095,
			"0.015": 0.066756481374,
			"0.016": 0.0,
			"0.017": 0.0,
			"0.018": 0.0,
			"0.019": 0.0,
			"0.02": 0.0,
			"0.021": 0.0,
			"0.022": 0.0,
			"0.023": 0.0,
			"0.024": 0.0,
			"0.025": 0.0
		}
	}
}
