{
	 "smiles": "CC(C)C1=CC(=C(C)C=C1O)C1(OC(=O)C2=CC=CC=C12)C1=CC(C(C)C)=C(O)C=C1C", 
	 "Tm": 525.15, 
	 "num_atms": 62, 
	 "gaussian": { 
		 "optdone": 1, 
		 "sigma_profile": "yes", 
		 "theory": "DFT", 
		 "functional": "B3LYP", 
		 "basiset": "6-31G**", 
		 "properties": { 
			 "R2extent": 13904.7338, 
			 "electric_dipole_moment_norm": 6.29626058784, 
			 "electric_quadrupole_moment_norm": 19.3486121686, 
			 "total_energy": -1385.98713406, 
			 "HOMO_LUMO_gap": 0.16869, 
			 "cosmo_polarized_energy": -21.52, 
			 "cosmo_cavitation_energy": 60.07, 
			 "cosmo_dispersion_energy": -38.54, 
			 "cosmo_repulsion_energy": 2.92, 
			 "cosmo_total_nonelectrostatic_energy": 24.45, 
			 "SMD_solvation_energy": 11.48 
		},
		"coords": [
			{
				"x": 1.2912724029,
				"y": 0.9090986098,
				"z": 4.6436654443,
				"element": "C" 
			},
			{
				"x": 1.7621951216,
				"y": 1.1326660914,
				"z": 3.1927912326,
				"element": "C" 
			},
			{
				"x": 3.3005608782,
				"y": 1.1715800166,
				"z": 3.1005682606,
				"element": "C" 
			},
			{
				"x": 1.1453712271,
				"y": 0.1340616957,
				"z": 2.2216273708,
				"element": "C" 
			},
			{
				"x": 0.3041029041,
				"y": 0.5800802293,
				"z": 1.2002249342,
				"element": "C" 
			},
			{
				"x": -0.3131319561,
				"y": -0.2581157147,
				"z": 0.2562158185,
				"element": "C" 
			},
			{
				"x": -0.0483093301,
				"y": -1.6431634866,
				"z": 0.3295305281,
				"element": "C" 
			},
			{
				"x": -0.5954176947,
				"y": -2.7004225671,
				"z": -0.6088116174,
				"element": "C" 
			},
			{
				"x": 0.7992739064,
				"y": -2.1001315623,
				"z": 1.3471070463,
				"element": "C" 
			},
			{
				"x": 1.3810103717,
				"y": -1.2496121619,
				"z": 2.2845107078,
				"element": "C" 
			},
			{
				"x": 2.2001441403,
				"y": -1.7342036169,
				"z": 3.2717632275,
				"element": "O" 
			},
			{
				"x": -1.2742091476,
				"y": 0.3881329998,
				"z": -0.7843859575,
				"element": "C" 
			},
			{
				"x": -1.2373816553,
				"y": 1.8434466792,
				"z": -0.5652123829,
				"element": "O" 
			},
			{
				"x": -2.3571745411,
				"y": 2.305912898,
				"z": 0.0768380732,
				"element": "C" 
			},
			{
				"x": -2.4780243297,
				"y": 3.4542489535,
				"z": 0.4300646818,
				"element": "O" 
			},
			{
				"x": -3.2984412739,
				"y": 1.1756148493,
				"z": 0.1873448453,
				"element": "C" 
			},
			{
				"x": -4.5897435584,
				"y": 1.1843034659,
				"z": 0.7081846985,
				"element": "C" 
			},
			{
				"x": -5.3281802146,
				"y": 0.0046583987,
				"z": 0.6351800511,
				"element": "C" 
			},
			{
				"x": -4.7691285657,
				"y": -1.1337884481,
				"z": 0.0385788928,
				"element": "C" 
			},
			{
				"x": -3.4680678606,
				"y": -1.1286598766,
				"z": -0.4759968409,
				"element": "C" 
			},
			{
				"x": -2.7205962231,
				"y": 0.0459069264,
				"z": -0.3872840833,
				"element": "C" 
			},
			{
				"x": -0.8542684021,
				"y": 0.1907227228,
				"z": -2.2513050341,
				"element": "C" 
			},
			{
				"x": 0.4776917815,
				"y": -0.1600596877,
				"z": -2.5153071083,
				"element": "C" 
			},
			{
				"x": 1.0124474536,
				"y": -0.2975511081,
				"z": -3.7981963288,
				"element": "C" 
			},
			{
				"x": 2.4778418735,
				"y": -0.6393684846,
				"z": -4.0506346766,
				"element": "C" 
			},
			{
				"x": 3.2798947785,
				"y": 0.6238409562,
				"z": -4.4365629708,
				"element": "C" 
			},
			{
				"x": 3.1602498619,
				"y": -1.3747649864,
				"z": -2.888248177,
				"element": "C" 
			},
			{
				"x": 0.141745141,
				"y": -0.0560966103,
				"z": -4.8741244739,
				"element": "C" 
			},
			{
				"x": 0.5206125716,
				"y": -0.1587343455,
				"z": -6.1845488477,
				"element": "O" 
			},
			{
				"x": -1.178917256,
				"y": 0.326242363,
				"z": -4.6399280244,
				"element": "C" 
			},
			{
				"x": -1.6996463496,
				"y": 0.4781210106,
				"z": -3.3527927308,
				"element": "C" 
			},
			{
				"x": -3.1226294201,
				"y": 0.9830917566,
				"z": -3.2443076387,
				"element": "C" 
			},
			{
				"x": 1.6337012893,
				"y": -0.0558832248,
				"z": 5.0258290261,
				"element": "H" 
			},
			{
				"x": 0.1988387232,
				"y": 0.9355104369,
				"z": 4.710084951,
				"element": "H" 
			},
			{
				"x": 1.6880443855,
				"y": 1.695294025,
				"z": 5.2956272322,
				"element": "H" 
			},
			{
				"x": 1.3951724635,
				"y": 2.1195041232,
				"z": 2.8831559192,
				"element": "H" 
			},
			{
				"x": 3.6273131349,
				"y": 1.3853659219,
				"z": 2.0776301126,
				"element": "H" 
			},
			{
				"x": 3.7388986129,
				"y": 0.2185477978,
				"z": 3.4073413607,
				"element": "H" 
			},
			{
				"x": 3.6992863451,
				"y": 1.9566686113,
				"z": 3.7526615286,
				"element": "H" 
			},
			{
				"x": 0.1314242232,
				"y": 1.646449772,
				"z": 1.1303367157,
				"element": "H" 
			},
			{
				"x": -0.9557614751,
				"y": -2.2895042255,
				"z": -1.5510099441,
				"element": "H" 
			},
			{
				"x": 0.1856603851,
				"y": -3.4292718366,
				"z": -0.8492662373,
				"element": "H" 
			},
			{
				"x": -1.4141409116,
				"y": -3.2570845582,
				"z": -0.1378745474,
				"element": "H" 
			},
			{
				"x": 1.0127675653,
				"y": -3.1674435338,
				"z": 1.4045536075,
				"element": "H" 
			},
			{
				"x": 2.2591130999,
				"y": -2.6946292607,
				"z": 3.1868053708,
				"element": "H" 
			},
			{
				"x": -4.9945355037,
				"y": 2.0932328509,
				"z": 1.1422019914,
				"element": "H" 
			},
			{
				"x": -6.3400900145,
				"y": -0.0330700372,
				"z": 1.0267951387,
				"element": "H" 
			},
			{
				"x": -5.3606554277,
				"y": -2.0423170326,
				"z": -0.0327476656,
				"element": "H" 
			},
			{
				"x": -3.0774456963,
				"y": -2.018916441,
				"z": -0.9503184418,
				"element": "H" 
			},
			{
				"x": 1.1301121655,
				"y": -0.3361613609,
				"z": -1.6701729864,
				"element": "H" 
			},
			{
				"x": 2.5145683991,
				"y": -1.3344978333,
				"z": -4.9074570754,
				"element": "H" 
			},
			{
				"x": 2.8345970831,
				"y": 1.1437379027,
				"z": -5.291005477,
				"element": "H" 
			},
			{
				"x": 4.3144225465,
				"y": 0.3696132693,
				"z": -4.6924811005,
				"element": "H" 
			},
			{
				"x": 3.2983949026,
				"y": 1.3287559127,
				"z": -3.5991742637,
				"element": "H" 
			},
			{
				"x": 4.1663916587,
				"y": -1.6895121688,
				"z": -3.1828587683,
				"element": "H" 
			},
			{
				"x": 2.598451773,
				"y": -2.2647848055,
				"z": -2.5889764649,
				"element": "H" 
			},
			{
				"x": 3.2657452127,
				"y": -0.7293092918,
				"z": -2.0102119179,
				"element": "H" 
			},
			{
				"x": 1.437163627,
				"y": -0.4571089988,
				"z": -6.2333437715,
				"element": "H" 
			},
			{
				"x": -1.8040450649,
				"y": 0.5277163724,
				"z": -5.5043613635,
				"element": "H" 
			},
			{
				"x": -3.185342278,
				"y": 1.8781889912,
				"z": -2.6196812972,
				"element": "H" 
			},
			{
				"x": -3.8030800069,
				"y": 0.2418451187,
				"z": -2.8169033252,
				"element": "H" 
			},
			{
				"x": -3.4986178529,
				"y": 1.2475055376,
				"z": -4.2358272269,
				"element": "H" 
			}
		],
		 "valence_orbital": [ 
			{
				"type": "occ",
				"energy": -0.26049,
				"method": "rhf"
			},
			{
				"type": "occ",
				"energy": -0.2406,
				"method": "rhf"
			},
			{
				"type": "occ",
				"energy": -0.23858,
				"method": "rhf"
			},
			{
				"type": "occ",
				"energy": -0.21744,
				"method": "rhf"
			},
			{
				"type": "occ",
				"energy": -0.21518,
				"method": "rhf"
			},
			{
				"type": "unocc",
				"energy": -0.04649,
				"method": "rhf"
			},
			{
				"type": "unocc",
				"energy": -0.02194,
				"method": "rhf"
			},
			{
				"type": "unocc",
				"energy": -0.00633,
				"method": "rhf"
			},
			{
				"type": "unocc",
				"energy": -0.00186,
				"method": "rhf"
			},
			{
				"type": "unocc",
				"energy": 0.00653,
				"method": "rhf"
			}
		],
		"cosmo_sigma_profile": { 
			"-0.025": 0.0,
			"-0.024": 0.0,
			"-0.023": 0.0,
			"-0.022": 0.0,
			"-0.021": 0.0,
			"-0.02": 0.0,
			"-0.019": 0.0,
			"-0.018": 0.148578899383,
			"-0.017": 1.07649486392,
			"-0.016": 1.46408436794,
			"-0.015": 1.66053026664,
			"-0.014": 2.30062246528,
			"-0.013": 1.52142469116,
			"-0.012": 1.77597583083,
			"-0.011": 1.75623667783,
			"-0.01": 2.09374945818,
			"-0.009": 2.29771591593,
			"-0.008": 2.13690274792,
			"-0.007": 5.49493755338,
			"-0.006": 13.5368501428,
			"-0.005": 19.6937497527,
			"-0.004": 23.7067226021,
			"-0.003": 36.1049574814,
			"-0.002": 48.8739982128,
			"-0.001": 50.2782417357,
			"0.0": 56.3931214504,
			"0.001": 51.4136858746,
			"0.002": 36.0693637386,
			"0.003": 28.8496006002,
			"0.004": 23.271931753,
			"0.005": 16.5003775186,
			"0.006": 9.63826184002,
			"0.007": 6.6272332184,
			"0.008": 5.04775010209,
			"0.009": 4.802798887,
			"0.01": 4.95153266659,
			"0.011": 6.49132580555,
			"0.012": 5.55712954294,
			"0.013": 1.66465902661,
			"0.014": 0.047117599566,
			"0.015": 0.0,
			"0.016": 0.0,
			"0.017": 0.0,
			"0.018": 0.0,
			"0.019": 0.0,
			"0.02": 0.0,
			"0.021": 0.0,
			"0.022": 0.0,
			"0.023": 0.0,
			"0.024": 0.0,
			"0.025": 0.0
		}
	}
}
