{
	 "smiles": "NC(=O)C1=CC=CC(C=C)=C1", 
	 "Tm": 406.15, 
	 "num_atms": 20, 
	 "gaussian": { 
		 "optdone": 1, 
		 "sigma_profile": "yes", 
		 "theory": "DFT", 
		 "functional": "B3LYP", 
		 "basiset": "6-31G**", 
		 "properties": { 
			 "R2extent": 2778.7419, 
			 "electric_dipole_moment_norm": 3.41688402788, 
			 "electric_quadrupole_moment_norm": 18.2666421052, 
			 "total_energy": -478.358165514, 
			 "HOMO_LUMO_gap": 0.18441, 
			 "cosmo_polarized_energy": -13.29, 
			 "cosmo_cavitation_energy": 24.44, 
			 "cosmo_dispersion_energy": -17.79, 
			 "cosmo_repulsion_energy": 1.42, 
			 "cosmo_total_nonelectrostatic_energy": 8.07, 
			 "SMD_solvation_energy": 5.63 
		},
		"coords": [
			{
				"x": 3.4516361097,
				"y": 0.8650192762,
				"z": -2.2552706681,
				"element": "N" 
			},
			{
				"x": 2.9636212973,
				"y": 1.9133839144,
				"z": -1.5099152569,
				"element": "C" 
			},
			{
				"x": 3.4341475158,
				"y": 3.040649502,
				"z": -1.5987185779,
				"element": "O" 
			},
			{
				"x": 1.8392896352,
				"y": 1.5924575965,
				"z": -0.5648688062,
				"element": "C" 
			},
			{
				"x": 1.0805442835,
				"y": 2.663273872,
				"z": -0.07963652,
				"element": "C" 
			},
			{
				"x": 0.0224773125,
				"y": 2.4231798646,
				"z": 0.7965758979,
				"element": "C" 
			},
			{
				"x": -0.2769246279,
				"y": 1.1255960387,
				"z": 1.2033716308,
				"element": "C" 
			},
			{
				"x": 0.4818406124,
				"y": 0.0330005161,
				"z": 0.7449932399,
				"element": "C" 
			},
			{
				"x": 0.2236776501,
				"y": -1.3574865335,
				"z": 1.1556567338,
				"element": "C" 
			},
			{
				"x": -0.7672853412,
				"y": -1.8065845422,
				"z": 1.9353091662,
				"element": "C" 
			},
			{
				"x": 1.5397697191,
				"y": 0.2922073066,
				"z": -0.1411693427,
				"element": "C" 
			},
			{
				"x": 4.1179285263,
				"y": 1.1207627166,
				"z": -2.9699354987,
				"element": "H" 
			},
			{
				"x": 2.873489266,
				"y": 0.060122659,
				"z": -2.4397229058,
				"element": "H" 
			},
			{
				"x": 1.3393917813,
				"y": 3.6668239004,
				"z": -0.3989767804,
				"element": "H" 
			},
			{
				"x": -0.5701783324,
				"y": 3.2537811918,
				"z": 1.1688808841,
				"element": "H" 
			},
			{
				"x": -1.0994188789,
				"y": 0.960274075,
				"z": 1.8923031272,
				"element": "H" 
			},
			{
				"x": 0.934203441,
				"y": -2.0839044504,
				"z": 0.7618582887,
				"element": "H" 
			},
			{
				"x": -0.8553896146,
				"y": -2.8622072095,
				"z": 2.1698133818,
				"element": "H" 
			},
			{
				"x": -1.5218530257,
				"y": -1.154376352,
				"z": 2.3649918621,
				"element": "H" 
			},
			{
				"x": 2.1541326703,
				"y": -0.5418733424,
				"z": -0.4705398556,
				"element": "H" 
			}
		],
		 "valence_orbital": [ 
			{
				"type": "occ",
				"energy": -0.3044,
				"method": "rhf"
			},
			{
				"type": "occ",
				"energy": -0.27243,
				"method": "rhf"
			},
			{
				"type": "occ",
				"energy": -0.26091,
				"method": "rhf"
			},
			{
				"type": "occ",
				"energy": -0.25021,
				"method": "rhf"
			},
			{
				"type": "occ",
				"energy": -0.23064,
				"method": "rhf"
			},
			{
				"type": "unocc",
				"energy": -0.04623,
				"method": "rhf"
			},
			{
				"type": "unocc",
				"energy": -0.0282,
				"method": "rhf"
			},
			{
				"type": "unocc",
				"energy": 0.0332,
				"method": "rhf"
			},
			{
				"type": "unocc",
				"energy": 0.06911,
				"method": "rhf"
			},
			{
				"type": "unocc",
				"energy": 0.08712,
				"method": "rhf"
			}
		],
		"cosmo_sigma_profile": { 
			"-0.025": 0.0,
			"-0.024": 0.0,
			"-0.023": 0.0,
			"-0.022": 0.0,
			"-0.021": 0.0,
			"-0.02": 0.0,
			"-0.019": 0.0,
			"-0.018": 0.0,
			"-0.017": 0.0,
			"-0.016": 0.0,
			"-0.015": 0.0438709264786,
			"-0.014": 1.37129036177,
			"-0.013": 2.19055016454,
			"-0.012": 2.36843915005,
			"-0.011": 2.74513101606,
			"-0.01": 2.25291640917,
			"-0.009": 3.37079378278,
			"-0.008": 2.22708112693,
			"-0.007": 4.91452407448,
			"-0.006": 10.8998079728,
			"-0.005": 11.6439009531,
			"-0.004": 12.2180947894,
			"-0.003": 11.3823724902,
			"-0.002": 10.5040091953,
			"-0.001": 12.1087025693,
			"0.0": 12.1199423435,
			"0.001": 12.2346806756,
			"0.002": 13.455728835,
			"0.003": 16.6525319198,
			"0.004": 18.7819115227,
			"0.005": 7.50902441034,
			"0.006": 4.29881892524,
			"0.007": 2.51969304696,
			"0.008": 2.21732904023,
			"0.009": 1.04483164005,
			"0.01": 1.92492031336,
			"0.011": 1.79426926429,
			"0.012": 1.6659984659,
			"0.013": 4.50624767203,
			"0.014": 3.95174622236,
			"0.015": 0.253236677476,
			"0.016": 0.0,
			"0.017": 0.0,
			"0.018": 0.0,
			"0.019": 0.0,
			"0.02": 0.0,
			"0.021": 0.0,
			"0.022": 0.0,
			"0.023": 0.0,
			"0.024": 0.0,
			"0.025": 0.0
		}
	}
}
