{
	 "smiles": "[O-][N+](=O)C1=CC(Cl)=C(C=C1)C1=CC=C(O1)C=O", 
	 "Tm": 410.15, 
	 "num_atms": 23, 
	 "gaussian": { 
		 "optdone": 1, 
		 "sigma_profile": "yes", 
		 "theory": "DFT", 
		 "functional": "B3LYP", 
		 "basiset": "6-31G**", 
		 "properties": { 
			 "R2extent": 6641.4895, 
			 "electric_dipole_moment_norm": 2.68384549108, 
			 "electric_quadrupole_moment_norm": 29.5179486057, 
			 "total_energy": -1238.48931173, 
			 "HOMO_LUMO_gap": 0.13661, 
			 "cosmo_polarized_energy": -13.67, 
			 "cosmo_cavitation_energy": 31.85, 
			 "cosmo_dispersion_energy": -22.73, 
			 "cosmo_repulsion_energy": 1.74, 
			 "cosmo_total_nonelectrostatic_energy": 10.85, 
			 "SMD_solvation_energy": 8.98 
		},
		"coords": [
			{
				"x": -4.4956820768,
				"y": 2.7297576267,
				"z": 0.5810735291,
				"element": "O" 
			},
			{
				"x": -4.025312598,
				"y": 2.5596358538,
				"z": -0.542583354,
				"element": "N" 
			},
			{
				"x": -4.5189611717,
				"y": 2.9805181211,
				"z": -1.5871330089,
				"element": "O" 
			},
			{
				"x": -2.7731201723,
				"y": 1.7924999149,
				"z": -0.6410191221,
				"element": "C" 
			},
			{
				"x": -2.20961626,
				"y": 1.5920495972,
				"z": -1.8958034089,
				"element": "C" 
			},
			{
				"x": -1.0243993243,
				"y": 0.8680145956,
				"z": -1.9975762054,
				"element": "C" 
			},
			{
				"x": -0.3328830242,
				"y": 0.7119116844,
				"z": -3.5969941514,
				"element": "Cl" 
			},
			{
				"x": -0.398207143,
				"y": 0.3289754596,
				"z": -0.850086973,
				"element": "C" 
			},
			{
				"x": -1.0142136266,
				"y": 0.5630467053,
				"z": 0.3983459972,
				"element": "C" 
			},
			{
				"x": -2.1877472402,
				"y": 1.2915807329,
				"z": 0.5188671742,
				"element": "C" 
			},
			{
				"x": 0.8487413808,
				"y": -0.4326088846,
				"z": -0.8507875509,
				"element": "C" 
			},
			{
				"x": 1.8423730706,
				"y": -0.529231677,
				"z": 0.1050703557,
				"element": "C" 
			},
			{
				"x": 2.8040338642,
				"y": -1.436585246,
				"z": -0.3986074687,
				"element": "C" 
			},
			{
				"x": 2.3439208162,
				"y": -1.8451259721,
				"z": -1.6281975319,
				"element": "C" 
			},
			{
				"x": 1.1514851371,
				"y": -1.2324378219,
				"z": -1.9050771245,
				"element": "O" 
			},
			{
				"x": 2.8755436692,
				"y": -2.7638064466,
				"z": -2.627941949,
				"element": "C" 
			},
			{
				"x": 3.925091845,
				"y": -3.3663460479,
				"z": -2.4853668804,
				"element": "O" 
			},
			{
				"x": -2.6865676897,
				"y": 2.0075992238,
				"z": -2.7735530613,
				"element": "H" 
			},
			{
				"x": -0.5627002915,
				"y": 0.1335067289,
				"z": 1.2857550952,
				"element": "H" 
			},
			{
				"x": -2.6593715562,
				"y": 1.4623603131,
				"z": 1.4778744941,
				"element": "H" 
			},
			{
				"x": 1.8822528115,
				"y": 0.0126566102,
				"z": 1.038731199,
				"element": "H" 
			},
			{
				"x": 3.7266759845,
				"y": -1.7569056854,
				"z": 0.0622390869,
				"element": "H" 
			},
			{
				"x": 2.2444635954,
				"y": -2.871665386,
				"z": -3.533729141,
				"element": "H" 
			}
		],
		 "valence_orbital": [ 
			{
				"type": "occ",
				"energy": -0.31013,
				"method": "rhf"
			},
			{
				"type": "occ",
				"energy": -0.30447,
				"method": "rhf"
			},
			{
				"type": "occ",
				"energy": -0.28388,
				"method": "rhf"
			},
			{
				"type": "occ",
				"energy": -0.26971,
				"method": "rhf"
			},
			{
				"type": "occ",
				"energy": -0.24919,
				"method": "rhf"
			},
			{
				"type": "unocc",
				"energy": -0.11258,
				"method": "rhf"
			},
			{
				"type": "unocc",
				"energy": -0.07408,
				"method": "rhf"
			},
			{
				"type": "unocc",
				"energy": -0.0492,
				"method": "rhf"
			},
			{
				"type": "unocc",
				"energy": -0.02946,
				"method": "rhf"
			},
			{
				"type": "unocc",
				"energy": 0.00553,
				"method": "rhf"
			}
		],
		"cosmo_sigma_profile": { 
			"-0.025": 0.0,
			"-0.024": 0.0,
			"-0.023": 0.0,
			"-0.022": 0.0,
			"-0.021": 0.0,
			"-0.02": 0.0,
			"-0.019": 0.0,
			"-0.018": 0.0,
			"-0.017": 0.0,
			"-0.016": 0.0,
			"-0.015": 0.0,
			"-0.014": 0.0,
			"-0.013": 0.0,
			"-0.012": 0.0,
			"-0.011": 0.0,
			"-0.01": 0.139086915776,
			"-0.009": 5.14578329105,
			"-0.008": 8.76106380957,
			"-0.007": 12.2264259448,
			"-0.006": 11.7707384985,
			"-0.005": 11.5221432089,
			"-0.004": 12.3223005124,
			"-0.003": 17.8518875906,
			"-0.002": 24.7042537387,
			"-0.001": 30.8663404146,
			"0.0": 23.2284266273,
			"0.001": 15.9323031291,
			"0.002": 13.3513608196,
			"0.003": 12.2330802505,
			"0.004": 10.2547561396,
			"0.005": 6.27846842859,
			"0.006": 6.89206687322,
			"0.007": 10.9847372912,
			"0.008": 7.89505072472,
			"0.009": 5.44243938501,
			"0.01": 4.1501905396,
			"0.011": 4.56385196513,
			"0.012": 2.86042118621,
			"0.013": 0.543271853309,
			"0.014": 0.0,
			"0.015": 0.0,
			"0.016": 0.0,
			"0.017": 0.0,
			"0.018": 0.0,
			"0.019": 0.0,
			"0.02": 0.0,
			"0.021": 0.0,
			"0.022": 0.0,
			"0.023": 0.0,
			"0.024": 0.0,
			"0.025": 0.0
		}
	}
}
