{
	 "smiles": "CSC1=NC(N)=C(S1)C(C)=O", 
	 "Tm": 433.15, 
	 "num_atms": 19, 
	 "gaussian": { 
		 "optdone": 1, 
		 "sigma_profile": "yes", 
		 "theory": "DFT", 
		 "functional": "B3LYP", 
		 "basiset": "6-31G**", 
		 "properties": { 
			 "R2extent": 3108.9466, 
			 "electric_dipole_moment_norm": 5.45217628292, 
			 "electric_quadrupole_moment_norm": 10.8020756885, 
			 "total_energy": -1214.56245636, 
			 "HOMO_LUMO_gap": 0.15732, 
			 "cosmo_polarized_energy": -15.44, 
			 "cosmo_cavitation_energy": 26.25, 
			 "cosmo_dispersion_energy": -20.33, 
			 "cosmo_repulsion_energy": 1.56, 
			 "cosmo_total_nonelectrostatic_energy": 7.47, 
			 "SMD_solvation_energy": 3.83 
		},
		"coords": [
			{
				"x": 1.5830488447,
				"y": -0.1983134303,
				"z": 4.5511111069,
				"element": "C" 
			},
			{
				"x": 1.733466394,
				"y": 1.2699501698,
				"z": 3.476613582,
				"element": "S" 
			},
			{
				"x": 0.8157575501,
				"y": 0.7273178318,
				"z": 2.0785071045,
				"element": "C" 
			},
			{
				"x": 0.2289162715,
				"y": -0.441256184,
				"z": 2.0016778149,
				"element": "N" 
			},
			{
				"x": -0.4128229354,
				"y": -0.5829064837,
				"z": 0.7930623805,
				"element": "C" 
			},
			{
				"x": -1.0309887171,
				"y": -1.7923367206,
				"z": 0.5768483101,
				"element": "N" 
			},
			{
				"x": -0.3180177321,
				"y": 0.4998259621,
				"z": -0.0771334948,
				"element": "C" 
			},
			{
				"x": 0.6403511709,
				"y": 1.7690480141,
				"z": 0.6890879981,
				"element": "S" 
			},
			{
				"x": -0.80291871,
				"y": 0.7526890595,
				"z": -1.4237024491,
				"element": "C" 
			},
			{
				"x": -1.6110730886,
				"y": -0.3284773422,
				"z": -2.1300836405,
				"element": "C" 
			},
			{
				"x": -0.5644606594,
				"y": 1.8200631014,
				"z": -1.9859820687,
				"element": "O" 
			},
			{
				"x": 0.5366411158,
				"y": -0.3908656569,
				"z": 4.7881753298,
				"element": "H" 
			},
			{
				"x": 2.1376399048,
				"y": 0.0440541492,
				"z": 5.4597059839,
				"element": "H" 
			},
			{
				"x": 2.0187040242,
				"y": -1.0711489309,
				"z": 4.064666122,
				"element": "H" 
			},
			{
				"x": -1.7965617013,
				"y": -1.8261586552,
				"z": -0.0767283854,
				"element": "H" 
			},
			{
				"x": -1.1599107111,
				"y": -2.3382248546,
				"z": 1.4167256589,
				"element": "H" 
			},
			{
				"x": -2.5790774737,
				"y": -0.4787872748,
				"z": -1.6338270891,
				"element": "H" 
			},
			{
				"x": -1.0787981098,
				"y": -1.2859760902,
				"z": -2.1429393664,
				"element": "H" 
			},
			{
				"x": -1.7976954376,
				"y": -0.0027966647,
				"z": -3.1540848977,
				"element": "H" 
			}
		],
		 "valence_orbital": [ 
			{
				"type": "occ",
				"energy": -0.29627,
				"method": "rhf"
			},
			{
				"type": "occ",
				"energy": -0.28266,
				"method": "rhf"
			},
			{
				"type": "occ",
				"energy": -0.25975,
				"method": "rhf"
			},
			{
				"type": "occ",
				"energy": -0.24019,
				"method": "rhf"
			},
			{
				"type": "occ",
				"energy": -0.20894,
				"method": "rhf"
			},
			{
				"type": "unocc",
				"energy": -0.05162,
				"method": "rhf"
			},
			{
				"type": "unocc",
				"energy": 0.00097,
				"method": "rhf"
			},
			{
				"type": "unocc",
				"energy": 0.0129,
				"method": "rhf"
			},
			{
				"type": "unocc",
				"energy": 0.03453,
				"method": "rhf"
			},
			{
				"type": "unocc",
				"energy": 0.05575,
				"method": "rhf"
			}
		],
		"cosmo_sigma_profile": { 
			"-0.025": 0.0,
			"-0.024": 0.0,
			"-0.023": 0.0,
			"-0.022": 0.0,
			"-0.021": 0.0,
			"-0.02": 0.0,
			"-0.019": 0.0,
			"-0.018": 0.0,
			"-0.017": 0.0,
			"-0.016": 0.0,
			"-0.015": 0.00509931928182,
			"-0.014": 0.76937598424,
			"-0.013": 2.79338464481,
			"-0.012": 2.76058653569,
			"-0.011": 2.64514474165,
			"-0.01": 2.34243907642,
			"-0.009": 2.64820688973,
			"-0.008": 3.86546127104,
			"-0.007": 5.57761588674,
			"-0.006": 7.61657600837,
			"-0.005": 11.1557655869,
			"-0.004": 13.0108043012,
			"-0.003": 14.3927488945,
			"-0.002": 16.8236093886,
			"-0.001": 14.6546304875,
			"0.0": 15.791232323,
			"0.001": 15.0946776379,
			"0.002": 15.0475869824,
			"0.003": 14.3837151975,
			"0.004": 12.5826438674,
			"0.005": 8.28829113658,
			"0.006": 5.25247612337,
			"0.007": 5.46407278715,
			"0.008": 3.03767384247,
			"0.009": 2.10531512817,
			"0.01": 3.23790793762,
			"0.011": 1.66355887582,
			"0.012": 3.15798347853,
			"0.013": 4.74575015405,
			"0.014": 1.64869443315,
			"0.015": 0.203989298322,
			"0.016": 0.0,
			"0.017": 0.0,
			"0.018": 0.0,
			"0.019": 0.0,
			"0.02": 0.0,
			"0.021": 0.0,
			"0.022": 0.0,
			"0.023": 0.0,
			"0.024": 0.0,
			"0.025": 0.0
		}
	}
}
