{
	 "smiles": "O=C(CC#N)NCC1=CC=CO1", 
	 "Tm": 367.15, 
	 "num_atms": 20, 
	 "gaussian": { 
		 "optdone": 1, 
		 "sigma_profile": "yes", 
		 "theory": "DFT", 
		 "functional": "B3LYP", 
		 "basiset": "6-31G**", 
		 "properties": { 
			 "R2extent": 2995.6333, 
			 "electric_dipole_moment_norm": 6.27203313607, 
			 "electric_quadrupole_moment_norm": 19.4344069776, 
			 "total_energy": -569.579417891, 
			 "HOMO_LUMO_gap": 0.22562, 
			 "cosmo_polarized_energy": -19.44, 
			 "cosmo_cavitation_energy": 25.71, 
			 "cosmo_dispersion_energy": -17.58, 
			 "cosmo_repulsion_energy": 1.41, 
			 "cosmo_total_nonelectrostatic_energy": 9.54, 
			 "SMD_solvation_energy": 6.7 
		},
		"coords": [
			{
				"x": 0.0972983242,
				"y": -1.0401584339,
				"z": -4.2783865463,
				"element": "O" 
			},
			{
				"x": 0.5279301157,
				"y": -0.1757684649,
				"z": -3.5351003063,
				"element": "C" 
			},
			{
				"x": 0.0082556614,
				"y": 1.2743910201,
				"z": -3.6517456398,
				"element": "C" 
			},
			{
				"x": -1.4306406443,
				"y": 1.3456108256,
				"z": -3.3955837834,
				"element": "C" 
			},
			{
				"x": -2.5683544958,
				"y": 1.4267387799,
				"z": -3.184737936,
				"element": "N" 
			},
			{
				"x": 1.5216764924,
				"y": -0.4322476448,
				"z": -2.6262266948,
				"element": "N" 
			},
			{
				"x": 1.9668041496,
				"y": 0.3796193892,
				"z": -1.4889782638,
				"element": "C" 
			},
			{
				"x": 1.0506825475,
				"y": 0.3527801481,
				"z": -0.3085934065,
				"element": "C" 
			},
			{
				"x": 1.140672869,
				"y": -0.1595438201,
				"z": 0.9519382264,
				"element": "C" 
			},
			{
				"x": -0.1098610151,
				"y": 0.1241413496,
				"z": 1.5965981163,
				"element": "C" 
			},
			{
				"x": -0.8680321121,
				"y": 0.7831408669,
				"z": 0.6791366505,
				"element": "C" 
			},
			{
				"x": -0.1741472013,
				"y": 0.9358093211,
				"z": -0.4858202414,
				"element": "O" 
			},
			{
				"x": 0.5107038861,
				"y": 1.9821263243,
				"z": -2.9898877496,
				"element": "H" 
			},
			{
				"x": 0.1936728335,
				"y": 1.5843208121,
				"z": -4.6859829438,
				"element": "H" 
			},
			{
				"x": 1.7334030913,
				"y": -1.4222898059,
				"z": -2.5822264738,
				"element": "H" 
			},
			{
				"x": 2.9449308063,
				"y": 0.0021348834,
				"z": -1.1801867871,
				"element": "H" 
			},
			{
				"x": 2.1299620758,
				"y": 1.4080197412,
				"z": -1.8274012115,
				"element": "H" 
			},
			{
				"x": 1.9910196922,
				"y": -0.6770118073,
				"z": 1.3734375597,
				"element": "H" 
			},
			{
				"x": -0.4003893397,
				"y": -0.1341214245,
				"z": 2.604509778,
				"element": "H" 
			},
			{
				"x": -1.8676877366,
				"y": 1.1884079397,
				"z": 0.6840376532,
				"element": "H" 
			}
		],
		 "valence_orbital": [ 
			{
				"type": "occ",
				"energy": -0.32062,
				"method": "rhf"
			},
			{
				"type": "occ",
				"energy": -0.29093,
				"method": "rhf"
			},
			{
				"type": "occ",
				"energy": -0.27703,
				"method": "rhf"
			},
			{
				"type": "occ",
				"energy": -0.26445,
				"method": "rhf"
			},
			{
				"type": "occ",
				"energy": -0.23766,
				"method": "rhf"
			},
			{
				"type": "unocc",
				"energy": -0.01204,
				"method": "rhf"
			},
			{
				"type": "unocc",
				"energy": 0.00829,
				"method": "rhf"
			},
			{
				"type": "unocc",
				"energy": 0.03853,
				"method": "rhf"
			},
			{
				"type": "unocc",
				"energy": 0.04654,
				"method": "rhf"
			},
			{
				"type": "unocc",
				"energy": 0.0582,
				"method": "rhf"
			}
		],
		"cosmo_sigma_profile": { 
			"-0.025": 0.0,
			"-0.024": 0.0,
			"-0.023": 0.0,
			"-0.022": 0.0,
			"-0.021": 0.0,
			"-0.02": 0.0,
			"-0.019": 0.0,
			"-0.018": 0.0,
			"-0.017": 0.0,
			"-0.016": 0.0,
			"-0.015": 0.169611853519,
			"-0.014": 1.49049537147,
			"-0.013": 0.795812236148,
			"-0.012": 1.08775840176,
			"-0.011": 2.5353354726,
			"-0.01": 4.90635399998,
			"-0.009": 7.16913677565,
			"-0.008": 9.48251149288,
			"-0.007": 12.8709379257,
			"-0.006": 13.1807724109,
			"-0.005": 10.4356158779,
			"-0.004": 9.60341198074,
			"-0.003": 10.0609555581,
			"-0.002": 7.91919135055,
			"-0.001": 8.83409205166,
			"0.0": 8.98931273088,
			"0.001": 8.79664868459,
			"0.002": 10.9941816411,
			"0.003": 12.034202977,
			"0.004": 11.3487443907,
			"0.005": 11.7691930576,
			"0.006": 6.54799893577,
			"0.007": 4.01387564573,
			"0.008": 4.07402975521,
			"0.009": 4.45241254452,
			"0.01": 4.81559292305,
			"0.011": 4.38732142551,
			"0.012": 6.20749777153,
			"0.013": 6.66061808316,
			"0.014": 0.569717943076,
			"0.015": 0.0,
			"0.016": 0.0,
			"0.017": 0.0,
			"0.018": 0.0,
			"0.019": 0.0,
			"0.02": 0.0,
			"0.021": 0.0,
			"0.022": 0.0,
			"0.023": 0.0,
			"0.024": 0.0,
			"0.0": 0.0
		}
	}
}
