{
	 "smiles": "CC1=CC=C(NC(=O)NCC2CCCNC2)C=C1", 
	 "Tm": 435.15, 
	 "num_atms": 39, 
	 "gaussian": { 
		 "optdone": 1, 
		 "sigma_profile": "yes", 
		 "theory": "DFT", 
		 "functional": "B3LYP", 
		 "basiset": "6-31G**", 
		 "properties": { 
			 "R2extent": 6389.3141, 
			 "electric_dipole_moment_norm": 4.83011477089, 
			 "electric_quadrupole_moment_norm": 13.176606622, 
			 "total_energy": -785.653427971, 
			 "HOMO_LUMO_gap": 0.18737, 
			 "cosmo_polarized_energy": -15.78, 
			 "cosmo_cavitation_energy": 39.78, 
			 "cosmo_dispersion_energy": -27.91, 
			 "cosmo_repulsion_energy": 2.17, 
			 "cosmo_total_nonelectrostatic_energy": 14.05, 
			 "SMD_solvation_energy": 4.05 
		},
		"coords": [
			{
				"x": 5.0501502252,
				"y": -2.368079407,
				"z": -0.9626848121,
				"element": "C" 
			},
			{
				"x": 3.8956995773,
				"y": -1.9262015131,
				"z": -0.0949222214,
				"element": "C" 
			},
			{
				"x": 4.1016538695,
				"y": -1.5112770117,
				"z": 1.2288938414,
				"element": "C" 
			},
			{
				"x": 3.0497303689,
				"y": -1.063277224,
				"z": 2.0217292824,
				"element": "C" 
			},
			{
				"x": 1.7382940776,
				"y": -1.0359473781,
				"z": 1.5211640201,
				"element": "C" 
			},
			{
				"x": 0.6873563055,
				"y": -0.623006369,
				"z": 2.3675438595,
				"element": "N" 
			},
			{
				"x": -0.3856354142,
				"y": 0.2389317311,
				"z": 2.135788543,
				"element": "C" 
			},
			{
				"x": -1.1496373081,
				"y": 0.5178476328,
				"z": 3.0548503623,
				"element": "O" 
			},
			{
				"x": -0.5266130453,
				"y": 0.7199717867,
				"z": 0.8545420655,
				"element": "N" 
			},
			{
				"x": -1.478181326,
				"y": 1.79850093,
				"z": 0.571075869,
				"element": "C" 
			},
			{
				"x": -2.6941145356,
				"y": 1.3590787026,
				"z": -0.2627121265,
				"element": "C" 
			},
			{
				"x": -2.2993995549,
				"y": 0.9232708216,
				"z": -1.6893380202,
				"element": "C" 
			},
			{
				"x": -3.4580011153,
				"y": 0.1837986215,
				"z": -2.3684698677,
				"element": "C" 
			},
			{
				"x": -3.8062814812,
				"y": -1.1102228251,
				"z": -1.5774865979,
				"element": "C" 
			},
			{
				"x": -3.3878217341,
				"y": -1.0915239746,
				"z": -0.1700530627,
				"element": "N" 
			},
			{
				"x": -3.5248092762,
				"y": 0.2323759756,
				"z": 0.4380922393,
				"element": "C" 
			},
			{
				"x": 1.5151499193,
				"y": -1.4821745771,
				"z": 0.2096275601,
				"element": "C" 
			},
			{
				"x": 2.5843915134,
				"y": -1.902572466,
				"z": -0.5823320441,
				"element": "C" 
			},
			{
				"x": 5.5827887805,
				"y": -1.5079467481,
				"z": -1.387753043,
				"element": "H" 
			},
			{
				"x": 4.7081738665,
				"y": -2.985080994,
				"z": -1.7987147127,
				"element": "H" 
			},
			{
				"x": 5.7812184307,
				"y": -2.9494549159,
				"z": -0.3918423687,
				"element": "H" 
			},
			{
				"x": 5.1063234663,
				"y": -1.527901369,
				"z": 1.6444515706,
				"element": "H" 
			},
			{
				"x": 3.2382964242,
				"y": -0.7275986703,
				"z": 3.038125048,
				"element": "H" 
			},
			{
				"x": 0.7996775161,
				"y": -0.7890279427,
				"z": 3.3578572062,
				"element": "H" 
			},
			{
				"x": 0.2637174121,
				"y": 0.6190194182,
				"z": 0.2349438647,
				"element": "H" 
			},
			{
				"x": -1.8117837448,
				"y": 2.1880992089,
				"z": 1.5357461935,
				"element": "H" 
			},
			{
				"x": -0.9417695495,
				"y": 2.6025214406,
				"z": 0.0504063932,
				"element": "H" 
			},
			{
				"x": -3.3322626625,
				"y": 2.2505762111,
				"z": -0.3523994274,
				"element": "H" 
			},
			{
				"x": -1.4269394137,
				"y": 0.2560691779,
				"z": -1.6441228577,
				"element": "H" 
			},
			{
				"x": -1.9903193663,
				"y": 1.7957710523,
				"z": -2.2775513011,
				"element": "H" 
			},
			{
				"x": -3.2144591882,
				"y": -0.0584965196,
				"z": -3.4093982367,
				"element": "H" 
			},
			{
				"x": -4.3295645764,
				"y": 0.8503561653,
				"z": -2.403699974,
				"element": "H" 
			},
			{
				"x": -4.8902840521,
				"y": -1.2832355552,
				"z": -1.6185543773,
				"element": "H" 
			},
			{
				"x": -3.33643575,
				"y": -1.9804202739,
				"z": -2.0494548241,
				"element": "H" 
			},
			{
				"x": -2.4181699681,
				"y": -1.3846434153,
				"z": -0.0954470854,
				"element": "H" 
			},
			{
				"x": -4.5901127659,
				"y": 0.4942841043,
				"z": 0.4104095524,
				"element": "H" 
			},
			{
				"x": -3.2452716183,
				"y": 0.1608028279,
				"z": 1.4934691923,
				"element": "H" 
			},
			{
				"x": 0.5030823738,
				"y": -1.5363176269,
				"z": -0.1772533596,
				"element": "H" 
			},
			{
				"x": 2.3853633197,
				"y": -2.2434690319,
				"z": -1.5954263433,
				"element": "H" 
			}
		],
		 "valence_orbital": [ 
			{
				"type": "occ",
				"energy": -0.26172,
				"method": "rhf"
			},
			{
				"type": "occ",
				"energy": -0.25835,
				"method": "rhf"
			},
			{
				"type": "occ",
				"energy": -0.25015,
				"method": "rhf"
			},
			{
				"type": "occ",
				"energy": -0.22031,
				"method": "rhf"
			},
			{
				"type": "occ",
				"energy": -0.20279,
				"method": "rhf"
			},
			{
				"type": "unocc",
				"energy": -0.01542,
				"method": "rhf"
			},
			{
				"type": "unocc",
				"energy": -0.01027,
				"method": "rhf"
			},
			{
				"type": "unocc",
				"energy": 0.05392,
				"method": "rhf"
			},
			{
				"type": "unocc",
				"energy": 0.06837,
				"method": "rhf"
			},
			{
				"type": "unocc",
				"energy": 0.088,
				"method": "rhf"
			}
		],
		"cosmo_sigma_profile": { 
			"-0.025": 0.0,
			"-0.024": 0.0,
			"-0.023": 0.0,
			"-0.022": 0.0,
			"-0.021": 0.0,
			"-0.02": 0.0,
			"-0.019": 0.0,
			"-0.018": 0.0,
			"-0.017": 0.0,
			"-0.016": 0.0,
			"-0.015": 0.0,
			"-0.014": 0.266094432182,
			"-0.013": 1.13618682097,
			"-0.012": 0.827230599908,
			"-0.011": 1.76956505151,
			"-0.01": 1.68662189464,
			"-0.009": 2.61745298266,
			"-0.008": 2.58268374995,
			"-0.007": 4.14890591707,
			"-0.006": 7.83157350376,
			"-0.005": 13.0874756236,
			"-0.004": 22.6309446827,
			"-0.003": 27.4783792473,
			"-0.002": 41.8824419297,
			"-0.001": 41.7475979961,
			"0.0": 34.2544187376,
			"0.001": 26.0559740819,
			"0.002": 12.9879128201,
			"0.003": 11.8529606256,
			"0.004": 10.599677026,
			"0.005": 12.2535536331,
			"0.006": 7.11763311415,
			"0.007": 1.97867194158,
			"0.008": 2.49114979128,
			"0.009": 2.42758319837,
			"0.01": 1.67434979549,
			"0.011": 2.54038449994,
			"0.012": 1.69232992211,
			"0.013": 2.37596692476,
			"0.014": 5.25726136426,
			"0.015": 2.80106246051,
			"0.016": 0.925522357149,
			"0.017": 0.535840230183,
			"0.018": 0.513490449225,
			"0.019": 0.438419582114,
			"0.02": 0.0078266424292,
			"0.021": 0.0,
			"0.022": 0.0,
			"0.023": 0.0,
			"0.024": 0.0,
			"0.025": 0.0
		}
	}
}
