{
	 "smiles": "NC(=S)C1=CC=C(C=C1)C(O)=O", 
	 "Tm": 538.15, 
	 "num_atms": 19, 
	 "gaussian": { 
		 "optdone": 1, 
		 "sigma_profile": "yes", 
		 "theory": "DFT", 
		 "functional": "B3LYP", 
		 "basiset": "6-31G**", 
		 "properties": { 
			 "R2extent": 3200.5933, 
			 "electric_dipole_moment_norm": 2.77625185097, 
			 "electric_quadrupole_moment_norm": 29.6414350471, 
			 "total_energy": -912.473034606, 
			 "HOMO_LUMO_gap": 0.1347, 
			 "cosmo_polarized_energy": -23.43, 
			 "cosmo_cavitation_energy": 25.69, 
			 "cosmo_dispersion_energy": -19.4, 
			 "cosmo_repulsion_energy": 1.5, 
			 "cosmo_total_nonelectrostatic_energy": 7.79, 
			 "SMD_solvation_energy": 4.72 
		},
		"coords": [
			{
				"x": -0.5484073888,
				"y": 0.9171645356,
				"z": -2.9271220293,
				"element": "N" 
			},
			{
				"x": 0.4769003209,
				"y": 0.1988855614,
				"z": -2.4168404131,
				"element": "C" 
			},
			{
				"x": 1.822055888,
				"y": -0.1849874178,
				"z": -3.3230644452,
				"element": "S" 
			},
			{
				"x": 0.3245240016,
				"y": -0.1857064906,
				"z": -0.983266047,
				"element": "C" 
			},
			{
				"x": -0.3699372535,
				"y": 0.6386885262,
				"z": -0.0789355127,
				"element": "C" 
			},
			{
				"x": -0.5049801597,
				"y": 0.2722279178,
				"z": 1.2554722631,
				"element": "C" 
			},
			{
				"x": 0.0571412877,
				"y": -0.9225238786,
				"z": 1.7213248797,
				"element": "C" 
			},
			{
				"x": 0.7431190073,
				"y": -1.7508471946,
				"z": 0.8202432805,
				"element": "C" 
			},
			{
				"x": 0.8815559231,
				"y": -1.3844930051,
				"z": -0.5140017792,
				"element": "C" 
			},
			{
				"x": -0.1368623285,
				"y": -1.264636885,
				"z": 3.169736381,
				"element": "C" 
			},
			{
				"x": 0.729223043,
				"y": -2.1608398794,
				"z": 3.709831681,
				"element": "O" 
			},
			{
				"x": -1.0133695475,
				"y": -0.783264247,
				"z": 3.8481747145,
				"element": "O" 
			},
			{
				"x": -1.4358227169,
				"y": 0.9812843127,
				"z": -2.4503282867,
				"element": "H" 
			},
			{
				"x": -0.5028915613,
				"y": 1.1887735008,
				"z": -3.898614781,
				"element": "H" 
			},
			{
				"x": -0.7726595612,
				"y": 1.5909654171,
				"z": -0.4105534105,
				"element": "H" 
			},
			{
				"x": -1.0376153955,
				"y": 0.9031178391,
				"z": 1.9586530093,
				"element": "H" 
			},
			{
				"x": 1.144957707,
				"y": -2.7091558717,
				"z": 1.1402375216,
				"element": "H" 
			},
			{
				"x": 1.4151425191,
				"y": -2.0203558881,
				"z": -1.2113527319,
				"element": "H" 
			},
			{
				"x": 1.4636262153,
				"y": -2.3286968528,
				"z": 3.103205706,
				"element": "H" 
			}
		],
		 "valence_orbital": [ 
			{
				"type": "occ",
				"energy": -0.28843,
				"method": "rhf"
			},
			{
				"type": "occ",
				"energy": -0.28485,
				"method": "rhf"
			},
			{
				"type": "occ",
				"energy": -0.27707,
				"method": "rhf"
			},
			{
				"type": "occ",
				"energy": -0.24323,
				"method": "rhf"
			},
			{
				"type": "occ",
				"energy": -0.22066,
				"method": "rhf"
			},
			{
				"type": "unocc",
				"energy": -0.08596,
				"method": "rhf"
			},
			{
				"type": "unocc",
				"energy": -0.03503,
				"method": "rhf"
			},
			{
				"type": "unocc",
				"energy": -0.02364,
				"method": "rhf"
			},
			{
				"type": "unocc",
				"energy": 0.0458,
				"method": "rhf"
			},
			{
				"type": "unocc",
				"energy": 0.05354,
				"method": "rhf"
			}
		],
		"cosmo_sigma_profile": { 
			"-0.025": 0.0,
			"-0.024": 0.0,
			"-0.023": 0.0,
			"-0.022": 0.0,
			"-0.021": 0.0,
			"-0.02": 0.0,
			"-0.019": 0.391048649617,
			"-0.018": 0.836294224521,
			"-0.017": 0.961371810466,
			"-0.016": 1.65586231773,
			"-0.015": 3.43155643861,
			"-0.014": 3.32042651829,
			"-0.013": 4.29615099349,
			"-0.012": 3.72276403119,
			"-0.011": 3.34038541195,
			"-0.01": 3.35268125521,
			"-0.009": 3.48296428935,
			"-0.008": 4.86892398852,
			"-0.007": 6.12511096379,
			"-0.006": 8.70794891971,
			"-0.005": 8.10975303775,
			"-0.004": 8.315063959,
			"-0.003": 7.79434952459,
			"-0.002": 8.8593620103,
			"-0.001": 11.4247418009,
			"0.0": 10.8202819617,
			"0.001": 13.5078763728,
			"0.002": 15.4626200529,
			"0.003": 7.61964243111,
			"0.004": 5.95137136328,
			"0.005": 6.38819703361,
			"0.006": 6.31310280127,
			"0.007": 8.58855051583,
			"0.008": 10.4804578742,
			"0.009": 7.56823832401,
			"0.01": 9.10980441664,
			"0.011": 8.52024914421,
			"0.012": 4.25068065325,
			"0.013": 0.917820465202,
			"0.014": 0.0,
			"0.015": 0.0,
			"0.016": 0.0,
			"0.017": 0.0,
			"0.018": 0.0,
			"0.019": 0.0,
			"0.02": 0.0,
			"0.021": 0.0,
			"0.022": 0.0,
			"0.023": 0.0,
			"0.024": 0.0,
			"0.025": 0.0
		}
	}
}
