{
	 "smiles": "O=C(C=CC1=CC=CC=C1)C1=CC=CS1", 
	 "Tm": 350.15, 
	 "num_atms": 25, 
	 "gaussian": { 
		 "optdone": 1, 
		 "sigma_profile": "yes", 
		 "theory": "DFT", 
		 "functional": "B3LYP", 
		 "basiset": "6-31G**", 
		 "properties": { 
			 "R2extent": 3404.0357, 
			 "electric_dipole_moment_norm": 3.22255690097, 
			 "electric_quadrupole_moment_norm": 10.2727027661, 
			 "total_energy": -974.782749231, 
			 "HOMO_LUMO_gap": 0.16348, 
			 "cosmo_polarized_energy": -10.25, 
			 "cosmo_cavitation_energy": 31.09, 
			 "cosmo_dispersion_energy": -21.97, 
			 "cosmo_repulsion_energy": 1.69, 
			 "cosmo_total_nonelectrostatic_energy": 10.82, 
			 "SMD_solvation_energy": 5.84 
		},
		"coords": [
			{
				"x": 2.163298121,
				"y": -1.377649283,
				"z": -1.8977102987,
				"element": "O" 
			},
			{
				"x": 1.7355235297,
				"y": -0.9259004008,
				"z": -0.8400168391,
				"element": "C" 
			},
			{
				"x": 2.2254182643,
				"y": 0.3990011542,
				"z": -0.3331440041,
				"element": "C" 
			},
			{
				"x": 1.5231576152,
				"y": 1.529429163,
				"z": -0.1352309669,
				"element": "C" 
			},
			{
				"x": 0.0986192703,
				"y": 1.7953728417,
				"z": -0.3959896125,
				"element": "C" 
			},
			{
				"x": -0.633368762,
				"y": 1.122648285,
				"z": -1.3916420437,
				"element": "C" 
			},
			{
				"x": -1.9792317543,
				"y": 1.4159396052,
				"z": -1.6024131876,
				"element": "C" 
			},
			{
				"x": -2.6189601937,
				"y": 2.390626806,
				"z": -0.833252411,
				"element": "C" 
			},
			{
				"x": -1.8987727614,
				"y": 3.082693433,
				"z": 0.1430212017,
				"element": "C" 
			},
			{
				"x": -0.5520973404,
				"y": 2.7940327227,
				"z": 0.3510684594,
				"element": "C" 
			},
			{
				"x": 0.8016724117,
				"y": -1.7150387262,
				"z": -0.0131874307,
				"element": "C" 
			},
			{
				"x": 0.2530233014,
				"y": -2.9297289886,
				"z": -0.3702634945,
				"element": "C" 
			},
			{
				"x": -0.5739124124,
				"y": -3.487622287,
				"z": 0.6366527364,
				"element": "C" 
			},
			{
				"x": -0.6396851333,
				"y": -2.6963733156,
				"z": 1.7586566073,
				"element": "C" 
			},
			{
				"x": 0.3003763238,
				"y": -1.2590241359,
				"z": 1.5988732516,
				"element": "S" 
			},
			{
				"x": 3.3026139373,
				"y": 0.4277546139,
				"z": -0.1797305847,
				"element": "H" 
			},
			{
				"x": 2.0772408975,
				"y": 2.3836598838,
				"z": 0.2535850907,
				"element": "H" 
			},
			{
				"x": -0.1392572312,
				"y": 0.3921028486,
				"z": -2.0230054702,
				"element": "H" 
			},
			{
				"x": -2.5268920754,
				"y": 0.890070701,
				"z": -2.3791799703,
				"element": "H" 
			},
			{
				"x": -3.6670992302,
				"y": 2.6191818137,
				"z": -1.0032581539,
				"element": "H" 
			},
			{
				"x": -2.3847509471,
				"y": 3.8510187845,
				"z": 0.7375462679,
				"element": "H" 
			},
			{
				"x": 0.0063925237,
				"y": 3.3375261866,
				"z": 1.1090965756,
				"element": "H" 
			},
			{
				"x": 0.4593121214,
				"y": -3.3820496738,
				"z": -1.3327468852,
				"element": "H" 
			},
			{
				"x": -1.0967746054,
				"y": -4.4323474618,
				"z": 0.5414828828,
				"element": "H" 
			},
			{
				"x": -1.1911458703,
				"y": -2.8821245701,
				"z": 2.6706882796,
				"element": "H" 
			}
		],
		 "valence_orbital": [ 
			{
				"type": "occ",
				"energy": -0.26089,
				"method": "rhf"
			},
			{
				"type": "occ",
				"energy": -0.25506,
				"method": "rhf"
			},
			{
				"type": "occ",
				"energy": -0.25432,
				"method": "rhf"
			},
			{
				"type": "occ",
				"energy": -0.24194,
				"method": "rhf"
			},
			{
				"type": "occ",
				"energy": -0.22941,
				"method": "rhf"
			},
			{
				"type": "unocc",
				"energy": -0.06593,
				"method": "rhf"
			},
			{
				"type": "unocc",
				"energy": -0.03706,
				"method": "rhf"
			},
			{
				"type": "unocc",
				"energy": -0.00403,
				"method": "rhf"
			},
			{
				"type": "unocc",
				"energy": 0.02176,
				"method": "rhf"
			},
			{
				"type": "unocc",
				"energy": 0.02846,
				"method": "rhf"
			}
		],
		"cosmo_sigma_profile": { 
			"-0.025": 0.0,
			"-0.024": 0.0,
			"-0.023": 0.0,
			"-0.022": 0.0,
			"-0.021": 0.0,
			"-0.02": 0.0,
			"-0.019": 0.0,
			"-0.018": 0.0,
			"-0.017": 0.0,
			"-0.016": 0.0,
			"-0.015": 0.0,
			"-0.014": 0.0,
			"-0.013": 0.0,
			"-0.012": 0.0,
			"-0.011": 0.0,
			"-0.01": 0.230111838177,
			"-0.009": 2.0455120243,
			"-0.008": 2.66947491828,
			"-0.007": 8.46938374831,
			"-0.006": 16.5762451952,
			"-0.005": 20.7480082761,
			"-0.004": 19.814847599,
			"-0.003": 16.6263943189,
			"-0.002": 13.990969037,
			"-0.001": 15.412506745,
			"0.0": 13.7266777518,
			"0.001": 18.0060931285,
			"0.002": 27.0590548485,
			"0.003": 25.5330256054,
			"0.004": 18.0862119694,
			"0.005": 13.7569528536,
			"0.006": 3.00142336021,
			"0.007": 1.37605270661,
			"0.008": 1.64455636813,
			"0.009": 1.66552036452,
			"0.01": 2.3016211986,
			"0.011": 2.15222851619,
			"0.012": 5.06641644338,
			"0.013": 1.61017078371,
			"0.014": 0.231911236178,
			"0.015": 0.0,
			"0.016": 0.0,
			"0.017": 0.0,
			"0.018": 0.0,
			"0.019": 0.0,
			"0.02": 0.0,
			"0.021": 0.0,
			"0.022": 0.0,
			"0.023": 0.0,
			"0.024": 0.0,
			"0.025": 0.0
		}
	}
}
