{
	 "smiles": "CCCCCC(O)C=C", 
	 "Tm": 224.15, 
	 "num_atms": 25, 
	 "gaussian": { 
		 "optdone": 1, 
		 "sigma_profile": "yes", 
		 "theory": "DFT", 
		 "functional": "B3LYP", 
		 "basiset": "6-31G**", 
		 "properties": { 
			 "R2extent": 2304.4273, 
			 "electric_dipole_moment_norm": 1.24293688899, 
			 "electric_quadrupole_moment_norm": 3.79089485478, 
			 "total_energy": -389.702371058, 
			 "HOMO_LUMO_gap": 0.27153, 
			 "cosmo_polarized_energy": -5.88, 
			 "cosmo_cavitation_energy": 26.67, 
			 "cosmo_dispersion_energy": -18.73, 
			 "cosmo_repulsion_energy": 1.57, 
			 "cosmo_total_nonelectrostatic_energy": 9.51, 
			 "SMD_solvation_energy": 4.89 
		},
		"coords": [
			{
				"x": 2.8498408652,
				"y": 1.1485630683,
				"z": -2.5209760507,
				"element": "C" 
			},
			{
				"x": 2.1163072416,
				"y": 1.6199295706,
				"z": -1.2607882732,
				"element": "C" 
			},
			{
				"x": 0.6795169041,
				"y": 1.0867751205,
				"z": -1.1696829598,
				"element": "C" 
			},
			{
				"x": -0.1314182906,
				"y": 1.6048040241,
				"z": 0.0303722301,
				"element": "C" 
			},
			{
				"x": 0.3972945467,
				"y": 1.2174264636,
				"z": 1.4223417435,
				"element": "C" 
			},
			{
				"x": 0.3858886796,
				"y": -0.292620247,
				"z": 1.7101054827,
				"element": "C" 
			},
			{
				"x": -0.9607192775,
				"y": -0.7330420301,
				"z": 1.5720188562,
				"element": "O" 
			},
			{
				"x": 0.9643310861,
				"y": -0.5965320764,
				"z": 3.0733024334,
				"element": "C" 
			},
			{
				"x": 0.2585045616,
				"y": -1.0229425213,
				"z": 4.1203339428,
				"element": "C" 
			},
			{
				"x": 2.914005669,
				"y": 0.0547937925,
				"z": -2.5563218965,
				"element": "H" 
			},
			{
				"x": 2.3287859935,
				"y": 1.4760064225,
				"z": -3.4279731508,
				"element": "H" 
			},
			{
				"x": 3.8707853696,
				"y": 1.5423186932,
				"z": -2.5634376372,
				"element": "H" 
			},
			{
				"x": 2.6887554827,
				"y": 1.3115921643,
				"z": -0.3763096819,
				"element": "H" 
			},
			{
				"x": 2.0946338228,
				"y": 2.718408084,
				"z": -1.23859288,
				"element": "H" 
			},
			{
				"x": 0.698823134,
				"y": -0.0117887035,
				"z": -1.1626902403,
				"element": "H" 
			},
			{
				"x": 0.1446574923,
				"y": 1.363701975,
				"z": -2.0884948905,
				"element": "H" 
			},
			{
				"x": -0.1797350882,
				"y": 2.700975782,
				"z": -0.0225341537,
				"element": "H" 
			},
			{
				"x": -1.1613710697,
				"y": 1.2430420965,
				"z": -0.0545304337,
				"element": "H" 
			},
			{
				"x": -0.2203552296,
				"y": 1.6987753038,
				"z": 2.189766326,
				"element": "H" 
			},
			{
				"x": 1.4191976613,
				"y": 1.5885450848,
				"z": 1.566855833,
				"element": "H" 
			},
			{
				"x": 1.0233116429,
				"y": -0.793368996,
				"z": 0.9592532653,
				"element": "H" 
			},
			{
				"x": -0.9726179394,
				"y": -1.6862446046,
				"z": 1.7303855764,
				"element": "H" 
			},
			{
				"x": 2.0390353602,
				"y": -0.4385828014,
				"z": 3.1675111457,
				"element": "H" 
			},
			{
				"x": 0.7252408554,
				"y": -1.2237567546,
				"z": 5.0795314597,
				"element": "H" 
			},
			{
				"x": -0.8151994737,
				"y": -1.1703789108,
				"z": 4.0491539536,
				"element": "H" 
			}
		],
		 "valence_orbital": [ 
			{
				"type": "occ",
				"energy": -0.31567,
				"method": "rhf"
			},
			{
				"type": "occ",
				"energy": -0.31222,
				"method": "rhf"
			},
			{
				"type": "occ",
				"energy": -0.30611,
				"method": "rhf"
			},
			{
				"type": "occ",
				"energy": -0.27388,
				"method": "rhf"
			},
			{
				"type": "occ",
				"energy": -0.25204,
				"method": "rhf"
			},
			{
				"type": "unocc",
				"energy": 0.01949,
				"method": "rhf"
			},
			{
				"type": "unocc",
				"energy": 0.07294,
				"method": "rhf"
			},
			{
				"type": "unocc",
				"energy": 0.09661,
				"method": "rhf"
			},
			{
				"type": "unocc",
				"energy": 0.11624,
				"method": "rhf"
			},
			{
				"type": "unocc",
				"energy": 0.11824,
				"method": "rhf"
			}
		],
		"cosmo_sigma_profile": { 
			"-0.025": 0.0,
			"-0.024": 0.0,
			"-0.023": 0.0,
			"-0.022": 0.0,
			"-0.021": 0.0,
			"-0.02": 0.0,
			"-0.019": 0.0,
			"-0.018": 0.0,
			"-0.017": 0.0,
			"-0.016": 0.0375949049045,
			"-0.015": 0.482122080199,
			"-0.014": 0.951521574191,
			"-0.013": 0.636426518964,
			"-0.012": 0.386831424334,
			"-0.011": 0.994934830917,
			"-0.01": 0.888049091185,
			"-0.009": 0.427854652713,
			"-0.008": 1.09184885514,
			"-0.007": 0.944355814693,
			"-0.006": 1.3741654129,
			"-0.005": 4.48279947459,
			"-0.004": 8.20488415799,
			"-0.003": 16.0968618452,
			"-0.002": 26.8670540903,
			"-0.001": 29.4228390281,
			"0.0": 34.7039524299,
			"0.001": 30.0451823024,
			"0.002": 15.5206754713,
			"0.003": 5.73140238288,
			"0.004": 4.80703891835,
			"0.005": 4.9851938151,
			"0.006": 4.37062451665,
			"0.007": 2.91778485756,
			"0.008": 1.66458015744,
			"0.009": 1.65430671553,
			"0.01": 1.45171820966,
			"0.011": 0.997631041743,
			"0.012": 1.90331185924,
			"0.013": 0.95504757304,
			"0.014": 0.737592114978,
			"0.015": 0.0794552739046,
			"0.016": 0.0,
			"0.017": 0.0,
			"0.018": 0.0,
			"0.019": 0.0,
			"0.02": 0.0,
			"0.021": 0.0,
			"0.022": 0.0,
			"0.023": 0.0,
			"0.024": 0.0,
			"0.025": 0.0
		}
	}
}
