{
	 "smiles": "NC1=CC=C(CN2C=NC=N2)C=C1", 
	 "Tm": 398.15, 
	 "num_atms": 23, 
	 "gaussian": { 
		 "optdone": 1, 
		 "sigma_profile": "yes", 
		 "theory": "DFT", 
		 "functional": "B3LYP", 
		 "basiset": "6-31G**", 
		 "properties": { 
			 "R2extent": 3202.4223, 
			 "electric_dipole_moment_norm": 3.95391725508, 
			 "electric_quadrupole_moment_norm": 20.0707869101, 
			 "total_energy": -567.976531676, 
			 "HOMO_LUMO_gap": 0.20284, 
			 "cosmo_polarized_energy": -15.53, 
			 "cosmo_cavitation_energy": 27.46, 
			 "cosmo_dispersion_energy": -19.82, 
			 "cosmo_repulsion_energy": 1.56, 
			 "cosmo_total_nonelectrostatic_energy": 9.2, 
			 "SMD_solvation_energy": 2.61 
		},
		"coords": [
			{
				"x": 2.4460281239,
				"y": -1.0625675798,
				"z": -3.5619758659,
				"element": "N" 
			},
			{
				"x": 1.7169179124,
				"y": -0.7019484603,
				"z": -2.4300982511,
				"element": "C" 
			},
			{
				"x": 2.1002888032,
				"y": 0.4069765486,
				"z": -1.6518319882,
				"element": "C" 
			},
			{
				"x": 1.3412982922,
				"y": 0.8029057745,
				"z": -0.5577019308,
				"element": "C" 
			},
			{
				"x": 0.1788197964,
				"y": 0.1073779937,
				"z": -0.1951302699,
				"element": "C" 
			},
			{
				"x": -0.6499607663,
				"y": 0.545052079,
				"z": 0.9937895514,
				"element": "C" 
			},
			{
				"x": 0.0692273757,
				"y": 0.4914859733,
				"z": 2.2687727275,
				"element": "N" 
			},
			{
				"x": 0.1986327115,
				"y": -0.5291555659,
				"z": 3.1450973722,
				"element": "C" 
			},
			{
				"x": 1.0028301381,
				"y": -0.190701676,
				"z": 4.1407200553,
				"element": "N" 
			},
			{
				"x": 1.3558958936,
				"y": 1.0814129638,
				"z": 3.8079916966,
				"element": "C" 
			},
			{
				"x": 0.8212998532,
				"y": 1.543550362,
				"z": 2.6848854231,
				"element": "N" 
			},
			{
				"x": -0.1984546453,
				"y": -0.9953477255,
				"z": -0.9673758026,
				"element": "C" 
			},
			{
				"x": 0.5515394272,
				"y": -1.3982384874,
				"z": -2.0698845076,
				"element": "C" 
			},
			{
				"x": 3.4134284152,
				"y": -0.7706605902,
				"z": -3.56585069,
				"element": "H" 
			},
			{
				"x": 2.3368964894,
				"y": -2.0212703786,
				"z": -3.862036342,
				"element": "H" 
			},
			{
				"x": 2.9978053438,
				"y": 0.9606169667,
				"z": -1.9168112699,
				"element": "H" 
			},
			{
				"x": 1.6592012657,
				"y": 1.6541049952,
				"z": 0.0378171911,
				"element": "H" 
			},
			{
				"x": -0.9869017009,
				"y": 1.5801279383,
				"z": 0.8893605857,
				"element": "H" 
			},
			{
				"x": -1.5377488834,
				"y": -0.086376189,
				"z": 1.0915359523,
				"element": "H" 
			},
			{
				"x": -0.3062800639,
				"y": -1.4775672953,
				"z": 3.0223049608,
				"element": "H" 
			},
			{
				"x": 2.0170700064,
				"y": 1.6887506896,
				"z": 4.4109637079,
				"element": "H" 
			},
			{
				"x": -1.0952819552,
				"y": -1.553799266,
				"z": -0.7077055649,
				"element": "H" 
			},
			{
				"x": 0.2348481671,
				"y": -2.2562290706,
				"z": -2.6577367411,
				"element": "H" 
			}
		],
		 "valence_orbital": [ 
			{
				"type": "occ",
				"energy": -0.28095,
				"method": "rhf"
			},
			{
				"type": "occ",
				"energy": -0.26797,
				"method": "rhf"
			},
			{
				"type": "occ",
				"energy": -0.25699,
				"method": "rhf"
			},
			{
				"type": "occ",
				"energy": -0.25237,
				"method": "rhf"
			},
			{
				"type": "occ",
				"energy": -0.20709,
				"method": "rhf"
			},
			{
				"type": "unocc",
				"energy": -0.00425,
				"method": "rhf"
			},
			{
				"type": "unocc",
				"energy": 0.00249,
				"method": "rhf"
			},
			{
				"type": "unocc",
				"energy": 0.01784,
				"method": "rhf"
			},
			{
				"type": "unocc",
				"energy": 0.05986,
				"method": "rhf"
			},
			{
				"type": "unocc",
				"energy": 0.07641,
				"method": "rhf"
			}
		],
		"cosmo_sigma_profile": { 
			"-0.025": 0.0,
			"-0.024": 0.0,
			"-0.023": 0.0,
			"-0.022": 0.0,
			"-0.021": 0.0,
			"-0.02": 0.0,
			"-0.019": 0.0,
			"-0.018": 0.0,
			"-0.017": 0.0,
			"-0.016": 0.0,
			"-0.015": 0.0,
			"-0.014": 0.0,
			"-0.013": 0.465287423652,
			"-0.012": 2.28423398196,
			"-0.011": 2.8163306966,
			"-0.01": 5.24508869948,
			"-0.009": 6.1092493581,
			"-0.008": 7.44435101052,
			"-0.007": 10.1941874698,
			"-0.006": 12.5050827044,
			"-0.005": 11.667590327,
			"-0.004": 14.4317121535,
			"-0.003": 12.2912540817,
			"-0.002": 10.6360554699,
			"-0.001": 10.9584011163,
			"0.0": 10.5730513101,
			"0.001": 10.9344040411,
			"0.002": 12.0696406737,
			"0.003": 13.2612822376,
			"0.004": 12.0258989917,
			"0.005": 10.9659492538,
			"0.006": 12.6484815959,
			"0.007": 7.44120733226,
			"0.008": 3.06022566338,
			"0.009": 3.20531161847,
			"0.01": 2.77348900227,
			"0.011": 2.44798745468,
			"0.012": 2.96494318157,
			"0.013": 2.46730120526,
			"0.014": 2.31581252044,
			"0.015": 1.34339817218,
			"0.016": 1.08443553667,
			"0.017": 0.490134979108,
			"0.018": 0.0,
			"0.019": 0.0,
			"0.02": 0.0,
			"0.021": 0.0,
			"0.022": 0.0,
			"0.023": 0.0,
			"0.024": 0.0,
			"0.025": 0.0
		}
	}
}
