{
	 "smiles": "CCOC(=O)C1=C(N)C2=C(C=CC=C2)N=N1", 
	 "Tm": 513.15, 
	 "num_atms": 27, 
	 "gaussian": { 
		 "optdone": 1, 
		 "sigma_profile": "yes", 
		 "theory": "DFT", 
		 "functional": "B3LYP", 
		 "basiset": "6-31G**", 
		 "properties": { 
			 "R2extent": 4447.6203, 
			 "electric_dipole_moment_norm": 4.21091803055, 
			 "electric_quadrupole_moment_norm": 19.842327491, 
			 "total_energy": -740.49767861, 
			 "HOMO_LUMO_gap": 0.15861, 
			 "cosmo_polarized_energy": -18.39, 
			 "cosmo_cavitation_energy": 30.95, 
			 "cosmo_dispersion_energy": -23.34, 
			 "cosmo_repulsion_energy": 1.81, 
			 "cosmo_total_nonelectrostatic_energy": 9.42, 
			 "SMD_solvation_energy": 4.23 
		},
		"coords": [
			{
				"x": 3.2574947254,
				"y": -0.0241192681,
				"z": -3.0316804118,
				"element": "C" 
			},
			{
				"x": 1.8233875972,
				"y": 0.4594903244,
				"z": -3.1881162895,
				"element": "C" 
			},
			{
				"x": 0.9747905035,
				"y": -0.0633010299,
				"z": -2.1392370461,
				"element": "O" 
			},
			{
				"x": 0.9436823392,
				"y": 0.6210244015,
				"z": -0.9905069008,
				"element": "C" 
			},
			{
				"x": 1.5910707094,
				"y": 1.6542175857,
				"z": -0.8110440498,
				"element": "O" 
			},
			{
				"x": 0.0570316113,
				"y": 0.0237727216,
				"z": 0.0371537821,
				"element": "C" 
			},
			{
				"x": -0.0890694915,
				"y": 0.6424710934,
				"z": 1.3019333755,
				"element": "C" 
			},
			{
				"x": 0.553806484,
				"y": 1.7809858502,
				"z": 1.6275682984,
				"element": "N" 
			},
			{
				"x": -0.9722326394,
				"y": -0.0225123882,
				"z": 2.2207314235,
				"element": "C" 
			},
			{
				"x": -1.5887104696,
				"y": -1.2142736363,
				"z": 1.757385133,
				"element": "C" 
			},
			{
				"x": -2.4708527258,
				"y": -1.9218018554,
				"z": 2.6108063609,
				"element": "C" 
			},
			{
				"x": -2.7312796789,
				"y": -1.4597018851,
				"z": 3.8817936036,
				"element": "C" 
			},
			{
				"x": -2.1186514055,
				"y": -0.272151563,
				"z": 4.3458228443,
				"element": "C" 
			},
			{
				"x": -1.2562464789,
				"y": 0.4329794842,
				"z": 3.5321685543,
				"element": "C" 
			},
			{
				"x": -1.3813451278,
				"y": -1.7421725214,
				"z": 0.5016973916,
				"element": "N" 
			},
			{
				"x": -0.5829209204,
				"y": -1.1258345529,
				"z": -0.3103816683,
				"element": "N" 
			},
			{
				"x": 3.7031296266,
				"y": 0.3790547658,
				"z": -2.1190442847,
				"element": "H" 
			},
			{
				"x": 3.2959048788,
				"y": -1.1164812093,
				"z": -2.9929852257,
				"element": "H" 
			},
			{
				"x": 3.8569241742,
				"y": 0.3122188057,
				"z": -3.8843610071,
				"element": "H" 
			},
			{
				"x": 1.7705746696,
				"y": 1.5507435252,
				"z": -3.1806502527,
				"element": "H" 
			},
			{
				"x": 1.3720240758,
				"y": 0.0792015984,
				"z": -4.1072384237,
				"element": "H" 
			},
			{
				"x": 1.1623407453,
				"y": 2.1854352518,
				"z": 0.9216492078,
				"element": "H" 
			},
			{
				"x": 0.445184739,
				"y": 2.2045186313,
				"z": 2.532433198,
				"element": "H" 
			},
			{
				"x": -2.9217461729,
				"y": -2.8278762609,
				"z": 2.2198259681,
				"element": "H" 
			},
			{
				"x": -3.4080250738,
				"y": -2.0043243584,
				"z": 4.5334637205,
				"element": "H" 
			},
			{
				"x": -2.3292593417,
				"y": 0.0862068332,
				"z": 5.3489097241,
				"element": "H" 
			},
			{
				"x": -0.8007073531,
				"y": 1.3421296563,
				"z": 3.9141029743,
				"element": "H" 
			}
		],
		 "valence_orbital": [ 
			{
				"type": "occ",
				"energy": -0.27563,
				"method": "rhf"
			},
			{
				"type": "occ",
				"energy": -0.27414,
				"method": "rhf"
			},
			{
				"type": "occ",
				"energy": -0.2685,
				"method": "rhf"
			},
			{
				"type": "occ",
				"energy": -0.22219,
				"method": "rhf"
			},
			{
				"type": "occ",
				"energy": -0.21703,
				"method": "rhf"
			},
			{
				"type": "unocc",
				"energy": -0.05842,
				"method": "rhf"
			},
			{
				"type": "unocc",
				"energy": -0.05027,
				"method": "rhf"
			},
			{
				"type": "unocc",
				"energy": 0.01776,
				"method": "rhf"
			},
			{
				"type": "unocc",
				"energy": 0.02666,
				"method": "rhf"
			},
			{
				"type": "unocc",
				"energy": 0.06078,
				"method": "rhf"
			}
		],
		"cosmo_sigma_profile": { 
			"-0.025": 0.0,
			"-0.024": 0.0,
			"-0.023": 0.0,
			"-0.022": 0.0,
			"-0.021": 0.0,
			"-0.02": 0.0,
			"-0.019": 0.0,
			"-0.018": 0.0,
			"-0.017": 0.0,
			"-0.016": 0.705064235213,
			"-0.015": 1.28933180371,
			"-0.014": 1.40688042441,
			"-0.013": 1.41264734947,
			"-0.012": 1.10650370281,
			"-0.011": 0.998370680392,
			"-0.01": 2.91507544903,
			"-0.009": 1.76048922694,
			"-0.008": 1.88150695981,
			"-0.007": 6.05978009822,
			"-0.006": 10.8952249752,
			"-0.005": 13.862033803,
			"-0.004": 17.841456317,
			"-0.003": 18.3160045059,
			"-0.002": 22.4414974887,
			"-0.001": 23.9054917448,
			"0.0": 22.1647318468,
			"0.001": 19.7816186797,
			"0.002": 18.6700976924,
			"0.003": 14.9891020619,
			"0.004": 6.24767860475,
			"0.005": 3.72660203349,
			"0.006": 3.76613864251,
			"0.007": 4.00318307681,
			"0.008": 2.73329493709,
			"0.009": 3.96203061031,
			"0.01": 3.27456827948,
			"0.011": 3.28971876872,
			"0.012": 3.11942747032,
			"0.013": 2.02683128202,
			"0.014": 3.21280818869,
			"0.015": 2.3127038727,
			"0.016": 2.35256176463,
			"0.017": 1.04416041614,
			"0.018": 0.142169333961,
			"0.019": 0.0,
			"0.02": 0.0,
			"0.021": 0.0,
			"0.022": 0.0,
			"0.023": 0.0,
			"0.024": 0.0,
			"0.025": 0.0
		}
	}
}
