{
	 "smiles": "COC1=CC(C=C)=CC=C1O", 
	 "Tm": 300.15, 
	 "num_atms": 21, 
	 "gaussian": { 
		 "optdone": 1, 
		 "sigma_profile": "yes", 
		 "theory": "DFT", 
		 "functional": "B3LYP", 
		 "basiset": "6-31G**", 
		 "properties": { 
			 "R2extent": 2064.053, 
			 "electric_dipole_moment_norm": 2.46523105205, 
			 "electric_quadrupole_moment_norm": 9.81336181235, 
			 "total_energy": -499.399041203, 
			 "HOMO_LUMO_gap": 0.17471, 
			 "cosmo_polarized_energy": -8.0, 
			 "cosmo_cavitation_energy": 24.77, 
			 "cosmo_dispersion_energy": -18.15, 
			 "cosmo_repulsion_energy": 1.45, 
			 "cosmo_total_nonelectrostatic_energy": 8.07, 
			 "SMD_solvation_energy": 5.98 
		},
		"coords": [
			{
				"x": 2.5202593578,
				"y": -0.3446419774,
				"z": 1.7076200163,
				"element": "C" 
			},
			{
				"x": 2.329296014,
				"y": 0.5340027022,
				"z": 0.6096678777,
				"element": "O" 
			},
			{
				"x": 1.2258112219,
				"y": 0.3469419716,
				"z": -0.1897940014,
				"element": "C" 
			},
			{
				"x": 0.2606439207,
				"y": -0.6353922285,
				"z": -0.0321983215,
				"element": "C" 
			},
			{
				"x": -0.8283070954,
				"y": -0.7179604643,
				"z": -0.9282524346,
				"element": "C" 
			},
			{
				"x": -1.8780766477,
				"y": -1.738651006,
				"z": -0.8068292764,
				"element": "C" 
			},
			{
				"x": -1.9851303698,
				"y": -2.7089091586,
				"z": 0.1108275218,
				"element": "C" 
			},
			{
				"x": -0.9005286395,
				"y": 0.2156554841,
				"z": -1.970827998,
				"element": "C" 
			},
			{
				"x": 0.0699129902,
				"y": 1.2065225323,
				"z": -2.1326373285,
				"element": "C" 
			},
			{
				"x": 1.1377494316,
				"y": 1.2810003657,
				"z": -1.247131453,
				"element": "C" 
			},
			{
				"x": 2.0910937499,
				"y": 2.2401297527,
				"z": -1.3909880549,
				"element": "O" 
			},
			{
				"x": 3.4385835979,
				"y": -0.0222798404,
				"z": 2.2005938869,
				"element": "H" 
			},
			{
				"x": 2.6329490908,
				"y": -1.3833215813,
				"z": 1.3726449683,
				"element": "H" 
			},
			{
				"x": 1.6858845945,
				"y": -0.2835356845,
				"z": 2.4174349543,
				"element": "H" 
			},
			{
				"x": 0.3394969066,
				"y": -1.3453544212,
				"z": 0.7822860526,
				"element": "H" 
			},
			{
				"x": -2.6522880813,
				"y": -1.6745244472,
				"z": -1.5712162636,
				"element": "H" 
			},
			{
				"x": -1.2620242607,
				"y": -2.8498331342,
				"z": 0.9092463267,
				"element": "H" 
			},
			{
				"x": -2.8165618162,
				"y": -3.4055421303,
				"z": 0.0901291036,
				"element": "H" 
			},
			{
				"x": -1.7310709522,
				"y": 0.1673352487,
				"z": -2.6695957747,
				"element": "H" 
			},
			{
				"x": 0.0122735697,
				"y": 1.9285161464,
				"z": -2.9404210056,
				"element": "H" 
			},
			{
				"x": 2.7327334173,
				"y": 2.1103418702,
				"z": -0.6754587961,
				"element": "H" 
			}
		],
		 "valence_orbital": [ 
			{
				"type": "occ",
				"energy": -0.33737,
				"method": "rhf"
			},
			{
				"type": "occ",
				"energy": -0.33426,
				"method": "rhf"
			},
			{
				"type": "occ",
				"energy": -0.27048,
				"method": "rhf"
			},
			{
				"type": "occ",
				"energy": -0.23447,
				"method": "rhf"
			},
			{
				"type": "occ",
				"energy": -0.19636,
				"method": "rhf"
			},
			{
				"type": "unocc",
				"energy": -0.02165,
				"method": "rhf"
			},
			{
				"type": "unocc",
				"energy": 0.01139,
				"method": "rhf"
			},
			{
				"type": "unocc",
				"energy": 0.07295,
				"method": "rhf"
			},
			{
				"type": "unocc",
				"energy": 0.07772,
				"method": "rhf"
			},
			{
				"type": "unocc",
				"energy": 0.09026,
				"method": "rhf"
			}
		],
		"cosmo_sigma_profile": { 
			"-0.025": 0.0,
			"-0.024": 0.0,
			"-0.023": 0.0,
			"-0.022": 0.0,
			"-0.021": 0.0,
			"-0.02": 0.0,
			"-0.019": 0.0,
			"-0.018": 0.0,
			"-0.017": 0.0,
			"-0.016": 0.0,
			"-0.015": 0.0,
			"-0.014": 0.465926378463,
			"-0.013": 0.74869837113,
			"-0.012": 0.638144013651,
			"-0.011": 0.358080259756,
			"-0.01": 0.287402142183,
			"-0.009": 1.09888466103,
			"-0.008": 0.534758402817,
			"-0.007": 2.65673697933,
			"-0.006": 10.7512851858,
			"-0.005": 19.0130830197,
			"-0.004": 18.9843065991,
			"-0.003": 17.5853189358,
			"-0.002": 11.5369469721,
			"-0.001": 11.8065969365,
			"0.0": 9.28521562312,
			"0.001": 11.1466080912,
			"0.002": 12.6903521885,
			"0.003": 14.2723917581,
			"0.004": 15.8635359964,
			"0.005": 17.2057620396,
			"0.006": 9.06374433616,
			"0.007": 3.38453081818,
			"0.008": 1.47266480954,
			"0.009": 1.85804107783,
			"0.01": 1.94373344198,
			"0.011": 1.60261440988,
			"0.012": 0.889893120287,
			"0.013": 0.0,
			"0.014": 0.0,
			"0.015": 0.0,
			"0.016": 0.0,
			"0.017": 0.0,
			"0.018": 0.0,
			"0.019": 0.0,
			"0.02": 0.0,
			"0.021": 0.0,
			"0.022": 0.0,
			"0.023": 0.0,
			"0.024": 0.0,
			"0.025": 0.0
		}
	}
}
