{
	 "smiles": "CCC1(CCC(=O)NC1=O)C1=CC=CC=C1", 
	 "Tm": 358.95, 
	 "num_atms": 31, 
	 "gaussian": { 
		 "optdone": 1, 
		 "sigma_profile": "yes", 
		 "theory": "DFT", 
		 "functional": "B3LYP", 
		 "basiset": "6-31G**", 
		 "properties": { 
			 "R2extent": 3705.2799, 
			 "electric_dipole_moment_norm": 3.31135035144, 
			 "electric_quadrupole_moment_norm": 10.6096360734, 
			 "total_energy": -709.657284513, 
			 "HOMO_LUMO_gap": 0.21912, 
			 "cosmo_polarized_energy": -15.32, 
			 "cosmo_cavitation_energy": 32.27, 
			 "cosmo_dispersion_energy": -23.04, 
			 "cosmo_repulsion_energy": 1.78, 
			 "cosmo_total_nonelectrostatic_energy": 11.01, 
			 "SMD_solvation_energy": 6.51 
		},
		"coords": [
			{
				"x": 0.9736613177,
				"y": -1.79927774,
				"z": -1.4844375508,
				"element": "C" 
			},
			{
				"x": -0.2665032282,
				"y": -0.9321714647,
				"z": -1.225208241,
				"element": "C" 
			},
			{
				"x": -0.1823750112,
				"y": 0.053861242,
				"z": -0.0137378105,
				"element": "C" 
			},
			{
				"x": 1.1230115723,
				"y": 0.8920788703,
				"z": -0.0656599958,
				"element": "C" 
			},
			{
				"x": 1.2026674366,
				"y": 1.8029746972,
				"z": -1.294367768,
				"element": "C" 
			},
			{
				"x": -0.0199522223,
				"y": 2.6855292001,
				"z": -1.4461014155,
				"element": "C" 
			},
			{
				"x": -0.0291152887,
				"y": 3.7509973347,
				"z": -2.032259046,
				"element": "O" 
			},
			{
				"x": -1.1885179368,
				"y": 2.1809350133,
				"z": -0.8733799742,
				"element": "N" 
			},
			{
				"x": -1.4050200237,
				"y": 0.9790135908,
				"z": -0.1902254449,
				"element": "C" 
			},
			{
				"x": -2.5264520167,
				"y": 0.6935190716,
				"z": 0.1811331172,
				"element": "O" 
			},
			{
				"x": -0.3074058399,
				"y": -0.6400218579,
				"z": 1.3556903518,
				"element": "C" 
			},
			{
				"x": -0.4771754672,
				"y": -2.0216678906,
				"z": 1.5054705514,
				"element": "C" 
			},
			{
				"x": -0.5781904384,
				"y": -2.6053180609,
				"z": 2.7713754016,
				"element": "C" 
			},
			{
				"x": -0.5220184878,
				"y": -1.8176118056,
				"z": 3.9185943184,
				"element": "C" 
			},
			{
				"x": -0.3733029012,
				"y": -0.4356576673,
				"z": 3.7875325428,
				"element": "C" 
			},
			{
				"x": -0.2676738943,
				"y": 0.1400621406,
				"z": 2.5236826822,
				"element": "C" 
			},
			{
				"x": 1.301014118,
				"y": -2.3385709814,
				"z": -0.5918923293,
				"element": "H" 
			},
			{
				"x": 0.7528906736,
				"y": -2.5391057761,
				"z": -2.2604910279,
				"element": "H" 
			},
			{
				"x": 1.8208806063,
				"y": -1.204117869,
				"z": -1.8389238992,
				"element": "H" 
			},
			{
				"x": -0.4740378376,
				"y": -0.3508754422,
				"z": -2.1313642624,
				"element": "H" 
			},
			{
				"x": -1.1512978326,
				"y": -1.5591605916,
				"z": -1.0809580271,
				"element": "H" 
			},
			{
				"x": 1.9851959326,
				"y": 0.2208824808,
				"z": -0.0338192575,
				"element": "H" 
			},
			{
				"x": 1.19040739,
				"y": 1.5117928025,
				"z": 0.8332141746,
				"element": "H" 
			},
			{
				"x": 2.0733153702,
				"y": 2.4623893987,
				"z": -1.2548253633,
				"element": "H" 
			},
			{
				"x": 1.2975183637,
				"y": 1.2193031099,
				"z": -2.218977921,
				"element": "H" 
			},
			{
				"x": -2.0182532475,
				"y": 2.7520343062,
				"z": -1.0031214677,
				"element": "H" 
			},
			{
				"x": -0.5430547146,
				"y": -2.6659807439,
				"z": 0.6373002098,
				"element": "H" 
			},
			{
				"x": -0.7066062838,
				"y": -3.6809270327,
				"z": 2.8533928677,
				"element": "H" 
			},
			{
				"x": -0.6021749765,
				"y": -2.2710197144,
				"z": 4.9022021052,
				"element": "H" 
			},
			{
				"x": -0.3451774023,
				"y": 0.1974301242,
				"z": 4.669808344,
				"element": "H" 
			},
			{
				"x": -0.1750577294,
				"y": 1.2202812553,
				"z": 2.4514541357,
				"element": "H" 
			}
		],
		 "valence_orbital": [ 
			{
				"type": "occ",
				"energy": -0.28476,
				"method": "rhf"
			},
			{
				"type": "occ",
				"energy": -0.27781,
				"method": "rhf"
			},
			{
				"type": "occ",
				"energy": -0.25886,
				"method": "rhf"
			},
			{
				"type": "occ",
				"energy": -0.25254,
				"method": "rhf"
			},
			{
				"type": "occ",
				"energy": -0.24709,
				"method": "rhf"
			},
			{
				"type": "unocc",
				"energy": -0.02797,
				"method": "rhf"
			},
			{
				"type": "unocc",
				"energy": -0.00799,
				"method": "rhf"
			},
			{
				"type": "unocc",
				"energy": -0.00374,
				"method": "rhf"
			},
			{
				"type": "unocc",
				"energy": 0.03186,
				"method": "rhf"
			},
			{
				"type": "unocc",
				"energy": 0.07079,
				"method": "rhf"
			}
		],
		"cosmo_sigma_profile": { 
			"-0.025": 0.0,
			"-0.024": 0.0,
			"-0.023": 0.0,
			"-0.022": 0.0,
			"-0.021": 0.0,
			"-0.02": 0.0,
			"-0.019": 0.0,
			"-0.018": 0.0,
			"-0.017": 0.0,
			"-0.016": 0.0,
			"-0.015": 0.46871214836,
			"-0.014": 1.04912633303,
			"-0.013": 1.03586152172,
			"-0.012": 0.293475373808,
			"-0.011": 0.688914782626,
			"-0.01": 0.723455658578,
			"-0.009": 1.03971599485,
			"-0.008": 1.96916736501,
			"-0.007": 6.30688944262,
			"-0.006": 13.1497052809,
			"-0.005": 21.7534196447,
			"-0.004": 26.4998531792,
			"-0.003": 26.4101410761,
			"-0.002": 23.9117090045,
			"-0.001": 22.5491311275,
			"0.0": 14.9343663704,
			"0.001": 12.0382460435,
			"0.002": 8.19946560889,
			"0.003": 8.55128246467,
			"0.004": 8.40650997272,
			"0.005": 10.2187754846,
			"0.006": 8.8831895811,
			"0.007": 3.64724174191,
			"0.008": 3.16307701734,
			"0.009": 3.32144640687,
			"0.01": 3.95163711025,
			"0.011": 6.72442440021,
			"0.012": 10.40931151,
			"0.013": 3.95353490202,
			"0.014": 0.0983474416833,
			"0.015": 0.0,
			"0.016": 0.0,
			"0.017": 0.0,
			"0.018": 0.0,
			"0.019": 0.0,
			"0.02": 0.0,
			"0.021": 0.0,
			"0.022": 0.0,
			"0.023": 0.0,
			"0.024": 0.0,
			"0.025": 0.0
		}
	}
}
