{
	 "smiles": "O=C1N(CCCCC#C)C(=O)C2=CC=CC=C12", 
	 "Tm": 343.15, 
	 "num_atms": 30, 
	 "gaussian": { 
		 "optdone": 1, 
		 "sigma_profile": "yes", 
		 "theory": "DFT", 
		 "functional": "B3LYP", 
		 "basiset": "6-31G**", 
		 "properties": { 
			 "R2extent": 5531.0623, 
			 "electric_dipole_moment_norm": 2.41179758272, 
			 "electric_quadrupole_moment_norm": 16.4309683449, 
			 "total_energy": -746.489560477, 
			 "HOMO_LUMO_gap": 0.17754, 
			 "cosmo_polarized_energy": -12.95, 
			 "cosmo_cavitation_energy": 34.98, 
			 "cosmo_dispersion_energy": -23.69, 
			 "cosmo_repulsion_energy": 1.82, 
			 "cosmo_total_nonelectrostatic_energy": 13.12, 
			 "SMD_solvation_energy": 7.82 
		},
		"coords": [
			{
				"x": -1.3737289722,
				"y": 1.4507858715,
				"z": 2.2144423204,
				"element": "O" 
			},
			{
				"x": -1.7192692846,
				"y": 0.941481001,
				"z": 1.1662557357,
				"element": "C" 
			},
			{
				"x": -1.4282124408,
				"y": -0.3712960006,
				"z": 0.7582483487,
				"element": "N" 
			},
			{
				"x": -0.7031384228,
				"y": -1.3551107486,
				"z": 1.5619079126,
				"element": "C" 
			},
			{
				"x": 0.7544259373,
				"y": -1.5434893371,
				"z": 1.1082193369,
				"element": "C" 
			},
			{
				"x": 1.6982228674,
				"y": -0.3777867779,
				"z": 1.4695192888,
				"element": "C" 
			},
			{
				"x": 2.4703372954,
				"y": -0.5732181078,
				"z": 2.7953617316,
				"element": "C" 
			},
			{
				"x": 1.6331442079,
				"y": -0.7455083497,
				"z": 3.9844004295,
				"element": "C" 
			},
			{
				"x": 0.955516323,
				"y": -0.8950166762,
				"z": 4.9736441369,
				"element": "C" 
			},
			{
				"x": -1.976895791,
				"y": -0.6658586771,
				"z": -0.5004943885,
				"element": "C" 
			},
			{
				"x": -1.8862855046,
				"y": -1.7358364773,
				"z": -1.0714098767,
				"element": "O" 
			},
			{
				"x": -2.6702748756,
				"y": 0.5802389402,
				"z": -0.9450284389,
				"element": "C" 
			},
			{
				"x": -3.3722317033,
				"y": 0.8498234397,
				"z": -2.1107891925,
				"element": "C" 
			},
			{
				"x": -3.9245118209,
				"y": 2.13050807,
				"z": -2.248696862,
				"element": "C" 
			},
			{
				"x": -3.7709464226,
				"y": 3.0961942649,
				"z": -1.2454352938,
				"element": "C" 
			},
			{
				"x": -3.0600421158,
				"y": 2.8128889939,
				"z": -0.0713116364,
				"element": "C" 
			},
			{
				"x": -2.5174737875,
				"y": 1.5424469257,
				"z": 0.0548078872,
				"element": "C" 
			},
			{
				"x": -1.2429546095,
				"y": -2.3020238267,
				"z": 1.4703586943,
				"element": "H" 
			},
			{
				"x": -0.7502702126,
				"y": -1.0175151739,
				"z": 2.5987043894,
				"element": "H" 
			},
			{
				"x": 0.749304077,
				"y": -1.709578088,
				"z": 0.0259686224,
				"element": "H" 
			},
			{
				"x": 1.1267459062,
				"y": -2.4737581124,
				"z": 1.5556672238,
				"element": "H" 
			},
			{
				"x": 1.1372983299,
				"y": 0.5614104514,
				"z": 1.5185572542,
				"element": "H" 
			},
			{
				"x": 2.448932454,
				"y": -0.2544100104,
				"z": 0.6807086605,
				"element": "H" 
			},
			{
				"x": 3.1336268936,
				"y": 0.2874997537,
				"z": 2.9513810327,
				"element": "H" 
			},
			{
				"x": 3.1270330942,
				"y": -1.4489256548,
				"z": 2.6979845426,
				"element": "H" 
			},
			{
				"x": 0.3544700718,
				"y": -1.010393396,
				"z": 5.8454457711,
				"element": "H" 
			},
			{
				"x": -3.4854521764,
				"y": 0.0934489565,
				"z": -2.8807534242,
				"element": "H" 
			},
			{
				"x": -4.4812381659,
				"y": 2.3805774517,
				"z": -3.1469413052,
				"element": "H" 
			},
			{
				"x": -4.2112095477,
				"y": 4.0794980912,
				"z": -1.3817887051,
				"element": "H" 
			},
			{
				"x": -2.935221604,
				"y": 3.5523232032,
				"z": 0.7131658037,
				"element": "H" 
			}
		],
		 "valence_orbital": [ 
			{
				"type": "occ",
				"energy": -0.27618,
				"method": "rhf"
			},
			{
				"type": "occ",
				"energy": -0.26517,
				"method": "rhf"
			},
			{
				"type": "occ",
				"energy": -0.26281,
				"method": "rhf"
			},
			{
				"type": "occ",
				"energy": -0.25807,
				"method": "rhf"
			},
			{
				"type": "occ",
				"energy": -0.25672,
				"method": "rhf"
			},
			{
				"type": "unocc",
				"energy": -0.07918,
				"method": "rhf"
			},
			{
				"type": "unocc",
				"energy": -0.03895,
				"method": "rhf"
			},
			{
				"type": "unocc",
				"energy": 0.03002,
				"method": "rhf"
			},
			{
				"type": "unocc",
				"energy": 0.05197,
				"method": "rhf"
			},
			{
				"type": "unocc",
				"energy": 0.0609,
				"method": "rhf"
			}
		],
		"cosmo_sigma_profile": { 
			"-0.025": 0.0,
			"-0.024": 0.0,
			"-0.023": 0.0,
			"-0.022": 0.0,
			"-0.021": 0.0,
			"-0.02": 0.0,
			"-0.019": 0.0,
			"-0.018": 0.0,
			"-0.017": 0.0,
			"-0.016": 0.0,
			"-0.015": 0.0,
			"-0.014": 0.0,
			"-0.013": 0.0,
			"-0.012": 0.0169883634832,
			"-0.011": 0.823352541311,
			"-0.01": 1.49965211035,
			"-0.009": 0.793095268954,
			"-0.008": 2.63915931124,
			"-0.007": 9.24380675279,
			"-0.006": 11.1990431474,
			"-0.005": 18.470931399,
			"-0.004": 23.6652664661,
			"-0.003": 30.1616207204,
			"-0.002": 28.655756913,
			"-0.001": 21.9560049554,
			"0.0": 22.8506857208,
			"0.001": 17.7172257654,
			"0.002": 19.7410848916,
			"0.003": 10.6429037165,
			"0.004": 7.82963353614,
			"0.005": 7.64013744085,
			"0.006": 7.6980643794,
			"0.007": 9.90036779193,
			"0.008": 5.21258418891,
			"0.009": 3.38888555302,
			"0.01": 5.13116017883,
			"0.011": 8.60070502695,
			"0.012": 4.29643991297,
			"0.013": 0.0282972041985,
			"0.014": 0.0,
			"0.015": 0.0,
			"0.016": 0.0,
			"0.017": 0.0,
			"0.018": 0.0,
			"0.019": 0.0,
			"0.02": 0.0,
			"0.021": 0.0,
			"0.022": 0.0,
			"0.023": 0.0,
			"0.024": 0.0,
			"0.025": 0.0
		}
	}
}
