{
	 "smiles": "OC(=O)C1=CON=C1", 
	 "Tm": 373.15, 
	 "num_atms": 11, 
	 "gaussian": { 
		 "optdone": 1, 
		 "sigma_profile": "yes", 
		 "theory": "DFT", 
		 "functional": "B3LYP", 
		 "basiset": "6-31G**", 
		 "properties": { 
			 "R2extent": 1323.318, 
			 "electric_dipole_moment_norm": 3.4073870869, 
			 "electric_quadrupole_moment_norm": 12.0992276431, 
			 "total_energy": -434.593664171, 
			 "HOMO_LUMO_gap": 0.23283, 
			 "cosmo_polarized_energy": -17.75, 
			 "cosmo_cavitation_energy": 16.55, 
			 "cosmo_dispersion_energy": -12.32, 
			 "cosmo_repulsion_energy": 1.02, 
			 "cosmo_total_nonelectrostatic_energy": 5.25, 
			 "SMD_solvation_energy": 4.87 
		},
		"coords": [
			{
				"x": 0.0428870685,
				"y": -0.3361549683,
				"z": 1.4452630522,
				"element": "O" 
			},
			{
				"x": 0.0318657151,
				"y": 0.0790149381,
				"z": 0.1516233692,
				"element": "C" 
			},
			{
				"x": -1.0153634343,
				"y": 0.2942833951,
				"z": -0.4097248614,
				"element": "O" 
			},
			{
				"x": 1.3385652666,
				"y": 0.2526296959,
				"z": -0.5205680344,
				"element": "C" 
			},
			{
				"x": 2.6306836306,
				"y": 0.0777066708,
				"z": -0.1074301416,
				"element": "C" 
			},
			{
				"x": 3.4821749871,
				"y": 0.3676341236,
				"z": -1.0957050764,
				"element": "O" 
			},
			{
				"x": 2.7512663125,
				"y": 0.7575524714,
				"z": -2.2343688982,
				"element": "N" 
			},
			{
				"x": 1.4976702286,
				"y": 0.6830534682,
				"z": -1.8749313018,
				"element": "C" 
			},
			{
				"x": 0.9441909612,
				"y": -0.4691259592,
				"z": 1.7685760848,
				"element": "H" 
			},
			{
				"x": 3.0898199622,
				"y": -0.2358340667,
				"z": 0.8209573531,
				"element": "H" 
			},
			{
				"x": 0.7125393018,
				"y": 0.933940231,
				"z": -2.5755915455,
				"element": "H" 
			}
		],
		 "valence_orbital": [ 
			{
				"type": "occ",
				"energy": -0.33935,
				"method": "rhf"
			},
			{
				"type": "occ",
				"energy": -0.33181,
				"method": "rhf"
			},
			{
				"type": "occ",
				"energy": -0.32337,
				"method": "rhf"
			},
			{
				"type": "occ",
				"energy": -0.29647,
				"method": "rhf"
			},
			{
				"type": "occ",
				"energy": -0.29283,
				"method": "rhf"
			},
			{
				"type": "unocc",
				"energy": -0.06,
				"method": "rhf"
			},
			{
				"type": "unocc",
				"energy": -0.02147,
				"method": "rhf"
			},
			{
				"type": "unocc",
				"energy": 0.02775,
				"method": "rhf"
			},
			{
				"type": "unocc",
				"energy": 0.07819,
				"method": "rhf"
			},
			{
				"type": "unocc",
				"energy": 0.0938,
				"method": "rhf"
			}
		],
		"cosmo_sigma_profile": { 
			"-0.025": 0.0,
			"-0.024": 0.0,
			"-0.023": 0.0,
			"-0.022": 0.0,
			"-0.021": 0.519595220056,
			"-0.02": 1.22572413297,
			"-0.019": 1.0018981979,
			"-0.018": 1.67877519215,
			"-0.017": 0.935065106084,
			"-0.016": 1.12486426284,
			"-0.015": 0.78379477607,
			"-0.014": 1.04983259063,
			"-0.013": 2.7260216223,
			"-0.012": 2.55022866628,
			"-0.011": 2.20201513116,
			"-0.01": 2.66878235509,
			"-0.009": 3.03003850099,
			"-0.008": 3.38530972702,
			"-0.007": 2.56766882488,
			"-0.006": 3.43024801121,
			"-0.005": 3.92331931708,
			"-0.004": 5.15032893371,
			"-0.003": 7.290361022,
			"-0.002": 11.2180686318,
			"-0.001": 6.58307127302,
			"0.0": 5.08606032939,
			"0.001": 4.425155664,
			"0.002": 3.72001112539,
			"0.003": 4.28855851827,
			"0.004": 4.05025118544,
			"0.005": 6.21005813757,
			"0.006": 6.82151596068,
			"0.007": 5.22991727538,
			"0.008": 3.94711549421,
			"0.009": 5.53329146487,
			"0.01": 6.96282838666,
			"0.011": 6.76817851054,
			"0.012": 4.28687935278,
			"0.013": 1.23729349437,
			"0.014": 0.00918865827638,
			"0.015": 0.0,
			"0.016": 0.0,
			"0.017": 0.0,
			"0.018": 0.0,
			"0.019": 0.0,
			"0.02": 0.0,
			"0.021": 0.0,
			"0.022": 0.0,
			"0.023": 0.0,
			"0.024": 0.0,
			"0.025": 0.0
		}
	}
}
