{
	 "smiles": "OC(=O)C(CC=CC1=CC=CC=C1)NC(=O)OCC1C2=C(C=CC=C2)C2=C1C=CC=C2", 
	 "Tm": 415.15, 
	 "num_atms": 54, 
	 "gaussian": { 
		 "optdone": 1, 
		 "sigma_profile": "yes", 
		 "theory": "DFT", 
		 "functional": "B3LYP", 
		 "basiset": "6-31G**", 
		 "properties": { 
			 "R2extent": 11412.1377, 
			 "electric_dipole_moment_norm": 3.10472788824, 
			 "electric_quadrupole_moment_norm": 11.9905201122, 
			 "total_energy": -1360.30334059, 
			 "HOMO_LUMO_gap": 0.18062, 
			 "cosmo_polarized_energy": -24.26, 
			 "cosmo_cavitation_energy": 57.98, 
			 "cosmo_dispersion_energy": -34.23, 
			 "cosmo_repulsion_energy": 2.53, 
			 "cosmo_total_nonelectrostatic_energy": 26.28, 
			 "SMD_solvation_energy": 9.84 
		},
		"coords": [
			{
				"x": -0.0196661431,
				"y": 3.2506927702,
				"z": -0.1704460988,
				"element": "O" 
			},
			{
				"x": 0.1474041857,
				"y": 3.034323594,
				"z": -1.4906157142,
				"element": "C" 
			},
			{
				"x": 1.2157286908,
				"y": 3.1430660725,
				"z": -2.0477498515,
				"element": "O" 
			},
			{
				"x": -1.1871155811,
				"y": 2.7685384084,
				"z": -2.2041119953,
				"element": "C" 
			},
			{
				"x": -2.409701652,
				"y": 2.4902998301,
				"z": -1.298176822,
				"element": "C" 
			},
			{
				"x": -2.4605109155,
				"y": 1.1930502518,
				"z": -0.5416354957,
				"element": "C" 
			},
			{
				"x": -2.7518728942,
				"y": 1.1352379055,
				"z": 0.7667910272,
				"element": "C" 
			},
			{
				"x": -3.0043731405,
				"y": -0.062150453,
				"z": 1.5827390927,
				"element": "C" 
			},
			{
				"x": -2.9639707355,
				"y": 0.045172284,
				"z": 2.9846871058,
				"element": "C" 
			},
			{
				"x": -3.2304198363,
				"y": -1.0515645078,
				"z": 3.8024466191,
				"element": "C" 
			},
			{
				"x": -3.5593801996,
				"y": -2.2840039013,
				"z": 3.2345016897,
				"element": "C" 
			},
			{
				"x": -3.6156235143,
				"y": -2.4046007125,
				"z": 1.8426601647,
				"element": "C" 
			},
			{
				"x": -3.3413998612,
				"y": -1.3095229892,
				"z": 1.0261710278,
				"element": "C" 
			},
			{
				"x": -1.0422868815,
				"y": 1.825233256,
				"z": -3.3072819484,
				"element": "N" 
			},
			{
				"x": -0.1411649197,
				"y": 0.8007982077,
				"z": -3.4473590653,
				"element": "C" 
			},
			{
				"x": 0.1064084964,
				"y": 0.281073987,
				"z": -4.5201940204,
				"element": "O" 
			},
			{
				"x": 0.3972699193,
				"y": 0.4315056538,
				"z": -2.256829612,
				"element": "O" 
			},
			{
				"x": 1.6617438537,
				"y": -0.2566272022,
				"z": -2.3412241426,
				"element": "C" 
			},
			{
				"x": 1.6835068467,
				"y": -1.50677882,
				"z": -1.4646278388,
				"element": "C" 
			},
			{
				"x": 0.5787374867,
				"y": -2.5160653072,
				"z": -1.7350896736,
				"element": "C" 
			},
			{
				"x": -0.0448933766,
				"y": -2.8850862212,
				"z": -0.5259117264,
				"element": "C" 
			},
			{
				"x": -1.0613075535,
				"y": -3.8433371149,
				"z": -0.5213215142,
				"element": "C" 
			},
			{
				"x": -1.4591664955,
				"y": -4.410323844,
				"z": -1.7346585294,
				"element": "C" 
			},
			{
				"x": -0.854342429,
				"y": -4.0245268147,
				"z": -2.9358792235,
				"element": "C" 
			},
			{
				"x": 0.1732207389,
				"y": -3.0738227265,
				"z": -2.9423630804,
				"element": "C" 
			},
			{
				"x": 0.5595203242,
				"y": -2.1144238413,
				"z": 0.5708920637,
				"element": "C" 
			},
			{
				"x": 1.5624133339,
				"y": -1.282396775,
				"z": 0.0344554804,
				"element": "C" 
			},
			{
				"x": 2.3021887675,
				"y": -0.4433952119,
				"z": 0.8596785475,
				"element": "C" 
			},
			{
				"x": 2.029712228,
				"y": -0.4304784348,
				"z": 2.2327702287,
				"element": "C" 
			},
			{
				"x": 1.0304451231,
				"y": -1.2519780766,
				"z": 2.7653985872,
				"element": "C" 
			},
			{
				"x": 0.2889687738,
				"y": -2.1012237535,
				"z": 1.9409547027,
				"element": "C" 
			},
			{
				"x": 0.8624091752,
				"y": 3.4547793506,
				"z": 0.1833277185,
				"element": "H" 
			},
			{
				"x": -1.3924408584,
				"y": 3.7394552025,
				"z": -2.678199306,
				"element": "H" 
			},
			{
				"x": -3.2794328352,
				"y": 2.5290374357,
				"z": -1.9713374167,
				"element": "H" 
			},
			{
				"x": -2.5178565325,
				"y": 3.3293744898,
				"z": -0.6036758168,
				"element": "H" 
			},
			{
				"x": -2.3194630241,
				"y": 0.2821890239,
				"z": -1.1199580043,
				"element": "H" 
			},
			{
				"x": -2.834679117,
				"y": 2.0782477745,
				"z": 1.3085388414,
				"element": "H" 
			},
			{
				"x": -2.7162889296,
				"y": 1.0041476312,
				"z": 3.433199073,
				"element": "H" 
			},
			{
				"x": -3.1901876483,
				"y": -0.9420570453,
				"z": 4.8827090954,
				"element": "H" 
			},
			{
				"x": -3.7834211722,
				"y": -3.1376057363,
				"z": 3.8678987761,
				"element": "H" 
			},
			{
				"x": -3.8904465298,
				"y": -3.3536366892,
				"z": 1.3905575077,
				"element": "H" 
			},
			{
				"x": -3.4082545745,
				"y": -1.417801775,
				"z": -0.0516847264,
				"element": "H" 
			},
			{
				"x": -1.4147311542,
				"y": 2.1097152234,
				"z": -4.2006804725,
				"element": "H" 
			},
			{
				"x": 2.4289593723,
				"y": 0.4552250386,
				"z": -2.0182468644,
				"element": "H" 
			},
			{
				"x": 1.840258333,
				"y": -0.5204470654,
				"z": -3.3847468353,
				"element": "H" 
			},
			{
				"x": 2.6583920152,
				"y": -1.9778583657,
				"z": -1.6721598683,
				"element": "H" 
			},
			{
				"x": -1.5389115065,
				"y": -4.1398779221,
				"z": 0.4074966526,
				"element": "H" 
			},
			{
				"x": -2.249389583,
				"y": -5.156028081,
				"z": -1.7465442941,
				"element": "H" 
			},
			{
				"x": -1.1841270515,
				"y": -4.466176024,
				"z": -3.8718200215,
				"element": "H" 
			},
			{
				"x": 0.6284918589,
				"y": -2.7674945884,
				"z": -3.8798901307,
				"element": "H" 
			},
			{
				"x": 3.083238588,
				"y": 0.194171512,
				"z": 0.4519848839,
				"element": "H" 
			},
			{
				"x": 2.5990208511,
				"y": 0.221226031,
				"z": 2.889798557,
				"element": "H" 
			},
			{
				"x": 0.8259321922,
				"y": -1.2277228733,
				"z": 3.8319394835,
				"element": "H" 
			},
			{
				"x": -0.4941445092,
				"y": -2.724448061,
				"z": 2.3614231832,
				"element": "H" 
			}
		],
		 "valence_orbital": [ 
			{
				"type": "occ",
				"energy": -0.2486,
				"method": "rhf"
			},
			{
				"type": "occ",
				"energy": -0.24262,
				"method": "rhf"
			},
			{
				"type": "occ",
				"energy": -0.2376,
				"method": "rhf"
			},
			{
				"type": "occ",
				"energy": -0.21537,
				"method": "rhf"
			},
			{
				"type": "occ",
				"energy": -0.20901,
				"method": "rhf"
			},
			{
				"type": "unocc",
				"energy": -0.02839,
				"method": "rhf"
			},
			{
				"type": "unocc",
				"energy": -0.02467,
				"method": "rhf"
			},
			{
				"type": "unocc",
				"energy": -0.00674,
				"method": "rhf"
			},
			{
				"type": "unocc",
				"energy": -0.00181,
				"method": "rhf"
			},
			{
				"type": "unocc",
				"energy": 0.00171,
				"method": "rhf"
			}
		],
		"cosmo_sigma_profile": { 
			"-0.025": 0.0,
			"-0.024": 0.0,
			"-0.023": 0.0,
			"-0.022": 0.0,
			"-0.021": 0.0,
			"-0.02": 0.0,
			"-0.019": 0.0637986783761,
			"-0.018": 0.78248593728,
			"-0.017": 0.9803996947,
			"-0.016": 0.772588881992,
			"-0.015": 1.35254744901,
			"-0.014": 1.81390108423,
			"-0.013": 2.33439342158,
			"-0.012": 2.47368459974,
			"-0.011": 1.72100451412,
			"-0.01": 1.34070771404,
			"-0.009": 4.18409732346,
			"-0.008": 4.04778829331,
			"-0.007": 5.23682684629,
			"-0.006": 19.5348284285,
			"-0.005": 37.393281657,
			"-0.004": 40.799945126,
			"-0.003": 38.1050329011,
			"-0.002": 28.4625480536,
			"-0.001": 29.0863889626,
			"0.0": 24.7090483808,
			"0.001": 26.8082528216,
			"0.002": 27.7726076823,
			"0.003": 35.9027714483,
			"0.004": 35.0845619698,
			"0.005": 34.7414066482,
			"0.006": 25.0109440785,
			"0.007": 5.3502670152,
			"0.008": 4.25423926488,
			"0.009": 3.93696752826,
			"0.01": 2.24060507461,
			"0.011": 5.1933464362,
			"0.012": 5.35921941789,
			"0.013": 3.7677479998,
			"0.014": 0.331092936664,
			"0.015": 0.0,
			"0.016": 0.0,
			"0.017": 0.0,
			"0.018": 0.0,
			"0.019": 0.0,
			"0.02": 0.0,
			"0.021": 0.0,
			"0.022": 0.0,
			"0.023": 0.0,
			"0.024": 0.0,
			"0.025": 0.0
		}
	}
}
