{
	 "smiles": "NC(=O)C1=C(Cl)C2=C(S1)C=CC=C2", 
	 "Tm": 509.15, 
	 "num_atms": 19, 
	 "gaussian": { 
		 "optdone": 1, 
		 "sigma_profile": "yes", 
		 "theory": "DFT", 
		 "functional": "B3LYP", 
		 "basiset": "6-31G**", 
		 "properties": { 
			 "R2extent": 3311.8555, 
			 "electric_dipole_moment_norm": 4.27506642405, 
			 "electric_quadrupole_moment_norm": 22.1282426584, 
			 "total_energy": -1334.94020054, 
			 "HOMO_LUMO_gap": 0.16712, 
			 "cosmo_polarized_energy": -13.9, 
			 "cosmo_cavitation_energy": 26.56, 
			 "cosmo_dispersion_energy": -20.58, 
			 "cosmo_repulsion_energy": 1.57, 
			 "cosmo_total_nonelectrostatic_energy": 7.55, 
			 "SMD_solvation_energy": 4.55 
		},
		"coords": [
			{
				"x": -3.2906208486,
				"y": 2.2489629773,
				"z": -0.7979937889,
				"element": "N" 
			},
			{
				"x": -1.9681159321,
				"y": 2.5168210068,
				"z": -1.034962294,
				"element": "C" 
			},
			{
				"x": -1.6126639709,
				"y": 3.5184971464,
				"z": -1.6395697645,
				"element": "O" 
			},
			{
				"x": -0.9918846653,
				"y": 1.514640012,
				"z": -0.5128240887,
				"element": "C" 
			},
			{
				"x": 0.3746704269,
				"y": 1.5436476961,
				"z": -0.6138894908,
				"element": "C" 
			},
			{
				"x": 1.3013554852,
				"y": 2.7842911745,
				"z": -1.391893874,
				"element": "Cl" 
			},
			{
				"x": 1.0430852251,
				"y": 0.4205006519,
				"z": -0.0023341375,
				"element": "C" 
			},
			{
				"x": 0.1218151983,
				"y": -0.4802148464,
				"z": 0.5778617259,
				"element": "C" 
			},
			{
				"x": -1.5259028689,
				"y": 0.0696499792,
				"z": 0.3597224325,
				"element": "S" 
			},
			{
				"x": 0.5453408033,
				"y": -1.6440940514,
				"z": 1.2281438771,
				"element": "C" 
			},
			{
				"x": 1.9097600989,
				"y": -1.9001001531,
				"z": 1.2928588434,
				"element": "C" 
			},
			{
				"x": 2.8406666071,
				"y": -1.0126573333,
				"z": 0.7197762229,
				"element": "C" 
			},
			{
				"x": 2.4194566939,
				"y": 0.1406194824,
				"z": 0.0755054851,
				"element": "C" 
			},
			{
				"x": -3.9573426969,
				"y": 2.9197944108,
				"z": -1.1469076872,
				"element": "H" 
			},
			{
				"x": -3.6299939643,
				"y": 1.4388954729,
				"z": -0.3058737886,
				"element": "H" 
			},
			{
				"x": -0.1721345844,
				"y": -2.3283758233,
				"z": 1.6699719709,
				"element": "H" 
			},
			{
				"x": 2.2612823131,
				"y": -2.7976084508,
				"z": 1.7927716837,
				"element": "H" 
			},
			{
				"x": 3.9010326204,
				"y": -1.23612514,
				"z": 0.7843044364,
				"element": "H" 
			},
			{
				"x": 3.1314940593,
				"y": 0.8283557882,
				"z": -0.3680677637,
				"element": "H" 
			}
		],
		 "valence_orbital": [ 
			{
				"type": "occ",
				"energy": -0.28394,
				"method": "rhf"
			},
			{
				"type": "occ",
				"energy": -0.27176,
				"method": "rhf"
			},
			{
				"type": "occ",
				"energy": -0.25435,
				"method": "rhf"
			},
			{
				"type": "occ",
				"energy": -0.25164,
				"method": "rhf"
			},
			{
				"type": "occ",
				"energy": -0.22927,
				"method": "rhf"
			},
			{
				"type": "unocc",
				"energy": -0.06215,
				"method": "rhf"
			},
			{
				"type": "unocc",
				"energy": -0.01668,
				"method": "rhf"
			},
			{
				"type": "unocc",
				"energy": -0.00832,
				"method": "rhf"
			},
			{
				"type": "unocc",
				"energy": 0.0146,
				"method": "rhf"
			},
			{
				"type": "unocc",
				"energy": 0.03571,
				"method": "rhf"
			}
		],
		"cosmo_sigma_profile": { 
			"-0.025": 0.0,
			"-0.024": 0.0,
			"-0.023": 0.0,
			"-0.022": 0.0,
			"-0.021": 0.0,
			"-0.02": 0.0,
			"-0.019": 0.0,
			"-0.018": 0.0,
			"-0.017": 0.0,
			"-0.016": 0.0,
			"-0.015": 0.655031782427,
			"-0.014": 2.11502039218,
			"-0.013": 1.86853098394,
			"-0.012": 2.0794269816,
			"-0.011": 2.35902997532,
			"-0.01": 1.88516279379,
			"-0.009": 2.16232251284,
			"-0.008": 3.60047291802,
			"-0.007": 5.44567504172,
			"-0.006": 10.4199674233,
			"-0.005": 10.0834025314,
			"-0.004": 10.9167938269,
			"-0.003": 9.35708227871,
			"-0.002": 11.4038323525,
			"-0.001": 13.9663971451,
			"0.0": 22.9011891343,
			"0.001": 24.3207946871,
			"0.002": 20.2008001147,
			"0.003": 21.5912777486,
			"0.004": 16.1035446027,
			"0.005": 3.08229313854,
			"0.006": 1.66438852501,
			"0.007": 1.63706215664,
			"0.008": 2.04580735112,
			"0.009": 1.56061345374,
			"0.01": 1.6840128756,
			"0.011": 2.18038380083,
			"0.012": 2.37824538009,
			"0.013": 5.87482405298,
			"0.014": 2.32494619237,
			"0.015": 0.0,
			"0.016": 0.0,
			"0.017": 0.0,
			"0.018": 0.0,
			"0.019": 0.0,
			"0.02": 0.0,
			"0.021": 0.0,
			"0.022": 0.0,
			"0.023": 0.0,
			"0.024": 0.0,
			"0.025": 0.0
		}
	}
}
