{
	 "smiles": "CC(=O)C1=C(C)N(N=N1)C1=CC=C(F)C=C1", 
	 "Tm": 351.15, 
	 "num_atms": 26, 
	 "gaussian": { 
		 "optdone": 1, 
		 "sigma_profile": "yes", 
		 "theory": "DFT", 
		 "functional": "B3LYP", 
		 "basiset": "6-31G**", 
		 "properties": { 
			 "R2extent": 4936.87, 
			 "electric_dipole_moment_norm": 2.82720292162, 
			 "electric_quadrupole_moment_norm": 10.7048251429, 
			 "total_energy": -764.481989957, 
			 "HOMO_LUMO_gap": 0.20064, 
			 "cosmo_polarized_energy": -12.62, 
			 "cosmo_cavitation_energy": 31.33, 
			 "cosmo_dispersion_energy": -22.35, 
			 "cosmo_repulsion_energy": 1.7, 
			 "cosmo_total_nonelectrostatic_energy": 10.68, 
			 "SMD_solvation_energy": 5.37 
		},
		"coords": [
			{
				"x": -0.6991963564,
				"y": 1.779769033,
				"z": 3.73843033,
				"element": "C" 
			},
			{
				"x": -1.0983557085,
				"y": 0.7818144918,
				"z": 2.6721689575,
				"element": "C" 
			},
			{
				"x": -2.0600139059,
				"y": 0.0341130246,
				"z": 2.8070982244,
				"element": "O" 
			},
			{
				"x": -0.2768144895,
				"y": 0.7480954764,
				"z": 1.445502953,
				"element": "C" 
			},
			{
				"x": -0.4343952669,
				"y": -0.0531430046,
				"z": 0.3178506651,
				"element": "C" 
			},
			{
				"x": -1.4609294129,
				"y": -1.0849104311,
				"z": -0.0108086885,
				"element": "C" 
			},
			{
				"x": 0.5775726742,
				"y": 0.3494147326,
				"z": -0.499738043,
				"element": "N" 
			},
			{
				"x": 1.3146104597,
				"y": 1.3534407041,
				"z": 0.091700284,
				"element": "N" 
			},
			{
				"x": 0.7941065354,
				"y": 1.5797104418,
				"z": 1.2506374188,
				"element": "N" 
			},
			{
				"x": 0.9233616239,
				"y": -0.0724952621,
				"z": -1.8159575792,
				"element": "C" 
			},
			{
				"x": 1.2497140357,
				"y": 0.8993963294,
				"z": -2.7685956108,
				"element": "C" 
			},
			{
				"x": 1.6128131559,
				"y": 0.5125095828,
				"z": -4.0554038768,
				"element": "C" 
			},
			{
				"x": 1.6327733159,
				"y": -0.8428311187,
				"z": -4.3706353749,
				"element": "C" 
			},
			{
				"x": 1.9734866922,
				"y": -1.218164926,
				"z": -5.61739512,
				"element": "F" 
			},
			{
				"x": 1.3153279887,
				"y": -1.8216836299,
				"z": -3.4355856927,
				"element": "C" 
			},
			{
				"x": 0.9678847964,
				"y": -1.4309934916,
				"z": -2.1434455237,
				"element": "C" 
			},
			{
				"x": -0.7281391722,
				"y": 2.7981758238,
				"z": 3.3376103178,
				"element": "H" 
			},
			{
				"x": 0.3324308164,
				"y": 1.6044209383,
				"z": 4.0599109718,
				"element": "H" 
			},
			{
				"x": -1.3805489609,
				"y": 1.6882366006,
				"z": 4.5849582741,
				"element": "H" 
			},
			{
				"x": -1.742939075,
				"y": -1.046100048,
				"z": -1.0669077959,
				"element": "H" 
			},
			{
				"x": -1.0947250428,
				"y": -2.0958623438,
				"z": 0.2027498908,
				"element": "H" 
			},
			{
				"x": -2.3330841828,
				"y": -0.919339778,
				"z": 0.6214887485,
				"element": "H" 
			},
			{
				"x": 1.2242445285,
				"y": 1.9459073648,
				"z": -2.4891075852,
				"element": "H" 
			},
			{
				"x": 1.8716504393,
				"y": 1.2435483658,
				"z": -4.813104824,
				"element": "H" 
			},
			{
				"x": 1.357340489,
				"y": -2.8677318252,
				"z": -3.7173658612,
				"element": "H" 
			},
			{
				"x": 0.7523240225,
				"y": -2.1817970509,
				"z": -1.3922554599,
				"element": "H" 
			}
		],
		 "valence_orbital": [ 
			{
				"type": "occ",
				"energy": -0.2847,
				"method": "rhf"
			},
			{
				"type": "occ",
				"energy": -0.27692,
				"method": "rhf"
			},
			{
				"type": "occ",
				"energy": -0.266,
				"method": "rhf"
			},
			{
				"type": "occ",
				"energy": -0.25325,
				"method": "rhf"
			},
			{
				"type": "occ",
				"energy": -0.24907,
				"method": "rhf"
			},
			{
				"type": "unocc",
				"energy": -0.04843,
				"method": "rhf"
			},
			{
				"type": "unocc",
				"energy": -0.03441,
				"method": "rhf"
			},
			{
				"type": "unocc",
				"energy": -0.03311,
				"method": "rhf"
			},
			{
				"type": "unocc",
				"energy": 0.00455,
				"method": "rhf"
			},
			{
				"type": "unocc",
				"energy": 0.06593,
				"method": "rhf"
			}
		],
		"cosmo_sigma_profile": { 
			"-0.025": 0.0,
			"-0.024": 0.0,
			"-0.023": 0.0,
			"-0.022": 0.0,
			"-0.021": 0.0,
			"-0.02": 0.0,
			"-0.019": 0.0,
			"-0.018": 0.0,
			"-0.017": 0.0,
			"-0.016": 0.0,
			"-0.015": 0.0,
			"-0.014": 0.0,
			"-0.013": 0.0,
			"-0.012": 0.0,
			"-0.011": 0.0,
			"-0.01": 0.0303432545186,
			"-0.009": 1.521801264,
			"-0.008": 6.62030275569,
			"-0.007": 8.34545540898,
			"-0.006": 13.6876569479,
			"-0.005": 15.710968375,
			"-0.004": 18.091010146,
			"-0.003": 20.6335828681,
			"-0.002": 23.1611267812,
			"-0.001": 24.6204252952,
			"0.0": 20.4861654039,
			"0.001": 18.3677750424,
			"0.002": 16.6661921995,
			"0.003": 11.0357052887,
			"0.004": 12.831286278,
			"0.005": 4.73173447815,
			"0.006": 4.22193990653,
			"0.007": 3.57394110463,
			"0.008": 3.25306636967,
			"0.009": 5.16408814064,
			"0.01": 5.94636804593,
			"0.011": 4.83903256932,
			"0.012": 4.50939470526,
			"0.013": 2.53347423009,
			"0.014": 0.572163532791,
			"0.015": 0.0128599359765,
			"0.016": 0.0,
			"0.017": 0.0,
			"0.018": 0.0,
			"0.019": 0.0,
			"0.02": 0.0,
			"0.021": 0.0,
			"0.022": 0.0,
			"0.023": 0.0,
			"0.024": 0.0,
			"0.025": 0.0
		}
	}
}
