{
	 "smiles": "CCN1CCN(C(=O)NC(C(O)=O)C2=CC=C(O)C=C2)C(=O)C1=O", 
	 "Tm": 478.15, 
	 "num_atms": 41, 
	 "gaussian": { 
		 "optdone": 1, 
		 "sigma_profile": "yes", 
		 "theory": "DFT", 
		 "functional": "B3LYP", 
		 "basiset": "6-31G**", 
		 "properties": { 
			 "R2extent": 9315.4353, 
			 "electric_dipole_moment_norm": 6.42150027953, 
			 "electric_quadrupole_moment_norm": 29.2960514099, 
			 "total_energy": -1197.48245441, 
			 "HOMO_LUMO_gap": 0.18219, 
			 "cosmo_polarized_energy": -31.3, 
			 "cosmo_cavitation_energy": 45.33, 
			 "cosmo_dispersion_energy": -29.26, 
			 "cosmo_repulsion_energy": 2.26, 
			 "cosmo_total_nonelectrostatic_energy": 18.32, 
			 "SMD_solvation_energy": 10.32 
		},
		"coords": [
			{
				"x": 0.1300994067,
				"y": 1.2151033868,
				"z": 4.2263004724,
				"element": "C" 
			},
			{
				"x": 0.6834855989,
				"y": 1.389169426,
				"z": 2.8096624535,
				"element": "C" 
			},
			{
				"x": -0.2711552392,
				"y": 0.9866253849,
				"z": 1.7721523791,
				"element": "N" 
			},
			{
				"x": -0.2973069128,
				"y": -0.4040958113,
				"z": 1.3334808392,
				"element": "C" 
			},
			{
				"x": -1.6752968342,
				"y": -0.76589374,
				"z": 0.812731952,
				"element": "C" 
			},
			{
				"x": -2.0409948155,
				"y": 0.153278727,
				"z": -0.2788000619,
				"element": "N" 
			},
			{
				"x": -2.8983171547,
				"y": -0.4192580218,
				"z": -1.2805221869,
				"element": "C" 
			},
			{
				"x": -3.5756990597,
				"y": -1.3967623496,
				"z": -0.9938006408,
				"element": "O" 
			},
			{
				"x": -2.8792372342,
				"y": 0.1167125628,
				"z": -2.5292835157,
				"element": "N" 
			},
			{
				"x": -1.9000598324,
				"y": 0.98400986,
				"z": -3.1699531852,
				"element": "C" 
			},
			{
				"x": -2.2997531539,
				"y": 1.0521714602,
				"z": -4.6432554179,
				"element": "C" 
			},
			{
				"x": -1.6411011568,
				"y": 2.0297929915,
				"z": -5.2870064791,
				"element": "O" 
			},
			{
				"x": -3.101934427,
				"y": 0.3167890018,
				"z": -5.179801041,
				"element": "O" 
			},
			{
				"x": -0.4547652732,
				"y": 0.5059446643,
				"z": -3.044920981,
				"element": "C" 
			},
			{
				"x": 0.5495823638,
				"y": 1.3864296759,
				"z": -2.6258281163,
				"element": "C" 
			},
			{
				"x": 1.8721161637,
				"y": 0.9651421585,
				"z": -2.5146291378,
				"element": "C" 
			},
			{
				"x": 2.2088553416,
				"y": -0.3563737114,
				"z": -2.8293914828,
				"element": "C" 
			},
			{
				"x": 3.5177879195,
				"y": -0.7204961647,
				"z": -2.7005778316,
				"element": "O" 
			},
			{
				"x": 1.2133931594,
				"y": -1.2461986174,
				"z": -3.2525627178,
				"element": "C" 
			},
			{
				"x": -0.1062579189,
				"y": -0.8122280702,
				"z": -3.3600859252,
				"element": "C" 
			},
			{
				"x": -1.9095793218,
				"y": 1.5151742276,
				"z": -0.0450624925,
				"element": "C" 
			},
			{
				"x": -2.4044804344,
				"y": 2.3850696403,
				"z": -0.7361776177,
				"element": "O" 
			},
			{
				"x": -1.0431858686,
				"y": 1.9440058795,
				"z": 1.1774482546,
				"element": "C" 
			},
			{
				"x": -1.0532335438,
				"y": 3.1165301641,
				"z": 1.5168279403,
				"element": "O" 
			},
			{
				"x": -0.1528544631,
				"y": 0.1759240087,
				"z": 4.4263886456,
				"element": "H" 
			},
			{
				"x": 0.8840986602,
				"y": 1.5054371612,
				"z": 4.9651540234,
				"element": "H" 
			},
			{
				"x": -0.7506192518,
				"y": 1.8469624491,
				"z": 4.3675773613,
				"element": "H" 
			},
			{
				"x": 0.9292868827,
				"y": 2.43762364,
				"z": 2.6304901658,
				"element": "H" 
			},
			{
				"x": 1.5948520714,
				"y": 0.7953546953,
				"z": 2.6719758352,
				"element": "H" 
			},
			{
				"x": -0.0646740016,
				"y": -1.0443674028,
				"z": 2.1906169474,
				"element": "H" 
			},
			{
				"x": 0.4647188101,
				"y": -0.5851451651,
				"z": 0.5612214276,
				"element": "H" 
			},
			{
				"x": -2.416948357,
				"y": -0.7208537098,
				"z": 1.6188654462,
				"element": "H" 
			},
			{
				"x": -1.6873047565,
				"y": -1.7790591719,
				"z": 0.4136313889,
				"element": "H" 
			},
			{
				"x": -3.5101830534,
				"y": -0.3531749802,
				"z": -3.1701463401,
				"element": "H" 
			},
			{
				"x": -1.9732941337,
				"y": 1.9961935201,
				"z": -2.7631669458,
				"element": "H" 
			},
			{
				"x": -1.9280029525,
				"y": 1.9969097092,
				"z": -6.2151914381,
				"element": "H" 
			},
			{
				"x": 0.2923817066,
				"y": 2.4118911625,
				"z": -2.3752829447,
				"element": "H" 
			},
			{
				"x": 2.6534920946,
				"y": 1.6426935994,
				"z": -2.1869042819,
				"element": "H" 
			},
			{
				"x": 3.6208877183,
				"y": -1.6422957912,
				"z": -2.9706967404,
				"element": "H" 
			},
			{
				"x": 1.4708874805,
				"y": -2.2739129798,
				"z": -3.5006328601,
				"element": "H" 
			},
			{
				"x": -0.8727862276,
				"y": -1.5098234693,
				"z": -3.6864451504,
				"element": "H" 
			}
		],
		 "valence_orbital": [ 
			{
				"type": "occ",
				"energy": -0.2668,
				"method": "rhf"
			},
			{
				"type": "occ",
				"energy": -0.25977,
				"method": "rhf"
			},
			{
				"type": "occ",
				"energy": -0.2511,
				"method": "rhf"
			},
			{
				"type": "occ",
				"energy": -0.24954,
				"method": "rhf"
			},
			{
				"type": "occ",
				"energy": -0.23151,
				"method": "rhf"
			},
			{
				"type": "unocc",
				"energy": -0.04932,
				"method": "rhf"
			},
			{
				"type": "unocc",
				"energy": -0.0213,
				"method": "rhf"
			},
			{
				"type": "unocc",
				"energy": -0.01578,
				"method": "rhf"
			},
			{
				"type": "unocc",
				"energy": 0.00753,
				"method": "rhf"
			},
			{
				"type": "unocc",
				"energy": 0.03084,
				"method": "rhf"
			}
		],
		"cosmo_sigma_profile": { 
			"-0.025": 0.0,
			"-0.024": 0.0,
			"-0.023": 0.0,
			"-0.022": 0.0,
			"-0.021": 0.0,
			"-0.02": 0.09601985752,
			"-0.019": 0.802330567185,
			"-0.018": 1.54249065711,
			"-0.017": 2.18703550695,
			"-0.016": 1.60219253218,
			"-0.015": 1.30434898073,
			"-0.014": 1.58083891065,
			"-0.013": 2.46260760855,
			"-0.012": 1.56204041835,
			"-0.011": 2.03359783308,
			"-0.01": 1.95080966667,
			"-0.009": 2.0555445096,
			"-0.008": 4.50658490784,
			"-0.007": 12.4900394499,
			"-0.006": 24.0922045467,
			"-0.005": 25.0582805098,
			"-0.004": 27.8373038453,
			"-0.003": 27.9557607966,
			"-0.002": 27.8916348985,
			"-0.001": 23.3755072488,
			"0.0": 22.1993890364,
			"0.001": 16.182977284,
			"0.002": 15.6361272218,
			"0.003": 15.0413741826,
			"0.004": 12.3843239364,
			"0.005": 11.4252041345,
			"0.006": 8.79499211668,
			"0.007": 7.30572494009,
			"0.008": 7.24972951492,
			"0.009": 7.96398274801,
			"0.01": 9.83035623696,
			"0.011": 9.26376142941,
			"0.012": 8.86015179623,
			"0.013": 8.41734225686,
			"0.014": 2.38140088987,
			"0.015": 1.61274666056,
			"0.016": 1.07188300598,
			"0.017": 0.0748667638331,
			"0.018": 0.0,
			"0.019": 0.0,
			"0.02": 0.0,
			"0.021": 0.0,
			"0.022": 0.0,
			"0.023": 0.0,
			"0.024": 0.0,
			"0.025": 0.0
		}
	}
}
