{
	 "smiles": "C=CCOC(=O)C=C/C(=O)OCC=C", 
	 "Tm": 226.15, 
	 "num_atms": 26, 
	 "gaussian": { 
		 "optdone": 1, 
		 "sigma_profile": "yes", 
		 "theory": "DFT", 
		 "functional": "B3LYP", 
		 "basiset": "6-31G**", 
		 "properties": { 
			 "R2extent": 4305.2071, 
			 "electric_dipole_moment_norm": 2.49143821918, 
			 "electric_quadrupole_moment_norm": 10.1963001192, 
			 "total_energy": -689.126951031, 
			 "HOMO_LUMO_gap": 0.202, 
			 "cosmo_polarized_energy": -12.39, 
			 "cosmo_cavitation_energy": 32.68, 
			 "cosmo_dispersion_energy": -22.09, 
			 "cosmo_repulsion_energy": 1.81, 
			 "cosmo_total_nonelectrostatic_energy": 12.4, 
			 "SMD_solvation_energy": 9.09 
		},
		"coords": [
			{
				"x": 3.2742083814,
				"y": 3.6262149984,
				"z": -0.2815995152,
				"element": "C" 
			},
			{
				"x": 2.351233349,
				"y": 2.6657931944,
				"z": -0.2473011531,
				"element": "C" 
			},
			{
				"x": 2.6726562022,
				"y": 1.215820441,
				"z": -0.0370006531,
				"element": "C" 
			},
			{
				"x": 2.2914984791,
				"y": 0.4081333115,
				"z": -1.1841128127,
				"element": "O" 
			},
			{
				"x": 0.9952744726,
				"y": 0.0300404841,
				"z": -1.2422707786,
				"element": "C" 
			},
			{
				"x": 0.1566145244,
				"y": 0.3387242796,
				"z": -0.4170992741,
				"element": "O" 
			},
			{
				"x": 0.7538054039,
				"y": -0.7902476477,
				"z": -2.4560586761,
				"element": "C" 
			},
			{
				"x": -0.4010721429,
				"y": -1.424085595,
				"z": -2.6880726685,
				"element": "C" 
			},
			{
				"x": -1.6111082006,
				"y": -1.3925082239,
				"z": -1.8014352911,
				"element": "C" 
			},
			{
				"x": -2.6349914941,
				"y": -0.8266729869,
				"z": -2.1172999031,
				"element": "O" 
			},
			{
				"x": -1.4384479879,
				"y": -2.1225577678,
				"z": -0.6889383459,
				"element": "O" 
			},
			{
				"x": -2.5370254853,
				"y": -2.087540675,
				"z": 0.2599620196,
				"element": "C" 
			},
			{
				"x": -2.3289325234,
				"y": -3.191035481,
				"z": 1.2475827623,
				"element": "C" 
			},
			{
				"x": -2.2980785735,
				"y": -3.0092153992,
				"z": 2.5669230962,
				"element": "C" 
			},
			{
				"x": 3.0063160742,
				"y": 4.6709020814,
				"z": -0.4078814026,
				"element": "H" 
			},
			{
				"x": 4.3339582914,
				"y": 3.4045294259,
				"z": -0.1764793725,
				"element": "H" 
			},
			{
				"x": 1.295359292,
				"y": 2.9050191965,
				"z": -0.3523718585,
				"element": "H" 
			},
			{
				"x": 3.7479256025,
				"y": 1.0575879365,
				"z": 0.0676119723,
				"element": "H" 
			},
			{
				"x": 2.1525635511,
				"y": 0.824190664,
				"z": 0.8424655049,
				"element": "H" 
			},
			{
				"x": 1.5651129556,
				"y": -0.839362504,
				"z": -3.1751747777,
				"element": "H" 
			},
			{
				"x": -0.5386342556,
				"y": -1.9637387869,
				"z": -3.6219478911,
				"element": "H" 
			},
			{
				"x": -2.5464929387,
				"y": -1.1041580759,
				"z": 0.739880764,
				"element": "H" 
			},
			{
				"x": -3.4742990822,
				"y": -2.2062490055,
				"z": -0.2948234511,
				"element": "H" 
			},
			{
				"x": -2.229319671,
				"y": -4.1908796093,
				"z": 0.8274802931,
				"element": "H" 
			},
			{
				"x": -2.1869530781,
				"y": -3.8419504427,
				"z": 3.2546561439,
				"element": "H" 
			},
			{
				"x": -2.3887711458,
				"y": -2.0195538127,
				"z": 3.0080052687,
				"element": "H" 
			}
		],
		 "valence_orbital": [ 
			{
				"type": "occ",
				"energy": -0.29805,
				"method": "rhf"
			},
			{
				"type": "occ",
				"energy": -0.28076,
				"method": "rhf"
			},
			{
				"type": "occ",
				"energy": -0.27426,
				"method": "rhf"
			},
			{
				"type": "occ",
				"energy": -0.27094,
				"method": "rhf"
			},
			{
				"type": "occ",
				"energy": -0.26121,
				"method": "rhf"
			},
			{
				"type": "unocc",
				"energy": -0.05921,
				"method": "rhf"
			},
			{
				"type": "unocc",
				"energy": 0.00172,
				"method": "rhf"
			},
			{
				"type": "unocc",
				"energy": 0.00597,
				"method": "rhf"
			},
			{
				"type": "unocc",
				"energy": 0.0155,
				"method": "rhf"
			},
			{
				"type": "unocc",
				"energy": 0.07555,
				"method": "rhf"
			}
		],
		"cosmo_sigma_profile": { 
			"-0.025": 0.0,
			"-0.024": 0.0,
			"-0.023": 0.0,
			"-0.022": 0.0,
			"-0.021": 0.0,
			"-0.02": 0.0,
			"-0.019": 0.0,
			"-0.018": 0.0,
			"-0.017": 0.0,
			"-0.016": 0.0,
			"-0.015": 0.0,
			"-0.014": 0.0,
			"-0.013": 0.0,
			"-0.012": 0.0,
			"-0.011": 0.0,
			"-0.01": 0.545428046435,
			"-0.009": 2.96741647353,
			"-0.008": 3.76950608092,
			"-0.007": 6.03147167562,
			"-0.006": 16.6004142352,
			"-0.005": 22.5406754281,
			"-0.004": 20.7740390663,
			"-0.003": 24.7842251324,
			"-0.002": 20.0259845807,
			"-0.001": 18.4000879513,
			"0.0": 16.5019176845,
			"0.001": 15.9808449069,
			"0.002": 13.274169467,
			"0.003": 12.3940030231,
			"0.004": 13.4863616932,
			"0.005": 10.8598855463,
			"0.006": 10.3671080944,
			"0.007": 6.51087714243,
			"0.008": 6.71565474294,
			"0.009": 3.94507502706,
			"0.01": 4.48766470305,
			"0.011": 6.46434430664,
			"0.012": 2.53979422477,
			"0.013": 0.0837368102664,
			"0.014": 0.0,
			"0.015": 0.0,
			"0.016": 0.0,
			"0.017": 0.0,
			"0.018": 0.0,
			"0.019": 0.0,
			"0.02": 0.0,
			"0.021": 0.0,
			"0.022": 0.0,
			"0.023": 0.0,
			"0.024": 0.0,
			"0.025": 0.0
		}
	}
}
