{
	 "smiles": "NC1=CC(=CC=C1)N1CCOCC1", 
	 "Tm": 391.15, 
	 "num_atms": 27, 
	 "gaussian": { 
		 "optdone": 1, 
		 "sigma_profile": "yes", 
		 "theory": "DFT", 
		 "functional": "B3LYP", 
		 "basiset": "6-31G**", 
		 "properties": { 
			 "R2extent": 2971.1489, 
			 "electric_dipole_moment_norm": 1.52797835063, 
			 "electric_quadrupole_moment_norm": 12.1663865231, 
			 "total_energy": -574.207131683, 
			 "HOMO_LUMO_gap": 0.19544, 
			 "cosmo_polarized_energy": -12.0, 
			 "cosmo_cavitation_energy": 28.23, 
			 "cosmo_dispersion_energy": -21.14, 
			 "cosmo_repulsion_energy": 1.67, 
			 "cosmo_total_nonelectrostatic_energy": 8.75, 
			 "SMD_solvation_energy": 3.32 
		},
		"coords": [
			{
				"x": 2.639194238,
				"y": -1.4594547599,
				"z": -0.1394556401,
				"element": "N" 
			},
			{
				"x": 1.4215063369,
				"y": -0.9614849122,
				"z": -0.6160331168,
				"element": "C" 
			},
			{
				"x": 0.3406101895,
				"y": -0.7944488566,
				"z": 0.2651643932,
				"element": "C" 
			},
			{
				"x": -0.9162107435,
				"y": -0.3557178859,
				"z": -0.1882491832,
				"element": "C" 
			},
			{
				"x": -1.0633644685,
				"y": -0.0666856995,
				"z": -1.5629088175,
				"element": "C" 
			},
			{
				"x": 0.0167662185,
				"y": -0.2173996302,
				"z": -2.4257946303,
				"element": "C" 
			},
			{
				"x": 1.2587020478,
				"y": -0.6616082754,
				"z": -1.9764855452,
				"element": "C" 
			},
			{
				"x": -2.0260264803,
				"y": -0.2492744799,
				"z": 0.6702523385,
				"element": "N" 
			},
			{
				"x": -1.9705565301,
				"y": -0.7300995125,
				"z": 2.0483221609,
				"element": "C" 
			},
			{
				"x": -1.6074395272,
				"y": 0.3919181053,
				"z": 3.0265323053,
				"element": "C" 
			},
			{
				"x": -2.5285636453,
				"y": 1.4712325054,
				"z": 2.9037776229,
				"element": "O" 
			},
			{
				"x": -2.5583981637,
				"y": 1.9842802802,
				"z": 1.5763939082,
				"element": "C" 
			},
			{
				"x": -2.9357282752,
				"y": 0.8954093701,
				"z": 0.563971253,
				"element": "C" 
			},
			{
				"x": 3.4442710824,
				"y": -1.2057915851,
				"z": -0.6958644374,
				"element": "H" 
			},
			{
				"x": 2.8068812944,
				"y": -1.3055078954,
				"z": 0.8456076212,
				"element": "H" 
			},
			{
				"x": 0.5064706459,
				"y": -0.9995999986,
				"z": 1.3172751746,
				"element": "H" 
			},
			{
				"x": -2.0276735038,
				"y": 0.2287185656,
				"z": -1.960110031,
				"element": "H" 
			},
			{
				"x": -0.1177592243,
				"y": 0.0034188288,
				"z": -3.4815658015,
				"element": "H" 
			},
			{
				"x": 2.0887822776,
				"y": -0.7857445553,
				"z": -2.6663140563,
				"element": "H" 
			},
			{
				"x": -1.2838069013,
				"y": -1.5754308285,
				"z": 2.1264844062,
				"element": "H" 
			},
			{
				"x": -2.9716784827,
				"y": -1.0984951738,
				"z": 2.3123963759,
				"element": "H" 
			},
			{
				"x": -1.671356735,
				"y": 0.0477808976,
				"z": 4.0639386931,
				"element": "H" 
			},
			{
				"x": -0.5807014611,
				"y": 0.7460126484,
				"z": 2.8368663012,
				"element": "H" 
			},
			{
				"x": -3.297097426,
				"y": 2.7923762557,
				"z": 1.5745862676,
				"element": "H" 
			},
			{
				"x": -1.5754605196,
				"y": 2.4074016163,
				"z": 1.3091522638,
				"element": "H" 
			},
			{
				"x": -3.9590700458,
				"y": 0.5534174237,
				"z": 0.7699249896,
				"element": "H" 
			},
			{
				"x": -2.9156921974,
				"y": 1.3058775518,
				"z": -0.4459648159,
				"element": "H" 
			}
		],
		 "valence_orbital": [ 
			{
				"type": "occ",
				"energy": -0.30417,
				"method": "rhf"
			},
			{
				"type": "occ",
				"energy": -0.27404,
				"method": "rhf"
			},
			{
				"type": "occ",
				"energy": -0.25027,
				"method": "rhf"
			},
			{
				"type": "occ",
				"energy": -0.20277,
				"method": "rhf"
			},
			{
				"type": "occ",
				"energy": -0.17813,
				"method": "rhf"
			},
			{
				"type": "unocc",
				"energy": 0.01731,
				"method": "rhf"
			},
			{
				"type": "unocc",
				"energy": 0.02771,
				"method": "rhf"
			},
			{
				"type": "unocc",
				"energy": 0.08236,
				"method": "rhf"
			},
			{
				"type": "unocc",
				"energy": 0.09864,
				"method": "rhf"
			},
			{
				"type": "unocc",
				"energy": 0.11038,
				"method": "rhf"
			}
		],
		"cosmo_sigma_profile": { 
			"-0.025": 0.0,
			"-0.024": 0.0,
			"-0.023": 0.0,
			"-0.022": 0.0,
			"-0.021": 0.0,
			"-0.02": 0.0,
			"-0.019": 0.0,
			"-0.018": 0.0,
			"-0.017": 0.0,
			"-0.016": 0.0,
			"-0.015": 0.0,
			"-0.014": 0.0,
			"-0.013": 0.0,
			"-0.012": 1.26953233187,
			"-0.011": 2.93031134728,
			"-0.01": 2.40894994169,
			"-0.009": 2.78730867796,
			"-0.008": 3.4786403916,
			"-0.007": 3.20018658044,
			"-0.006": 7.79677919622,
			"-0.005": 15.009617232,
			"-0.004": 23.3391078344,
			"-0.003": 27.7597538767,
			"-0.002": 21.2844311301,
			"-0.001": 15.6493742063,
			"0.0": 10.0961622688,
			"0.001": 9.19386837966,
			"0.002": 7.21988876379,
			"0.003": 7.47893965864,
			"0.004": 6.97361552422,
			"0.005": 7.53891587636,
			"0.006": 8.96525946181,
			"0.007": 11.0285214924,
			"0.008": 11.4646121693,
			"0.009": 3.54378808155,
			"0.01": 2.49262568485,
			"0.011": 2.015137058,
			"0.012": 1.22759279636,
			"0.013": 3.35792848768,
			"0.014": 1.26947833993,
			"0.015": 0.594197879661,
			"0.016": 0.0471538185947,
			"0.017": 0.0,
			"0.018": 0.0,
			"0.019": 0.0,
			"0.02": 0.0,
			"0.021": 0.0,
			"0.022": 0.0,
			"0.023": 0.0,
			"0.024": 0.0,
			"0.025": 0.0
		}
	}
}
