{
	 "smiles": "CC1=C(SC(NC(=O)C2CC2)=C1)C(O)=O", 
	 "Tm": 458.15, 
	 "num_atms": 26, 
	 "gaussian": { 
		 "optdone": 1, 
		 "sigma_profile": "yes", 
		 "theory": "DFT", 
		 "functional": "B3LYP", 
		 "basiset": "6-31G**", 
		 "properties": { 
			 "R2extent": 4859.6242, 
			 "electric_dipole_moment_norm": 6.64287190453, 
			 "electric_quadrupole_moment_norm": 16.0297304815, 
			 "total_energy": -1066.29859002, 
			 "HOMO_LUMO_gap": 0.16778, 
			 "cosmo_polarized_energy": -22.35, 
			 "cosmo_cavitation_energy": 31.87, 
			 "cosmo_dispersion_energy": -23.67, 
			 "cosmo_repulsion_energy": 1.82, 
			 "cosmo_total_nonelectrostatic_energy": 10.02, 
			 "SMD_solvation_energy": 6.69 
		},
		"coords": [
			{
				"x": -3.1382419095,
				"y": 2.5470572899,
				"z": 1.6472439053,
				"element": "C" 
			},
			{
				"x": -1.8929128835,
				"y": 1.8766069843,
				"z": 1.1293103942,
				"element": "C" 
			},
			{
				"x": -0.6417456541,
				"y": 2.4581384678,
				"z": 0.9951816404,
				"element": "C" 
			},
			{
				"x": 0.5595133668,
				"y": 1.3486606537,
				"z": 0.3531369033,
				"element": "S" 
			},
			{
				"x": -0.6409609283,
				"y": 0.0958005649,
				"z": 0.2679559192,
				"element": "C" 
			},
			{
				"x": -0.3726219334,
				"y": -1.1875876075,
				"z": -0.1942193931,
				"element": "N" 
			},
			{
				"x": 0.8586251083,
				"y": -1.6375866186,
				"z": -0.6409385938,
				"element": "C" 
			},
			{
				"x": 1.8332545932,
				"y": -0.8983712872,
				"z": -0.6572145103,
				"element": "O" 
			},
			{
				"x": 0.9375012428,
				"y": -3.0596883242,
				"z": -1.0984875813,
				"element": "C" 
			},
			{
				"x": -0.2029982832,
				"y": -3.7475546861,
				"z": -1.8303356449,
				"element": "C" 
			},
			{
				"x": 0.1455274319,
				"y": -4.1760364167,
				"z": -0.438146546,
				"element": "C" 
			},
			{
				"x": -1.8781906938,
				"y": 0.5209883387,
				"z": 0.7084288147,
				"element": "C" 
			},
			{
				"x": -0.1734485717,
				"y": 3.8052020952,
				"z": 1.2923826239,
				"element": "C" 
			},
			{
				"x": -1.1444820964,
				"y": 4.6244216294,
				"z": 1.7870469757,
				"element": "O" 
			},
			{
				"x": 0.9699230366,
				"y": 4.1966825982,
				"z": 1.1269254608,
				"element": "O" 
			},
			{
				"x": -2.9971183603,
				"y": 2.9141939764,
				"z": 2.6677058893,
				"element": "H" 
			},
			{
				"x": -3.9792935115,
				"y": 1.8485832594,
				"z": 1.642386205,
				"element": "H" 
			},
			{
				"x": -3.4043429045,
				"y": 3.415974932,
				"z": 1.0388061404,
				"element": "H" 
			},
			{
				"x": -1.1589352071,
				"y": -1.8213812237,
				"z": -0.1924627505,
				"element": "H" 
			},
			{
				"x": 1.9448575605,
				"y": -3.2946920357,
				"z": -1.4230211158,
				"element": "H" 
			},
			{
				"x": -1.1170867581,
				"y": -3.184180867,
				"z": -1.9965050111,
				"element": "H" 
			},
			{
				"x": 0.0645111479,
				"y": -4.3965096216,
				"z": -2.6578929593,
				"element": "H" 
			},
			{
				"x": 0.6556382325,
				"y": -5.1232849165,
				"z": -0.2965149682,
				"element": "H" 
			},
			{
				"x": -0.5226519298,
				"y": -3.9148915892,
				"z": 0.3778810057,
				"element": "H" 
			},
			{
				"x": -2.7545360531,
				"y": -0.1194060563,
				"z": 0.7306463953,
				"element": "H" 
			},
			{
				"x": -0.6998840422,
				"y": 5.4750604605,
				"z": 1.9375008011,
				"element": "H" 
			}
		],
		 "valence_orbital": [ 
			{
				"type": "occ",
				"energy": -0.2997,
				"method": "rhf"
			},
			{
				"type": "occ",
				"energy": -0.26776,
				"method": "rhf"
			},
			{
				"type": "occ",
				"energy": -0.26307,
				"method": "rhf"
			},
			{
				"type": "occ",
				"energy": -0.24758,
				"method": "rhf"
			},
			{
				"type": "occ",
				"energy": -0.21307,
				"method": "rhf"
			},
			{
				"type": "unocc",
				"energy": -0.04529,
				"method": "rhf"
			},
			{
				"type": "unocc",
				"energy": 0.00484,
				"method": "rhf"
			},
			{
				"type": "unocc",
				"energy": 0.03924,
				"method": "rhf"
			},
			{
				"type": "unocc",
				"energy": 0.04638,
				"method": "rhf"
			},
			{
				"type": "unocc",
				"energy": 0.05316,
				"method": "rhf"
			}
		],
		"cosmo_sigma_profile": { 
			"-0.025": 0.0,
			"-0.024": 0.0,
			"-0.023": 0.0,
			"-0.022": 0.0,
			"-0.021": 0.0,
			"-0.02": 0.0,
			"-0.019": 0.0,
			"-0.018": 0.438150326051,
			"-0.017": 0.973504780627,
			"-0.016": 1.79452659478,
			"-0.015": 2.34112030562,
			"-0.014": 1.91497737403,
			"-0.013": 1.65627961507,
			"-0.012": 2.40457777916,
			"-0.011": 2.37585098265,
			"-0.01": 1.94059875682,
			"-0.009": 2.60032965179,
			"-0.008": 3.03185850142,
			"-0.007": 5.14734657127,
			"-0.006": 12.1438198159,
			"-0.005": 12.9289783712,
			"-0.004": 15.2671616685,
			"-0.003": 13.6662117878,
			"-0.002": 16.0131438985,
			"-0.001": 21.8930320373,
			"0.0": 20.2855319197,
			"0.001": 19.1323537957,
			"0.002": 18.10325258,
			"0.003": 18.3320810113,
			"0.004": 12.4431393374,
			"0.005": 8.44416295378,
			"0.006": 6.26080620876,
			"0.007": 3.4788928495,
			"0.008": 4.48139589103,
			"0.009": 3.77349102039,
			"0.01": 3.22077016831,
			"0.011": 5.17547398531,
			"0.012": 8.32416780759,
			"0.013": 4.61596130329,
			"0.014": 0.265651794514,
			"0.015": 0.0,
			"0.016": 0.0,
			"0.017": 0.0,
			"0.018": 0.0,
			"0.019": 0.0,
			"0.02": 0.0,
			"0.021": 0.0,
			"0.022": 0.0,
			"0.023": 0.0,
			"0.024": 0.0,
			"0.025": 0.0
		}
	}
}
