{
	 "smiles": "CC1OC2=C(C=CC=C2)N(CC(O)=O)C1=O", 
	 "Tm": 420.15, 
	 "num_atms": 27, 
	 "gaussian": { 
		 "optdone": 1, 
		 "sigma_profile": "yes", 
		 "theory": "DFT", 
		 "functional": "B3LYP", 
		 "basiset": "6-31G**", 
		 "properties": { 
			 "R2extent": 3982.1019, 
			 "electric_dipole_moment_norm": 2.38706535101, 
			 "electric_quadrupole_moment_norm": 10.1532952454, 
			 "total_energy": -781.469478835, 
			 "HOMO_LUMO_gap": 0.19809, 
			 "cosmo_polarized_energy": -15.18, 
			 "cosmo_cavitation_energy": 30.84, 
			 "cosmo_dispersion_energy": -21.77, 
			 "cosmo_repulsion_energy": 1.69, 
			 "cosmo_total_nonelectrostatic_energy": 10.76, 
			 "SMD_solvation_energy": 6.95 
		},
		"coords": [
			{
				"x": -0.1722596294,
				"y": 3.4750483746,
				"z": -2.2490559276,
				"element": "C" 
			},
			{
				"x": -0.999981954,
				"y": 2.8972442994,
				"z": -1.0970417344,
				"element": "C" 
			},
			{
				"x": -1.8373745166,
				"y": 1.8141971596,
				"z": -1.5303437219,
				"element": "O" 
			},
			{
				"x": -1.1988999419,
				"y": 0.6174967219,
				"z": -1.7150339543,
				"element": "C" 
			},
			{
				"x": -0.0897128454,
				"y": 0.2719312237,
				"z": -0.9215189469,
				"element": "C" 
			},
			{
				"x": 0.5249633769,
				"y": -0.9683986949,
				"z": -1.1217036791,
				"element": "C" 
			},
			{
				"x": 0.0230191109,
				"y": -1.8592617729,
				"z": -2.0727568462,
				"element": "C" 
			},
			{
				"x": -1.0911091525,
				"y": -1.5170293867,
				"z": -2.8378624738,
				"element": "C" 
			},
			{
				"x": -1.6958243978,
				"y": -0.2713934436,
				"z": -2.6637556921,
				"element": "C" 
			},
			{
				"x": 0.3230197787,
				"y": 1.1860199974,
				"z": 0.0784908808,
				"element": "N" 
			},
			{
				"x": 1.2968390576,
				"y": 0.8124929215,
				"z": 1.0819817702,
				"element": "C" 
			},
			{
				"x": 2.7279159241,
				"y": 0.9204515665,
				"z": 0.568414279,
				"element": "C" 
			},
			{
				"x": 3.5903602398,
				"y": 0.3988707617,
				"z": 1.4697727462,
				"element": "O" 
			},
			{
				"x": 3.0678869203,
				"y": 1.412269414,
				"z": -0.4806277356,
				"element": "O" 
			},
			{
				"x": -0.0979345014,
				"y": 2.5023634712,
				"z": 0.0684507847,
				"element": "C" 
			},
			{
				"x": 0.2525948009,
				"y": 3.3177495023,
				"z": 0.9088688265,
				"element": "O" 
			},
			{
				"x": 0.5485357049,
				"y": 2.7426752098,
				"z": -2.6237537233,
				"element": "H" 
			},
			{
				"x": -0.8364669589,
				"y": 3.7693165945,
				"z": -3.0661027861,
				"element": "H" 
			},
			{
				"x": 0.3782029178,
				"y": 4.3536692502,
				"z": -1.9024350776,
				"element": "H" 
			},
			{
				"x": -1.688769673,
				"y": 3.6520743329,
				"z": -0.7127994156,
				"element": "H" 
			},
			{
				"x": 1.3959480517,
				"y": -1.2477113768,
				"z": -0.5402857731,
				"element": "H" 
			},
			{
				"x": 0.5105223214,
				"y": -2.8189688086,
				"z": -2.2113197985,
				"element": "H" 
			},
			{
				"x": -1.482943768,
				"y": -2.2078814896,
				"z": -3.5776799118,
				"element": "H" 
			},
			{
				"x": -2.5579970877,
				"y": 0.0319822758,
				"z": -3.2483947561,
				"element": "H" 
			},
			{
				"x": 1.107719504,
				"y": -0.1976309428,
				"z": 1.4540254836,
				"element": "H" 
			},
			{
				"x": 1.1931516728,
				"y": 1.5105917609,
				"z": 1.9170407391,
				"element": "H" 
			},
			{
				"x": 4.4827950449,
				"y": 0.5307310781,
				"z": 1.1076264442,
				"element": "H" 
			}
		],
		 "valence_orbital": [ 
			{
				"type": "occ",
				"energy": -0.30918,
				"method": "rhf"
			},
			{
				"type": "occ",
				"energy": -0.28961,
				"method": "rhf"
			},
			{
				"type": "occ",
				"energy": -0.26314,
				"method": "rhf"
			},
			{
				"type": "occ",
				"energy": -0.24156,
				"method": "rhf"
			},
			{
				"type": "occ",
				"energy": -0.21516,
				"method": "rhf"
			},
			{
				"type": "unocc",
				"energy": -0.01707,
				"method": "rhf"
			},
			{
				"type": "unocc",
				"energy": -0.00638,
				"method": "rhf"
			},
			{
				"type": "unocc",
				"energy": 0.00187,
				"method": "rhf"
			},
			{
				"type": "unocc",
				"energy": 0.02591,
				"method": "rhf"
			},
			{
				"type": "unocc",
				"energy": 0.06485,
				"method": "rhf"
			}
		],
		"cosmo_sigma_profile": { 
			"-0.025": 0.0,
			"-0.024": 0.0,
			"-0.023": 0.0,
			"-0.022": 0.0,
			"-0.021": 0.0,
			"-0.02": 0.0,
			"-0.019": 0.524275091373,
			"-0.018": 0.939782815075,
			"-0.017": 0.66636328528,
			"-0.016": 1.30151035227,
			"-0.015": 0.278537924842,
			"-0.014": 0.509856834457,
			"-0.013": 0.67718314042,
			"-0.012": 1.30134950673,
			"-0.011": 0.710634799637,
			"-0.01": 0.947419307657,
			"-0.009": 2.13282977598,
			"-0.008": 4.9670629143,
			"-0.007": 8.41404113873,
			"-0.006": 11.7225553725,
			"-0.005": 17.9423891569,
			"-0.004": 18.8364230079,
			"-0.003": 17.6884544717,
			"-0.002": 16.8363536509,
			"-0.001": 18.7576361824,
			"0.0": 14.0515337241,
			"0.001": 12.8530174108,
			"0.002": 11.3285814343,
			"0.003": 12.6641044316,
			"0.004": 15.4080430324,
			"0.005": 12.2835166663,
			"0.006": 7.77595845321,
			"0.007": 4.68145161609,
			"0.008": 5.12210399387,
			"0.009": 5.71236667257,
			"0.01": 5.57693212218,
			"0.011": 5.84694783231,
			"0.012": 4.51543143669,
			"0.013": 1.84773631586,
			"0.014": 0.101135742781,
			"0.015": 0.0,
			"0.016": 0.0,
			"0.017": 0.0,
			"0.018": 0.0,
			"0.019": 0.0,
			"0.02": 0.0,
			"0.021": 0.0,
			"0.022": 0.0,
			"0.023": 0.0,
			"0.024": 0.0,
			"0.025": 0.0
		}
	}
}
