{
	 "smiles": "COC(=O)C1=CC(O)=NO1", 
	 "Tm": 433.15, 
	 "num_atms": 15, 
	 "gaussian": { 
		 "optdone": 1, 
		 "sigma_profile": "yes", 
		 "theory": "DFT", 
		 "functional": "B3LYP", 
		 "basiset": "6-31G**", 
		 "properties": { 
			 "R2extent": 1904.5477, 
			 "electric_dipole_moment_norm": 3.32119967181, 
			 "electric_quadrupole_moment_norm": 11.2982571793, 
			 "total_energy": -549.129407824, 
			 "HOMO_LUMO_gap": 0.20527, 
			 "cosmo_polarized_energy": -12.94, 
			 "cosmo_cavitation_energy": 20.94, 
			 "cosmo_dispersion_energy": -15.55, 
			 "cosmo_repulsion_energy": 1.28, 
			 "cosmo_total_nonelectrostatic_energy": 6.67, 
			 "SMD_solvation_energy": 6.01 
		},
		"coords": [
			{
				"x": 0.229956863,
				"y": 2.4695173102,
				"z": -2.4092519749,
				"element": "C" 
			},
			{
				"x": 0.1853157856,
				"y": 2.0346951869,
				"z": -1.038158654,
				"element": "O" 
			},
			{
				"x": -0.3774157143,
				"y": 0.8245664059,
				"z": -0.8429202017,
				"element": "C" 
			},
			{
				"x": -0.8267939388,
				"y": 0.1169546489,
				"z": -1.7156914942,
				"element": "O" 
			},
			{
				"x": -0.3682680108,
				"y": 0.4855665404,
				"z": 0.5987081903,
				"element": "C" 
			},
			{
				"x": 0.0852684177,
				"y": 1.1467969388,
				"z": 1.7020827732,
				"element": "C" 
			},
			{
				"x": -0.225718212,
				"y": 0.244068903,
				"z": 2.7551130901,
				"element": "C" 
			},
			{
				"x": 0.0315226167,
				"y": 0.4511984125,
				"z": 4.0566936236,
				"element": "O" 
			},
			{
				"x": -0.8105049767,
				"y": -0.8547033006,
				"z": 2.3243098805,
				"element": "N" 
			},
			{
				"x": -0.9039571003,
				"y": -0.7040597761,
				"z": 0.9428711769,
				"element": "O" 
			},
			{
				"x": 0.7067954155,
				"y": 3.4487725285,
				"z": -2.3893459504,
				"element": "H" 
			},
			{
				"x": 0.8114856898,
				"y": 1.7691527279,
				"z": -3.0135521263,
				"element": "H" 
			},
			{
				"x": -0.7797150782,
				"y": 2.5400524543,
				"z": -2.8208894604,
				"element": "H" 
			},
			{
				"x": 0.5604639364,
				"y": 2.1119334385,
				"z": 1.7607974384,
				"element": "H" 
			},
			{
				"x": -0.2842356935,
				"y": -0.3222124191,
				"z": 4.5493336891,
				"element": "H" 
			}
		],
		 "valence_orbital": [ 
			{
				"type": "occ",
				"energy": -0.3213,
				"method": "rhf"
			},
			{
				"type": "occ",
				"energy": -0.31719,
				"method": "rhf"
			},
			{
				"type": "occ",
				"energy": -0.29256,
				"method": "rhf"
			},
			{
				"type": "occ",
				"energy": -0.28364,
				"method": "rhf"
			},
			{
				"type": "occ",
				"energy": -0.26881,
				"method": "rhf"
			},
			{
				"type": "unocc",
				"energy": -0.06354,
				"method": "rhf"
			},
			{
				"type": "unocc",
				"energy": 0.04228,
				"method": "rhf"
			},
			{
				"type": "unocc",
				"energy": 0.04842,
				"method": "rhf"
			},
			{
				"type": "unocc",
				"energy": 0.09427,
				"method": "rhf"
			},
			{
				"type": "unocc",
				"energy": 0.10216,
				"method": "rhf"
			}
		],
		"cosmo_sigma_profile": { 
			"-0.025": 0.0,
			"-0.024": 0.0,
			"-0.023": 0.0,
			"-0.022": 0.0,
			"-0.021": 0.0,
			"-0.02": 0.0546899867274,
			"-0.019": 0.789266673761,
			"-0.018": 0.902029677096,
			"-0.017": 1.04015605264,
			"-0.016": 0.592010199908,
			"-0.015": 0.765099828833,
			"-0.014": 1.13219846143,
			"-0.013": 0.620136820966,
			"-0.012": 0.528601294151,
			"-0.011": 0.720789997535,
			"-0.01": 2.04980653352,
			"-0.009": 1.68613287612,
			"-0.008": 2.00464857361,
			"-0.007": 5.33491081054,
			"-0.006": 9.03091948302,
			"-0.005": 10.7674982091,
			"-0.004": 15.2917404775,
			"-0.003": 10.4478878724,
			"-0.002": 10.372667129,
			"-0.001": 14.1851012753,
			"0.0": 9.706371952,
			"0.001": 6.84525186846,
			"0.002": 5.71042186688,
			"0.003": 4.92573342124,
			"0.004": 6.51604609187,
			"0.005": 5.75828310237,
			"0.006": 6.17774077015,
			"0.007": 8.24131823886,
			"0.008": 5.10359450205,
			"0.009": 7.0991913033,
			"0.01": 4.82472061174,
			"0.011": 6.02196635606,
			"0.012": 1.80909594577,
			"0.013": 0.621976875131,
			"0.014": 0.0,
			"0.015": 0.0,
			"0.016": 0.0,
			"0.017": 0.0,
			"0.018": 0.0,
			"0.019": 0.0,
			"0.02": 0.0,
			"0.021": 0.0,
			"0.022": 0.0,
			"0.023": 0.0,
			"0.024": 0.0,
			"0.025": 0.0
		}
	}
}
