{
	 "smiles": "CCOC(=O)C1=C(NC2=CC=C(OC)C=C2)SC2=C1N=C1NN=C(N)C1=C2C1=CC=CC=C1", 
	 "Tm": 523.15, 
	 "num_atms": 54, 
	 "gaussian": { 
		 "optdone": 1, 
		 "sigma_profile": "yes", 
		 "theory": "DFT", 
		 "functional": "B3LYP", 
		 "basiset": "6-31G**", 
		 "properties": { 
			 "R2extent": 19114.9657, 
			 "electric_dipole_moment_norm": 3.81696866898, 
			 "electric_quadrupole_moment_norm": 23.5784917664, 
			 "total_energy": -1824.82040476, 
			 "HOMO_LUMO_gap": 0.13664, 
			 "cosmo_polarized_energy": -27.73, 
			 "cosmo_cavitation_energy": 59.42, 
			 "cosmo_dispersion_energy": -40.84, 
			 "cosmo_repulsion_energy": 3.05, 
			 "cosmo_total_nonelectrostatic_energy": 21.63, 
			 "SMD_solvation_energy": 8.09 
		},
		"coords": [
			{
				"x": 2.8411655282,
				"y": -1.1211898978,
				"z": 4.4350682688,
				"element": "C" 
			},
			{
				"x": 3.316702211,
				"y": -0.7249460411,
				"z": 3.0450762961,
				"element": "C" 
			},
			{
				"x": 2.240421197,
				"y": -0.1573687163,
				"z": 2.2628199371,
				"element": "O" 
			},
			{
				"x": 1.4539744599,
				"y": -1.0371406827,
				"z": 1.5966103921,
				"element": "C" 
			},
			{
				"x": 1.5680609697,
				"y": -2.2424538204,
				"z": 1.677900804,
				"element": "O" 
			},
			{
				"x": 0.4401339789,
				"y": -0.3339239396,
				"z": 0.7691567446,
				"element": "C" 
			},
			{
				"x": 0.6558591609,
				"y": 0.8051727462,
				"z": 0.024439705,
				"element": "C" 
			},
			{
				"x": 1.8058160846,
				"y": 1.5036909558,
				"z": -0.2436584435,
				"element": "N" 
			},
			{
				"x": 3.1205145438,
				"y": 1.0074912211,
				"z": -0.4077109697,
				"element": "C" 
			},
			{
				"x": 4.1936905005,
				"y": 1.8978174446,
				"z": -0.2437021573,
				"element": "C" 
			},
			{
				"x": 5.5005087972,
				"y": 1.4784137352,
				"z": -0.4493438474,
				"element": "C" 
			},
			{
				"x": 5.7707831086,
				"y": 0.1494792505,
				"z": -0.8066264672,
				"element": "C" 
			},
			{
				"x": 7.0897666875,
				"y": -0.1680169489,
				"z": -0.9703322444,
				"element": "O" 
			},
			{
				"x": 7.4151527962,
				"y": -1.498877817,
				"z": -1.3367047745,
				"element": "C" 
			},
			{
				"x": 4.7056753593,
				"y": -0.7435316677,
				"z": -0.9676420594,
				"element": "C" 
			},
			{
				"x": 3.3902727112,
				"y": -0.3119247504,
				"z": -0.7808918526,
				"element": "C" 
			},
			{
				"x": -0.8159607354,
				"y": 1.3985823366,
				"z": -0.772215488,
				"element": "S" 
			},
			{
				"x": -1.7779171541,
				"y": 0.1146696057,
				"z": -0.0376571068,
				"element": "C" 
			},
			{
				"x": -0.9460730347,
				"y": -0.7589987172,
				"z": 0.7418059488,
				"element": "C" 
			},
			{
				"x": -1.4226001187,
				"y": -1.7974693272,
				"z": 1.4345693196,
				"element": "N" 
			},
			{
				"x": -2.7410243655,
				"y": -1.9579775375,
				"z": 1.3292501178,
				"element": "C" 
			},
			{
				"x": -3.4731911822,
				"y": -2.9441458614,
				"z": 1.9079586627,
				"element": "N" 
			},
			{
				"x": -4.8043905904,
				"y": -2.8699605859,
				"z": 1.5793766186,
				"element": "N" 
			},
			{
				"x": -4.9321575753,
				"y": -1.80259425,
				"z": 0.8103638339,
				"element": "C" 
			},
			{
				"x": -6.1888880309,
				"y": -1.3956153192,
				"z": 0.367600486,
				"element": "N" 
			},
			{
				"x": -3.6641893953,
				"y": -1.1522056679,
				"z": 0.5989748567,
				"element": "C" 
			},
			{
				"x": -3.1622176903,
				"y": -0.0442368041,
				"z": -0.1183371807,
				"element": "C" 
			},
			{
				"x": -4.028439832,
				"y": 0.8875700347,
				"z": -0.8887954879,
				"element": "C" 
			},
			{
				"x": -5.1311275706,
				"y": 1.5065996424,
				"z": -0.2756273698,
				"element": "C" 
			},
			{
				"x": -5.9322068219,
				"y": 2.3949245981,
				"z": -0.9929189099,
				"element": "C" 
			},
			{
				"x": -5.6498039764,
				"y": 2.6755808343,
				"z": -2.3315986577,
				"element": "C" 
			},
			{
				"x": -4.5610189299,
				"y": 2.0606833278,
				"z": -2.9521181703,
				"element": "C" 
			},
			{
				"x": -3.7550411269,
				"y": 1.1745256511,
				"z": -2.2370072432,
				"element": "C" 
			},
			{
				"x": 2.3908443834,
				"y": -0.2675671883,
				"z": 4.9504349282,
				"element": "H" 
			},
			{
				"x": 2.1040303145,
				"y": -1.9249074891,
				"z": 4.3711174789,
				"element": "H" 
			},
			{
				"x": 3.6886942889,
				"y": -1.4753410089,
				"z": 5.0319673975,
				"element": "H" 
			},
			{
				"x": 4.0676080051,
				"y": 0.0677020267,
				"z": 3.0866934766,
				"element": "H" 
			},
			{
				"x": 3.7275670652,
				"y": -1.5841985099,
				"z": 2.5095723637,
				"element": "H" 
			},
			{
				"x": 1.6803349737,
				"y": 2.4727740897,
				"z": -0.499026895,
				"element": "H" 
			},
			{
				"x": 3.9983871478,
				"y": 2.925112246,
				"z": 0.0531842193,
				"element": "H" 
			},
			{
				"x": 6.3327062557,
				"y": 2.1637679856,
				"z": -0.3271740455,
				"element": "H" 
			},
			{
				"x": 6.979590087,
				"y": -1.7710229744,
				"z": -2.3070818146,
				"element": "H" 
			},
			{
				"x": 8.5032084247,
				"y": -1.5346279423,
				"z": -1.4102923062,
				"element": "H" 
			},
			{
				"x": 7.0812452368,
				"y": -2.2214875393,
				"z": -0.5805774722,
				"element": "H" 
			},
			{
				"x": 4.8787493828,
				"y": -1.7752371314,
				"z": -1.2493390417,
				"element": "H" 
			},
			{
				"x": 2.5779541683,
				"y": -1.0150471811,
				"z": -0.9267480946,
				"element": "H" 
			},
			{
				"x": -3.1310375592,
				"y": -3.7139783159,
				"z": 2.4587176475,
				"element": "H" 
			},
			{
				"x": -6.1917375529,
				"y": -1.0145340312,
				"z": -0.5695195819,
				"element": "H" 
			},
			{
				"x": -6.8762650994,
				"y": -2.1321657626,
				"z": 0.4769813639,
				"element": "H" 
			},
			{
				"x": -5.3559351744,
				"y": 1.2872269765,
				"z": 0.7625703252,
				"element": "H" 
			},
			{
				"x": -6.7767631468,
				"y": 2.8705846293,
				"z": -0.5027876658,
				"element": "H" 
			},
			{
				"x": -6.2757699605,
				"y": 3.3673237089,
				"z": -2.887853427,
				"element": "H" 
			},
			{
				"x": -4.3401416518,
				"y": 2.2655033368,
				"z": -3.9956890122,
				"element": "H" 
			},
			{
				"x": -2.9202195527,
				"y": 0.6855970431,
				"z": -2.7297334058,
				"element": "H" 
			}
		],
		 "valence_orbital": [ 
			{
				"type": "occ",
				"energy": -0.25043,
				"method": "rhf"
			},
			{
				"type": "occ",
				"energy": -0.23492,
				"method": "rhf"
			},
			{
				"type": "occ",
				"energy": -0.22951,
				"method": "rhf"
			},
			{
				"type": "occ",
				"energy": -0.19318,
				"method": "rhf"
			},
			{
				"type": "occ",
				"energy": -0.1882,
				"method": "rhf"
			},
			{
				"type": "unocc",
				"energy": -0.05156,
				"method": "rhf"
			},
			{
				"type": "unocc",
				"energy": -0.02567,
				"method": "rhf"
			},
			{
				"type": "unocc",
				"energy": -0.01505,
				"method": "rhf"
			},
			{
				"type": "unocc",
				"energy": -0.00952,
				"method": "rhf"
			},
			{
				"type": "unocc",
				"energy": 0.00364,
				"method": "rhf"
			}
		],
		"cosmo_sigma_profile": { 
			"-0.025": 0.0,
			"-0.024": 0.0,
			"-0.023": 0.0,
			"-0.022": 0.0,
			"-0.021": 0.0,
			"-0.02": 0.0,
			"-0.019": 0.0,
			"-0.018": 0.0,
			"-0.017": 0.0236593576667,
			"-0.016": 1.48182742871,
			"-0.015": 2.4157386975,
			"-0.014": 2.18959446273,
			"-0.013": 1.83035998042,
			"-0.012": 3.19883059533,
			"-0.011": 4.43326600193,
			"-0.01": 4.5126683936,
			"-0.009": 4.69049758092,
			"-0.008": 4.00723599326,
			"-0.007": 6.51184359518,
			"-0.006": 20.8601508654,
			"-0.005": 33.5447826709,
			"-0.004": 35.9529895816,
			"-0.003": 34.7503982362,
			"-0.002": 31.4152717678,
			"-0.001": 26.7900739172,
			"0.0": 36.6941032094,
			"0.001": 43.3091930126,
			"0.002": 40.6425523281,
			"0.003": 31.4672395204,
			"0.004": 30.0095730592,
			"0.005": 16.7577718254,
			"0.006": 8.75715370459,
			"0.007": 7.56020296037,
			"0.008": 7.80027005056,
			"0.009": 6.08725719762,
			"0.01": 6.74776827061,
			"0.011": 4.75042566277,
			"0.012": 5.74185503256,
			"0.013": 3.35062163578,
			"0.014": 2.96541002478,
			"0.015": 2.14079534453,
			"0.016": 1.86778423726,
			"0.017": 0.675544247393,
			"0.018": 0.00803844962299,
			"0.019": 0.0,
			"0.02": 0.0,
			"0.021": 0.0,
			"0.022": 0.0,
			"0.023": 0.0,
			"0.024": 0.0,
			"0.025": 0.0
		}
	}
}
