{
	 "smiles": "CC1=C(OCCCC(=O)NN)C=CC(Cl)=C1", 
	 "Tm": 311.15, 
	 "num_atms": 31, 
	 "gaussian": { 
		 "optdone": 1, 
		 "sigma_profile": "yes", 
		 "theory": "DFT", 
		 "functional": "B3LYP", 
		 "basiset": "6-31G**", 
		 "properties": { 
			 "R2extent": 8893.8695, 
			 "electric_dipole_moment_norm": 4.79593252767, 
			 "electric_quadrupole_moment_norm": 31.882768741, 
			 "total_energy": -1148.33910922, 
			 "HOMO_LUMO_gap": 0.20845, 
			 "cosmo_polarized_energy": -17.51, 
			 "cosmo_cavitation_energy": 36.95, 
			 "cosmo_dispersion_energy": -26.13, 
			 "cosmo_repulsion_energy": 2.11, 
			 "cosmo_total_nonelectrostatic_energy": 12.94, 
			 "SMD_solvation_energy": 7.34 
		},
		"coords": [
			{
				"x": -3.697726907,
				"y": -1.8120453502,
				"z": 0.297720833,
				"element": "C" 
			},
			{
				"x": -2.8758250504,
				"y": -2.0378113193,
				"z": 1.5405651868,
				"element": "C" 
			},
			{
				"x": -1.5754667037,
				"y": -1.4936920429,
				"z": 1.6348310083,
				"element": "C" 
			},
			{
				"x": -1.1617696648,
				"y": -0.7813193343,
				"z": 0.546146185,
				"element": "O" 
			},
			{
				"x": 0.1391670784,
				"y": -0.1892296912,
				"z": 0.5573403068,
				"element": "C" 
			},
			{
				"x": 0.3453904622,
				"y": 0.5326677465,
				"z": -0.7655955681,
				"element": "C" 
			},
			{
				"x": 0.3218356137,
				"y": -0.4080238639,
				"z": -1.9713193154,
				"element": "C" 
			},
			{
				"x": 0.5837379105,
				"y": 0.3389777909,
				"z": -3.2708758607,
				"element": "C" 
			},
			{
				"x": 0.8404697132,
				"y": 1.5348496162,
				"z": -3.3253318887,
				"element": "O" 
			},
			{
				"x": 0.5249554172,
				"y": -0.4008483533,
				"z": -4.4287905047,
				"element": "N" 
			},
			{
				"x": 0.2441339176,
				"y": -1.7705321815,
				"z": -4.4476534541,
				"element": "N" 
			},
			{
				"x": -0.8038774455,
				"y": -1.6947018297,
				"z": 2.7830863984,
				"element": "C" 
			},
			{
				"x": -1.311738359,
				"y": -2.4400472733,
				"z": 3.8516125903,
				"element": "C" 
			},
			{
				"x": -2.5889300854,
				"y": -2.9760813708,
				"z": 3.7587595896,
				"element": "C" 
			},
			{
				"x": -3.243577004,
				"y": -3.9180866297,
				"z": 5.0963422037,
				"element": "Cl" 
			},
			{
				"x": -3.3660748592,
				"y": -2.7776325141,
				"z": 2.6150874573,
				"element": "C" 
			},
			{
				"x": -3.2029598477,
				"y": -2.2317302554,
				"z": -0.5853083683,
				"element": "H" 
			},
			{
				"x": -3.8316009363,
				"y": -0.7429255604,
				"z": 0.1012616962,
				"element": "H" 
			},
			{
				"x": -4.683863215,
				"y": -2.2736560351,
				"z": 0.391849094,
				"element": "H" 
			},
			{
				"x": 0.9001670929,
				"y": -0.9708774134,
				"z": 0.700539027,
				"element": "H" 
			},
			{
				"x": 0.2172873,
				"y": 0.5165616308,
				"z": 1.3959075793,
				"element": "H" 
			},
			{
				"x": 1.3034886411,
				"y": 1.0614941436,
				"z": -0.7261389253,
				"element": "H" 
			},
			{
				"x": -0.4225423057,
				"y": 1.30405902,
				"z": -0.8805481692,
				"element": "H" 
			},
			{
				"x": -0.6355820636,
				"y": -0.9328034267,
				"z": -2.0393867745,
				"element": "H" 
			},
			{
				"x": 1.0736129274,
				"y": -1.2010880798,
				"z": -1.8670730187,
				"element": "H" 
			},
			{
				"x": 0.7059951851,
				"y": 0.1176750149,
				"z": -5.2827833156,
				"element": "H" 
			},
			{
				"x": 1.0193504966,
				"y": -2.2860721322,
				"z": -4.8571696791,
				"element": "H" 
			},
			{
				"x": -0.5945443286,
				"y": -1.9530126173,
				"z": -4.9933108768,
				"element": "H" 
			},
			{
				"x": 0.1926854438,
				"y": -1.2780243608,
				"z": 2.8625423245,
				"element": "H" 
			},
			{
				"x": -0.7138794403,
				"y": -2.5963369795,
				"z": 4.7425821574,
				"element": "H" 
			},
			{
				"x": -4.3628189836,
				"y": -3.2035063483,
				"z": 2.5624120816,
				"element": "H" 
			}
		],
		 "valence_orbital": [ 
			{
				"type": "occ",
				"energy": -0.28817,
				"method": "rhf"
			},
			{
				"type": "occ",
				"energy": -0.25795,
				"method": "rhf"
			},
			{
				"type": "occ",
				"energy": -0.25073,
				"method": "rhf"
			},
			{
				"type": "occ",
				"energy": -0.24745,
				"method": "rhf"
			},
			{
				"type": "occ",
				"energy": -0.21334,
				"method": "rhf"
			},
			{
				"type": "unocc",
				"energy": -0.00489,
				"method": "rhf"
			},
			{
				"type": "unocc",
				"energy": 0.0069,
				"method": "rhf"
			},
			{
				"type": "unocc",
				"energy": 0.03122,
				"method": "rhf"
			},
			{
				"type": "unocc",
				"energy": 0.03837,
				"method": "rhf"
			},
			{
				"type": "unocc",
				"energy": 0.05909,
				"method": "rhf"
			}
		],
		"cosmo_sigma_profile": { 
			"-0.025": 0.0,
			"-0.024": 0.0,
			"-0.023": 0.0,
			"-0.022": 0.0,
			"-0.021": 0.0,
			"-0.02": 0.0,
			"-0.019": 0.0,
			"-0.018": 0.0,
			"-0.017": 0.0,
			"-0.016": 0.0,
			"-0.015": 0.0,
			"-0.014": 0.01276092873,
			"-0.013": 0.894523793405,
			"-0.012": 3.25362764079,
			"-0.011": 4.50571301254,
			"-0.01": 5.0658957137,
			"-0.009": 4.82580998932,
			"-0.008": 3.8533084455,
			"-0.007": 5.32327095552,
			"-0.006": 9.02628529499,
			"-0.005": 16.6845519237,
			"-0.004": 22.6695050996,
			"-0.003": 22.3898904169,
			"-0.002": 19.5245981233,
			"-0.001": 21.043496891,
			"0.0": 20.3505548805,
			"0.001": 18.9542069775,
			"0.002": 20.099896743,
			"0.003": 21.9663682844,
			"0.004": 23.8984716973,
			"0.005": 18.3990201803,
			"0.006": 5.5611835558,
			"0.007": 3.06691270211,
			"0.008": 2.57738142456,
			"0.009": 1.97815898662,
			"0.01": 1.71046769176,
			"0.011": 1.81816306929,
			"0.012": 2.42509199781,
			"0.013": 3.03080939201,
			"0.014": 5.84305729277,
			"0.015": 1.81138503943,
			"0.016": 0.0,
			"0.017": 0.0,
			"0.018": 0.0,
			"0.019": 0.0,
			"0.02": 0.0,
			"0.021": 0.0,
			"0.022": 0.0,
			"0.023": 0.0,
			"0.024": 0.0,
			"0.025": 0.0
		}
	}
}
