{
	 "smiles": "CCC[C@@H](NC(N)=O)C(O)=O", 
	 "Tm": 457.15, 
	 "num_atms": 23, 
	 "gaussian": { 
		 "optdone": 1, 
		 "sigma_profile": "yes", 
		 "theory": "DFT", 
		 "functional": "B3LYP", 
		 "basiset": "6-31G**", 
		 "properties": { 
			 "R2extent": 3043.154, 
			 "electric_dipole_moment_norm": 2.65091783728, 
			 "electric_quadrupole_moment_norm": 15.0600352231, 
			 "total_energy": -571.098233927, 
			 "HOMO_LUMO_gap": 0.24434, 
			 "cosmo_polarized_energy": -17.84, 
			 "cosmo_cavitation_energy": 26.74, 
			 "cosmo_dispersion_energy": -18.85, 
			 "cosmo_repulsion_energy": 1.58, 
			 "cosmo_total_nonelectrostatic_energy": 9.47, 
			 "SMD_solvation_energy": 6.23 
		},
		"coords": [
			{
				"x": 0.31866144,
				"y": -1.1050597116,
				"z": 1.4916581887,
				"element": "C" 
			},
			{
				"x": -0.228752891,
				"y": 0.1069356819,
				"z": 0.7308863184,
				"element": "C" 
			},
			{
				"x": 0.167890952,
				"y": 0.0954827937,
				"z": -0.749283388,
				"element": "C" 
			},
			{
				"x": -0.4433731095,
				"y": 1.2444413084,
				"z": -1.5895965735,
				"element": "C" 
			},
			{
				"x": -1.8919498597,
				"y": 1.2117375836,
				"z": -1.640610878,
				"element": "N" 
			},
			{
				"x": -2.5325316698,
				"y": 0.4004240336,
				"z": -2.546385234,
				"element": "C" 
			},
			{
				"x": -3.9128264167,
				"y": 0.5420827417,
				"z": -2.5799971953,
				"element": "N" 
			},
			{
				"x": -1.9387861447,
				"y": -0.4263903607,
				"z": -3.2319562509,
				"element": "O" 
			},
			{
				"x": -0.0358979035,
				"y": 2.6098109601,
				"z": -1.060452842,
				"element": "C" 
			},
			{
				"x": 1.3004492932,
				"y": 2.7834883275,
				"z": -1.0841987002,
				"element": "O" 
			},
			{
				"x": -0.803081891,
				"y": 3.4565220064,
				"z": -0.6483706589,
				"element": "O" 
			},
			{
				"x": 0.0244325266,
				"y": -1.0793544107,
				"z": 2.5458794596,
				"element": "H" 
			},
			{
				"x": 1.4134411058,
				"y": -1.1389652495,
				"z": 1.4521829593,
				"element": "H" 
			},
			{
				"x": -0.0561606382,
				"y": -2.0412441344,
				"z": 1.0632701473,
				"element": "H" 
			},
			{
				"x": -1.3222770164,
				"y": 0.127907713,
				"z": 0.8095167766,
				"element": "H" 
			},
			{
				"x": 0.1343541628,
				"y": 1.0280094368,
				"z": 1.2076922738,
				"element": "H" 
			},
			{
				"x": 1.2585574787,
				"y": 0.140583092,
				"z": -0.849741551,
				"element": "H" 
			},
			{
				"x": -0.1633304769,
				"y": -0.8336216562,
				"z": -1.2242187279,
				"element": "H" 
			},
			{
				"x": -0.0486820128,
				"y": 1.1461299601,
				"z": -2.6087290292,
				"element": "H" 
			},
			{
				"x": -2.3664286548,
				"y": 1.9747378512,
				"z": -1.177232055,
				"element": "H" 
			},
			{
				"x": -4.3237629989,
				"y": 1.4293301758,
				"z": -2.3268549972,
				"element": "H" 
			},
			{
				"x": -4.3346169406,
				"y": 0.0880606368,
				"z": -3.3766368535,
				"element": "H" 
			},
			{
				"x": 1.4700716653,
				"y": 3.6674512205,
				"z": -0.7170211892,
				"element": "H" 
			}
		],
		 "valence_orbital": [ 
			{
				"type": "occ",
				"energy": -0.32843,
				"method": "rhf"
			},
			{
				"type": "occ",
				"energy": -0.29131,
				"method": "rhf"
			},
			{
				"type": "occ",
				"energy": -0.2676,
				"method": "rhf"
			},
			{
				"type": "occ",
				"energy": -0.25136,
				"method": "rhf"
			},
			{
				"type": "occ",
				"energy": -0.24795,
				"method": "rhf"
			},
			{
				"type": "unocc",
				"energy": -0.00361,
				"method": "rhf"
			},
			{
				"type": "unocc",
				"energy": 0.05662,
				"method": "rhf"
			},
			{
				"type": "unocc",
				"energy": 0.06356,
				"method": "rhf"
			},
			{
				"type": "unocc",
				"energy": 0.07804,
				"method": "rhf"
			},
			{
				"type": "unocc",
				"energy": 0.10763,
				"method": "rhf"
			}
		],
		"cosmo_sigma_profile": { 
			"-0.025": 0.0,
			"-0.024": 0.0,
			"-0.023": 0.0,
			"-0.022": 0.0,
			"-0.021": 0.0,
			"-0.02": 0.0,
			"-0.019": 0.270057308224,
			"-0.018": 1.44683190691,
			"-0.017": 0.190384767091,
			"-0.016": 1.44328605259,
			"-0.015": 1.76854786814,
			"-0.014": 2.54815934487,
			"-0.013": 2.99188114145,
			"-0.012": 3.79742524532,
			"-0.011": 3.32317977956,
			"-0.01": 3.57538263169,
			"-0.009": 1.71290798181,
			"-0.008": 3.30552125249,
			"-0.007": 3.64957605937,
			"-0.006": 5.04059388322,
			"-0.005": 4.39922464357,
			"-0.004": 4.90159766176,
			"-0.003": 13.1924563304,
			"-0.002": 19.9948310301,
			"-0.001": 22.5148558553,
			"0.0": 22.8684121319,
			"0.001": 18.13064924,
			"0.002": 8.68681098263,
			"0.003": 6.84793993679,
			"0.004": 5.79577573922,
			"0.005": 4.78469012212,
			"0.006": 4.54162966322,
			"0.007": 4.47021881663,
			"0.008": 4.96436500232,
			"0.009": 4.70287328256,
			"0.01": 4.30212952051,
			"0.011": 5.31380895189,
			"0.012": 2.84880953033,
			"0.013": 1.54865074017,
			"0.014": 4.39197812765,
			"0.015": 3.52308558068,
			"0.016": 0.154111314525,
			"0.017": 0.0,
			"0.018": 0.0,
			"0.019": 0.0,
			"0.02": 0.0,
			"0.021": 0.0,
			"0.022": 0.0,
			"0.023": 0.0,
			"0.024": 0.0,
			"0.025": 0.0
		}
	}
}
