{
	 "smiles": "OC(=O)C1=NN(C=C1)C1=C(Cl)C=C(Cl)C=C1", 
	 "Tm": 453.15, 
	 "num_atms": 22, 
	 "gaussian": { 
		 "optdone": 1, 
		 "sigma_profile": "yes", 
		 "theory": "DFT", 
		 "functional": "B3LYP", 
		 "basiset": "6-31G**", 
		 "properties": { 
			 "R2extent": 6737.537, 
			 "electric_dipole_moment_norm": 4.30084240702, 
			 "electric_quadrupole_moment_norm": 14.6405604551, 
			 "total_energy": -1564.99655863, 
			 "HOMO_LUMO_gap": 0.2058, 
			 "cosmo_polarized_energy": -17.24, 
			 "cosmo_cavitation_energy": 31.99, 
			 "cosmo_dispersion_energy": -22.95, 
			 "cosmo_repulsion_energy": 1.8, 
			 "cosmo_total_nonelectrostatic_energy": 10.84, 
			 "SMD_solvation_energy": 5.99 
		},
		"coords": [
			{
				"x": -0.0077429605,
				"y": 2.1559846773,
				"z": -4.6023719111,
				"element": "O" 
			},
			{
				"x": 0.9521696545,
				"y": 2.1065321365,
				"z": -3.6395320404,
				"element": "C" 
			},
			{
				"x": 2.1116205141,
				"y": 2.3796767501,
				"z": -3.8541579369,
				"element": "O" 
			},
			{
				"x": 0.3763151873,
				"y": 1.685298805,
				"z": -2.3441305706,
				"element": "C" 
			},
			{
				"x": 1.1641626084,
				"y": 1.5786011593,
				"z": -1.2707391793,
				"element": "N" 
			},
			{
				"x": 0.3363477052,
				"y": 1.185486678,
				"z": -0.2852957179,
				"element": "N" 
			},
			{
				"x": -0.9629699656,
				"y": 1.0481425428,
				"z": -0.7083351996,
				"element": "C" 
			},
			{
				"x": -0.9732374692,
				"y": 1.3631854215,
				"z": -2.0456268002,
				"element": "C" 
			},
			{
				"x": 0.8181402592,
				"y": 1.0062526875,
				"z": 1.0409796613,
				"element": "C" 
			},
			{
				"x": 1.7926598378,
				"y": 0.0448421477,
				"z": 1.3532229579,
				"element": "C" 
			},
			{
				"x": 2.4399043706,
				"y": -1.0188547931,
				"z": 0.1350685331,
				"element": "Cl" 
			},
			{
				"x": 2.2403294935,
				"y": -0.1000259224,
				"z": 2.6668532112,
				"element": "C" 
			},
			{
				"x": 1.6977977701,
				"y": 0.7051906007,
				"z": 3.6667249497,
				"element": "C" 
			},
			{
				"x": 2.2602000455,
				"y": 0.5108525106,
				"z": 5.3140122499,
				"element": "Cl" 
			},
			{
				"x": 0.7178668311,
				"y": 1.654780473,
				"z": 3.3806453633,
				"element": "C" 
			},
			{
				"x": 0.2920770344,
				"y": 1.8006586915,
				"z": 2.0635724174,
				"element": "C" 
			},
			{
				"x": 0.448929136,
				"y": 2.4367331638,
				"z": -5.4123495054,
				"element": "H" 
			},
			{
				"x": -1.7406634939,
				"y": 0.7243928628,
				"z": -0.0329058722,
				"element": "H" 
			},
			{
				"x": -1.8129209689,
				"y": 1.3605275926,
				"z": -2.7222245995,
				"element": "H" 
			},
			{
				"x": 2.9932284425,
				"y": -0.8418726806,
				"z": 2.9022474581,
				"element": "H" 
			},
			{
				"x": 0.3086924611,
				"y": 2.2761657184,
				"z": 4.1683755237,
				"element": "H" 
			},
			{
				"x": -0.4483064931,
				"y": 2.5520487771,
				"z": 1.8095670077,
				"element": "H" 
			}
		],
		 "valence_orbital": [ 
			{
				"type": "occ",
				"energy": -0.28738,
				"method": "rhf"
			},
			{
				"type": "occ",
				"energy": -0.27536,
				"method": "rhf"
			},
			{
				"type": "occ",
				"energy": -0.27301,
				"method": "rhf"
			},
			{
				"type": "occ",
				"energy": -0.26614,
				"method": "rhf"
			},
			{
				"type": "occ",
				"energy": -0.25607,
				"method": "rhf"
			},
			{
				"type": "unocc",
				"energy": -0.05027,
				"method": "rhf"
			},
			{
				"type": "unocc",
				"energy": -0.04163,
				"method": "rhf"
			},
			{
				"type": "unocc",
				"energy": -0.0267,
				"method": "rhf"
			},
			{
				"type": "unocc",
				"energy": -0.00367,
				"method": "rhf"
			},
			{
				"type": "unocc",
				"energy": 0.01579,
				"method": "rhf"
			}
		],
		"cosmo_sigma_profile": { 
			"-0.025": 0.0,
			"-0.024": 0.0,
			"-0.023": 0.0,
			"-0.022": 0.0,
			"-0.021": 0.0,
			"-0.02": 0.0,
			"-0.019": 0.0605127691236,
			"-0.018": 0.992367729616,
			"-0.017": 0.506155258764,
			"-0.016": 1.13660373026,
			"-0.015": 0.864502612974,
			"-0.014": 0.718060602813,
			"-0.013": 0.366301944211,
			"-0.012": 0.713431562416,
			"-0.011": 0.92713182275,
			"-0.01": 2.71099989134,
			"-0.009": 4.67551108246,
			"-0.008": 9.99289539338,
			"-0.007": 10.6751440843,
			"-0.006": 8.94559121165,
			"-0.005": 9.6211933991,
			"-0.004": 9.15860352994,
			"-0.003": 12.5608367771,
			"-0.002": 16.3562166886,
			"-0.001": 19.116465756,
			"0.0": 30.9644483239,
			"0.001": 25.5329011966,
			"0.002": 19.7901532603,
			"0.003": 22.80431265,
			"0.004": 15.3382401534,
			"0.005": 5.08887325543,
			"0.006": 4.22376357345,
			"0.007": 4.1455487114,
			"0.008": 3.3674219824,
			"0.009": 2.76134182008,
			"0.01": 3.58689404234,
			"0.011": 5.28746995289,
			"0.012": 4.63275056967,
			"0.013": 2.58724386748,
			"0.014": 2.06703082613,
			"0.015": 0.215731146696,
			"0.016": 0.0,
			"0.017": 0.0,
			"0.018": 0.0,
			"0.019": 0.0,
			"0.02": 0.0,
			"0.021": 0.0,
			"0.022": 0.0,
			"0.023": 0.0,
			"0.024": 0.0,
			"0.025": 0.0
		}
	}
}
