{
	 "smiles": "CCOC1=CC=C(F)C=C1", 
	 "Tm": 264.65, 
	 "num_atms": 19, 
	 "gaussian": { 
		 "optdone": 1, 
		 "sigma_profile": "yes", 
		 "theory": "DFT", 
		 "functional": "B3LYP", 
		 "basiset": "6-31G**", 
		 "properties": { 
			 "R2extent": 2420.679, 
			 "electric_dipole_moment_norm": 2.38893134476, 
			 "electric_quadrupole_moment_norm": 7.27883664056, 
			 "total_energy": -485.327584801, 
			 "HOMO_LUMO_gap": 0.20552, 
			 "cosmo_polarized_energy": -5.17, 
			 "cosmo_cavitation_energy": 23.07, 
			 "cosmo_dispersion_energy": -17.07, 
			 "cosmo_repulsion_energy": 1.38, 
			 "cosmo_total_nonelectrostatic_energy": 7.38, 
			 "SMD_solvation_energy": 4.9 
		},
		"coords": [
			{
				"x": 2.1700032284,
				"y": 0.7630366831,
				"z": 2.4464596466,
				"element": "C" 
			},
			{
				"x": 1.7371528946,
				"y": 0.7358662674,
				"z": 0.9909329894,
				"element": "C" 
			},
			{
				"x": 1.1488914971,
				"y": -0.5386305694,
				"z": 0.7406459653,
				"element": "O" 
			},
			{
				"x": 0.6766574055,
				"y": -0.8077025663,
				"z": -0.5128354168,
				"element": "C" 
			},
			{
				"x": 0.110785281,
				"y": -2.0801257981,
				"z": -0.689325226,
				"element": "C" 
			},
			{
				"x": -0.4008670792,
				"y": -2.4597298027,
				"z": -1.9247958186,
				"element": "C" 
			},
			{
				"x": -0.3442919387,
				"y": -1.5594706803,
				"z": -2.9860453887,
				"element": "C" 
			},
			{
				"x": -0.8416779083,
				"y": -1.9269838982,
				"z": -4.1893521464,
				"element": "F" 
			},
			{
				"x": 0.2097122643,
				"y": -0.2978054453,
				"z": -2.8353592442,
				"element": "C" 
			},
			{
				"x": 0.7245616299,
				"y": 0.0839052659,
				"z": -1.5917889513,
				"element": "C" 
			},
			{
				"x": 1.3107588884,
				"y": 0.6149231183,
				"z": 3.1063461137,
				"element": "H" 
			},
			{
				"x": 2.6292539869,
				"y": 1.7273995024,
				"z": 2.6846595714,
				"element": "H" 
			},
			{
				"x": 2.8985410778,
				"y": -0.0275551473,
				"z": 2.646171751,
				"element": "H" 
			},
			{
				"x": 1.0079383603,
				"y": 1.5327587718,
				"z": 0.7844982113,
				"element": "H" 
			},
			{
				"x": 2.5977435649,
				"y": 0.8894187663,
				"z": 0.3236882206,
				"element": "H" 
			},
			{
				"x": 0.0830890395,
				"y": -2.7562386957,
				"z": 0.1586465511,
				"element": "H" 
			},
			{
				"x": -0.840830821,
				"y": -3.4397972548,
				"z": -2.0750201805,
				"element": "H" 
			},
			{
				"x": 0.2381180237,
				"y": 0.3793605914,
				"z": -3.6823403967,
				"element": "H" 
			},
			{
				"x": 1.1557606048,
				"y": 1.0713708916,
				"z": -1.4820862513,
				"element": "H" 
			}
		],
		 "valence_orbital": [ 
			{
				"type": "occ",
				"energy": -0.34987,
				"method": "rhf"
			},
			{
				"type": "occ",
				"energy": -0.32674,
				"method": "rhf"
			},
			{
				"type": "occ",
				"energy": -0.30959,
				"method": "rhf"
			},
			{
				"type": "occ",
				"energy": -0.25732,
				"method": "rhf"
			},
			{
				"type": "occ",
				"energy": -0.21364,
				"method": "rhf"
			},
			{
				"type": "unocc",
				"energy": -0.00812,
				"method": "rhf"
			},
			{
				"type": "unocc",
				"energy": 0.01891,
				"method": "rhf"
			},
			{
				"type": "unocc",
				"energy": 0.08806,
				"method": "rhf"
			},
			{
				"type": "unocc",
				"energy": 0.09689,
				"method": "rhf"
			},
			{
				"type": "unocc",
				"energy": 0.12572,
				"method": "rhf"
			}
		],
		"cosmo_sigma_profile": { 
			"-0.025": 0.0,
			"-0.024": 0.0,
			"-0.023": 0.0,
			"-0.022": 0.0,
			"-0.021": 0.0,
			"-0.02": 0.0,
			"-0.019": 0.0,
			"-0.018": 0.0,
			"-0.017": 0.0,
			"-0.016": 0.0,
			"-0.015": 0.0,
			"-0.014": 0.0,
			"-0.013": 0.0,
			"-0.012": 0.0,
			"-0.011": 0.0,
			"-0.01": 0.0,
			"-0.009": 0.0,
			"-0.008": 0.094945928684,
			"-0.007": 3.46150170695,
			"-0.006": 8.16863148118,
			"-0.005": 11.8169865062,
			"-0.004": 18.287349802,
			"-0.003": 16.5601006651,
			"-0.002": 15.2641918505,
			"-0.001": 12.3318430017,
			"0.0": 14.2321691571,
			"0.001": 12.9533874249,
			"0.002": 12.7897132599,
			"0.003": 14.8363141181,
			"0.004": 20.1740456104,
			"0.005": 14.729988098,
			"0.006": 1.51993203824,
			"0.007": 1.98302441695,
			"0.008": 1.39263254282,
			"0.009": 1.09788325586,
			"0.01": 1.53101810445,
			"0.011": 0.0691088478149,
			"0.012": 0.0,
			"0.013": 0.0,
			"0.014": 0.0,
			"0.015": 0.0,
			"0.016": 0.0,
			"0.017": 0.0,
			"0.018": 0.0,
			"0.019": 0.0,
			"0.02": 0.0,
			"0.021": 0.0,
			"0.022": 0.0,
			"0.023": 0.0,
			"0.024": 0.0,
			"0.025": 0.0
		}
	}
}
