{
	 "smiles": "ClC1=CCCNC1=O", 
	 "Tm": 350.15, 
	 "num_atms": 14, 
	 "gaussian": { 
		 "optdone": 1, 
		 "sigma_profile": "yes", 
		 "theory": "DFT", 
		 "functional": "B3LYP", 
		 "basiset": "6-31G**", 
		 "properties": { 
			 "R2extent": 2535.3113, 
			 "electric_dipole_moment_norm": 5.3399417862, 
			 "electric_quadrupole_moment_norm": 18.6918711332, 
			 "total_energy": -784.310051327, 
			 "HOMO_LUMO_gap": 0.20652, 
			 "cosmo_polarized_energy": -13.47, 
			 "cosmo_cavitation_energy": 19.19, 
			 "cosmo_dispersion_energy": -14.8, 
			 "cosmo_repulsion_energy": 1.25, 
			 "cosmo_total_nonelectrostatic_energy": 5.63, 
			 "SMD_solvation_energy": 2.88 
		},
		"coords": [
			{
				"x": -2.130597448,
				"y": 2.0505479763,
				"z": 2.6579646716,
				"element": "Cl" 
			},
			{
				"x": -0.6007622368,
				"y": 1.5943168286,
				"z": 1.9559384891,
				"element": "C" 
			},
			{
				"x": -0.2267459304,
				"y": 2.0185666686,
				"z": 0.7420390332,
				"element": "C" 
			},
			{
				"x": 1.0913665102,
				"y": 1.5953161232,
				"z": 0.1472178591,
				"element": "C" 
			},
			{
				"x": 2.0974896397,
				"y": 1.2569110602,
				"z": 1.2476603354,
				"element": "C" 
			},
			{
				"x": 1.4696065001,
				"y": 0.3850310696,
				"z": 2.2359131703,
				"element": "N" 
			},
			{
				"x": 0.2302988607,
				"y": 0.6445509789,
				"z": 2.7767180007,
				"element": "C" 
			},
			{
				"x": -0.1689364598,
				"y": 0.111228779,
				"z": 3.7989330147,
				"element": "O" 
			},
			{
				"x": -0.8906191296,
				"y": 2.6479074006,
				"z": 0.1561760668,
				"element": "H" 
			},
			{
				"x": 0.9317947654,
				"y": 0.7239085758,
				"z": -0.5046521814,
				"element": "H" 
			},
			{
				"x": 1.4942355605,
				"y": 2.3924953964,
				"z": -0.4866226867,
				"element": "H" 
			},
			{
				"x": 2.9654657259,
				"y": 0.7394975268,
				"z": 0.8295275016,
				"element": "H" 
			},
			{
				"x": 2.4576632151,
				"y": 2.1880465393,
				"z": 1.712430418,
				"element": "H" 
			},
			{
				"x": 2.0634404268,
				"y": -0.1553249232,
				"z": 2.8516563074,
				"element": "H" 
			}
		],
		 "valence_orbital": [ 
			{
				"type": "occ",
				"energy": -0.34517,
				"method": "rhf"
			},
			{
				"type": "occ",
				"energy": -0.30757,
				"method": "rhf"
			},
			{
				"type": "occ",
				"energy": -0.2672,
				"method": "rhf"
			},
			{
				"type": "occ",
				"energy": -0.25845,
				"method": "rhf"
			},
			{
				"type": "occ",
				"energy": -0.25189,
				"method": "rhf"
			},
			{
				"type": "unocc",
				"energy": -0.04537,
				"method": "rhf"
			},
			{
				"type": "unocc",
				"energy": 0.03279,
				"method": "rhf"
			},
			{
				"type": "unocc",
				"energy": 0.06942,
				"method": "rhf"
			},
			{
				"type": "unocc",
				"energy": 0.08581,
				"method": "rhf"
			},
			{
				"type": "unocc",
				"energy": 0.11016,
				"method": "rhf"
			}
		],
		"cosmo_sigma_profile": { 
			"-0.025": 0.0,
			"-0.024": 0.0,
			"-0.023": 0.0,
			"-0.022": 0.0,
			"-0.021": 0.0,
			"-0.02": 0.0,
			"-0.019": 0.0,
			"-0.018": 0.0,
			"-0.017": 0.0,
			"-0.016": 0.0,
			"-0.015": 0.0,
			"-0.014": 0.678511945545,
			"-0.013": 1.32884388372,
			"-0.012": 1.27650690562,
			"-0.011": 1.06480148415,
			"-0.01": 0.758551737169,
			"-0.009": 1.15050372242,
			"-0.008": 2.48752989688,
			"-0.007": 4.05598490788,
			"-0.006": 9.39034502267,
			"-0.005": 14.2650474917,
			"-0.004": 15.9899727405,
			"-0.003": 13.9636374309,
			"-0.002": 9.06092584644,
			"-0.001": 7.74517812929,
			"0.0": 7.24317446934,
			"0.001": 8.60533293618,
			"0.002": 6.72663084007,
			"0.003": 7.43606414463,
			"0.004": 8.56235484107,
			"0.005": 8.40840448755,
			"0.006": 2.45525984845,
			"0.007": 2.09782475355,
			"0.008": 1.39427189095,
			"0.009": 1.85459002619,
			"0.01": 2.18769689868,
			"0.011": 1.62781464171,
			"0.012": 2.84698347829,
			"0.013": 6.0677127188,
			"0.014": 3.26937332894,
			"0.015": 0.169544775674,
			"0.016": 0.0,
			"0.017": 0.0,
			"0.018": 0.0,
			"0.019": 0.0,
			"0.02": 0.0,
			"0.021": 0.0,
			"0.022": 0.0,
			"0.023": 0.0,
			"0.024": 0.0,
			"0.025": 0.0
		}
	}
}
