{
	 "smiles": "ClCC(=O)NCC1=CC=C(COC2=CC=CC=C2)C=C1", 
	 "Tm": 397.15, 
	 "num_atms": 36, 
	 "gaussian": { 
		 "optdone": 1, 
		 "sigma_profile": "yes", 
		 "theory": "DFT", 
		 "functional": "B3LYP", 
		 "basiset": "6-31G**", 
		 "properties": { 
			 "R2extent": 9367.6282, 
			 "electric_dipole_moment_norm": 0.699763574359, 
			 "electric_quadrupole_moment_norm": 7.90082330773, 
			 "total_energy": -1284.74975006, 
			 "HOMO_LUMO_gap": 0.20263, 
			 "cosmo_polarized_energy": -14.4, 
			 "cosmo_cavitation_energy": 42.0, 
			 "cosmo_dispersion_energy": -29.52, 
			 "cosmo_repulsion_energy": 2.33, 
			 "cosmo_total_nonelectrostatic_energy": 14.81, 
			 "SMD_solvation_energy": 6.76 
		},
		"coords": [
			{
				"x": 4.0394626115,
				"y": 2.8289089407,
				"z": -0.6264059046,
				"element": "Cl" 
			},
			{
				"x": 3.0296568321,
				"y": 2.9142286347,
				"z": -2.1347017527,
				"element": "C" 
			},
			{
				"x": 1.5127927125,
				"y": 3.0026530507,
				"z": -1.9491808437,
				"element": "C" 
			},
			{
				"x": 0.8315971033,
				"y": 3.0500856572,
				"z": -2.968957704,
				"element": "O" 
			},
			{
				"x": 1.0238441342,
				"y": 3.038634471,
				"z": -0.6895915001,
				"element": "N" 
			},
			{
				"x": -0.4137902178,
				"y": 3.0929009752,
				"z": -0.4215043211,
				"element": "C" 
			},
			{
				"x": -1.0292699967,
				"y": 1.7366059194,
				"z": -0.1338002091,
				"element": "C" 
			},
			{
				"x": -1.1860796277,
				"y": 0.799554235,
				"z": -1.1651535126,
				"element": "C" 
			},
			{
				"x": -1.7322525928,
				"y": -0.4543851584,
				"z": -0.9009931167,
				"element": "C" 
			},
			{
				"x": -2.1449389978,
				"y": -0.7992342482,
				"z": 0.392961193,
				"element": "C" 
			},
			{
				"x": -2.8013416604,
				"y": -2.1430070283,
				"z": 0.6494819866,
				"element": "C" 
			},
			{
				"x": -2.6636370083,
				"y": -2.6163788466,
				"z": 1.9851862314,
				"element": "O" 
			},
			{
				"x": -1.4875495501,
				"y": -3.2114908745,
				"z": 2.3672182094,
				"element": "C" 
			},
			{
				"x": -0.3287253209,
				"y": -3.2668345985,
				"z": 1.584554483,
				"element": "C" 
			},
			{
				"x": 0.8050276254,
				"y": -3.9155741086,
				"z": 2.0844110923,
				"element": "C" 
			},
			{
				"x": 0.7986970434,
				"y": -4.5005902186,
				"z": 3.3489122559,
				"element": "C" 
			},
			{
				"x": -0.3624280967,
				"y": -4.4327944634,
				"z": 4.1261451745,
				"element": "C" 
			},
			{
				"x": -1.4996775082,
				"y": -3.7945660374,
				"z": 3.642329102,
				"element": "C" 
			},
			{
				"x": -1.9951374232,
				"y": 0.1361241438,
				"z": 1.4203610992,
				"element": "C" 
			},
			{
				"x": -1.4383617879,
				"y": 1.3884907095,
				"z": 1.1573711237,
				"element": "C" 
			},
			{
				"x": 3.3576225132,
				"y": 3.7917415979,
				"z": -2.6922916072,
				"element": "H" 
			},
			{
				"x": 3.2517506403,
				"y": 2.0217216781,
				"z": -2.7197254672,
				"element": "H" 
			},
			{
				"x": 1.6647006132,
				"y": 2.9031565379,
				"z": 0.0798675268,
				"element": "H" 
			},
			{
				"x": -0.8703460204,
				"y": 3.5391448392,
				"z": -1.3084341915,
				"element": "H" 
			},
			{
				"x": -0.5778182511,
				"y": 3.7692756031,
				"z": 0.4233262423,
				"element": "H" 
			},
			{
				"x": -0.870912658,
				"y": 1.0600167977,
				"z": -2.1717836696,
				"element": "H" 
			},
			{
				"x": -1.8427773992,
				"y": -1.1720300108,
				"z": -1.7112710527,
				"element": "H" 
			},
			{
				"x": -3.8846976781,
				"y": -2.0589549713,
				"z": 0.5067082164,
				"element": "H" 
			},
			{
				"x": -2.4360849544,
				"y": -2.8928783644,
				"z": -0.064893143,
				"element": "H" 
			},
			{
				"x": -0.2907937193,
				"y": -2.796434972,
				"z": 0.6096040604,
				"element": "H" 
			},
			{
				"x": 1.7018426333,
				"y": -3.9531172708,
				"z": 1.4721773439,
				"element": "H" 
			},
			{
				"x": 1.684984628,
				"y": -5.0001983151,
				"z": 3.7275347038,
				"element": "H" 
			},
			{
				"x": -0.3840194823,
				"y": -4.8834820249,
				"z": 5.114470845,
				"element": "H" 
			},
			{
				"x": -2.411496337,
				"y": -3.7388808229,
				"z": 4.2282466751,
				"element": "H" 
			},
			{
				"x": -2.3074328234,
				"y": -0.124914285,
				"z": 2.4264520598,
				"element": "H" 
			},
			{
				"x": -1.3253099784,
				"y": 2.1046028287,
				"z": 1.9683683711,
				"element": "H" 
			}
		],
		 "valence_orbital": [ 
			{
				"type": "occ",
				"energy": -0.26169,
				"method": "rhf"
			},
			{
				"type": "occ",
				"energy": -0.25651,
				"method": "rhf"
			},
			{
				"type": "occ",
				"energy": -0.2496,
				"method": "rhf"
			},
			{
				"type": "occ",
				"energy": -0.24278,
				"method": "rhf"
			},
			{
				"type": "occ",
				"energy": -0.21849,
				"method": "rhf"
			},
			{
				"type": "unocc",
				"energy": -0.01586,
				"method": "rhf"
			},
			{
				"type": "unocc",
				"energy": -0.01025,
				"method": "rhf"
			},
			{
				"type": "unocc",
				"energy": 0.00292,
				"method": "rhf"
			},
			{
				"type": "unocc",
				"energy": 0.01175,
				"method": "rhf"
			},
			{
				"type": "unocc",
				"energy": 0.01497,
				"method": "rhf"
			}
		],
		"cosmo_sigma_profile": { 
			"-0.025": 0.0,
			"-0.024": 0.0,
			"-0.023": 0.0,
			"-0.022": 0.0,
			"-0.021": 0.0,
			"-0.02": 0.0,
			"-0.019": 0.0,
			"-0.018": 0.0,
			"-0.017": 0.0,
			"-0.016": 0.0,
			"-0.015": 0.0,
			"-0.014": 0.0,
			"-0.013": 0.373097879849,
			"-0.012": 1.06145457987,
			"-0.011": 0.572300102515,
			"-0.01": 0.809407233026,
			"-0.009": 3.93509250511,
			"-0.008": 5.14830857548,
			"-0.007": 6.35701322294,
			"-0.006": 20.942229285,
			"-0.005": 26.5053288999,
			"-0.004": 29.7389282027,
			"-0.003": 26.6589294917,
			"-0.002": 20.5983408769,
			"-0.001": 20.8055262999,
			"0.0": 21.2151084112,
			"0.001": 20.1402633042,
			"0.002": 21.7166851204,
			"0.003": 22.1093174127,
			"0.004": 24.1908697218,
			"0.005": 27.5075499218,
			"0.006": 16.1957799313,
			"0.007": 3.14662091743,
			"0.008": 2.56753782803,
			"0.009": 2.80745036756,
			"0.01": 2.00458604244,
			"0.011": 0.904865723043,
			"0.012": 2.65993534499,
			"0.013": 4.13220655483,
			"0.014": 1.73841624371,
			"0.015": 0.0404859387156,
			"0.016": 0.0,
			"0.017": 0.0,
			"0.018": 0.0,
			"0.019": 0.0,
			"0.02": 0.0,
			"0.021": 0.0,
			"0.022": 0.0,
			"0.023": 0.0,
			"0.024": 0.0,
			"0.025": 0.0
		}
	}
}
