{
	 "smiles": "OC1=CC=C(Cl)C2=CC=CN=C12", 
	 "Tm": 403.15, 
	 "num_atms": 18, 
	 "gaussian": { 
		 "optdone": 1, 
		 "sigma_profile": "yes", 
		 "theory": "DFT", 
		 "functional": "B3LYP", 
		 "basiset": "6-31G**", 
		 "properties": { 
			 "R2extent": 3315.8628, 
			 "electric_dipole_moment_norm": 1.81335570697, 
			 "electric_quadrupole_moment_norm": 6.37000499293, 
			 "total_energy": -936.751155293, 
			 "HOMO_LUMO_gap": 0.15116, 
			 "cosmo_polarized_energy": -6.17, 
			 "cosmo_cavitation_energy": 23.67, 
			 "cosmo_dispersion_energy": -18.27, 
			 "cosmo_repulsion_energy": 1.43, 
			 "cosmo_total_nonelectrostatic_energy": 6.83, 
			 "SMD_solvation_energy": 3.14 
		},
		"coords": [
			{
				"x": 1.248225513,
				"y": -0.8214858111,
				"z": 2.1959476963,
				"element": "O" 
			},
			{
				"x": 1.5151760092,
				"y": -1.1975549693,
				"z": 0.9303537627,
				"element": "C" 
			},
			{
				"x": 2.4557520947,
				"y": -2.1644742548,
				"z": 0.6384412301,
				"element": "C" 
			},
			{
				"x": 2.70260548,
				"y": -2.5270436902,
				"z": -0.7042502668,
				"element": "C" 
			},
			{
				"x": 2.0194449047,
				"y": -1.9322269626,
				"z": -1.7428589162,
				"element": "C" 
			},
			{
				"x": 2.3670001047,
				"y": -2.4225663319,
				"z": -3.3992035338,
				"element": "Cl" 
			},
			{
				"x": 1.0411652496,
				"y": -0.931223443,
				"z": -1.4937604197,
				"element": "C" 
			},
			{
				"x": 0.2769932863,
				"y": -0.2503712095,
				"z": -2.4755673754,
				"element": "C" 
			},
			{
				"x": -0.6390571205,
				"y": 0.7005021615,
				"z": -2.0849044755,
				"element": "C" 
			},
			{
				"x": -0.8020133854,
				"y": 0.982033017,
				"z": -0.7075001507,
				"element": "C" 
			},
			{
				"x": -0.1121887719,
				"y": 0.3724554736,
				"z": 0.237264,
				"element": "N" 
			},
			{
				"x": 0.7954211589,
				"y": -0.5683346183,
				"z": -0.1344334789,
				"element": "C" 
			},
			{
				"x": 0.5557630694,
				"y": -0.1349466058,
				"z": 2.116104599,
				"element": "H" 
			},
			{
				"x": 3.0015930557,
				"y": -2.6417566533,
				"z": 1.4446191306,
				"element": "H" 
			},
			{
				"x": 3.44400704,
				"y": -3.2881203929,
				"z": -0.9217505429,
				"element": "H" 
			},
			{
				"x": 0.4241575359,
				"y": -0.487800701,
				"z": -3.5235831953,
				"element": "H" 
			},
			{
				"x": -1.2354124099,
				"y": 1.2347335178,
				"z": -2.8172704963,
				"element": "H" 
			},
			{
				"x": -1.5221328143,
				"y": 1.7309814739,
				"z": -0.3834475671,
				"element": "H" 
			}
		],
		 "valence_orbital": [ 
			{
				"type": "occ",
				"energy": -0.31119,
				"method": "rhf"
			},
			{
				"type": "occ",
				"energy": -0.30199,
				"method": "rhf"
			},
			{
				"type": "occ",
				"energy": -0.28405,
				"method": "rhf"
			},
			{
				"type": "occ",
				"energy": -0.26643,
				"method": "rhf"
			},
			{
				"type": "occ",
				"energy": -0.21482,
				"method": "rhf"
			},
			{
				"type": "unocc",
				"energy": -0.06366,
				"method": "rhf"
			},
			{
				"type": "unocc",
				"energy": -0.02997,
				"method": "rhf"
			},
			{
				"type": "unocc",
				"energy": 0.01943,
				"method": "rhf"
			},
			{
				"type": "unocc",
				"energy": 0.02885,
				"method": "rhf"
			},
			{
				"type": "unocc",
				"energy": 0.07948,
				"method": "rhf"
			}
		],
		"cosmo_sigma_profile": { 
			"-0.025": 0.0,
			"-0.024": 0.0,
			"-0.023": 0.0,
			"-0.022": 0.0,
			"-0.021": 0.0,
			"-0.02": 0.0,
			"-0.019": 0.0,
			"-0.018": 0.0,
			"-0.017": 0.0,
			"-0.016": 0.0,
			"-0.015": 0.0,
			"-0.014": 0.0,
			"-0.013": 0.0,
			"-0.012": 0.582886040809,
			"-0.011": 0.152162061547,
			"-0.01": 0.794279111772,
			"-0.009": 0.762140589949,
			"-0.008": 1.92241452267,
			"-0.007": 9.62171138628,
			"-0.006": 12.3124845244,
			"-0.005": 9.71485986651,
			"-0.004": 7.61297750101,
			"-0.003": 7.39391355957,
			"-0.002": 10.2824367723,
			"-0.001": 11.6075340287,
			"0.0": 22.4388036408,
			"0.001": 26.651459226,
			"0.002": 22.1289054829,
			"0.003": 17.5868883812,
			"0.004": 11.2305189134,
			"0.005": 7.28487546793,
			"0.006": 2.94065267007,
			"0.007": 3.26237988598,
			"0.008": 2.00220275968,
			"0.009": 1.14200044397,
			"0.01": 1.94092238229,
			"0.011": 1.75506340484,
			"0.012": 0.0946780194306,
			"0.013": 0.0,
			"0.014": 0.0,
			"0.015": 0.0,
			"0.016": 0.0,
			"0.017": 0.0,
			"0.018": 0.0,
			"0.019": 0.0,
			"0.02": 0.0,
			"0.021": 0.0,
			"0.022": 0.0,
			"0.023": 0.0,
			"0.024": 0.0,
			"0.025": 0.0
		}
	}
}
