{
	 "smiles": "C(OC1=CC=C(OCC2=CC=CC=C2)C=C1)C1=CC=CC=C1", 
	 "Tm": 401.15, 
	 "num_atms": 40, 
	 "gaussian": { 
		 "optdone": 1, 
		 "sigma_profile": "yes", 
		 "theory": "DFT", 
		 "functional": "B3LYP", 
		 "basiset": "6-31G**", 
		 "properties": { 
			 "R2extent": 11219.0311, 
			 "electric_dipole_moment_norm": 0.000836660026534, 
			 "electric_quadrupole_moment_norm": 11.470255658, 
			 "total_energy": -923.40486457, 
			 "HOMO_LUMO_gap": 0.18801, 
			 "cosmo_polarized_energy": -10.48, 
			 "cosmo_cavitation_energy": 43.86, 
			 "cosmo_dispersion_energy": -30.85, 
			 "cosmo_repulsion_energy": 2.37, 
			 "cosmo_total_nonelectrostatic_energy": 15.38, 
			 "SMD_solvation_energy": 7.48 
		},
		"coords": [
			{
				"x": 2.6407133117,
				"y": -1.8375120675,
				"z": -0.7227113434,
				"element": "C" 
			},
			{
				"x": 1.9462596608,
				"y": -0.9385762118,
				"z": 0.1334027714,
				"element": "O" 
			},
			{
				"x": 0.6771934001,
				"y": -0.5354691097,
				"z": -0.2131105657,
				"element": "C" 
			},
			{
				"x": -0.0224640267,
				"y": 0.1722079792,
				"z": 0.768266957,
				"element": "C" 
			},
			{
				"x": -1.3196735107,
				"y": 0.6268592685,
				"z": 0.5359115946,
				"element": "C" 
			},
			{
				"x": -1.9337592485,
				"y": 0.3762411902,
				"z": -0.6974719733,
				"element": "C" 
			},
			{
				"x": -3.2027830598,
				"y": 0.7793482387,
				"z": -1.0440843284,
				"element": "O" 
			},
			{
				"x": -3.8975870094,
				"y": 1.6777104169,
				"z": -0.187647428,
				"element": "C" 
			},
			{
				"x": -4.5467618691,
				"y": 1.0200675317,
				"z": 1.0168358471,
				"element": "C" 
			},
			{
				"x": -4.7761988635,
				"y": 1.7622542765,
				"z": 2.1813753131,
				"element": "C" 
			},
			{
				"x": -5.4284848029,
				"y": 1.18713862,
				"z": 3.2733092615,
				"element": "C" 
			},
			{
				"x": -5.8511058011,
				"y": -0.1419419714,
				"z": 3.2138365309,
				"element": "C" 
			},
			{
				"x": -5.6197516032,
				"y": -0.8892667907,
				"z": 2.0568680572,
				"element": "C" 
			},
			{
				"x": -4.9749790112,
				"y": -0.3111261728,
				"z": 0.9630135233,
				"element": "C" 
			},
			{
				"x": -1.2340697299,
				"y": -0.3314693772,
				"z": -1.6788864445,
				"element": "C" 
			},
			{
				"x": 0.0630916256,
				"y": -0.7860917567,
				"z": -1.446546933,
				"element": "C" 
			},
			{
				"x": 3.2899625118,
				"y": -1.1805923608,
				"z": -1.9275472347,
				"element": "C" 
			},
			{
				"x": 3.7185463084,
				"y": 0.150513735,
				"z": -1.8743372149,
				"element": "C" 
			},
			{
				"x": 4.3633902992,
				"y": 0.7280041746,
				"z": -2.968488056,
				"element": "C" 
			},
			{
				"x": 4.5944538997,
				"y": -0.0198905025,
				"z": -4.1251504138,
				"element": "C" 
			},
			{
				"x": 4.1714743524,
				"y": -1.3488808435,
				"z": -4.1840137707,
				"element": "C" 
			},
			{
				"x": 3.5191186256,
				"y": -1.923347956,
				"z": -3.091774979,
				"element": "C" 
			},
			{
				"x": 1.979780245,
				"y": -2.6554474027,
				"z": -1.0409979002,
				"element": "H" 
			},
			{
				"x": 3.4137088879,
				"y": -2.2756341545,
				"z": -0.0807106034,
				"element": "H" 
			},
			{
				"x": 0.4606814166,
				"y": 0.3503505999,
				"z": 1.7235489471,
				"element": "H" 
			},
			{
				"x": -1.8460535264,
				"y": 1.1467060098,
				"z": 1.3271193237,
				"element": "H" 
			},
			{
				"x": -3.2369105725,
				"y": 2.4956885666,
				"z": 0.1310645873,
				"element": "H" 
			},
			{
				"x": -4.6706420872,
				"y": 2.1158939213,
				"z": -0.8295322248,
				"element": "H" 
			},
			{
				"x": -4.4417737236,
				"y": 2.7962446779,
				"z": 2.2359733525,
				"element": "H" 
			},
			{
				"x": -5.5985145109,
				"y": 1.7741507694,
				"z": 4.1715402076,
				"element": "H" 
			},
			{
				"x": -6.3533136423,
				"y": -0.5934684488,
				"z": 4.064590983,
				"element": "H" 
			},
			{
				"x": -5.9422984291,
				"y": -1.9254950333,
				"z": 2.0058005776,
				"element": "H" 
			},
			{
				"x": -4.7897469719,
				"y": -0.8897597474,
				"z": 0.0635531506,
				"element": "H" 
			},
			{
				"x": -1.7173043159,
				"y": -0.5095762524,
				"z": -2.6341325907,
				"element": "H" 
			},
			{
				"x": 0.5895464021,
				"y": -1.3059194622,
				"z": -2.2377146754,
				"element": "H" 
			},
			{
				"x": 3.5335144089,
				"y": 0.729586295,
				"z": -0.9751168182,
				"element": "H" 
			},
			{
				"x": 4.6862279145,
				"y": 1.7641655505,
				"z": -2.9178998687,
				"element": "H" 
			},
			{
				"x": 5.0967186062,
				"y": 0.4311358242,
				"z": -4.9761376558,
				"element": "H" 
			},
			{
				"x": 4.3412735367,
				"y": -1.9363271835,
				"z": -5.0820037861,
				"element": "H" 
			},
			{
				"x": 3.1844209027,
				"y": -2.9572748402,
				"z": -3.1458941771,
				"element": "H" 
			}
		],
		 "valence_orbital": [ 
			{
				"type": "occ",
				"energy": -0.25,
				"method": "rhf"
			},
			{
				"type": "occ",
				"energy": -0.2487,
				"method": "rhf"
			},
			{
				"type": "occ",
				"energy": -0.24435,
				"method": "rhf"
			},
			{
				"type": "occ",
				"energy": -0.24006,
				"method": "rhf"
			},
			{
				"type": "occ",
				"energy": -0.1955,
				"method": "rhf"
			},
			{
				"type": "unocc",
				"energy": -0.00749,
				"method": "rhf"
			},
			{
				"type": "unocc",
				"energy": -0.00291,
				"method": "rhf"
			},
			{
				"type": "unocc",
				"energy": -0.00263,
				"method": "rhf"
			},
			{
				"type": "unocc",
				"energy": -0.00205,
				"method": "rhf"
			},
			{
				"type": "unocc",
				"energy": 0.00702,
				"method": "rhf"
			}
		],
		"cosmo_sigma_profile": { 
			"-0.025": 0.0,
			"-0.024": 0.0,
			"-0.023": 0.0,
			"-0.022": 0.0,
			"-0.021": 0.0,
			"-0.02": 0.0,
			"-0.019": 0.0,
			"-0.018": 0.0,
			"-0.017": 0.0,
			"-0.016": 0.0,
			"-0.015": 0.0,
			"-0.014": 0.0,
			"-0.013": 0.0,
			"-0.012": 0.0,
			"-0.011": 0.0,
			"-0.01": 0.0,
			"-0.009": 0.0,
			"-0.008": 0.0,
			"-0.007": 0.783817443667,
			"-0.006": 20.8376860624,
			"-0.005": 34.2809300681,
			"-0.004": 38.3150484826,
			"-0.003": 31.9225951503,
			"-0.002": 23.1981988188,
			"-0.001": 21.9662877812,
			"0.0": 19.2826115289,
			"0.001": 20.620497208,
			"0.002": 23.5440474469,
			"0.003": 24.1940257263,
			"0.004": 32.3460796275,
			"0.005": 29.0331845281,
			"0.006": 20.0757677835,
			"0.007": 3.09530083427,
			"0.008": 1.99059375772,
			"0.009": 1.99703973819,
			"0.01": 2.16820914763,
			"0.011": 0.641352526018,
			"0.012": 0.0,
			"0.013": 0.0,
			"0.014": 0.0,
			"0.015": 0.0,
			"0.016": 0.0,
			"0.017": 0.0,
			"0.018": 0.0,
			"0.019": 0.0,
			"0.02": 0.0,
			"0.021": 0.0,
			"0.022": 0.0,
			"0.023": 0.0,
			"0.024": 0.0,
			"0.025": 0.0
		}
	}
}
