{
	 "smiles": "CC1=C(C=CC=C1O)C(O)=O", 
	 "Tm": 417.15, 
	 "num_atms": 19, 
	 "gaussian": { 
		 "optdone": 1, 
		 "sigma_profile": "yes", 
		 "theory": "DFT", 
		 "functional": "B3LYP", 
		 "basiset": "6-31G**", 
		 "properties": { 
			 "R2extent": 1864.14, 
			 "electric_dipole_moment_norm": 2.82757682301, 
			 "electric_quadrupole_moment_norm": 11.1478299727, 
			 "total_energy": -535.361490927, 
			 "HOMO_LUMO_gap": 0.18046, 
			 "cosmo_polarized_energy": -12.46, 
			 "cosmo_cavitation_energy": 22.81, 
			 "cosmo_dispersion_energy": -17.24, 
			 "cosmo_repulsion_energy": 1.37, 
			 "cosmo_total_nonelectrostatic_energy": 6.94, 
			 "SMD_solvation_energy": 5.45 
		},
		"coords": [
			{
				"x": -0.6867812186,
				"y": -0.3478245142,
				"z": -1.9614371295,
				"element": "C" 
			},
			{
				"x": -0.2889859428,
				"y": -0.4802163156,
				"z": -0.5106481889,
				"element": "C" 
			},
			{
				"x": 1.0498433458,
				"y": -0.5532628719,
				"z": -0.0602846205,
				"element": "C" 
			},
			{
				"x": 1.3527881108,
				"y": -0.6761057132,
				"z": 1.3078608978,
				"element": "C" 
			},
			{
				"x": 0.3330190456,
				"y": -0.7281969024,
				"z": 2.248178185,
				"element": "C" 
			},
			{
				"x": -0.9941545934,
				"y": -0.6582367418,
				"z": 1.8304479535,
				"element": "C" 
			},
			{
				"x": -1.2987848177,
				"y": -0.5362594784,
				"z": 0.4727237817,
				"element": "C" 
			},
			{
				"x": -2.5990505399,
				"y": -0.4662774362,
				"z": 0.0466045223,
				"element": "O" 
			},
			{
				"x": 2.1751927236,
				"y": -0.5010194664,
				"z": -1.0353623801,
				"element": "C" 
			},
			{
				"x": 3.3955770728,
				"y": -0.5835126593,
				"z": -0.4378066491,
				"element": "O" 
			},
			{
				"x": 2.0831781735,
				"y": -0.3969647878,
				"z": -2.2442126536,
				"element": "O" 
			},
			{
				"x": -0.2571398724,
				"y": 0.553413174,
				"z": -2.4063721331,
				"element": "H" 
			},
			{
				"x": -0.3029843322,
				"y": -1.1834876259,
				"z": -2.5523265763,
				"element": "H" 
			},
			{
				"x": -1.7714121291,
				"y": -0.3113322106,
				"z": -2.0549624718,
				"element": "H" 
			},
			{
				"x": 2.3883571653,
				"y": -0.7293661475,
				"z": 1.6174453551,
				"element": "H" 
			},
			{
				"x": 0.5643610508,
				"y": -0.8229517841,
				"z": 3.3045607662,
				"element": "H" 
			},
			{
				"x": -1.8013289092,
				"y": -0.6982182483,
				"z": 2.5596941378,
				"element": "H" 
			},
			{
				"x": -3.1833721585,
				"y": -0.5149703245,
				"z": 0.8135453106,
				"element": "H" 
			},
			{
				"x": 4.0360778254,
				"y": -0.5392099458,
				"z": -1.1661481073,
				"element": "H" 
			}
		],
		 "valence_orbital": [ 
			{
				"type": "occ",
				"energy": -0.33719,
				"method": "rhf"
			},
			{
				"type": "occ",
				"energy": -0.31342,
				"method": "rhf"
			},
			{
				"type": "occ",
				"energy": -0.26792,
				"method": "rhf"
			},
			{
				"type": "occ",
				"energy": -0.25537,
				"method": "rhf"
			},
			{
				"type": "occ",
				"energy": -0.22533,
				"method": "rhf"
			},
			{
				"type": "unocc",
				"energy": -0.04487,
				"method": "rhf"
			},
			{
				"type": "unocc",
				"energy": 0.0048,
				"method": "rhf"
			},
			{
				"type": "unocc",
				"energy": 0.06367,
				"method": "rhf"
			},
			{
				"type": "unocc",
				"energy": 0.06421,
				"method": "rhf"
			},
			{
				"type": "unocc",
				"energy": 0.08284,
				"method": "rhf"
			}
		],
		"cosmo_sigma_profile": { 
			"-0.025": 0.0,
			"-0.024": 0.0,
			"-0.023": 0.0,
			"-0.022": 0.0,
			"-0.021": 0.0,
			"-0.02": 0.0,
			"-0.019": 0.0,
			"-0.018": 1.00539561932,
			"-0.017": 1.9685770934,
			"-0.016": 1.77277927225,
			"-0.015": 2.79499706766,
			"-0.014": 1.26452159881,
			"-0.013": 1.25777390055,
			"-0.012": 1.20857612402,
			"-0.011": 1.75743371353,
			"-0.01": 2.6126242498,
			"-0.009": 1.57831590782,
			"-0.008": 1.57093532818,
			"-0.007": 3.39294334802,
			"-0.006": 4.7927401138,
			"-0.005": 6.41751868693,
			"-0.004": 7.47976993115,
			"-0.003": 7.40924408984,
			"-0.002": 10.932486105,
			"-0.001": 11.8376392018,
			"0.0": 16.2449533922,
			"0.001": 15.0655392604,
			"0.002": 16.5707323871,
			"0.003": 14.3650477243,
			"0.004": 13.5179811932,
			"0.005": 8.63535755616,
			"0.006": 4.28670293073,
			"0.007": 5.11445764241,
			"0.008": 4.21273108569,
			"0.009": 3.58869979431,
			"0.01": 2.37443949142,
			"0.011": 2.70709860394,
			"0.012": 3.26804295596,
			"0.013": 0.25067970416,
			"0.014": 0.0,
			"0.015": 0.0,
			"0.016": 0.0,
			"0.017": 0.0,
			"0.018": 0.0,
			"0.019": 0.0,
			"0.02": 0.0,
			"0.021": 0.0,
			"0.022": 0.0,
			"0.023": 0.0,
			"0.024": 0.0,
			"0.025": 0.0
		}
	}
}
