{
	 "smiles": "BrC1=CC=CC(Br)=C1OC1=CC=CC=C1", 
	 "Tm": 293.15, 
	 "num_atms": 23, 
	 "gaussian": { 
		 "optdone": 1, 
		 "sigma_profile": "yes", 
		 "theory": "DFT", 
		 "functional": "B3LYP", 
		 "basiset": "6-31G**", 
		 "properties": { 
			 "R2extent": 5210.5265, 
			 "electric_dipole_moment_norm": 1.94165614103, 
			 "electric_quadrupole_moment_norm": 11.5264263625, 
			 "total_energy": -5680.11324226, 
			 "HOMO_LUMO_gap": 0.19674, 
			 "cosmo_polarized_energy": -7.27, 
			 "cosmo_cavitation_energy": 32.03, 
			 "cosmo_dispersion_energy": -23.1, 
			 "cosmo_repulsion_energy": 1.82, 
			 "cosmo_total_nonelectrostatic_energy": 10.75, 
			 "SMD_solvation_energy": 3.47 
		},
		"coords": [
			{
				"x": -1.7315571314,
				"y": 2.4913518168,
				"z": -1.1885735653,
				"element": "Br" 
			},
			{
				"x": -1.0212986737,
				"y": 2.0641602428,
				"z": 0.523311651,
				"element": "C" 
			},
			{
				"x": -1.5634060003,
				"y": 2.6660859221,
				"z": 1.6575305341,
				"element": "C" 
			},
			{
				"x": -1.0382369699,
				"y": 2.3657529657,
				"z": 2.9132748169,
				"element": "C" 
			},
			{
				"x": 0.0255716885,
				"y": 1.4737658598,
				"z": 3.0380547839,
				"element": "C" 
			},
			{
				"x": 0.5605822038,
				"y": 0.8772922666,
				"z": 1.8975949364,
				"element": "C" 
			},
			{
				"x": 2.023126368,
				"y": -0.3257744398,
				"z": 2.0735798457,
				"element": "Br" 
			},
			{
				"x": 0.04577918,
				"y": 1.1581537767,
				"z": 0.6226504142,
				"element": "C" 
			},
			{
				"x": 0.6334279116,
				"y": 0.6424484133,
				"z": -0.4992916343,
				"element": "O" 
			},
			{
				"x": 0.1921908232,
				"y": -0.5624792418,
				"z": -1.0310151566,
				"element": "C" 
			},
			{
				"x": -0.8469658999,
				"y": -1.315062408,
				"z": -0.4850648204,
				"element": "C" 
			},
			{
				"x": -1.2098429221,
				"y": -2.5146281429,
				"z": -1.1028917102,
				"element": "C" 
			},
			{
				"x": -0.5475902825,
				"y": -2.9577590247,
				"z": -2.247157885,
				"element": "C" 
			},
			{
				"x": 0.4917930545,
				"y": -2.1892763821,
				"z": -2.7795387247,
				"element": "C" 
			},
			{
				"x": 0.8661044393,
				"y": -0.9913042164,
				"z": -2.1762761441,
				"element": "C" 
			},
			{
				"x": -2.3858290273,
				"y": 3.3634671289,
				"z": 1.5499673509,
				"element": "H" 
			},
			{
				"x": -1.4559694232,
				"y": 2.8342528649,
				"z": 3.7987242581,
				"element": "H" 
			},
			{
				"x": 0.4449001778,
				"y": 1.239327786,
				"z": 4.0093901182,
				"element": "H" 
			},
			{
				"x": -1.3655295406,
				"y": -0.9753380469,
				"z": 0.4043396295,
				"element": "H" 
			},
			{
				"x": -2.0191415072,
				"y": -3.1025350308,
				"z": -0.6793944366,
				"element": "H" 
			},
			{
				"x": -0.8365713729,
				"y": -3.8910452978,
				"z": -2.720247819,
				"element": "H" 
			},
			{
				"x": 1.0159100975,
				"y": -2.5230111232,
				"z": -3.6704600307,
				"element": "H" 
			},
			{
				"x": 1.6694528067,
				"y": -0.3793456895,
				"z": -2.5723064118,
				"element": "H" 
			}
		],
		 "valence_orbital": [ 
			{
				"type": "occ",
				"energy": -0.28866,
				"method": "rhf"
			},
			{
				"type": "occ",
				"energy": -0.25504,
				"method": "rhf"
			},
			{
				"type": "occ",
				"energy": -0.25195,
				"method": "rhf"
			},
			{
				"type": "occ",
				"energy": -0.24946,
				"method": "rhf"
			},
			{
				"type": "occ",
				"energy": -0.22749,
				"method": "rhf"
			},
			{
				"type": "unocc",
				"energy": -0.03075,
				"method": "rhf"
			},
			{
				"type": "unocc",
				"energy": -0.02634,
				"method": "rhf"
			},
			{
				"type": "unocc",
				"energy": -0.01893,
				"method": "rhf"
			},
			{
				"type": "unocc",
				"energy": -0.00178,
				"method": "rhf"
			},
			{
				"type": "unocc",
				"energy": 0.01,
				"method": "rhf"
			}
		],
		"cosmo_sigma_profile": { 
			"-0.025": 0.0,
			"-0.024": 0.0,
			"-0.023": 0.0,
			"-0.022": 0.0,
			"-0.021": 0.0,
			"-0.02": 0.0,
			"-0.019": 0.0,
			"-0.018": 0.0,
			"-0.017": 0.0,
			"-0.016": 0.0,
			"-0.015": 0.0,
			"-0.014": 0.0,
			"-0.013": 0.0,
			"-0.012": 0.0,
			"-0.011": 0.0,
			"-0.01": 0.0,
			"-0.009": 0.0,
			"-0.008": 2.89990140175,
			"-0.007": 6.79433961984,
			"-0.006": 15.1124095284,
			"-0.005": 16.8286414724,
			"-0.004": 19.4404028098,
			"-0.003": 16.107293407,
			"-0.002": 15.438787115,
			"-0.001": 15.4260955274,
			"0.0": 23.8489653543,
			"0.001": 25.7318345341,
			"0.002": 24.0403771683,
			"0.003": 24.8074031758,
			"0.004": 32.1330722924,
			"0.005": 16.7376105331,
			"0.006": 5.87924059261,
			"0.007": 1.88453379169,
			"0.008": 1.10676198347,
			"0.009": 0.0787866135018,
			"0.01": 0.0,
			"0.011": 0.0,
			"0.012": 0.0,
			"0.013": 0.0,
			"0.014": 0.0,
			"0.015": 0.0,
			"0.016": 0.0,
			"0.017": 0.0,
			"0.018": 0.0,
			"0.019": 0.0,
			"0.02": 0.0,
			"0.021": 0.0,
			"0.022": 0.0,
			"0.023": 0.0,
			"0.024": 0.0,
			"0.025": 0.0
		}
	}
}
