{
	 "smiles": "CC1=C(CC(NC(=O)OC(C)(C)C)C(O)=O)C=CC=C1", 
	 "Tm": 400.15, 
	 "num_atms": 41, 
	 "gaussian": { 
		 "optdone": 1, 
		 "sigma_profile": "yes", 
		 "theory": "DFT", 
		 "functional": "B3LYP", 
		 "basiset": "6-31G**", 
		 "properties": { 
			 "R2extent": 6309.7376, 
			 "electric_dipole_moment_norm": 3.86579668891, 
			 "electric_quadrupole_moment_norm": 14.7814900856, 
			 "total_energy": -939.960515295, 
			 "HOMO_LUMO_gap": 0.23139, 
			 "cosmo_polarized_energy": -18.21, 
			 "cosmo_cavitation_energy": 43.21, 
			 "cosmo_dispersion_energy": -26.98, 
			 "cosmo_repulsion_energy": 2.08, 
			 "cosmo_total_nonelectrostatic_energy": 18.31, 
			 "SMD_solvation_energy": 9.46 
		},
		"coords": [
			{
				"x": -1.7775928267,
				"y": -0.1924952615,
				"z": -2.8060967374,
				"element": "C" 
			},
			{
				"x": -1.4326711468,
				"y": 1.2018679931,
				"z": -2.3316479418,
				"element": "C" 
			},
			{
				"x": -2.0510611588,
				"y": 1.7742384926,
				"z": -1.1966674749,
				"element": "C" 
			},
			{
				"x": -3.0475520367,
				"y": 0.9932149732,
				"z": -0.3670187677,
				"element": "C" 
			},
			{
				"x": -2.3893157332,
				"y": 0.1042114575,
				"z": 0.7135197507,
				"element": "C" 
			},
			{
				"x": -1.7600666058,
				"y": 0.8624217705,
				"z": 1.7986497337,
				"element": "N" 
			},
			{
				"x": -0.3945844821,
				"y": 1.1423438107,
				"z": 1.8859019029,
				"element": "C" 
			},
			{
				"x": 0.0271478241,
				"y": 2.0563416628,
				"z": 2.5687391967,
				"element": "O" 
			},
			{
				"x": 0.3242032247,
				"y": 0.2526688374,
				"z": 1.1841444564,
				"element": "O" 
			},
			{
				"x": 1.8010553137,
				"y": 0.3412751778,
				"z": 1.1236539092,
				"element": "C" 
			},
			{
				"x": 2.2176258897,
				"y": 1.6818728949,
				"z": 0.5124418766,
				"element": "C" 
			},
			{
				"x": 2.1602499524,
				"y": -0.8189869918,
				"z": 0.1934432844,
				"element": "C" 
			},
			{
				"x": 2.3838368212,
				"y": 0.1267278402,
				"z": 2.5231049795,
				"element": "C" 
			},
			{
				"x": -3.4035337965,
				"y": -0.9156552294,
				"z": 1.2779405509,
				"element": "C" 
			},
			{
				"x": -3.2489385873,
				"y": -1.2075753363,
				"z": 2.5813680779,
				"element": "O" 
			},
			{
				"x": -4.2476948345,
				"y": -1.4428687584,
				"z": 0.5936866639,
				"element": "O" 
			},
			{
				"x": -1.717280119,
				"y": 3.0831858808,
				"z": -0.8265977064,
				"element": "C" 
			},
			{
				"x": -0.7806772898,
				"y": 3.8290272039,
				"z": -1.5431026337,
				"element": "C" 
			},
			{
				"x": -0.1637089046,
				"y": 3.2627620168,
				"z": -2.65688327,
				"element": "C" 
			},
			{
				"x": -0.495303682,
				"y": 1.9623484464,
				"z": -3.041808191,
				"element": "C" 
			},
			{
				"x": -1.1891762238,
				"y": -0.4584707068,
				"z": -3.6880491904,
				"element": "H" 
			},
			{
				"x": -2.8364560377,
				"y": -0.2774889826,
				"z": -3.0774639079,
				"element": "H" 
			},
			{
				"x": -1.5886484836,
				"y": -0.9554857271,
				"z": -2.0425242072,
				"element": "H" 
			},
			{
				"x": -3.7415943359,
				"y": 1.6830271314,
				"z": 0.1298620353,
				"element": "H" 
			},
			{
				"x": -3.6610975694,
				"y": 0.3340922345,
				"z": -0.9853551325,
				"element": "H" 
			},
			{
				"x": -1.5949747564,
				"y": -0.4917293978,
				"z": 0.2565819253,
				"element": "H" 
			},
			{
				"x": -2.2937965363,
				"y": 1.6474299324,
				"z": 2.155283322,
				"element": "H" 
			},
			{
				"x": 1.7245230336,
				"y": 1.8319920947,
				"z": -0.4525140904,
				"element": "H" 
			},
			{
				"x": 1.962161528,
				"y": 2.5113790302,
				"z": 1.1720612625,
				"element": "H" 
			},
			{
				"x": 3.3001926726,
				"y": 1.6826580169,
				"z": 0.3488789013,
				"element": "H" 
			},
			{
				"x": 3.2455730166,
				"y": -0.8745219093,
				"z": 0.0690126381,
				"element": "H" 
			},
			{
				"x": 1.8107810293,
				"y": -1.770069908,
				"z": 0.6057466187,
				"element": "H" 
			},
			{
				"x": 1.7060788599,
				"y": -0.6782967955,
				"z": -0.7915912184,
				"element": "H" 
			},
			{
				"x": 2.0997848784,
				"y": 0.9383382134,
				"z": 3.1935597371,
				"element": "H" 
			},
			{
				"x": 3.4760250104,
				"y": 0.0872411219,
				"z": 2.4609249102,
				"element": "H" 
			},
			{
				"x": 2.0339497486,
				"y": -0.8220857634,
				"z": 2.9420166977,
				"element": "H" 
			},
			{
				"x": -2.5269675133,
				"y": -0.6385024073,
				"z": 2.9122692916,
				"element": "H" 
			},
			{
				"x": -2.2055272115,
				"y": 3.5297632874,
				"z": 0.0363638935,
				"element": "H" 
			},
			{
				"x": -0.5408376441,
				"y": 4.8420606545,
				"z": -1.2340811801,
				"element": "H" 
			},
			{
				"x": 0.5642668984,
				"y": 3.8295400321,
				"z": -3.2303038636,
				"element": "H" 
			},
			{
				"x": -0.0229981859,
				"y": 1.5269029673,
				"z": -3.9190501028,
				"element": "H" 
			}
		],
		 "valence_orbital": [ 
			{
				"type": "occ",
				"energy": -0.2976,
				"method": "rhf"
			},
			{
				"type": "occ",
				"energy": -0.28319,
				"method": "rhf"
			},
			{
				"type": "occ",
				"energy": -0.26104,
				"method": "rhf"
			},
			{
				"type": "occ",
				"energy": -0.25088,
				"method": "rhf"
			},
			{
				"type": "occ",
				"energy": -0.2418,
				"method": "rhf"
			},
			{
				"type": "unocc",
				"energy": -0.01041,
				"method": "rhf"
			},
			{
				"type": "unocc",
				"energy": -0.00447,
				"method": "rhf"
			},
			{
				"type": "unocc",
				"energy": 0.00803,
				"method": "rhf"
			},
			{
				"type": "unocc",
				"energy": 0.03168,
				"method": "rhf"
			},
			{
				"type": "unocc",
				"energy": 0.06299,
				"method": "rhf"
			}
		],
		"cosmo_sigma_profile": { 
			"-0.025": 0.0,
			"-0.024": 0.0,
			"-0.023": 0.0,
			"-0.022": 0.0,
			"-0.021": 0.0,
			"-0.02": 0.0,
			"-0.019": 0.0,
			"-0.018": 0.0,
			"-0.017": 0.0,
			"-0.016": 0.0,
			"-0.015": 0.0875323485215,
			"-0.014": 2.08335905206,
			"-0.013": 2.17645411232,
			"-0.012": 2.25682881434,
			"-0.011": 2.32709941239,
			"-0.01": 3.41170652085,
			"-0.009": 2.81277773125,
			"-0.008": 4.01773084198,
			"-0.007": 4.97273086245,
			"-0.006": 6.55093800384,
			"-0.005": 17.8780994523,
			"-0.004": 27.8789473913,
			"-0.003": 28.9919505346,
			"-0.002": 28.7838485739,
			"-0.001": 32.213060919,
			"0.0": 38.323563082,
			"0.001": 26.6079401916,
			"0.002": 21.446619677,
			"0.003": 20.2550670419,
			"0.004": 10.877467505,
			"0.005": 8.33903362813,
			"0.006": 8.06634569486,
			"0.007": 5.39863369574,
			"0.008": 3.32276322037,
			"0.009": 5.36404105196,
			"0.01": 6.81902771102,
			"0.011": 5.6975337854,
			"0.012": 7.46779554864,
			"0.013": 4.23697148803,
			"0.014": 0.137646119193,
			"0.015": 0.0,
			"0.016": 0.0,
			"0.017": 0.0,
			"0.018": 0.0,
			"0.019": 0.0,
			"0.02": 0.0,
			"0.021": 0.0,
			"0.022": 0.0,
			"0.023": 0.0,
			"0.024": 0.0,
			"0.025": 0.0
		}
	}
}
