{
	 "smiles": "O=C1CCC2=C(C=CC=C2)N1CC1=CC(=CC=C1)C#N", 
	 "Tm": 393.15, 
	 "num_atms": 34, 
	 "gaussian": { 
		 "optdone": 1, 
		 "sigma_profile": "yes", 
		 "theory": "DFT", 
		 "functional": "B3LYP", 
		 "basiset": "6-31G**", 
		 "properties": { 
			 "R2extent": 5771.8744, 
			 "electric_dipole_moment_norm": 5.23415512284, 
			 "electric_quadrupole_moment_norm": 28.1790288413, 
			 "total_energy": -840.986407799, 
			 "HOMO_LUMO_gap": 0.17173, 
			 "cosmo_polarized_energy": -16.22, 
			 "cosmo_cavitation_energy": 38.2, 
			 "cosmo_dispersion_energy": -25.92, 
			 "cosmo_repulsion_energy": 1.99, 
			 "cosmo_total_nonelectrostatic_energy": 14.28, 
			 "SMD_solvation_energy": 7.95 
		},
		"coords": [
			{
				"x": -3.4651364063,
				"y": 0.4713431235,
				"z": -2.080723957,
				"element": "O" 
			},
			{
				"x": -2.5114725579,
				"y": -0.2781689766,
				"z": -2.2370000046,
				"element": "C" 
			},
			{
				"x": -2.1580920431,
				"y": -0.8698637263,
				"z": -3.5895811112,
				"element": "C" 
			},
			{
				"x": -0.6464040009,
				"y": -1.0143682705,
				"z": -3.7728169737,
				"element": "C" 
			},
			{
				"x": -0.0689915368,
				"y": -1.7891224975,
				"z": -2.6155311564,
				"element": "C" 
			},
			{
				"x": -0.614524473,
				"y": -1.5788313902,
				"z": -1.3318818545,
				"element": "C" 
			},
			{
				"x": -0.075062595,
				"y": -2.2627093537,
				"z": -0.2337301008,
				"element": "C" 
			},
			{
				"x": 0.9836706223,
				"y": -3.1543978813,
				"z": -0.4097082276,
				"element": "C" 
			},
			{
				"x": 1.51661674,
				"y": -3.3779999182,
				"z": -1.6770544208,
				"element": "C" 
			},
			{
				"x": 0.9823722657,
				"y": -2.6921269504,
				"z": -2.7689133457,
				"element": "C" 
			},
			{
				"x": -1.6916150193,
				"y": -0.6603886167,
				"z": -1.1727846008,
				"element": "N" 
			},
			{
				"x": -2.0764408049,
				"y": -0.1916841234,
				"z": 0.1601928523,
				"element": "C" 
			},
			{
				"x": -1.0433356641,
				"y": 0.6887322548,
				"z": 0.8398241318,
				"element": "C" 
			},
			{
				"x": -0.3214403735,
				"y": 1.6395193068,
				"z": 0.1152376289,
				"element": "C" 
			},
			{
				"x": 0.5909286266,
				"y": 2.4843007161,
				"z": 0.7654585122,
				"element": "C" 
			},
			{
				"x": 0.7825402852,
				"y": 2.3876389717,
				"z": 2.1541899701,
				"element": "C" 
			},
			{
				"x": 0.0586702163,
				"y": 1.4431298146,
				"z": 2.8751587936,
				"element": "C" 
			},
			{
				"x": -0.8427727709,
				"y": 0.5995579478,
				"z": 2.2227341462,
				"element": "C" 
			},
			{
				"x": 1.3320610499,
				"y": 3.4508694244,
				"z": 0.0063944383,
				"element": "C" 
			},
			{
				"x": 1.9348948103,
				"y": 4.2332897478,
				"z": -0.6080495938,
				"element": "N" 
			},
			{
				"x": -2.6171975591,
				"y": -0.2317367746,
				"z": -4.3468438451,
				"element": "H" 
			},
			{
				"x": -2.637911209,
				"y": -1.8561609956,
				"z": -3.6537764675,
				"element": "H" 
			},
			{
				"x": -0.415582119,
				"y": -1.5070980287,
				"z": -4.7221500212,
				"element": "H" 
			},
			{
				"x": -0.1889445914,
				"y": -0.0150282462,
				"z": -3.8190353551,
				"element": "H" 
			},
			{
				"x": -0.4669426701,
				"y": -2.1029827857,
				"z": 0.762630791,
				"element": "H" 
			},
			{
				"x": 1.3869420199,
				"y": -3.6744444721,
				"z": 0.4541385276,
				"element": "H" 
			},
			{
				"x": 2.3383479093,
				"y": -4.0734247578,
				"z": -1.8161002369,
				"element": "H" 
			},
			{
				"x": 1.3901802257,
				"y": -2.8525854485,
				"z": -3.7638661563,
				"element": "H" 
			},
			{
				"x": -2.9993056179,
				"y": 0.3730546253,
				"z": 0.005242561,
				"element": "H" 
			},
			{
				"x": -2.3215714743,
				"y": -1.0452227802,
				"z": 0.8023707469,
				"element": "H" 
			},
			{
				"x": -0.4607564727,
				"y": 1.7272179998,
				"z": -0.9567980115,
				"element": "H" 
			},
			{
				"x": 1.4907214356,
				"y": 3.0444166325,
				"z": 2.6475791562,
				"element": "H" 
			},
			{
				"x": 0.2011505176,
				"y": 1.3576367394,
				"z": 3.9479900327,
				"element": "H" 
			},
			{
				"x": -1.3988967654,
				"y": -0.1378613102,
				"z": 2.7967031517,
				"element": "H" 
			}
		],
		 "valence_orbital": [ 
			{
				"type": "occ",
				"energy": -0.27352,
				"method": "rhf"
			},
			{
				"type": "occ",
				"energy": -0.26791,
				"method": "rhf"
			},
			{
				"type": "occ",
				"energy": -0.25768,
				"method": "rhf"
			},
			{
				"type": "occ",
				"energy": -0.25467,
				"method": "rhf"
			},
			{
				"type": "occ",
				"energy": -0.2243,
				"method": "rhf"
			},
			{
				"type": "unocc",
				"energy": -0.05257,
				"method": "rhf"
			},
			{
				"type": "unocc",
				"energy": -0.02787,
				"method": "rhf"
			},
			{
				"type": "unocc",
				"energy": -0.01872,
				"method": "rhf"
			},
			{
				"type": "unocc",
				"energy": -0.00973,
				"method": "rhf"
			},
			{
				"type": "unocc",
				"energy": 0.02251,
				"method": "rhf"
			}
		],
		"cosmo_sigma_profile": { 
			"-0.025": 0.0,
			"-0.024": 0.0,
			"-0.023": 0.0,
			"-0.022": 0.0,
			"-0.021": 0.0,
			"-0.02": 0.0,
			"-0.019": 0.0,
			"-0.018": 0.0,
			"-0.017": 0.0,
			"-0.016": 0.0,
			"-0.015": 0.0,
			"-0.014": 0.0,
			"-0.013": 0.0,
			"-0.012": 0.0,
			"-0.011": 0.0,
			"-0.01": 0.0,
			"-0.009": 0.361443424307,
			"-0.008": 3.77628105398,
			"-0.007": 10.9688043509,
			"-0.006": 18.2180275942,
			"-0.005": 29.0444546692,
			"-0.004": 30.1231899547,
			"-0.003": 27.4163485571,
			"-0.002": 23.7016896144,
			"-0.001": 23.6487398867,
			"0.0": 16.3268583038,
			"0.001": 17.0318882863,
			"0.002": 20.5341836815,
			"0.003": 17.851939699,
			"0.004": 10.9106940094,
			"0.005": 11.6149628678,
			"0.006": 8.94992448994,
			"0.007": 4.39929412571,
			"0.008": 4.75294291951,
			"0.009": 4.89550051473,
			"0.01": 4.45201025628,
			"0.011": 4.83162654297,
			"0.012": 5.55856987012,
			"0.013": 5.39379620169,
			"0.014": 1.40060570612,
			"0.015": 0.0524970997693,
			"0.016": 0.0,
			"0.017": 0.0,
			"0.018": 0.0,
			"0.019": 0.0,
			"0.02": 0.0,
			"0.021": 0.0,
			"0.022": 0.0,
			"0.023": 0.0,
			"0.024": 0.0,
			"0.025": 0.0
		}
	}
}
