{
	 "smiles": "CCOC(=O)C(CCC1=CC=CC=C1)NC(C)C(=O)N1C2CCCC2CC1C(O)=O", 
	 "Tm": 382.15, 
	 "num_atms": 62, 
	 "gaussian": { 
		 "optdone": 1, 
		 "sigma_profile": "yes", 
		 "theory": "DFT", 
		 "functional": "B3LYP", 
		 "basiset": "6-31G**", 
		 "properties": { 
			 "R2extent": 12439.963, 
			 "electric_dipole_moment_norm": 2.63725851975, 
			 "electric_quadrupole_moment_norm": 14.0613314544, 
			 "total_energy": -1381.41334355, 
			 "HOMO_LUMO_gap": 0.21638, 
			 "cosmo_polarized_energy": -22.78, 
			 "cosmo_cavitation_energy": 60.4, 
			 "cosmo_dispersion_energy": -36.84, 
			 "cosmo_repulsion_energy": 2.79, 
			 "cosmo_total_nonelectrostatic_energy": 26.35, 
			 "SMD_solvation_energy": 9.86 
		},
		"coords": [
			{
				"x": 0.5407432987,
				"y": 3.4685024141,
				"z": 4.7396138451,
				"element": "C" 
			},
			{
				"x": 1.0330603673,
				"y": 2.4978369128,
				"z": 3.6832600598,
				"element": "C" 
			},
			{
				"x": 0.0067680655,
				"y": 2.4057230956,
				"z": 2.6673874206,
				"element": "O" 
			},
			{
				"x": 0.2748583307,
				"y": 1.5890724056,
				"z": 1.6277140759,
				"element": "C" 
			},
			{
				"x": 1.3346955261,
				"y": 1.0134034545,
				"z": 1.4934326264,
				"element": "O" 
			},
			{
				"x": -0.8985055223,
				"y": 1.5843084589,
				"z": 0.6372538322,
				"element": "C" 
			},
			{
				"x": -2.2487576271,
				"y": 1.2360589189,
				"z": 1.3103335949,
				"element": "C" 
			},
			{
				"x": -2.4671857838,
				"y": -0.2503270241,
				"z": 1.6698179851,
				"element": "C" 
			},
			{
				"x": -1.5138048348,
				"y": -0.8217878739,
				"z": 2.7006508441,
				"element": "C" 
			},
			{
				"x": -0.5447523578,
				"y": -1.7654472484,
				"z": 2.3331800805,
				"element": "C" 
			},
			{
				"x": 0.3228526754,
				"y": -2.3013142505,
				"z": 3.2874092248,
				"element": "C" 
			},
			{
				"x": 0.2389152367,
				"y": -1.9018371312,
				"z": 4.62194672,
				"element": "C" 
			},
			{
				"x": -0.7243461623,
				"y": -0.9626978479,
				"z": 5.0001586776,
				"element": "C" 
			},
			{
				"x": -1.5928153656,
				"y": -0.4310116034,
				"z": 4.0459189244,
				"element": "C" 
			},
			{
				"x": -0.6462880696,
				"y": 0.6772888292,
				"z": -0.467598381,
				"element": "N" 
			},
			{
				"x": 0.3709186678,
				"y": 1.0367272249,
				"z": -1.4682002633,
				"element": "C" 
			},
			{
				"x": 0.0203578163,
				"y": 2.2411317857,
				"z": -2.3536504123,
				"element": "C" 
			},
			{
				"x": 0.4872273773,
				"y": -0.2345672438,
				"z": -2.3252844435,
				"element": "C" 
			},
			{
				"x": -0.354905501,
				"y": -0.4718214911,
				"z": -3.1935985059,
				"element": "O" 
			},
			{
				"x": 1.4987924949,
				"y": -1.1128393242,
				"z": -2.0641926712,
				"element": "N" 
			},
			{
				"x": 2.3862709623,
				"y": -1.0994247516,
				"z": -0.8807548162,
				"element": "C" 
			},
			{
				"x": 3.60550701,
				"y": -0.1341530443,
				"z": -0.9724949397,
				"element": "C" 
			},
			{
				"x": 4.8485793062,
				"y": -1.025297811,
				"z": -1.1765875746,
				"element": "C" 
			},
			{
				"x": 4.4709382239,
				"y": -2.3485463927,
				"z": -0.4855061844,
				"element": "C" 
			},
			{
				"x": 2.9835026862,
				"y": -2.5366762181,
				"z": -0.8324068153,
				"element": "C" 
			},
			{
				"x": 2.7363542485,
				"y": -3.1051382439,
				"z": -2.2475503775,
				"element": "C" 
			},
			{
				"x": 1.4435342168,
				"y": -2.4139123644,
				"z": -2.7219037776,
				"element": "C" 
			},
			{
				"x": 0.2140443166,
				"y": -3.2062089717,
				"z": -2.2738522403,
				"element": "C" 
			},
			{
				"x": -0.1676689951,
				"y": -4.0889174102,
				"z": -3.2232892453,
				"element": "O" 
			},
			{
				"x": -0.3250869734,
				"y": -3.1309627015,
				"z": -1.1913249932,
				"element": "O" 
			},
			{
				"x": 1.2917169496,
				"y": 3.5696515069,
				"z": 5.5294474407,
				"element": "H" 
			},
			{
				"x": 0.3579517236,
				"y": 4.4579185294,
				"z": 4.310215275,
				"element": "H" 
			},
			{
				"x": -0.3885489967,
				"y": 3.1118813018,
				"z": 5.1929662202,
				"element": "H" 
			},
			{
				"x": 1.2054104945,
				"y": 1.4981120315,
				"z": 4.0925417047,
				"element": "H" 
			},
			{
				"x": 1.9635914508,
				"y": 2.8343801629,
				"z": 3.2154639079,
				"element": "H" 
			},
			{
				"x": -0.9835015502,
				"y": 2.6433939959,
				"z": 0.3262303439,
				"element": "H" 
			},
			{
				"x": -3.0449871465,
				"y": 1.5389083659,
				"z": 0.6178431263,
				"element": "H" 
			},
			{
				"x": -2.3549351729,
				"y": 1.8621194864,
				"z": 2.2002413263,
				"element": "H" 
			},
			{
				"x": -3.4960152488,
				"y": -0.3400364558,
				"z": 2.0425648654,
				"element": "H" 
			},
			{
				"x": -2.4117960351,
				"y": -0.8579240868,
				"z": 0.7623821686,
				"element": "H" 
			},
			{
				"x": -0.4701707839,
				"y": -2.0758032574,
				"z": 1.2943293181,
				"element": "H" 
			},
			{
				"x": 1.0660005115,
				"y": -3.0345323113,
				"z": 2.9857570132,
				"element": "H" 
			},
			{
				"x": 0.9125235413,
				"y": -2.322318885,
				"z": 5.3635990457,
				"element": "H" 
			},
			{
				"x": -0.807109068,
				"y": -0.6542756895,
				"z": 6.0391154642,
				"element": "H" 
			},
			{
				"x": -2.3488712623,
				"y": 0.2896536446,
				"z": 4.3506323958,
				"element": "H" 
			},
			{
				"x": -1.5131965832,
				"y": 0.4668695863,
				"z": -0.9543827898,
				"element": "H" 
			},
			{
				"x": 1.2987864182,
				"y": 1.2285029787,
				"z": -0.9292857957,
				"element": "H" 
			},
			{
				"x": 0.8497509709,
				"y": 2.4842792902,
				"z": -3.0271410455,
				"element": "H" 
			},
			{
				"x": -0.8540342603,
				"y": 2.011480748,
				"z": -2.9679486355,
				"element": "H" 
			},
			{
				"x": -0.1855314042,
				"y": 3.1296653562,
				"z": -1.7485555005,
				"element": "H" 
			},
			{
				"x": 1.7926824943,
				"y": -0.8707366066,
				"z": 0.0053407431,
				"element": "H" 
			},
			{
				"x": 3.6808900038,
				"y": 0.4160305018,
				"z": -0.0289503916,
				"element": "H" 
			},
			{
				"x": 3.4816159241,
				"y": 0.6026085405,
				"z": -1.7716135917,
				"element": "H" 
			},
			{
				"x": 5.0262717148,
				"y": -1.1945387823,
				"z": -2.2454332859,
				"element": "H" 
			},
			{
				"x": 5.7622259158,
				"y": -0.5796490963,
				"z": -0.7711603073,
				"element": "H" 
			},
			{
				"x": 4.5875698231,
				"y": -2.2473364913,
				"z": 0.6003817148,
				"element": "H" 
			},
			{
				"x": 5.0894051841,
				"y": -3.1962301348,
				"z": -0.800799915,
				"element": "H" 
			},
			{
				"x": 2.4578579116,
				"y": -3.1506301296,
				"z": -0.0959527765,
				"element": "H" 
			},
			{
				"x": 2.6559798049,
				"y": -4.1955524263,
				"z": -2.2611656848,
				"element": "H" 
			},
			{
				"x": 3.5507624068,
				"y": -2.8283782665,
				"z": -2.9250434274,
				"element": "H" 
			},
			{
				"x": 1.3924214658,
				"y": -2.3023288436,
				"z": -3.806649341,
				"element": "H" 
			},
			{
				"x": -0.921920832,
				"y": -4.5778491159,
				"z": -2.8530518558,
				"element": "H" 
			}
		],
		 "valence_orbital": [ 
			{
				"type": "occ",
				"energy": -0.24371,
				"method": "rhf"
			},
			{
				"type": "occ",
				"energy": -0.2384,
				"method": "rhf"
			},
			{
				"type": "occ",
				"energy": -0.23188,
				"method": "rhf"
			},
			{
				"type": "occ",
				"energy": -0.23059,
				"method": "rhf"
			},
			{
				"type": "occ",
				"energy": -0.21773,
				"method": "rhf"
			},
			{
				"type": "unocc",
				"energy": -0.00135,
				"method": "rhf"
			},
			{
				"type": "unocc",
				"energy": 0.00998,
				"method": "rhf"
			},
			{
				"type": "unocc",
				"energy": 0.01187,
				"method": "rhf"
			},
			{
				"type": "unocc",
				"energy": 0.02307,
				"method": "rhf"
			},
			{
				"type": "unocc",
				"energy": 0.02885,
				"method": "rhf"
			}
		],
		"cosmo_sigma_profile": { 
			"-0.025": 0.0,
			"-0.024": 0.0,
			"-0.023": 0.0,
			"-0.022": 0.0,
			"-0.021": 0.0,
			"-0.02": 0.0,
			"-0.019": 0.161428046965,
			"-0.018": 0.725084228441,
			"-0.017": 0.947521597762,
			"-0.016": 1.20676850721,
			"-0.015": 0.450362587332,
			"-0.014": 0.802788198662,
			"-0.013": 0.84182007595,
			"-0.012": 0.480835329494,
			"-0.011": 0.628143748125,
			"-0.01": 0.788072767555,
			"-0.009": 1.63066954744,
			"-0.008": 2.00073345893,
			"-0.007": 3.05496241071,
			"-0.006": 6.58120027768,
			"-0.005": 24.1035341439,
			"-0.004": 41.900247895,
			"-0.003": 59.454469557,
			"-0.002": 55.0169417522,
			"-0.001": 52.3273930644,
			"0.0": 46.2337597921,
			"0.001": 36.1125810909,
			"0.002": 22.237024033,
			"0.003": 16.7764517634,
			"0.004": 16.3866956906,
			"0.005": 15.987874466,
			"0.006": 14.982628583,
			"0.007": 12.814441287,
			"0.008": 10.0645860371,
			"0.009": 8.27294875718,
			"0.01": 5.14621720634,
			"0.011": 4.6765387416,
			"0.012": 2.31524433246,
			"0.013": 3.04865352795,
			"0.014": 2.56848088177,
			"0.015": 0.0568786710526,
			"0.016": 0.0,
			"0.017": 0.0,
			"0.018": 0.0,
			"0.019": 0.0,
			"0.02": 0.0,
			"0.021": 0.0,
			"0.022": 0.0,
			"0.023": 0.0,
			"0.024": 0.0,
			"0.025": 0.0
		}
	}
}
