{
	 "smiles": "CCOC(=O)C(=CNC1=CC=C(OC(F)F)C=C1)C#N", 
	 "Tm": 375.15, 
	 "num_atms": 32, 
	 "gaussian": { 
		 "optdone": 1, 
		 "sigma_profile": "yes", 
		 "theory": "DFT", 
		 "functional": "B3LYP", 
		 "basiset": "6-31G**", 
		 "properties": { 
			 "R2extent": 10594.2248, 
			 "electric_dipole_moment_norm": 5.37291073255, 
			 "electric_quadrupole_moment_norm": 27.8464365984, 
			 "total_energy": -1037.44783039, 
			 "HOMO_LUMO_gap": 0.1731, 
			 "cosmo_polarized_energy": -22.96, 
			 "cosmo_cavitation_energy": 39.33, 
			 "cosmo_dispersion_energy": -27.06, 
			 "cosmo_repulsion_energy": 2.07, 
			 "cosmo_total_nonelectrostatic_energy": 14.34, 
			 "SMD_solvation_energy": 10.37 
		},
		"coords": [
			{
				"x": -0.8862798378,
				"y": -4.6634330347,
				"z": 2.2794192415,
				"element": "C" 
			},
			{
				"x": 0.2620018018,
				"y": -4.3944461181,
				"z": 1.3186079716,
				"element": "C" 
			},
			{
				"x": 0.1721955088,
				"y": -3.0658349347,
				"z": 0.7513585054,
				"element": "O" 
			},
			{
				"x": 0.7116028778,
				"y": -2.0632296867,
				"z": 1.4702799051,
				"element": "C" 
			},
			{
				"x": 1.2642030095,
				"y": -2.2122778536,
				"z": 2.5479593482,
				"element": "O" 
			},
			{
				"x": 0.5564367295,
				"y": -0.7543727925,
				"z": 0.7836052148,
				"element": "C" 
			},
			{
				"x": 1.1215435046,
				"y": 0.3124554734,
				"z": 1.437213948,
				"element": "C" 
			},
			{
				"x": 1.1737113039,
				"y": 1.6320019227,
				"z": 1.1469828744,
				"element": "N" 
			},
			{
				"x": 0.4936921072,
				"y": 2.392260543,
				"z": 0.1536647439,
				"element": "C" 
			},
			{
				"x": -0.8779512776,
				"y": 2.2330841987,
				"z": -0.0825031995,
				"element": "C" 
			},
			{
				"x": -1.5197982831,
				"y": 3.0426852716,
				"z": -1.0116498631,
				"element": "C" 
			},
			{
				"x": -0.8013180603,
				"y": 4.0240495717,
				"z": -1.6975372695,
				"element": "C" 
			},
			{
				"x": -1.5212885798,
				"y": 4.7757343116,
				"z": -2.6107030018,
				"element": "O" 
			},
			{
				"x": -1.1173072449,
				"y": 6.0660550758,
				"z": -2.8513686866,
				"element": "C" 
			},
			{
				"x": -2.1438130025,
				"y": 6.6879691663,
				"z": -3.4537469258,
				"element": "F" 
			},
			{
				"x": -0.0580258265,
				"y": 6.0914344296,
				"z": -3.7127928896,
				"element": "F" 
			},
			{
				"x": 0.566229516,
				"y": 4.1949303604,
				"z": -1.4687950225,
				"element": "C" 
			},
			{
				"x": 1.2050842185,
				"y": 3.376276618,
				"z": -0.5384773597,
				"element": "C" 
			},
			{
				"x": -0.0792238068,
				"y": -0.707267131,
				"z": -0.4880015156,
				"element": "C" 
			},
			{
				"x": -0.5956409693,
				"y": -0.6806972097,
				"z": -1.5321741309,
				"element": "N" 
			},
			{
				"x": -0.8230006747,
				"y": -4.0032282664,
				"z": 3.1479123706,
				"element": "H" 
			},
			{
				"x": -0.8400853571,
				"y": -5.6994492346,
				"z": 2.631455721,
				"element": "H" 
			},
			{
				"x": -1.8502263801,
				"y": -4.5106352442,
				"z": 1.7855133575,
				"element": "H" 
			},
			{
				"x": 0.2237803831,
				"y": -5.0582461183,
				"z": 0.4519791312,
				"element": "H" 
			},
			{
				"x": 1.2282962497,
				"y": -4.5003722443,
				"z": 1.8171892457,
				"element": "H" 
			},
			{
				"x": 1.6363625986,
				"y": 0.0452735472,
				"z": 2.3566277475,
				"element": "H" 
			},
			{
				"x": 1.78961157,
				"y": 2.1689981211,
				"z": 1.740742365,
				"element": "H" 
			},
			{
				"x": -1.4433620639,
				"y": 1.4891066923,
				"z": 0.4653662461,
				"element": "H" 
			},
			{
				"x": -2.5801760517,
				"y": 2.9323485888,
				"z": -1.208704192,
				"element": "H" 
			},
			{
				"x": -0.8288081714,
				"y": 6.5992942582,
				"z": -1.9370755871,
				"element": "H" 
			},
			{
				"x": 1.1343343712,
				"y": 4.9241503024,
				"z": -2.0328827539,
				"element": "H" 
			},
			{
				"x": 2.2719198373,
				"y": 3.4901814163,
				"z": -0.3680655395,
				"element": "H" 
			}
		],
		 "valence_orbital": [ 
			{
				"type": "occ",
				"energy": -0.29752,
				"method": "rhf"
			},
			{
				"type": "occ",
				"energy": -0.27649,
				"method": "rhf"
			},
			{
				"type": "occ",
				"energy": -0.27217,
				"method": "rhf"
			},
			{
				"type": "occ",
				"energy": -0.2647,
				"method": "rhf"
			},
			{
				"type": "occ",
				"energy": -0.22563,
				"method": "rhf"
			},
			{
				"type": "unocc",
				"energy": -0.05253,
				"method": "rhf"
			},
			{
				"type": "unocc",
				"energy": -0.02852,
				"method": "rhf"
			},
			{
				"type": "unocc",
				"energy": -0.00809,
				"method": "rhf"
			},
			{
				"type": "unocc",
				"energy": 0.03041,
				"method": "rhf"
			},
			{
				"type": "unocc",
				"energy": 0.03995,
				"method": "rhf"
			}
		],
		"cosmo_sigma_profile": { 
			"-0.025": 0.0,
			"-0.024": 0.0,
			"-0.023": 0.0,
			"-0.022": 0.0,
			"-0.021": 0.0,
			"-0.02": 0.0,
			"-0.019": 0.0,
			"-0.018": 0.0,
			"-0.017": 1.01502029049,
			"-0.016": 2.11787780034,
			"-0.015": 1.37241437077,
			"-0.014": 1.59128105626,
			"-0.013": 1.25050031359,
			"-0.012": 2.12434172989,
			"-0.011": 1.4708676105,
			"-0.01": 4.48468414651,
			"-0.009": 4.07890488235,
			"-0.008": 6.8049003187,
			"-0.007": 9.40154483796,
			"-0.006": 11.6975486286,
			"-0.005": 14.4085489389,
			"-0.004": 17.8936656608,
			"-0.003": 20.3264100605,
			"-0.002": 21.8995324432,
			"-0.001": 25.092966249,
			"0.0": 25.7711293255,
			"0.001": 19.6268051996,
			"0.002": 19.4315336121,
			"0.003": 28.3754875228,
			"0.004": 19.9007885636,
			"0.005": 7.1781500057,
			"0.006": 6.37236875072,
			"0.007": 7.32989984949,
			"0.008": 6.54157773629,
			"0.009": 6.73590607699,
			"0.01": 4.85587650449,
			"0.011": 5.14883971463,
			"0.012": 6.53656199547,
			"0.013": 2.56360677321,
			"0.014": 1.2790249959,
			"0.015": 0.0,
			"0.016": 0.0,
			"0.017": 0.0,
			"0.018": 0.0,
			"0.019": 0.0,
			"0.02": 0.0,
			"0.021": 0.0,
			"0.022": 0.0,
			"0.023": 0.0,
			"0.024": 0.0,
			"0.025": 0.0
		}
	}
}
