{
	 "smiles": "OC12CC=CCC1(O)CC=CC2", 
	 "Tm": 356.15, 
	 "num_atms": 26, 
	 "gaussian": { 
		 "optdone": 1, 
		 "sigma_profile": "yes", 
		 "theory": "DFT", 
		 "functional": "B3LYP", 
		 "basiset": "6-31G**", 
		 "properties": { 
			 "R2extent": 1898.9492, 
			 "electric_dipole_moment_norm": 2.52549985943, 
			 "electric_quadrupole_moment_norm": 5.6228133083, 
			 "total_energy": -539.909512583, 
			 "HOMO_LUMO_gap": 0.23685, 
			 "cosmo_polarized_energy": -10.69, 
			 "cosmo_cavitation_energy": 25.69, 
			 "cosmo_dispersion_energy": -19.28, 
			 "cosmo_repulsion_energy": 1.5, 
			 "cosmo_total_nonelectrostatic_energy": 7.91, 
			 "SMD_solvation_energy": 3.63 
		},
		"coords": [
			{
				"x": -0.8861592371,
				"y": 1.3148298371,
				"z": -0.3131942439,
				"element": "O" 
			},
			{
				"x": -0.2020030068,
				"y": 0.6267008282,
				"z": 0.7460981499,
				"element": "C" 
			},
			{
				"x": 0.0180360568,
				"y": 1.6580276448,
				"z": 1.8637930882,
				"element": "C" 
			},
			{
				"x": 1.1307313465,
				"y": 2.6326833064,
				"z": 1.5890776921,
				"element": "C" 
			},
			{
				"x": 2.0596847465,
				"y": 2.4335590301,
				"z": 0.6541950066,
				"element": "C" 
			},
			{
				"x": 2.0594225916,
				"y": 1.2426274195,
				"z": -0.2650716765,
				"element": "C" 
			},
			{
				"x": 1.1569528837,
				"y": 0.0901347132,
				"z": 0.2026214438,
				"element": "C" 
			},
			{
				"x": 1.8571817582,
				"y": -0.5665656415,
				"z": 1.2713865796,
				"element": "O" 
			},
			{
				"x": 0.9175822531,
				"y": -0.9085674274,
				"z": -0.9500560737,
				"element": "C" 
			},
			{
				"x": -0.1875324101,
				"y": -1.8941386759,
				"z": -0.6602834119,
				"element": "C" 
			},
			{
				"x": -1.085734951,
				"y": -1.7238413344,
				"z": 0.3182586607,
				"element": "C" 
			},
			{
				"x": -1.075536507,
				"y": -0.5404764432,
				"z": 1.25419461,
				"element": "C" 
			},
			{
				"x": -1.2366263092,
				"y": 0.6436003676,
				"z": -0.9145792092,
				"element": "H" 
			},
			{
				"x": -0.9298003637,
				"y": 2.1895698952,
				"z": 2.0146174698,
				"element": "H" 
			},
			{
				"x": 0.235850394,
				"y": 1.1284633908,
				"z": 2.8004383882,
				"element": "H" 
			},
			{
				"x": 1.174495819,
				"y": 3.5189787782,
				"z": 2.2192759767,
				"element": "H" 
			},
			{
				"x": 2.8491024161,
				"y": 3.1681371369,
				"z": 0.5065298845,
				"element": "H" 
			},
			{
				"x": 3.0751028548,
				"y": 0.8430250246,
				"z": -0.376489192,
				"element": "H" 
			},
			{
				"x": 1.7362308953,
				"y": 1.5667733774,
				"z": -1.2629033919,
				"element": "H" 
			},
			{
				"x": 1.4252724069,
				"y": -1.4190389517,
				"z": 1.4189412152,
				"element": "H" 
			},
			{
				"x": 1.8602455236,
				"y": -1.4368922994,
				"z": -1.1416644339,
				"element": "H" 
			},
			{
				"x": 0.6888423375,
				"y": -0.3667729766,
				"z": -1.8783775743,
				"element": "H" 
			},
			{
				"x": -0.2505846723,
				"y": -2.7729868202,
				"z": -1.2997371083,
				"element": "H" 
			},
			{
				"x": -1.8601371859,
				"y": -2.4733512211,
				"z": 0.4725023047,
				"element": "H" 
			},
			{
				"x": -2.0947895825,
				"y": -0.1613545631,
				"z": 1.4020058937,
				"element": "H" 
			},
			{
				"x": -0.7338300577,
				"y": -0.8638243953,
				"z": 2.2473199519,
				"element": "H" 
			}
		],
		 "valence_orbital": [ 
			{
				"type": "occ",
				"energy": -0.30254,
				"method": "rhf"
			},
			{
				"type": "occ",
				"energy": -0.28192,
				"method": "rhf"
			},
			{
				"type": "occ",
				"energy": -0.25719,
				"method": "rhf"
			},
			{
				"type": "occ",
				"energy": -0.24202,
				"method": "rhf"
			},
			{
				"type": "occ",
				"energy": -0.22793,
				"method": "rhf"
			},
			{
				"type": "unocc",
				"energy": 0.00892,
				"method": "rhf"
			},
			{
				"type": "unocc",
				"energy": 0.04149,
				"method": "rhf"
			},
			{
				"type": "unocc",
				"energy": 0.06841,
				"method": "rhf"
			},
			{
				"type": "unocc",
				"energy": 0.09763,
				"method": "rhf"
			},
			{
				"type": "unocc",
				"energy": 0.11294,
				"method": "rhf"
			}
		],
		"cosmo_sigma_profile": { 
			"-0.025": 0.0,
			"-0.024": 0.0,
			"-0.023": 0.0,
			"-0.022": 0.0,
			"-0.021": 0.0,
			"-0.02": 0.0,
			"-0.019": 0.0,
			"-0.018": 0.0,
			"-0.017": 0.0,
			"-0.016": 0.0,
			"-0.015": 0.0,
			"-0.014": 0.00660635824188,
			"-0.013": 0.701150954134,
			"-0.012": 0.938066175605,
			"-0.011": 1.26970279541,
			"-0.01": 2.14015181419,
			"-0.009": 1.53803213791,
			"-0.008": 1.42512331116,
			"-0.007": 2.10851752297,
			"-0.006": 2.79807874599,
			"-0.005": 7.61096688806,
			"-0.004": 18.7546973293,
			"-0.003": 25.447225392,
			"-0.002": 29.1078305323,
			"-0.001": 25.8672155497,
			"0.0": 16.2717138411,
			"0.001": 9.01836801268,
			"0.002": 7.53304258677,
			"0.003": 6.75522855139,
			"0.004": 5.50840356454,
			"0.005": 4.47243531858,
			"0.006": 4.02002739502,
			"0.007": 3.41838160876,
			"0.008": 3.57429843275,
			"0.009": 2.81482943439,
			"0.01": 2.97563389255,
			"0.011": 2.81686840182,
			"0.012": 3.46694941193,
			"0.013": 3.07300045526,
			"0.014": 3.3160743182,
			"0.015": 0.453160736144,
			"0.016": 0.0,
			"0.017": 0.0,
			"0.018": 0.0,
			"0.019": 0.0,
			"0.02": 0.0,
			"0.021": 0.0,
			"0.022": 0.0,
			"0.023": 0.0,
			"0.024": 0.0,
			"0.025": 0.0
		}
	}
}
