{
	 "smiles": "CC1OC2=C(NC1=O)C=CC=C2", 
	 "Tm": 416.15, 
	 "num_atms": 21, 
	 "gaussian": { 
		 "optdone": 1, 
		 "sigma_profile": "yes", 
		 "theory": "DFT", 
		 "functional": "B3LYP", 
		 "basiset": "6-31G**", 
		 "properties": { 
			 "R2extent": 2487.6048, 
			 "electric_dipole_moment_norm": 2.49429157478, 
			 "electric_quadrupole_moment_norm": 12.3717402588, 
			 "total_energy": -553.594472688, 
			 "HOMO_LUMO_gap": 0.19881, 
			 "cosmo_polarized_energy": -11.02, 
			 "cosmo_cavitation_energy": 24.51, 
			 "cosmo_dispersion_energy": -18.2, 
			 "cosmo_repulsion_energy": 1.45, 
			 "cosmo_total_nonelectrostatic_energy": 7.76, 
			 "SMD_solvation_energy": 4.89 
		},
		"coords": [
			{
				"x": -0.8534144938,
				"y": -0.518932311,
				"z": -3.5101714066,
				"element": "C" 
			},
			{
				"x": -0.894861271,
				"y": -1.1375141599,
				"z": -2.1099410988,
				"element": "C" 
			},
			{
				"x": -1.0074084011,
				"y": -0.1254308585,
				"z": -1.0922736067,
				"element": "O" 
			},
			{
				"x": 0.1519285525,
				"y": 0.5050120158,
				"z": -0.7251843783,
				"element": "C" 
			},
			{
				"x": 1.3788614138,
				"y": -0.175761436,
				"z": -0.7863056269,
				"element": "C" 
			},
			{
				"x": 1.3686060416,
				"y": -1.4986141109,
				"z": -1.260075386,
				"element": "N" 
			},
			{
				"x": 0.2986725309,
				"y": -2.0734502934,
				"z": -1.8958281429,
				"element": "C" 
			},
			{
				"x": 0.3047699027,
				"y": -3.2219932671,
				"z": -2.3090582946,
				"element": "O" 
			},
			{
				"x": 2.5465815502,
				"y": 0.4582699939,
				"z": -0.3586799903,
				"element": "C" 
			},
			{
				"x": 2.4899988385,
				"y": 1.7596260753,
				"z": 0.1432620061,
				"element": "C" 
			},
			{
				"x": 1.2677340837,
				"y": 2.4304874928,
				"z": 0.2108282713,
				"element": "C" 
			},
			{
				"x": 0.099115669,
				"y": 1.8052974604,
				"z": -0.2298740898,
				"element": "C" 
			},
			{
				"x": 0.0361503056,
				"y": 0.1056249358,
				"z": -3.6379965427,
				"element": "H" 
			},
			{
				"x": -1.7393466749,
				"y": 0.1024776925,
				"z": -3.6651542006,
				"element": "H" 
			},
			{
				"x": -0.8361704001,
				"y": -1.310127614,
				"z": -4.2644606416,
				"element": "H" 
			},
			{
				"x": -1.7919387456,
				"y": -1.7500646859,
				"z": -1.9982422426,
				"element": "H" 
			},
			{
				"x": 2.1928869633,
				"y": -2.0776444357,
				"z": -1.1620521635,
				"element": "H" 
			},
			{
				"x": 3.4931047652,
				"y": -0.073387113,
				"z": -0.4132685721,
				"element": "H" 
			},
			{
				"x": 3.4010618477,
				"y": 2.2441841589,
				"z": 0.4795059343,
				"element": "H" 
			},
			{
				"x": 1.2206072018,
				"y": 3.4430279441,
				"z": 0.5990746594,
				"element": "H" 
			},
			{
				"x": -0.86373968,
				"y": 2.303712516,
				"z": -0.188504487,
				"element": "H" 
			}
		],
		 "valence_orbital": [ 
			{
				"type": "occ",
				"energy": -0.32471,
				"method": "rhf"
			},
			{
				"type": "occ",
				"energy": -0.31164,
				"method": "rhf"
			},
			{
				"type": "occ",
				"energy": -0.25963,
				"method": "rhf"
			},
			{
				"type": "occ",
				"energy": -0.24261,
				"method": "rhf"
			},
			{
				"type": "occ",
				"energy": -0.21506,
				"method": "rhf"
			},
			{
				"type": "unocc",
				"energy": -0.01625,
				"method": "rhf"
			},
			{
				"type": "unocc",
				"energy": -0.00341,
				"method": "rhf"
			},
			{
				"type": "unocc",
				"energy": 0.03203,
				"method": "rhf"
			},
			{
				"type": "unocc",
				"energy": 0.07832,
				"method": "rhf"
			},
			{
				"type": "unocc",
				"energy": 0.08746,
				"method": "rhf"
			}
		],
		"cosmo_sigma_profile": { 
			"-0.025": 0.0,
			"-0.024": 0.0,
			"-0.023": 0.0,
			"-0.022": 0.0,
			"-0.021": 0.0,
			"-0.02": 0.0,
			"-0.019": 0.0,
			"-0.018": 0.0,
			"-0.017": 0.0,
			"-0.016": 0.191601373155,
			"-0.015": 1.00089774031,
			"-0.014": 1.37729349553,
			"-0.013": 1.07833163438,
			"-0.012": 1.58146840124,
			"-0.011": 1.10174850153,
			"-0.01": 0.493068614979,
			"-0.009": 1.19580136293,
			"-0.008": 1.79849962884,
			"-0.007": 4.33830804621,
			"-0.006": 8.63607205572,
			"-0.005": 12.9523885622,
			"-0.004": 18.2572413213,
			"-0.003": 16.0749889834,
			"-0.002": 14.8713878527,
			"-0.001": 15.8283067409,
			"0.0": 13.7979097182,
			"0.001": 10.5206340894,
			"0.002": 10.4976696635,
			"0.003": 11.4607352462,
			"0.004": 10.8896319539,
			"0.005": 9.83419647179,
			"0.006": 5.1874606313,
			"0.007": 2.29399937737,
			"0.008": 2.12405572654,
			"0.009": 2.94165767489,
			"0.01": 2.24565209933,
			"0.011": 2.45732148121,
			"0.012": 3.50190859665,
			"0.013": 5.06528112175,
			"0.014": 1.21906077965,
			"0.015": 0.0,
			"0.016": 0.0,
			"0.017": 0.0,
			"0.018": 0.0,
			"0.019": 0.0,
			"0.02": 0.0,
			"0.021": 0.0,
			"0.022": 0.0,
			"0.023": 0.0,
			"0.024": 0.0,
			"0.025": 0.0
		}
	}
}
