{
	 "smiles": "CC1(C)SC(=O)NC1=O", 
	 "Tm": 351.15, 
	 "num_atms": 16, 
	 "gaussian": { 
		 "optdone": 1, 
		 "sigma_profile": "yes", 
		 "theory": "DFT", 
		 "functional": "B3LYP", 
		 "basiset": "6-31G**", 
		 "properties": { 
			 "R2extent": 1345.5731, 
			 "electric_dipole_moment_norm": 2.09571717557, 
			 "electric_quadrupole_moment_norm": 11.4157554047, 
			 "total_energy": -798.174554408, 
			 "HOMO_LUMO_gap": 0.23217, 
			 "cosmo_polarized_energy": -11.38, 
			 "cosmo_cavitation_energy": 21.33, 
			 "cosmo_dispersion_energy": -15.94, 
			 "cosmo_repulsion_energy": 1.26, 
			 "cosmo_total_nonelectrostatic_energy": 6.65, 
			 "SMD_solvation_energy": 5.07 
		},
		"coords": [
			{
				"x": 1.7787116321,
				"y": -0.1494517975,
				"z": -0.5821445407,
				"element": "C" 
			},
			{
				"x": 0.3748694875,
				"y": -0.3288481918,
				"z": 0.0192470444,
				"element": "C" 
			},
			{
				"x": 0.4019849838,
				"y": -1.2962179587,
				"z": 1.2142386804,
				"element": "C" 
			},
			{
				"x": -0.3506184227,
				"y": 1.3134444067,
				"z": 0.5118392634,
				"element": "S" 
			},
			{
				"x": -1.7248742152,
				"y": 1.1698286247,
				"z": -0.6350389776,
				"element": "C" 
			},
			{
				"x": -2.6023244759,
				"y": 1.9817882135,
				"z": -0.7906602997,
				"element": "O" 
			},
			{
				"x": -1.6197811893,
				"y": -0.0376991642,
				"z": -1.3245878858,
				"element": "N" 
			},
			{
				"x": -0.5657606137,
				"y": -0.8919071037,
				"z": -1.0615483786,
				"element": "C" 
			},
			{
				"x": -0.3951825413,
				"y": -1.9598397314,
				"z": -1.6122966628,
				"element": "O" 
			},
			{
				"x": 1.7683689614,
				"y": 0.5489882272,
				"z": -1.4227361979,
				"element": "H" 
			},
			{
				"x": 2.1418337672,
				"y": -1.1185966894,
				"z": -0.9365234594,
				"element": "H" 
			},
			{
				"x": 2.4713325525,
				"y": 0.2313926404,
				"z": 0.1735651006,
				"element": "H" 
			},
			{
				"x": 1.0795255703,
				"y": -0.9262958983,
				"z": 1.9887959314,
				"element": "H" 
			},
			{
				"x": -0.5909883805,
				"y": -1.4171008674,
				"z": 1.6545990979,
				"element": "H" 
			},
			{
				"x": 0.7556264844,
				"y": -2.273992803,
				"z": 0.8742868664,
				"element": "H" 
			},
			{
				"x": -2.3205236005,
				"y": -0.276991907,
				"z": -2.0163355821,
				"element": "H" 
			}
		],
		 "valence_orbital": [ 
			{
				"type": "occ",
				"energy": -0.35395,
				"method": "rhf"
			},
			{
				"type": "occ",
				"energy": -0.30575,
				"method": "rhf"
			},
			{
				"type": "occ",
				"energy": -0.30275,
				"method": "rhf"
			},
			{
				"type": "occ",
				"energy": -0.27208,
				"method": "rhf"
			},
			{
				"type": "occ",
				"energy": -0.26679,
				"method": "rhf"
			},
			{
				"type": "unocc",
				"energy": -0.03462,
				"method": "rhf"
			},
			{
				"type": "unocc",
				"energy": -0.00707,
				"method": "rhf"
			},
			{
				"type": "unocc",
				"energy": 0.02513,
				"method": "rhf"
			},
			{
				"type": "unocc",
				"energy": 0.05643,
				"method": "rhf"
			},
			{
				"type": "unocc",
				"energy": 0.08873,
				"method": "rhf"
			}
		],
		"cosmo_sigma_profile": { 
			"-0.025": 0.0,
			"-0.024": 0.0,
			"-0.023": 0.0,
			"-0.022": 0.0,
			"-0.021": 0.0,
			"-0.02": 0.0,
			"-0.019": 0.0,
			"-0.018": 0.024555065085,
			"-0.017": 1.03812843742,
			"-0.016": 1.30557845608,
			"-0.015": 0.860697049578,
			"-0.014": 1.04049576617,
			"-0.013": 0.455064410773,
			"-0.012": 1.33455378039,
			"-0.011": 0.595870171893,
			"-0.01": 0.600886946912,
			"-0.009": 1.04765624607,
			"-0.008": 2.03909066913,
			"-0.007": 3.83643604539,
			"-0.006": 6.35964630873,
			"-0.005": 12.4710889644,
			"-0.004": 13.5544716049,
			"-0.003": 16.1763452922,
			"-0.002": 15.2258525713,
			"-0.001": 16.0154245148,
			"0.0": 9.18416726211,
			"0.001": 8.37563469963,
			"0.002": 8.35750279198,
			"0.003": 7.312699286,
			"0.004": 6.29290851101,
			"0.005": 4.57882974132,
			"0.006": 3.19586484881,
			"0.007": 3.0823147456,
			"0.008": 3.52751220977,
			"0.009": 3.21737401742,
			"0.01": 6.37847053435,
			"0.011": 10.0394254889,
			"0.012": 2.81098825482,
			"0.013": 0.0,
			"0.014": 0.0,
			"0.015": 0.0,
			"0.016": 0.0,
			"0.017": 0.0,
			"0.018": 0.0,
			"0.019": 0.0,
			"0.02": 0.0,
			"0.021": 0.0,
			"0.022": 0.0,
			"0.023": 0.0,
			"0.024": 0.0,
			"0.025": 0.0
		}
	}
}
