{
	 "smiles": "CC1=CC=C(C)C(CCC(C)(C)C(O)=O)=C1", 
	 "Tm": 351.15, 
	 "num_atms": 36, 
	 "gaussian": { 
		 "optdone": 1, 
		 "sigma_profile": "yes", 
		 "theory": "DFT", 
		 "functional": "B3LYP", 
		 "basiset": "6-31G**", 
		 "properties": { 
			 "R2extent": 4887.9533, 
			 "electric_dipole_moment_norm": 1.44368422448, 
			 "electric_quadrupole_moment_norm": 10.960096646, 
			 "total_energy": -696.039155376, 
			 "HOMO_LUMO_gap": 0.2268, 
			 "cosmo_polarized_energy": -9.95, 
			 "cosmo_cavitation_energy": 37.38, 
			 "cosmo_dispersion_energy": -25.33, 
			 "cosmo_repulsion_energy": 1.97, 
			 "cosmo_total_nonelectrostatic_energy": 14.02, 
			 "SMD_solvation_energy": 7.2 
		},
		"coords": [
			{
				"x": -1.0232929375,
				"y": 2.2683162237,
				"z": 4.2124604053,
				"element": "C" 
			},
			{
				"x": -0.0203771182,
				"y": 1.8805582558,
				"z": 3.1509116571,
				"element": "C" 
			},
			{
				"x": 1.3553394013,
				"y": 1.9924139483,
				"z": 3.3748312433,
				"element": "C" 
			},
			{
				"x": 2.2666753276,
				"y": 1.6077301583,
				"z": 2.3923676636,
				"element": "C" 
			},
			{
				"x": 1.8483596472,
				"y": 1.0988476012,
				"z": 1.1572595752,
				"element": "C" 
			},
			{
				"x": 2.874717658,
				"y": 0.72450725,
				"z": 0.1103581439,
				"element": "C" 
			},
			{
				"x": 0.4623881218,
				"y": 0.9805889487,
				"z": 0.9180552383,
				"element": "C" 
			},
			{
				"x": -0.0758587447,
				"y": 0.403501719,
				"z": -0.3768774693,
				"element": "C" 
			},
			{
				"x": -0.2488728232,
				"y": -1.1291276413,
				"z": -0.2966138458,
				"element": "C" 
			},
			{
				"x": -0.6659771451,
				"y": -1.832853985,
				"z": -1.6176703091,
				"element": "C" 
			},
			{
				"x": -0.7448103883,
				"y": -3.3571007225,
				"z": -1.363088096,
				"element": "C" 
			},
			{
				"x": -2.0198929335,
				"y": -1.3218337898,
				"z": -2.134633343,
				"element": "C" 
			},
			{
				"x": 0.3981876418,
				"y": -1.5804593532,
				"z": -2.6867699522,
				"element": "C" 
			},
			{
				"x": 1.6364138353,
				"y": -1.984044794,
				"z": -2.2900271193,
				"element": "O" 
			},
			{
				"x": 0.2141618188,
				"y": -1.0885388398,
				"z": -3.7788680237,
				"element": "O" 
			},
			{
				"x": -0.438117433,
				"y": 1.3760293126,
				"z": 1.9140183495,
				"element": "C" 
			},
			{
				"x": -1.9477980953,
				"y": 2.652421023,
				"z": 3.7699177876,
				"element": "H" 
			},
			{
				"x": -1.2965192297,
				"y": 1.4080645507,
				"z": 4.8369383604,
				"element": "H" 
			},
			{
				"x": -0.6227796878,
				"y": 3.038072761,
				"z": 4.8791704983,
				"element": "H" 
			},
			{
				"x": 1.7181186609,
				"y": 2.3873902359,
				"z": 4.3208448549,
				"element": "H" 
			},
			{
				"x": 3.3320464599,
				"y": 1.71090718,
				"z": 2.585301601,
				"element": "H" 
			},
			{
				"x": 2.7216182335,
				"y": -0.2846020562,
				"z": -0.2862253484,
				"element": "H" 
			},
			{
				"x": 3.8851777309,
				"y": 0.7711784175,
				"z": 0.525887422,
				"element": "H" 
			},
			{
				"x": 2.8422935335,
				"y": 1.4095006905,
				"z": -0.7468033756,
				"element": "H" 
			},
			{
				"x": 0.5889807772,
				"y": 0.6570348007,
				"z": -1.2103172233,
				"element": "H" 
			},
			{
				"x": -1.0413185536,
				"y": 0.8686858312,
				"z": -0.6023313522,
				"element": "H" 
			},
			{
				"x": 0.6844106675,
				"y": -1.5777090936,
				"z": 0.0582327437,
				"element": "H" 
			},
			{
				"x": -1.0087702573,
				"y": -1.3599670472,
				"z": 0.4605290236,
				"element": "H" 
			},
			{
				"x": -1.5128175721,
				"y": -3.5653283352,
				"z": -0.6109913084,
				"element": "H" 
			},
			{
				"x": 0.2082834619,
				"y": -3.7503616375,
				"z": -1.0008595174,
				"element": "H" 
			},
			{
				"x": -1.0152616948,
				"y": -3.8966128051,
				"z": -2.2768672713,
				"element": "H" 
			},
			{
				"x": -2.3233889036,
				"y": -1.866414537,
				"z": -3.0326391736,
				"element": "H" 
			},
			{
				"x": -2.788133835,
				"y": -1.4651828275,
				"z": -1.3675606384,
				"element": "H" 
			},
			{
				"x": -1.9823212452,
				"y": -0.2625937614,
				"z": -2.3974804477,
				"element": "H" 
			},
			{
				"x": 2.2285188885,
				"y": -1.7892177266,
				"z": -3.0357247312,
				"element": "H" 
			},
			{
				"x": -1.5052832674,
				"y": 1.2912000448,
				"z": 1.7136639782,
				"element": "H" 
			}
		],
		 "valence_orbital": [ 
			{
				"type": "occ",
				"energy": -0.31795,
				"method": "rhf"
			},
			{
				"type": "occ",
				"energy": -0.31296,
				"method": "rhf"
			},
			{
				"type": "occ",
				"energy": -0.26992,
				"method": "rhf"
			},
			{
				"type": "occ",
				"energy": -0.23582,
				"method": "rhf"
			},
			{
				"type": "occ",
				"energy": -0.22356,
				"method": "rhf"
			},
			{
				"type": "unocc",
				"energy": 0.00324,
				"method": "rhf"
			},
			{
				"type": "unocc",
				"energy": 0.00875,
				"method": "rhf"
			},
			{
				"type": "unocc",
				"energy": 0.01094,
				"method": "rhf"
			},
			{
				"type": "unocc",
				"energy": 0.06617,
				"method": "rhf"
			},
			{
				"type": "unocc",
				"energy": 0.09283,
				"method": "rhf"
			}
		],
		"cosmo_sigma_profile": { 
			"-0.025": 0.0,
			"-0.024": 0.0,
			"-0.023": 0.0,
			"-0.022": 0.0,
			"-0.021": 0.0,
			"-0.02": 0.0,
			"-0.019": 0.0,
			"-0.018": 0.287060271068,
			"-0.017": 0.913396103795,
			"-0.016": 1.01449335545,
			"-0.015": 0.452526492903,
			"-0.014": 0.999718945474,
			"-0.013": 0.990725836133,
			"-0.012": 0.245762024423,
			"-0.011": 0.345920663251,
			"-0.01": 1.03588096799,
			"-0.009": 0.657809066299,
			"-0.008": 0.262885937377,
			"-0.007": 0.956503888138,
			"-0.006": 1.08747136792,
			"-0.005": 3.99303349793,
			"-0.004": 22.2570111424,
			"-0.003": 39.7883228831,
			"-0.002": 37.4195609862,
			"-0.001": 32.9905702355,
			"0.0": 39.4206205207,
			"0.001": 30.8096728939,
			"0.002": 13.8636333089,
			"0.003": 10.578061325,
			"0.004": 8.87358153021,
			"0.005": 9.40338191184,
			"0.006": 8.45364192007,
			"0.007": 8.76481435051,
			"0.008": 2.86910533741,
			"0.009": 1.9589324858,
			"0.01": 1.94454348789,
			"0.011": 2.85676190216,
			"0.012": 4.94816890005,
			"0.013": 0.806119790328,
			"0.014": 0.0,
			"0.015": 0.0,
			"0.016": 0.0,
			"0.017": 0.0,
			"0.018": 0.0,
			"0.019": 0.0,
			"0.02": 0.0,
			"0.021": 0.0,
			"0.022": 0.0,
			"0.023": 0.0,
			"0.024": 0.0,
			"0.025": 0.0
		}
	}
}
