{
	 "smiles": "O=C1NC(=O)C2(CCSC2)N1", 
	 "Tm": 517.15, 
	 "num_atms": 19, 
	 "gaussian": { 
		 "optdone": 1, 
		 "sigma_profile": "yes", 
		 "theory": "DFT", 
		 "functional": "B3LYP", 
		 "basiset": "6-31G**", 
		 "properties": { 
			 "R2extent": 2243.8402, 
			 "electric_dipole_moment_norm": 1.50447874694, 
			 "electric_quadrupole_moment_norm": 11.5211012347, 
			 "total_energy": -891.641168759, 
			 "HOMO_LUMO_gap": 0.21188, 
			 "cosmo_polarized_energy": -16.2, 
			 "cosmo_cavitation_energy": 23.76, 
			 "cosmo_dispersion_energy": -18.07, 
			 "cosmo_repulsion_energy": 1.41, 
			 "cosmo_total_nonelectrostatic_energy": 7.1, 
			 "SMD_solvation_energy": 4.5 
		},
		"coords": [
			{
				"x": -1.2983646196,
				"y": -0.1983207367,
				"z": -1.9491070074,
				"element": "O" 
			},
			{
				"x": -0.4922452491,
				"y": -0.1665230939,
				"z": -1.0449558316,
				"element": "C" 
			},
			{
				"x": 0.8995947198,
				"y": -0.385154899,
				"z": -1.1682295585,
				"element": "N" 
			},
			{
				"x": 1.5877772761,
				"y": -0.206443184,
				"z": 0.0097880034,
				"element": "C" 
			},
			{
				"x": 2.7812214692,
				"y": -0.3160987406,
				"z": 0.1982482509,
				"element": "O" 
			},
			{
				"x": 0.5267513142,
				"y": 0.1692699011,
				"z": 1.0647492106,
				"element": "C" 
			},
			{
				"x": 0.5637212476,
				"y": -0.7739931509,
				"z": 2.2823225774,
				"element": "C" 
			},
			{
				"x": -0.3390625929,
				"y": -0.1695124811,
				"z": 3.3663471947,
				"element": "C" 
			},
			{
				"x": -0.2511306045,
				"y": 1.6761306026,
				"z": 3.1714270229,
				"element": "S" 
			},
			{
				"x": 0.7763048274,
				"y": 1.5754881464,
				"z": 1.642597299,
				"element": "C" 
			},
			{
				"x": -0.7064872314,
				"y": 0.0711897754,
				"z": 0.2922318317,
				"element": "N" 
			},
			{
				"x": 1.3296960315,
				"y": -0.627158945,
				"z": -2.0495290211,
				"element": "H" 
			},
			{
				"x": 1.6010151509,
				"y": -0.8277726217,
				"z": 2.6265446299,
				"element": "H" 
			},
			{
				"x": 0.2401744051,
				"y": -1.7820721544,
				"z": 2.0068734024,
				"element": "H" 
			},
			{
				"x": -0.0115120772,
				"y": -0.4457469679,
				"z": 4.3703942757,
				"element": "H" 
			},
			{
				"x": -1.3794446345,
				"y": -0.4814416337,
				"z": 3.244743484,
				"element": "H" 
			},
			{
				"x": 0.4753386974,
				"y": 2.3630616565,
				"z": 0.9486692249,
				"element": "H" 
			},
			{
				"x": 1.8365823671,
				"y": 1.6890965597,
				"z": 1.8808116609,
				"element": "H" 
			},
			{
				"x": -1.5748304969,
				"y": 0.4912019671,
				"z": 0.5905733504,
				"element": "H" 
			}
		],
		 "valence_orbital": [ 
			{
				"type": "occ",
				"energy": -0.2992,
				"method": "rhf"
			},
			{
				"type": "occ",
				"energy": -0.29657,
				"method": "rhf"
			},
			{
				"type": "occ",
				"energy": -0.27882,
				"method": "rhf"
			},
			{
				"type": "occ",
				"energy": -0.26949,
				"method": "rhf"
			},
			{
				"type": "occ",
				"energy": -0.2361,
				"method": "rhf"
			},
			{
				"type": "unocc",
				"energy": -0.02422,
				"method": "rhf"
			},
			{
				"type": "unocc",
				"energy": 0.01903,
				"method": "rhf"
			},
			{
				"type": "unocc",
				"energy": 0.04692,
				"method": "rhf"
			},
			{
				"type": "unocc",
				"energy": 0.05254,
				"method": "rhf"
			},
			{
				"type": "unocc",
				"energy": 0.07134,
				"method": "rhf"
			}
		],
		"cosmo_sigma_profile": { 
			"-0.025": 0.0,
			"-0.024": 0.0,
			"-0.023": 0.0,
			"-0.022": 0.0,
			"-0.021": 0.0,
			"-0.02": 0.0,
			"-0.019": 0.0,
			"-0.018": 0.0,
			"-0.017": 0.575384000051,
			"-0.016": 1.31920197505,
			"-0.015": 1.35247292492,
			"-0.014": 1.81977862687,
			"-0.013": 1.23201070938,
			"-0.012": 1.70982471681,
			"-0.011": 1.7858267262,
			"-0.01": 1.3566679861,
			"-0.009": 1.95046808878,
			"-0.008": 2.99219970791,
			"-0.007": 6.21607837007,
			"-0.006": 11.4427864567,
			"-0.005": 17.4950684486,
			"-0.004": 15.3731459045,
			"-0.003": 17.0937694608,
			"-0.002": 16.9107886081,
			"-0.001": 8.15987794183,
			"0.0": 5.7466259544,
			"0.001": 4.96981247664,
			"0.002": 6.03398976519,
			"0.003": 7.25606085221,
			"0.004": 5.11459160443,
			"0.005": 6.1152630561,
			"0.006": 5.13887366498,
			"0.007": 4.31519161173,
			"0.008": 4.84590856969,
			"0.009": 4.09024974679,
			"0.01": 4.9806159211,
			"0.011": 6.68199595679,
			"0.012": 9.58463245465,
			"0.013": 5.41203639878,
			"0.014": 0.355035043882,
			"0.015": 0.0,
			"0.016": 0.0,
			"0.017": 0.0,
			"0.018": 0.0,
			"0.019": 0.0,
			"0.02": 0.0,
			"0.021": 0.0,
			"0.022": 0.0,
			"0.023": 0.0,
			"0.024": 0.0,
			"0.025": 0.0
		}
	}
}
