{
	 "smiles": "COC(=O)C1CCN(CC1)C1=NC2=C(O1)C=CC=C2", 
	 "Tm": 380.15, 
	 "num_atms": 35, 
	 "gaussian": { 
		 "optdone": 1, 
		 "sigma_profile": "yes", 
		 "theory": "DFT", 
		 "functional": "B3LYP", 
		 "basiset": "6-31G**", 
		 "properties": { 
			 "R2extent": 7957.2699, 
			 "electric_dipole_moment_norm": 3.40261054633, 
			 "electric_quadrupole_moment_norm": 16.742473928, 
			 "total_energy": -878.321612565, 
			 "HOMO_LUMO_gap": 0.19471, 
			 "cosmo_polarized_energy": -12.96, 
			 "cosmo_cavitation_energy": 37.74, 
			 "cosmo_dispersion_energy": -27.68, 
			 "cosmo_repulsion_energy": 2.12, 
			 "cosmo_total_nonelectrostatic_energy": 12.18, 
			 "SMD_solvation_energy": 5.31 
		},
		"coords": [
			{
				"x": 3.2439275238,
				"y": 3.7817626916,
				"z": -4.6242722796,
				"element": "C" 
			},
			{
				"x": 2.0303548595,
				"y": 3.1968960247,
				"z": -4.1206864685,
				"element": "O" 
			},
			{
				"x": 2.1323044403,
				"y": 1.9159274801,
				"z": -3.7024609423,
				"element": "C" 
			},
			{
				"x": 3.1643371409,
				"y": 1.2804146586,
				"z": -3.7481543027,
				"element": "O" 
			},
			{
				"x": 0.7984107581,
				"y": 1.4190149678,
				"z": -3.1611549832,
				"element": "C" 
			},
			{
				"x": 0.828696658,
				"y": -0.0979012055,
				"z": -2.8568312176,
				"element": "C" 
			},
			{
				"x": 1.00004362,
				"y": -0.3938674427,
				"z": -1.364937896,
				"element": "C" 
			},
			{
				"x": -0.0849785293,
				"y": 0.2323799434,
				"z": -0.6013323571,
				"element": "N" 
			},
			{
				"x": -0.6333172931,
				"y": 1.5146454628,
				"z": -1.0568035654,
				"element": "C" 
			},
			{
				"x": 0.4035348741,
				"y": 2.2476295048,
				"z": -1.9065416917,
				"element": "C" 
			},
			{
				"x": -0.6112490062,
				"y": -0.3281937712,
				"z": 0.5087155162,
				"element": "C" 
			},
			{
				"x": -1.5998547167,
				"y": 0.130142644,
				"z": 1.2310250828,
				"element": "N" 
			},
			{
				"x": -1.7294235317,
				"y": -0.8153634523,
				"z": 2.2482975794,
				"element": "C" 
			},
			{
				"x": -0.776570362,
				"y": -1.8295013825,
				"z": 2.0669608801,
				"element": "C" 
			},
			{
				"x": -0.0458480845,
				"y": -1.510642568,
				"z": 0.9333594105,
				"element": "O" 
			},
			{
				"x": -0.6329198762,
				"y": -2.9249434025,
				"z": 2.89616886,
				"element": "C" 
			},
			{
				"x": -1.5193651713,
				"y": -2.9887010902,
				"z": 3.9809585349,
				"element": "C" 
			},
			{
				"x": -2.4833979363,
				"y": -1.9914585994,
				"z": 4.1897637059,
				"element": "C" 
			},
			{
				"x": -2.6058164267,
				"y": -0.8929936264,
				"z": 3.3321497446,
				"element": "C" 
			},
			{
				"x": 4.0175802218,
				"y": 3.7879264887,
				"z": -3.8525005078,
				"element": "H" 
			},
			{
				"x": 3.6116459596,
				"y": 3.2205732015,
				"z": -5.4867849403,
				"element": "H" 
			},
			{
				"x": 2.9824884211,
				"y": 4.799666555,
				"z": -4.9127594347,
				"element": "H" 
			},
			{
				"x": 0.0531118443,
				"y": 1.6179590908,
				"z": -3.9403586232,
				"element": "H" 
			},
			{
				"x": 1.6493017544,
				"y": -0.5663299173,
				"z": -3.4057208052,
				"element": "H" 
			},
			{
				"x": -0.1058888687,
				"y": -0.555362435,
				"z": -3.1976740018,
				"element": "H" 
			},
			{
				"x": 0.9734923299,
				"y": -1.4698239652,
				"z": -1.1862888766,
				"element": "H" 
			},
			{
				"x": 1.9790045146,
				"y": -0.0322991589,
				"z": -1.0194764545,
				"element": "H" 
			},
			{
				"x": -0.9053056583,
				"y": 2.1021970383,
				"z": -0.1762681302,
				"element": "H" 
			},
			{
				"x": -1.5590357645,
				"y": 1.3545626156,
				"z": -1.6295746843,
				"element": "H" 
			},
			{
				"x": 0.0139599541,
				"y": 3.2227812681,
				"z": -2.2086379072,
				"element": "H" 
			},
			{
				"x": 1.2897020658,
				"y": 2.4383616328,
				"z": -1.2894726539,
				"element": "H" 
			},
			{
				"x": 0.1188929031,
				"y": -3.6863172367,
				"z": 2.7188416221,
				"element": "H" 
			},
			{
				"x": -1.4555688328,
				"y": -3.8257360046,
				"z": 4.669318896,
				"element": "H" 
			},
			{
				"x": -3.1529324775,
				"y": -2.0754598325,
				"z": 5.0409809583,
				"element": "H" 
			},
			{
				"x": -3.3532173079,
				"y": -0.1238461781,
				"z": 3.496151933,
				"element": "H" 
			}
		],
		 "valence_orbital": [ 
			{
				"type": "occ",
				"energy": -0.28053,
				"method": "rhf"
			},
			{
				"type": "occ",
				"energy": -0.27312,
				"method": "rhf"
			},
			{
				"type": "occ",
				"energy": -0.26607,
				"method": "rhf"
			},
			{
				"type": "occ",
				"energy": -0.23159,
				"method": "rhf"
			},
			{
				"type": "occ",
				"energy": -0.1924,
				"method": "rhf"
			},
			{
				"type": "unocc",
				"energy": 0.00231,
				"method": "rhf"
			},
			{
				"type": "unocc",
				"energy": 0.00342,
				"method": "rhf"
			},
			{
				"type": "unocc",
				"energy": 0.02246,
				"method": "rhf"
			},
			{
				"type": "unocc",
				"energy": 0.06679,
				"method": "rhf"
			},
			{
				"type": "unocc",
				"energy": 0.07442,
				"method": "rhf"
			}
		],
		"cosmo_sigma_profile": { 
			"-0.025": 0.0,
			"-0.024": 0.0,
			"-0.023": 0.0,
			"-0.022": 0.0,
			"-0.021": 0.0,
			"-0.02": 0.0,
			"-0.019": 0.0,
			"-0.018": 0.0,
			"-0.017": 0.0,
			"-0.016": 0.0,
			"-0.015": 0.0,
			"-0.014": 0.0,
			"-0.013": 0.0,
			"-0.012": 0.0,
			"-0.011": 0.0,
			"-0.01": 0.0,
			"-0.009": 0.0,
			"-0.008": 0.0221215588264,
			"-0.007": 1.92493021296,
			"-0.006": 11.3864748605,
			"-0.005": 29.3121011905,
			"-0.004": 39.294681403,
			"-0.003": 37.629565352,
			"-0.002": 26.2427536325,
			"-0.001": 22.4815336579,
			"0.0": 16.1157981463,
			"0.001": 15.6306438033,
			"0.002": 13.9478109381,
			"0.003": 13.5357652076,
			"0.004": 15.835171137,
			"0.005": 15.5625145793,
			"0.006": 12.1455355861,
			"0.007": 4.97563823276,
			"0.008": 3.99963970992,
			"0.009": 2.71214739664,
			"0.01": 3.47471171218,
			"0.011": 3.64438253175,
			"0.012": 5.26063815178,
			"0.013": 0.677079860371,
			"0.014": 1.23319012118,
			"0.015": 0.885775997301,
			"0.016": 0.514197527493,
			"0.017": 0.0654595457843,
			"0.018": 0.0,
			"0.019": 0.0,
			"0.02": 0.0,
			"0.021": 0.0,
			"0.022": 0.0,
			"0.023": 0.0,
			"0.024": 0.0,
			"0.025": 0.0
		}
	}
}
