{
	 "smiles": "NC1=CC=C(C=C1)S(=O)(=O)NC1=CC=C(C=C1)[N+]([O-])=O", 
	 "Tm": 436.15, 
	 "num_atms": 31, 
	 "gaussian": { 
		 "optdone": 1, 
		 "sigma_profile": "yes", 
		 "theory": "DFT", 
		 "functional": "B3LYP", 
		 "basiset": "6-31G**", 
		 "properties": { 
			 "R2extent": 7217.451, 
			 "electric_dipole_moment_norm": 7.34745537312, 
			 "electric_quadrupole_moment_norm": 37.0935906519, 
			 "total_energy": -1327.0816505, 
			 "HOMO_LUMO_gap": 0.14725, 
			 "cosmo_polarized_energy": -25.09, 
			 "cosmo_cavitation_energy": 37.96, 
			 "cosmo_dispersion_energy": -27.17, 
			 "cosmo_repulsion_energy": 2.05, 
			 "cosmo_total_nonelectrostatic_energy": 12.84, 
			 "SMD_solvation_energy": 7.9 
		},
		"coords": [
			{
				"x": -2.1114245146,
				"y": 2.8994609265,
				"z": 3.2792405393,
				"element": "N" 
			},
			{
				"x": -1.9496102203,
				"y": 1.7878547414,
				"z": 2.4801295923,
				"element": "C" 
			},
			{
				"x": -2.9924180918,
				"y": 1.3539800748,
				"z": 1.6335416686,
				"element": "C" 
			},
			{
				"x": -2.8473887567,
				"y": 0.2107664116,
				"z": 0.8628240219,
				"element": "C" 
			},
			{
				"x": -1.6563797233,
				"y": -0.5236317153,
				"z": 0.9232414951,
				"element": "C" 
			},
			{
				"x": -0.615776568,
				"y": -0.1150915269,
				"z": 1.7656163084,
				"element": "C" 
			},
			{
				"x": -0.7613836288,
				"y": 1.0302111459,
				"z": 2.5349263821,
				"element": "C" 
			},
			{
				"x": -1.4666620464,
				"y": -1.9671424661,
				"z": -0.0943073261,
				"element": "S" 
			},
			{
				"x": -0.404891309,
				"y": -2.79368169,
				"z": 0.4778642882,
				"element": "O" 
			},
			{
				"x": -2.791612739,
				"y": -2.4941520654,
				"z": -0.4189406517,
				"element": "O" 
			},
			{
				"x": -0.9075813546,
				"y": -1.4191585087,
				"z": -1.6192275701,
				"element": "N" 
			},
			{
				"x": 0.2866619738,
				"y": -0.7270423796,
				"z": -1.8677593736,
				"element": "C" 
			},
			{
				"x": 1.4820711227,
				"y": -1.0383524754,
				"z": -1.1920521877,
				"element": "C" 
			},
			{
				"x": 2.6459689577,
				"y": -0.341939012,
				"z": -1.4896028169,
				"element": "C" 
			},
			{
				"x": 2.626558132,
				"y": 0.6484020436,
				"z": -2.4718470402,
				"element": "C" 
			},
			{
				"x": 1.4579157895,
				"y": 0.9566693926,
				"z": -3.1680043356,
				"element": "C" 
			},
			{
				"x": 0.2907155939,
				"y": 0.2745754816,
				"z": -2.8575035484,
				"element": "C" 
			},
			{
				"x": 3.8562137094,
				"y": 1.3773367021,
				"z": -2.7821086605,
				"element": "N" 
			},
			{
				"x": 4.8694558971,
				"y": 1.092441759,
				"z": -2.1413876318,
				"element": "O" 
			},
			{
				"x": 3.8062005524,
				"y": 2.2365605286,
				"z": -3.6646191405,
				"element": "O" 
			},
			{
				"x": -1.2819949405,
				"y": 3.3259272407,
				"z": 3.6633195679,
				"element": "H" 
			},
			{
				"x": -2.8395574462,
				"y": 3.552663395,
				"z": 3.0335576105,
				"element": "H" 
			},
			{
				"x": -3.9217001038,
				"y": 1.9159477761,
				"z": 1.5977898212,
				"element": "H" 
			},
			{
				"x": -3.6602799425,
				"y": -0.1297581188,
				"z": 0.2301427089,
				"element": "H" 
			},
			{
				"x": 0.2913823925,
				"y": -0.7048885166,
				"z": 1.8279910066,
				"element": "H" 
			},
			{
				"x": 0.0422856484,
				"y": 1.3416928732,
				"z": 3.1964023975,
				"element": "H" 
			},
			{
				"x": -1.6982672879,
				"y": -1.1666252559,
				"z": -2.2017968497,
				"element": "H" 
			},
			{
				"x": 1.4905986824,
				"y": -1.8354816975,
				"z": -0.4596310645,
				"element": "H" 
			},
			{
				"x": 3.5765871843,
				"y": -0.5653579828,
				"z": -0.982898162,
				"element": "H" 
			},
			{
				"x": 1.4778211437,
				"y": 1.7290616616,
				"z": -3.9265310057,
				"element": "H" 
			},
			{
				"x": -0.6298081065,
				"y": 0.5165512568,
				"z": -3.3815700436,
				"element": "H" 
			}
		],
		 "valence_orbital": [ 
			{
				"type": "occ",
				"energy": -0.28529,
				"method": "rhf"
			},
			{
				"type": "occ",
				"energy": -0.2819,
				"method": "rhf"
			},
			{
				"type": "occ",
				"energy": -0.27873,
				"method": "rhf"
			},
			{
				"type": "occ",
				"energy": -0.25221,
				"method": "rhf"
			},
			{
				"type": "occ",
				"energy": -0.23177,
				"method": "rhf"
			},
			{
				"type": "unocc",
				"energy": -0.08452,
				"method": "rhf"
			},
			{
				"type": "unocc",
				"energy": -0.03685,
				"method": "rhf"
			},
			{
				"type": "unocc",
				"energy": -0.03238,
				"method": "rhf"
			},
			{
				"type": "unocc",
				"energy": -0.02473,
				"method": "rhf"
			},
			{
				"type": "unocc",
				"energy": 0.00298,
				"method": "rhf"
			}
		],
		"cosmo_sigma_profile": { 
			"-0.025": 0.0,
			"-0.024": 0.0,
			"-0.023": 0.0,
			"-0.022": 0.0,
			"-0.021": 0.0,
			"-0.02": 0.0,
			"-0.019": 0.0,
			"-0.018": 0.0,
			"-0.017": 0.05346409163,
			"-0.016": 1.28227714333,
			"-0.015": 1.33249228588,
			"-0.014": 1.92858565931,
			"-0.013": 4.40027631184,
			"-0.012": 4.53419817008,
			"-0.011": 3.21296763404,
			"-0.01": 5.0836197668,
			"-0.009": 4.45226313643,
			"-0.008": 7.59886738257,
			"-0.007": 11.6933570718,
			"-0.006": 15.3296077381,
			"-0.005": 14.7030971875,
			"-0.004": 13.3997682958,
			"-0.003": 14.3173482591,
			"-0.002": 14.0821624587,
			"-0.001": 16.7489948268,
			"0.0": 18.4894351527,
			"0.001": 26.3009089244,
			"0.002": 21.9261848208,
			"0.003": 18.1115333398,
			"0.004": 15.4902548943,
			"0.005": 8.80120964004,
			"0.006": 7.75189393814,
			"0.007": 8.88043723661,
			"0.008": 14.1166912694,
			"0.009": 9.38015886255,
			"0.01": 11.9504955788,
			"0.011": 8.42107966097,
			"0.012": 0.375001565772,
			"0.013": 0.0,
			"0.014": 0.0,
			"0.015": 0.0,
			"0.016": 0.0,
			"0.017": 0.0,
			"0.018": 0.0,
			"0.019": 0.0,
			"0.02": 0.0,
			"0.021": 0.0,
			"0.022": 0.0,
			"0.023": 0.0,
			"0.024": 0.0,
			"0.025": 0.0
		}
	}
}
