{
	 "smiles": "CC1=C(C=CC=C1)C1CNC(=O)C1", 
	 "Tm": 389.15, 
	 "num_atms": 26, 
	 "gaussian": { 
		 "optdone": 1, 
		 "sigma_profile": "yes", 
		 "theory": "DFT", 
		 "functional": "B3LYP", 
		 "basiset": "6-31G**", 
		 "properties": { 
			 "R2extent": 2923.2792, 
			 "electric_dipole_moment_norm": 3.80918729652, 
			 "electric_quadrupole_moment_norm": 21.9004996242, 
			 "total_energy": -557.003769952, 
			 "HOMO_LUMO_gap": 0.23007, 
			 "cosmo_polarized_energy": -12.89, 
			 "cosmo_cavitation_energy": 28.11, 
			 "cosmo_dispersion_energy": -20.42, 
			 "cosmo_repulsion_energy": 1.63, 
			 "cosmo_total_nonelectrostatic_energy": 9.32, 
			 "SMD_solvation_energy": 4.88 
		},
		"coords": [
			{
				"x": -0.6765702723,
				"y": -1.5080052548,
				"z": 2.3550147401,
				"element": "C" 
			},
			{
				"x": 0.1539240998,
				"y": -1.0828422331,
				"z": 1.1628442249,
				"element": "C" 
			},
			{
				"x": -0.0487488187,
				"y": 0.1545298884,
				"z": 0.5110099894,
				"element": "C" 
			},
			{
				"x": 0.7705896483,
				"y": 0.4901424514,
				"z": -0.5761739331,
				"element": "C" 
			},
			{
				"x": 1.7669730081,
				"y": -0.3727379042,
				"z": -1.0318977,
				"element": "C" 
			},
			{
				"x": 1.9598205028,
				"y": -1.5980430776,
				"z": -0.3973052011,
				"element": "C" 
			},
			{
				"x": 1.1567020119,
				"y": -1.9396425175,
				"z": 0.6899717335,
				"element": "C" 
			},
			{
				"x": -1.1108396416,
				"y": 1.1268124931,
				"z": 1.0098656329,
				"element": "C" 
			},
			{
				"x": -1.8022335006,
				"y": 1.9493276366,
				"z": -0.1187177732,
				"element": "C" 
			},
			{
				"x": -1.086112531,
				"y": 3.2147430467,
				"z": -0.1037097941,
				"element": "N" 
			},
			{
				"x": -0.4023878228,
				"y": 3.4798486307,
				"z": 1.0576275385,
				"element": "C" 
			},
			{
				"x": 0.1643139066,
				"y": 4.5225989887,
				"z": 1.3311061303,
				"element": "O" 
			},
			{
				"x": -0.5174954067,
				"y": 2.2283995791,
				"z": 1.9327463184,
				"element": "C" 
			},
			{
				"x": -0.3358534188,
				"y": -2.4740798215,
				"z": 2.7363849823,
				"element": "H" 
			},
			{
				"x": -1.7387151542,
				"y": -1.6136954921,
				"z": 2.1018638421,
				"element": "H" 
			},
			{
				"x": -0.6141598851,
				"y": -0.7886203401,
				"z": 3.179573308,
				"element": "H" 
			},
			{
				"x": 0.6343432938,
				"y": 1.4486880556,
				"z": -1.0683933239,
				"element": "H" 
			},
			{
				"x": 2.3874923074,
				"y": -0.0851480394,
				"z": -1.8757847214,
				"element": "H" 
			},
			{
				"x": 2.7298616634,
				"y": -2.2826006526,
				"z": -0.7412826164,
				"element": "H" 
			},
			{
				"x": 1.3079100239,
				"y": -2.893995903,
				"z": 1.1885368884,
				"element": "H" 
			},
			{
				"x": -1.8767619794,
				"y": 0.5622279999,
				"z": 1.5437746449,
				"element": "H" 
			},
			{
				"x": -1.7229509271,
				"y": 1.4539693877,
				"z": -1.0911536348,
				"element": "H" 
			},
			{
				"x": -2.8704360532,
				"y": 2.088992263,
				"z": 0.1020504568,
				"element": "H" 
			},
			{
				"x": -1.2673430921,
				"y": 3.9636224369,
				"z": -0.7568952897,
				"element": "H" 
			},
			{
				"x": -1.1870653853,
				"y": 2.4693863678,
				"z": 2.767014248,
				"element": "H" 
			},
			{
				"x": 0.4555434229,
				"y": 1.9700220103,
				"z": 2.3550293093,
				"element": "H" 
			}
		],
		 "valence_orbital": [ 
			{
				"type": "occ",
				"energy": -0.32137,
				"method": "rhf"
			},
			{
				"type": "occ",
				"energy": -0.25662,
				"method": "rhf"
			},
			{
				"type": "occ",
				"energy": -0.24339,
				"method": "rhf"
			},
			{
				"type": "occ",
				"energy": -0.24187,
				"method": "rhf"
			},
			{
				"type": "occ",
				"energy": -0.23377,
				"method": "rhf"
			},
			{
				"type": "unocc",
				"energy": -0.0037,
				"method": "rhf"
			},
			{
				"type": "unocc",
				"energy": 0.00054,
				"method": "rhf"
			},
			{
				"type": "unocc",
				"energy": 0.03509,
				"method": "rhf"
			},
			{
				"type": "unocc",
				"energy": 0.07683,
				"method": "rhf"
			},
			{
				"type": "unocc",
				"energy": 0.0987,
				"method": "rhf"
			}
		],
		"cosmo_sigma_profile": { 
			"-0.025": 0.0,
			"-0.024": 0.0,
			"-0.023": 0.0,
			"-0.022": 0.0,
			"-0.021": 0.0,
			"-0.02": 0.0,
			"-0.019": 0.0,
			"-0.018": 0.0,
			"-0.017": 0.0,
			"-0.016": 0.0,
			"-0.015": 0.0330723398582,
			"-0.014": 0.801530029536,
			"-0.013": 1.68736984901,
			"-0.012": 0.763748717403,
			"-0.011": 0.427218046759,
			"-0.01": 1.24487891905,
			"-0.009": 1.02261585784,
			"-0.008": 1.20760148993,
			"-0.007": 0.824147261742,
			"-0.006": 3.22901249893,
			"-0.005": 16.2929729572,
			"-0.004": 30.077520884,
			"-0.003": 28.9852476791,
			"-0.002": 23.7443704578,
			"-0.001": 16.7870867149,
			"0.0": 16.5309789379,
			"0.001": 12.4097051865,
			"0.002": 8.25697891696,
			"0.003": 7.79656774345,
			"0.004": 8.60890790909,
			"0.005": 8.17735486905,
			"0.006": 8.24275803604,
			"0.007": 4.80705356409,
			"0.008": 1.37000295273,
			"0.009": 1.75836558895,
			"0.01": 1.14190199755,
			"0.011": 1.16718302599,
			"0.012": 1.47140378207,
			"0.013": 4.04071272188,
			"0.014": 5.78716097924,
			"0.015": 2.8004694732,
			"0.016": 0.0569991312821,
			"0.017": 0.0,
			"0.018": 0.0,
			"0.019": 0.0,
			"0.02": 0.0,
			"0.021": 0.0,
			"0.022": 0.0,
			"0.023": 0.0,
			"0.024": 0.0,
			"0.025": 0.0
		}
	}
}
