{
	 "smiles": "ClC1=C2N=NN(C2=NC=N1)C1=CC=CC=C1", 
	 "Tm": 389.15, 
	 "num_atms": 22, 
	 "gaussian": { 
		 "optdone": 1, 
		 "sigma_profile": "yes", 
		 "theory": "DFT", 
		 "functional": "B3LYP", 
		 "basiset": "6-31G**", 
		 "properties": { 
			 "R2extent": 5087.2068, 
			 "electric_dipole_moment_norm": 3.68534226633, 
			 "electric_quadrupole_moment_norm": 7.30330096942, 
			 "total_energy": -1118.58428427, 
			 "HOMO_LUMO_gap": 0.16236, 
			 "cosmo_polarized_energy": -8.62, 
			 "cosmo_cavitation_energy": 29.09, 
			 "cosmo_dispersion_energy": -22.11, 
			 "cosmo_repulsion_energy": 1.68, 
			 "cosmo_total_nonelectrostatic_energy": 8.66, 
			 "SMD_solvation_energy": 0.82 
		},
		"coords": [
			{
				"x": 0.1915123798,
				"y": -4.7500410679,
				"z": 0.4799027155,
				"element": "Cl" 
			},
			{
				"x": 0.4291412677,
				"y": -3.0291086489,
				"z": 0.430236955,
				"element": "C" 
			},
			{
				"x": -0.1776852371,
				"y": -2.248921768,
				"z": -0.5633247881,
				"element": "C" 
			},
			{
				"x": -1.0023633116,
				"y": -2.5050525941,
				"z": -1.6287453579,
				"element": "N" 
			},
			{
				"x": -1.2530715008,
				"y": -1.3825325525,
				"z": -2.2119801352,
				"element": "N" 
			},
			{
				"x": -0.6095157629,
				"y": -0.3507916438,
				"z": -1.5614168795,
				"element": "N" 
			},
			{
				"x": 0.0869616724,
				"y": -0.8680271147,
				"z": -0.5028296934,
				"element": "C" 
			},
			{
				"x": 0.8577864177,
				"y": -0.2681620097,
				"z": 0.4145983606,
				"element": "N" 
			},
			{
				"x": 1.3674906336,
				"y": -1.1272905815,
				"z": 1.2931345352,
				"element": "C" 
			},
			{
				"x": 1.1922852232,
				"y": -2.4681373375,
				"z": 1.3455187971,
				"element": "N" 
			},
			{
				"x": -0.7465400636,
				"y": 0.9895754372,
				"z": -2.038159607,
				"element": "C" 
			},
			{
				"x": -1.53848912,
				"y": 1.2285643845,
				"z": -3.1679800219,
				"element": "C" 
			},
			{
				"x": -1.6751874631,
				"y": 2.5328774622,
				"z": -3.6364151271,
				"element": "C" 
			},
			{
				"x": -1.0328695813,
				"y": 3.5921342105,
				"z": -2.9913440046,
				"element": "C" 
			},
			{
				"x": -0.2474210902,
				"y": 3.3380722102,
				"z": -1.8671153231,
				"element": "C" 
			},
			{
				"x": -0.096383945,
				"y": 2.0393069209,
				"z": -1.3803503069,
				"element": "C" 
			},
			{
				"x": 2.0042922767,
				"y": -0.7089874901,
				"z": 2.0677985141,
				"element": "H" 
			},
			{
				"x": -2.0328537068,
				"y": 0.4022034064,
				"z": -3.6621056986,
				"element": "H" 
			},
			{
				"x": -2.2891038637,
				"y": 2.7188391937,
				"z": -4.5124398036,
				"element": "H" 
			},
			{
				"x": -1.1444455831,
				"y": 4.6061710062,
				"z": -3.3627728085,
				"element": "H" 
			},
			{
				"x": 0.2564860574,
				"y": 4.1538942669,
				"z": -1.3577302456,
				"element": "H" 
			},
			{
				"x": 0.5126743009,
				"y": 1.83971431,
				"z": -0.5080800767,
				"element": "H" 
			}
		],
		 "valence_orbital": [ 
			{
				"type": "occ",
				"energy": -0.29846,
				"method": "rhf"
			},
			{
				"type": "occ",
				"energy": -0.28912,
				"method": "rhf"
			},
			{
				"type": "occ",
				"energy": -0.28298,
				"method": "rhf"
			},
			{
				"type": "occ",
				"energy": -0.2685,
				"method": "rhf"
			},
			{
				"type": "occ",
				"energy": -0.25052,
				"method": "rhf"
			},
			{
				"type": "unocc",
				"energy": -0.08816,
				"method": "rhf"
			},
			{
				"type": "unocc",
				"energy": -0.05053,
				"method": "rhf"
			},
			{
				"type": "unocc",
				"energy": -0.02334,
				"method": "rhf"
			},
			{
				"type": "unocc",
				"energy": -0.01311,
				"method": "rhf"
			},
			{
				"type": "unocc",
				"energy": 0.02027,
				"method": "rhf"
			}
		],
		"cosmo_sigma_profile": { 
			"-0.025": 0.0,
			"-0.024": 0.0,
			"-0.023": 0.0,
			"-0.022": 0.0,
			"-0.021": 0.0,
			"-0.02": 0.0,
			"-0.019": 0.0,
			"-0.018": 0.0,
			"-0.017": 0.0,
			"-0.016": 0.0,
			"-0.015": 0.0,
			"-0.014": 0.0,
			"-0.013": 0.0,
			"-0.012": 0.0,
			"-0.011": 0.0,
			"-0.01": 0.263122730144,
			"-0.009": 2.22820763105,
			"-0.008": 1.14965054308,
			"-0.007": 5.61422078074,
			"-0.006": 14.6371956975,
			"-0.005": 19.1689167827,
			"-0.004": 18.8994733552,
			"-0.003": 17.2137353287,
			"-0.002": 16.77452775,
			"-0.001": 16.6585987924,
			"0.0": 17.3336546902,
			"0.001": 18.7424298797,
			"0.002": 21.1853712868,
			"0.003": 20.0749236093,
			"0.004": 17.8706872283,
			"0.005": 6.78523009739,
			"0.006": 5.46556143405,
			"0.007": 4.33748474199,
			"0.008": 5.34612322756,
			"0.009": 2.68806272029,
			"0.01": 2.36059120182,
			"0.011": 1.81089827174,
			"0.012": 1.69153990421,
			"0.013": 0.854770950163,
			"0.014": 0.0,
			"0.015": 0.0,
			"0.016": 0.0,
			"0.017": 0.0,
			"0.018": 0.0,
			"0.019": 0.0,
			"0.02": 0.0,
			"0.021": 0.0,
			"0.022": 0.0,
			"0.023": 0.0,
			"0.024": 0.0,
			"0.025": 0.0
		}
	}
}
