{
	 "smiles": "CC1=CC(Br)=C2NC(=O)C(=O)C2=C1", 
	 "Tm": 452.15, 
	 "num_atms": 19, 
	 "gaussian": { 
		 "optdone": 1, 
		 "sigma_profile": "yes", 
		 "theory": "DFT", 
		 "functional": "B3LYP", 
		 "basiset": "6-31G**", 
		 "properties": { 
			 "R2extent": 5028.2049, 
			 "electric_dipole_moment_norm": 5.32666551325, 
			 "electric_quadrupole_moment_norm": 9.47704921956, 
			 "total_energy": -3123.18384598, 
			 "HOMO_LUMO_gap": 0.13628, 
			 "cosmo_polarized_energy": -13.02, 
			 "cosmo_cavitation_energy": 26.61, 
			 "cosmo_dispersion_energy": -19.81, 
			 "cosmo_repulsion_energy": 1.56, 
			 "cosmo_total_nonelectrostatic_energy": 8.37, 
			 "SMD_solvation_energy": 4.8 
		},
		"coords": [
			{
				"x": 2.3686882302,
				"y": -2.9242299522,
				"z": -1.3657527487,
				"element": "C" 
			},
			{
				"x": 1.9143724129,
				"y": -1.4920672076,
				"z": -1.204954864,
				"element": "C" 
			},
			{
				"x": 2.8481157074,
				"y": -0.4467632859,
				"z": -1.1432407237,
				"element": "C" 
			},
			{
				"x": 2.4587854166,
				"y": 0.891367121,
				"z": -1.0096244247,
				"element": "C" 
			},
			{
				"x": 3.7590677621,
				"y": 2.2836053993,
				"z": -0.9278698429,
				"element": "Br" 
			},
			{
				"x": 1.1086353412,
				"y": 1.1952088546,
				"z": -0.9344479268,
				"element": "C" 
			},
			{
				"x": 0.481023357,
				"y": 2.4351480854,
				"z": -0.79873118,
				"element": "N" 
			},
			{
				"x": -0.9011098151,
				"y": 2.3139494,
				"z": -0.7575372405,
				"element": "C" 
			},
			{
				"x": -1.7116449243,
				"y": 3.2037971388,
				"z": -0.6465280083,
				"element": "O" 
			},
			{
				"x": -1.1740279621,
				"y": 0.7716456986,
				"z": -0.8864512023,
				"element": "C" 
			},
			{
				"x": -2.2732192365,
				"y": 0.2648252241,
				"z": -0.8902255529,
				"element": "O" 
			},
			{
				"x": 0.1616541761,
				"y": 0.1534053636,
				"z": -0.9933721832,
				"element": "C" 
			},
			{
				"x": 0.5492131852,
				"y": -1.1734324443,
				"z": -1.1258118443,
				"element": "C" 
			},
			{
				"x": 3.4499424671,
				"y": -3.0177688745,
				"z": -1.2357530251,
				"element": "H" 
			},
			{
				"x": 2.1194785748,
				"y": -3.3101337633,
				"z": -2.3611628025,
				"element": "H" 
			},
			{
				"x": 1.8840891182,
				"y": -3.5789251819,
				"z": -0.6340673804,
				"element": "H" 
			},
			{
				"x": 3.9078578693,
				"y": -0.673686481,
				"z": -1.1995315543,
				"element": "H" 
			},
			{
				"x": 0.9735923356,
				"y": 3.3149327711,
				"z": -0.7364584806,
				"element": "H" 
			},
			{
				"x": -0.2101140157,
				"y": -1.9494778659,
				"z": -1.165679015,
				"element": "H" 
			}
		],
		 "valence_orbital": [ 
			{
				"type": "occ",
				"energy": -0.31677,
				"method": "rhf"
			},
			{
				"type": "occ",
				"energy": -0.31219,
				"method": "rhf"
			},
			{
				"type": "occ",
				"energy": -0.27224,
				"method": "rhf"
			},
			{
				"type": "occ",
				"energy": -0.25243,
				"method": "rhf"
			},
			{
				"type": "occ",
				"energy": -0.23985,
				"method": "rhf"
			},
			{
				"type": "unocc",
				"energy": -0.10357,
				"method": "rhf"
			},
			{
				"type": "unocc",
				"energy": -0.03268,
				"method": "rhf"
			},
			{
				"type": "unocc",
				"energy": -0.01347,
				"method": "rhf"
			},
			{
				"type": "unocc",
				"energy": -0.00014,
				"method": "rhf"
			},
			{
				"type": "unocc",
				"energy": 0.07967,
				"method": "rhf"
			}
		],
		"cosmo_sigma_profile": { 
			"-0.025": 0.0,
			"-0.024": 0.0,
			"-0.023": 0.0,
			"-0.022": 0.0,
			"-0.021": 0.0,
			"-0.02": 0.0,
			"-0.019": 0.0,
			"-0.018": 0.0,
			"-0.017": 0.0311208078137,
			"-0.016": 0.425577829213,
			"-0.015": 1.09691601348,
			"-0.014": 0.400895307361,
			"-0.013": 0.5676469295,
			"-0.012": 1.38232062741,
			"-0.011": 0.840971758207,
			"-0.01": 0.698081929675,
			"-0.009": 1.22514617248,
			"-0.008": 3.60084026175,
			"-0.007": 7.23830908058,
			"-0.006": 7.6489577067,
			"-0.005": 12.5983140069,
			"-0.004": 15.2902703935,
			"-0.003": 16.3419700192,
			"-0.002": 17.7714529175,
			"-0.001": 23.1520964516,
			"0.0": 20.8777113168,
			"0.001": 19.4576335931,
			"0.002": 13.2142556208,
			"0.003": 8.83101497318,
			"0.004": 8.36924457934,
			"0.005": 2.21702733509,
			"0.006": 2.46979202466,
			"0.007": 3.39361247324,
			"0.008": 3.77796152388,
			"0.009": 5.1305191842,
			"0.01": 9.20112426348,
			"0.011": 7.6797928321,
			"0.012": 2.15108113965,
			"0.013": 0.058570524644,
			"0.014": 0.0,
			"0.015": 0.0,
			"0.016": 0.0,
			"0.017": 0.0,
			"0.018": 0.0,
			"0.019": 0.0,
			"0.02": 0.0,
			"0.021": 0.0,
			"0.022": 0.0,
			"0.023": 0.0,
			"0.024": 0.0,
			"0.025": 0.0
		}
	}
}
