{
	 "smiles": "C1CN(CCO1)C1=NC(=NC(NC2=CC=CC=C2)=N1)N1CCOCC1", 
	 "Tm": 446.15, 
	 "num_atms": 47, 
	 "gaussian": { 
		 "optdone": 1, 
		 "sigma_profile": "yes", 
		 "theory": "DFT", 
		 "functional": "B3LYP", 
		 "basiset": "6-31G**", 
		 "properties": { 
			 "R2extent": 12275.3411, 
			 "electric_dipole_moment_norm": 0.57859632733, 
			 "electric_quadrupole_moment_norm": 8.43676825449, 
			 "total_energy": -1140.04848157, 
			 "HOMO_LUMO_gap": 0.19454, 
			 "cosmo_polarized_energy": -14.32, 
			 "cosmo_cavitation_energy": 47.75, 
			 "cosmo_dispersion_energy": -34.8, 
			 "cosmo_repulsion_energy": 2.65, 
			 "cosmo_total_nonelectrostatic_energy": 15.6, 
			 "SMD_solvation_energy": 4.54 
		},
		"coords": [
			{
				"x": 5.3355684109,
				"y": 1.1635188858,
				"z": 2.3743174681,
				"element": "C" 
			},
			{
				"x": 4.4153117322,
				"y": 0.2961711722,
				"z": 1.5151639376,
				"element": "C" 
			},
			{
				"x": 3.0302463468,
				"y": 0.4951224588,
				"z": 1.9326469127,
				"element": "N" 
			},
			{
				"x": 2.8033894962,
				"y": 0.329053219,
				"z": 3.3646870088,
				"element": "C" 
			},
			{
				"x": 3.7967390054,
				"y": 1.1941823075,
				"z": 4.1414968328,
				"element": "C" 
			},
			{
				"x": 5.1383285086,
				"y": 0.9175767745,
				"z": 3.7610854908,
				"element": "O" 
			},
			{
				"x": 2.0065809323,
				"y": 0.6134952345,
				"z": 1.0342823365,
				"element": "C" 
			},
			{
				"x": 0.7544857456,
				"y": 0.685632402,
				"z": 1.5253214484,
				"element": "N" 
			},
			{
				"x": -0.2064523718,
				"y": 0.8253123122,
				"z": 0.5978250523,
				"element": "C" 
			},
			{
				"x": -0.0066336075,
				"y": 0.8649882105,
				"z": -0.7383800416,
				"element": "N" 
			},
			{
				"x": 1.2776338272,
				"y": 0.7832097616,
				"z": -1.0967056893,
				"element": "C" 
			},
			{
				"x": 1.6297792417,
				"y": 0.8262700041,
				"z": -2.4227146608,
				"element": "N" 
			},
			{
				"x": 0.8749963256,
				"y": 0.9287802944,
				"z": -3.6020866639,
				"element": "C" 
			},
			{
				"x": -0.5142787756,
				"y": 0.7363180072,
				"z": -3.6695557933,
				"element": "C" 
			},
			{
				"x": -1.1658597027,
				"y": 0.8382825554,
				"z": -4.8988713593,
				"element": "C" 
			},
			{
				"x": -0.4643775068,
				"y": 1.121650658,
				"z": -6.0711638895,
				"element": "C" 
			},
			{
				"x": 0.918597903,
				"y": 1.3038082129,
				"z": -6.0042018515,
				"element": "C" 
			},
			{
				"x": 1.5822931158,
				"y": 1.2105928839,
				"z": -4.7849157035,
				"element": "C" 
			},
			{
				"x": 2.3317043862,
				"y": 0.6600842662,
				"z": -0.2695394887,
				"element": "N" 
			},
			{
				"x": -1.494859123,
				"y": 0.9489977968,
				"z": 1.0370175927,
				"element": "N" 
			},
			{
				"x": -1.8608780164,
				"y": 0.7629325746,
				"z": 2.438628918,
				"element": "C" 
			},
			{
				"x": -2.8929754248,
				"y": 1.8145530359,
				"z": 2.8449436349,
				"element": "C" 
			},
			{
				"x": -4.0194602343,
				"y": 1.7994672871,
				"z": 1.9782325323,
				"element": "O" 
			},
			{
				"x": -3.6290403713,
				"y": 2.0680889504,
				"z": 0.6380190154,
				"element": "C" 
			},
			{
				"x": -2.6300993996,
				"y": 1.0313579798,
				"z": 0.121832332,
				"element": "C" 
			},
			{
				"x": 5.1556130482,
				"y": 2.2275699992,
				"z": 2.1481536279,
				"element": "H" 
			},
			{
				"x": 6.3839675933,
				"y": 0.9335881456,
				"z": 2.162536068,
				"element": "H" 
			},
			{
				"x": 4.6920078264,
				"y": -0.76160186,
				"z": 1.6432672154,
				"element": "H" 
			},
			{
				"x": 4.5028772228,
				"y": 0.5510722589,
				"z": 0.4596487449,
				"element": "H" 
			},
			{
				"x": 1.7757789999,
				"y": 0.6093780778,
				"z": 3.5923169759,
				"element": "H" 
			},
			{
				"x": 2.9471945444,
				"y": -0.726207538,
				"z": 3.6433064881,
				"element": "H" 
			},
			{
				"x": 3.7267522703,
				"y": 0.9862062392,
				"z": 5.213330042,
				"element": "H" 
			},
			{
				"x": 3.5662798634,
				"y": 2.2593559103,
				"z": 3.9735905068,
				"element": "H" 
			},
			{
				"x": 2.6334462829,
				"y": 0.8084527734,
				"z": -2.5386752322,
				"element": "H" 
			},
			{
				"x": -1.0588064861,
				"y": 0.5070411053,
				"z": -2.7656067579,
				"element": "H" 
			},
			{
				"x": -2.2413246788,
				"y": 0.6864534354,
				"z": -4.9353054705,
				"element": "H" 
			},
			{
				"x": -0.9844491843,
				"y": 1.1971132665,
				"z": -7.0211135821,
				"element": "H" 
			},
			{
				"x": 1.4865997314,
				"y": 1.5227744924,
				"z": -6.9039863488,
				"element": "H" 
			},
			{
				"x": 2.6587462791,
				"y": 1.3607852641,
				"z": -4.7405751783,
				"element": "H" 
			},
			{
				"x": -0.9613367705,
				"y": 0.8384831544,
				"z": 3.0479490911,
				"element": "H" 
			},
			{
				"x": -2.2932338025,
				"y": -0.2399261308,
				"z": 2.5772680149,
				"element": "H" 
			},
			{
				"x": -2.4240579173,
				"y": 2.8125200854,
				"z": 2.8410690975,
				"element": "H" 
			},
			{
				"x": -3.2692705057,
				"y": 1.6091273918,
				"z": 3.8514601042,
				"element": "H" 
			},
			{
				"x": -4.5419255251,
				"y": 2.0476005801,
				"z": 0.0356224082,
				"element": "H" 
			},
			{
				"x": -3.1834615224,
				"y": 3.0740784209,
				"z": 0.5672307751,
				"element": "H" 
			},
			{
				"x": -2.2660141796,
				"y": 1.3069423943,
				"z": -0.8669754239,
				"element": "H" 
			},
			{
				"x": -3.1256235334,
				"y": 0.0508452882,
				"z": 0.0524234619,
				"element": "H" 
			}
		],
		 "valence_orbital": [ 
			{
				"type": "occ",
				"energy": -0.25248,
				"method": "rhf"
			},
			{
				"type": "occ",
				"energy": -0.24565,
				"method": "rhf"
			},
			{
				"type": "occ",
				"energy": -0.22113,
				"method": "rhf"
			},
			{
				"type": "occ",
				"energy": -0.21968,
				"method": "rhf"
			},
			{
				"type": "occ",
				"energy": -0.20544,
				"method": "rhf"
			},
			{
				"type": "unocc",
				"energy": -0.0109,
				"method": "rhf"
			},
			{
				"type": "unocc",
				"energy": 0.00252,
				"method": "rhf"
			},
			{
				"type": "unocc",
				"energy": 0.01049,
				"method": "rhf"
			},
			{
				"type": "unocc",
				"energy": 0.03741,
				"method": "rhf"
			},
			{
				"type": "unocc",
				"energy": 0.08694,
				"method": "rhf"
			}
		],
		"cosmo_sigma_profile": { 
			"-0.025": 0.0,
			"-0.024": 0.0,
			"-0.023": 0.0,
			"-0.022": 0.0,
			"-0.021": 0.0,
			"-0.02": 0.0,
			"-0.019": 0.0,
			"-0.018": 0.0,
			"-0.017": 0.0,
			"-0.016": 0.0,
			"-0.015": 0.0,
			"-0.014": 0.282327465621,
			"-0.013": 0.701440761449,
			"-0.012": 1.33304948704,
			"-0.011": 1.47430133981,
			"-0.01": 0.471355226595,
			"-0.009": 0.991497025564,
			"-0.008": 1.09838453202,
			"-0.007": 1.69779762726,
			"-0.006": 7.19854472661,
			"-0.005": 23.3129364494,
			"-0.004": 54.5910147824,
			"-0.003": 50.7330362823,
			"-0.002": 34.2906591699,
			"-0.001": 23.4292716435,
			"0.0": 21.3090062912,
			"0.001": 22.7782546454,
			"0.002": 24.6158578353,
			"0.003": 21.4382330666,
			"0.004": 18.0701139996,
			"0.005": 17.7677363271,
			"0.006": 18.0170384355,
			"0.007": 9.17177787375,
			"0.008": 4.85887413221,
			"0.009": 5.23233622576,
			"0.01": 2.53729364446,
			"0.011": 2.55515684975,
			"0.012": 3.30562461069,
			"0.013": 3.44396340249,
			"0.014": 0.557130342713,
			"0.015": 0.0,
			"0.016": 0.0,
			"0.017": 0.0,
			"0.018": 0.0,
			"0.019": 0.0,
			"0.02": 0.0,
			"0.021": 0.0,
			"0.022": 0.0,
			"0.023": 0.0,
			"0.024": 0.0,
			"0.025": 0.0
		}
	}
}
