{
	 "smiles": "ClC1=CC=CC(=C1)C(Cl)(Cl)Cl", 
	 "Tm": 273.75, 
	 "num_atms": 15, 
	 "gaussian": { 
		 "optdone": 1, 
		 "sigma_profile": "yes", 
		 "theory": "DFT", 
		 "functional": "B3LYP", 
		 "basiset": "6-31G**", 
		 "properties": { 
			 "R2extent": 4817.762, 
			 "electric_dipole_moment_norm": 2.12188267819, 
			 "electric_quadrupole_moment_norm": 8.43799006221, 
			 "total_energy": -2109.90666847, 
			 "HOMO_LUMO_gap": 0.20336, 
			 "cosmo_polarized_energy": -4.25, 
			 "cosmo_cavitation_energy": 26.1, 
			 "cosmo_dispersion_energy": -19.48, 
			 "cosmo_repulsion_energy": 1.57, 
			 "cosmo_total_nonelectrostatic_energy": 8.19, 
			 "SMD_solvation_energy": 3.18 
		},
		"coords": [
			{
				"x": -1.5678372236,
				"y": -1.5270009716,
				"z": -0.3343393329,
				"element": "Cl" 
			},
			{
				"x": 0.1254611942,
				"y": -1.0873784,
				"z": -0.1915141842,
				"element": "C" 
			},
			{
				"x": 0.9684842558,
				"y": -1.854424281,
				"z": 0.6060117548,
				"element": "C" 
			},
			{
				"x": 2.3123990895,
				"y": -1.4863166599,
				"z": 0.7049345803,
				"element": "C" 
			},
			{
				"x": 2.7976849048,
				"y": -0.3771427224,
				"z": 0.0216042449,
				"element": "C" 
			},
			{
				"x": 1.9362703938,
				"y": 0.3889817747,
				"z": -0.7794869994,
				"element": "C" 
			},
			{
				"x": 0.591018116,
				"y": 0.0302936739,
				"z": -0.8865608749,
				"element": "C" 
			},
			{
				"x": 2.5145646966,
				"y": 1.5928024172,
				"z": -1.5118779006,
				"element": "C" 
			},
			{
				"x": 1.2994174386,
				"y": 2.4977419103,
				"z": -2.482941278,
				"element": "Cl" 
			},
			{
				"x": 3.2396202928,
				"y": 2.7520112886,
				"z": -0.3172923467,
				"element": "Cl" 
			},
			{
				"x": 3.8309183483,
				"y": 1.0512603205,
				"z": -2.6396166447,
				"element": "Cl" 
			},
			{
				"x": 0.5832111655,
				"y": -2.7179571234,
				"z": 1.1362514157,
				"element": "H" 
			},
			{
				"x": 2.9846643924,
				"y": -2.0733904028,
				"z": 1.3226451807,
				"element": "H" 
			},
			{
				"x": 3.8431005875,
				"y": -0.1034892352,
				"z": 0.1077965388,
				"element": "H" 
			},
			{
				"x": -0.0939776522,
				"y": 0.602308411,
				"z": -1.4970141541,
				"element": "H" 
			}
		],
		 "valence_orbital": [ 
			{
				"type": "occ",
				"energy": -0.32359,
				"method": "rhf"
			},
			{
				"type": "occ",
				"energy": -0.32205,
				"method": "rhf"
			},
			{
				"type": "occ",
				"energy": -0.31079,
				"method": "rhf"
			},
			{
				"type": "occ",
				"energy": -0.28135,
				"method": "rhf"
			},
			{
				"type": "occ",
				"energy": -0.26145,
				"method": "rhf"
			},
			{
				"type": "unocc",
				"energy": -0.05809,
				"method": "rhf"
			},
			{
				"type": "unocc",
				"energy": -0.0484,
				"method": "rhf"
			},
			{
				"type": "unocc",
				"energy": -0.03041,
				"method": "rhf"
			},
			{
				"type": "unocc",
				"energy": -0.00982,
				"method": "rhf"
			},
			{
				"type": "unocc",
				"energy": 0.01956,
				"method": "rhf"
			}
		],
		"cosmo_sigma_profile": { 
			"-0.025": 0.0,
			"-0.024": 0.0,
			"-0.023": 0.0,
			"-0.022": 0.0,
			"-0.021": 0.0,
			"-0.02": 0.0,
			"-0.019": 0.0,
			"-0.018": 0.0,
			"-0.017": 0.0,
			"-0.016": 0.0,
			"-0.015": 0.0,
			"-0.014": 0.0,
			"-0.013": 0.0,
			"-0.012": 0.0,
			"-0.011": 0.0,
			"-0.01": 0.0,
			"-0.009": 0.0757814216985,
			"-0.008": 2.43315567347,
			"-0.007": 6.89253452828,
			"-0.006": 8.19692313501,
			"-0.005": 6.80307902727,
			"-0.004": 10.1709614941,
			"-0.003": 13.3428737858,
			"-0.002": 15.6535817498,
			"-0.001": 16.3267092897,
			"0.0": 21.2087211271,
			"0.001": 29.7072107157,
			"0.002": 34.6833758998,
			"0.003": 36.0641537124,
			"0.004": 14.7895173605,
			"0.005": 2.3180087604,
			"0.006": 0.0,
			"0.007": 0.0,
			"0.008": 0.0,
			"0.009": 0.0,
			"0.01": 0.0,
			"0.011": 0.0,
			"0.012": 0.0,
			"0.013": 0.0,
			"0.014": 0.0,
			"0.015": 0.0,
			"0.016": 0.0,
			"0.017": 0.0,
			"0.018": 0.0,
			"0.019": 0.0,
			"0.02": 0.0,
			"0.021": 0.0,
			"0.022": 0.0,
			"0.023": 0.0,
			"0.024": 0.0,
			"0.025": 0.0
		}
	}
}
