{
	 "smiles": "OC(=O)C1=CC2=C(O1)C(Br)=CC(Br)=C2", 
	 "Tm": 553.15, 
	 "num_atms": 18, 
	 "gaussian": { 
		 "optdone": 1, 
		 "sigma_profile": "yes", 
		 "theory": "DFT", 
		 "functional": "B3LYP", 
		 "basiset": "6-31G**", 
		 "properties": { 
			 "R2extent": 7163.2462, 
			 "electric_dipole_moment_norm": 4.46891242474, 
			 "electric_quadrupole_moment_norm": 21.0098258498, 
			 "total_energy": -5713.83265057, 
			 "HOMO_LUMO_gap": 0.17096, 
			 "cosmo_polarized_energy": -17.24, 
			 "cosmo_cavitation_energy": 28.73, 
			 "cosmo_dispersion_energy": -21.86, 
			 "cosmo_repulsion_energy": 1.73, 
			 "cosmo_total_nonelectrostatic_energy": 8.6, 
			 "SMD_solvation_energy": 4.2 
		},
		"coords": [
			{
				"x": -3.7136004124,
				"y": 2.0403442456,
				"z": 1.1614036882,
				"element": "O" 
			},
			{
				"x": -2.3724329724,
				"y": 2.2179785214,
				"z": 1.2901007055,
				"element": "C" 
			},
			{
				"x": -1.9088347368,
				"y": 2.8759625214,
				"z": 2.1855840198,
				"element": "O" 
			},
			{
				"x": -1.5517611414,
				"y": 1.5685715272,
				"z": 0.2383244458,
				"element": "C" 
			},
			{
				"x": -1.8563746621,
				"y": 1.0709863738,
				"z": -0.9973659576,
				"element": "C" 
			},
			{
				"x": -0.6171335486,
				"y": 0.622239427,
				"z": -1.5699199265,
				"element": "C" 
			},
			{
				"x": 0.3559965129,
				"y": 0.9031827146,
				"z": -0.5899766881,
				"element": "C" 
			},
			{
				"x": -0.2084179779,
				"y": 1.4797520351,
				"z": 0.5012679588,
				"element": "O" 
			},
			{
				"x": 1.7045593146,
				"y": 0.6044572228,
				"z": -0.7724213497,
				"element": "C" 
			},
			{
				"x": 2.9817448275,
				"y": 0.9922927759,
				"z": 0.5690594747,
				"element": "Br" 
			},
			{
				"x": 2.0756449592,
				"y": 0.0133317278,
				"z": -1.9748652337,
				"element": "C" 
			},
			{
				"x": 1.1050492991,
				"y": -0.2646577746,
				"z": -2.9564765555,
				"element": "C" 
			},
			{
				"x": 1.6819813463,
				"y": -1.0773813106,
				"z": -4.5854711375,
				"element": "Br" 
			},
			{
				"x": -0.2401269173,
				"y": 0.0265099094,
				"z": -2.7842005926,
				"element": "C" 
			},
			{
				"x": -3.9084861679,
				"y": 1.3590927048,
				"z": 0.5024876464,
				"element": "H" 
			},
			{
				"x": -2.8284404661,
				"y": 1.0505372228,
				"z": -1.4710414785,
				"element": "H" 
			},
			{
				"x": 3.1140303205,
				"y": -0.2325153317,
				"z": -2.1561480966,
				"element": "H" 
			},
			{
				"x": -0.9642975773,
				"y": -0.1997845128,
				"z": -3.5573409228,
				"element": "H" 
			}
		],
		 "valence_orbital": [ 
			{
				"type": "occ",
				"energy": -0.30101,
				"method": "rhf"
			},
			{
				"type": "occ",
				"energy": -0.29686,
				"method": "rhf"
			},
			{
				"type": "occ",
				"energy": -0.29158,
				"method": "rhf"
			},
			{
				"type": "occ",
				"energy": -0.25957,
				"method": "rhf"
			},
			{
				"type": "occ",
				"energy": -0.25203,
				"method": "rhf"
			},
			{
				"type": "unocc",
				"energy": -0.08107,
				"method": "rhf"
			},
			{
				"type": "unocc",
				"energy": -0.02827,
				"method": "rhf"
			},
			{
				"type": "unocc",
				"energy": -0.02639,
				"method": "rhf"
			},
			{
				"type": "unocc",
				"energy": -0.01204,
				"method": "rhf"
			},
			{
				"type": "unocc",
				"energy": 0.01033,
				"method": "rhf"
			}
		],
		"cosmo_sigma_profile": { 
			"-0.025": 0.0,
			"-0.024": 0.0,
			"-0.023": 0.0,
			"-0.022": 0.0,
			"-0.021": 0.0,
			"-0.02": 0.0229293444912,
			"-0.019": 1.1099765383,
			"-0.018": 1.14818986631,
			"-0.017": 1.63003937443,
			"-0.016": 0.346430505748,
			"-0.015": 1.56509781361,
			"-0.014": 1.33081953045,
			"-0.013": 1.03863828299,
			"-0.012": 1.05305333262,
			"-0.011": 1.87394556293,
			"-0.01": 1.98188866461,
			"-0.009": 3.16383303063,
			"-0.008": 6.17031556523,
			"-0.007": 5.19861970588,
			"-0.006": 6.39921409222,
			"-0.005": 7.50599937542,
			"-0.004": 10.0476587823,
			"-0.003": 12.4095440231,
			"-0.002": 16.2248009107,
			"-0.001": 20.1876835739,
			"0.0": 24.1620308265,
			"0.001": 25.5249641045,
			"0.002": 13.9737778617,
			"0.003": 20.0387974124,
			"0.004": 18.1246190817,
			"0.005": 6.08730600591,
			"0.006": 3.15556992827,
			"0.007": 3.31548166395,
			"0.008": 3.81929954921,
			"0.009": 5.86877394906,
			"0.01": 5.0554848676,
			"0.011": 6.56265207878,
			"0.012": 2.77225968251,
			"0.013": 0.14758800903,
			"0.014": 0.0,
			"0.015": 0.0,
			"0.016": 0.0,
			"0.017": 0.0,
			"0.018": 0.0,
			"0.019": 0.0,
			"0.02": 0.0,
			"0.021": 0.0,
			"0.022": 0.0,
			"0.023": 0.0,
			"0.024": 0.0,
			"0.0": 0.0
		}
	}
}
