{
	 "smiles": "CC(C)CSC1=C(C=C(C=C1)[N+]([O-])=O)C(O)=O", 
	 "Tm": 463.15, 
	 "num_atms": 30, 
	 "gaussian": { 
		 "optdone": 1, 
		 "sigma_profile": "yes", 
		 "theory": "DFT", 
		 "functional": "B3LYP", 
		 "basiset": "6-31G**", 
		 "properties": { 
			 "R2extent": 7169.1446, 
			 "electric_dipole_moment_norm": 7.0032703175, 
			 "electric_quadrupole_moment_norm": 19.0634592165, 
			 "total_energy": -1180.75831349, 
			 "HOMO_LUMO_gap": 0.16495, 
			 "cosmo_polarized_energy": -15.25, 
			 "cosmo_cavitation_energy": 35.72, 
			 "cosmo_dispersion_energy": -25.39, 
			 "cosmo_repulsion_energy": 1.94, 
			 "cosmo_total_nonelectrostatic_energy": 12.27, 
			 "SMD_solvation_energy": 9.19 
		},
		"coords": [
			{
				"x": 1.2840108662,
				"y": -1.1097701034,
				"z": 3.1392360562,
				"element": "C" 
			},
			{
				"x": -0.0774717511,
				"y": -0.614304704,
				"z": 2.6305809772,
				"element": "C" 
			},
			{
				"x": -1.1577184537,
				"y": -1.6955680136,
				"z": 2.8015182064,
				"element": "C" 
			},
			{
				"x": -0.0375019004,
				"y": -0.1839338776,
				"z": 1.155486973,
				"element": "C" 
			},
			{
				"x": 1.0802844044,
				"y": 1.2812464912,
				"z": 0.9093386438,
				"element": "S" 
			},
			{
				"x": 0.864038719,
				"y": 1.5866240777,
				"z": -0.8551417035,
				"element": "C" 
			},
			{
				"x": -0.2722402264,
				"y": 2.2155935262,
				"z": -1.4169556291,
				"element": "C" 
			},
			{
				"x": -0.3144642282,
				"y": 2.4064517892,
				"z": -2.8046253665,
				"element": "C" 
			},
			{
				"x": 0.7526410413,
				"y": 2.0076067687,
				"z": -3.5956455543,
				"element": "C" 
			},
			{
				"x": 1.8849220011,
				"y": 1.4020824798,
				"z": -3.0582216362,
				"element": "C" 
			},
			{
				"x": 1.9257456023,
				"y": 1.1920354433,
				"z": -1.6846309879,
				"element": "C" 
			},
			{
				"x": 0.6872405789,
				"y": 2.230413354,
				"z": -5.0534438459,
				"element": "N" 
			},
			{
				"x": 1.650582564,
				"y": 1.8596794405,
				"z": -5.7227252018,
				"element": "O" 
			},
			{
				"x": -0.3206848107,
				"y": 2.7690520513,
				"z": -5.5021045759,
				"element": "O" 
			},
			{
				"x": -1.5092630027,
				"y": 2.7226407497,
				"z": -0.6882943275,
				"element": "C" 
			},
			{
				"x": -1.4667775209,
				"y": 2.8468264904,
				"z": 0.6462724236,
				"element": "O" 
			},
			{
				"x": -2.5071964949,
				"y": 3.0216597094,
				"z": -1.3046422604,
				"element": "O" 
			},
			{
				"x": 1.6211997978,
				"y": -1.9798855216,
				"z": 2.5632554554,
				"element": "H" 
			},
			{
				"x": 2.0580054821,
				"y": -0.3399506058,
				"z": 3.0657019961,
				"element": "H" 
			},
			{
				"x": 1.2138798345,
				"y": -1.4121041194,
				"z": 4.1887845927,
				"element": "H" 
			},
			{
				"x": -0.3770412195,
				"y": 0.258651704,
				"z": 3.226935148,
				"element": "H" 
			},
			{
				"x": -1.2326918119,
				"y": -1.999138629,
				"z": 3.8504386821,
				"element": "H" 
			},
			{
				"x": -2.142055072,
				"y": -1.336615332,
				"z": 2.4843101699,
				"element": "H" 
			},
			{
				"x": -0.9170671759,
				"y": -2.5889657899,
				"z": 2.2134188815,
				"element": "H" 
			},
			{
				"x": 0.333767328,
				"y": -0.9946927443,
				"z": 0.5210662443,
				"element": "H" 
			},
			{
				"x": -1.0353399102,
				"y": 0.1040982526,
				"z": 0.815489688,
				"element": "H" 
			},
			{
				"x": -1.187329092,
				"y": 2.8702586727,
				"z": -3.245807904,
				"element": "H" 
			},
			{
				"x": 2.6982710023,
				"y": 1.104615375,
				"z": -3.7080969565,
				"element": "H" 
			},
			{
				"x": 2.7900313763,
				"y": 0.7141751254,
				"z": -1.2364983105,
				"element": "H" 
			},
			{
				"x": -0.5854779278,
				"y": 2.5848179394,
				"z": 0.9978001218,
				"element": "H" 
			}
		],
		 "valence_orbital": [ 
			{
				"type": "occ",
				"energy": -0.30246,
				"method": "rhf"
			},
			{
				"type": "occ",
				"energy": -0.29742,
				"method": "rhf"
			},
			{
				"type": "occ",
				"energy": -0.29504,
				"method": "rhf"
			},
			{
				"type": "occ",
				"energy": -0.28301,
				"method": "rhf"
			},
			{
				"type": "occ",
				"energy": -0.27098,
				"method": "rhf"
			},
			{
				"type": "unocc",
				"energy": -0.10603,
				"method": "rhf"
			},
			{
				"type": "unocc",
				"energy": -0.07006,
				"method": "rhf"
			},
			{
				"type": "unocc",
				"energy": -0.03189,
				"method": "rhf"
			},
			{
				"type": "unocc",
				"energy": 0.00661,
				"method": "rhf"
			},
			{
				"type": "unocc",
				"energy": 0.03109,
				"method": "rhf"
			}
		],
		"cosmo_sigma_profile": { 
			"-0.025": 0.0,
			"-0.024": 0.0,
			"-0.023": 0.0,
			"-0.022": 0.0,
			"-0.021": 0.0,
			"-0.02": 0.0,
			"-0.019": 0.0,
			"-0.018": 0.0,
			"-0.017": 0.0,
			"-0.016": 0.0,
			"-0.015": 0.0,
			"-0.014": 0.0,
			"-0.013": 0.0,
			"-0.012": 0.0002204316318,
			"-0.011": 0.148589655365,
			"-0.01": 0.392921984802,
			"-0.009": 1.43543123932,
			"-0.008": 5.65623867283,
			"-0.007": 7.84846188896,
			"-0.006": 9.33977416781,
			"-0.005": 13.1889239029,
			"-0.004": 22.0767024348,
			"-0.003": 35.9245819716,
			"-0.002": 36.9944941301,
			"-0.001": 29.8873692549,
			"0.0": 24.1962594426,
			"0.001": 18.9928594169,
			"0.002": 9.73553615114,
			"0.003": 7.45029295825,
			"0.004": 5.07324573909,
			"0.005": 6.57172203911,
			"0.006": 7.87962884712,
			"0.007": 11.8080666111,
			"0.008": 8.34609206669,
			"0.009": 6.4969158382,
			"0.01": 6.17446617172,
			"0.011": 5.41308000628,
			"0.012": 2.97277526503,
			"0.013": 0.892958653814,
			"0.014": 0.0,
			"0.015": 0.0,
			"0.016": 0.0,
			"0.017": 0.0,
			"0.018": 0.0,
			"0.019": 0.0,
			"0.02": 0.0,
			"0.021": 0.0,
			"0.022": 0.0,
			"0.023": 0.0,
			"0.024": 0.0,
			"0.025": 0.0
		}
	}
}
