{
	 "smiles": "N#CC1=CC2=C(C=CC=C2)C2=C1C=CC=C2", 
	 "Tm": 384.15, 
	 "num_atms": 25, 
	 "gaussian": { 
		 "optdone": 1, 
		 "sigma_profile": "yes", 
		 "theory": "DFT", 
		 "functional": "B3LYP", 
		 "basiset": "6-31G**", 
		 "properties": { 
			 "R2extent": 3725.7993, 
			 "electric_dipole_moment_norm": 4.88009854511, 
			 "electric_quadrupole_moment_norm": 18.3900022877, 
			 "total_energy": -631.781857465, 
			 "HOMO_LUMO_gap": 0.16053, 
			 "cosmo_polarized_energy": -9.9, 
			 "cosmo_cavitation_energy": 29.5, 
			 "cosmo_dispersion_energy": -21.48, 
			 "cosmo_repulsion_energy": 1.6, 
			 "cosmo_total_nonelectrostatic_energy": 9.62, 
			 "SMD_solvation_energy": 5.69 
		},
		"coords": [
			{
				"x": -2.4481086226,
				"y": 3.8995398287,
				"z": 0.9453264276,
				"element": "N" 
			},
			{
				"x": -1.9232400496,
				"y": 2.9733968735,
				"z": 0.4746540838,
				"element": "C" 
			},
			{
				"x": -1.2717289131,
				"y": 1.8351415523,
				"z": -0.1033816242,
				"element": "C" 
			},
			{
				"x": -2.0292671982,
				"y": 0.8654171188,
				"z": -0.7056974071,
				"element": "C" 
			},
			{
				"x": -1.4280486127,
				"y": -0.2875704329,
				"z": -1.2961551474,
				"element": "C" 
			},
			{
				"x": -0.0099604591,
				"y": -0.4422234578,
				"z": -1.2635056411,
				"element": "C" 
			},
			{
				"x": 0.5386523501,
				"y": -1.6004128185,
				"z": -1.8612315714,
				"element": "C" 
			},
			{
				"x": -0.2672187698,
				"y": -2.5535474187,
				"z": -2.4582697967,
				"element": "C" 
			},
			{
				"x": -1.6658109717,
				"y": -2.3943047082,
				"z": -2.4867476594,
				"element": "C" 
			},
			{
				"x": -2.2333941328,
				"y": -1.2753437543,
				"z": -1.9124249533,
				"element": "C" 
			},
			{
				"x": 0.8025125321,
				"y": 0.5858940517,
				"z": -0.6241730852,
				"element": "C" 
			},
			{
				"x": 0.1723244348,
				"y": 1.7257731918,
				"z": -0.0433371159,
				"element": "C" 
			},
			{
				"x": 0.9564842493,
				"y": 2.7242148434,
				"z": 0.5772171375,
				"element": "C" 
			},
			{
				"x": 2.3320081997,
				"y": 2.6120399936,
				"z": 0.6299080801,
				"element": "C" 
			},
			{
				"x": 2.9633477654,
				"y": 1.4919800079,
				"z": 0.0601254529,
				"element": "C" 
			},
			{
				"x": 2.2131766066,
				"y": 0.5046964017,
				"z": -0.5513625793,
				"element": "C" 
			},
			{
				"x": -3.1095406835,
				"y": 0.9680747108,
				"z": -0.7390446984,
				"element": "H" 
			},
			{
				"x": 1.6111656302,
				"y": -1.7563372063,
				"z": -1.8581686654,
				"element": "H" 
			},
			{
				"x": 0.1853516742,
				"y": -3.4320951142,
				"z": -2.9086032757,
				"element": "H" 
			},
			{
				"x": -2.2909015832,
				"y": -3.1469954902,
				"z": -2.9572754729,
				"element": "H" 
			},
			{
				"x": -3.3110028527,
				"y": -1.1355793821,
				"z": -1.9248839213,
				"element": "H" 
			},
			{
				"x": 0.4597499493,
				"y": 3.5849112024,
				"z": 1.0140652579,
				"element": "H" 
			},
			{
				"x": 2.9227039217,
				"y": 3.3863832129,
				"z": 1.109708607,
				"element": "H" 
			},
			{
				"x": 4.0446783099,
				"y": 1.3999493286,
				"z": 0.0993914272,
				"element": "H" 
			},
			{
				"x": 2.7271672257,
				"y": -0.3469025348,
				"z": -0.9817338596,
				"element": "H" 
			}
		],
		 "valence_orbital": [ 
			{
				"type": "occ",
				"energy": -0.31389,
				"method": "rhf"
			},
			{
				"type": "occ",
				"energy": -0.29633,
				"method": "rhf"
			},
			{
				"type": "occ",
				"energy": -0.2754,
				"method": "rhf"
			},
			{
				"type": "occ",
				"energy": -0.23841,
				"method": "rhf"
			},
			{
				"type": "occ",
				"energy": -0.2298,
				"method": "rhf"
			},
			{
				"type": "unocc",
				"energy": -0.06927,
				"method": "rhf"
			},
			{
				"type": "unocc",
				"energy": -0.04715,
				"method": "rhf"
			},
			{
				"type": "unocc",
				"energy": -0.01297,
				"method": "rhf"
			},
			{
				"type": "unocc",
				"energy": 0.01556,
				"method": "rhf"
			},
			{
				"type": "unocc",
				"energy": 0.0366,
				"method": "rhf"
			}
		],
		"cosmo_sigma_profile": { 
			"-0.025": 0.0,
			"-0.024": 0.0,
			"-0.023": 0.0,
			"-0.022": 0.0,
			"-0.021": 0.0,
			"-0.02": 0.0,
			"-0.019": 0.0,
			"-0.018": 0.0,
			"-0.017": 0.0,
			"-0.016": 0.0,
			"-0.015": 0.0,
			"-0.014": 0.0,
			"-0.013": 0.0,
			"-0.012": 0.0,
			"-0.011": 0.0,
			"-0.01": 0.011050157499,
			"-0.009": 1.1120410783,
			"-0.008": 4.79995160362,
			"-0.007": 7.25974130827,
			"-0.006": 15.960792398,
			"-0.005": 18.1949910545,
			"-0.004": 17.1594237383,
			"-0.003": 11.6038078768,
			"-0.002": 16.006297512,
			"-0.001": 15.3178095734,
			"0.0": 18.6547921953,
			"0.001": 23.7144972107,
			"0.002": 21.6412786917,
			"0.003": 23.2645643779,
			"0.004": 19.7988951367,
			"0.005": 3.92353589074,
			"0.006": 2.2664833853,
			"0.007": 2.63830638834,
			"0.008": 3.02712683786,
			"0.009": 3.47780022386,
			"0.01": 2.74740537782,
			"0.011": 3.0084897376,
			"0.012": 2.33318711399,
			"0.013": 1.61202458191,
			"0.014": 0.0647016556177,
			"0.015": 0.0,
			"0.016": 0.0,
			"0.017": 0.0,
			"0.018": 0.0,
			"0.019": 0.0,
			"0.02": 0.0,
			"0.021": 0.0,
			"0.022": 0.0,
			"0.023": 0.0,
			"0.024": 0.0,
			"0.025": 0.0
		}
	}
}
