{
	 "smiles": "NC(CC1=CNC2=C1C=CC(F)=C2)C(O)=O", 
	 "Tm": 557.15, 
	 "num_atms": 27, 
	 "gaussian": { 
		 "optdone": 1, 
		 "sigma_profile": "yes", 
		 "theory": "DFT", 
		 "functional": "B3LYP", 
		 "basiset": "6-31G**", 
		 "properties": { 
			 "R2extent": 4066.1344, 
			 "electric_dipole_moment_norm": 3.18720689319, 
			 "electric_quadrupole_moment_norm": 14.500469169, 
			 "total_energy": -785.602161979, 
			 "HOMO_LUMO_gap": 0.18943, 
			 "cosmo_polarized_energy": -17.38, 
			 "cosmo_cavitation_energy": 31.62, 
			 "cosmo_dispersion_energy": -21.97, 
			 "cosmo_repulsion_energy": 1.7, 
			 "cosmo_total_nonelectrostatic_energy": 11.35, 
			 "SMD_solvation_energy": 5.42 
		},
		"coords": [
			{
				"x": -0.5237981463,
				"y": 2.4352060414,
				"z": 2.4310903549,
				"element": "N" 
			},
			{
				"x": -0.7851963571,
				"y": 1.3440638926,
				"z": 1.491268598,
				"element": "C" 
			},
			{
				"x": 0.1734638881,
				"y": 0.1676117274,
				"z": 1.8175354774,
				"element": "C" 
			},
			{
				"x": -0.0341194555,
				"y": -1.084845023,
				"z": 1.0145872482,
				"element": "C" 
			},
			{
				"x": -0.8183203011,
				"y": -2.1526634918,
				"z": 1.3710609056,
				"element": "C" 
			},
			{
				"x": -0.773013791,
				"y": -3.1267386536,
				"z": 0.3874068525,
				"element": "N" 
			},
			{
				"x": 0.0552871911,
				"y": -2.706235135,
				"z": -0.6284182732,
				"element": "C" 
			},
			{
				"x": 0.5410543131,
				"y": -1.4169536924,
				"z": -0.2704085464,
				"element": "C" 
			},
			{
				"x": 1.4259460291,
				"y": -0.7614052618,
				"z": -1.1460136011,
				"element": "C" 
			},
			{
				"x": 1.7996125735,
				"y": -1.383596982,
				"z": -2.330456587,
				"element": "C" 
			},
			{
				"x": 1.2919662821,
				"y": -2.6551029764,
				"z": -2.6396313285,
				"element": "C" 
			},
			{
				"x": 1.6767739161,
				"y": -3.2299736699,
				"z": -3.8032004279,
				"element": "F" 
			},
			{
				"x": 0.4199628265,
				"y": -3.347960358,
				"z": -1.8181684769,
				"element": "C" 
			},
			{
				"x": -0.5913384555,
				"y": 1.782643885,
				"z": 0.0409377882,
				"element": "C" 
			},
			{
				"x": -1.5769300281,
				"y": 1.3637675994,
				"z": -0.7788772487,
				"element": "O" 
			},
			{
				"x": 0.3536244327,
				"y": 2.441988471,
				"z": -0.3461374521,
				"element": "O" 
			},
			{
				"x": -1.2239152346,
				"y": 3.165080356,
				"z": 2.3166696269,
				"element": "H" 
			},
			{
				"x": 0.3669897014,
				"y": 2.8630308961,
				"z": 2.1808718282,
				"element": "H" 
			},
			{
				"x": -1.816730411,
				"y": 1.0033857343,
				"z": 1.6183353985,
				"element": "H" 
			},
			{
				"x": 0.0445933514,
				"y": -0.0343842706,
				"z": 2.885225106,
				"element": "H" 
			},
			{
				"x": 1.2009370535,
				"y": 0.5309431202,
				"z": 1.6889909691,
				"element": "H" 
			},
			{
				"x": -1.409167243,
				"y": -2.3037443135,
				"z": 2.2638924246,
				"element": "H" 
			},
			{
				"x": -1.2511523563,
				"y": -4.0117696697,
				"z": 0.4227953516,
				"element": "H" 
			},
			{
				"x": 1.8056006259,
				"y": 0.2278279831,
				"z": -0.9101225121,
				"element": "H" 
			},
			{
				"x": 2.4792847954,
				"y": -0.9098074209,
				"z": -3.030143805,
				"element": "H" 
			},
			{
				"x": 0.0564041525,
				"y": -4.329772142,
				"z": -2.1011398588,
				"element": "H" 
			},
			{
				"x": -1.3318193528,
				"y": 1.6497033542,
				"z": -1.6761498121,
				"element": "H" 
			}
		],
		 "valence_orbital": [ 
			{
				"type": "occ",
				"energy": -0.28196,
				"method": "rhf"
			},
			{
				"type": "occ",
				"energy": -0.27225,
				"method": "rhf"
			},
			{
				"type": "occ",
				"energy": -0.24685,
				"method": "rhf"
			},
			{
				"type": "occ",
				"energy": -0.22286,
				"method": "rhf"
			},
			{
				"type": "occ",
				"energy": -0.20057,
				"method": "rhf"
			},
			{
				"type": "unocc",
				"energy": -0.01114,
				"method": "rhf"
			},
			{
				"type": "unocc",
				"energy": 0.00336,
				"method": "rhf"
			},
			{
				"type": "unocc",
				"energy": 0.02741,
				"method": "rhf"
			},
			{
				"type": "unocc",
				"energy": 0.06059,
				"method": "rhf"
			},
			{
				"type": "unocc",
				"energy": 0.0759,
				"method": "rhf"
			}
		],
		"cosmo_sigma_profile": { 
			"-0.025": 0.0,
			"-0.024": 0.0,
			"-0.023": 0.0,
			"-0.022": 0.0,
			"-0.021": 0.0,
			"-0.02": 0.0,
			"-0.019": 0.0213258523289,
			"-0.018": 0.705358782068,
			"-0.017": 0.932596695052,
			"-0.016": 1.13800278612,
			"-0.015": 2.35358467214,
			"-0.014": 2.10827360625,
			"-0.013": 1.61534647782,
			"-0.012": 2.41199082074,
			"-0.011": 2.71447258407,
			"-0.01": 3.97501623303,
			"-0.009": 3.83669953578,
			"-0.008": 6.20836548273,
			"-0.007": 9.27037590446,
			"-0.006": 10.0168453596,
			"-0.005": 10.4466097823,
			"-0.004": 13.2984994522,
			"-0.003": 15.8522331949,
			"-0.002": 12.1150619337,
			"-0.001": 11.6091248954,
			"0.0": 12.7002296726,
			"0.001": 11.0675586675,
			"0.002": 17.663464535,
			"0.003": 15.3430079779,
			"0.004": 21.9518704977,
			"0.005": 26.1736684626,
			"0.006": 9.13323591463,
			"0.007": 3.67187283088,
			"0.008": 4.37180939119,
			"0.009": 3.93266363634,
			"0.01": 2.77208102381,
			"0.011": 2.86363597456,
			"0.012": 3.70742819622,
			"0.013": 1.13297883171,
			"0.014": 1.12280929308,
			"0.015": 0.203296128047,
			"0.016": 0.722814321951,
			"0.017": 0.435508727225,
			"0.018": 0.554313714447,
			"0.019": 0.0,
			"0.02": 0.0,
			"0.021": 0.0,
			"0.022": 0.0,
			"0.023": 0.0,
			"0.024": 0.0,
			"0.025": 0.0
		}
	}
}
