{
	 "smiles": "ClCC(=O)OC(=O)CCl", 
	 "Tm": 330.65, 
	 "num_atms": 13, 
	 "gaussian": { 
		 "optdone": 1, 
		 "sigma_profile": "yes", 
		 "theory": "DFT", 
		 "functional": "B3LYP", 
		 "basiset": "6-31G**", 
		 "properties": { 
			 "R2extent": 3222.4613, 
			 "electric_dipole_moment_norm": 2.31636793494, 
			 "electric_quadrupole_moment_norm": 15.3145928718, 
			 "total_energy": -1300.8894603, 
			 "HOMO_LUMO_gap": 0.22308, 
			 "cosmo_polarized_energy": -11.75, 
			 "cosmo_cavitation_energy": 22.51, 
			 "cosmo_dispersion_energy": -16.05, 
			 "cosmo_repulsion_energy": 1.39, 
			 "cosmo_total_nonelectrostatic_energy": 7.86, 
			 "SMD_solvation_energy": 5.49 
		},
		"coords": [
			{
				"x": -3.5974301465,
				"y": 0.6764638867,
				"z": -0.5532564139,
				"element": "Cl" 
			},
			{
				"x": -2.0259345189,
				"y": 0.5909463172,
				"z": 0.3280398934,
				"element": "C" 
			},
			{
				"x": -0.9013793132,
				"y": 1.2723684043,
				"z": -0.4288951179,
				"element": "C" 
			},
			{
				"x": -0.1974187637,
				"y": 2.1280241332,
				"z": 0.0232828466,
				"element": "O" 
			},
			{
				"x": -0.7447159846,
				"y": 0.6924038946,
				"z": -1.6766930704,
				"element": "O" 
			},
			{
				"x": -0.0772058757,
				"y": 1.3443643589,
				"z": -2.70004313,
				"element": "C" 
			},
			{
				"x": 0.0649912483,
				"y": 2.529893788,
				"z": -2.7805008858,
				"element": "O" 
			},
			{
				"x": 0.3527493171,
				"y": 0.3499166492,
				"z": -3.7621824584,
				"element": "C" 
			},
			{
				"x": 1.4228409263,
				"y": -0.9424899091,
				"z": -3.1002529325,
				"element": "Cl" 
			},
			{
				"x": -1.7903289525,
				"y": -0.4657979789,
				"z": 0.471263137,
				"element": "H" 
			},
			{
				"x": -2.1434034206,
				"y": 1.0886626791,
				"z": 1.2883776934,
				"element": "H" 
			},
			{
				"x": 0.9004814431,
				"y": 0.8876136757,
				"z": -4.5333151076,
				"element": "H" 
			},
			{
				"x": -0.5248459592,
				"y": -0.1409698987,
				"z": -4.188324454,
				"element": "H" 
			}
		],
		 "valence_orbital": [ 
			{
				"type": "occ",
				"energy": -0.33584,
				"method": "rhf"
			},
			{
				"type": "occ",
				"energy": -0.32108,
				"method": "rhf"
			},
			{
				"type": "occ",
				"energy": -0.31932,
				"method": "rhf"
			},
			{
				"type": "occ",
				"energy": -0.31152,
				"method": "rhf"
			},
			{
				"type": "occ",
				"energy": -0.29172,
				"method": "rhf"
			},
			{
				"type": "unocc",
				"energy": -0.06864,
				"method": "rhf"
			},
			{
				"type": "unocc",
				"energy": -0.03483,
				"method": "rhf"
			},
			{
				"type": "unocc",
				"energy": 0.01785,
				"method": "rhf"
			},
			{
				"type": "unocc",
				"energy": 0.03061,
				"method": "rhf"
			},
			{
				"type": "unocc",
				"energy": 0.08739,
				"method": "rhf"
			}
		],
		"cosmo_sigma_profile": { 
			"-0.025": 0.0,
			"-0.024": 0.0,
			"-0.023": 0.0,
			"-0.022": 0.0,
			"-0.021": 0.0,
			"-0.02": 0.0,
			"-0.019": 0.0,
			"-0.018": 0.0,
			"-0.017": 0.0,
			"-0.016": 0.0,
			"-0.015": 0.0,
			"-0.014": 0.0,
			"-0.013": 0.0,
			"-0.012": 0.0619051388773,
			"-0.011": 3.07718811588,
			"-0.01": 6.83659786349,
			"-0.009": 8.3489148871,
			"-0.008": 8.31728021466,
			"-0.007": 8.32639128429,
			"-0.006": 6.92130913907,
			"-0.005": 7.25793074502,
			"-0.004": 7.78355826536,
			"-0.003": 7.15633553022,
			"-0.002": 8.76125863294,
			"-0.001": 7.67464949098,
			"0.0": 8.41769777146,
			"0.001": 9.34333693801,
			"0.002": 9.64270605398,
			"0.003": 12.8966620827,
			"0.004": 18.221456326,
			"0.005": 18.4552986167,
			"0.006": 3.51647580155,
			"0.007": 3.62030092486,
			"0.008": 5.70624559583,
			"0.009": 9.29799438585,
			"0.01": 4.1958187268,
			"0.011": 0.697881862392,
			"0.012": 0.0,
			"0.013": 0.0,
			"0.014": 0.0,
			"0.015": 0.0,
			"0.016": 0.0,
			"0.017": 0.0,
			"0.018": 0.0,
			"0.019": 0.0,
			"0.02": 0.0,
			"0.021": 0.0,
			"0.022": 0.0,
			"0.023": 0.0,
			"0.024": 0.0,
			"0.025": 0.0
		}
	}
}
