{
	 "smiles": "OC(=O)CNC(=O)C1=CC=C(OC2=CC=CC=C2)C=C1", 
	 "Tm": 430.15, 
	 "num_atms": 33, 
	 "gaussian": { 
		 "optdone": 1, 
		 "sigma_profile": "yes", 
		 "theory": "DFT", 
		 "functional": "B3LYP", 
		 "basiset": "6-31G**", 
		 "properties": { 
			 "R2extent": 9007.9203, 
			 "electric_dipole_moment_norm": 5.17129602808, 
			 "electric_quadrupole_moment_norm": 28.229894227, 
			 "total_energy": -935.091964872, 
			 "HOMO_LUMO_gap": 0.19519, 
			 "cosmo_polarized_energy": -20.35, 
			 "cosmo_cavitation_energy": 38.62, 
			 "cosmo_dispersion_energy": -27.16, 
			 "cosmo_repulsion_energy": 2.12, 
			 "cosmo_total_nonelectrostatic_energy": 13.58, 
			 "SMD_solvation_energy": 8.29 
		},
		"coords": [
			{
				"x": -0.0312731762,
				"y": 3.5925735517,
				"z": -4.9344863413,
				"element": "O" 
			},
			{
				"x": 0.3399387383,
				"y": 4.0787557111,
				"z": -3.727370493,
				"element": "C" 
			},
			{
				"x": 1.4930810414,
				"y": 4.2306249586,
				"z": -3.3982286757,
				"element": "O" 
			},
			{
				"x": -0.8904296483,
				"y": 4.3588844486,
				"z": -2.86853654,
				"element": "C" 
			},
			{
				"x": -0.6374658183,
				"y": 5.241910012,
				"z": -1.7558752628,
				"element": "N" 
			},
			{
				"x": -0.7771535478,
				"y": 4.9694078893,
				"z": -0.4062324339,
				"element": "C" 
			},
			{
				"x": -1.0031927796,
				"y": 5.8804945388,
				"z": 0.3823442665,
				"element": "O" 
			},
			{
				"x": -0.6146621374,
				"y": 3.5554828849,
				"z": 0.0577989116,
				"element": "C" 
			},
			{
				"x": -1.3880018623,
				"y": 3.1326001842,
				"z": 1.1506293788,
				"element": "C" 
			},
			{
				"x": -1.2459412816,
				"y": 1.8528158915,
				"z": 1.6682721091,
				"element": "C" 
			},
			{
				"x": -0.2963615101,
				"y": 0.9827382798,
				"z": 1.1168238769,
				"element": "C" 
			},
			{
				"x": -0.180634783,
				"y": -0.2433006684,
				"z": 1.727190909,
				"element": "O" 
			},
			{
				"x": 0.3990272012,
				"y": -1.3148715177,
				"z": 1.0663064675,
				"element": "C" 
			},
			{
				"x": -0.0959276662,
				"y": -1.7704561924,
				"z": -0.158706092,
				"element": "C" 
			},
			{
				"x": 0.4687948124,
				"y": -2.9056361349,
				"z": -0.7404581662,
				"element": "C" 
			},
			{
				"x": 1.509598842,
				"y": -3.5859061647,
				"z": -0.1031342458,
				"element": "C" 
			},
			{
				"x": 1.9874477868,
				"y": -3.1248491967,
				"z": 1.1250141732,
				"element": "C" 
			},
			{
				"x": 1.4367426585,
				"y": -1.9852825138,
				"z": 1.7135057083,
				"element": "C" 
			},
			{
				"x": 0.5124050557,
				"y": 1.3999511858,
				"z": 0.0548538918,
				"element": "C" 
			},
			{
				"x": 0.3451430319,
				"y": 2.6808713967,
				"z": -0.4711529832,
				"element": "C" 
			},
			{
				"x": 0.7893813978,
				"y": 3.395124697,
				"z": -5.4168512603,
				"element": "H" 
			},
			{
				"x": -1.2557383434,
				"y": 3.3938912005,
				"z": -2.5037555472,
				"element": "H" 
			},
			{
				"x": -1.6765814343,
				"y": 4.7590390807,
				"z": -3.5194995664,
				"element": "H" 
			},
			{
				"x": -0.7107373183,
				"y": 6.2345379339,
				"z": -1.9392674709,
				"element": "H" 
			},
			{
				"x": -2.0989037823,
				"y": 3.8270639218,
				"z": 1.5858420663,
				"element": "H" 
			},
			{
				"x": -1.8468727581,
				"y": 1.5087400161,
				"z": 2.5034075456,
				"element": "H" 
			},
			{
				"x": -0.9133573021,
				"y": -1.2432426746,
				"z": -0.6395074346,
				"element": "H" 
			},
			{
				"x": 0.0861050346,
				"y": -3.2641550474,
				"z": -1.6917008445,
				"element": "H" 
			},
			{
				"x": 1.9418674866,
				"y": -4.4711408725,
				"z": -0.5594263668,
				"element": "H" 
			},
			{
				"x": 2.7942526417,
				"y": -3.6496558976,
				"z": 1.6281712206,
				"element": "H" 
			},
			{
				"x": 1.7918297894,
				"y": -1.6096089264,
				"z": 2.6673665683,
				"element": "H" 
			},
			{
				"x": 1.2735883111,
				"y": 0.7394371561,
				"z": -0.3441917403,
				"element": "H" 
			},
			{
				"x": 1.0006313201,
				"y": 3.0162608681,
				"z": -1.2689456286,
				"element": "H" 
			}
		],
		 "valence_orbital": [ 
			{
				"type": "occ",
				"energy": -0.26101,
				"method": "rhf"
			},
			{
				"type": "occ",
				"energy": -0.25823,
				"method": "rhf"
			},
			{
				"type": "occ",
				"energy": -0.25602,
				"method": "rhf"
			},
			{
				"type": "occ",
				"energy": -0.24527,
				"method": "rhf"
			},
			{
				"type": "occ",
				"energy": -0.2243,
				"method": "rhf"
			},
			{
				"type": "unocc",
				"energy": -0.02911,
				"method": "rhf"
			},
			{
				"type": "unocc",
				"energy": -0.01689,
				"method": "rhf"
			},
			{
				"type": "unocc",
				"energy": -0.00612,
				"method": "rhf"
			},
			{
				"type": "unocc",
				"energy": -0.00468,
				"method": "rhf"
			},
			{
				"type": "unocc",
				"energy": -0.00249,
				"method": "rhf"
			}
		],
		"cosmo_sigma_profile": { 
			"-0.025": 0.0,
			"-0.024": 0.0,
			"-0.023": 0.0,
			"-0.022": 0.0,
			"-0.021": 0.0,
			"-0.02": 0.0,
			"-0.019": 0.160178093442,
			"-0.018": 1.06755576597,
			"-0.017": 0.931158219885,
			"-0.016": 0.824246358375,
			"-0.015": 0.843843909486,
			"-0.014": 1.34085748204,
			"-0.013": 2.59009748798,
			"-0.012": 1.93082252426,
			"-0.011": 1.90154415225,
			"-0.01": 1.23568315441,
			"-0.009": 1.62154485052,
			"-0.008": 6.04467211185,
			"-0.007": 9.0379329519,
			"-0.006": 18.5063178787,
			"-0.005": 21.1877442708,
			"-0.004": 22.7436392457,
			"-0.003": 18.9002187903,
			"-0.002": 17.763097345,
			"-0.001": 19.0156288492,
			"0.0": 18.6500313273,
			"0.001": 17.9008020694,
			"0.002": 23.1274111966,
			"0.003": 23.4963321812,
			"0.004": 20.3911449131,
			"0.005": 13.2967871902,
			"0.006": 5.27219746333,
			"0.007": 5.53470943021,
			"0.008": 5.42890696756,
			"0.009": 4.72978137741,
			"0.01": 4.3405768789,
			"0.011": 5.77043134422,
			"0.012": 4.62595939423,
			"0.013": 4.6136721242,
			"0.014": 3.68241613795,
			"0.015": 0.211489350947,
			"0.016": 0.0,
			"0.017": 0.0,
			"0.018": 0.0,
			"0.019": 0.0,
			"0.02": 0.0,
			"0.021": 0.0,
			"0.022": 0.0,
			"0.023": 0.0,
			"0.024": 0.0,
			"0.0": 0.0
		}
	}
}
