{
	 "smiles": "CC(C)NC(=O)NC(C)C", 
	 "Tm": 465.15, 
	 "num_atms": 26, 
	 "gaussian": { 
		 "optdone": 1, 
		 "sigma_profile": "yes", 
		 "theory": "DFT", 
		 "functional": "B3LYP", 
		 "basiset": "6-31G**", 
		 "properties": { 
			 "R2extent": 1939.8316, 
			 "electric_dipole_moment_norm": 2.8952325796, 
			 "electric_quadrupole_moment_norm": 9.31852028865, 
			 "total_energy": -461.146934466, 
			 "HOMO_LUMO_gap": 0.26121, 
			 "cosmo_polarized_energy": -9.9, 
			 "cosmo_cavitation_energy": 27.36, 
			 "cosmo_dispersion_energy": -19.07, 
			 "cosmo_repulsion_energy": 1.57, 
			 "cosmo_total_nonelectrostatic_energy": 9.86, 
			 "SMD_solvation_energy": 4.48 
		},
		"coords": [
			{
				"x": 1.7185287492,
				"y": 2.7258915606,
				"z": 0.648677122,
				"element": "C" 
			},
			{
				"x": 1.3383854399,
				"y": 1.7094338127,
				"z": -0.4384647295,
				"element": "C" 
			},
			{
				"x": 1.9592076646,
				"y": 2.0644609298,
				"z": -1.7920106851,
				"element": "C" 
			},
			{
				"x": 1.7436996103,
				"y": 0.3399442345,
				"z": -0.0620229422,
				"element": "N" 
			},
			{
				"x": 1.1077272932,
				"y": -0.3892893828,
				"z": 0.9305609029,
				"element": "C" 
			},
			{
				"x": 1.7342089793,
				"y": -1.015621823,
				"z": 1.777186154,
				"element": "O" 
			},
			{
				"x": -0.3076431592,
				"y": -0.3615176043,
				"z": 0.9161010853,
				"element": "N" 
			},
			{
				"x": -1.0457346244,
				"y": -1.1189851968,
				"z": -0.1372301813,
				"element": "C" 
			},
			{
				"x": -2.4744260872,
				"y": -1.3315859851,
				"z": 0.3724309644,
				"element": "C" 
			},
			{
				"x": -1.053060579,
				"y": -0.4249515671,
				"z": -1.4994841923,
				"element": "C" 
			},
			{
				"x": 1.3948051919,
				"y": 3.7344502954,
				"z": 0.3692843626,
				"element": "H" 
			},
			{
				"x": 1.2478278027,
				"y": 2.4687086662,
				"z": 1.6022068308,
				"element": "H" 
			},
			{
				"x": 2.8042584055,
				"y": 2.7512894685,
				"z": 0.8001627675,
				"element": "H" 
			},
			{
				"x": 0.2516628818,
				"y": 1.6985733832,
				"z": -0.5324508876,
				"element": "H" 
			},
			{
				"x": 1.6540924677,
				"y": 3.0678913386,
				"z": -2.104705013,
				"element": "H" 
			},
			{
				"x": 3.0545992685,
				"y": 2.0551095859,
				"z": -1.7342260116,
				"element": "H" 
			},
			{
				"x": 1.6570619301,
				"y": 1.3530493994,
				"z": -2.5656813292,
				"element": "H" 
			},
			{
				"x": 2.7472004413,
				"y": 0.2483971254,
				"z": 0.0651461277,
				"element": "H" 
			},
			{
				"x": -0.5714567155,
				"y": -0.7543177313,
				"z": 1.8159712439,
				"element": "H" 
			},
			{
				"x": -0.5775514024,
				"y": -2.1087349434,
				"z": -0.2649170822,
				"element": "H" 
			},
			{
				"x": -3.0596921009,
				"y": -1.9017056257,
				"z": -0.354991081,
				"element": "H" 
			},
			{
				"x": -2.4844614723,
				"y": -1.88717917,
				"z": 1.3169835258,
				"element": "H" 
			},
			{
				"x": -2.9694330703,
				"y": -0.3684735253,
				"z": 0.53649657,
				"element": "H" 
			},
			{
				"x": -1.5466521143,
				"y": 0.5510490126,
				"z": -1.440152901,
				"element": "H" 
			},
			{
				"x": -0.0407064003,
				"y": -0.2893792384,
				"z": -1.8845481569,
				"element": "H" 
			},
			{
				"x": -1.6056483999,
				"y": -1.0404070198,
				"z": -2.2172224639,
				"element": "H" 
			}
		],
		 "valence_orbital": [ 
			{
				"type": "occ",
				"energy": -0.34402,
				"method": "rhf"
			},
			{
				"type": "occ",
				"energy": -0.34226,
				"method": "rhf"
			},
			{
				"type": "occ",
				"energy": -0.27328,
				"method": "rhf"
			},
			{
				"type": "occ",
				"energy": -0.24611,
				"method": "rhf"
			},
			{
				"type": "occ",
				"energy": -0.23101,
				"method": "rhf"
			},
			{
				"type": "unocc",
				"energy": 0.0302,
				"method": "rhf"
			},
			{
				"type": "unocc",
				"energy": 0.07346,
				"method": "rhf"
			},
			{
				"type": "unocc",
				"energy": 0.09571,
				"method": "rhf"
			},
			{
				"type": "unocc",
				"energy": 0.10786,
				"method": "rhf"
			},
			{
				"type": "unocc",
				"energy": 0.12318,
				"method": "rhf"
			}
		],
		"cosmo_sigma_profile": { 
			"-0.025": 0.0,
			"-0.024": 0.0,
			"-0.023": 0.0,
			"-0.022": 0.0,
			"-0.021": 0.0,
			"-0.02": 0.0,
			"-0.019": 0.0,
			"-0.018": 0.0,
			"-0.017": 0.0,
			"-0.016": 0.0,
			"-0.015": 0.0,
			"-0.014": 0.0,
			"-0.013": 0.0,
			"-0.012": 0.291543721919,
			"-0.011": 1.19295876362,
			"-0.01": 1.90023706756,
			"-0.009": 1.65958989379,
			"-0.008": 2.99334717991,
			"-0.007": 2.42163581969,
			"-0.006": 2.51903882715,
			"-0.005": 3.08867691754,
			"-0.004": 11.5688761282,
			"-0.003": 30.1470515513,
			"-0.002": 29.6737838605,
			"-0.001": 27.8286151509,
			"0.0": 31.2675956348,
			"0.001": 23.7734934331,
			"0.002": 6.63217469661,
			"0.003": 4.21111361576,
			"0.004": 2.80043083642,
			"0.005": 3.50006196049,
			"0.006": 1.7292989141,
			"0.007": 2.05589661871,
			"0.008": 2.81105096264,
			"0.009": 1.55557457513,
			"0.01": 1.08367180135,
			"0.011": 1.97163403544,
			"0.012": 2.26789219247,
			"0.013": 3.15828111278,
			"0.014": 5.8384173651,
			"0.015": 1.35357879689,
			"0.016": 0.0,
			"0.017": 0.0,
			"0.018": 0.0,
			"0.019": 0.0,
			"0.02": 0.0,
			"0.021": 0.0,
			"0.022": 0.0,
			"0.023": 0.0,
			"0.024": 0.0,
			"0.025": 0.0
		}
	}
}
