{
	 "smiles": "CC1=CN(CC2=CC(=NO2)C(O)=O)N=C1", 
	 "Tm": 437.15, 
	 "num_atms": 24, 
	 "gaussian": { 
		 "optdone": 1, 
		 "sigma_profile": "yes", 
		 "theory": "DFT", 
		 "functional": "B3LYP", 
		 "basiset": "6-31G**", 
		 "properties": { 
			 "R2extent": 4979.2699, 
			 "electric_dipole_moment_norm": 3.979421321, 
			 "electric_quadrupole_moment_norm": 30.0383623034, 
			 "total_energy": -738.23847615, 
			 "HOMO_LUMO_gap": 0.18685, 
			 "cosmo_polarized_energy": -17.34, 
			 "cosmo_cavitation_energy": 30.39, 
			 "cosmo_dispersion_energy": -21.62, 
			 "cosmo_repulsion_energy": 1.72, 
			 "cosmo_total_nonelectrostatic_energy": 10.49, 
			 "SMD_solvation_energy": 6.2 
		},
		"coords": [
			{
				"x": -1.3504010795,
				"y": 2.0699520459,
				"z": 3.2826059298,
				"element": "C" 
			},
			{
				"x": -1.1885133254,
				"y": 1.0728502415,
				"z": 2.1733249598,
				"element": "C" 
			},
			{
				"x": -1.9407468692,
				"y": 0.9526501018,
				"z": 1.0193726348,
				"element": "C" 
			},
			{
				"x": -1.4463474424,
				"y": -0.1113960988,
				"z": 0.3232477156,
				"element": "N" 
			},
			{
				"x": -1.8286945186,
				"y": -0.5750120271,
				"z": -0.9952467437,
				"element": "C" 
			},
			{
				"x": -0.959834899,
				"y": -0.0090424418,
				"z": -2.0823402192,
				"element": "C" 
			},
			{
				"x": 0.3639543646,
				"y": 0.2886857303,
				"z": -2.176794827,
				"element": "C" 
			},
			{
				"x": 0.4963523073,
				"y": 0.7683266792,
				"z": -3.5115508929,
				"element": "C" 
			},
			{
				"x": -0.6501200119,
				"y": 0.7571651761,
				"z": -4.165774874,
				"element": "N" 
			},
			{
				"x": -1.573207395,
				"y": 0.266697863,
				"z": -3.2586171975,
				"element": "O" 
			},
			{
				"x": 1.7212309672,
				"y": 1.2522822397,
				"z": -4.2041772673,
				"element": "C" 
			},
			{
				"x": 2.7918295169,
				"y": 1.1896672371,
				"z": -3.3757905955,
				"element": "O" 
			},
			{
				"x": 1.7794873131,
				"y": 1.6499633572,
				"z": -5.3436892679,
				"element": "O" 
			},
			{
				"x": -0.393940686,
				"y": -0.6873188946,
				"z": 0.9475545488,
				"element": "N" 
			},
			{
				"x": -0.2418465574,
				"y": 0.0224535916,
				"z": 2.0644621981,
				"element": "C" 
			},
			{
				"x": -1.6089383775,
				"y": 1.5833043134,
				"z": 4.2300060673,
				"element": "H" 
			},
			{
				"x": -0.4282665716,
				"y": 2.6371423629,
				"z": 3.4513715923,
				"element": "H" 
			},
			{
				"x": -2.1424210663,
				"y": 2.7889455933,
				"z": 3.0550304623,
				"element": "H" 
			},
			{
				"x": -2.7790669292,
				"y": 1.5286953744,
				"z": 0.6533662146,
				"element": "H" 
			},
			{
				"x": -1.7664863285,
				"y": -1.6678913826,
				"z": -0.9913057269,
				"element": "H" 
			},
			{
				"x": -2.8688131053,
				"y": -0.29782315,
				"z": -1.1856967209,
				"element": "H" 
			},
			{
				"x": 1.1246178466,
				"y": 0.1812807548,
				"z": -1.4213859806,
				"element": "H" 
			},
			{
				"x": 3.5493610337,
				"y": 1.5163778525,
				"z": -3.889435849,
				"element": "H" 
			},
			{
				"x": 0.5383118135,
				"y": -0.2472565197,
				"z": 2.765163839,
				"element": "H" 
			}
		],
		 "valence_orbital": [ 
			{
				"type": "occ",
				"energy": -0.29517,
				"method": "rhf"
			},
			{
				"type": "occ",
				"energy": -0.28816,
				"method": "rhf"
			},
			{
				"type": "occ",
				"energy": -0.27549,
				"method": "rhf"
			},
			{
				"type": "occ",
				"energy": -0.25777,
				"method": "rhf"
			},
			{
				"type": "occ",
				"energy": -0.24325,
				"method": "rhf"
			},
			{
				"type": "unocc",
				"energy": -0.0564,
				"method": "rhf"
			},
			{
				"type": "unocc",
				"energy": -0.0046,
				"method": "rhf"
			},
			{
				"type": "unocc",
				"energy": 0.01028,
				"method": "rhf"
			},
			{
				"type": "unocc",
				"energy": 0.05865,
				"method": "rhf"
			},
			{
				"type": "unocc",
				"energy": 0.07067,
				"method": "rhf"
			}
		],
		"cosmo_sigma_profile": { 
			"-0.025": 0.0,
			"-0.024": 0.0,
			"-0.023": 0.0,
			"-0.022": 0.0,
			"-0.021": 0.0,
			"-0.02": 0.00460848540346,
			"-0.019": 0.650075903891,
			"-0.018": 1.1616927251,
			"-0.017": 0.692071641856,
			"-0.016": 0.918073407445,
			"-0.015": 0.606224665629,
			"-0.014": 1.13049401376,
			"-0.013": 0.494282651223,
			"-0.012": 0.417278663985,
			"-0.011": 0.995270961577,
			"-0.01": 2.24638741754,
			"-0.009": 6.00058229567,
			"-0.008": 7.53238285409,
			"-0.007": 8.52253235656,
			"-0.006": 8.62611321276,
			"-0.005": 10.3693363186,
			"-0.004": 15.0527104689,
			"-0.003": 16.2860478103,
			"-0.002": 21.271312841,
			"-0.001": 18.5483274026,
			"0.0": 20.2196202064,
			"0.001": 14.51416326,
			"0.002": 9.49691003566,
			"0.003": 9.61874646454,
			"0.004": 11.8283298303,
			"0.005": 11.1595841288,
			"0.006": 8.39126856918,
			"0.007": 6.78899537269,
			"0.008": 4.15242352517,
			"0.009": 4.5538706532,
			"0.01": 5.54011792685,
			"0.011": 7.57974781276,
			"0.012": 4.53938621461,
			"0.013": 1.34840188598,
			"0.014": 1.01767372568,
			"0.015": 0.507523206422,
			"0.016": 0.236612285857,
			"0.017": 0.0,
			"0.018": 0.0,
			"0.019": 0.0,
			"0.02": 0.0,
			"0.021": 0.0,
			"0.022": 0.0,
			"0.023": 0.0,
			"0.024": 0.0,
			"0.025": 0.0
		}
	}
}
