{
	 "smiles": "CC1=CC=CC(C)=N1", 
	 "Tm": 266.65, 
	 "num_atms": 17, 
	 "gaussian": { 
		 "optdone": 1, 
		 "sigma_profile": "yes", 
		 "theory": "DFT", 
		 "functional": "B3LYP", 
		 "basiset": "6-31G**", 
		 "properties": { 
			 "R2extent": 1385.4234, 
			 "electric_dipole_moment_norm": 1.52880644295, 
			 "electric_quadrupole_moment_norm": 4.76533679188, 
			 "total_energy": -326.93222562, 
			 "HOMO_LUMO_gap": 0.22841, 
			 "cosmo_polarized_energy": -5.28, 
			 "cosmo_cavitation_energy": 20.22, 
			 "cosmo_dispersion_energy": -15.08, 
			 "cosmo_repulsion_energy": 1.27, 
			 "cosmo_total_nonelectrostatic_energy": 6.4, 
			 "SMD_solvation_energy": 2.48 
		},
		"coords": [
			{
				"x": 2.8921024898,
				"y": 0.3053461032,
				"z": 2.8070683854,
				"element": "C" 
			},
			{
				"x": 1.8910158763,
				"y": 0.3789888726,
				"z": 1.678648911,
				"element": "C" 
			},
			{
				"x": 1.5853489801,
				"y": 1.597884968,
				"z": 1.0599491253,
				"element": "C" 
			},
			{
				"x": 0.6548822459,
				"y": 1.6096736995,
				"z": 0.0238992801,
				"element": "C" 
			},
			{
				"x": 0.0599365406,
				"y": 0.411225173,
				"z": -0.3621934045,
				"element": "C" 
			},
			{
				"x": 0.4186551446,
				"y": -0.7663247082,
				"z": 0.3061038266,
				"element": "C" 
			},
			{
				"x": -0.1936226482,
				"y": -2.0948859182,
				"z": -0.0693686919,
				"element": "C" 
			},
			{
				"x": 1.3163159869,
				"y": -0.7761705152,
				"z": 1.3052206919,
				"element": "N" 
			},
			{
				"x": 2.9851645928,
				"y": -0.7273064289,
				"z": 3.1468475043,
				"element": "H" 
			},
			{
				"x": 3.8787963641,
				"y": 0.6605808224,
				"z": 2.4880056563,
				"element": "H" 
			},
			{
				"x": 2.5832556996,
				"y": 0.927776741,
				"z": 3.6548609191,
				"element": "H" 
			},
			{
				"x": 2.0690394818,
				"y": 2.5138175293,
				"z": 1.387234584,
				"element": "H" 
			},
			{
				"x": 0.3970592746,
				"y": 2.5396362798,
				"z": -0.4755312862,
				"element": "H" 
			},
			{
				"x": -0.669898581,
				"y": 0.3831299611,
				"z": -1.1662824905,
				"element": "H" 
			},
			{
				"x": -1.2830676342,
				"y": -2.0795687102,
				"z": 0.0507670709,
				"element": "H" 
			},
			{
				"x": 0.0124648655,
				"y": -2.3468710379,
				"z": -1.1160739404,
				"element": "H" 
			},
			{
				"x": 0.2174513208,
				"y": -2.8801328313,
				"z": 0.5669438586,
				"element": "H" 
			}
		],
		 "valence_orbital": [ 
			{
				"type": "occ",
				"energy": -0.35632,
				"method": "rhf"
			},
			{
				"type": "occ",
				"energy": -0.34834,
				"method": "rhf"
			},
			{
				"type": "occ",
				"energy": -0.27622,
				"method": "rhf"
			},
			{
				"type": "occ",
				"energy": -0.24405,
				"method": "rhf"
			},
			{
				"type": "occ",
				"energy": -0.23969,
				"method": "rhf"
			},
			{
				"type": "unocc",
				"energy": -0.01128,
				"method": "rhf"
			},
			{
				"type": "unocc",
				"energy": -0.0051,
				"method": "rhf"
			},
			{
				"type": "unocc",
				"energy": 0.10282,
				"method": "rhf"
			},
			{
				"type": "unocc",
				"energy": 0.12731,
				"method": "rhf"
			},
			{
				"type": "unocc",
				"energy": 0.1291,
				"method": "rhf"
			}
		],
		"cosmo_sigma_profile": { 
			"-0.025": 0.0,
			"-0.024": 0.0,
			"-0.023": 0.0,
			"-0.022": 0.0,
			"-0.021": 0.0,
			"-0.02": 0.0,
			"-0.019": 0.0,
			"-0.018": 0.0,
			"-0.017": 0.0,
			"-0.016": 0.0,
			"-0.015": 0.0,
			"-0.014": 0.0,
			"-0.013": 0.0,
			"-0.012": 0.0,
			"-0.011": 0.0,
			"-0.01": 0.0,
			"-0.009": 0.0,
			"-0.008": 0.0,
			"-0.007": 0.630195781873,
			"-0.006": 4.94412877658,
			"-0.005": 8.33409066641,
			"-0.004": 16.3376511679,
			"-0.003": 18.3972918392,
			"-0.002": 17.6091974688,
			"-0.001": 15.2672591431,
			"0.0": 18.8500697534,
			"0.001": 12.4600005173,
			"0.002": 8.63489614762,
			"0.003": 12.0043711378,
			"0.004": 10.9114058954,
			"0.005": 3.40360384299,
			"0.006": 1.79686156614,
			"0.007": 2.05483097182,
			"0.008": 1.20272242083,
			"0.009": 1.57142741743,
			"0.01": 1.62053192457,
			"0.011": 0.446250653076,
			"0.012": 0.715245160077,
			"0.013": 0.846760777438,
			"0.014": 0.777966324408,
			"0.015": 0.989977957922,
			"0.016": 0.318401099893,
			"0.017": 0.0,
			"0.018": 0.0,
			"0.019": 0.0,
			"0.02": 0.0,
			"0.021": 0.0,
			"0.022": 0.0,
			"0.023": 0.0,
			"0.024": 0.0,
			"0.025": 0.0
		}
	}
}
