{
	 "smiles": "O=C1N2C=CC3=CC=CC=C3C2=CC2=CC=CC=C12", 
	 "Tm": 420.15, 
	 "num_atms": 30, 
	 "gaussian": { 
		 "optdone": 1, 
		 "sigma_profile": "yes", 
		 "theory": "DFT", 
		 "functional": "B3LYP", 
		 "basiset": "6-31G**", 
		 "properties": { 
			 "R2extent": 5689.9771, 
			 "electric_dipole_moment_norm": 3.49821480901, 
			 "electric_quadrupole_moment_norm": 17.3081430078, 
			 "total_energy": -784.448239186, 
			 "HOMO_LUMO_gap": 0.13593, 
			 "cosmo_polarized_energy": -10.47, 
			 "cosmo_cavitation_energy": 33.21, 
			 "cosmo_dispersion_energy": -25.06, 
			 "cosmo_repulsion_energy": 1.82, 
			 "cosmo_total_nonelectrostatic_energy": 9.97, 
			 "SMD_solvation_energy": 5.84 
		},
		"coords": [
			{
				"x": 1.8227925943,
				"y": -0.8689779958,
				"z": 3.5226338151,
				"element": "O" 
			},
			{
				"x": 1.348465041,
				"y": -1.108368807,
				"z": 2.4155126874,
				"element": "C" 
			},
			{
				"x": 0.4829710185,
				"y": -0.1489676032,
				"z": 1.7918826582,
				"element": "N" 
			},
			{
				"x": 0.2498557926,
				"y": 1.0133196539,
				"z": 2.5279796951,
				"element": "C" 
			},
			{
				"x": -0.5396706864,
				"y": 2.0026793756,
				"z": 2.0729949138,
				"element": "C" 
			},
			{
				"x": -1.1846978816,
				"y": 1.8970433685,
				"z": 0.7873319784,
				"element": "C" 
			},
			{
				"x": -2.014580602,
				"y": 2.9217214202,
				"z": 0.2940048789,
				"element": "C" 
			},
			{
				"x": -2.6281203953,
				"y": 2.8065647362,
				"z": -0.9433522242,
				"element": "C" 
			},
			{
				"x": -2.4193502335,
				"y": 1.6539618102,
				"z": -1.7139618164,
				"element": "C" 
			},
			{
				"x": -1.6041838223,
				"y": 0.634503399,
				"z": -1.242394766,
				"element": "C" 
			},
			{
				"x": -0.9695551348,
				"y": 0.728224678,
				"z": 0.0120021962,
				"element": "C" 
			},
			{
				"x": -0.1030858983,
				"y": -0.3438514914,
				"z": 0.5246017294,
				"element": "C" 
			},
			{
				"x": 0.1601750993,
				"y": -1.5048162831,
				"z": -0.1554134988,
				"element": "C" 
			},
			{
				"x": 1.0072147001,
				"y": -2.5176416553,
				"z": 0.3810073659,
				"element": "C" 
			},
			{
				"x": 1.2857465635,
				"y": -3.7206008663,
				"z": -0.3130578829,
				"element": "C" 
			},
			{
				"x": 2.1133508722,
				"y": -4.6785011043,
				"z": 0.2428189706,
				"element": "C" 
			},
			{
				"x": 2.6964697621,
				"y": -4.4775422282,
				"z": 1.510939416,
				"element": "C" 
			},
			{
				"x": 2.4389256417,
				"y": -3.3103241823,
				"z": 2.2076349542,
				"element": "C" 
			},
			{
				"x": 1.598134609,
				"y": -2.3258540136,
				"z": 1.6542217043,
				"element": "C" 
			},
			{
				"x": 0.7644165703,
				"y": 1.0220536917,
				"z": 3.478151171,
				"element": "H" 
			},
			{
				"x": -0.6913082127,
				"y": 2.887849387,
				"z": 2.6808807875,
				"element": "H" 
			},
			{
				"x": -2.1665264474,
				"y": 3.8087258408,
				"z": 0.9030508135,
				"element": "H" 
			},
			{
				"x": -3.2661580301,
				"y": 3.6034475381,
				"z": -1.3135221256,
				"element": "H" 
			},
			{
				"x": -2.8955222966,
				"y": 1.5541649229,
				"z": -2.6846284551,
				"element": "H" 
			},
			{
				"x": -1.4622121013,
				"y": -0.2438422006,
				"z": -1.8609451909,
				"element": "H" 
			},
			{
				"x": -0.2825557269,
				"y": -1.6677300175,
				"z": -1.1284778263,
				"element": "H" 
			},
			{
				"x": 0.8388677688,
				"y": -3.8804404215,
				"z": -1.2906717685,
				"element": "H" 
			},
			{
				"x": 2.3165603173,
				"y": -5.5957177571,
				"z": -0.3031047384,
				"element": "H" 
			},
			{
				"x": 3.3445503686,
				"y": -5.2374672167,
				"z": 1.9364358258,
				"element": "H" 
			},
			{
				"x": 2.8697307496,
				"y": -3.1214159782,
				"z": 3.1849447319,
				"element": "H" 
			}
		],
		 "valence_orbital": [ 
			{
				"type": "occ",
				"energy": -0.27271,
				"method": "rhf"
			},
			{
				"type": "occ",
				"energy": -0.25996,
				"method": "rhf"
			},
			{
				"type": "occ",
				"energy": -0.25571,
				"method": "rhf"
			},
			{
				"type": "occ",
				"energy": -0.23851,
				"method": "rhf"
			},
			{
				"type": "occ",
				"energy": -0.18924,
				"method": "rhf"
			},
			{
				"type": "unocc",
				"energy": -0.05331,
				"method": "rhf"
			},
			{
				"type": "unocc",
				"energy": -0.05042,
				"method": "rhf"
			},
			{
				"type": "unocc",
				"energy": -0.023,
				"method": "rhf"
			},
			{
				"type": "unocc",
				"energy": 0.00396,
				"method": "rhf"
			},
			{
				"type": "unocc",
				"energy": 0.04818,
				"method": "rhf"
			}
		],
		"cosmo_sigma_profile": { 
			"-0.025": 0.0,
			"-0.024": 0.0,
			"-0.023": 0.0,
			"-0.022": 0.0,
			"-0.021": 0.0,
			"-0.02": 0.0,
			"-0.019": 0.0,
			"-0.018": 0.0,
			"-0.017": 0.0,
			"-0.016": 0.0,
			"-0.015": 0.0,
			"-0.014": 0.0,
			"-0.013": 0.0,
			"-0.012": 0.0,
			"-0.011": 0.0,
			"-0.01": 0.0457525705531,
			"-0.009": 1.04924491637,
			"-0.008": 1.92741192508,
			"-0.007": 8.37842593038,
			"-0.006": 18.7665999067,
			"-0.005": 19.9453431171,
			"-0.004": 19.486701262,
			"-0.003": 15.8557724651,
			"-0.002": 16.5808924956,
			"-0.001": 17.4017882237,
			"0.0": 20.1969414659,
			"0.001": 21.8094290002,
			"0.002": 27.6925660551,
			"0.003": 32.1097922876,
			"0.004": 24.940269919,
			"0.005": 6.01310644391,
			"0.006": 1.19674806816,
			"0.007": 2.37705288878,
			"0.008": 1.42125827105,
			"0.009": 1.09664260773,
			"0.01": 1.25403951416,
			"0.011": 1.88918778718,
			"0.012": 2.6230133421,
			"0.013": 4.07128754296,
			"0.014": 0.405800973514,
			"0.015": 0.0,
			"0.016": 0.0,
			"0.017": 0.0,
			"0.018": 0.0,
			"0.019": 0.0,
			"0.02": 0.0,
			"0.021": 0.0,
			"0.022": 0.0,
			"0.023": 0.0,
			"0.024": 0.0,
			"0.025": 0.0
		}
	}
}
