{
	 "smiles": "O=S1(=O)NC(N2CCCCCC2=N1)C1=CC=NC=C1", 
	 "Tm": 450.15, 
	 "num_atms": 35, 
	 "gaussian": { 
		 "optdone": 1, 
		 "sigma_profile": "yes", 
		 "theory": "DFT", 
		 "functional": "B3LYP", 
		 "basiset": "6-31G**", 
		 "properties": { 
			 "R2extent": 6963.5046, 
			 "electric_dipole_moment_norm": 9.49024246792, 
			 "electric_quadrupole_moment_norm": 31.3979167549, 
			 "total_energy": -1234.4695312, 
			 "HOMO_LUMO_gap": 0.21358, 
			 "cosmo_polarized_energy": -30.19, 
			 "cosmo_cavitation_energy": 36.77, 
			 "cosmo_dispersion_energy": -26.92, 
			 "cosmo_repulsion_energy": 2.02, 
			 "cosmo_total_nonelectrostatic_energy": 11.86, 
			 "SMD_solvation_energy": 1.15 
		},
		"coords": [
			{
				"x": -1.5991985662,
				"y": 3.1172765077,
				"z": -2.9065201251,
				"element": "O" 
			},
			{
				"x": -2.5295259183,
				"y": 2.0091879892,
				"z": -2.7454338368,
				"element": "S" 
			},
			{
				"x": -3.8581162817,
				"y": 2.0461522778,
				"z": -3.3447321772,
				"element": "O" 
			},
			{
				"x": -2.8143619303,
				"y": 1.7873958866,
				"z": -1.0685698255,
				"element": "N" 
			},
			{
				"x": -1.7100162015,
				"y": 1.146195414,
				"z": -0.3732936862,
				"element": "C" 
			},
			{
				"x": -1.3060724199,
				"y": -0.1437431508,
				"z": -0.9882434222,
				"element": "N" 
			},
			{
				"x": -0.7610429683,
				"y": -1.1184525893,
				"z": -0.0165660664,
				"element": "C" 
			},
			{
				"x": -0.9697495915,
				"y": -2.5995150737,
				"z": -0.3482460985,
				"element": "C" 
			},
			{
				"x": 0.0954764491,
				"y": -3.1770721453,
				"z": -1.2922803357,
				"element": "C" 
			},
			{
				"x": 0.4340603134,
				"y": -2.2195470465,
				"z": -2.4435798182,
				"element": "C" 
			},
			{
				"x": -0.8058881099,
				"y": -1.5370132538,
				"z": -3.0391082203,
				"element": "C" 
			},
			{
				"x": -1.319392092,
				"y": -0.2740112608,
				"z": -2.3541815014,
				"element": "C" 
			},
			{
				"x": -1.7824674386,
				"y": 0.6007523698,
				"z": -3.2089611274,
				"element": "N" 
			},
			{
				"x": -0.543965678,
				"y": 2.112976753,
				"z": -0.1496295094,
				"element": "C" 
			},
			{
				"x": 0.7499447005,
				"y": 1.8792421366,
				"z": -0.6102105366,
				"element": "C" 
			},
			{
				"x": 1.751300035,
				"y": 2.805540081,
				"z": -0.3064108495,
				"element": "C" 
			},
			{
				"x": 1.549313364,
				"y": 3.9130351333,
				"z": 0.4123323452,
				"element": "N" 
			},
			{
				"x": 0.2991852047,
				"y": 4.1326074161,
				"z": 0.8440236526,
				"element": "C" 
			},
			{
				"x": -0.7690957729,
				"y": 3.2751305946,
				"z": 0.5948326085,
				"element": "C" 
			},
			{
				"x": -3.6824928376,
				"y": 1.2624104134,
				"z": -0.9795985976,
				"element": "H" 
			},
			{
				"x": -2.103528922,
				"y": 0.8912895827,
				"z": 0.6169745492,
				"element": "H" 
			},
			{
				"x": 0.3033109847,
				"y": -0.915224836,
				"z": 0.1637443354,
				"element": "H" 
			},
			{
				"x": -1.2741184694,
				"y": -0.9015826388,
				"z": 0.9253688679,
				"element": "H" 
			},
			{
				"x": -1.9754677714,
				"y": -2.7282712858,
				"z": -0.7638772865,
				"element": "H" 
			},
			{
				"x": -0.9606437272,
				"y": -3.1559943041,
				"z": 0.5955907971,
				"element": "H" 
			},
			{
				"x": 1.0067159836,
				"y": -3.4071383596,
				"z": -0.7273480905,
				"element": "H" 
			},
			{
				"x": -0.2668921248,
				"y": -4.1302277036,
				"z": -1.6955121032,
				"element": "H" 
			},
			{
				"x": 0.9465113026,
				"y": -2.7697267111,
				"z": -3.2395413204,
				"element": "H" 
			},
			{
				"x": 1.146748279,
				"y": -1.4559253248,
				"z": -2.1081598095,
				"element": "H" 
			},
			{
				"x": -0.6156899759,
				"y": -1.2187045817,
				"z": -4.0651332619,
				"element": "H" 
			},
			{
				"x": -1.6384540672,
				"y": -2.2507924088,
				"z": -3.0992775179,
				"element": "H" 
			},
			{
				"x": 0.9864042463,
				"y": 1.0070146834,
				"z": -1.2093367265,
				"element": "H" 
			},
			{
				"x": 2.7667876877,
				"y": 2.6417310383,
				"z": -0.6629723293,
				"element": "H" 
			},
			{
				"x": 0.1440694113,
				"y": 5.0427543181,
				"z": 1.4202775839,
				"element": "H" 
			},
			{
				"x": -1.7634470974,
				"y": 3.5161500787,
				"z": 0.9572794396,
				"element": "H" 
			}
		],
		 "valence_orbital": [ 
			{
				"type": "occ",
				"energy": -0.28335,
				"method": "rhf"
			},
			{
				"type": "occ",
				"energy": -0.27181,
				"method": "rhf"
			},
			{
				"type": "occ",
				"energy": -0.26559,
				"method": "rhf"
			},
			{
				"type": "occ",
				"energy": -0.25857,
				"method": "rhf"
			},
			{
				"type": "occ",
				"energy": -0.25054,
				"method": "rhf"
			},
			{
				"type": "unocc",
				"energy": -0.03696,
				"method": "rhf"
			},
			{
				"type": "unocc",
				"energy": -0.02058,
				"method": "rhf"
			},
			{
				"type": "unocc",
				"energy": -0.0171,
				"method": "rhf"
			},
			{
				"type": "unocc",
				"energy": 0.04011,
				"method": "rhf"
			},
			{
				"type": "unocc",
				"energy": 0.06251,
				"method": "rhf"
			}
		],
		"cosmo_sigma_profile": { 
			"-0.025": 0.0,
			"-0.024": 0.0,
			"-0.023": 0.0,
			"-0.022": 0.0,
			"-0.021": 0.0,
			"-0.02": 0.0,
			"-0.019": 0.0,
			"-0.018": 0.0,
			"-0.017": 0.0,
			"-0.016": 0.227832375063,
			"-0.015": 1.28717436296,
			"-0.014": 1.61442937056,
			"-0.013": 1.1163045637,
			"-0.012": 1.52904684634,
			"-0.011": 2.4029516442,
			"-0.01": 4.41588128739,
			"-0.009": 3.21768768525,
			"-0.008": 4.43590919801,
			"-0.007": 8.86388363978,
			"-0.006": 17.408440094,
			"-0.005": 21.4412543955,
			"-0.004": 25.715977971,
			"-0.003": 30.4420494729,
			"-0.002": 24.3404664423,
			"-0.001": 19.060655127,
			"0.0": 13.4799333177,
			"0.001": 9.89634582338,
			"0.002": 11.707198315,
			"0.003": 8.86010184197,
			"0.004": 7.51351406679,
			"0.005": 5.4486061216,
			"0.006": 5.85049105732,
			"0.007": 7.52147763116,
			"0.008": 8.39912657799,
			"0.009": 6.94120350454,
			"0.01": 11.2046009159,
			"0.011": 14.0609584146,
			"0.012": 6.61617587187,
			"0.013": 1.6809561865,
			"0.014": 1.35888073072,
			"0.015": 0.76874740502,
			"0.016": 0.731871617025,
			"0.017": 0.308087004023,
			"0.018": 0.0,
			"0.019": 0.0,
			"0.02": 0.0,
			"0.021": 0.0,
			"0.022": 0.0,
			"0.023": 0.0,
			"0.024": 0.0,
			"0.025": 0.0
		}
	}
}
