{
	 "smiles": "CC(=O)NC1=C(O)C=C(C)C=C1", 
	 "Tm": 444.15, 
	 "num_atms": 23, 
	 "gaussian": { 
		 "optdone": 1, 
		 "sigma_profile": "yes", 
		 "theory": "DFT", 
		 "functional": "B3LYP", 
		 "basiset": "6-31G**", 
		 "properties": { 
			 "R2extent": 2847.8745, 
			 "electric_dipole_moment_norm": 3.02571322666, 
			 "electric_quadrupole_moment_norm": 15.3522966992, 
			 "total_energy": -554.809225272, 
			 "HOMO_LUMO_gap": 0.2115, 
			 "cosmo_polarized_energy": -12.25, 
			 "cosmo_cavitation_energy": 26.86, 
			 "cosmo_dispersion_energy": -19.12, 
			 "cosmo_repulsion_energy": 1.54, 
			 "cosmo_total_nonelectrostatic_energy": 9.28, 
			 "SMD_solvation_energy": 6.19 
		},
		"coords": [
			{
				"x": -0.5482647626,
				"y": 3.3954144214,
				"z": 1.8098344212,
				"element": "C" 
			},
			{
				"x": 0.1613160113,
				"y": 3.8478658675,
				"z": 0.5478833183,
				"element": "C" 
			},
			{
				"x": 0.3099660239,
				"y": 5.0183881563,
				"z": 0.2413482116,
				"element": "O" 
			},
			{
				"x": 0.690580179,
				"y": 2.8365672652,
				"z": -0.2560323645,
				"element": "N" 
			},
			{
				"x": 0.3341536971,
				"y": 1.4491919185,
				"z": -0.1955965269,
				"element": "C" 
			},
			{
				"x": 1.1206821456,
				"y": 0.5962930585,
				"z": 0.5997641132,
				"element": "C" 
			},
			{
				"x": 2.1758296082,
				"y": 1.0791752741,
				"z": 1.3069864438,
				"element": "O" 
			},
			{
				"x": 0.8186700928,
				"y": -0.7655109641,
				"z": 0.6770469569,
				"element": "C" 
			},
			{
				"x": -0.2557825848,
				"y": -1.3000780276,
				"z": -0.0395438835,
				"element": "C" 
			},
			{
				"x": -0.5926474791,
				"y": -2.7685834173,
				"z": 0.0723134546,
				"element": "C" 
			},
			{
				"x": -1.0270530672,
				"y": -0.4471816549,
				"z": -0.8451910404,
				"element": "C" 
			},
			{
				"x": -0.734881599,
				"y": 0.9128377356,
				"z": -0.9174239905,
				"element": "C" 
			},
			{
				"x": -1.4534341289,
				"y": 2.8312435396,
				"z": 1.5647309652,
				"element": "H" 
			},
			{
				"x": 0.0906942137,
				"y": 2.7389163292,
				"z": 2.408562474,
				"element": "H" 
			},
			{
				"x": -0.8142555794,
				"y": 4.2806424566,
				"z": 2.3865430679,
				"element": "H" 
			},
			{
				"x": 1.0332421522,
				"y": 3.1986276993,
				"z": -1.1400210717,
				"element": "H" 
			},
			{
				"x": 2.2804810008,
				"y": 2.0102240588,
				"z": 1.0467061221,
				"element": "H" 
			},
			{
				"x": 1.4455094781,
				"y": -1.3976467445,
				"z": 1.2986862965,
				"element": "H" 
			},
			{
				"x": -1.0841799095,
				"y": -3.1354129808,
				"z": -0.8334179462,
				"element": "H" 
			},
			{
				"x": 0.3026644431,
				"y": -3.3734560797,
				"z": 0.2432889579,
				"element": "H" 
			},
			{
				"x": -1.2750369868,
				"y": -2.9525263815,
				"z": 0.9114985313,
				"element": "H" 
			},
			{
				"x": -1.8587953644,
				"y": -0.8507342784,
				"z": -1.4153711591,
				"element": "H" 
			},
			{
				"x": -1.3326575842,
				"y": 1.573742748,
				"z": -1.5392953519,
				"element": "H" 
			}
		],
		 "valence_orbital": [ 
			{
				"type": "occ",
				"energy": -0.33382,
				"method": "rhf"
			},
			{
				"type": "occ",
				"energy": -0.2745,
				"method": "rhf"
			},
			{
				"type": "occ",
				"energy": -0.26265,
				"method": "rhf"
			},
			{
				"type": "occ",
				"energy": -0.24679,
				"method": "rhf"
			},
			{
				"type": "occ",
				"energy": -0.22672,
				"method": "rhf"
			},
			{
				"type": "unocc",
				"energy": -0.01522,
				"method": "rhf"
			},
			{
				"type": "unocc",
				"energy": 0.00383,
				"method": "rhf"
			},
			{
				"type": "unocc",
				"energy": 0.01783,
				"method": "rhf"
			},
			{
				"type": "unocc",
				"energy": 0.07472,
				"method": "rhf"
			},
			{
				"type": "unocc",
				"energy": 0.09552,
				"method": "rhf"
			}
		],
		"cosmo_sigma_profile": { 
			"-0.025": 0.0,
			"-0.024": 0.0,
			"-0.023": 0.0,
			"-0.022": 0.0,
			"-0.021": 0.0,
			"-0.02": 0.0,
			"-0.019": 0.0,
			"-0.018": 0.0,
			"-0.017": 0.0,
			"-0.016": 0.0,
			"-0.015": 0.0,
			"-0.014": 0.855004927168,
			"-0.013": 1.71501067756,
			"-0.012": 2.23260568327,
			"-0.011": 1.69466328033,
			"-0.01": 1.77269663039,
			"-0.009": 2.29554809398,
			"-0.008": 1.97986772847,
			"-0.007": 2.70857952608,
			"-0.006": 6.32860146538,
			"-0.005": 14.548803043,
			"-0.004": 20.8391899715,
			"-0.003": 18.4441618515,
			"-0.002": 19.4227932047,
			"-0.001": 21.1441522749,
			"0.0": 16.8338548275,
			"0.001": 10.3737849272,
			"0.002": 8.10953897975,
			"0.003": 10.1177894767,
			"0.004": 10.0875375817,
			"0.005": 10.5391081446,
			"0.006": 3.66531535911,
			"0.007": 2.73749707714,
			"0.008": 2.38889932782,
			"0.009": 3.0434859947,
			"0.01": 2.8257678508,
			"0.011": 3.79179670238,
			"0.012": 2.78395902638,
			"0.013": 5.88623727744,
			"0.014": 2.81149705629,
			"0.015": 0.224447110434,
			"0.016": 0.0,
			"0.017": 0.0,
			"0.018": 0.0,
			"0.019": 0.0,
			"0.02": 0.0,
			"0.021": 0.0,
			"0.022": 0.0,
			"0.023": 0.0,
			"0.024": 0.0,
			"0.025": 0.0
		}
	}
}
