{
	 "smiles": "COC1=C(C=CC=C1)C(N)C(O)=O", 
	 "Tm": 443.15, 
	 "num_atms": 24, 
	 "gaussian": { 
		 "optdone": 1, 
		 "sigma_profile": "yes", 
		 "theory": "DFT", 
		 "functional": "B3LYP", 
		 "basiset": "6-31G**", 
		 "properties": { 
			 "R2extent": 2579.6102, 
			 "electric_dipole_moment_norm": 2.77082449462, 
			 "electric_quadrupole_moment_norm": 10.5313091086, 
			 "total_energy": -630.007312059, 
			 "HOMO_LUMO_gap": 0.21657, 
			 "cosmo_polarized_energy": -14.67, 
			 "cosmo_cavitation_energy": 27.65, 
			 "cosmo_dispersion_energy": -19.51, 
			 "cosmo_repulsion_energy": 1.57, 
			 "cosmo_total_nonelectrostatic_energy": 9.71, 
			 "SMD_solvation_energy": 5.26 
		},
		"coords": [
			{
				"x": 1.7233860372,
				"y": 0.1916067516,
				"z": 3.3339781452,
				"element": "C" 
			},
			{
				"x": 0.9455455836,
				"y": 0.142507047,
				"z": 2.1470834967,
				"element": "O" 
			},
			{
				"x": 1.4385849157,
				"y": -0.5354397596,
				"z": 1.0620512445,
				"element": "C" 
			},
			{
				"x": 0.6412612617,
				"y": -0.4691174265,
				"z": -0.0986542191,
				"element": "C" 
			},
			{
				"x": 1.0770735522,
				"y": -1.1401178976,
				"z": -1.2392309528,
				"element": "C" 
			},
			{
				"x": 2.2750089948,
				"y": -1.8605872008,
				"z": -1.2507499393,
				"element": "C" 
			},
			{
				"x": 3.0504793146,
				"y": -1.9117602335,
				"z": -0.0966482205,
				"element": "C" 
			},
			{
				"x": 2.6380216356,
				"y": -1.2510111355,
				"z": 1.0647489076,
				"element": "C" 
			},
			{
				"x": -0.6732219186,
				"y": 0.2922625528,
				"z": -0.0890289009,
				"element": "C" 
			},
			{
				"x": -1.6845059744,
				"y": -0.3785024125,
				"z": 0.7254402989,
				"element": "N" 
			},
			{
				"x": -0.5091680246,
				"y": 1.7774050904,
				"z": 0.2827893706,
				"element": "C" 
			},
			{
				"x": 0.5427781526,
				"y": 2.3593354587,
				"z": -0.3365428409,
				"element": "O" 
			},
			{
				"x": -1.2763361645,
				"y": 2.3956520103,
				"z": 0.988026009,
				"element": "O" 
			},
			{
				"x": 1.8680068587,
				"y": -0.8080961514,
				"z": 3.7624304944,
				"element": "H" 
			},
			{
				"x": 2.7029761253,
				"y": 0.6508963783,
				"z": 3.1526121308,
				"element": "H" 
			},
			{
				"x": 1.1599761977,
				"y": 0.8068477302,
				"z": 4.0367897639,
				"element": "H" 
			},
			{
				"x": 0.4646050095,
				"y": -1.0971325466,
				"z": -2.135928335,
				"element": "H" 
			},
			{
				"x": 2.5935513927,
				"y": -2.3741472329,
				"z": -2.1523432222,
				"element": "H" 
			},
			{
				"x": 3.9839082267,
				"y": -2.4672164921,
				"z": -0.0872796394,
				"element": "H" 
			},
			{
				"x": 3.2510831916,
				"y": -1.300852585,
				"z": 1.9567560142,
				"element": "H" 
			},
			{
				"x": -1.0357409361,
				"y": 0.3132646532,
				"z": -1.1268341759,
				"element": "H" 
			},
			{
				"x": -1.3183423627,
				"y": -0.4515951836,
				"z": 1.6726359245,
				"element": "H" 
			},
			{
				"x": -2.4871534437,
				"y": 0.2447636957,
				"z": 0.8010182602,
				"element": "H" 
			},
			{
				"x": 0.5203223744,
				"y": 3.2966348896,
				"z": -0.0792196146,
				"element": "H" 
			}
		],
		 "valence_orbital": [ 
			{
				"type": "occ",
				"energy": -0.31306,
				"method": "rhf"
			},
			{
				"type": "occ",
				"energy": -0.27769,
				"method": "rhf"
			},
			{
				"type": "occ",
				"energy": -0.24783,
				"method": "rhf"
			},
			{
				"type": "occ",
				"energy": -0.23706,
				"method": "rhf"
			},
			{
				"type": "occ",
				"energy": -0.22218,
				"method": "rhf"
			},
			{
				"type": "unocc",
				"energy": -0.00561,
				"method": "rhf"
			},
			{
				"type": "unocc",
				"energy": 0.00933,
				"method": "rhf"
			},
			{
				"type": "unocc",
				"energy": 0.01772,
				"method": "rhf"
			},
			{
				"type": "unocc",
				"energy": 0.08089,
				"method": "rhf"
			},
			{
				"type": "unocc",
				"energy": 0.08766,
				"method": "rhf"
			}
		],
		"cosmo_sigma_profile": { 
			"-0.025": 0.0,
			"-0.024": 0.0,
			"-0.023": 0.0,
			"-0.022": 0.0,
			"-0.021": 0.0,
			"-0.02": 0.0,
			"-0.019": 0.0648980195924,
			"-0.018": 0.682641995736,
			"-0.017": 0.751554285024,
			"-0.016": 1.27834229885,
			"-0.015": 0.415366869181,
			"-0.014": 0.267908976484,
			"-0.013": 0.972566945233,
			"-0.012": 1.176168907,
			"-0.011": 0.197544914408,
			"-0.01": 0.687609583967,
			"-0.009": 1.38546457386,
			"-0.008": 2.28501752132,
			"-0.007": 7.35389324995,
			"-0.006": 17.564426922,
			"-0.005": 20.3050627275,
			"-0.004": 19.0265723399,
			"-0.003": 18.4024667839,
			"-0.002": 12.7302932941,
			"-0.001": 9.24597414226,
			"0.0": 9.88941255482,
			"0.001": 9.39517042939,
			"0.002": 10.2546957665,
			"0.003": 8.51900409953,
			"0.004": 12.2167602328,
			"0.005": 12.7991791259,
			"0.006": 9.5851798423,
			"0.007": 4.44917214544,
			"0.008": 4.24630549961,
			"0.009": 5.34069317275,
			"0.01": 3.63120689803,
			"0.011": 3.9464648583,
			"0.012": 4.37534370147,
			"0.013": 1.30597352175,
			"0.014": 0.600723325132,
			"0.015": 0.742010969169,
			"0.016": 0.802658790769,
			"0.017": 0.0623198917742,
			"0.018": 0.987755108423,
			"0.019": 0.418203023803,
			"0.02": 0.0,
			"0.021": 0.0,
			"0.022": 0.0,
			"0.023": 0.0,
			"0.024": 0.0,
			"0.025": 0.0
		}
	}
}
