{
	 "smiles": "CCC(CC)C(=O)N1CCC(CC1)=NO", 
	 "Tm": 375.15, 
	 "num_atms": 35, 
	 "gaussian": { 
		 "optdone": 1, 
		 "sigma_profile": "yes", 
		 "theory": "DFT", 
		 "functional": "B3LYP", 
		 "basiset": "6-31G**", 
		 "properties": { 
			 "R2extent": 5157.5969, 
			 "electric_dipole_moment_norm": 2.85637011782, 
			 "electric_quadrupole_moment_norm": 10.5399084066, 
			 "total_energy": -691.142609762, 
			 "HOMO_LUMO_gap": 0.23411, 
			 "cosmo_polarized_energy": -13.48, 
			 "cosmo_cavitation_energy": 34.76, 
			 "cosmo_dispersion_energy": -24.48, 
			 "cosmo_repulsion_energy": 1.93, 
			 "cosmo_total_nonelectrostatic_energy": 12.21, 
			 "SMD_solvation_energy": 5.51 
		},
		"coords": [
			{
				"x": 1.1804909017,
				"y": -2.9623387255,
				"z": 2.1634948708,
				"element": "C" 
			},
			{
				"x": 0.3259710897,
				"y": -2.5258963858,
				"z": 0.9676202926,
				"element": "C" 
			},
			{
				"x": 0.4383152754,
				"y": -1.0581439631,
				"z": 0.4826415068,
				"element": "C" 
			},
			{
				"x": 1.8987503603,
				"y": -0.589026962,
				"z": 0.2086116992,
				"element": "C" 
			},
			{
				"x": 2.6685015657,
				"y": -0.0051241434,
				"z": 1.4019152675,
				"element": "C" 
			},
			{
				"x": -0.2976129155,
				"y": -0.1002899538,
				"z": 1.431483533,
				"element": "C" 
			},
			{
				"x": -0.4425354047,
				"y": -0.3758432621,
				"z": 2.6211173227,
				"element": "O" 
			},
			{
				"x": -0.7818672047,
				"y": 1.0901178886,
				"z": 0.9217063174,
				"element": "N" 
			},
			{
				"x": -1.4869615955,
				"y": 2.0089924055,
				"z": 1.8176039292,
				"element": "C" 
			},
			{
				"x": -0.8313040139,
				"y": 3.4048472506,
				"z": 1.8247004387,
				"element": "C" 
			},
			{
				"x": -0.6393162517,
				"y": 3.9015124985,
				"z": 0.4142084074,
				"element": "C" 
			},
			{
				"x": -0.0192964874,
				"y": 2.9226407627,
				"z": -0.5516304941,
				"element": "C" 
			},
			{
				"x": -0.7207896601,
				"y": 1.5510883623,
				"z": -0.4625919255,
				"element": "C" 
			},
			{
				"x": -0.974835784,
				"y": 5.0454041661,
				"z": -0.0555534844,
				"element": "N" 
			},
			{
				"x": -1.5402284242,
				"y": 5.884174475,
				"z": 0.9275256552,
				"element": "O" 
			},
			{
				"x": 2.2515794028,
				"y": -2.9010878837,
				"z": 1.9442346644,
				"element": "H" 
			},
			{
				"x": 0.9630423712,
				"y": -2.3498105771,
				"z": 3.0395107137,
				"element": "H" 
			},
			{
				"x": 0.9638286077,
				"y": -4.0075090961,
				"z": 2.4104931176,
				"element": "H" 
			},
			{
				"x": 0.5755724564,
				"y": -3.1604338533,
				"z": 0.1064134276,
				"element": "H" 
			},
			{
				"x": -0.7276566258,
				"y": -2.7223604632,
				"z": 1.1968422978,
				"element": "H" 
			},
			{
				"x": -0.0824872179,
				"y": -1.0429750846,
				"z": -0.4825504421,
				"element": "H" 
			},
			{
				"x": 1.8880758951,
				"y": 0.163981974,
				"z": -0.589581139,
				"element": "H" 
			},
			{
				"x": 2.4490293447,
				"y": -1.4448810793,
				"z": -0.202178214,
				"element": "H" 
			},
			{
				"x": 3.6876427691,
				"y": 0.2572774308,
				"z": 1.0988205634,
				"element": "H" 
			},
			{
				"x": 2.7342145984,
				"y": -0.704740144,
				"z": 2.2370418795,
				"element": "H" 
			},
			{
				"x": 2.1907616235,
				"y": 0.9055120491,
				"z": 1.7772506451,
				"element": "H" 
			},
			{
				"x": -1.4803717844,
				"y": 1.5653966624,
				"z": 2.8121178691,
				"element": "H" 
			},
			{
				"x": -2.5306700654,
				"y": 2.0994921566,
				"z": 1.4840163317,
				"element": "H" 
			},
			{
				"x": 0.1506618945,
				"y": 3.3299386801,
				"z": 2.3111591165,
				"element": "H" 
			},
			{
				"x": -1.4362142601,
				"y": 4.1072204469,
				"z": 2.3999474001,
				"element": "H" 
			},
			{
				"x": 1.0406958628,
				"y": 2.7857221179,
				"z": -0.2967249028,
				"element": "H" 
			},
			{
				"x": -0.0750292933,
				"y": 3.3204837498,
				"z": -1.5687063434,
				"element": "H" 
			},
			{
				"x": -1.7446241171,
				"y": 1.6447658362,
				"z": -0.8546105458,
				"element": "H" 
			},
			{
				"x": -0.1983939353,
				"y": 0.8271155958,
				"z": -1.0846900199,
				"element": "H" 
			},
			{
				"x": -1.7470389779,
				"y": 6.6763770686,
				"z": 0.4151402441,
				"element": "H" 
			}
		],
		 "valence_orbital": [ 
			{
				"type": "occ",
				"energy": -0.30911,
				"method": "rhf"
			},
			{
				"type": "occ",
				"energy": -0.27105,
				"method": "rhf"
			},
			{
				"type": "occ",
				"energy": -0.25519,
				"method": "rhf"
			},
			{
				"type": "occ",
				"energy": -0.23978,
				"method": "rhf"
			},
			{
				"type": "occ",
				"energy": -0.23373,
				"method": "rhf"
			},
			{
				"type": "unocc",
				"energy": 0.00038,
				"method": "rhf"
			},
			{
				"type": "unocc",
				"energy": 0.02807,
				"method": "rhf"
			},
			{
				"type": "unocc",
				"energy": 0.0708,
				"method": "rhf"
			},
			{
				"type": "unocc",
				"energy": 0.07681,
				"method": "rhf"
			},
			{
				"type": "unocc",
				"energy": 0.09676,
				"method": "rhf"
			}
		],
		"cosmo_sigma_profile": { 
			"-0.025": 0.0,
			"-0.024": 0.0,
			"-0.023": 0.0,
			"-0.022": 0.0,
			"-0.021": 0.0,
			"-0.02": 0.0,
			"-0.019": 0.0,
			"-0.018": 0.0,
			"-0.017": 0.341213344823,
			"-0.016": 1.26096625552,
			"-0.015": 0.521286156627,
			"-0.014": 0.709053020651,
			"-0.013": 1.14227581038,
			"-0.012": 0.774842509833,
			"-0.011": 0.767070404805,
			"-0.01": 0.671994218799,
			"-0.009": 0.276366910889,
			"-0.008": 0.523127942283,
			"-0.007": 2.34135053103,
			"-0.006": 4.15141632631,
			"-0.005": 13.2498228964,
			"-0.004": 24.4389701071,
			"-0.003": 28.9036376696,
			"-0.002": 40.558975064,
			"-0.001": 30.5170092022,
			"0.0": 25.2462140076,
			"0.001": 22.2621760151,
			"0.002": 15.0338966899,
			"0.003": 5.68494701778,
			"0.004": 4.64047222795,
			"0.005": 5.2915817792,
			"0.006": 6.36859335253,
			"0.007": 5.85655960328,
			"0.008": 5.16208435944,
			"0.009": 5.22169809108,
			"0.01": 4.65988507706,
			"0.011": 3.02685478476,
			"0.012": 2.52883522709,
			"0.013": 3.32701064187,
			"0.014": 3.68512629442,
			"0.015": 0.2199833547,
			"0.016": 0.0,
			"0.017": 0.0,
			"0.018": 0.0,
			"0.019": 0.0,
			"0.02": 0.0,
			"0.021": 0.0,
			"0.022": 0.0,
			"0.023": 0.0,
			"0.024": 0.0,
			"0.025": 0.0
		}
	}
}
