{
	 "smiles": "O=C1CCCC2CCCCC12", 
	 "Tm": 306.15, 
	 "num_atms": 27, 
	 "gaussian": { 
		 "optdone": 1, 
		 "sigma_profile": "yes", 
		 "theory": "DFT", 
		 "functional": "B3LYP", 
		 "basiset": "6-31G**", 
		 "properties": { 
			 "R2extent": 1981.3175, 
			 "electric_dipole_moment_norm": 2.97736704657, 
			 "electric_quadrupole_moment_norm": 10.7975850953, 
			 "total_energy": -465.94885359, 
			 "HOMO_LUMO_gap": 0.22009, 
			 "cosmo_polarized_energy": -6.72, 
			 "cosmo_cavitation_energy": 25.94, 
			 "cosmo_dispersion_energy": -19.47, 
			 "cosmo_repulsion_energy": 1.55, 
			 "cosmo_total_nonelectrostatic_energy": 8.02, 
			 "SMD_solvation_energy": 3.74 
		},
		"coords": [
			{
				"x": 2.7709684335,
				"y": -0.4585988463,
				"z": -0.5145136272,
				"element": "O" 
			},
			{
				"x": 1.6183377663,
				"y": -0.482847419,
				"z": -0.1228629707,
				"element": "C" 
			},
			{
				"x": 1.2285756792,
				"y": -1.0295640527,
				"z": 1.2419606708,
				"element": "C" 
			},
			{
				"x": -0.0482986638,
				"y": -1.8822153156,
				"z": 1.137357946,
				"element": "C" 
			},
			{
				"x": -1.2529567631,
				"y": -1.0870830267,
				"z": 0.5718745257,
				"element": "C" 
			},
			{
				"x": -0.852217336,
				"y": 0.1843603664,
				"z": -0.221640661,
				"element": "C" 
			},
			{
				"x": -1.9763376053,
				"y": 0.6659910921,
				"z": -1.1638719381,
				"element": "C" 
			},
			{
				"x": -2.1313426052,
				"y": -0.2120025215,
				"z": -2.4173478606,
				"element": "C" 
			},
			{
				"x": -0.8002791761,
				"y": -0.3635771012,
				"z": -3.1696151339,
				"element": "C" 
			},
			{
				"x": 0.3077208174,
				"y": -0.8932611,
				"z": -2.2482839884,
				"element": "C" 
			},
			{
				"x": 0.4693185296,
				"y": 0.0135122943,
				"z": -1.0050216537,
				"element": "C" 
			},
			{
				"x": 2.075024351,
				"y": -1.5921652903,
				"z": 1.6445720266,
				"element": "H" 
			},
			{
				"x": 1.0545446878,
				"y": -0.1763221607,
				"z": 1.9142378094,
				"element": "H" 
			},
			{
				"x": -0.2954895506,
				"y": -2.3007646573,
				"z": 2.1185322808,
				"element": "H" 
			},
			{
				"x": 0.1678286189,
				"y": -2.7411450833,
				"z": 0.4906020998,
				"element": "H" 
			},
			{
				"x": -1.9122168545,
				"y": -0.77444258,
				"z": 1.3901779597,
				"element": "H" 
			},
			{
				"x": -1.8546354115,
				"y": -1.7530828607,
				"z": -0.0556981597,
				"element": "H" 
			},
			{
				"x": -0.6832719057,
				"y": 0.9809755121,
				"z": 0.5159435104,
				"element": "H" 
			},
			{
				"x": -1.7510120095,
				"y": 1.6936799809,
				"z": -1.4806253235,
				"element": "H" 
			},
			{
				"x": -2.9249545393,
				"y": 0.7137863356,
				"z": -0.6140770051,
				"element": "H" 
			},
			{
				"x": -2.8939270865,
				"y": 0.2191560728,
				"z": -3.0766739947,
				"element": "H" 
			},
			{
				"x": -2.5004150897,
				"y": -1.2073197394,
				"z": -2.1356257831,
				"element": "H" 
			},
			{
				"x": -0.9238500799,
				"y": -1.0303686454,
				"z": -4.0312965708,
				"element": "H" 
			},
			{
				"x": -0.4958581866,
				"y": 0.6135236394,
				"z": -3.5708427522,
				"element": "H" 
			},
			{
				"x": 0.0639026662,
				"y": -1.9182149285,
				"z": -1.9364727123,
				"element": "H" 
			},
			{
				"x": 1.2678249505,
				"y": -0.9435618806,
				"z": -2.7713139498,
				"element": "H" 
			},
			{
				"x": 0.7851163627,
				"y": 0.9997519157,
				"z": -1.3747747443,
				"element": "H" 
			}
		],
		 "valence_orbital": [ 
			{
				"type": "occ",
				"energy": -0.32749,
				"method": "rhf"
			},
			{
				"type": "occ",
				"energy": -0.31202,
				"method": "rhf"
			},
			{
				"type": "occ",
				"energy": -0.30171,
				"method": "rhf"
			},
			{
				"type": "occ",
				"energy": -0.29393,
				"method": "rhf"
			},
			{
				"type": "occ",
				"energy": -0.23018,
				"method": "rhf"
			},
			{
				"type": "unocc",
				"energy": -0.01009,
				"method": "rhf"
			},
			{
				"type": "unocc",
				"energy": 0.07025,
				"method": "rhf"
			},
			{
				"type": "unocc",
				"energy": 0.08418,
				"method": "rhf"
			},
			{
				"type": "unocc",
				"energy": 0.10317,
				"method": "rhf"
			},
			{
				"type": "unocc",
				"energy": 0.12446,
				"method": "rhf"
			}
		],
		"cosmo_sigma_profile": { 
			"-0.025": 0.0,
			"-0.024": 0.0,
			"-0.023": 0.0,
			"-0.022": 0.0,
			"-0.021": 0.0,
			"-0.02": 0.0,
			"-0.019": 0.0,
			"-0.018": 0.0,
			"-0.017": 0.0,
			"-0.016": 0.0,
			"-0.015": 0.0,
			"-0.014": 0.0,
			"-0.013": 0.0,
			"-0.012": 0.0,
			"-0.011": 0.0,
			"-0.01": 0.0,
			"-0.009": 0.0,
			"-0.008": 0.0,
			"-0.007": 0.0,
			"-0.006": 0.619585327268,
			"-0.005": 4.56014255341,
			"-0.004": 9.51121208334,
			"-0.003": 23.6376784491,
			"-0.002": 41.0586185559,
			"-0.001": 38.5424790484,
			"0.0": 31.4692355669,
			"0.001": 20.597645685,
			"0.002": 3.87400200889,
			"0.003": 2.40362180291,
			"0.004": 1.75019218086,
			"0.005": 1.4440712805,
			"0.006": 2.14971098652,
			"0.007": 1.06727091674,
			"0.008": 1.43908586183,
			"0.009": 1.83250296146,
			"0.01": 1.95762995515,
			"0.011": 2.15485715329,
			"0.012": 3.90832481,
			"0.013": 4.07632495647,
			"0.014": 1.14503590449,
			"0.015": 0.0104385835578,
			"0.016": 0.0,
			"0.017": 0.0,
			"0.018": 0.0,
			"0.019": 0.0,
			"0.02": 0.0,
			"0.021": 0.0,
			"0.022": 0.0,
			"0.023": 0.0,
			"0.024": 0.0,
			"0.025": 0.0
		}
	}
}
