{
	 "smiles": "COC(=O)C1=CN=C(SCC(=O)NC(=O)NC2=CC=C(Cl)C=C2)N1C", 
	 "Tm": 481.15, 
	 "num_atms": 40, 
	 "gaussian": { 
		 "optdone": 1, 
		 "sigma_profile": "yes", 
		 "theory": "DFT", 
		 "functional": "B3LYP", 
		 "basiset": "6-31G**", 
		 "properties": { 
			 "R2extent": 13860.342, 
			 "electric_dipole_moment_norm": 2.9249014633, 
			 "electric_quadrupole_moment_norm": 40.7564818992, 
			 "total_energy": -1958.95453141, 
			 "HOMO_LUMO_gap": 0.18528, 
			 "cosmo_polarized_energy": -22.87, 
			 "cosmo_cavitation_energy": 49.03, 
			 "cosmo_dispersion_energy": -33.18, 
			 "cosmo_repulsion_energy": 2.46, 
			 "cosmo_total_nonelectrostatic_energy": 18.31, 
			 "SMD_solvation_energy": 9.96 
		},
		"coords": [
			{
				"x": 5.7987152428,
				"y": 0.1210493467,
				"z": 1.2578649391,
				"element": "C" 
			},
			{
				"x": 4.6098377758,
				"y": -0.0950181994,
				"z": 0.4771008231,
				"element": "O" 
			},
			{
				"x": 3.5156348327,
				"y": -0.4551698419,
				"z": 1.1920440826,
				"element": "C" 
			},
			{
				"x": 3.520140159,
				"y": -0.5939069133,
				"z": 2.3993044922,
				"element": "O" 
			},
			{
				"x": 2.3190542292,
				"y": -0.6599239073,
				"z": 0.3685697683,
				"element": "C" 
			},
			{
				"x": 1.0665006404,
				"y": -1.0096172176,
				"z": 0.8416951557,
				"element": "C" 
			},
			{
				"x": 0.1776005102,
				"y": -1.12180609,
				"z": -0.1774004099,
				"element": "N" 
			},
			{
				"x": 0.8658038824,
				"y": -0.8365487187,
				"z": -1.2818385936,
				"element": "C" 
			},
			{
				"x": 0.1696818154,
				"y": -0.8903940918,
				"z": -2.9066781846,
				"element": "S" 
			},
			{
				"x": -0.4524115152,
				"y": 0.8455411185,
				"z": -3.1029977259,
				"element": "C" 
			},
			{
				"x": -1.2888863132,
				"y": 1.2949158468,
				"z": -1.9199029836,
				"element": "C" 
			},
			{
				"x": -0.8808788887,
				"y": 2.1287471348,
				"z": -1.1318414204,
				"element": "O" 
			},
			{
				"x": -2.5194842518,
				"y": 0.6824590326,
				"z": -1.6992628879,
				"element": "N" 
			},
			{
				"x": -3.2275137094,
				"y": -0.1774326087,
				"z": -2.5452986517,
				"element": "C" 
			},
			{
				"x": -3.03516749,
				"y": -0.2599379338,
				"z": -3.7496240884,
				"element": "O" 
			},
			{
				"x": -4.2238795353,
				"y": -0.8982076612,
				"z": -1.9218052176,
				"element": "N" 
			},
			{
				"x": -4.4438224958,
				"y": -1.1504877782,
				"z": -0.5429221099,
				"element": "C" 
			},
			{
				"x": -5.7659715872,
				"y": -1.2102839536,
				"z": -0.0803931449,
				"element": "C" 
			},
			{
				"x": -6.0387364957,
				"y": -1.5014714421,
				"z": 1.2535760767,
				"element": "C" 
			},
			{
				"x": -4.9785206409,
				"y": -1.7117254523,
				"z": 2.1352101344,
				"element": "C" 
			},
			{
				"x": -5.3136956344,
				"y": -2.0614672959,
				"z": 3.8236123297,
				"element": "Cl" 
			},
			{
				"x": -3.6585015372,
				"y": -1.6528819019,
				"z": 1.6911295684,
				"element": "C" 
			},
			{
				"x": -3.3859676672,
				"y": -1.3892304085,
				"z": 0.3486656362,
				"element": "C" 
			},
			{
				"x": 2.1805826178,
				"y": -0.5511202916,
				"z": -1.008030037,
				"element": "N" 
			},
			{
				"x": 3.2084184171,
				"y": -0.1940791981,
				"z": -1.9827589558,
				"element": "C" 
			},
			{
				"x": 5.6399280729,
				"y": 0.921716792,
				"z": 1.9839566184,
				"element": "H" 
			},
			{
				"x": 6.5722407671,
				"y": 0.3990216385,
				"z": 0.5422419626,
				"element": "H" 
			},
			{
				"x": 6.077548477,
				"y": -0.7899997662,
				"z": 1.7924836157,
				"element": "H" 
			},
			{
				"x": 0.7968153296,
				"y": -1.1803502981,
				"z": 1.8740268749,
				"element": "H" 
			},
			{
				"x": -1.0430771012,
				"y": 0.8058122608,
				"z": -4.0189170324,
				"element": "H" 
			},
			{
				"x": 0.3807514911,
				"y": 1.542273952,
				"z": -3.1928232458,
				"element": "H" 
			},
			{
				"x": -2.9049032377,
				"y": 0.8919651902,
				"z": -0.7860082909,
				"element": "H" 
			},
			{
				"x": -4.8143393088,
				"y": -1.3772335417,
				"z": -2.5883522609,
				"element": "H" 
			},
			{
				"x": -6.5838986276,
				"y": -1.0214021854,
				"z": -0.7697858231,
				"element": "H" 
			},
			{
				"x": -7.061986178,
				"y": -1.5508201616,
				"z": 1.6086463153,
				"element": "H" 
			},
			{
				"x": -2.8435738086,
				"y": -1.8344378965,
				"z": 2.3828918072,
				"element": "H" 
			},
			{
				"x": -2.3529751365,
				"y": -1.3868103985,
				"z": 0.0090857159,
				"element": "H" 
			},
			{
				"x": 2.7623414476,
				"y": -0.2569388984,
				"z": -2.9746505548,
				"element": "H" 
			},
			{
				"x": 3.5699387825,
				"y": 0.8186383909,
				"z": -1.7962976571,
				"element": "H" 
			},
			{
				"x": 4.0498566696,
				"y": -0.8839366515,
				"z": -1.9103166401,
				"element": "H" 
			}
		],
		 "valence_orbital": [ 
			{
				"type": "occ",
				"energy": -0.2741,
				"method": "rhf"
			},
			{
				"type": "occ",
				"energy": -0.27205,
				"method": "rhf"
			},
			{
				"type": "occ",
				"energy": -0.25248,
				"method": "rhf"
			},
			{
				"type": "occ",
				"energy": -0.24522,
				"method": "rhf"
			},
			{
				"type": "occ",
				"energy": -0.23452,
				"method": "rhf"
			},
			{
				"type": "unocc",
				"energy": -0.04924,
				"method": "rhf"
			},
			{
				"type": "unocc",
				"energy": -0.03589,
				"method": "rhf"
			},
			{
				"type": "unocc",
				"energy": -0.0241,
				"method": "rhf"
			},
			{
				"type": "unocc",
				"energy": -0.01688,
				"method": "rhf"
			},
			{
				"type": "unocc",
				"energy": 0.01286,
				"method": "rhf"
			}
		],
		"cosmo_sigma_profile": { 
			"-0.025": 0.0,
			"-0.024": 0.0,
			"-0.023": 0.0,
			"-0.022": 0.0,
			"-0.021": 0.0,
			"-0.02": 0.0,
			"-0.019": 0.0,
			"-0.018": 0.0,
			"-0.017": 0.0,
			"-0.016": 0.0410992670612,
			"-0.015": 1.06750749687,
			"-0.014": 1.4151988374,
			"-0.013": 2.11781507933,
			"-0.012": 1.7637820964,
			"-0.011": 1.64829132767,
			"-0.01": 2.28659884529,
			"-0.009": 2.11170966287,
			"-0.008": 4.7329173355,
			"-0.007": 13.0745449296,
			"-0.006": 23.4267688703,
			"-0.005": 27.7035629419,
			"-0.004": 30.6480856905,
			"-0.003": 31.4722726251,
			"-0.002": 23.6215777395,
			"-0.001": 24.0398787626,
			"0.0": 26.1688410437,
			"0.001": 29.2691698301,
			"0.002": 30.8901092647,
			"0.003": 30.0355939556,
			"0.004": 19.3492071564,
			"0.005": 15.1631873298,
			"0.006": 8.17862180118,
			"0.007": 6.07060353043,
			"0.008": 6.31553275402,
			"0.009": 5.04178184555,
			"0.01": 6.09195390774,
			"0.011": 9.67244542368,
			"0.012": 10.4787554718,
			"0.013": 2.13011784555,
			"0.014": 0.0241682847554,
			"0.015": 0.0,
			"0.016": 0.0,
			"0.017": 0.0,
			"0.018": 0.0,
			"0.019": 0.0,
			"0.02": 0.0,
			"0.021": 0.0,
			"0.022": 0.0,
			"0.023": 0.0,
			"0.024": 0.0,
			"0.025": 0.0
		}
	}
}
