{
	 "smiles": "[O-][N+](=O)C1=CC=CC(=C1)N=C=S", 
	 "Tm": 332.15, 
	 "num_atms": 16, 
	 "gaussian": { 
		 "optdone": 1, 
		 "sigma_profile": "yes", 
		 "theory": "DFT", 
		 "functional": "B3LYP", 
		 "basiset": "6-31G**", 
		 "properties": { 
			 "R2extent": 3805.2771, 
			 "electric_dipole_moment_norm": 3.86347331555, 
			 "electric_quadrupole_moment_norm": 14.2395484869, 
			 "total_energy": -927.183632344, 
			 "HOMO_LUMO_gap": 0.14701, 
			 "cosmo_polarized_energy": -9.55, 
			 "cosmo_cavitation_energy": 24.99, 
			 "cosmo_dispersion_energy": -18.58, 
			 "cosmo_repulsion_energy": 1.45, 
			 "cosmo_total_nonelectrostatic_energy": 7.86, 
			 "SMD_solvation_energy": 7.23 
		},
		"coords": [
			{
				"x": 2.1795061592,
				"y": 0.7524297627,
				"z": 0.7621982715,
				"element": "O" 
			},
			{
				"x": 1.6716361371,
				"y": -0.3587651245,
				"z": 0.8964944379,
				"element": "N" 
			},
			{
				"x": 2.2825361049,
				"y": -1.3836189095,
				"z": 1.1917736369,
				"element": "O" 
			},
			{
				"x": 0.2144123078,
				"y": -0.4727813082,
				"z": 0.6870326581,
				"element": "C" 
			},
			{
				"x": -0.3903553421,
				"y": -1.7193416623,
				"z": 0.8323003772,
				"element": "C" 
			},
			{
				"x": -1.7675351716,
				"y": -1.8115262183,
				"z": 0.63118561,
				"element": "C" 
			},
			{
				"x": -2.5140437604,
				"y": -0.6851545063,
				"z": 0.2943148575,
				"element": "C" 
			},
			{
				"x": -1.8782767734,
				"y": 0.562768461,
				"z": 0.1537949475,
				"element": "C" 
			},
			{
				"x": -0.4945019762,
				"y": 0.6746202712,
				"z": 0.3521090936,
				"element": "C" 
			},
			{
				"x": -2.6111123834,
				"y": 1.6702185488,
				"z": -0.1773296627,
				"element": "N" 
			},
			{
				"x": -3.248678321,
				"y": 2.6321248759,
				"z": -0.4618441442,
				"element": "C" 
			},
			{
				"x": -4.1036107107,
				"y": 3.9164506786,
				"z": -0.8431547571,
				"element": "S" 
			},
			{
				"x": 0.2131445528,
				"y": -2.5785738886,
				"z": 1.094581292,
				"element": "H" 
			},
			{
				"x": -2.2639036238,
				"y": -2.7704096925,
				"z": 0.7379848386,
				"element": "H" 
			},
			{
				"x": -3.5849706827,
				"y": -0.7518901637,
				"z": 0.1369230043,
				"element": "H" 
			},
			{
				"x": 0.0157534837,
				"y": 1.6231488757,
				"z": 0.249535539,
				"element": "H" 
			}
		],
		 "valence_orbital": [ 
			{
				"type": "occ",
				"energy": -0.31542,
				"method": "rhf"
			},
			{
				"type": "occ",
				"energy": -0.30451,
				"method": "rhf"
			},
			{
				"type": "occ",
				"energy": -0.30125,
				"method": "rhf"
			},
			{
				"type": "occ",
				"energy": -0.26658,
				"method": "rhf"
			},
			{
				"type": "occ",
				"energy": -0.25055,
				"method": "rhf"
			},
			{
				"type": "unocc",
				"energy": -0.10354,
				"method": "rhf"
			},
			{
				"type": "unocc",
				"energy": -0.06788,
				"method": "rhf"
			},
			{
				"type": "unocc",
				"energy": -0.02291,
				"method": "rhf"
			},
			{
				"type": "unocc",
				"energy": -0.01107,
				"method": "rhf"
			},
			{
				"type": "unocc",
				"energy": 0.0331,
				"method": "rhf"
			}
		],
		"cosmo_sigma_profile": { 
			"-0.025": 0.0,
			"-0.024": 0.0,
			"-0.023": 0.0,
			"-0.022": 0.0,
			"-0.021": 0.0,
			"-0.02": 0.0,
			"-0.019": 0.0,
			"-0.018": 0.0,
			"-0.017": 0.0,
			"-0.016": 0.0,
			"-0.015": 0.0,
			"-0.014": 0.0,
			"-0.013": 0.0,
			"-0.012": 0.0,
			"-0.011": 0.0,
			"-0.01": 0.0,
			"-0.009": 2.34486934048,
			"-0.008": 7.49750743565,
			"-0.007": 9.72543863421,
			"-0.006": 8.64408603784,
			"-0.005": 8.65578403839,
			"-0.004": 9.48236590351,
			"-0.003": 14.6061378442,
			"-0.002": 20.5962362679,
			"-0.001": 23.4929994938,
			"0.0": 16.8077424892,
			"0.001": 12.859512366,
			"0.002": 7.84422758254,
			"0.003": 7.94815774338,
			"0.004": 9.43995464945,
			"0.005": 15.6504230409,
			"0.006": 10.2528878917,
			"0.007": 9.61039866901,
			"0.008": 5.62883023635,
			"0.009": 3.7590444334,
			"0.01": 1.34467538504,
			"0.011": 0.0,
			"0.012": 0.0,
			"0.013": 0.0,
			"0.014": 0.0,
			"0.015": 0.0,
			"0.016": 0.0,
			"0.017": 0.0,
			"0.018": 0.0,
			"0.019": 0.0,
			"0.02": 0.0,
			"0.021": 0.0,
			"0.022": 0.0,
			"0.023": 0.0,
			"0.024": 0.0,
			"0.025": 0.0
		}
	}
}
