{
	 "smiles": "NC1=CC2=C(NC(S)=N2)C=C1", 
	 "Tm": 515.15, 
	 "num_atms": 18, 
	 "gaussian": { 
		 "optdone": 1, 
		 "sigma_profile": "yes", 
		 "theory": "DFT", 
		 "functional": "B3LYP", 
		 "basiset": "6-31G**", 
		 "properties": { 
			 "R2extent": 2975.5096, 
			 "electric_dipole_moment_norm": 2.24940268738, 
			 "electric_quadrupole_moment_norm": 12.9352354389, 
			 "total_energy": -833.410416396, 
			 "HOMO_LUMO_gap": 0.17875, 
			 "cosmo_polarized_energy": -16.35, 
			 "cosmo_cavitation_energy": 23.99, 
			 "cosmo_dispersion_energy": -18.79, 
			 "cosmo_repulsion_energy": 1.46, 
			 "cosmo_total_nonelectrostatic_energy": 6.66, 
			 "SMD_solvation_energy": 1.33 
		},
		"coords": [
			{
				"x": -0.0590192743,
				"y": -1.925201587,
				"z": 2.4182320125,
				"element": "N" 
			},
			{
				"x": -0.2735696954,
				"y": -1.493074367,
				"z": 1.0986448155,
				"element": "C" 
			},
			{
				"x": -1.0583292857,
				"y": -0.3637275743,
				"z": 0.8381042619,
				"element": "C" 
			},
			{
				"x": -1.1909159582,
				"y": 0.0670852136,
				"z": -0.4853434521,
				"element": "C" 
			},
			{
				"x": -0.5456312582,
				"y": -0.6319092811,
				"z": -1.5306340917,
				"element": "C" 
			},
			{
				"x": -0.8974040785,
				"y": 0.0614916927,
				"z": -2.6867020052,
				"element": "N" 
			},
			{
				"x": -1.7039765537,
				"y": 1.099703263,
				"z": -2.2847678717,
				"element": "C" 
			},
			{
				"x": -2.3661401065,
				"y": 2.2285559415,
				"z": -3.4762451269,
				"element": "S" 
			},
			{
				"x": -1.9094641806,
				"y": 1.1462909317,
				"z": -0.9923441663,
				"element": "N" 
			},
			{
				"x": 0.2365973796,
				"y": -1.7582239576,
				"z": -1.2896441796,
				"element": "C" 
			},
			{
				"x": 0.3632751859,
				"y": -2.1751141786,
				"z": 0.0327524066,
				"element": "C" 
			},
			{
				"x": 0.1295354965,
				"y": -2.9152176196,
				"z": 2.5048648537,
				"element": "H" 
			},
			{
				"x": -0.7796109277,
				"y": -1.6389614213,
				"z": 3.0678399642,
				"element": "H" 
			},
			{
				"x": -1.5538082507,
				"y": 0.1754759787,
				"z": 1.6398950379,
				"element": "H" 
			},
			{
				"x": -0.6139195587,
				"y": -0.1480795914,
				"z": -3.630646762,
				"element": "H" 
			},
			{
				"x": -3.0045717487,
				"y": 2.9584922171,
				"z": -2.5437159008,
				"element": "H" 
			},
			{
				"x": 0.7327770364,
				"y": -2.2992385134,
				"z": -2.0897951675,
				"element": "H" 
			},
			{
				"x": 0.9745757784,
				"y": -3.0447471469,
				"z": 0.2592053714,
				"element": "H" 
			}
		],
		 "valence_orbital": [ 
			{
				"type": "occ",
				"energy": -0.29339,
				"method": "rhf"
			},
			{
				"type": "occ",
				"energy": -0.27161,
				"method": "rhf"
			},
			{
				"type": "occ",
				"energy": -0.26726,
				"method": "rhf"
			},
			{
				"type": "occ",
				"energy": -0.21311,
				"method": "rhf"
			},
			{
				"type": "occ",
				"energy": -0.18738,
				"method": "rhf"
			},
			{
				"type": "unocc",
				"energy": -0.00863,
				"method": "rhf"
			},
			{
				"type": "unocc",
				"energy": 0.00546,
				"method": "rhf"
			},
			{
				"type": "unocc",
				"energy": 0.03734,
				"method": "rhf"
			},
			{
				"type": "unocc",
				"energy": 0.05776,
				"method": "rhf"
			},
			{
				"type": "unocc",
				"energy": 0.06999,
				"method": "rhf"
			}
		],
		"cosmo_sigma_profile": { 
			"-0.025": 0.0,
			"-0.024": 0.0,
			"-0.023": 0.0,
			"-0.022": 0.0,
			"-0.021": 0.0,
			"-0.02": 0.0,
			"-0.019": 0.0,
			"-0.018": 0.0,
			"-0.017": 0.651920239343,
			"-0.016": 1.64076711168,
			"-0.015": 1.34665770075,
			"-0.014": 1.18603389274,
			"-0.013": 1.47035789602,
			"-0.012": 3.34411097447,
			"-0.011": 5.06792552816,
			"-0.01": 5.0001806584,
			"-0.009": 5.21637173661,
			"-0.008": 5.76859399409,
			"-0.007": 5.83289634987,
			"-0.006": 8.51894450219,
			"-0.005": 8.73134643304,
			"-0.004": 8.78560320325,
			"-0.003": 6.69506954613,
			"-0.002": 6.46660793157,
			"-0.001": 8.26646603667,
			"0.0": 8.22149347508,
			"0.001": 9.95400774889,
			"0.002": 13.4348823884,
			"0.003": 12.4418801882,
			"0.004": 11.7467712687,
			"0.005": 13.2778950198,
			"0.006": 15.1696699093,
			"0.007": 8.51610127666,
			"0.008": 2.87016250612,
			"0.009": 2.2476948496,
			"0.01": 1.87730082374,
			"0.011": 2.21825117597,
			"0.012": 1.94571530019,
			"0.013": 1.21925797237,
			"0.014": 1.77971215177,
			"0.015": 1.45175190475,
			"0.016": 1.23801836129,
			"0.017": 0.456766041541,
			"0.018": 0.000443583694105,
			"0.019": 0.0,
			"0.02": 0.0,
			"0.021": 0.0,
			"0.022": 0.0,
			"0.023": 0.0,
			"0.024": 0.0,
			"0.025": 0.0
		}
	}
}
