{
	 "smiles": "COC1C(OC2OC3(CCCCC3)OC12)C1COC2(CCCCC2)O1", 
	 "Tm": 309.65, 
	 "num_atms": 55, 
	 "gaussian": { 
		 "optdone": 1, 
		 "sigma_profile": "yes", 
		 "theory": "DFT", 
		 "functional": "B3LYP", 
		 "basiset": "6-31G**", 
		 "properties": { 
			 "R2extent": 11415.767, 
			 "electric_dipole_moment_norm": 2.64432103006, 
			 "electric_quadrupole_moment_norm": 4.84513656773, 
			 "total_energy": -1193.42717463, 
			 "HOMO_LUMO_gap": 0.2976, 
			 "cosmo_polarized_energy": -13.49, 
			 "cosmo_cavitation_energy": 51.09, 
			 "cosmo_dispersion_energy": -34.83, 
			 "cosmo_repulsion_energy": 2.67, 
			 "cosmo_total_nonelectrostatic_energy": 18.92, 
			 "SMD_solvation_energy": 6.68 
		},
		"coords": [
			{
				"x": 2.2759290037,
				"y": 2.1558348914,
				"z": 0.6943861069,
				"element": "C" 
			},
			{
				"x": 1.9482176205,
				"y": 0.7907644736,
				"z": 0.8900495478,
				"element": "O" 
			},
			{
				"x": 0.6987329862,
				"y": 0.4176565528,
				"z": 0.3621920375,
				"element": "C" 
			},
			{
				"x": 0.4160330334,
				"y": -1.0602773233,
				"z": 0.672891493,
				"element": "C" 
			},
			{
				"x": -0.5969797459,
				"y": -1.4140908301,
				"z": -0.277086661,
				"element": "O" 
			},
			{
				"x": -0.3419594242,
				"y": -0.7540216195,
				"z": -1.4916013265,
				"element": "C" 
			},
			{
				"x": 0.4099583663,
				"y": -1.555536913,
				"z": -2.3838196792,
				"element": "O" 
			},
			{
				"x": 1.5798716201,
				"y": -0.8533324121,
				"z": -2.8028836755,
				"element": "C" 
			},
			{
				"x": 2.7648468164,
				"y": -1.8299290067,
				"z": -2.868991205,
				"element": "C" 
			},
			{
				"x": 3.8053004195,
				"y": -1.4484228716,
				"z": -3.9441992811,
				"element": "C" 
			},
			{
				"x": 3.9103867658,
				"y": 0.0756708253,
				"z": -4.0874107635,
				"element": "C" 
			},
			{
				"x": 2.5746662084,
				"y": 0.6806161731,
				"z": -4.5828099187,
				"element": "C" 
			},
			{
				"x": 1.3488168657,
				"y": -0.157455838,
				"z": -4.1496319359,
				"element": "C" 
			},
			{
				"x": 1.8226597671,
				"y": 0.116881495,
				"z": -1.7756759266,
				"element": "O" 
			},
			{
				"x": 0.5811248017,
				"y": 0.4528273413,
				"z": -1.1800173165,
				"element": "C" 
			},
			{
				"x": -0.095795721,
				"y": -1.3900626332,
				"z": 2.0671228829,
				"element": "C" 
			},
			{
				"x": 0.9422434916,
				"y": -1.2844476209,
				"z": 3.1877069948,
				"element": "C" 
			},
			{
				"x": 0.1349472735,
				"y": -1.0504642738,
				"z": 4.3368135679,
				"element": "O" 
			},
			{
				"x": -1.0414654274,
				"y": -0.3557805187,
				"z": 3.9212125863,
				"element": "C" 
			},
			{
				"x": -0.9706139417,
				"y": 1.1274053956,
				"z": 4.3031422051,
				"element": "C" 
			},
			{
				"x": -2.272201476,
				"y": 1.8687054907,
				"z": 3.9586514347,
				"element": "C" 
			},
			{
				"x": -3.4891689298,
				"y": 1.1830394804,
				"z": 4.5991413389,
				"element": "C" 
			},
			{
				"x": -3.5635478397,
				"y": -0.2999447231,
				"z": 4.2033217374,
				"element": "C" 
			},
			{
				"x": -2.2617782554,
				"y": -1.041563897,
				"z": 4.5443781518,
				"element": "C" 
			},
			{
				"x": -1.0900341841,
				"y": -0.4564472733,
				"z": 2.487173756,
				"element": "O" 
			},
			{
				"x": 3.2088591146,
				"y": 2.337898095,
				"z": 1.2324528066,
				"element": "H" 
			},
			{
				"x": 1.4971174008,
				"y": 2.8215878392,
				"z": 1.0966206204,
				"element": "H" 
			},
			{
				"x": 2.429099283,
				"y": 2.3859405193,
				"z": -0.3680020698,
				"element": "H" 
			},
			{
				"x": -0.1098198699,
				"y": 1.0268160368,
				"z": 0.7920797119,
				"element": "H" 
			},
			{
				"x": 1.334313382,
				"y": -1.6390742471,
				"z": 0.4902334791,
				"element": "H" 
			},
			{
				"x": -1.3137753082,
				"y": -0.5167454035,
				"z": -1.9345752683,
				"element": "H" 
			},
			{
				"x": 3.2210791321,
				"y": -1.8465731501,
				"z": -1.874336449,
				"element": "H" 
			},
			{
				"x": 2.3583678064,
				"y": -2.8273842423,
				"z": -3.0605693258,
				"element": "H" 
			},
			{
				"x": 3.5221779055,
				"y": -1.8846915406,
				"z": -4.9112824166,
				"element": "H" 
			},
			{
				"x": 4.7768088223,
				"y": -1.8835035606,
				"z": -3.6861768932,
				"element": "H" 
			},
			{
				"x": 4.1628788131,
				"y": 0.5015063454,
				"z": -3.1094215099,
				"element": "H" 
			},
			{
				"x": 4.7231735007,
				"y": 0.3460246043,
				"z": -4.7704051875,
				"element": "H" 
			},
			{
				"x": 2.4765858789,
				"y": 1.7031232138,
				"z": -4.2045651102,
				"element": "H" 
			},
			{
				"x": 2.578230118,
				"y": 0.752917533,
				"z": -5.6765343577,
				"element": "H" 
			},
			{
				"x": 1.1363097224,
				"y": -0.941320423,
				"z": -4.8856668339,
				"element": "H" 
			},
			{
				"x": 0.449184918,
				"y": 0.4653450355,
				"z": -4.0937951923,
				"element": "H" 
			},
			{
				"x": 0.196882377,
				"y": 1.4048992118,
				"z": -1.5666091162,
				"element": "H" 
			},
			{
				"x": -0.5226404998,
				"y": -2.4035723617,
				"z": 2.0345548469,
				"element": "H" 
			},
			{
				"x": 1.507304425,
				"y": -2.2076211707,
				"z": 3.3437554811,
				"element": "H" 
			},
			{
				"x": 1.6395735667,
				"y": -0.4577602813,
				"z": 3.0031476629,
				"element": "H" 
			},
			{
				"x": -0.1092148521,
				"y": 1.5781920916,
				"z": 3.7984239521,
				"element": "H" 
			},
			{
				"x": -0.7820844868,
				"y": 1.1801026687,
				"z": 5.3825405311,
				"element": "H" 
			},
			{
				"x": -2.2040848754,
				"y": 2.9132632133,
				"z": 4.284877857,
				"element": "H" 
			},
			{
				"x": -2.3960179073,
				"y": 1.8834843662,
				"z": 2.8684407157,
				"element": "H" 
			},
			{
				"x": -4.4115137898,
				"y": 1.6991759311,
				"z": 4.3071633315,
				"element": "H" 
			},
			{
				"x": -3.4175313746,
				"y": 1.2651233715,
				"z": 5.6933988434,
				"element": "H" 
			},
			{
				"x": -4.4103429309,
				"y": -0.7873520621,
				"z": 4.7003297143,
				"element": "H" 
			},
			{
				"x": -3.7397090301,
				"y": -0.3792165041,
				"z": 3.1234320972,
				"element": "H" 
			},
			{
				"x": -2.2928152495,
				"y": -2.0791330195,
				"z": 4.1952884333,
				"element": "H" 
			},
			{
				"x": -2.1111860867,
				"y": -1.0703764746,
				"z": 5.6309434945,
				"element": "H" 
			}
		],
		 "valence_orbital": [ 
			{
				"type": "occ",
				"energy": -0.27544,
				"method": "rhf"
			},
			{
				"type": "occ",
				"energy": -0.26322,
				"method": "rhf"
			},
			{
				"type": "occ",
				"energy": -0.26026,
				"method": "rhf"
			},
			{
				"type": "occ",
				"energy": -0.25338,
				"method": "rhf"
			},
			{
				"type": "occ",
				"energy": -0.23972,
				"method": "rhf"
			},
			{
				"type": "unocc",
				"energy": 0.05788,
				"method": "rhf"
			},
			{
				"type": "unocc",
				"energy": 0.07605,
				"method": "rhf"
			},
			{
				"type": "unocc",
				"energy": 0.08277,
				"method": "rhf"
			},
			{
				"type": "unocc",
				"energy": 0.08983,
				"method": "rhf"
			},
			{
				"type": "unocc",
				"energy": 0.10231,
				"method": "rhf"
			}
		],
		"cosmo_sigma_profile": { 
			"-0.025": 0.0,
			"-0.024": 0.0,
			"-0.023": 0.0,
			"-0.022": 0.0,
			"-0.021": 0.0,
			"-0.02": 0.0,
			"-0.019": 0.0,
			"-0.018": 0.0,
			"-0.017": 0.0,
			"-0.016": 0.0,
			"-0.015": 0.0,
			"-0.014": 0.0,
			"-0.013": 0.0,
			"-0.012": 0.0,
			"-0.011": 0.0,
			"-0.01": 0.0,
			"-0.009": 0.0,
			"-0.008": 0.0,
			"-0.007": 2.09361190595,
			"-0.006": 15.4744260447,
			"-0.005": 17.9215676533,
			"-0.004": 20.097315156,
			"-0.003": 41.5257207774,
			"-0.002": 59.1147991768,
			"-0.001": 56.0883489696,
			"0.0": 57.4537968891,
			"0.001": 39.9779424529,
			"0.002": 12.7865933052,
			"0.003": 9.02378128352,
			"0.004": 7.525776353,
			"0.005": 9.3925501408,
			"0.006": 5.9516677406,
			"0.007": 7.02084788473,
			"0.008": 6.24579759136,
			"0.009": 5.2020769668,
			"0.01": 6.25967364701,
			"0.011": 7.64340247962,
			"0.012": 5.05594429509,
			"0.013": 1.51798027073,
			"0.014": 0.254473171852,
			"0.015": 0.0,
			"0.016": 0.0,
			"0.017": 0.0,
			"0.018": 0.0,
			"0.019": 0.0,
			"0.02": 0.0,
			"0.021": 0.0,
			"0.022": 0.0,
			"0.023": 0.0,
			"0.024": 0.0,
			"0.025": 0.0
		}
	}
}
