{
	 "smiles": "COC1=CC=CC=C1C1(C)CCC2=C(C3=C1C=C(C)O3)C1=CC(Br)=CC=C1O2", 
	 "Tm": 482.15, 
	 "num_atms": 49, 
	 "gaussian": { 
		 "optdone": 1, 
		 "sigma_profile": "yes", 
		 "theory": "DFT", 
		 "functional": "B3LYP", 
		 "basiset": "6-31G**", 
		 "properties": { 
			 "R2extent": 16601.0735, 
			 "electric_dipole_moment_norm": 4.00886389018, 
			 "electric_quadrupole_moment_norm": 14.4501400332, 
			 "total_energy": -3724.27098367, 
			 "HOMO_LUMO_gap": 0.1587, 
			 "cosmo_polarized_energy": -10.22, 
			 "cosmo_cavitation_energy": 52.04, 
			 "cosmo_dispersion_energy": -35.85, 
			 "cosmo_repulsion_energy": 2.7, 
			 "cosmo_total_nonelectrostatic_energy": 18.89, 
			 "SMD_solvation_energy": 8.43 
		},
		"coords": [
			{
				"x": 1.0316388194,
				"y": 0.2225270013,
				"z": 3.1141845328,
				"element": "C" 
			},
			{
				"x": 1.0198196046,
				"y": -0.474145989,
				"z": 1.8793163448,
				"element": "O" 
			},
			{
				"x": 2.035410334,
				"y": -1.344284677,
				"z": 1.5951838789,
				"element": "C" 
			},
			{
				"x": 3.040786912,
				"y": -1.654106071,
				"z": 2.5172602611,
				"element": "C" 
			},
			{
				"x": 4.0511069191,
				"y": -2.5581883625,
				"z": 2.1825385149,
				"element": "C" 
			},
			{
				"x": 4.0589050678,
				"y": -3.1515180452,
				"z": 0.9268994389,
				"element": "C" 
			},
			{
				"x": 3.0529245287,
				"y": -2.8315469353,
				"z": 0.009071376,
				"element": "C" 
			},
			{
				"x": 2.0247906711,
				"y": -1.9307126707,
				"z": 0.3020235469,
				"element": "C" 
			},
			{
				"x": 0.9077461685,
				"y": -1.601554662,
				"z": -0.7166740005,
				"element": "C" 
			},
			{
				"x": 1.1791840613,
				"y": -2.2659056128,
				"z": -2.0893796505,
				"element": "C" 
			},
			{
				"x": -0.4245347064,
				"y": -2.1755517267,
				"z": -0.1278114782,
				"element": "C" 
			},
			{
				"x": -1.6803739987,
				"y": -2.1887492562,
				"z": -1.0200984879,
				"element": "C" 
			},
			{
				"x": -2.2168219577,
				"y": -0.8439966684,
				"z": -1.3685458568,
				"element": "C" 
			},
			{
				"x": -1.6249617533,
				"y": 0.3860794159,
				"z": -1.4865308917,
				"element": "C" 
			},
			{
				"x": -0.223041204,
				"y": 0.6734975655,
				"z": -1.2950564882,
				"element": "C" 
			},
			{
				"x": 0.8627017545,
				"y": -0.0975942341,
				"z": -0.9585439465,
				"element": "C" 
			},
			{
				"x": 1.9888265761,
				"y": 0.7937085686,
				"z": -0.9828731702,
				"element": "C" 
			},
			{
				"x": 1.5265159307,
				"y": 2.0318634255,
				"z": -1.3136715668,
				"element": "C" 
			},
			{
				"x": 2.172492597,
				"y": 3.3601282466,
				"z": -1.4927795855,
				"element": "C" 
			},
			{
				"x": 0.1731602825,
				"y": 1.9745288616,
				"z": -1.5071591825,
				"element": "O" 
			},
			{
				"x": -2.6868224505,
				"y": 1.3038619198,
				"z": -1.8617813471,
				"element": "C" 
			},
			{
				"x": -2.7692556249,
				"y": 2.6772815218,
				"z": -2.1344305628,
				"element": "C" 
			},
			{
				"x": -4.0181914824,
				"y": 3.1892287119,
				"z": -2.4675641041,
				"element": "C" 
			},
			{
				"x": -4.1782340941,
				"y": 5.0621831542,
				"z": -2.8483255574,
				"element": "Br" 
			},
			{
				"x": -5.1739276324,
				"y": 2.3946421237,
				"z": -2.5387702971,
				"element": "C" 
			},
			{
				"x": -5.0997068421,
				"y": 1.0285277558,
				"z": -2.269428368,
				"element": "C" 
			},
			{
				"x": -3.8512766765,
				"y": 0.5197466616,
				"z": -1.937444915,
				"element": "C" 
			},
			{
				"x": -3.56880539,
				"y": -0.7837217114,
				"z": -1.6375712938,
				"element": "O" 
			},
			{
				"x": 0.1658771571,
				"y": 0.8859712343,
				"z": 3.0903123786,
				"element": "H" 
			},
			{
				"x": 1.9432724018,
				"y": 0.821878766,
				"z": 3.2307513249,
				"element": "H" 
			},
			{
				"x": 0.9390683135,
				"y": -0.4602613429,
				"z": 3.9687464192,
				"element": "H" 
			},
			{
				"x": 3.0396617868,
				"y": -1.1978172114,
				"z": 3.4996819049,
				"element": "H" 
			},
			{
				"x": 4.823457783,
				"y": -2.7902353615,
				"z": 2.9102597695,
				"element": "H" 
			},
			{
				"x": 4.8374129319,
				"y": -3.8563041786,
				"z": 0.651575132,
				"element": "H" 
			},
			{
				"x": 3.0827310047,
				"y": -3.3032813507,
				"z": -0.9655925816,
				"element": "H" 
			},
			{
				"x": 0.4244895394,
				"y": -1.9452216134,
				"z": -2.8107587648,
				"element": "H" 
			},
			{
				"x": 1.1462886361,
				"y": -3.3598571596,
				"z": -2.0268654294,
				"element": "H" 
			},
			{
				"x": 2.1519366426,
				"y": -1.9675597844,
				"z": -2.4896360526,
				"element": "H" 
			},
			{
				"x": -0.653384854,
				"y": -1.6440752137,
				"z": 0.7974219357,
				"element": "H" 
			},
			{
				"x": -0.2197843271,
				"y": -3.2165240496,
				"z": 0.1460054382,
				"element": "H" 
			},
			{
				"x": -1.5019886501,
				"y": -2.7686412482,
				"z": -1.9364084605,
				"element": "H" 
			},
			{
				"x": -2.4700340298,
				"y": -2.7299008984,
				"z": -0.4845623645,
				"element": "H" 
			},
			{
				"x": 3.0150294313,
				"y": 0.5353031293,
				"z": -0.7635488482,
				"element": "H" 
			},
			{
				"x": 3.2471536142,
				"y": 3.2767628752,
				"z": -1.3148837526,
				"element": "H" 
			},
			{
				"x": 1.7665550953,
				"y": 4.103342418,
				"z": -0.7961130352,
				"element": "H" 
			},
			{
				"x": 2.0223320304,
				"y": 3.7477225054,
				"z": -2.5074357451,
				"element": "H" 
			},
			{
				"x": -1.8942459085,
				"y": 3.3112017199,
				"z": -2.0879339166,
				"element": "H" 
			},
			{
				"x": -6.1215969842,
				"y": 2.8480136891,
				"z": -2.8038821177,
				"element": "H" 
			},
			{
				"x": -5.9758880289,
				"y": 0.391354764,
				"z": -2.317170378,
				"element": "H" 
			}
		],
		 "valence_orbital": [ 
			{
				"type": "occ",
				"energy": -0.24715,
				"method": "rhf"
			},
			{
				"type": "occ",
				"energy": -0.24103,
				"method": "rhf"
			},
			{
				"type": "occ",
				"energy": -0.22363,
				"method": "rhf"
			},
			{
				"type": "occ",
				"energy": -0.2191,
				"method": "rhf"
			},
			{
				"type": "occ",
				"energy": -0.18361,
				"method": "rhf"
			},
			{
				"type": "unocc",
				"energy": -0.02491,
				"method": "rhf"
			},
			{
				"type": "unocc",
				"energy": -0.00325,
				"method": "rhf"
			},
			{
				"type": "unocc",
				"energy": 0.00507,
				"method": "rhf"
			},
			{
				"type": "unocc",
				"energy": 0.00893,
				"method": "rhf"
			},
			{
				"type": "unocc",
				"energy": 0.01006,
				"method": "rhf"
			}
		],
		"cosmo_sigma_profile": { 
			"-0.025": 0.0,
			"-0.024": 0.0,
			"-0.023": 0.0,
			"-0.022": 0.0,
			"-0.021": 0.0,
			"-0.02": 0.0,
			"-0.019": 0.0,
			"-0.018": 0.0,
			"-0.017": 0.0,
			"-0.016": 0.0,
			"-0.015": 0.0,
			"-0.014": 0.0,
			"-0.013": 0.0,
			"-0.012": 0.0,
			"-0.011": 0.0,
			"-0.01": 0.0,
			"-0.009": 0.0,
			"-0.008": 0.797093321882,
			"-0.007": 3.27845785904,
			"-0.006": 9.51308214264,
			"-0.005": 28.3644669285,
			"-0.004": 36.4781902563,
			"-0.003": 45.5123743666,
			"-0.002": 38.4139424283,
			"-0.001": 32.0906806088,
			"0.0": 34.134186164,
			"0.001": 32.2782912091,
			"0.002": 36.7418050615,
			"0.003": 44.3633469505,
			"0.004": 30.6948593285,
			"0.005": 24.5278214394,
			"0.006": 10.7610989957,
			"0.007": 5.3865184111,
			"0.008": 2.57668707296,
			"0.009": 0.963991135405,
			"0.01": 0.387990919811,
			"0.011": 0.0,
			"0.012": 0.0,
			"0.013": 0.0,
			"0.014": 0.0,
			"0.015": 0.0,
			"0.016": 0.0,
			"0.017": 0.0,
			"0.018": 0.0,
			"0.019": 0.0,
			"0.02": 0.0,
			"0.021": 0.0,
			"0.022": 0.0,
			"0.023": 0.0,
			"0.024": 0.0,
			"0.025": 0.0
		}
	}
}
