{
	 "smiles": "COC(=O)C1=COC(=C1)C(=O)CCl", 
	 "Tm": 371.15, 
	 "num_atms": 20, 
	 "gaussian": { 
		 "optdone": 1, 
		 "sigma_profile": "yes", 
		 "theory": "DFT", 
		 "functional": "B3LYP", 
		 "basiset": "6-31G**", 
		 "properties": { 
			 "R2extent": 4508.572, 
			 "electric_dipole_moment_norm": 3.32636751427, 
			 "electric_quadrupole_moment_norm": 14.7416680976, 
			 "total_energy": -1070.13285681, 
			 "HOMO_LUMO_gap": 0.18367, 
			 "cosmo_polarized_energy": -13.43, 
			 "cosmo_cavitation_energy": 28.01, 
			 "cosmo_dispersion_energy": -20.09, 
			 "cosmo_repulsion_energy": 1.62, 
			 "cosmo_total_nonelectrostatic_energy": 9.53, 
			 "SMD_solvation_energy": 7.78 
		},
		"coords": [
			{
				"x": -2.7613265622,
				"y": -2.4906854928,
				"z": 0.7807852965,
				"element": "C" 
			},
			{
				"x": -1.6863706996,
				"y": -1.5575226287,
				"z": 0.9841875192,
				"element": "O" 
			},
			{
				"x": -1.5830998485,
				"y": -0.5860823746,
				"z": 0.0492227018,
				"element": "C" 
			},
			{
				"x": -2.323946895,
				"y": -0.4782798761,
				"z": -0.9063818391,
				"element": "O" 
			},
			{
				"x": -0.4589834156,
				"y": 0.3225570454,
				"z": 0.3347645072,
				"element": "C" 
			},
			{
				"x": 0.437035808,
				"y": 0.2719890825,
				"z": 1.3754864926,
				"element": "C" 
			},
			{
				"x": 1.3227387026,
				"y": 1.2760944027,
				"z": 1.2922884285,
				"element": "O" 
			},
			{
				"x": 1.0050748177,
				"y": 2.0112526291,
				"z": 0.1710659745,
				"element": "C" 
			},
			{
				"x": -0.0865075668,
				"y": 1.4567086748,
				"z": -0.4456259366,
				"element": "C" 
			},
			{
				"x": 1.8732392843,
				"y": 3.1533281502,
				"z": -0.1283093165,
				"element": "C" 
			},
			{
				"x": 2.8417480087,
				"y": 3.435529448,
				"z": 0.5559728579,
				"element": "O" 
			},
			{
				"x": 1.5569502976,
				"y": 3.9717367804,
				"z": -1.382204891,
				"element": "C" 
			},
			{
				"x": -0.0151937771,
				"y": 4.8653738588,
				"z": -1.2452234089,
				"element": "Cl" 
			},
			{
				"x": -2.6427359372,
				"y": -3.0111281196,
				"z": -0.1727011317,
				"element": "H" 
			},
			{
				"x": -2.7005273797,
				"y": -3.1932476843,
				"z": 1.611488724,
				"element": "H" 
			},
			{
				"x": -3.7239617208,
				"y": -1.9736892297,
				"z": 0.7838728456,
				"element": "H" 
			},
			{
				"x": 0.5470733128,
				"y": -0.4044674326,
				"z": 2.2089391807,
				"element": "H" 
			},
			{
				"x": -0.5894819937,
				"y": 1.8068995739,
				"z": -1.3344574583,
				"element": "H" 
			},
			{
				"x": 1.4870079031,
				"y": 3.3397718738,
				"z": -2.270161169,
				"element": "H" 
			},
			{
				"x": 2.3460676614,
				"y": 4.7116613187,
				"z": -1.5032093774,
				"element": "H" 
			}
		],
		 "valence_orbital": [ 
			{
				"type": "occ",
				"energy": -0.3125,
				"method": "rhf"
			},
			{
				"type": "occ",
				"energy": -0.30514,
				"method": "rhf"
			},
			{
				"type": "occ",
				"energy": -0.28885,
				"method": "rhf"
			},
			{
				"type": "occ",
				"energy": -0.26961,
				"method": "rhf"
			},
			{
				"type": "occ",
				"energy": -0.26217,
				"method": "rhf"
			},
			{
				"type": "unocc",
				"energy": -0.0785,
				"method": "rhf"
			},
			{
				"type": "unocc",
				"energy": -0.04283,
				"method": "rhf"
			},
			{
				"type": "unocc",
				"energy": 0.00651,
				"method": "rhf"
			},
			{
				"type": "unocc",
				"energy": 0.06376,
				"method": "rhf"
			},
			{
				"type": "unocc",
				"energy": 0.09807,
				"method": "rhf"
			}
		],
		"cosmo_sigma_profile": { 
			"-0.025": 0.0,
			"-0.024": 0.0,
			"-0.023": 0.0,
			"-0.022": 0.0,
			"-0.021": 0.0,
			"-0.02": 0.0,
			"-0.019": 0.0,
			"-0.018": 0.0,
			"-0.017": 0.0,
			"-0.016": 0.0,
			"-0.015": 0.0,
			"-0.014": 0.0,
			"-0.013": 0.0,
			"-0.012": 0.175172783492,
			"-0.011": 1.6982829165,
			"-0.01": 2.51589263807,
			"-0.009": 6.68515746107,
			"-0.008": 6.71473320736,
			"-0.007": 6.61348356166,
			"-0.006": 12.8441295489,
			"-0.005": 12.4944569762,
			"-0.004": 13.7680046702,
			"-0.003": 16.4494334972,
			"-0.002": 19.5556677856,
			"-0.001": 19.3474103855,
			"0.0": 15.1830228996,
			"0.001": 11.2333394629,
			"0.002": 10.2358392089,
			"0.003": 10.5576859158,
			"0.004": 11.3306782131,
			"0.005": 11.974690539,
			"0.006": 6.14403757846,
			"0.007": 3.72795531192,
			"0.008": 3.91310332058,
			"0.009": 4.13261687913,
			"0.01": 6.37689696098,
			"0.011": 8.56067279948,
			"0.012": 4.22695906188,
			"0.013": 0.00407694846568,
			"0.014": 0.0,
			"0.015": 0.0,
			"0.016": 0.0,
			"0.017": 0.0,
			"0.018": 0.0,
			"0.019": 0.0,
			"0.02": 0.0,
			"0.021": 0.0,
			"0.022": 0.0,
			"0.023": 0.0,
			"0.024": 0.0,
			"0.025": 0.0
		}
	}
}
