{
	 "smiles": "CC(=O)C1=CSC2=C1C=C(Br)C=C2", 
	 "Tm": 361.65, 
	 "num_atms": 20, 
	 "gaussian": { 
		 "optdone": 1, 
		 "sigma_profile": "yes", 
		 "theory": "DFT", 
		 "functional": "B3LYP", 
		 "basiset": "6-31G**", 
		 "properties": { 
			 "R2extent": 4825.8366, 
			 "electric_dipole_moment_norm": 1.87487980948, 
			 "electric_quadrupole_moment_norm": 14.9532065922, 
			 "total_energy": -3430.09882443, 
			 "HOMO_LUMO_gap": 0.17254, 
			 "cosmo_polarized_energy": -8.65, 
			 "cosmo_cavitation_energy": 28.04, 
			 "cosmo_dispersion_energy": -21.46, 
			 "cosmo_repulsion_energy": 1.63, 
			 "cosmo_total_nonelectrostatic_energy": 8.21, 
			 "SMD_solvation_energy": 3.94 
		},
		"coords": [
			{
				"x": 1.5680665118,
				"y": -1.8816557109,
				"z": -1.4219344538,
				"element": "C" 
			},
			{
				"x": 0.6052873204,
				"y": -2.8726009204,
				"z": -0.797152968,
				"element": "C" 
			},
			{
				"x": 0.8629983255,
				"y": -4.0681260962,
				"z": -0.8075332632,
				"element": "O" 
			},
			{
				"x": -0.6637667058,
				"y": -2.3938714561,
				"z": -0.1647470344,
				"element": "C" 
			},
			{
				"x": -1.4958794943,
				"y": -3.3339560649,
				"z": 0.3841743906,
				"element": "C" 
			},
			{
				"x": -2.9343346797,
				"y": -2.6938938748,
				"z": 1.0903707771,
				"element": "S" 
			},
			{
				"x": -2.4538757277,
				"y": -1.0616557543,
				"z": 0.6567047093,
				"element": "C" 
			},
			{
				"x": -1.2040987675,
				"y": -1.047357692,
				"z": -0.0179243504,
				"element": "C" 
			},
			{
				"x": -0.6949258647,
				"y": 0.202586763,
				"z": -0.4259418787,
				"element": "C" 
			},
			{
				"x": -1.4217269077,
				"y": 1.3525710137,
				"z": -0.1576770151,
				"element": "C" 
			},
			{
				"x": -0.720154543,
				"y": 3.0420643485,
				"z": -0.7162263173,
				"element": "Br" 
			},
			{
				"x": -2.655139064,
				"y": 1.3248137539,
				"z": 0.5095021454,
				"element": "C" 
			},
			{
				"x": -3.1759061051,
				"y": 0.1052487071,
				"z": 0.9205732293,
				"element": "C" 
			},
			{
				"x": 1.0868995242,
				"y": -1.3223597853,
				"z": -2.2318450104,
				"element": "H" 
			},
			{
				"x": 1.9220838174,
				"y": -1.1561213175,
				"z": -0.6812775447,
				"element": "H" 
			},
			{
				"x": 2.4188535079,
				"y": -2.4348396686,
				"z": -1.8208755519,
				"element": "H" 
			},
			{
				"x": -1.2985271442,
				"y": -4.3972190199,
				"z": 0.391748913,
				"element": "H" 
			},
			{
				"x": 0.2497206598,
				"y": 0.2844797224,
				"z": -0.943339865,
				"element": "H" 
			},
			{
				"x": -3.1910954212,
				"y": 2.2470471912,
				"z": 0.6993983892,
				"element": "H" 
			},
			{
				"x": -4.1291792422,
				"y": 0.0649458612,
				"z": 1.438302699,
				"element": "H" 
			}
		],
		 "valence_orbital": [ 
			{
				"type": "occ",
				"energy": -0.29723,
				"method": "rhf"
			},
			{
				"type": "occ",
				"energy": -0.29392,
				"method": "rhf"
			},
			{
				"type": "occ",
				"energy": -0.25533,
				"method": "rhf"
			},
			{
				"type": "occ",
				"energy": -0.24665,
				"method": "rhf"
			},
			{
				"type": "occ",
				"energy": -0.23648,
				"method": "rhf"
			},
			{
				"type": "unocc",
				"energy": -0.06394,
				"method": "rhf"
			},
			{
				"type": "unocc",
				"energy": -0.02645,
				"method": "rhf"
			},
			{
				"type": "unocc",
				"energy": -0.02406,
				"method": "rhf"
			},
			{
				"type": "unocc",
				"energy": -0.00525,
				"method": "rhf"
			},
			{
				"type": "unocc",
				"energy": 0.01264,
				"method": "rhf"
			}
		],
		"cosmo_sigma_profile": { 
			"-0.025": 0.0,
			"-0.024": 0.0,
			"-0.023": 0.0,
			"-0.022": 0.0,
			"-0.021": 0.0,
			"-0.02": 0.0,
			"-0.019": 0.0,
			"-0.018": 0.0,
			"-0.017": 0.0,
			"-0.016": 0.0,
			"-0.015": 0.0,
			"-0.014": 0.0,
			"-0.013": 0.0,
			"-0.012": 0.0,
			"-0.011": 0.0,
			"-0.01": 0.217400570727,
			"-0.009": 1.66494566092,
			"-0.008": 4.833148507,
			"-0.007": 10.6922510082,
			"-0.006": 13.1690630538,
			"-0.005": 11.6366828887,
			"-0.004": 12.6479261227,
			"-0.003": 12.481290815,
			"-0.002": 15.5122527265,
			"-0.001": 16.7304126232,
			"0.0": 18.1375490399,
			"0.001": 26.4272868503,
			"0.002": 29.9628800378,
			"0.003": 21.070683712,
			"0.004": 12.2326847466,
			"0.005": 7.21007698931,
			"0.006": 1.01672939542,
			"0.007": 2.12862485494,
			"0.008": 1.64399233466,
			"0.009": 1.50035150552,
			"0.01": 2.01269061769,
			"0.011": 2.81794528051,
			"0.012": 3.72039380545,
			"0.013": 1.58244457503,
			"0.014": 0.154144502309,
			"0.015": 0.0,
			"0.016": 0.0,
			"0.017": 0.0,
			"0.018": 0.0,
			"0.019": 0.0,
			"0.02": 0.0,
			"0.021": 0.0,
			"0.022": 0.0,
			"0.023": 0.0,
			"0.024": 0.0,
			"0.025": 0.0
		}
	}
}
