{
	 "smiles": "CC=C1CCCC1", 
	 "Tm": 143.15, 
	 "num_atms": 19, 
	 "gaussian": { 
		 "optdone": 1, 
		 "sigma_profile": "yes", 
		 "theory": "DFT", 
		 "functional": "B3LYP", 
		 "basiset": "6-31G**", 
		 "properties": { 
			 "R2extent": 998.6254, 
			 "electric_dipole_moment_norm": 0.247505838315, 
			 "electric_quadrupole_moment_norm": 1.09696543701, 
			 "total_energy": -273.970768855, 
			 "HOMO_LUMO_gap": 0.24922, 
			 "cosmo_polarized_energy": -1.32, 
			 "cosmo_cavitation_energy": 20.34, 
			 "cosmo_dispersion_energy": -15.33, 
			 "cosmo_repulsion_energy": 1.32, 
			 "cosmo_total_nonelectrostatic_energy": 6.33, 
			 "SMD_solvation_energy": 3.11 
		},
		"coords": [
			{
				"x": -2.155530049,
				"y": -0.7155751047,
				"z": -0.028881589,
				"element": "C" 
			},
			{
				"x": -1.1035883188,
				"y": 0.3358337674,
				"z": -0.2470129418,
				"element": "C" 
			},
			{
				"x": 0.2190001787,
				"y": 0.1412882994,
				"z": -0.2564936085,
				"element": "C" 
			},
			{
				"x": 1.2592848472,
				"y": 1.2323459252,
				"z": -0.4811333868,
				"element": "C" 
			},
			{
				"x": 2.5375108654,
				"y": 0.4657400754,
				"z": -0.8709640941,
				"element": "C" 
			},
			{
				"x": 2.4454292564,
				"y": -0.8191733199,
				"z": -0.0277551324,
				"element": "C" 
			},
			{
				"x": 0.9465978677,
				"y": -1.1901266971,
				"z": -0.0790006641,
				"element": "C" 
			},
			{
				"x": -1.7233656349,
				"y": -1.7068397105,
				"z": 0.1318767633,
				"element": "H" 
			},
			{
				"x": -2.7816968861,
				"y": -0.478017759,
				"z": 0.841349213,
				"element": "H" 
			},
			{
				"x": -2.8342922059,
				"y": -0.7828080137,
				"z": -0.8894681564,
				"element": "H" 
			},
			{
				"x": -1.4750124918,
				"y": 1.3480135212,
				"z": -0.4136190327,
				"element": "H" 
			},
			{
				"x": 0.9457789248,
				"y": 1.9709493414,
				"z": -1.2259221442,
				"element": "H" 
			},
			{
				"x": 1.4352702017,
				"y": 1.7799409441,
				"z": 0.4565815622,
				"element": "H" 
			},
			{
				"x": 2.5102285612,
				"y": 0.2124050704,
				"z": -1.9384949205,
				"element": "H" 
			},
			{
				"x": 3.4546726767,
				"y": 1.0353784806,
				"z": -0.691659412,
				"element": "H" 
			},
			{
				"x": 2.73964221,
				"y": -0.599849078,
				"z": 1.0063999097,
				"element": "H" 
			},
			{
				"x": 3.0967159413,
				"y": -1.6216765043,
				"z": -0.3874262365,
				"element": "H" 
			},
			{
				"x": 0.6193432767,
				"y": -1.7398527152,
				"z": 0.810260858,
				"element": "H" 
			},
			{
				"x": 0.7482107787,
				"y": -1.8433765227,
				"z": -0.9400369874,
				"element": "H" 
			}
		],
		 "valence_orbital": [ 
			{
				"type": "occ",
				"energy": -0.33578,
				"method": "rhf"
			},
			{
				"type": "occ",
				"energy": -0.32974,
				"method": "rhf"
			},
			{
				"type": "occ",
				"energy": -0.31946,
				"method": "rhf"
			},
			{
				"type": "occ",
				"energy": -0.30781,
				"method": "rhf"
			},
			{
				"type": "occ",
				"energy": -0.22059,
				"method": "rhf"
			},
			{
				"type": "unocc",
				"energy": 0.02863,
				"method": "rhf"
			},
			{
				"type": "unocc",
				"energy": 0.094,
				"method": "rhf"
			},
			{
				"type": "unocc",
				"energy": 0.11806,
				"method": "rhf"
			},
			{
				"type": "unocc",
				"energy": 0.13246,
				"method": "rhf"
			},
			{
				"type": "unocc",
				"energy": 0.13638,
				"method": "rhf"
			}
		],
		"cosmo_sigma_profile": { 
			"-0.025": 0.0,
			"-0.024": 0.0,
			"-0.023": 0.0,
			"-0.022": 0.0,
			"-0.021": 0.0,
			"-0.02": 0.0,
			"-0.019": 0.0,
			"-0.018": 0.0,
			"-0.017": 0.0,
			"-0.016": 0.0,
			"-0.015": 0.0,
			"-0.014": 0.0,
			"-0.013": 0.0,
			"-0.012": 0.0,
			"-0.011": 0.0,
			"-0.01": 0.0,
			"-0.009": 0.0,
			"-0.008": 0.0,
			"-0.007": 0.0,
			"-0.006": 0.0,
			"-0.005": 0.0,
			"-0.004": 0.633758873597,
			"-0.003": 14.3128864311,
			"-0.002": 24.9299910332,
			"-0.001": 32.0209518134,
			"0.0": 30.7234393373,
			"0.001": 27.6142750376,
			"0.002": 11.7002909063,
			"0.003": 4.14279222651,
			"0.004": 3.40918955555,
			"0.005": 2.53432004527,
			"0.006": 2.56363348737,
			"0.007": 1.99703461031,
			"0.008": 1.09403798049,
			"0.009": 0.0,
			"0.01": 0.0,
			"0.011": 0.0,
			"0.012": 0.0,
			"0.013": 0.0,
			"0.014": 0.0,
			"0.015": 0.0,
			"0.016": 0.0,
			"0.017": 0.0,
			"0.018": 0.0,
			"0.019": 0.0,
			"0.02": 0.0,
			"0.021": 0.0,
			"0.022": 0.0,
			"0.023": 0.0,
			"0.024": 0.0,
			"0.025": 0.0
		}
	}
}
