{
	 "smiles": "COC1=C(C(F)=CC(F)=C1)S(Cl)(=O)=O", 
	 "Tm": 349.15, 
	 "num_atms": 19, 
	 "gaussian": { 
		 "optdone": 1, 
		 "sigma_profile": "yes", 
		 "theory": "DFT", 
		 "functional": "B3LYP", 
		 "basiset": "6-31G**", 
		 "properties": { 
			 "R2extent": 4445.0407, 
			 "electric_dipole_moment_norm": 6.07192856183, 
			 "electric_quadrupole_moment_norm": 13.9583632737, 
			 "total_energy": -1553.37990367, 
			 "HOMO_LUMO_gap": 0.18118, 
			 "cosmo_polarized_energy": -12.42, 
			 "cosmo_cavitation_energy": 27.85, 
			 "cosmo_dispersion_energy": -20.37, 
			 "cosmo_repulsion_energy": 1.52, 
			 "cosmo_total_nonelectrostatic_energy": 9.0, 
			 "SMD_solvation_energy": 5.38 
		},
		"coords": [
			{
				"x": -1.4803208925,
				"y": -0.2517151763,
				"z": 0.9894858263,
				"element": "C" 
			},
			{
				"x": -0.1241497395,
				"y": 0.0179406399,
				"z": 0.6396702976,
				"element": "O" 
			},
			{
				"x": 0.1619847322,
				"y": 1.0748135007,
				"z": -0.1342306869,
				"element": "C" 
			},
			{
				"x": 1.5348011369,
				"y": 1.2767723431,
				"z": -0.4462923867,
				"element": "C" 
			},
			{
				"x": 1.8836103839,
				"y": 2.3470117052,
				"z": -1.2849888044,
				"element": "C" 
			},
			{
				"x": 3.1528346127,
				"y": 2.57487332,
				"z": -1.615967103,
				"element": "F" 
			},
			{
				"x": 0.9323741625,
				"y": 3.2223174095,
				"z": -1.7962689325,
				"element": "C" 
			},
			{
				"x": -0.3929528688,
				"y": 2.9963681725,
				"z": -1.4584094801,
				"element": "C" 
			},
			{
				"x": -1.3283630769,
				"y": 3.826006395,
				"z": -1.9398133991,
				"element": "F" 
			},
			{
				"x": -0.804124,
				"y": 1.9473064465,
				"z": -0.6442901903,
				"element": "C" 
			},
			{
				"x": 2.7729162607,
				"y": 0.1937927182,
				"z": 0.2532474932,
				"element": "S" 
			},
			{
				"x": 2.3162074873,
				"y": -1.6477259791,
				"z": -0.7300232877,
				"element": "Cl" 
			},
			{
				"x": 4.0912060904,
				"y": 0.574219829,
				"z": -0.2265414283,
				"element": "O" 
			},
			{
				"x": 2.5083525692,
				"y": -0.0094424172,
				"z": 1.6693140462,
				"element": "O" 
			},
			{
				"x": -1.445415548,
				"y": -1.1443142883,
				"z": 1.612862509,
				"element": "H" 
			},
			{
				"x": -1.9125507557,
				"y": 0.5780549316,
				"z": 1.5595166641,
				"element": "H" 
			},
			{
				"x": -2.0867185495,
				"y": -0.448133435,
				"z": 0.0982890645,
				"element": "H" 
			},
			{
				"x": 1.228991752,
				"y": 4.0458978396,
				"z": -2.4324570571,
				"element": "H" 
			},
			{
				"x": -1.8567837568,
				"y": 1.827756045,
				"z": -0.4295031448,
				"element": "H" 
			}
		],
		 "valence_orbital": [ 
			{
				"type": "occ",
				"energy": -0.33101,
				"method": "rhf"
			},
			{
				"type": "occ",
				"energy": -0.32603,
				"method": "rhf"
			},
			{
				"type": "occ",
				"energy": -0.30651,
				"method": "rhf"
			},
			{
				"type": "occ",
				"energy": -0.28446,
				"method": "rhf"
			},
			{
				"type": "occ",
				"energy": -0.26583,
				"method": "rhf"
			},
			{
				"type": "unocc",
				"energy": -0.08465,
				"method": "rhf"
			},
			{
				"type": "unocc",
				"energy": -0.04505,
				"method": "rhf"
			},
			{
				"type": "unocc",
				"energy": -0.03066,
				"method": "rhf"
			},
			{
				"type": "unocc",
				"energy": 0.03362,
				"method": "rhf"
			},
			{
				"type": "unocc",
				"energy": 0.06109,
				"method": "rhf"
			}
		],
		"cosmo_sigma_profile": { 
			"-0.025": 0.0,
			"-0.024": 0.0,
			"-0.023": 0.0,
			"-0.022": 0.0,
			"-0.021": 0.0,
			"-0.02": 0.0,
			"-0.019": 0.0,
			"-0.018": 0.0,
			"-0.017": 0.0,
			"-0.016": 0.0,
			"-0.015": 0.0,
			"-0.014": 0.0,
			"-0.013": 0.0,
			"-0.012": 0.0,
			"-0.011": 0.0,
			"-0.01": 1.51098992916,
			"-0.009": 4.21268519425,
			"-0.008": 4.05300334838,
			"-0.007": 11.9640895114,
			"-0.006": 11.3397628341,
			"-0.005": 11.3221125985,
			"-0.004": 12.4392601616,
			"-0.003": 12.592874442,
			"-0.002": 22.0214198025,
			"-0.001": 18.3237653404,
			"0.0": 14.490787823,
			"0.001": 10.9487850843,
			"0.002": 15.2360682557,
			"0.003": 25.4389947167,
			"0.004": 12.8249440789,
			"0.005": 6.30577673369,
			"0.006": 5.20391726834,
			"0.007": 6.58490617867,
			"0.008": 12.5197583138,
			"0.009": 6.51873893519,
			"0.01": 0.858862602346,
			"0.011": 0.0,
			"0.012": 0.0,
			"0.013": 0.0,
			"0.014": 0.0,
			"0.015": 0.0,
			"0.016": 0.0,
			"0.017": 0.0,
			"0.018": 0.0,
			"0.019": 0.0,
			"0.02": 0.0,
			"0.021": 0.0,
			"0.022": 0.0,
			"0.023": 0.0,
			"0.024": 0.0,
			"0.025": 0.0
		}
	}
}
