{
	 "smiles": "CC1=NC2=C(C(N)=C(S2)C(=O)N2CCOCC2)C(C)=C1", 
	 "Tm": 421.15, 
	 "num_atms": 37, 
	 "gaussian": { 
		 "optdone": 1, 
		 "sigma_profile": "yes", 
		 "theory": "DFT", 
		 "functional": "B3LYP", 
		 "basiset": "6-31G**", 
		 "properties": { 
			 "R2extent": 7725.5536, 
			 "electric_dipole_moment_norm": 5.84862636693, 
			 "electric_quadrupole_moment_norm": 13.5099619089, 
			 "total_energy": -1256.62786033, 
			 "HOMO_LUMO_gap": 0.15425, 
			 "cosmo_polarized_energy": -20.83, 
			 "cosmo_cavitation_energy": 39.67, 
			 "cosmo_dispersion_energy": -29.36, 
			 "cosmo_repulsion_energy": 2.21, 
			 "cosmo_total_nonelectrostatic_energy": 12.51, 
			 "SMD_solvation_energy": 4.61 
		},
		"coords": [
			{
				"x": -0.0194940526,
				"y": 5.4441809046,
				"z": 3.142833799,
				"element": "C" 
			},
			{
				"x": -0.2269700119,
				"y": 4.0728767236,
				"z": 2.5513519179,
				"element": "C" 
			},
			{
				"x": 0.3899235478,
				"y": 3.8104440018,
				"z": 1.3958314635,
				"element": "N" 
			},
			{
				"x": 0.2214092185,
				"y": 2.5858220658,
				"z": 0.8959216175,
				"element": "C" 
			},
			{
				"x": -0.5487406149,
				"y": 1.5435291846,
				"z": 1.4716809905,
				"element": "C" 
			},
			{
				"x": -0.521138154,
				"y": 0.3486099446,
				"z": 0.6501723554,
				"element": "C" 
			},
			{
				"x": -1.1748323103,
				"y": -0.8355220436,
				"z": 1.0020459818,
				"element": "N" 
			},
			{
				"x": 0.2056762277,
				"y": 0.5264836645,
				"z": -0.5112068711,
				"element": "C" 
			},
			{
				"x": 0.962791715,
				"y": 2.1163082996,
				"z": -0.6177582287,
				"element": "S" 
			},
			{
				"x": 0.5821899965,
				"y": -0.4700208658,
				"z": -1.5364666317,
				"element": "C" 
			},
			{
				"x": 1.7046145479,
				"y": -0.4860381207,
				"z": -2.0387545486,
				"element": "O" 
			},
			{
				"x": -0.3687351139,
				"y": -1.428400453,
				"z": -1.8808812938,
				"element": "N" 
			},
			{
				"x": -1.8121749506,
				"y": -1.1177926595,
				"z": -1.9656601767,
				"element": "C" 
			},
			{
				"x": -2.3222991949,
				"y": -1.3960413779,
				"z": -3.3776379616,
				"element": "C" 
			},
			{
				"x": -2.1657983067,
				"y": -2.7609693263,
				"z": -3.7538927568,
				"element": "O" 
			},
			{
				"x": -1.0382004925,
				"y": -3.405136997,
				"z": -3.1631473847,
				"element": "C" 
			},
			{
				"x": 0.0977685672,
				"y": -2.4425644461,
				"z": -2.8442747134,
				"element": "C" 
			},
			{
				"x": -1.2104769375,
				"y": 1.8366731247,
				"z": 2.6899389592,
				"element": "C" 
			},
			{
				"x": -2.0887724483,
				"y": 0.8484087764,
				"z": 3.4202045536,
				"element": "C" 
			},
			{
				"x": -1.0301428373,
				"y": 3.1156720038,
				"z": 3.2059511014,
				"element": "C" 
			},
			{
				"x": 0.3495990902,
				"y": 6.1264806755,
				"z": 2.3752840432,
				"element": "H" 
			},
			{
				"x": 0.7223283798,
				"y": 5.4104037741,
				"z": 3.9504996733,
				"element": "H" 
			},
			{
				"x": -0.9459380072,
				"y": 5.8433898585,
				"z": 3.5678212956,
				"element": "H" 
			},
			{
				"x": -1.1558987493,
				"y": -1.0359381729,
				"z": 1.9923699195,
				"element": "H" 
			},
			{
				"x": -0.8535496365,
				"y": -1.6312988827,
				"z": 0.4617642116,
				"element": "H" 
			},
			{
				"x": -2.3842808021,
				"y": -1.7165288871,
				"z": -1.2476144229,
				"element": "H" 
			},
			{
				"x": -1.9689909541,
				"y": -0.0677419194,
				"z": -1.7102761906,
				"element": "H" 
			},
			{
				"x": -1.8035878542,
				"y": -0.7387092707,
				"z": -4.0924841862,
				"element": "H" 
			},
			{
				"x": -3.3928922921,
				"y": -1.1721560563,
				"z": -3.4345041588,
				"element": "H" 
			},
			{
				"x": -1.344159094,
				"y": -3.9329948588,
				"z": -2.2455536983,
				"element": "H" 
			},
			{
				"x": -0.6917941057,
				"y": -4.1592857652,
				"z": -3.8770816018,
				"element": "H" 
			},
			{
				"x": 0.9464001715,
				"y": -2.9812147967,
				"z": -2.4131147607,
				"element": "H" 
			},
			{
				"x": 0.4645053011,
				"y": -1.9610821302,
				"z": -3.75938643,
				"element": "H" 
			},
			{
				"x": -1.4935976156,
				"y": 0.0603008705,
				"z": 3.9005710934,
				"element": "H" 
			},
			{
				"x": -2.6517998099,
				"y": 1.3480250585,
				"z": 4.2122782278,
				"element": "H" 
			},
			{
				"x": -2.800353944,
				"y": 0.3638265026,
				"z": 2.7457429838,
				"element": "H" 
			},
			{
				"x": -1.5257884735,
				"y": 3.3901015962,
				"z": 4.1330318284,
				"element": "H" 
			}
		],
		 "valence_orbital": [ 
			{
				"type": "occ",
				"energy": -0.26066,
				"method": "rhf"
			},
			{
				"type": "occ",
				"energy": -0.25423,
				"method": "rhf"
			},
			{
				"type": "occ",
				"energy": -0.2433,
				"method": "rhf"
			},
			{
				"type": "occ",
				"energy": -0.23492,
				"method": "rhf"
			},
			{
				"type": "occ",
				"energy": -0.20309,
				"method": "rhf"
			},
			{
				"type": "unocc",
				"energy": -0.04884,
				"method": "rhf"
			},
			{
				"type": "unocc",
				"energy": -0.01535,
				"method": "rhf"
			},
			{
				"type": "unocc",
				"energy": 0.01024,
				"method": "rhf"
			},
			{
				"type": "unocc",
				"energy": 0.03508,
				"method": "rhf"
			},
			{
				"type": "unocc",
				"energy": 0.06215,
				"method": "rhf"
			}
		],
		"cosmo_sigma_profile": { 
			"-0.025": 0.0,
			"-0.024": 0.0,
			"-0.023": 0.0,
			"-0.022": 0.0,
			"-0.021": 0.0,
			"-0.02": 0.0,
			"-0.019": 0.0,
			"-0.018": 0.0,
			"-0.017": 0.0,
			"-0.016": 0.0,
			"-0.015": 0.0,
			"-0.014": 0.0,
			"-0.013": 0.313897393121,
			"-0.012": 1.66553825905,
			"-0.011": 1.99742378128,
			"-0.01": 3.10821372551,
			"-0.009": 2.91651285844,
			"-0.008": 2.38811728362,
			"-0.007": 3.06424924369,
			"-0.006": 11.0557487562,
			"-0.005": 29.3367993486,
			"-0.004": 36.5957922143,
			"-0.003": 29.8997196143,
			"-0.002": 24.9984487709,
			"-0.001": 23.6125378847,
			"0.0": 19.0228678188,
			"0.001": 21.2055213051,
			"0.002": 21.3411674604,
			"0.003": 15.0319604416,
			"0.004": 11.5616690031,
			"0.005": 8.89675555865,
			"0.006": 6.85858052936,
			"0.007": 5.35428145439,
			"0.008": 6.17252283372,
			"0.009": 3.86743260026,
			"0.01": 3.56800293294,
			"0.011": 4.82515046897,
			"0.012": 4.08704203901,
			"0.013": 6.68564810857,
			"0.014": 5.04957189845,
			"0.015": 0.43690977685,
			"0.016": 0.0,
			"0.017": 0.0,
			"0.018": 0.0,
			"0.019": 0.0,
			"0.02": 0.0,
			"0.021": 0.0,
			"0.022": 0.0,
			"0.023": 0.0,
			"0.024": 0.0,
			"0.025": 0.0
		}
	}
}
