{
	 "smiles": "O=C1CNC2=C(N1)C=NC=C2", 
	 "Tm": 533.15, 
	 "num_atms": 18, 
	 "gaussian": { 
		 "optdone": 1, 
		 "sigma_profile": "yes", 
		 "theory": "DFT", 
		 "functional": "B3LYP", 
		 "basiset": "6-31G**", 
		 "properties": { 
			 "R2extent": 1696.3413, 
			 "electric_dipole_moment_norm": 2.99113771164, 
			 "electric_quadrupole_moment_norm": 14.7691205436, 
			 "total_energy": -510.452480639, 
			 "HOMO_LUMO_gap": 0.19726, 
			 "cosmo_polarized_energy": -16.86, 
			 "cosmo_cavitation_energy": 21.86, 
			 "cosmo_dispersion_energy": -16.81, 
			 "cosmo_repulsion_energy": 1.34, 
			 "cosmo_total_nonelectrostatic_energy": 6.38, 
			 "SMD_solvation_energy": 1.9 
		},
		"coords": [
			{
				"x": -2.3194246263,
				"y": 1.2184233727,
				"z": 1.7177114482,
				"element": "O" 
			},
			{
				"x": -1.357326991,
				"y": 0.6843370506,
				"z": 1.1925543683,
				"element": "C" 
			},
			{
				"x": 0.0612406051,
				"y": 0.8522301161,
				"z": 1.7365315266,
				"element": "C" 
			},
			{
				"x": 0.9329406976,
				"y": -0.2553921419,
				"z": 1.3606333967,
				"element": "N" 
			},
			{
				"x": 0.8583860897,
				"y": -0.7685423412,
				"z": 0.0798398688,
				"element": "C" 
			},
			{
				"x": -0.3701032686,
				"y": -0.6782661037,
				"z": -0.6064073188,
				"element": "C" 
			},
			{
				"x": -1.4515248368,
				"y": -0.0579862975,
				"z": 0.0422966703,
				"element": "N" 
			},
			{
				"x": -0.4756677668,
				"y": -1.2354344986,
				"z": -1.8777211818,
				"element": "C" 
			},
			{
				"x": 0.5243042459,
				"y": -1.8725817434,
				"z": -2.4996008746,
				"element": "N" 
			},
			{
				"x": 1.6851812632,
				"y": -1.9619184042,
				"z": -1.8401339319,
				"element": "C" 
			},
			{
				"x": 1.9054016249,
				"y": -1.4312669696,
				"z": -0.5695284172,
				"element": "C" 
			},
			{
				"x": -0.0194311954,
				"y": 0.9095024399,
				"z": 2.8239030635,
				"element": "H" 
			},
			{
				"x": 0.4295336395,
				"y": 1.8298788536,
				"z": 1.3788933205,
				"element": "H" 
			},
			{
				"x": 1.8569540356,
				"y": -0.2346227501,
				"z": 1.7698816763,
				"element": "H" 
			},
			{
				"x": -2.3776232119,
				"y": -0.119593371,
				"z": -0.3619394818,
				"element": "H" 
			},
			{
				"x": -1.4224499912,
				"y": -1.1677227666,
				"z": -2.414343896,
				"element": "H" 
			},
			{
				"x": 2.4924037362,
				"y": -2.4802600794,
				"z": -2.3539132876,
				"element": "H" 
			},
			{
				"x": 2.8735059504,
				"y": -1.5348843658,
				"z": -0.0873569495,
				"element": "H" 
			}
		],
		 "valence_orbital": [ 
			{
				"type": "occ",
				"energy": -0.31516,
				"method": "rhf"
			},
			{
				"type": "occ",
				"energy": -0.27038,
				"method": "rhf"
			},
			{
				"type": "occ",
				"energy": -0.25374,
				"method": "rhf"
			},
			{
				"type": "occ",
				"energy": -0.24607,
				"method": "rhf"
			},
			{
				"type": "occ",
				"energy": -0.21607,
				"method": "rhf"
			},
			{
				"type": "unocc",
				"energy": -0.01881,
				"method": "rhf"
			},
			{
				"type": "unocc",
				"energy": -0.01233,
				"method": "rhf"
			},
			{
				"type": "unocc",
				"energy": 0.02653,
				"method": "rhf"
			},
			{
				"type": "unocc",
				"energy": 0.06718,
				"method": "rhf"
			},
			{
				"type": "unocc",
				"energy": 0.0841,
				"method": "rhf"
			}
		],
		"cosmo_sigma_profile": { 
			"-0.025": 0.0,
			"-0.024": 0.0,
			"-0.023": 0.0,
			"-0.022": 0.0,
			"-0.021": 0.0,
			"-0.02": 0.0,
			"-0.019": 0.0,
			"-0.018": 0.0,
			"-0.017": 0.0,
			"-0.016": 0.150084553065,
			"-0.015": 1.11056197958,
			"-0.014": 2.78779741522,
			"-0.013": 2.8798047848,
			"-0.012": 2.6256775252,
			"-0.011": 2.26198862641,
			"-0.01": 2.6593368522,
			"-0.009": 3.08558445952,
			"-0.008": 3.21591072775,
			"-0.007": 7.89730267717,
			"-0.006": 11.8645520944,
			"-0.005": 11.3066804691,
			"-0.004": 10.6193349539,
			"-0.003": 7.93662588555,
			"-0.002": 7.56365564284,
			"-0.001": 8.23523542728,
			"0.0": 7.97712231913,
			"0.001": 9.52792368165,
			"0.002": 10.7714385112,
			"0.003": 11.0338266131,
			"0.004": 8.59040944914,
			"0.005": 5.20354562314,
			"0.006": 3.99914497192,
			"0.007": 2.29397129828,
			"0.008": 3.49129553547,
			"0.009": 3.80211026933,
			"0.01": 2.23669573226,
			"0.011": 2.45408390428,
			"0.012": 4.91856139534,
			"0.013": 6.37847437878,
			"0.014": 2.61300540961,
			"0.015": 0.951971331938,
			"0.016": 0.827961588122,
			"0.017": 0.899677459,
			"0.018": 0.214137862238,
			"0.019": 0.0,
			"0.02": 0.0,
			"0.021": 0.0,
			"0.022": 0.0,
			"0.023": 0.0,
			"0.024": 0.0,
			"0.025": 0.0
		}
	}
}
