{
	 "smiles": "FC(F)(F)OC1=CC=C(CBr)C=C1", 
	 "Tm": 296.15, 
	 "num_atms": 19, 
	 "gaussian": { 
		 "optdone": 1, 
		 "sigma_profile": "yes", 
		 "theory": "DFT", 
		 "functional": "B3LYP", 
		 "basiset": "6-31G**", 
		 "properties": { 
			 "R2extent": 5539.6716, 
			 "electric_dipole_moment_norm": 1.89500047493, 
			 "electric_quadrupole_moment_norm": 9.92841831764, 
			 "total_energy": -3254.62328909, 
			 "HOMO_LUMO_gap": 0.20514, 
			 "cosmo_polarized_energy": -6.38, 
			 "cosmo_cavitation_energy": 27.34, 
			 "cosmo_dispersion_energy": -19.89, 
			 "cosmo_repulsion_energy": 1.53, 
			 "cosmo_total_nonelectrostatic_energy": 8.98, 
			 "SMD_solvation_energy": 4.96 
		},
		"coords": [
			{
				"x": 3.1730253144,
				"y": 3.5564598032,
				"z": -0.9093939575,
				"element": "F" 
			},
			{
				"x": 1.8994027803,
				"y": 3.2134868634,
				"z": -0.7310241568,
				"element": "C" 
			},
			{
				"x": 1.400815036,
				"y": 3.9330816491,
				"z": 0.2935246354,
				"element": "F" 
			},
			{
				"x": 1.2046680833,
				"y": 3.5545836985,
				"z": -1.8336428698,
				"element": "F" 
			},
			{
				"x": 1.8704762515,
				"y": 1.8790862224,
				"z": -0.490228383,
				"element": "O" 
			},
			{
				"x": 0.6703428522,
				"y": 1.2081264544,
				"z": -0.2566268356,
				"element": "C" 
			},
			{
				"x": 0.8192314031,
				"y": -0.1576671155,
				"z": -0.0121319352,
				"element": "C" 
			},
			{
				"x": -0.3057209705,
				"y": -0.934689431,
				"z": 0.2371410675,
				"element": "C" 
			},
			{
				"x": -1.5868070213,
				"y": -0.3638965455,
				"z": 0.2487781182,
				"element": "C" 
			},
			{
				"x": -2.7923685505,
				"y": -1.1967464007,
				"z": 0.5315684297,
				"element": "C" 
			},
			{
				"x": -3.5620803863,
				"y": -2.0199030251,
				"z": -1.1321452658,
				"element": "Br" 
			},
			{
				"x": -1.7064974047,
				"y": 1.0078739985,
				"z": -0.0020149257,
				"element": "C" 
			},
			{
				"x": -0.5905917837,
				"y": 1.8052702101,
				"z": -0.2543518424,
				"element": "C" 
			},
			{
				"x": 1.8145950695,
				"y": -0.5880916402,
				"z": -0.0198266228,
				"element": "H" 
			},
			{
				"x": -0.1881567087,
				"y": -1.9987507466,
				"z": 0.4219793631,
				"element": "H" 
			},
			{
				"x": -3.6156198034,
				"y": -0.6191297105,
				"z": 0.9475144467,
				"element": "H" 
			},
			{
				"x": -2.5752367587,
				"y": -2.0498978855,
				"z": 1.1715428788,
				"element": "H" 
			},
			{
				"x": -2.6904785699,
				"y": 1.468560958,
				"z": -0.0041885387,
				"element": "H" 
			},
			{
				"x": -0.7142988327,
				"y": 2.863242643,
				"z": -0.4418736061,
				"element": "H" 
			}
		],
		 "valence_orbital": [ 
			{
				"type": "occ",
				"energy": -0.34971,
				"method": "rhf"
			},
			{
				"type": "occ",
				"energy": -0.27735,
				"method": "rhf"
			},
			{
				"type": "occ",
				"energy": -0.27631,
				"method": "rhf"
			},
			{
				"type": "occ",
				"energy": -0.26994,
				"method": "rhf"
			},
			{
				"type": "occ",
				"energy": -0.24882,
				"method": "rhf"
			},
			{
				"type": "unocc",
				"energy": -0.04368,
				"method": "rhf"
			},
			{
				"type": "unocc",
				"energy": -0.02391,
				"method": "rhf"
			},
			{
				"type": "unocc",
				"energy": 0.02268,
				"method": "rhf"
			},
			{
				"type": "unocc",
				"energy": 0.07271,
				"method": "rhf"
			},
			{
				"type": "unocc",
				"energy": 0.10675,
				"method": "rhf"
			}
		],
		"cosmo_sigma_profile": { 
			"-0.025": 0.0,
			"-0.024": 0.0,
			"-0.023": 0.0,
			"-0.022": 0.0,
			"-0.021": 0.0,
			"-0.02": 0.0,
			"-0.019": 0.0,
			"-0.018": 0.0,
			"-0.017": 0.0,
			"-0.016": 0.0,
			"-0.015": 0.0,
			"-0.014": 0.0,
			"-0.013": 0.0,
			"-0.012": 0.0,
			"-0.011": 0.0,
			"-0.01": 0.0,
			"-0.009": 0.0,
			"-0.008": 4.89670604221,
			"-0.007": 12.6029818351,
			"-0.006": 12.2062063423,
			"-0.005": 9.03752140194,
			"-0.004": 9.40109944972,
			"-0.003": 8.77386719569,
			"-0.002": 10.3441247721,
			"-0.001": 15.3239517484,
			"0.0": 18.6040964999,
			"0.001": 32.3979201298,
			"0.002": 36.8333951219,
			"0.003": 16.8448972293,
			"0.004": 11.0789239959,
			"0.005": 8.01603790189,
			"0.006": 11.7444663535,
			"0.007": 4.44686256237,
			"0.008": 0.0,
			"0.009": 0.0,
			"0.01": 0.0,
			"0.011": 0.0,
			"0.012": 0.0,
			"0.013": 0.0,
			"0.014": 0.0,
			"0.015": 0.0,
			"0.016": 0.0,
			"0.017": 0.0,
			"0.018": 0.0,
			"0.019": 0.0,
			"0.02": 0.0,
			"0.021": 0.0,
			"0.022": 0.0,
			"0.023": 0.0,
			"0.024": 0.0,
			"0.025": 0.0
		}
	}
}
