{
	 "smiles": "FC(F)(F)C1=CC=CC=C1CC#N", 
	 "Tm": 304.65, 
	 "num_atms": 19, 
	 "gaussian": { 
		 "optdone": 1, 
		 "sigma_profile": "yes", 
		 "theory": "DFT", 
		 "functional": "B3LYP", 
		 "basiset": "6-31G**", 
		 "properties": { 
			 "R2extent": 2458.9875, 
			 "electric_dipole_moment_norm": 4.87320132767, 
			 "electric_quadrupole_moment_norm": 15.2146811505, 
			 "total_energy": -700.834436645, 
			 "HOMO_LUMO_gap": 0.23231, 
			 "cosmo_polarized_energy": -10.49, 
			 "cosmo_cavitation_energy": 25.13, 
			 "cosmo_dispersion_energy": -17.34, 
			 "cosmo_repulsion_energy": 1.31, 
			 "cosmo_total_nonelectrostatic_energy": 9.11, 
			 "SMD_solvation_energy": 6.67 
		},
		"coords": [
			{
				"x": -0.8303674379,
				"y": 1.3266691623,
				"z": 3.1093622397,
				"element": "F" 
			},
			{
				"x": -0.9069511136,
				"y": 0.2482817795,
				"z": 2.3065298262,
				"element": "C" 
			},
			{
				"x": -2.2060555138,
				"y": 0.0878976793,
				"z": 1.9681854046,
				"element": "F" 
			},
			{
				"x": -0.5691177394,
				"y": -0.8316176873,
				"z": 3.0607923686,
				"element": "F" 
			},
			{
				"x": -0.0208677522,
				"y": 0.3715785965,
				"z": 1.0914197632,
				"element": "C" 
			},
			{
				"x": 0.8165855154,
				"y": 1.4835362636,
				"z": 0.9722044969,
				"element": "C" 
			},
			{
				"x": 1.6539529143,
				"y": 1.6221803246,
				"z": -0.133580978,
				"element": "C" 
			},
			{
				"x": 1.6566033216,
				"y": 0.6423216617,
				"z": -1.124487899,
				"element": "C" 
			},
			{
				"x": 0.8233718286,
				"y": -0.4699668054,
				"z": -1.0041469372,
				"element": "C" 
			},
			{
				"x": -0.0230150988,
				"y": -0.6243414936,
				"z": 0.0971082693,
				"element": "C" 
			},
			{
				"x": -0.9193529792,
				"y": -1.8581483257,
				"z": 0.1677559501,
				"element": "C" 
			},
			{
				"x": -2.1918083092,
				"y": -1.670318877,
				"z": -0.541553084,
				"element": "C" 
			},
			{
				"x": -3.1876031338,
				"y": -1.5273721177,
				"z": -1.1196615081,
				"element": "N" 
			},
			{
				"x": 0.8067701226,
				"y": 2.2388238588,
				"z": 1.7490073814,
				"element": "H" 
			},
			{
				"x": 2.2996913951,
				"y": 2.4906192794,
				"z": -0.2168835372,
				"element": "H" 
			},
			{
				"x": 2.3052442497,
				"y": 0.7392451528,
				"z": -1.9897835345,
				"element": "H" 
			},
			{
				"x": 0.8263590374,
				"y": -1.2319902596,
				"z": -1.7787139487,
				"element": "H" 
			},
			{
				"x": -1.1343254899,
				"y": -2.139534386,
				"z": 1.2009115192,
				"element": "H" 
			},
			{
				"x": -0.4018138171,
				"y": -2.7076638061,
				"z": -0.2913657925,
				"element": "H" 
			}
		],
		 "valence_orbital": [ 
			{
				"type": "occ",
				"energy": -0.35681,
				"method": "rhf"
			},
			{
				"type": "occ",
				"energy": -0.32561,
				"method": "rhf"
			},
			{
				"type": "occ",
				"energy": -0.32408,
				"method": "rhf"
			},
			{
				"type": "occ",
				"energy": -0.28188,
				"method": "rhf"
			},
			{
				"type": "occ",
				"energy": -0.27593,
				"method": "rhf"
			},
			{
				"type": "unocc",
				"energy": -0.04362,
				"method": "rhf"
			},
			{
				"type": "unocc",
				"energy": -0.03241,
				"method": "rhf"
			},
			{
				"type": "unocc",
				"energy": 0.03692,
				"method": "rhf"
			},
			{
				"type": "unocc",
				"energy": 0.04098,
				"method": "rhf"
			},
			{
				"type": "unocc",
				"energy": 0.08383,
				"method": "rhf"
			}
		],
		"cosmo_sigma_profile": { 
			"-0.025": 0.0,
			"-0.024": 0.0,
			"-0.023": 0.0,
			"-0.022": 0.0,
			"-0.021": 0.0,
			"-0.02": 0.0,
			"-0.019": 0.0,
			"-0.018": 0.0,
			"-0.017": 0.0,
			"-0.016": 0.0,
			"-0.015": 0.0,
			"-0.014": 0.0,
			"-0.013": 0.0,
			"-0.012": 0.0,
			"-0.011": 0.0,
			"-0.01": 0.879650910786,
			"-0.009": 4.17938570343,
			"-0.008": 4.88224209334,
			"-0.007": 9.62995689137,
			"-0.006": 13.6666069329,
			"-0.005": 12.1535896801,
			"-0.004": 9.0637442386,
			"-0.003": 10.0938485768,
			"-0.002": 9.86861369947,
			"-0.001": 11.1636367346,
			"0.0": 15.4747082292,
			"0.001": 16.8747073819,
			"0.002": 31.042541512,
			"0.003": 25.4590118531,
			"0.004": 3.75083350598,
			"0.005": 2.21243108165,
			"0.006": 2.95166648132,
			"0.007": 2.50376887264,
			"0.008": 3.39196550055,
			"0.009": 3.42582908609,
			"0.01": 3.17242412762,
			"0.011": 2.8563698818,
			"0.012": 2.41778924697,
			"0.013": 1.69341202142,
			"0.014": 0.126053278319,
			"0.015": 0.0,
			"0.016": 0.0,
			"0.017": 0.0,
			"0.018": 0.0,
			"0.019": 0.0,
			"0.02": 0.0,
			"0.021": 0.0,
			"0.022": 0.0,
			"0.023": 0.0,
			"0.024": 0.0,
			"0.025": 0.0
		}
	}
}
