{
	 "smiles": "OC(=O)C=CC1=CC=CC(=C1)C(Br)=C(/Br)C(O)=O", 
	 "Tm": 487.15, 
	 "num_atms": 26, 
	 "gaussian": { 
		 "optdone": 1, 
		 "sigma_profile": "yes", 
		 "theory": "DFT", 
		 "functional": "B3LYP", 
		 "basiset": "6-31G**", 
		 "properties": { 
			 "R2extent": 10954.2, 
			 "electric_dipole_moment_norm": 4.07002391762, 
			 "electric_quadrupole_moment_norm": 17.1484107199, 
			 "total_energy": -5905.78272221, 
			 "HOMO_LUMO_gap": 0.16882, 
			 "cosmo_polarized_energy": -17.97, 
			 "cosmo_cavitation_energy": 37.6, 
			 "cosmo_dispersion_energy": -26.57, 
			 "cosmo_repulsion_energy": 2.1, 
			 "cosmo_total_nonelectrostatic_energy": 13.13, 
			 "SMD_solvation_energy": 6.95 
		},
		"coords": [
			{
				"x": -1.7924918141,
				"y": 4.9138096071,
				"z": 0.0167695076,
				"element": "O" 
			},
			{
				"x": -2.2564740809,
				"y": 3.9474521694,
				"z": 0.8547248316,
				"element": "C" 
			},
			{
				"x": -2.9049325851,
				"y": 4.2115313331,
				"z": 1.8490007545,
				"element": "O" 
			},
			{
				"x": -1.9005320497,
				"y": 2.5785189746,
				"z": 0.4428436008,
				"element": "C" 
			},
			{
				"x": -1.1848093748,
				"y": 2.2917954551,
				"z": -0.6601965283,
				"element": "C" 
			},
			{
				"x": -0.790299553,
				"y": 0.9649174176,
				"z": -1.141870229,
				"element": "C" 
			},
			{
				"x": -0.0076871427,
				"y": 0.8756023473,
				"z": -2.3073529353,
				"element": "C" 
			},
			{
				"x": 0.3923777723,
				"y": -0.3610877232,
				"z": -2.8075445793,
				"element": "C" 
			},
			{
				"x": 0.0274203616,
				"y": -1.5335974291,
				"z": -2.1505939937,
				"element": "C" 
			},
			{
				"x": -0.751880152,
				"y": -1.4698890773,
				"z": -0.9821663033,
				"element": "C" 
			},
			{
				"x": -1.164038616,
				"y": -0.2256764063,
				"z": -0.4966647468,
				"element": "C" 
			},
			{
				"x": -1.1503598365,
				"y": -2.7152850961,
				"z": -0.2901175218,
				"element": "C" 
			},
			{
				"x": -3.0469940988,
				"y": -2.8929965929,
				"z": 0.0127255071,
				"element": "Br" 
			},
			{
				"x": -0.3589057114,
				"y": -3.6977557331,
				"z": 0.1617054164,
				"element": "C" 
			},
			{
				"x": 1.5455826501,
				"y": -3.5793241931,
				"z": 0.0895442791,
				"element": "Br" 
			},
			{
				"x": -0.8128677661,
				"y": -4.94557221,
				"z": 0.8693597539,
				"element": "C" 
			},
			{
				"x": -1.4591336156,
				"y": -5.7819472368,
				"z": 0.0344423811,
				"element": "O" 
			},
			{
				"x": -0.591217763,
				"y": -5.1846655506,
				"z": 2.0318005494,
				"element": "O" 
			},
			{
				"x": -2.0923992398,
				"y": 5.7542957205,
				"z": 0.3991798908,
				"element": "H" 
			},
			{
				"x": -2.2722656581,
				"y": 1.8164219231,
				"z": 1.1193183862,
				"element": "H" 
			},
			{
				"x": -0.8521167851,
				"y": 3.1268323012,
				"z": -1.2725310108,
				"element": "H" 
			},
			{
				"x": 0.2811658999,
				"y": 1.7876705528,
				"z": -2.8225320369,
				"element": "H" 
			},
			{
				"x": 0.9871848309,
				"y": -0.4138509649,
				"z": -3.714155378,
				"element": "H" 
			},
			{
				"x": 0.3329484825,
				"y": -2.4980171491,
				"z": -2.5404954948,
				"element": "H" 
			},
			{
				"x": -1.7851518091,
				"y": -0.1906469281,
				"z": 0.3914902185,
				"element": "H" 
			},
			{
				"x": -1.7290223453,
				"y": -6.5490355113,
				"z": 0.5690156809,
				"element": "H" 
			}
		],
		 "valence_orbital": [ 
			{
				"type": "occ",
				"energy": -0.29375,
				"method": "rhf"
			},
			{
				"type": "occ",
				"energy": -0.27683,
				"method": "rhf"
			},
			{
				"type": "occ",
				"energy": -0.27482,
				"method": "rhf"
			},
			{
				"type": "occ",
				"energy": -0.25386,
				"method": "rhf"
			},
			{
				"type": "occ",
				"energy": -0.24603,
				"method": "rhf"
			},
			{
				"type": "unocc",
				"energy": -0.07721,
				"method": "rhf"
			},
			{
				"type": "unocc",
				"energy": -0.06956,
				"method": "rhf"
			},
			{
				"type": "unocc",
				"energy": -0.03601,
				"method": "rhf"
			},
			{
				"type": "unocc",
				"energy": -0.03131,
				"method": "rhf"
			},
			{
				"type": "unocc",
				"energy": 0.00226,
				"method": "rhf"
			}
		],
		"cosmo_sigma_profile": { 
			"-0.025": 0.0,
			"-0.024": 0.0,
			"-0.023": 0.0,
			"-0.022": 0.0,
			"-0.021": 0.0,
			"-0.02": 0.0,
			"-0.019": 0.990085936007,
			"-0.018": 1.63616966565,
			"-0.017": 1.35215075245,
			"-0.016": 1.80826706239,
			"-0.015": 1.6949036236,
			"-0.014": 1.82014515464,
			"-0.013": 0.96347213691,
			"-0.012": 1.21084013649,
			"-0.011": 1.93974665651,
			"-0.01": 1.3851545394,
			"-0.009": 2.55730215415,
			"-0.008": 5.43474470234,
			"-0.007": 10.2529359088,
			"-0.006": 12.620908914,
			"-0.005": 13.9580833717,
			"-0.004": 13.4314600399,
			"-0.003": 14.7095727361,
			"-0.002": 17.9458146552,
			"-0.001": 23.3055169921,
			"0.0": 25.3755987729,
			"0.001": 29.7537420051,
			"0.002": 35.6437758753,
			"0.003": 28.9108185405,
			"0.004": 9.01723147698,
			"0.005": 6.9580949975,
			"0.006": 6.45999147026,
			"0.007": 6.48276596618,
			"0.008": 5.67437068075,
			"0.009": 4.48445942733,
			"0.01": 6.4638156267,
			"0.011": 5.94953075768,
			"0.012": 5.53265230491,
			"0.013": 1.98304375563,
			"0.014": 0.01162024394,
			"0.015": 0.0,
			"0.016": 0.0,
			"0.017": 0.0,
			"0.018": 0.0,
			"0.019": 0.0,
			"0.02": 0.0,
			"0.021": 0.0,
			"0.022": 0.0,
			"0.023": 0.0,
			"0.024": 0.0,
			"0.025": 0.0
		}
	}
}
