{
	 "smiles": "CCOC1=C(CN2CCCC2)C=C(N)C=C1", 
	 "Tm": 332.15, 
	 "num_atms": 36, 
	 "gaussian": { 
		 "optdone": 1, 
		 "sigma_profile": "yes", 
		 "theory": "DFT", 
		 "functional": "B3LYP", 
		 "basiset": "6-31G**", 
		 "properties": { 
			 "R2extent": 4318.0557, 
			 "electric_dipole_moment_norm": 2.42695312893, 
			 "electric_quadrupole_moment_norm": 10.9251238982, 
			 "total_energy": -692.148641063, 
			 "HOMO_LUMO_gap": 0.18332, 
			 "cosmo_polarized_energy": -10.68, 
			 "cosmo_cavitation_energy": 35.82, 
			 "cosmo_dispersion_energy": -25.03, 
			 "cosmo_repulsion_energy": 1.97, 
			 "cosmo_total_nonelectrostatic_energy": 12.76, 
			 "SMD_solvation_energy": 2.89 
		},
		"coords": [
			{
				"x": -1.1455650322,
				"y": -3.1019827296,
				"z": -4.0308059658,
				"element": "C" 
			},
			{
				"x": -0.1513685974,
				"y": -2.8227858019,
				"z": -2.9164297312,
				"element": "C" 
			},
			{
				"x": -0.6809195911,
				"y": -1.7728366605,
				"z": -2.1143454292,
				"element": "O" 
			},
			{
				"x": 0.0093549873,
				"y": -1.3921245033,
				"z": -0.9850289174,
				"element": "C" 
			},
			{
				"x": -0.6163143455,
				"y": -0.4342546977,
				"z": -0.1585807237,
				"element": "C" 
			},
			{
				"x": -1.9856865298,
				"y": 0.1493151827,
				"z": -0.5058663473,
				"element": "C" 
			},
			{
				"x": -2.0685019238,
				"y": 1.3836097615,
				"z": -1.3017497714,
				"element": "N" 
			},
			{
				"x": -1.5776449749,
				"y": 1.3203321999,
				"z": -2.6840083212,
				"element": "C" 
			},
			{
				"x": -0.1116600803,
				"y": 1.8358190676,
				"z": -2.6765863249,
				"element": "C" 
			},
			{
				"x": -0.0097071332,
				"y": 2.6861331967,
				"z": -1.3808476388,
				"element": "C" 
			},
			{
				"x": -1.4218102572,
				"y": 2.5740266005,
				"z": -0.7397974922,
				"element": "C" 
			},
			{
				"x": 0.0328136779,
				"y": -0.0477268135,
				"z": 1.0151262586,
				"element": "C" 
			},
			{
				"x": 1.2928395683,
				"y": -0.5484387345,
				"z": 1.3837422755,
				"element": "C" 
			},
			{
				"x": 1.8849612992,
				"y": -0.1755034326,
				"z": 2.6019050396,
				"element": "N" 
			},
			{
				"x": 1.8976981153,
				"y": -1.4830276979,
				"z": 0.5370749471,
				"element": "C" 
			},
			{
				"x": 1.2593325563,
				"y": -1.9064540541,
				"z": -0.6307358439,
				"element": "C" 
			},
			{
				"x": -0.7783515981,
				"y": -3.9122485972,
				"z": -4.6683704542,
				"element": "H" 
			},
			{
				"x": -1.2918478126,
				"y": -2.2136269775,
				"z": -4.6519169689,
				"element": "H" 
			},
			{
				"x": -2.1143237868,
				"y": -3.3968159125,
				"z": -3.6178480117,
				"element": "H" 
			},
			{
				"x": 0.0071457901,
				"y": -3.7205543396,
				"z": -2.3013113401,
				"element": "H" 
			},
			{
				"x": 0.8236359554,
				"y": -2.5273916866,
				"z": -3.3313662909,
				"element": "H" 
			},
			{
				"x": -2.5105883224,
				"y": 0.349715779,
				"z": 0.4356060449,
				"element": "H" 
			},
			{
				"x": -2.5656003339,
				"y": -0.6102561347,
				"z": -1.0367008227,
				"element": "H" 
			},
			{
				"x": -1.6761583063,
				"y": 0.3090310855,
				"z": -3.0809708484,
				"element": "H" 
			},
			{
				"x": -2.196801571,
				"y": 1.9889243081,
				"z": -3.299433564,
				"element": "H" 
			},
			{
				"x": 0.5904545706,
				"y": 0.9983340637,
				"z": -2.6421676352,
				"element": "H" 
			},
			{
				"x": 0.1160769966,
				"y": 2.4163754774,
				"z": -3.5765619948,
				"element": "H" 
			},
			{
				"x": 0.7531056476,
				"y": 2.2778461527,
				"z": -0.7125118489,
				"element": "H" 
			},
			{
				"x": 0.2551455489,
				"y": 3.7287949569,
				"z": -1.5845834707,
				"element": "H" 
			},
			{
				"x": -1.401054422,
				"y": 2.5294437459,
				"z": 0.352809799,
				"element": "H" 
			},
			{
				"x": -2.0194760137,
				"y": 3.4545284859,
				"z": -1.0160483486,
				"element": "H" 
			},
			{
				"x": -0.4664789003,
				"y": 0.656477879,
				"z": 1.678173236,
				"element": "H" 
			},
			{
				"x": 1.6160295268,
				"y": 0.7439147557,
				"z": 2.9272475833,
				"element": "H" 
			},
			{
				"x": 2.8910489466,
				"y": -0.2802733087,
				"z": 2.6203373915,
				"element": "H" 
			},
			{
				"x": 2.8685920838,
				"y": -1.899106729,
				"z": 0.7949839899,
				"element": "H" 
			},
			{
				"x": 1.7534242615,
				"y": -2.6406138871,
				"z": -1.2560324591,
				"element": "H" 
			}
		],
		 "valence_orbital": [ 
			{
				"type": "occ",
				"energy": -0.30247,
				"method": "rhf"
			},
			{
				"type": "occ",
				"energy": -0.27192,
				"method": "rhf"
			},
			{
				"type": "occ",
				"energy": -0.23973,
				"method": "rhf"
			},
			{
				"type": "occ",
				"energy": -0.19241,
				"method": "rhf"
			},
			{
				"type": "occ",
				"energy": -0.1817,
				"method": "rhf"
			},
			{
				"type": "unocc",
				"energy": 0.00162,
				"method": "rhf"
			},
			{
				"type": "unocc",
				"energy": 0.03036,
				"method": "rhf"
			},
			{
				"type": "unocc",
				"energy": 0.08316,
				"method": "rhf"
			},
			{
				"type": "unocc",
				"energy": 0.08691,
				"method": "rhf"
			},
			{
				"type": "unocc",
				"energy": 0.10054,
				"method": "rhf"
			}
		],
		"cosmo_sigma_profile": { 
			"-0.025": 0.0,
			"-0.024": 0.0,
			"-0.023": 0.0,
			"-0.022": 0.0,
			"-0.021": 0.0,
			"-0.02": 0.0,
			"-0.019": 0.0,
			"-0.018": 0.0,
			"-0.017": 0.0,
			"-0.016": 0.0,
			"-0.015": 0.0,
			"-0.014": 0.0,
			"-0.013": 0.0,
			"-0.012": 1.08708077887,
			"-0.011": 2.869326689,
			"-0.01": 1.91037567741,
			"-0.009": 3.49159515456,
			"-0.008": 3.24253331641,
			"-0.007": 2.72151518865,
			"-0.006": 4.68802365878,
			"-0.005": 10.8920392424,
			"-0.004": 18.3936961848,
			"-0.003": 23.4672442018,
			"-0.002": 28.0759873267,
			"-0.001": 32.2876449547,
			"0.0": 36.5806711108,
			"0.001": 28.4937470391,
			"0.002": 18.5484626387,
			"0.003": 11.8651696726,
			"0.004": 10.5996748796,
			"0.005": 9.57951270708,
			"0.006": 9.89973856865,
			"0.007": 8.00273909352,
			"0.008": 1.67364698503,
			"0.009": 0.780792548982,
			"0.01": 1.86584144186,
			"0.011": 1.68867839134,
			"0.012": 1.13024575556,
			"0.013": 1.6663270923,
			"0.014": 0.518912228138,
			"0.015": 1.25761458769,
			"0.016": 1.12631647667,
			"0.017": 0.402523903218,
			"0.018": 0.0415236040576,
			"0.019": 0.0,
			"0.02": 0.0,
			"0.021": 0.0,
			"0.022": 0.0,
			"0.023": 0.0,
			"0.024": 0.0,
			"0.025": 0.0
		}
	}
}
