{
	 "smiles": "CC1=NN(C(C)=C1)C1=NC=C(C=C1)C(N)=NO", 
	 "Tm": 413.15, 
	 "num_atms": 30, 
	 "gaussian": { 
		 "optdone": 1, 
		 "sigma_profile": "yes", 
		 "theory": "DFT", 
		 "functional": "B3LYP", 
		 "basiset": "6-31G**", 
		 "properties": { 
			 "R2extent": 6353.2035, 
			 "electric_dipole_moment_norm": 1.41615638614, 
			 "electric_quadrupole_moment_norm": 15.5856902767, 
			 "total_energy": -775.934281672, 
			 "HOMO_LUMO_gap": 0.16708, 
			 "cosmo_polarized_energy": -14.05, 
			 "cosmo_cavitation_energy": 34.43, 
			 "cosmo_dispersion_energy": -25.33, 
			 "cosmo_repulsion_energy": 1.99, 
			 "cosmo_total_nonelectrostatic_energy": 11.08, 
			 "SMD_solvation_energy": 4.95 
		},
		"coords": [
			{
				"x": 4.1964070307,
				"y": -1.3415845197,
				"z": -0.6247906252,
				"element": "C" 
			},
			{
				"x": 3.0038319476,
				"y": -0.5350794994,
				"z": -0.2126101224,
				"element": "C" 
			},
			{
				"x": 1.778490617,
				"y": -0.9982208502,
				"z": -0.4063213566,
				"element": "N" 
			},
			{
				"x": 0.9395983589,
				"y": -0.0279507192,
				"z": 0.0770172473,
				"element": "N" 
			},
			{
				"x": 1.6407516269,
				"y": 1.0563092301,
				"z": 0.5791476062,
				"element": "C" 
			},
			{
				"x": 1.0519836112,
				"y": 2.2934471499,
				"z": 1.1792064897,
				"element": "C" 
			},
			{
				"x": 2.9706809341,
				"y": 0.7459990569,
				"z": 0.4006590766,
				"element": "C" 
			},
			{
				"x": -0.4500759354,
				"y": -0.2537098383,
				"z": -0.0025461225,
				"element": "C" 
			},
			{
				"x": -1.2479943544,
				"y": 0.6848361792,
				"z": 0.5124306723,
				"element": "N" 
			},
			{
				"x": -2.5668874773,
				"y": 0.4921277582,
				"z": 0.4517496321,
				"element": "C" 
			},
			{
				"x": -3.1664347521,
				"y": -0.6345452985,
				"z": -0.1253921728,
				"element": "C" 
			},
			{
				"x": -2.3060566026,
				"y": -1.6067448864,
				"z": -0.6616248958,
				"element": "C" 
			},
			{
				"x": -0.932653114,
				"y": -1.4280663538,
				"z": -0.6032320385,
				"element": "C" 
			},
			{
				"x": -4.6359432009,
				"y": -0.7820318951,
				"z": -0.1615987781,
				"element": "C" 
			},
			{
				"x": -5.1593752304,
				"y": -2.0580219194,
				"z": -0.2749762051,
				"element": "N" 
			},
			{
				"x": -5.3493899566,
				"y": 0.2979070501,
				"z": -0.1409889595,
				"element": "N" 
			},
			{
				"x": -6.7297552809,
				"y": -0.043435369,
				"z": -0.1277236531,
				"element": "O" 
			},
			{
				"x": 4.8057997277,
				"y": -0.8029922336,
				"z": -1.3591757928,
				"element": "H" 
			},
			{
				"x": 3.8733803921,
				"y": -2.2856643185,
				"z": -1.0687135828,
				"element": "H" 
			},
			{
				"x": 4.8417279304,
				"y": -1.5636805162,
				"z": 0.2325607376,
				"element": "H" 
			},
			{
				"x": 0.4479521546,
				"y": 2.0710536376,
				"z": 2.0622395181,
				"element": "H" 
			},
			{
				"x": 0.394625369,
				"y": 2.813863958,
				"z": 0.4782025036,
				"element": "H" 
			},
			{
				"x": 1.8679165937,
				"y": 2.9629079592,
				"z": 1.4649694394,
				"element": "H" 
			},
			{
				"x": 3.809690491,
				"y": 1.3683018914,
				"z": 0.6779338634,
				"element": "H" 
			},
			{
				"x": -3.192865806,
				"y": 1.2668353249,
				"z": 0.8854609124,
				"element": "H" 
			},
			{
				"x": -2.715927912,
				"y": -2.4882435676,
				"z": -1.1452644203,
				"element": "H" 
			},
			{
				"x": -0.2361657266,
				"y": -2.1487110195,
				"z": -1.0087345346,
				"element": "H" 
			},
			{
				"x": -4.6559276055,
				"y": -2.7827587594,
				"z": 0.2167133037,
				"element": "H" 
			},
			{
				"x": -6.1619262996,
				"y": -2.0900231323,
				"z": -0.1445795363,
				"element": "H" 
			},
			{
				"x": -7.1500575308,
				"y": 0.8247755003,
				"z": -0.1325182061,
				"element": "H" 
			}
		],
		 "valence_orbital": [ 
			{
				"type": "occ",
				"energy": -0.27746,
				"method": "rhf"
			},
			{
				"type": "occ",
				"energy": -0.26238,
				"method": "rhf"
			},
			{
				"type": "occ",
				"energy": -0.23523,
				"method": "rhf"
			},
			{
				"type": "occ",
				"energy": -0.23325,
				"method": "rhf"
			},
			{
				"type": "occ",
				"energy": -0.20757,
				"method": "rhf"
			},
			{
				"type": "unocc",
				"energy": -0.04049,
				"method": "rhf"
			},
			{
				"type": "unocc",
				"energy": -0.02456,
				"method": "rhf"
			},
			{
				"type": "unocc",
				"energy": 0.02325,
				"method": "rhf"
			},
			{
				"type": "unocc",
				"energy": 0.06159,
				"method": "rhf"
			},
			{
				"type": "unocc",
				"energy": 0.07335,
				"method": "rhf"
			}
		],
		"cosmo_sigma_profile": { 
			"-0.025": 0.0,
			"-0.024": 0.0,
			"-0.023": 0.0,
			"-0.022": 0.0,
			"-0.021": 0.0,
			"-0.02": 0.0,
			"-0.019": 0.0,
			"-0.018": 0.0,
			"-0.017": 0.550959809623,
			"-0.016": 0.874487802136,
			"-0.015": 0.983779266806,
			"-0.014": 1.15442679831,
			"-0.013": 1.91905301956,
			"-0.012": 2.39089701976,
			"-0.011": 2.46568337341,
			"-0.01": 2.81928715883,
			"-0.009": 3.20202129987,
			"-0.008": 3.71873566391,
			"-0.007": 5.04714587915,
			"-0.006": 6.83479663582,
			"-0.005": 10.8848594361,
			"-0.004": 17.538526668,
			"-0.003": 18.2983418866,
			"-0.002": 18.4322612353,
			"-0.001": 24.5502295189,
			"0.0": 30.912867269,
			"0.001": 23.3953438004,
			"0.002": 19.3175910013,
			"0.003": 13.4558276255,
			"0.004": 13.8354565143,
			"0.005": 11.384062404,
			"0.006": 8.7503448792,
			"0.007": 9.34724585041,
			"0.008": 6.07613668969,
			"0.009": 5.57392249634,
			"0.01": 4.90229604842,
			"0.011": 3.20692122684,
			"0.012": 0.87579288724,
			"0.013": 0.707875052943,
			"0.014": 0.306762999342,
			"0.015": 0.0,
			"0.016": 0.0,
			"0.017": 0.0,
			"0.018": 0.0,
			"0.019": 0.0,
			"0.02": 0.0,
			"0.021": 0.0,
			"0.022": 0.0,
			"0.023": 0.0,
			"0.024": 0.0,
			"0.025": 0.0
		}
	}
}
