{
	 "smiles": "CCCN(CC1CC1)C1=C(C=C(C=C1[N+]([O-])=O)C(F)(F)F)[N+]([O-])=O", 
	 "Tm": 305.35, 
	 "num_atms": 40, 
	 "gaussian": { 
		 "optdone": 1, 
		 "sigma_profile": "yes", 
		 "theory": "DFT", 
		 "functional": "B3LYP", 
		 "basiset": "6-31G**", 
		 "properties": { 
			 "R2extent": 8312.6037, 
			 "electric_dipole_moment_norm": 1.4390054239, 
			 "electric_quadrupole_moment_norm": 14.3896569299, 
			 "total_energy": -1307.55118498, 
			 "HOMO_LUMO_gap": 0.13116, 
			 "cosmo_polarized_energy": -11.47, 
			 "cosmo_cavitation_energy": 44.16, 
			 "cosmo_dispersion_energy": -28.63, 
			 "cosmo_repulsion_energy": 2.1, 
			 "cosmo_total_nonelectrostatic_energy": 17.63, 
			 "SMD_solvation_energy": 12.45 
		},
		"coords": [
			{
				"x": 2.8285603772,
				"y": 1.9789657168,
				"z": 1.2917006801,
				"element": "C" 
			},
			{
				"x": 1.7662872187,
				"y": 2.9321605471,
				"z": 0.7370103819,
				"element": "C" 
			},
			{
				"x": 0.9312329,
				"y": 2.3198861251,
				"z": -0.4012451539,
				"element": "C" 
			},
			{
				"x": 0.03725948,
				"y": 1.2396584952,
				"z": 0.052242326,
				"element": "N" 
			},
			{
				"x": -1.3559823234,
				"y": 1.6314806743,
				"z": 0.3920035669,
				"element": "C" 
			},
			{
				"x": -1.5013196532,
				"y": 2.720990552,
				"z": 1.4306933203,
				"element": "C" 
			},
			{
				"x": -2.7482597217,
				"y": 2.7346097064,
				"z": 2.287343843,
				"element": "C" 
			},
			{
				"x": -1.4097661826,
				"y": 2.4215864694,
				"z": 2.9069188908,
				"element": "C" 
			},
			{
				"x": 0.2060537283,
				"y": -0.0541931403,
				"z": -0.4250661955,
				"element": "C" 
			},
			{
				"x": 0.0248882578,
				"y": -1.1743363542,
				"z": 0.4250541578,
				"element": "C" 
			},
			{
				"x": 0.1950346785,
				"y": -2.4901026166,
				"z": 0.0254505187,
				"element": "C" 
			},
			{
				"x": 0.6489160553,
				"y": -2.7627715824,
				"z": -1.266268814,
				"element": "C" 
			},
			{
				"x": 0.8475911379,
				"y": -1.7093634348,
				"z": -2.1518746828,
				"element": "C" 
			},
			{
				"x": 0.5730434006,
				"y": -0.4049539679,
				"z": -1.7485840727,
				"element": "C" 
			},
			{
				"x": 0.5612059608,
				"y": 0.5948806247,
				"z": -2.8312151,
				"element": "N" 
			},
			{
				"x": 1.4252839753,
				"y": 0.497850887,
				"z": -3.7003436495,
				"element": "O" 
			},
			{
				"x": -0.3455715685,
				"y": 1.4257132974,
				"z": -2.8240730398,
				"element": "O" 
			},
			{
				"x": 0.8426115241,
				"y": -4.1867666933,
				"z": -1.7153123807,
				"element": "C" 
			},
			{
				"x": 1.2514106267,
				"y": -4.9713940631,
				"z": -0.6958948269,
				"element": "F" 
			},
			{
				"x": -0.3064523887,
				"y": -4.7172648517,
				"z": -2.18763527,
				"element": "F" 
			},
			{
				"x": 1.7578088354,
				"y": -4.2732347624,
				"z": -2.7014825321,
				"element": "F" 
			},
			{
				"x": -0.3234352653,
				"y": -0.9777435572,
				"z": 1.8457681006,
				"element": "N" 
			},
			{
				"x": 0.4553847345,
				"y": -0.3407540829,
				"z": 2.54576225,
				"element": "O" 
			},
			{
				"x": -1.3686136019,
				"y": -1.4980932402,
				"z": 2.2330928521,
				"element": "O" 
			},
			{
				"x": 3.4082531168,
				"y": 2.4602222489,
				"z": 2.0857412807,
				"element": "H" 
			},
			{
				"x": 3.5329999092,
				"y": 1.6723454399,
				"z": 0.5088128884,
				"element": "H" 
			},
			{
				"x": 2.3675825471,
				"y": 1.0808491301,
				"z": 1.7104294937,
				"element": "H" 
			},
			{
				"x": 2.2477441625,
				"y": 3.8325647881,
				"z": 0.3318911357,
				"element": "H" 
			},
			{
				"x": 1.1081608287,
				"y": 3.2637353721,
				"z": 1.5448987739,
				"element": "H" 
			},
			{
				"x": 0.3409049512,
				"y": 3.0896612236,
				"z": -0.9130797728,
				"element": "H" 
			},
			{
				"x": 1.6330897053,
				"y": 1.9249502681,
				"z": -1.1403833354,
				"element": "H" 
			},
			{
				"x": -1.8817643361,
				"y": 0.7364680635,
				"z": 0.7366820806,
				"element": "H" 
			},
			{
				"x": -1.851086511,
				"y": 1.949190198,
				"z": -0.5389284316,
				"element": "H" 
			},
			{
				"x": -1.1479536701,
				"y": 3.6994971037,
				"z": 1.1141657011,
				"element": "H" 
			},
			{
				"x": -3.4561669313,
				"y": 1.9185163709,
				"z": 2.169513851,
				"element": "H" 
			},
			{
				"x": -3.2109670554,
				"y": 3.6934533814,
				"z": 2.4992363397,
				"element": "H" 
			},
			{
				"x": -0.9528331285,
				"y": 3.1692875912,
				"z": 3.5483569075,
				"element": "H" 
			},
			{
				"x": -1.2083394454,
				"y": 1.3989268024,
				"z": 3.2092369731,
				"element": "H" 
			},
			{
				"x": 0.0224739127,
				"y": -3.2908605492,
				"z": 0.7353887541,
				"element": "H" 
			},
			{
				"x": 1.1709297586,
				"y": -1.8851181809,
				"z": -3.1706078101,
				"element": "H" 
			}
		],
		 "valence_orbital": [ 
			{
				"type": "occ",
				"energy": -0.30677,
				"method": "rhf"
			},
			{
				"type": "occ",
				"energy": -0.29788,
				"method": "rhf"
			},
			{
				"type": "occ",
				"energy": -0.29464,
				"method": "rhf"
			},
			{
				"type": "occ",
				"energy": -0.29346,
				"method": "rhf"
			},
			{
				"type": "occ",
				"energy": -0.23683,
				"method": "rhf"
			},
			{
				"type": "unocc",
				"energy": -0.10567,
				"method": "rhf"
			},
			{
				"type": "unocc",
				"energy": -0.09958,
				"method": "rhf"
			},
			{
				"type": "unocc",
				"energy": -0.0546,
				"method": "rhf"
			},
			{
				"type": "unocc",
				"energy": -0.04084,
				"method": "rhf"
			},
			{
				"type": "unocc",
				"energy": 0.05615,
				"method": "rhf"
			}
		],
		"cosmo_sigma_profile": { 
			"-0.025": 0.0,
			"-0.024": 0.0,
			"-0.023": 0.0,
			"-0.022": 0.0,
			"-0.021": 0.0,
			"-0.02": 0.0,
			"-0.019": 0.0,
			"-0.018": 0.0,
			"-0.017": 0.0,
			"-0.016": 0.0,
			"-0.015": 0.0,
			"-0.014": 0.0,
			"-0.013": 0.0,
			"-0.012": 0.0081175758459,
			"-0.011": 0.698738210821,
			"-0.01": 1.90963147487,
			"-0.009": 3.17692976841,
			"-0.008": 4.90166316114,
			"-0.007": 5.21151460075,
			"-0.006": 8.69760556905,
			"-0.005": 16.4325958238,
			"-0.004": 23.2295898272,
			"-0.003": 36.2204322748,
			"-0.002": 36.5699360138,
			"-0.001": 29.7129514129,
			"0.0": 29.0047465837,
			"0.001": 30.1105783111,
			"0.002": 40.0169284231,
			"0.003": 22.0477444001,
			"0.004": 10.0507384761,
			"0.005": 10.0865784566,
			"0.006": 13.7212287714,
			"0.007": 14.432600321,
			"0.008": 8.68573192115,
			"0.009": 4.57725154162,
			"0.01": 0.434735212655,
			"0.011": 0.0,
			"0.012": 0.0,
			"0.013": 0.0,
			"0.014": 0.0,
			"0.015": 0.0,
			"0.016": 0.0,
			"0.017": 0.0,
			"0.018": 0.0,
			"0.019": 0.0,
			"0.02": 0.0,
			"0.021": 0.0,
			"0.022": 0.0,
			"0.023": 0.0,
			"0.024": 0.0,
			"0.025": 0.0
		}
	}
}
