{
	 "smiles": "CC1=CC=CC=C1O", 
	 "Tm": 304.55, 
	 "num_atms": 16, 
	 "gaussian": { 
		 "optdone": 1, 
		 "sigma_profile": "yes", 
		 "theory": "DFT", 
		 "functional": "B3LYP", 
		 "basiset": "6-31G**", 
		 "properties": { 
			 "R2extent": 1333.7675, 
			 "electric_dipole_moment_norm": 1.13818947895, 
			 "electric_quadrupole_moment_norm": 6.31581276084, 
			 "total_energy": -346.792993189, 
			 "HOMO_LUMO_gap": 0.22007, 
			 "cosmo_polarized_energy": -7.32, 
			 "cosmo_cavitation_energy": 19.26, 
			 "cosmo_dispersion_energy": -14.51, 
			 "cosmo_repulsion_energy": 1.2, 
			 "cosmo_total_nonelectrostatic_energy": 5.95, 
			 "SMD_solvation_energy": 3.74 
		},
		"coords": [
			{
				"x": 0.784996979,
				"y": 1.0282660866,
				"z": 0.5443330967,
				"element": "C" 
			},
			{
				"x": -0.6912554997,
				"y": 0.7968539228,
				"z": 0.3472706676,
				"element": "C" 
			},
			{
				"x": -1.6600282073,
				"y": 1.6409215011,
				"z": 0.8957145547,
				"element": "C" 
			},
			{
				"x": -3.0267786747,
				"y": 1.4175174834,
				"z": 0.7069507128,
				"element": "C" 
			},
			{
				"x": -3.4438432607,
				"y": 0.3234615328,
				"z": -0.0488426975,
				"element": "C" 
			},
			{
				"x": -2.4982447421,
				"y": -0.5370724399,
				"z": -0.6090812441,
				"element": "C" 
			},
			{
				"x": -1.1356596143,
				"y": -0.3012797825,
				"z": -0.411993045,
				"element": "C" 
			},
			{
				"x": -0.1681784695,
				"y": -1.1161250387,
				"z": -0.9405325475,
				"element": "O" 
			},
			{
				"x": 1.2601272219,
				"y": 0.1720619702,
				"z": 1.0361126444,
				"element": "H" 
			},
			{
				"x": 0.9625401056,
				"y": 1.9178125252,
				"z": 1.1545325129,
				"element": "H" 
			},
			{
				"x": 1.2989545556,
				"y": 1.1593812127,
				"z": -0.4144888777,
				"element": "H" 
			},
			{
				"x": -1.3305185373,
				"y": 2.4934793208,
				"z": 1.4848137671,
				"element": "H" 
			},
			{
				"x": -3.7552386167,
				"y": 2.091884242,
				"z": 1.1463554918,
				"element": "H" 
			},
			{
				"x": -4.5015806922,
				"y": 0.1334978267,
				"z": -0.2065459031,
				"element": "H" 
			},
			{
				"x": -2.8166193961,
				"y": -1.3937139949,
				"z": -1.200641517,
				"element": "H" 
			},
			{
				"x": -0.5937731514,
				"y": -1.8275463684,
				"z": -1.435957616,
				"element": "H" 
			}
		],
		 "valence_orbital": [ 
			{
				"type": "occ",
				"energy": -0.34579,
				"method": "rhf"
			},
			{
				"type": "occ",
				"energy": -0.33079,
				"method": "rhf"
			},
			{
				"type": "occ",
				"energy": -0.32719,
				"method": "rhf"
			},
			{
				"type": "occ",
				"energy": -0.24027,
				"method": "rhf"
			},
			{
				"type": "occ",
				"energy": -0.21396,
				"method": "rhf"
			},
			{
				"type": "unocc",
				"energy": 0.00611,
				"method": "rhf"
			},
			{
				"type": "unocc",
				"energy": 0.01809,
				"method": "rhf"
			},
			{
				"type": "unocc",
				"energy": 0.07171,
				"method": "rhf"
			},
			{
				"type": "unocc",
				"energy": 0.1009,
				"method": "rhf"
			},
			{
				"type": "unocc",
				"energy": 0.12506,
				"method": "rhf"
			}
		],
		"cosmo_sigma_profile": { 
			"-0.025": 0.0,
			"-0.024": 0.0,
			"-0.023": 0.0,
			"-0.022": 0.0,
			"-0.021": 0.0,
			"-0.02": 0.0,
			"-0.019": 0.0,
			"-0.018": 0.130627698641,
			"-0.017": 0.914147937361,
			"-0.016": 1.3290256935,
			"-0.015": 0.786782548072,
			"-0.014": 0.557608018482,
			"-0.013": 1.35204618861,
			"-0.012": 0.8961451106,
			"-0.011": 0.861065467242,
			"-0.01": 1.20883740965,
			"-0.009": 1.10165196252,
			"-0.008": 1.214037272,
			"-0.007": 1.30337535109,
			"-0.006": 2.12745556515,
			"-0.005": 7.72514510886,
			"-0.004": 11.5399944074,
			"-0.003": 14.1353288115,
			"-0.002": 10.6790366491,
			"-0.001": 10.4644514877,
			"0.0": 12.8466024612,
			"0.001": 11.552987935,
			"0.002": 7.92144986621,
			"0.003": 9.68084222012,
			"0.004": 10.8036121434,
			"0.005": 9.07601121864,
			"0.006": 9.56614478855,
			"0.007": 5.9064791821,
			"0.008": 1.81635945597,
			"0.009": 1.96918737178,
			"0.01": 1.62614763818,
			"0.011": 1.3374016584,
			"0.012": 0.0460955088996,
			"0.013": 0.0,
			"0.014": 0.0,
			"0.015": 0.0,
			"0.016": 0.0,
			"0.017": 0.0,
			"0.018": 0.0,
			"0.019": 0.0,
			"0.02": 0.0,
			"0.021": 0.0,
			"0.022": 0.0,
			"0.023": 0.0,
			"0.024": 0.0,
			"0.025": 0.0
		}
	}
}
