{
	 "smiles": "NC1=C(C=CC(Cl)=C1)N1C=NC=N1", 
	 "Tm": 368.15, 
	 "num_atms": 20, 
	 "gaussian": { 
		 "optdone": 1, 
		 "sigma_profile": "yes", 
		 "theory": "DFT", 
		 "functional": "B3LYP", 
		 "basiset": "6-31G**", 
		 "properties": { 
			 "R2extent": 3727.4796, 
			 "electric_dipole_moment_norm": 2.14748529448, 
			 "electric_quadrupole_moment_norm": 15.0750159695, 
			 "total_energy": -988.251114755, 
			 "HOMO_LUMO_gap": 0.19114, 
			 "cosmo_polarized_energy": -13.36, 
			 "cosmo_cavitation_energy": 26.37, 
			 "cosmo_dispersion_energy": -19.67, 
			 "cosmo_repulsion_energy": 1.54, 
			 "cosmo_total_nonelectrostatic_energy": 8.23, 
			 "SMD_solvation_energy": 2.32 
		},
		"coords": [
			{
				"x": -2.0622413536,
				"y": -1.489627249,
				"z": 1.1813391029,
				"element": "N" 
			},
			{
				"x": -0.683272768,
				"y": -1.6408368062,
				"z": 1.0389960051,
				"element": "C" 
			},
			{
				"x": 0.1179736426,
				"y": -0.6382344082,
				"z": 0.4504375636,
				"element": "C" 
			},
			{
				"x": 1.4968917212,
				"y": -0.8097831206,
				"z": 0.325088703,
				"element": "C" 
			},
			{
				"x": 2.1233020524,
				"y": -1.9588454262,
				"z": 0.7972329015,
				"element": "C" 
			},
			{
				"x": 1.3347047762,
				"y": -2.9338966123,
				"z": 1.4077834331,
				"element": "C" 
			},
			{
				"x": 2.0920913209,
				"y": -4.3919581037,
				"z": 2.029088215,
				"element": "Cl" 
			},
			{
				"x": -0.0426218748,
				"y": -2.7909872052,
				"z": 1.5289811749,
				"element": "C" 
			},
			{
				"x": -0.4724302958,
				"y": 0.5612994941,
				"z": -0.0446778696,
				"element": "N" 
			},
			{
				"x": -1.376966752,
				"y": 1.3943451047,
				"z": 0.5432793012,
				"element": "C" 
			},
			{
				"x": -1.5864633038,
				"y": 2.4574180386,
				"z": -0.2107744772,
				"element": "N" 
			},
			{
				"x": -0.7569911678,
				"y": 2.2365151362,
				"z": -1.2703496432,
				"element": "C" 
			},
			{
				"x": -0.0588063672,
				"y": 1.1129721844,
				"z": -1.2235312823,
				"element": "N" 
			},
			{
				"x": -2.5107843568,
				"y": -0.9436835208,
				"z": 0.456163038,
				"element": "H" 
			},
			{
				"x": -2.5576555329,
				"y": -2.3534326071,
				"z": 1.3574822689,
				"element": "H" 
			},
			{
				"x": 2.069368281,
				"y": -0.0257262939,
				"z": -0.157028349,
				"element": "H" 
			},
			{
				"x": 3.194024816,
				"y": -2.0913016069,
				"z": 0.7026390931,
				"element": "H" 
			},
			{
				"x": -0.6303623491,
				"y": -3.5764596764,
				"z": 1.9923661635,
				"element": "H" 
			},
			{
				"x": -1.8311547235,
				"y": 1.1792174782,
				"z": 1.4997863023,
				"element": "H" 
			},
			{
				"x": -0.668205765,
				"y": 2.9202052003,
				"z": -2.1035016449,
				"element": "H" 
			}
		],
		 "valence_orbital": [ 
			{
				"type": "occ",
				"energy": -0.30338,
				"method": "rhf"
			},
			{
				"type": "occ",
				"energy": -0.28216,
				"method": "rhf"
			},
			{
				"type": "occ",
				"energy": -0.27825,
				"method": "rhf"
			},
			{
				"type": "occ",
				"energy": -0.25295,
				"method": "rhf"
			},
			{
				"type": "occ",
				"energy": -0.22616,
				"method": "rhf"
			},
			{
				"type": "unocc",
				"energy": -0.03502,
				"method": "rhf"
			},
			{
				"type": "unocc",
				"energy": -0.01291,
				"method": "rhf"
			},
			{
				"type": "unocc",
				"energy": 0.01115,
				"method": "rhf"
			},
			{
				"type": "unocc",
				"energy": 0.02339,
				"method": "rhf"
			},
			{
				"type": "unocc",
				"energy": 0.04347,
				"method": "rhf"
			}
		],
		"cosmo_sigma_profile": { 
			"-0.025": 0.0,
			"-0.024": 0.0,
			"-0.023": 0.0,
			"-0.022": 0.0,
			"-0.021": 0.0,
			"-0.02": 0.0,
			"-0.019": 0.0,
			"-0.018": 0.0,
			"-0.017": 0.0,
			"-0.016": 0.0,
			"-0.015": 0.0,
			"-0.014": 0.526467202786,
			"-0.013": 2.34977500844,
			"-0.012": 3.19246563429,
			"-0.011": 3.12392817111,
			"-0.01": 3.85635617775,
			"-0.009": 5.02341591402,
			"-0.008": 6.86370067066,
			"-0.007": 7.50264176013,
			"-0.006": 9.68271032062,
			"-0.005": 8.13264743647,
			"-0.004": 8.44926377312,
			"-0.003": 8.53288048961,
			"-0.002": 11.5940669211,
			"-0.001": 12.2007939386,
			"0.0": 12.7105595524,
			"0.001": 15.9545795342,
			"0.002": 20.2504525822,
			"0.003": 22.2366790464,
			"0.004": 16.9663248502,
			"0.005": 9.39148166361,
			"0.006": 3.99354992627,
			"0.007": 3.48162955829,
			"0.008": 2.52036712657,
			"0.009": 2.72291193217,
			"0.01": 2.80738832228,
			"0.011": 2.87165223527,
			"0.012": 2.23828983378,
			"0.013": 1.56427679099,
			"0.014": 1.67715376797,
			"0.015": 1.19124303967,
			"0.016": 0.687290757703,
			"0.017": 0.120855463254,
			"0.018": 0.0,
			"0.019": 0.0,
			"0.02": 0.0,
			"0.021": 0.0,
			"0.022": 0.0,
			"0.023": 0.0,
			"0.024": 0.0,
			"0.025": 0.0
		}
	}
}
