{
	 "smiles": "CC(C)(C)C1=C(N)C=CC=C1", 
	 "Tm": 213.15, 
	 "num_atms": 26, 
	 "gaussian": { 
		 "optdone": 1, 
		 "sigma_profile": "yes", 
		 "theory": "DFT", 
		 "functional": "B3LYP", 
		 "basiset": "6-31G**", 
		 "properties": { 
			 "R2extent": 2134.6756, 
			 "electric_dipole_moment_norm": 1.58398013245, 
			 "electric_quadrupole_moment_norm": 6.7716323586, 
			 "total_energy": -444.866229257, 
			 "HOMO_LUMO_gap": 0.20693, 
			 "cosmo_polarized_energy": -7.22, 
			 "cosmo_cavitation_energy": 26.29, 
			 "cosmo_dispersion_energy": -19.36, 
			 "cosmo_repulsion_energy": 1.53, 
			 "cosmo_total_nonelectrostatic_energy": 8.46, 
			 "SMD_solvation_energy": 4.63 
		},
		"coords": [
			{
				"x": -1.1876004412,
				"y": -0.8195046598,
				"z": 0.2887830624,
				"element": "C" 
			},
			{
				"x": 0.1502464394,
				"y": -0.0932769662,
				"z": 0.5893248518,
				"element": "C" 
			},
			{
				"x": 1.0402752277,
				"y": -1.126017473,
				"z": 1.3152139974,
				"element": "C" 
			},
			{
				"x": -0.0655840977,
				"y": 1.0744257523,
				"z": 1.5860488235,
				"element": "C" 
			},
			{
				"x": 0.7989455153,
				"y": 0.4173158325,
				"z": -0.720052602,
				"element": "C" 
			},
			{
				"x": 0.2099983221,
				"y": 1.4301782681,
				"z": -1.5294165036,
				"element": "C" 
			},
			{
				"x": -0.9794117366,
				"y": 2.0969491949,
				"z": -1.188159338,
				"element": "N" 
			},
			{
				"x": 0.863106337,
				"y": 1.8518612308,
				"z": -2.7015560555,
				"element": "C" 
			},
			{
				"x": 2.0759610587,
				"y": 1.3054874177,
				"z": -3.1020325178,
				"element": "C" 
			},
			{
				"x": 2.6622343715,
				"y": 0.307373086,
				"z": -2.3286996402,
				"element": "C" 
			},
			{
				"x": 2.0195244167,
				"y": -0.1143394001,
				"z": -1.1647306057,
				"element": "C" 
			},
			{
				"x": -1.0140771765,
				"y": -1.6824192942,
				"z": -0.3619517446,
				"element": "H" 
			},
			{
				"x": -1.6401788633,
				"y": -1.180844829,
				"z": 1.2190422385,
				"element": "H" 
			},
			{
				"x": -1.9356314186,
				"y": -0.1940911012,
				"z": -0.2077353936,
				"element": "H" 
			},
			{
				"x": 2.0164238882,
				"y": -0.7079442672,
				"z": 1.5797752029,
				"element": "H" 
			},
			{
				"x": 0.5501303501,
				"y": -1.433578277,
				"z": 2.2447448886,
				"element": "H" 
			},
			{
				"x": 1.2021007913,
				"y": -2.0281083878,
				"z": 0.7166483076,
				"element": "H" 
			},
			{
				"x": 0.8997231309,
				"y": 1.5000004864,
				"z": 1.8790389607,
				"element": "H" 
			},
			{
				"x": -0.5608877243,
				"y": 0.7085269874,
				"z": 2.4928887018,
				"element": "H" 
			},
			{
				"x": -0.6635011493,
				"y": 1.8879847288,
				"z": 1.1730262676,
				"element": "H" 
			},
			{
				"x": -1.405663004,
				"y": 2.5775630787,
				"z": -1.969625091,
				"element": "H" 
			},
			{
				"x": -1.6629153392,
				"y": 1.5531057581,
				"z": -0.6847371083,
				"element": "H" 
			},
			{
				"x": 0.3968017679,
				"y": 2.6311637528,
				"z": -3.3012408006,
				"element": "H" 
			},
			{
				"x": 2.5516308746,
				"y": 1.6558857703,
				"z": -4.0138022012,
				"element": "H" 
			},
			{
				"x": 3.6072362676,
				"y": -0.1408484431,
				"z": -2.6199039082,
				"element": "H" 
			},
			{
				"x": 2.4979121917,
				"y": -0.8904482462,
				"z": -0.5803917926,
				"element": "H" 
			}
		],
		 "valence_orbital": [ 
			{
				"type": "occ",
				"energy": -0.31434,
				"method": "rhf"
			},
			{
				"type": "occ",
				"energy": -0.31238,
				"method": "rhf"
			},
			{
				"type": "occ",
				"energy": -0.29785,
				"method": "rhf"
			},
			{
				"type": "occ",
				"energy": -0.23389,
				"method": "rhf"
			},
			{
				"type": "occ",
				"energy": -0.1955,
				"method": "rhf"
			},
			{
				"type": "unocc",
				"energy": 0.01143,
				"method": "rhf"
			},
			{
				"type": "unocc",
				"energy": 0.02216,
				"method": "rhf"
			},
			{
				"type": "unocc",
				"energy": 0.0744,
				"method": "rhf"
			},
			{
				"type": "unocc",
				"energy": 0.10261,
				"method": "rhf"
			},
			{
				"type": "unocc",
				"energy": 0.10351,
				"method": "rhf"
			}
		],
		"cosmo_sigma_profile": { 
			"-0.025": 0.0,
			"-0.024": 0.0,
			"-0.023": 0.0,
			"-0.022": 0.0,
			"-0.021": 0.0,
			"-0.02": 0.0,
			"-0.019": 0.0,
			"-0.018": 0.0,
			"-0.017": 0.0,
			"-0.016": 0.0,
			"-0.015": 0.0,
			"-0.014": 0.0,
			"-0.013": 0.0,
			"-0.012": 0.785235058978,
			"-0.011": 2.09079919668,
			"-0.01": 2.72354507936,
			"-0.009": 2.96346621825,
			"-0.008": 2.85602260552,
			"-0.007": 2.22679153881,
			"-0.006": 3.58795148031,
			"-0.005": 5.23412641387,
			"-0.004": 8.45856452052,
			"-0.003": 18.4907795134,
			"-0.002": 26.6101475157,
			"-0.001": 22.2324951724,
			"0.0": 20.6567032605,
			"0.001": 24.3501325986,
			"0.002": 14.5479391163,
			"0.003": 6.77565014721,
			"0.004": 7.86906682633,
			"0.005": 6.78356587978,
			"0.006": 8.64248025864,
			"0.007": 8.55166705826,
			"0.008": 5.33643450598,
			"0.009": 0.555744559869,
			"0.01": 0.886077479962,
			"0.011": 0.720243565418,
			"0.012": 0.861897269531,
			"0.013": 0.249714589471,
			"0.014": 0.442369588951,
			"0.015": 0.0104541893514,
			"0.016": 0.0,
			"0.017": 0.0,
			"0.018": 0.0,
			"0.019": 0.0,
			"0.02": 0.0,
			"0.021": 0.0,
			"0.022": 0.0,
			"0.023": 0.0,
			"0.024": 0.0,
			"0.025": 0.0
		}
	}
}
