{
	 "smiles": "OC(=O)CN1C=C(Cl)C(=O)C(Cl)=C1", 
	 "Tm": 534.15, 
	 "num_atms": 18, 
	 "gaussian": { 
		 "optdone": 1, 
		 "sigma_profile": "yes", 
		 "theory": "DFT", 
		 "functional": "B3LYP", 
		 "basiset": "6-31G**", 
		 "properties": { 
			 "R2extent": 3629.3499, 
			 "electric_dipole_moment_norm": 9.71238259183, 
			 "electric_quadrupole_moment_norm": 14.0034691048, 
			 "total_energy": -1470.53939988, 
			 "HOMO_LUMO_gap": 0.18881, 
			 "cosmo_polarized_energy": -35.72, 
			 "cosmo_cavitation_energy": 27.46, 
			 "cosmo_dispersion_energy": -19.82, 
			 "cosmo_repulsion_energy": 1.6, 
			 "cosmo_total_nonelectrostatic_energy": 9.24, 
			 "SMD_solvation_energy": 6.41 
		},
		"coords": [
			{
				"x": 2.988519451,
				"y": 0.3011356503,
				"z": -2.717601956,
				"element": "O" 
			},
			{
				"x": 1.859916685,
				"y": 0.4564471066,
				"z": -1.9850483482,
				"element": "C" 
			},
			{
				"x": 1.0083473667,
				"y": 1.2409861916,
				"z": -2.2982921523,
				"element": "O" 
			},
			{
				"x": 1.7785529222,
				"y": -0.4485788056,
				"z": -0.7409142598,
				"element": "C" 
			},
			{
				"x": 0.5588166282,
				"y": -0.2539776204,
				"z": 0.0179008591,
				"element": "N" 
			},
			{
				"x": 0.4931188537,
				"y": 0.7283398437,
				"z": 0.977541037,
				"element": "C" 
			},
			{
				"x": -0.6616085272,
				"y": 0.9948254131,
				"z": 1.6428290708,
				"element": "C" 
			},
			{
				"x": -0.6723896182,
				"y": 2.2271018062,
				"z": 2.86894927,
				"element": "Cl" 
			},
			{
				"x": -1.9259579643,
				"y": 0.282539692,
				"z": 1.3816336387,
				"element": "C" 
			},
			{
				"x": -2.9752453414,
				"y": 0.4972522128,
				"z": 1.9729181718,
				"element": "O" 
			},
			{
				"x": -1.7596245254,
				"y": -0.7264335287,
				"z": 0.3193513384,
				"element": "C" 
			},
			{
				"x": -3.1548257716,
				"y": -1.6642973601,
				"z": -0.1231986163,
				"element": "Cl" 
			},
			{
				"x": -0.5784753403,
				"y": -0.951489484,
				"z": -0.3140817644,
				"element": "C" 
			},
			{
				"x": 3.5762547514,
				"y": -0.3674432785,
				"z": -2.3355553555,
				"element": "H" 
			},
			{
				"x": 2.6402493703,
				"y": -0.2524994641,
				"z": -0.0928589874,
				"element": "H" 
			},
			{
				"x": 1.8457581105,
				"y": -1.4976234975,
				"z": -1.0506309247,
				"element": "H" 
			},
			{
				"x": 1.4099196051,
				"y": 1.2686440883,
				"z": 1.1784051258,
				"element": "H" 
			},
			{
				"x": -0.4787266558,
				"y": -1.6919289658,
				"z": -1.098046147,
				"element": "H" 
			}
		],
		 "valence_orbital": [ 
			{
				"type": "occ",
				"energy": -0.31337,
				"method": "rhf"
			},
			{
				"type": "occ",
				"energy": -0.31224,
				"method": "rhf"
			},
			{
				"type": "occ",
				"energy": -0.27461,
				"method": "rhf"
			},
			{
				"type": "occ",
				"energy": -0.24867,
				"method": "rhf"
			},
			{
				"type": "occ",
				"energy": -0.23168,
				"method": "rhf"
			},
			{
				"type": "unocc",
				"energy": -0.04287,
				"method": "rhf"
			},
			{
				"type": "unocc",
				"energy": -0.04083,
				"method": "rhf"
			},
			{
				"type": "unocc",
				"energy": -0.02352,
				"method": "rhf"
			},
			{
				"type": "unocc",
				"energy": 0.00258,
				"method": "rhf"
			},
			{
				"type": "unocc",
				"energy": 0.01698,
				"method": "rhf"
			}
		],
		"cosmo_sigma_profile": { 
			"-0.025": 0.0,
			"-0.024": 0.0,
			"-0.023": 0.0,
			"-0.022": 0.0,
			"-0.021": 0.397202365071,
			"-0.02": 1.43209578842,
			"-0.019": 1.65289100816,
			"-0.018": 1.2053631736,
			"-0.017": 1.29298365046,
			"-0.016": 1.45215059366,
			"-0.015": 0.739119874168,
			"-0.014": 3.26159775292,
			"-0.013": 5.56652799739,
			"-0.012": 7.49878273911,
			"-0.011": 6.35534421278,
			"-0.01": 5.57264819692,
			"-0.009": 4.53270565861,
			"-0.008": 3.98120346601,
			"-0.007": 4.76055663647,
			"-0.006": 3.25393588261,
			"-0.005": 4.14823544327,
			"-0.004": 4.74290905516,
			"-0.003": 7.66678053896,
			"-0.002": 12.1614029393,
			"-0.001": 12.2101116474,
			"0.0": 14.3394920881,
			"0.001": 11.8408935978,
			"0.002": 11.2111650441,
			"0.003": 16.1776423355,
			"0.004": 17.6442555965,
			"0.005": 8.70385467591,
			"0.006": 4.2779036905,
			"0.007": 5.73009886517,
			"0.008": 6.47998789576,
			"0.009": 5.99051021776,
			"0.01": 7.22464667612,
			"0.011": 6.35980303363,
			"0.012": 4.35019325318,
			"0.013": 5.52672994311,
			"0.014": 4.30314464159,
			"0.015": 0.525060332923,
			"0.016": 0.0,
			"0.017": 0.0,
			"0.018": 0.0,
			"0.019": 0.0,
			"0.02": 0.0,
			"0.021": 0.0,
			"0.022": 0.0,
			"0.023": 0.0,
			"0.024": 0.0,
			"0.025": 0.0
		}
	}
}
