{
	 "smiles": "COC1=C(C=CC=C1)C(N)=S", 
	 "Tm": 387.15, 
	 "num_atms": 20, 
	 "gaussian": { 
		 "optdone": 1, 
		 "sigma_profile": "yes", 
		 "theory": "DFT", 
		 "functional": "B3LYP", 
		 "basiset": "6-31G**", 
		 "properties": { 
			 "R2extent": 2385.6037, 
			 "electric_dipole_moment_norm": 5.02882236115, 
			 "electric_quadrupole_moment_norm": 15.3367814391, 
			 "total_energy": -838.432854631, 
			 "HOMO_LUMO_gap": 0.14414, 
			 "cosmo_polarized_energy": -13.68, 
			 "cosmo_cavitation_energy": 25.15, 
			 "cosmo_dispersion_energy": -18.86, 
			 "cosmo_repulsion_energy": 1.47, 
			 "cosmo_total_nonelectrostatic_energy": 7.77, 
			 "SMD_solvation_energy": 4.05 
		},
		"coords": [
			{
				"x": 0.6383908076,
				"y": 1.9632086308,
				"z": 0.3569258225,
				"element": "C" 
			},
			{
				"x": -0.2619114941,
				"y": 1.1124524031,
				"z": -0.3661846901,
				"element": "O" 
			},
			{
				"x": -1.0092065767,
				"y": 0.2533343239,
				"z": 0.4311280091,
				"element": "C" 
			},
			{
				"x": -0.6663813622,
				"y": -1.1120368052,
				"z": 0.5658706213,
				"element": "C" 
			},
			{
				"x": -1.5069651312,
				"y": -1.9057685815,
				"z": 1.3685828445,
				"element": "C" 
			},
			{
				"x": -2.6249975,
				"y": -1.3822698332,
				"z": 2.006534993,
				"element": "C" 
			},
			{
				"x": -2.9423837898,
				"y": -0.0299537393,
				"z": 1.8594663961,
				"element": "C" 
			},
			{
				"x": -2.1308457457,
				"y": 0.7826542671,
				"z": 1.0732225464,
				"element": "C" 
			},
			{
				"x": 0.5120538084,
				"y": -1.7604647132,
				"z": -0.0966972356,
				"element": "C" 
			},
			{
				"x": 1.0407212921,
				"y": -1.1069460255,
				"z": -1.1472098821,
				"element": "N" 
			},
			{
				"x": 1.1502384352,
				"y": -3.2269041194,
				"z": 0.4078160656,
				"element": "S" 
			},
			{
				"x": 1.4081521324,
				"y": 1.3750579026,
				"z": 0.8705584584,
				"element": "H" 
			},
			{
				"x": 0.0980222938,
				"y": 2.5697886551,
				"z": 1.0919360178,
				"element": "H" 
			},
			{
				"x": 1.1059575325,
				"y": 2.6183329926,
				"z": -0.3805191163,
				"element": "H" 
			},
			{
				"x": -1.2466781007,
				"y": -2.9528378306,
				"z": 1.4764724361,
				"element": "H" 
			},
			{
				"x": -3.2510143214,
				"y": -2.0296978279,
				"z": 2.6125669048,
				"element": "H" 
			},
			{
				"x": -3.818169376,
				"y": 0.3883336592,
				"z": 2.3468430215,
				"element": "H" 
			},
			{
				"x": -2.3602736881,
				"y": 1.8337943382,
				"z": 0.9281613224,
				"element": "H" 
			},
			{
				"x": 0.6933582247,
				"y": -0.1936420792,
				"z": -1.4125384156,
				"element": "H" 
			},
			{
				"x": 1.837332559,
				"y": -1.5213356177,
				"z": -1.6074361198,
				"element": "H" 
			}
		],
		 "valence_orbital": [ 
			{
				"type": "occ",
				"energy": -0.29608,
				"method": "rhf"
			},
			{
				"type": "occ",
				"energy": -0.26575,
				"method": "rhf"
			},
			{
				"type": "occ",
				"energy": -0.25373,
				"method": "rhf"
			},
			{
				"type": "occ",
				"energy": -0.21872,
				"method": "rhf"
			},
			{
				"type": "occ",
				"energy": -0.20234,
				"method": "rhf"
			},
			{
				"type": "unocc",
				"energy": -0.0582,
				"method": "rhf"
			},
			{
				"type": "unocc",
				"energy": -0.0115,
				"method": "rhf"
			},
			{
				"type": "unocc",
				"energy": 0.02745,
				"method": "rhf"
			},
			{
				"type": "unocc",
				"energy": 0.08104,
				"method": "rhf"
			},
			{
				"type": "unocc",
				"energy": 0.08633,
				"method": "rhf"
			}
		],
		"cosmo_sigma_profile": { 
			"-0.025": 0.0,
			"-0.024": 0.0,
			"-0.023": 0.0,
			"-0.022": 0.0,
			"-0.021": 0.0,
			"-0.02": 0.0,
			"-0.019": 0.0,
			"-0.018": 0.0,
			"-0.017": 0.0,
			"-0.016": 0.0,
			"-0.015": 0.250186299752,
			"-0.014": 1.20539022709,
			"-0.013": 0.837104936405,
			"-0.012": 1.33078772638,
			"-0.011": 2.1565587401,
			"-0.01": 1.68941971814,
			"-0.009": 1.09413767362,
			"-0.008": 1.35502181712,
			"-0.007": 4.32148446216,
			"-0.006": 12.2981103893,
			"-0.005": 18.0787626958,
			"-0.004": 18.944898623,
			"-0.003": 18.3872415062,
			"-0.002": 10.8669180795,
			"-0.001": 9.11284762788,
			"0.0": 10.2380510304,
			"0.001": 10.5683019893,
			"0.002": 13.7859855284,
			"0.003": 14.5268544199,
			"0.004": 12.1222171337,
			"0.005": 4.36621839377,
			"0.006": 5.33551931281,
			"0.007": 4.86729251959,
			"0.008": 6.00388361598,
			"0.009": 6.82289350013,
			"0.01": 7.14795423399,
			"0.011": 3.89376866327,
			"0.012": 1.63312227913,
			"0.013": 0.122054059202,
			"0.014": 0.0,
			"0.015": 0.0,
			"0.016": 0.0,
			"0.017": 0.0,
			"0.018": 0.0,
			"0.019": 0.0,
			"0.02": 0.0,
			"0.021": 0.0,
			"0.022": 0.0,
			"0.023": 0.0,
			"0.024": 0.0,
			"0.025": 0.0
		}
	}
}
