{
	 "smiles": "CCOC1=C(OCC)C=C(Br)C(N)=C1", 
	 "Tm": 324.15, 
	 "num_atms": 28, 
	 "gaussian": { 
		 "optdone": 1, 
		 "sigma_profile": "yes", 
		 "theory": "DFT", 
		 "functional": "B3LYP", 
		 "basiset": "6-31G**", 
		 "properties": { 
			 "R2extent": 5106.0667, 
			 "electric_dipole_moment_norm": 1.97013942654, 
			 "electric_quadrupole_moment_norm": 11.2853691761, 
			 "total_energy": -3166.09327316, 
			 "HOMO_LUMO_gap": 0.19535, 
			 "cosmo_polarized_energy": -9.42, 
			 "cosmo_cavitation_energy": 33.38, 
			 "cosmo_dispersion_energy": -23.91, 
			 "cosmo_repulsion_energy": 1.94, 
			 "cosmo_total_nonelectrostatic_energy": 11.41, 
			 "SMD_solvation_energy": 5.11 
		},
		"coords": [
			{
				"x": -4.4553389754,
				"y": 2.5011046237,
				"z": -0.3915498757,
				"element": "C" 
			},
			{
				"x": -3.2483741419,
				"y": 1.7508766579,
				"z": -0.924302434,
				"element": "C" 
			},
			{
				"x": -2.3242428308,
				"y": 1.577536431,
				"z": 0.1689915754,
				"element": "O" 
			},
			{
				"x": -1.1645861408,
				"y": 0.9075417554,
				"z": -0.1423407618,
				"element": "C" 
			},
			{
				"x": -1.166363376,
				"y": -0.4681660786,
				"z": -0.4425152363,
				"element": "C" 
			},
			{
				"x": -2.3356913429,
				"y": -1.1965991496,
				"z": -0.4961719709,
				"element": "O" 
			},
			{
				"x": -2.9045423861,
				"y": -1.5127424632,
				"z": 0.7894815612,
				"element": "C" 
			},
			{
				"x": -4.1663114747,
				"y": -2.3224613701,
				"z": 0.5524922658,
				"element": "C" 
			},
			{
				"x": 0.0452155105,
				"y": -1.0953590007,
				"z": -0.7245045604,
				"element": "C" 
			},
			{
				"x": 1.2372407762,
				"y": -0.3768799248,
				"z": -0.7006996481,
				"element": "C" 
			},
			{
				"x": 2.873394042,
				"y": -1.2891732906,
				"z": -1.1182732179,
				"element": "Br" 
			},
			{
				"x": 1.2711945456,
				"y": 0.9912601819,
				"z": -0.3767162,
				"element": "C" 
			},
			{
				"x": 2.4573953526,
				"y": 1.7056490056,
				"z": -0.2784907095,
				"element": "N" 
			},
			{
				"x": 0.0360905053,
				"y": 1.6104103691,
				"z": -0.1099501991,
				"element": "C" 
			},
			{
				"x": -4.158669899,
				"y": 3.4695789424,
				"z": 0.0215446155,
				"element": "H" 
			},
			{
				"x": -5.1767496771,
				"y": 2.6730307693,
				"z": -1.1966494988,
				"element": "H" 
			},
			{
				"x": -4.950186197,
				"y": 1.9288058936,
				"z": 0.3986795113,
				"element": "H" 
			},
			{
				"x": -3.5304943087,
				"y": 0.7723168645,
				"z": -1.3270675579,
				"element": "H" 
			},
			{
				"x": -2.752495543,
				"y": 2.3213739985,
				"z": -1.7222171826,
				"element": "H" 
			},
			{
				"x": -3.1213993208,
				"y": -0.5853381874,
				"z": 1.332837016,
				"element": "H" 
			},
			{
				"x": -2.1726994695,
				"y": -2.0876258371,
				"z": 1.3740835781,
				"element": "H" 
			},
			{
				"x": -4.6213316524,
				"y": -2.5996029084,
				"z": 1.5086887991,
				"element": "H" 
			},
			{
				"x": -4.8967036367,
				"y": -1.7454734108,
				"z": -0.0225039039,
				"element": "H" 
			},
			{
				"x": -3.9395605395,
				"y": -3.237571132,
				"z": -0.0022195425,
				"element": "H" 
			},
			{
				"x": 0.043309914,
				"y": -2.1512443926,
				"z": -0.9685362316,
				"element": "H" 
			},
			{
				"x": 3.2464620406,
				"y": 1.2988711514,
				"z": -0.7621753069,
				"element": "H" 
			},
			{
				"x": 2.3742044255,
				"y": 2.7026593081,
				"z": -0.4143492121,
				"element": "H" 
			},
			{
				"x": 0.0021337996,
				"y": 2.6665211934,
				"z": 0.1410343277,
				"element": "H" 
			}
		],
		 "valence_orbital": [ 
			{
				"type": "occ",
				"energy": -0.28955,
				"method": "rhf"
			},
			{
				"type": "occ",
				"energy": -0.27835,
				"method": "rhf"
			},
			{
				"type": "occ",
				"energy": -0.25841,
				"method": "rhf"
			},
			{
				"type": "occ",
				"energy": -0.23413,
				"method": "rhf"
			},
			{
				"type": "occ",
				"energy": -0.19909,
				"method": "rhf"
			},
			{
				"type": "unocc",
				"energy": -0.00374,
				"method": "rhf"
			},
			{
				"type": "unocc",
				"energy": 0.00937,
				"method": "rhf"
			},
			{
				"type": "unocc",
				"energy": 0.01526,
				"method": "rhf"
			},
			{
				"type": "unocc",
				"energy": 0.08327,
				"method": "rhf"
			},
			{
				"type": "unocc",
				"energy": 0.08909,
				"method": "rhf"
			}
		],
		"cosmo_sigma_profile": { 
			"-0.025": 0.0,
			"-0.024": 0.0,
			"-0.023": 0.0,
			"-0.022": 0.0,
			"-0.021": 0.0,
			"-0.02": 0.0,
			"-0.019": 0.0,
			"-0.018": 0.0,
			"-0.017": 0.0,
			"-0.016": 0.0,
			"-0.015": 0.0,
			"-0.014": 0.0457695634022,
			"-0.013": 1.06961568552,
			"-0.012": 1.39093310194,
			"-0.011": 2.16980718209,
			"-0.01": 2.49400170987,
			"-0.009": 2.75789522433,
			"-0.008": 2.33947788956,
			"-0.007": 2.75056872693,
			"-0.006": 5.02468566125,
			"-0.005": 4.02061520666,
			"-0.004": 16.4776109083,
			"-0.003": 29.7112590829,
			"-0.002": 30.1264584554,
			"-0.001": 27.698701466,
			"0.0": 27.889927839,
			"0.001": 20.5794501947,
			"0.002": 14.6864447355,
			"0.003": 21.2114017901,
			"0.004": 23.1336001145,
			"0.005": 10.3828183026,
			"0.006": 4.40780170499,
			"0.007": 2.87475547883,
			"0.008": 2.60514694486,
			"0.009": 2.53889620731,
			"0.01": 2.89720181794,
			"0.011": 2.30943982454,
			"0.012": 1.65164519922,
			"0.013": 0.79869319171,
			"0.014": 0.0293775701202,
			"0.015": 0.0,
			"0.016": 0.0,
			"0.017": 0.0,
			"0.018": 0.0,
			"0.019": 0.0,
			"0.02": 0.0,
			"0.021": 0.0,
			"0.022": 0.0,
			"0.023": 0.0,
			"0.024": 0.0,
			"0.025": 0.0
		}
	}
}
