{
	 "smiles": "OC(=O)C1=CC(=CC=C1)N1CCCNC1=O", 
	 "Tm": 551.15, 
	 "num_atms": 28, 
	 "gaussian": { 
		 "optdone": 1, 
		 "sigma_profile": "yes", 
		 "theory": "DFT", 
		 "functional": "B3LYP", 
		 "basiset": "6-31G**", 
		 "properties": { 
			 "R2extent": 4705.4599, 
			 "electric_dipole_moment_norm": 9.11814361644, 
			 "electric_quadrupole_moment_norm": 15.3506537698, 
			 "total_energy": -761.612023799, 
			 "HOMO_LUMO_gap": 0.18665, 
			 "cosmo_polarized_energy": -20.57, 
			 "cosmo_cavitation_energy": 31.11, 
			 "cosmo_dispersion_energy": -23.08, 
			 "cosmo_repulsion_energy": 1.79, 
			 "cosmo_total_nonelectrostatic_energy": 9.82, 
			 "SMD_solvation_energy": 5.73 
		},
		"coords": [
			{
				"x": -1.0936131858,
				"y": 4.1665665018,
				"z": 0.1933840175,
				"element": "O" 
			},
			{
				"x": -1.4599474623,
				"y": 3.6412937533,
				"z": -1.0051049206,
				"element": "C" 
			},
			{
				"x": -1.6072576551,
				"y": 4.3617936657,
				"z": -1.965152358,
				"element": "O" 
			},
			{
				"x": -1.6700987142,
				"y": 2.1564409302,
				"z": -1.0472352342,
				"element": "C" 
			},
			{
				"x": -1.0627894577,
				"y": 1.3073137474,
				"z": -0.1196961959,
				"element": "C" 
			},
			{
				"x": -1.2952518053,
				"y": -0.0765852529,
				"z": -0.1589788237,
				"element": "C" 
			},
			{
				"x": -2.1287869744,
				"y": -0.5876017168,
				"z": -1.1650147551,
				"element": "C" 
			},
			{
				"x": -2.7023578086,
				"y": 0.2629051438,
				"z": -2.114101353,
				"element": "C" 
			},
			{
				"x": -2.4781484565,
				"y": 1.6334038359,
				"z": -2.0655795185,
				"element": "C" 
			},
			{
				"x": -0.6687909663,
				"y": -0.9529933347,
				"z": 0.7684517637,
				"element": "N" 
			},
			{
				"x": -0.4199524426,
				"y": -2.3417648078,
				"z": 0.353201699,
				"element": "C" 
			},
			{
				"x": 0.7344251833,
				"y": -2.9495812505,
				"z": 1.1439937129,
				"element": "C" 
			},
			{
				"x": 0.4250076874,
				"y": -2.866990027,
				"z": 2.6332547159,
				"element": "C" 
			},
			{
				"x": 0.0489111088,
				"y": -1.4986851116,
				"z": 2.948065845,
				"element": "N" 
			},
			{
				"x": -0.5165066254,
				"y": -0.5679659854,
				"z": 2.1089203359,
				"element": "C" 
			},
			{
				"x": -0.8369827599,
				"y": 0.538707798,
				"z": 2.5341067901,
				"element": "O" 
			},
			{
				"x": -1.1747611321,
				"y": 3.4986090762,
				"z": 0.8902695691,
				"element": "H" 
			},
			{
				"x": -0.392142297,
				"y": 1.6930112669,
				"z": 0.6348944712,
				"element": "H" 
			},
			{
				"x": -2.3449292934,
				"y": -1.6491267462,
				"z": -1.2104354603,
				"element": "H" 
			},
			{
				"x": -3.3389005431,
				"y": -0.1576927877,
				"z": -2.8869041788,
				"element": "H" 
			},
			{
				"x": -2.9161823383,
				"y": 2.3114533959,
				"z": -2.7892043119,
				"element": "H" 
			},
			{
				"x": -1.3223814706,
				"y": -2.9586251382,
				"z": 0.4825477389,
				"element": "H" 
			},
			{
				"x": -0.1818205935,
				"y": -2.3326213285,
				"z": -0.7134582822,
				"element": "H" 
			},
			{
				"x": 1.6580104554,
				"y": -2.403361245,
				"z": 0.9244668879,
				"element": "H" 
			},
			{
				"x": 0.8767752213,
				"y": -3.9916826741,
				"z": 0.8420030871,
				"element": "H" 
			},
			{
				"x": 1.3015489733,
				"y": -3.141080652,
				"z": 3.2301484278,
				"element": "H" 
			},
			{
				"x": -0.3795344853,
				"y": -3.5732648703,
				"z": 2.8911079344,
				"element": "H" 
			},
			{
				"x": 0.0771578379,
				"y": -1.1775761863,
				"z": 3.9042483959,
				"element": "H" 
			}
		],
		 "valence_orbital": [ 
			{
				"type": "occ",
				"energy": -0.27259,
				"method": "rhf"
			},
			{
				"type": "occ",
				"energy": -0.26304,
				"method": "rhf"
			},
			{
				"type": "occ",
				"energy": -0.2591,
				"method": "rhf"
			},
			{
				"type": "occ",
				"energy": -0.25492,
				"method": "rhf"
			},
			{
				"type": "occ",
				"energy": -0.22694,
				"method": "rhf"
			},
			{
				"type": "unocc",
				"energy": -0.04029,
				"method": "rhf"
			},
			{
				"type": "unocc",
				"energy": -0.01316,
				"method": "rhf"
			},
			{
				"type": "unocc",
				"energy": 0.03886,
				"method": "rhf"
			},
			{
				"type": "unocc",
				"energy": 0.05939,
				"method": "rhf"
			},
			{
				"type": "unocc",
				"energy": 0.06853,
				"method": "rhf"
			}
		],
		"cosmo_sigma_profile": { 
			"-0.025": 0.0,
			"-0.024": 0.0,
			"-0.023": 0.0,
			"-0.022": 0.0,
			"-0.021": 0.0,
			"-0.02": 0.0,
			"-0.019": 0.0,
			"-0.018": 0.0,
			"-0.017": 0.0,
			"-0.016": 0.4185539198,
			"-0.015": 0.913497933493,
			"-0.014": 0.613065476055,
			"-0.013": 1.73090876616,
			"-0.012": 2.46842026962,
			"-0.011": 2.1889333993,
			"-0.01": 1.72797858907,
			"-0.009": 2.27765977611,
			"-0.008": 2.58681513299,
			"-0.007": 4.35613012082,
			"-0.006": 12.0120734706,
			"-0.005": 23.6867255909,
			"-0.004": 27.5519594103,
			"-0.003": 23.7268147701,
			"-0.002": 15.9151722647,
			"-0.001": 13.2128617216,
			"0.0": 11.3699169954,
			"0.001": 11.6020148503,
			"0.002": 13.1769314015,
			"0.003": 14.4329038893,
			"0.004": 11.5757236715,
			"0.005": 4.98341189893,
			"0.006": 3.2295111005,
			"0.007": 3.93420853816,
			"0.008": 4.2388720698,
			"0.009": 4.95367771355,
			"0.01": 5.69875395266,
			"0.011": 6.03386647158,
			"0.012": 7.01576314497,
			"0.013": 4.07648970412,
			"0.014": 3.59844859089,
			"0.015": 1.26886570427,
			"0.016": 0.0,
			"0.017": 0.0,
			"0.018": 0.0,
			"0.019": 0.0,
			"0.02": 0.0,
			"0.021": 0.0,
			"0.022": 0.0,
			"0.023": 0.0,
			"0.024": 0.0,
			"0.025": 0.0
		}
	}
}
