{
	 "smiles": "CCOC(=O)C1=NC=CN=C1", 
	 "Tm": 322.15, 
	 "num_atms": 19, 
	 "gaussian": { 
		 "optdone": 1, 
		 "sigma_profile": "yes", 
		 "theory": "DFT", 
		 "functional": "B3LYP", 
		 "basiset": "6-31G**", 
		 "properties": { 
			 "R2extent": 2236.038, 
			 "electric_dipole_moment_norm": 1.86278253159, 
			 "electric_quadrupole_moment_norm": 9.63099076419, 
			 "total_energy": -531.51117608, 
			 "HOMO_LUMO_gap": 0.1807, 
			 "cosmo_polarized_energy": -9.95, 
			 "cosmo_cavitation_energy": 23.9, 
			 "cosmo_dispersion_energy": -17.6, 
			 "cosmo_repulsion_energy": 1.43, 
			 "cosmo_total_nonelectrostatic_energy": 7.73, 
			 "SMD_solvation_energy": 2.84 
		},
		"coords": [
			{
				"x": -1.5418101897,
				"y": 2.3874242838,
				"z": 2.1734340379,
				"element": "C" 
			},
			{
				"x": -1.2814355246,
				"y": 2.2180659374,
				"z": 0.6843511717,
				"element": "C" 
			},
			{
				"x": -0.4534614873,
				"y": 1.0568405565,
				"z": 0.4254243672,
				"element": "O" 
			},
			{
				"x": -1.0904915913,
				"y": -0.1158958852,
				"z": 0.317460838,
				"element": "C" 
			},
			{
				"x": -2.2942655068,
				"y": -0.2675653808,
				"z": 0.4153930711,
				"element": "O" 
			},
			{
				"x": -0.1562975957,
				"y": -1.2625267589,
				"z": 0.0494136676,
				"element": "C" 
			},
			{
				"x": 1.1617681333,
				"y": -1.0418529347,
				"z": -0.0409489621,
				"element": "N" 
			},
			{
				"x": 1.9206128507,
				"y": -2.1128953886,
				"z": -0.2807948578,
				"element": "C" 
			},
			{
				"x": 1.3728623498,
				"y": -3.3910825348,
				"z": -0.4294607358,
				"element": "C" 
			},
			{
				"x": 0.0574646651,
				"y": -3.6158729856,
				"z": -0.339291258,
				"element": "N" 
			},
			{
				"x": -0.704616221,
				"y": -2.5442185624,
				"z": -0.0984141175,
				"element": "C" 
			},
			{
				"x": -0.6012753367,
				"y": 2.441582035,
				"z": 2.7291047207,
				"element": "H" 
			},
			{
				"x": -2.1347227626,
				"y": 1.5541390584,
				"z": 2.5583053008,
				"element": "H" 
			},
			{
				"x": -2.0989901553,
				"y": 3.3138723223,
				"z": 2.3478211915,
				"element": "H" 
			},
			{
				"x": -2.2162718853,
				"y": 2.1160900519,
				"z": 0.128105844,
				"element": "H" 
			},
			{
				"x": -0.7042784753,
				"y": 3.0524306945,
				"z": 0.2798962908,
				"element": "H" 
			},
			{
				"x": 2.9941271929,
				"y": -1.9530589246,
				"z": -0.3572475217,
				"element": "H" 
			},
			{
				"x": 2.0104182469,
				"y": -4.2509205949,
				"z": -0.625007523,
				"element": "H" 
			},
			{
				"x": -1.7778367072,
				"y": -2.6883549891,
				"z": -0.0184455253,
				"element": "H" 
			}
		],
		 "valence_orbital": [ 
			{
				"type": "occ",
				"energy": -0.31657,
				"method": "rhf"
			},
			{
				"type": "occ",
				"energy": -0.30393,
				"method": "rhf"
			},
			{
				"type": "occ",
				"energy": -0.28839,
				"method": "rhf"
			},
			{
				"type": "occ",
				"energy": -0.28359,
				"method": "rhf"
			},
			{
				"type": "occ",
				"energy": -0.25353,
				"method": "rhf"
			},
			{
				"type": "unocc",
				"energy": -0.07283,
				"method": "rhf"
			},
			{
				"type": "unocc",
				"energy": -0.04705,
				"method": "rhf"
			},
			{
				"type": "unocc",
				"energy": 0.039,
				"method": "rhf"
			},
			{
				"type": "unocc",
				"energy": 0.10726,
				"method": "rhf"
			},
			{
				"type": "unocc",
				"energy": 0.11331,
				"method": "rhf"
			}
		],
		"cosmo_sigma_profile": { 
			"-0.025": 0.0,
			"-0.024": 0.0,
			"-0.023": 0.0,
			"-0.022": 0.0,
			"-0.021": 0.0,
			"-0.02": 0.0,
			"-0.019": 0.0,
			"-0.018": 0.0,
			"-0.017": 0.0,
			"-0.016": 0.0,
			"-0.015": 0.0,
			"-0.014": 0.0,
			"-0.013": 0.0,
			"-0.012": 0.0,
			"-0.011": 0.0,
			"-0.01": 0.0,
			"-0.009": 1.0649242863,
			"-0.008": 6.06344057804,
			"-0.007": 5.05116305918,
			"-0.006": 7.40318051186,
			"-0.005": 11.1265021494,
			"-0.004": 18.785166857,
			"-0.003": 23.4109394613,
			"-0.002": 22.4191930122,
			"-0.001": 18.2583769401,
			"0.0": 14.6070049539,
			"0.001": 9.04750131991,
			"0.002": 6.19307150024,
			"0.003": 5.31520684953,
			"0.004": 4.33243401033,
			"0.005": 4.56275245621,
			"0.006": 4.42546029991,
			"0.007": 4.01929191188,
			"0.008": 3.46815856512,
			"0.009": 3.76110070625,
			"0.01": 3.64828115978,
			"0.011": 6.46649231738,
			"0.012": 2.41697832015,
			"0.013": 2.02008117479,
			"0.014": 1.92333009779,
			"0.015": 1.12469953001,
			"0.016": 0.198402447373,
			"0.017": 0.0,
			"0.018": 0.0,
			"0.019": 0.0,
			"0.02": 0.0,
			"0.021": 0.0,
			"0.022": 0.0,
			"0.023": 0.0,
			"0.024": 0.0,
			"0.025": 0.0
		}
	}
}
