{
	 "smiles": "CC(=O)N(C1=NC(C=O)=CS1)C1=CC=C(C=C1)C(F)(F)F", 
	 "Tm": 412.15, 
	 "num_atms": 30, 
	 "gaussian": { 
		 "optdone": 1, 
		 "sigma_profile": "yes", 
		 "theory": "DFT", 
		 "functional": "B3LYP", 
		 "basiset": "6-31G**", 
		 "properties": { 
			 "R2extent": 8767.9042, 
			 "electric_dipole_moment_norm": 2.0741598058, 
			 "electric_quadrupole_moment_norm": 23.2284410486, 
			 "total_energy": -1458.45842205, 
			 "HOMO_LUMO_gap": 0.16437, 
			 "cosmo_polarized_energy": -14.14, 
			 "cosmo_cavitation_energy": 39.16, 
			 "cosmo_dispersion_energy": -26.64, 
			 "cosmo_repulsion_energy": 1.94, 
			 "cosmo_total_nonelectrostatic_energy": 14.46, 
			 "SMD_solvation_energy": 8.41 
		},
		"coords": [
			{
				"x": 1.5216813836,
				"y": -2.7981449405,
				"z": -1.7108195158,
				"element": "C" 
			},
			{
				"x": 0.8512521867,
				"y": -2.1074808155,
				"z": -0.5438166259,
				"element": "C" 
			},
			{
				"x": 0.3700767825,
				"y": -2.7152991182,
				"z": 0.390775398,
				"element": "O" 
			},
			{
				"x": 0.82058202,
				"y": -0.684622568,
				"z": -0.5501713309,
				"element": "N" 
			},
			{
				"x": 1.2356584514,
				"y": 0.0818234121,
				"z": -1.643220206,
				"element": "C" 
			},
			{
				"x": 0.9260387945,
				"y": -0.1412360437,
				"z": -2.8845515096,
				"element": "N" 
			},
			{
				"x": 1.5474102254,
				"y": 0.7625235212,
				"z": -3.7223800199,
				"element": "C" 
			},
			{
				"x": 1.3202528934,
				"y": 0.6865301615,
				"z": -5.180361245,
				"element": "C" 
			},
			{
				"x": 1.8131018153,
				"y": 1.4570552575,
				"z": -5.9813817914,
				"element": "O" 
			},
			{
				"x": 2.3272715382,
				"y": 1.7103865685,
				"z": -3.1087250384,
				"element": "C" 
			},
			{
				"x": 2.3347051429,
				"y": 1.4647694702,
				"z": -1.4057856247,
				"element": "S" 
			},
			{
				"x": 0.2725221965,
				"y": 0.0098240807,
				"z": 0.5849871134,
				"element": "C" 
			},
			{
				"x": -0.7360531907,
				"y": 0.9578511153,
				"z": 0.384330741,
				"element": "C" 
			},
			{
				"x": -1.2535196341,
				"y": 1.6638015116,
				"z": 1.4670093423,
				"element": "C" 
			},
			{
				"x": -0.7738701897,
				"y": 1.4139962953,
				"z": 2.7545864056,
				"element": "C" 
			},
			{
				"x": 0.2259138559,
				"y": 0.4579920846,
				"z": 2.9553084514,
				"element": "C" 
			},
			{
				"x": 0.7540784045,
				"y": -0.2408586321,
				"z": 1.8742016944,
				"element": "C" 
			},
			{
				"x": -1.3732329448,
				"y": 2.1322377584,
				"z": 3.9337833407,
				"element": "C" 
			},
			{
				"x": -0.474169119,
				"y": 2.2980051245,
				"z": 4.9289382542,
				"element": "F" 
			},
			{
				"x": -1.8358372383,
				"y": 3.3555275457,
				"z": 3.5934175487,
				"element": "F" 
			},
			{
				"x": -2.4163338455,
				"y": 1.4481779279,
				"z": 4.4562730784,
				"element": "F" 
			},
			{
				"x": 1.6353344346,
				"y": -3.8472022455,
				"z": -1.4385565624,
				"element": "H" 
			},
			{
				"x": 0.9117413348,
				"y": -2.711903554,
				"z": -2.6125120456,
				"element": "H" 
			},
			{
				"x": 2.4987961566,
				"y": -2.3619806216,
				"z": -1.9369622663,
				"element": "H" 
			},
			{
				"x": 0.6532793507,
				"y": -0.1441244954,
				"z": -5.4892009057,
				"element": "H" 
			},
			{
				"x": 2.8547629917,
				"y": 2.5248358851,
				"z": -3.5847887799,
				"element": "H" 
			},
			{
				"x": -1.1141075356,
				"y": 1.1368094364,
				"z": -0.6170230087,
				"element": "H" 
			},
			{
				"x": -2.0289779514,
				"y": 2.4056745496,
				"z": 1.3120618976,
				"element": "H" 
			},
			{
				"x": 0.6011826627,
				"y": 0.271655237,
				"z": 3.9554808191,
				"element": "H" 
			},
			{
				"x": 1.5283590271,
				"y": -0.9823239088,
				"z": 2.0274023915,
				"element": "H" 
			}
		],
		 "valence_orbital": [ 
			{
				"type": "occ",
				"energy": -0.29003,
				"method": "rhf"
			},
			{
				"type": "occ",
				"energy": -0.28174,
				"method": "rhf"
			},
			{
				"type": "occ",
				"energy": -0.27286,
				"method": "rhf"
			},
			{
				"type": "occ",
				"energy": -0.26945,
				"method": "rhf"
			},
			{
				"type": "occ",
				"energy": -0.24495,
				"method": "rhf"
			},
			{
				"type": "unocc",
				"energy": -0.08058,
				"method": "rhf"
			},
			{
				"type": "unocc",
				"energy": -0.05013,
				"method": "rhf"
			},
			{
				"type": "unocc",
				"energy": -0.04173,
				"method": "rhf"
			},
			{
				"type": "unocc",
				"energy": -0.02797,
				"method": "rhf"
			},
			{
				"type": "unocc",
				"energy": -0.01106,
				"method": "rhf"
			}
		],
		"cosmo_sigma_profile": { 
			"-0.025": 0.0,
			"-0.024": 0.0,
			"-0.023": 0.0,
			"-0.022": 0.0,
			"-0.021": 0.0,
			"-0.02": 0.0,
			"-0.019": 0.0,
			"-0.018": 0.0,
			"-0.017": 0.0,
			"-0.016": 0.0,
			"-0.015": 0.0,
			"-0.014": 0.0,
			"-0.013": 0.0,
			"-0.012": 0.0,
			"-0.011": 0.626968177009,
			"-0.01": 1.95792755449,
			"-0.009": 1.90128421924,
			"-0.008": 3.74719811933,
			"-0.007": 10.7993864309,
			"-0.006": 17.8905375384,
			"-0.005": 19.4388842366,
			"-0.004": 21.3536939949,
			"-0.003": 20.5728154359,
			"-0.002": 25.6508012011,
			"-0.001": 28.4693357636,
			"0.0": 28.090388097,
			"0.001": 25.2927843026,
			"0.002": 32.2901875775,
			"0.003": 32.6823018416,
			"0.004": 5.15001345249,
			"0.005": 4.20857546906,
			"0.006": 3.74068859519,
			"0.007": 4.16616153493,
			"0.008": 4.00938524141,
			"0.009": 4.29149950252,
			"0.01": 6.16064120667,
			"0.011": 7.86465979426,
			"0.012": 5.71380320403,
			"0.013": 0.983581895337,
			"0.014": 0.0,
			"0.015": 0.0,
			"0.016": 0.0,
			"0.017": 0.0,
			"0.018": 0.0,
			"0.019": 0.0,
			"0.02": 0.0,
			"0.021": 0.0,
			"0.022": 0.0,
			"0.023": 0.0,
			"0.024": 0.0,
			"0.025": 0.0
		}
	}
}
