{
	 "smiles": "COC1=CC2=C(C=C1OC)C1C(CO2)OC2=C(C(O)=CC3=C2CC(O3)C(C)=C)C1=O", 
	 "Tm": 468.15, 
	 "num_atms": 52, 
	 "gaussian": { 
		 "optdone": 1, 
		 "sigma_profile": "yes", 
		 "theory": "DFT", 
		 "functional": "B3LYP", 
		 "basiset": "6-31G**", 
		 "properties": { 
			 "R2extent": 14831.0996, 
			 "electric_dipole_moment_norm": 3.49383497178, 
			 "electric_quadrupole_moment_norm": 17.258300638, 
			 "total_energy": -1416.20409871, 
			 "HOMO_LUMO_gap": 0.16333, 
			 "cosmo_polarized_energy": -23.95, 
			 "cosmo_cavitation_energy": 54.03, 
			 "cosmo_dispersion_energy": -37.31, 
			 "cosmo_repulsion_energy": 2.82, 
			 "cosmo_total_nonelectrostatic_energy": 19.54, 
			 "SMD_solvation_energy": 11.68 
		},
		"coords": [
			{
				"x": 2.2996869367,
				"y": 4.0850670818,
				"z": 5.6730221447,
				"element": "C" 
			},
			{
				"x": 1.2438679449,
				"y": 3.4521349709,
				"z": 4.9401906154,
				"element": "O" 
			},
			{
				"x": 1.601105643,
				"y": 2.9787831603,
				"z": 3.6981476036,
				"element": "C" 
			},
			{
				"x": 1.0407589786,
				"y": 3.5716039577,
				"z": 2.5714712146,
				"element": "C" 
			},
			{
				"x": 1.3496534169,
				"y": 3.0962815535,
				"z": 1.2930689926,
				"element": "C" 
			},
			{
				"x": 2.227793365,
				"y": 2.0147330176,
				"z": 1.1224325826,
				"element": "C" 
			},
			{
				"x": 2.7872509749,
				"y": 1.4316518432,
				"z": 2.2677115186,
				"element": "C" 
			},
			{
				"x": 2.48496427,
				"y": 1.8919100694,
				"z": 3.5451045622,
				"element": "C" 
			},
			{
				"x": 3.0803285625,
				"y": 1.2955204193,
				"z": 4.6391874067,
				"element": "O" 
			},
			{
				"x": 2.2001116737,
				"y": 0.4719963633,
				"z": 5.4101650687,
				"element": "C" 
			},
			{
				"x": 2.5595332439,
				"y": 1.5084109639,
				"z": -0.2781513117,
				"element": "C" 
			},
			{
				"x": 1.5490016921,
				"y": 2.0368939234,
				"z": -1.2933113359,
				"element": "C" 
			},
			{
				"x": 1.2646509821,
				"y": 3.5099895808,
				"z": -1.0505737834,
				"element": "C" 
			},
			{
				"x": 0.7412586023,
				"y": 3.7493757968,
				"z": 0.2492991527,
				"element": "O" 
			},
			{
				"x": 0.2830288936,
				"y": 1.3667461413,
				"z": -1.192204717,
				"element": "O" 
			},
			{
				"x": 0.2852679036,
				"y": 0.0121154142,
				"z": -1.096402431,
				"element": "C" 
			},
			{
				"x": 1.4417386135,
				"y": -0.7365814366,
				"z": -0.7366889034,
				"element": "C" 
			},
			{
				"x": 1.3274061279,
				"y": -2.1579118087,
				"z": -0.7057300149,
				"element": "C" 
			},
			{
				"x": 2.4248407668,
				"y": -2.8770362716,
				"z": -0.3762538687,
				"element": "O" 
			},
			{
				"x": 0.120130461,
				"y": -2.8051170054,
				"z": -0.9895094403,
				"element": "C" 
			},
			{
				"x": -0.977194221,
				"y": -2.0102774814,
				"z": -1.3034985796,
				"element": "C" 
			},
			{
				"x": -0.9192154638,
				"y": -0.6205876455,
				"z": -1.3602696582,
				"element": "C" 
			},
			{
				"x": -2.2577127866,
				"y": -0.0928477455,
				"z": -1.8004258585,
				"element": "C" 
			},
			{
				"x": -3.13069855,
				"y": -1.388442905,
				"z": -1.7457982179,
				"element": "C" 
			},
			{
				"x": -2.200939923,
				"y": -2.5050104623,
				"z": -1.6060419364,
				"element": "O" 
			},
			{
				"x": -4.0397203838,
				"y": -1.5839546606,
				"z": -2.9349192758,
				"element": "C" 
			},
			{
				"x": -5.1732955853,
				"y": -0.5922370216,
				"z": -3.0218761073,
				"element": "C" 
			},
			{
				"x": -3.8494796388,
				"y": -2.5559575594,
				"z": -3.8294683466,
				"element": "C" 
			},
			{
				"x": 2.6655701413,
				"y": -0.0271869108,
				"z": -0.339425435,
				"element": "C" 
			},
			{
				"x": 3.7245140266,
				"y": -0.558868161,
				"z": -0.0336962899,
				"element": "O" 
			},
			{
				"x": 2.6629155235,
				"y": 4.9725388033,
				"z": 5.1392214788,
				"element": "H" 
			},
			{
				"x": 3.1325623527,
				"y": 3.3975705237,
				"z": 5.8469663333,
				"element": "H" 
			},
			{
				"x": 1.8664780261,
				"y": 4.392273816,
				"z": 6.6272531086,
				"element": "H" 
			},
			{
				"x": 0.3635522209,
				"y": 4.4107097378,
				"z": 2.6843119669,
				"element": "H" 
			},
			{
				"x": 3.4722705972,
				"y": 0.5962938334,
				"z": 2.1670184847,
				"element": "H" 
			},
			{
				"x": 1.3621126307,
				"y": 1.0516529372,
				"z": 5.8121647494,
				"element": "H" 
			},
			{
				"x": 2.7956605887,
				"y": 0.0689723027,
				"z": 6.2324080883,
				"element": "H" 
			},
			{
				"x": 1.8117719246,
				"y": -0.357045358,
				"z": 4.8048926298,
				"element": "H" 
			},
			{
				"x": 3.5536420961,
				"y": 1.8703885944,
				"z": -0.5684084544,
				"element": "H" 
			},
			{
				"x": 1.9331864302,
				"y": 1.8984625369,
				"z": -2.3143070547,
				"element": "H" 
			},
			{
				"x": 2.1932699769,
				"y": 4.0796852951,
				"z": -1.202021382,
				"element": "H" 
			},
			{
				"x": 0.5077663674,
				"y": 3.8772685362,
				"z": -1.7475578235,
				"element": "H" 
			},
			{
				"x": 2.1882087585,
				"y": -3.8146086338,
				"z": -0.372938448,
				"element": "H" 
			},
			{
				"x": 0.0368923797,
				"y": -3.8869187801,
				"z": -0.9606798885,
				"element": "H" 
			},
			{
				"x": -2.2193679936,
				"y": 0.3183206397,
				"z": -2.8169291364,
				"element": "H" 
			},
			{
				"x": -2.6528407959,
				"y": 0.6879283434,
				"z": -1.1442658735,
				"element": "H" 
			},
			{
				"x": -3.7346961043,
				"y": -1.3812552485,
				"z": -0.8271783684,
				"element": "H" 
			},
			{
				"x": -4.8053746811,
				"y": 0.4391738795,
				"z": -3.0935926339,
				"element": "H" 
			},
			{
				"x": -5.8010045627,
				"y": -0.7870405511,
				"z": -3.8945654933,
				"element": "H" 
			},
			{
				"x": -5.8088269343,
				"y": -0.6374320357,
				"z": -2.1278270614,
				"element": "H" 
			},
			{
				"x": -4.5153549502,
				"y": -2.6702104644,
				"z": -4.6797995488,
				"element": "H" 
			},
			{
				"x": -3.0343305198,
				"y": -3.2632258896,
				"z": -3.7316210239,
				"element": "H" 
			}
		],
		 "valence_orbital": [ 
			{
				"type": "occ",
				"energy": -0.23911,
				"method": "rhf"
			},
			{
				"type": "occ",
				"energy": -0.22852,
				"method": "rhf"
			},
			{
				"type": "occ",
				"energy": -0.22597,
				"method": "rhf"
			},
			{
				"type": "occ",
				"energy": -0.21707,
				"method": "rhf"
			},
			{
				"type": "occ",
				"energy": -0.20487,
				"method": "rhf"
			},
			{
				"type": "unocc",
				"energy": -0.04154,
				"method": "rhf"
			},
			{
				"type": "unocc",
				"energy": 0.00171,
				"method": "rhf"
			},
			{
				"type": "unocc",
				"energy": 0.00517,
				"method": "rhf"
			},
			{
				"type": "unocc",
				"energy": 0.01454,
				"method": "rhf"
			},
			{
				"type": "unocc",
				"energy": 0.01741,
				"method": "rhf"
			}
		],
		"cosmo_sigma_profile": { 
			"-0.025": 0.0,
			"-0.024": 0.0,
			"-0.023": 0.0,
			"-0.022": 0.0,
			"-0.021": 0.0,
			"-0.02": 0.0,
			"-0.019": 0.114521636179,
			"-0.018": 1.09778426162,
			"-0.017": 0.984549752787,
			"-0.016": 1.14079371024,
			"-0.015": 0.970860130358,
			"-0.014": 1.06746803951,
			"-0.013": 0.890046370589,
			"-0.012": 1.0675224253,
			"-0.011": 1.22949078484,
			"-0.01": 1.20982714697,
			"-0.009": 0.900797867083,
			"-0.008": 5.05818755266,
			"-0.007": 13.1164811079,
			"-0.006": 19.3449593393,
			"-0.005": 24.71118175,
			"-0.004": 36.9199531662,
			"-0.003": 35.4430909934,
			"-0.002": 36.102039657,
			"-0.001": 29.5808937713,
			"0.0": 30.5706393271,
			"0.001": 29.6139922329,
			"0.002": 36.281302118,
			"0.003": 29.7780814624,
			"0.004": 20.7238616909,
			"0.005": 12.3148121622,
			"0.006": 11.2903368153,
			"0.007": 8.68674645827,
			"0.008": 6.3883381664,
			"0.009": 6.71737158197,
			"0.01": 6.7278148809,
			"0.011": 4.60306939977,
			"0.012": 4.47374398408,
			"0.013": 3.45866334451,
			"0.014": 2.01560435765,
			"0.015": 1.51174416499,
			"0.016": 1.21377859478,
			"0.017": 0.584667763743,
			"0.018": 0.0,
			"0.019": 0.0,
			"0.02": 0.0,
			"0.021": 0.0,
			"0.022": 0.0,
			"0.023": 0.0,
			"0.024": 0.0,
			"0.025": 0.0
		}
	}
}
