{
	 "smiles": "CC1=NC2=C(C=CC=C2S(Cl)(=O)=O)C=C1", 
	 "Tm": 387.15, 
	 "num_atms": 23, 
	 "gaussian": { 
		 "optdone": 1, 
		 "sigma_profile": "yes", 
		 "theory": "DFT", 
		 "functional": "B3LYP", 
		 "basiset": "6-31G**", 
		 "properties": { 
			 "R2extent": 4326.1059, 
			 "electric_dipole_moment_norm": 7.29187630929, 
			 "electric_quadrupole_moment_norm": 20.2952315003, 
			 "total_energy": -1449.40664591, 
			 "HOMO_LUMO_gap": 0.17386, 
			 "cosmo_polarized_energy": -14.54, 
			 "cosmo_cavitation_energy": 30.45, 
			 "cosmo_dispersion_energy": -22.43, 
			 "cosmo_repulsion_energy": 1.7, 
			 "cosmo_total_nonelectrostatic_energy": 9.73, 
			 "SMD_solvation_energy": 3.14 
		},
		"coords": [
			{
				"x": 3.0324163868,
				"y": 0.0669101818,
				"z": 0.7589979423,
				"element": "C" 
			},
			{
				"x": 1.6087334662,
				"y": 0.4036524617,
				"z": 0.4017312541,
				"element": "C" 
			},
			{
				"x": 0.8478766433,
				"y": -0.574585673,
				"z": -0.0558352358,
				"element": "N" 
			},
			{
				"x": -0.4398608089,
				"y": -0.3050883493,
				"z": -0.3881842532,
				"element": "C" 
			},
			{
				"x": -1.0133497745,
				"y": 1.0005278226,
				"z": -0.2791320447,
				"element": "C" 
			},
			{
				"x": -2.3607118353,
				"y": 1.2178704213,
				"z": -0.662054346,
				"element": "C" 
			},
			{
				"x": -3.1315602037,
				"y": 0.183712469,
				"z": -1.1457516899,
				"element": "C" 
			},
			{
				"x": -2.5863032394,
				"y": -1.1140530097,
				"z": -1.2625340411,
				"element": "C" 
			},
			{
				"x": -1.2791258221,
				"y": -1.3456768255,
				"z": -0.8850359678,
				"element": "C" 
			},
			{
				"x": -0.702475529,
				"y": -3.0451246083,
				"z": -0.9900698189,
				"element": "S" 
			},
			{
				"x": 0.7872922968,
				"y": -2.9198467745,
				"z": -2.5050626207,
				"element": "Cl" 
			},
			{
				"x": -1.7796482355,
				"y": -3.8424421644,
				"z": -1.5709582138,
				"element": "O" 
			},
			{
				"x": -0.0422723882,
				"y": -3.460883813,
				"z": 0.2378965168,
				"element": "O" 
			},
			{
				"x": -0.1704564556,
				"y": 2.0294017532,
				"z": 0.2189569247,
				"element": "C" 
			},
			{
				"x": 1.1247992442,
				"y": 1.7368770825,
				"z": 0.5588047192,
				"element": "C" 
			},
			{
				"x": 3.2325161421,
				"y": 0.2877249968,
				"z": 1.8138882823,
				"element": "H" 
			},
			{
				"x": 3.2179695105,
				"y": -0.9917112068,
				"z": 0.5758081337,
				"element": "H" 
			},
			{
				"x": 3.7358013018,
				"y": 0.6625056152,
				"z": 0.1655670169,
				"element": "H" 
			},
			{
				"x": -2.7764345479,
				"y": 2.2179091634,
				"z": -0.5701066795,
				"element": "H" 
			},
			{
				"x": -4.1616957315,
				"y": 0.3549509429,
				"z": -1.4402536024,
				"element": "H" 
			},
			{
				"x": -3.1845662678,
				"y": -1.9337010579,
				"z": -1.6427646053,
				"element": "H" 
			},
			{
				"x": -0.5646985171,
				"y": 3.0369156537,
				"z": 0.3229722501,
				"element": "H" 
			},
			{
				"x": 1.7891543647,
				"y": 2.5053549183,
				"z": 0.942020079,
				"element": "H" 
			}
		],
		 "valence_orbital": [ 
			{
				"type": "occ",
				"energy": -0.31369,
				"method": "rhf"
			},
			{
				"type": "occ",
				"energy": -0.29862,
				"method": "rhf"
			},
			{
				"type": "occ",
				"energy": -0.27227,
				"method": "rhf"
			},
			{
				"type": "occ",
				"energy": -0.26809,
				"method": "rhf"
			},
			{
				"type": "occ",
				"energy": -0.26259,
				"method": "rhf"
			},
			{
				"type": "unocc",
				"energy": -0.08873,
				"method": "rhf"
			},
			{
				"type": "unocc",
				"energy": -0.06277,
				"method": "rhf"
			},
			{
				"type": "unocc",
				"energy": -0.04177,
				"method": "rhf"
			},
			{
				"type": "unocc",
				"energy": -0.01365,
				"method": "rhf"
			},
			{
				"type": "unocc",
				"energy": 0.05381,
				"method": "rhf"
			}
		],
		"cosmo_sigma_profile": { 
			"-0.025": 0.0,
			"-0.024": 0.0,
			"-0.023": 0.0,
			"-0.022": 0.0,
			"-0.021": 0.0,
			"-0.02": 0.0,
			"-0.019": 0.0,
			"-0.018": 0.0,
			"-0.017": 0.0,
			"-0.016": 0.0,
			"-0.015": 0.0,
			"-0.014": 0.0,
			"-0.013": 0.0,
			"-0.012": 0.0,
			"-0.011": 0.0,
			"-0.01": 0.0,
			"-0.009": 1.18298179114,
			"-0.008": 8.04480303076,
			"-0.007": 11.194287278,
			"-0.006": 11.4565629799,
			"-0.005": 15.0644994675,
			"-0.004": 14.383155914,
			"-0.003": 15.4315183127,
			"-0.002": 16.3271762012,
			"-0.001": 25.9458800388,
			"0.0": 28.4248987567,
			"0.001": 20.4884057506,
			"0.002": 13.1111883091,
			"0.003": 11.9880539874,
			"0.004": 12.2963745694,
			"0.005": 5.5157659309,
			"0.006": 4.98094743941,
			"0.007": 6.04306263571,
			"0.008": 9.98752569295,
			"0.009": 9.24981931465,
			"0.01": 2.55385397029,
			"0.011": 1.80971838026,
			"0.012": 1.05957317381,
			"0.013": 0.589077788846,
			"0.014": 0.145423518231,
			"0.015": 0.0,
			"0.016": 0.0,
			"0.017": 0.0,
			"0.018": 0.0,
			"0.019": 0.0,
			"0.02": 0.0,
			"0.021": 0.0,
			"0.022": 0.0,
			"0.023": 0.0,
			"0.024": 0.0,
			"0.025": 0.0
		}
	}
}
