{
	 "smiles": "CS(=O)(=O)C1=CC=C(NC(=O)OCC(F)(F)F)C=C1", 
	 "Tm": 449.15, 
	 "num_atms": 29, 
	 "gaussian": { 
		 "optdone": 1, 
		 "sigma_profile": "yes", 
		 "theory": "DFT", 
		 "functional": "B3LYP", 
		 "basiset": "6-31G**", 
		 "properties": { 
			 "R2extent": 8684.0818, 
			 "electric_dipole_moment_norm": 3.58905938235, 
			 "electric_quadrupole_moment_norm": 35.612502574, 
			 "total_energy": -1440.40738461, 
			 "HOMO_LUMO_gap": 0.20326, 
			 "cosmo_polarized_energy": -21.82, 
			 "cosmo_cavitation_energy": 37.19, 
			 "cosmo_dispersion_energy": -26.17, 
			 "cosmo_repulsion_energy": 1.91, 
			 "cosmo_total_nonelectrostatic_energy": 12.93, 
			 "SMD_solvation_energy": 8.35 
		},
		"coords": [
			{
				"x": -1.8540861231,
				"y": 4.3585125867,
				"z": -0.1214617779,
				"element": "C" 
			},
			{
				"x": -3.0558053005,
				"y": 3.0904189522,
				"z": 0.3499614938,
				"element": "S" 
			},
			{
				"x": -3.646812086,
				"y": 3.5018408513,
				"z": 1.6332791543,
				"element": "O" 
			},
			{
				"x": -3.8955153523,
				"y": 2.8238238753,
				"z": -0.8281746402,
				"element": "O" 
			},
			{
				"x": -2.0487691921,
				"y": 1.6353335232,
				"z": 0.6517926615,
				"element": "C" 
			},
			{
				"x": -1.7524316946,
				"y": 0.7659656469,
				"z": -0.3986546051,
				"element": "C" 
			},
			{
				"x": -0.9692394962,
				"y": -0.3636633923,
				"z": -0.1772412267,
				"element": "C" 
			},
			{
				"x": -0.4918438801,
				"y": -0.6342686913,
				"z": 1.1165636323,
				"element": "C" 
			},
			{
				"x": 0.3290300167,
				"y": -1.731612122,
				"z": 1.4432562864,
				"element": "N" 
			},
			{
				"x": 0.6085321039,
				"y": -2.916298052,
				"z": 0.8050889613,
				"element": "C" 
			},
			{
				"x": 1.399944948,
				"y": -3.7279363352,
				"z": 1.2372307131,
				"element": "O" 
			},
			{
				"x": -0.1277631964,
				"y": -3.0745374142,
				"z": -0.3295208491,
				"element": "O" 
			},
			{
				"x": 0.2074480019,
				"y": -4.1889833234,
				"z": -1.1508565198,
				"element": "C" 
			},
			{
				"x": 0.9404694305,
				"y": -3.6807537369,
				"z": -2.3801945692,
				"element": "C" 
			},
			{
				"x": 1.2108651943,
				"y": -4.7092931165,
				"z": -3.2062150829,
				"element": "F" 
			},
			{
				"x": 0.1967461126,
				"y": -2.7819140397,
				"z": -3.0593778348,
				"element": "F" 
			},
			{
				"x": 2.0991164616,
				"y": -3.0824058578,
				"z": -2.0495002816,
				"element": "F" 
			},
			{
				"x": -0.8054898075,
				"y": 0.2461172,
				"z": 2.1679633998,
				"element": "C" 
			},
			{
				"x": -1.5794905434,
				"y": 1.3768232818,
				"z": 1.9409355653,
				"element": "C" 
			},
			{
				"x": -1.1580760616,
				"y": 4.5190360681,
				"z": 0.702982278,
				"element": "H" 
			},
			{
				"x": -1.330517397,
				"y": 4.0404545698,
				"z": -1.0240223522,
				"element": "H" 
			},
			{
				"x": -2.4290890307,
				"y": 5.2663302231,
				"z": -0.315741727,
				"element": "H" 
			},
			{
				"x": -2.145874486,
				"y": 0.967210594,
				"z": -1.3895915069,
				"element": "H" 
			},
			{
				"x": -0.7361481658,
				"y": -1.025827742,
				"z": -0.9981553323,
				"element": "H" 
			},
			{
				"x": 0.7987597294,
				"y": -1.6850796664,
				"z": 2.3369698098,
				"element": "H" 
			},
			{
				"x": 0.8414288904,
				"y": -4.8921684955,
				"z": -0.6088941864,
				"element": "H" 
			},
			{
				"x": -0.7227991645,
				"y": -4.6672270599,
				"z": -1.4625536762,
				"element": "H" 
			},
			{
				"x": -0.4503416678,
				"y": 0.0298120691,
				"z": 3.1721752814,
				"element": "H" 
			},
			{
				"x": -1.8433482438,
				"y": 2.0418896038,
				"z": 2.7562569311,
				"element": "H" 
			}
		],
		 "valence_orbital": [ 
			{
				"type": "occ",
				"energy": -0.30903,
				"method": "rhf"
			},
			{
				"type": "occ",
				"energy": -0.29555,
				"method": "rhf"
			},
			{
				"type": "occ",
				"energy": -0.28796,
				"method": "rhf"
			},
			{
				"type": "occ",
				"energy": -0.28066,
				"method": "rhf"
			},
			{
				"type": "occ",
				"energy": -0.25042,
				"method": "rhf"
			},
			{
				"type": "unocc",
				"energy": -0.04716,
				"method": "rhf"
			},
			{
				"type": "unocc",
				"energy": -0.0307,
				"method": "rhf"
			},
			{
				"type": "unocc",
				"energy": 0.02736,
				"method": "rhf"
			},
			{
				"type": "unocc",
				"energy": 0.05171,
				"method": "rhf"
			},
			{
				"type": "unocc",
				"energy": 0.06849,
				"method": "rhf"
			}
		],
		"cosmo_sigma_profile": { 
			"-0.025": 0.0,
			"-0.024": 0.0,
			"-0.023": 0.0,
			"-0.022": 0.0,
			"-0.021": 0.0,
			"-0.02": 0.0,
			"-0.019": 0.0,
			"-0.018": 0.0,
			"-0.017": 0.00463487794175,
			"-0.016": 0.734645034272,
			"-0.015": 1.33014954224,
			"-0.014": 1.54299645689,
			"-0.013": 1.13681613036,
			"-0.012": 0.817203151845,
			"-0.011": 1.19670360673,
			"-0.01": 2.70987638298,
			"-0.009": 5.89434645613,
			"-0.008": 12.1815361207,
			"-0.007": 14.4477804352,
			"-0.006": 16.8162839392,
			"-0.005": 14.0656655712,
			"-0.004": 15.7639539197,
			"-0.003": 16.3917592017,
			"-0.002": 16.3086010391,
			"-0.001": 15.8724461081,
			"0.0": 17.6034311505,
			"0.001": 21.0528833648,
			"0.002": 41.1149711016,
			"0.003": 23.6662394194,
			"0.004": 4.90672760621,
			"0.005": 4.07758228078,
			"0.006": 3.8953456742,
			"0.007": 3.11561892423,
			"0.008": 3.51370876187,
			"0.009": 4.79218632563,
			"0.01": 6.46801359046,
			"0.011": 12.3758719057,
			"0.012": 12.0560019654,
			"0.013": 1.59551704504,
			"0.014": 0.0,
			"0.015": 0.0,
			"0.016": 0.0,
			"0.017": 0.0,
			"0.018": 0.0,
			"0.019": 0.0,
			"0.02": 0.0,
			"0.021": 0.0,
			"0.022": 0.0,
			"0.023": 0.0,
			"0.024": 0.0,
			"0.025": 0.0
		}
	}
}
