{
	 "smiles": "CC(=O)OC1=CC=CC=C1[N+]([O-])=O", 
	 "Tm": 313.35, 
	 "num_atms": 20, 
	 "gaussian": { 
		 "optdone": 1, 
		 "sigma_profile": "yes", 
		 "theory": "DFT", 
		 "functional": "B3LYP", 
		 "basiset": "6-31G**", 
		 "properties": { 
			 "R2extent": 2378.5153, 
			 "electric_dipole_moment_norm": 4.42286634661, 
			 "electric_quadrupole_moment_norm": 15.745132331, 
			 "total_energy": -664.616948683, 
			 "HOMO_LUMO_gap": 0.17763, 
			 "cosmo_polarized_energy": -11.33, 
			 "cosmo_cavitation_energy": 25.48, 
			 "cosmo_dispersion_energy": -18.26, 
			 "cosmo_repulsion_energy": 1.45, 
			 "cosmo_total_nonelectrostatic_energy": 8.67, 
			 "SMD_solvation_energy": 7.65 
		},
		"coords": [
			{
				"x": 2.4026744187,
				"y": 2.4922841954,
				"z": -0.7775416705,
				"element": "C" 
			},
			{
				"x": 1.2278095424,
				"y": 1.656698555,
				"z": -1.1971011511,
				"element": "C" 
			},
			{
				"x": 0.8940764434,
				"y": 1.3738094236,
				"z": -2.3164416401,
				"element": "O" 
			},
			{
				"x": 0.5330903328,
				"y": 1.2298386268,
				"z": -0.0745931399,
				"element": "O" 
			},
			{
				"x": -0.471500531,
				"y": 0.3022939491,
				"z": -0.2371686924,
				"element": "C" 
			},
			{
				"x": -1.7594643262,
				"y": 0.706377412,
				"z": 0.1144604021,
				"element": "C" 
			},
			{
				"x": -2.8318091948,
				"y": -0.1785416992,
				"z": 0.0344062126,
				"element": "C" 
			},
			{
				"x": -2.6309045911,
				"y": -1.4849519586,
				"z": -0.4171693301,
				"element": "C" 
			},
			{
				"x": -1.3533045521,
				"y": -1.8997454247,
				"z": -0.7744617278,
				"element": "C" 
			},
			{
				"x": -0.2728048444,
				"y": -1.0189107204,
				"z": -0.6784168768,
				"element": "C" 
			},
			{
				"x": 1.0543391423,
				"y": -1.5558809716,
				"z": -1.0177752146,
				"element": "N" 
			},
			{
				"x": 2.0508174405,
				"y": -0.9166548028,
				"z": -0.6804135281,
				"element": "O" 
			},
			{
				"x": 1.0925006904,
				"y": -2.6395712059,
				"z": -1.5975916964,
				"element": "O" 
			},
			{
				"x": 2.8072577637,
				"y": 3.0118236275,
				"z": -1.6454745418,
				"element": "H" 
			},
			{
				"x": 2.1181216957,
				"y": 3.2037966745,
				"z": 0.001223696,
				"element": "H" 
			},
			{
				"x": 3.1644442514,
				"y": 1.825587508,
				"z": -0.3610122824,
				"element": "H" 
			},
			{
				"x": -1.8947510326,
				"y": 1.7291058049,
				"z": 0.4490473414,
				"element": "H" 
			},
			{
				"x": -3.8250125536,
				"y": 0.1565899238,
				"z": 0.316950084,
				"element": "H" 
			},
			{
				"x": -3.4623233387,
				"y": -2.1782103089,
				"z": -0.4880176922,
				"element": "H" 
			},
			{
				"x": -1.1594567566,
				"y": -2.9045386086,
				"z": -1.127608552,
				"element": "H" 
			}
		],
		 "valence_orbital": [ 
			{
				"type": "occ",
				"energy": -0.30678,
				"method": "rhf"
			},
			{
				"type": "occ",
				"energy": -0.29484,
				"method": "rhf"
			},
			{
				"type": "occ",
				"energy": -0.28954,
				"method": "rhf"
			},
			{
				"type": "occ",
				"energy": -0.28216,
				"method": "rhf"
			},
			{
				"type": "occ",
				"energy": -0.26919,
				"method": "rhf"
			},
			{
				"type": "unocc",
				"energy": -0.09156,
				"method": "rhf"
			},
			{
				"type": "unocc",
				"energy": -0.03018,
				"method": "rhf"
			},
			{
				"type": "unocc",
				"energy": -0.00559,
				"method": "rhf"
			},
			{
				"type": "unocc",
				"energy": 0.00319,
				"method": "rhf"
			},
			{
				"type": "unocc",
				"energy": 0.06704,
				"method": "rhf"
			}
		],
		"cosmo_sigma_profile": { 
			"-0.025": 0.0,
			"-0.024": 0.0,
			"-0.023": 0.0,
			"-0.022": 0.0,
			"-0.021": 0.0,
			"-0.02": 0.0,
			"-0.019": 0.0,
			"-0.018": 0.0,
			"-0.017": 0.0,
			"-0.016": 0.0,
			"-0.015": 0.0,
			"-0.014": 0.0,
			"-0.013": 0.0,
			"-0.012": 0.0,
			"-0.011": 0.0,
			"-0.01": 0.0,
			"-0.009": 0.0489939580179,
			"-0.008": 4.48979273586,
			"-0.007": 11.8732753004,
			"-0.006": 14.4298938902,
			"-0.005": 13.7329014797,
			"-0.004": 14.3135296193,
			"-0.003": 16.7796634376,
			"-0.002": 15.2953905336,
			"-0.001": 12.9200006456,
			"0.0": 15.2204861135,
			"0.001": 15.8813178967,
			"0.002": 12.8368105921,
			"0.003": 5.81983183488,
			"0.004": 6.10294061152,
			"0.005": 6.02494719431,
			"0.006": 7.48715291179,
			"0.007": 9.58360151671,
			"0.008": 6.27811874244,
			"0.009": 6.04431207396,
			"0.01": 5.35772617093,
			"0.011": 3.05212452954,
			"0.012": 0.630295087467,
			"0.013": 0.0,
			"0.014": 0.0,
			"0.015": 0.0,
			"0.016": 0.0,
			"0.017": 0.0,
			"0.018": 0.0,
			"0.019": 0.0,
			"0.02": 0.0,
			"0.021": 0.0,
			"0.022": 0.0,
			"0.023": 0.0,
			"0.024": 0.0,
			"0.025": 0.0
		}
	}
}
