{
	 "smiles": "OCC(O)C(OC1OC(CO)C(O)C(O)C1O)C(O)C(O)C(O)=O", 
	 "Tm": 389.15, 
	 "num_atms": 46, 
	 "gaussian": { 
		 "optdone": 1, 
		 "sigma_profile": "yes", 
		 "theory": "DFT", 
		 "functional": "B3LYP", 
		 "basiset": "6-31G**", 
		 "properties": { 
			 "R2extent": 8034.7677, 
			 "electric_dipole_moment_norm": 7.88038681411, 
			 "electric_quadrupole_moment_norm": 13.2898342687, 
			 "total_energy": -1373.14937932, 
			 "HOMO_LUMO_gap": 0.26545, 
			 "cosmo_polarized_energy": -37.88, 
			 "cosmo_cavitation_energy": 44.49, 
			 "cosmo_dispersion_energy": -30.03, 
			 "cosmo_repulsion_energy": 2.26, 
			 "cosmo_total_nonelectrostatic_energy": 16.72, 
			 "SMD_solvation_energy": 7.56 
		},
		"coords": [
			{
				"x": 0.2490681561,
				"y": -4.5201556578,
				"z": 0.2938633886,
				"element": "O" 
			},
			{
				"x": 1.226553229,
				"y": -3.4803219624,
				"z": 0.3923029755,
				"element": "C" 
			},
			{
				"x": 1.0334790029,
				"y": -2.7258413062,
				"z": 1.7193320561,
				"element": "C" 
			},
			{
				"x": 0.8803131094,
				"y": -3.7038108199,
				"z": 2.751342891,
				"element": "O" 
			},
			{
				"x": -0.17780284,
				"y": -1.7601297591,
				"z": 1.6486050826,
				"element": "C" 
			},
			{
				"x": 0.0807722937,
				"y": -0.7498969177,
				"z": 0.6459823187,
				"element": "O" 
			},
			{
				"x": 1.0391004012,
				"y": 0.2523000824,
				"z": 0.8793241016,
				"element": "C" 
			},
			{
				"x": 0.4258936804,
				"y": 1.5089189804,
				"z": 1.1641802196,
				"element": "O" 
			},
			{
				"x": -0.1113366025,
				"y": 2.2951385623,
				"z": 0.0434419364,
				"element": "C" 
			},
			{
				"x": 0.7083527654,
				"y": 3.580394831,
				"z": -0.061133025,
				"element": "C" 
			},
			{
				"x": 0.7103507788,
				"y": 4.2891266802,
				"z": 1.1641262163,
				"element": "O" 
			},
			{
				"x": -0.207742747,
				"y": 1.4617443592,
				"z": -1.2507384464,
				"element": "C" 
			},
			{
				"x": -0.6611439167,
				"y": 2.262501101,
				"z": -2.3197869253,
				"element": "O" 
			},
			{
				"x": 1.1202451726,
				"y": 0.7482301513,
				"z": -1.6050060807,
				"element": "C" 
			},
			{
				"x": 1.8603522865,
				"y": 1.6194594083,
				"z": -2.4649944387,
				"element": "O" 
			},
			{
				"x": 1.9403982339,
				"y": 0.4100355827,
				"z": -0.3530381156,
				"element": "C" 
			},
			{
				"x": 2.7072437466,
				"y": -0.7546129259,
				"z": -0.6351489576,
				"element": "O" 
			},
			{
				"x": -0.651058447,
				"y": -1.1797223554,
				"z": 3.0054095466,
				"element": "C" 
			},
			{
				"x": -1.0515873061,
				"y": -2.2261048458,
				"z": 3.8644462266,
				"element": "O" 
			},
			{
				"x": -1.867845606,
				"y": -0.2134508029,
				"z": 2.9223683514,
				"element": "C" 
			},
			{
				"x": -1.5255118864,
				"y": 1.1622424511,
				"z": 3.0648993217,
				"element": "O" 
			},
			{
				"x": -2.8004457048,
				"y": -0.4012988187,
				"z": 1.7062044832,
				"element": "C" 
			},
			{
				"x": -3.3009207985,
				"y": 0.7614050174,
				"z": 1.2518616735,
				"element": "O" 
			},
			{
				"x": -3.102911107,
				"y": -1.4700081962,
				"z": 1.2255564575,
				"element": "O" 
			},
			{
				"x": -0.5756796195,
				"y": -4.1421516249,
				"z": -0.0395165214,
				"element": "H" 
			},
			{
				"x": 1.1996275166,
				"y": -2.794809245,
				"z": -0.4569002765,
				"element": "H" 
			},
			{
				"x": 2.1964991347,
				"y": -3.985909782,
				"z": 0.405319471,
				"element": "H" 
			},
			{
				"x": 1.9443912656,
				"y": -2.1627675465,
				"z": 1.9559623554,
				"element": "H" 
			},
			{
				"x": 0.4140366399,
				"y": -4.4413638047,
				"z": 2.3142276493,
				"element": "H" 
			},
			{
				"x": -1.0376116301,
				"y": -2.3032164346,
				"z": 1.2510416116,
				"element": "H" 
			},
			{
				"x": 1.6396529434,
				"y": 0.0314361648,
				"z": 1.7688813271,
				"element": "H" 
			},
			{
				"x": -1.1262347791,
				"y": 2.5675655822,
				"z": 0.3480749256,
				"element": "H" 
			},
			{
				"x": 1.729856813,
				"y": 3.36163325,
				"z": -0.4085430775,
				"element": "H" 
			},
			{
				"x": 0.2383029071,
				"y": 4.2267555002,
				"z": -0.8063793989,
				"element": "H" 
			},
			{
				"x": 1.0290437046,
				"y": 3.6738834942,
				"z": 1.8388102397,
				"element": "H" 
			},
			{
				"x": -0.9549610498,
				"y": 0.6842592902,
				"z": -1.0715447505,
				"element": "H" 
			},
			{
				"x": 0.1321103102,
				"y": 2.5047445694,
				"z": -2.8248582801,
				"element": "H" 
			},
			{
				"x": 0.887561336,
				"y": -0.1869909974,
				"z": -2.1265110874,
				"element": "H" 
			},
			{
				"x": 2.4990409126,
				"y": 1.089603975,
				"z": -2.9576069181,
				"element": "H" 
			},
			{
				"x": 2.5988841229,
				"y": 1.2650282773,
				"z": -0.1547818197,
				"element": "H" 
			},
			{
				"x": 3.4680067901,
				"y": -0.7807478859,
				"z": -0.0405873251,
				"element": "H" 
			},
			{
				"x": 0.1622258142,
				"y": -0.587752909,
				"z": 3.4637065428,
				"element": "H" 
			},
			{
				"x": -0.3666711268,
				"y": -2.9175433077,
				"z": 3.800189626,
				"element": "H" 
			},
			{
				"x": -2.4683213944,
				"y": -0.4695331633,
				"z": 3.8020174939,
				"element": "H" 
			},
			{
				"x": -0.7792105961,
				"y": 1.3518744007,
				"z": 2.4587371324,
				"element": "H" 
			},
			{
				"x": -2.9169659096,
				"y": 1.4498593577,
				"z": 1.8359598229,
				"element": "H" 
			}
		],
		 "valence_orbital": [ 
			{
				"type": "occ",
				"energy": -0.28328,
				"method": "rhf"
			},
			{
				"type": "occ",
				"energy": -0.27903,
				"method": "rhf"
			},
			{
				"type": "occ",
				"energy": -0.2699,
				"method": "rhf"
			},
			{
				"type": "occ",
				"energy": -0.26029,
				"method": "rhf"
			},
			{
				"type": "occ",
				"energy": -0.25124,
				"method": "rhf"
			},
			{
				"type": "unocc",
				"energy": 0.01421,
				"method": "rhf"
			},
			{
				"type": "unocc",
				"energy": 0.02414,
				"method": "rhf"
			},
			{
				"type": "unocc",
				"energy": 0.03344,
				"method": "rhf"
			},
			{
				"type": "unocc",
				"energy": 0.04494,
				"method": "rhf"
			},
			{
				"type": "unocc",
				"energy": 0.04891,
				"method": "rhf"
			}
		],
		"cosmo_sigma_profile": { 
			"-0.025": 0.0,
			"-0.024": 0.0,
			"-0.023": 0.0,
			"-0.022": 0.0,
			"-0.021": 0.0,
			"-0.02": 0.0,
			"-0.019": 0.0,
			"-0.018": 0.0,
			"-0.017": 0.87940419686,
			"-0.016": 2.85055893587,
			"-0.015": 2.92451269645,
			"-0.014": 3.32139349008,
			"-0.013": 2.9150019155,
			"-0.012": 4.96916794566,
			"-0.011": 4.04446590965,
			"-0.01": 7.71535811468,
			"-0.009": 10.2656808981,
			"-0.008": 13.3461234743,
			"-0.007": 13.8003186341,
			"-0.006": 16.0870121038,
			"-0.005": 18.8206170281,
			"-0.004": 20.5391945652,
			"-0.003": 17.5386874545,
			"-0.002": 19.3505860974,
			"-0.001": 19.2915000071,
			"0.0": 17.3517744226,
			"0.001": 12.3632943932,
			"0.002": 12.743063153,
			"0.003": 11.7206473418,
			"0.004": 11.512950184,
			"0.005": 11.1914666282,
			"0.006": 9.838197634,
			"0.007": 9.25954079902,
			"0.008": 10.6271694584,
			"0.009": 10.1951420507,
			"0.01": 11.2927880663,
			"0.011": 12.4647836727,
			"0.012": 11.6014669072,
			"0.013": 9.23028001106,
			"0.014": 3.99755254935,
			"0.015": 0.258033592002,
			"0.016": 0.0,
			"0.017": 0.0,
			"0.018": 0.0,
			"0.019": 0.0,
			"0.02": 0.0,
			"0.021": 0.0,
			"0.022": 0.0,
			"0.023": 0.0,
			"0.024": 0.0,
			"0.025": 0.0
		}
	}
}
