{
	 "smiles": "CC(=O)C1=CC(Br)=CC(=C1O)[N+]([O-])=O", 
	 "Tm": 404.15, 
	 "num_atms": 20, 
	 "gaussian": { 
		 "optdone": 1, 
		 "sigma_profile": "yes", 
		 "theory": "DFT", 
		 "functional": "B3LYP", 
		 "basiset": "6-31G**", 
		 "properties": { 
			 "R2extent": 4882.3755, 
			 "electric_dipole_moment_norm": 6.00887463757, 
			 "electric_quadrupole_moment_norm": 10.1943909524, 
			 "total_energy": -3235.41679102, 
			 "HOMO_LUMO_gap": 0.14859, 
			 "cosmo_polarized_energy": -13.88, 
			 "cosmo_cavitation_energy": 27.67, 
			 "cosmo_dispersion_energy": -20.81, 
			 "cosmo_repulsion_energy": 1.63, 
			 "cosmo_total_nonelectrostatic_energy": 8.49, 
			 "SMD_solvation_energy": 6.79 
		},
		"coords": [
			{
				"x": -1.5676375532,
				"y": -2.1261570945,
				"z": -0.2742087867,
				"element": "C" 
			},
			{
				"x": -0.7435925203,
				"y": -1.1221888078,
				"z": -1.0486229323,
				"element": "C" 
			},
			{
				"x": -0.6563445463,
				"y": -1.2362406337,
				"z": -2.2797839434,
				"element": "O" 
			},
			{
				"x": -0.0508774859,
				"y": -0.0210748372,
				"z": -0.3461188467,
				"element": "C" 
			},
			{
				"x": -0.1222196363,
				"y": 0.1059975049,
				"z": 1.0495759138,
				"element": "C" 
			},
			{
				"x": 0.5473905127,
				"y": 1.1288020087,
				"z": 1.7053971612,
				"element": "C" 
			},
			{
				"x": 0.4406329295,
				"y": 1.2782492682,
				"z": 3.6019122369,
				"element": "Br" 
			},
			{
				"x": 1.2999745558,
				"y": 2.0475513459,
				"z": 0.9794003961,
				"element": "C" 
			},
			{
				"x": 1.3664335609,
				"y": 1.9545134361,
				"z": -0.406353079,
				"element": "C" 
			},
			{
				"x": 0.7052934948,
				"y": 0.9204508718,
				"z": -1.1158585694,
				"element": "C" 
			},
			{
				"x": 0.8094528747,
				"y": 0.8133264518,
				"z": -2.4286317773,
				"element": "O" 
			},
			{
				"x": 2.1591163809,
				"y": 2.9851359175,
				"z": -1.0955528793,
				"element": "N" 
			},
			{
				"x": 3.0110184419,
				"y": 3.5710314379,
				"z": -0.4229471697,
				"element": "O" 
			},
			{
				"x": 1.9136226221,
				"y": 3.2130366485,
				"z": -2.2740993037,
				"element": "O" 
			},
			{
				"x": -2.3760415658,
				"y": -1.6327255573,
				"z": 0.2753672091,
				"element": "H" 
			},
			{
				"x": -0.9509158445,
				"y": -2.6627096962,
				"z": 0.4544605013,
				"element": "H" 
			},
			{
				"x": -1.9933519192,
				"y": -2.8391213628,
				"z": -0.9801951677,
				"element": "H" 
			},
			{
				"x": -0.7017625611,
				"y": -0.6031143402,
				"z": 1.6276246101,
				"element": "H" 
			},
			{
				"x": 1.8453611472,
				"y": 2.845452788,
				"z": 1.4665629636,
				"element": "H" 
			},
			{
				"x": 0.2820471123,
				"y": 0.0027846505,
				"z": -2.6852285367,
				"element": "H" 
			}
		],
		 "valence_orbital": [ 
			{
				"type": "occ",
				"energy": -0.31011,
				"method": "rhf"
			},
			{
				"type": "occ",
				"energy": -0.30728,
				"method": "rhf"
			},
			{
				"type": "occ",
				"energy": -0.29252,
				"method": "rhf"
			},
			{
				"type": "occ",
				"energy": -0.28556,
				"method": "rhf"
			},
			{
				"type": "occ",
				"energy": -0.25274,
				"method": "rhf"
			},
			{
				"type": "unocc",
				"energy": -0.10415,
				"method": "rhf"
			},
			{
				"type": "unocc",
				"energy": -0.07747,
				"method": "rhf"
			},
			{
				"type": "unocc",
				"energy": -0.02343,
				"method": "rhf"
			},
			{
				"type": "unocc",
				"energy": -0.01642,
				"method": "rhf"
			},
			{
				"type": "unocc",
				"energy": 0.00788,
				"method": "rhf"
			}
		],
		"cosmo_sigma_profile": { 
			"-0.025": 0.0,
			"-0.024": 0.0,
			"-0.023": 0.0,
			"-0.022": 0.0,
			"-0.021": 0.0,
			"-0.02": 0.0,
			"-0.019": 0.0,
			"-0.018": 0.0,
			"-0.017": 0.0,
			"-0.016": 0.0,
			"-0.015": 0.0,
			"-0.014": 0.0,
			"-0.013": 0.0,
			"-0.012": 0.0,
			"-0.011": 0.0,
			"-0.01": 0.218234556589,
			"-0.009": 3.45678337556,
			"-0.008": 6.9565498582,
			"-0.007": 9.86221753174,
			"-0.006": 12.4070380693,
			"-0.005": 14.8167181864,
			"-0.004": 15.1835636511,
			"-0.003": 21.3633209155,
			"-0.002": 19.4946083173,
			"-0.001": 18.3849463243,
			"0.0": 12.4068987685,
			"0.001": 9.98170239743,
			"0.002": 8.95103722664,
			"0.003": 13.1436662488,
			"0.004": 12.6488760695,
			"0.005": 4.55119106598,
			"0.006": 5.78689717465,
			"0.007": 8.60339827835,
			"0.008": 11.2840352924,
			"0.009": 7.01807919457,
			"0.01": 5.26868973839,
			"0.011": 2.5503457711,
			"0.012": 1.21107773553,
			"0.013": 0.184130654079,
			"0.014": 0.0,
			"0.015": 0.0,
			"0.016": 0.0,
			"0.017": 0.0,
			"0.018": 0.0,
			"0.019": 0.0,
			"0.02": 0.0,
			"0.021": 0.0,
			"0.022": 0.0,
			"0.023": 0.0,
			"0.024": 0.0,
			"0.025": 0.0
		}
	}
}
