{
	 "smiles": "NC1=NC2=C3C=CC=CC3=CC=C2S1", 
	 "Tm": 408.15, 
	 "num_atms": 22, 
	 "gaussian": { 
		 "optdone": 1, 
		 "sigma_profile": "yes", 
		 "theory": "DFT", 
		 "functional": "B3LYP", 
		 "basiset": "6-31G**", 
		 "properties": { 
			 "R2extent": 3206.0532, 
			 "electric_dipole_moment_norm": 2.07250972977, 
			 "electric_quadrupole_moment_norm": 18.1910924246, 
			 "total_energy": -931.708897194, 
			 "HOMO_LUMO_gap": 0.16103, 
			 "cosmo_polarized_energy": -11.6, 
			 "cosmo_cavitation_energy": 27.45, 
			 "cosmo_dispersion_energy": -21.32, 
			 "cosmo_repulsion_energy": 1.6, 
			 "cosmo_total_nonelectrostatic_energy": 7.73, 
			 "SMD_solvation_energy": 2.48 
		},
		"coords": [
			{
				"x": -3.2635137467,
				"y": -0.6350256969,
				"z": -2.5277205128,
				"element": "N" 
			},
			{
				"x": -2.0369670254,
				"y": -0.4495864572,
				"z": -1.9412505369,
				"element": "C" 
			},
			{
				"x": -1.7381947602,
				"y": -0.842056349,
				"z": -0.741294596,
				"element": "N" 
			},
			{
				"x": -0.4087835839,
				"y": -0.5816560542,
				"z": -0.456547415,
				"element": "C" 
			},
			{
				"x": 0.2221990255,
				"y": -0.8952558134,
				"z": 0.78548626,
				"element": "C" 
			},
			{
				"x": -0.4694978313,
				"y": -1.5258330749,
				"z": 1.8492824797,
				"element": "C" 
			},
			{
				"x": 0.1794613534,
				"y": -1.8104677775,
				"z": 3.0316868008,
				"element": "C" 
			},
			{
				"x": 1.5444871656,
				"y": -1.4759226444,
				"z": 3.1971416402,
				"element": "C" 
			},
			{
				"x": 2.2381488238,
				"y": -0.8621052193,
				"z": 2.17685477,
				"element": "C" 
			},
			{
				"x": 1.6045605911,
				"y": -0.5526988083,
				"z": 0.943942778,
				"element": "C" 
			},
			{
				"x": 2.3070368783,
				"y": 0.0826626829,
				"z": -0.1225456303,
				"element": "C" 
			},
			{
				"x": 1.6884722427,
				"y": 0.3801974514,
				"z": -1.3158800509,
				"element": "C" 
			},
			{
				"x": 0.3281460769,
				"y": 0.0399209707,
				"z": -1.4703869466,
				"element": "C" 
			},
			{
				"x": -0.7076898507,
				"y": 0.2915814555,
				"z": -2.8717457858,
				"element": "S" 
			},
			{
				"x": -3.5471502877,
				"y": 0.0274019735,
				"z": -3.2346811569,
				"element": "H" 
			},
			{
				"x": -3.9902090707,
				"y": -0.8865411311,
				"z": -1.8707295845,
				"element": "H" 
			},
			{
				"x": -1.5152925197,
				"y": -1.7760836716,
				"z": 1.7062593665,
				"element": "H" 
			},
			{
				"x": -0.3574002524,
				"y": -2.2944715306,
				"z": 3.8426048295,
				"element": "H" 
			},
			{
				"x": 2.0452567706,
				"y": -1.705301897,
				"z": 4.1334514981,
				"element": "H" 
			},
			{
				"x": 3.2868452945,
				"y": -0.604857878,
				"z": 2.3030650384,
				"element": "H" 
			},
			{
				"x": 3.3545093759,
				"y": 0.3330136147,
				"z": 0.0203824476,
				"element": "H" 
			},
			{
				"x": 2.2350753305,
				"y": 0.8633858544,
				"z": -2.1193756929,
				"element": "H" 
			}
		],
		 "valence_orbital": [ 
			{
				"type": "occ",
				"energy": -0.28347,
				"method": "rhf"
			},
			{
				"type": "occ",
				"energy": -0.27531,
				"method": "rhf"
			},
			{
				"type": "occ",
				"energy": -0.25019,
				"method": "rhf"
			},
			{
				"type": "occ",
				"energy": -0.22738,
				"method": "rhf"
			},
			{
				"type": "occ",
				"energy": -0.19485,
				"method": "rhf"
			},
			{
				"type": "unocc",
				"energy": -0.03382,
				"method": "rhf"
			},
			{
				"type": "unocc",
				"energy": -0.0046,
				"method": "rhf"
			},
			{
				"type": "unocc",
				"energy": 0.00261,
				"method": "rhf"
			},
			{
				"type": "unocc",
				"energy": 0.01148,
				"method": "rhf"
			},
			{
				"type": "unocc",
				"energy": 0.06024,
				"method": "rhf"
			}
		],
		"cosmo_sigma_profile": { 
			"-0.025": 0.0,
			"-0.024": 0.0,
			"-0.023": 0.0,
			"-0.022": 0.0,
			"-0.021": 0.0,
			"-0.02": 0.0,
			"-0.019": 0.0,
			"-0.018": 0.0,
			"-0.017": 0.0,
			"-0.016": 0.0221359957509,
			"-0.015": 0.913222714935,
			"-0.014": 2.51785583614,
			"-0.013": 2.67055769814,
			"-0.012": 2.15690180672,
			"-0.011": 2.87429063728,
			"-0.01": 2.3226608521,
			"-0.009": 1.64476805254,
			"-0.008": 1.99714947951,
			"-0.007": 3.53468903636,
			"-0.006": 9.63110191399,
			"-0.005": 13.0294553299,
			"-0.004": 14.1525462696,
			"-0.003": 13.0844144094,
			"-0.002": 10.1431971032,
			"-0.001": 11.2245298067,
			"0.0": 11.6786471907,
			"0.001": 14.2140351587,
			"0.002": 16.1057647966,
			"0.003": 24.6218445517,
			"0.004": 27.4282359317,
			"0.005": 20.0818104502,
			"0.006": 5.87905055325,
			"0.007": 2.2956972429,
			"0.008": 1.90628270511,
			"0.009": 2.35241347513,
			"0.01": 1.65056857394,
			"0.011": 1.38068649381,
			"0.012": 1.32317271552,
			"0.013": 0.0613575435091,
			"0.014": 0.0,
			"0.015": 0.0,
			"0.016": 0.0,
			"0.017": 0.0,
			"0.018": 0.0,
			"0.019": 0.0,
			"0.02": 0.0,
			"0.021": 0.0,
			"0.022": 0.0,
			"0.023": 0.0,
			"0.024": 0.0,
			"0.025": 0.0
		}
	}
}
