{
	 "smiles": "C(P(C1CCCCC1)C1CCCCC1)P(C1CCCCC1)C1CCCCC1", 
	 "Tm": 372.15, 
	 "num_atms": 73, 
	 "gaussian": { 
		 "optdone": 1, 
		 "sigma_profile": "yes", 
		 "theory": "DFT", 
		 "functional": "B3LYP", 
		 "basiset": "6-31G**", 
		 "properties": { 
			 "R2extent": 13875.444, 
			 "electric_dipole_moment_norm": 1.81329067995, 
			 "electric_quadrupole_moment_norm": 6.41435585932, 
			 "total_energy": -1663.10902368, 
			 "HOMO_LUMO_gap": 0.24246, 
			 "cosmo_polarized_energy": -6.73, 
			 "cosmo_cavitation_energy": 64.6, 
			 "cosmo_dispersion_energy": -42.29, 
			 "cosmo_repulsion_energy": 3.32, 
			 "cosmo_total_nonelectrostatic_energy": 25.63, 
			 "SMD_solvation_energy": 6.92 
		},
		"coords": [
			{
				"x": -1.3704693865,
				"y": -0.5877196225,
				"z": -0.450192676,
				"element": "C" 
			},
			{
				"x": 0.4958412981,
				"y": -0.6476489922,
				"z": -0.7664342216,
				"element": "P" 
			},
			{
				"x": 0.4685363947,
				"y": -1.619056038,
				"z": -2.3938908491,
				"element": "C" 
			},
			{
				"x": 0.3332202067,
				"y": -3.1391475827,
				"z": -2.0962521898,
				"element": "C" 
			},
			{
				"x": -0.1371501274,
				"y": -3.9443603697,
				"z": -3.3325017551,
				"element": "C" 
			},
			{
				"x": 0.3699771094,
				"y": -3.3103589608,
				"z": -4.6337551029,
				"element": "C" 
			},
			{
				"x": -0.2234329331,
				"y": -1.8934108388,
				"z": -4.8264704712,
				"element": "C" 
			},
			{
				"x": -0.5410986711,
				"y": -1.1987890466,
				"z": -3.4780295098,
				"element": "C" 
			},
			{
				"x": 0.9186834087,
				"y": 1.108660615,
				"z": -1.3401540717,
				"element": "C" 
			},
			{
				"x": 1.3583489718,
				"y": 1.9819716599,
				"z": -0.1463099857,
				"element": "C" 
			},
			{
				"x": 1.4704731803,
				"y": 3.4700290196,
				"z": -0.5539810353,
				"element": "C" 
			},
			{
				"x": 1.935339927,
				"y": 3.6372449261,
				"z": -2.0197729019,
				"element": "C" 
			},
			{
				"x": 2.8305313355,
				"y": 2.4643412241,
				"z": -2.4367482252,
				"element": "C" 
			},
			{
				"x": 2.0609216132,
				"y": 1.1180857894,
				"z": -2.3932862029,
				"element": "C" 
			},
			{
				"x": -2.1928116584,
				"y": -0.0382863842,
				"z": 1.1628796117,
				"element": "P" 
			},
			{
				"x": -0.843681267,
				"y": -0.3605235968,
				"z": 2.4485031794,
				"element": "C" 
			},
			{
				"x": -0.5493489518,
				"y": -1.8765010072,
				"z": 2.4916053868,
				"element": "C" 
			},
			{
				"x": 0.6744624648,
				"y": -2.1843930576,
				"z": 3.384521194,
				"element": "C" 
			},
			{
				"x": 0.7648294241,
				"y": -1.2413320672,
				"z": 4.6079086734,
				"element": "C" 
			},
			{
				"x": -0.6282442467,
				"y": -0.7383755436,
				"z": 5.0011894924,
				"element": "C" 
			},
			{
				"x": -1.2505445711,
				"y": 0.1187779989,
				"z": 3.8726747786,
				"element": "C" 
			},
			{
				"x": -2.2741318612,
				"y": 1.8364374541,
				"z": 0.8664868284,
				"element": "C" 
			},
			{
				"x": -2.5226422001,
				"y": 2.6516987503,
				"z": 2.1608541708,
				"element": "C" 
			},
			{
				"x": -3.1691525187,
				"y": 4.0103875884,
				"z": 1.850399683,
				"element": "C" 
			},
			{
				"x": -4.589992144,
				"y": 3.8324497479,
				"z": 1.2661780667,
				"element": "C" 
			},
			{
				"x": -4.7232694777,
				"y": 2.5048007117,
				"z": 0.4871888655,
				"element": "C" 
			},
			{
				"x": -3.3983042649,
				"y": 2.1169325974,
				"z": -0.1821197346,
				"element": "C" 
			},
			{
				"x": -1.6944280105,
				"y": -1.6257182541,
				"z": -0.5865662368,
				"element": "H" 
			},
			{
				"x": -1.8680973275,
				"y": -0.0242390537,
				"z": -1.2473704139,
				"element": "H" 
			},
			{
				"x": 1.4735803977,
				"y": -1.4576750511,
				"z": -2.8027118364,
				"element": "H" 
			},
			{
				"x": -0.3697891759,
				"y": -3.31489664,
				"z": -1.2720389509,
				"element": "H" 
			},
			{
				"x": 1.3020206489,
				"y": -3.514994575,
				"z": -1.748137241,
				"element": "H" 
			},
			{
				"x": -1.234111254,
				"y": -3.9805275217,
				"z": -3.3589886123,
				"element": "H" 
			},
			{
				"x": 0.1987002971,
				"y": -4.9841010064,
				"z": -3.2482158081,
				"element": "H" 
			},
			{
				"x": 1.4658972152,
				"y": -3.2555665445,
				"z": -4.5970730981,
				"element": "H" 
			},
			{
				"x": 0.1265778971,
				"y": -3.9428177309,
				"z": -5.4947991503,
				"element": "H" 
			},
			{
				"x": -1.1416680513,
				"y": -1.9503508689,
				"z": -5.4237225467,
				"element": "H" 
			},
			{
				"x": 0.4791907313,
				"y": -1.2795430734,
				"z": -5.403013082,
				"element": "H" 
			},
			{
				"x": -0.5506975743,
				"y": -0.1118548861,
				"z": -3.6160924956,
				"element": "H" 
			},
			{
				"x": -1.5520663464,
				"y": -1.4726369693,
				"z": -3.1542767943,
				"element": "H" 
			},
			{
				"x": 0.0214262863,
				"y": 1.5567032692,
				"z": -1.7893190459,
				"element": "H" 
			},
			{
				"x": 2.3291762174,
				"y": 1.6117185228,
				"z": 0.2065637356,
				"element": "H" 
			},
			{
				"x": 0.6794538488,
				"y": 1.8815309445,
				"z": 0.7054110256,
				"element": "H" 
			},
			{
				"x": 2.1720614203,
				"y": 3.9740255331,
				"z": 0.1218652926,
				"element": "H" 
			},
			{
				"x": 0.502019897,
				"y": 3.9671162521,
				"z": -0.4173020056,
				"element": "H" 
			},
			{
				"x": 2.4598352716,
				"y": 4.5908441705,
				"z": -2.146974479,
				"element": "H" 
			},
			{
				"x": 1.0648996678,
				"y": 3.6766899868,
				"z": -2.6874832427,
				"element": "H" 
			},
			{
				"x": 3.6939538552,
				"y": 2.4211947288,
				"z": -1.7606148033,
				"element": "H" 
			},
			{
				"x": 3.2395277604,
				"y": 2.6232102822,
				"z": -3.4409294179,
				"element": "H" 
			},
			{
				"x": 2.7767235446,
				"y": 0.3142849245,
				"z": -2.1771402516,
				"element": "H" 
			},
			{
				"x": 1.6426227025,
				"y": 0.9015536893,
				"z": -3.3821522543,
				"element": "H" 
			},
			{
				"x": 0.0793763928,
				"y": 0.1502464921,
				"z": 2.1459323165,
				"element": "H" 
			},
			{
				"x": -1.4392070743,
				"y": -2.3933702281,
				"z": 2.873450302,
				"element": "H" 
			},
			{
				"x": -0.3636479942,
				"y": -2.2742512801,
				"z": 1.4903882628,
				"element": "H" 
			},
			{
				"x": 1.5887840912,
				"y": -2.1023928871,
				"z": 2.7856755872,
				"element": "H" 
			},
			{
				"x": 0.6147773598,
				"y": -3.2275003939,
				"z": 3.7188517798,
				"element": "H" 
			},
			{
				"x": 1.2483137981,
				"y": -1.7512174431,
				"z": 5.4489064644,
				"element": "H" 
			},
			{
				"x": 1.3989698845,
				"y": -0.3771719858,
				"z": 4.3696391302,
				"element": "H" 
			},
			{
				"x": -0.5872078466,
				"y": -0.1514782168,
				"z": 5.9260759439,
				"element": "H" 
			},
			{
				"x": -1.2721780999,
				"y": -1.6009383186,
				"z": 5.2161945843,
				"element": "H" 
			},
			{
				"x": -2.3424661826,
				"y": 0.1068583506,
				"z": 3.9793251102,
				"element": "H" 
			},
			{
				"x": -0.9391746917,
				"y": 1.1596655158,
				"z": 4.0040405942,
				"element": "H" 
			},
			{
				"x": -1.3249248118,
				"y": 2.1725434629,
				"z": 0.4382167845,
				"element": "H" 
			},
			{
				"x": -1.5769899411,
				"y": 2.7975549346,
				"z": 2.6917717781,
				"element": "H" 
			},
			{
				"x": -3.1784016253,
				"y": 2.0990240976,
				"z": 2.8458960822,
				"element": "H" 
			},
			{
				"x": -3.203014077,
				"y": 4.6303955422,
				"z": 2.7535008907,
				"element": "H" 
			},
			{
				"x": -2.5333902078,
				"y": 4.5493812129,
				"z": 1.1355635409,
				"element": "H" 
			},
			{
				"x": -4.8233717847,
				"y": 4.6786836195,
				"z": 0.6086733986,
				"element": "H" 
			},
			{
				"x": -5.332329719,
				"y": 3.856998799,
				"z": 2.0729117959,
				"element": "H" 
			},
			{
				"x": -5.5196392327,
				"y": 2.5816611943,
				"z": -0.2616553092,
				"element": "H" 
			},
			{
				"x": -5.0198076745,
				"y": 1.696364105,
				"z": 1.1665278516,
				"element": "H" 
			},
			{
				"x": -3.077630888,
				"y": 2.932991853,
				"z": -0.8435085695,
				"element": "H" 
			},
			{
				"x": -3.556840649,
				"y": 1.2502864704,
				"z": -0.8338876042,
				"element": "H" 
			}
		],
		 "valence_orbital": [ 
			{
				"type": "occ",
				"energy": -0.28578,
				"method": "rhf"
			},
			{
				"type": "occ",
				"energy": -0.26931,
				"method": "rhf"
			},
			{
				"type": "occ",
				"energy": -0.26477,
				"method": "rhf"
			},
			{
				"type": "occ",
				"energy": -0.213,
				"method": "rhf"
			},
			{
				"type": "occ",
				"energy": -0.20219,
				"method": "rhf"
			},
			{
				"type": "unocc",
				"energy": 0.04027,
				"method": "rhf"
			},
			{
				"type": "unocc",
				"energy": 0.05136,
				"method": "rhf"
			},
			{
				"type": "unocc",
				"energy": 0.05614,
				"method": "rhf"
			},
			{
				"type": "unocc",
				"energy": 0.05861,
				"method": "rhf"
			},
			{
				"type": "unocc",
				"energy": 0.06358,
				"method": "rhf"
			}
		],
		"cosmo_sigma_profile": { 
			"-0.025": 0.0,
			"-0.024": 0.0,
			"-0.023": 0.0,
			"-0.022": 0.0,
			"-0.021": 0.0,
			"-0.02": 0.0,
			"-0.019": 0.0,
			"-0.018": 0.0,
			"-0.017": 0.0,
			"-0.016": 0.0,
			"-0.015": 0.0,
			"-0.014": 0.0,
			"-0.013": 0.0,
			"-0.012": 0.0,
			"-0.011": 0.0,
			"-0.01": 0.0,
			"-0.009": 0.0,
			"-0.008": 0.100460045381,
			"-0.007": 0.582484845513,
			"-0.006": 0.558023198665,
			"-0.005": 0.519687401053,
			"-0.004": 4.37769363034,
			"-0.003": 17.3381698071,
			"-0.002": 90.4033059305,
			"-0.001": 121.48330685,
			"0.0": 103.517688892,
			"0.001": 84.2946891943,
			"0.002": 37.2084021541,
			"0.003": 5.09999106327,
			"0.004": 4.06443430077,
			"0.005": 3.63525307091,
			"0.006": 2.11205300427,
			"0.007": 1.84195004002,
			"0.008": 2.61252055401,
			"0.009": 1.98335921227,
			"0.01": 1.15243168721,
			"0.011": 1.82192723121,
			"0.012": 1.1128922599,
			"0.013": 0.907118959727,
			"0.014": 1.22689259143,
			"0.015": 1.30138188052,
			"0.016": 0.416814576996,
			"0.017": 0.523948157498,
			"0.018": 0.15200790425,
			"0.019": 0.0,
			"0.02": 0.0,
			"0.021": 0.0,
			"0.022": 0.0,
			"0.023": 0.0,
			"0.024": 0.0,
			"0.025": 0.0
		}
	}
}
