{
	 "smiles": "OC(=O)CNC1CCCC1", 
	 "Tm": 484.15, 
	 "num_atms": 23, 
	 "gaussian": { 
		 "optdone": 1, 
		 "sigma_profile": "yes", 
		 "theory": "DFT", 
		 "functional": "B3LYP", 
		 "basiset": "6-31G**", 
		 "properties": { 
			 "R2extent": 1828.5502, 
			 "electric_dipole_moment_norm": 1.77548515342, 
			 "electric_quadrupole_moment_norm": 10.5969169115, 
			 "total_energy": -479.786316055, 
			 "HOMO_LUMO_gap": 0.23689, 
			 "cosmo_polarized_energy": -11.4, 
			 "cosmo_cavitation_energy": 24.85, 
			 "cosmo_dispersion_energy": -18.18, 
			 "cosmo_repulsion_energy": 1.51, 
			 "cosmo_total_nonelectrostatic_energy": 8.18, 
			 "SMD_solvation_energy": 3.3 
		},
		"coords": [
			{
				"x": 1.4875623666,
				"y": -0.6199395455,
				"z": -1.9048277454,
				"element": "O" 
			},
			{
				"x": 1.6188410509,
				"y": -1.3202681979,
				"z": -0.7577106839,
				"element": "C" 
			},
			{
				"x": 1.7300912601,
				"y": -2.5275773251,
				"z": -0.7358401023,
				"element": "O" 
			},
			{
				"x": 1.6807348264,
				"y": -0.4371771664,
				"z": 0.4836704373,
				"element": "C" 
			},
			{
				"x": 0.7812062942,
				"y": 0.7052966076,
				"z": 0.4659950163,
				"element": "N" 
			},
			{
				"x": -0.5857447026,
				"y": 0.4202115346,
				"z": 0.9023634315,
				"element": "C" 
			},
			{
				"x": -1.4094056674,
				"y": 1.7096892687,
				"z": 1.0667722753,
				"element": "C" 
			},
			{
				"x": -2.892746516,
				"y": 1.267595421,
				"z": 0.9686075225,
				"element": "C" 
			},
			{
				"x": -2.8672317416,
				"y": -0.1686367761,
				"z": 0.3653795703,
				"element": "C" 
			},
			{
				"x": -1.418610913,
				"y": -0.3841774341,
				"z": -0.1115795313,
				"element": "C" 
			},
			{
				"x": 1.4948644197,
				"y": -1.2830862639,
				"z": -2.6158714427,
				"element": "H" 
			},
			{
				"x": 2.7128757653,
				"y": -0.0669872876,
				"z": 0.5293545037,
				"element": "H" 
			},
			{
				"x": 1.5407042121,
				"y": -1.116178899,
				"z": 1.3403100327,
				"element": "H" 
			},
			{
				"x": 1.1701976554,
				"y": 1.440691467,
				"z": 1.0476102656,
				"element": "H" 
			},
			{
				"x": -0.5927451373,
				"y": -0.1349624178,
				"z": 1.8624947052,
				"element": "H" 
			},
			{
				"x": -1.1827678187,
				"y": 2.2391439222,
				"z": 1.9988628362,
				"element": "H" 
			},
			{
				"x": -1.1487949952,
				"y": 2.37858394,
				"z": 0.2380668048,
				"element": "H" 
			},
			{
				"x": -3.3757534564,
				"y": 1.2686303171,
				"z": 1.9507731521,
				"element": "H" 
			},
			{
				"x": -3.4631265117,
				"y": 1.9588483323,
				"z": 0.3408815668,
				"element": "H" 
			},
			{
				"x": -3.5935350551,
				"y": -0.2998184044,
				"z": -0.4421376995,
				"element": "H" 
			},
			{
				"x": -3.1187841869,
				"y": -0.9048053035,
				"z": 1.1373049128,
				"element": "H" 
			},
			{
				"x": -1.2592905866,
				"y": 0.0505301015,
				"z": -1.1052607908,
				"element": "H" 
			},
			{
				"x": -1.1435405624,
				"y": -1.4429058908,
				"z": -0.1606190373,
				"element": "H" 
			}
		],
		 "valence_orbital": [ 
			{
				"type": "occ",
				"energy": -0.32395,
				"method": "rhf"
			},
			{
				"type": "occ",
				"energy": -0.31424,
				"method": "rhf"
			},
			{
				"type": "occ",
				"energy": -0.31089,
				"method": "rhf"
			},
			{
				"type": "occ",
				"energy": -0.27237,
				"method": "rhf"
			},
			{
				"type": "occ",
				"energy": -0.22796,
				"method": "rhf"
			},
			{
				"type": "unocc",
				"energy": 0.00893,
				"method": "rhf"
			},
			{
				"type": "unocc",
				"energy": 0.07393,
				"method": "rhf"
			},
			{
				"type": "unocc",
				"energy": 0.08705,
				"method": "rhf"
			},
			{
				"type": "unocc",
				"energy": 0.09377,
				"method": "rhf"
			},
			{
				"type": "unocc",
				"energy": 0.10312,
				"method": "rhf"
			}
		],
		"cosmo_sigma_profile": { 
			"-0.025": 0.0,
			"-0.024": 0.0,
			"-0.023": 0.0,
			"-0.022": 0.0,
			"-0.021": 0.0,
			"-0.02": 0.0,
			"-0.019": 0.0211147455008,
			"-0.018": 0.541825742149,
			"-0.017": 0.836581833539,
			"-0.016": 1.19225408405,
			"-0.015": 0.667451561417,
			"-0.014": 0.62959650599,
			"-0.013": 0.167897565453,
			"-0.012": 0.942596304176,
			"-0.011": 1.28868455611,
			"-0.01": 2.31329835232,
			"-0.009": 2.04287395017,
			"-0.008": 2.300779854,
			"-0.007": 5.79075818371,
			"-0.006": 4.31756704052,
			"-0.005": 3.64358197854,
			"-0.004": 4.76673292456,
			"-0.003": 12.6865102991,
			"-0.002": 27.6490594593,
			"-0.001": 32.1608751352,
			"0.0": 23.0866659388,
			"0.001": 17.4512771485,
			"0.002": 9.30260771874,
			"0.003": 3.10398851311,
			"0.004": 3.00871817369,
			"0.005": 2.21233342974,
			"0.006": 2.4660659777,
			"0.007": 3.31099733166,
			"0.008": 2.51669328387,
			"0.009": 2.34133419775,
			"0.01": 3.39994428926,
			"0.011": 3.99683573216,
			"0.012": 6.55702357335,
			"0.013": 2.06952338004,
			"0.014": 0.816533148698,
			"0.015": 0.906481144112,
			"0.016": 0.555710685965,
			"0.017": 0.703720013537,
			"0.018": 0.159778387624,
			"0.019": 0.0,
			"0.02": 0.0,
			"0.021": 0.0,
			"0.022": 0.0,
			"0.023": 0.0,
			"0.024": 0.0,
			"0.025": 0.0
		}
	}
}
