{
	 "smiles": "CCC1CC(C)C2=CC=C(C)C=C2N1CCO", 
	 "Tm": 372.15, 
	 "num_atms": 40, 
	 "gaussian": { 
		 "optdone": 1, 
		 "sigma_profile": "yes", 
		 "theory": "DFT", 
		 "functional": "B3LYP", 
		 "basiset": "6-31G**", 
		 "properties": { 
			 "R2extent": 4685.4557, 
			 "electric_dipole_moment_norm": 1.61392135496, 
			 "electric_quadrupole_moment_norm": 8.81184784424, 
			 "total_energy": -715.439558873, 
			 "HOMO_LUMO_gap": 0.19018, 
			 "cosmo_polarized_energy": -9.41, 
			 "cosmo_cavitation_energy": 38.07, 
			 "cosmo_dispersion_energy": -26.7, 
			 "cosmo_repulsion_energy": 2.06, 
			 "cosmo_total_nonelectrostatic_energy": 13.43, 
			 "SMD_solvation_energy": 5.3 
		},
		"coords": [
			{
				"x": 0.5404039062,
				"y": -2.5227555653,
				"z": -2.578648425,
				"element": "C" 
			},
			{
				"x": 0.9622321082,
				"y": -1.3788947438,
				"z": -1.6504378632,
				"element": "C" 
			},
			{
				"x": -0.2121839777,
				"y": -0.5230201544,
				"z": -1.1236955113,
				"element": "C" 
			},
			{
				"x": -1.2739008205,
				"y": -1.2541164195,
				"z": -0.2864973138,
				"element": "C" 
			},
			{
				"x": -0.7819287182,
				"y": -1.717411872,
				"z": 1.0989881713,
				"element": "C" 
			},
			{
				"x": -0.2277204924,
				"y": -3.1585786251,
				"z": 1.0861940444,
				"element": "C" 
			},
			{
				"x": 0.2060330307,
				"y": -0.722942166,
				"z": 1.6983317512,
				"element": "C" 
			},
			{
				"x": 0.6098918396,
				"y": -0.8799640558,
				"z": 3.0255087652,
				"element": "C" 
			},
			{
				"x": 1.5050306014,
				"y": -0.0128691963,
				"z": 3.6486894276,
				"element": "C" 
			},
			{
				"x": 2.0394578494,
				"y": 1.0567382281,
				"z": 2.9266083136,
				"element": "C" 
			},
			{
				"x": 3.0597225858,
				"y": 1.9838813643,
				"z": 3.5469443691,
				"element": "C" 
			},
			{
				"x": 1.6394401032,
				"y": 1.2378649959,
				"z": 1.5995666372,
				"element": "C" 
			},
			{
				"x": 0.7111647349,
				"y": 0.3845695338,
				"z": 0.9644930359,
				"element": "C" 
			},
			{
				"x": 0.261257867,
				"y": 0.633396574,
				"z": -0.3420049937,
				"element": "N" 
			},
			{
				"x": 0.7722585326,
				"y": 1.8040053792,
				"z": -1.0405934395,
				"element": "C" 
			},
			{
				"x": -0.0109135314,
				"y": 2.2278903358,
				"z": -2.2861496499,
				"element": "C" 
			},
			{
				"x": 0.2079606043,
				"y": 1.4281752753,
				"z": -3.4436036345,
				"element": "O" 
			},
			{
				"x": 1.4164150095,
				"y": -3.0219670397,
				"z": -3.005952012,
				"element": "H" 
			},
			{
				"x": -0.0653674933,
				"y": -2.1474732463,
				"z": -3.4115204413,
				"element": "H" 
			},
			{
				"x": -0.0463130331,
				"y": -3.2842913287,
				"z": -2.0557071098,
				"element": "H" 
			},
			{
				"x": 1.5550873564,
				"y": -1.7611137636,
				"z": -0.8125177117,
				"element": "H" 
			},
			{
				"x": 1.6239706262,
				"y": -0.7057811212,
				"z": -2.2092269602,
				"element": "H" 
			},
			{
				"x": -0.7209416278,
				"y": -0.1268588297,
				"z": -2.004356452,
				"element": "H" 
			},
			{
				"x": -2.1008574552,
				"y": -0.5476738205,
				"z": -0.1520842668,
				"element": "H" 
			},
			{
				"x": -1.6768315223,
				"y": -2.1035075689,
				"z": -0.8485799864,
				"element": "H" 
			},
			{
				"x": -1.661169199,
				"y": -1.7385563842,
				"z": 1.7585108842,
				"element": "H" 
			},
			{
				"x": 0.6648833761,
				"y": -3.2509226736,
				"z": 0.4620304992,
				"element": "H" 
			},
			{
				"x": 0.0436850121,
				"y": -3.486327235,
				"z": 2.0941228517,
				"element": "H" 
			},
			{
				"x": -0.983811801,
				"y": -3.8537503392,
				"z": 0.7028139429,
				"element": "H" 
			},
			{
				"x": 0.1951613181,
				"y": -1.7082330246,
				"z": 3.5961810253,
				"element": "H" 
			},
			{
				"x": 1.7870801275,
				"y": -0.170004324,
				"z": 4.6862380759,
				"element": "H" 
			},
			{
				"x": 2.9550908191,
				"y": 2.0192619804,
				"z": 4.6355979128,
				"element": "H" 
			},
			{
				"x": 2.9621283522,
				"y": 3.005257397,
				"z": 3.1649905813,
				"element": "H" 
			},
			{
				"x": 4.083622578,
				"y": 1.6531863559,
				"z": 3.3299008912,
				"element": "H" 
			},
			{
				"x": 2.0796359004,
				"y": 2.0621664526,
				"z": 1.0511730679,
				"element": "H" 
			},
			{
				"x": 1.8405086368,
				"y": 1.7041024918,
				"z": -1.3201138799,
				"element": "H" 
			},
			{
				"x": 0.7221780134,
				"y": 2.6497546465,
				"z": -0.3454890616,
				"element": "H" 
			},
			{
				"x": 0.2407023035,
				"y": 3.2795849592,
				"z": -2.4930014858,
				"element": "H" 
			},
			{
				"x": -1.0857187606,
				"y": 2.1839858038,
				"z": -2.0849303762,
				"element": "H" 
			},
			{
				"x": 1.1454552399,
				"y": 1.4860917239,
				"z": -3.6690736732,
				"element": "H" 
			}
		],
		 "valence_orbital": [ 
			{
				"type": "occ",
				"energy": -0.29727,
				"method": "rhf"
			},
			{
				"type": "occ",
				"energy": -0.27732,
				"method": "rhf"
			},
			{
				"type": "occ",
				"energy": -0.26343,
				"method": "rhf"
			},
			{
				"type": "occ",
				"energy": -0.22109,
				"method": "rhf"
			},
			{
				"type": "occ",
				"energy": -0.17868,
				"method": "rhf"
			},
			{
				"type": "unocc",
				"energy": 0.0115,
				"method": "rhf"
			},
			{
				"type": "unocc",
				"energy": 0.02758,
				"method": "rhf"
			},
			{
				"type": "unocc",
				"energy": 0.0604,
				"method": "rhf"
			},
			{
				"type": "unocc",
				"energy": 0.08869,
				"method": "rhf"
			},
			{
				"type": "unocc",
				"energy": 0.10549,
				"method": "rhf"
			}
		],
		"cosmo_sigma_profile": { 
			"-0.025": 0.0,
			"-0.024": 0.0,
			"-0.023": 0.0,
			"-0.022": 0.0,
			"-0.021": 0.0,
			"-0.02": 0.0,
			"-0.019": 0.0,
			"-0.018": 0.0,
			"-0.017": 0.0,
			"-0.016": 0.0405528286046,
			"-0.015": 0.874084233689,
			"-0.014": 0.87568215994,
			"-0.013": 0.644107611215,
			"-0.012": 1.22472441767,
			"-0.011": 1.30321519702,
			"-0.01": 0.644578482076,
			"-0.009": 0.868907395573,
			"-0.008": 1.28939342493,
			"-0.007": 1.12207196353,
			"-0.006": 1.07334243778,
			"-0.005": 7.1839863077,
			"-0.004": 19.5628001405,
			"-0.003": 30.8990872756,
			"-0.002": 42.2435543891,
			"-0.001": 39.7792554167,
			"0.0": 36.0771237883,
			"0.001": 33.5700293989,
			"0.002": 17.8293789777,
			"0.003": 8.78937255217,
			"0.004": 9.01222855245,
			"0.005": 7.89938398698,
			"0.006": 8.28059444048,
			"0.007": 8.96548815318,
			"0.008": 7.35114747895,
			"0.009": 1.74121374729,
			"0.01": 1.30809504245,
			"0.011": 1.11173495175,
			"0.012": 0.964108759953,
			"0.013": 1.00921023346,
			"0.014": 1.404347632,
			"0.015": 0.293094981379,
			"0.016": 0.0,
			"0.017": 0.0,
			"0.018": 0.0,
			"0.019": 0.0,
			"0.02": 0.0,
			"0.021": 0.0,
			"0.022": 0.0,
			"0.023": 0.0,
			"0.024": 0.0,
			"0.025": 0.0
		}
	}
}
