{
	 "smiles": "CC1=C(SC2=C1C=CC(Cl)=C2)S(Cl)(=O)=O", 
	 "Tm": 357.15, 
	 "num_atms": 21, 
	 "gaussian": { 
		 "optdone": 1, 
		 "sigma_profile": "yes", 
		 "theory": "DFT", 
		 "functional": "B3LYP", 
		 "basiset": "6-31G**", 
		 "properties": { 
			 "R2extent": 6079.7474, 
			 "electric_dipole_moment_norm": 4.72257190734, 
			 "electric_quadrupole_moment_norm": 15.7774576276, 
			 "total_energy": -2213.71353443, 
			 "HOMO_LUMO_gap": 0.14955, 
			 "cosmo_polarized_energy": -9.69, 
			 "cosmo_cavitation_energy": 31.97, 
			 "cosmo_dispersion_energy": -24.27, 
			 "cosmo_repulsion_energy": 1.8, 
			 "cosmo_total_nonelectrostatic_energy": 9.5, 
			 "SMD_solvation_energy": 3.3 
		},
		"coords": [
			{
				"x": 3.0742402071,
				"y": -0.3423441312,
				"z": 1.0824946739,
				"element": "C" 
			},
			{
				"x": 1.6992036997,
				"y": 0.0212848765,
				"z": 0.6023348555,
				"element": "C" 
			},
			{
				"x": 1.358959299,
				"y": 0.9958761749,
				"z": -0.3010418882,
				"element": "C" 
			},
			{
				"x": -0.3673479913,
				"y": 1.1782043583,
				"z": -0.6001273707,
				"element": "S" 
			},
			{
				"x": -0.6821754686,
				"y": -0.1241068015,
				"z": 0.523893165,
				"element": "C" 
			},
			{
				"x": 0.5108240055,
				"y": -0.6448460718,
				"z": 1.0823865928,
				"element": "C" 
			},
			{
				"x": 0.4216280649,
				"y": -1.7072689463,
				"z": 2.0036107516,
				"element": "C" 
			},
			{
				"x": -0.8166766316,
				"y": -2.2229448392,
				"z": 2.346247239,
				"element": "C" 
			},
			{
				"x": -1.982609571,
				"y": -1.6837193272,
				"z": 1.7692904417,
				"element": "C" 
			},
			{
				"x": -3.5360615269,
				"y": -2.3565472117,
				"z": 2.2220742017,
				"element": "Cl" 
			},
			{
				"x": -1.940286372,
				"y": -0.6387866234,
				"z": 0.8565591705,
				"element": "C" 
			},
			{
				"x": 2.4375693139,
				"y": 2.1006951038,
				"z": -1.1521923995,
				"element": "S" 
			},
			{
				"x": 2.8648010923,
				"y": 3.5544184775,
				"z": 0.3511576329,
				"element": "Cl" 
			},
			{
				"x": 3.7102422023,
				"y": 1.4530663066,
				"z": -1.4442128012,
				"element": "O" 
			},
			{
				"x": 1.6599677961,
				"y": 2.7872411618,
				"z": -2.1752448097,
				"element": "O" 
			},
			{
				"x": 3.8524731988,
				"y": 0.2370217671,
				"z": 0.5897721193,
				"element": "H" 
			},
			{
				"x": 3.1475631817,
				"y": -0.1841165851,
				"z": 2.164396828,
				"element": "H" 
			},
			{
				"x": 3.2696953903,
				"y": -1.4036942723,
				"z": 0.8931394292,
				"element": "H" 
			},
			{
				"x": 1.3209858762,
				"y": -2.12299414,
				"z": 2.4464749219,
				"element": "H" 
			},
			{
				"x": -0.9012985449,
				"y": -3.0392543552,
				"z": 3.0541423687,
				"element": "H" 
			},
			{
				"x": -2.8522972214,
				"y": -0.2416849216,
				"z": 0.4261448777,
				"element": "H" 
			}
		],
		 "valence_orbital": [ 
			{
				"type": "occ",
				"energy": -0.33013,
				"method": "rhf"
			},
			{
				"type": "occ",
				"energy": -0.31799,
				"method": "rhf"
			},
			{
				"type": "occ",
				"energy": -0.30905,
				"method": "rhf"
			},
			{
				"type": "occ",
				"energy": -0.26721,
				"method": "rhf"
			},
			{
				"type": "occ",
				"energy": -0.2507,
				"method": "rhf"
			},
			{
				"type": "unocc",
				"energy": -0.10115,
				"method": "rhf"
			},
			{
				"type": "unocc",
				"energy": -0.06013,
				"method": "rhf"
			},
			{
				"type": "unocc",
				"energy": -0.03837,
				"method": "rhf"
			},
			{
				"type": "unocc",
				"energy": -0.01502,
				"method": "rhf"
			},
			{
				"type": "unocc",
				"energy": -0.00098,
				"method": "rhf"
			}
		],
		"cosmo_sigma_profile": { 
			"-0.025": 0.0,
			"-0.024": 0.0,
			"-0.023": 0.0,
			"-0.022": 0.0,
			"-0.021": 0.0,
			"-0.02": 0.0,
			"-0.019": 0.0,
			"-0.018": 0.0,
			"-0.017": 0.0,
			"-0.016": 0.0,
			"-0.015": 0.0,
			"-0.014": 0.0,
			"-0.013": 0.0,
			"-0.012": 0.0,
			"-0.011": 0.0,
			"-0.01": 0.732088055361,
			"-0.009": 2.28034347708,
			"-0.008": 4.6611629455,
			"-0.007": 8.68331191937,
			"-0.006": 12.1951166574,
			"-0.005": 10.7096867641,
			"-0.004": 12.0088961765,
			"-0.003": 14.8163260037,
			"-0.002": 21.176824707,
			"-0.001": 24.8668671863,
			"0.0": 27.3467707601,
			"0.001": 31.3394873479,
			"0.002": 25.0879148069,
			"0.003": 25.1481028496,
			"0.004": 17.0388853279,
			"0.005": 4.63086519795,
			"0.006": 4.02035839834,
			"0.007": 6.8575896692,
			"0.008": 8.6942899561,
			"0.009": 2.13243900573,
			"0.01": 0.0,
			"0.011": 0.0,
			"0.012": 0.0,
			"0.013": 0.0,
			"0.014": 0.0,
			"0.015": 0.0,
			"0.016": 0.0,
			"0.017": 0.0,
			"0.018": 0.0,
			"0.019": 0.0,
			"0.02": 0.0,
			"0.021": 0.0,
			"0.022": 0.0,
			"0.023": 0.0,
			"0.024": 0.0,
			"0.025": 0.0
		}
	}
}
