{
	 "smiles": "OC1CCCOC2=C1C=CC(Br)=C2", 
	 "Tm": 347.15, 
	 "num_atms": 24, 
	 "gaussian": { 
		 "optdone": 1, 
		 "sigma_profile": "yes", 
		 "theory": "DFT", 
		 "functional": "B3LYP", 
		 "basiset": "6-31G**", 
		 "properties": { 
			 "R2extent": 5836.1829, 
			 "electric_dipole_moment_norm": 4.16256194188, 
			 "electric_quadrupole_moment_norm": 10.6689845791, 
			 "total_energy": -3109.52766609, 
			 "HOMO_LUMO_gap": 0.21947, 
			 "cosmo_polarized_energy": -9.57, 
			 "cosmo_cavitation_energy": 28.24, 
			 "cosmo_dispersion_energy": -21.44, 
			 "cosmo_repulsion_energy": 1.7, 
			 "cosmo_total_nonelectrostatic_energy": 8.5, 
			 "SMD_solvation_energy": 3.34 
		},
		"coords": [
			{
				"x": -0.4441404262,
				"y": 0.1896251411,
				"z": -3.0998883362,
				"element": "O" 
			},
			{
				"x": 0.386846209,
				"y": -0.5614952612,
				"z": -2.22181138,
				"element": "C" 
			},
			{
				"x": 1.4643872122,
				"y": 0.3436606075,
				"z": -1.5703664015,
				"element": "C" 
			},
			{
				"x": 2.0105111614,
				"y": -0.1664581668,
				"z": -0.2259598255,
				"element": "C" 
			},
			{
				"x": 2.4388442164,
				"y": -1.6324606892,
				"z": -0.200910655,
				"element": "C" 
			},
			{
				"x": 1.424012562,
				"y": -2.5767048566,
				"z": -0.6052371365,
				"element": "O" 
			},
			{
				"x": 0.1066212477,
				"y": -2.2338133114,
				"z": -0.3922711529,
				"element": "C" 
			},
			{
				"x": -0.4856799755,
				"y": -1.2414975165,
				"z": -1.1916196064,
				"element": "C" 
			},
			{
				"x": -1.8385184345,
				"y": -0.9554237917,
				"z": -1.0135028838,
				"element": "C" 
			},
			{
				"x": -2.600093397,
				"y": -1.6454899504,
				"z": -0.0661897223,
				"element": "C" 
			},
			{
				"x": -1.9886990221,
				"y": -2.63228884,
				"z": 0.7028411521,
				"element": "C" 
			},
			{
				"x": -3.0225498276,
				"y": -3.5930626903,
				"z": 1.9965798859,
				"element": "Br" 
			},
			{
				"x": -0.6364301631,
				"y": -2.9374676173,
				"z": 0.5549713963,
				"element": "C" 
			},
			{
				"x": 0.1200764771,
				"y": 0.5764071548,
				"z": -3.7807658364,
				"element": "H" 
			},
			{
				"x": 0.900258445,
				"y": -1.3623209175,
				"z": -2.7768705506,
				"element": "H" 
			},
			{
				"x": 2.2861135062,
				"y": 0.484171444,
				"z": -2.2856581873,
				"element": "H" 
			},
			{
				"x": 1.0041520946,
				"y": 1.3254761094,
				"z": -1.4108323902,
				"element": "H" 
			},
			{
				"x": 1.2558058775,
				"y": -0.005879005,
				"z": 0.5513232833,
				"element": "H" 
			},
			{
				"x": 2.881116819,
				"y": 0.4318271214,
				"z": 0.0688821394,
				"element": "H" 
			},
			{
				"x": 3.2753195274,
				"y": -1.8110612435,
				"z": -0.8848557332,
				"element": "H" 
			},
			{
				"x": 2.7718101868,
				"y": -1.8928499137,
				"z": 0.8133961307,
				"element": "H" 
			},
			{
				"x": -2.299712641,
				"y": -0.1988296821,
				"z": -1.6382916156,
				"element": "H" 
			},
			{
				"x": -3.6533743628,
				"y": -1.4256608653,
				"z": 0.0633214784,
				"element": "H" 
			},
			{
				"x": -0.1588772926,
				"y": -3.7082032599,
				"z": 1.1477159474,
				"element": "H" 
			}
		],
		 "valence_orbital": [ 
			{
				"type": "occ",
				"energy": -0.28375,
				"method": "rhf"
			},
			{
				"type": "occ",
				"energy": -0.27845,
				"method": "rhf"
			},
			{
				"type": "occ",
				"energy": -0.27401,
				"method": "rhf"
			},
			{
				"type": "occ",
				"energy": -0.24608,
				"method": "rhf"
			},
			{
				"type": "occ",
				"energy": -0.22781,
				"method": "rhf"
			},
			{
				"type": "unocc",
				"energy": -0.00834,
				"method": "rhf"
			},
			{
				"type": "unocc",
				"energy": -0.00362,
				"method": "rhf"
			},
			{
				"type": "unocc",
				"energy": 0.01257,
				"method": "rhf"
			},
			{
				"type": "unocc",
				"energy": 0.06756,
				"method": "rhf"
			},
			{
				"type": "unocc",
				"energy": 0.08395,
				"method": "rhf"
			}
		],
		"cosmo_sigma_profile": { 
			"-0.025": 0.0,
			"-0.024": 0.0,
			"-0.023": 0.0,
			"-0.022": 0.0,
			"-0.021": 0.0,
			"-0.02": 0.0,
			"-0.019": 0.0,
			"-0.018": 0.0,
			"-0.017": 0.0,
			"-0.016": 0.410995306087,
			"-0.015": 1.13828627176,
			"-0.014": 1.04723919091,
			"-0.013": 0.730084338121,
			"-0.012": 1.00474081197,
			"-0.011": 0.604553082789,
			"-0.01": 1.07684003127,
			"-0.009": 0.787542818528,
			"-0.008": 1.24937260549,
			"-0.007": 3.04064454804,
			"-0.006": 4.20529879417,
			"-0.005": 10.0455433767,
			"-0.004": 22.4233008997,
			"-0.003": 25.4294981549,
			"-0.002": 19.5433087707,
			"-0.001": 18.1500739358,
			"0.0": 14.3693019721,
			"0.001": 11.630703505,
			"0.002": 17.0990608919,
			"0.003": 21.4740069853,
			"0.004": 19.6263520821,
			"0.005": 12.3089400004,
			"0.006": 3.13392595911,
			"0.007": 2.47279926022,
			"0.008": 2.69044453848,
			"0.009": 2.37894814179,
			"0.01": 2.74310262205,
			"0.011": 2.51189625749,
			"0.012": 2.14902077382,
			"0.013": 0.338681014166,
			"0.014": 0.0,
			"0.015": 0.0,
			"0.016": 0.0,
			"0.017": 0.0,
			"0.018": 0.0,
			"0.019": 0.0,
			"0.02": 0.0,
			"0.021": 0.0,
			"0.022": 0.0,
			"0.023": 0.0,
			"0.024": 0.0,
			"0.025": 0.0
		}
	}
}
