{
	 "smiles": "CN1N=C(C=C1C)C(Cl)=O", 
	 "Tm": 346.65, 
	 "num_atms": 17, 
	 "gaussian": { 
		 "optdone": 1, 
		 "sigma_profile": "yes", 
		 "theory": "DFT", 
		 "functional": "B3LYP", 
		 "basiset": "6-31G**", 
		 "properties": { 
			 "R2extent": 2635.6634, 
			 "electric_dipole_moment_norm": 7.05279477654, 
			 "electric_quadrupole_moment_norm": 13.5956032334, 
			 "total_energy": -877.76816478, 
			 "HOMO_LUMO_gap": 0.20515, 
			 "cosmo_polarized_energy": -12.09, 
			 "cosmo_cavitation_energy": 23.52, 
			 "cosmo_dispersion_energy": -17.19, 
			 "cosmo_repulsion_energy": 1.41, 
			 "cosmo_total_nonelectrostatic_energy": 7.74, 
			 "SMD_solvation_energy": 4.03 
		},
		"coords": [
			{
				"x": -0.4099710462,
				"y": 1.4914651278,
				"z": -2.2158427433,
				"element": "C" 
			},
			{
				"x": 0.2985573986,
				"y": 0.7186870618,
				"z": -1.2082955151,
				"element": "N" 
			},
			{
				"x": 1.1657330665,
				"y": -0.2217566513,
				"z": -1.5941933031,
				"element": "N" 
			},
			{
				"x": 1.6362265843,
				"y": -0.7364827379,
				"z": -0.4456598096,
				"element": "C" 
			},
			{
				"x": 1.0544496474,
				"y": -0.1081384104,
				"z": 0.6814319556,
				"element": "C" 
			},
			{
				"x": 0.1905066408,
				"y": 0.8317238777,
				"z": 0.1575507956,
				"element": "C" 
			},
			{
				"x": -0.7184804482,
				"y": 1.816878953,
				"z": 0.8186441888,
				"element": "C" 
			},
			{
				"x": 2.6274172174,
				"y": -1.8127521844,
				"z": -0.5291447579,
				"element": "C" 
			},
			{
				"x": 3.1634757877,
				"y": -2.3989841998,
				"z": 1.1359064538,
				"element": "Cl" 
			},
			{
				"x": 3.089944403,
				"y": -2.3123365811,
				"z": -1.5056144261,
				"element": "O" 
			},
			{
				"x": -0.0770161594,
				"y": 1.1330310312,
				"z": -3.1884932316,
				"element": "H" 
			},
			{
				"x": -0.1792201976,
				"y": 2.5564468464,
				"z": -2.118448593,
				"element": "H" 
			},
			{
				"x": -1.4906512872,
				"y": 1.3489275579,
				"z": -2.122388025,
				"element": "H" 
			},
			{
				"x": 1.2424362223,
				"y": -0.3156498044,
				"z": 1.7226806181,
				"element": "H" 
			},
			{
				"x": -1.7677328935,
				"y": 1.6517275839,
				"z": 0.5470922228,
				"element": "H" 
			},
			{
				"x": -0.6361938469,
				"y": 1.7246255405,
				"z": 1.9032498054,
				"element": "H" 
			},
			{
				"x": -0.4669810892,
				"y": 2.849686989,
				"z": 0.5503243647,
				"element": "H" 
			}
		],
		 "valence_orbital": [ 
			{
				"type": "occ",
				"energy": -0.30902,
				"method": "rhf"
			},
			{
				"type": "occ",
				"energy": -0.30841,
				"method": "rhf"
			},
			{
				"type": "occ",
				"energy": -0.28322,
				"method": "rhf"
			},
			{
				"type": "occ",
				"energy": -0.27211,
				"method": "rhf"
			},
			{
				"type": "occ",
				"energy": -0.26063,
				"method": "rhf"
			},
			{
				"type": "unocc",
				"energy": -0.05548,
				"method": "rhf"
			},
			{
				"type": "unocc",
				"energy": 0.01061,
				"method": "rhf"
			},
			{
				"type": "unocc",
				"energy": 0.02797,
				"method": "rhf"
			},
			{
				"type": "unocc",
				"energy": 0.06714,
				"method": "rhf"
			},
			{
				"type": "unocc",
				"energy": 0.0993,
				"method": "rhf"
			}
		],
		"cosmo_sigma_profile": { 
			"-0.025": 0.0,
			"-0.024": 0.0,
			"-0.023": 0.0,
			"-0.022": 0.0,
			"-0.021": 0.0,
			"-0.02": 0.0,
			"-0.019": 0.0,
			"-0.018": 0.0,
			"-0.017": 0.0,
			"-0.016": 0.0,
			"-0.015": 0.0,
			"-0.014": 0.0,
			"-0.013": 0.0,
			"-0.012": 0.0,
			"-0.011": 0.0,
			"-0.01": 0.0,
			"-0.009": 0.0,
			"-0.008": 1.14516469875,
			"-0.007": 10.2463528797,
			"-0.006": 14.5237542357,
			"-0.005": 13.3141475047,
			"-0.004": 16.269172548,
			"-0.003": 15.859241854,
			"-0.002": 12.6433923195,
			"-0.001": 13.2915245334,
			"0.0": 12.0443229126,
			"0.001": 11.7143946358,
			"0.002": 12.1388096149,
			"0.003": 10.3217125154,
			"0.004": 9.94188676824,
			"0.005": 10.0699105307,
			"0.006": 4.56242780018,
			"0.007": 2.97633196051,
			"0.008": 5.63734847825,
			"0.009": 6.50862852345,
			"0.01": 2.57265321228,
			"0.011": 1.1242726501,
			"0.012": 1.54484195519,
			"0.013": 0.84275654385,
			"0.014": 0.593577160817,
			"0.015": 0.0,
			"0.016": 0.0,
			"0.017": 0.0,
			"0.018": 0.0,
			"0.019": 0.0,
			"0.02": 0.0,
			"0.021": 0.0,
			"0.022": 0.0,
			"0.023": 0.0,
			"0.024": 0.0,
			"0.025": 0.0
		}
	}
}
