{
	 "smiles": "OC(=O)C1=C(O)C(Cl)=CC(Cl)=C1", 
	 "Tm": 495.15, 
	 "num_atms": 16, 
	 "gaussian": { 
		 "optdone": 1, 
		 "sigma_profile": "yes", 
		 "theory": "DFT", 
		 "functional": "B3LYP", 
		 "basiset": "6-31G**", 
		 "properties": { 
			 "R2extent": 3535.2482, 
			 "electric_dipole_moment_norm": 2.47044229441, 
			 "electric_quadrupole_moment_norm": 5.59447605053, 
			 "total_energy": -1415.21998126, 
			 "HOMO_LUMO_gap": 0.1779, 
			 "cosmo_polarized_energy": -11.46, 
			 "cosmo_cavitation_energy": 24.72, 
			 "cosmo_dispersion_energy": -18.85, 
			 "cosmo_repulsion_energy": 1.51, 
			 "cosmo_total_nonelectrostatic_energy": 7.38, 
			 "SMD_solvation_energy": 5.37 
		},
		"coords": [
			{
				"x": 3.7481270781,
				"y": 1.3905536565,
				"z": -2.2053455542,
				"element": "O" 
			},
			{
				"x": 3.3505444013,
				"y": 0.9036500722,
				"z": -1.0143859889,
				"element": "C" 
			},
			{
				"x": 4.1422960199,
				"y": 0.622177428,
				"z": -0.1343603926,
				"element": "O" 
			},
			{
				"x": 1.8727524242,
				"y": 0.7378276142,
				"z": -0.8607081687,
				"element": "C" 
			},
			{
				"x": 0.9086114792,
				"y": 1.047813344,
				"z": -1.8466039698,
				"element": "C" 
			},
			{
				"x": 1.2789510778,
				"y": 1.5352912504,
				"z": -3.0445693368,
				"element": "O" 
			},
			{
				"x": -0.4472863272,
				"y": 0.8268025975,
				"z": -1.5263634539,
				"element": "C" 
			},
			{
				"x": -1.6584514448,
				"y": 1.2095738998,
				"z": -2.7473853076,
				"element": "Cl" 
			},
			{
				"x": -0.8556958869,
				"y": 0.3249508994,
				"z": -0.2990642789,
				"element": "C" 
			},
			{
				"x": 0.1165883378,
				"y": 0.0272289985,
				"z": 0.6563566718,
				"element": "C" 
			},
			{
				"x": -0.3775616581,
				"y": -0.6081067078,
				"z": 2.2142407996,
				"element": "Cl" 
			},
			{
				"x": 1.4598905279,
				"y": 0.2303181725,
				"z": 0.3803293485,
				"element": "C" 
			},
			{
				"x": 4.7176330967,
				"y": 1.4394992681,
				"z": -2.1503260137,
				"element": "H" 
			},
			{
				"x": 0.4823417793,
				"y": 1.6841646549,
				"z": -3.5788238968,
				"element": "H" 
			},
			{
				"x": -1.907966752,
				"y": 0.1700740996,
				"z": -0.0937613682,
				"element": "H" 
			},
			{
				"x": 2.225525847,
				"y": 0.0037807523,
				"z": 1.1121709102,
				"element": "H" 
			}
		],
		 "valence_orbital": [ 
			{
				"type": "occ",
				"energy": -0.32396,
				"method": "rhf"
			},
			{
				"type": "occ",
				"energy": -0.31747,
				"method": "rhf"
			},
			{
				"type": "occ",
				"energy": -0.28651,
				"method": "rhf"
			},
			{
				"type": "occ",
				"energy": -0.27759,
				"method": "rhf"
			},
			{
				"type": "occ",
				"energy": -0.24321,
				"method": "rhf"
			},
			{
				"type": "unocc",
				"energy": -0.06531,
				"method": "rhf"
			},
			{
				"type": "unocc",
				"energy": -0.02285,
				"method": "rhf"
			},
			{
				"type": "unocc",
				"energy": -0.00934,
				"method": "rhf"
			},
			{
				"type": "unocc",
				"energy": 0.03657,
				"method": "rhf"
			},
			{
				"type": "unocc",
				"energy": 0.0382,
				"method": "rhf"
			}
		],
		"cosmo_sigma_profile": { 
			"-0.025": 0.0,
			"-0.024": 0.0,
			"-0.023": 0.0,
			"-0.022": 0.0,
			"-0.021": 0.0,
			"-0.02": 0.0,
			"-0.019": 0.169007152218,
			"-0.018": 1.06388531349,
			"-0.017": 0.520409467997,
			"-0.016": 1.49757745185,
			"-0.015": 1.2361175459,
			"-0.014": 1.11702781634,
			"-0.013": 1.18251052517,
			"-0.012": 1.33177490697,
			"-0.011": 2.4511500455,
			"-0.01": 1.98821524993,
			"-0.009": 2.43093035079,
			"-0.008": 3.51673683938,
			"-0.007": 5.14729134938,
			"-0.006": 3.74934542595,
			"-0.005": 4.18488971346,
			"-0.004": 7.83225440961,
			"-0.003": 11.1659234753,
			"-0.002": 14.8824962791,
			"-0.001": 22.3899859591,
			"0.0": 24.3723412217,
			"0.001": 18.9001142276,
			"0.002": 12.7815886252,
			"0.003": 15.5240004665,
			"0.004": 14.2897497977,
			"0.005": 4.41943833025,
			"0.006": 2.13126266435,
			"0.007": 3.09787834991,
			"0.008": 2.90199688904,
			"0.009": 3.1050369535,
			"0.01": 3.21475213923,
			"0.011": 6.17074455086,
			"0.012": 3.49628389287,
			"0.013": 1.05471940488,
			"0.014": 0.0,
			"0.015": 0.0,
			"0.016": 0.0,
			"0.017": 0.0,
			"0.018": 0.0,
			"0.019": 0.0,
			"0.02": 0.0,
			"0.021": 0.0,
			"0.022": 0.0,
			"0.023": 0.0,
			"0.024": 0.0,
			"0.025": 0.0
		}
	}
}
