{
	 "smiles": "COC1C(O)C(C)OC(OC2C(O)C(O)C(C)OC2OC2=CC=CC3=C(O)C4=C5C(OC(=O)C6=C5C(OC4=O)=CC=C6C)=C23)C1O", 
	 "Tm": 458.15, 
	 "num_atms": 78, 
	 "gaussian": { 
		 "optdone": 1, 
		 "sigma_profile": "yes", 
		 "theory": "DFT", 
		 "functional": "B3LYP", 
		 "basiset": "6-31G**", 
		 "properties": { 
			 "R2extent": 29604.3137, 
			 "electric_dipole_moment_norm": 8.17335171273, 
			 "electric_quadrupole_moment_norm": 28.752765845, 
			 "total_energy": -2291.80489857, 
			 "HOMO_LUMO_gap": 0.13231, 
			 "cosmo_polarized_energy": -39.37, 
			 "cosmo_cavitation_energy": 74.43, 
			 "cosmo_dispersion_energy": -50.19, 
			 "cosmo_repulsion_energy": 3.6, 
			 "cosmo_total_nonelectrostatic_energy": 27.84, 
			 "SMD_solvation_energy": 13.55 
		},
		"coords": [
			{
				"x": 5.8990029949,
				"y": 0.944262305,
				"z": 4.3131196004,
				"element": "C" 
			},
			{
				"x": 5.5486629669,
				"y": -0.3952875061,
				"z": 3.9858346814,
				"element": "O" 
			},
			{
				"x": 4.8992676722,
				"y": -0.6182121983,
				"z": 2.7344243255,
				"element": "C" 
			},
			{
				"x": 5.3972965603,
				"y": 0.2057637308,
				"z": 1.5459226633,
				"element": "C" 
			},
			{
				"x": 6.7862294081,
				"y": -0.0370089173,
				"z": 1.3859498264,
				"element": "O" 
			},
			{
				"x": 4.5776324693,
				"y": -0.153389416,
				"z": 0.2745591214,
				"element": "C" 
			},
			{
				"x": 4.9244304153,
				"y": -1.5137777249,
				"z": -0.335111584,
				"element": "C" 
			},
			{
				"x": 3.1752416019,
				"y": 0.0024628229,
				"z": 0.5370115791,
				"element": "O" 
			},
			{
				"x": 2.6630969605,
				"y": -0.7911646849,
				"z": 1.6018458603,
				"element": "C" 
			},
			{
				"x": 1.2792387607,
				"y": -0.648527274,
				"z": 1.6541019555,
				"element": "O" 
			},
			{
				"x": 0.7290548873,
				"y": 0.64902609,
				"z": 1.8858526113,
				"element": "C" 
			},
			{
				"x": 0.3464846932,
				"y": 0.8801556071,
				"z": 3.3884205568,
				"element": "C" 
			},
			{
				"x": 0.1201729921,
				"y": -0.3127225066,
				"z": 4.0957882111,
				"element": "O" 
			},
			{
				"x": -0.9069503801,
				"y": 1.8004341239,
				"z": 3.5079634594,
				"element": "C" 
			},
			{
				"x": -2.1242976511,
				"y": 1.1115180756,
				"z": 3.640436504,
				"element": "O" 
			},
			{
				"x": -0.9031171974,
				"y": 2.7868951904,
				"z": 2.3238145118,
				"element": "C" 
			},
			{
				"x": -2.0654095559,
				"y": 3.7655263993,
				"z": 2.3502286322,
				"element": "C" 
			},
			{
				"x": -0.9778459709,
				"y": 2.1089044323,
				"z": 1.0415722335,
				"element": "O" 
			},
			{
				"x": -0.4592966921,
				"y": 0.833653383,
				"z": 0.9369033941,
				"element": "C" 
			},
			{
				"x": -1.5523062001,
				"y": -0.0912454634,
				"z": 1.2271773058,
				"element": "O" 
			},
			{
				"x": -1.5119579016,
				"y": -1.4083480662,
				"z": 0.8196895484,
				"element": "C" 
			},
			{
				"x": -1.2482594871,
				"y": -2.3541706769,
				"z": 1.7959017965,
				"element": "C" 
			},
			{
				"x": -1.2777928214,
				"y": -3.7271204455,
				"z": 1.504235032,
				"element": "C" 
			},
			{
				"x": -1.5720372587,
				"y": -4.1552833483,
				"z": 0.2273493336,
				"element": "C" 
			},
			{
				"x": -1.8671567746,
				"y": -3.2189380694,
				"z": -0.7888102065,
				"element": "C" 
			},
			{
				"x": -2.2059449033,
				"y": -3.7002384775,
				"z": -2.0989812126,
				"element": "C" 
			},
			{
				"x": -2.1849581644,
				"y": -5.0213076495,
				"z": -2.3069462945,
				"element": "O" 
			},
			{
				"x": -2.5523931663,
				"y": -2.7972646861,
				"z": -3.102726868,
				"element": "C" 
			},
			{
				"x": -2.5583837468,
				"y": -1.3994258585,
				"z": -2.8209228081,
				"element": "C" 
			},
			{
				"x": -2.2177956667,
				"y": -0.9148057504,
				"z": -1.578467477,
				"element": "C" 
			},
			{
				"x": -2.2281360407,
				"y": 0.4374046634,
				"z": -1.3527364903,
				"element": "O" 
			},
			{
				"x": -2.5744762198,
				"y": 1.3926679401,
				"z": -2.3034891201,
				"element": "C" 
			},
			{
				"x": -2.5218214604,
				"y": 2.5498992913,
				"z": -1.9573141749,
				"element": "O" 
			},
			{
				"x": -2.963560287,
				"y": 0.9023388144,
				"z": -3.6409388054,
				"element": "C" 
			},
			{
				"x": -2.9348072396,
				"y": -0.4908140339,
				"z": -3.865134033,
				"element": "C" 
			},
			{
				"x": -3.2814263689,
				"y": -1.0067505284,
				"z": -5.1205473167,
				"element": "C" 
			},
			{
				"x": -3.2627171488,
				"y": -2.3650903338,
				"z": -5.3783521134,
				"element": "O" 
			},
			{
				"x": -2.9138221873,
				"y": -3.280565577,
				"z": -4.4224509659,
				"element": "C" 
			},
			{
				"x": -2.9300357474,
				"y": -4.4651723357,
				"z": -4.7470288224,
				"element": "O" 
			},
			{
				"x": -3.6567932486,
				"y": -0.157112188,
				"z": -6.1489824358,
				"element": "C" 
			},
			{
				"x": -3.6845868708,
				"y": 1.220004838,
				"z": -5.915668532,
				"element": "C" 
			},
			{
				"x": -3.345150396,
				"y": 1.7858622308,
				"z": -4.6798666018,
				"element": "C" 
			},
			{
				"x": -3.4026452694,
				"y": 3.2843081501,
				"z": -4.5154251229,
				"element": "C" 
			},
			{
				"x": -1.8542702367,
				"y": -1.8030744609,
				"z": -0.5112897756,
				"element": "C" 
			},
			{
				"x": 3.3890440807,
				"y": -0.4067293147,
				"z": 2.895822,
				"element": "C" 
			},
			{
				"x": 2.8854062027,
				"y": -1.2090897909,
				"z": 3.9534700984,
				"element": "O" 
			},
			{
				"x": 5.041347831,
				"y": 1.6312339847,
				"z": 4.280686284,
				"element": "H" 
			},
			{
				"x": 6.2771386116,
				"y": 0.9143302393,
				"z": 5.3372441297,
				"element": "H" 
			},
			{
				"x": 6.6895180503,
				"y": 1.3194262749,
				"z": 3.6537189399,
				"element": "H" 
			},
			{
				"x": 5.0838360063,
				"y": -1.6796889241,
				"z": 2.5328921075,
				"element": "H" 
			},
			{
				"x": 5.2096509043,
				"y": 1.2703661684,
				"z": 1.7535792678,
				"element": "H" 
			},
			{
				"x": 7.1280225856,
				"y": 0.5776373533,
				"z": 0.7231343148,
				"element": "H" 
			},
			{
				"x": 4.7857224062,
				"y": 0.6161696616,
				"z": -0.4788608751,
				"element": "H" 
			},
			{
				"x": 4.326634131,
				"y": -1.6714483457,
				"z": -1.2365572894,
				"element": "H" 
			},
			{
				"x": 5.9834515598,
				"y": -1.5407851335,
				"z": -0.6022702979,
				"element": "H" 
			},
			{
				"x": 4.7412740292,
				"y": -2.3491101734,
				"z": 0.3458590962,
				"element": "H" 
			},
			{
				"x": 2.814847165,
				"y": -1.8615835198,
				"z": 1.4119762537,
				"element": "H" 
			},
			{
				"x": 1.4516784691,
				"y": 1.414290543,
				"z": 1.578506602,
				"element": "H" 
			},
			{
				"x": 1.1829454388,
				"y": 1.4391207107,
				"z": 3.8417175115,
				"element": "H" 
			},
			{
				"x": 0.9636393326,
				"y": -0.7994380791,
				"z": 4.1043621152,
				"element": "H" 
			},
			{
				"x": -0.8039751869,
				"y": 2.3874102347,
				"z": 4.4280202457,
				"element": "H" 
			},
			{
				"x": -2.2113307837,
				"y": 0.5263818699,
				"z": 2.8687208525,
				"element": "H" 
			},
			{
				"x": 0.0488784541,
				"y": 3.3440003975,
				"z": 2.3515308849,
				"element": "H" 
			},
			{
				"x": -1.9746921526,
				"y": 4.4408142514,
				"z": 3.2073715418,
				"element": "H" 
			},
			{
				"x": -2.0768513216,
				"y": 4.3576865647,
				"z": 1.4319549401,
				"element": "H" 
			},
			{
				"x": -3.0056179545,
				"y": 3.2171910406,
				"z": 2.433902195,
				"element": "H" 
			},
			{
				"x": -0.1497997114,
				"y": 0.6690907046,
				"z": -0.0976380369,
				"element": "H" 
			},
			{
				"x": -1.0001016991,
				"y": -1.9861129123,
				"z": 2.7861330694,
				"element": "H" 
			},
			{
				"x": -1.0640344449,
				"y": -4.4468217304,
				"z": 2.2884787246,
				"element": "H" 
			},
			{
				"x": -1.5971027885,
				"y": -5.2090900667,
				"z": -0.0218266071,
				"element": "H" 
			},
			{
				"x": -2.4514931099,
				"y": -5.1637035923,
				"z": -3.2513750723,
				"element": "H" 
			},
			{
				"x": -3.9233675681,
				"y": -0.5732512865,
				"z": -7.1146178958,
				"element": "H" 
			},
			{
				"x": -3.9816524283,
				"y": 1.879538329,
				"z": -6.7255097633,
				"element": "H" 
			},
			{
				"x": -3.7340883171,
				"y": 3.7512842956,
				"z": -5.4468729849,
				"element": "H" 
			},
			{
				"x": -2.4277398158,
				"y": 3.6948538586,
				"z": -4.2396697307,
				"element": "H" 
			},
			{
				"x": -4.084539714,
				"y": 3.5734159616,
				"z": -3.7114427246,
				"element": "H" 
			},
			{
				"x": 3.1990930488,
				"y": 0.659681974,
				"z": 3.0946090641,
				"element": "H" 
			},
			{
				"x": 3.5414985667,
				"y": -1.1549414598,
				"z": 4.6665390569,
				"element": "H" 
			}
		],
		 "valence_orbital": [ 
			{
				"type": "occ",
				"energy": -0.25584,
				"method": "rhf"
			},
			{
				"type": "occ",
				"energy": -0.25046,
				"method": "rhf"
			},
			{
				"type": "occ",
				"energy": -0.24386,
				"method": "rhf"
			},
			{
				"type": "occ",
				"energy": -0.2406,
				"method": "rhf"
			},
			{
				"type": "occ",
				"energy": -0.20073,
				"method": "rhf"
			},
			{
				"type": "unocc",
				"energy": -0.06842,
				"method": "rhf"
			},
			{
				"type": "unocc",
				"energy": -0.06071,
				"method": "rhf"
			},
			{
				"type": "unocc",
				"energy": -0.04203,
				"method": "rhf"
			},
			{
				"type": "unocc",
				"energy": -0.00395,
				"method": "rhf"
			},
			{
				"type": "unocc",
				"energy": 0.02251,
				"method": "rhf"
			}
		],
		"cosmo_sigma_profile": { 
			"-0.025": 0.0,
			"-0.024": 0.0,
			"-0.023": 0.0,
			"-0.022": 0.0,
			"-0.021": 0.0,
			"-0.02": 0.0,
			"-0.019": 0.0,
			"-0.018": 0.0,
			"-0.017": 0.0859392534541,
			"-0.016": 1.14099064235,
			"-0.015": 1.24162684387,
			"-0.014": 0.93047371651,
			"-0.013": 1.83417285288,
			"-0.012": 1.90860895412,
			"-0.011": 1.51777722655,
			"-0.01": 1.01433824207,
			"-0.009": 3.44630438799,
			"-0.008": 8.25730599015,
			"-0.007": 16.7354185782,
			"-0.006": 31.0653607881,
			"-0.005": 43.03457766,
			"-0.004": 47.7893745754,
			"-0.003": 47.4809014264,
			"-0.002": 54.1724931611,
			"-0.001": 54.6447538739,
			"0.0": 51.018442162,
			"0.001": 40.8453864434,
			"0.002": 29.6620991476,
			"0.003": 19.6763458455,
			"0.004": 16.0392366702,
			"0.005": 14.6710554574,
			"0.006": 14.5549637066,
			"0.007": 13.2460546296,
			"0.008": 13.1570623263,
			"0.009": 10.3935665396,
			"0.01": 11.1377877235,
			"0.011": 13.2718436991,
			"0.012": 9.28340044925,
			"0.013": 6.43612979799,
			"0.014": 4.07306463165,
			"0.015": 1.88370427651,
			"0.016": 1.32300456874,
			"0.017": 0.509934751978,
			"0.018": 0.0,
			"0.019": 0.0,
			"0.02": 0.0,
			"0.021": 0.0,
			"0.022": 0.0,
			"0.023": 0.0,
			"0.024": 0.0,
			"0.025": 0.0
		}
	}
}
