{
	 "smiles": "OC1=CC=C(C=C1)N1C=NN=N1", 
	 "Tm": 483.15, 
	 "num_atms": 18, 
	 "gaussian": { 
		 "optdone": 1, 
		 "sigma_profile": "yes", 
		 "theory": "DFT", 
		 "functional": "B3LYP", 
		 "basiset": "6-31G**", 
		 "properties": { 
			 "R2extent": 2463.1857, 
			 "electric_dipole_moment_norm": 6.92804584713, 
			 "electric_quadrupole_moment_norm": 12.6363570807, 
			 "total_energy": -564.522381968, 
			 "HOMO_LUMO_gap": 0.1903, 
			 "cosmo_polarized_energy": -18.97, 
			 "cosmo_cavitation_energy": 23.19, 
			 "cosmo_dispersion_energy": -17.43, 
			 "cosmo_repulsion_energy": 1.35, 
			 "cosmo_total_nonelectrostatic_energy": 7.11, 
			 "SMD_solvation_energy": 3.13 
		},
		"coords": [
			{
				"x": 3.4715467304,
				"y": -2.354085887,
				"z": -0.9177587598,
				"element": "O" 
			},
			{
				"x": 2.4725029861,
				"y": -1.5815726623,
				"z": -0.4087927785,
				"element": "C" 
			},
			{
				"x": 2.709181853,
				"y": -0.3962814079,
				"z": 0.2951522141,
				"element": "C" 
			},
			{
				"x": 1.6419733519,
				"y": 0.3499413515,
				"z": 0.7911943904,
				"element": "C" 
			},
			{
				"x": 0.3320948796,
				"y": -0.086588607,
				"z": 0.5851147919,
				"element": "C" 
			},
			{
				"x": 0.0905240767,
				"y": -1.2728610994,
				"z": -0.1192140667,
				"element": "C" 
			},
			{
				"x": 1.1557100843,
				"y": -2.0141657638,
				"z": -0.6122227912,
				"element": "C" 
			},
			{
				"x": -0.7694594559,
				"y": 0.6663995541,
				"z": 1.0868555951,
				"element": "N" 
			},
			{
				"x": -0.8160318856,
				"y": 1.8239824091,
				"z": 1.7873029225,
				"element": "C" 
			},
			{
				"x": -2.0719209788,
				"y": 2.135312464,
				"z": 2.0292405765,
				"element": "N" 
			},
			{
				"x": -2.8106859373,
				"y": 1.142962503,
				"z": 1.4621209942,
				"element": "N" 
			},
			{
				"x": -2.0538162204,
				"y": 0.2610887688,
				"z": 0.8979993386,
				"element": "N" 
			},
			{
				"x": 4.3272825283,
				"y": -1.954455271,
				"z": -0.7142450249,
				"element": "H" 
			},
			{
				"x": 3.7269884126,
				"y": -0.0509039854,
				"z": 0.4590296484,
				"element": "H" 
			},
			{
				"x": 1.848668439,
				"y": 1.2656533861,
				"z": 1.3339782963,
				"element": "H" 
			},
			{
				"x": -0.9299825496,
				"y": -1.6008688905,
				"z": -0.2725002717,
				"element": "H" 
			},
			{
				"x": 0.9853226809,
				"y": -2.9347709889,
				"z": -1.1595860844,
				"element": "H" 
			},
			{
				"x": 0.0443010048,
				"y": 2.3954141265,
				"z": 2.0950310093,
				"element": "H" 
			}
		],
		 "valence_orbital": [ 
			{
				"type": "occ",
				"energy": -0.30466,
				"method": "rhf"
			},
			{
				"type": "occ",
				"energy": -0.29723,
				"method": "rhf"
			},
			{
				"type": "occ",
				"energy": -0.28431,
				"method": "rhf"
			},
			{
				"type": "occ",
				"energy": -0.27977,
				"method": "rhf"
			},
			{
				"type": "occ",
				"energy": -0.23669,
				"method": "rhf"
			},
			{
				"type": "unocc",
				"energy": -0.04639,
				"method": "rhf"
			},
			{
				"type": "unocc",
				"energy": -0.03067,
				"method": "rhf"
			},
			{
				"type": "unocc",
				"energy": 0.01658,
				"method": "rhf"
			},
			{
				"type": "unocc",
				"energy": 0.03021,
				"method": "rhf"
			},
			{
				"type": "unocc",
				"energy": 0.05091,
				"method": "rhf"
			}
		],
		"cosmo_sigma_profile": { 
			"-0.025": 0.0,
			"-0.024": 0.0,
			"-0.023": 0.0,
			"-0.022": 0.0,
			"-0.021": 0.0,
			"-0.02": 0.0,
			"-0.019": 0.116676001529,
			"-0.018": 0.902545934043,
			"-0.017": 1.3927956455,
			"-0.016": 1.0370244728,
			"-0.015": 1.36177817782,
			"-0.014": 0.823180587374,
			"-0.013": 3.05690050377,
			"-0.012": 2.81343984199,
			"-0.011": 3.70757740166,
			"-0.01": 2.96481138709,
			"-0.009": 2.68091159374,
			"-0.008": 4.15145288247,
			"-0.007": 6.66794295524,
			"-0.006": 8.20827671048,
			"-0.005": 8.54051048105,
			"-0.004": 9.40694973183,
			"-0.003": 9.51165623931,
			"-0.002": 8.67796049155,
			"-0.001": 8.29368116739,
			"0.0": 10.732141059,
			"0.001": 9.60973759124,
			"0.002": 15.0111332012,
			"0.003": 15.0551835117,
			"0.004": 7.42300987239,
			"0.005": 4.36227205492,
			"0.006": 4.64026927416,
			"0.007": 4.56571913937,
			"0.008": 7.24973944335,
			"0.009": 5.84471955408,
			"0.01": 6.6920448257,
			"0.011": 4.42771825754,
			"0.012": 2.6524345873,
			"0.013": 2.40208319101,
			"0.014": 1.72785393717,
			"0.015": 0.521801507217,
			"0.016": 0.0,
			"0.017": 0.0,
			"0.018": 0.0,
			"0.019": 0.0,
			"0.02": 0.0,
			"0.021": 0.0,
			"0.022": 0.0,
			"0.023": 0.0,
			"0.024": 0.0,
			"0.025": 0.0
		}
	}
}
