{
	 "smiles": "CC(O)C1=CC=C(N)C=C1", 
	 "Tm": 343.15, 
	 "num_atms": 21, 
	 "gaussian": { 
		 "optdone": 1, 
		 "sigma_profile": "yes", 
		 "theory": "DFT", 
		 "functional": "B3LYP", 
		 "basiset": "6-31G**", 
		 "properties": { 
			 "R2extent": 2489.4979, 
			 "electric_dipole_moment_norm": 2.67567661349, 
			 "electric_quadrupole_moment_norm": 6.43932321754, 
			 "total_energy": -441.458164316, 
			 "HOMO_LUMO_gap": 0.20145, 
			 "cosmo_polarized_energy": -11.18, 
			 "cosmo_cavitation_energy": 24.1, 
			 "cosmo_dispersion_energy": -17.63, 
			 "cosmo_repulsion_energy": 1.45, 
			 "cosmo_total_nonelectrostatic_energy": 7.92, 
			 "SMD_solvation_energy": 4.15 
		},
		"coords": [
			{
				"x": -0.520770258,
				"y": 1.4292773033,
				"z": -0.8776349675,
				"element": "C" 
			},
			{
				"x": -0.4325793253,
				"y": 0.2041017913,
				"z": -1.7889526846,
				"element": "C" 
			},
			{
				"x": 0.6982783391,
				"y": 0.4252846881,
				"z": -2.6348922479,
				"element": "O" 
			},
			{
				"x": -0.3161880253,
				"y": -1.0973820851,
				"z": -1.0127495058,
				"element": "C" 
			},
			{
				"x": -1.4406415243,
				"y": -1.8841088861,
				"z": -0.7392636079,
				"element": "C" 
			},
			{
				"x": -1.342945361,
				"y": -3.0579552756,
				"z": 0.0036087789,
				"element": "C" 
			},
			{
				"x": -0.0990727587,
				"y": -3.4900402479,
				"z": 0.4941377246,
				"element": "C" 
			},
			{
				"x": 0.0179647694,
				"y": -4.6990420011,
				"z": 1.1852557414,
				"element": "N" 
			},
			{
				"x": 1.0352026035,
				"y": -2.7077428073,
				"z": 0.2144008826,
				"element": "C" 
			},
			{
				"x": 0.9226169464,
				"y": -1.5338991716,
				"z": -0.5242238356,
				"element": "C" 
			},
			{
				"x": -1.4001243726,
				"y": 1.3649307811,
				"z": -0.2303790951,
				"element": "H" 
			},
			{
				"x": 0.3710141177,
				"y": 1.4934729737,
				"z": -0.2468373905,
				"element": "H" 
			},
			{
				"x": -0.5882541116,
				"y": 2.341350086,
				"z": -1.4784809839,
				"element": "H" 
			},
			{
				"x": -1.3529679173,
				"y": 0.1595367499,
				"z": -2.3960838111,
				"element": "H" 
			},
			{
				"x": 0.825036579,
				"y": -0.3762607254,
				"z": -3.1600044285,
				"element": "H" 
			},
			{
				"x": -2.4147806183,
				"y": -1.575254533,
				"z": -1.1132758531,
				"element": "H" 
			},
			{
				"x": -2.2313530448,
				"y": -3.6550547808,
				"z": 0.1959535953,
				"element": "H" 
			},
			{
				"x": 0.8240527922,
				"y": -4.7675401682,
				"z": 1.7913859681,
				"element": "H" 
			},
			{
				"x": -0.8250225108,
				"y": -5.0095396155,
				"z": 1.6486950319,
				"element": "H" 
			},
			{
				"x": 2.0090183362,
				"y": -3.0303019932,
				"z": 0.5760508468,
				"element": "H" 
			},
			{
				"x": 1.8090153444,
				"y": -0.9434320824,
				"z": -0.7378101581,
				"element": "H" 
			}
		],
		 "valence_orbital": [ 
			{
				"type": "occ",
				"energy": -0.31449,
				"method": "rhf"
			},
			{
				"type": "occ",
				"energy": -0.30201,
				"method": "rhf"
			},
			{
				"type": "occ",
				"energy": -0.26236,
				"method": "rhf"
			},
			{
				"type": "occ",
				"energy": -0.2443,
				"method": "rhf"
			},
			{
				"type": "occ",
				"energy": -0.19775,
				"method": "rhf"
			},
			{
				"type": "unocc",
				"energy": 0.0037,
				"method": "rhf"
			},
			{
				"type": "unocc",
				"energy": 0.01654,
				"method": "rhf"
			},
			{
				"type": "unocc",
				"energy": 0.08118,
				"method": "rhf"
			},
			{
				"type": "unocc",
				"energy": 0.09473,
				"method": "rhf"
			},
			{
				"type": "unocc",
				"energy": 0.11197,
				"method": "rhf"
			}
		],
		"cosmo_sigma_profile": { 
			"-0.025": 0.0,
			"-0.024": 0.0,
			"-0.023": 0.0,
			"-0.022": 0.0,
			"-0.021": 0.0,
			"-0.02": 0.0,
			"-0.019": 0.0,
			"-0.018": 0.0,
			"-0.017": 0.0,
			"-0.016": 0.0,
			"-0.015": 0.268230920537,
			"-0.014": 1.21602786799,
			"-0.013": 0.428371522464,
			"-0.012": 3.1221555753,
			"-0.011": 3.58819864572,
			"-0.01": 3.01861712536,
			"-0.009": 3.50687517172,
			"-0.008": 3.96655821193,
			"-0.007": 4.10488680562,
			"-0.006": 4.97444087236,
			"-0.005": 7.43214050554,
			"-0.004": 10.9397614501,
			"-0.003": 16.7353460472,
			"-0.002": 15.887279417,
			"-0.001": 14.3853767774,
			"0.0": 13.2310506649,
			"0.001": 14.1364709215,
			"0.002": 9.32302000076,
			"0.003": 7.82880986756,
			"0.004": 8.07526148118,
			"0.005": 7.68276161636,
			"0.006": 9.71409298654,
			"0.007": 9.02002546222,
			"0.008": 3.05476386557,
			"0.009": 2.22451061752,
			"0.01": 1.7205702014,
			"0.011": 1.33690509394,
			"0.012": 2.5534304176,
			"0.013": 1.94062148219,
			"0.014": 2.60464588194,
			"0.015": 0.860072137158,
			"0.016": 0.0121735814367,
			"0.017": 0.0,
			"0.018": 0.0,
			"0.019": 0.0,
			"0.02": 0.0,
			"0.021": 0.0,
			"0.022": 0.0,
			"0.023": 0.0,
			"0.024": 0.0,
			"0.025": 0.0
		}
	}
}
