{
	 "smiles": "NCCCCCCCCCN", 
	 "Tm": 311.15, 
	 "num_atms": 33, 
	 "gaussian": { 
		 "optdone": 1, 
		 "sigma_profile": "yes", 
		 "theory": "DFT", 
		 "functional": "B3LYP", 
		 "basiset": "6-31G**", 
		 "properties": { 
			 "R2extent": 4295.6534, 
			 "electric_dipole_moment_norm": 1.57367029901, 
			 "electric_quadrupole_moment_norm": 16.3787332086, 
			 "total_energy": -465.727978356, 
			 "HOMO_LUMO_gap": 0.30678, 
			 "cosmo_polarized_energy": -9.4, 
			 "cosmo_cavitation_energy": 33.34, 
			 "cosmo_dispersion_energy": -23.6, 
			 "cosmo_repulsion_energy": 1.99, 
			 "cosmo_total_nonelectrostatic_energy": 11.73, 
			 "SMD_solvation_energy": 2.06 
		},
		"coords": [
			{
				"x": -5.619598259,
				"y": -0.875220997,
				"z": 0.3723183763,
				"element": "N" 
			},
			{
				"x": -4.6181648905,
				"y": -0.2927185656,
				"z": 1.2704296293,
				"element": "C" 
			},
			{
				"x": -3.2372535138,
				"y": 0.0268142667,
				"z": 0.6649860006,
				"element": "C" 
			},
			{
				"x": -3.2777885946,
				"y": 1.0957063641,
				"z": -0.4350815005,
				"element": "C" 
			},
			{
				"x": -1.9156966484,
				"y": 1.5287605784,
				"z": -1.0077643146,
				"element": "C" 
			},
			{
				"x": -1.1300553008,
				"y": 0.4298036564,
				"z": -1.7615684977,
				"element": "C" 
			},
			{
				"x": -0.0940282567,
				"y": -0.3516678448,
				"z": -0.9307276653,
				"element": "C" 
			},
			{
				"x": 1.1562248215,
				"y": 0.4603828109,
				"z": -0.5627979723,
				"element": "C" 
			},
			{
				"x": 2.1784775827,
				"y": -0.3415748123,
				"z": 0.251578743,
				"element": "C" 
			},
			{
				"x": 3.4279571049,
				"y": 0.4619396093,
				"z": 0.6186911264,
				"element": "C" 
			},
			{
				"x": 4.38419934,
				"y": -0.3737475762,
				"z": 1.3536853852,
				"element": "N" 
			},
			{
				"x": -5.2493110784,
				"y": -1.7211301134,
				"z": -0.0566043567,
				"element": "H" 
			},
			{
				"x": -5.8230862603,
				"y": -0.2350509747,
				"z": -0.3911135623,
				"element": "H" 
			},
			{
				"x": -5.048509985,
				"y": 0.6243008983,
				"z": 1.6945957466,
				"element": "H" 
			},
			{
				"x": -4.4863249131,
				"y": -0.9846291998,
				"z": 2.1115522542,
				"element": "H" 
			},
			{
				"x": -2.5696800772,
				"y": 0.3612242217,
				"z": 1.4723215021,
				"element": "H" 
			},
			{
				"x": -2.8033332732,
				"y": -0.9030474289,
				"z": 0.2723704544,
				"element": "H" 
			},
			{
				"x": -3.7833641996,
				"y": 1.9865776042,
				"z": -0.0350035285,
				"element": "H" 
			},
			{
				"x": -3.9057553401,
				"y": 0.738450152,
				"z": -1.2637403035,
				"element": "H" 
			},
			{
				"x": -1.2988851018,
				"y": 1.9425870792,
				"z": -0.1987632107,
				"element": "H" 
			},
			{
				"x": -2.0995124646,
				"y": 2.3650873795,
				"z": -1.6935583334,
				"element": "H" 
			},
			{
				"x": -1.8457483476,
				"y": -0.2769727065,
				"z": -2.2031862447,
				"element": "H" 
			},
			{
				"x": -0.6039789262,
				"y": 0.8840977117,
				"z": -2.6116769084,
				"element": "H" 
			},
			{
				"x": -0.5571839883,
				"y": -0.7358950292,
				"z": -0.0132189099,
				"element": "H" 
			},
			{
				"x": 0.2213210934,
				"y": -1.2349712297,
				"z": -1.5025179057,
				"element": "H" 
			},
			{
				"x": 1.6309224309,
				"y": 0.8238513556,
				"z": -1.4857198048,
				"element": "H" 
			},
			{
				"x": 0.8676387732,
				"y": 1.3575506246,
				"z": 0.0018519239,
				"element": "H" 
			},
			{
				"x": 2.4913488608,
				"y": -1.2345047794,
				"z": -0.3036064304,
				"element": "H" 
			},
			{
				"x": 1.7023408169,
				"y": -0.7051726702,
				"z": 1.1746584579,
				"element": "H" 
			},
			{
				"x": 3.1207821676,
				"y": 1.3762330679,
				"z": 1.1602817131,
				"element": "H" 
			},
			{
				"x": 3.9206292817,
				"y": 0.8009641106,
				"z": -0.3018150363,
				"element": "H" 
			},
			{
				"x": 3.988260668,
				"y": -0.6316426123,
				"z": 2.2555184243,
				"element": "H" 
			},
			{
				"x": 5.2260564774,
				"y": 0.1590150489,
				"z": 1.5587247483,
				"element": "H" 
			}
		],
		 "valence_orbital": [ 
			{
				"type": "occ",
				"energy": -0.30888,
				"method": "rhf"
			},
			{
				"type": "occ",
				"energy": -0.30688,
				"method": "rhf"
			},
			{
				"type": "occ",
				"energy": -0.30441,
				"method": "rhf"
			},
			{
				"type": "occ",
				"energy": -0.22911,
				"method": "rhf"
			},
			{
				"type": "occ",
				"energy": -0.2276,
				"method": "rhf"
			},
			{
				"type": "unocc",
				"energy": 0.07918,
				"method": "rhf"
			},
			{
				"type": "unocc",
				"energy": 0.08502,
				"method": "rhf"
			},
			{
				"type": "unocc",
				"energy": 0.09087,
				"method": "rhf"
			},
			{
				"type": "unocc",
				"energy": 0.10661,
				"method": "rhf"
			},
			{
				"type": "unocc",
				"energy": 0.11138,
				"method": "rhf"
			}
		],
		"cosmo_sigma_profile": { 
			"-0.025": 0.0,
			"-0.024": 0.0,
			"-0.023": 0.0,
			"-0.022": 0.0,
			"-0.021": 0.0,
			"-0.02": 0.0,
			"-0.019": 0.0,
			"-0.018": 0.0,
			"-0.017": 0.0,
			"-0.016": 0.0,
			"-0.015": 0.0,
			"-0.014": 0.0,
			"-0.013": 0.0,
			"-0.012": 0.0,
			"-0.011": 0.0,
			"-0.01": 0.187075477146,
			"-0.009": 3.36742141896,
			"-0.008": 5.25442283299,
			"-0.007": 4.90331702912,
			"-0.006": 6.26453972397,
			"-0.005": 5.79740900378,
			"-0.004": 6.66860895131,
			"-0.003": 8.94190280764,
			"-0.002": 33.6355554001,
			"-0.001": 52.7734717564,
			"0.0": 53.2709554017,
			"0.001": 32.028877036,
			"0.002": 12.5693028481,
			"0.003": 2.99455487928,
			"0.004": 2.25114827907,
			"0.005": 2.08320590288,
			"0.006": 1.99230608336,
			"0.007": 1.31607355632,
			"0.008": 1.62894774152,
			"0.009": 1.53998715506,
			"0.01": 1.3140123688,
			"0.011": 1.78778781857,
			"0.012": 1.01172060867,
			"0.013": 1.97954564613,
			"0.014": 1.17587375196,
			"0.015": 1.16691242285,
			"0.016": 0.801915930801,
			"0.017": 1.46297263545,
			"0.018": 1.57663584372,
			"0.019": 0.964317012857,
			"0.02": 1.05804828136,
			"0.021": 0.187635169203,
			"0.022": 0.0,
			"0.023": 0.0,
			"0.024": 0.0,
			"0.025": 0.0
		}
	}
}
