{
	 "smiles": "COC1=C(OC(F)F)C(Cl)=CC(C=O)=C1", 
	 "Tm": 349.15, 
	 "num_atms": 22, 
	 "gaussian": { 
		 "optdone": 1, 
		 "sigma_profile": "yes", 
		 "theory": "DFT", 
		 "functional": "B3LYP", 
		 "basiset": "6-31G**", 
		 "properties": { 
			 "R2extent": 4868.9766, 
			 "electric_dipole_moment_norm": 5.61857342125, 
			 "electric_quadrupole_moment_norm": 13.6261878844, 
			 "total_energy": -1232.68162134, 
			 "HOMO_LUMO_gap": 0.17391, 
			 "cosmo_polarized_energy": -12.76, 
			 "cosmo_cavitation_energy": 29.97, 
			 "cosmo_dispersion_energy": -20.98, 
			 "cosmo_repulsion_energy": 1.61, 
			 "cosmo_total_nonelectrostatic_energy": 10.61, 
			 "SMD_solvation_energy": 8.03 
		},
		"coords": [
			{
				"x": 1.1815606288,
				"y": -0.3161899703,
				"z": -3.2159817621,
				"element": "C" 
			},
			{
				"x": -0.1484817876,
				"y": -0.2243126069,
				"z": -2.7156332181,
				"element": "O" 
			},
			{
				"x": -0.3804619913,
				"y": -0.604143943,
				"z": -1.4294540108,
				"element": "C" 
			},
			{
				"x": -1.7298469762,
				"y": -0.5398299331,
				"z": -1.0131955635,
				"element": "C" 
			},
			{
				"x": -2.7177668686,
				"y": -0.1984794336,
				"z": -1.9061203392,
				"element": "O" 
			},
			{
				"x": -2.7628748473,
				"y": 1.1218019878,
				"z": -2.3326152806,
				"element": "C" 
			},
			{
				"x": -3.742947947,
				"y": 1.1784984789,
				"z": -3.2474262173,
				"element": "F" 
			},
			{
				"x": -3.0940977293,
				"y": 1.9329202297,
				"z": -1.2953884807,
				"element": "F" 
			},
			{
				"x": -2.0737144437,
				"y": -0.9225854371,
				"z": 0.2897091799,
				"element": "C" 
			},
			{
				"x": -3.74262676,
				"y": -0.8532423076,
				"z": 0.7893755735,
				"element": "Cl" 
			},
			{
				"x": -1.102073287,
				"y": -1.3614660884,
				"z": 1.1841219988,
				"element": "C" 
			},
			{
				"x": 0.2301493216,
				"y": -1.4123910186,
				"z": 0.7687088282,
				"element": "C" 
			},
			{
				"x": 1.277527548,
				"y": -1.8735655313,
				"z": 1.7118677714,
				"element": "C" 
			},
			{
				"x": 1.0680740064,
				"y": -2.2222513061,
				"z": 2.8563908977,
				"element": "O" 
			},
			{
				"x": 0.5949435703,
				"y": -1.0357254717,
				"z": -0.5313766579,
				"element": "C" 
			},
			{
				"x": 1.5523104989,
				"y": -1.3470061706,
				"z": -3.1718634593,
				"element": "H" 
			},
			{
				"x": 1.8641620021,
				"y": 0.3418593548,
				"z": -2.6647172769,
				"element": "H" 
			},
			{
				"x": 1.1303584042,
				"y": 0.0053104165,
				"z": -4.2564371675,
				"element": "H" 
			},
			{
				"x": -1.8191544728,
				"y": 1.4648990674,
				"z": -2.7637814855,
				"element": "H" 
			},
			{
				"x": -1.3597032479,
				"y": -1.6584005867,
				"z": 2.1938224377,
				"element": "H" 
			},
			{
				"x": 2.3073538221,
				"y": -1.8808966961,
				"z": 1.2896294495,
				"element": "H" 
			},
			{
				"x": 1.6368105562,
				"y": -1.0915030339,
				"z": -0.8270352172,
				"element": "H" 
			}
		],
		 "valence_orbital": [ 
			{
				"type": "occ",
				"energy": -0.32751,
				"method": "rhf"
			},
			{
				"type": "occ",
				"energy": -0.31828,
				"method": "rhf"
			},
			{
				"type": "occ",
				"energy": -0.26813,
				"method": "rhf"
			},
			{
				"type": "occ",
				"energy": -0.26361,
				"method": "rhf"
			},
			{
				"type": "occ",
				"energy": -0.25107,
				"method": "rhf"
			},
			{
				"type": "unocc",
				"energy": -0.07716,
				"method": "rhf"
			},
			{
				"type": "unocc",
				"energy": -0.02547,
				"method": "rhf"
			},
			{
				"type": "unocc",
				"energy": 0.01854,
				"method": "rhf"
			},
			{
				"type": "unocc",
				"energy": 0.0258,
				"method": "rhf"
			},
			{
				"type": "unocc",
				"energy": 0.07349,
				"method": "rhf"
			}
		],
		"cosmo_sigma_profile": { 
			"-0.025": 0.0,
			"-0.024": 0.0,
			"-0.023": 0.0,
			"-0.022": 0.0,
			"-0.021": 0.0,
			"-0.02": 0.0,
			"-0.019": 0.0,
			"-0.018": 0.0,
			"-0.017": 0.0,
			"-0.016": 0.0,
			"-0.015": 0.0,
			"-0.014": 0.0,
			"-0.013": 0.0,
			"-0.012": 0.0,
			"-0.011": 0.0,
			"-0.01": 0.621166610436,
			"-0.009": 3.75062918121,
			"-0.008": 5.47515725232,
			"-0.007": 10.6871399195,
			"-0.006": 15.6076931131,
			"-0.005": 13.832439587,
			"-0.004": 14.5524237433,
			"-0.003": 12.6045714095,
			"-0.002": 12.5014916334,
			"-0.001": 17.0020066494,
			"0.0": 22.051016751,
			"0.001": 19.0870429604,
			"0.002": 13.7941454784,
			"0.003": 26.5781375526,
			"0.004": 23.6447825214,
			"0.005": 7.39518561409,
			"0.006": 4.9590828709,
			"0.007": 4.36809057475,
			"0.008": 2.85159848427,
			"0.009": 2.0749081226,
			"0.01": 3.13204871762,
			"0.011": 4.21858667097,
			"0.012": 1.60633578031,
			"0.013": 0.173494057709,
			"0.014": 0.0,
			"0.015": 0.0,
			"0.016": 0.0,
			"0.017": 0.0,
			"0.018": 0.0,
			"0.019": 0.0,
			"0.02": 0.0,
			"0.021": 0.0,
			"0.022": 0.0,
			"0.023": 0.0,
			"0.024": 0.0,
			"0.025": 0.0
		}
	}
}
