{
	 "smiles": "ClC1=CC2=C(SC=C2CC#N)C=C1", 
	 "Tm": 407.15, 
	 "num_atms": 19, 
	 "gaussian": { 
		 "optdone": 1, 
		 "sigma_profile": "yes", 
		 "theory": "DFT", 
		 "functional": "B3LYP", 
		 "basiset": "6-31G**", 
		 "properties": { 
			 "R2extent": 3599.9253, 
			 "electric_dipole_moment_norm": 4.45753482768, 
			 "electric_quadrupole_moment_norm": 17.9466547008, 
			 "total_energy": -1297.79414007, 
			 "HOMO_LUMO_gap": 0.1881, 
			 "cosmo_polarized_energy": -12.49, 
			 "cosmo_cavitation_energy": 27.81, 
			 "cosmo_dispersion_energy": -20.23, 
			 "cosmo_repulsion_energy": 1.55, 
			 "cosmo_total_nonelectrostatic_energy": 9.14, 
			 "SMD_solvation_energy": 5.36 
		},
		"coords": [
			{
				"x": -2.6935296425,
				"y": 1.935661846,
				"z": 2.2573770083,
				"element": "Cl" 
			},
			{
				"x": -1.5075075178,
				"y": 0.7278331436,
				"z": 1.7853782474,
				"element": "C" 
			},
			{
				"x": -0.4318799541,
				"y": 1.1065978272,
				"z": 0.9967803314,
				"element": "C" 
			},
			{
				"x": 0.5076448106,
				"y": 0.1275150052,
				"z": 0.624358171,
				"element": "C" 
			},
			{
				"x": 0.3306310946,
				"y": -1.2049950195,
				"z": 1.0689962791,
				"element": "C" 
			},
			{
				"x": 1.6170640793,
				"y": -2.2477121451,
				"z": 0.4863548232,
				"element": "S" 
			},
			{
				"x": 2.3639805317,
				"y": -0.9032475807,
				"z": -0.3385380539,
				"element": "C" 
			},
			{
				"x": 1.6935523605,
				"y": 0.2714623566,
				"z": -0.1930760681,
				"element": "C" 
			},
			{
				"x": 2.1257328546,
				"y": 1.5692109254,
				"z": -0.8402296868,
				"element": "C" 
			},
			{
				"x": 2.5307904259,
				"y": 2.5999743738,
				"z": 0.1271923847,
				"element": "C" 
			},
			{
				"x": 2.8447988435,
				"y": 3.4144940823,
				"z": 0.891729274,
				"element": "N" 
			},
			{
				"x": -0.7583175376,
				"y": -1.5698593858,
				"z": 1.8663067122,
				"element": "C" 
			},
			{
				"x": -1.6821833001,
				"y": -0.5960040959,
				"z": 2.2239168377,
				"element": "C" 
			},
			{
				"x": -0.3182339596,
				"y": 2.1402223095,
				"z": 0.6898261795,
				"element": "H" 
			},
			{
				"x": 3.2766490991,
				"y": -1.0680105454,
				"z": -0.8964779076,
				"element": "H" 
			},
			{
				"x": 2.9656290291,
				"y": 1.3883222888,
				"z": -1.5189468259,
				"element": "H" 
			},
			{
				"x": 1.3123753758,
				"y": 1.9825790419,
				"z": -1.4512220947,
				"element": "H" 
			},
			{
				"x": -0.886953413,
				"y": -2.5934410085,
				"z": 2.203458998,
				"element": "H" 
			},
			{
				"x": -2.5369431799,
				"y": -0.8480034192,
				"z": 2.8410153903,
				"element": "H" 
			}
		],
		 "valence_orbital": [ 
			{
				"type": "occ",
				"energy": -0.32207,
				"method": "rhf"
			},
			{
				"type": "occ",
				"energy": -0.31708,
				"method": "rhf"
			},
			{
				"type": "occ",
				"energy": -0.29765,
				"method": "rhf"
			},
			{
				"type": "occ",
				"energy": -0.24878,
				"method": "rhf"
			},
			{
				"type": "occ",
				"energy": -0.23608,
				"method": "rhf"
			},
			{
				"type": "unocc",
				"energy": -0.04798,
				"method": "rhf"
			},
			{
				"type": "unocc",
				"energy": -0.02268,
				"method": "rhf"
			},
			{
				"type": "unocc",
				"energy": 0.00125,
				"method": "rhf"
			},
			{
				"type": "unocc",
				"energy": 0.0149,
				"method": "rhf"
			},
			{
				"type": "unocc",
				"energy": 0.02811,
				"method": "rhf"
			}
		],
		"cosmo_sigma_profile": { 
			"-0.025": 0.0,
			"-0.024": 0.0,
			"-0.023": 0.0,
			"-0.022": 0.0,
			"-0.021": 0.0,
			"-0.02": 0.0,
			"-0.019": 0.0,
			"-0.018": 0.0,
			"-0.017": 0.0,
			"-0.016": 0.0,
			"-0.015": 0.0,
			"-0.014": 0.0,
			"-0.013": 0.0,
			"-0.012": 0.0,
			"-0.011": 0.0,
			"-0.01": 2.08814935911,
			"-0.009": 10.151993086,
			"-0.008": 10.2861182381,
			"-0.007": 11.0997485635,
			"-0.006": 11.2636078114,
			"-0.005": 9.54878665074,
			"-0.004": 8.38872335501,
			"-0.003": 7.82644060426,
			"-0.002": 9.67497999048,
			"-0.001": 11.146650479,
			"0.0": 13.6348554948,
			"0.001": 23.6926409698,
			"0.002": 29.3727573735,
			"0.003": 24.4501463581,
			"0.004": 15.55151698,
			"0.005": 9.43362005918,
			"0.006": 2.84748643441,
			"0.007": 1.96351916065,
			"0.008": 3.55462047657,
			"0.009": 3.06687023877,
			"0.01": 3.48044547958,
			"0.011": 2.57676188148,
			"0.012": 2.61481321454,
			"0.013": 1.62920834915,
			"0.014": 0.149785106863,
			"0.015": 0.0,
			"0.016": 0.0,
			"0.017": 0.0,
			"0.018": 0.0,
			"0.019": 0.0,
			"0.02": 0.0,
			"0.021": 0.0,
			"0.022": 0.0,
			"0.023": 0.0,
			"0.024": 0.0,
			"0.025": 0.0
		}
	}
}
