{
	 "smiles": "FC1=CC2=C(OCCC2=O)C=C1", 
	 "Tm": 388.15, 
	 "num_atms": 19, 
	 "gaussian": { 
		 "optdone": 1, 
		 "sigma_profile": "yes", 
		 "theory": "DFT", 
		 "functional": "B3LYP", 
		 "basiset": "6-31G**", 
		 "properties": { 
			 "R2extent": 2259.2569, 
			 "electric_dipole_moment_norm": 3.17097848936, 
			 "electric_quadrupole_moment_norm": 5.24399380244, 
			 "total_energy": -597.45308011, 
			 "HOMO_LUMO_gap": 0.16653, 
			 "cosmo_polarized_energy": -8.8, 
			 "cosmo_cavitation_energy": 23.28, 
			 "cosmo_dispersion_energy": -17.46, 
			 "cosmo_repulsion_energy": 1.36, 
			 "cosmo_total_nonelectrostatic_energy": 7.18, 
			 "SMD_solvation_energy": 5.09 
		},
		"coords": [
			{
				"x": -2.1811699723,
				"y": 0.8166238047,
				"z": 3.8327497512,
				"element": "F" 
			},
			{
				"x": -1.761683728,
				"y": 0.8501449399,
				"z": 2.5496840789,
				"element": "C" 
			},
			{
				"x": -0.692648637,
				"y": 0.0702916625,
				"z": 2.1574830519,
				"element": "C" 
			},
			{
				"x": -0.2631196808,
				"y": 0.1161241963,
				"z": 0.8201677972,
				"element": "C" 
			},
			{
				"x": -0.9386178589,
				"y": 0.9421177066,
				"z": -0.1012306471,
				"element": "C" 
			},
			{
				"x": -0.5831365678,
				"y": 1.0258929944,
				"z": -1.4143501602,
				"element": "O" 
			},
			{
				"x": 0.1752449688,
				"y": -0.0845675963,
				"z": -1.9169980828,
				"element": "C" 
			},
			{
				"x": 1.3788933107,
				"y": -0.3908037081,
				"z": -1.0336333131,
				"element": "C" 
			},
			{
				"x": 0.939042488,
				"y": -0.6464951832,
				"z": 0.4025260851,
				"element": "C" 
			},
			{
				"x": 1.5530222784,
				"y": -1.3851106293,
				"z": 1.1555601296,
				"element": "O" 
			},
			{
				"x": -2.0159277843,
				"y": 1.7321278988,
				"z": 0.3230287689,
				"element": "C" 
			},
			{
				"x": -2.4259550034,
				"y": 1.6888175394,
				"z": 1.6497457113,
				"element": "C" 
			},
			{
				"x": -0.1665553673,
				"y": -0.565744791,
				"z": 2.8605416673,
				"element": "H" 
			},
			{
				"x": -0.4863470912,
				"y": -0.9608061386,
				"z": -1.9788494026,
				"element": "H" 
			},
			{
				"x": 0.4712319574,
				"y": 0.1979089836,
				"z": -2.9291520892,
				"element": "H" 
			},
			{
				"x": 2.0641548014,
				"y": 0.4679437181,
				"z": -1.0283900321,
				"element": "H" 
			},
			{
				"x": 1.9355933189,
				"y": -1.2572676198,
				"z": -1.4009098304,
				"element": "H" 
			},
			{
				"x": -2.5203331048,
				"y": 2.3620174729,
				"z": -0.4015554084,
				"element": "H" 
			},
			{
				"x": -3.2598883278,
				"y": 2.2881847491,
				"z": 1.9993819244,
				"element": "H" 
			}
		],
		 "valence_orbital": [ 
			{
				"type": "occ",
				"energy": -0.3417,
				"method": "rhf"
			},
			{
				"type": "occ",
				"energy": -0.32052,
				"method": "rhf"
			},
			{
				"type": "occ",
				"energy": -0.27116,
				"method": "rhf"
			},
			{
				"type": "occ",
				"energy": -0.25371,
				"method": "rhf"
			},
			{
				"type": "occ",
				"energy": -0.23147,
				"method": "rhf"
			},
			{
				"type": "unocc",
				"energy": -0.06494,
				"method": "rhf"
			},
			{
				"type": "unocc",
				"energy": -0.00368,
				"method": "rhf"
			},
			{
				"type": "unocc",
				"energy": 0.03467,
				"method": "rhf"
			},
			{
				"type": "unocc",
				"energy": 0.08682,
				"method": "rhf"
			},
			{
				"type": "unocc",
				"energy": 0.09633,
				"method": "rhf"
			}
		],
		"cosmo_sigma_profile": { 
			"-0.025": 0.0,
			"-0.024": 0.0,
			"-0.023": 0.0,
			"-0.022": 0.0,
			"-0.021": 0.0,
			"-0.02": 0.0,
			"-0.019": 0.0,
			"-0.018": 0.0,
			"-0.017": 0.0,
			"-0.016": 0.0,
			"-0.015": 0.0,
			"-0.014": 0.0,
			"-0.013": 0.0,
			"-0.012": 0.0,
			"-0.011": 0.0,
			"-0.01": 0.0,
			"-0.009": 0.0533006864854,
			"-0.008": 1.92479317123,
			"-0.007": 8.68012862514,
			"-0.006": 18.1425054657,
			"-0.005": 17.0518249722,
			"-0.004": 12.1119573806,
			"-0.003": 10.2511245726,
			"-0.002": 9.22028932483,
			"-0.001": 8.23526143134,
			"0.0": 13.5550394186,
			"0.001": 20.8823734011,
			"0.002": 15.774518116,
			"0.003": 9.16614286298,
			"0.004": 12.3185017998,
			"0.005": 6.24831113113,
			"0.006": 2.61129967298,
			"0.007": 2.4826385999,
			"0.008": 3.19049030716,
			"0.009": 2.83772426735,
			"0.01": 2.94751440379,
			"0.011": 3.23432380225,
			"0.012": 4.16532316543,
			"0.013": 1.18124164356,
			"0.014": 0.017182782945,
			"0.015": 0.0,
			"0.016": 0.0,
			"0.017": 0.0,
			"0.018": 0.0,
			"0.019": 0.0,
			"0.02": 0.0,
			"0.021": 0.0,
			"0.022": 0.0,
			"0.023": 0.0,
			"0.024": 0.0,
			"0.025": 0.0
		}
	}
}
