{
	 "smiles": "CNC1=C(C=CC(F)=C1)[N+]([O-])=O", 
	 "Tm": 384.15, 
	 "num_atms": 19, 
	 "gaussian": { 
		 "optdone": 1, 
		 "sigma_profile": "yes", 
		 "theory": "DFT", 
		 "functional": "B3LYP", 
		 "basiset": "6-31G**", 
		 "properties": { 
			 "R2extent": 2401.4888, 
			 "electric_dipole_moment_norm": 3.72900821265, 
			 "electric_quadrupole_moment_norm": 17.8199735078, 
			 "total_energy": -630.654726851, 
			 "HOMO_LUMO_gap": 0.14216, 
			 "cosmo_polarized_energy": -9.02, 
			 "cosmo_cavitation_energy": 23.76, 
			 "cosmo_dispersion_energy": -17.71, 
			 "cosmo_repulsion_energy": 1.38, 
			 "cosmo_total_nonelectrostatic_energy": 7.42, 
			 "SMD_solvation_energy": 6.14 
		},
		"coords": [
			{
				"x": 3.9914832566,
				"y": -0.3768717039,
				"z": 0.7686696666,
				"element": "C" 
			},
			{
				"x": 2.6840423565,
				"y": -0.6711916318,
				"z": 0.2232741316,
				"element": "N" 
			},
			{
				"x": 1.5949855093,
				"y": 0.1170603164,
				"z": 0.382475226,
				"element": "C" 
			},
			{
				"x": 0.3106973299,
				"y": -0.2013090967,
				"z": -0.1714404704,
				"element": "C" 
			},
			{
				"x": -0.7922528286,
				"y": 0.6459482903,
				"z": 0.0191105835,
				"element": "C" 
			},
			{
				"x": -0.6860858914,
				"y": 1.8159972105,
				"z": 0.7447410628,
				"element": "C" 
			},
			{
				"x": 0.5682310451,
				"y": 2.1232624939,
				"z": 1.283470948,
				"element": "C" 
			},
			{
				"x": 0.6988523952,
				"y": 3.2566493856,
				"z": 1.9943440744,
				"element": "F" 
			},
			{
				"x": 1.6800063696,
				"y": 1.3230051783,
				"z": 1.1234503214,
				"element": "C" 
			},
			{
				"x": 0.0813295527,
				"y": -1.3973716682,
				"z": -0.9476735873,
				"element": "N" 
			},
			{
				"x": 1.0323040747,
				"y": -2.1832864389,
				"z": -1.144483377,
				"element": "O" 
			},
			{
				"x": -1.047739513,
				"y": -1.6079578839,
				"z": -1.3936840815,
				"element": "O" 
			},
			{
				"x": 3.9758785858,
				"y": -0.3178616993,
				"z": 1.8647558235,
				"element": "H" 
			},
			{
				"x": 4.396224724,
				"y": 0.5665349859,
				"z": 0.3797150548,
				"element": "H" 
			},
			{
				"x": 4.6711511948,
				"y": -1.1808502548,
				"z": 0.4822800179,
				"element": "H" 
			},
			{
				"x": 2.5249413817,
				"y": -1.5106447786,
				"z": -0.320975969,
				"element": "H" 
			},
			{
				"x": -1.7323744352,
				"y": 0.3464661143,
				"z": -0.4257834817,
				"element": "H" 
			},
			{
				"x": -1.5274703551,
				"y": 2.479518992,
				"z": 0.9006389274,
				"element": "H" 
			},
			{
				"x": 2.6137952474,
				"y": 1.6332021889,
				"z": 1.5730151292,
				"element": "H" 
			}
		],
		 "valence_orbital": [ 
			{
				"type": "occ",
				"energy": -0.30482,
				"method": "rhf"
			},
			{
				"type": "occ",
				"energy": -0.30225,
				"method": "rhf"
			},
			{
				"type": "occ",
				"energy": -0.28534,
				"method": "rhf"
			},
			{
				"type": "occ",
				"energy": -0.27034,
				"method": "rhf"
			},
			{
				"type": "occ",
				"energy": -0.2245,
				"method": "rhf"
			},
			{
				"type": "unocc",
				"energy": -0.08234,
				"method": "rhf"
			},
			{
				"type": "unocc",
				"energy": -0.01089,
				"method": "rhf"
			},
			{
				"type": "unocc",
				"energy": 0.01119,
				"method": "rhf"
			},
			{
				"type": "unocc",
				"energy": 0.07654,
				"method": "rhf"
			},
			{
				"type": "unocc",
				"energy": 0.09541,
				"method": "rhf"
			}
		],
		"cosmo_sigma_profile": { 
			"-0.025": 0.0,
			"-0.024": 0.0,
			"-0.023": 0.0,
			"-0.022": 0.0,
			"-0.021": 0.0,
			"-0.02": 0.0,
			"-0.019": 0.0,
			"-0.018": 0.0,
			"-0.017": 0.0,
			"-0.016": 0.0,
			"-0.015": 0.0,
			"-0.014": 0.0,
			"-0.013": 0.0,
			"-0.012": 0.0,
			"-0.011": 0.368802149833,
			"-0.01": 0.483819818967,
			"-0.009": 1.46563796354,
			"-0.008": 2.68878383429,
			"-0.007": 6.24053669161,
			"-0.006": 9.64760187622,
			"-0.005": 13.586302595,
			"-0.004": 12.2007047752,
			"-0.003": 14.7408646171,
			"-0.002": 13.9220011639,
			"-0.001": 14.4672081414,
			"0.0": 20.3086074957,
			"0.001": 18.3247105744,
			"0.002": 13.4477544997,
			"0.003": 11.988988986,
			"0.004": 8.67505253361,
			"0.005": 2.16551475842,
			"0.006": 3.40057940593,
			"0.007": 3.35194395443,
			"0.008": 5.75704955758,
			"0.009": 5.3782478083,
			"0.01": 4.10019301973,
			"0.011": 3.21892523079,
			"0.012": 0.347139057356,
			"0.013": 0.0,
			"0.014": 0.0,
			"0.015": 0.0,
			"0.016": 0.0,
			"0.017": 0.0,
			"0.018": 0.0,
			"0.019": 0.0,
			"0.02": 0.0,
			"0.021": 0.0,
			"0.022": 0.0,
			"0.023": 0.0,
			"0.024": 0.0,
			"0.025": 0.0
		}
	}
}
