{
	 "smiles": "CCOCCN1C(=O)NC(=O)C=C1N", 
	 "Tm": 531.15, 
	 "num_atms": 27, 
	 "gaussian": { 
		 "optdone": 1, 
		 "sigma_profile": "yes", 
		 "theory": "DFT", 
		 "functional": "B3LYP", 
		 "basiset": "6-31G**", 
		 "properties": { 
			 "R2extent": 3831.0586, 
			 "electric_dipole_moment_norm": 6.90291883988, 
			 "electric_quadrupole_moment_norm": 20.1168441071, 
			 "total_energy": -702.651309301, 
			 "HOMO_LUMO_gap": 0.20931, 
			 "cosmo_polarized_energy": -18.92, 
			 "cosmo_cavitation_energy": 30.08, 
			 "cosmo_dispersion_energy": -21.84, 
			 "cosmo_repulsion_energy": 1.74, 
			 "cosmo_total_nonelectrostatic_energy": 9.98, 
			 "SMD_solvation_energy": 6.67 
		},
		"coords": [
			{
				"x": 2.6534663841,
				"y": 2.6365187002,
				"z": -0.7654181661,
				"element": "C" 
			},
			{
				"x": 1.2672303578,
				"y": 2.3701749559,
				"z": -0.1858982132,
				"element": "C" 
			},
			{
				"x": 1.1299382237,
				"y": 1.0646819364,
				"z": 0.3768571279,
				"element": "O" 
			},
			{
				"x": 1.0144184994,
				"y": 0.0052105933,
				"z": -0.5671857956,
				"element": "C" 
			},
			{
				"x": 0.574803445,
				"y": -1.2605725085,
				"z": 0.1580447207,
				"element": "C" 
			},
			{
				"x": -0.8113538428,
				"y": -1.2211839863,
				"z": 0.6465974807,
				"element": "N" 
			},
			{
				"x": -1.7764987508,
				"y": -1.7829334873,
				"z": -0.2087435391,
				"element": "C" 
			},
			{
				"x": -1.4973010551,
				"y": -2.1509292572,
				"z": -1.3421324421,
				"element": "O" 
			},
			{
				"x": -3.0327526924,
				"y": -1.8929940025,
				"z": 0.3331361352,
				"element": "N" 
			},
			{
				"x": -3.4588461278,
				"y": -1.5137190114,
				"z": 1.6313734098,
				"element": "C" 
			},
			{
				"x": -4.624792133,
				"y": -1.6915248361,
				"z": 1.9583406728,
				"element": "O" 
			},
			{
				"x": -2.4137405092,
				"y": -0.9117215484,
				"z": 2.4140449671,
				"element": "C" 
			},
			{
				"x": -1.1434342893,
				"y": -0.7690893612,
				"z": 1.9227957515,
				"element": "C" 
			},
			{
				"x": -0.1062618414,
				"y": -0.2293300224,
				"z": 2.6509383812,
				"element": "N" 
			},
			{
				"x": 3.4250185184,
				"y": 2.4687354695,
				"z": -0.0080158896,
				"element": "H" 
			},
			{
				"x": 2.7230106503,
				"y": 3.6757147798,
				"z": -1.1034538035,
				"element": "H" 
			},
			{
				"x": 2.8683506324,
				"y": 1.9942921625,
				"z": -1.6248432508,
				"element": "H" 
			},
			{
				"x": 1.0625030281,
				"y": 3.061332484,
				"z": 0.637661966,
				"element": "H" 
			},
			{
				"x": 0.4902067262,
				"y": 2.523424308,
				"z": -0.9499632909,
				"element": "H" 
			},
			{
				"x": 0.2807782427,
				"y": 0.2594828167,
				"z": -1.3452101695,
				"element": "H" 
			},
			{
				"x": 1.979058985,
				"y": -0.1902667885,
				"z": -1.058127499,
				"element": "H" 
			},
			{
				"x": 0.6323768707,
				"y": -2.0939068631,
				"z": -0.5429201371,
				"element": "H" 
			},
			{
				"x": 1.2336616511,
				"y": -1.4603116484,
				"z": 1.0061892816,
				"element": "H" 
			},
			{
				"x": -3.7358230198,
				"y": -2.3001215269,
				"z": -0.2704227343,
				"element": "H" 
			},
			{
				"x": -2.6703500586,
				"y": -0.5345001671,
				"z": 3.3949437449,
				"element": "H" 
			},
			{
				"x": 0.5136420642,
				"y": 0.3790499843,
				"z": 2.1187369403,
				"element": "H" 
			},
			{
				"x": -0.3986099588,
				"y": 0.1646868246,
				"z": 3.5341743509,
				"element": "H" 
			}
		],
		 "valence_orbital": [ 
			{
				"type": "occ",
				"energy": -0.282,
				"method": "rhf"
			},
			{
				"type": "occ",
				"energy": -0.27786,
				"method": "rhf"
			},
			{
				"type": "occ",
				"energy": -0.2675,
				"method": "rhf"
			},
			{
				"type": "occ",
				"energy": -0.24145,
				"method": "rhf"
			},
			{
				"type": "occ",
				"energy": -0.21604,
				"method": "rhf"
			},
			{
				"type": "unocc",
				"energy": -0.00673,
				"method": "rhf"
			},
			{
				"type": "unocc",
				"energy": 0.02414,
				"method": "rhf"
			},
			{
				"type": "unocc",
				"energy": 0.07009,
				"method": "rhf"
			},
			{
				"type": "unocc",
				"energy": 0.08085,
				"method": "rhf"
			},
			{
				"type": "unocc",
				"energy": 0.09693,
				"method": "rhf"
			}
		],
		"cosmo_sigma_profile": { 
			"-0.025": 0.0,
			"-0.024": 0.0,
			"-0.023": 0.0,
			"-0.022": 0.0,
			"-0.021": 0.0,
			"-0.02": 0.0,
			"-0.019": 0.0,
			"-0.018": 0.0,
			"-0.017": 0.0,
			"-0.016": 0.0251143970375,
			"-0.015": 0.646806718487,
			"-0.014": 2.25322768248,
			"-0.013": 2.31602511206,
			"-0.012": 1.29167176182,
			"-0.011": 2.24230717461,
			"-0.01": 2.78773035467,
			"-0.009": 2.71517835891,
			"-0.008": 3.01797088621,
			"-0.007": 2.71330367106,
			"-0.006": 6.47788454537,
			"-0.005": 14.3530639591,
			"-0.004": 24.2931597823,
			"-0.003": 28.511813613,
			"-0.002": 22.2646588786,
			"-0.001": 18.0868169297,
			"0.0": 18.9595990098,
			"0.001": 12.7838896542,
			"0.002": 9.00910623548,
			"0.003": 7.75696515705,
			"0.004": 8.033457807,
			"0.005": 5.00762886134,
			"0.006": 3.48761338881,
			"0.007": 3.70201640424,
			"0.008": 2.8843462719,
			"0.009": 2.71959553414,
			"0.01": 3.76259442839,
			"0.011": 2.78867497128,
			"0.012": 4.89257684886,
			"0.013": 7.63213840371,
			"0.014": 6.8152254074,
			"0.015": 2.13807283031,
			"0.016": 0.118981380653,
			"0.017": 0.0,
			"0.018": 0.0,
			"0.019": 0.0,
			"0.02": 0.0,
			"0.021": 0.0,
			"0.022": 0.0,
			"0.023": 0.0,
			"0.024": 0.0,
			"0.025": 0.0
		}
	}
}
