{
	 "smiles": "NC(=S)NC1=CC2=C(CCC2)C=C1", 
	 "Tm": 453.15, 
	 "num_atms": 25, 
	 "gaussian": { 
		 "optdone": 1, 
		 "sigma_profile": "yes", 
		 "theory": "DFT", 
		 "functional": "B3LYP", 
		 "basiset": "6-31G**", 
		 "properties": { 
			 "R2extent": 3866.7644, 
			 "electric_dipole_moment_norm": 6.34202996366, 
			 "electric_quadrupole_moment_norm": 22.998057334, 
			 "total_energy": -896.017408423, 
			 "HOMO_LUMO_gap": 0.17531, 
			 "cosmo_polarized_energy": -16.25, 
			 "cosmo_cavitation_energy": 29.38, 
			 "cosmo_dispersion_energy": -22.4, 
			 "cosmo_repulsion_energy": 1.76, 
			 "cosmo_total_nonelectrostatic_energy": 8.73, 
			 "SMD_solvation_energy": 3.39 
		},
		"coords": [
			{
				"x": -0.2534148574,
				"y": -3.2882805041,
				"z": -1.1115600093,
				"element": "N" 
			},
			{
				"x": -0.5510067498,
				"y": -3.1990361885,
				"z": 0.2119301177,
				"element": "C" 
			},
			{
				"x": -1.1246999127,
				"y": -4.5124941276,
				"z": 1.0932087144,
				"element": "S" 
			},
			{
				"x": -0.3541677821,
				"y": -1.9860003294,
				"z": 0.8143157495,
				"element": "N" 
			},
			{
				"x": 0.1291721509,
				"y": -0.7677591068,
				"z": 0.2713002847,
				"element": "C" 
			},
			{
				"x": -0.5133509669,
				"y": 0.426038134,
				"z": 0.6408374827,
				"element": "C" 
			},
			{
				"x": -0.0361264485,
				"y": 1.6373793049,
				"z": 0.1535388675,
				"element": "C" 
			},
			{
				"x": 1.0689327383,
				"y": 1.6781627576,
				"z": -0.7107521262,
				"element": "C" 
			},
			{
				"x": 1.3915302422,
				"y": 3.1077208922,
				"z": -1.0918622069,
				"element": "C" 
			},
			{
				"x": 0.0963469192,
				"y": 3.8712766931,
				"z": -0.7133782435,
				"element": "C" 
			},
			{
				"x": -0.547171709,
				"y": 3.0372710917,
				"z": 0.4238426004,
				"element": "C" 
			},
			{
				"x": 1.7116357787,
				"y": 0.4967802676,
				"z": -1.0710623261,
				"element": "C" 
			},
			{
				"x": 1.2518614638,
				"y": -0.7255468254,
				"z": -0.5721864973,
				"element": "C" 
			},
			{
				"x": -0.5405034157,
				"y": -4.1420641287,
				"z": -1.5634697075,
				"element": "H" 
			},
			{
				"x": -0.1693446138,
				"y": -2.4543570315,
				"z": -1.6766421647,
				"element": "H" 
			},
			{
				"x": -0.6950230342,
				"y": -1.9666616861,
				"z": 1.7655433551,
				"element": "H" 
			},
			{
				"x": -1.3840894888,
				"y": 0.386213544,
				"z": 1.2907542223,
				"element": "H" 
			},
			{
				"x": 1.660033618,
				"y": 3.2247787864,
				"z": -2.147078916,
				"element": "H" 
			},
			{
				"x": 2.2471158944,
				"y": 3.4730532731,
				"z": -0.5060383839,
				"element": "H" 
			},
			{
				"x": -0.5790593459,
				"y": 3.8853697553,
				"z": -1.5760143934,
				"element": "H" 
			},
			{
				"x": 0.2824948045,
				"y": 4.9096151394,
				"z": -0.4260394441,
				"element": "H" 
			},
			{
				"x": -0.1983007387,
				"y": 3.3804309344,
				"z": 1.4081697998,
				"element": "H" 
			},
			{
				"x": -1.6400170729,
				"y": 3.104228914,
				"z": 0.435829094,
				"element": "H" 
			},
			{
				"x": 2.5795294885,
				"y": 0.5135414187,
				"z": -1.7252595855,
				"element": "H" 
			},
			{
				"x": 1.7772230377,
				"y": -1.6432609783,
				"z": -0.8129262836,
				"element": "H" 
			}
		],
		 "valence_orbital": [ 
			{
				"type": "occ",
				"energy": -0.29323,
				"method": "rhf"
			},
			{
				"type": "occ",
				"energy": -0.25955,
				"method": "rhf"
			},
			{
				"type": "occ",
				"energy": -0.23902,
				"method": "rhf"
			},
			{
				"type": "occ",
				"energy": -0.20482,
				"method": "rhf"
			},
			{
				"type": "occ",
				"energy": -0.20136,
				"method": "rhf"
			},
			{
				"type": "unocc",
				"energy": -0.02605,
				"method": "rhf"
			},
			{
				"type": "unocc",
				"energy": -0.01815,
				"method": "rhf"
			},
			{
				"type": "unocc",
				"energy": 0.02043,
				"method": "rhf"
			},
			{
				"type": "unocc",
				"energy": 0.07389,
				"method": "rhf"
			},
			{
				"type": "unocc",
				"energy": 0.08896,
				"method": "rhf"
			}
		],
		"cosmo_sigma_profile": { 
			"-0.025": 0.0,
			"-0.024": 0.0,
			"-0.023": 0.0,
			"-0.022": 0.0,
			"-0.021": 0.0,
			"-0.02": 0.0,
			"-0.019": 0.0,
			"-0.018": 0.0,
			"-0.017": 0.0,
			"-0.016": 0.0,
			"-0.015": 0.137047368082,
			"-0.014": 1.9991791876,
			"-0.013": 2.90958694974,
			"-0.012": 2.92810559725,
			"-0.011": 3.04116208792,
			"-0.01": 2.95060304426,
			"-0.009": 3.32370890996,
			"-0.008": 2.79015775008,
			"-0.007": 3.29262032097,
			"-0.006": 6.2500519861,
			"-0.005": 7.7137761223,
			"-0.004": 13.5610908804,
			"-0.003": 21.5607419509,
			"-0.002": 26.5056093503,
			"-0.001": 22.7432153984,
			"0.0": 21.7423097169,
			"0.001": 15.3011794488,
			"0.002": 8.81752767653,
			"0.003": 9.97063978068,
			"0.004": 11.0963140584,
			"0.005": 10.1777653477,
			"0.006": 4.89095301302,
			"0.007": 2.90861888413,
			"0.008": 3.27637929121,
			"0.009": 4.43540116482,
			"0.01": 4.05625535301,
			"0.011": 7.18043554318,
			"0.012": 7.81104019166,
			"0.013": 1.63360196265,
			"0.014": 0.0,
			"0.015": 0.0,
			"0.016": 0.0,
			"0.017": 0.0,
			"0.018": 0.0,
			"0.019": 0.0,
			"0.02": 0.0,
			"0.021": 0.0,
			"0.022": 0.0,
			"0.023": 0.0,
			"0.024": 0.0,
			"0.025": 0.0
		}
	}
}
