{
	 "smiles": "CC1CC(CC(C)(C)C1)C(O)=O", 
	 "Tm": 313.15, 
	 "num_atms": 30, 
	 "gaussian": { 
		 "optdone": 1, 
		 "sigma_profile": "yes", 
		 "theory": "DFT", 
		 "functional": "B3LYP", 
		 "basiset": "6-31G**", 
		 "properties": { 
			 "R2extent": 2399.7349, 
			 "electric_dipole_moment_norm": 1.36774090383, 
			 "electric_quadrupole_moment_norm": 7.89398737458, 
			 "total_energy": -542.393828498, 
			 "HOMO_LUMO_gap": 0.27881, 
			 "cosmo_polarized_energy": -7.59, 
			 "cosmo_cavitation_energy": 28.93, 
			 "cosmo_dispersion_energy": -20.72, 
			 "cosmo_repulsion_energy": 1.63, 
			 "cosmo_total_nonelectrostatic_energy": 9.84, 
			 "SMD_solvation_energy": 5.64 
		},
		"coords": [
			{
				"x": -0.0575822692,
				"y": -0.1601799131,
				"z": -2.2282057843,
				"element": "C" 
			},
			{
				"x": 0.8919101208,
				"y": 0.4469346898,
				"z": -1.1793488554,
				"element": "C" 
			},
			{
				"x": 0.1774804816,
				"y": 1.4497232686,
				"z": -0.2584080727,
				"element": "C" 
			},
			{
				"x": -0.8492724891,
				"y": 0.7846934602,
				"z": 0.6820270659,
				"element": "C" 
			},
			{
				"x": -0.4714254993,
				"y": -0.6833254905,
				"z": 1.0619741771,
				"element": "C" 
			},
			{
				"x": 1.042782153,
				"y": -0.9877639486,
				"z": 1.0449855266,
				"element": "C" 
			},
			{
				"x": 1.2400156744,
				"y": -2.4928263144,
				"z": 1.3124630581,
				"element": "C" 
			},
			{
				"x": 1.7634161053,
				"y": -0.2088698813,
				"z": 2.1676694474,
				"element": "C" 
			},
			{
				"x": 1.645962114,
				"y": -0.6361212124,
				"z": -0.3547907958,
				"element": "C" 
			},
			{
				"x": -1.0823658889,
				"y": 1.6373304011,
				"z": 1.9195190807,
				"element": "C" 
			},
			{
				"x": -2.1918047937,
				"y": 1.2390424154,
				"z": 2.5943730947,
				"element": "O" 
			},
			{
				"x": -0.402115515,
				"y": 2.565205654,
				"z": 2.3039860575,
				"element": "O" 
			},
			{
				"x": -0.5434825302,
				"y": 0.6263069862,
				"z": -2.8170213057,
				"element": "H" 
			},
			{
				"x": -0.84780968,
				"y": -0.7697459119,
				"z": -1.7772724567,
				"element": "H" 
			},
			{
				"x": 0.4920667469,
				"y": -0.8042079295,
				"z": -2.9233568104,
				"element": "H" 
			},
			{
				"x": 1.6459593495,
				"y": 1.0143841094,
				"z": -1.7399901521,
				"element": "H" 
			},
			{
				"x": -0.3244048237,
				"y": 2.2174753281,
				"z": -0.8590715439,
				"element": "H" 
			},
			{
				"x": 0.9163711977,
				"y": 1.9824098099,
				"z": 0.3464828156,
				"element": "H" 
			},
			{
				"x": -1.8268671435,
				"y": 0.7346053523,
				"z": 0.1885114646,
				"element": "H" 
			},
			{
				"x": -0.890071529,
				"y": -0.9298165547,
				"z": 2.0438157349,
				"element": "H" 
			},
			{
				"x": -0.964936909,
				"y": -1.3559107635,
				"z": 0.3518011941,
				"element": "H" 
			},
			{
				"x": 0.8662867115,
				"y": -2.7731081792,
				"z": 2.3042274278,
				"element": "H" 
			},
			{
				"x": 0.7131380808,
				"y": -3.1022408403,
				"z": 0.5694206469,
				"element": "H" 
			},
			{
				"x": 2.3022174305,
				"y": -2.7598507475,
				"z": 1.2698405627,
				"element": "H" 
			},
			{
				"x": 2.8300914879,
				"y": -0.4601505587,
				"z": 2.1815834153,
				"element": "H" 
			},
			{
				"x": 1.6780323901,
				"y": 0.8746237142,
				"z": 2.0587634734,
				"element": "H" 
			},
			{
				"x": 1.3496348964,
				"y": -0.473124506,
				"z": 3.1482597107,
				"element": "H" 
			},
			{
				"x": 1.7008037937,
				"y": -1.5499240042,
				"z": -0.9592276582,
				"element": "H" 
			},
			{
				"x": 2.6846371285,
				"y": -0.3173159344,
				"z": -0.2065877644,
				"element": "H" 
			},
			{
				"x": -2.253266792,
				"y": 1.818847501,
				"z": 3.3719772457,
				"element": "H" 
			}
		],
		 "valence_orbital": [ 
			{
				"type": "occ",
				"energy": -0.31517,
				"method": "rhf"
			},
			{
				"type": "occ",
				"energy": -0.3033,
				"method": "rhf"
			},
			{
				"type": "occ",
				"energy": -0.29223,
				"method": "rhf"
			},
			{
				"type": "occ",
				"energy": -0.2916,
				"method": "rhf"
			},
			{
				"type": "occ",
				"energy": -0.26959,
				"method": "rhf"
			},
			{
				"type": "unocc",
				"energy": 0.00922,
				"method": "rhf"
			},
			{
				"type": "unocc",
				"energy": 0.06729,
				"method": "rhf"
			},
			{
				"type": "unocc",
				"energy": 0.0825,
				"method": "rhf"
			},
			{
				"type": "unocc",
				"energy": 0.10052,
				"method": "rhf"
			},
			{
				"type": "unocc",
				"energy": 0.11234,
				"method": "rhf"
			}
		],
		"cosmo_sigma_profile": { 
			"-0.025": 0.0,
			"-0.024": 0.0,
			"-0.023": 0.0,
			"-0.022": 0.0,
			"-0.021": 0.0,
			"-0.02": 0.0,
			"-0.019": 0.0,
			"-0.018": 0.242489563684,
			"-0.017": 1.02799464292,
			"-0.016": 0.906080856572,
			"-0.015": 0.661413529224,
			"-0.014": 0.691781413262,
			"-0.013": 1.17352155137,
			"-0.012": 0.376538818367,
			"-0.011": 0.194640552351,
			"-0.01": 1.38522569444,
			"-0.009": 0.768506082253,
			"-0.008": 0.274128323565,
			"-0.007": 0.84007403213,
			"-0.006": 0.972982459133,
			"-0.005": 2.11607410047,
			"-0.004": 6.35790687276,
			"-0.003": 14.3930253128,
			"-0.002": 38.0299590328,
			"-0.001": 39.4096964711,
			"0.0": 33.37796483,
			"0.001": 29.1591983703,
			"0.002": 17.2879136068,
			"0.003": 4.90815031714,
			"0.004": 2.62284009196,
			"0.005": 3.17279561777,
			"0.006": 2.98957402799,
			"0.007": 2.53834425489,
			"0.008": 3.39599580569,
			"0.009": 2.42113003282,
			"0.01": 2.45888027172,
			"0.011": 2.9908403377,
			"0.012": 4.52509788726,
			"0.013": 0.473210198694,
			"0.014": 0.0,
			"0.015": 0.0,
			"0.016": 0.0,
			"0.017": 0.0,
			"0.018": 0.0,
			"0.019": 0.0,
			"0.02": 0.0,
			"0.021": 0.0,
			"0.022": 0.0,
			"0.023": 0.0,
			"0.024": 0.0,
			"0.025": 0.0
		}
	}
}
