{
	 "smiles": "CCC1=C2NC=C(C(=O)CCl)C2=CC=C1", 
	 "Tm": 439.15, 
	 "num_atms": 27, 
	 "gaussian": { 
		 "optdone": 1, 
		 "sigma_profile": "yes", 
		 "theory": "DFT", 
		 "functional": "B3LYP", 
		 "basiset": "6-31G**", 
		 "properties": { 
			 "R2extent": 4615.3755, 
			 "electric_dipole_moment_norm": 4.86275611151, 
			 "electric_quadrupole_moment_norm": 21.2545267092, 
			 "total_energy": -1054.69245604, 
			 "HOMO_LUMO_gap": 0.16411, 
			 "cosmo_polarized_energy": -14.82, 
			 "cosmo_cavitation_energy": 32.01, 
			 "cosmo_dispersion_energy": -22.97, 
			 "cosmo_repulsion_energy": 1.8, 
			 "cosmo_total_nonelectrostatic_energy": 10.85, 
			 "SMD_solvation_energy": 5.52 
		},
		"coords": [
			{
				"x": -2.9629230906,
				"y": 1.8474310147,
				"z": -2.772884941,
				"element": "C" 
			},
			{
				"x": -2.0662505591,
				"y": 0.5945995396,
				"z": -2.7864972564,
				"element": "C" 
			},
			{
				"x": -1.0164431504,
				"y": 0.5932985514,
				"z": -1.697256778,
				"element": "C" 
			},
			{
				"x": -1.3239993427,
				"y": 0.260622854,
				"z": -0.3686133895,
				"element": "C" 
			},
			{
				"x": -2.5450359522,
				"y": -0.1389191733,
				"z": 0.1652816002,
				"element": "N" 
			},
			{
				"x": -2.4073792313,
				"y": -0.3834401251,
				"z": 1.4961745938,
				"element": "C" 
			},
			{
				"x": -1.0990820561,
				"y": -0.1509681103,
				"z": 1.8868485212,
				"element": "C" 
			},
			{
				"x": -0.6900833262,
				"y": -0.3930866592,
				"z": 3.2725666604,
				"element": "C" 
			},
			{
				"x": -1.4766293585,
				"y": -0.8046059823,
				"z": 4.118844715,
				"element": "O" 
			},
			{
				"x": 0.7649934109,
				"y": -0.1709099243,
				"z": 3.6878934999,
				"element": "C" 
			},
			{
				"x": 1.1429447892,
				"y": 1.5998939969,
				"z": 3.8508168771,
				"element": "Cl" 
			},
			{
				"x": -0.3811084344,
				"y": 0.2714870716,
				"z": 0.6944289454,
				"element": "C" 
			},
			{
				"x": 0.9406334861,
				"y": 0.6534821059,
				"z": 0.4006348474,
				"element": "C" 
			},
			{
				"x": 1.2676418114,
				"y": 0.9834200486,
				"z": -0.9083146595,
				"element": "C" 
			},
			{
				"x": 0.308864987,
				"y": 0.950286921,
				"z": -1.9376852791,
				"element": "C" 
			},
			{
				"x": -3.7107813268,
				"y": 1.80247913,
				"z": -3.5713130451,
				"element": "H" 
			},
			{
				"x": -2.3645844657,
				"y": 2.7520781081,
				"z": -2.9160415116,
				"element": "H" 
			},
			{
				"x": -3.4919653889,
				"y": 1.9555604644,
				"z": -1.8199344064,
				"element": "H" 
			},
			{
				"x": -1.5673131293,
				"y": 0.5198725899,
				"z": -3.7587155292,
				"element": "H" 
			},
			{
				"x": -2.6935620959,
				"y": -0.3044589715,
				"z": -2.7040682895,
				"element": "H" 
			},
			{
				"x": -3.4013941408,
				"y": -0.2409082827,
				"z": -0.3555346096,
				"element": "H" 
			},
			{
				"x": -3.2325339042,
				"y": -0.7148553539,
				"z": 2.108896026,
				"element": "H" 
			},
			{
				"x": 0.9112327115,
				"y": -0.6185145257,
				"z": 4.6692185001,
				"element": "H" 
			},
			{
				"x": 1.4719262165,
				"y": -0.5827997798,
				"z": 2.9652683331,
				"element": "H" 
			},
			{
				"x": 1.6950196315,
				"y": 0.7150553714,
				"z": 1.1758578944,
				"element": "H" 
			},
			{
				"x": 2.2860009833,
				"y": 1.2775915674,
				"z": -1.1444851654,
				"element": "H" 
			},
			{
				"x": 0.6056109256,
				"y": 1.212507553,
				"z": -2.9500861536,
				"element": "H" 
			}
		],
		 "valence_orbital": [ 
			{
				"type": "occ",
				"energy": -0.29838,
				"method": "rhf"
			},
			{
				"type": "occ",
				"energy": -0.2775,
				"method": "rhf"
			},
			{
				"type": "occ",
				"energy": -0.24726,
				"method": "rhf"
			},
			{
				"type": "occ",
				"energy": -0.23404,
				"method": "rhf"
			},
			{
				"type": "occ",
				"energy": -0.21629,
				"method": "rhf"
			},
			{
				"type": "unocc",
				"energy": -0.05218,
				"method": "rhf"
			},
			{
				"type": "unocc",
				"energy": -0.01318,
				"method": "rhf"
			},
			{
				"type": "unocc",
				"energy": 0.01549,
				"method": "rhf"
			},
			{
				"type": "unocc",
				"energy": 0.03345,
				"method": "rhf"
			},
			{
				"type": "unocc",
				"energy": 0.05112,
				"method": "rhf"
			}
		],
		"cosmo_sigma_profile": { 
			"-0.025": 0.0,
			"-0.024": 0.0,
			"-0.023": 0.0,
			"-0.022": 0.0,
			"-0.021": 0.0,
			"-0.02": 0.0,
			"-0.019": 0.0,
			"-0.018": 0.0,
			"-0.017": 0.109707990885,
			"-0.016": 0.8686200931,
			"-0.015": 0.932420892191,
			"-0.014": 1.3567081087,
			"-0.013": 0.941583127268,
			"-0.012": 1.63747951461,
			"-0.011": 1.61144284462,
			"-0.01": 2.20805220252,
			"-0.009": 3.36546556236,
			"-0.008": 6.37331342038,
			"-0.007": 6.52488705914,
			"-0.006": 7.18599360875,
			"-0.005": 12.9503516108,
			"-0.004": 15.5250258518,
			"-0.003": 16.4883590213,
			"-0.002": 17.5549169917,
			"-0.001": 19.9226462897,
			"0.0": 20.7922355376,
			"0.001": 19.4375955006,
			"0.002": 18.6221591603,
			"0.003": 16.1799789397,
			"0.004": 16.614661812,
			"0.005": 19.7374958106,
			"0.006": 13.2712202745,
			"0.007": 2.38260461335,
			"0.008": 1.48534925258,
			"0.009": 1.31355193321,
			"0.01": 2.14678517382,
			"0.011": 2.56227738529,
			"0.012": 4.37907100388,
			"0.013": 1.9068274577,
			"0.014": 0.115067238038,
			"0.015": 0.0,
			"0.016": 0.0,
			"0.017": 0.0,
			"0.018": 0.0,
			"0.019": 0.0,
			"0.02": 0.0,
			"0.021": 0.0,
			"0.022": 0.0,
			"0.023": 0.0,
			"0.024": 0.0,
			"0.025": 0.0
		}
	}
}
