{
	 "smiles": "COC1=CC=C(C=C1)N1N=C(SC1=N)C(=O)C1=CC=CS1", 
	 "Tm": 437.15, 
	 "num_atms": 32, 
	 "gaussian": { 
		 "optdone": 1, 
		 "sigma_profile": "yes", 
		 "theory": "DFT", 
		 "functional": "B3LYP", 
		 "basiset": "6-31G**", 
		 "properties": { 
			 "R2extent": 10201.3068, 
			 "electric_dipole_moment_norm": 4.72824243139, 
			 "electric_quadrupole_moment_norm": 14.4534343566, 
			 "total_energy": -1651.13202658, 
			 "HOMO_LUMO_gap": 0.11874, 
			 "cosmo_polarized_energy": -14.61, 
			 "cosmo_cavitation_energy": 40.67, 
			 "cosmo_dispersion_energy": -30.25, 
			 "cosmo_repulsion_energy": 2.2, 
			 "cosmo_total_nonelectrostatic_energy": 12.62, 
			 "SMD_solvation_energy": 7.09 
		},
		"coords": [
			{
				"x": -0.674393843,
				"y": -3.2955788276,
				"z": -4.1190993115,
				"element": "C" 
			},
			{
				"x": -0.6231896163,
				"y": -1.8939094203,
				"z": -4.3339916774,
				"element": "O" 
			},
			{
				"x": -0.564787831,
				"y": -1.0749377013,
				"z": -3.2459269553,
				"element": "C" 
			},
			{
				"x": -0.5453194647,
				"y": -1.5141949489,
				"z": -1.9166213331,
				"element": "C" 
			},
			{
				"x": -0.4919108992,
				"y": -0.5823292095,
				"z": -0.8797294404,
				"element": "C" 
			},
			{
				"x": -0.4431588007,
				"y": 0.7850932045,
				"z": -1.1563891498,
				"element": "C" 
			},
			{
				"x": -0.4598352713,
				"y": 1.2273441727,
				"z": -2.4869589923,
				"element": "C" 
			},
			{
				"x": -0.524974603,
				"y": 0.3006904511,
				"z": -3.5177171479,
				"element": "C" 
			},
			{
				"x": -0.3479134128,
				"y": 1.7097042741,
				"z": -0.0678063094,
				"element": "N" 
			},
			{
				"x": 0.3164151857,
				"y": 1.3124938271,
				"z": 1.0382756449,
				"element": "N" 
			},
			{
				"x": 0.2534922384,
				"y": 2.1781217549,
				"z": 1.9973598725,
				"element": "C" 
			},
			{
				"x": -0.6736136362,
				"y": 3.6361538022,
				"z": 1.6334796452,
				"element": "S" 
			},
			{
				"x": -0.9961101621,
				"y": 2.9679865303,
				"z": -0.004895425,
				"element": "C" 
			},
			{
				"x": -1.6599236743,
				"y": 3.4589370298,
				"z": -0.9718439745,
				"element": "N" 
			},
			{
				"x": 0.871388614,
				"y": 2.061105014,
				"z": 3.3410669692,
				"element": "C" 
			},
			{
				"x": 0.6500188003,
				"y": 2.9656075475,
				"z": 4.1474558218,
				"element": "O" 
			},
			{
				"x": 1.7097957686,
				"y": 0.9111269019,
				"z": 3.6885866457,
				"element": "C" 
			},
			{
				"x": 2.1558639206,
				"y": -0.1691042952,
				"z": 2.9506407121,
				"element": "C" 
			},
			{
				"x": 2.9763920633,
				"y": -1.0484859292,
				"z": 3.702350494,
				"element": "C" 
			},
			{
				"x": 3.1463137707,
				"y": -0.627821748,
				"z": 4.9995192016,
				"element": "C" 
			},
			{
				"x": 2.3164994548,
				"y": 0.845879924,
				"z": 5.3299716288,
				"element": "S" 
			},
			{
				"x": -0.7163113382,
				"y": -3.7509323571,
				"z": -5.1095905477,
				"element": "H" 
			},
			{
				"x": -1.5674930792,
				"y": -3.5859181578,
				"z": -3.5508787286,
				"element": "H" 
			},
			{
				"x": 0.2186367645,
				"y": -3.6578462963,
				"z": -3.5934961775,
				"element": "H" 
			},
			{
				"x": -0.5818620177,
				"y": -2.5692367683,
				"z": -1.6738022006,
				"element": "H" 
			},
			{
				"x": -0.4856386564,
				"y": -0.9200100689,
				"z": 0.150192798,
				"element": "H" 
			},
			{
				"x": -0.4423023871,
				"y": 2.2861695676,
				"z": -2.7041893742,
				"element": "H" 
			},
			{
				"x": -0.5414039945,
				"y": 0.6241288121,
				"z": -4.5530302765,
				"element": "H" 
			},
			{
				"x": -2.0680915809,
				"y": 4.3613418268,
				"z": -0.7395937598,
				"element": "H" 
			},
			{
				"x": 1.8987796679,
				"y": -0.3081877741,
				"z": 1.909352307,
				"element": "H" 
			},
			{
				"x": 3.422923018,
				"y": -1.9508699731,
				"z": 3.301122388,
				"element": "H" 
			},
			{
				"x": 3.7203150017,
				"y": -1.1096211649,
				"z": 5.7798866526,
				"element": "H" 
			}
		],
		 "valence_orbital": [ 
			{
				"type": "occ",
				"energy": -0.26482,
				"method": "rhf"
			},
			{
				"type": "occ",
				"energy": -0.25825,
				"method": "rhf"
			},
			{
				"type": "occ",
				"energy": -0.25227,
				"method": "rhf"
			},
			{
				"type": "occ",
				"energy": -0.24152,
				"method": "rhf"
			},
			{
				"type": "occ",
				"energy": -0.20785,
				"method": "rhf"
			},
			{
				"type": "unocc",
				"energy": -0.08911,
				"method": "rhf"
			},
			{
				"type": "unocc",
				"energy": -0.02531,
				"method": "rhf"
			},
			{
				"type": "unocc",
				"energy": -0.01409,
				"method": "rhf"
			},
			{
				"type": "unocc",
				"energy": -0.00636,
				"method": "rhf"
			},
			{
				"type": "unocc",
				"energy": -2e-05,
				"method": "rhf"
			}
		],
		"cosmo_sigma_profile": { 
			"-0.025": 0.0,
			"-0.024": 0.0,
			"-0.023": 0.0,
			"-0.022": 0.0,
			"-0.021": 0.0,
			"-0.02": 0.0,
			"-0.019": 0.0,
			"-0.018": 0.0,
			"-0.017": 0.0,
			"-0.016": 0.0,
			"-0.015": 0.0,
			"-0.014": 0.0,
			"-0.013": 0.664308176664,
			"-0.012": 1.45750300982,
			"-0.011": 1.25465087355,
			"-0.01": 2.21919781697,
			"-0.009": 3.70817998779,
			"-0.008": 3.46430598301,
			"-0.007": 6.8508413263,
			"-0.006": 15.6476470899,
			"-0.005": 23.7742945776,
			"-0.004": 23.2617068415,
			"-0.003": 24.9170470469,
			"-0.002": 23.0842425536,
			"-0.001": 21.4956554521,
			"0.0": 24.3772177305,
			"0.001": 26.8019635121,
			"0.002": 33.0183067301,
			"0.003": 32.6460313441,
			"0.004": 20.341416049,
			"0.005": 9.17342779708,
			"0.006": 5.58603195987,
			"0.007": 4.79719405148,
			"0.008": 4.38984055968,
			"0.009": 5.08786265701,
			"0.01": 5.56896917282,
			"0.011": 5.40614436852,
			"0.012": 1.61122191401,
			"0.013": 0.974031669258,
			"0.014": 0.282713941872,
			"0.015": 0.0,
			"0.016": 0.0,
			"0.017": 0.0,
			"0.018": 0.0,
			"0.019": 0.0,
			"0.02": 0.0,
			"0.021": 0.0,
			"0.022": 0.0,
			"0.023": 0.0,
			"0.024": 0.0,
			"0.025": 0.0
		}
	}
}
