{
	 "smiles": "CSC1=NC=C(N1CC1=CC=CC=C1)C(O)=O", 
	 "Tm": 451.15, 
	 "num_atms": 29, 
	 "gaussian": { 
		 "optdone": 1, 
		 "sigma_profile": "yes", 
		 "theory": "DFT", 
		 "functional": "B3LYP", 
		 "basiset": "6-31G**", 
		 "properties": { 
			 "R2extent": 5020.5477, 
			 "electric_dipole_moment_norm": 0.665280196609, 
			 "electric_quadrupole_moment_norm": 9.96653468664, 
			 "total_energy": -1122.66458462, 
			 "HOMO_LUMO_gap": 0.17862, 
			 "cosmo_polarized_energy": -12.49, 
			 "cosmo_cavitation_energy": 34.28, 
			 "cosmo_dispersion_energy": -24.9, 
			 "cosmo_repulsion_energy": 1.88, 
			 "cosmo_total_nonelectrostatic_energy": 11.26, 
			 "SMD_solvation_energy": 5.7 
		},
		"coords": [
			{
				"x": 0.3123048849,
				"y": 1.5048591038,
				"z": -4.5850745639,
				"element": "C" 
			},
			{
				"x": 0.7582869187,
				"y": 0.7961977752,
				"z": -2.9609244844,
				"element": "S" 
			},
			{
				"x": -0.5155433867,
				"y": 1.5250313874,
				"z": -1.9824526363,
				"element": "C" 
			},
			{
				"x": -1.5963794515,
				"y": 2.1235795025,
				"z": -2.4751712944,
				"element": "N" 
			},
			{
				"x": -2.2903541704,
				"y": 2.544743913,
				"z": -1.3852923074,
				"element": "C" 
			},
			{
				"x": -1.6393690296,
				"y": 2.2014068492,
				"z": -0.2140214001,
				"element": "C" 
			},
			{
				"x": -0.4751269749,
				"y": 1.5378679487,
				"z": -0.619530256,
				"element": "N" 
			},
			{
				"x": 0.6006891722,
				"y": 0.9886104141,
				"z": 0.2286473204,
				"element": "C" 
			},
			{
				"x": 0.491521015,
				"y": -0.5059128248,
				"z": 0.4743492045,
				"element": "C" 
			},
			{
				"x": 1.3779248185,
				"y": -1.3939229597,
				"z": -0.1454494707,
				"element": "C" 
			},
			{
				"x": 1.2860785921,
				"y": -2.7682554872,
				"z": 0.0858541705,
				"element": "C" 
			},
			{
				"x": 0.3043482077,
				"y": -3.2671586121,
				"z": 0.9415823389,
				"element": "C" 
			},
			{
				"x": -0.5789166343,
				"y": -2.3860429804,
				"z": 1.5712602782,
				"element": "C" 
			},
			{
				"x": -0.4848050424,
				"y": -1.0138672405,
				"z": 1.3435649333,
				"element": "C" 
			},
			{
				"x": -2.0153030083,
				"y": 2.4628284426,
				"z": 1.1638362176,
				"element": "C" 
			},
			{
				"x": -3.1741590485,
				"y": 3.1659767889,
				"z": 1.2391794346,
				"element": "O" 
			},
			{
				"x": -1.4075854934,
				"y": 2.1190506329,
				"z": 2.169184321,
				"element": "O" 
			},
			{
				"x": -0.7127491381,
				"y": 1.2378360044,
				"z": -4.8384998348,
				"element": "H" 
			},
			{
				"x": 0.4193249425,
				"y": 2.5898016638,
				"z": -4.5735388345,
				"element": "H" 
			},
			{
				"x": 1.0102096958,
				"y": 1.0640943771,
				"z": -5.2995028441,
				"element": "H" 
			},
			{
				"x": -3.2277892165,
				"y": 3.0754501401,
				"z": -1.4746279251,
				"element": "H" 
			},
			{
				"x": 0.5551286371,
				"y": 1.5340861682,
				"z": 1.1705456749,
				"element": "H" 
			},
			{
				"x": 1.5465647385,
				"y": 1.2216123051,
				"z": -0.2694793521,
				"element": "H" 
			},
			{
				"x": 2.1468287978,
				"y": -1.009543246,
				"z": -0.810304496,
				"element": "H" 
			},
			{
				"x": 1.980969564,
				"y": -3.4453365696,
				"z": -0.4026075087,
				"element": "H" 
			},
			{
				"x": 0.2302641257,
				"y": -4.3357177986,
				"z": 1.1226431429,
				"element": "H" 
			},
			{
				"x": -1.3378487422,
				"y": -2.7685633776,
				"z": 2.2479974582,
				"element": "H" 
			},
			{
				"x": -1.1551685971,
				"y": -0.3263900548,
				"z": 1.8497553814,
				"element": "H" 
			},
			{
				"x": -3.3425461763,
				"y": 3.2875777343,
				"z": 2.1877773319,
				"element": "H" 
			}
		],
		 "valence_orbital": [ 
			{
				"type": "occ",
				"energy": -0.28014,
				"method": "rhf"
			},
			{
				"type": "occ",
				"energy": -0.27337,
				"method": "rhf"
			},
			{
				"type": "occ",
				"energy": -0.24992,
				"method": "rhf"
			},
			{
				"type": "occ",
				"energy": -0.24713,
				"method": "rhf"
			},
			{
				"type": "occ",
				"energy": -0.21595,
				"method": "rhf"
			},
			{
				"type": "unocc",
				"energy": -0.03733,
				"method": "rhf"
			},
			{
				"type": "unocc",
				"energy": -0.00814,
				"method": "rhf"
			},
			{
				"type": "unocc",
				"energy": -0.00294,
				"method": "rhf"
			},
			{
				"type": "unocc",
				"energy": 0.02565,
				"method": "rhf"
			},
			{
				"type": "unocc",
				"energy": 0.04097,
				"method": "rhf"
			}
		],
		"cosmo_sigma_profile": { 
			"-0.025": 0.0,
			"-0.024": 0.0,
			"-0.023": 0.0,
			"-0.022": 0.0,
			"-0.021": 0.0,
			"-0.02": 0.0,
			"-0.019": 0.0289113255006,
			"-0.018": 0.5948492569,
			"-0.017": 1.15325389464,
			"-0.016": 0.57521931514,
			"-0.015": 1.0280358551,
			"-0.014": 0.827184873293,
			"-0.013": 0.496922812582,
			"-0.012": 0.479218010737,
			"-0.011": 0.757417197848,
			"-0.01": 0.921374709846,
			"-0.009": 0.567670766444,
			"-0.008": 2.00440185302,
			"-0.007": 5.34473994179,
			"-0.006": 12.1892211096,
			"-0.005": 19.7955252702,
			"-0.004": 22.1449355821,
			"-0.003": 22.6204743819,
			"-0.002": 24.1595405658,
			"-0.001": 17.0984489278,
			"0.0": 18.0196704396,
			"0.001": 20.7789253643,
			"0.002": 18.8693092847,
			"0.003": 16.8297538589,
			"0.004": 16.8043488288,
			"0.005": 17.8697185173,
			"0.006": 9.89586887512,
			"0.007": 6.35993646539,
			"0.008": 4.47617882449,
			"0.009": 2.90880639591,
			"0.01": 2.28447738672,
			"0.011": 3.5398821242,
			"0.012": 2.31144052593,
			"0.013": 1.26288043735,
			"0.014": 0.71850033239,
			"0.015": 0.046290477656,
			"0.016": 0.0,
			"0.017": 0.0,
			"0.018": 0.0,
			"0.019": 0.0,
			"0.02": 0.0,
			"0.021": 0.0,
			"0.022": 0.0,
			"0.023": 0.0,
			"0.024": 0.0,
			"0.025": 0.0
		}
	}
}
