{
	 "smiles": "CC1=CC2=C(N=C(NN)C=C2C)C(C)=C1", 
	 "Tm": 387.15, 
	 "num_atms": 30, 
	 "gaussian": { 
		 "optdone": 1, 
		 "sigma_profile": "yes", 
		 "theory": "DFT", 
		 "functional": "B3LYP", 
		 "basiset": "6-31G**", 
		 "properties": { 
			 "R2extent": 4404.9526, 
			 "electric_dipole_moment_norm": 1.78073984905, 
			 "electric_quadrupole_moment_norm": 11.5185420961, 
			 "total_energy": -630.580660823, 
			 "HOMO_LUMO_gap": 0.16326, 
			 "cosmo_polarized_energy": -10.11, 
			 "cosmo_cavitation_energy": 32.55, 
			 "cosmo_dispersion_energy": -23.43, 
			 "cosmo_repulsion_energy": 1.83, 
			 "cosmo_total_nonelectrostatic_energy": 10.95, 
			 "SMD_solvation_energy": 5.11 
		},
		"coords": [
			{
				"x": -1.459900523,
				"y": -2.9504532495,
				"z": -1.3929912164,
				"element": "C" 
			},
			{
				"x": -0.8016952665,
				"y": -1.5969719467,
				"z": -1.2711662233,
				"element": "C" 
			},
			{
				"x": 0.5725298375,
				"y": -1.4545657543,
				"z": -1.2813254104,
				"element": "C" 
			},
			{
				"x": 1.1833778889,
				"y": -0.1809192291,
				"z": -1.1669903703,
				"element": "C" 
			},
			{
				"x": 0.3638652963,
				"y": 0.9811313392,
				"z": -1.0394090938,
				"element": "C" 
			},
			{
				"x": 0.8776875952,
				"y": 2.242597279,
				"z": -0.9207618382,
				"element": "N" 
			},
			{
				"x": 2.1889795095,
				"y": 2.3821018809,
				"z": -0.936410843,
				"element": "C" 
			},
			{
				"x": 2.7086668766,
				"y": 3.665207375,
				"z": -0.8544321256,
				"element": "N" 
			},
			{
				"x": 1.8793350836,
				"y": 4.7487426456,
				"z": -0.4854023942,
				"element": "N" 
			},
			{
				"x": 3.0955923226,
				"y": 1.2842456677,
				"z": -1.0568051042,
				"element": "C" 
			},
			{
				"x": 2.6089089849,
				"y": 0.007741331,
				"z": -1.1711225982,
				"element": "C" 
			},
			{
				"x": 3.5479125887,
				"y": -1.164559137,
				"z": -1.2996090552,
				"element": "C" 
			},
			{
				"x": -1.0580136834,
				"y": 0.8347270658,
				"z": -1.0284883333,
				"element": "C" 
			},
			{
				"x": -1.9306873296,
				"y": 2.0551469864,
				"z": -0.8933810388,
				"element": "C" 
			},
			{
				"x": -1.5987336608,
				"y": -0.4316483617,
				"z": -1.1426241965,
				"element": "C" 
			},
			{
				"x": -2.0838326244,
				"y": -3.1722757784,
				"z": -0.5187836401,
				"element": "H" 
			},
			{
				"x": -2.1143643611,
				"y": -2.9996615833,
				"z": -2.2716127738,
				"element": "H" 
			},
			{
				"x": -0.7182276605,
				"y": -3.7489216603,
				"z": -1.4845595778,
				"element": "H" 
			},
			{
				"x": 1.1965899815,
				"y": -2.3379815067,
				"z": -1.3792266122,
				"element": "H" 
			},
			{
				"x": 3.6372589465,
				"y": 3.7428402453,
				"z": -0.4630921233,
				"element": "H" 
			},
			{
				"x": 1.1312970521,
				"y": 4.37334872,
				"z": 0.1018414464,
				"element": "H" 
			},
			{
				"x": 1.4082519779,
				"y": 5.062325103,
				"z": -1.3331546403,
				"element": "H" 
			},
			{
				"x": 4.1665729868,
				"y": 1.4712716615,
				"z": -1.064946026,
				"element": "H" 
			},
			{
				"x": 3.3784118631,
				"y": -1.7092150329,
				"z": -2.2353580949,
				"element": "H" 
			},
			{
				"x": 4.590103855,
				"y": -0.8363860945,
				"z": -1.2840060145,
				"element": "H" 
			},
			{
				"x": 3.4054679284,
				"y": -1.8803264353,
				"z": -0.4820369962,
				"element": "H" 
			},
			{
				"x": -2.9898418829,
				"y": 1.7838452929,
				"z": -0.9150146194,
				"element": "H" 
			},
			{
				"x": -1.7265354582,
				"y": 2.585365651,
				"z": 0.0431659475,
				"element": "H" 
			},
			{
				"x": -1.736056724,
				"y": 2.7707925021,
				"z": -1.6989260581,
				"element": "H" 
			},
			{
				"x": -2.6818214009,
				"y": -0.5404449768,
				"z": -1.134570376,
				"element": "H" 
			}
		],
		 "valence_orbital": [ 
			{
				"type": "occ",
				"energy": -0.27708,
				"method": "rhf"
			},
			{
				"type": "occ",
				"energy": -0.26145,
				"method": "rhf"
			},
			{
				"type": "occ",
				"energy": -0.24909,
				"method": "rhf"
			},
			{
				"type": "occ",
				"energy": -0.22261,
				"method": "rhf"
			},
			{
				"type": "occ",
				"energy": -0.19733,
				"method": "rhf"
			},
			{
				"type": "unocc",
				"energy": -0.03407,
				"method": "rhf"
			},
			{
				"type": "unocc",
				"energy": 0.00059,
				"method": "rhf"
			},
			{
				"type": "unocc",
				"energy": 0.03802,
				"method": "rhf"
			},
			{
				"type": "unocc",
				"energy": 0.08894,
				"method": "rhf"
			},
			{
				"type": "unocc",
				"energy": 0.09707,
				"method": "rhf"
			}
		],
		"cosmo_sigma_profile": { 
			"-0.025": 0.0,
			"-0.024": 0.0,
			"-0.023": 0.0,
			"-0.022": 0.0,
			"-0.021": 0.0,
			"-0.02": 0.0,
			"-0.019": 0.0,
			"-0.018": 0.0,
			"-0.017": 0.0,
			"-0.016": 0.0,
			"-0.015": 0.0,
			"-0.014": 0.0635253832809,
			"-0.013": 0.868239772838,
			"-0.012": 1.14352376734,
			"-0.011": 2.22538565876,
			"-0.01": 2.4036572323,
			"-0.009": 2.05980101154,
			"-0.008": 2.96634381867,
			"-0.007": 4.3448443125,
			"-0.006": 5.09906646541,
			"-0.005": 7.94863581171,
			"-0.004": 22.4211219284,
			"-0.003": 23.7622218733,
			"-0.002": 23.5025743414,
			"-0.001": 23.8934895306,
			"0.0": 25.8522400273,
			"0.001": 19.8126279684,
			"0.002": 14.9166532228,
			"0.003": 17.405862309,
			"0.004": 16.7488026008,
			"0.005": 13.1973423442,
			"0.006": 9.5424162062,
			"0.007": 5.00763833924,
			"0.008": 2.15827196842,
			"0.009": 2.546060969,
			"0.01": 1.78112270964,
			"0.011": 0.6572667204,
			"0.012": 0.786083793741,
			"0.013": 0.679027078201,
			"0.014": 0.15981057891,
			"0.015": 1.0521980043,
			"0.016": 0.61192135261,
			"0.017": 0.501738871203,
			"0.018": 0.108390427449,
			"0.019": 0.0,
			"0.02": 0.0,
			"0.021": 0.0,
			"0.022": 0.0,
			"0.023": 0.0,
			"0.024": 0.0,
			"0.025": 0.0
		}
	}
}
