{
	 "smiles": "CC1=NC(=CS1)C1=CC=C(C=C1)C(O)=O", 
	 "Tm": 539.15, 
	 "num_atms": 24, 
	 "gaussian": { 
		 "optdone": 1, 
		 "sigma_profile": "yes", 
		 "theory": "DFT", 
		 "functional": "B3LYP", 
		 "basiset": "6-31G**", 
		 "properties": { 
			 "R2extent": 5270.7591, 
			 "electric_dipole_moment_norm": 6.25586911388, 
			 "electric_quadrupole_moment_norm": 23.3483012956, 
			 "total_energy": -1027.99542811, 
			 "HOMO_LUMO_gap": 0.16672, 
			 "cosmo_polarized_energy": -17.04, 
			 "cosmo_cavitation_energy": 30.58, 
			 "cosmo_dispersion_energy": -23.1, 
			 "cosmo_repulsion_energy": 1.74, 
			 "cosmo_total_nonelectrostatic_energy": 9.22, 
			 "SMD_solvation_energy": 5.08 
		},
		"coords": [
			{
				"x": -3.0484369914,
				"y": 3.126189598,
				"z": -2.2693220829,
				"element": "C" 
			},
			{
				"x": -1.6708566186,
				"y": 2.7388952586,
				"z": -1.8266717092,
				"element": "C" 
			},
			{
				"x": -1.3992666046,
				"y": 1.713196638,
				"z": -1.0798398091,
				"element": "N" 
			},
			{
				"x": -0.0424549349,
				"y": 1.5891850311,
				"z": -0.8228729005,
				"element": "C" 
			},
			{
				"x": 0.7341320862,
				"y": 2.5622402295,
				"z": -1.4024115338,
				"element": "C" 
			},
			{
				"x": -0.2455583557,
				"y": 3.6711762828,
				"z": -2.2956885369,
				"element": "S" 
			},
			{
				"x": 0.4249011554,
				"y": 0.4691346314,
				"z": 0.0142786996,
				"element": "C" 
			},
			{
				"x": -0.5045043627,
				"y": -0.4536002565,
				"z": 0.5278644492,
				"element": "C" 
			},
			{
				"x": -0.0883913543,
				"y": -1.5160230486,
				"z": 1.3199632791,
				"element": "C" 
			},
			{
				"x": 1.2698902347,
				"y": -1.7034579432,
				"z": 1.6094185595,
				"element": "C" 
			},
			{
				"x": 2.1996160171,
				"y": -0.7777513618,
				"z": 1.1114712467,
				"element": "C" 
			},
			{
				"x": 1.7834656346,
				"y": 0.2923868846,
				"z": 0.3277418801,
				"element": "C" 
			},
			{
				"x": 1.6502190323,
				"y": -2.8679887662,
				"z": 2.4696315856,
				"element": "C" 
			},
			{
				"x": 2.9495276377,
				"y": -3.2731258302,
				"z": 2.4131447581,
				"element": "O" 
			},
			{
				"x": 0.8710132255,
				"y": -3.446639448,
				"z": 3.1903268168,
				"element": "O" 
			},
			{
				"x": -3.7601494728,
				"y": 2.4117612738,
				"z": -1.852031776,
				"element": "H" 
			},
			{
				"x": -3.3130564183,
				"y": 4.1309573787,
				"z": -1.9237735899,
				"element": "H" 
			},
			{
				"x": -3.1365654269,
				"y": 3.1154099649,
				"z": -3.3607805484,
				"element": "H" 
			},
			{
				"x": 1.805478985,
				"y": 2.6907602033,
				"z": -1.3584970541,
				"element": "H" 
			},
			{
				"x": -1.5539067873,
				"y": -0.3163382579,
				"z": 0.2949429587,
				"element": "H" 
			},
			{
				"x": -0.804376462,
				"y": -2.2219818763,
				"z": 1.7269508577,
				"element": "H" 
			},
			{
				"x": 3.2545584822,
				"y": -0.8568298999,
				"z": 1.3639660504,
				"element": "H" 
			},
			{
				"x": 2.5245643525,
				"y": 0.9985589282,
				"z": -0.0328521771,
				"element": "H" 
			},
			{
				"x": 3.4023569464,
				"y": -2.8341156143,
				"z": 1.6801405765,
				"element": "H" 
			}
		],
		 "valence_orbital": [ 
			{
				"type": "occ",
				"energy": -0.28602,
				"method": "rhf"
			},
			{
				"type": "occ",
				"energy": -0.28365,
				"method": "rhf"
			},
			{
				"type": "occ",
				"energy": -0.27024,
				"method": "rhf"
			},
			{
				"type": "occ",
				"energy": -0.26634,
				"method": "rhf"
			},
			{
				"type": "occ",
				"energy": -0.23044,
				"method": "rhf"
			},
			{
				"type": "unocc",
				"energy": -0.06372,
				"method": "rhf"
			},
			{
				"type": "unocc",
				"energy": -0.03105,
				"method": "rhf"
			},
			{
				"type": "unocc",
				"energy": -0.01346,
				"method": "rhf"
			},
			{
				"type": "unocc",
				"energy": 0.0065,
				"method": "rhf"
			},
			{
				"type": "unocc",
				"energy": 0.02677,
				"method": "rhf"
			}
		],
		"cosmo_sigma_profile": { 
			"-0.025": 0.0,
			"-0.024": 0.0,
			"-0.023": 0.0,
			"-0.022": 0.0,
			"-0.021": 0.0,
			"-0.02": 0.0,
			"-0.019": 0.0838720981502,
			"-0.018": 0.90158150044,
			"-0.017": 1.09539532445,
			"-0.016": 0.676813822012,
			"-0.015": 0.881928955826,
			"-0.014": 1.1011267224,
			"-0.013": 1.01479504461,
			"-0.012": 1.24942771356,
			"-0.011": 1.40400456922,
			"-0.01": 2.628936802,
			"-0.009": 3.43525118545,
			"-0.008": 4.41648479619,
			"-0.007": 5.06372377612,
			"-0.006": 10.7326465409,
			"-0.005": 16.0505055836,
			"-0.004": 14.9549388715,
			"-0.003": 15.3058673576,
			"-0.002": 14.9007549098,
			"-0.001": 16.6319475357,
			"0.0": 15.5494856844,
			"0.001": 19.866579521,
			"0.002": 26.7881875633,
			"0.003": 25.8900361812,
			"0.004": 6.85984231874,
			"0.005": 4.57176309654,
			"0.006": 4.39337982674,
			"0.007": 4.07234417275,
			"0.008": 3.59108289679,
			"0.009": 4.93550937331,
			"0.01": 5.66969733318,
			"0.011": 5.83137407939,
			"0.012": 5.36277016351,
			"0.013": 1.81763884655,
			"0.014": 0.149134066202,
			"0.015": 0.0,
			"0.016": 0.0,
			"0.017": 0.0,
			"0.018": 0.0,
			"0.019": 0.0,
			"0.02": 0.0,
			"0.021": 0.0,
			"0.022": 0.0,
			"0.023": 0.0,
			"0.024": 0.0,
			"0.025": 0.0
		}
	}
}
