{
	 "smiles": "NC1=NN(C=N1)C1=CC=CC=C1", 
	 "Tm": 420.15, 
	 "num_atms": 20, 
	 "gaussian": { 
		 "optdone": 1, 
		 "sigma_profile": "yes", 
		 "theory": "DFT", 
		 "functional": "B3LYP", 
		 "basiset": "6-31G**", 
		 "properties": { 
			 "R2extent": 2753.541, 
			 "electric_dipole_moment_norm": 1.65855178997, 
			 "electric_quadrupole_moment_norm": 8.79964461271, 
			 "total_energy": -528.668752982, 
			 "HOMO_LUMO_gap": 0.18126, 
			 "cosmo_polarized_energy": -12.68, 
			 "cosmo_cavitation_energy": 24.5, 
			 "cosmo_dispersion_energy": -18.47, 
			 "cosmo_repulsion_energy": 1.46, 
			 "cosmo_total_nonelectrostatic_energy": 7.48, 
			 "SMD_solvation_energy": 1.98 
		},
		"coords": [
			{
				"x": 1.9833152008,
				"y": 3.4562512453,
				"z": 1.9888306325,
				"element": "N" 
			},
			{
				"x": 0.9297570568,
				"y": 2.859779273,
				"z": 1.3298158533,
				"element": "C" 
			},
			{
				"x": 0.593365703,
				"y": 1.5882181888,
				"z": 1.5073821867,
				"element": "N" 
			},
			{
				"x": -0.4483368862,
				"y": 1.4399916088,
				"z": 0.6204218585,
				"element": "N" 
			},
			{
				"x": -0.655695861,
				"y": 2.6174638359,
				"z": -0.0186872081,
				"element": "C" 
			},
			{
				"x": 0.1870595845,
				"y": 3.5412329958,
				"z": 0.4015539518,
				"element": "N" 
			},
			{
				"x": -1.1004684933,
				"y": 0.1938571595,
				"z": 0.4575917472,
				"element": "C" 
			},
			{
				"x": -0.4629784256,
				"y": -0.9747890038,
				"z": 0.8892146555,
				"element": "C" 
			},
			{
				"x": -1.0977089635,
				"y": -2.2036135501,
				"z": 0.7198066872,
				"element": "C" 
			},
			{
				"x": -2.3561151597,
				"y": -2.2791602867,
				"z": 0.119014929,
				"element": "C" 
			},
			{
				"x": -2.9866696273,
				"y": -1.1073445298,
				"z": -0.3032272393,
				"element": "C" 
			},
			{
				"x": -2.370808362,
				"y": 0.130815134,
				"z": -0.1284819087,
				"element": "C" 
			},
			{
				"x": 2.2422003847,
				"y": 3.006843751,
				"z": 2.8556093111,
				"element": "H" 
			},
			{
				"x": 1.8994778866,
				"y": 4.4605293149,
				"z": 2.056035569,
				"element": "H" 
			},
			{
				"x": -1.4055827681,
				"y": 2.7519970065,
				"z": -0.7843654944,
				"element": "H" 
			},
			{
				"x": 0.5140378538,
				"y": -0.8985029835,
				"z": 1.3499654903,
				"element": "H" 
			},
			{
				"x": -0.6001514041,
				"y": -3.1084643731,
				"z": 1.0563503389,
				"element": "H" 
			},
			{
				"x": -2.8437076924,
				"y": -3.2400881195,
				"z": -0.0129627832,
				"element": "H" 
			},
			{
				"x": -3.9712260905,
				"y": -1.1509123616,
				"z": -0.7594201047,
				"element": "H" 
			},
			{
				"x": -2.8854639365,
				"y": 1.0375956945,
				"z": -0.4282484724,
				"element": "H" 
			}
		],
		 "valence_orbital": [ 
			{
				"type": "occ",
				"energy": -0.29159,
				"method": "rhf"
			},
			{
				"type": "occ",
				"energy": -0.27283,
				"method": "rhf"
			},
			{
				"type": "occ",
				"energy": -0.26029,
				"method": "rhf"
			},
			{
				"type": "occ",
				"energy": -0.25286,
				"method": "rhf"
			},
			{
				"type": "occ",
				"energy": -0.208,
				"method": "rhf"
			},
			{
				"type": "unocc",
				"energy": -0.02674,
				"method": "rhf"
			},
			{
				"type": "unocc",
				"energy": -0.00975,
				"method": "rhf"
			},
			{
				"type": "unocc",
				"energy": 0.03742,
				"method": "rhf"
			},
			{
				"type": "unocc",
				"energy": 0.0726,
				"method": "rhf"
			},
			{
				"type": "unocc",
				"energy": 0.08366,
				"method": "rhf"
			}
		],
		"cosmo_sigma_profile": { 
			"-0.025": 0.0,
			"-0.024": 0.0,
			"-0.023": 0.0,
			"-0.022": 0.0,
			"-0.021": 0.0,
			"-0.02": 0.0,
			"-0.019": 0.0,
			"-0.018": 0.0,
			"-0.017": 0.0,
			"-0.016": 0.0,
			"-0.015": 0.0,
			"-0.014": 0.190482757705,
			"-0.013": 2.06677836137,
			"-0.012": 1.97436344383,
			"-0.011": 3.53923766273,
			"-0.01": 5.21621978583,
			"-0.009": 3.79272857386,
			"-0.008": 4.02706837423,
			"-0.007": 4.89669688873,
			"-0.006": 9.75418123182,
			"-0.005": 12.3433136512,
			"-0.004": 13.1236146092,
			"-0.003": 10.1098585728,
			"-0.002": 9.623245308,
			"-0.001": 11.7428280504,
			"0.0": 10.7071696876,
			"0.001": 12.6231926601,
			"0.002": 11.7286815791,
			"0.003": 13.0120926188,
			"0.004": 15.3442683,
			"0.005": 11.2389185424,
			"0.006": 4.77463297419,
			"0.007": 4.49864247381,
			"0.008": 2.87896189866,
			"0.009": 3.33772593218,
			"0.01": 3.5885375161,
			"0.011": 2.72316394497,
			"0.012": 2.38869307136,
			"0.013": 2.24488903955,
			"0.014": 1.33377055753,
			"0.015": 0.857963026062,
			"0.016": 0.843405227827,
			"0.017": 0.0628339440222,
			"0.018": 0.0,
			"0.019": 0.0,
			"0.02": 0.0,
			"0.021": 0.0,
			"0.022": 0.0,
			"0.023": 0.0,
			"0.024": 0.0,
			"0.025": 0.0
		}
	}
}
