{
	 "smiles": "CC(C)CCNC(=O)C1CSCN1", 
	 "Tm": 436.15, 
	 "num_atms": 31, 
	 "gaussian": { 
		 "optdone": 1, 
		 "sigma_profile": "yes", 
		 "theory": "DFT", 
		 "functional": "B3LYP", 
		 "basiset": "6-31G**", 
		 "properties": { 
			 "R2extent": 3783.3697, 
			 "electric_dipole_moment_norm": 3.00455228112, 
			 "electric_quadrupole_moment_norm": 14.3642524, 
			 "total_energy": -936.730059015, 
			 "HOMO_LUMO_gap": 0.22945, 
			 "cosmo_polarized_energy": -13.56, 
			 "cosmo_cavitation_energy": 33.42, 
			 "cosmo_dispersion_energy": -23.43, 
			 "cosmo_repulsion_energy": 1.85, 
			 "cosmo_total_nonelectrostatic_energy": 11.84, 
			 "SMD_solvation_energy": 4.3 
		},
		"coords": [
			{
				"x": -0.4915289498,
				"y": 2.7161265618,
				"z": -1.5661976715,
				"element": "C" 
			},
			{
				"x": 0.2233698729,
				"y": 1.794059028,
				"z": -2.5667967707,
				"element": "C" 
			},
			{
				"x": -0.784999322,
				"y": 1.0678823004,
				"z": -3.4723148038,
				"element": "C" 
			},
			{
				"x": 1.2117488057,
				"y": 0.8278463937,
				"z": -1.8764403234,
				"element": "C" 
			},
			{
				"x": 0.5873585175,
				"y": -0.1529249541,
				"z": -0.8739125104,
				"element": "C" 
			},
			{
				"x": 1.612174646,
				"y": -1.0449133456,
				"z": -0.3317202374,
				"element": "N" 
			},
			{
				"x": 1.7833884071,
				"y": -1.5605707288,
				"z": 0.9218115508,
				"element": "C" 
			},
			{
				"x": 2.638960759,
				"y": -2.4121007231,
				"z": 1.144931819,
				"element": "O" 
			},
			{
				"x": 0.8952665734,
				"y": -1.0771454846,
				"z": 2.0830875733,
				"element": "C" 
			},
			{
				"x": -0.5515879688,
				"y": -1.6015155722,
				"z": 2.0016408944,
				"element": "C" 
			},
			{
				"x": -1.5473627719,
				"y": -0.475570067,
				"z": 3.0779682707,
				"element": "S" 
			},
			{
				"x": -0.1329360471,
				"y": 0.6981040469,
				"z": 3.2749747719,
				"element": "C" 
			},
			{
				"x": 0.7750690059,
				"y": 0.382484986,
				"z": 2.1766885493,
				"element": "N" 
			},
			{
				"x": -1.1729428264,
				"y": 2.1580509477,
				"z": -0.9144541728,
				"element": "H" 
			},
			{
				"x": 0.2248831256,
				"y": 3.2423257577,
				"z": -0.925724455,
				"element": "H" 
			},
			{
				"x": -1.0877196509,
				"y": 3.4703361677,
				"z": -2.0908534958,
				"element": "H" 
			},
			{
				"x": 0.8380331218,
				"y": 2.4331397808,
				"z": -3.2165025965,
				"element": "H" 
			},
			{
				"x": -1.3817431234,
				"y": 1.7878551632,
				"z": -4.0424561251,
				"element": "H" 
			},
			{
				"x": -0.2792522867,
				"y": 0.4123812037,
				"z": -4.1902092948,
				"element": "H" 
			},
			{
				"x": -1.4848632387,
				"y": 0.4543487488,
				"z": -2.8941456744,
				"element": "H" 
			},
			{
				"x": 1.9768599954,
				"y": 1.4107307277,
				"z": -1.3482236307,
				"element": "H" 
			},
			{
				"x": 1.7401414728,
				"y": 0.2547521933,
				"z": -2.6524039198,
				"element": "H" 
			},
			{
				"x": 0.144474996,
				"y": 0.3882288393,
				"z": -0.0383857661,
				"element": "H" 
			},
			{
				"x": -0.2013397704,
				"y": -0.7429748293,
				"z": -1.3622622661,
				"element": "H" 
			},
			{
				"x": 2.2335454273,
				"y": -1.4862932638,
				"z": -1.0001556038,
				"element": "H" 
			},
			{
				"x": 1.3673278787,
				"y": -1.516832933,
				"z": 2.9744205449,
				"element": "H" 
			},
			{
				"x": -0.6169317563,
				"y": -2.6265202333,
				"z": 2.3696912939,
				"element": "H" 
			},
			{
				"x": -0.946285137,
				"y": -1.5606902754,
				"z": 0.9848460513,
				"element": "H" 
			},
			{
				"x": 0.3078191414,
				"y": 0.5490170516,
				"z": 4.2719545334,
				"element": "H" 
			},
			{
				"x": -0.4980820434,
				"y": 1.7252031474,
				"z": 3.1933645327,
				"element": "H" 
			},
			{
				"x": 1.6863531461,
				"y": 0.8069793643,
				"z": 2.3387789326,
				"element": "H" 
			}
		],
		 "valence_orbital": [ 
			{
				"type": "occ",
				"energy": -0.32158,
				"method": "rhf"
			},
			{
				"type": "occ",
				"energy": -0.24942,
				"method": "rhf"
			},
			{
				"type": "occ",
				"energy": -0.2468,
				"method": "rhf"
			},
			{
				"type": "occ",
				"energy": -0.24263,
				"method": "rhf"
			},
			{
				"type": "occ",
				"energy": -0.2244,
				"method": "rhf"
			},
			{
				"type": "unocc",
				"energy": 0.00505,
				"method": "rhf"
			},
			{
				"type": "unocc",
				"energy": 0.03857,
				"method": "rhf"
			},
			{
				"type": "unocc",
				"energy": 0.05532,
				"method": "rhf"
			},
			{
				"type": "unocc",
				"energy": 0.07171,
				"method": "rhf"
			},
			{
				"type": "unocc",
				"energy": 0.08918,
				"method": "rhf"
			}
		],
		"cosmo_sigma_profile": { 
			"-0.025": 0.0,
			"-0.024": 0.0,
			"-0.023": 0.0,
			"-0.022": 0.0,
			"-0.021": 0.0,
			"-0.02": 0.0,
			"-0.019": 0.0,
			"-0.018": 0.0,
			"-0.017": 0.0,
			"-0.016": 0.0,
			"-0.015": 0.0,
			"-0.014": 0.0,
			"-0.013": 0.230463768554,
			"-0.012": 2.59840864189,
			"-0.011": 1.80597245739,
			"-0.01": 2.50080772778,
			"-0.009": 2.95702665125,
			"-0.008": 2.31776485519,
			"-0.007": 2.67116931006,
			"-0.006": 7.46964772329,
			"-0.005": 13.3487032058,
			"-0.004": 17.3313650664,
			"-0.003": 25.9150907631,
			"-0.002": 34.438680967,
			"-0.001": 28.3368746989,
			"0.0": 25.4917885834,
			"0.001": 22.2232353552,
			"0.002": 16.4695729084,
			"0.003": 6.14626785022,
			"0.004": 4.57681138508,
			"0.005": 7.82781534866,
			"0.006": 5.60501062571,
			"0.007": 4.25896989733,
			"0.008": 5.25836806312,
			"0.009": 2.71612285934,
			"0.01": 3.02283507361,
			"0.011": 2.74298199972,
			"0.012": 1.65956037439,
			"0.013": 2.4463305024,
			"0.014": 6.33958206426,
			"0.015": 2.24635565467,
			"0.016": 0.0789986129129,
			"0.017": 0.0,
			"0.018": 0.0,
			"0.019": 0.0,
			"0.02": 0.0,
			"0.021": 0.0,
			"0.022": 0.0,
			"0.023": 0.0,
			"0.024": 0.0,
			"0.025": 0.0
		}
	}
}
