{
	 "smiles": "CC(C)(C)C(=O)NCCC1=CC=C(S1)S(N)(=O)=O", 
	 "Tm": 418.15, 
	 "num_atms": 36, 
	 "gaussian": { 
		 "optdone": 1, 
		 "sigma_profile": "yes", 
		 "theory": "DFT", 
		 "functional": "B3LYP", 
		 "basiset": "6-31G**", 
		 "properties": { 
			 "R2extent": 7960.4688, 
			 "electric_dipole_moment_norm": 7.66878731874, 
			 "electric_quadrupole_moment_norm": 38.9134596904, 
			 "total_energy": -1561.50093442, 
			 "HOMO_LUMO_gap": 0.19463, 
			 "cosmo_polarized_energy": -28.14, 
			 "cosmo_cavitation_energy": 41.43, 
			 "cosmo_dispersion_energy": -27.94, 
			 "cosmo_repulsion_energy": 2.09, 
			 "cosmo_total_nonelectrostatic_energy": 15.58, 
			 "SMD_solvation_energy": 6.87 
		},
		"coords": [
			{
				"x": 0.3703503686,
				"y": 2.7987149411,
				"z": -1.1809492719,
				"element": "C" 
			},
			{
				"x": 0.9438304316,
				"y": 1.376135765,
				"z": -0.9787170749,
				"element": "C" 
			},
			{
				"x": -0.0760747079,
				"y": 0.2944755645,
				"z": -1.4038199747,
				"element": "C" 
			},
			{
				"x": 2.1922629017,
				"y": 1.2351334517,
				"z": -1.8714740944,
				"element": "C" 
			},
			{
				"x": 1.4015726459,
				"y": 1.1648267222,
				"z": 0.4880727359,
				"element": "C" 
			},
			{
				"x": 2.5773291406,
				"y": 0.942484897,
				"z": 0.7548860343,
				"element": "O" 
			},
			{
				"x": 0.4983936163,
				"y": 1.1969345315,
				"z": 1.535609835,
				"element": "N" 
			},
			{
				"x": -0.8922139899,
				"y": 1.6036592984,
				"z": 1.643924648,
				"element": "C" 
			},
			{
				"x": -1.6964274494,
				"y": 0.6740073887,
				"z": 2.5811366582,
				"element": "C" 
			},
			{
				"x": -1.9135025908,
				"y": -0.7174703359,
				"z": 2.0550569121,
				"element": "C" 
			},
			{
				"x": -3.0395758979,
				"y": -1.2109406029,
				"z": 1.4385194851,
				"element": "C" 
			},
			{
				"x": -2.9255973249,
				"y": -2.5744995217,
				"z": 1.048689307,
				"element": "C" 
			},
			{
				"x": -1.7067031374,
				"y": -3.1067477819,
				"z": 1.3818954858,
				"element": "C" 
			},
			{
				"x": -0.6834063422,
				"y": -1.9476214839,
				"z": 2.1828533208,
				"element": "S" 
			},
			{
				"x": -1.1781469878,
				"y": -4.769960712,
				"z": 1.0478495323,
				"element": "S" 
			},
			{
				"x": -0.1969738458,
				"y": -4.7156753686,
				"z": -0.3115108886,
				"element": "N" 
			},
			{
				"x": -0.3034046901,
				"y": -5.180277249,
				"z": 2.1422764304,
				"element": "O" 
			},
			{
				"x": -2.3754327253,
				"y": -5.5046154786,
				"z": 0.6499042152,
				"element": "O" 
			},
			{
				"x": 0.1618561164,
				"y": 2.9595419761,
				"z": -2.2441113715,
				"element": "H" 
			},
			{
				"x": -0.559567205,
				"y": 2.9792667011,
				"z": -0.6370950658,
				"element": "H" 
			},
			{
				"x": 1.095295105,
				"y": 3.5568747443,
				"z": -0.8671602353,
				"element": "H" 
			},
			{
				"x": -0.3235715249,
				"y": 0.421985645,
				"z": -2.4633462697,
				"element": "H" 
			},
			{
				"x": -1.012224895,
				"y": 0.3234605438,
				"z": -0.841708754,
				"element": "H" 
			},
			{
				"x": 0.3516472912,
				"y": -0.7056370484,
				"z": -1.2787534862,
				"element": "H" 
			},
			{
				"x": 2.9497392368,
				"y": 1.9776524573,
				"z": -1.6115089476,
				"element": "H" 
			},
			{
				"x": 2.6508796411,
				"y": 0.2505624058,
				"z": -1.7568911993,
				"element": "H" 
			},
			{
				"x": 1.9102440847,
				"y": 1.3727793231,
				"z": -2.9208689017,
				"element": "H" 
			},
			{
				"x": 0.9964442142,
				"y": 1.1014978266,
				"z": 2.4140527204,
				"element": "H" 
			},
			{
				"x": -0.9683996115,
				"y": 2.6298437089,
				"z": 2.0336443386,
				"element": "H" 
			},
			{
				"x": -1.3556139214,
				"y": 1.5989563337,
				"z": 0.6600121404,
				"element": "H" 
			},
			{
				"x": -2.6781600391,
				"y": 1.1320333147,
				"z": 2.7466282375,
				"element": "H" 
			},
			{
				"x": -1.2041649675,
				"y": 0.6433254482,
				"z": 3.5614009939,
				"element": "H" 
			},
			{
				"x": -3.9329970274,
				"y": -0.61489017,
				"z": 1.284912388,
				"element": "H" 
			},
			{
				"x": -3.7027190296,
				"y": -3.1524114742,
				"z": 0.5636352496,
				"element": "H" 
			},
			{
				"x": -0.6824357073,
				"y": -4.3914970435,
				"z": -1.1416527598,
				"element": "H" 
			},
			{
				"x": 0.6844688241,
				"y": -4.2401087181,
				"z": -0.1461923729,
				"element": "H" 
			}
		],
		 "valence_orbital": [ 
			{
				"type": "occ",
				"energy": -0.30737,
				"method": "rhf"
			},
			{
				"type": "occ",
				"energy": -0.27633,
				"method": "rhf"
			},
			{
				"type": "occ",
				"energy": -0.25967,
				"method": "rhf"
			},
			{
				"type": "occ",
				"energy": -0.25251,
				"method": "rhf"
			},
			{
				"type": "occ",
				"energy": -0.24641,
				"method": "rhf"
			},
			{
				"type": "unocc",
				"energy": -0.05178,
				"method": "rhf"
			},
			{
				"type": "unocc",
				"energy": 0.00371,
				"method": "rhf"
			},
			{
				"type": "unocc",
				"energy": 0.01881,
				"method": "rhf"
			},
			{
				"type": "unocc",
				"energy": 0.03089,
				"method": "rhf"
			},
			{
				"type": "unocc",
				"energy": 0.05001,
				"method": "rhf"
			}
		],
		"cosmo_sigma_profile": { 
			"-0.025": 0.0,
			"-0.024": 0.0,
			"-0.023": 0.0,
			"-0.022": 0.0,
			"-0.021": 0.0,
			"-0.02": 0.0,
			"-0.019": 0.0,
			"-0.018": 0.0,
			"-0.017": 0.0,
			"-0.016": 0.115899487905,
			"-0.015": 2.09018260886,
			"-0.014": 2.21941816493,
			"-0.013": 3.37285129744,
			"-0.012": 4.17278364232,
			"-0.011": 3.30327346705,
			"-0.01": 4.58127254631,
			"-0.009": 3.12524682328,
			"-0.008": 4.37923415432,
			"-0.007": 9.60408003705,
			"-0.006": 13.3020116801,
			"-0.005": 17.5682833448,
			"-0.004": 19.2318153232,
			"-0.003": 26.4972676725,
			"-0.002": 24.5225856576,
			"-0.001": 24.4821341109,
			"0.0": 28.1505281822,
			"0.001": 30.4728047491,
			"0.002": 19.9897361034,
			"0.003": 13.500998459,
			"0.004": 7.23629226304,
			"0.005": 4.85955590294,
			"0.006": 5.67940304289,
			"0.007": 5.90029811488,
			"0.008": 5.8482755792,
			"0.009": 5.44018779396,
			"0.01": 10.826605534,
			"0.011": 12.3595316676,
			"0.012": 4.38560395107,
			"0.013": 2.63105171089,
			"0.014": 5.53427808499,
			"0.015": 1.59123051123,
			"0.016": 0.0,
			"0.017": 0.0,
			"0.018": 0.0,
			"0.019": 0.0,
			"0.02": 0.0,
			"0.021": 0.0,
			"0.022": 0.0,
			"0.023": 0.0,
			"0.024": 0.0,
			"0.025": 0.0
		}
	}
}
