{
	 "smiles": "CC1=NC2=NC(=NN2C(=C1)C1=CC=CC=C1)C(F)(F)F", 
	 "Tm": 362.15, 
	 "num_atms": 29, 
	 "gaussian": { 
		 "optdone": 1, 
		 "sigma_profile": "yes", 
		 "theory": "DFT", 
		 "functional": "B3LYP", 
		 "basiset": "6-31G**", 
		 "properties": { 
			 "R2extent": 6117.8573, 
			 "electric_dipole_moment_norm": 7.21632299305, 
			 "electric_quadrupole_moment_norm": 6.6880023445, 
			 "total_energy": -1019.32917188, 
			 "HOMO_LUMO_gap": 0.16659, 
			 "cosmo_polarized_energy": -13.94, 
			 "cosmo_cavitation_energy": 35.57, 
			 "cosmo_dispersion_energy": -25.36, 
			 "cosmo_repulsion_energy": 1.87, 
			 "cosmo_total_nonelectrostatic_energy": 12.08, 
			 "SMD_solvation_energy": 3.11 
		},
		"coords": [
			{
				"x": 0.2971489973,
				"y": 1.5432595014,
				"z": -4.0875530431,
				"element": "C" 
			},
			{
				"x": 0.1521408237,
				"y": 1.0900836165,
				"z": -2.6578462499,
				"element": "C" 
			},
			{
				"x": -1.0811521725,
				"y": 1.0268687828,
				"z": -2.1739744479,
				"element": "N" 
			},
			{
				"x": -1.2087558735,
				"y": 0.6309916441,
				"z": -0.9019648656,
				"element": "C" 
			},
			{
				"x": -2.3209691805,
				"y": 0.4693352436,
				"z": -0.1842518195,
				"element": "N" 
			},
			{
				"x": -1.8493996154,
				"y": 0.0506634148,
				"z": 1.0034569371,
				"element": "C" 
			},
			{
				"x": -0.5293203927,
				"y": -0.0801344506,
				"z": 1.1343413991,
				"element": "N" 
			},
			{
				"x": -0.1022886614,
				"y": 0.2987918169,
				"z": -0.0970107408,
				"element": "N" 
			},
			{
				"x": 1.1866266151,
				"y": 0.3456485436,
				"z": -0.5695359659,
				"element": "C" 
			},
			{
				"x": 1.2976953563,
				"y": 0.7604255426,
				"z": -1.8847459106,
				"element": "C" 
			},
			{
				"x": 2.3388147111,
				"y": -0.0178201417,
				"z": 0.2782199871,
				"element": "C" 
			},
			{
				"x": 2.36926704,
				"y": 0.2481215343,
				"z": 1.6589543345,
				"element": "C" 
			},
			{
				"x": 3.5057405438,
				"y": -0.0575138888,
				"z": 2.4048824091,
				"element": "C" 
			},
			{
				"x": 4.6178098341,
				"y": -0.6415864125,
				"z": 1.7960868629,
				"element": "C" 
			},
			{
				"x": 4.5915068903,
				"y": -0.921648079,
				"z": 0.4281749733,
				"element": "C" 
			},
			{
				"x": 3.4633542463,
				"y": -0.610521267,
				"z": -0.3254745504,
				"element": "C" 
			},
			{
				"x": -2.7726690946,
				"y": -0.2687880959,
				"z": 2.1500550877,
				"element": "C" 
			},
			{
				"x": -2.082380479,
				"y": -0.6155801914,
				"z": 3.249634253,
				"element": "F" 
			},
			{
				"x": -3.5405089842,
				"y": 0.7940026527,
				"z": 2.4553428918,
				"element": "F" 
			},
			{
				"x": -3.5942660908,
				"y": -1.2874203708,
				"z": 1.8332859055,
				"element": "F" 
			},
			{
				"x": -0.2601557083,
				"y": 0.873213429,
				"z": -4.7494606277,
				"element": "H" 
			},
			{
				"x": -0.1326233609,
				"y": 2.5424320382,
				"z": -4.2085303222,
				"element": "H" 
			},
			{
				"x": 1.3414764031,
				"y": 1.5669735004,
				"z": -4.4065703082,
				"element": "H" 
			},
			{
				"x": 2.2841188914,
				"y": 0.8619861294,
				"z": -2.3179453485,
				"element": "H" 
			},
			{
				"x": 1.5050804757,
				"y": 0.6846268548,
				"z": 2.1418430082,
				"element": "H" 
			},
			{
				"x": 3.5184355965,
				"y": 0.1591709838,
				"z": 3.4686824273,
				"element": "H" 
			},
			{
				"x": 5.4971442439,
				"y": -0.8848660811,
				"z": 2.3851191204,
				"element": "H" 
			},
			{
				"x": 5.4457497339,
				"y": -1.3903735986,
				"z": -0.0508557468,
				"element": "H" 
			},
			{
				"x": 3.4408792113,
				"y": -0.8549426514,
				"z": -1.3826596502,
				"element": "H" 
			}
		],
		 "valence_orbital": [ 
			{
				"type": "occ",
				"energy": -0.28886,
				"method": "rhf"
			},
			{
				"type": "occ",
				"energy": -0.28239,
				"method": "rhf"
			},
			{
				"type": "occ",
				"energy": -0.27492,
				"method": "rhf"
			},
			{
				"type": "occ",
				"energy": -0.27139,
				"method": "rhf"
			},
			{
				"type": "occ",
				"energy": -0.24911,
				"method": "rhf"
			},
			{
				"type": "unocc",
				"energy": -0.08252,
				"method": "rhf"
			},
			{
				"type": "unocc",
				"energy": -0.03023,
				"method": "rhf"
			},
			{
				"type": "unocc",
				"energy": -0.02175,
				"method": "rhf"
			},
			{
				"type": "unocc",
				"energy": -0.01312,
				"method": "rhf"
			},
			{
				"type": "unocc",
				"energy": 0.03035,
				"method": "rhf"
			}
		],
		"cosmo_sigma_profile": { 
			"-0.025": 0.0,
			"-0.024": 0.0,
			"-0.023": 0.0,
			"-0.022": 0.0,
			"-0.021": 0.0,
			"-0.02": 0.0,
			"-0.019": 0.0,
			"-0.018": 0.0,
			"-0.017": 0.0,
			"-0.016": 0.0,
			"-0.015": 0.0,
			"-0.014": 0.0,
			"-0.013": 0.0,
			"-0.012": 0.0,
			"-0.011": 0.0,
			"-0.01": 0.0,
			"-0.009": 1.04908209992,
			"-0.008": 3.82688900885,
			"-0.007": 6.5747579483,
			"-0.006": 16.2198303451,
			"-0.005": 22.2374866633,
			"-0.004": 22.200661564,
			"-0.003": 21.9173449694,
			"-0.002": 25.2228277415,
			"-0.001": 21.3606002525,
			"0.0": 15.3239570782,
			"0.001": 16.8798073358,
			"0.002": 39.0013246486,
			"0.003": 27.7078333236,
			"0.004": 15.9056951207,
			"0.005": 5.36421773355,
			"0.006": 3.78647835601,
			"0.007": 3.36992876429,
			"0.008": 2.94041839655,
			"0.009": 3.38635875939,
			"0.01": 3.29189455963,
			"0.011": 2.7473954013,
			"0.012": 2.08891269887,
			"0.013": 2.27357183393,
			"0.014": 1.92301987098,
			"0.015": 0.419479726728,
			"0.016": 0.0,
			"0.017": 0.0,
			"0.018": 0.0,
			"0.019": 0.0,
			"0.02": 0.0,
			"0.021": 0.0,
			"0.022": 0.0,
			"0.023": 0.0,
			"0.024": 0.0,
			"0.025": 0.0
		}
	}
}
