{
	 "smiles": "C1COCCNCCOCCOCCN1", 
	 "Tm": 363.65, 
	 "num_atms": 37, 
	 "gaussian": { 
		 "optdone": 1, 
		 "sigma_profile": "yes", 
		 "theory": "DFT", 
		 "functional": "B3LYP", 
		 "basiset": "6-31G**", 
		 "properties": { 
			 "R2extent": 3801.8057, 
			 "electric_dipole_moment_norm": 3.06196390247, 
			 "electric_quadrupole_moment_norm": 14.632632254, 
			 "total_energy": -729.428708967, 
			 "HOMO_LUMO_gap": 0.2764, 
			 "cosmo_polarized_energy": -15.93, 
			 "cosmo_cavitation_energy": 35.28, 
			 "cosmo_dispersion_energy": -24.91, 
			 "cosmo_repulsion_energy": 1.96, 
			 "cosmo_total_nonelectrostatic_energy": 12.34, 
			 "SMD_solvation_energy": 4.2 
		},
		"coords": [
			{
				"x": -1.3992457786,
				"y": 2.326599218,
				"z": 1.3473563895,
				"element": "C" 
			},
			{
				"x": -2.1939940205,
				"y": 1.039636135,
				"z": 1.1451568173,
				"element": "C" 
			},
			{
				"x": -1.3593239593,
				"y": -0.0752541211,
				"z": 1.3810342371,
				"element": "O" 
			},
			{
				"x": -2.002737205,
				"y": -1.3089407973,
				"z": 1.1376513199,
				"element": "C" 
			},
			{
				"x": -1.0404246616,
				"y": -2.4640377563,
				"z": 1.39780383,
				"element": "C" 
			},
			{
				"x": 0.1332425214,
				"y": -2.4714457918,
				"z": 0.5355939671,
				"element": "N" 
			},
			{
				"x": -0.0804218587,
				"y": -2.834883151,
				"z": -0.8665125443,
				"element": "C" 
			},
			{
				"x": -0.0749802063,
				"y": -1.6334603794,
				"z": -1.8217275381,
				"element": "C" 
			},
			{
				"x": 1.1973861601,
				"y": -1.0303286312,
				"z": -1.9346069752,
				"element": "O" 
			},
			{
				"x": 1.5034581965,
				"y": -0.0108882322,
				"z": -0.9842038826,
				"element": "C" 
			},
			{
				"x": 1.8982175795,
				"y": 1.2628403853,
				"z": -1.7162006633,
				"element": "C" 
			},
			{
				"x": 0.8078202725,
				"y": 1.8533012884,
				"z": -2.4213521823,
				"element": "O" 
			},
			{
				"x": 0.3360876709,
				"y": 3.1020256721,
				"z": -1.9628717818,
				"element": "C" 
			},
			{
				"x": -0.7992401701,
				"y": 3.012991301,
				"z": -0.9403197577,
				"element": "C" 
			},
			{
				"x": -0.3457005975,
				"y": 2.5179023151,
				"z": 0.3539200464,
				"element": "N" 
			},
			{
				"x": -2.1231462683,
				"y": 3.1645717378,
				"z": 1.3725071585,
				"element": "H" 
			},
			{
				"x": -0.9299625134,
				"y": 2.2748438898,
				"z": 2.3355633947,
				"element": "H" 
			},
			{
				"x": -3.0499099871,
				"y": 1.0397609864,
				"z": 1.843245707,
				"element": "H" 
			},
			{
				"x": -2.6152054556,
				"y": 0.9976424928,
				"z": 0.1267625213,
				"element": "H" 
			},
			{
				"x": -2.8778091951,
				"y": -1.4300277962,
				"z": 1.800739878,
				"element": "H" 
			},
			{
				"x": -2.382768758,
				"y": -1.3482082448,
				"z": 0.1028310047,
				"element": "H" 
			},
			{
				"x": -0.6943301917,
				"y": -2.3871783724,
				"z": 2.4346012168,
				"element": "H" 
			},
			{
				"x": -1.6399637565,
				"y": -3.39402275,
				"z": 1.3203974884,
				"element": "H" 
			},
			{
				"x": 0.8456991153,
				"y": -3.0604161054,
				"z": 0.9476660664,
				"element": "H" 
			},
			{
				"x": -1.0231407964,
				"y": -3.3969851598,
				"z": -1.0045168525,
				"element": "H" 
			},
			{
				"x": 0.7308282494,
				"y": -3.4990487006,
				"z": -1.1869398438,
				"element": "H" 
			},
			{
				"x": -0.8294509339,
				"y": -0.8941182688,
				"z": -1.5204355528,
				"element": "H" 
			},
			{
				"x": -0.3406673077,
				"y": -1.9888063235,
				"z": -2.8266431308,
				"element": "H" 
			},
			{
				"x": 2.3547178039,
				"y": -0.3395088801,
				"z": -0.3682669302,
				"element": "H" 
			},
			{
				"x": 0.6654114992,
				"y": 0.1840804178,
				"z": -0.3108899602,
				"element": "H" 
			},
			{
				"x": 2.326398677,
				"y": 1.9733487384,
				"z": -0.9943259298,
				"element": "H" 
			},
			{
				"x": 2.6734027863,
				"y": 1.0234004608,
				"z": -2.4567228206,
				"element": "H" 
			},
			{
				"x": -0.043660274,
				"y": 3.635268897,
				"z": -2.8438655921,
				"element": "H" 
			},
			{
				"x": 1.1618717021,
				"y": 3.7080660799,
				"z": -1.5513473001,
				"element": "H" 
			},
			{
				"x": -1.5489114834,
				"y": 2.322033095,
				"z": -1.3411036882,
				"element": "H" 
			},
			{
				"x": -1.2874242065,
				"y": 4.0073593353,
				"z": -0.8747040468,
				"element": "H" 
			},
			{
				"x": 0.3552773511,
				"y": 3.1507870162,
				"z": 0.72862593,
				"element": "H" 
			}
		],
		 "valence_orbital": [ 
			{
				"type": "occ",
				"energy": -0.25256,
				"method": "rhf"
			},
			{
				"type": "occ",
				"energy": -0.24667,
				"method": "rhf"
			},
			{
				"type": "occ",
				"energy": -0.22936,
				"method": "rhf"
			},
			{
				"type": "occ",
				"energy": -0.21881,
				"method": "rhf"
			},
			{
				"type": "occ",
				"energy": -0.20274,
				"method": "rhf"
			},
			{
				"type": "unocc",
				"energy": 0.07366,
				"method": "rhf"
			},
			{
				"type": "unocc",
				"energy": 0.08375,
				"method": "rhf"
			},
			{
				"type": "unocc",
				"energy": 0.08655,
				"method": "rhf"
			},
			{
				"type": "unocc",
				"energy": 0.11064,
				"method": "rhf"
			},
			{
				"type": "unocc",
				"energy": 0.12073,
				"method": "rhf"
			}
		],
		"cosmo_sigma_profile": { 
			"-0.025": 0.0,
			"-0.024": 0.0,
			"-0.023": 0.0,
			"-0.022": 0.0,
			"-0.021": 0.0,
			"-0.02": 0.0,
			"-0.019": 0.0,
			"-0.018": 0.0,
			"-0.017": 0.0,
			"-0.016": 0.0,
			"-0.015": 0.0,
			"-0.014": 0.0,
			"-0.013": 0.0,
			"-0.012": 0.0,
			"-0.011": 0.0517630044832,
			"-0.01": 1.84820200225,
			"-0.009": 3.02740374734,
			"-0.008": 2.42697871306,
			"-0.007": 3.30199012357,
			"-0.006": 4.15708777593,
			"-0.005": 5.23854531834,
			"-0.004": 23.4270974806,
			"-0.003": 48.4027761662,
			"-0.002": 56.0868004284,
			"-0.001": 34.3531763255,
			"0.0": 16.8488934043,
			"0.001": 7.53214357998,
			"0.002": 5.86827406611,
			"0.003": 5.51863268178,
			"0.004": 5.52892504004,
			"0.005": 4.43785743136,
			"0.006": 4.62801407651,
			"0.007": 4.79754250258,
			"0.008": 5.57820943828,
			"0.009": 4.75270315017,
			"0.01": 3.21248968676,
			"0.011": 3.86842093625,
			"0.012": 4.30343935102,
			"0.013": 4.13701254905,
			"0.014": 4.54745438081,
			"0.015": 1.76904469149,
			"0.016": 0.506361810922,
			"0.017": 0.609502873099,
			"0.018": 0.124417548332,
			"0.019": 3.76464589546e-05,
			"0.02": 0.0,
			"0.021": 0.0,
			"0.022": 0.0,
			"0.023": 0.0,
			"0.024": 0.0,
			"0.025": 0.0
		}
	}
}
