{
	 "smiles": "CCC1=NC(=NC(Cl)=C1)C1=NC=CC=C1", 
	 "Tm": 353.15, 
	 "num_atms": 25, 
	 "gaussian": { 
		 "optdone": 1, 
		 "sigma_profile": "yes", 
		 "theory": "DFT", 
		 "functional": "B3LYP", 
		 "basiset": "6-31G**", 
		 "properties": { 
			 "R2extent": 5402.9666, 
			 "electric_dipole_moment_norm": 3.83111530628, 
			 "electric_quadrupole_moment_norm": 18.9778010997, 
			 "total_energy": -1049.65295978, 
			 "HOMO_LUMO_gap": 0.18291, 
			 "cosmo_polarized_energy": -12.33, 
			 "cosmo_cavitation_energy": 31.58, 
			 "cosmo_dispersion_energy": -23.0, 
			 "cosmo_repulsion_energy": 1.83, 
			 "cosmo_total_nonelectrostatic_energy": 10.41, 
			 "SMD_solvation_energy": 1.8 
		},
		"coords": [
			{
				"x": 2.1826115873,
				"y": 1.9633134413,
				"z": -1.8134244367,
				"element": "C" 
			},
			{
				"x": 2.5183675335,
				"y": 1.9294608189,
				"z": -0.3125226361,
				"element": "C" 
			},
			{
				"x": 1.2807169134,
				"y": 1.9817198398,
				"z": 0.5504777434,
				"element": "C" 
			},
			{
				"x": 0.4800090691,
				"y": 0.903470947,
				"z": 0.5289524824,
				"element": "N" 
			},
			{
				"x": -0.632405216,
				"y": 0.9359096306,
				"z": 1.2733360556,
				"element": "C" 
			},
			{
				"x": -1.0200298072,
				"y": 1.9669319802,
				"z": 2.0474917778,
				"element": "N" 
			},
			{
				"x": -0.2238339486,
				"y": 3.0131385774,
				"z": 2.0539517955,
				"element": "C" 
			},
			{
				"x": -0.7022224113,
				"y": 4.377633737,
				"z": 3.0577449903,
				"element": "Cl" 
			},
			{
				"x": 0.961359673,
				"y": 3.1002500682,
				"z": 1.3232046006,
				"element": "C" 
			},
			{
				"x": -1.5077303043,
				"y": -0.2753287767,
				"z": 1.2393050522,
				"element": "C" 
			},
			{
				"x": -2.6347241988,
				"y": -0.240327878,
				"z": 1.9674953581,
				"element": "N" 
			},
			{
				"x": -3.4237959421,
				"y": -1.3155256319,
				"z": 1.9450995785,
				"element": "C" 
			},
			{
				"x": -3.1429348077,
				"y": -2.4704071697,
				"z": 1.2095660525,
				"element": "C" 
			},
			{
				"x": -1.9708749779,
				"y": -2.5003591345,
				"z": 0.4556229057,
				"element": "C" 
			},
			{
				"x": -1.1360482935,
				"y": -1.3862000485,
				"z": 0.4673153044,
				"element": "C" 
			},
			{
				"x": 1.5157202136,
				"y": 1.136668177,
				"z": -2.0725571605,
				"element": "H" 
			},
			{
				"x": 3.0933511366,
				"y": 1.8747766787,
				"z": -2.4131602452,
				"element": "H" 
			},
			{
				"x": 1.6856496859,
				"y": 2.89972174,
				"z": -2.086589634,
				"element": "H" 
			},
			{
				"x": 3.0515064367,
				"y": 0.9999396599,
				"z": -0.0824671888,
				"element": "H" 
			},
			{
				"x": 3.1822689602,
				"y": 2.7610693596,
				"z": -0.0535659429,
				"element": "H" 
			},
			{
				"x": 1.5918115391,
				"y": 3.9799399193,
				"z": 1.3571417254,
				"element": "H" 
			},
			{
				"x": -4.3298531734,
				"y": -1.2541971397,
				"z": 2.5459868083,
				"element": "H" 
			},
			{
				"x": -3.8243442117,
				"y": -3.3151790488,
				"z": 1.2312167019,
				"element": "H" 
			},
			{
				"x": -1.7098503972,
				"y": -3.3758888052,
				"z": -0.1319021703,
				"element": "H" 
			},
			{
				"x": -0.2138250586,
				"y": -1.3553309419,
				"z": -0.0993195181,
				"element": "H" 
			}
		],
		 "valence_orbital": [ 
			{
				"type": "occ",
				"energy": -0.29029,
				"method": "rhf"
			},
			{
				"type": "occ",
				"energy": -0.285,
				"method": "rhf"
			},
			{
				"type": "occ",
				"energy": -0.26643,
				"method": "rhf"
			},
			{
				"type": "occ",
				"energy": -0.25083,
				"method": "rhf"
			},
			{
				"type": "occ",
				"energy": -0.24745,
				"method": "rhf"
			},
			{
				"type": "unocc",
				"energy": -0.06454,
				"method": "rhf"
			},
			{
				"type": "unocc",
				"energy": -0.0444,
				"method": "rhf"
			},
			{
				"type": "unocc",
				"energy": -0.01844,
				"method": "rhf"
			},
			{
				"type": "unocc",
				"energy": 0.01708,
				"method": "rhf"
			},
			{
				"type": "unocc",
				"energy": 0.03141,
				"method": "rhf"
			}
		],
		"cosmo_sigma_profile": { 
			"-0.025": 0.0,
			"-0.024": 0.0,
			"-0.023": 0.0,
			"-0.022": 0.0,
			"-0.021": 0.0,
			"-0.02": 0.0,
			"-0.019": 0.0,
			"-0.018": 0.0,
			"-0.017": 0.0,
			"-0.016": 0.0,
			"-0.015": 0.0,
			"-0.014": 0.0,
			"-0.013": 0.0,
			"-0.012": 0.0,
			"-0.011": 0.0,
			"-0.01": 0.0,
			"-0.009": 0.623283182715,
			"-0.008": 2.69646516644,
			"-0.007": 7.67600787462,
			"-0.006": 11.3807712283,
			"-0.005": 13.1416261361,
			"-0.004": 14.7920398419,
			"-0.003": 22.429111781,
			"-0.002": 28.2217446878,
			"-0.001": 27.3936222361,
			"0.0": 25.3616902711,
			"0.001": 24.4914136677,
			"0.002": 22.3622023253,
			"0.003": 13.930259422,
			"0.004": 12.5204841662,
			"0.005": 5.95668380987,
			"0.006": 3.95537701449,
			"0.007": 4.04871983804,
			"0.008": 1.87917135944,
			"0.009": 1.75007910399,
			"0.01": 1.5077428579,
			"0.011": 1.43571460787,
			"0.012": 1.0262025665,
			"0.013": 0.865040012102,
			"0.014": 1.04844886176,
			"0.015": 1.01449237856,
			"0.016": 1.19775176636,
			"0.017": 0.92851238734,
			"0.018": 0.374409070531,
			"0.019": 1.00619046364,
			"0.02": 0.483043894455,
			"0.021": 0.0,
			"0.022": 0.0,
			"0.023": 0.0,
			"0.024": 0.0,
			"0.025": 0.0
		}
	}
}
