{
	 "smiles": "NC(=S)C(=CC1=C(O)C=CC=C1)C(O)=O", 
	 "Tm": 517.15, 
	 "num_atms": 24, 
	 "gaussian": { 
		 "optdone": 1, 
		 "sigma_profile": "yes", 
		 "theory": "DFT", 
		 "functional": "B3LYP", 
		 "basiset": "6-31G**", 
		 "properties": { 
			 "R2extent": 4382.8092, 
			 "electric_dipole_moment_norm": 6.31104765075, 
			 "electric_quadrupole_moment_norm": 10.6639294779, 
			 "total_energy": -1065.09874795, 
			 "HOMO_LUMO_gap": 0.14182, 
			 "cosmo_polarized_energy": -19.81, 
			 "cosmo_cavitation_energy": 29.78, 
			 "cosmo_dispersion_energy": -21.88, 
			 "cosmo_repulsion_energy": 1.66, 
			 "cosmo_total_nonelectrostatic_energy": 9.56, 
			 "SMD_solvation_energy": 5.72 
		},
		"coords": [
			{
				"x": 0.0297238597,
				"y": -0.8787479418,
				"z": 0.7340195032,
				"element": "N" 
			},
			{
				"x": 0.2272047859,
				"y": -1.3861856092,
				"z": -0.4892511777,
				"element": "C" 
			},
			{
				"x": 0.3284353949,
				"y": -3.0490951418,
				"z": -0.7380927278,
				"element": "S" 
			},
			{
				"x": 0.3381466743,
				"y": -0.3844388384,
				"z": -1.5840234868,
				"element": "C" 
			},
			{
				"x": -0.4902680368,
				"y": 0.6843070905,
				"z": -1.7236418039,
				"element": "C" 
			},
			{
				"x": -1.7141999084,
				"y": 1.0713988698,
				"z": -1.0143287786,
				"element": "C" 
			},
			{
				"x": -2.7377691413,
				"y": 0.1760680856,
				"z": -0.6150073508,
				"element": "C" 
			},
			{
				"x": -2.7248168419,
				"y": -1.1572736213,
				"z": -0.86416288,
				"element": "O" 
			},
			{
				"x": -3.8683849838,
				"y": 0.6603380833,
				"z": 0.0568626105,
				"element": "C" 
			},
			{
				"x": -4.0070905917,
				"y": 2.0168309157,
				"z": 0.3225456277,
				"element": "C" 
			},
			{
				"x": -3.0289820947,
				"y": 2.925001825,
				"z": -0.101786562,
				"element": "C" 
			},
			{
				"x": -1.9143015681,
				"y": 2.4505031215,
				"z": -0.7779264992,
				"element": "C" 
			},
			{
				"x": 1.4716620789,
				"y": -0.4490200611,
				"z": -2.608897923,
				"element": "C" 
			},
			{
				"x": 2.0742679718,
				"y": -1.6222899593,
				"z": -2.8009852538,
				"element": "O" 
			},
			{
				"x": 1.8008390515,
				"y": 0.5401416728,
				"z": -3.2276352818,
				"element": "O" 
			},
			{
				"x": -0.0842088149,
				"y": 0.1147531475,
				"z": 0.8785893189,
				"element": "H" 
			},
			{
				"x": -0.124178298,
				"y": -1.5090195247,
				"z": 1.5089343442,
				"element": "H" 
			},
			{
				"x": -0.1717831947,
				"y": 1.3735690626,
				"z": -2.5045334242,
				"element": "H" 
			},
			{
				"x": -1.9852014424,
				"y": -1.4066473641,
				"z": -1.4367130943,
				"element": "H" 
			},
			{
				"x": -4.6319547392,
				"y": -0.05484107,
				"z": 0.3439525855,
				"element": "H" 
			},
			{
				"x": -4.8913047228,
				"y": 2.371335604,
				"z": 0.8440173352,
				"element": "H" 
			},
			{
				"x": -3.1439349193,
				"y": 3.9877188093,
				"z": 0.0840843849,
				"element": "H" 
			},
			{
				"x": -1.1529300798,
				"y": 3.1449736591,
				"z": -1.123117569,
				"element": "H" 
			},
			{
				"x": 1.6254295608,
				"y": -2.3310808147,
				"z": -2.2803018971,
				"element": "H" 
			}
		],
		 "valence_orbital": [ 
			{
				"type": "occ",
				"energy": -0.27769,
				"method": "rhf"
			},
			{
				"type": "occ",
				"energy": -0.268,
				"method": "rhf"
			},
			{
				"type": "occ",
				"energy": -0.25909,
				"method": "rhf"
			},
			{
				"type": "occ",
				"energy": -0.24846,
				"method": "rhf"
			},
			{
				"type": "occ",
				"energy": -0.23816,
				"method": "rhf"
			},
			{
				"type": "unocc",
				"energy": -0.09634,
				"method": "rhf"
			},
			{
				"type": "unocc",
				"energy": -0.04388,
				"method": "rhf"
			},
			{
				"type": "unocc",
				"energy": -0.01613,
				"method": "rhf"
			},
			{
				"type": "unocc",
				"energy": 1e-05,
				"method": "rhf"
			},
			{
				"type": "unocc",
				"energy": 0.04527,
				"method": "rhf"
			}
		],
		"cosmo_sigma_profile": { 
			"-0.025": 0.0,
			"-0.024": 0.0,
			"-0.023": 0.0,
			"-0.022": 0.0,
			"-0.021": 0.0,
			"-0.02": 0.0,
			"-0.019": 0.0,
			"-0.018": 0.0,
			"-0.017": 0.0941926613873,
			"-0.016": 1.20309972553,
			"-0.015": 2.57521393913,
			"-0.014": 2.95319699502,
			"-0.013": 2.14719232881,
			"-0.012": 2.68360969984,
			"-0.011": 2.71037390877,
			"-0.01": 2.72168662724,
			"-0.009": 2.19200095126,
			"-0.008": 4.33606511036,
			"-0.007": 7.12283861215,
			"-0.006": 12.8074357901,
			"-0.005": 14.9332924022,
			"-0.004": 17.3876178941,
			"-0.003": 14.9178628029,
			"-0.002": 10.9956427564,
			"-0.001": 10.5314948244,
			"0.0": 12.4191347356,
			"0.001": 12.7111559458,
			"0.002": 15.9266265609,
			"0.003": 16.157476462,
			"0.004": 15.2556848742,
			"0.005": 10.1566556409,
			"0.006": 7.30002978121,
			"0.007": 7.07115660569,
			"0.008": 7.34205398311,
			"0.009": 5.6188072721,
			"0.01": 6.8187541271,
			"0.011": 5.60792567625,
			"0.012": 4.54811732642,
			"0.013": 1.71351270454,
			"0.014": 0.0825218946016,
			"0.015": 0.0,
			"0.016": 0.0,
			"0.017": 0.0,
			"0.018": 0.0,
			"0.019": 0.0,
			"0.02": 0.0,
			"0.021": 0.0,
			"0.022": 0.0,
			"0.023": 0.0,
			"0.024": 0.0,
			"0.025": 0.0
		}
	}
}
