{
	 "smiles": "O=C1CC(C(=O)N1)C1=CC=CC=C1", 
	 "Tm": 346.15, 
	 "num_atms": 22, 
	 "gaussian": { 
		 "optdone": 1, 
		 "sigma_profile": "yes", 
		 "theory": "DFT", 
		 "functional": "B3LYP", 
		 "basiset": "6-31G**", 
		 "properties": { 
			 "R2extent": 3117.6218, 
			 "electric_dipole_moment_norm": 2.13563345872, 
			 "electric_quadrupole_moment_norm": 11.6304162901, 
			 "total_energy": -591.718633177, 
			 "HOMO_LUMO_gap": 0.22704, 
			 "cosmo_polarized_energy": -15.49, 
			 "cosmo_cavitation_energy": 26.43, 
			 "cosmo_dispersion_energy": -19.05, 
			 "cosmo_repulsion_energy": 1.53, 
			 "cosmo_total_nonelectrostatic_energy": 8.91, 
			 "SMD_solvation_energy": 5.78 
		},
		"coords": [
			{
				"x": 2.7147848693,
				"y": 3.8943054762,
				"z": 1.2120453021,
				"element": "O" 
			},
			{
				"x": 2.2797668735,
				"y": 2.993494711,
				"z": 0.5297431513,
				"element": "C" 
			},
			{
				"x": 0.956599862,
				"y": 2.2496362909,
				"z": 0.6852317865,
				"element": "C" 
			},
			{
				"x": 0.8504408107,
				"y": 1.3083518839,
				"z": -0.5400851736,
				"element": "C" 
			},
			{
				"x": 2.228975714,
				"y": 1.4233218316,
				"z": -1.2250293043,
				"element": "C" 
			},
			{
				"x": 2.6378089011,
				"y": 0.7981253667,
				"z": -2.1764414528,
				"element": "O" 
			},
			{
				"x": 2.9344892854,
				"y": 2.4237081205,
				"z": -0.5603079042,
				"element": "N" 
			},
			{
				"x": 0.4503710695,
				"y": -0.1237945425,
				"z": -0.2439691855,
				"element": "C" 
			},
			{
				"x": -0.724615878,
				"y": -0.6587108356,
				"z": -0.7817166003,
				"element": "C" 
			},
			{
				"x": -1.1077762421,
				"y": -1.9709165151,
				"z": -0.4968822917,
				"element": "C" 
			},
			{
				"x": -0.3154104612,
				"y": -2.7669190215,
				"z": 0.3299014082,
				"element": "C" 
			},
			{
				"x": 0.8628271362,
				"y": -2.2441967939,
				"z": 0.8686446579,
				"element": "C" 
			},
			{
				"x": 1.24139493,
				"y": -0.9334072568,
				"z": 0.5839900688,
				"element": "C" 
			},
			{
				"x": 0.9843715624,
				"y": 1.6936532498,
				"z": 1.6276674368,
				"element": "H" 
			},
			{
				"x": 0.1372919582,
				"y": 2.9686943867,
				"z": 0.7611101148,
				"element": "H" 
			},
			{
				"x": 0.1372489078,
				"y": 1.7220912381,
				"z": -1.2627193785,
				"element": "H" 
			},
			{
				"x": 3.8561101211,
				"y": 2.7217674857,
				"z": -0.8553113433,
				"element": "H" 
			},
			{
				"x": -1.3449327603,
				"y": -0.044600042,
				"z": -1.4296429276,
				"element": "H" 
			},
			{
				"x": -2.0242319166,
				"y": -2.3689451754,
				"z": -0.9228595607,
				"element": "H" 
			},
			{
				"x": -0.6105181432,
				"y": -3.7882739899,
				"z": 0.5516742118,
				"element": "H" 
			},
			{
				"x": 1.4894594409,
				"y": -2.8590543631,
				"z": 1.5082090291,
				"element": "H" 
			},
			{
				"x": 2.1651439594,
				"y": -0.5415315054,
				"z": 1.0036479552,
				"element": "H" 
			}
		],
		 "valence_orbital": [ 
			{
				"type": "occ",
				"energy": -0.2947,
				"method": "rhf"
			},
			{
				"type": "occ",
				"energy": -0.29291,
				"method": "rhf"
			},
			{
				"type": "occ",
				"energy": -0.26004,
				"method": "rhf"
			},
			{
				"type": "occ",
				"energy": -0.25827,
				"method": "rhf"
			},
			{
				"type": "occ",
				"energy": -0.25107,
				"method": "rhf"
			},
			{
				"type": "unocc",
				"energy": -0.02403,
				"method": "rhf"
			},
			{
				"type": "unocc",
				"energy": -0.01369,
				"method": "rhf"
			},
			{
				"type": "unocc",
				"energy": -0.00934,
				"method": "rhf"
			},
			{
				"type": "unocc",
				"energy": 0.02202,
				"method": "rhf"
			},
			{
				"type": "unocc",
				"energy": 0.08361,
				"method": "rhf"
			}
		],
		"cosmo_sigma_profile": { 
			"-0.025": 0.0,
			"-0.024": 0.0,
			"-0.023": 0.0,
			"-0.022": 0.0,
			"-0.021": 0.0,
			"-0.02": 0.0,
			"-0.019": 0.0,
			"-0.018": 0.0,
			"-0.017": 0.176685275982,
			"-0.016": 1.56501889318,
			"-0.015": 0.553680854692,
			"-0.014": 1.42487676701,
			"-0.013": 0.934984327732,
			"-0.012": 0.187344690401,
			"-0.011": 0.858888545394,
			"-0.01": 1.28307073581,
			"-0.009": 1.74148470922,
			"-0.008": 4.96686110478,
			"-0.007": 12.5633554049,
			"-0.006": 15.2667218275,
			"-0.005": 17.4982515746,
			"-0.004": 16.6296490079,
			"-0.003": 14.8994576878,
			"-0.002": 12.8821818879,
			"-0.001": 9.62643333932,
			"0.0": 8.10916191824,
			"0.001": 8.25026797028,
			"0.002": 8.51606087988,
			"0.003": 9.36334901978,
			"0.004": 8.89172999851,
			"0.005": 11.4355852286,
			"0.006": 8.53277085578,
			"0.007": 2.85494520558,
			"0.008": 2.90721538885,
			"0.009": 3.67275069076,
			"0.01": 4.31132138064,
			"0.011": 8.44197152513,
			"0.012": 9.79845116389,
			"0.013": 2.52600232884,
			"0.014": 0.0,
			"0.015": 0.0,
			"0.016": 0.0,
			"0.017": 0.0,
			"0.018": 0.0,
			"0.019": 0.0,
			"0.02": 0.0,
			"0.021": 0.0,
			"0.022": 0.0,
			"0.023": 0.0,
			"0.024": 0.0,
			"0.025": 0.0
		}
	}
}
