{
	 "smiles": "OC(=O)CCCC1=C2C=CC3=CC=CC4=CC=C(C=C1)C2=C34", 
	 "Tm": 461.15, 
	 "num_atms": 38, 
	 "gaussian": { 
		 "optdone": 1, 
		 "sigma_profile": "yes", 
		 "theory": "DFT", 
		 "functional": "B3LYP", 
		 "basiset": "6-31G**", 
		 "properties": { 
			 "R2extent": 9016.0956, 
			 "electric_dipole_moment_norm": 4.73152771946, 
			 "electric_quadrupole_moment_norm": 29.2584858838, 
			 "total_energy": -922.279883851, 
			 "HOMO_LUMO_gap": 0.13819, 
			 "cosmo_polarized_energy": -18.51, 
			 "cosmo_cavitation_energy": 40.78, 
			 "cosmo_dispersion_energy": -29.35, 
			 "cosmo_repulsion_energy": 2.18, 
			 "cosmo_total_nonelectrostatic_energy": 13.61, 
			 "SMD_solvation_energy": 6.62 
		},
		"coords": [
			{
				"x": -2.8906389437,
				"y": 2.1403971304,
				"z": 3.8656743154,
				"element": "O" 
			},
			{
				"x": -2.9926880226,
				"y": 0.8256237947,
				"z": 4.2072666335,
				"element": "C" 
			},
			{
				"x": -3.9649000559,
				"y": 0.4338378542,
				"z": 4.8015150507,
				"element": "O" 
			},
			{
				"x": -1.8188820038,
				"y": -0.0617902326,
				"z": 3.8089859411,
				"element": "C" 
			},
			{
				"x": -1.392594142,
				"y": 0.0495955883,
				"z": 2.3343888388,
				"element": "C" 
			},
			{
				"x": -0.2931486473,
				"y": -0.9689355861,
				"z": 1.9658450711,
				"element": "C" 
			},
			{
				"x": 0.1502257628,
				"y": -0.8681330064,
				"z": 0.5208068036,
				"element": "C" 
			},
			{
				"x": 1.0958234363,
				"y": 0.0945463561,
				"z": 0.0878173407,
				"element": "C" 
			},
			{
				"x": 1.7400604299,
				"y": 1.0166595559,
				"z": 0.987524821,
				"element": "C" 
			},
			{
				"x": 2.6452462106,
				"y": 1.93547801,
				"z": 0.5495995791,
				"element": "C" 
			},
			{
				"x": 3.0046493311,
				"y": 2.0324049805,
				"z": -0.8360908722,
				"element": "C" 
			},
			{
				"x": 3.9345933185,
				"y": 2.9738313097,
				"z": -1.3071693858,
				"element": "C" 
			},
			{
				"x": 4.2607869379,
				"y": 3.0351275593,
				"z": -2.6602287443,
				"element": "C" 
			},
			{
				"x": 3.6681569525,
				"y": 2.1609570925,
				"z": -3.5701425408,
				"element": "C" 
			},
			{
				"x": 2.7333396976,
				"y": 1.2030599104,
				"z": -3.1453101585,
				"element": "C" 
			},
			{
				"x": 2.1063619791,
				"y": 0.2888444682,
				"z": -4.0600149805,
				"element": "C" 
			},
			{
				"x": 1.2022125506,
				"y": -0.630961679,
				"z": -3.6263778921,
				"element": "C" 
			},
			{
				"x": 0.8382685719,
				"y": -0.724831243,
				"z": -2.2392445488,
				"element": "C" 
			},
			{
				"x": -0.0902856664,
				"y": -1.6662492945,
				"z": -1.7735113476,
				"element": "C" 
			},
			{
				"x": -0.4202204206,
				"y": -1.7291116029,
				"z": -0.4239180969,
				"element": "C" 
			},
			{
				"x": 1.4416637877,
				"y": 0.1673488975,
				"z": -1.3003791763,
				"element": "C" 
			},
			{
				"x": 2.3912960956,
				"y": 1.1318591449,
				"z": -1.7588833898,
				"element": "C" 
			},
			{
				"x": -2.0641133207,
				"y": 2.3017546509,
				"z": 3.3893994632,
				"element": "H" 
			},
			{
				"x": -2.1147774325,
				"y": -1.0861433775,
				"z": 4.0473517215,
				"element": "H" 
			},
			{
				"x": -0.9680675257,
				"y": 0.1861496439,
				"z": 4.4598805335,
				"element": "H" 
			},
			{
				"x": -2.2601691872,
				"y": -0.1083725369,
				"z": 1.683317418,
				"element": "H" 
			},
			{
				"x": -1.0216713939,
				"y": 1.0588860057,
				"z": 2.1077665896,
				"element": "H" 
			},
			{
				"x": 0.5581546939,
				"y": -0.8449051048,
				"z": 2.6459148357,
				"element": "H" 
			},
			{
				"x": -0.6797332738,
				"y": -1.9781144786,
				"z": 2.1491334658,
				"element": "H" 
			},
			{
				"x": 1.5030481628,
				"y": 0.9742191764,
				"z": 2.0452171528,
				"element": "H" 
			},
			{
				"x": 3.1173487816,
				"y": 2.6156175447,
				"z": 1.254051212,
				"element": "H" 
			},
			{
				"x": 4.3994791914,
				"y": 3.6570830414,
				"z": -0.60132249,
				"element": "H" 
			},
			{
				"x": 4.9817314445,
				"y": 3.7688660363,
				"z": -3.0088573467,
				"element": "H" 
			},
			{
				"x": 3.9267899533,
				"y": 2.2142268602,
				"z": -4.6243882241,
				"element": "H" 
			},
			{
				"x": 2.3712616304,
				"y": 0.3480993576,
				"z": -5.1123986648,
				"element": "H" 
			},
			{
				"x": 0.7347498319,
				"y": -1.317191247,
				"z": -4.3277365964,
				"element": "H" 
			},
			{
				"x": -0.5516025423,
				"y": -2.3525897636,
				"z": -2.4786282882,
				"element": "H" 
			},
			{
				"x": -1.1413561738,
				"y": -2.4704448165,
				"z": -0.0881540429,
				"element": "H" 
			}
		],
		 "valence_orbital": [ 
			{
				"type": "occ",
				"energy": -0.27629,
				"method": "rhf"
			},
			{
				"type": "occ",
				"energy": -0.2652,
				"method": "rhf"
			},
			{
				"type": "occ",
				"energy": -0.25968,
				"method": "rhf"
			},
			{
				"type": "occ",
				"energy": -0.2351,
				"method": "rhf"
			},
			{
				"type": "occ",
				"energy": -0.20146,
				"method": "rhf"
			},
			{
				"type": "unocc",
				"energy": -0.06327,
				"method": "rhf"
			},
			{
				"type": "unocc",
				"energy": -0.03035,
				"method": "rhf"
			},
			{
				"type": "unocc",
				"energy": -0.01007,
				"method": "rhf"
			},
			{
				"type": "unocc",
				"energy": 0.00811,
				"method": "rhf"
			},
			{
				"type": "unocc",
				"energy": 0.01673,
				"method": "rhf"
			}
		],
		"cosmo_sigma_profile": { 
			"-0.025": 0.0,
			"-0.024": 0.0,
			"-0.023": 0.0,
			"-0.022": 0.0,
			"-0.021": 0.0,
			"-0.02": 0.0,
			"-0.019": 0.0,
			"-0.018": 0.319354026251,
			"-0.017": 0.948645910347,
			"-0.016": 1.02862638109,
			"-0.015": 1.46341784646,
			"-0.014": 0.760774131309,
			"-0.013": 0.871991615077,
			"-0.012": 1.12889278641,
			"-0.011": 1.17775476051,
			"-0.01": 0.660409542469,
			"-0.009": 1.20080793993,
			"-0.008": 1.77164103996,
			"-0.007": 3.7551993784,
			"-0.006": 20.6382671783,
			"-0.005": 29.8802043242,
			"-0.004": 30.1451407983,
			"-0.003": 26.7439476138,
			"-0.002": 20.3234570308,
			"-0.001": 18.0100290906,
			"0.0": 13.1627482909,
			"0.001": 13.9705177231,
			"0.002": 16.4295842914,
			"0.003": 33.3259782094,
			"0.004": 38.7840368374,
			"0.005": 18.8928372125,
			"0.006": 2.7074456645,
			"0.007": 1.89192464769,
			"0.008": 2.61917519585,
			"0.009": 3.59525911027,
			"0.01": 3.65938961612,
			"0.011": 6.07949632635,
			"0.012": 5.79885516521,
			"0.013": 3.18685061797,
			"0.014": 0.16889028124,
			"0.015": 0.0,
			"0.016": 0.0,
			"0.017": 0.0,
			"0.018": 0.0,
			"0.019": 0.0,
			"0.02": 0.0,
			"0.021": 0.0,
			"0.022": 0.0,
			"0.023": 0.0,
			"0.024": 0.0,
			"0.025": 0.0
		}
	}
}
