{
	 "smiles": "O=C1NCCN1CCN1CCNCC1", 
	 "Tm": 413.15, 
	 "num_atms": 32, 
	 "gaussian": { 
		 "optdone": 1, 
		 "sigma_profile": "yes", 
		 "theory": "DFT", 
		 "functional": "B3LYP", 
		 "basiset": "6-31G**", 
		 "properties": { 
			 "R2extent": 3334.686, 
			 "electric_dipole_moment_norm": 4.02644549696, 
			 "electric_quadrupole_moment_norm": 12.6486911671, 
			 "total_energy": -648.029234215, 
			 "HOMO_LUMO_gap": 0.26549, 
			 "cosmo_polarized_energy": -15.38, 
			 "cosmo_cavitation_energy": 31.97, 
			 "cosmo_dispersion_energy": -22.84, 
			 "cosmo_repulsion_energy": 1.82, 
			 "cosmo_total_nonelectrostatic_energy": 10.95, 
			 "SMD_solvation_energy": 0.98 
		},
		"coords": [
			{
				"x": -2.7981414205,
				"y": -1.642162246,
				"z": 1.8741688377,
				"element": "O" 
			},
			{
				"x": -2.8413546334,
				"y": -0.7490968574,
				"z": 1.039338261,
				"element": "C" 
			},
			{
				"x": -3.4737206527,
				"y": 0.4854930652,
				"z": 1.1801702666,
				"element": "N" 
			},
			{
				"x": -3.5595350015,
				"y": 1.1582045128,
				"z": -0.1120406692,
				"element": "C" 
			},
			{
				"x": -2.3527654858,
				"y": 0.5426840257,
				"z": -0.8517865781,
				"element": "C" 
			},
			{
				"x": -2.258702683,
				"y": -0.7695681484,
				"z": -0.2155900993,
				"element": "N" 
			},
			{
				"x": -1.2327544115,
				"y": -1.7497977747,
				"z": -0.5251935481,
				"element": "C" 
			},
			{
				"x": 0.1266102735,
				"y": -1.4857581755,
				"z": 0.143280651,
				"element": "C" 
			},
			{
				"x": 0.7442055935,
				"y": -0.2320028496,
				"z": -0.267759789,
				"element": "N" 
			},
			{
				"x": 1.7617374399,
				"y": 0.2700038339,
				"z": 0.6482291739,
				"element": "C" 
			},
			{
				"x": 2.0396350177,
				"y": 1.7586755372,
				"z": 0.3548410271,
				"element": "C" 
			},
			{
				"x": 1.8844792742,
				"y": 2.029274201,
				"z": -1.0835365292,
				"element": "N" 
			},
			{
				"x": 2.255889371,
				"y": 0.8748692936,
				"z": -1.8934387889,
				"element": "C" 
			},
			{
				"x": 1.2259610579,
				"y": -0.2464013217,
				"z": -1.6555459394,
				"element": "C" 
			},
			{
				"x": -4.2512077648,
				"y": 0.5083616864,
				"z": 1.8245981875,
				"element": "H" 
			},
			{
				"x": -3.4716861761,
				"y": 2.2440979134,
				"z": -0.0147695484,
				"element": "H" 
			},
			{
				"x": -4.4993127546,
				"y": 0.9297173694,
				"z": -0.6372370295,
				"element": "H" 
			},
			{
				"x": -1.4366637628,
				"y": 1.1245613845,
				"z": -0.6951151859,
				"element": "H" 
			},
			{
				"x": -2.5338135909,
				"y": 0.4521773392,
				"z": -1.9284087987,
				"element": "H" 
			},
			{
				"x": -1.5957917831,
				"y": -2.7198306035,
				"z": -0.1725568533,
				"element": "H" 
			},
			{
				"x": -1.1364527086,
				"y": -1.8110696288,
				"z": -1.6146024301,
				"element": "H" 
			},
			{
				"x": 0.782549793,
				"y": -2.3597384598,
				"z": -0.0528078008,
				"element": "H" 
			},
			{
				"x": -0.045332368,
				"y": -1.4505939092,
				"z": 1.2236774433,
				"element": "H" 
			},
			{
				"x": 2.7014108972,
				"y": -0.3134976973,
				"z": 0.5921913791,
				"element": "H" 
			},
			{
				"x": 1.395753632,
				"y": 0.1668560077,
				"z": 1.6740144563,
				"element": "H" 
			},
			{
				"x": 1.3246769654,
				"y": 2.383695219,
				"z": 0.9032823449,
				"element": "H" 
			},
			{
				"x": 3.0476625139,
				"y": 2.0009716695,
				"z": 0.7338370928,
				"element": "H" 
			},
			{
				"x": 2.4289692544,
				"y": 2.8435652456,
				"z": -1.3486920866,
				"element": "H" 
			},
			{
				"x": 3.2733285741,
				"y": 0.4974861067,
				"z": -1.678493762,
				"element": "H" 
			},
			{
				"x": 2.2455215595,
				"y": 1.158908104,
				"z": -2.9506735894,
				"element": "H" 
			},
			{
				"x": 0.3715162651,
				"y": -0.1056123667,
				"z": -2.3281592751,
				"element": "H" 
			},
			{
				"x": 1.6897277149,
				"y": -1.2181724759,
				"z": -1.9143208203,
				"element": "H" 
			}
		],
		 "valence_orbital": [ 
			{
				"type": "occ",
				"energy": -0.24903,
				"method": "rhf"
			},
			{
				"type": "occ",
				"energy": -0.23765,
				"method": "rhf"
			},
			{
				"type": "occ",
				"energy": -0.22999,
				"method": "rhf"
			},
			{
				"type": "occ",
				"energy": -0.21851,
				"method": "rhf"
			},
			{
				"type": "occ",
				"energy": -0.19743,
				"method": "rhf"
			},
			{
				"type": "unocc",
				"energy": 0.06806,
				"method": "rhf"
			},
			{
				"type": "unocc",
				"energy": 0.07098,
				"method": "rhf"
			},
			{
				"type": "unocc",
				"energy": 0.08872,
				"method": "rhf"
			},
			{
				"type": "unocc",
				"energy": 0.10281,
				"method": "rhf"
			},
			{
				"type": "unocc",
				"energy": 0.11647,
				"method": "rhf"
			}
		],
		"cosmo_sigma_profile": { 
			"-0.025": 0.0,
			"-0.024": 0.0,
			"-0.023": 0.0,
			"-0.022": 0.0,
			"-0.021": 0.0,
			"-0.02": 0.0,
			"-0.019": 0.0,
			"-0.018": 0.0,
			"-0.017": 0.0,
			"-0.016": 0.0,
			"-0.015": 0.0,
			"-0.014": 0.112167860787,
			"-0.013": 1.17442013786,
			"-0.012": 1.22738325088,
			"-0.011": 0.878161951158,
			"-0.01": 2.22842292246,
			"-0.009": 2.12651937132,
			"-0.008": 2.19035971981,
			"-0.007": 1.97309346038,
			"-0.006": 2.79421205797,
			"-0.005": 10.5199333707,
			"-0.004": 24.9591594221,
			"-0.003": 27.2857776402,
			"-0.002": 44.0515940885,
			"-0.001": 40.1786253221,
			"0.0": 18.9347983356,
			"0.001": 7.07015979174,
			"0.002": 5.60261321596,
			"0.003": 4.62913912391,
			"0.004": 5.3575312765,
			"0.005": 5.30524328957,
			"0.006": 4.23830960619,
			"0.007": 4.19511662356,
			"0.008": 3.96077250792,
			"0.009": 3.47330444448,
			"0.01": 3.12136245686,
			"0.011": 2.37732124226,
			"0.012": 2.70409546234,
			"0.013": 3.04154049143,
			"0.014": 4.88143727022,
			"0.015": 4.89263093158,
			"0.016": 0.95424398211,
			"0.017": 0.472741340118,
			"0.018": 0.00521405146903,
			"0.019": 0.0,
			"0.02": 0.0,
			"0.021": 0.0,
			"0.022": 0.0,
			"0.023": 0.0,
			"0.024": 0.0,
			"0.025": 0.0
		}
	}
}
