{
	 "smiles": "CCC1=CC=C(C=C)C=C1", 
	 "Tm": 223.45, 
	 "num_atms": 22, 
	 "gaussian": { 
		 "optdone": 1, 
		 "sigma_profile": "yes", 
		 "theory": "DFT", 
		 "functional": "B3LYP", 
		 "basiset": "6-31G**", 
		 "properties": { 
			 "R2extent": 2703.345, 
			 "electric_dipole_moment_norm": 0.592479467999, 
			 "electric_quadrupole_moment_norm": 5.48480934582, 
			 "total_energy": -388.289764842, 
			 "HOMO_LUMO_gap": 0.18688, 
			 "cosmo_polarized_energy": -4.0, 
			 "cosmo_cavitation_energy": 25.21, 
			 "cosmo_dispersion_energy": -18.04, 
			 "cosmo_repulsion_energy": 1.46, 
			 "cosmo_total_nonelectrostatic_energy": 8.62, 
			 "SMD_solvation_energy": 4.91 
		},
		"coords": [
			{
				"x": 0.7912308187,
				"y": -2.5179496034,
				"z": 0.6696152449,
				"element": "C" 
			},
			{
				"x": 0.2561366845,
				"y": -1.4475457919,
				"z": 1.6384365854,
				"element": "C" 
			},
			{
				"x": -0.841241936,
				"y": -0.6002778397,
				"z": 1.0314883538,
				"element": "C" 
			},
			{
				"x": -2.1878418595,
				"y": -0.9648007405,
				"z": 1.1475826763,
				"element": "C" 
			},
			{
				"x": -3.1919771036,
				"y": -0.2024315435,
				"z": 0.5542308784,
				"element": "C" 
			},
			{
				"x": -2.8924301481,
				"y": 0.9573133943,
				"z": -0.1797592219,
				"element": "C" 
			},
			{
				"x": -3.9923184306,
				"y": 1.726862552,
				"z": -0.7826524529,
				"element": "C" 
			},
			{
				"x": -3.9042737145,
				"y": 2.8465569476,
				"z": -1.5117491115,
				"element": "C" 
			},
			{
				"x": -1.5385022918,
				"y": 1.3228691007,
				"z": -0.2928829238,
				"element": "C" 
			},
			{
				"x": -0.5392796433,
				"y": 0.5595795058,
				"z": 0.3004111065,
				"element": "C" 
			},
			{
				"x": -0.0070407167,
				"y": -3.2004221137,
				"z": 0.3603452573,
				"element": "H" 
			},
			{
				"x": 1.2017772206,
				"y": -2.0579582963,
				"z": -0.2351420412,
				"element": "H" 
			},
			{
				"x": 1.5833555774,
				"y": -3.1111697389,
				"z": 1.138741846,
				"element": "H" 
			},
			{
				"x": 1.0845288714,
				"y": -0.801792512,
				"z": 1.9541590211,
				"element": "H" 
			},
			{
				"x": -0.1192974717,
				"y": -1.9374682918,
				"z": 2.5448512808,
				"element": "H" 
			},
			{
				"x": -2.454479362,
				"y": -1.8547283134,
				"z": 1.7132216354,
				"element": "H" 
			},
			{
				"x": -4.230509881,
				"y": -0.5060521737,
				"z": 0.6632041362,
				"element": "H" 
			},
			{
				"x": -4.9840856048,
				"y": 1.31377775,
				"z": -0.5990914206,
				"element": "H" 
			},
			{
				"x": -2.9576550471,
				"y": 3.3259167547,
				"z": -1.743554819,
				"element": "H" 
			},
			{
				"x": -4.7944641837,
				"y": 3.3256344805,
				"z": -1.90590958,
				"element": "H" 
			},
			{
				"x": -1.26358238,
				"y": 2.2160207144,
				"z": -0.845944222,
				"element": "H" 
			},
			{
				"x": 0.4985506019,
				"y": 0.8696657587,
				"z": 0.2000977707,
				"element": "H" 
			}
		],
		 "valence_orbital": [ 
			{
				"type": "occ",
				"energy": -0.32921,
				"method": "rhf"
			},
			{
				"type": "occ",
				"energy": -0.32731,
				"method": "rhf"
			},
			{
				"type": "occ",
				"energy": -0.28849,
				"method": "rhf"
			},
			{
				"type": "occ",
				"energy": -0.24732,
				"method": "rhf"
			},
			{
				"type": "occ",
				"energy": -0.21536,
				"method": "rhf"
			},
			{
				"type": "unocc",
				"energy": -0.02848,
				"method": "rhf"
			},
			{
				"type": "unocc",
				"energy": 0.00259,
				"method": "rhf"
			},
			{
				"type": "unocc",
				"energy": 0.06135,
				"method": "rhf"
			},
			{
				"type": "unocc",
				"energy": 0.09685,
				"method": "rhf"
			},
			{
				"type": "unocc",
				"energy": 0.11036,
				"method": "rhf"
			}
		],
		"cosmo_sigma_profile": { 
			"-0.025": 0.0,
			"-0.024": 0.0,
			"-0.023": 0.0,
			"-0.022": 0.0,
			"-0.021": 0.0,
			"-0.02": 0.0,
			"-0.019": 0.0,
			"-0.018": 0.0,
			"-0.017": 0.0,
			"-0.016": 0.0,
			"-0.015": 0.0,
			"-0.014": 0.0,
			"-0.013": 0.0,
			"-0.012": 0.0,
			"-0.011": 0.0,
			"-0.01": 0.0,
			"-0.009": 0.0,
			"-0.008": 0.0,
			"-0.007": 0.478542558205,
			"-0.006": 4.09574718477,
			"-0.005": 12.4989269298,
			"-0.004": 13.7352773536,
			"-0.003": 23.0792514443,
			"-0.002": 21.2623322395,
			"-0.001": 22.4233569944,
			"0.0": 20.8208374581,
			"0.001": 18.1302370379,
			"0.002": 12.2935497972,
			"0.003": 10.8109659541,
			"0.004": 12.0792704242,
			"0.005": 13.8999409189,
			"0.006": 11.6214696206,
			"0.007": 2.17465054282,
			"0.008": 0.000714447610392,
			"0.009": 0.0,
			"0.01": 0.0,
			"0.011": 0.0,
			"0.012": 0.0,
			"0.013": 0.0,
			"0.014": 0.0,
			"0.015": 0.0,
			"0.016": 0.0,
			"0.017": 0.0,
			"0.018": 0.0,
			"0.019": 0.0,
			"0.02": 0.0,
			"0.021": 0.0,
			"0.022": 0.0,
			"0.023": 0.0,
			"0.024": 0.0,
			"0.025": 0.0
		}
	}
}
