{
	 "smiles": "CC(C)(C)NC(=O)[C@@H]1CN(CC2=CC=CN=C2)CCN1C[C@@H](O)C[C@@H](CC1=CC=CC=C1)C(=O)N[C@@H]1[C@H](O)CC2=CC=CC=C12", 
	 "Tm": 440.9, 
	 "num_atms": 92, 
	 "gaussian": { 
		 "optdone": 1, 
		 "sigma_profile": "yes", 
		 "theory": "DFT", 
		 "functional": "B3LYP", 
		 "basiset": "6-31G**", 
		 "properties": { 
			 "R2extent": 31329.8215, 
			 "electric_dipole_moment_norm": 6.23106634213, 
			 "electric_quadrupole_moment_norm": 56.8769938432, 
			 "total_energy": -1974.83192144, 
			 "HOMO_LUMO_gap": 0.17822, 
			 "cosmo_polarized_energy": -29.89, 
			 "cosmo_cavitation_energy": 86.43, 
			 "cosmo_dispersion_energy": -51.77, 
			 "cosmo_repulsion_energy": 3.82, 
			 "cosmo_total_nonelectrostatic_energy": 38.48, 
			 "SMD_solvation_energy": 8.34 
		},
		"coords": [
			{
				"x": 3.3595196999,
				"y": 2.2003892273,
				"z": -4.0928552498,
				"element": "C" 
			},
			{
				"x": 3.0762277571,
				"y": 2.758525477,
				"z": -2.6900226146,
				"element": "C" 
			},
			{
				"x": 2.1545690165,
				"y": 3.9890364167,
				"z": -2.7858785685,
				"element": "C" 
			},
			{
				"x": 4.3974707817,
				"y": 3.1300343049,
				"z": -1.9903435025,
				"element": "C" 
			},
			{
				"x": 2.3968206991,
				"y": 1.6823746512,
				"z": -1.9374343162,
				"element": "N" 
			},
			{
				"x": 1.9722586201,
				"y": 1.7439245613,
				"z": -0.6546872751,
				"element": "C" 
			},
			{
				"x": 2.0727906298,
				"y": 2.7245507549,
				"z": 0.0864647642,
				"element": "O" 
			},
			{
				"x": 1.367611505,
				"y": 0.4301317191,
				"z": -0.1133857783,
				"element": "C" 
			},
			{
				"x": 2.4206068093,
				"y": -0.2645541397,
				"z": 0.7639559638,
				"element": "C" 
			},
			{
				"x": 1.8227201512,
				"y": -1.4069379973,
				"z": 1.4419808508,
				"element": "N" 
			},
			{
				"x": 2.6703405403,
				"y": -2.0646427527,
				"z": 2.4363723748,
				"element": "C" 
			},
			{
				"x": 3.8363810171,
				"y": -2.882816329,
				"z": 1.8976305431,
				"element": "C" 
			},
			{
				"x": 3.7491427357,
				"y": -4.2678210652,
				"z": 1.7128668823,
				"element": "C" 
			},
			{
				"x": 4.8316178242,
				"y": -4.9609686118,
				"z": 1.1727478582,
				"element": "C" 
			},
			{
				"x": 5.9790753983,
				"y": -4.242418456,
				"z": 0.8367205553,
				"element": "C" 
			},
			{
				"x": 6.1001001625,
				"y": -2.9212442259,
				"z": 1.0199957547,
				"element": "N" 
			},
			{
				"x": 5.0508633901,
				"y": -2.2755846871,
				"z": 1.5401344126,
				"element": "C" 
			},
			{
				"x": 1.0254238451,
				"y": -2.2886161326,
				"z": 0.5756416872,
				"element": "C" 
			},
			{
				"x": 1.1709197628,
				"y": -1.9065316438,
				"z": -0.904788694,
				"element": "C" 
			},
			{
				"x": 0.9176930443,
				"y": -0.4836004653,
				"z": -1.1790715134,
				"element": "N" 
			},
			{
				"x": -0.3736798099,
				"y": -0.1674820863,
				"z": -1.791713884,
				"element": "C" 
			},
			{
				"x": -1.6699667199,
				"y": -0.5133736919,
				"z": -1.0244349757,
				"element": "C" 
			},
			{
				"x": -1.7306555671,
				"y": 0.1632898874,
				"z": 0.2384425863,
				"element": "O" 
			},
			{
				"x": -2.8971470694,
				"y": -0.25055585,
				"z": -1.916004597,
				"element": "C" 
			},
			{
				"x": -4.3156914878,
				"y": -0.4772612935,
				"z": -1.3151221782,
				"element": "C" 
			},
			{
				"x": -4.4566685853,
				"y": -1.7425238588,
				"z": -0.430435337,
				"element": "C" 
			},
			{
				"x": -4.1835792325,
				"y": -3.0436530661,
				"z": -1.1644810918,
				"element": "C" 
			},
			{
				"x": -3.197780119,
				"y": -3.9314402597,
				"z": -0.7123758141,
				"element": "C" 
			},
			{
				"x": -2.9524132477,
				"y": -5.1367879547,
				"z": -1.3745889016,
				"element": "C" 
			},
			{
				"x": -3.6939986319,
				"y": -5.476640902,
				"z": -2.5059289651,
				"element": "C" 
			},
			{
				"x": -4.685833466,
				"y": -4.6058319474,
				"z": -2.9637040143,
				"element": "C" 
			},
			{
				"x": -4.9282217082,
				"y": -3.4044085892,
				"z": -2.2980863345,
				"element": "C" 
			},
			{
				"x": -4.8942894076,
				"y": 0.7893864294,
				"z": -0.6507557785,
				"element": "C" 
			},
			{
				"x": -5.7579187092,
				"y": 1.4357189944,
				"z": -1.2602266848,
				"element": "O" 
			},
			{
				"x": -4.4186395575,
				"y": 1.0954323613,
				"z": 0.5799397867,
				"element": "N" 
			},
			{
				"x": -4.5032028947,
				"y": 2.3680663593,
				"z": 1.3404733145,
				"element": "C" 
			},
			{
				"x": -5.7333828119,
				"y": 3.2992079957,
				"z": 1.0604546935,
				"element": "C" 
			},
			{
				"x": -6.9562546167,
				"y": 2.6677907799,
				"z": 0.8231098412,
				"element": "O" 
			},
			{
				"x": -5.249816652,
				"y": 4.2934150006,
				"z": -0.0332402226,
				"element": "C" 
			},
			{
				"x": -3.7575797202,
				"y": 4.3453353685,
				"z": 0.1883612794,
				"element": "C" 
			},
			{
				"x": -2.8222098513,
				"y": 5.2637093851,
				"z": -0.2913250666,
				"element": "C" 
			},
			{
				"x": -1.4699055982,
				"y": 5.0969143703,
				"z": 0.0228113717,
				"element": "C" 
			},
			{
				"x": -1.047441881,
				"y": 4.0379123453,
				"z": 0.8347269231,
				"element": "C" 
			},
			{
				"x": -1.9879620333,
				"y": 3.1314747039,
				"z": 1.3389106317,
				"element": "C" 
			},
			{
				"x": -3.3347058156,
				"y": 3.2793539558,
				"z": 0.9960139253,
				"element": "C" 
			},
			{
				"x": 2.4302915801,
				"y": 1.9199264403,
				"z": -4.6017174492,
				"element": "H" 
			},
			{
				"x": 3.86319531,
				"y": 2.9541777721,
				"z": -4.7044281346,
				"element": "H" 
			},
			{
				"x": 4.0084956698,
				"y": 1.3186972284,
				"z": -4.0439017044,
				"element": "H" 
			},
			{
				"x": 2.6490005002,
				"y": 4.7890151796,
				"z": -3.3468527427,
				"element": "H" 
			},
			{
				"x": 1.2229399651,
				"y": 3.7340610134,
				"z": -3.3019500797,
				"element": "H" 
			},
			{
				"x": 1.9110142051,
				"y": 4.3574061826,
				"z": -1.787792155,
				"element": "H" 
			},
			{
				"x": 5.0621495215,
				"y": 2.261541677,
				"z": -1.936617989,
				"element": "H" 
			},
			{
				"x": 4.2021082886,
				"y": 3.4836116279,
				"z": -0.9762916963,
				"element": "H" 
			},
			{
				"x": 4.9113374784,
				"y": 3.920841252,
				"z": -2.5468555832,
				"element": "H" 
			},
			{
				"x": 2.2303821994,
				"y": 0.7859134897,
				"z": -2.3827557599,
				"element": "H" 
			},
			{
				"x": 0.5487742793,
				"y": 0.7214283784,
				"z": 0.551928414,
				"element": "H" 
			},
			{
				"x": 3.2982061406,
				"y": -0.5160461958,
				"z": 0.139646961,
				"element": "H" 
			},
			{
				"x": 2.7566442744,
				"y": 0.4573109969,
				"z": 1.5153293229,
				"element": "H" 
			},
			{
				"x": 2.0308349727,
				"y": -2.7136847045,
				"z": 3.0471882426,
				"element": "H" 
			},
			{
				"x": 3.0536940316,
				"y": -1.2832503437,
				"z": 3.1039488737,
				"element": "H" 
			},
			{
				"x": 2.8474834263,
				"y": -4.8007332473,
				"z": 2.0066190486,
				"element": "H" 
			},
			{
				"x": 4.7927926169,
				"y": -6.0356801568,
				"z": 1.0229398302,
				"element": "H" 
			},
			{
				"x": 6.8434589938,
				"y": -4.7497687264,
				"z": 0.4116717102,
				"element": "H" 
			},
			{
				"x": 5.1852601553,
				"y": -1.2058371343,
				"z": 1.6989825079,
				"element": "H" 
			},
			{
				"x": 1.342050609,
				"y": -3.3339432748,
				"z": 0.6835950452,
				"element": "H" 
			},
			{
				"x": -0.0320753909,
				"y": -2.2370472673,
				"z": 0.8739676821,
				"element": "H" 
			},
			{
				"x": 0.4858239418,
				"y": -2.5099481586,
				"z": -1.5087545179,
				"element": "H" 
			},
			{
				"x": 2.1854377987,
				"y": -2.1656830465,
				"z": -1.2342827765,
				"element": "H" 
			},
			{
				"x": -0.3788658382,
				"y": 0.908271667,
				"z": -2.0153624806,
				"element": "H" 
			},
			{
				"x": -0.4187130615,
				"y": -0.6782835983,
				"z": -2.7627268999,
				"element": "H" 
			},
			{
				"x": -1.6523282899,
				"y": -1.5746791015,
				"z": -0.7596000701,
				"element": "H" 
			},
			{
				"x": -1.6597155499,
				"y": 1.119747085,
				"z": 0.0826147988,
				"element": "H" 
			},
			{
				"x": -2.8503583877,
				"y": 0.7727158453,
				"z": -2.3141224537,
				"element": "H" 
			},
			{
				"x": -2.8020415793,
				"y": -0.9138705022,
				"z": -2.7838838658,
				"element": "H" 
			},
			{
				"x": -4.9838200713,
				"y": -0.5994191081,
				"z": -2.1718584789,
				"element": "H" 
			},
			{
				"x": -5.4812927442,
				"y": -1.7601157096,
				"z": -0.0377807603,
				"element": "H" 
			},
			{
				"x": -3.7973633441,
				"y": -1.6782761555,
				"z": 0.4410771862,
				"element": "H" 
			},
			{
				"x": -2.6246564336,
				"y": -3.6816630431,
				"z": 0.1778297103,
				"element": "H" 
			},
			{
				"x": -2.1854333784,
				"y": -5.8104327256,
				"z": -1.002336306,
				"element": "H" 
			},
			{
				"x": -3.5067563367,
				"y": -6.4130976637,
				"z": -3.0232570193,
				"element": "H" 
			},
			{
				"x": -5.2763320753,
				"y": -4.8653653498,
				"z": -3.8379373713,
				"element": "H" 
			},
			{
				"x": -5.7125163342,
				"y": -2.7438623466,
				"z": -2.6593830038,
				"element": "H" 
			},
			{
				"x": -3.6204410542,
				"y": 0.5308882601,
				"z": 0.8559543076,
				"element": "H" 
			},
			{
				"x": -4.4996876705,
				"y": 2.0648481444,
				"z": 2.3925895046,
				"element": "H" 
			},
			{
				"x": -5.8575319702,
				"y": 3.8702714807,
				"z": 1.9892355452,
				"element": "H" 
			},
			{
				"x": -6.837577091,
				"y": 2.2043873193,
				"z": -0.0300881654,
				"element": "H" 
			},
			{
				"x": -5.4882961624,
				"y": 3.8933047216,
				"z": -1.0249806589,
				"element": "H" 
			},
			{
				"x": -5.7384611255,
				"y": 5.2688562147,
				"z": 0.0602488724,
				"element": "H" 
			},
			{
				"x": -3.1394114949,
				"y": 6.0988352771,
				"z": -0.9109009373,
				"element": "H" 
			},
			{
				"x": -0.736990585,
				"y": 5.8009105464,
				"z": -0.361326353,
				"element": "H" 
			},
			{
				"x": 0.0071806191,
				"y": 3.9080403987,
				"z": 1.0586865463,
				"element": "H" 
			},
			{
				"x": -1.6676988051,
				"y": 2.3296003182,
				"z": 2.001526661,
				"element": "H" 
			}
		],
		 "valence_orbital": [ 
			{
				"type": "occ",
				"energy": -0.24675,
				"method": "rhf"
			},
			{
				"type": "occ",
				"energy": -0.2399,
				"method": "rhf"
			},
			{
				"type": "occ",
				"energy": -0.23659,
				"method": "rhf"
			},
			{
				"type": "occ",
				"energy": -0.21647,
				"method": "rhf"
			},
			{
				"type": "occ",
				"energy": -0.20793,
				"method": "rhf"
			},
			{
				"type": "unocc",
				"energy": -0.02971,
				"method": "rhf"
			},
			{
				"type": "unocc",
				"energy": -0.01873,
				"method": "rhf"
			},
			{
				"type": "unocc",
				"energy": -0.01292,
				"method": "rhf"
			},
			{
				"type": "unocc",
				"energy": -0.01252,
				"method": "rhf"
			},
			{
				"type": "unocc",
				"energy": -0.0099,
				"method": "rhf"
			}
		],
		"cosmo_sigma_profile": { 
			"-0.025": 0.0,
			"-0.024": 0.0,
			"-0.023": 0.0,
			"-0.022": 0.0,
			"-0.021": 0.0,
			"-0.02": 0.0,
			"-0.019": 0.0,
			"-0.018": 0.0,
			"-0.017": 0.0,
			"-0.016": 0.0,
			"-0.015": 0.0,
			"-0.014": 0.0,
			"-0.013": 0.0,
			"-0.012": 0.0,
			"-0.011": 0.136049527211,
			"-0.01": 0.83997872206,
			"-0.009": 1.98814507088,
			"-0.008": 3.62557082372,
			"-0.007": 6.58442860813,
			"-0.006": 22.7519489741,
			"-0.005": 52.8106211434,
			"-0.004": 64.9324015854,
			"-0.003": 76.4245104431,
			"-0.002": 71.8369846782,
			"-0.001": 65.2865802863,
			"0.0": 53.4469805693,
			"0.001": 52.0927335056,
			"0.002": 39.7168867073,
			"0.003": 35.5405490612,
			"0.004": 26.142006074,
			"0.005": 24.8074257748,
			"0.006": 19.420803764,
			"0.007": 10.4477649434,
			"0.008": 8.36065613198,
			"0.009": 6.46048697323,
			"0.01": 5.87057769997,
			"0.011": 5.49622244138,
			"0.012": 4.71453185459,
			"0.013": 6.21877210213,
			"0.014": 6.43357441581,
			"0.015": 3.32051416841,
			"0.016": 0.770698434252,
			"0.017": 0.5554416924,
			"0.018": 0.0282624827961,
			"0.019": 0.0,
			"0.02": 0.0,
			"0.021": 0.0,
			"0.022": 0.0,
			"0.023": 0.0,
			"0.024": 0.0,
			"0.025": 0.0
		}
	}
}
