{
	 "smiles": "ClC1=NC(=CC=N1)C1=CC=CC=C1", 
	 "Tm": 359.65, 
	 "num_atms": 20, 
	 "gaussian": { 
		 "optdone": 1, 
		 "sigma_profile": "yes", 
		 "theory": "DFT", 
		 "functional": "B3LYP", 
		 "basiset": "6-31G**", 
		 "properties": { 
			 "R2extent": 3321.0886, 
			 "electric_dipole_moment_norm": 4.49276389097, 
			 "electric_quadrupole_moment_norm": 10.2029941189, 
			 "total_energy": -954.979210687, 
			 "HOMO_LUMO_gap": 0.18033, 
			 "cosmo_polarized_energy": -9.3, 
			 "cosmo_cavitation_energy": 26.44, 
			 "cosmo_dispersion_energy": -19.92, 
			 "cosmo_repulsion_energy": 1.56, 
			 "cosmo_total_nonelectrostatic_energy": 8.08, 
			 "SMD_solvation_energy": 1.77 
		},
		"coords": [
			{
				"x": -0.394456461,
				"y": 3.6738712041,
				"z": 1.5275748113,
				"element": "Cl" 
			},
			{
				"x": 0.1821328388,
				"y": 2.6335097945,
				"z": 0.2344393841,
				"element": "C" 
			},
			{
				"x": 0.1667923915,
				"y": 1.3374008735,
				"z": 0.4926080301,
				"element": "N" 
			},
			{
				"x": 0.6077266352,
				"y": 0.5133306336,
				"z": -0.4811810306,
				"element": "C" 
			},
			{
				"x": 1.0636229427,
				"y": 1.0541129579,
				"z": -1.6943954044,
				"element": "C" 
			},
			{
				"x": 1.018883086,
				"y": 2.4353668845,
				"z": -1.8347599146,
				"element": "C" 
			},
			{
				"x": 0.5733541788,
				"y": 3.2551679772,
				"z": -0.8719312121,
				"element": "N" 
			},
			{
				"x": 0.5880481463,
				"y": -0.9395356542,
				"z": -0.1864492108,
				"element": "C" 
			},
			{
				"x": 0.3512062632,
				"y": -1.3754414169,
				"z": 1.1286000453,
				"element": "C" 
			},
			{
				"x": 0.3363794836,
				"y": -2.7341679148,
				"z": 1.4316280311,
				"element": "C" 
			},
			{
				"x": 0.5506705698,
				"y": -3.6816233501,
				"z": 0.4277646905,
				"element": "C" 
			},
			{
				"x": 0.7777457644,
				"y": -3.2603579025,
				"z": -0.8840895941,
				"element": "C" 
			},
			{
				"x": 0.7969510082,
				"y": -1.9012324795,
				"z": -1.1893936227,
				"element": "C" 
			},
			{
				"x": 1.451677393,
				"y": 0.436085118,
				"z": -2.4937963425,
				"element": "H" 
			},
			{
				"x": 1.3553767964,
				"y": 2.9148454064,
				"z": -2.7516842633,
				"element": "H" 
			},
			{
				"x": 0.1817741295,
				"y": -0.6316220034,
				"z": 1.8984848363,
				"element": "H" 
			},
			{
				"x": 0.1569230598,
				"y": -3.0548530804,
				"z": 2.4535864331,
				"element": "H" 
			},
			{
				"x": 0.5373279619,
				"y": -4.7414799813,
				"z": 0.6648279115,
				"element": "H" 
			},
			{
				"x": 0.9356903664,
				"y": -3.9907022336,
				"z": -1.6720915612,
				"element": "H" 
			},
			{
				"x": 0.9573734457,
				"y": -1.5973748331,
				"z": -2.2186420169,
				"element": "H" 
			}
		],
		 "valence_orbital": [ 
			{
				"type": "occ",
				"energy": -0.3138,
				"method": "rhf"
			},
			{
				"type": "occ",
				"energy": -0.28302,
				"method": "rhf"
			},
			{
				"type": "occ",
				"energy": -0.26652,
				"method": "rhf"
			},
			{
				"type": "occ",
				"energy": -0.26326,
				"method": "rhf"
			},
			{
				"type": "occ",
				"energy": -0.25189,
				"method": "rhf"
			},
			{
				"type": "unocc",
				"energy": -0.07156,
				"method": "rhf"
			},
			{
				"type": "unocc",
				"energy": -0.04059,
				"method": "rhf"
			},
			{
				"type": "unocc",
				"energy": -0.01097,
				"method": "rhf"
			},
			{
				"type": "unocc",
				"energy": 0.0123,
				"method": "rhf"
			},
			{
				"type": "unocc",
				"energy": 0.04091,
				"method": "rhf"
			}
		],
		"cosmo_sigma_profile": { 
			"-0.025": 0.0,
			"-0.024": 0.0,
			"-0.023": 0.0,
			"-0.022": 0.0,
			"-0.021": 0.0,
			"-0.02": 0.0,
			"-0.019": 0.0,
			"-0.018": 0.0,
			"-0.017": 0.0,
			"-0.016": 0.0,
			"-0.015": 0.0,
			"-0.014": 0.0,
			"-0.013": 0.0,
			"-0.012": 0.0,
			"-0.011": 0.0,
			"-0.01": 1.02426975665,
			"-0.009": 3.19980872832,
			"-0.008": 4.91334838206,
			"-0.007": 6.19426018298,
			"-0.006": 10.6522997629,
			"-0.005": 12.1389012516,
			"-0.004": 13.5688277962,
			"-0.003": 13.5292005705,
			"-0.002": 16.7629681184,
			"-0.001": 19.3637308226,
			"0.0": 16.7863706802,
			"0.001": 13.4393686625,
			"0.002": 15.2783193539,
			"0.003": 18.06428682,
			"0.004": 23.2277557155,
			"0.005": 10.4403117105,
			"0.006": 4.30567346175,
			"0.007": 3.07605658145,
			"0.008": 3.28438905537,
			"0.009": 2.14398387777,
			"0.01": 1.46291914121,
			"0.011": 0.999047356311,
			"0.012": 1.05202599329,
			"0.013": 0.853830929771,
			"0.014": 0.539496167261,
			"0.015": 0.0,
			"0.016": 0.0,
			"0.017": 0.0,
			"0.018": 0.0,
			"0.019": 0.0,
			"0.02": 0.0,
			"0.021": 0.0,
			"0.022": 0.0,
			"0.023": 0.0,
			"0.024": 0.0,
			"0.025": 0.0
		}
	}
}
