{
	 "smiles": "CCOC(=O)C1=C(N)N=C2C3=CC=CC=C3OC(=O)C2=C1", 
	 "Tm": 465.15, 
	 "num_atms": 33, 
	 "gaussian": { 
		 "optdone": 1, 
		 "sigma_profile": "yes", 
		 "theory": "DFT", 
		 "functional": "B3LYP", 
		 "basiset": "6-31G**", 
		 "properties": { 
			 "R2extent": 8264.9195, 
			 "electric_dipole_moment_norm": 3.51923331707, 
			 "electric_quadrupole_moment_norm": 25.6935223735, 
			 "total_energy": -989.293783801, 
			 "HOMO_LUMO_gap": 0.15521, 
			 "cosmo_polarized_energy": -13.68, 
			 "cosmo_cavitation_energy": 37.7, 
			 "cosmo_dispersion_energy": -27.94, 
			 "cosmo_repulsion_energy": 2.12, 
			 "cosmo_total_nonelectrostatic_energy": 11.87, 
			 "SMD_solvation_energy": 7.06 
		},
		"coords": [
			{
				"x": -3.1269600839,
				"y": 1.3482438604,
				"z": -5.3967371806,
				"element": "C" 
			},
			{
				"x": -2.4174928942,
				"y": 0.0029093827,
				"z": -5.3899985693,
				"element": "C" 
			},
			{
				"x": -2.0177814917,
				"y": -0.3749241351,
				"z": -4.0492727286,
				"element": "O" 
			},
			{
				"x": -0.8370837004,
				"y": 0.096804632,
				"z": -3.6062783888,
				"element": "C" 
			},
			{
				"x": -0.1078718085,
				"y": 0.808978866,
				"z": -4.2906823329,
				"element": "O" 
			},
			{
				"x": -0.530081054,
				"y": -0.3406746426,
				"z": -2.2294574138,
				"element": "C" 
			},
			{
				"x": 0.6951875424,
				"y": 0.0556105987,
				"z": -1.5819475107,
				"element": "C" 
			},
			{
				"x": 1.5998758499,
				"y": 0.8321642826,
				"z": -2.2062306013,
				"element": "N" 
			},
			{
				"x": 1.0008537113,
				"y": -0.325964103,
				"z": -0.3275943036,
				"element": "N" 
			},
			{
				"x": 0.1418780595,
				"y": -1.0979408968,
				"z": 0.342627338,
				"element": "C" 
			},
			{
				"x": 0.4692191617,
				"y": -1.513201099,
				"z": 1.7026325804,
				"element": "C" 
			},
			{
				"x": 1.6568846036,
				"y": -1.1392012084,
				"z": 2.355131741,
				"element": "C" 
			},
			{
				"x": 1.9152051535,
				"y": -1.5643193261,
				"z": 3.6505225862,
				"element": "C" 
			},
			{
				"x": 0.9846481544,
				"y": -2.3748423569,
				"z": 4.3178992885,
				"element": "C" 
			},
			{
				"x": -0.1968851697,
				"y": -2.7573332583,
				"z": 3.692554917,
				"element": "C" 
			},
			{
				"x": -0.4497591293,
				"y": -2.3252810185,
				"z": 2.3882590719,
				"element": "C" 
			},
			{
				"x": -1.6327411334,
				"y": -2.7378529249,
				"z": 1.8296118036,
				"element": "O" 
			},
			{
				"x": -2.0164693109,
				"y": -2.3861431789,
				"z": 0.5444161599,
				"element": "C" 
			},
			{
				"x": -3.0791577567,
				"y": -2.7984595793,
				"z": 0.1395685657,
				"element": "O" 
			},
			{
				"x": -1.084584818,
				"y": -1.5392710009,
				"z": -0.2046283623,
				"element": "C" 
			},
			{
				"x": -1.4022224971,
				"y": -1.1432538285,
				"z": -1.5067343191,
				"element": "C" 
			},
			{
				"x": -3.4879716582,
				"y": 1.5695646355,
				"z": -6.4066023491,
				"element": "H" 
			},
			{
				"x": -2.4442955007,
				"y": 2.1461711801,
				"z": -5.0946809109,
				"element": "H" 
			},
			{
				"x": -3.9857599949,
				"y": 1.3394124689,
				"z": -4.7194294838,
				"element": "H" 
			},
			{
				"x": -1.5325109362,
				"y": 0.0173491692,
				"z": -6.0299124374,
				"element": "H" 
			},
			{
				"x": -3.0827979564,
				"y": -0.8035287886,
				"z": -5.706186775,
				"element": "H" 
			},
			{
				"x": 1.4101678896,
				"y": 1.1425824269,
				"z": -3.151218098,
				"element": "H" 
			},
			{
				"x": 2.4372678361,
				"y": 1.0767471168,
				"z": -1.7026653675,
				"element": "H" 
			},
			{
				"x": 2.3560337725,
				"y": -0.5124016344,
				"z": 1.8130218538,
				"element": "H" 
			},
			{
				"x": 2.834926646,
				"y": -1.2706153242,
				"z": 4.1465033427,
				"element": "H" 
			},
			{
				"x": 1.1839183786,
				"y": -2.7091731683,
				"z": 5.3317408423,
				"element": "H" 
			},
			{
				"x": -0.9316452791,
				"y": -3.3831047705,
				"z": 4.187140878,
				"element": "H" 
			},
			{
				"x": -2.3379945858,
				"y": -1.4703523765,
				"z": -1.9438738364,
				"element": "H" 
			}
		],
		 "valence_orbital": [ 
			{
				"type": "occ",
				"energy": -0.2831,
				"method": "rhf"
			},
			{
				"type": "occ",
				"energy": -0.26774,
				"method": "rhf"
			},
			{
				"type": "occ",
				"energy": -0.25807,
				"method": "rhf"
			},
			{
				"type": "occ",
				"energy": -0.24266,
				"method": "rhf"
			},
			{
				"type": "occ",
				"energy": -0.22799,
				"method": "rhf"
			},
			{
				"type": "unocc",
				"energy": -0.07278,
				"method": "rhf"
			},
			{
				"type": "unocc",
				"energy": -0.04383,
				"method": "rhf"
			},
			{
				"type": "unocc",
				"energy": -0.01002,
				"method": "rhf"
			},
			{
				"type": "unocc",
				"energy": -0.00154,
				"method": "rhf"
			},
			{
				"type": "unocc",
				"energy": 0.03195,
				"method": "rhf"
			}
		],
		"cosmo_sigma_profile": { 
			"-0.025": 0.0,
			"-0.024": 0.0,
			"-0.023": 0.0,
			"-0.022": 0.0,
			"-0.021": 0.0,
			"-0.02": 0.0,
			"-0.019": 0.0,
			"-0.018": 0.0,
			"-0.017": 0.0,
			"-0.016": 0.0,
			"-0.015": 0.0765410947317,
			"-0.014": 1.11079221691,
			"-0.013": 0.892190317783,
			"-0.012": 0.693217301573,
			"-0.011": 1.1991582839,
			"-0.01": 1.60522302833,
			"-0.009": 1.6237594715,
			"-0.008": 2.13423054123,
			"-0.007": 4.79298313796,
			"-0.006": 11.6208694199,
			"-0.005": 16.4890622672,
			"-0.004": 23.957746553,
			"-0.003": 23.4227162855,
			"-0.002": 30.2218420883,
			"-0.001": 32.3606229986,
			"0.0": 30.7343895322,
			"0.001": 20.5302758118,
			"0.002": 22.5148485994,
			"0.003": 20.2592014896,
			"0.004": 12.579323858,
			"0.005": 6.52433911873,
			"0.006": 6.05700333241,
			"0.007": 5.41352642484,
			"0.008": 4.39945921912,
			"0.009": 5.17384552245,
			"0.01": 4.47207789515,
			"0.011": 5.7231651314,
			"0.012": 4.65241804931,
			"0.013": 1.1933695353,
			"0.014": 0.0,
			"0.015": 0.0,
			"0.016": 0.0,
			"0.017": 0.0,
			"0.018": 0.0,
			"0.019": 0.0,
			"0.02": 0.0,
			"0.021": 0.0,
			"0.022": 0.0,
			"0.023": 0.0,
			"0.024": 0.0,
			"0.025": 0.0
		}
	}
}
