{
	 "smiles": "NC(=S)NCC=C", 
	 "Tm": 351.15, 
	 "num_atms": 15, 
	 "gaussian": { 
		 "optdone": 1, 
		 "sigma_profile": "yes", 
		 "theory": "DFT", 
		 "functional": "B3LYP", 
		 "basiset": "6-31G**", 
		 "properties": { 
			 "R2extent": 2127.906, 
			 "electric_dipole_moment_norm": 5.7466650407, 
			 "electric_quadrupole_moment_norm": 20.2017924489, 
			 "total_energy": -664.92530367, 
			 "HOMO_LUMO_gap": 0.19776, 
			 "cosmo_polarized_energy": -18.39, 
			 "cosmo_cavitation_energy": 20.48, 
			 "cosmo_dispersion_energy": -15.35, 
			 "cosmo_repulsion_energy": 1.27, 
			 "cosmo_total_nonelectrostatic_energy": 6.4, 
			 "SMD_solvation_energy": 3.0 
		},
		"coords": [
			{
				"x": 1.6504063521,
				"y": -0.3428265963,
				"z": 2.6445854833,
				"element": "N" 
			},
			{
				"x": 1.5003927885,
				"y": 0.9709657731,
				"z": 2.2939384962,
				"element": "C" 
			},
			{
				"x": 2.388682687,
				"y": 2.1952990886,
				"z": 3.0332564599,
				"element": "S" 
			},
			{
				"x": 0.6255775626,
				"y": 1.2327384513,
				"z": 1.2901116165,
				"element": "N" 
			},
			{
				"x": -0.1348956429,
				"y": 0.2793923032,
				"z": 0.5023619608,
				"element": "C" 
			},
			{
				"x": -0.3837364156,
				"y": 0.7541763539,
				"z": -0.9094574328,
				"element": "C" 
			},
			{
				"x": 0.2817323555,
				"y": 1.7213435231,
				"z": -1.5393534709,
				"element": "C" 
			},
			{
				"x": 2.232051107,
				"y": -0.4943314173,
				"z": 3.4546520876,
				"element": "H" 
			},
			{
				"x": 0.892570301,
				"y": -0.9975886101,
				"z": 2.5124171484,
				"element": "H" 
			},
			{
				"x": 0.4927249792,
				"y": 2.2155609969,
				"z": 1.1001733819,
				"element": "H" 
			},
			{
				"x": 0.4242329107,
				"y": -0.6653163787,
				"z": 0.4598367324,
				"element": "H" 
			},
			{
				"x": -1.1030062961,
				"y": 0.049728613,
				"z": 0.9775484691,
				"element": "H" 
			},
			{
				"x": -1.1828377118,
				"y": 0.2245812279,
				"z": -1.4255940848,
				"element": "H" 
			},
			{
				"x": 0.0351174873,
				"y": 1.9944186448,
				"z": -2.5602289795,
				"element": "H" 
			},
			{
				"x": 1.0987875354,
				"y": 2.2647580266,
				"z": -1.073347868,
				"element": "H" 
			}
		],
		 "valence_orbital": [ 
			{
				"type": "occ",
				"energy": -0.35327,
				"method": "rhf"
			},
			{
				"type": "occ",
				"energy": -0.2834,
				"method": "rhf"
			},
			{
				"type": "occ",
				"energy": -0.27268,
				"method": "rhf"
			},
			{
				"type": "occ",
				"energy": -0.20782,
				"method": "rhf"
			},
			{
				"type": "occ",
				"energy": -0.19946,
				"method": "rhf"
			},
			{
				"type": "unocc",
				"energy": -0.0017,
				"method": "rhf"
			},
			{
				"type": "unocc",
				"energy": 0.00179,
				"method": "rhf"
			},
			{
				"type": "unocc",
				"energy": 0.06289,
				"method": "rhf"
			},
			{
				"type": "unocc",
				"energy": 0.07787,
				"method": "rhf"
			},
			{
				"type": "unocc",
				"energy": 0.10403,
				"method": "rhf"
			}
		],
		"cosmo_sigma_profile": { 
			"-0.025": 0.0,
			"-0.024": 0.0,
			"-0.023": 0.0,
			"-0.022": 0.0,
			"-0.021": 0.0,
			"-0.02": 0.0,
			"-0.019": 0.0,
			"-0.018": 0.0,
			"-0.017": 0.0,
			"-0.016": 0.0,
			"-0.015": 0.745321603563,
			"-0.014": 2.10924142169,
			"-0.013": 2.63237951075,
			"-0.012": 3.62170959789,
			"-0.011": 3.13404747196,
			"-0.01": 2.78469733648,
			"-0.009": 2.86656782,
			"-0.008": 3.77557883535,
			"-0.007": 4.5237134797,
			"-0.006": 11.3640555712,
			"-0.005": 12.9991642057,
			"-0.004": 9.81066729649,
			"-0.003": 8.47302868186,
			"-0.002": 7.90278700772,
			"-0.001": 7.57892544303,
			"0.0": 7.64264350744,
			"0.001": 7.45504049084,
			"0.002": 7.24812713531,
			"0.003": 4.96300108105,
			"0.004": 6.31134457793,
			"0.005": 6.96056481628,
			"0.006": 5.16683308613,
			"0.007": 3.64696523782,
			"0.008": 4.3732756817,
			"0.009": 3.83080427513,
			"0.01": 4.27455946741,
			"0.011": 5.29732019512,
			"0.012": 8.75214000883,
			"0.013": 4.16897279388,
			"0.014": 0.129179969715,
			"0.015": 0.0,
			"0.016": 0.0,
			"0.017": 0.0,
			"0.018": 0.0,
			"0.019": 0.0,
			"0.02": 0.0,
			"0.021": 0.0,
			"0.022": 0.0,
			"0.023": 0.0,
			"0.024": 0.0,
			"0.025": 0.0
		}
	}
}
