{
	 "smiles": "CCOC(=O)C1=CNC2=C(C=CC=C2F)C1=O", 
	 "Tm": 481.15, 
	 "num_atms": 27, 
	 "gaussian": { 
		 "optdone": 1, 
		 "sigma_profile": "yes", 
		 "theory": "DFT", 
		 "functional": "B3LYP", 
		 "basiset": "6-31G**", 
		 "properties": { 
			 "R2extent": 5380.9897, 
			 "electric_dipole_moment_norm": 6.02920826146, 
			 "electric_quadrupole_moment_norm": 17.5710285408, 
			 "total_energy": -843.583030743, 
			 "HOMO_LUMO_gap": 0.17644, 
			 "cosmo_polarized_energy": -22.92, 
			 "cosmo_cavitation_energy": 32.13, 
			 "cosmo_dispersion_energy": -23.55, 
			 "cosmo_repulsion_energy": 1.79, 
			 "cosmo_total_nonelectrostatic_energy": 10.37, 
			 "SMD_solvation_energy": 7.46 
		},
		"coords": [
			{
				"x": 2.7373962214,
				"y": 3.7845989269,
				"z": -0.5715419651,
				"element": "C" 
			},
			{
				"x": 2.8552965718,
				"y": 2.3264511393,
				"z": -0.990876286,
				"element": "C" 
			},
			{
				"x": 1.6135237679,
				"y": 1.6158335506,
				"z": -0.790750096,
				"element": "O" 
			},
			{
				"x": 1.407814868,
				"y": 1.1057804781,
				"z": 0.4642829796,
				"element": "C" 
			},
			{
				"x": 2.2088740664,
				"y": 1.2333249379,
				"z": 1.3630031357,
				"element": "O" 
			},
			{
				"x": 0.1067446383,
				"y": 0.3936809007,
				"z": 0.5485970831,
				"element": "C" 
			},
			{
				"x": -0.6622784301,
				"y": 0.2800474938,
				"z": -0.5823144564,
				"element": "C" 
			},
			{
				"x": -1.8580473056,
				"y": -0.3563256313,
				"z": -0.6070304157,
				"element": "N" 
			},
			{
				"x": -2.3869409239,
				"y": -0.9423984762,
				"z": 0.530906293,
				"element": "C" 
			},
			{
				"x": -1.6817794407,
				"y": -0.8808983865,
				"z": 1.7434874369,
				"element": "C" 
			},
			{
				"x": -2.240098908,
				"y": -1.4828388248,
				"z": 2.8827802432,
				"element": "C" 
			},
			{
				"x": -3.4668018009,
				"y": -2.1283333128,
				"z": 2.8151881953,
				"element": "C" 
			},
			{
				"x": -4.1736687734,
				"y": -2.190235776,
				"z": 1.6009782478,
				"element": "C" 
			},
			{
				"x": -3.6244125705,
				"y": -1.5986731461,
				"z": 0.4838241477,
				"element": "C" 
			},
			{
				"x": -4.2639212899,
				"y": -1.628408669,
				"z": -0.7133040572,
				"element": "F" 
			},
			{
				"x": -0.3591175103,
				"y": -0.1871524898,
				"z": 1.8265119622,
				"element": "C" 
			},
			{
				"x": 0.2459168117,
				"y": -0.1304551792,
				"z": 2.8911705114,
				"element": "O" 
			},
			{
				"x": 3.6672917732,
				"y": 4.3151265964,
				"z": -0.8028498637,
				"element": "H" 
			},
			{
				"x": 1.9187362089,
				"y": 4.2793930209,
				"z": -1.1030206073,
				"element": "H" 
			},
			{
				"x": 2.5583951239,
				"y": 3.8590237462,
				"z": 0.503625464,
				"element": "H" 
			},
			{
				"x": 3.0545774234,
				"y": 2.2332532868,
				"z": -2.0618243649,
				"element": "H" 
			},
			{
				"x": 3.6451881735,
				"y": 1.8215083208,
				"z": -0.4299050818,
				"element": "H" 
			},
			{
				"x": -0.3339699104,
				"y": 0.7052257548,
				"z": -1.5222814006,
				"element": "H" 
			},
			{
				"x": -2.3898409557,
				"y": -0.4175016888,
				"z": -1.4628603794,
				"element": "H" 
			},
			{
				"x": -1.6741721331,
				"y": -1.4196996663,
				"z": 3.8056593493,
				"element": "H" 
			},
			{
				"x": -3.8912715154,
				"y": -2.5911868846,
				"z": 3.7001685451,
				"element": "H" 
			},
			{
				"x": -5.1338341803,
				"y": -2.6881400218,
				"z": 1.5209753798,
				"element": "H" 
			}
		],
		 "valence_orbital": [ 
			{
				"type": "occ",
				"energy": -0.28149,
				"method": "rhf"
			},
			{
				"type": "occ",
				"energy": -0.26895,
				"method": "rhf"
			},
			{
				"type": "occ",
				"energy": -0.26287,
				"method": "rhf"
			},
			{
				"type": "occ",
				"energy": -0.2289,
				"method": "rhf"
			},
			{
				"type": "occ",
				"energy": -0.22858,
				"method": "rhf"
			},
			{
				"type": "unocc",
				"energy": -0.05214,
				"method": "rhf"
			},
			{
				"type": "unocc",
				"energy": -0.04635,
				"method": "rhf"
			},
			{
				"type": "unocc",
				"energy": 0.00343,
				"method": "rhf"
			},
			{
				"type": "unocc",
				"energy": 0.0343,
				"method": "rhf"
			},
			{
				"type": "unocc",
				"energy": 0.05165,
				"method": "rhf"
			}
		],
		"cosmo_sigma_profile": { 
			"-0.025": 0.0,
			"-0.024": 0.0,
			"-0.023": 0.0,
			"-0.022": 0.0,
			"-0.021": 0.0,
			"-0.02": 0.0,
			"-0.019": 0.0,
			"-0.018": 0.480323681583,
			"-0.017": 0.856076893297,
			"-0.016": 1.55932915486,
			"-0.015": 0.976046898535,
			"-0.014": 0.738284980607,
			"-0.013": 1.27554928585,
			"-0.012": 1.17993191719,
			"-0.011": 1.87981638986,
			"-0.01": 1.78908837781,
			"-0.009": 2.1066855895,
			"-0.008": 4.27821561481,
			"-0.007": 5.30074385013,
			"-0.006": 8.28012564378,
			"-0.005": 11.9673045986,
			"-0.004": 15.5408873232,
			"-0.003": 22.1417095476,
			"-0.002": 24.3818197849,
			"-0.001": 27.1640272698,
			"0.0": 27.6085538092,
			"0.001": 18.303016734,
			"0.002": 17.3613132123,
			"0.003": 16.5600066647,
			"0.004": 7.76354018933,
			"0.005": 3.30805642315,
			"0.006": 2.692988552,
			"0.007": 2.77558933458,
			"0.008": 1.43766840834,
			"0.009": 2.57733093147,
			"0.01": 2.84368275995,
			"0.011": 3.12638645272,
			"0.012": 4.88870750669,
			"0.013": 5.08299690407,
			"0.014": 3.16949036096,
			"0.015": 1.99200693631,
			"0.016": 1.54592523658,
			"0.017": 1.19328549634,
			"0.018": 1.00330664457,
			"0.019": 0.18027805368,
			"0.02": 0.0,
			"0.021": 0.0,
			"0.022": 0.0,
			"0.023": 0.0,
			"0.024": 0.0,
			"0.025": 0.0
		}
	}
}
