{
	 "smiles": "NC1=CC=C(CN2CCC(CO)CC2)C=C1", 
	 "Tm": 439.15, 
	 "num_atms": 36, 
	 "gaussian": { 
		 "optdone": 1, 
		 "sigma_profile": "yes", 
		 "theory": "DFT", 
		 "functional": "B3LYP", 
		 "basiset": "6-31G**", 
		 "properties": { 
			 "R2extent": 5963.1399, 
			 "electric_dipole_moment_norm": 2.10546361878, 
			 "electric_quadrupole_moment_norm": 16.4040614623, 
			 "total_energy": -692.157673497, 
			 "HOMO_LUMO_gap": 0.20146, 
			 "cosmo_polarized_energy": -14.05, 
			 "cosmo_cavitation_energy": 36.35, 
			 "cosmo_dispersion_energy": -25.98, 
			 "cosmo_repulsion_energy": 2.04, 
			 "cosmo_total_nonelectrostatic_energy": 12.41, 
			 "SMD_solvation_energy": 3.8 
		},
		"coords": [
			{
				"x": 3.9788357356,
				"y": -0.9241304576,
				"z": 3.967883917,
				"element": "N" 
			},
			{
				"x": 3.1350193497,
				"y": -1.0015115056,
				"z": 2.8555364465,
				"element": "C" 
			},
			{
				"x": 3.6533990536,
				"y": -0.9016089823,
				"z": 1.5514030091,
				"element": "C" 
			},
			{
				"x": 2.8221735382,
				"y": -1.0374898057,
				"z": 0.4451860868,
				"element": "C" 
			},
			{
				"x": 1.4479134589,
				"y": -1.2745912379,
				"z": 0.590379097,
				"element": "C" 
			},
			{
				"x": 0.5586742247,
				"y": -1.4719749256,
				"z": -0.622833221,
				"element": "C" 
			},
			{
				"x": 0.7951932011,
				"y": -0.4699478296,
				"z": -1.6671633631,
				"element": "N" 
			},
			{
				"x": 0.2851820971,
				"y": -0.8409751459,
				"z": -2.987912377,
				"element": "C" 
			},
			{
				"x": -1.2414715213,
				"y": -0.6934403576,
				"z": -3.144445983,
				"element": "C" 
			},
			{
				"x": -1.6958256573,
				"y": 0.732669798,
				"z": -2.7830590954,
				"element": "C" 
			},
			{
				"x": -3.2187120904,
				"y": 0.8998997222,
				"z": -2.8486720869,
				"element": "C" 
			},
			{
				"x": -3.7643001893,
				"y": 0.6740499599,
				"z": -4.1427496783,
				"element": "O" 
			},
			{
				"x": -1.1500263671,
				"y": 1.1157830746,
				"z": -1.3955930916,
				"element": "C" 
			},
			{
				"x": 0.3722130498,
				"y": 0.8886435185,
				"z": -1.3090583595,
				"element": "C" 
			},
			{
				"x": 0.9369900481,
				"y": -1.3645944345,
				"z": 1.8889827457,
				"element": "C" 
			},
			{
				"x": 1.7591955267,
				"y": -1.2343321706,
				"z": 3.0072619306,
				"element": "C" 
			},
			{
				"x": 4.8348238081,
				"y": -0.4078081634,
				"z": 3.8173175799,
				"element": "H" 
			},
			{
				"x": 3.5250496029,
				"y": -0.6492134558,
				"z": 4.8283924972,
				"element": "H" 
			},
			{
				"x": 4.7170322506,
				"y": -0.7208232035,
				"z": 1.4123238088,
				"element": "H" 
			},
			{
				"x": 3.2326668194,
				"y": -0.9429275465,
				"z": -0.555895678,
				"element": "H" 
			},
			{
				"x": -0.4919857174,
				"y": -1.5245908287,
				"z": -0.2832963512,
				"element": "H" 
			},
			{
				"x": 0.7744651519,
				"y": -2.4494457437,
				"z": -1.075941569,
				"element": "H" 
			},
			{
				"x": 0.7760604862,
				"y": -0.1924965246,
				"z": -3.7279936814,
				"element": "H" 
			},
			{
				"x": 0.5972979911,
				"y": -1.8681555969,
				"z": -3.2082237141,
				"element": "H" 
			},
			{
				"x": -1.7534538674,
				"y": -1.4184833147,
				"z": -2.4943310363,
				"element": "H" 
			},
			{
				"x": -1.5220091787,
				"y": -0.9345505431,
				"z": -4.1782335712,
				"element": "H" 
			},
			{
				"x": -1.2637101563,
				"y": 1.4204715558,
				"z": -3.5262535538,
				"element": "H" 
			},
			{
				"x": -3.693552702,
				"y": 0.245797835,
				"z": -2.0969982387,
				"element": "H" 
			},
			{
				"x": -3.4863215213,
				"y": 1.9307729017,
				"z": -2.5910695227,
				"element": "H" 
			},
			{
				"x": -3.6748805263,
				"y": -0.2663049743,
				"z": -4.3403934065,
				"element": "H" 
			},
			{
				"x": -1.3759756862,
				"y": 2.1669503282,
				"z": -1.1738841754,
				"element": "H" 
			},
			{
				"x": -1.6588954542,
				"y": 0.520111425,
				"z": -0.6246316795,
				"element": "H" 
			},
			{
				"x": 0.7397954528,
				"y": 1.111569971,
				"z": -0.3030995231,
				"element": "H" 
			},
			{
				"x": 0.8741402449,
				"y": 1.5849937133,
				"z": -1.9957481491,
				"element": "H" 
			},
			{
				"x": -0.1270812911,
				"y": -1.5393379641,
				"z": 2.0341167021,
				"element": "H" 
			},
			{
				"x": 1.334480835,
				"y": -1.310579091,
				"z": 4.005597285,
				"element": "H" 
			}
		],
		 "valence_orbital": [ 
			{
				"type": "occ",
				"energy": -0.29525,
				"method": "rhf"
			},
			{
				"type": "occ",
				"energy": -0.26067,
				"method": "rhf"
			},
			{
				"type": "occ",
				"energy": -0.24073,
				"method": "rhf"
			},
			{
				"type": "occ",
				"energy": -0.20174,
				"method": "rhf"
			},
			{
				"type": "occ",
				"energy": -0.19403,
				"method": "rhf"
			},
			{
				"type": "unocc",
				"energy": 0.00743,
				"method": "rhf"
			},
			{
				"type": "unocc",
				"energy": 0.01978,
				"method": "rhf"
			},
			{
				"type": "unocc",
				"energy": 0.07327,
				"method": "rhf"
			},
			{
				"type": "unocc",
				"energy": 0.08379,
				"method": "rhf"
			},
			{
				"type": "unocc",
				"energy": 0.08904,
				"method": "rhf"
			}
		],
		"cosmo_sigma_profile": { 
			"-0.025": 0.0,
			"-0.024": 0.0,
			"-0.023": 0.0,
			"-0.022": 0.0,
			"-0.021": 0.0,
			"-0.02": 0.0,
			"-0.019": 0.0,
			"-0.018": 0.0,
			"-0.017": 0.0,
			"-0.016": 0.0,
			"-0.015": 0.142005678347,
			"-0.014": 0.94859214854,
			"-0.013": 0.623728462519,
			"-0.012": 2.38025013481,
			"-0.011": 3.74843533816,
			"-0.01": 3.82531843682,
			"-0.009": 3.67882273441,
			"-0.008": 4.15549208298,
			"-0.007": 3.61781452172,
			"-0.006": 5.84546224633,
			"-0.005": 7.02816746639,
			"-0.004": 12.0035144601,
			"-0.003": 27.0237860082,
			"-0.002": 45.2749342259,
			"-0.001": 35.0143179652,
			"0.0": 27.4137040521,
			"0.001": 16.1375158238,
			"0.002": 8.96959671798,
			"0.003": 10.4121921738,
			"0.004": 8.93879348454,
			"0.005": 10.642562867,
			"0.006": 9.95631819686,
			"0.007": 11.1198575792,
			"0.008": 4.67382404989,
			"0.009": 3.15881541704,
			"0.01": 2.40914524458,
			"0.011": 2.99925718452,
			"0.012": 2.25747146979,
			"0.013": 2.3934364464,
			"0.014": 3.06431349634,
			"0.015": 1.95633565823,
			"0.016": 0.0244659275187,
			"0.017": 0.0,
			"0.018": 0.0,
			"0.019": 0.0,
			"0.02": 0.0,
			"0.021": 0.0,
			"0.022": 0.0,
			"0.023": 0.0,
			"0.024": 0.0,
			"0.025": 0.0
		}
	}
}
