{
	 "smiles": "ClC1=CC=C(C=C1Cl)C1=NOC(=C1)C(=O)CBr", 
	 "Tm": 389.15, 
	 "num_atms": 23, 
	 "gaussian": { 
		 "optdone": 1, 
		 "sigma_profile": "yes", 
		 "theory": "DFT", 
		 "functional": "B3LYP", 
		 "basiset": "6-31G**", 
		 "properties": { 
			 "R2extent": 11959.8678, 
			 "electric_dipole_moment_norm": 1.53601207678, 
			 "electric_quadrupole_moment_norm": 9.88434124209, 
			 "total_energy": -4119.71361847, 
			 "HOMO_LUMO_gap": 0.15414, 
			 "cosmo_polarized_energy": -11.33, 
			 "cosmo_cavitation_energy": 35.32, 
			 "cosmo_dispersion_energy": -26.02, 
			 "cosmo_repulsion_energy": 2.02, 
			 "cosmo_total_nonelectrostatic_energy": 11.32, 
			 "SMD_solvation_energy": 4.74 
		},
		"coords": [
			{
				"x": 3.3104598262,
				"y": 3.4380219936,
				"z": 1.5322707364,
				"element": "Cl" 
			},
			{
				"x": 2.141862943,
				"y": 2.3963500506,
				"z": 0.7665794867,
				"element": "C" 
			},
			{
				"x": 1.176224887,
				"y": 1.7649431418,
				"z": 1.5575682098,
				"element": "C" 
			},
			{
				"x": 0.2295844363,
				"y": 0.9280067591,
				"z": 0.982868923,
				"element": "C" 
			},
			{
				"x": 0.2291500794,
				"y": 0.7043319621,
				"z": -0.4034586607,
				"element": "C" 
			},
			{
				"x": 1.1957279435,
				"y": 1.3366368691,
				"z": -1.1927626332,
				"element": "C" 
			},
			{
				"x": 2.1482707498,
				"y": 2.1780629411,
				"z": -0.6172372095,
				"element": "C" 
			},
			{
				"x": 3.3272777755,
				"y": 2.9376893534,
				"z": -1.6560481925,
				"element": "Cl" 
			},
			{
				"x": -0.7732938204,
				"y": -0.1819904914,
				"z": -1.0185836303,
				"element": "C" 
			},
			{
				"x": -1.7071768495,
				"y": -0.751460328,
				"z": -0.2696003712,
				"element": "N" 
			},
			{
				"x": -2.480423932,
				"y": -1.5137465337,
				"z": -1.123203273,
				"element": "O" 
			},
			{
				"x": -2.0007339966,
				"y": -1.3916205022,
				"z": -2.3833770351,
				"element": "C" 
			},
			{
				"x": -0.9213143785,
				"y": -0.5586467994,
				"z": -2.3864696934,
				"element": "C" 
			},
			{
				"x": -2.6837968618,
				"y": -2.0999577544,
				"z": -3.4890807297,
				"element": "C" 
			},
			{
				"x": -2.3364582463,
				"y": -1.9135272212,
				"z": -4.6410655891,
				"element": "O" 
			},
			{
				"x": -3.8192598365,
				"y": -3.0425164261,
				"z": -3.1360838808,
				"element": "C" 
			},
			{
				"x": -3.0525310812,
				"y": -4.7412873175,
				"z": -2.4770821722,
				"element": "Br" 
			},
			{
				"x": 1.179338082,
				"y": 1.9390858926,
				"z": 2.6277140466,
				"element": "H" 
			},
			{
				"x": -0.5148515667,
				"y": 0.4414770867,
				"z": 1.6025886421,
				"element": "H" 
			},
			{
				"x": 1.2241604898,
				"y": 1.1874402761,
				"z": -2.2657612174,
				"element": "H" 
			},
			{
				"x": -0.3353878859,
				"y": -0.2741287803,
				"z": -3.2455692194,
				"element": "H" 
			},
			{
				"x": -4.3879566851,
				"y": -3.2782805311,
				"z": -4.0322310908,
				"element": "H" 
			},
			{
				"x": -4.4517720719,
				"y": -2.6659836409,
				"z": -2.3334754462,
				"element": "H" 
			}
		],
		 "valence_orbital": [ 
			{
				"type": "occ",
				"energy": -0.29566,
				"method": "rhf"
			},
			{
				"type": "occ",
				"energy": -0.28975,
				"method": "rhf"
			},
			{
				"type": "occ",
				"energy": -0.28004,
				"method": "rhf"
			},
			{
				"type": "occ",
				"energy": -0.27447,
				"method": "rhf"
			},
			{
				"type": "occ",
				"energy": -0.25473,
				"method": "rhf"
			},
			{
				"type": "unocc",
				"energy": -0.10059,
				"method": "rhf"
			},
			{
				"type": "unocc",
				"energy": -0.06313,
				"method": "rhf"
			},
			{
				"type": "unocc",
				"energy": -0.03659,
				"method": "rhf"
			},
			{
				"type": "unocc",
				"energy": -0.02051,
				"method": "rhf"
			},
			{
				"type": "unocc",
				"energy": -0.00735,
				"method": "rhf"
			}
		],
		"cosmo_sigma_profile": { 
			"-0.025": 0.0,
			"-0.024": 0.0,
			"-0.023": 0.0,
			"-0.022": 0.0,
			"-0.021": 0.0,
			"-0.02": 0.0,
			"-0.019": 0.0,
			"-0.018": 0.0,
			"-0.017": 0.0,
			"-0.016": 0.0,
			"-0.015": 0.0,
			"-0.014": 0.0,
			"-0.013": 0.0,
			"-0.012": 0.180249245317,
			"-0.011": 2.15526841544,
			"-0.01": 3.4358536719,
			"-0.009": 6.66129267695,
			"-0.008": 8.18697485785,
			"-0.007": 9.90963912404,
			"-0.006": 9.97937780057,
			"-0.005": 9.06208691033,
			"-0.004": 10.5192283715,
			"-0.003": 14.1327969233,
			"-0.002": 20.5496651267,
			"-0.001": 28.0310784713,
			"0.0": 32.049095032,
			"0.001": 28.2464218366,
			"0.002": 22.6692745696,
			"0.003": 24.0459974221,
			"0.004": 26.7633061649,
			"0.005": 13.2868747728,
			"0.006": 5.0884944679,
			"0.007": 3.32067213055,
			"0.008": 3.11306517342,
			"0.009": 4.80878243013,
			"0.01": 4.68587231037,
			"0.011": 1.93963877753,
			"0.012": 0.0943977690001,
			"0.013": 0.0,
			"0.014": 0.0,
			"0.015": 0.0,
			"0.016": 0.0,
			"0.017": 0.0,
			"0.018": 0.0,
			"0.019": 0.0,
			"0.02": 0.0,
			"0.021": 0.0,
			"0.022": 0.0,
			"0.023": 0.0,
			"0.024": 0.0,
			"0.025": 0.0
		}
	}
}
