{
	 "smiles": "CCCCCCCCC=C/CCCCCCCCO", 
	 "Tm": 279.15, 
	 "num_atms": 55, 
	 "gaussian": { 
		 "optdone": 1, 
		 "sigma_profile": "yes", 
		 "theory": "DFT", 
		 "functional": "B3LYP", 
		 "basiset": "6-31G**", 
		 "properties": { 
			 "R2extent": 9163.3025, 
			 "electric_dipole_moment_norm": 1.68435875632, 
			 "electric_quadrupole_moment_norm": 14.5404320864, 
			 "total_energy": -782.846665454, 
			 "HOMO_LUMO_gap": 0.26423, 
			 "cosmo_polarized_energy": -7.3, 
			 "cosmo_cavitation_energy": 53.95, 
			 "cosmo_dispersion_energy": -33.37, 
			 "cosmo_repulsion_energy": 2.71, 
			 "cosmo_total_nonelectrostatic_energy": 23.29, 
			 "SMD_solvation_energy": 7.14 
		},
		"coords": [
			{
				"x": -1.9203187284,
				"y": -0.8950572865,
				"z": -3.2425354208,
				"element": "C" 
			},
			{
				"x": -1.8095673795,
				"y": -2.3162645796,
				"z": -2.6770972123,
				"element": "C" 
			},
			{
				"x": -1.6822835943,
				"y": -2.3842828154,
				"z": -1.1458464909,
				"element": "C" 
			},
			{
				"x": -2.9263393349,
				"y": -1.9017897567,
				"z": -0.3842094213,
				"element": "C" 
			},
			{
				"x": -2.8585559529,
				"y": -2.1024234974,
				"z": 1.1391902291,
				"element": "C" 
			},
			{
				"x": -1.7922560091,
				"y": -1.2589644626,
				"z": 1.8521636114,
				"element": "C" 
			},
			{
				"x": -1.8162016111,
				"y": -1.4239297249,
				"z": 3.3768515703,
				"element": "C" 
			},
			{
				"x": -0.7446114858,
				"y": -0.5931580291,
				"z": 4.1139778362,
				"element": "C" 
			},
			{
				"x": 0.6620239591,
				"y": -1.0508850084,
				"z": 3.828282683,
				"element": "C" 
			},
			{
				"x": 1.6909708029,
				"y": -0.3378694789,
				"z": 3.3527072249,
				"element": "C" 
			},
			{
				"x": 1.7169988844,
				"y": 1.1159326355,
				"z": 2.9622891902,
				"element": "C" 
			},
			{
				"x": 2.1302719165,
				"y": 1.330395141,
				"z": 1.4924246263,
				"element": "C" 
			},
			{
				"x": 2.2157334587,
				"y": 2.8156325616,
				"z": 1.1141534199,
				"element": "C" 
			},
			{
				"x": 2.7675544588,
				"y": 3.1460105456,
				"z": -0.2854366416,
				"element": "C" 
			},
			{
				"x": 1.8964729598,
				"y": 2.7240414458,
				"z": -1.4882881781,
				"element": "C" 
			},
			{
				"x": 2.0387808147,
				"y": 1.2872236755,
				"z": -2.0323285357,
				"element": "C" 
			},
			{
				"x": 3.4084569165,
				"y": 0.9459159929,
				"z": -2.6647934476,
				"element": "C" 
			},
			{
				"x": 4.3818855929,
				"y": 0.2098104543,
				"z": -1.7378119501,
				"element": "C" 
			},
			{
				"x": 5.6274739299,
				"y": -0.0710636999,
				"z": -2.362395536,
				"element": "O" 
			},
			{
				"x": -2.8227086012,
				"y": -0.3842240529,
				"z": -2.8914924935,
				"element": "H" 
			},
			{
				"x": -1.0586893538,
				"y": -0.2852493222,
				"z": -2.9450557946,
				"element": "H" 
			},
			{
				"x": -1.9559674074,
				"y": -0.9074286341,
				"z": -4.3370042387,
				"element": "H" 
			},
			{
				"x": -2.683119136,
				"y": -2.9034842306,
				"z": -2.9927069885,
				"element": "H" 
			},
			{
				"x": -0.9366551436,
				"y": -2.8092051421,
				"z": -3.1242940033,
				"element": "H" 
			},
			{
				"x": -1.4751964848,
				"y": -3.423643247,
				"z": -0.8548322536,
				"element": "H" 
			},
			{
				"x": -0.804069481,
				"y": -1.8019065804,
				"z": -0.8361844199,
				"element": "H" 
			},
			{
				"x": -3.8030201849,
				"y": -2.4398312023,
				"z": -0.771287142,
				"element": "H" 
			},
			{
				"x": -3.1059575328,
				"y": -0.8390350381,
				"z": -0.5950216338,
				"element": "H" 
			},
			{
				"x": -3.841589276,
				"y": -1.8651379045,
				"z": 1.5689057672,
				"element": "H" 
			},
			{
				"x": -2.6835731308,
				"y": -3.1662136833,
				"z": 1.3564318086,
				"element": "H" 
			},
			{
				"x": -0.7932482275,
				"y": -1.5176763629,
				"z": 1.4812157154,
				"element": "H" 
			},
			{
				"x": -1.9448048852,
				"y": -0.1982781352,
				"z": 1.60267514,
				"element": "H" 
			},
			{
				"x": -2.8067380952,
				"y": -1.1414029917,
				"z": 3.7578251765,
				"element": "H" 
			},
			{
				"x": -1.6846519106,
				"y": -2.4856732808,
				"z": 3.6301993239,
				"element": "H" 
			},
			{
				"x": -0.8718517597,
				"y": 0.4665794378,
				"z": 3.8663060382,
				"element": "H" 
			},
			{
				"x": -0.927765817,
				"y": -0.6789585704,
				"z": 5.1951248924,
				"element": "H" 
			},
			{
				"x": 0.8448269336,
				"y": -2.1042085923,
				"z": 4.0497503693,
				"element": "H" 
			},
			{
				"x": 2.6408641601,
				"y": -0.8585430889,
				"z": 3.2194881166,
				"element": "H" 
			},
			{
				"x": 0.7447205667,
				"y": 1.5887865922,
				"z": 3.1390730542,
				"element": "H" 
			},
			{
				"x": 2.436055539,
				"y": 1.6461678204,
				"z": 3.6053688973,
				"element": "H" 
			},
			{
				"x": 3.1024920877,
				"y": 0.8482462434,
				"z": 1.3183074605,
				"element": "H" 
			},
			{
				"x": 1.4101566106,
				"y": 0.8112345012,
				"z": 0.849565089,
				"element": "H" 
			},
			{
				"x": 2.8500193889,
				"y": 3.3225451525,
				"z": 1.8549717248,
				"element": "H" 
			},
			{
				"x": 1.2186982973,
				"y": 3.2683840748,
				"z": 1.2161525269,
				"element": "H" 
			},
			{
				"x": 2.8883672781,
				"y": 4.2359519638,
				"z": -0.330657188,
				"element": "H" 
			},
			{
				"x": 3.781430577,
				"y": 2.7392883514,
				"z": -0.3886485381,
				"element": "H" 
			},
			{
				"x": 0.8418898024,
				"y": 2.8966550625,
				"z": -1.2314832282,
				"element": "H" 
			},
			{
				"x": 2.1113886007,
				"y": 3.4058369183,
				"z": -2.3220652794,
				"element": "H" 
			},
			{
				"x": 1.2626695817,
				"y": 1.1592168288,
				"z": -2.796946433,
				"element": "H" 
			},
			{
				"x": 1.8034796453,
				"y": 0.5520727509,
				"z": -1.2531062839,
				"element": "H" 
			},
			{
				"x": 3.2480066504,
				"y": 0.3049269762,
				"z": -3.5437774046,
				"element": "H" 
			},
			{
				"x": 3.8976028586,
				"y": 1.8543162465,
				"z": -3.0382121311,
				"element": "H" 
			},
			{
				"x": 3.9048768786,
				"y": -0.7114861762,
				"z": -1.3621422344,
				"element": "H" 
			},
			{
				"x": 4.6265774702,
				"y": 0.8180421713,
				"z": -0.8620092662,
				"element": "H" 
			},
			{
				"x": 5.4491939026,
				"y": -0.6275389688,
				"z": -3.1318317025,
				"element": "H" 
			}
		],
		 "valence_orbital": [ 
			{
				"type": "occ",
				"energy": -0.30352,
				"method": "rhf"
			},
			{
				"type": "occ",
				"energy": -0.30333,
				"method": "rhf"
			},
			{
				"type": "occ",
				"energy": -0.30047,
				"method": "rhf"
			},
			{
				"type": "occ",
				"energy": -0.25995,
				"method": "rhf"
			},
			{
				"type": "occ",
				"energy": -0.23494,
				"method": "rhf"
			},
			{
				"type": "unocc",
				"energy": 0.02929,
				"method": "rhf"
			},
			{
				"type": "unocc",
				"energy": 0.0697,
				"method": "rhf"
			},
			{
				"type": "unocc",
				"energy": 0.0795,
				"method": "rhf"
			},
			{
				"type": "unocc",
				"energy": 0.0892,
				"method": "rhf"
			},
			{
				"type": "unocc",
				"energy": 0.09021,
				"method": "rhf"
			}
		],
		"cosmo_sigma_profile": { 
			"-0.025": 0.0,
			"-0.024": 0.0,
			"-0.023": 0.0,
			"-0.022": 0.0,
			"-0.021": 0.0,
			"-0.02": 0.0,
			"-0.019": 0.0,
			"-0.018": 0.0,
			"-0.017": 0.0,
			"-0.016": 0.0,
			"-0.015": 0.343341791746,
			"-0.014": 1.08925877406,
			"-0.013": 0.917182354419,
			"-0.012": 0.9766774013,
			"-0.011": 1.09553055868,
			"-0.01": 0.673862118469,
			"-0.009": 1.32469658097,
			"-0.008": 0.870571047797,
			"-0.007": 0.679182496257,
			"-0.006": 0.935033592949,
			"-0.005": 1.41050970831,
			"-0.004": 4.64094665204,
			"-0.003": 17.3898035001,
			"-0.002": 61.0189834835,
			"-0.001": 92.5700842609,
			"0.0": 90.650722459,
			"0.001": 72.3935441014,
			"0.002": 28.4138413043,
			"0.003": 7.17611393179,
			"0.004": 5.71079526088,
			"0.005": 4.27773416657,
			"0.006": 3.08329274357,
			"0.007": 3.20165039677,
			"0.008": 1.56694370435,
			"0.009": 1.06194532715,
			"0.01": 0.900862505431,
			"0.011": 2.06152305955,
			"0.012": 1.06287669173,
			"0.013": 1.49380849096,
			"0.014": 2.21825689069,
			"0.015": 1.90830202634,
			"0.016": 0.0,
			"0.017": 0.0,
			"0.018": 0.0,
			"0.019": 0.0,
			"0.02": 0.0,
			"0.021": 0.0,
			"0.022": 0.0,
			"0.023": 0.0,
			"0.024": 0.0,
			"0.025": 0.0
		}
	}
}
