{
	 "smiles": "OC(=O)C1=C(Cl)C2=C(C=C1)C(=O)C1=C(C=CC=C1)C2=O", 
	 "Tm": 473.15, 
	 "num_atms": 27, 
	 "gaussian": { 
		 "optdone": 1, 
		 "sigma_profile": "yes", 
		 "theory": "DFT", 
		 "functional": "B3LYP", 
		 "basiset": "6-31G**", 
		 "properties": { 
			 "R2extent": 7916.7511, 
			 "electric_dipole_moment_norm": 5.4961636293, 
			 "electric_quadrupole_moment_norm": 13.8291826067, 
			 "total_energy": -1336.91155779, 
			 "HOMO_LUMO_gap": 0.14649, 
			 "cosmo_polarized_energy": -14.93, 
			 "cosmo_cavitation_energy": 33.54, 
			 "cosmo_dispersion_energy": -25.29, 
			 "cosmo_repulsion_energy": 1.84, 
			 "cosmo_total_nonelectrostatic_energy": 10.09, 
			 "SMD_solvation_energy": 7.17 
		},
		"coords": [
			{
				"x": 4.4022970314,
				"y": 4.5875323859,
				"z": -0.5432484728,
				"element": "O" 
			},
			{
				"x": 4.3959536153,
				"y": 3.4325832196,
				"z": 0.1346408512,
				"element": "C" 
			},
			{
				"x": 5.353894825,
				"y": 3.1137359224,
				"z": 0.8019210489,
				"element": "O" 
			},
			{
				"x": 3.202625269,
				"y": 2.4840672,
				"z": 0.0198850734,
				"element": "C" 
			},
			{
				"x": 1.8853048056,
				"y": 2.7578037026,
				"z": -0.4018207253,
				"element": "C" 
			},
			{
				"x": 1.4770212049,
				"y": 4.4028344375,
				"z": -0.8935942121,
				"element": "Cl" 
			},
			{
				"x": 0.8886704267,
				"y": 1.752431236,
				"z": -0.4285545629,
				"element": "C" 
			},
			{
				"x": 1.2618981472,
				"y": 0.4434043181,
				"z": -0.0423843945,
				"element": "C" 
			},
			{
				"x": 2.5619468586,
				"y": 0.1655836066,
				"z": 0.379086718,
				"element": "C" 
			},
			{
				"x": 3.5080302425,
				"y": 1.1733404674,
				"z": 0.4188366785,
				"element": "C" 
			},
			{
				"x": 0.3033079345,
				"y": -0.7130240842,
				"z": -0.0659600923,
				"element": "C" 
			},
			{
				"x": 0.6743123321,
				"y": -1.8289141227,
				"z": 0.2784670245,
				"element": "O" 
			},
			{
				"x": -1.0798340168,
				"y": -0.4577788593,
				"z": -0.5227106606,
				"element": "C" 
			},
			{
				"x": -1.4747776115,
				"y": 0.8398609076,
				"z": -0.8872787578,
				"element": "C" 
			},
			{
				"x": -2.7906890633,
				"y": 1.0654692821,
				"z": -1.3115528334,
				"element": "C" 
			},
			{
				"x": -3.6949840417,
				"y": 0.0088186268,
				"z": -1.3745368041,
				"element": "C" 
			},
			{
				"x": -3.2977485741,
				"y": -1.2841127873,
				"z": -1.0106429874,
				"element": "C" 
			},
			{
				"x": -1.9941174393,
				"y": -1.5170132352,
				"z": -0.5840362405,
				"element": "C" 
			},
			{
				"x": -0.5410920686,
				"y": 2.0073167375,
				"z": -0.8300328059,
				"element": "C" 
			},
			{
				"x": -0.962663379,
				"y": 3.1226019225,
				"z": -1.1014853786,
				"element": "O" 
			},
			{
				"x": 3.5473601615,
				"y": 4.741124289,
				"z": -0.9814160715,
				"element": "H" 
			},
			{
				"x": 2.8012791461,
				"y": -0.850034079,
				"z": 0.6720872278,
				"element": "H" 
			},
			{
				"x": 4.5183685618,
				"y": 0.9849542211,
				"z": 0.762058291,
				"element": "H" 
			},
			{
				"x": -3.0788561945,
				"y": 2.0743405294,
				"z": -1.5847312591,
				"element": "H" 
			},
			{
				"x": -4.7129714581,
				"y": 0.1895706528,
				"z": -1.7066008581,
				"element": "H" 
			},
			{
				"x": -4.0072227147,
				"y": -2.1046182188,
				"z": -1.0602330467,
				"element": "H" 
			},
			{
				"x": -1.6575140006,
				"y": -2.5060782785,
				"z": -0.2927627497,
				"element": "H" 
			}
		],
		 "valence_orbital": [ 
			{
				"type": "occ",
				"energy": -0.28481,
				"method": "rhf"
			},
			{
				"type": "occ",
				"energy": -0.28229,
				"method": "rhf"
			},
			{
				"type": "occ",
				"energy": -0.28144,
				"method": "rhf"
			},
			{
				"type": "occ",
				"energy": -0.28028,
				"method": "rhf"
			},
			{
				"type": "occ",
				"energy": -0.269,
				"method": "rhf"
			},
			{
				"type": "unocc",
				"energy": -0.12251,
				"method": "rhf"
			},
			{
				"type": "unocc",
				"energy": -0.08421,
				"method": "rhf"
			},
			{
				"type": "unocc",
				"energy": -0.05382,
				"method": "rhf"
			},
			{
				"type": "unocc",
				"energy": -0.03541,
				"method": "rhf"
			},
			{
				"type": "unocc",
				"energy": -0.00182,
				"method": "rhf"
			}
		],
		"cosmo_sigma_profile": { 
			"-0.025": 0.0,
			"-0.024": 0.0,
			"-0.023": 0.0,
			"-0.022": 0.0,
			"-0.021": 0.0,
			"-0.02": 0.0,
			"-0.019": 0.0,
			"-0.018": 0.0,
			"-0.017": 0.0,
			"-0.016": 0.0,
			"-0.015": 0.0,
			"-0.014": 0.0142704696238,
			"-0.013": 0.517047080829,
			"-0.012": 1.29951616661,
			"-0.011": 1.42846433536,
			"-0.01": 1.02465196547,
			"-0.009": 1.2891836725,
			"-0.008": 3.70300383687,
			"-0.007": 12.4315819406,
			"-0.006": 17.2633591726,
			"-0.005": 16.9726006917,
			"-0.004": 18.4268576278,
			"-0.003": 21.0022716225,
			"-0.002": 24.601298408,
			"-0.001": 23.1301963511,
			"0.0": 22.8640054014,
			"0.001": 20.7100809014,
			"0.002": 18.4853195681,
			"0.003": 8.17441397436,
			"0.004": 6.36953171118,
			"0.005": 5.20168257083,
			"0.006": 5.84188785059,
			"0.007": 6.22292089452,
			"0.008": 6.62452864823,
			"0.009": 9.14043852541,
			"0.01": 11.0402709617,
			"0.011": 8.00900820317,
			"0.012": 2.13552706668,
			"0.013": 0.319901730828,
			"0.014": 0.0,
			"0.015": 0.0,
			"0.016": 0.0,
			"0.017": 0.0,
			"0.018": 0.0,
			"0.019": 0.0,
			"0.02": 0.0,
			"0.021": 0.0,
			"0.022": 0.0,
			"0.023": 0.0,
			"0.024": 0.0,
			"0.0": 0.0
		}
	}
}
