{
	 "smiles": "CC1=CC(C(O)=O)=C(NC(=O)C2=C(Cl)C=CC(Cl)=C2)C=C1", 
	 "Tm": 516.15, 
	 "num_atms": 32, 
	 "gaussian": { 
		 "optdone": 1, 
		 "sigma_profile": "yes", 
		 "theory": "DFT", 
		 "functional": "B3LYP", 
		 "basiset": "6-31G**", 
		 "properties": { 
			 "R2extent": 7416.2895, 
			 "electric_dipole_moment_norm": 5.92315090556, 
			 "electric_quadrupole_moment_norm": 17.2770919752, 
			 "total_energy": -1779.06074994, 
			 "HOMO_LUMO_gap": 0.18108, 
			 "cosmo_polarized_energy": -17.83, 
			 "cosmo_cavitation_energy": 40.14, 
			 "cosmo_dispersion_energy": -27.16, 
			 "cosmo_repulsion_energy": 2.1, 
			 "cosmo_total_nonelectrostatic_energy": 15.08, 
			 "SMD_solvation_energy": 7.95 
		},
		"coords": [
			{
				"x": -2.7088433582,
				"y": 2.6342161682,
				"z": 1.3994673474,
				"element": "C" 
			},
			{
				"x": -2.2305634955,
				"y": 1.5031372144,
				"z": 0.52101149,
				"element": "C" 
			},
			{
				"x": -1.088511733,
				"y": 1.6328350167,
				"z": -0.268810515,
				"element": "C" 
			},
			{
				"x": -0.6180200335,
				"y": 0.593784491,
				"z": -1.0915297515,
				"element": "C" 
			},
			{
				"x": 0.5184401596,
				"y": 0.8712366423,
				"z": -2.0157391397,
				"element": "C" 
			},
			{
				"x": 1.1114049896,
				"y": 2.0664276984,
				"z": -1.765597463,
				"element": "O" 
			},
			{
				"x": 0.8980293067,
				"y": 0.16128924,
				"z": -2.9270558652,
				"element": "O" 
			},
			{
				"x": -1.298524894,
				"y": -0.6456159442,
				"z": -1.0832317249,
				"element": "C" 
			},
			{
				"x": -0.9165594888,
				"y": -1.7722987366,
				"z": -1.86085336,
				"element": "N" 
			},
			{
				"x": 0.2685147403,
				"y": -2.4691966273,
				"z": -1.8825515145,
				"element": "C" 
			},
			{
				"x": 0.5052821087,
				"y": -3.2923724486,
				"z": -2.7514327703,
				"element": "O" 
			},
			{
				"x": 1.2669677878,
				"y": -2.226306953,
				"z": -0.7702425135,
				"element": "C" 
			},
			{
				"x": 1.0595833326,
				"y": -2.6052451299,
				"z": 0.5621740517,
				"element": "C" 
			},
			{
				"x": -0.4490377364,
				"y": -3.3494633993,
				"z": 1.0726734137,
				"element": "Cl" 
			},
			{
				"x": 2.0632222493,
				"y": -2.4513315142,
				"z": 1.5207319915,
				"element": "C" 
			},
			{
				"x": 3.2985884843,
				"y": -1.922521672,
				"z": 1.1583913201,
				"element": "C" 
			},
			{
				"x": 3.5195925492,
				"y": -1.5709284545,
				"z": -0.1734414279,
				"element": "C" 
			},
			{
				"x": 5.0807158353,
				"y": -0.9189573686,
				"z": -0.645821166,
				"element": "Cl" 
			},
			{
				"x": 2.5275602833,
				"y": -1.7321307273,
				"z": -1.1338009976,
				"element": "C" 
			},
			{
				"x": -2.4535568017,
				"y": -0.7707773573,
				"z": -0.3013251996,
				"element": "C" 
			},
			{
				"x": -2.9195279672,
				"y": 0.2831461298,
				"z": 0.4757651309,
				"element": "C" 
			},
			{
				"x": -3.7822845851,
				"y": 2.8106197091,
				"z": 1.273607041,
				"element": "H" 
			},
			{
				"x": -2.1840262141,
				"y": 3.5657164365,
				"z": 1.1721842045,
				"element": "H" 
			},
			{
				"x": -2.5409593947,
				"y": 2.4089826165,
				"z": 2.4594488544,
				"element": "H" 
			},
			{
				"x": -0.550890425,
				"y": 2.5737100924,
				"z": -0.2753910713,
				"element": "H" 
			},
			{
				"x": 1.8107631432,
				"y": 2.1529397286,
				"z": -2.434177592,
				"element": "H" 
			},
			{
				"x": -1.545685821,
				"y": -2.0638899443,
				"z": -2.5996973794,
				"element": "H" 
			},
			{
				"x": 1.8772802956,
				"y": -2.7557887535,
				"z": 2.5445543611,
				"element": "H" 
			},
			{
				"x": 4.0820572891,
				"y": -1.7964915143,
				"z": 1.8970435497,
				"element": "H" 
			},
			{
				"x": 2.7068673973,
				"y": -1.4633357027,
				"z": -2.1672548528,
				"element": "H" 
			},
			{
				"x": -2.9719828584,
				"y": -1.7238835337,
				"z": -0.3015840167,
				"element": "H" 
			},
			{
				"x": -3.8206951453,
				"y": 0.1499945976,
				"z": 1.0690855653,
				"element": "H" 
			}
		],
		 "valence_orbital": [ 
			{
				"type": "occ",
				"energy": -0.2766,
				"method": "rhf"
			},
			{
				"type": "occ",
				"energy": -0.27347,
				"method": "rhf"
			},
			{
				"type": "occ",
				"energy": -0.25191,
				"method": "rhf"
			},
			{
				"type": "occ",
				"energy": -0.24446,
				"method": "rhf"
			},
			{
				"type": "occ",
				"energy": -0.24309,
				"method": "rhf"
			},
			{
				"type": "unocc",
				"energy": -0.06201,
				"method": "rhf"
			},
			{
				"type": "unocc",
				"energy": -0.03734,
				"method": "rhf"
			},
			{
				"type": "unocc",
				"energy": -0.02448,
				"method": "rhf"
			},
			{
				"type": "unocc",
				"energy": -0.0177,
				"method": "rhf"
			},
			{
				"type": "unocc",
				"energy": 0.01409,
				"method": "rhf"
			}
		],
		"cosmo_sigma_profile": { 
			"-0.025": 0.0,
			"-0.024": 0.0,
			"-0.023": 0.0,
			"-0.022": 0.0,
			"-0.021": 0.0,
			"-0.02": 0.0,
			"-0.019": 0.0859896888231,
			"-0.018": 0.730244682387,
			"-0.017": 1.09993687774,
			"-0.016": 0.578794402319,
			"-0.015": 1.54788885838,
			"-0.014": 1.65645729746,
			"-0.013": 1.11265946103,
			"-0.012": 1.82675223357,
			"-0.011": 1.89359926586,
			"-0.01": 1.2021609862,
			"-0.009": 2.06057447303,
			"-0.008": 5.79772813567,
			"-0.007": 7.85155249961,
			"-0.006": 11.9141877676,
			"-0.005": 14.0765983001,
			"-0.004": 17.8280505046,
			"-0.003": 18.4337028246,
			"-0.002": 21.4626088062,
			"-0.001": 29.1370144,
			"0.0": 33.8292407012,
			"0.001": 35.7797668586,
			"0.002": 26.272612769,
			"0.003": 27.1715191254,
			"0.004": 21.8893960666,
			"0.005": 6.33208898242,
			"0.006": 4.56216105731,
			"0.007": 2.9822774448,
			"0.008": 3.17968155612,
			"0.009": 3.41794132764,
			"0.01": 3.69417351372,
			"0.011": 5.00482730125,
			"0.012": 5.79541936047,
			"0.013": 4.20846750648,
			"0.014": 0.511284425928,
			"0.015": 0.0,
			"0.016": 0.0,
			"0.017": 0.0,
			"0.018": 0.0,
			"0.019": 0.0,
			"0.02": 0.0,
			"0.021": 0.0,
			"0.022": 0.0,
			"0.023": 0.0,
			"0.024": 0.0,
			"0.025": 0.0
		}
	}
}
