{
	 "smiles": "CC(=O)C1=C(C)C=C(N)C=C1", 
	 "Tm": 357.15, 
	 "num_atms": 22, 
	 "gaussian": { 
		 "optdone": 1, 
		 "sigma_profile": "yes", 
		 "theory": "DFT", 
		 "functional": "B3LYP", 
		 "basiset": "6-31G**", 
		 "properties": { 
			 "R2extent": 2422.2902, 
			 "electric_dipole_moment_norm": 4.62249455814, 
			 "electric_quadrupole_moment_norm": 16.2484357552, 
			 "total_energy": -479.57772622, 
			 "HOMO_LUMO_gap": 0.17538, 
			 "cosmo_polarized_energy": -12.77, 
			 "cosmo_cavitation_energy": 25.06, 
			 "cosmo_dispersion_energy": -18.52, 
			 "cosmo_repulsion_energy": 1.48, 
			 "cosmo_total_nonelectrostatic_energy": 8.02, 
			 "SMD_solvation_energy": 4.91 
		},
		"coords": [
			{
				"x": 0.7137218981,
				"y": 0.9300854002,
				"z": 2.2232600702,
				"element": "C" 
			},
			{
				"x": 1.2082881164,
				"y": 0.5465864939,
				"z": 0.829387653,
				"element": "C" 
			},
			{
				"x": 2.0402221552,
				"y": 1.2643761767,
				"z": 0.2832765439,
				"element": "O" 
			},
			{
				"x": 0.6649024347,
				"y": -0.6787164685,
				"z": 0.1871038039,
				"element": "C" 
			},
			{
				"x": 1.0726403332,
				"y": -1.097781028,
				"z": -1.1123251179,
				"element": "C" 
			},
			{
				"x": 2.0809138415,
				"y": -0.3465294968,
				"z": -1.9486611763,
				"element": "C" 
			},
			{
				"x": 0.5196142407,
				"y": -2.2602817616,
				"z": -1.6461259549,
				"element": "C" 
			},
			{
				"x": -0.4262999794,
				"y": -3.0382473676,
				"z": -0.9548928778,
				"element": "C" 
			},
			{
				"x": -0.9857571881,
				"y": -4.1589865361,
				"z": -1.5452949666,
				"element": "N" 
			},
			{
				"x": -0.8250497818,
				"y": -2.6202486853,
				"z": 0.3265059093,
				"element": "C" 
			},
			{
				"x": -0.2833922424,
				"y": -1.4664336843,
				"z": 0.868521528,
				"element": "C" 
			},
			{
				"x": 0.9331145133,
				"y": 0.1478357712,
				"z": 2.9580148052,
				"element": "H" 
			},
			{
				"x": -0.3685066522,
				"y": 1.0987140283,
				"z": 2.2346646871,
				"element": "H" 
			},
			{
				"x": 1.2223125696,
				"y": 1.8488327413,
				"z": 2.516598098,
				"element": "H" 
			},
			{
				"x": 2.2317569401,
				"y": -0.8555591683,
				"z": -2.9054886824,
				"element": "H" 
			},
			{
				"x": 3.0418045693,
				"y": -0.2590819816,
				"z": -1.4352396199,
				"element": "H" 
			},
			{
				"x": 1.7575198479,
				"y": 0.6801224963,
				"z": -2.138153685,
				"element": "H" 
			},
			{
				"x": 0.8288564007,
				"y": -2.5779929132,
				"z": -2.6396398925,
				"element": "H" 
			},
			{
				"x": -0.4684261445,
				"y": -4.5762688698,
				"z": -2.3051308467,
				"element": "H" 
			},
			{
				"x": -1.4048674054,
				"y": -4.8362294164,
				"z": -0.925070432,
				"element": "H" 
			},
			{
				"x": -1.5572519369,
				"y": -3.198565504,
				"z": 0.8839328914,
				"element": "H" 
			},
			{
				"x": -0.6087165299,
				"y": -1.1696302264,
				"z": 1.8594572621,
				"element": "H" 
			}
		],
		 "valence_orbital": [ 
			{
				"type": "occ",
				"energy": -0.33661,
				"method": "rhf"
			},
			{
				"type": "occ",
				"energy": -0.30438,
				"method": "rhf"
			},
			{
				"type": "occ",
				"energy": -0.2452,
				"method": "rhf"
			},
			{
				"type": "occ",
				"energy": -0.22841,
				"method": "rhf"
			},
			{
				"type": "occ",
				"energy": -0.21001,
				"method": "rhf"
			},
			{
				"type": "unocc",
				"energy": -0.03463,
				"method": "rhf"
			},
			{
				"type": "unocc",
				"energy": 0.00147,
				"method": "rhf"
			},
			{
				"type": "unocc",
				"energy": 0.05517,
				"method": "rhf"
			},
			{
				"type": "unocc",
				"energy": 0.07489,
				"method": "rhf"
			},
			{
				"type": "unocc",
				"energy": 0.10038,
				"method": "rhf"
			}
		],
		"cosmo_sigma_profile": { 
			"-0.025": 0.0,
			"-0.024": 0.0,
			"-0.023": 0.0,
			"-0.022": 0.0,
			"-0.021": 0.0,
			"-0.02": 0.0,
			"-0.019": 0.0,
			"-0.018": 0.0,
			"-0.017": 0.0,
			"-0.016": 0.0,
			"-0.015": 0.0,
			"-0.014": 0.012235947189,
			"-0.013": 1.96718523078,
			"-0.012": 2.88377019935,
			"-0.011": 2.86841626449,
			"-0.01": 3.0395497451,
			"-0.009": 2.86191055059,
			"-0.008": 3.41321591015,
			"-0.007": 2.78391429423,
			"-0.006": 6.29804956896,
			"-0.005": 13.1284873413,
			"-0.004": 12.3153314318,
			"-0.003": 13.8372560999,
			"-0.002": 13.501528078,
			"-0.001": 15.8596567704,
			"0.0": 15.9316679665,
			"0.001": 14.96236954,
			"0.002": 10.6079730312,
			"0.003": 10.4036538324,
			"0.004": 10.7709568865,
			"0.005": 14.1226393261,
			"0.006": 6.0299978423,
			"0.007": 2.44973468566,
			"0.008": 2.28544989247,
			"0.009": 2.57814562332,
			"0.01": 2.43749994797,
			"0.011": 2.40842662161,
			"0.012": 2.81942605691,
			"0.013": 2.99438549035,
			"0.014": 1.81347436058,
			"0.015": 0.326611976973,
			"0.016": 0.0,
			"0.017": 0.0,
			"0.018": 0.0,
			"0.019": 0.0,
			"0.02": 0.0,
			"0.021": 0.0,
			"0.022": 0.0,
			"0.023": 0.0,
			"0.024": 0.0,
			"0.025": 0.0
		}
	}
}
