{
	 "smiles": "S=C(NCCC1=CC=CC=C1)NC1=CC=CC=C1", 
	 "Tm": 408.15, 
	 "num_atms": 34, 
	 "gaussian": { 
		 "optdone": 1, 
		 "sigma_profile": "yes", 
		 "theory": "DFT", 
		 "functional": "B3LYP", 
		 "basiset": "6-31G**", 
		 "properties": { 
			 "R2extent": 6030.6223, 
			 "electric_dipole_moment_norm": 5.34851630548, 
			 "electric_quadrupole_moment_norm": 20.9587036839, 
			 "total_energy": -1088.9537903, 
			 "HOMO_LUMO_gap": 0.17241, 
			 "cosmo_polarized_energy": -16.16, 
			 "cosmo_cavitation_energy": 39.29, 
			 "cosmo_dispersion_energy": -26.74, 
			 "cosmo_repulsion_energy": 2.04, 
			 "cosmo_total_nonelectrostatic_energy": 14.59, 
			 "SMD_solvation_energy": 4.82 
		},
		"coords": [
			{
				"x": -1.8731444043,
				"y": -3.6271597499,
				"z": 1.2906014506,
				"element": "S" 
			},
			{
				"x": -0.8456017104,
				"y": -2.5319211441,
				"z": 0.5265030076,
				"element": "C" 
			},
			{
				"x": -1.2512144049,
				"y": -1.6260233191,
				"z": -0.3966276304,
				"element": "N" 
			},
			{
				"x": -2.650348119,
				"y": -1.428863496,
				"z": -0.7573917398,
				"element": "C" 
			},
			{
				"x": -2.7725842093,
				"y": -0.5647679416,
				"z": -2.0240387837,
				"element": "C" 
			},
			{
				"x": -2.2047530761,
				"y": 0.8326935576,
				"z": -1.8705288532,
				"element": "C" 
			},
			{
				"x": -0.9778978289,
				"y": 1.183519022,
				"z": -2.4502872048,
				"element": "C" 
			},
			{
				"x": -0.4419747663,
				"y": 2.4630676286,
				"z": -2.2808518369,
				"element": "C" 
			},
			{
				"x": -1.1298110769,
				"y": 3.4146719766,
				"z": -1.5287980621,
				"element": "C" 
			},
			{
				"x": -2.3562009652,
				"y": 3.0797896331,
				"z": -0.9481904532,
				"element": "C" 
			},
			{
				"x": -2.886181087,
				"y": 1.8017111771,
				"z": -1.1176090143,
				"element": "C" 
			},
			{
				"x": 0.4932991807,
				"y": -2.5261462744,
				"z": 0.8489915626,
				"element": "N" 
			},
			{
				"x": 1.5750955539,
				"y": -1.8162440635,
				"z": 0.2783907787,
				"element": "C" 
			},
			{
				"x": 2.5863179249,
				"y": -1.3463694419,
				"z": 1.1314331576,
				"element": "C" 
			},
			{
				"x": 3.700150191,
				"y": -0.6932094829,
				"z": 0.609527916,
				"element": "C" 
			},
			{
				"x": 3.8164510309,
				"y": -0.4828547249,
				"z": -0.7665317137,
				"element": "C" 
			},
			{
				"x": 2.8144808924,
				"y": -0.9521832437,
				"z": -1.6167215618,
				"element": "C" 
			},
			{
				"x": 1.7043371562,
				"y": -1.6265138361,
				"z": -1.1071264476,
				"element": "C" 
			},
			{
				"x": -0.6266163205,
				"y": -0.8541267712,
				"z": -0.60197921,
				"element": "H" 
			},
			{
				"x": -3.0988138681,
				"y": -2.4114594811,
				"z": -0.920036149,
				"element": "H" 
			},
			{
				"x": -3.1971165886,
				"y": -0.9654237281,
				"z": 0.0752657945,
				"element": "H" 
			},
			{
				"x": -2.2796514095,
				"y": -1.0784877038,
				"z": -2.8570865843,
				"element": "H" 
			},
			{
				"x": -3.8384347886,
				"y": -0.5067829793,
				"z": -2.2734159219,
				"element": "H" 
			},
			{
				"x": -0.441646984,
				"y": 0.4512434393,
				"z": -3.0495143897,
				"element": "H" 
			},
			{
				"x": 0.5100064544,
				"y": 2.7140087578,
				"z": -2.7399451754,
				"element": "H" 
			},
			{
				"x": -0.7174775177,
				"y": 4.4108504489,
				"z": -1.3978272136,
				"element": "H" 
			},
			{
				"x": -2.9014495185,
				"y": 3.8169852128,
				"z": -0.3655757698,
				"element": "H" 
			},
			{
				"x": -3.8431297338,
				"y": 1.5518428316,
				"z": -0.6653309565,
				"element": "H" 
			},
			{
				"x": 0.6971181158,
				"y": -3.1188219912,
				"z": 1.6417307806,
				"element": "H" 
			},
			{
				"x": 2.4872417226,
				"y": -1.4924810302,
				"z": 2.2035193245,
				"element": "H" 
			},
			{
				"x": 4.4746592639,
				"y": -0.3380877051,
				"z": 1.2830758522,
				"element": "H" 
			},
			{
				"x": 4.6811467998,
				"y": 0.0341020911,
				"z": -1.1708148728,
				"element": "H" 
			},
			{
				"x": 2.9037458169,
				"y": -0.8143586593,
				"z": -2.6905695807,
				"element": "H" 
			},
			{
				"x": 0.9555982743,
				"y": -2.0308990088,
				"z": -1.7789404998,
				"element": "H" 
			}
		],
		 "valence_orbital": [ 
			{
				"type": "occ",
				"energy": -0.25824,
				"method": "rhf"
			},
			{
				"type": "occ",
				"energy": -0.25298,
				"method": "rhf"
			},
			{
				"type": "occ",
				"energy": -0.23568,
				"method": "rhf"
			},
			{
				"type": "occ",
				"energy": -0.20692,
				"method": "rhf"
			},
			{
				"type": "occ",
				"energy": -0.19926,
				"method": "rhf"
			},
			{
				"type": "unocc",
				"energy": -0.02685,
				"method": "rhf"
			},
			{
				"type": "unocc",
				"energy": -0.01828,
				"method": "rhf"
			},
			{
				"type": "unocc",
				"energy": -0.01168,
				"method": "rhf"
			},
			{
				"type": "unocc",
				"energy": -0.0085,
				"method": "rhf"
			},
			{
				"type": "unocc",
				"energy": 0.0216,
				"method": "rhf"
			}
		],
		"cosmo_sigma_profile": { 
			"-0.025": 0.0,
			"-0.024": 0.0,
			"-0.023": 0.0,
			"-0.022": 0.0,
			"-0.021": 0.0,
			"-0.02": 0.0,
			"-0.019": 0.0,
			"-0.018": 0.0,
			"-0.017": 0.0,
			"-0.016": 0.0,
			"-0.015": 0.0,
			"-0.014": 0.622195447199,
			"-0.013": 0.999106180112,
			"-0.012": 0.884867945659,
			"-0.011": 0.736915060308,
			"-0.01": 1.57969747893,
			"-0.009": 1.27430260077,
			"-0.008": 1.50761959869,
			"-0.007": 3.70054874014,
			"-0.006": 14.0849950674,
			"-0.005": 30.0385851708,
			"-0.004": 35.9850817261,
			"-0.003": 29.756724295,
			"-0.002": 22.1739156732,
			"-0.001": 20.4035112963,
			"0.0": 18.2745916634,
			"0.001": 18.1870742913,
			"0.002": 18.2717613602,
			"0.003": 16.9300193462,
			"0.004": 21.2797740296,
			"0.005": 18.2744987629,
			"0.006": 10.4807174116,
			"0.007": 3.84070257388,
			"0.008": 3.6047346492,
			"0.009": 4.30369768175,
			"0.01": 5.4546899972,
			"0.011": 8.30754377071,
			"0.012": 4.09268510816,
			"0.013": 0.39795504021,
			"0.014": 0.0,
			"0.015": 0.0,
			"0.016": 0.0,
			"0.017": 0.0,
			"0.018": 0.0,
			"0.019": 0.0,
			"0.02": 0.0,
			"0.021": 0.0,
			"0.022": 0.0,
			"0.023": 0.0,
			"0.024": 0.0,
			"0.025": 0.0
		}
	}
}
