{
	 "smiles": "IC1=NNC2=C1SC=C2", 
	 "Tm": 448.15, 
	 "num_atms": 12, 
	 "gaussian": { 
		 "optdone": 1, 
		 "sigma_profile": "yes", 
		 "theory": "DFT", 
		 "functional": "B3LYP", 
		 "basiset": "6-31G**", 
		 "properties": { 
			 "R2extent": 1754.8633, 
			 "electric_dipole_moment_norm": 3.81090016269, 
			 "electric_quadrupole_moment_norm": 8.75088031629, 
			 "total_energy": -711.367974186, 
			 "HOMO_LUMO_gap": 0.19376, 
			 "cosmo_polarized_energy": -10.51, 
			 "cosmo_cavitation_energy": 21.33, 
			 "cosmo_dispersion_energy": -18.19, 
			 "cosmo_repulsion_energy": 1.41, 
			 "cosmo_total_nonelectrostatic_energy": 4.55, 
			 "SMD_solvation_energy": 1.49 
		},
		"coords": [
			{
				"x": 3.2242397668,
				"y": -1.4449047097,
				"z": -0.6529598272,
				"element": "I" 
			},
			{
				"x": 1.7783516372,
				"y": -0.1614118699,
				"z": 0.1311189904,
				"element": "C" 
			},
			{
				"x": 1.3857938566,
				"y": -0.262598605,
				"z": 1.3967382651,
				"element": "N" 
			},
			{
				"x": 0.4519720722,
				"y": 0.7117027436,
				"z": 1.5624721734,
				"element": "N" 
			},
			{
				"x": 0.244477476,
				"y": 1.4303620246,
				"z": 0.4233430974,
				"element": "C" 
			},
			{
				"x": 1.099737257,
				"y": 0.8826358986,
				"z": -0.5353648577,
				"element": "C" 
			},
			{
				"x": 0.9438117397,
				"y": 1.7075435375,
				"z": -2.0585262576,
				"element": "S" 
			},
			{
				"x": -0.2702729079,
				"y": 2.7685552113,
				"z": -1.361483816,
				"element": "C" 
			},
			{
				"x": -0.5501745958,
				"y": 2.5206162086,
				"z": -0.0472710423,
				"element": "C" 
			},
			{
				"x": 0.0187256117,
				"y": 0.8104179705,
				"z": 2.466651656,
				"element": "H" 
			},
			{
				"x": -0.7122218817,
				"y": 3.5310820835,
				"z": -1.988912038,
				"element": "H" 
			},
			{
				"x": -1.2721400318,
				"y": 3.0802995063,
				"z": 0.5341936566,
				"element": "H" 
			}
		],
		 "valence_orbital": [ 
			{
				"type": "occ",
				"energy": -0.30512,
				"method": "rhf"
			},
			{
				"type": "occ",
				"energy": -0.26934,
				"method": "rhf"
			},
			{
				"type": "occ",
				"energy": -0.26607,
				"method": "rhf"
			},
			{
				"type": "occ",
				"energy": -0.24141,
				"method": "rhf"
			},
			{
				"type": "occ",
				"energy": -0.22873,
				"method": "rhf"
			},
			{
				"type": "unocc",
				"energy": -0.03497,
				"method": "rhf"
			},
			{
				"type": "unocc",
				"energy": -0.03196,
				"method": "rhf"
			},
			{
				"type": "unocc",
				"energy": 0.01968,
				"method": "rhf"
			},
			{
				"type": "unocc",
				"energy": 0.03327,
				"method": "rhf"
			},
			{
				"type": "unocc",
				"energy": 0.05172,
				"method": "rhf"
			}
		],
		"cosmo_sigma_profile": { 
			"-0.025": 0.0,
			"-0.024": 0.0,
			"-0.023": 0.0,
			"-0.022": 0.0,
			"-0.021": 0.0,
			"-0.02": 0.0,
			"-0.019": 0.0,
			"-0.018": 0.0603084666276,
			"-0.017": 1.35429004495,
			"-0.016": 1.91109392452,
			"-0.015": 1.19793220224,
			"-0.014": 1.12549650604,
			"-0.013": 0.850378042917,
			"-0.012": 0.45543094349,
			"-0.011": 1.71940341829,
			"-0.01": 1.00157991236,
			"-0.009": 2.78471749118,
			"-0.008": 6.14220185292,
			"-0.007": 6.21356049072,
			"-0.006": 6.07021360352,
			"-0.005": 5.52165943279,
			"-0.004": 5.77997694128,
			"-0.003": 5.87264271874,
			"-0.002": 7.67977544153,
			"-0.001": 9.211234644,
			"0.0": 9.85267291508,
			"0.001": 14.1059425923,
			"0.002": 24.8303896296,
			"0.003": 25.6205402479,
			"0.004": 22.5964663888,
			"0.005": 6.03105422768,
			"0.006": 1.72112569524,
			"0.007": 1.95830106539,
			"0.008": 1.23388391099,
			"0.009": 0.91487159841,
			"0.01": 1.6583883392,
			"0.011": 1.01741784219,
			"0.012": 0.732965554438,
			"0.013": 1.36766671902,
			"0.014": 0.755910146763,
			"0.015": 0.567486532835,
			"0.016": 0.0,
			"0.017": 0.0,
			"0.018": 0.0,
			"0.019": 0.0,
			"0.02": 0.0,
			"0.021": 0.0,
			"0.022": 0.0,
			"0.023": 0.0,
			"0.024": 0.0,
			"0.025": 0.0
		}
	}
}
