{
	 "smiles": "CN1C(C=O)=NC2=C1C=CC=C2", 
	 "Tm": 393.15, 
	 "num_atms": 20, 
	 "gaussian": { 
		 "optdone": 1, 
		 "sigma_profile": "yes", 
		 "theory": "DFT", 
		 "functional": "B3LYP", 
		 "basiset": "6-31G**", 
		 "properties": { 
			 "R2extent": 2356.8576, 
			 "electric_dipole_moment_norm": 3.09064578042, 
			 "electric_quadrupole_moment_norm": 8.23921065394, 
			 "total_energy": -532.505630407, 
			 "HOMO_LUMO_gap": 0.15973, 
			 "cosmo_polarized_energy": -9.71, 
			 "cosmo_cavitation_energy": 24.21, 
			 "cosmo_dispersion_energy": -17.92, 
			 "cosmo_repulsion_energy": 1.39, 
			 "cosmo_total_nonelectrostatic_energy": 7.68, 
			 "SMD_solvation_energy": 3.18 
		},
		"coords": [
			{
				"x": 2.7527126321,
				"y": 1.4140189902,
				"z": 0.482209111,
				"element": "C" 
			},
			{
				"x": 1.8621141088,
				"y": 0.288362762,
				"z": 0.2205401973,
				"element": "N" 
			},
			{
				"x": 2.1162406164,
				"y": -1.0541865717,
				"z": 0.4468318756,
				"element": "C" 
			},
			{
				"x": 3.366019636,
				"y": -1.5781791133,
				"z": 1.0055915784,
				"element": "C" 
			},
			{
				"x": 4.3226583519,
				"y": -0.8960388296,
				"z": 1.3348277117,
				"element": "O" 
			},
			{
				"x": 1.1117845491,
				"y": -1.8465446561,
				"z": 0.108351952,
				"element": "N" 
			},
			{
				"x": 0.1402793048,
				"y": -1.0009989433,
				"z": -0.3659824864,
				"element": "C" 
			},
			{
				"x": 0.588858368,
				"y": 0.3472331282,
				"z": -0.3054921587,
				"element": "C" 
			},
			{
				"x": -0.2127958215,
				"y": 1.4155363633,
				"z": -0.7308189,
				"element": "C" 
			},
			{
				"x": -1.4734393573,
				"y": 1.0965281518,
				"z": -1.2173024286,
				"element": "C" 
			},
			{
				"x": -1.9341369394,
				"y": -0.2402404205,
				"z": -1.2837478735,
				"element": "C" 
			},
			{
				"x": -1.1418495418,
				"y": -1.2959314608,
				"z": -0.8634096275,
				"element": "C" 
			},
			{
				"x": 3.0108244217,
				"y": 1.4621856504,
				"z": 1.5415686959,
				"element": "H" 
			},
			{
				"x": 2.2431109143,
				"y": 2.3327806206,
				"z": 0.1905277733,
				"element": "H" 
			},
			{
				"x": 3.6772123856,
				"y": 1.3140701682,
				"z": -0.089191924,
				"element": "H" 
			},
			{
				"x": 3.3568774052,
				"y": -2.6808172308,
				"z": 1.1024817832,
				"element": "H" 
			},
			{
				"x": 0.1246651099,
				"y": 2.4460651214,
				"z": -0.686855707,
				"element": "H" 
			},
			{
				"x": -2.1259387212,
				"y": 1.8953969223,
				"z": -1.5570465298,
				"element": "H" 
			},
			{
				"x": -2.9289814953,
				"y": -0.4341394045,
				"z": -1.6729081694,
				"element": "H" 
			},
			{
				"x": -1.4830159273,
				"y": -2.3249012478,
				"z": -0.9090748736,
				"element": "H" 
			}
		],
		 "valence_orbital": [ 
			{
				"type": "occ",
				"energy": -0.30967,
				"method": "rhf"
			},
			{
				"type": "occ",
				"energy": -0.28665,
				"method": "rhf"
			},
			{
				"type": "occ",
				"energy": -0.26487,
				"method": "rhf"
			},
			{
				"type": "occ",
				"energy": -0.23891,
				"method": "rhf"
			},
			{
				"type": "occ",
				"energy": -0.23414,
				"method": "rhf"
			},
			{
				"type": "unocc",
				"energy": -0.07441,
				"method": "rhf"
			},
			{
				"type": "unocc",
				"energy": 0.00181,
				"method": "rhf"
			},
			{
				"type": "unocc",
				"energy": 0.01541,
				"method": "rhf"
			},
			{
				"type": "unocc",
				"energy": 0.07666,
				"method": "rhf"
			},
			{
				"type": "unocc",
				"energy": 0.08334,
				"method": "rhf"
			}
		],
		"cosmo_sigma_profile": { 
			"-0.025": 0.0,
			"-0.024": 0.0,
			"-0.023": 0.0,
			"-0.022": 0.0,
			"-0.021": 0.0,
			"-0.02": 0.0,
			"-0.019": 0.0,
			"-0.018": 0.0,
			"-0.017": 0.0,
			"-0.016": 0.0,
			"-0.015": 0.0,
			"-0.014": 0.0,
			"-0.013": 0.0,
			"-0.012": 0.0,
			"-0.011": 0.0,
			"-0.01": 0.0,
			"-0.009": 0.655722642395,
			"-0.008": 2.89517076421,
			"-0.007": 5.84644772661,
			"-0.006": 14.0699032443,
			"-0.005": 16.5519212627,
			"-0.004": 20.6908657717,
			"-0.003": 19.0245253318,
			"-0.002": 13.2231020923,
			"-0.001": 11.2628984854,
			"0.0": 8.67816106331,
			"0.001": 10.3671374082,
			"0.002": 10.765183802,
			"0.003": 12.9052462959,
			"0.004": 13.1835128567,
			"0.005": 9.78373714862,
			"0.006": 2.22688915585,
			"0.007": 2.95144385223,
			"0.008": 3.47581840354,
			"0.009": 3.08251553411,
			"0.01": 3.30416554114,
			"0.011": 3.87172995831,
			"0.012": 2.29901840007,
			"0.013": 1.11004303478,
			"0.014": 0.874711464575,
			"0.015": 0.827321999651,
			"0.016": 0.563159649937,
			"0.017": 0.0185671926897,
			"0.018": 0.0,
			"0.019": 0.0,
			"0.02": 0.0,
			"0.021": 0.0,
			"0.022": 0.0,
			"0.023": 0.0,
			"0.024": 0.0,
			"0.025": 0.0
		}
	}
}
