{
	 "smiles": "COC1=CC(CO)=C(C=C1OC)[N+]([O-])=O", 
	 "Tm": 419.15, 
	 "num_atms": 26, 
	 "gaussian": { 
		 "optdone": 1, 
		 "sigma_profile": "yes", 
		 "theory": "DFT", 
		 "functional": "B3LYP", 
		 "basiset": "6-31G**", 
		 "properties": { 
			 "R2extent": 3683.1797, 
			 "electric_dipole_moment_norm": 5.62608639287, 
			 "electric_quadrupole_moment_norm": 12.6792796775, 
			 "total_energy": -780.314763296, 
			 "HOMO_LUMO_gap": 0.15698, 
			 "cosmo_polarized_energy": -13.96, 
			 "cosmo_cavitation_energy": 30.15, 
			 "cosmo_dispersion_energy": -21.99, 
			 "cosmo_repulsion_energy": 1.74, 
			 "cosmo_total_nonelectrostatic_energy": 9.9, 
			 "SMD_solvation_energy": 8.94 
		},
		"coords": [
			{
				"x": -2.2813195703,
				"y": -1.457168939,
				"z": 2.6367872971,
				"element": "C" 
			},
			{
				"x": -1.4507160705,
				"y": -0.3367786477,
				"z": 2.3460899989,
				"element": "O" 
			},
			{
				"x": -0.616440506,
				"y": -0.4061323933,
				"z": 1.2804009223,
				"element": "C" 
			},
			{
				"x": -0.4910403642,
				"y": -1.5241753561,
				"z": 0.4518392518,
				"element": "C" 
			},
			{
				"x": 0.3665599331,
				"y": -1.5403682497,
				"z": -0.6537895362,
				"element": "C" 
			},
			{
				"x": 0.4274977629,
				"y": -2.7987701439,
				"z": -1.4970640102,
				"element": "C" 
			},
			{
				"x": -0.4548452674,
				"y": -3.7686967924,
				"z": -0.9455868215,
				"element": "O" 
			},
			{
				"x": 1.1108123841,
				"y": -0.3718984168,
				"z": -0.9022080695,
				"element": "C" 
			},
			{
				"x": 1.0059775762,
				"y": 0.7522752436,
				"z": -0.0723230486,
				"element": "C" 
			},
			{
				"x": 0.1534758227,
				"y": 0.7537342802,
				"z": 1.016328261,
				"element": "C" 
			},
			{
				"x": 0.0226274983,
				"y": 1.8943690688,
				"z": 1.7617459338,
				"element": "O" 
			},
			{
				"x": 0.5062225822,
				"y": 1.8260124845,
				"z": 3.1074417688,
				"element": "C" 
			},
			{
				"x": 2.0354352041,
				"y": -0.2666012415,
				"z": -2.0263716114,
				"element": "N" 
			},
			{
				"x": 2.6559088391,
				"y": 0.7874098508,
				"z": -2.1760913472,
				"element": "O" 
			},
			{
				"x": 2.1548718712,
				"y": -1.2428215617,
				"z": -2.7778472782,
				"element": "O" 
			},
			{
				"x": -2.9511122722,
				"y": -1.68366678,
				"z": 1.7994712886,
				"element": "H" 
			},
			{
				"x": -1.6864178067,
				"y": -2.3463301208,
				"z": 2.8761111858,
				"element": "H" 
			},
			{
				"x": -2.8718192311,
				"y": -1.1694173303,
				"z": 3.5071545081,
				"element": "H" 
			},
			{
				"x": -1.0691215603,
				"y": -2.4172375664,
				"z": 0.6399746742,
				"element": "H" 
			},
			{
				"x": 1.4616327087,
				"y": -3.1663736758,
				"z": -1.5273495251,
				"element": "H" 
			},
			{
				"x": 0.1604619493,
				"y": -2.5543937971,
				"z": -2.5335993149,
				"element": "H" 
			},
			{
				"x": -0.4035985822,
				"y": -4.553623159,
				"z": -1.5028160871,
				"element": "H" 
			},
			{
				"x": 1.5916327957,
				"y": 1.6344107761,
				"z": -0.2941913626,
				"element": "H" 
			},
			{
				"x": -0.050807335,
				"y": 1.0931427225,
				"z": 3.6981496454,
				"element": "H" 
			},
			{
				"x": 1.575180811,
				"y": 1.5783930703,
				"z": 3.1252270283,
				"element": "H" 
			},
			{
				"x": 0.3609408274,
				"y": 2.8218066745,
				"z": 3.5301162483,
				"element": "H" 
			}
		],
		 "valence_orbital": [ 
			{
				"type": "occ",
				"energy": -0.28682,
				"method": "rhf"
			},
			{
				"type": "occ",
				"energy": -0.28079,
				"method": "rhf"
			},
			{
				"type": "occ",
				"energy": -0.27705,
				"method": "rhf"
			},
			{
				"type": "occ",
				"energy": -0.25771,
				"method": "rhf"
			},
			{
				"type": "occ",
				"energy": -0.23361,
				"method": "rhf"
			},
			{
				"type": "unocc",
				"energy": -0.07663,
				"method": "rhf"
			},
			{
				"type": "unocc",
				"energy": -0.01224,
				"method": "rhf"
			},
			{
				"type": "unocc",
				"energy": 0.01542,
				"method": "rhf"
			},
			{
				"type": "unocc",
				"energy": 0.06656,
				"method": "rhf"
			},
			{
				"type": "unocc",
				"energy": 0.08303,
				"method": "rhf"
			}
		],
		"cosmo_sigma_profile": { 
			"-0.025": 0.0,
			"-0.024": 0.0,
			"-0.023": 0.0,
			"-0.022": 0.0,
			"-0.021": 0.0,
			"-0.02": 0.0,
			"-0.019": 0.0,
			"-0.018": 0.0,
			"-0.017": 0.28274198031,
			"-0.016": 1.07214593936,
			"-0.015": 0.997587457787,
			"-0.014": 0.893932280231,
			"-0.013": 1.11514968003,
			"-0.012": 0.57721853604,
			"-0.011": 0.529627888819,
			"-0.01": 1.27961516405,
			"-0.009": 1.10607230919,
			"-0.008": 0.816852394429,
			"-0.007": 3.36106868282,
			"-0.006": 13.6366875991,
			"-0.005": 19.1754248515,
			"-0.004": 23.8153925447,
			"-0.003": 22.9886867302,
			"-0.002": 17.2456985749,
			"-0.001": 15.6443720181,
			"0.0": 16.9028516666,
			"0.001": 17.5950179694,
			"0.002": 11.5357079015,
			"0.003": 7.84386646236,
			"0.004": 7.27417083789,
			"0.005": 5.86602472597,
			"0.006": 6.92752567277,
			"0.007": 7.95344134977,
			"0.008": 10.3756618628,
			"0.009": 9.02724314797,
			"0.01": 7.97783826677,
			"0.011": 4.4051477906,
			"0.012": 0.721144512955,
			"0.013": 0.0,
			"0.014": 0.0,
			"0.015": 0.0,
			"0.016": 0.0,
			"0.017": 0.0,
			"0.018": 0.0,
			"0.019": 0.0,
			"0.02": 0.0,
			"0.021": 0.0,
			"0.022": 0.0,
			"0.023": 0.0,
			"0.024": 0.0,
			"0.025": 0.0
		}
	}
}
