{
	 "smiles": "COC(=O)C(=O)CC(=O)C1=C(OC)C=CC(OC)=C1", 
	 "Tm": 360.65, 
	 "num_atms": 33, 
	 "gaussian": { 
		 "optdone": 1, 
		 "sigma_profile": "yes", 
		 "theory": "DFT", 
		 "functional": "B3LYP", 
		 "basiset": "6-31G**", 
		 "properties": { 
			 "R2extent": 7713.0416, 
			 "electric_dipole_moment_norm": 7.43744639174, 
			 "electric_quadrupole_moment_norm": 32.5633756539, 
			 "total_energy": -955.11400462, 
			 "HOMO_LUMO_gap": 0.16248, 
			 "cosmo_polarized_energy": -19.05, 
			 "cosmo_cavitation_energy": 38.64, 
			 "cosmo_dispersion_energy": -26.23, 
			 "cosmo_repulsion_energy": 2.06, 
			 "cosmo_total_nonelectrostatic_energy": 14.47, 
			 "SMD_solvation_energy": 10.73 
		},
		"coords": [
			{
				"x": 4.4812587177,
				"y": 1.7052325663,
				"z": -1.6414618761,
				"element": "C" 
			},
			{
				"x": 3.4948935388,
				"y": 2.0569628447,
				"z": -0.6534031945,
				"element": "O" 
			},
			{
				"x": 3.4757175276,
				"y": 3.3567812499,
				"z": -0.2968696968,
				"element": "C" 
			},
			{
				"x": 4.2369537088,
				"y": 4.1997477731,
				"z": -0.7008025503,
				"element": "O" 
			},
			{
				"x": 2.3616555522,
				"y": 3.6271754911,
				"z": 0.7392859691,
				"element": "C" 
			},
			{
				"x": 2.4140113305,
				"y": 4.6347516666,
				"z": 1.4039747056,
				"element": "O" 
			},
			{
				"x": 1.2559033177,
				"y": 2.5922021369,
				"z": 0.8833713089,
				"element": "C" 
			},
			{
				"x": 0.4752531151,
				"y": 2.4499766864,
				"z": -0.428473166,
				"element": "C" 
			},
			{
				"x": 0.6852425983,
				"y": 3.2475334541,
				"z": -1.3296833381,
				"element": "O" 
			},
			{
				"x": -0.5187158732,
				"y": 1.3403699376,
				"z": -0.5407842442,
				"element": "C" 
			},
			{
				"x": -0.8907192155,
				"y": 0.7992230054,
				"z": -1.7976814903,
				"element": "C" 
			},
			{
				"x": -0.3016713176,
				"y": 1.1930015422,
				"z": -2.9706352091,
				"element": "O" 
			},
			{
				"x": -0.9622973784,
				"y": 2.2526639247,
				"z": -3.6713832206,
				"element": "C" 
			},
			{
				"x": -1.81478309,
				"y": -0.2446404828,
				"z": -1.8392196766,
				"element": "C" 
			},
			{
				"x": -2.3957620609,
				"y": -0.7591395932,
				"z": -0.6793268099,
				"element": "C" 
			},
			{
				"x": -2.0341994843,
				"y": -0.2283993274,
				"z": 0.5640412983,
				"element": "C" 
			},
			{
				"x": -2.5280903279,
				"y": -0.6439890572,
				"z": 1.7661576391,
				"element": "O" 
			},
			{
				"x": -3.4876785411,
				"y": -1.6899433039,
				"z": 1.7710320638,
				"element": "C" 
			},
			{
				"x": -1.0902609345,
				"y": 0.8019005249,
				"z": 0.6192440085,
				"element": "C" 
			},
			{
				"x": 4.2930896136,
				"y": 2.2499771658,
				"z": -2.5694383063,
				"element": "H" 
			},
			{
				"x": 4.3740181723,
				"y": 0.632436178,
				"z": -1.7972240744,
				"element": "H" 
			},
			{
				"x": 5.4838004393,
				"y": 1.947786512,
				"z": -1.2811111521,
				"element": "H" 
			},
			{
				"x": 0.5941828862,
				"y": 2.9323536398,
				"z": 1.6864779633,
				"element": "H" 
			},
			{
				"x": 1.6778208974,
				"y": 1.6240980954,
				"z": 1.1750296897,
				"element": "H" 
			},
			{
				"x": -2.0008447887,
				"y": 1.9818737292,
				"z": -3.9028635007,
				"element": "H" 
			},
			{
				"x": -0.4096233744,
				"y": 2.3900309814,
				"z": -4.6027770955,
				"element": "H" 
			},
			{
				"x": -0.9320697296,
				"y": 3.178081636,
				"z": -3.090656075,
				"element": "H" 
			},
			{
				"x": -2.0647188191,
				"y": -0.6652856336,
				"z": -2.8081878146,
				"element": "H" 
			},
			{
				"x": -3.1129071743,
				"y": -1.567710337,
				"z": -0.7571416078,
				"element": "H" 
			},
			{
				"x": -3.7460963267,
				"y": -1.8562263461,
				"z": 2.8176722825,
				"element": "H" 
			},
			{
				"x": -4.3929299859,
				"y": -1.4114813235,
				"z": 1.2161978718,
				"element": "H" 
			},
			{
				"x": -3.0786630159,
				"y": -2.6172016462,
				"z": 1.3492956023,
				"element": "H" 
			},
			{
				"x": -0.8291699775,
				"y": 1.1837563094,
				"z": 1.5996436959,
				"element": "H" 
			}
		],
		 "valence_orbital": [ 
			{
				"type": "occ",
				"energy": -0.2756,
				"method": "rhf"
			},
			{
				"type": "occ",
				"energy": -0.27209,
				"method": "rhf"
			},
			{
				"type": "occ",
				"energy": -0.26196,
				"method": "rhf"
			},
			{
				"type": "occ",
				"energy": -0.25119,
				"method": "rhf"
			},
			{
				"type": "occ",
				"energy": -0.22769,
				"method": "rhf"
			},
			{
				"type": "unocc",
				"energy": -0.06521,
				"method": "rhf"
			},
			{
				"type": "unocc",
				"energy": -0.0627,
				"method": "rhf"
			},
			{
				"type": "unocc",
				"energy": -0.00781,
				"method": "rhf"
			},
			{
				"type": "unocc",
				"energy": 0.02747,
				"method": "rhf"
			},
			{
				"type": "unocc",
				"energy": 0.058,
				"method": "rhf"
			}
		],
		"cosmo_sigma_profile": { 
			"-0.025": 0.0,
			"-0.024": 0.0,
			"-0.023": 0.0,
			"-0.022": 0.0,
			"-0.021": 0.0,
			"-0.02": 0.0,
			"-0.019": 0.0,
			"-0.018": 0.0,
			"-0.017": 0.0,
			"-0.016": 0.0,
			"-0.015": 0.0,
			"-0.014": 0.0,
			"-0.013": 0.0,
			"-0.012": 0.0,
			"-0.011": 0.0,
			"-0.01": 0.519706662661,
			"-0.009": 3.01671684307,
			"-0.008": 6.21080441147,
			"-0.007": 12.9275691531,
			"-0.006": 22.1439232955,
			"-0.005": 25.3303530422,
			"-0.004": 29.9724676443,
			"-0.003": 26.9374332048,
			"-0.002": 21.3268842172,
			"-0.001": 15.7898008633,
			"0.0": 14.0239771995,
			"0.001": 15.179811672,
			"0.002": 21.4239954361,
			"0.003": 18.4827594191,
			"0.004": 10.0251529143,
			"0.005": 7.26842226468,
			"0.006": 6.7530881676,
			"0.007": 7.689264428,
			"0.008": 8.45333963291,
			"0.009": 10.2281376912,
			"0.01": 12.2176549033,
			"0.011": 7.60701580591,
			"0.012": 3.22877838999,
			"0.013": 0.135189012788,
			"0.014": 0.0,
			"0.015": 0.0,
			"0.016": 0.0,
			"0.017": 0.0,
			"0.018": 0.0,
			"0.019": 0.0,
			"0.02": 0.0,
			"0.021": 0.0,
			"0.022": 0.0,
			"0.023": 0.0,
			"0.024": 0.0,
			"0.025": 0.0
		}
	}
}
