{
	 "smiles": "NC1=C(N=C2C=CC=CN12)C1=CC=CC=C1", 
	 "Tm": 427.15, 
	 "num_atms": 27, 
	 "gaussian": { 
		 "optdone": 1, 
		 "sigma_profile": "yes", 
		 "theory": "DFT", 
		 "functional": "B3LYP", 
		 "basiset": "6-31G**", 
		 "properties": { 
			 "R2extent": 5365.6764, 
			 "electric_dipole_moment_norm": 3.24351731304, 
			 "electric_quadrupole_moment_norm": 15.3898110177, 
			 "total_energy": -666.26703982, 
			 "HOMO_LUMO_gap": 0.14949, 
			 "cosmo_polarized_energy": -14.46, 
			 "cosmo_cavitation_energy": 30.73, 
			 "cosmo_dispersion_energy": -22.91, 
			 "cosmo_repulsion_energy": 1.75, 
			 "cosmo_total_nonelectrostatic_energy": 9.56, 
			 "SMD_solvation_energy": 3.63 
		},
		"coords": [
			{
				"x": -1.1105637715,
				"y": -1.5738970952,
				"z": 3.1755393302,
				"element": "N" 
			},
			{
				"x": -1.6672909616,
				"y": -1.0905687967,
				"z": 1.9817473619,
				"element": "C" 
			},
			{
				"x": -1.1574526091,
				"y": -0.4447274961,
				"z": 0.8538494021,
				"element": "C" 
			},
			{
				"x": -2.1625822103,
				"y": -0.1507867902,
				"z": -0.037166359,
				"element": "N" 
			},
			{
				"x": -3.2791261779,
				"y": -0.6080834918,
				"z": 0.5070527612,
				"element": "C" 
			},
			{
				"x": -4.619231045,
				"y": -0.580369876,
				"z": 0.0558633021,
				"element": "C" 
			},
			{
				"x": -5.6099299832,
				"y": -1.144562222,
				"z": 0.8236596383,
				"element": "C" 
			},
			{
				"x": -5.2946213039,
				"y": -1.7674103238,
				"z": 2.0678864709,
				"element": "C" 
			},
			{
				"x": -4.0061493406,
				"y": -1.7994139632,
				"z": 2.5198306715,
				"element": "C" 
			},
			{
				"x": -3.0188810824,
				"y": -1.2176113405,
				"z": 1.7563944236,
				"element": "N" 
			},
			{
				"x": 0.2361875407,
				"y": -0.0641458726,
				"z": 0.5894233517,
				"element": "C" 
			},
			{
				"x": 1.3213099948,
				"y": -0.8176002035,
				"z": 1.0718046543,
				"element": "C" 
			},
			{
				"x": 2.6352614644,
				"y": -0.4137445594,
				"z": 0.8304811398,
				"element": "C" 
			},
			{
				"x": 2.8899185302,
				"y": 0.7401912761,
				"z": 0.0888391547,
				"element": "C" 
			},
			{
				"x": 1.8190315909,
				"y": 1.4806711812,
				"z": -0.4211700771,
				"element": "C" 
			},
			{
				"x": 0.507277053,
				"y": 1.0844221835,
				"z": -0.1756351742,
				"element": "C" 
			},
			{
				"x": -1.5097954377,
				"y": -1.1151121548,
				"z": 3.9933291403,
				"element": "H" 
			},
			{
				"x": -0.1086880319,
				"y": -1.4254285831,
				"z": 3.191289815,
				"element": "H" 
			},
			{
				"x": -4.8223038965,
				"y": -0.1073111931,
				"z": -0.8980927564,
				"element": "H" 
			},
			{
				"x": -6.6401991921,
				"y": -1.124802795,
				"z": 0.4841194571,
				"element": "H" 
			},
			{
				"x": -6.0720552936,
				"y": -2.2312127831,
				"z": 2.6643113104,
				"element": "H" 
			},
			{
				"x": -3.6860018195,
				"y": -2.2781771794,
				"z": 3.4367404109,
				"element": "H" 
			},
			{
				"x": 1.1425818525,
				"y": -1.7584165794,
				"z": 1.5860862633,
				"element": "H" 
			},
			{
				"x": 3.4595869225,
				"y": -1.0132165051,
				"z": 1.2068864217,
				"element": "H" 
			},
			{
				"x": 3.9123585005,
				"y": 1.053336721,
				"z": -0.1017913709,
				"element": "H" 
			},
			{
				"x": 2.0090342653,
				"y": 2.3730200742,
				"z": -1.0113298648,
				"element": "H" 
			},
			{
				"x": -0.3291755578,
				"y": 1.6517583681,
				"z": -0.5696488786,
				"element": "H" 
			}
		],
		 "valence_orbital": [ 
			{
				"type": "occ",
				"energy": -0.26556,
				"method": "rhf"
			},
			{
				"type": "occ",
				"energy": -0.2624,
				"method": "rhf"
			},
			{
				"type": "occ",
				"energy": -0.24571,
				"method": "rhf"
			},
			{
				"type": "occ",
				"energy": -0.21887,
				"method": "rhf"
			},
			{
				"type": "occ",
				"energy": -0.18474,
				"method": "rhf"
			},
			{
				"type": "unocc",
				"energy": -0.03525,
				"method": "rhf"
			},
			{
				"type": "unocc",
				"energy": -0.00168,
				"method": "rhf"
			},
			{
				"type": "unocc",
				"energy": 0.00254,
				"method": "rhf"
			},
			{
				"type": "unocc",
				"energy": 0.01615,
				"method": "rhf"
			},
			{
				"type": "unocc",
				"energy": 0.06988,
				"method": "rhf"
			}
		],
		"cosmo_sigma_profile": { 
			"-0.025": 0.0,
			"-0.024": 0.0,
			"-0.023": 0.0,
			"-0.022": 0.0,
			"-0.021": 0.0,
			"-0.02": 0.0,
			"-0.019": 0.0,
			"-0.018": 0.0,
			"-0.017": 0.0,
			"-0.016": 0.0,
			"-0.015": 0.0,
			"-0.014": 0.0,
			"-0.013": 0.781746925055,
			"-0.012": 1.91804324367,
			"-0.011": 3.27069392398,
			"-0.01": 3.26849025436,
			"-0.009": 3.38167475947,
			"-0.008": 4.46791320292,
			"-0.007": 6.93080271682,
			"-0.006": 12.1314933825,
			"-0.005": 18.3683291015,
			"-0.004": 17.1081112461,
			"-0.003": 16.5048272289,
			"-0.002": 13.166626753,
			"-0.001": 12.1861051868,
			"0.0": 13.8208063411,
			"0.001": 17.6262618743,
			"0.002": 16.2411252757,
			"0.003": 21.6249654273,
			"0.004": 20.3796833981,
			"0.005": 13.6586217709,
			"0.006": 11.2085694547,
			"0.007": 2.96053055495,
			"0.008": 2.10540605128,
			"0.009": 2.43459903371,
			"0.01": 2.81797804942,
			"0.011": 1.6376685739,
			"0.012": 1.25055735798,
			"0.013": 1.75947924515,
			"0.014": 1.36060188321,
			"0.015": 0.920719864789,
			"0.016": 0.947704754825,
			"0.017": 0.630070727075,
			"0.018": 0.0160043494949,
			"0.019": 0.0,
			"0.02": 0.0,
			"0.021": 0.0,
			"0.022": 0.0,
			"0.023": 0.0,
			"0.024": 0.0,
			"0.025": 0.0
		}
	}
}
