{
	 "smiles": "CCNC1=C(C=C(C=C1)[N+]([O-])=O)[N+]([O-])=O", 
	 "Tm": 387.15, 
	 "num_atms": 24, 
	 "gaussian": { 
		 "optdone": 1, 
		 "sigma_profile": "yes", 
		 "theory": "DFT", 
		 "functional": "B3LYP", 
		 "basiset": "6-31G**", 
		 "properties": { 
			 "R2extent": 3784.7549, 
			 "electric_dipole_moment_norm": 7.23604655941, 
			 "electric_quadrupole_moment_norm": 8.97871649291, 
			 "total_energy": -775.219661621, 
			 "HOMO_LUMO_gap": 0.15046, 
			 "cosmo_polarized_energy": -17.26, 
			 "cosmo_cavitation_energy": 28.93, 
			 "cosmo_dispersion_energy": -20.78, 
			 "cosmo_repulsion_energy": 1.62, 
			 "cosmo_total_nonelectrostatic_energy": 9.78, 
			 "SMD_solvation_energy": 8.83 
		},
		"coords": [
			{
				"x": -0.7446989521,
				"y": -3.133801376,
				"z": 2.3690350163,
				"element": "C" 
			},
			{
				"x": -0.0608992681,
				"y": -1.9821218452,
				"z": 3.1149970374,
				"element": "C" 
			},
			{
				"x": -0.1818310655,
				"y": -0.6805740755,
				"z": 2.4446530859,
				"element": "N" 
			},
			{
				"x": 0.1416902554,
				"y": -0.3318389706,
				"z": 1.1645512516,
				"element": "C" 
			},
			{
				"x": 1.1059569893,
				"y": -0.9508831366,
				"z": 0.3176285234,
				"element": "C" 
			},
			{
				"x": 1.2508690008,
				"y": -0.5877476473,
				"z": -1.0208274684,
				"element": "C" 
			},
			{
				"x": 0.502465198,
				"y": 0.4569881305,
				"z": -1.5332163327,
				"element": "C" 
			},
			{
				"x": -0.4056236612,
				"y": 1.150761216,
				"z": -0.7208628969,
				"element": "C" 
			},
			{
				"x": -0.5782395668,
				"y": 0.7539064179,
				"z": 0.5855443752,
				"element": "C" 
			},
			{
				"x": 0.673780918,
				"y": 0.8490812479,
				"z": -2.9272317708,
				"element": "N" 
			},
			{
				"x": 1.4808977441,
				"y": 0.2149420729,
				"z": -3.6079584291,
				"element": "O" 
			},
			{
				"x": -0.0045749369,
				"y": 1.7934450897,
				"z": -3.3378411164,
				"element": "O" 
			},
			{
				"x": 2.0768620398,
				"y": -1.9325719657,
				"z": 0.7988445482,
				"element": "N" 
			},
			{
				"x": 2.4246957121,
				"y": -2.8249887818,
				"z": 0.025467411,
				"element": "O" 
			},
			{
				"x": 2.5346379308,
				"y": -1.7705189841,
				"z": 1.9336819784,
				"element": "O" 
			},
			{
				"x": -0.6434301588,
				"y": -4.0566648773,
				"z": 2.9483944057,
				"element": "H" 
			},
			{
				"x": -1.8112171627,
				"y": -2.9353361874,
				"z": 2.2224106868,
				"element": "H" 
			},
			{
				"x": -0.2940934563,
				"y": -3.3118103129,
				"z": 1.3883761979,
				"element": "H" 
			},
			{
				"x": -0.5268837424,
				"y": -1.8461296004,
				"z": 4.0951426441,
				"element": "H" 
			},
			{
				"x": 0.9917866309,
				"y": -2.2099346752,
				"z": 3.2862720827,
				"element": "H" 
			},
			{
				"x": -0.9148780114,
				"y": -0.0997300493,
				"z": 2.8257402395,
				"element": "H" 
			},
			{
				"x": 1.9694261569,
				"y": -1.1057596483,
				"z": -1.6420318501,
				"element": "H" 
			},
			{
				"x": -0.9716553694,
				"y": 1.9730848076,
				"z": -1.1404081571,
				"element": "H" 
			},
			{
				"x": -1.3109432245,
				"y": 1.2656031512,
				"z": 1.2039385373,
				"element": "H" 
			}
		],
		 "valence_orbital": [ 
			{
				"type": "occ",
				"energy": -0.3079,
				"method": "rhf"
			},
			{
				"type": "occ",
				"energy": -0.3059,
				"method": "rhf"
			},
			{
				"type": "occ",
				"energy": -0.29044,
				"method": "rhf"
			},
			{
				"type": "occ",
				"energy": -0.28731,
				"method": "rhf"
			},
			{
				"type": "occ",
				"energy": -0.24314,
				"method": "rhf"
			},
			{
				"type": "unocc",
				"energy": -0.09268,
				"method": "rhf"
			},
			{
				"type": "unocc",
				"energy": -0.08828,
				"method": "rhf"
			},
			{
				"type": "unocc",
				"energy": -0.03107,
				"method": "rhf"
			},
			{
				"type": "unocc",
				"energy": 0.00179,
				"method": "rhf"
			},
			{
				"type": "unocc",
				"energy": 0.04218,
				"method": "rhf"
			}
		],
		"cosmo_sigma_profile": { 
			"-0.025": 0.0,
			"-0.024": 0.0,
			"-0.023": 0.0,
			"-0.022": 0.0,
			"-0.021": 0.0,
			"-0.02": 0.0,
			"-0.019": 0.0,
			"-0.018": 0.0,
			"-0.017": 0.0,
			"-0.016": 0.260759846397,
			"-0.015": 1.94411700667,
			"-0.014": 1.74323598256,
			"-0.013": 1.06016090665,
			"-0.012": 1.77864792783,
			"-0.011": 1.42184236727,
			"-0.01": 1.98714211368,
			"-0.009": 2.02510614676,
			"-0.008": 4.31044155054,
			"-0.007": 5.89486460926,
			"-0.006": 7.97257086202,
			"-0.005": 9.66694500567,
			"-0.004": 16.6828217049,
			"-0.003": 21.341602123,
			"-0.002": 22.3626323949,
			"-0.001": 24.3686925889,
			"0.0": 18.1971889855,
			"0.001": 9.98574855393,
			"0.002": 6.87926328953,
			"0.003": 5.83656211067,
			"0.004": 5.12950274766,
			"0.005": 6.05468041526,
			"0.006": 8.08989053922,
			"0.007": 13.2332692528,
			"0.008": 16.7390724499,
			"0.009": 9.21510180732,
			"0.01": 5.53934789023,
			"0.011": 0.874850499937,
			"0.012": 0.0,
			"0.013": 0.0,
			"0.014": 0.0,
			"0.015": 0.0,
			"0.016": 0.0,
			"0.017": 0.0,
			"0.018": 0.0,
			"0.019": 0.0,
			"0.02": 0.0,
			"0.021": 0.0,
			"0.022": 0.0,
			"0.023": 0.0,
			"0.024": 0.0,
			"0.025": 0.0
		}
	}
}
