{
	 "smiles": "CC(C)(C)C1=CC=C(C=C1)C(O)CN", 
	 "Tm": 399.15, 
	 "num_atms": 33, 
	 "gaussian": { 
		 "optdone": 1, 
		 "sigma_profile": "yes", 
		 "theory": "DFT", 
		 "functional": "B3LYP", 
		 "basiset": "6-31G**", 
		 "properties": { 
			 "R2extent": 4291.3241, 
			 "electric_dipole_moment_norm": 1.58548557231, 
			 "electric_quadrupole_moment_norm": 7.18730900616, 
			 "total_energy": -598.708345728, 
			 "HOMO_LUMO_gap": 0.22694, 
			 "cosmo_polarized_energy": -9.91, 
			 "cosmo_cavitation_energy": 33.68, 
			 "cosmo_dispersion_energy": -23.69, 
			 "cosmo_repulsion_energy": 1.89, 
			 "cosmo_total_nonelectrostatic_energy": 11.88, 
			 "SMD_solvation_energy": 4.63 
		},
		"coords": [
			{
				"x": -2.5388122909,
				"y": 0.4555856558,
				"z": 0.9077840903,
				"element": "C" 
			},
			{
				"x": -2.0871256549,
				"y": 0.3568894985,
				"z": -0.5689459517,
				"element": "C" 
			},
			{
				"x": -2.0982305317,
				"y": 1.7687014009,
				"z": -1.2023438283,
				"element": "C" 
			},
			{
				"x": -3.1069462631,
				"y": -0.5158230083,
				"z": -1.3248863365,
				"element": "C" 
			},
			{
				"x": -0.66157726,
				"y": -0.2217464458,
				"z": -0.6310130438,
				"element": "C" 
			},
			{
				"x": 0.3971520347,
				"y": 0.4468937586,
				"z": 0.0092507541,
				"element": "C" 
			},
			{
				"x": 1.7003171385,
				"y": -0.0416766116,
				"z": -0.0250319825,
				"element": "C" 
			},
			{
				"x": 2.0042072424,
				"y": -1.226477545,
				"z": -0.7098030125,
				"element": "C" 
			},
			{
				"x": 0.9607270464,
				"y": -1.8978873656,
				"z": -1.3534354204,
				"element": "C" 
			},
			{
				"x": -0.346776012,
				"y": -1.4060521039,
				"z": -1.3110872352,
				"element": "C" 
			},
			{
				"x": 3.4211859542,
				"y": -1.7765009382,
				"z": -0.7231879027,
				"element": "C" 
			},
			{
				"x": 4.4014034841,
				"y": -0.7408034315,
				"z": -0.6736300757,
				"element": "O" 
			},
			{
				"x": 3.7148958624,
				"y": -2.6739774784,
				"z": 0.4895180711,
				"element": "C" 
			},
			{
				"x": 2.8626824627,
				"y": -3.8632443932,
				"z": 0.4719366187,
				"element": "N" 
			},
			{
				"x": -1.8759617135,
				"y": 1.0984624881,
				"z": 1.4944464026,
				"element": "H" 
			},
			{
				"x": -2.5499917134,
				"y": -0.5320688501,
				"z": 1.3805352899,
				"element": "H" 
			},
			{
				"x": -3.549885928,
				"y": 0.8738430428,
				"z": 0.9706920622,
				"element": "H" 
			},
			{
				"x": -1.7896794605,
				"y": 1.7289548909,
				"z": -2.2522241867,
				"element": "H" 
			},
			{
				"x": -1.4223901711,
				"y": 2.4537243887,
				"z": -0.6819138531,
				"element": "H" 
			},
			{
				"x": -3.1056042197,
				"y": 2.1983851528,
				"z": -1.160136556,
				"element": "H" 
			},
			{
				"x": -4.1029502218,
				"y": -0.0672402995,
				"z": -1.2505884001,
				"element": "H" 
			},
			{
				"x": -2.8622452529,
				"y": -0.6002127085,
				"z": -2.3888227686,
				"element": "H" 
			},
			{
				"x": -3.168428923,
				"y": -1.5260102188,
				"z": -0.9068221899,
				"element": "H" 
			},
			{
				"x": 0.2040421854,
				"y": 1.3708633751,
				"z": 0.5473158619,
				"element": "H" 
			},
			{
				"x": 2.5000023509,
				"y": 0.4984985315,
				"z": 0.4732605114,
				"element": "H" 
			},
			{
				"x": 1.170813201,
				"y": -2.8174482406,
				"z": -1.8938596632,
				"element": "H" 
			},
			{
				"x": -1.12163661,
				"y": -1.9610085544,
				"z": -1.8278230345,
				"element": "H" 
			},
			{
				"x": 3.5504108521,
				"y": -2.3957463587,
				"z": -1.6239978939,
				"element": "H" 
			},
			{
				"x": 4.2114292322,
				"y": -0.1256364136,
				"z": -1.3939525394,
				"element": "H" 
			},
			{
				"x": 4.760193813,
				"y": -2.9917767041,
				"z": 0.412335208,
				"element": "H" 
			},
			{
				"x": 3.630462209,
				"y": -2.0534780191,
				"z": 1.3977526779,
				"element": "H" 
			},
			{
				"x": 3.1693628532,
				"y": -4.5171268824,
				"z": 1.1865045707,
				"element": "H" 
			},
			{
				"x": 1.9068543042,
				"y": -3.6053596124,
				"z": 0.7055737559,
				"element": "H" 
			}
		],
		 "valence_orbital": [ 
			{
				"type": "occ",
				"energy": -0.31023,
				"method": "rhf"
			},
			{
				"type": "occ",
				"energy": -0.2709,
				"method": "rhf"
			},
			{
				"type": "occ",
				"energy": -0.24594,
				"method": "rhf"
			},
			{
				"type": "occ",
				"energy": -0.23437,
				"method": "rhf"
			},
			{
				"type": "occ",
				"energy": -0.2289,
				"method": "rhf"
			},
			{
				"type": "unocc",
				"energy": -0.00196,
				"method": "rhf"
			},
			{
				"type": "unocc",
				"energy": 0.0015,
				"method": "rhf"
			},
			{
				"type": "unocc",
				"energy": 0.08213,
				"method": "rhf"
			},
			{
				"type": "unocc",
				"energy": 0.0883,
				"method": "rhf"
			},
			{
				"type": "unocc",
				"energy": 0.09932,
				"method": "rhf"
			}
		],
		"cosmo_sigma_profile": { 
			"-0.025": 0.0,
			"-0.024": 0.0,
			"-0.023": 0.0,
			"-0.022": 0.0,
			"-0.021": 0.0,
			"-0.02": 0.0,
			"-0.019": 0.0,
			"-0.018": 0.0,
			"-0.017": 0.0,
			"-0.016": 0.0420059286934,
			"-0.015": 0.726052873284,
			"-0.014": 0.871911356233,
			"-0.013": 0.534958278291,
			"-0.012": 1.13369788321,
			"-0.011": 0.614032674161,
			"-0.01": 2.19518233737,
			"-0.009": 2.35726241129,
			"-0.008": 2.62658868088,
			"-0.007": 3.1407054592,
			"-0.006": 3.70811425104,
			"-0.005": 7.95678356512,
			"-0.004": 12.7220365817,
			"-0.003": 28.662701103,
			"-0.002": 34.96368386,
			"-0.001": 30.4298221774,
			"0.0": 25.3469870296,
			"0.001": 31.2526601925,
			"0.002": 17.8484791432,
			"0.003": 8.42350865146,
			"0.004": 9.19970888437,
			"0.005": 8.47826167078,
			"0.006": 8.43913555684,
			"0.007": 3.76849662693,
			"0.008": 1.92486743604,
			"0.009": 1.7828809135,
			"0.01": 1.73148798691,
			"0.011": 1.26594341474,
			"0.012": 2.32392506999,
			"0.013": 2.44823643671,
			"0.014": 1.89148973423,
			"0.015": 0.514064385383,
			"0.016": 0.414627321932,
			"0.017": 0.0472532303148,
			"0.018": 0.860821178594,
			"0.019": 0.353063999091,
			"0.02": 0.0,
			"0.021": 0.0,
			"0.022": 0.0,
			"0.023": 0.0,
			"0.024": 0.0,
			"0.025": 0.0
		}
	}
}
