{
	 "smiles": "COC(=O)C(=O)C1=C(C)NC2=C1C=CC=C2", 
	 "Tm": 290.15, 
	 "num_atms": 27, 
	 "gaussian": { 
		 "optdone": 1, 
		 "sigma_profile": "yes", 
		 "theory": "DFT", 
		 "functional": "B3LYP", 
		 "basiset": "6-31G**", 
		 "properties": { 
			 "R2extent": 3856.6838, 
			 "electric_dipole_moment_norm": 3.19629897538, 
			 "electric_quadrupole_moment_norm": 21.0166154602, 
			 "total_energy": -744.340572945, 
			 "HOMO_LUMO_gap": 0.15943, 
			 "cosmo_polarized_energy": -17.3, 
			 "cosmo_cavitation_energy": 31.45, 
			 "cosmo_dispersion_energy": -22.8, 
			 "cosmo_repulsion_energy": 1.77, 
			 "cosmo_total_nonelectrostatic_energy": 10.42, 
			 "SMD_solvation_energy": 7.05 
		},
		"coords": [
			{
				"x": 4.1779992703,
				"y": -2.464445573,
				"z": -0.4960803599,
				"element": "C" 
			},
			{
				"x": 2.9674991382,
				"y": -2.2635545945,
				"z": 0.2543617363,
				"element": "O" 
			},
			{
				"x": 1.9331104379,
				"y": -1.7788667952,
				"z": -0.4458958277,
				"element": "C" 
			},
			{
				"x": 1.9731565367,
				"y": -1.4994823771,
				"z": -1.6267194458,
				"element": "O" 
			},
			{
				"x": 0.6646860448,
				"y": -1.7143905699,
				"z": 0.4202749166,
				"element": "C" 
			},
			{
				"x": 0.394420203,
				"y": -2.7205477295,
				"z": 1.0746096834,
				"element": "O" 
			},
			{
				"x": -0.1636708864,
				"y": -0.5211710621,
				"z": 0.3959418473,
				"element": "C" 
			},
			{
				"x": -1.3200390329,
				"y": -0.4431013666,
				"z": 1.1832588737,
				"element": "C" 
			},
			{
				"x": -1.9541029686,
				"y": -1.4549171587,
				"z": 2.0786771826,
				"element": "C" 
			},
			{
				"x": -1.8653090937,
				"y": 0.7966641798,
				"z": 1.0341715415,
				"element": "N" 
			},
			{
				"x": -1.1046956259,
				"y": 1.568942443,
				"z": 0.1659445621,
				"element": "C" 
			},
			{
				"x": -0.0157213015,
				"y": 0.7700599374,
				"z": -0.2681920617,
				"element": "C" 
			},
			{
				"x": 0.8958004406,
				"y": 1.3427442623,
				"z": -1.1735515743,
				"element": "C" 
			},
			{
				"x": 0.7029434497,
				"y": 2.6561515711,
				"z": -1.5899869971,
				"element": "C" 
			},
			{
				"x": -0.3845848254,
				"y": 3.4241758025,
				"z": -1.1362397295,
				"element": "C" 
			},
			{
				"x": -1.3099713603,
				"y": 2.885115426,
				"z": -0.249622013,
				"element": "C" 
			},
			{
				"x": 4.5117318497,
				"y": -1.5269112052,
				"z": -0.9481300853,
				"element": "H" 
			},
			{
				"x": 4.9112749396,
				"y": -2.8270697248,
				"z": 0.2234344421,
				"element": "H" 
			},
			{
				"x": 4.0183683153,
				"y": -3.2012850319,
				"z": -1.2870796096,
				"element": "H" 
			},
			{
				"x": -1.2499230929,
				"y": -1.7872723842,
				"z": 2.8461068421,
				"element": "H" 
			},
			{
				"x": -2.847905452,
				"y": -1.0456069677,
				"z": 2.5608254282,
				"element": "H" 
			},
			{
				"x": -2.2295179185,
				"y": -2.3523541815,
				"z": 1.5179911889,
				"element": "H" 
			},
			{
				"x": -2.7074653644,
				"y": 1.1035610238,
				"z": 1.4969353353,
				"element": "H" 
			},
			{
				"x": 1.7246931583,
				"y": 0.7651313142,
				"z": -1.5603087897,
				"element": "H" 
			},
			{
				"x": 1.4067961667,
				"y": 3.0966783572,
				"z": -2.2900905478,
				"element": "H" 
			},
			{
				"x": -0.5064563232,
				"y": 4.4453145926,
				"z": -1.4846688935,
				"element": "H" 
			},
			{
				"x": -2.1583167053,
				"y": 3.4633378117,
				"z": 0.1056323548,
				"element": "H" 
			}
		],
		 "valence_orbital": [ 
			{
				"type": "occ",
				"energy": -0.29734,
				"method": "rhf"
			},
			{
				"type": "occ",
				"energy": -0.27893,
				"method": "rhf"
			},
			{
				"type": "occ",
				"energy": -0.23643,
				"method": "rhf"
			},
			{
				"type": "occ",
				"energy": -0.22921,
				"method": "rhf"
			},
			{
				"type": "occ",
				"energy": -0.21225,
				"method": "rhf"
			},
			{
				"type": "unocc",
				"energy": -0.05282,
				"method": "rhf"
			},
			{
				"type": "unocc",
				"energy": -0.01227,
				"method": "rhf"
			},
			{
				"type": "unocc",
				"energy": 0.01847,
				"method": "rhf"
			},
			{
				"type": "unocc",
				"energy": 0.03048,
				"method": "rhf"
			},
			{
				"type": "unocc",
				"energy": 0.06643,
				"method": "rhf"
			}
		],
		"cosmo_sigma_profile": { 
			"-0.025": 0.0,
			"-0.024": 0.0,
			"-0.023": 0.0,
			"-0.022": 0.0,
			"-0.021": 0.0,
			"-0.02": 0.0,
			"-0.019": 0.0,
			"-0.018": 0.0,
			"-0.017": 0.309394330725,
			"-0.016": 1.55717237129,
			"-0.015": 1.68698690585,
			"-0.014": 0.837146902643,
			"-0.013": 1.76755732726,
			"-0.012": 1.63830222605,
			"-0.011": 1.16932286603,
			"-0.01": 1.52033739443,
			"-0.009": 1.54734845291,
			"-0.008": 1.53710899744,
			"-0.007": 5.16366948399,
			"-0.006": 10.9118730467,
			"-0.005": 17.5903044,
			"-0.004": 22.1732038473,
			"-0.003": 22.1288684381,
			"-0.002": 21.353919711,
			"-0.001": 16.1856163609,
			"0.0": 12.2495815865,
			"0.001": 15.0240062685,
			"0.002": 13.7745872753,
			"0.003": 12.5160270809,
			"0.004": 12.6504719556,
			"0.005": 13.2403705526,
			"0.006": 12.2070364367,
			"0.007": 5.26496245006,
			"0.008": 3.44180131777,
			"0.009": 4.5232881121,
			"0.01": 4.84429805691,
			"0.011": 6.04922699708,
			"0.012": 3.72888008561,
			"0.013": 2.25218658517,
			"0.014": 0.287035421672,
			"0.015": 0.0,
			"0.016": 0.0,
			"0.017": 0.0,
			"0.018": 0.0,
			"0.019": 0.0,
			"0.02": 0.0,
			"0.021": 0.0,
			"0.022": 0.0,
			"0.023": 0.0,
			"0.024": 0.0,
			"0.025": 0.0
		}
	}
}
