{
	 "smiles": "CC1=CN=CC(C)=N1", 
	 "Tm": 320.65, 
	 "num_atms": 16, 
	 "gaussian": { 
		 "optdone": 1, 
		 "sigma_profile": "yes", 
		 "theory": "DFT", 
		 "functional": "B3LYP", 
		 "basiset": "6-31G**", 
		 "properties": { 
			 "R2extent": 1175.1826, 
			 "electric_dipole_moment_norm": 0.682694529054, 
			 "electric_quadrupole_moment_norm": 8.08025833127, 
			 "total_energy": -342.96368062, 
			 "HOMO_LUMO_gap": 0.20221, 
			 "cosmo_polarized_energy": -6.15, 
			 "cosmo_cavitation_energy": 19.63, 
			 "cosmo_dispersion_energy": -14.65, 
			 "cosmo_repulsion_energy": 1.23, 
			 "cosmo_total_nonelectrostatic_energy": 6.2, 
			 "SMD_solvation_energy": 0.96 
		},
		"coords": [
			{
				"x": 1.7656842673,
				"y": -1.6850330275,
				"z": 0.8942644869,
				"element": "C" 
			},
			{
				"x": 1.3505996741,
				"y": -0.5680665975,
				"z": -0.0290403941,
				"element": "C" 
			},
			{
				"x": 2.2375840154,
				"y": 0.4536583392,
				"z": -0.3959834722,
				"element": "C" 
			},
			{
				"x": 1.8851697672,
				"y": 1.4499325881,
				"z": -1.2127486655,
				"element": "N" 
			},
			{
				"x": 0.6300956017,
				"y": 1.4249185428,
				"z": -1.6688194498,
				"element": "C" 
			},
			{
				"x": -0.2778931962,
				"y": 0.4158838418,
				"z": -1.3185007067,
				"element": "C" 
			},
			{
				"x": -1.6911043717,
				"y": 0.4036290246,
				"z": -1.8429836293,
				"element": "C" 
			},
			{
				"x": 0.0926349785,
				"y": -0.5781130361,
				"z": -0.4964693875,
				"element": "N" 
			},
			{
				"x": 2.6076269663,
				"y": -2.2511545531,
				"z": 0.4802075564,
				"element": "H" 
			},
			{
				"x": 0.9260661204,
				"y": -2.3655161794,
				"z": 1.0446701105,
				"element": "H" 
			},
			{
				"x": 2.0838341716,
				"y": -1.2979596978,
				"z": 1.8688211804,
				"element": "H" 
			},
			{
				"x": 3.258871021,
				"y": 0.4645688992,
				"z": -0.0183822681,
				"element": "H" 
			},
			{
				"x": 0.3324586735,
				"y": 2.2327367545,
				"z": -2.3355825942,
				"element": "H" 
			},
			{
				"x": -2.2322741712,
				"y": 1.3100084972,
				"z": -1.5490144321,
				"element": "H" 
			},
			{
				"x": -1.7086545374,
				"y": 0.3567572818,
				"z": -2.9376533472,
				"element": "H" 
			},
			{
				"x": -2.2201989804,
				"y": -0.4644506777,
				"z": -1.4465849877,
				"element": "H" 
			}
		],
		 "valence_orbital": [ 
			{
				"type": "occ",
				"energy": -0.37048,
				"method": "rhf"
			},
			{
				"type": "occ",
				"energy": -0.31532,
				"method": "rhf"
			},
			{
				"type": "occ",
				"energy": -0.29747,
				"method": "rhf"
			},
			{
				"type": "occ",
				"energy": -0.25352,
				"method": "rhf"
			},
			{
				"type": "occ",
				"energy": -0.2405,
				"method": "rhf"
			},
			{
				"type": "unocc",
				"energy": -0.03829,
				"method": "rhf"
			},
			{
				"type": "unocc",
				"energy": -0.0179,
				"method": "rhf"
			},
			{
				"type": "unocc",
				"energy": 0.11232,
				"method": "rhf"
			},
			{
				"type": "unocc",
				"energy": 0.1147,
				"method": "rhf"
			},
			{
				"type": "unocc",
				"energy": 0.11948,
				"method": "rhf"
			}
		],
		"cosmo_sigma_profile": { 
			"-0.025": 0.0,
			"-0.024": 0.0,
			"-0.023": 0.0,
			"-0.022": 0.0,
			"-0.021": 0.0,
			"-0.02": 0.0,
			"-0.019": 0.0,
			"-0.018": 0.0,
			"-0.017": 0.0,
			"-0.016": 0.0,
			"-0.015": 0.0,
			"-0.014": 0.0,
			"-0.013": 0.0,
			"-0.012": 0.0,
			"-0.011": 0.0,
			"-0.01": 0.0,
			"-0.009": 0.0,
			"-0.008": 0.0,
			"-0.007": 1.71608522815,
			"-0.006": 5.08506319884,
			"-0.005": 11.9269139245,
			"-0.004": 17.428660938,
			"-0.003": 16.1915157419,
			"-0.002": 13.8528897657,
			"-0.001": 19.6752014813,
			"0.0": 21.3135201135,
			"0.001": 9.87060926676,
			"0.002": 6.09482125966,
			"0.003": 5.40354689775,
			"0.004": 4.22255235951,
			"0.005": 3.00324095656,
			"0.006": 2.81035147074,
			"0.007": 3.59370203854,
			"0.008": 2.36159504946,
			"0.009": 1.3646167389,
			"0.01": 1.55077726596,
			"0.011": 2.19701909751,
			"0.012": 1.71949281628,
			"0.013": 1.64696133376,
			"0.014": 1.41809907479,
			"0.015": 1.14890162313,
			"0.016": 0.33882556171,
			"0.017": 0.0,
			"0.018": 0.0,
			"0.019": 0.0,
			"0.02": 0.0,
			"0.021": 0.0,
			"0.022": 0.0,
			"0.023": 0.0,
			"0.024": 0.0,
			"0.025": 0.0
		}
	}
}
