{
	 "smiles": "CC(C)CN(C1CCS(=O)(=O)C1)C(=O)CCl", 
	 "Tm": 425.15, 
	 "num_atms": 34, 
	 "gaussian": { 
		 "optdone": 1, 
		 "sigma_profile": "yes", 
		 "theory": "DFT", 
		 "functional": "B3LYP", 
		 "basiset": "6-31G**", 
		 "properties": { 
			 "R2extent": 5302.8011, 
			 "electric_dipole_moment_norm": 4.38129343573, 
			 "electric_quadrupole_moment_norm": 20.8327196597, 
			 "total_energy": -1530.6613215, 
			 "HOMO_LUMO_gap": 0.22372, 
			 "cosmo_polarized_energy": -19.39, 
			 "cosmo_cavitation_energy": 35.87, 
			 "cosmo_dispersion_energy": -25.47, 
			 "cosmo_repulsion_energy": 1.92, 
			 "cosmo_total_nonelectrostatic_energy": 12.31, 
			 "SMD_solvation_energy": 5.23 
		},
		"coords": [
			{
				"x": -0.7623346557,
				"y": 2.2038160028,
				"z": 0.9755029332,
				"element": "C" 
			},
			{
				"x": -0.6230587384,
				"y": 0.9546063321,
				"z": 1.8587286177,
				"element": "C" 
			},
			{
				"x": -1.9946854137,
				"y": 0.2882443203,
				"z": 2.0428339718,
				"element": "C" 
			},
			{
				"x": 0.5031240749,
				"y": -0.0271155959,
				"z": 1.4220743636,
				"element": "C" 
			},
			{
				"x": 0.36226045,
				"y": -0.6829246376,
				"z": 0.1041230563,
				"element": "N" 
			},
			{
				"x": 0.9223658703,
				"y": -0.1340550966,
				"z": -1.1623855624,
				"element": "C" 
			},
			{
				"x": 1.895783323,
				"y": -1.1517613672,
				"z": -1.8324370923,
				"element": "C" 
			},
			{
				"x": 3.2094162027,
				"y": -1.1432891637,
				"z": -1.0490449166,
				"element": "C" 
			},
			{
				"x": 3.4913371442,
				"y": 0.6212394846,
				"z": -0.6459036041,
				"element": "S" 
			},
			{
				"x": 3.7543848598,
				"y": 0.78373307,
				"z": 0.7967987059,
				"element": "O" 
			},
			{
				"x": 4.3939235875,
				"y": 1.2284090852,
				"z": -1.6368231239,
				"element": "O" 
			},
			{
				"x": 1.7609221533,
				"y": 1.1398877765,
				"z": -1.0165939895,
				"element": "C" 
			},
			{
				"x": -0.3928507557,
				"y": -1.8192415345,
				"z": -0.0790001043,
				"element": "C" 
			},
			{
				"x": -0.7534312328,
				"y": -2.194622633,
				"z": -1.1915608011,
				"element": "O" 
			},
			{
				"x": -0.7151744715,
				"y": -2.7172511172,
				"z": 1.1199915599,
				"element": "C" 
			},
			{
				"x": 0.7859116954,
				"y": -3.5417975876,
				"z": 1.734238707,
				"element": "Cl" 
			},
			{
				"x": -1.0209730115,
				"y": 1.9457418245,
				"z": -0.0576974742,
				"element": "H" 
			},
			{
				"x": -1.5617186859,
				"y": 2.8468615694,
				"z": 1.3573942953,
				"element": "H" 
			},
			{
				"x": 0.1517336247,
				"y": 2.8058630224,
				"z": 0.9667343395,
				"element": "H" 
			},
			{
				"x": -0.293699621,
				"y": 1.2963911299,
				"z": 2.8508650728,
				"element": "H" 
			},
			{
				"x": -1.9704795435,
				"y": -0.4958669356,
				"z": 2.8068714054,
				"element": "H" 
			},
			{
				"x": -2.3667911723,
				"y": -0.1470448419,
				"z": 1.1081534831,
				"element": "H" 
			},
			{
				"x": -2.7332995304,
				"y": 1.0274925885,
				"z": 2.3685216064,
				"element": "H" 
			},
			{
				"x": 1.4651488913,
				"y": 0.4874183861,
				"z": 1.4477006907,
				"element": "H" 
			},
			{
				"x": 0.5902175771,
				"y": -0.8148119503,
				"z": 2.1743856873,
				"element": "H" 
			},
			{
				"x": 0.0877071427,
				"y": 0.0529798542,
				"z": -1.8435532604,
				"element": "H" 
			},
			{
				"x": 2.0708627196,
				"y": -0.8218663696,
				"z": -2.8624724076,
				"element": "H" 
			},
			{
				"x": 1.456035343,
				"y": -2.1465979608,
				"z": -1.8802536641,
				"element": "H" 
			},
			{
				"x": 4.0741507736,
				"y": -1.4921814876,
				"z": -1.615144155,
				"element": "H" 
			},
			{
				"x": 3.1358563572,
				"y": -1.6812648771,
				"z": -0.1015138634,
				"element": "H" 
			},
			{
				"x": 1.4535588224,
				"y": 1.8499084258,
				"z": -0.2553724127,
				"element": "H" 
			},
			{
				"x": 1.8081020079,
				"y": 1.6484895655,
				"z": -1.9816092137,
				"element": "H" 
			},
			{
				"x": -1.1622658378,
				"y": -2.2097794629,
				"z": 1.9694740878,
				"element": "H" 
			},
			{
				"x": -1.3780399505,
				"y": -3.4977098184,
				"z": 0.7540730619,
				"element": "H" 
			}
		],
		 "valence_orbital": [ 
			{
				"type": "occ",
				"energy": -0.31049,
				"method": "rhf"
			},
			{
				"type": "occ",
				"energy": -0.29685,
				"method": "rhf"
			},
			{
				"type": "occ",
				"energy": -0.28296,
				"method": "rhf"
			},
			{
				"type": "occ",
				"energy": -0.26889,
				"method": "rhf"
			},
			{
				"type": "occ",
				"energy": -0.26038,
				"method": "rhf"
			},
			{
				"type": "unocc",
				"energy": -0.03666,
				"method": "rhf"
			},
			{
				"type": "unocc",
				"energy": 0.03467,
				"method": "rhf"
			},
			{
				"type": "unocc",
				"energy": 0.04802,
				"method": "rhf"
			},
			{
				"type": "unocc",
				"energy": 0.05735,
				"method": "rhf"
			},
			{
				"type": "unocc",
				"energy": 0.06413,
				"method": "rhf"
			}
		],
		"cosmo_sigma_profile": { 
			"-0.025": 0.0,
			"-0.024": 0.0,
			"-0.023": 0.0,
			"-0.022": 0.0,
			"-0.021": 0.0,
			"-0.02": 0.0,
			"-0.019": 0.0,
			"-0.018": 0.0,
			"-0.017": 0.0,
			"-0.016": 0.0,
			"-0.015": 0.0,
			"-0.014": 0.0,
			"-0.013": 0.0,
			"-0.012": 0.0,
			"-0.011": 0.0,
			"-0.01": 0.0779960782061,
			"-0.009": 3.83090739882,
			"-0.008": 10.3540743676,
			"-0.007": 11.0335415439,
			"-0.006": 17.10183733,
			"-0.005": 20.16341741,
			"-0.004": 23.6547690848,
			"-0.003": 29.8018208286,
			"-0.002": 23.6932099822,
			"-0.001": 20.1916479851,
			"0.0": 20.7568846454,
			"0.001": 17.4109291824,
			"0.002": 8.91706296484,
			"0.003": 7.68158954128,
			"0.004": 7.86198504843,
			"0.005": 10.1001129179,
			"0.006": 5.49261908682,
			"0.007": 2.5647341218,
			"0.008": 4.38378926595,
			"0.009": 4.21978891989,
			"0.01": 5.5036343537,
			"0.011": 10.7828839497,
			"0.012": 12.4108916769,
			"0.013": 4.3228024951,
			"0.014": 0.426640285783,
			"0.015": 0.0,
			"0.016": 0.0,
			"0.017": 0.0,
			"0.018": 0.0,
			"0.019": 0.0,
			"0.02": 0.0,
			"0.021": 0.0,
			"0.022": 0.0,
			"0.023": 0.0,
			"0.024": 0.0,
			"0.025": 0.0
		}
	}
}
