{
	 "smiles": "CCN(CC)C(C)CN1C2=CC=CC=C2SC2=CC=CC=C12", 
	 "Tm": 326.15, 
	 "num_atms": 46, 
	 "gaussian": { 
		 "optdone": 1, 
		 "sigma_profile": "yes", 
		 "theory": "DFT", 
		 "functional": "B3LYP", 
		 "basiset": "6-31G**", 
		 "properties": { 
			 "R2extent": 7654.8525, 
			 "electric_dipole_moment_norm": 1.73639005123, 
			 "electric_quadrupole_moment_norm": 7.33827491649, 
			 "total_energy": -1246.16446924, 
			 "HOMO_LUMO_gap": 0.17289, 
			 "cosmo_polarized_energy": -8.52, 
			 "cosmo_cavitation_energy": 45.3, 
			 "cosmo_dispersion_energy": -31.13, 
			 "cosmo_repulsion_energy": 2.29, 
			 "cosmo_total_nonelectrostatic_energy": 16.46, 
			 "SMD_solvation_energy": 5.47 
		},
		"coords": [
			{
				"x": 2.3844397096,
				"y": 2.1928438832,
				"z": 2.6103215127,
				"element": "C" 
			},
			{
				"x": 2.8568543102,
				"y": 0.8660582227,
				"z": 1.9805564824,
				"element": "C" 
			},
			{
				"x": 1.8868651588,
				"y": 0.0442604062,
				"z": 1.247579254,
				"element": "N" 
			},
			{
				"x": 1.0917156595,
				"y": -0.85229898,
				"z": 2.0964601032,
				"element": "C" 
			},
			{
				"x": 0.0279413374,
				"y": -0.2410039984,
				"z": 3.0276291634,
				"element": "C" 
			},
			{
				"x": 1.1784989786,
				"y": 0.7070037544,
				"z": 0.1364064294,
				"element": "C" 
			},
			{
				"x": 2.1668540662,
				"y": 1.4853351572,
				"z": -0.7503181021,
				"element": "C" 
			},
			{
				"x": 0.4760848185,
				"y": -0.3431570804,
				"z": -0.7714445104,
				"element": "C" 
			},
			{
				"x": -0.9044077711,
				"y": -0.6773606625,
				"z": -0.4044145418,
				"element": "N" 
			},
			{
				"x": -1.345712146,
				"y": -2.0166123435,
				"z": -0.5853966675,
				"element": "C" 
			},
			{
				"x": -0.6742428707,
				"y": -2.9315840423,
				"z": -1.4124463627,
				"element": "C" 
			},
			{
				"x": -1.1145411277,
				"y": -4.2517262682,
				"z": -1.5245857781,
				"element": "C" 
			},
			{
				"x": -2.2562748697,
				"y": -4.6779747542,
				"z": -0.849518284,
				"element": "C" 
			},
			{
				"x": -2.9626549164,
				"y": -3.7673198664,
				"z": -0.062590406,
				"element": "C" 
			},
			{
				"x": -2.5067022781,
				"y": -2.4568562426,
				"z": 0.0824023929,
				"element": "C" 
			},
			{
				"x": -3.3599439779,
				"y": -1.3276637848,
				"z": 1.1645421649,
				"element": "S" 
			},
			{
				"x": -3.115839789,
				"y": 0.1575942533,
				"z": 0.2107213646,
				"element": "C" 
			},
			{
				"x": -4.1098526361,
				"y": 1.1357896913,
				"z": 0.1683696904,
				"element": "C" 
			},
			{
				"x": -3.8922275401,
				"y": 2.3349784371,
				"z": -0.5113966176,
				"element": "C" 
			},
			{
				"x": -2.6849078048,
				"y": 2.529457748,
				"z": -1.1796142951,
				"element": "C" 
			},
			{
				"x": -1.7006072687,
				"y": 1.5397767232,
				"z": -1.1699652225,
				"element": "C" 
			},
			{
				"x": -1.889966614,
				"y": 0.3430422299,
				"z": -0.4604973656,
				"element": "C" 
			},
			{
				"x": 1.9626649569,
				"y": 2.8739943931,
				"z": 1.8641212447,
				"element": "H" 
			},
			{
				"x": 1.6276697986,
				"y": 2.0425073382,
				"z": 3.3830186034,
				"element": "H" 
			},
			{
				"x": 3.2378875484,
				"y": 2.702941516,
				"z": 3.0718936623,
				"element": "H" 
			},
			{
				"x": 3.2678699672,
				"y": 0.2279144879,
				"z": 2.7713627366,
				"element": "H" 
			},
			{
				"x": 3.7001448775,
				"y": 1.0860237387,
				"z": 1.3151135977,
				"element": "H" 
			},
			{
				"x": 1.8063125832,
				"y": -1.4238838938,
				"z": 2.702637346,
				"element": "H" 
			},
			{
				"x": 0.5992007779,
				"y": -1.584073416,
				"z": 1.4514924771,
				"element": "H" 
			},
			{
				"x": -0.5715847446,
				"y": -1.0411802457,
				"z": 3.4746003614,
				"element": "H" 
			},
			{
				"x": 0.4754424769,
				"y": 0.3321640125,
				"z": 3.8446223425,
				"element": "H" 
			},
			{
				"x": -0.6609984745,
				"y": 0.4116456604,
				"z": 2.4844068187,
				"element": "H" 
			},
			{
				"x": 0.4179202456,
				"y": 1.4183286803,
				"z": 0.4983811473,
				"element": "H" 
			},
			{
				"x": 2.6700513137,
				"y": 2.291808528,
				"z": -0.2147346032,
				"element": "H" 
			},
			{
				"x": 2.9334001775,
				"y": 0.8126531674,
				"z": -1.1509097745,
				"element": "H" 
			},
			{
				"x": 1.6369525251,
				"y": 1.9396238665,
				"z": -1.5932679309,
				"element": "H" 
			},
			{
				"x": 0.5274444592,
				"y": -0.0127875536,
				"z": -1.8192236794,
				"element": "H" 
			},
			{
				"x": 1.0699120602,
				"y": -1.2545942015,
				"z": -0.704265475,
				"element": "H" 
			},
			{
				"x": 0.1930801786,
				"y": -2.6178603726,
				"z": -1.9809042452,
				"element": "H" 
			},
			{
				"x": -0.5650353634,
				"y": -4.9403613945,
				"z": -2.1596327374,
				"element": "H" 
			},
			{
				"x": -2.6041160623,
				"y": -5.7020756062,
				"z": -0.941519335,
				"element": "H" 
			},
			{
				"x": -3.8682504462,
				"y": -4.0711204521,
				"z": 0.4539576676,
				"element": "H" 
			},
			{
				"x": -5.0502831726,
				"y": 0.954997154,
				"z": 0.6803226521,
				"element": "H" 
			},
			{
				"x": -4.660977537,
				"y": 3.1012126402,
				"z": -0.5228013026,
				"element": "H" 
			},
			{
				"x": -2.5036998979,
				"y": 3.4510931389,
				"z": -1.7248649022,
				"element": "H" 
			},
			{
				"x": -0.7799806768,
				"y": 1.7076463304,
				"z": -1.7153070764,
				"element": "H" 
			}
		],
		 "valence_orbital": [ 
			{
				"type": "occ",
				"energy": -0.25476,
				"method": "rhf"
			},
			{
				"type": "occ",
				"energy": -0.2493,
				"method": "rhf"
			},
			{
				"type": "occ",
				"energy": -0.22365,
				"method": "rhf"
			},
			{
				"type": "occ",
				"energy": -0.19768,
				"method": "rhf"
			},
			{
				"type": "occ",
				"energy": -0.18423,
				"method": "rhf"
			},
			{
				"type": "unocc",
				"energy": -0.01134,
				"method": "rhf"
			},
			{
				"type": "unocc",
				"energy": -0.00777,
				"method": "rhf"
			},
			{
				"type": "unocc",
				"energy": -0.001,
				"method": "rhf"
			},
			{
				"type": "unocc",
				"energy": 0.01081,
				"method": "rhf"
			},
			{
				"type": "unocc",
				"energy": 0.03937,
				"method": "rhf"
			}
		],
		"cosmo_sigma_profile": { 
			"-0.025": 0.0,
			"-0.024": 0.0,
			"-0.023": 0.0,
			"-0.022": 0.0,
			"-0.021": 0.0,
			"-0.02": 0.0,
			"-0.019": 0.0,
			"-0.018": 0.0,
			"-0.017": 0.0,
			"-0.016": 0.0,
			"-0.015": 0.0,
			"-0.014": 0.0,
			"-0.013": 0.0,
			"-0.012": 0.0,
			"-0.011": 0.0,
			"-0.01": 0.0,
			"-0.009": 0.0,
			"-0.008": 0.123879731504,
			"-0.007": 2.68990555426,
			"-0.006": 13.2581896532,
			"-0.005": 19.6560817787,
			"-0.004": 22.6905569939,
			"-0.003": 32.4221382669,
			"-0.002": 37.2903892952,
			"-0.001": 40.0094919394,
			"0.0": 39.5262694255,
			"0.001": 36.0777091104,
			"0.002": 27.5349387716,
			"0.003": 23.8644049101,
			"0.004": 23.5408921192,
			"0.005": 23.4605180717,
			"0.006": 10.607857699,
			"0.007": 2.18987923606,
			"0.008": 1.00944274473,
			"0.009": 0.86952225919,
			"0.01": 0.376859113279,
			"0.011": 0.172417215942,
			"0.012": 0.105272058884,
			"0.013": 0.785995732598,
			"0.014": 0.579459899672,
			"0.015": 0.0,
			"0.016": 0.0,
			"0.017": 0.0,
			"0.018": 0.0,
			"0.019": 0.0,
			"0.02": 0.0,
			"0.021": 0.0,
			"0.022": 0.0,
			"0.023": 0.0,
			"0.024": 0.0,
			"0.025": 0.0
		}
	}
}
