{
	 "smiles": "CC(C)(C)C(CCC(O)=O)CC(O)=O", 
	 "Tm": 389.15, 
	 "num_atms": 32, 
	 "gaussian": { 
		 "optdone": 1, 
		 "sigma_profile": "yes", 
		 "theory": "DFT", 
		 "functional": "B3LYP", 
		 "basiset": "6-31G**", 
		 "properties": { 
			 "R2extent": 3622.3999, 
			 "electric_dipole_moment_norm": 4.92661183167, 
			 "electric_quadrupole_moment_norm": 16.1398232617, 
			 "total_energy": -692.843941959, 
			 "HOMO_LUMO_gap": 0.2668, 
			 "cosmo_polarized_energy": -20.48, 
			 "cosmo_cavitation_energy": 32.67, 
			 "cosmo_dispersion_energy": -22.17, 
			 "cosmo_repulsion_energy": 1.74, 
			 "cosmo_total_nonelectrostatic_energy": 12.24, 
			 "SMD_solvation_energy": 7.48 
		},
		"coords": [
			{
				"x": 0.1021393181,
				"y": -1.1713884273,
				"z": 1.8498069505,
				"element": "C" 
			},
			{
				"x": -0.6103312424,
				"y": -1.2279152442,
				"z": 0.480107067,
				"element": "C" 
			},
			{
				"x": -0.4922481893,
				"y": -2.6789584264,
				"z": -0.0326225313,
				"element": "C" 
			},
			{
				"x": -2.103663888,
				"y": -0.8937563401,
				"z": 0.6788558107,
				"element": "C" 
			},
			{
				"x": 0.0863627279,
				"y": -0.2378045126,
				"z": -0.5215939663,
				"element": "C" 
			},
			{
				"x": -0.3669678872,
				"y": -0.3978898045,
				"z": -2.0028067656,
				"element": "C" 
			},
			{
				"x": 0.5551947191,
				"y": -1.2582543739,
				"z": -2.8994654335,
				"element": "C" 
			},
			{
				"x": 1.8390279792,
				"y": -0.5209611174,
				"z": -3.2207918786,
				"element": "C" 
			},
			{
				"x": 2.8774898963,
				"y": -0.9415137121,
				"z": -2.4603651445,
				"element": "O" 
			},
			{
				"x": 1.9373365058,
				"y": 0.3660385976,
				"z": -4.0390870597,
				"element": "O" 
			},
			{
				"x": -0.0692398411,
				"y": 1.2364012831,
				"z": -0.0952876035,
				"element": "C" 
			},
			{
				"x": 1.0381448844,
				"y": 2.1389709888,
				"z": -0.6346371797,
				"element": "C" 
			},
			{
				"x": 0.7925392288,
				"y": 3.4737665449,
				"z": -0.545037507,
				"element": "O" 
			},
			{
				"x": 2.0937250314,
				"y": 1.7539745322,
				"z": -1.0729478397,
				"element": "O" 
			},
			{
				"x": 0.0049129616,
				"y": -0.1971896622,
				"z": 2.3396381044,
				"element": "H" 
			},
			{
				"x": 1.1707702076,
				"y": -1.3902043912,
				"z": 1.7481791349,
				"element": "H" 
			},
			{
				"x": -0.3269298609,
				"y": -1.9136325559,
				"z": 2.5316444351,
				"element": "H" 
			},
			{
				"x": -0.9228381662,
				"y": -3.3716022861,
				"z": 0.6987716482,
				"element": "H" 
			},
			{
				"x": -1.0255645035,
				"y": -2.832475615,
				"z": -0.9754444376,
				"element": "H" 
			},
			{
				"x": 0.55466861,
				"y": -2.9651720851,
				"z": -0.1814462874,
				"element": "H" 
			},
			{
				"x": -2.6611412561,
				"y": -0.9199277392,
				"z": -0.2636535965,
				"element": "H" 
			},
			{
				"x": -2.2468110662,
				"y": 0.095957724,
				"z": 1.1254211659,
				"element": "H" 
			},
			{
				"x": -2.5693075586,
				"y": -1.6226833125,
				"z": 1.3510686261,
				"element": "H" 
			},
			{
				"x": 1.1602700566,
				"y": -0.4519628137,
				"z": -0.4770616909,
				"element": "H" 
			},
			{
				"x": -1.3774439909,
				"y": -0.8188845209,
				"z": -2.0443685669,
				"element": "H" 
			},
			{
				"x": -0.4369593537,
				"y": 0.5864484069,
				"z": -2.4793003748,
				"element": "H" 
			},
			{
				"x": 0.0485726468,
				"y": -1.4426874479,
				"z": -3.8514705549,
				"element": "H" 
			},
			{
				"x": 0.7816332566,
				"y": -2.218791423,
				"z": -2.4336360056,
				"element": "H" 
			},
			{
				"x": 3.6058598562,
				"y": -0.3215585965,
				"z": -2.636141286,
				"element": "H" 
			},
			{
				"x": -0.0357607343,
				"y": 1.3448604553,
				"z": 0.9959573765,
				"element": "H" 
			},
			{
				"x": -1.0437999718,
				"y": 1.6333483245,
				"z": -0.4094469291,
				"element": "H" 
			},
			{
				"x": -0.0936403762,
				"y": 3.6268475502,
				"z": -0.1878376802,
				"element": "H" 
			}
		],
		 "valence_orbital": [ 
			{
				"type": "occ",
				"energy": -0.31494,
				"method": "rhf"
			},
			{
				"type": "occ",
				"energy": -0.31428,
				"method": "rhf"
			},
			{
				"type": "occ",
				"energy": -0.29965,
				"method": "rhf"
			},
			{
				"type": "occ",
				"energy": -0.27364,
				"method": "rhf"
			},
			{
				"type": "occ",
				"energy": -0.25957,
				"method": "rhf"
			},
			{
				"type": "unocc",
				"energy": 0.00723,
				"method": "rhf"
			},
			{
				"type": "unocc",
				"energy": 0.01929,
				"method": "rhf"
			},
			{
				"type": "unocc",
				"energy": 0.05211,
				"method": "rhf"
			},
			{
				"type": "unocc",
				"energy": 0.07146,
				"method": "rhf"
			},
			{
				"type": "unocc",
				"energy": 0.09425,
				"method": "rhf"
			}
		],
		"cosmo_sigma_profile": { 
			"-0.025": 0.0,
			"-0.024": 0.0,
			"-0.023": 0.0,
			"-0.022": 0.0,
			"-0.021": 0.0,
			"-0.02": 0.0,
			"-0.019": 0.235769379279,
			"-0.018": 1.57064931483,
			"-0.017": 1.23095580885,
			"-0.016": 2.13544939345,
			"-0.015": 1.81615077894,
			"-0.014": 1.06606436419,
			"-0.013": 1.76049424228,
			"-0.012": 2.35289936271,
			"-0.011": 1.50516851859,
			"-0.01": 1.72049878313,
			"-0.009": 1.34425889674,
			"-0.008": 2.52229272141,
			"-0.007": 3.81010808982,
			"-0.006": 6.10822058227,
			"-0.005": 8.04249672786,
			"-0.004": 14.3141290584,
			"-0.003": 25.7295189954,
			"-0.002": 33.7113762442,
			"-0.001": 23.5793020696,
			"0.0": 19.757136983,
			"0.001": 21.8422963595,
			"0.002": 14.2767919763,
			"0.003": 5.04070089882,
			"0.004": 4.13600401143,
			"0.005": 4.40661753782,
			"0.006": 4.36918070208,
			"0.007": 5.0317079103,
			"0.008": 6.54040681429,
			"0.009": 5.45302971774,
			"0.01": 7.99083839195,
			"0.011": 7.29336142096,
			"0.012": 7.69984634997,
			"0.013": 3.79665910245,
			"0.014": 0.273358073494,
			"0.015": 0.0,
			"0.016": 0.0,
			"0.017": 0.0,
			"0.018": 0.0,
			"0.019": 0.0,
			"0.02": 0.0,
			"0.021": 0.0,
			"0.022": 0.0,
			"0.023": 0.0,
			"0.024": 0.0,
			"0.025": 0.0
		}
	}
}
