{
	 "smiles": "CC(C)S(=O)(=O)C1=CC=C(CC(O)=O)C=C1", 
	 "Tm": 420.15, 
	 "num_atms": 30, 
	 "gaussian": { 
		 "optdone": 1, 
		 "sigma_profile": "yes", 
		 "theory": "DFT", 
		 "functional": "B3LYP", 
		 "basiset": "6-31G**", 
		 "properties": { 
			 "R2extent": 6372.5084, 
			 "electric_dipole_moment_norm": 5.36080450679, 
			 "electric_quadrupole_moment_norm": 22.363499416, 
			 "total_energy": -1126.657089, 
			 "HOMO_LUMO_gap": 0.22679, 
			 "cosmo_polarized_energy": -20.34, 
			 "cosmo_cavitation_energy": 35.04, 
			 "cosmo_dispersion_energy": -24.88, 
			 "cosmo_repulsion_energy": 1.91, 
			 "cosmo_total_nonelectrostatic_energy": 12.07, 
			 "SMD_solvation_energy": 6.46 
		},
		"coords": [
			{
				"x": -1.4200416591,
				"y": -1.1905690068,
				"z": 1.3255469233,
				"element": "C" 
			},
			{
				"x": -1.0341612916,
				"y": -0.0925575244,
				"z": 2.3152006753,
				"element": "C" 
			},
			{
				"x": -1.7606814112,
				"y": -0.2080627821,
				"z": 3.6586771453,
				"element": "C" 
			},
			{
				"x": 0.7779981565,
				"y": -0.1187149438,
				"z": 2.6565271653,
				"element": "S" 
			},
			{
				"x": 1.0580790852,
				"y": 0.9839791518,
				"z": 3.5946777056,
				"element": "O" 
			},
			{
				"x": 1.1621557381,
				"y": -1.5057468108,
				"z": 2.9818532532,
				"element": "O" 
			},
			{
				"x": 1.545861717,
				"y": 0.3055236485,
				"z": 1.0823163491,
				"element": "C" 
			},
			{
				"x": 2.0503606513,
				"y": -0.7085253048,
				"z": 0.2695499533,
				"element": "C" 
			},
			{
				"x": 2.6540657712,
				"y": -0.3672867445,
				"z": -0.9412506803,
				"element": "C" 
			},
			{
				"x": 2.7578684752,
				"y": 0.9699982467,
				"z": -1.3417597268,
				"element": "C" 
			},
			{
				"x": 3.4332730698,
				"y": 1.318070993,
				"z": -2.6482100613,
				"element": "C" 
			},
			{
				"x": 2.541528544,
				"y": 2.0493985429,
				"z": -3.6418357412,
				"element": "C" 
			},
			{
				"x": 2.9950696568,
				"y": 1.8806047923,
				"z": -4.9059851358,
				"element": "O" 
			},
			{
				"x": 1.5762672261,
				"y": 2.7285799513,
				"z": -3.3766289959,
				"element": "O" 
			},
			{
				"x": 2.2520056937,
				"y": 1.974182037,
				"z": -0.5022932992,
				"element": "C" 
			},
			{
				"x": 1.6500957657,
				"y": 1.6483794085,
				"z": 0.7099183577,
				"element": "C" 
			},
			{
				"x": -2.4970975838,
				"y": -1.1436589018,
				"z": 1.1354700018,
				"element": "H" 
			},
			{
				"x": -0.9053198412,
				"y": -1.0797448457,
				"z": 0.3673097455,
				"element": "H" 
			},
			{
				"x": -1.183704561,
				"y": -2.1759266784,
				"z": 1.736136051,
				"element": "H" 
			},
			{
				"x": -1.2022251037,
				"y": 0.8994988377,
				"z": 1.8807048097,
				"element": "H" 
			},
			{
				"x": -2.8394315786,
				"y": -0.1291859125,
				"z": 3.4915505214,
				"element": "H" 
			},
			{
				"x": -1.5549835843,
				"y": -1.1757068381,
				"z": 4.1257070902,
				"element": "H" 
			},
			{
				"x": -1.4526675461,
				"y": 0.5833150117,
				"z": 4.3448462541,
				"element": "H" 
			},
			{
				"x": 1.9844926954,
				"y": -1.7408020072,
				"z": 0.5957094935,
				"element": "H" 
			},
			{
				"x": 3.054356665,
				"y": -1.1516584776,
				"z": -1.5781104522,
				"element": "H" 
			},
			{
				"x": 3.8391071504,
				"y": 0.4277903953,
				"z": -3.135088962,
				"element": "H" 
			},
			{
				"x": 4.2906340229,
				"y": 1.9827855963,
				"z": -2.4706354896,
				"element": "H" 
			},
			{
				"x": 2.4102001642,
				"y": 2.4063771792,
				"z": -5.4779012948,
				"element": "H" 
			},
			{
				"x": 2.3270184808,
				"y": 3.0133494827,
				"z": -0.8033172519,
				"element": "H" 
			},
			{
				"x": 1.2857754309,
				"y": 2.4243135034,
				"z": 1.3750155954,
				"element": "H" 
			}
		],
		 "valence_orbital": [ 
			{
				"type": "occ",
				"energy": -0.29253,
				"method": "rhf"
			},
			{
				"type": "occ",
				"energy": -0.28892,
				"method": "rhf"
			},
			{
				"type": "occ",
				"energy": -0.27582,
				"method": "rhf"
			},
			{
				"type": "occ",
				"energy": -0.269,
				"method": "rhf"
			},
			{
				"type": "occ",
				"energy": -0.2667,
				"method": "rhf"
			},
			{
				"type": "unocc",
				"energy": -0.03991,
				"method": "rhf"
			},
			{
				"type": "unocc",
				"energy": -0.02215,
				"method": "rhf"
			},
			{
				"type": "unocc",
				"energy": -0.00302,
				"method": "rhf"
			},
			{
				"type": "unocc",
				"energy": 0.06378,
				"method": "rhf"
			},
			{
				"type": "unocc",
				"energy": 0.06695,
				"method": "rhf"
			}
		],
		"cosmo_sigma_profile": { 
			"-0.025": 0.0,
			"-0.024": 0.0,
			"-0.023": 0.0,
			"-0.022": 0.0,
			"-0.021": 0.0,
			"-0.02": 0.0,
			"-0.019": 0.0298057908506,
			"-0.018": 1.12479225684,
			"-0.017": 0.679644556823,
			"-0.016": 0.966723438756,
			"-0.015": 0.797116465385,
			"-0.014": 0.251356768825,
			"-0.013": 0.550439053594,
			"-0.012": 0.947144323888,
			"-0.011": 1.46147597801,
			"-0.01": 0.317478820086,
			"-0.009": 0.66557136632,
			"-0.008": 4.26967263714,
			"-0.007": 13.280289206,
			"-0.006": 15.3148169679,
			"-0.005": 21.2789418837,
			"-0.004": 20.8534440635,
			"-0.003": 23.4866643326,
			"-0.002": 21.9736291249,
			"-0.001": 23.994966366,
			"0.0": 17.021496556,
			"0.001": 13.7172827229,
			"0.002": 13.9901849431,
			"0.003": 13.7396490817,
			"0.004": 6.72211479766,
			"0.005": 5.59856532022,
			"0.006": 5.21157645941,
			"0.007": 4.68232246253,
			"0.008": 6.07608019408,
			"0.009": 7.28606905836,
			"0.01": 6.74911892943,
			"0.011": 11.8399875829,
			"0.012": 9.62796220867,
			"0.013": 2.03013436503,
			"0.014": 0.0,
			"0.015": 0.0,
			"0.016": 0.0,
			"0.017": 0.0,
			"0.018": 0.0,
			"0.019": 0.0,
			"0.02": 0.0,
			"0.021": 0.0,
			"0.022": 0.0,
			"0.023": 0.0,
			"0.024": 0.0,
			"0.025": 0.0
		}
	}
}
