{
	 "smiles": "FC(F)(F)C1=CC=C(C=C1)N=C=S", 
	 "Tm": 315.15, 
	 "num_atms": 17, 
	 "gaussian": { 
		 "optdone": 1, 
		 "sigma_profile": "yes", 
		 "theory": "DFT", 
		 "functional": "B3LYP", 
		 "basiset": "6-31G**", 
		 "properties": { 
			 "R2extent": 5289.7761, 
			 "electric_dipole_moment_norm": 0.913207479163, 
			 "electric_quadrupole_moment_norm": 16.9475076719, 
			 "total_energy": -1059.72278519, 
			 "HOMO_LUMO_gap": 0.17696, 
			 "cosmo_polarized_energy": -5.79, 
			 "cosmo_cavitation_energy": 26.55, 
			 "cosmo_dispersion_energy": -19.23, 
			 "cosmo_repulsion_energy": 1.43, 
			 "cosmo_total_nonelectrostatic_energy": 8.75, 
			 "SMD_solvation_energy": 6.34 
		},
		"coords": [
			{
				"x": -2.016758438,
				"y": 1.2353205655,
				"z": 2.5401303336,
				"element": "F" 
			},
			{
				"x": -1.5048980467,
				"y": 2.3188859096,
				"z": 1.9168721651,
				"element": "C" 
			},
			{
				"x": -2.5371998468,
				"y": 3.0225189903,
				"z": 1.4031536586,
				"element": "F" 
			},
			{
				"x": -0.9384176959,
				"y": 3.0916213412,
				"z": 2.8720885641,
				"element": "F" 
			},
			{
				"x": -0.5096136849,
				"y": 1.9336206941,
				"z": 0.8556089505,
				"element": "C" 
			},
			{
				"x": 0.2580301405,
				"y": 0.7747927844,
				"z": 1.0061656063,
				"element": "C" 
			},
			{
				"x": 1.2166704053,
				"y": 0.4412440113,
				"z": 0.0566483074,
				"element": "C" 
			},
			{
				"x": 1.4117110617,
				"y": 1.2768366417,
				"z": -1.0564746867,
				"element": "C" 
			},
			{
				"x": 0.6397031523,
				"y": 2.4411941463,
				"z": -1.2101205756,
				"element": "C" 
			},
			{
				"x": -0.315548845,
				"y": 2.7629923061,
				"z": -0.2531906737,
				"element": "C" 
			},
			{
				"x": 2.3543832216,
				"y": 0.9533572858,
				"z": -1.9962766336,
				"element": "N" 
			},
			{
				"x": 3.1712921747,
				"y": 0.6724931311,
				"z": -2.811563707,
				"element": "C" 
			},
			{
				"x": 4.2659547537,
				"y": 0.2956442199,
				"z": -3.9030548488,
				"element": "S" 
			},
			{
				"x": 0.0982609746,
				"y": 0.1295974627,
				"z": 1.8629641358,
				"element": "H" 
			},
			{
				"x": 1.8154489749,
				"y": -0.4567749689,
				"z": 0.1598544058,
				"element": "H" 
			},
			{
				"x": 0.7968505879,
				"y": 3.0739058436,
				"z": -2.0764979114,
				"element": "H" 
			},
			{
				"x": -0.9191688898,
				"y": 3.6561496354,
				"z": -0.3708070903,
				"element": "H" 
			}
		],
		 "valence_orbital": [ 
			{
				"type": "occ",
				"energy": -0.37768,
				"method": "rhf"
			},
			{
				"type": "occ",
				"energy": -0.30737,
				"method": "rhf"
			},
			{
				"type": "occ",
				"energy": -0.28792,
				"method": "rhf"
			},
			{
				"type": "occ",
				"energy": -0.26163,
				"method": "rhf"
			},
			{
				"type": "occ",
				"energy": -0.2444,
				"method": "rhf"
			},
			{
				"type": "unocc",
				"energy": -0.06744,
				"method": "rhf"
			},
			{
				"type": "unocc",
				"energy": -0.03615,
				"method": "rhf"
			},
			{
				"type": "unocc",
				"energy": -0.00545,
				"method": "rhf"
			},
			{
				"type": "unocc",
				"energy": 0.02584,
				"method": "rhf"
			},
			{
				"type": "unocc",
				"energy": 0.06981,
				"method": "rhf"
			}
		],
		"cosmo_sigma_profile": { 
			"-0.025": 0.0,
			"-0.024": 0.0,
			"-0.023": 0.0,
			"-0.022": 0.0,
			"-0.021": 0.0,
			"-0.02": 0.0,
			"-0.019": 0.0,
			"-0.018": 0.0,
			"-0.017": 0.0,
			"-0.016": 0.0,
			"-0.015": 0.0,
			"-0.014": 0.0,
			"-0.013": 0.0,
			"-0.012": 0.0,
			"-0.011": 0.0,
			"-0.01": 0.0,
			"-0.009": 0.155979682934,
			"-0.008": 5.60393197192,
			"-0.007": 8.79837341674,
			"-0.006": 8.45332248244,
			"-0.005": 8.50989986851,
			"-0.004": 8.36022681904,
			"-0.003": 8.84905836431,
			"-0.002": 17.2432913287,
			"-0.001": 19.5744629767,
			"0.0": 19.8144513932,
			"0.001": 26.2287865376,
			"0.002": 30.587642397,
			"0.003": 28.9111908776,
			"0.004": 7.7174460761,
			"0.005": 10.4339264556,
			"0.006": 9.33277242566,
			"0.007": 0.0,
			"0.008": 0.0,
			"0.009": 0.0,
			"0.01": 0.0,
			"0.011": 0.0,
			"0.012": 0.0,
			"0.013": 0.0,
			"0.014": 0.0,
			"0.015": 0.0,
			"0.016": 0.0,
			"0.017": 0.0,
			"0.018": 0.0,
			"0.019": 0.0,
			"0.02": 0.0,
			"0.021": 0.0,
			"0.022": 0.0,
			"0.023": 0.0,
			"0.024": 0.0,
			"0.025": 0.0
		}
	}
}
