{
	 "smiles": "OC(=O)CC1=CC(Br)=C(F)C=C1", 
	 "Tm": 338.15, 
	 "num_atms": 18, 
	 "gaussian": { 
		 "optdone": 1, 
		 "sigma_profile": "yes", 
		 "theory": "DFT", 
		 "functional": "B3LYP", 
		 "basiset": "6-31G**", 
		 "properties": { 
			 "R2extent": 3902.2634, 
			 "electric_dipole_moment_norm": 3.58597672329, 
			 "electric_quadrupole_moment_norm": 20.5999836706, 
			 "total_energy": -3130.15882641, 
			 "HOMO_LUMO_gap": 0.21082, 
			 "cosmo_polarized_energy": -14.23, 
			 "cosmo_cavitation_energy": 25.72, 
			 "cosmo_dispersion_energy": -18.79, 
			 "cosmo_repulsion_energy": 1.49, 
			 "cosmo_total_nonelectrostatic_energy": 8.42, 
			 "SMD_solvation_energy": 4.92 
		},
		"coords": [
			{
				"x": -0.5607875012,
				"y": -0.7521339208,
				"z": 2.3602113437,
				"element": "O" 
			},
			{
				"x": -0.6935606706,
				"y": 0.562823824,
				"z": 2.6463746123,
				"element": "C" 
			},
			{
				"x": -1.4108960983,
				"y": 0.9356223943,
				"z": 3.5393155025,
				"element": "O" 
			},
			{
				"x": 0.1486996854,
				"y": 1.5451984697,
				"z": 1.8103343384,
				"element": "C" 
			},
			{
				"x": 0.6822673739,
				"y": 1.0219095048,
				"z": 0.4959961786,
				"element": "C" 
			},
			{
				"x": -0.0747904102,
				"y": 1.1494452738,
				"z": -0.6783907348,
				"element": "C" 
			},
			{
				"x": 0.3982287232,
				"y": 0.6502045817,
				"z": -1.8894651219,
				"element": "C" 
			},
			{
				"x": -0.6227669369,
				"y": 0.8304590382,
				"z": -3.4784683269,
				"element": "Br" 
			},
			{
				"x": 1.6388606188,
				"y": 0.0113143974,
				"z": -1.9337029088,
				"element": "C" 
			},
			{
				"x": 2.1032825263,
				"y": -0.4712401148,
				"z": -3.0938108455,
				"element": "F" 
			},
			{
				"x": 2.4055555403,
				"y": -0.1294948956,
				"z": -0.7836142199,
				"element": "C" 
			},
			{
				"x": 1.9269359786,
				"y": 0.3764444768,
				"z": 0.4250804817,
				"element": "C" 
			},
			{
				"x": 0.0216586761,
				"y": -0.8647888634,
				"z": 1.592192665,
				"element": "H" 
			},
			{
				"x": 0.9762924677,
				"y": 1.8569158073,
				"z": 2.458727345,
				"element": "H" 
			},
			{
				"x": -0.475581327,
				"y": 2.4301253248,
				"z": 1.6647773197,
				"element": "H" 
			},
			{
				"x": -1.0395940689,
				"y": 1.6453051085,
				"z": -0.6543895397,
				"element": "H" 
			},
			{
				"x": 3.3683227815,
				"y": -0.6240455384,
				"z": -0.8537747303,
				"element": "H" 
			},
			{
				"x": 2.5366726413,
				"y": 0.2808351317,
				"z": 1.3195066408,
				"element": "H" 
			}
		],
		 "valence_orbital": [ 
			{
				"type": "occ",
				"energy": -0.317,
				"method": "rhf"
			},
			{
				"type": "occ",
				"energy": -0.30437,
				"method": "rhf"
			},
			{
				"type": "occ",
				"energy": -0.28923,
				"method": "rhf"
			},
			{
				"type": "occ",
				"energy": -0.27218,
				"method": "rhf"
			},
			{
				"type": "occ",
				"energy": -0.2572,
				"method": "rhf"
			},
			{
				"type": "unocc",
				"energy": -0.04638,
				"method": "rhf"
			},
			{
				"type": "unocc",
				"energy": -0.03552,
				"method": "rhf"
			},
			{
				"type": "unocc",
				"energy": -0.01378,
				"method": "rhf"
			},
			{
				"type": "unocc",
				"energy": 0.00834,
				"method": "rhf"
			},
			{
				"type": "unocc",
				"energy": 0.07255,
				"method": "rhf"
			}
		],
		"cosmo_sigma_profile": { 
			"-0.025": 0.0,
			"-0.024": 0.0,
			"-0.023": 0.0,
			"-0.022": 0.0,
			"-0.021": 0.0,
			"-0.02": 0.0,
			"-0.019": 0.0,
			"-0.018": 0.0,
			"-0.017": 0.0,
			"-0.016": 0.0,
			"-0.015": 0.0164776074327,
			"-0.014": 0.429745940083,
			"-0.013": 0.899711990594,
			"-0.012": 0.886747109158,
			"-0.011": 1.03579721599,
			"-0.01": 1.77411828748,
			"-0.009": 3.15315810438,
			"-0.008": 11.1543240862,
			"-0.007": 12.6561645359,
			"-0.006": 10.2825313611,
			"-0.005": 10.0633834369,
			"-0.004": 9.30352432743,
			"-0.003": 9.55013448751,
			"-0.002": 10.0001765458,
			"-0.001": 14.1915489118,
			"0.0": 15.9579698755,
			"0.001": 16.9049940195,
			"0.002": 13.4272414476,
			"0.003": 16.9403646195,
			"0.004": 17.186977804,
			"0.005": 5.28305928306,
			"0.006": 2.33019917779,
			"0.007": 2.01185172361,
			"0.008": 2.46810043941,
			"0.009": 3.65084097568,
			"0.01": 4.87860118646,
			"0.011": 4.79969679752,
			"0.012": 5.65631763131,
			"0.013": 2.43007423836,
			"0.014": 0.0615521308672,
			"0.015": 0.0,
			"0.016": 0.0,
			"0.017": 0.0,
			"0.018": 0.0,
			"0.019": 0.0,
			"0.02": 0.0,
			"0.021": 0.0,
			"0.022": 0.0,
			"0.023": 0.0,
			"0.024": 0.0,
			"0.025": 0.0
		}
	}
}
