{
	 "smiles": "NNC(=O)NCCC1=CC=CS1", 
	 "Tm": 364.15, 
	 "num_atms": 23, 
	 "gaussian": { 
		 "optdone": 1, 
		 "sigma_profile": "yes", 
		 "theory": "DFT", 
		 "functional": "B3LYP", 
		 "basiset": "6-31G**", 
		 "properties": { 
			 "R2extent": 3414.4526, 
			 "electric_dipole_moment_norm": 2.60964294493, 
			 "electric_quadrupole_moment_norm": 9.56932852817, 
			 "total_energy": -911.015197058, 
			 "HOMO_LUMO_gap": 0.21499, 
			 "cosmo_polarized_energy": -15.51, 
			 "cosmo_cavitation_energy": 28.68, 
			 "cosmo_dispersion_energy": -20.79, 
			 "cosmo_repulsion_energy": 1.64, 
			 "cosmo_total_nonelectrostatic_energy": 9.53, 
			 "SMD_solvation_energy": 5.56 
		},
		"coords": [
			{
				"x": 0.7094154936,
				"y": 1.7769844887,
				"z": -3.4323856856,
				"element": "N" 
			},
			{
				"x": 0.7279035981,
				"y": 0.6982156483,
				"z": -2.5089861692,
				"element": "N" 
			},
			{
				"x": 1.2816671116,
				"y": 0.9540740841,
				"z": -1.2504277797,
				"element": "C" 
			},
			{
				"x": 1.86691441,
				"y": 2.0034524125,
				"z": -1.0005654258,
				"element": "O" 
			},
			{
				"x": 1.145006367,
				"y": -0.0525975614,
				"z": -0.3255619215,
				"element": "N" 
			},
			{
				"x": 0.6050127617,
				"y": -1.3827821334,
				"z": -0.5336461817,
				"element": "C" 
			},
			{
				"x": -0.8760342924,
				"y": -1.5374908337,
				"z": -0.1048800928,
				"element": "C" 
			},
			{
				"x": -1.0965476624,
				"y": -1.3219667561,
				"z": 1.3656589458,
				"element": "C" 
			},
			{
				"x": -1.3825182641,
				"y": -0.1533389748,
				"z": 2.0237930161,
				"element": "C" 
			},
			{
				"x": -1.4581546208,
				"y": -0.2994417246,
				"z": 3.443603728,
				"element": "C" 
			},
			{
				"x": -1.2235961784,
				"y": -1.5804617027,
				"z": 3.8570527602,
				"element": "C" 
			},
			{
				"x": -0.9101258123,
				"y": -2.6317342854,
				"z": 2.5116809202,
				"element": "S" 
			},
			{
				"x": 0.8003567257,
				"y": 2.632562781,
				"z": -2.8802963836,
				"element": "H" 
			},
			{
				"x": 1.5717630893,
				"y": 1.7151681919,
				"z": -3.9713270754,
				"element": "H" 
			},
			{
				"x": -0.1487355494,
				"y": 0.1935118364,
				"z": -2.5200596584,
				"element": "H" 
			},
			{
				"x": 1.5028434379,
				"y": 0.1917042897,
				"z": 0.5855358613,
				"element": "H" 
			},
			{
				"x": 1.215703669,
				"y": -2.0972816186,
				"z": 0.0294977409,
				"element": "H" 
			},
			{
				"x": 0.7147713431,
				"y": -1.641151328,
				"z": -1.5915541565,
				"element": "H" 
			},
			{
				"x": -1.4871379154,
				"y": -0.8140350044,
				"z": -0.6581202909,
				"element": "H" 
			},
			{
				"x": -1.2199357986,
				"y": -2.5348752848,
				"z": -0.4048250698,
				"element": "H" 
			},
			{
				"x": -1.538405368,
				"y": 0.7864502564,
				"z": 1.5050704249,
				"element": "H" 
			},
			{
				"x": -1.6819668805,
				"y": 0.5149636375,
				"z": 4.1233275269,
				"element": "H" 
			},
			{
				"x": -1.2267996649,
				"y": -1.9753304188,
				"z": 4.8634149667,
				"element": "H" 
			}
		],
		 "valence_orbital": [ 
			{
				"type": "occ",
				"energy": -0.2628,
				"method": "rhf"
			},
			{
				"type": "occ",
				"energy": -0.25575,
				"method": "rhf"
			},
			{
				"type": "occ",
				"energy": -0.25194,
				"method": "rhf"
			},
			{
				"type": "occ",
				"energy": -0.24374,
				"method": "rhf"
			},
			{
				"type": "occ",
				"energy": -0.23212,
				"method": "rhf"
			},
			{
				"type": "unocc",
				"energy": -0.01713,
				"method": "rhf"
			},
			{
				"type": "unocc",
				"energy": 0.02206,
				"method": "rhf"
			},
			{
				"type": "unocc",
				"energy": 0.04771,
				"method": "rhf"
			},
			{
				"type": "unocc",
				"energy": 0.05771,
				"method": "rhf"
			},
			{
				"type": "unocc",
				"energy": 0.07716,
				"method": "rhf"
			}
		],
		"cosmo_sigma_profile": { 
			"-0.025": 0.0,
			"-0.024": 0.0,
			"-0.023": 0.0,
			"-0.022": 0.0,
			"-0.021": 0.0,
			"-0.02": 0.0,
			"-0.019": 0.0,
			"-0.018": 0.0,
			"-0.017": 0.0,
			"-0.016": 0.0,
			"-0.015": 0.0,
			"-0.014": 0.0,
			"-0.013": 0.377317880083,
			"-0.012": 1.78260873505,
			"-0.011": 3.96322885589,
			"-0.01": 3.94170569813,
			"-0.009": 3.61671560475,
			"-0.008": 5.80128964294,
			"-0.007": 7.06312890585,
			"-0.006": 10.0674123673,
			"-0.005": 17.012980896,
			"-0.004": 20.6555841333,
			"-0.003": 16.8471087497,
			"-0.002": 14.334665099,
			"-0.001": 12.3290567057,
			"0.0": 11.4056296346,
			"0.001": 12.6775720522,
			"0.002": 12.8617750476,
			"0.003": 12.4458436272,
			"0.004": 12.856469072,
			"0.005": 13.4910611199,
			"0.006": 8.39234962367,
			"0.007": 3.0846861411,
			"0.008": 2.4936622172,
			"0.009": 1.731104627,
			"0.01": 2.05635109766,
			"0.011": 1.62811451329,
			"0.012": 2.63479444188,
			"0.013": 2.53114039858,
			"0.014": 5.85515235917,
			"0.015": 3.04902144419,
			"0.016": 0.459432533127,
			"0.017": 0.736392458383,
			"0.018": 0.0450472327915,
			"0.019": 0.0,
			"0.02": 0.0,
			"0.021": 0.0,
			"0.022": 0.0,
			"0.023": 0.0,
			"0.024": 0.0,
			"0.025": 0.0
		}
	}
}
