{
	 "smiles": "OC(=O)CC1=C(C=CC(O)=O)C=C2CCC(=O)NC2=C1", 
	 "Tm": 507.15, 
	 "num_atms": 33, 
	 "gaussian": { 
		 "optdone": 1, 
		 "sigma_profile": "yes", 
		 "theory": "DFT", 
		 "functional": "B3LYP", 
		 "basiset": "6-31G**", 
		 "properties": { 
			 "R2extent": 7283.4499, 
			 "electric_dipole_moment_norm": 3.07615318539, 
			 "electric_quadrupole_moment_norm": 42.0316217816, 
			 "total_energy": -972.236330468, 
			 "HOMO_LUMO_gap": 0.15152, 
			 "cosmo_polarized_energy": -30.35, 
			 "cosmo_cavitation_energy": 38.46, 
			 "cosmo_dispersion_energy": -26.96, 
			 "cosmo_repulsion_energy": 2.09, 
			 "cosmo_total_nonelectrostatic_energy": 13.59, 
			 "SMD_solvation_energy": 9.1 
		},
		"coords": [
			{
				"x": 2.3663491398,
				"y": -1.2852412959,
				"z": 2.6045471049,
				"element": "O" 
			},
			{
				"x": 2.6712008766,
				"y": -1.6312386376,
				"z": 1.3334714921,
				"element": "C" 
			},
			{
				"x": 3.7776849133,
				"y": -1.5079476457,
				"z": 0.8595721848,
				"element": "O" 
			},
			{
				"x": 1.4509301077,
				"y": -2.1469482481,
				"z": 0.5857078831,
				"element": "C" 
			},
			{
				"x": 0.7038930372,
				"y": -1.0009012651,
				"z": -0.0839106206,
				"element": "C" 
			},
			{
				"x": -0.4377141624,
				"y": -0.3879844311,
				"z": 0.4873205388,
				"element": "C" 
			},
			{
				"x": -0.9529124925,
				"y": -0.8011840607,
				"z": 1.7935358921,
				"element": "C" 
			},
			{
				"x": -2.2018919217,
				"y": -0.6192746535,
				"z": 2.2646556752,
				"element": "C" 
			},
			{
				"x": -2.5477125483,
				"y": -1.079558251,
				"z": 3.6330612046,
				"element": "C" 
			},
			{
				"x": -3.8387772618,
				"y": -0.8676782488,
				"z": 4.0191693419,
				"element": "O" 
			},
			{
				"x": -1.7760811213,
				"y": -1.6169824024,
				"z": 4.395517995,
				"element": "O" 
			},
			{
				"x": -1.0581438357,
				"y": 0.6529425274,
				"z": -0.2349147425,
				"element": "C" 
			},
			{
				"x": -0.596202698,
				"y": 1.0967047873,
				"z": -1.4647681172,
				"element": "C" 
			},
			{
				"x": -1.2780389994,
				"y": 2.1716234664,
				"z": -2.2786249075,
				"element": "C" 
			},
			{
				"x": -0.2525967224,
				"y": 3.0025842813,
				"z": -3.0641089184,
				"element": "C" 
			},
			{
				"x": 0.728786271,
				"y": 2.1402730644,
				"z": -3.843712654,
				"element": "C" 
			},
			{
				"x": 1.2404013707,
				"y": 2.4665019893,
				"z": -4.900341418,
				"element": "O" 
			},
			{
				"x": 1.0505821685,
				"y": 0.9375533823,
				"z": -3.2320767817,
				"element": "N" 
			},
			{
				"x": 0.5578074209,
				"y": 0.4915295664,
				"z": -2.0013082619,
				"element": "C" 
			},
			{
				"x": 1.1877708998,
				"y": -0.5476567518,
				"z": -1.3126466511,
				"element": "C" 
			},
			{
				"x": 3.1789741817,
				"y": -0.9306782798,
				"z": 3.0038339677,
				"element": "H" 
			},
			{
				"x": 0.8075237694,
				"y": -2.7032603627,
				"z": 1.2681921,
				"element": "H" 
			},
			{
				"x": 1.8178375807,
				"y": -2.8358414576,
				"z": -0.1779968082,
				"element": "H" 
			},
			{
				"x": -0.2659404507,
				"y": -1.2959905886,
				"z": 2.4755722054,
				"element": "H" 
			},
			{
				"x": -2.9769006146,
				"y": -0.1568896049,
				"z": 1.6561097013,
				"element": "H" 
			},
			{
				"x": -4.3351468835,
				"y": -0.435990736,
				"z": 3.3103642448,
				"element": "H" 
			},
			{
				"x": -1.9230739891,
				"y": 1.1476591091,
				"z": 0.1978276449,
				"element": "H" 
			},
			{
				"x": -1.9735832469,
				"y": 1.6992150331,
				"z": -2.9874517774,
				"element": "H" 
			},
			{
				"x": -1.8822023091,
				"y": 2.8186545515,
				"z": -1.6351216783,
				"element": "H" 
			},
			{
				"x": 0.3421104286,
				"y": 3.6153169429,
				"z": -2.3728041796,
				"element": "H" 
			},
			{
				"x": -0.7277236652,
				"y": 3.6829030009,
				"z": -3.7733971439,
				"element": "H" 
			},
			{
				"x": 1.7895123883,
				"y": 0.4155819449,
				"z": -3.6867716598,
				"element": "H" 
			},
			{
				"x": 2.0792783682,
				"y": -1.0059967258,
				"z": -1.7329028567,
				"element": "H" 
			}
		],
		 "valence_orbital": [ 
			{
				"type": "occ",
				"energy": -0.284,
				"method": "rhf"
			},
			{
				"type": "occ",
				"energy": -0.26978,
				"method": "rhf"
			},
			{
				"type": "occ",
				"energy": -0.26579,
				"method": "rhf"
			},
			{
				"type": "occ",
				"energy": -0.26401,
				"method": "rhf"
			},
			{
				"type": "occ",
				"energy": -0.22558,
				"method": "rhf"
			},
			{
				"type": "unocc",
				"energy": -0.07406,
				"method": "rhf"
			},
			{
				"type": "unocc",
				"energy": -0.032,
				"method": "rhf"
			},
			{
				"type": "unocc",
				"energy": -0.00749,
				"method": "rhf"
			},
			{
				"type": "unocc",
				"energy": 0.00363,
				"method": "rhf"
			},
			{
				"type": "unocc",
				"energy": 0.02978,
				"method": "rhf"
			}
		],
		"cosmo_sigma_profile": { 
			"-0.025": 0.0,
			"-0.024": 0.0,
			"-0.023": 0.0,
			"-0.022": 0.0,
			"-0.021": 0.0,
			"-0.02": 0.0,
			"-0.019": 0.886398775074,
			"-0.018": 1.93643442989,
			"-0.017": 2.37978379106,
			"-0.016": 2.37203146618,
			"-0.015": 2.24285317714,
			"-0.014": 2.66821910647,
			"-0.013": 2.52385325789,
			"-0.012": 3.36684100968,
			"-0.011": 3.06579864769,
			"-0.01": 3.77566154188,
			"-0.009": 2.52301203782,
			"-0.008": 4.02145847333,
			"-0.007": 9.75576365387,
			"-0.006": 16.590621581,
			"-0.005": 20.7825244149,
			"-0.004": 19.5648691735,
			"-0.003": 20.948037731,
			"-0.002": 19.450560387,
			"-0.001": 13.9282972734,
			"0.0": 14.6071695178,
			"0.001": 16.6914017693,
			"0.002": 20.3999958974,
			"0.003": 19.4102522811,
			"0.004": 9.65868560019,
			"0.005": 6.11078198395,
			"0.006": 5.67994933488,
			"0.007": 6.12786552721,
			"0.008": 4.68457191323,
			"0.009": 5.8086578843,
			"0.01": 7.58387675901,
			"0.011": 11.4898751628,
			"0.012": 12.4321759448,
			"0.013": 9.31371994144,
			"0.014": 2.47785371831,
			"0.015": 0.0553520643135,
			"0.016": 0.0,
			"0.017": 0.0,
			"0.018": 0.0,
			"0.019": 0.0,
			"0.02": 0.0,
			"0.021": 0.0,
			"0.022": 0.0,
			"0.023": 0.0,
			"0.024": 0.0,
			"0.025": 0.0
		}
	}
}
