{
	 "smiles": "NC1=CC=C(CC(=O)N2CCCC2)C=C1", 
	 "Tm": 381.15, 
	 "num_atms": 31, 
	 "gaussian": { 
		 "optdone": 1, 
		 "sigma_profile": "yes", 
		 "theory": "DFT", 
		 "functional": "B3LYP", 
		 "basiset": "6-31G**", 
		 "properties": { 
			 "R2extent": 4840.2647, 
			 "electric_dipole_moment_norm": 4.75063947906, 
			 "electric_quadrupole_moment_norm": 19.9628394857, 
			 "total_energy": -651.670799171, 
			 "HOMO_LUMO_gap": 0.19933, 
			 "cosmo_polarized_energy": -15.91, 
			 "cosmo_cavitation_energy": 32.92, 
			 "cosmo_dispersion_energy": -23.64, 
			 "cosmo_repulsion_energy": 1.88, 
			 "cosmo_total_nonelectrostatic_energy": 11.17, 
			 "SMD_solvation_energy": 4.65 
		},
		"coords": [
			{
				"x": -2.863072071,
				"y": 5.1437580203,
				"z": 1.0841868686,
				"element": "N" 
			},
			{
				"x": -2.590955183,
				"y": 3.772480618,
				"z": 1.0784397632,
				"element": "C" 
			},
			{
				"x": -2.2071180101,
				"y": 3.1101065936,
				"z": 2.2585405073,
				"element": "C" 
			},
			{
				"x": -1.9941424575,
				"y": 1.7361960244,
				"z": 2.2670328357,
				"element": "C" 
			},
			{
				"x": -2.1538741802,
				"y": 0.9679760022,
				"z": 1.1036992427,
				"element": "C" 
			},
			{
				"x": -1.9359766638,
				"y": -0.5367717405,
				"z": 1.1315205957,
				"element": "C" 
			},
			{
				"x": -0.5930943015,
				"y": -0.9139154219,
				"z": 1.7622536344,
				"element": "C" 
			},
			{
				"x": -0.4969697791,
				"y": -1.1366536896,
				"z": 2.9693750596,
				"element": "O" 
			},
			{
				"x": 0.495078293,
				"y": -0.9635727008,
				"z": 0.9427141966,
				"element": "N" 
			},
			{
				"x": 0.5460582277,
				"y": -0.6434862136,
				"z": -0.4904827807,
				"element": "C" 
			},
			{
				"x": 2.0512235048,
				"y": -0.4906312375,
				"z": -0.7640505737,
				"element": "C" 
			},
			{
				"x": 2.6938720305,
				"y": -1.4576903872,
				"z": 0.2451463843,
				"element": "C" 
			},
			{
				"x": 1.8166579638,
				"y": -1.2964634629,
				"z": 1.4941524171,
				"element": "C" 
			},
			{
				"x": -2.5339279587,
				"y": 1.6317564488,
				"z": -0.0681734759,
				"element": "C" 
			},
			{
				"x": -2.7504831582,
				"y": 3.00909764,
				"z": -0.088370555,
				"element": "C" 
			},
			{
				"x": -2.7779054776,
				"y": 5.6000024924,
				"z": 0.1861771948,
				"element": "H" 
			},
			{
				"x": -2.3988290869,
				"y": 5.6670692456,
				"z": 1.8139266924,
				"element": "H" 
			},
			{
				"x": -2.0815581254,
				"y": 3.6818698204,
				"z": 3.1752240198,
				"element": "H" 
			},
			{
				"x": -1.6908980082,
				"y": 1.2427631835,
				"z": 3.1861655674,
				"element": "H" 
			},
			{
				"x": -2.6942298013,
				"y": -1.019493876,
				"z": 1.7563972529,
				"element": "H" 
			},
			{
				"x": -2.0336311506,
				"y": -0.9447794604,
				"z": 0.1203365316,
				"element": "H" 
			},
			{
				"x": -0.0143441712,
				"y": 0.2689599604,
				"z": -0.712567311,
				"element": "H" 
			},
			{
				"x": 0.1200381467,
				"y": -1.4598218248,
				"z": -1.0924848947,
				"element": "H" 
			},
			{
				"x": 2.3094635362,
				"y": -0.7093014341,
				"z": -1.8038209579,
				"element": "H" 
			},
			{
				"x": 2.3633061656,
				"y": 0.5377971437,
				"z": -0.5496444061,
				"element": "H" 
			},
			{
				"x": 2.6322681994,
				"y": -2.4864109746,
				"z": -0.128581593,
				"element": "H" 
			},
			{
				"x": 3.7464284058,
				"y": -1.2374002166,
				"z": 0.4419965591,
				"element": "H" 
			},
			{
				"x": 1.7534810391,
				"y": -2.1967470395,
				"z": 2.1109102937,
				"element": "H" 
			},
			{
				"x": 2.1709617132,
				"y": -0.4843814636,
				"z": 2.1427808127,
				"element": "H" 
			},
			{
				"x": -2.6730013121,
				"y": 1.0636691551,
				"z": -0.9855883587,
				"element": "H" 
			},
			{
				"x": -3.0516263297,
				"y": 3.4968187951,
				"z": -1.012611523,
				"element": "H" 
			}
		],
		 "valence_orbital": [ 
			{
				"type": "occ",
				"energy": -0.29774,
				"method": "rhf"
			},
			{
				"type": "occ",
				"energy": -0.24264,
				"method": "rhf"
			},
			{
				"type": "occ",
				"energy": -0.23277,
				"method": "rhf"
			},
			{
				"type": "occ",
				"energy": -0.22667,
				"method": "rhf"
			},
			{
				"type": "occ",
				"energy": -0.19518,
				"method": "rhf"
			},
			{
				"type": "unocc",
				"energy": 0.00415,
				"method": "rhf"
			},
			{
				"type": "unocc",
				"energy": 0.01649,
				"method": "rhf"
			},
			{
				"type": "unocc",
				"energy": 0.0404,
				"method": "rhf"
			},
			{
				"type": "unocc",
				"energy": 0.08137,
				"method": "rhf"
			},
			{
				"type": "unocc",
				"energy": 0.08386,
				"method": "rhf"
			}
		],
		"cosmo_sigma_profile": { 
			"-0.025": 0.0,
			"-0.024": 0.0,
			"-0.023": 0.0,
			"-0.022": 0.0,
			"-0.021": 0.0,
			"-0.02": 0.0,
			"-0.019": 0.0,
			"-0.018": 0.0,
			"-0.017": 0.0,
			"-0.016": 0.0,
			"-0.015": 0.0,
			"-0.014": 0.0,
			"-0.013": 0.124350140462,
			"-0.012": 2.16247502065,
			"-0.011": 2.91047661834,
			"-0.01": 2.66749474298,
			"-0.009": 3.13269407328,
			"-0.008": 2.51516000787,
			"-0.007": 3.09432746351,
			"-0.006": 4.23942936046,
			"-0.005": 12.4621584237,
			"-0.004": 24.5329293208,
			"-0.003": 35.4094229066,
			"-0.002": 33.7318418481,
			"-0.001": 22.5734666858,
			"0.0": 18.627039945,
			"0.001": 11.4238786942,
			"0.002": 9.56719012232,
			"0.003": 9.05096400981,
			"0.004": 8.74233915535,
			"0.005": 9.0852595789,
			"0.006": 11.2337286289,
			"0.007": 7.97188999399,
			"0.008": 3.03192191786,
			"0.009": 1.73341150714,
			"0.01": 1.81911028802,
			"0.011": 2.88524153976,
			"0.012": 2.04717234301,
			"0.013": 2.285104114,
			"0.014": 4.54646327384,
			"0.015": 4.03451646995,
			"0.016": 0.502980704456,
			"0.017": 0.0,
			"0.018": 0.0,
			"0.019": 0.0,
			"0.02": 0.0,
			"0.021": 0.0,
			"0.022": 0.0,
			"0.023": 0.0,
			"0.024": 0.0,
			"0.025": 0.0
		}
	}
}
