{
	 "smiles": "NCC1=CC=C(C=C1)N1CCNCC1", 
	 "Tm": 437.15, 
	 "num_atms": 31, 
	 "gaussian": { 
		 "optdone": 1, 
		 "sigma_profile": "yes", 
		 "theory": "DFT", 
		 "functional": "B3LYP", 
		 "basiset": "6-31G**", 
		 "properties": { 
			 "R2extent": 4448.5772, 
			 "electric_dipole_moment_norm": 3.24402602486, 
			 "electric_quadrupole_moment_norm": 14.3601461521, 
			 "total_energy": -593.646255673, 
			 "HOMO_LUMO_gap": 0.18753, 
			 "cosmo_polarized_energy": -11.43, 
			 "cosmo_cavitation_energy": 31.86, 
			 "cosmo_dispersion_energy": -23.57, 
			 "cosmo_repulsion_energy": 1.86, 
			 "cosmo_total_nonelectrostatic_energy": 10.16, 
			 "SMD_solvation_energy": 0.1 
		},
		"coords": [
			{
				"x": 3.6941625766,
				"y": 3.595724043,
				"z": 1.1386747926,
				"element": "N" 
			},
			{
				"x": 2.2841031759,
				"y": 3.9727557119,
				"z": 0.9177044219,
				"element": "C" 
			},
			{
				"x": 1.2922276734,
				"y": 2.827559528,
				"z": 0.8510520325,
				"element": "C" 
			},
			{
				"x": 1.0122154636,
				"y": 2.1716435827,
				"z": -0.3546744234,
				"element": "C" 
			},
			{
				"x": 0.1452182685,
				"y": 1.0850447682,
				"z": -0.41986617,
				"element": "C" 
			},
			{
				"x": -0.4888285565,
				"y": 0.5916384384,
				"z": 0.7432564083,
				"element": "C" 
			},
			{
				"x": -0.208558122,
				"y": 1.2511187384,
				"z": 1.9612125074,
				"element": "C" 
			},
			{
				"x": 0.6550082743,
				"y": 2.3423951671,
				"z": 1.9998531769,
				"element": "C" 
			},
			{
				"x": -1.3566608091,
				"y": -0.4903954513,
				"z": 0.6833736984,
				"element": "N" 
			},
			{
				"x": -1.3669485022,
				"y": -1.3909619421,
				"z": -0.4663468186,
				"element": "C" 
			},
			{
				"x": -1.8368426624,
				"y": -2.7833482152,
				"z": -0.0249856508,
				"element": "C" 
			},
			{
				"x": -3.1569187509,
				"y": -2.7960618621,
				"z": 0.617176079,
				"element": "N" 
			},
			{
				"x": -3.4902101148,
				"y": -1.5380217182,
				"z": 1.3017060497,
				"element": "C" 
			},
			{
				"x": -2.2293021895,
				"y": -0.8320336028,
				"z": 1.8020877517,
				"element": "C" 
			},
			{
				"x": 3.755089348,
				"y": 3.0520282324,
				"z": 1.998343173,
				"element": "H" 
			},
			{
				"x": 3.9795252997,
				"y": 2.9542318011,
				"z": 0.4001760579,
				"element": "H" 
			},
			{
				"x": 2.2444000479,
				"y": 4.5510772803,
				"z": -0.0131234767,
				"element": "H" 
			},
			{
				"x": 2.0008652151,
				"y": 4.6605762977,
				"z": 1.7232532679,
				"element": "H" 
			},
			{
				"x": 1.4707719073,
				"y": 2.5288987096,
				"z": -1.2752600863,
				"element": "H" 
			},
			{
				"x": -0.0663889856,
				"y": 0.6390793595,
				"z": -1.3851446133,
				"element": "H" 
			},
			{
				"x": -0.6496277283,
				"y": 0.8999602662,
				"z": 2.8870777865,
				"element": "H" 
			},
			{
				"x": 0.8423793286,
				"y": 2.8247740715,
				"z": 2.9576787885,
				"element": "H" 
			},
			{
				"x": -0.3517800048,
				"y": -1.4704215288,
				"z": -0.8732346547,
				"element": "H" 
			},
			{
				"x": -2.0116482522,
				"y": -1.013962249,
				"z": -1.2789242553,
				"element": "H" 
			},
			{
				"x": -1.090072443,
				"y": -3.1893754992,
				"z": 0.6707976551,
				"element": "H" 
			},
			{
				"x": -1.8549235118,
				"y": -3.4548920766,
				"z": -0.8891334516,
				"element": "H" 
			},
			{
				"x": -3.8734041225,
				"y": -3.0064349232,
				"z": -0.0688868765,
				"element": "H" 
			},
			{
				"x": -4.1415258524,
				"y": -1.7472323787,
				"z": 2.1600600414,
				"element": "H" 
			},
			{
				"x": -4.031066882,
				"y": -0.8311604023,
				"z": 0.6510551648,
				"element": "H" 
			},
			{
				"x": -2.5342124938,
				"y": 0.0878716849,
				"z": 2.3101257091,
				"element": "H" 
			},
			{
				"x": -1.721746595,
				"y": -1.4629758313,
				"z": 2.5507159148,
				"element": "H" 
			}
		],
		 "valence_orbital": [ 
			{
				"type": "occ",
				"energy": -0.27438,
				"method": "rhf"
			},
			{
				"type": "occ",
				"energy": -0.24063,
				"method": "rhf"
			},
			{
				"type": "occ",
				"energy": -0.22852,
				"method": "rhf"
			},
			{
				"type": "occ",
				"energy": -0.22077,
				"method": "rhf"
			},
			{
				"type": "occ",
				"energy": -0.18118,
				"method": "rhf"
			},
			{
				"type": "unocc",
				"energy": 0.00635,
				"method": "rhf"
			},
			{
				"type": "unocc",
				"energy": 0.02094,
				"method": "rhf"
			},
			{
				"type": "unocc",
				"energy": 0.06902,
				"method": "rhf"
			},
			{
				"type": "unocc",
				"energy": 0.09521,
				"method": "rhf"
			},
			{
				"type": "unocc",
				"energy": 0.10172,
				"method": "rhf"
			}
		],
		"cosmo_sigma_profile": { 
			"-0.025": 0.0,
			"-0.024": 0.0,
			"-0.023": 0.0,
			"-0.022": 0.0,
			"-0.021": 0.0,
			"-0.02": 0.0,
			"-0.019": 0.0,
			"-0.018": 0.0,
			"-0.017": 0.0,
			"-0.016": 0.0,
			"-0.015": 0.0,
			"-0.014": 0.0,
			"-0.013": 0.0,
			"-0.012": 0.0,
			"-0.011": 0.0215309250616,
			"-0.01": 1.16165615389,
			"-0.009": 2.73347361207,
			"-0.008": 3.74487444572,
			"-0.007": 4.42592985133,
			"-0.006": 4.25597555455,
			"-0.005": 12.7038908359,
			"-0.004": 24.8716333735,
			"-0.003": 38.1626460596,
			"-0.002": 36.0016370989,
			"-0.001": 20.9568226428,
			"0.0": 15.8409118592,
			"0.001": 9.26645694516,
			"0.002": 10.9986956868,
			"0.003": 7.38838946616,
			"0.004": 8.48131791824,
			"0.005": 9.67277736881,
			"0.006": 8.90380631935,
			"0.007": 9.18281955497,
			"0.008": 5.48697110338,
			"0.009": 1.24825392477,
			"0.01": 1.39653279343,
			"0.011": 1.52430225742,
			"0.012": 1.20563422662,
			"0.013": 1.21221786821,
			"0.014": 1.34970904684,
			"0.015": 1.30812586806,
			"0.016": 1.15763039675,
			"0.017": 1.11141260352,
			"0.018": 0.985705000356,
			"0.019": 0.673813399096,
			"0.02": 0.684306717821,
			"0.021": 0.0531637156864,
			"0.022": 0.0,
			"0.023": 0.0,
			"0.024": 0.0,
			"0.025": 0.0
		}
	}
}
