{
	 "smiles": "CCOC(=O)C1C(C(C(=O)OCC)C(O)(NC1(O)C(F)(F)F)C(F)(F)F)C1=CC=C(C)C=C1", 
	 "Tm": 366.15, 
	 "num_atms": 56, 
	 "gaussian": { 
		 "optdone": 1, 
		 "sigma_profile": "yes", 
		 "theory": "DFT", 
		 "functional": "B3LYP", 
		 "basiset": "6-31G**", 
		 "properties": { 
			 "R2extent": 13832.8233, 
			 "electric_dipole_moment_norm": 5.62366113222, 
			 "electric_quadrupole_moment_norm": 19.1010038891, 
			 "total_energy": -1881.17214979, 
			 "HOMO_LUMO_gap": 0.21938, 
			 "cosmo_polarized_energy": -17.11, 
			 "cosmo_cavitation_energy": 58.27, 
			 "cosmo_dispersion_energy": -35.29, 
			 "cosmo_repulsion_energy": 2.57, 
			 "cosmo_total_nonelectrostatic_energy": 25.54, 
			 "SMD_solvation_energy": 12.61 
		},
		"coords": [
			{
				"x": 3.3142865218,
				"y": -0.687599802,
				"z": -3.9670797584,
				"element": "C" 
			},
			{
				"x": 2.0253359276,
				"y": -1.4261294396,
				"z": -3.6660046334,
				"element": "C" 
			},
			{
				"x": 1.8820563198,
				"y": -1.4807483739,
				"z": -2.2209648099,
				"element": "O" 
			},
			{
				"x": 0.7303899855,
				"y": -2.0075003543,
				"z": -1.7488590386,
				"element": "C" 
			},
			{
				"x": -0.1493914803,
				"y": -2.4315779715,
				"z": -2.4632788743,
				"element": "O" 
			},
			{
				"x": 0.5996811931,
				"y": -1.9372028157,
				"z": -0.2294041988,
				"element": "C" 
			},
			{
				"x": -0.1668541634,
				"y": -0.6249840941,
				"z": 0.1423430521,
				"element": "C" 
			},
			{
				"x": -0.373003802,
				"y": -0.5905493011,
				"z": 1.6940925199,
				"element": "C" 
			},
			{
				"x": -1.0211040008,
				"y": 0.7340013871,
				"z": 2.0792868245,
				"element": "C" 
			},
			{
				"x": -0.4558482165,
				"y": 1.6827880913,
				"z": 2.5962587348,
				"element": "O" 
			},
			{
				"x": -2.3119912638,
				"y": 0.7464300135,
				"z": 1.7313343834,
				"element": "O" 
			},
			{
				"x": -3.0299714604,
				"y": 1.9894041274,
				"z": 1.962127771,
				"element": "C" 
			},
			{
				"x": -4.4570159625,
				"y": 1.7806616524,
				"z": 1.4960325862,
				"element": "C" 
			},
			{
				"x": 0.8856741587,
				"y": -0.9209572135,
				"z": 2.5421843177,
				"element": "C" 
			},
			{
				"x": 1.7705009749,
				"y": 0.1620968775,
				"z": 2.7064196575,
				"element": "O" 
			},
			{
				"x": 1.5606880122,
				"y": -2.0737946661,
				"z": 2.003450278,
				"element": "N" 
			},
			{
				"x": 1.8854640368,
				"y": -2.1692295284,
				"z": 0.6048349064,
				"element": "C" 
			},
			{
				"x": 2.9650773373,
				"y": -1.3239400562,
				"z": 0.2765511445,
				"element": "O" 
			},
			{
				"x": 2.368397383,
				"y": -3.6372230795,
				"z": 0.4070101721,
				"element": "C" 
			},
			{
				"x": 3.3846496383,
				"y": -3.9166820599,
				"z": 1.2452644809,
				"element": "F" 
			},
			{
				"x": 1.3926246055,
				"y": -4.538678796,
				"z": 0.6267249253,
				"element": "F" 
			},
			{
				"x": 2.815207955,
				"y": -3.8272512183,
				"z": -0.855426302,
				"element": "F" 
			},
			{
				"x": 0.4332420912,
				"y": -1.3673379303,
				"z": 3.9672557659,
				"element": "C" 
			},
			{
				"x": -0.4718761792,
				"y": -2.3673397836,
				"z": 3.9312603405,
				"element": "F" 
			},
			{
				"x": 1.4904587192,
				"y": -1.7966558899,
				"z": 4.6817251186,
				"element": "F" 
			},
			{
				"x": -0.1300488595,
				"y": -0.3425046448,
				"z": 4.6415335296,
				"element": "F" 
			},
			{
				"x": 0.318344396,
				"y": 0.6587876088,
				"z": -0.532199434,
				"element": "C" 
			},
			{
				"x": 1.4977254103,
				"y": 1.3434243541,
				"z": -0.1984562983,
				"element": "C" 
			},
			{
				"x": 1.864599234,
				"y": 2.4977322705,
				"z": -0.887804449,
				"element": "C" 
			},
			{
				"x": 1.0807896459,
				"y": 3.0176375555,
				"z": -1.9280371286,
				"element": "C" 
			},
			{
				"x": 1.4774452331,
				"y": 4.2884468862,
				"z": -2.6414962241,
				"element": "C" 
			},
			{
				"x": -0.0932503878,
				"y": 2.3334377288,
				"z": -2.2597831123,
				"element": "C" 
			},
			{
				"x": -0.4682201384,
				"y": 1.1790703991,
				"z": -1.5706995119,
				"element": "C" 
			},
			{
				"x": 4.1780809065,
				"y": -1.2127895329,
				"z": -3.548669634,
				"element": "H" 
			},
			{
				"x": 3.2855704795,
				"y": 0.3250236221,
				"z": -3.5550104975,
				"element": "H" 
			},
			{
				"x": 3.4517521344,
				"y": -0.6159243778,
				"z": -5.0503630952,
				"element": "H" 
			},
			{
				"x": 1.1494233996,
				"y": -0.9153379001,
				"z": -4.0737253064,
				"element": "H" 
			},
			{
				"x": 2.0306117316,
				"y": -2.4506424497,
				"z": -4.049160558,
				"element": "H" 
			},
			{
				"x": -0.0716798771,
				"y": -2.7604195255,
				"z": 0.0258633235,
				"element": "H" 
			},
			{
				"x": -1.1724517043,
				"y": -0.7858224015,
				"z": -0.2558766561,
				"element": "H" 
			},
			{
				"x": -1.1014863166,
				"y": -1.376964647,
				"z": 1.9081961559,
				"element": "H" 
			},
			{
				"x": -2.5234139009,
				"y": 2.7863081961,
				"z": 1.4101622765,
				"element": "H" 
			},
			{
				"x": -2.9712862353,
				"y": 2.2290027672,
				"z": 3.0276092336,
				"element": "H" 
			},
			{
				"x": -4.4896986461,
				"y": 1.5336312893,
				"z": 0.4311849012,
				"element": "H" 
			},
			{
				"x": -4.9378144082,
				"y": 0.972500525,
				"z": 2.0542377169,
				"element": "H" 
			},
			{
				"x": -5.0326410273,
				"y": 2.6977652728,
				"z": 1.6541235538,
				"element": "H" 
			},
			{
				"x": 1.2210774122,
				"y": 0.9548788381,
				"z": 2.8722108857,
				"element": "H" 
			},
			{
				"x": 2.3787096483,
				"y": -2.284540508,
				"z": 2.5672385447,
				"element": "H" 
			},
			{
				"x": 3.0025556154,
				"y": -1.2539865919,
				"z": -0.691587451,
				"element": "H" 
			},
			{
				"x": 2.131169521,
				"y": 0.9675060898,
				"z": 0.5949029711,
				"element": "H" 
			},
			{
				"x": 2.7830723502,
				"y": 3.0084040315,
				"z": -0.6073237993,
				"element": "H" 
			},
			{
				"x": 1.1802154182,
				"y": 5.1741356899,
				"z": -2.0660898314,
				"element": "H" 
			},
			{
				"x": 2.5613071812,
				"y": 4.3471997619,
				"z": -2.78317805,
				"element": "H" 
			},
			{
				"x": 1.0018092551,
				"y": 4.3628636526,
				"z": -3.6238492891,
				"element": "H" 
			},
			{
				"x": -0.7253288832,
				"y": 2.7062603626,
				"z": -3.0622866801,
				"element": "H" 
			},
			{
				"x": -1.3854169183,
				"y": 0.6683159019,
				"z": -1.8547054501,
				"element": "H" 
			}
		],
		 "valence_orbital": [ 
			{
				"type": "occ",
				"energy": -0.28482,
				"method": "rhf"
			},
			{
				"type": "occ",
				"energy": -0.28163,
				"method": "rhf"
			},
			{
				"type": "occ",
				"energy": -0.27234,
				"method": "rhf"
			},
			{
				"type": "occ",
				"energy": -0.2515,
				"method": "rhf"
			},
			{
				"type": "occ",
				"energy": -0.24114,
				"method": "rhf"
			},
			{
				"type": "unocc",
				"energy": -0.02176,
				"method": "rhf"
			},
			{
				"type": "unocc",
				"energy": -0.00955,
				"method": "rhf"
			},
			{
				"type": "unocc",
				"energy": -0.00601,
				"method": "rhf"
			},
			{
				"type": "unocc",
				"energy": 0.00607,
				"method": "rhf"
			},
			{
				"type": "unocc",
				"energy": 0.06619,
				"method": "rhf"
			}
		],
		"cosmo_sigma_profile": { 
			"-0.025": 0.0,
			"-0.024": 0.0,
			"-0.023": 0.0,
			"-0.022": 0.0,
			"-0.021": 0.0,
			"-0.02": 0.0,
			"-0.019": 0.0,
			"-0.018": 0.0,
			"-0.017": 0.0,
			"-0.016": 0.0,
			"-0.015": 0.0,
			"-0.014": 0.0,
			"-0.013": 0.0,
			"-0.012": 0.0,
			"-0.011": 0.425771693968,
			"-0.01": 1.33244708347,
			"-0.009": 2.19426931622,
			"-0.008": 3.6204549404,
			"-0.007": 6.0454104877,
			"-0.006": 13.3520733311,
			"-0.005": 28.4950950118,
			"-0.004": 42.3868969168,
			"-0.003": 39.3211227898,
			"-0.002": 39.6466869297,
			"-0.001": 41.6311394301,
			"0.0": 42.4197843743,
			"0.001": 36.1997249563,
			"0.002": 60.1975854762,
			"0.003": 33.6610675192,
			"0.004": 14.674751237,
			"0.005": 11.0556893726,
			"0.006": 8.72483141979,
			"0.007": 6.16718045274,
			"0.008": 4.97862814548,
			"0.009": 5.07488280412,
			"0.01": 5.20871358355,
			"0.011": 7.20210271117,
			"0.012": 3.10672945592,
			"0.013": 1.41771009913,
			"0.014": 0.134721296295,
			"0.015": 0.0,
			"0.016": 0.0,
			"0.017": 0.0,
			"0.018": 0.0,
			"0.019": 0.0,
			"0.02": 0.0,
			"0.021": 0.0,
			"0.022": 0.0,
			"0.023": 0.0,
			"0.024": 0.0,
			"0.025": 0.0
		}
	}
}
