{
	 "smiles": "ClC1=CNC(=C1)C(=O)C(Cl)(Cl)Cl", 
	 "Tm": 402.15, 
	 "num_atms": 15, 
	 "gaussian": { 
		 "optdone": 1, 
		 "sigma_profile": "yes", 
		 "theory": "DFT", 
		 "functional": "B3LYP", 
		 "basiset": "6-31G**", 
		 "properties": { 
			 "R2extent": 4471.6169, 
			 "electric_dipole_moment_norm": 2.54147100121, 
			 "electric_quadrupole_moment_norm": 9.67144876945, 
			 "total_energy": -2201.15594226, 
			 "HOMO_LUMO_gap": 0.16153, 
			 "cosmo_polarized_energy": -8.9, 
			 "cosmo_cavitation_energy": 27.04, 
			 "cosmo_dispersion_energy": -20.08, 
			 "cosmo_repulsion_energy": 1.62, 
			 "cosmo_total_nonelectrostatic_energy": 8.57, 
			 "SMD_solvation_energy": 4.09 
		},
		"coords": [
			{
				"x": -1.4221277579,
				"y": -2.6541404957,
				"z": -1.3763028029,
				"element": "Cl" 
			},
			{
				"x": -0.2715747381,
				"y": -1.5884117893,
				"z": -0.6349761951,
				"element": "C" 
			},
			{
				"x": 0.7636346428,
				"y": -1.989344482,
				"z": 0.2042384652,
				"element": "C" 
			},
			{
				"x": 1.4333235927,
				"y": -0.8709035691,
				"z": 0.5726043809,
				"element": "N" 
			},
			{
				"x": 0.8606840231,
				"y": 0.2457120415,
				"z": -0.0048969104,
				"element": "C" 
			},
			{
				"x": -0.2210096505,
				"y": -0.1903160322,
				"z": -0.7735131745,
				"element": "C" 
			},
			{
				"x": 1.4834967748,
				"y": 1.5217459159,
				"z": 0.3078996453,
				"element": "C" 
			},
			{
				"x": 2.4558621664,
				"y": 1.5894668651,
				"z": 1.0398314181,
				"element": "O" 
			},
			{
				"x": 0.8902259879,
				"y": 2.8390778492,
				"z": -0.310419361,
				"element": "C" 
			},
			{
				"x": 0.9564058962,
				"y": 2.7294299339,
				"z": -2.1113300793,
				"element": "Cl" 
			},
			{
				"x": -0.8230973451,
				"y": 3.0256307164,
				"z": 0.2275787648,
				"element": "Cl" 
			},
			{
				"x": 1.8320211013,
				"y": 4.2486208644,
				"z": 0.2276411496,
				"element": "Cl" 
			},
			{
				"x": 1.0440523927,
				"y": -2.974896296,
				"z": 0.5426392756,
				"element": "H" 
			},
			{
				"x": 2.2396940285,
				"y": -0.8034189904,
				"z": 1.1781860776,
				"element": "H" 
			},
			{
				"x": -0.8876911149,
				"y": 0.4223474682,
				"z": -1.3588806539,
				"element": "H" 
			}
		],
		 "valence_orbital": [ 
			{
				"type": "occ",
				"energy": -0.32486,
				"method": "rhf"
			},
			{
				"type": "occ",
				"energy": -0.31419,
				"method": "rhf"
			},
			{
				"type": "occ",
				"energy": -0.29099,
				"method": "rhf"
			},
			{
				"type": "occ",
				"energy": -0.27282,
				"method": "rhf"
			},
			{
				"type": "occ",
				"energy": -0.24658,
				"method": "rhf"
			},
			{
				"type": "unocc",
				"energy": -0.08505,
				"method": "rhf"
			},
			{
				"type": "unocc",
				"energy": -0.04819,
				"method": "rhf"
			},
			{
				"type": "unocc",
				"energy": -0.00701,
				"method": "rhf"
			},
			{
				"type": "unocc",
				"energy": -0.00327,
				"method": "rhf"
			},
			{
				"type": "unocc",
				"energy": 0.02506,
				"method": "rhf"
			}
		],
		"cosmo_sigma_profile": { 
			"-0.025": 0.0,
			"-0.024": 0.0,
			"-0.023": 0.0,
			"-0.022": 0.0,
			"-0.021": 0.0,
			"-0.02": 0.0,
			"-0.019": 0.0,
			"-0.018": 0.0,
			"-0.017": 0.349291531908,
			"-0.016": 1.18647153334,
			"-0.015": 0.753270389627,
			"-0.014": 0.998564638165,
			"-0.013": 1.08344021928,
			"-0.012": 0.938099112552,
			"-0.011": 1.42296397321,
			"-0.01": 3.25222455952,
			"-0.009": 2.99214231315,
			"-0.008": 2.89937892064,
			"-0.007": 2.67019695588,
			"-0.006": 3.51520464426,
			"-0.005": 5.40843689476,
			"-0.004": 10.2009919915,
			"-0.003": 13.4541683032,
			"-0.002": 13.7733407036,
			"-0.001": 18.8787073512,
			"0.0": 20.4882399642,
			"0.001": 26.187728036,
			"0.002": 39.3709411573,
			"0.003": 26.2459053339,
			"0.004": 12.1041706438,
			"0.005": 5.38694427903,
			"0.006": 1.74505113333,
			"0.007": 1.50675421625,
			"0.008": 2.67639571728,
			"0.009": 2.6492716923,
			"0.01": 3.0745016194,
			"0.011": 1.08862909234,
			"0.012": 0.0,
			"0.013": 0.0,
			"0.014": 0.0,
			"0.015": 0.0,
			"0.016": 0.0,
			"0.017": 0.0,
			"0.018": 0.0,
			"0.019": 0.0,
			"0.02": 0.0,
			"0.021": 0.0,
			"0.022": 0.0,
			"0.023": 0.0,
			"0.024": 0.0,
			"0.025": 0.0
		}
	}
}
