{
	 "smiles": "CN(C(=O)CC#N)C1=CC=CC=C1", 
	 "Tm": 360.15, 
	 "num_atms": 23, 
	 "gaussian": { 
		 "optdone": 1, 
		 "sigma_profile": "yes", 
		 "theory": "DFT", 
		 "functional": "B3LYP", 
		 "basiset": "6-31G**", 
		 "properties": { 
			 "R2extent": 2928.5611, 
			 "electric_dipole_moment_norm": 4.0261413003, 
			 "electric_quadrupole_moment_norm": 13.9646021282, 
			 "total_energy": -571.799694723, 
			 "HOMO_LUMO_gap": 0.20964, 
			 "cosmo_polarized_energy": -15.37, 
			 "cosmo_cavitation_energy": 27.64, 
			 "cosmo_dispersion_energy": -19.34, 
			 "cosmo_repulsion_energy": 1.53, 
			 "cosmo_total_nonelectrostatic_energy": 9.83, 
			 "SMD_solvation_energy": 6.62 
		},
		"coords": [
			{
				"x": -0.7737298426,
				"y": -1.6553487225,
				"z": 0.5726478772,
				"element": "C" 
			},
			{
				"x": 0.1490587871,
				"y": -0.5340625578,
				"z": 0.789624012,
				"element": "N" 
			},
			{
				"x": 1.5148930788,
				"y": -0.7067471552,
				"z": 0.8521859436,
				"element": "C" 
			},
			{
				"x": 2.3091785935,
				"y": 0.1818046837,
				"z": 1.1097914611,
				"element": "O" 
			},
			{
				"x": 2.0564450414,
				"y": -2.1384156241,
				"z": 0.5967798395,
				"element": "C" 
			},
			{
				"x": 1.9553116168,
				"y": -2.5658416914,
				"z": -0.7986892484,
				"element": "C" 
			},
			{
				"x": 1.8590234657,
				"y": -2.8966466708,
				"z": -1.9074678232,
				"element": "N" 
			},
			{
				"x": -0.4232676677,
				"y": 0.7469854418,
				"z": 1.0975843701,
				"element": "C" 
			},
			{
				"x": -1.5408518301,
				"y": 0.8182019211,
				"z": 1.9383066431,
				"element": "C" 
			},
			{
				"x": -2.1355781757,
				"y": 2.0503856132,
				"z": 2.2129915576,
				"element": "C" 
			},
			{
				"x": -1.6156930872,
				"y": 3.2204084822,
				"z": 1.660844749,
				"element": "C" 
			},
			{
				"x": -0.4970843578,
				"y": 3.1479049531,
				"z": 0.827693097,
				"element": "C" 
			},
			{
				"x": 0.09850795,
				"y": 1.9215322033,
				"z": 0.5399828116,
				"element": "C" 
			},
			{
				"x": -0.9646963142,
				"y": -2.2266834242,
				"z": 1.4899998681,
				"element": "H" 
			},
			{
				"x": -0.3926868071,
				"y": -2.3296089611,
				"z": -0.1948994121,
				"element": "H" 
			},
			{
				"x": -1.72176271,
				"y": -1.2551094974,
				"z": 0.2130074095,
				"element": "H" 
			},
			{
				"x": 3.1093222233,
				"y": -2.0996868207,
				"z": 0.8844468877,
				"element": "H" 
			},
			{
				"x": 1.5558363993,
				"y": -2.8786177067,
				"z": 1.2309569981,
				"element": "H" 
			},
			{
				"x": -1.9430470502,
				"y": -0.0839775565,
				"z": 2.3880203599,
				"element": "H" 
			},
			{
				"x": -3.0021499344,
				"y": 2.0907918364,
				"z": 2.8664464104,
				"element": "H" 
			},
			{
				"x": -2.0763407783,
				"y": 4.1796094865,
				"z": 1.8769122589,
				"element": "H" 
			},
			{
				"x": -0.0854394604,
				"y": 4.0524052244,
				"z": 0.3895992249,
				"element": "H" 
			},
			{
				"x": 0.9660508597,
				"y": 1.8716165424,
				"z": -0.1046652955,
				"element": "H" 
			}
		],
		 "valence_orbital": [ 
			{
				"type": "occ",
				"energy": -0.33493,
				"method": "rhf"
			},
			{
				"type": "occ",
				"energy": -0.29161,
				"method": "rhf"
			},
			{
				"type": "occ",
				"energy": -0.27066,
				"method": "rhf"
			},
			{
				"type": "occ",
				"energy": -0.25524,
				"method": "rhf"
			},
			{
				"type": "occ",
				"energy": -0.23408,
				"method": "rhf"
			},
			{
				"type": "unocc",
				"energy": -0.02444,
				"method": "rhf"
			},
			{
				"type": "unocc",
				"energy": -0.00772,
				"method": "rhf"
			},
			{
				"type": "unocc",
				"energy": 0.01113,
				"method": "rhf"
			},
			{
				"type": "unocc",
				"energy": 0.02577,
				"method": "rhf"
			},
			{
				"type": "unocc",
				"energy": 0.03537,
				"method": "rhf"
			}
		],
		"cosmo_sigma_profile": { 
			"-0.025": 0.0,
			"-0.024": 0.0,
			"-0.023": 0.0,
			"-0.022": 0.0,
			"-0.021": 0.0,
			"-0.02": 0.0,
			"-0.019": 0.0,
			"-0.018": 0.0,
			"-0.017": 0.0,
			"-0.016": 0.0,
			"-0.015": 0.0,
			"-0.014": 0.0,
			"-0.013": 0.0,
			"-0.012": 0.0,
			"-0.011": 0.0352353020051,
			"-0.01": 3.67866830465,
			"-0.009": 5.53491468669,
			"-0.008": 4.54447604622,
			"-0.007": 7.32849464805,
			"-0.006": 17.1554449839,
			"-0.005": 18.8178889874,
			"-0.004": 19.1790117131,
			"-0.003": 20.4799289749,
			"-0.002": 12.6774683197,
			"-0.001": 9.98551177298,
			"0.0": 9.53425813601,
			"0.001": 9.2411370144,
			"0.002": 9.69259154993,
			"0.003": 10.1876259998,
			"0.004": 10.4599495435,
			"0.005": 13.1004767949,
			"0.006": 6.33053247362,
			"0.007": 4.27982893129,
			"0.008": 4.29860519939,
			"0.009": 4.5333496761,
			"0.01": 5.42860349839,
			"0.011": 4.61071952385,
			"0.012": 6.87545596175,
			"0.013": 3.5317685782,
			"0.014": 0.0302212622863,
			"0.015": 0.0,
			"0.016": 0.0,
			"0.017": 0.0,
			"0.018": 0.0,
			"0.019": 0.0,
			"0.02": 0.0,
			"0.021": 0.0,
			"0.022": 0.0,
			"0.023": 0.0,
			"0.024": 0.0,
			"0.025": 0.0
		}
	}
}
