{
	 "smiles": "COCC1=C(N=CC2=C1C1=C(N2)C=CC(OCC2=CC=CC=C2)=C1)C(=O)OC(C)C", 
	 "Tm": 423.15, 
	 "num_atms": 54, 
	 "gaussian": { 
		 "optdone": 1, 
		 "sigma_profile": "yes", 
		 "theory": "DFT", 
		 "functional": "B3LYP", 
		 "basiset": "6-31G**", 
		 "properties": { 
			 "R2extent": 15652.9405, 
			 "electric_dipole_moment_norm": 4.08189768245, 
			 "electric_quadrupole_moment_norm": 16.2348823325, 
			 "total_energy": -1339.42557815, 
			 "HOMO_LUMO_gap": 0.16258, 
			 "cosmo_polarized_energy": -22.08, 
			 "cosmo_cavitation_energy": 57.31, 
			 "cosmo_dispersion_energy": -37.46, 
			 "cosmo_repulsion_energy": 2.83, 
			 "cosmo_total_nonelectrostatic_energy": 22.67, 
			 "SMD_solvation_energy": 9.24 
		},
		"coords": [
			{
				"x": 0.0573383297,
				"y": -1.5258057483,
				"z": 1.8177947943,
				"element": "C" 
			},
			{
				"x": -0.0295782307,
				"y": -2.069153808,
				"z": 0.5134091977,
				"element": "O" 
			},
			{
				"x": 1.147911227,
				"y": -1.8904826175,
				"z": -0.265101737,
				"element": "C" 
			},
			{
				"x": 1.3558625201,
				"y": -0.4515543028,
				"z": -0.7156110305,
				"element": "C" 
			},
			{
				"x": 2.563095716,
				"y": 0.2583553538,
				"z": -0.535207477,
				"element": "C" 
			},
			{
				"x": 2.7554719176,
				"y": 1.5445950202,
				"z": -0.9066627159,
				"element": "N" 
			},
			{
				"x": 1.779212043,
				"y": 2.2025007848,
				"z": -1.5109981824,
				"element": "C" 
			},
			{
				"x": 0.5483025964,
				"y": 1.5905051283,
				"z": -1.7574523164,
				"element": "C" 
			},
			{
				"x": 0.3063122584,
				"y": 0.253692983,
				"z": -1.3440025,
				"element": "C" 
			},
			{
				"x": -1.0563988559,
				"y": -0.0562261884,
				"z": -1.7598837535,
				"element": "C" 
			},
			{
				"x": -1.5514893312,
				"y": 1.1054958008,
				"z": -2.4122921742,
				"element": "C" 
			},
			{
				"x": -0.569859548,
				"y": 2.0856272214,
				"z": -2.3883985058,
				"element": "N" 
			},
			{
				"x": -2.8329200469,
				"y": 1.1601634855,
				"z": -2.9652582426,
				"element": "C" 
			},
			{
				"x": -3.6326942767,
				"y": 0.0284218025,
				"z": -2.8584359417,
				"element": "C" 
			},
			{
				"x": -3.166982863,
				"y": -1.1260435119,
				"z": -2.1988451209,
				"element": "C" 
			},
			{
				"x": -3.9664362185,
				"y": -2.2554048609,
				"z": -2.1437162877,
				"element": "O" 
			},
			{
				"x": -5.1199144821,
				"y": -2.1700142317,
				"z": -1.2951025633,
				"element": "C" 
			},
			{
				"x": -4.792293356,
				"y": -2.2648895079,
				"z": 0.1809903297,
				"element": "C" 
			},
			{
				"x": -3.9394355114,
				"y": -3.2722718485,
				"z": 0.651673572,
				"element": "C" 
			},
			{
				"x": -3.6590739731,
				"y": -3.3835844144,
				"z": 2.0127163203,
				"element": "C" 
			},
			{
				"x": -4.2328828795,
				"y": -2.4908615963,
				"z": 2.9233847073,
				"element": "C" 
			},
			{
				"x": -5.0821668941,
				"y": -1.4842355642,
				"z": 2.4630749145,
				"element": "C" 
			},
			{
				"x": -5.3547221864,
				"y": -1.3709638734,
				"z": 1.0976842476,
				"element": "C" 
			},
			{
				"x": -1.8916232908,
				"y": -1.1794874651,
				"z": -1.6478148296,
				"element": "C" 
			},
			{
				"x": 3.7843630529,
				"y": -0.3972097798,
				"z": 0.0518585036,
				"element": "C" 
			},
			{
				"x": 4.0448214107,
				"y": -1.5860182518,
				"z": -0.04383505,
				"element": "O" 
			},
			{
				"x": 4.5686956447,
				"y": 0.4851545161,
				"z": 0.6940974367,
				"element": "O" 
			},
			{
				"x": 5.8162886435,
				"y": -0.0184580077,
				"z": 1.2508778652,
				"element": "C" 
			},
			{
				"x": 6.8798380348,
				"y": -0.0579698111,
				"z": 0.1577099313,
				"element": "C" 
			},
			{
				"x": 6.1617420823,
				"y": 0.9166426592,
				"z": 2.4015307585,
				"element": "C" 
			},
			{
				"x": 0.2065359315,
				"y": -0.4368754589,
				"z": 1.8047016254,
				"element": "H" 
			},
			{
				"x": 0.8801982201,
				"y": -1.9828394706,
				"z": 2.3890023301,
				"element": "H" 
			},
			{
				"x": -0.8907121951,
				"y": -1.7458809808,
				"z": 2.3136592283,
				"element": "H" 
			},
			{
				"x": 1.010488479,
				"y": -2.5233702384,
				"z": -1.149681786,
				"element": "H" 
			},
			{
				"x": 2.0250368669,
				"y": -2.2601485462,
				"z": 0.2687145624,
				"element": "H" 
			},
			{
				"x": 1.9768390308,
				"y": 3.2316352335,
				"z": -1.809400039,
				"element": "H" 
			},
			{
				"x": -0.6510767376,
				"y": 3.0035161504,
				"z": -2.7943918703,
				"element": "H" 
			},
			{
				"x": -3.1911071265,
				"y": 2.0509649355,
				"z": -3.4727618132,
				"element": "H" 
			},
			{
				"x": -4.6260200732,
				"y": 0.0208364358,
				"z": -3.2964857184,
				"element": "H" 
			},
			{
				"x": -5.7462284945,
				"y": -3.0143892744,
				"z": -1.6031446292,
				"element": "H" 
			},
			{
				"x": -5.6815996377,
				"y": -1.2482580353,
				"z": -1.4973079022,
				"element": "H" 
			},
			{
				"x": -3.4892122222,
				"y": -3.9606804958,
				"z": -0.057426583,
				"element": "H" 
			},
			{
				"x": -2.9957985991,
				"y": -4.1688562624,
				"z": 2.3642883226,
				"element": "H" 
			},
			{
				"x": -4.0181644776,
				"y": -2.5808462567,
				"z": 3.9845612554,
				"element": "H" 
			},
			{
				"x": -5.5268957405,
				"y": -0.782801968,
				"z": 3.1634429775,
				"element": "H" 
			},
			{
				"x": -6.0099379389,
				"y": -0.5791816234,
				"z": 0.7417846638,
				"element": "H" 
			},
			{
				"x": -1.5740632384,
				"y": -2.0633068088,
				"z": -1.1125463453,
				"element": "H" 
			},
			{
				"x": 5.6296317414,
				"y": -1.0323393506,
				"z": 1.6175149077,
				"element": "H" 
			},
			{
				"x": 6.5828111913,
				"y": -0.7410105647,
				"z": -0.6413737487,
				"element": "H" 
			},
			{
				"x": 7.8317357644,
				"y": -0.4075687619,
				"z": 0.5710584716,
				"element": "H" 
			},
			{
				"x": 7.0311618228,
				"y": 0.9400324167,
				"z": -0.2656748828,
				"element": "H" 
			},
			{
				"x": 5.3612435061,
				"y": 0.9287390722,
				"z": 3.1465419195,
				"element": "H" 
			},
			{
				"x": 7.0839616873,
				"y": 0.586439591,
				"z": 2.8899272535,
				"element": "H" 
			},
			{
				"x": 6.3089887071,
				"y": 1.9386708956,
				"z": 2.03871365,
				"element": "H" 
			}
		],
		 "valence_orbital": [ 
			{
				"type": "occ",
				"energy": -0.24682,
				"method": "rhf"
			},
			{
				"type": "occ",
				"energy": -0.24452,
				"method": "rhf"
			},
			{
				"type": "occ",
				"energy": -0.24399,
				"method": "rhf"
			},
			{
				"type": "occ",
				"energy": -0.22997,
				"method": "rhf"
			},
			{
				"type": "occ",
				"energy": -0.20684,
				"method": "rhf"
			},
			{
				"type": "unocc",
				"energy": -0.04426,
				"method": "rhf"
			},
			{
				"type": "unocc",
				"energy": -0.03038,
				"method": "rhf"
			},
			{
				"type": "unocc",
				"energy": -0.00609,
				"method": "rhf"
			},
			{
				"type": "unocc",
				"energy": -0.00058,
				"method": "rhf"
			},
			{
				"type": "unocc",
				"energy": 0.01423,
				"method": "rhf"
			}
		],
		"cosmo_sigma_profile": { 
			"-0.025": 0.0,
			"-0.024": 0.0,
			"-0.023": 0.0,
			"-0.022": 0.0,
			"-0.021": 0.0,
			"-0.02": 0.0,
			"-0.019": 0.0,
			"-0.018": 0.0,
			"-0.017": 0.128813448779,
			"-0.016": 1.49973276536,
			"-0.015": 1.61661624463,
			"-0.014": 1.31835692615,
			"-0.013": 1.75679146239,
			"-0.012": 1.23576289166,
			"-0.011": 1.38356023248,
			"-0.01": 1.4052867891,
			"-0.009": 1.67167804252,
			"-0.008": 2.55121364469,
			"-0.007": 5.23172622491,
			"-0.006": 13.8594174279,
			"-0.005": 24.1596252033,
			"-0.004": 40.2863702063,
			"-0.003": 46.4106247339,
			"-0.002": 44.419937756,
			"-0.001": 37.1923905383,
			"0.0": 39.6258290457,
			"0.001": 38.5361204718,
			"0.002": 28.2615223697,
			"0.003": 22.5948378701,
			"0.004": 27.6102156564,
			"0.005": 23.0976763607,
			"0.006": 13.688543929,
			"0.007": 5.0936812807,
			"0.008": 4.98802571072,
			"0.009": 6.04774168146,
			"0.01": 4.40630152036,
			"0.011": 4.98277800187,
			"0.012": 5.4344865942,
			"0.013": 0.918508317339,
			"0.014": 0.978030994999,
			"0.015": 1.07485300226,
			"0.016": 0.879885439478,
			"0.017": 0.825317041975,
			"0.018": 0.11016485081,
			"0.019": 0.0,
			"0.02": 0.0,
			"0.021": 0.0,
			"0.022": 0.0,
			"0.023": 0.0,
			"0.024": 0.0,
			"0.025": 0.0
		}
	}
}
