{
	 "smiles": "O=C1CCCCCCCCC1=O", 
	 "Tm": 313.65, 
	 "num_atms": 28, 
	 "gaussian": { 
		 "optdone": 1, 
		 "sigma_profile": "yes", 
		 "theory": "DFT", 
		 "functional": "B3LYP", 
		 "basiset": "6-31G**", 
		 "properties": { 
			 "R2extent": 2330.3448, 
			 "electric_dipole_moment_norm": 1.42608139319, 
			 "electric_quadrupole_moment_norm": 7.96412364733, 
			 "total_energy": -541.149305461, 
			 "HOMO_LUMO_gap": 0.15207, 
			 "cosmo_polarized_energy": -6.2, 
			 "cosmo_cavitation_energy": 27.12, 
			 "cosmo_dispersion_energy": -20.04, 
			 "cosmo_repulsion_energy": 1.58, 
			 "cosmo_total_nonelectrostatic_energy": 8.66, 
			 "SMD_solvation_energy": 4.57 
		},
		"coords": [
			{
				"x": -1.1017183696,
				"y": 2.2610223906,
				"z": -2.1734823703,
				"element": "O" 
			},
			{
				"x": -0.7417618806,
				"y": 1.0971094304,
				"z": -2.195208741,
				"element": "C" 
			},
			{
				"x": -1.6780561186,
				"y": -0.0833119411,
				"z": -2.3603335257,
				"element": "C" 
			},
			{
				"x": -2.3215812668,
				"y": -0.5663120648,
				"z": -1.0301928135,
				"element": "C" 
			},
			{
				"x": -1.3269937511,
				"y": -0.8165049542,
				"z": 0.1258945123,
				"element": "C" 
			},
			{
				"x": -1.1188589343,
				"y": 0.4299233077,
				"z": 1.016214953,
				"element": "C" 
			},
			{
				"x": 0.2199778512,
				"y": 0.5008757316,
				"z": 1.7712950647,
				"element": "C" 
			},
			{
				"x": 1.4625335111,
				"y": 0.7204860473,
				"z": 0.8830130683,
				"element": "C" 
			},
			{
				"x": 1.4222847821,
				"y": 2.0264204818,
				"z": 0.0445404254,
				"element": "C" 
			},
			{
				"x": 1.6750893812,
				"y": 1.8287649844,
				"z": -1.4731391776,
				"element": "C" 
			},
			{
				"x": 0.7738053715,
				"y": 0.7750075044,
				"z": -2.0779562671,
				"element": "C" 
			},
			{
				"x": 1.1798672646,
				"y": -0.3051718147,
				"z": -2.4703720856,
				"element": "O" 
			},
			{
				"x": -1.1123085362,
				"y": -0.9057905867,
				"z": -2.8053502004,
				"element": "H" 
			},
			{
				"x": -2.4713144668,
				"y": 0.2205880901,
				"z": -3.0504852454,
				"element": "H" 
			},
			{
				"x": -3.0731618482,
				"y": 0.1663307368,
				"z": -0.7118619371,
				"element": "H" 
			},
			{
				"x": -2.8674671896,
				"y": -1.4867202888,
				"z": -1.2644148271,
				"element": "H" 
			},
			{
				"x": -1.6946280542,
				"y": -1.6380707303,
				"z": 0.7518604183,
				"element": "H" 
			},
			{
				"x": -0.3748560222,
				"y": -1.169058923,
				"z": -0.2873733631,
				"element": "H" 
			},
			{
				"x": -1.235544546,
				"y": 1.3359851424,
				"z": 0.4112582451,
				"element": "H" 
			},
			{
				"x": -1.9389592191,
				"y": 0.4735230783,
				"z": 1.7440345257,
				"element": "H" 
			},
			{
				"x": 0.1616921587,
				"y": 1.3188757969,
				"z": 2.5018740834,
				"element": "H" 
			},
			{
				"x": 0.3611406598,
				"y": -0.4178373014,
				"z": 2.3562563458,
				"element": "H" 
			},
			{
				"x": 2.348819711,
				"y": 0.7250379501,
				"z": 1.5275595099,
				"element": "H" 
			},
			{
				"x": 1.5948490742,
				"y": -0.1442732692,
				"z": 0.2224638946,
				"element": "H" 
			},
			{
				"x": 0.4594823087,
				"y": 2.5312531766,
				"z": 0.166622067,
				"element": "H" 
			},
			{
				"x": 2.1758349071,
				"y": 2.7325418921,
				"z": 0.408726256,
				"element": "H" 
			},
			{
				"x": 1.5012229754,
				"y": 2.7802714572,
				"z": -1.9871703122,
				"element": "H" 
			},
			{
				"x": 2.7042102464,
				"y": 1.5058346753,
				"z": -1.6546725033,
				"element": "H" 
			}
		],
		 "valence_orbital": [ 
			{
				"type": "occ",
				"energy": -0.31876,
				"method": "rhf"
			},
			{
				"type": "occ",
				"energy": -0.31708,
				"method": "rhf"
			},
			{
				"type": "occ",
				"energy": -0.31215,
				"method": "rhf"
			},
			{
				"type": "occ",
				"energy": -0.30167,
				"method": "rhf"
			},
			{
				"type": "occ",
				"energy": -0.23462,
				"method": "rhf"
			},
			{
				"type": "unocc",
				"energy": -0.08255,
				"method": "rhf"
			},
			{
				"type": "unocc",
				"energy": 0.02559,
				"method": "rhf"
			},
			{
				"type": "unocc",
				"energy": 0.08778,
				"method": "rhf"
			},
			{
				"type": "unocc",
				"energy": 0.10522,
				"method": "rhf"
			},
			{
				"type": "unocc",
				"energy": 0.10874,
				"method": "rhf"
			}
		],
		"cosmo_sigma_profile": { 
			"-0.025": 0.0,
			"-0.024": 0.0,
			"-0.023": 0.0,
			"-0.022": 0.0,
			"-0.021": 0.0,
			"-0.02": 0.0,
			"-0.019": 0.0,
			"-0.018": 0.0,
			"-0.017": 0.0,
			"-0.016": 0.0,
			"-0.015": 0.0,
			"-0.014": 0.0,
			"-0.013": 0.0,
			"-0.012": 0.0,
			"-0.011": 0.0,
			"-0.01": 0.0,
			"-0.009": 0.0,
			"-0.008": 0.0,
			"-0.007": 0.18524852888,
			"-0.006": 2.0019251906,
			"-0.005": 6.74168491216,
			"-0.004": 10.8636737211,
			"-0.003": 24.8042282051,
			"-0.002": 40.7470226617,
			"-0.001": 41.7469577455,
			"0.0": 30.2018930211,
			"0.001": 13.0677914474,
			"0.002": 4.84768973756,
			"0.003": 2.9601608719,
			"0.004": 3.35107368561,
			"0.005": 3.48301544143,
			"0.006": 2.14083216542,
			"0.007": 2.82836106467,
			"0.008": 3.52497741535,
			"0.009": 4.08432715416,
			"0.01": 6.41936662892,
			"0.011": 4.70615632707,
			"0.012": 1.13067754439,
			"0.013": 0.0,
			"0.014": 0.0,
			"0.015": 0.0,
			"0.016": 0.0,
			"0.017": 0.0,
			"0.018": 0.0,
			"0.019": 0.0,
			"0.02": 0.0,
			"0.021": 0.0,
			"0.022": 0.0,
			"0.023": 0.0,
			"0.024": 0.0,
			"0.025": 0.0
		}
	}
}
