{
	 "smiles": "CC1=CC(=CC=C1Cl)[N+]([O-])=O", 
	 "Tm": 315.95, 
	 "num_atms": 17, 
	 "gaussian": { 
		 "optdone": 1, 
		 "sigma_profile": "yes", 
		 "theory": "DFT", 
		 "functional": "B3LYP", 
		 "basiset": "6-31G**", 
		 "properties": { 
			 "R2extent": 2893.7688, 
			 "electric_dipole_moment_norm": 3.32707860442, 
			 "electric_quadrupole_moment_norm": 17.5890685003, 
			 "total_energy": -935.660143921, 
			 "HOMO_LUMO_gap": 0.17708, 
			 "cosmo_polarized_energy": -7.27, 
			 "cosmo_cavitation_energy": 23.57, 
			 "cosmo_dispersion_energy": -17.47, 
			 "cosmo_repulsion_energy": 1.39, 
			 "cosmo_total_nonelectrostatic_energy": 7.5, 
			 "SMD_solvation_energy": 6.15 
		},
		"coords": [
			{
				"x": 2.2389010447,
				"y": -0.4509313585,
				"z": 1.3675059266,
				"element": "C" 
			},
			{
				"x": 0.7951041583,
				"y": -0.6656385984,
				"z": 0.9956138614,
				"element": "C" 
			},
			{
				"x": 0.0251478735,
				"y": -1.6363603918,
				"z": 1.6429434606,
				"element": "C" 
			},
			{
				"x": -1.3089128116,
				"y": -1.8291219552,
				"z": 1.2937168956,
				"element": "C" 
			},
			{
				"x": -1.9300808486,
				"y": -1.0776076744,
				"z": 0.3001903886,
				"element": "C" 
			},
			{
				"x": -1.1808753352,
				"y": -0.1069202205,
				"z": -0.3554937738,
				"element": "C" 
			},
			{
				"x": 0.1574834024,
				"y": 0.088101729,
				"z": -0.006762247,
				"element": "C" 
			},
			{
				"x": 1.0596662119,
				"y": 1.3248117259,
				"z": -0.863374054,
				"element": "Cl" 
			},
			{
				"x": -2.0856892736,
				"y": -2.8603743784,
				"z": 1.9981071,
				"element": "N" 
			},
			{
				"x": -3.2622106274,
				"y": -3.0097463661,
				"z": 1.6698267167,
				"element": "O" 
			},
			{
				"x": -1.5125994685,
				"y": -3.5104912799,
				"z": 2.8718351181,
				"element": "O" 
			},
			{
				"x": 2.5376242419,
				"y": -1.1351341177,
				"z": 2.1644606707,
				"element": "H" 
			},
			{
				"x": 2.8975175638,
				"y": -0.6131605075,
				"z": 0.5078561964,
				"element": "H" 
			},
			{
				"x": 2.411196723,
				"y": 0.5747861589,
				"z": 1.7099981267,
				"element": "H" 
			},
			{
				"x": 0.4559876821,
				"y": -2.2508780164,
				"z": 2.4241398341,
				"element": "H" 
			},
			{
				"x": -2.9694796501,
				"y": -1.2573709072,
				"z": 0.0572908821,
				"element": "H" 
			},
			{
				"x": -1.6260808867,
				"y": 0.5002361582,
				"z": -1.1352551027,
				"element": "H" 
			}
		],
		 "valence_orbital": [ 
			{
				"type": "occ",
				"energy": -0.31365,
				"method": "rhf"
			},
			{
				"type": "occ",
				"energy": -0.31121,
				"method": "rhf"
			},
			{
				"type": "occ",
				"energy": -0.29472,
				"method": "rhf"
			},
			{
				"type": "occ",
				"energy": -0.28259,
				"method": "rhf"
			},
			{
				"type": "occ",
				"energy": -0.27141,
				"method": "rhf"
			},
			{
				"type": "unocc",
				"energy": -0.09433,
				"method": "rhf"
			},
			{
				"type": "unocc",
				"energy": -0.03493,
				"method": "rhf"
			},
			{
				"type": "unocc",
				"energy": -0.0092,
				"method": "rhf"
			},
			{
				"type": "unocc",
				"energy": 0.01401,
				"method": "rhf"
			},
			{
				"type": "unocc",
				"energy": 0.08952,
				"method": "rhf"
			}
		],
		"cosmo_sigma_profile": { 
			"-0.025": 0.0,
			"-0.024": 0.0,
			"-0.023": 0.0,
			"-0.022": 0.0,
			"-0.021": 0.0,
			"-0.02": 0.0,
			"-0.019": 0.0,
			"-0.018": 0.0,
			"-0.017": 0.0,
			"-0.016": 0.0,
			"-0.015": 0.0,
			"-0.014": 0.0,
			"-0.013": 0.0,
			"-0.012": 0.0,
			"-0.011": 0.0,
			"-0.01": 0.0,
			"-0.009": 0.327321035028,
			"-0.008": 3.71565357814,
			"-0.007": 6.85121852021,
			"-0.006": 6.58298390275,
			"-0.005": 10.0539363742,
			"-0.004": 11.5848157827,
			"-0.003": 13.6295918736,
			"-0.002": 18.4026186189,
			"-0.001": 22.5744595373,
			"0.0": 23.8434435799,
			"0.001": 16.1782124836,
			"0.002": 9.79796763887,
			"0.003": 9.63893110798,
			"0.004": 8.72426707202,
			"0.005": 3.26840709784,
			"0.006": 3.31359352585,
			"0.007": 8.44306445259,
			"0.008": 7.19824696432,
			"0.009": 4.27933167185,
			"0.01": 2.55889481991,
			"0.011": 0.0405787202089,
			"0.012": 0.0,
			"0.013": 0.0,
			"0.014": 0.0,
			"0.015": 0.0,
			"0.016": 0.0,
			"0.017": 0.0,
			"0.018": 0.0,
			"0.019": 0.0,
			"0.02": 0.0,
			"0.021": 0.0,
			"0.022": 0.0,
			"0.023": 0.0,
			"0.024": 0.0,
			"0.025": 0.0
		}
	}
}
