{
	 "smiles": "COC1=CC=C2C(=O)N3CCCCC3=CC2=C1", 
	 "Tm": 353.15, 
	 "num_atms": 32, 
	 "gaussian": { 
		 "optdone": 1, 
		 "sigma_profile": "yes", 
		 "theory": "DFT", 
		 "functional": "B3LYP", 
		 "basiset": "6-31G**", 
		 "properties": { 
			 "R2extent": 4980.0752, 
			 "electric_dipole_moment_norm": 4.84126467465, 
			 "electric_quadrupole_moment_norm": 14.7947381153, 
			 "total_energy": -747.758127834, 
			 "HOMO_LUMO_gap": 0.17415, 
			 "cosmo_polarized_energy": -12.77, 
			 "cosmo_cavitation_energy": 33.55, 
			 "cosmo_dispersion_energy": -25.22, 
			 "cosmo_repulsion_energy": 1.92, 
			 "cosmo_total_nonelectrostatic_energy": 10.25, 
			 "SMD_solvation_energy": 5.67 
		},
		"coords": [
			{
				"x": -3.0447198493,
				"y": -3.7004193036,
				"z": 1.486385111,
				"element": "C" 
			},
			{
				"x": -2.4645353748,
				"y": -3.6868184601,
				"z": 0.1913455776,
				"element": "O" 
			},
			{
				"x": -1.732801297,
				"y": -2.5995076439,
				"z": -0.1788181574,
				"element": "C" 
			},
			{
				"x": -1.1874961783,
				"y": -2.6636834811,
				"z": -1.4830353384,
				"element": "C" 
			},
			{
				"x": -0.4274154073,
				"y": -1.6176973444,
				"z": -1.96062158,
				"element": "C" 
			},
			{
				"x": -0.1918450241,
				"y": -0.4792704566,
				"z": -1.1646819671,
				"element": "C" 
			},
			{
				"x": 0.6339469729,
				"y": 0.6043946653,
				"z": -1.6960416192,
				"element": "C" 
			},
			{
				"x": 1.1799872161,
				"y": 0.5808526632,
				"z": -2.800351073,
				"element": "O" 
			},
			{
				"x": 0.8026347722,
				"y": 1.7292325297,
				"z": -0.8562443932,
				"element": "N" 
			},
			{
				"x": 1.7327659281,
				"y": 2.7457538707,
				"z": -1.3963785788,
				"element": "C" 
			},
			{
				"x": 1.6564256834,
				"y": 4.0863074965,
				"z": -0.6755837325,
				"element": "C" 
			},
			{
				"x": 1.6786923647,
				"y": 3.8827595013,
				"z": 0.8391625786,
				"element": "C" 
			},
			{
				"x": 0.4435722842,
				"y": 3.068555253,
				"z": 1.2284980939,
				"element": "C" 
			},
			{
				"x": 0.263880903,
				"y": 1.7966707709,
				"z": 0.4224999824,
				"element": "C" 
			},
			{
				"x": -0.4719067971,
				"y": 0.7629242294,
				"z": 0.9189920436,
				"element": "C" 
			},
			{
				"x": -0.7330768069,
				"y": -0.4102557632,
				"z": 0.1384454786,
				"element": "C" 
			},
			{
				"x": -1.5084142517,
				"y": -1.4874575174,
				"z": 0.6247306794,
				"element": "C" 
			},
			{
				"x": -3.7552531642,
				"y": -2.8745801988,
				"z": 1.6191176486,
				"element": "H" 
			},
			{
				"x": -3.5767275625,
				"y": -4.6494021992,
				"z": 1.5685123439,
				"element": "H" 
			},
			{
				"x": -2.2802329164,
				"y": -3.6450026183,
				"z": 2.2718577639,
				"element": "H" 
			},
			{
				"x": -1.3835942481,
				"y": -3.5480631015,
				"z": -2.079735723,
				"element": "H" 
			},
			{
				"x": 0.0061524661,
				"y": -1.6436051854,
				"z": -2.9545283779,
				"element": "H" 
			},
			{
				"x": 2.7499153238,
				"y": 2.3380353364,
				"z": -1.3288145032,
				"element": "H" 
			},
			{
				"x": 1.5141259454,
				"y": 2.8410307848,
				"z": -2.4606494487,
				"element": "H" 
			},
			{
				"x": 0.7372150508,
				"y": 4.6157720739,
				"z": -0.9586515897,
				"element": "H" 
			},
			{
				"x": 2.4962110429,
				"y": 4.7033757245,
				"z": -1.0125720199,
				"element": "H" 
			},
			{
				"x": 1.67670461,
				"y": 4.840835082,
				"z": 1.3693348967,
				"element": "H" 
			},
			{
				"x": 2.5947519256,
				"y": 3.353345731,
				"z": 1.1322730547,
				"element": "H" 
			},
			{
				"x": 0.453005586,
				"y": 2.8040965451,
				"z": 2.2901433851,
				"element": "H" 
			},
			{
				"x": -0.4451197789,
				"y": 3.698128043,
				"z": 1.0749577045,
				"element": "H" 
			},
			{
				"x": -0.885875287,
				"y": 0.8483668064,
				"z": 1.9182129962,
				"element": "H" 
			},
			{
				"x": -1.9188741318,
				"y": -1.4243738335,
				"z": 1.6258387635,
				"element": "H" 
			}
		],
		 "valence_orbital": [ 
			{
				"type": "occ",
				"energy": -0.30739,
				"method": "rhf"
			},
			{
				"type": "occ",
				"energy": -0.26177,
				"method": "rhf"
			},
			{
				"type": "occ",
				"energy": -0.24187,
				"method": "rhf"
			},
			{
				"type": "occ",
				"energy": -0.2236,
				"method": "rhf"
			},
			{
				"type": "occ",
				"energy": -0.19554,
				"method": "rhf"
			},
			{
				"type": "unocc",
				"energy": -0.02139,
				"method": "rhf"
			},
			{
				"type": "unocc",
				"energy": -0.01721,
				"method": "rhf"
			},
			{
				"type": "unocc",
				"energy": 0.0467,
				"method": "rhf"
			},
			{
				"type": "unocc",
				"energy": 0.08006,
				"method": "rhf"
			},
			{
				"type": "unocc",
				"energy": 0.09214,
				"method": "rhf"
			}
		],
		"cosmo_sigma_profile": { 
			"-0.025": 0.0,
			"-0.024": 0.0,
			"-0.023": 0.0,
			"-0.022": 0.0,
			"-0.021": 0.0,
			"-0.02": 0.0,
			"-0.019": 0.0,
			"-0.018": 0.0,
			"-0.017": 0.0,
			"-0.016": 0.0,
			"-0.015": 0.0,
			"-0.014": 0.0,
			"-0.013": 0.0,
			"-0.012": 0.0,
			"-0.011": 0.0,
			"-0.01": 0.0,
			"-0.009": 0.0,
			"-0.008": 0.0,
			"-0.007": 0.7135034617,
			"-0.006": 10.2242439349,
			"-0.005": 19.3112685836,
			"-0.004": 32.6843976441,
			"-0.003": 37.0158690813,
			"-0.002": 27.7123665241,
			"-0.001": 22.5562313684,
			"0.0": 17.6525518958,
			"0.001": 11.4394292646,
			"0.002": 12.8832320771,
			"0.003": 17.0984204043,
			"0.004": 21.0434463987,
			"0.005": 8.60969850208,
			"0.006": 3.37776698595,
			"0.007": 2.97363815133,
			"0.008": 2.81522915397,
			"0.009": 2.77861364022,
			"0.01": 2.86830727834,
			"0.011": 1.36182506468,
			"0.012": 1.7044941478,
			"0.013": 1.93955425804,
			"0.014": 5.29469501623,
			"0.015": 0.971348756769,
			"0.016": 0.0,
			"0.017": 0.0,
			"0.018": 0.0,
			"0.019": 0.0,
			"0.02": 0.0,
			"0.021": 0.0,
			"0.022": 0.0,
			"0.023": 0.0,
			"0.024": 0.0,
			"0.025": 0.0
		}
	}
}
