{
	 "smiles": "CN1CCCCC1", 
	 "Tm": 223.15, 
	 "num_atms": 20, 
	 "gaussian": { 
		 "optdone": 1, 
		 "sigma_profile": "yes", 
		 "theory": "DFT", 
		 "functional": "B3LYP", 
		 "basiset": "6-31G**", 
		 "properties": { 
			 "R2extent": 1392.5652, 
			 "electric_dipole_moment_norm": 0.732550680841, 
			 "electric_quadrupole_moment_norm": 2.74435673884, 
			 "total_energy": -291.214879172, 
			 "HOMO_LUMO_gap": 0.27155, 
			 "cosmo_polarized_energy": -2.36, 
			 "cosmo_cavitation_energy": 20.17, 
			 "cosmo_dispersion_energy": -15.44, 
			 "cosmo_repulsion_energy": 1.3, 
			 "cosmo_total_nonelectrostatic_energy": 6.03, 
			 "SMD_solvation_energy": 0.4 
		},
		"coords": [
			{
				"x": 3.8407149407,
				"y": 0.7893091337,
				"z": -0.2576519579,
				"element": "C" 
			},
			{
				"x": 2.400509448,
				"y": 0.8805885398,
				"z": -0.0906010833,
				"element": "N" 
			},
			{
				"x": 2.0163973357,
				"y": 0.7317006418,
				"z": 1.318172637,
				"element": "C" 
			},
			{
				"x": 0.5177383369,
				"y": 0.4545410506,
				"z": 1.4473032861,
				"element": "C" 
			},
			{
				"x": 0.1532505527,
				"y": -0.9126173336,
				"z": 0.8205092941,
				"element": "C" 
			},
			{
				"x": 1.111654444,
				"y": -1.2648473343,
				"z": -0.3417152387,
				"element": "C" 
			},
			{
				"x": 1.6321491801,
				"y": 0.0166864054,
				"z": -1.0090784861,
				"element": "C" 
			},
			{
				"x": 4.3293762426,
				"y": 1.5338900493,
				"z": 0.381437307,
				"element": "H" 
			},
			{
				"x": 4.2650909875,
				"y": -0.2001718249,
				"z": 0.0074009697,
				"element": "H" 
			},
			{
				"x": 4.1164044061,
				"y": 1.0109605525,
				"z": -1.2936408639,
				"element": "H" 
			},
			{
				"x": 2.2900122836,
				"y": 1.6505772428,
				"z": 1.8536135446,
				"element": "H" 
			},
			{
				"x": 2.573913523,
				"y": -0.0913949202,
				"z": 1.8114823056,
				"element": "H" 
			},
			{
				"x": -0.0264086395,
				"y": 1.2620508769,
				"z": 0.9431837597,
				"element": "H" 
			},
			{
				"x": 0.2226923582,
				"y": 0.488421905,
				"z": 2.5013871844,
				"element": "H" 
			},
			{
				"x": 0.1954967233,
				"y": -1.6992489269,
				"z": 1.5828663765,
				"element": "H" 
			},
			{
				"x": -0.8820670606,
				"y": -0.8858191312,
				"z": 0.4614290148,
				"element": "H" 
			},
			{
				"x": 1.9656587914,
				"y": -1.8412888551,
				"z": 0.0350484536,
				"element": "H" 
			},
			{
				"x": 0.6109118485,
				"y": -1.9009837787,
				"z": -1.0805735509,
				"element": "H" 
			},
			{
				"x": 0.7773192551,
				"y": 0.5816427863,
				"z": -1.4096234772,
				"element": "H" 
			},
			{
				"x": 2.2666850426,
				"y": -0.2271970794,
				"z": -1.8674494751,
				"element": "H" 
			}
		],
		 "valence_orbital": [ 
			{
				"type": "occ",
				"energy": -0.34818,
				"method": "rhf"
			},
			{
				"type": "occ",
				"energy": -0.32268,
				"method": "rhf"
			},
			{
				"type": "occ",
				"energy": -0.30895,
				"method": "rhf"
			},
			{
				"type": "occ",
				"energy": -0.30537,
				"method": "rhf"
			},
			{
				"type": "occ",
				"energy": -0.19334,
				"method": "rhf"
			},
			{
				"type": "unocc",
				"energy": 0.07821,
				"method": "rhf"
			},
			{
				"type": "unocc",
				"energy": 0.11115,
				"method": "rhf"
			},
			{
				"type": "unocc",
				"energy": 0.12702,
				"method": "rhf"
			},
			{
				"type": "unocc",
				"energy": 0.1375,
				"method": "rhf"
			},
			{
				"type": "unocc",
				"energy": 0.14502,
				"method": "rhf"
			}
		],
		"cosmo_sigma_profile": { 
			"-0.025": 0.0,
			"-0.024": 0.0,
			"-0.023": 0.0,
			"-0.022": 0.0,
			"-0.021": 0.0,
			"-0.02": 0.0,
			"-0.019": 0.0,
			"-0.018": 0.0,
			"-0.017": 0.0,
			"-0.016": 0.0,
			"-0.015": 0.0,
			"-0.014": 0.0,
			"-0.013": 0.0,
			"-0.012": 0.0,
			"-0.011": 0.0,
			"-0.01": 0.0,
			"-0.009": 0.0,
			"-0.008": 0.0,
			"-0.007": 0.0,
			"-0.006": 0.0,
			"-0.005": 0.0,
			"-0.004": 1.19865619283,
			"-0.003": 11.1489427979,
			"-0.002": 24.5071389355,
			"-0.001": 40.8833069404,
			"0.0": 38.1330944089,
			"0.001": 22.2983906098,
			"0.002": 4.98439281785,
			"0.003": 1.57533164414,
			"0.004": 0.96850140473,
			"0.005": 1.18057539663,
			"0.006": 1.12395440725,
			"0.007": 0.676008258892,
			"0.008": 0.86971731456,
			"0.009": 0.962397426316,
			"0.01": 0.3957793533,
			"0.011": 0.546296891823,
			"0.012": 0.600130750874,
			"0.013": 0.561813387446,
			"0.014": 0.680803824115,
			"0.015": 0.441358633712,
			"0.016": 0.402802353067,
			"0.017": 0.33010338284,
			"0.018": 0.0932114781609,
			"0.019": 0.0,
			"0.02": 0.0,
			"0.021": 0.0,
			"0.022": 0.0,
			"0.023": 0.0,
			"0.024": 0.0,
			"0.025": 0.0
		}
	}
}
