{
	 "smiles": "CC(C)(C)CC1=NOC2=C1C=C(C=N2)C(O)=O", 
	 "Tm": 505.15, 
	 "num_atms": 31, 
	 "gaussian": { 
		 "optdone": 1, 
		 "sigma_profile": "yes", 
		 "theory": "DFT", 
		 "functional": "B3LYP", 
		 "basiset": "6-31G**", 
		 "properties": { 
			 "R2extent": 5669.37, 
			 "electric_dipole_moment_norm": 5.622212986, 
			 "electric_quadrupole_moment_norm": 15.4808493204, 
			 "total_energy": -800.864906656, 
			 "HOMO_LUMO_gap": 0.19516, 
			 "cosmo_polarized_energy": -20.77, 
			 "cosmo_cavitation_energy": 34.49, 
			 "cosmo_dispersion_energy": -23.91, 
			 "cosmo_repulsion_energy": 1.82, 
			 "cosmo_total_nonelectrostatic_energy": 12.39, 
			 "SMD_solvation_energy": 5.3 
		},
		"coords": [
			{
				"x": -1.2567466827,
				"y": -0.9519077159,
				"z": 1.21124702,
				"element": "C" 
			},
			{
				"x": -0.8439435461,
				"y": -0.8190812066,
				"z": 2.6889896285,
				"element": "C" 
			},
			{
				"x": -1.6275303299,
				"y": 0.3310217802,
				"z": 3.3470198537,
				"element": "C" 
			},
			{
				"x": -1.1588193917,
				"y": -2.1378400195,
				"z": 3.4216465188,
				"element": "C" 
			},
			{
				"x": 0.6922208862,
				"y": -0.5727697766,
				"z": 2.8217327963,
				"element": "C" 
			},
			{
				"x": 1.2343314671,
				"y": 0.6602266996,
				"z": 2.1561475332,
				"element": "C" 
			},
			{
				"x": 1.3376155954,
				"y": 1.7803476625,
				"z": 2.8297401506,
				"element": "N" 
			},
			{
				"x": 1.8832980102,
				"y": 2.7617751222,
				"z": 1.9713548983,
				"element": "O" 
			},
			{
				"x": 2.1097449383,
				"y": 2.1889146454,
				"z": 0.7738422322,
				"element": "C" 
			},
			{
				"x": 1.7161239914,
				"y": 0.8419140215,
				"z": 0.8104155997,
				"element": "C" 
			},
			{
				"x": 1.8927291389,
				"y": 0.0872297618,
				"z": -0.3504551146,
				"element": "C" 
			},
			{
				"x": 2.4448580934,
				"y": 0.7415218021,
				"z": -1.454702142,
				"element": "C" 
			},
			{
				"x": 2.8107542611,
				"y": 2.1072191036,
				"z": -1.3395985001,
				"element": "C" 
			},
			{
				"x": 2.6454881019,
				"y": 2.8490124694,
				"z": -0.2453629637,
				"element": "N" 
			},
			{
				"x": 2.7258033529,
				"y": 0.0658433679,
				"z": -2.7608865528,
				"element": "C" 
			},
			{
				"x": 2.0158593314,
				"y": -1.0628651105,
				"z": -3.0310764305,
				"element": "O" 
			},
			{
				"x": 3.5403397438,
				"y": 0.4745229223,
				"z": -3.5530352258,
				"element": "O" 
			},
			{
				"x": -0.7131103288,
				"y": -1.7670698775,
				"z": 0.7173745445,
				"element": "H" 
			},
			{
				"x": -1.0740294628,
				"y": -0.0284515042,
				"z": 0.652435768,
				"element": "H" 
			},
			{
				"x": -2.3254450078,
				"y": -1.1773521591,
				"z": 1.1319059513,
				"element": "H" 
			},
			{
				"x": -1.3677337581,
				"y": 0.4309191647,
				"z": 4.4062849549,
				"element": "H" 
			},
			{
				"x": -1.4210749766,
				"y": 1.2914315452,
				"z": 2.8662628285,
				"element": "H" 
			},
			{
				"x": -2.7048402492,
				"y": 0.1441451122,
				"z": 3.2812939778,
				"element": "H" 
			},
			{
				"x": -0.8771101157,
				"y": -2.0818998152,
				"z": 4.478834322,
				"element": "H" 
			},
			{
				"x": -2.2300668659,
				"y": -2.3601254191,
				"z": 3.3735411755,
				"element": "H" 
			},
			{
				"x": -0.6222095725,
				"y": -2.9827547857,
				"z": 2.9746895766,
				"element": "H" 
			},
			{
				"x": 0.9409389038,
				"y": -0.5092862249,
				"z": 3.8859943005,
				"element": "H" 
			},
			{
				"x": 1.2257633624,
				"y": -1.44347474,
				"z": 2.4204687718,
				"element": "H" 
			},
			{
				"x": 1.6405582357,
				"y": -0.9696074661,
				"z": -0.3741041827,
				"element": "H" 
			},
			{
				"x": 3.2587558554,
				"y": 2.5919486194,
				"z": -2.2023763099,
				"element": "H" 
			},
			{
				"x": 1.2763770184,
				"y": -1.1555079791,
				"z": -2.4150249808,
				"element": "H" 
			}
		],
		 "valence_orbital": [ 
			{
				"type": "occ",
				"energy": -0.32777,
				"method": "rhf"
			},
			{
				"type": "occ",
				"energy": -0.29833,
				"method": "rhf"
			},
			{
				"type": "occ",
				"energy": -0.28801,
				"method": "rhf"
			},
			{
				"type": "occ",
				"energy": -0.28482,
				"method": "rhf"
			},
			{
				"type": "occ",
				"energy": -0.2775,
				"method": "rhf"
			},
			{
				"type": "unocc",
				"energy": -0.08234,
				"method": "rhf"
			},
			{
				"type": "unocc",
				"energy": -0.05764,
				"method": "rhf"
			},
			{
				"type": "unocc",
				"energy": 0.00064,
				"method": "rhf"
			},
			{
				"type": "unocc",
				"energy": 0.03128,
				"method": "rhf"
			},
			{
				"type": "unocc",
				"energy": 0.04852,
				"method": "rhf"
			}
		],
		"cosmo_sigma_profile": { 
			"-0.025": 0.0,
			"-0.024": 0.0,
			"-0.023": 0.0,
			"-0.022": 0.0,
			"-0.021": 0.0,
			"-0.02": 0.0,
			"-0.019": 0.634954863564,
			"-0.018": 1.45845825662,
			"-0.017": 0.976174266764,
			"-0.016": 0.632408055393,
			"-0.015": 0.670549680433,
			"-0.014": 1.25589056739,
			"-0.013": 1.63174067414,
			"-0.012": 1.42460942934,
			"-0.011": 1.13181308846,
			"-0.01": 1.56108076269,
			"-0.009": 1.71739908743,
			"-0.008": 4.03835443513,
			"-0.007": 5.07692831751,
			"-0.006": 5.88392349196,
			"-0.005": 8.89413781151,
			"-0.004": 17.2257112639,
			"-0.003": 32.8841988369,
			"-0.002": 35.8974537468,
			"-0.001": 24.0897896132,
			"0.0": 19.4646620844,
			"0.001": 25.3322872032,
			"0.002": 11.1090465196,
			"0.003": 5.60017064811,
			"0.004": 5.08565446845,
			"0.005": 6.72881667876,
			"0.006": 6.95675482988,
			"0.007": 9.70014924602,
			"0.008": 7.12982886536,
			"0.009": 5.35215069779,
			"0.01": 8.16130257407,
			"0.011": 7.4123802875,
			"0.012": 4.38620337063,
			"0.013": 2.4955463779,
			"0.014": 0.26158870533,
			"0.015": 0.0,
			"0.016": 0.0,
			"0.017": 0.0,
			"0.018": 0.0,
			"0.019": 0.0,
			"0.02": 0.0,
			"0.021": 0.0,
			"0.022": 0.0,
			"0.023": 0.0,
			"0.024": 0.0,
			"0.025": 0.0
		}
	}
}
