{
	 "smiles": "OC(=O)C1=CN(CCC#N)N=C1C1=CC(Br)=CC=C1", 
	 "Tm": 428.15, 
	 "num_atms": 29, 
	 "gaussian": { 
		 "optdone": 1, 
		 "sigma_profile": "yes", 
		 "theory": "DFT", 
		 "functional": "B3LYP", 
		 "basiset": "6-31G**", 
		 "properties": { 
			 "R2extent": 11717.9392, 
			 "electric_dipole_moment_norm": 6.91304877171, 
			 "electric_quadrupole_moment_norm": 25.8245113239, 
			 "total_energy": -3387.49410801, 
			 "HOMO_LUMO_gap": 0.20129, 
			 "cosmo_polarized_energy": -24.02, 
			 "cosmo_cavitation_energy": 38.01, 
			 "cosmo_dispersion_energy": -25.99, 
			 "cosmo_repulsion_energy": 2.03, 
			 "cosmo_total_nonelectrostatic_energy": 14.05, 
			 "SMD_solvation_energy": 7.0 
		},
		"coords": [
			{
				"x": -2.9476939155,
				"y": 3.2189038959,
				"z": -0.8581344627,
				"element": "O" 
			},
			{
				"x": -1.7657517202,
				"y": 3.3805102354,
				"z": -0.2145473474,
				"element": "C" 
			},
			{
				"x": -1.304316871,
				"y": 4.4895307185,
				"z": -0.0627273045,
				"element": "O" 
			},
			{
				"x": -1.0654584419,
				"y": 2.1638035964,
				"z": 0.2632462656,
				"element": "C" 
			},
			{
				"x": 0.2649559585,
				"y": 2.2109856492,
				"z": 0.6526539909,
				"element": "C" 
			},
			{
				"x": 0.6322099088,
				"y": 0.9509074815,
				"z": 0.9642422428,
				"element": "N" 
			},
			{
				"x": 1.922098328,
				"y": 0.4718963461,
				"z": 1.4322292381,
				"element": "C" 
			},
			{
				"x": 2.5758897935,
				"y": -0.5046898986,
				"z": 0.4350134896,
				"element": "C" 
			},
			{
				"x": 2.9508153638,
				"y": 0.1368759967,
				"z": -0.8270986788,
				"element": "C" 
			},
			{
				"x": 3.2470708977,
				"y": 0.6630587892,
				"z": -1.8178789619,
				"element": "N" 
			},
			{
				"x": -0.3795784249,
				"y": 0.0626191802,
				"z": 0.8130599515,
				"element": "N" 
			},
			{
				"x": -1.4220505265,
				"y": 0.782899968,
				"z": 0.3892395707,
				"element": "C" 
			},
			{
				"x": -2.7070345602,
				"y": 0.0960087383,
				"z": 0.1355282893,
				"element": "C" 
			},
			{
				"x": -3.9241959678,
				"y": 0.6529315189,
				"z": 0.5652730293,
				"element": "C" 
			},
			{
				"x": -5.1161467789,
				"y": -0.0323607189,
				"z": 0.330527271,
				"element": "C" 
			},
			{
				"x": -6.7608212233,
				"y": 0.7322245701,
				"z": 0.9260562286,
				"element": "Br" 
			},
			{
				"x": -5.1291332143,
				"y": -1.2664700014,
				"z": -0.3151719326,
				"element": "C" 
			},
			{
				"x": -3.915752275,
				"y": -1.8224625384,
				"z": -0.7276308108,
				"element": "C" 
			},
			{
				"x": -2.715247741,
				"y": -1.1526012692,
				"z": -0.5081377789,
				"element": "C" 
			},
			{
				"x": -3.1690781471,
				"y": 2.279937401,
				"z": -0.9559725838,
				"element": "H" 
			},
			{
				"x": 0.9387087372,
				"y": 3.0532180662,
				"z": 0.7004871644,
				"element": "H" 
			},
			{
				"x": 2.5594717741,
				"y": 1.3414482003,
				"z": 1.6039432549,
				"element": "H" 
			},
			{
				"x": 1.774308207,
				"y": -0.046528962,
				"z": 2.3836136978,
				"element": "H" 
			},
			{
				"x": 1.8769218575,
				"y": -1.3219029799,
				"z": 0.2308172023,
				"element": "H" 
			},
			{
				"x": 3.4715777911,
				"y": -0.9389075004,
				"z": 0.8928952582,
				"element": "H" 
			},
			{
				"x": -3.9427299071,
				"y": 1.5946966402,
				"z": 1.1016537581,
				"element": "H" 
			},
			{
				"x": -6.0663306409,
				"y": -1.7825286948,
				"z": -0.4884213332,
				"element": "H" 
			},
			{
				"x": -3.9142729189,
				"y": -2.7849537498,
				"z": -1.2303026975,
				"element": "H" 
			},
			{
				"x": -1.7742353429,
				"y": -1.5837506788,
				"z": -0.8307560108,
				"element": "H" 
			}
		],
		 "valence_orbital": [ 
			{
				"type": "occ",
				"energy": -0.29658,
				"method": "rhf"
			},
			{
				"type": "occ",
				"energy": -0.27535,
				"method": "rhf"
			},
			{
				"type": "occ",
				"energy": -0.26695,
				"method": "rhf"
			},
			{
				"type": "occ",
				"energy": -0.26548,
				"method": "rhf"
			},
			{
				"type": "occ",
				"energy": -0.25231,
				"method": "rhf"
			},
			{
				"type": "unocc",
				"energy": -0.05102,
				"method": "rhf"
			},
			{
				"type": "unocc",
				"energy": -0.03334,
				"method": "rhf"
			},
			{
				"type": "unocc",
				"energy": -0.02898,
				"method": "rhf"
			},
			{
				"type": "unocc",
				"energy": -0.00394,
				"method": "rhf"
			},
			{
				"type": "unocc",
				"energy": 0.00908,
				"method": "rhf"
			}
		],
		"cosmo_sigma_profile": { 
			"-0.025": 0.0,
			"-0.024": 0.0,
			"-0.023": 0.0,
			"-0.022": 0.0,
			"-0.021": 0.0,
			"-0.02": 0.0,
			"-0.019": 0.0,
			"-0.018": 0.0,
			"-0.017": 0.0,
			"-0.016": 0.0,
			"-0.015": 0.0,
			"-0.014": 0.207671026233,
			"-0.013": 1.15457323682,
			"-0.012": 1.13425802281,
			"-0.011": 2.86242177596,
			"-0.01": 4.44004942475,
			"-0.009": 10.7212381912,
			"-0.008": 14.5393548998,
			"-0.007": 16.771389286,
			"-0.006": 17.1877402923,
			"-0.005": 16.8950138102,
			"-0.004": 12.4802183868,
			"-0.003": 13.4559859305,
			"-0.002": 15.646048658,
			"-0.001": 17.7286567268,
			"0.0": 19.5883201643,
			"0.001": 22.5318891078,
			"0.002": 22.8671476127,
			"0.003": 18.808916118,
			"0.004": 17.3246089312,
			"0.005": 7.45808298723,
			"0.006": 6.83832749372,
			"0.007": 5.53767612829,
			"0.008": 6.71553369314,
			"0.009": 7.23351178368,
			"0.01": 7.84775161751,
			"0.011": 8.49582043415,
			"0.012": 8.51613388201,
			"0.013": 3.967597891,
			"0.014": 0.364763971225,
			"0.015": 0.0,
			"0.016": 0.0,
			"0.017": 0.0,
			"0.018": 0.0,
			"0.019": 0.0,
			"0.02": 0.0,
			"0.021": 0.0,
			"0.022": 0.0,
			"0.023": 0.0,
			"0.024": 0.0,
			"0.025": 0.0
		}
	}
}
