{
	 "smiles": "COC1=CC(OC)=NC(NC(=O)NS(=O)(=O)NC2=CC=CC=C2C(=O)C2CC2)=N1", 
	 "Tm": 435.15, 
	 "num_atms": 48, 
	 "gaussian": { 
		 "optdone": 1, 
		 "sigma_profile": "yes", 
		 "theory": "DFT", 
		 "functional": "B3LYP", 
		 "basiset": "6-31G**", 
		 "properties": { 
			 "R2extent": 15434.5638, 
			 "electric_dipole_moment_norm": 5.71193093183, 
			 "electric_quadrupole_moment_norm": 25.4036119373, 
			 "total_energy": -1782.4797152, 
			 "HOMO_LUMO_gap": 0.1541, 
			 "cosmo_polarized_energy": -22.72, 
			 "cosmo_cavitation_energy": 54.94, 
			 "cosmo_dispersion_energy": -37.95, 
			 "cosmo_repulsion_energy": 2.86, 
			 "cosmo_total_nonelectrostatic_energy": 19.85, 
			 "SMD_solvation_energy": 9.66 
		},
		"coords": [
			{
				"x": -4.2235911157,
				"y": 4.0981252542,
				"z": -0.2863458121,
				"element": "C" 
			},
			{
				"x": -4.808793812,
				"y": 3.1759968096,
				"z": -1.2199731493,
				"element": "O" 
			},
			{
				"x": -3.9974579249,
				"y": 2.2586450207,
				"z": -1.7664659358,
				"element": "C" 
			},
			{
				"x": -4.5492797728,
				"y": 1.3560548373,
				"z": -2.6765395562,
				"element": "C" 
			},
			{
				"x": -3.6503979594,
				"y": 0.4291248587,
				"z": -3.2077495473,
				"element": "C" 
			},
			{
				"x": -4.1280776949,
				"y": -0.4681388754,
				"z": -4.0864116779,
				"element": "O" 
			},
			{
				"x": -3.2028615874,
				"y": -1.4124993921,
				"z": -4.6384612238,
				"element": "C" 
			},
			{
				"x": -2.3532117862,
				"y": 0.3989956139,
				"z": -2.886389029,
				"element": "N" 
			},
			{
				"x": -1.9592093122,
				"y": 1.3260849966,
				"z": -2.0025939103,
				"element": "C" 
			},
			{
				"x": -0.598623338,
				"y": 1.2412408807,
				"z": -1.6950683174,
				"element": "N" 
			},
			{
				"x": 0.150745384,
				"y": 2.1172185819,
				"z": -0.9468938158,
				"element": "C" 
			},
			{
				"x": -0.1835800075,
				"y": 3.1828612579,
				"z": -0.4800789453,
				"element": "O" 
			},
			{
				"x": 1.5043382769,
				"y": 1.6907659393,
				"z": -0.7617524592,
				"element": "N" 
			},
			{
				"x": 2.2094405865,
				"y": 0.1806997843,
				"z": -0.9068079767,
				"element": "S" 
			},
			{
				"x": 3.6412987921,
				"y": 0.3902693243,
				"z": -0.731741576,
				"element": "O" 
			},
			{
				"x": 1.6955776639,
				"y": -0.4602468871,
				"z": -2.1199026635,
				"element": "O" 
			},
			{
				"x": 1.5133530646,
				"y": -0.5971509084,
				"z": 0.4179723693,
				"element": "N" 
			},
			{
				"x": 1.7584194466,
				"y": -1.955912842,
				"z": 0.7153825819,
				"element": "C" 
			},
			{
				"x": 1.7304349012,
				"y": -2.9302345594,
				"z": -0.2945858634,
				"element": "C" 
			},
			{
				"x": 1.8998072909,
				"y": -4.2730608001,
				"z": 0.0186037568,
				"element": "C" 
			},
			{
				"x": 2.0802772704,
				"y": -4.6793708404,
				"z": 1.3436389822,
				"element": "C" 
			},
			{
				"x": 2.1166243408,
				"y": -3.7211351811,
				"z": 2.3460191143,
				"element": "C" 
			},
			{
				"x": 1.9781440418,
				"y": -2.3457357352,
				"z": 2.0704746917,
				"element": "C" 
			},
			{
				"x": 2.0654012778,
				"y": -1.3371101545,
				"z": 3.1612453774,
				"element": "C" 
			},
			{
				"x": 1.7701637834,
				"y": -0.1465266762,
				"z": 2.966147856,
				"element": "O" 
			},
			{
				"x": 2.5277569475,
				"y": -1.7310309395,
				"z": 4.5216092433,
				"element": "C" 
			},
			{
				"x": 1.832411767,
				"y": -1.0648861306,
				"z": 5.7090866522,
				"element": "C" 
			},
			{
				"x": 3.2163124144,
				"y": -0.6531560495,
				"z": 5.3525743122,
				"element": "C" 
			},
			{
				"x": -2.7062209134,
				"y": 2.2520991695,
				"z": -1.4145113363,
				"element": "N" 
			},
			{
				"x": -3.8460799333,
				"y": 3.5737674738,
				"z": 0.5951855836,
				"element": "H" 
			},
			{
				"x": -5.0335027504,
				"y": 4.7744775171,
				"z": -0.0110770612,
				"element": "H" 
			},
			{
				"x": -3.3965543097,
				"y": 4.6470561199,
				"z": -0.7418936997,
				"element": "H" 
			},
			{
				"x": -5.5946984328,
				"y": 1.3717887852,
				"z": -2.9508272615,
				"element": "H" 
			},
			{
				"x": -2.4019695199,
				"y": -0.9064429393,
				"z": -5.1840484751,
				"element": "H" 
			},
			{
				"x": -2.7566736616,
				"y": -2.0307661975,
				"z": -3.8548505093,
				"element": "H" 
			},
			{
				"x": -3.7939588465,
				"y": -2.0285118609,
				"z": -5.3170338054,
				"element": "H" 
			},
			{
				"x": -0.1176035651,
				"y": 0.4700216992,
				"z": -2.1508277591,
				"element": "H" 
			},
			{
				"x": 2.0712301029,
				"y": 2.3730139864,
				"z": -0.2701426108,
				"element": "H" 
			},
			{
				"x": 1.556417416,
				"y": -0.0265101589,
				"z": 1.2801099055,
				"element": "H" 
			},
			{
				"x": 1.5607040033,
				"y": -2.6221591363,
				"z": -1.3183580511,
				"element": "H" 
			},
			{
				"x": 1.8718077571,
				"y": -5.0099795628,
				"z": -0.7787267345,
				"element": "H" 
			},
			{
				"x": 2.1879406472,
				"y": -5.7306036937,
				"z": 1.5898248074,
				"element": "H" 
			},
			{
				"x": 2.2415002259,
				"y": -4.0482761468,
				"z": 3.3708162751,
				"element": "H" 
			},
			{
				"x": 2.8804123484,
				"y": -2.7422688394,
				"z": 4.6709841125,
				"element": "H" 
			},
			{
				"x": 1.6702623709,
				"y": -1.6806531892,
				"z": 6.5879807149,
				"element": "H" 
			},
			{
				"x": 1.0269260762,
				"y": -0.3827311131,
				"z": 5.4583888781,
				"element": "H" 
			},
			{
				"x": 4.0415656055,
				"y": -0.9779979892,
				"z": 5.9779176618,
				"element": "H" 
			},
			{
				"x": 3.3427724401,
				"y": 0.3058888885,
				"z": 4.8622958867,
				"element": "H" 
			}
		],
		 "valence_orbital": [ 
			{
				"type": "occ",
				"energy": -0.27359,
				"method": "rhf"
			},
			{
				"type": "occ",
				"energy": -0.2672,
				"method": "rhf"
			},
			{
				"type": "occ",
				"energy": -0.25748,
				"method": "rhf"
			},
			{
				"type": "occ",
				"energy": -0.24092,
				"method": "rhf"
			},
			{
				"type": "occ",
				"energy": -0.22837,
				"method": "rhf"
			},
			{
				"type": "unocc",
				"energy": -0.07427,
				"method": "rhf"
			},
			{
				"type": "unocc",
				"energy": -0.02521,
				"method": "rhf"
			},
			{
				"type": "unocc",
				"energy": -0.01754,
				"method": "rhf"
			},
			{
				"type": "unocc",
				"energy": 0.00023,
				"method": "rhf"
			},
			{
				"type": "unocc",
				"energy": 0.01943,
				"method": "rhf"
			}
		],
		"cosmo_sigma_profile": { 
			"-0.025": 0.0,
			"-0.024": 0.0,
			"-0.023": 0.0,
			"-0.022": 0.0,
			"-0.021": 0.0,
			"-0.02": 0.0,
			"-0.019": 0.0,
			"-0.018": 0.0,
			"-0.017": 0.590130850622,
			"-0.016": 1.02120365398,
			"-0.015": 1.11202361949,
			"-0.014": 0.887121326723,
			"-0.013": 1.43511384888,
			"-0.012": 0.758090053434,
			"-0.011": 1.12527355215,
			"-0.01": 1.2474514043,
			"-0.009": 2.57088944133,
			"-0.008": 3.47264842584,
			"-0.007": 7.83652522249,
			"-0.006": 21.508619667,
			"-0.005": 31.4384414718,
			"-0.004": 34.5134653267,
			"-0.003": 36.1807809591,
			"-0.002": 38.264286689,
			"-0.001": 40.3825633785,
			"0.0": 34.0635642984,
			"0.001": 31.5018566874,
			"0.002": 32.0183491666,
			"0.003": 26.187592838,
			"0.004": 13.7243815743,
			"0.005": 11.2087604761,
			"0.006": 12.2096726604,
			"0.007": 8.45258812703,
			"0.008": 9.87322803114,
			"0.009": 14.1643595168,
			"0.01": 8.99428836986,
			"0.011": 6.64851071261,
			"0.012": 4.46464955471,
			"0.013": 1.10087462236,
			"0.014": 0.552449233392,
			"0.015": 0.00949627476284,
			"0.016": 0.0,
			"0.017": 0.0,
			"0.018": 0.0,
			"0.019": 0.0,
			"0.02": 0.0,
			"0.021": 0.0,
			"0.022": 0.0,
			"0.023": 0.0,
			"0.024": 0.0,
			"0.025": 0.0
		}
	}
}
