{
	 "smiles": "CC(=O)NC1=C(F)C=CC(=C1)S(Cl)(=O)=O", 
	 "Tm": 435.15, 
	 "num_atms": 22, 
	 "gaussian": { 
		 "optdone": 1, 
		 "sigma_profile": "yes", 
		 "theory": "DFT", 
		 "functional": "B3LYP", 
		 "basiset": "6-31G**", 
		 "properties": { 
			 "R2extent": 4618.4217, 
			 "electric_dipole_moment_norm": 3.00487644671, 
			 "electric_quadrupole_moment_norm": 20.334151059, 
			 "total_energy": -1547.65079661, 
			 "HOMO_LUMO_gap": 0.15844, 
			 "cosmo_polarized_energy": -14.95, 
			 "cosmo_cavitation_energy": 30.79, 
			 "cosmo_dispersion_energy": -22.26, 
			 "cosmo_repulsion_energy": 1.68, 
			 "cosmo_total_nonelectrostatic_energy": 10.22, 
			 "SMD_solvation_energy": 5.27 
		},
		"coords": [
			{
				"x": -2.9623645885,
				"y": -0.2120591521,
				"z": -0.3972544846,
				"element": "C" 
			},
			{
				"x": -2.6806782262,
				"y": 1.2597892699,
				"z": -0.6032339464,
				"element": "C" 
			},
			{
				"x": -3.5333987047,
				"y": 2.0430511573,
				"z": -0.982441444,
				"element": "O" 
			},
			{
				"x": -1.4013832738,
				"y": 1.758345832,
				"z": -0.3406486754,
				"element": "N" 
			},
			{
				"x": -0.221697138,
				"y": 1.1872698267,
				"z": 0.1340866528,
				"element": "C" 
			},
			{
				"x": 0.726999814,
				"y": 2.0642046045,
				"z": 0.7025614815,
				"element": "C" 
			},
			{
				"x": 0.401996233,
				"y": 3.3725349659,
				"z": 0.7486420156,
				"element": "F" 
			},
			{
				"x": 1.9550288851,
				"y": 1.6559260113,
				"z": 1.1919867467,
				"element": "C" 
			},
			{
				"x": 2.2935463876,
				"y": 0.3035536318,
				"z": 1.1396131385,
				"element": "C" 
			},
			{
				"x": 1.3713580042,
				"y": -0.5702058362,
				"z": 0.5700571021,
				"element": "C" 
			},
			{
				"x": 0.1382031664,
				"y": -0.163405155,
				"z": 0.0558049455,
				"element": "C" 
			},
			{
				"x": 1.7886900297,
				"y": -2.3032415682,
				"z": 0.4579671638,
				"element": "S" 
			},
			{
				"x": 0.9928805534,
				"y": -3.044404521,
				"z": 2.2944718977,
				"element": "Cl" 
			},
			{
				"x": 3.2342951817,
				"y": -2.4586507807,
				"z": 0.548998601,
				"element": "O" 
			},
			{
				"x": 0.9997771125,
				"y": -2.9217759257,
				"z": -0.6004951712,
				"element": "O" 
			},
			{
				"x": -4.0446446365,
				"y": -0.3383156706,
				"z": -0.409895592,
				"element": "H" 
			},
			{
				"x": -2.5586981888,
				"y": -0.5867210799,
				"z": 0.5473503808,
				"element": "H" 
			},
			{
				"x": -2.5385623691,
				"y": -0.8076696813,
				"z": -1.2130650513,
				"element": "H" 
			},
			{
				"x": -1.3853829169,
				"y": 2.7689288239,
				"z": -0.4159672314,
				"element": "H" 
			},
			{
				"x": 2.6270276707,
				"y": 2.396698653,
				"z": 1.6103282699,
				"element": "H" 
			},
			{
				"x": 3.2440075788,
				"y": -0.0565481946,
				"z": 1.5137213479,
				"element": "H" 
			},
			{
				"x": -0.5027005749,
				"y": -0.8937052108,
				"z": -0.4153881473,
				"element": "H" 
			}
		],
		 "valence_orbital": [ 
			{
				"type": "occ",
				"energy": -0.33471,
				"method": "rhf"
			},
			{
				"type": "occ",
				"energy": -0.3208,
				"method": "rhf"
			},
			{
				"type": "occ",
				"energy": -0.29729,
				"method": "rhf"
			},
			{
				"type": "occ",
				"energy": -0.27805,
				"method": "rhf"
			},
			{
				"type": "occ",
				"energy": -0.25611,
				"method": "rhf"
			},
			{
				"type": "unocc",
				"energy": -0.09767,
				"method": "rhf"
			},
			{
				"type": "unocc",
				"energy": -0.05411,
				"method": "rhf"
			},
			{
				"type": "unocc",
				"energy": -0.05085,
				"method": "rhf"
			},
			{
				"type": "unocc",
				"energy": 0.00551,
				"method": "rhf"
			},
			{
				"type": "unocc",
				"energy": 0.04282,
				"method": "rhf"
			}
		],
		"cosmo_sigma_profile": { 
			"-0.025": 0.0,
			"-0.024": 0.0,
			"-0.023": 0.0,
			"-0.022": 0.0,
			"-0.021": 0.0,
			"-0.02": 0.0,
			"-0.019": 0.0,
			"-0.018": 0.0,
			"-0.017": 0.0,
			"-0.016": 0.0,
			"-0.015": 0.0,
			"-0.014": 0.0,
			"-0.013": 0.532037379444,
			"-0.012": 0.403740502161,
			"-0.011": 0.650317017132,
			"-0.01": 2.54125305671,
			"-0.009": 5.91086501075,
			"-0.008": 7.33142416891,
			"-0.007": 9.2539478588,
			"-0.006": 13.1876815741,
			"-0.005": 11.6143365688,
			"-0.004": 12.4883931409,
			"-0.003": 16.7771139247,
			"-0.002": 25.4897464508,
			"-0.001": 22.1509917812,
			"0.0": 18.6007368951,
			"0.001": 14.0550720018,
			"0.002": 13.7720901155,
			"0.003": 20.6712362059,
			"0.004": 10.1739616214,
			"0.005": 3.24865041914,
			"0.006": 4.94551703411,
			"0.007": 7.42287273137,
			"0.008": 10.8517647889,
			"0.009": 5.13774813727,
			"0.01": 1.52380254981,
			"0.011": 2.43500714888,
			"0.012": 4.75445699903,
			"0.013": 3.63148520851,
			"0.014": 0.395418410028,
			"0.015": 0.0,
			"0.016": 0.0,
			"0.017": 0.0,
			"0.018": 0.0,
			"0.019": 0.0,
			"0.02": 0.0,
			"0.021": 0.0,
			"0.022": 0.0,
			"0.023": 0.0,
			"0.024": 0.0,
			"0.025": 0.0
		}
	}
}
