{
	 "smiles": "NCC1=CC=C(C=C1)C1=C(C=CC=C1)C#N", 
	 "Tm": 327.15, 
	 "num_atms": 28, 
	 "gaussian": { 
		 "optdone": 1, 
		 "sigma_profile": "yes", 
		 "theory": "DFT", 
		 "functional": "B3LYP", 
		 "basiset": "6-31G**", 
		 "properties": { 
			 "R2extent": 4410.4306, 
			 "electric_dipole_moment_norm": 4.40462119711, 
			 "electric_quadrupole_moment_norm": 10.1050230217, 
			 "total_energy": -650.212005592, 
			 "HOMO_LUMO_gap": 0.17248, 
			 "cosmo_polarized_energy": -13.81, 
			 "cosmo_cavitation_energy": 33.0, 
			 "cosmo_dispersion_energy": -22.88, 
			 "cosmo_repulsion_energy": 1.8, 
			 "cosmo_total_nonelectrostatic_energy": 11.92, 
			 "SMD_solvation_energy": 5.01 
		},
		"coords": [
			{
				"x": 0.6902475306,
				"y": 4.1682314094,
				"z": 2.2325923412,
				"element": "N" 
			},
			{
				"x": 1.7857085012,
				"y": 3.4000454492,
				"z": 1.6186565227,
				"element": "C" 
			},
			{
				"x": 1.3597469528,
				"y": 2.1592560392,
				"z": 0.8532088242,
				"element": "C" 
			},
			{
				"x": 1.0720294994,
				"y": 2.2186961787,
				"z": -0.5168297319,
				"element": "C" 
			},
			{
				"x": 0.6190592046,
				"y": 1.0961549644,
				"z": -1.2058454441,
				"element": "C" 
			},
			{
				"x": 0.4343966344,
				"y": -0.1292715658,
				"z": -0.5440134985,
				"element": "C" 
			},
			{
				"x": 0.7304695774,
				"y": -0.1930777116,
				"z": 0.8274994138,
				"element": "C" 
			},
			{
				"x": 1.1869000135,
				"y": 0.9325758441,
				"z": 1.5084815863,
				"element": "C" 
			},
			{
				"x": -0.023945264,
				"y": -1.3221809284,
				"z": -1.3017521463,
				"element": "C" 
			},
			{
				"x": -1.0490434997,
				"y": -2.1832786366,
				"z": -0.835901963,
				"element": "C" 
			},
			{
				"x": -1.4437594227,
				"y": -3.3030788166,
				"z": -1.5900295052,
				"element": "C" 
			},
			{
				"x": -0.8385439335,
				"y": -3.5803541922,
				"z": -2.810616242,
				"element": "C" 
			},
			{
				"x": 0.1664596224,
				"y": -2.7354217904,
				"z": -3.2860678196,
				"element": "C" 
			},
			{
				"x": 0.5630698528,
				"y": -1.6277018678,
				"z": -2.5398563361,
				"element": "C" 
			},
			{
				"x": -1.7506259023,
				"y": -1.9324462035,
				"z": 0.3913156875,
				"element": "C" 
			},
			{
				"x": -2.3528066261,
				"y": -1.7720494921,
				"z": 1.3740167747,
				"element": "N" 
			},
			{
				"x": 0.0236402019,
				"y": 4.4370485153,
				"z": 1.5111284131,
				"element": "H" 
			},
			{
				"x": 0.172914488,
				"y": 3.5649647179,
				"z": 2.8694498078,
				"element": "H" 
			},
			{
				"x": 2.4810013885,
				"y": 3.1192785953,
				"z": 2.4179777351,
				"element": "H" 
			},
			{
				"x": 2.3312372206,
				"y": 4.0757936488,
				"z": 0.9500877657,
				"element": "H" 
			},
			{
				"x": 1.2021936033,
				"y": 3.1571908946,
				"z": -1.0513913301,
				"element": "H" 
			},
			{
				"x": 0.3868825841,
				"y": 1.1719086458,
				"z": -2.2643485405,
				"element": "H" 
			},
			{
				"x": 0.6227222777,
				"y": -1.1318065872,
				"z": 1.3605638706,
				"element": "H" 
			},
			{
				"x": 1.4214186925,
				"y": 0.8535600045,
				"z": 2.5677063356,
				"element": "H" 
			},
			{
				"x": -2.2349693291,
				"y": -3.9398580758,
				"z": -1.2083364431,
				"element": "H" 
			},
			{
				"x": -1.149138729,
				"y": -4.4468249063,
				"z": -3.3857163977,
				"element": "H" 
			},
			{
				"x": 0.6498408123,
				"y": -2.9441383614,
				"z": -4.2359460342,
				"element": "H" 
			},
			{
				"x": 1.3623940485,
				"y": -0.9910157716,
				"z": -2.9056336459,
				"element": "H" 
			}
		],
		 "valence_orbital": [ 
			{
				"type": "occ",
				"energy": -0.28539,
				"method": "rhf"
			},
			{
				"type": "occ",
				"energy": -0.26689,
				"method": "rhf"
			},
			{
				"type": "occ",
				"energy": -0.25804,
				"method": "rhf"
			},
			{
				"type": "occ",
				"energy": -0.24923,
				"method": "rhf"
			},
			{
				"type": "occ",
				"energy": -0.22838,
				"method": "rhf"
			},
			{
				"type": "unocc",
				"energy": -0.0559,
				"method": "rhf"
			},
			{
				"type": "unocc",
				"energy": -0.03449,
				"method": "rhf"
			},
			{
				"type": "unocc",
				"energy": -0.01137,
				"method": "rhf"
			},
			{
				"type": "unocc",
				"energy": 0.00664,
				"method": "rhf"
			},
			{
				"type": "unocc",
				"energy": 0.04098,
				"method": "rhf"
			}
		],
		"cosmo_sigma_profile": { 
			"-0.025": 0.0,
			"-0.024": 0.0,
			"-0.023": 0.0,
			"-0.022": 0.0,
			"-0.021": 0.0,
			"-0.02": 0.0,
			"-0.019": 0.0,
			"-0.018": 0.0,
			"-0.017": 0.0,
			"-0.016": 0.0,
			"-0.015": 0.0,
			"-0.014": 0.0,
			"-0.013": 0.0,
			"-0.012": 0.0,
			"-0.011": 0.0,
			"-0.01": 0.382295935782,
			"-0.009": 2.25851487003,
			"-0.008": 4.21225124188,
			"-0.007": 9.33585736098,
			"-0.006": 17.5419470547,
			"-0.005": 25.3362795348,
			"-0.004": 22.630365417,
			"-0.003": 18.0713149689,
			"-0.002": 17.0923676592,
			"-0.001": 18.8598676275,
			"0.0": 16.9873014474,
			"0.001": 18.1828623627,
			"0.002": 19.6142508314,
			"0.003": 17.7590726567,
			"0.004": 10.8466329506,
			"0.005": 12.4365080983,
			"0.006": 3.46020697764,
			"0.007": 3.7710005167,
			"0.008": 3.99353705101,
			"0.009": 3.90735402716,
			"0.01": 3.46064273046,
			"0.011": 3.79269705428,
			"0.012": 3.15511443831,
			"0.013": 2.60254420304,
			"0.014": 1.09535212036,
			"0.015": 0.394287477033,
			"0.016": 0.3802739817,
			"0.017": 0.783885230442,
			"0.018": 0.754598824693,
			"0.019": 0.554225194404,
			"0.02": 0.314737985804,
			"0.021": 0.0,
			"0.022": 0.0,
			"0.023": 0.0,
			"0.024": 0.0,
			"0.025": 0.0
		}
	}
}
