{
	 "smiles": "CC1=NNC(=O)C1=N/NC1=CC=C(Cl)C=C1", 
	 "Tm": 488.15, 
	 "num_atms": 25, 
	 "gaussian": { 
		 "optdone": 1, 
		 "sigma_profile": "yes", 
		 "theory": "DFT", 
		 "functional": "B3LYP", 
		 "basiset": "6-31G**", 
		 "properties": { 
			 "R2extent": 6730.2618, 
			 "electric_dipole_moment_norm": 0.624472137089, 
			 "electric_quadrupole_moment_norm": 7.14791149637, 
			 "total_energy": -1140.87371286, 
			 "HOMO_LUMO_gap": 0.12551, 
			 "cosmo_polarized_energy": -12.03, 
			 "cosmo_cavitation_energy": 32.34, 
			 "cosmo_dispersion_energy": -23.83, 
			 "cosmo_repulsion_energy": 1.87, 
			 "cosmo_total_nonelectrostatic_energy": 10.37, 
			 "SMD_solvation_energy": 4.33 
		},
		"coords": [
			{
				"x": -2.9827995134,
				"y": 1.134190529,
				"z": 2.5042146691,
				"element": "C" 
			},
			{
				"x": -1.8582720691,
				"y": 0.5473844913,
				"z": 3.2916064492,
				"element": "C" 
			},
			{
				"x": -1.9299937004,
				"y": 0.3797780773,
				"z": 4.5849585825,
				"element": "N" 
			},
			{
				"x": -0.7209505845,
				"y": -0.1840122079,
				"z": 4.9913633208,
				"element": "N" 
			},
			{
				"x": 0.165418243,
				"y": -0.3965100572,
				"z": 3.9725912057,
				"element": "C" 
			},
			{
				"x": 1.3073213267,
				"y": -0.8776436814,
				"z": 4.0201915975,
				"element": "O" 
			},
			{
				"x": -0.5759223337,
				"y": 0.0915000891,
				"z": 2.7904189497,
				"element": "C" 
			},
			{
				"x": -0.1545183378,
				"y": 0.1059909856,
				"z": 1.5487040987,
				"element": "N" 
			},
			{
				"x": 1.0551780528,
				"y": -0.3617110857,
				"z": 1.3243355819,
				"element": "N" 
			},
			{
				"x": 1.6035932174,
				"y": -0.3930387249,
				"z": 0.0369486309,
				"element": "C" 
			},
			{
				"x": 0.8954590116,
				"y": 0.0713286209,
				"z": -1.0805785934,
				"element": "C" 
			},
			{
				"x": 1.4829314346,
				"y": 0.0195960745,
				"z": -2.3401989228,
				"element": "C" 
			},
			{
				"x": 2.773548566,
				"y": -0.4939985705,
				"z": -2.485215284,
				"element": "C" 
			},
			{
				"x": 3.5084614631,
				"y": -0.5559909273,
				"z": -4.078658335,
				"element": "Cl" 
			},
			{
				"x": 3.4851431437,
				"y": -0.9580284788,
				"z": -1.3791870586,
				"element": "C" 
			},
			{
				"x": 2.8986576366,
				"y": -0.9069436408,
				"z": -0.1178531439,
				"element": "C" 
			},
			{
				"x": -3.3341676384,
				"y": 0.4322424794,
				"z": 1.7402036156,
				"element": "H" 
			},
			{
				"x": -3.8123351297,
				"y": 1.3780775257,
				"z": 3.1706916652,
				"element": "H" 
			},
			{
				"x": -2.6639607146,
				"y": 2.0441220141,
				"z": 1.9843610209,
				"element": "H" 
			},
			{
				"x": -0.5787473388,
				"y": -0.3913939544,
				"z": 5.9672963885,
				"element": "H" 
			},
			{
				"x": 1.5903414338,
				"y": -0.707223351,
				"z": 2.1324932994,
				"element": "H" 
			},
			{
				"x": -0.1045224786,
				"y": 0.4666530089,
				"z": -0.9510121593,
				"element": "H" 
			},
			{
				"x": 0.9419467158,
				"y": 0.3767083033,
				"z": -3.2094724919,
				"element": "H" 
			},
			{
				"x": 4.486456134,
				"y": -1.3548666411,
				"z": -1.5023650568,
				"element": "H" 
			},
			{
				"x": 3.4472334599,
				"y": -1.2667108782,
				"z": 0.7481619701,
				"element": "H" 
			}
		],
		 "valence_orbital": [ 
			{
				"type": "occ",
				"energy": -0.29301,
				"method": "rhf"
			},
			{
				"type": "occ",
				"energy": -0.27577,
				"method": "rhf"
			},
			{
				"type": "occ",
				"energy": -0.25496,
				"method": "rhf"
			},
			{
				"type": "occ",
				"energy": -0.24634,
				"method": "rhf"
			},
			{
				"type": "occ",
				"energy": -0.21644,
				"method": "rhf"
			},
			{
				"type": "unocc",
				"energy": -0.09093,
				"method": "rhf"
			},
			{
				"type": "unocc",
				"energy": -0.02483,
				"method": "rhf"
			},
			{
				"type": "unocc",
				"energy": -0.00266,
				"method": "rhf"
			},
			{
				"type": "unocc",
				"energy": 0.02454,
				"method": "rhf"
			},
			{
				"type": "unocc",
				"energy": 0.03472,
				"method": "rhf"
			}
		],
		"cosmo_sigma_profile": { 
			"-0.025": 0.0,
			"-0.024": 0.0,
			"-0.023": 0.0,
			"-0.022": 0.0,
			"-0.021": 0.0,
			"-0.02": 0.0,
			"-0.019": 0.0,
			"-0.018": 0.0,
			"-0.017": 0.078020595746,
			"-0.016": 1.18098477203,
			"-0.015": 1.35913087578,
			"-0.014": 0.756765392364,
			"-0.013": 0.920356889088,
			"-0.012": 1.51538441936,
			"-0.011": 1.69760377219,
			"-0.01": 2.23540902889,
			"-0.009": 2.55785439763,
			"-0.008": 3.44163298524,
			"-0.007": 7.42502607423,
			"-0.006": 9.29843637099,
			"-0.005": 12.2002472174,
			"-0.004": 13.8244928834,
			"-0.003": 16.3289189782,
			"-0.002": 19.3686851836,
			"-0.001": 22.6452302032,
			"0.0": 26.8717800685,
			"0.001": 22.1016921705,
			"0.002": 23.7520104253,
			"0.003": 21.5733032474,
			"0.004": 15.1000963796,
			"0.005": 9.80133880236,
			"0.006": 2.99562591942,
			"0.007": 3.46513868781,
			"0.008": 2.12251848341,
			"0.009": 2.72347826022,
			"0.01": 2.79703395205,
			"0.011": 2.54128963739,
			"0.012": 3.78059316965,
			"0.013": 2.97282313383,
			"0.014": 2.05398721977,
			"0.015": 0.451852726059,
			"0.016": 0.0132648105381,
			"0.017": 0.0,
			"0.018": 0.0,
			"0.019": 0.0,
			"0.02": 0.0,
			"0.021": 0.0,
			"0.022": 0.0,
			"0.023": 0.0,
			"0.024": 0.0,
			"0.025": 0.0
		}
	}
}
