{
	 "smiles": "NCCCCCCCC(O)=O", 
	 "Tm": 468.15, 
	 "num_atms": 28, 
	 "gaussian": { 
		 "optdone": 1, 
		 "sigma_profile": "yes", 
		 "theory": "DFT", 
		 "functional": "B3LYP", 
		 "basiset": "6-31G**", 
		 "properties": { 
			 "R2extent": 2841.7486, 
			 "electric_dipole_moment_norm": 6.2141285101, 
			 "electric_quadrupole_moment_norm": 25.6921460931, 
			 "total_energy": -520.324572917, 
			 "HOMO_LUMO_gap": 0.27278, 
			 "cosmo_polarized_energy": -13.88, 
			 "cosmo_cavitation_energy": 28.31, 
			 "cosmo_dispersion_energy": -20.18, 
			 "cosmo_repulsion_energy": 1.64, 
			 "cosmo_total_nonelectrostatic_energy": 9.77, 
			 "SMD_solvation_energy": 5.22 
		},
		"coords": [
			{
				"x": -0.6117775067,
				"y": -0.2500054033,
				"z": 2.1819903194,
				"element": "N" 
			},
			{
				"x": -0.7176105005,
				"y": -1.4550547543,
				"z": 1.3268367935,
				"element": "C" 
			},
			{
				"x": 0.4165792303,
				"y": -1.5325682092,
				"z": 0.2855170334,
				"element": "C" 
			},
			{
				"x": 0.0445365423,
				"y": -1.0037290962,
				"z": -1.1126648338,
				"element": "C" 
			},
			{
				"x": -0.3887441536,
				"y": 0.4688270726,
				"z": -1.1845450634,
				"element": "C" 
			},
			{
				"x": 0.7465772669,
				"y": 1.4812123381,
				"z": -0.971376418,
				"element": "C" 
			},
			{
				"x": 0.2645311522,
				"y": 2.9416862907,
				"z": -0.9374311487,
				"element": "C" 
			},
			{
				"x": -0.5245463009,
				"y": 3.3341601035,
				"z": 0.3338768794,
				"element": "C" 
			},
			{
				"x": 0.3857384131,
				"y": 3.4027636709,
				"z": 1.5562051495,
				"element": "C" 
			},
			{
				"x": 0.5246672272,
				"y": 2.2732100256,
				"z": 2.2790104025,
				"element": "O" 
			},
			{
				"x": 0.9988390995,
				"y": 4.4036299801,
				"z": 1.8536789195,
				"element": "O" 
			},
			{
				"x": -1.4377773844,
				"y": -0.1793649627,
				"z": 2.774331445,
				"element": "H" 
			},
			{
				"x": 0.1699414213,
				"y": -0.3733036156,
				"z": 2.8252778314,
				"element": "H" 
			},
			{
				"x": -0.7236661587,
				"y": -2.3712346343,
				"z": 1.9356139262,
				"element": "H" 
			},
			{
				"x": -1.6878636799,
				"y": -1.4152001423,
				"z": 0.818309147,
				"element": "H" 
			},
			{
				"x": 0.7219723296,
				"y": -2.5801326366,
				"z": 0.1781509994,
				"element": "H" 
			},
			{
				"x": 1.2949132614,
				"y": -1.0040216771,
				"z": 0.6773081098,
				"element": "H" 
			},
			{
				"x": -0.7699180569,
				"y": -1.628924988,
				"z": -1.5035574339,
				"element": "H" 
			},
			{
				"x": 0.8960978022,
				"y": -1.1642390248,
				"z": -1.7875641403,
				"element": "H" 
			},
			{
				"x": -1.1897776732,
				"y": 0.6422819549,
				"z": -0.4555931138,
				"element": "H" 
			},
			{
				"x": -0.8364871175,
				"y": 0.6542303462,
				"z": -2.1702522753,
				"element": "H" 
			},
			{
				"x": 1.4753992275,
				"y": 1.3668678112,
				"z": -1.7844671976,
				"element": "H" 
			},
			{
				"x": 1.2906002018,
				"y": 1.2581231704,
				"z": -0.0458304073,
				"element": "H" 
			},
			{
				"x": 1.1224632951,
				"y": 3.6184890274,
				"z": -1.0205711138,
				"element": "H" 
			},
			{
				"x": -0.3700652324,
				"y": 3.1336538861,
				"z": -1.8122986108,
				"element": "H" 
			},
			{
				"x": -1.3570963321,
				"y": 2.6416921106,
				"z": 0.5028103012,
				"element": "H" 
			},
			{
				"x": -0.9433750826,
				"y": 4.3347968324,
				"z": 0.2007460089,
				"element": "H" 
			},
			{
				"x": -0.0171512912,
				"y": 1.5132545236,
				"z": 1.9502884908,
				"element": "H" 
			}
		],
		 "valence_orbital": [ 
			{
				"type": "occ",
				"energy": -0.31817,
				"method": "rhf"
			},
			{
				"type": "occ",
				"energy": -0.31496,
				"method": "rhf"
			},
			{
				"type": "occ",
				"energy": -0.28227,
				"method": "rhf"
			},
			{
				"type": "occ",
				"energy": -0.27581,
				"method": "rhf"
			},
			{
				"type": "occ",
				"energy": -0.23996,
				"method": "rhf"
			},
			{
				"type": "unocc",
				"energy": 0.03282,
				"method": "rhf"
			},
			{
				"type": "unocc",
				"energy": 0.0551,
				"method": "rhf"
			},
			{
				"type": "unocc",
				"energy": 0.08836,
				"method": "rhf"
			},
			{
				"type": "unocc",
				"energy": 0.09889,
				"method": "rhf"
			},
			{
				"type": "unocc",
				"energy": 0.10361,
				"method": "rhf"
			}
		],
		"cosmo_sigma_profile": { 
			"-0.025": 0.0,
			"-0.024": 0.0,
			"-0.023": 0.0,
			"-0.022": 0.0,
			"-0.021": 0.0,
			"-0.02": 0.0,
			"-0.019": 0.0,
			"-0.018": 0.0,
			"-0.017": 0.0,
			"-0.016": 0.0,
			"-0.015": 0.0,
			"-0.014": 0.0,
			"-0.013": 0.0,
			"-0.012": 0.0,
			"-0.011": 1.1405353067,
			"-0.01": 2.69630233928,
			"-0.009": 3.4423938639,
			"-0.008": 3.24934810351,
			"-0.007": 2.41268103695,
			"-0.006": 3.63922142189,
			"-0.005": 5.41398333304,
			"-0.004": 9.47496019637,
			"-0.003": 21.8440595921,
			"-0.002": 38.9717953533,
			"-0.001": 38.8979057619,
			"0.0": 29.9401266655,
			"0.001": 16.2544312067,
			"0.002": 4.60853365465,
			"0.003": 1.94354092269,
			"0.004": 2.03208411312,
			"0.005": 1.81611020921,
			"0.006": 2.0042339737,
			"0.007": 1.91919956942,
			"0.008": 1.85642882904,
			"0.009": 1.78404122067,
			"0.01": 3.32435901075,
			"0.011": 3.37325908688,
			"0.012": 5.24896689013,
			"0.013": 6.6367506455,
			"0.014": 3.55416534341,
			"0.015": 0.514395651751,
			"0.016": 0.0,
			"0.017": 0.0,
			"0.018": 0.0,
			"0.019": 0.0,
			"0.02": 0.0,
			"0.021": 0.0,
			"0.022": 0.0,
			"0.023": 0.0,
			"0.024": 0.0,
			"0.025": 0.0
		}
	}
}
