{
	 "smiles": "CC(C)N(C(C)C)C(=O)SCC(Cl)=C/Cl", 
	 "Tm": 298.15, 
	 "num_atms": 32, 
	 "gaussian": { 
		 "optdone": 1, 
		 "sigma_profile": "yes", 
		 "theory": "DFT", 
		 "functional": "B3LYP", 
		 "basiset": "6-31G**", 
		 "properties": { 
			 "R2extent": 8282.3512, 
			 "electric_dipole_moment_norm": 3.11766815745, 
			 "electric_quadrupole_moment_norm": 3.54021440452, 
			 "total_energy": -1839.86459285, 
			 "HOMO_LUMO_gap": 0.21872, 
			 "cosmo_polarized_energy": -8.72, 
			 "cosmo_cavitation_energy": 38.67, 
			 "cosmo_dispersion_energy": -26.35, 
			 "cosmo_repulsion_energy": 2.06, 
			 "cosmo_total_nonelectrostatic_energy": 14.39, 
			 "SMD_solvation_energy": 7.08 
		},
		"coords": [
			{
				"x": 0.5683178048,
				"y": -0.9867624987,
				"z": 1.7859983909,
				"element": "C" 
			},
			{
				"x": -0.4968650027,
				"y": -0.2705361104,
				"z": 0.9438262203,
				"element": "C" 
			},
			{
				"x": -1.0118012473,
				"y": 1.0126408184,
				"z": 1.6108924824,
				"element": "C" 
			},
			{
				"x": -0.0454805942,
				"y": -0.0364108906,
				"z": -0.4587916471,
				"element": "N" 
			},
			{
				"x": -0.7885515165,
				"y": -0.7049931616,
				"z": -1.5496805634,
				"element": "C" 
			},
			{
				"x": -2.2483687942,
				"y": -0.2330074234,
				"z": -1.6174920344,
				"element": "C" 
			},
			{
				"x": -0.6648713348,
				"y": -2.2335361342,
				"z": -1.4697627824,
				"element": "C" 
			},
			{
				"x": 1.0253975397,
				"y": 0.7775390693,
				"z": -0.6649547998,
				"element": "C" 
			},
			{
				"x": 1.6414388351,
				"y": 1.3461832268,
				"z": 0.2244407391,
				"element": "O" 
			},
			{
				"x": 1.5490438881,
				"y": 0.9753018075,
				"z": -2.4313381651,
				"element": "S" 
			},
			{
				"x": 2.9133045356,
				"y": 2.1860954135,
				"z": -2.1586527256,
				"element": "C" 
			},
			{
				"x": 2.6919005181,
				"y": 3.4779269748,
				"z": -2.8750690803,
				"element": "C" 
			},
			{
				"x": 2.8873972184,
				"y": 3.4099010636,
				"z": -4.6293618249,
				"element": "Cl" 
			},
			{
				"x": 2.378991034,
				"y": 4.6671993288,
				"z": -2.3528356264,
				"element": "C" 
			},
			{
				"x": 2.1422394836,
				"y": 4.9386138971,
				"z": -0.6501041242,
				"element": "Cl" 
			},
			{
				"x": 0.8867682614,
				"y": -1.91672426,
				"z": 1.3052626395,
				"element": "H" 
			},
			{
				"x": 1.442616248,
				"y": -0.3507867687,
				"z": 1.9305929094,
				"element": "H" 
			},
			{
				"x": 0.1519783348,
				"y": -1.2369396167,
				"z": 2.7674944689,
				"element": "H" 
			},
			{
				"x": -1.3463712443,
				"y": -0.9519176761,
				"z": 0.8451216179,
				"element": "H" 
			},
			{
				"x": -1.4302721068,
				"y": 0.7725176455,
				"z": 2.5940588146,
				"element": "H" 
			},
			{
				"x": -0.2036404016,
				"y": 1.733348986,
				"z": 1.7421811288,
				"element": "H" 
			},
			{
				"x": -1.8000971489,
				"y": 1.4764557144,
				"z": 1.0103883275,
				"element": "H" 
			},
			{
				"x": -0.3144679382,
				"y": -0.3944142702,
				"z": -2.4828023247,
				"element": "H" 
			},
			{
				"x": -2.7415135753,
				"y": -0.6800923392,
				"z": -2.4863962429,
				"element": "H" 
			},
			{
				"x": -2.8187484713,
				"y": -0.5256200247,
				"z": -0.7300511894,
				"element": "H" 
			},
			{
				"x": -2.2989104489,
				"y": 0.8547243499,
				"z": -1.7172202168,
				"element": "H" 
			},
			{
				"x": -1.1420518518,
				"y": -2.6385544239,
				"z": -0.5714606672,
				"element": "H" 
			},
			{
				"x": 0.3855503505,
				"y": -2.5375461781,
				"z": -1.4690532583,
				"element": "H" 
			},
			{
				"x": -1.1535697997,
				"y": -2.691217041,
				"z": -2.3356845838,
				"element": "H" 
			},
			{
				"x": 2.9525165665,
				"y": 2.3350465546,
				"z": -1.075888424,
				"element": "H" 
			},
			{
				"x": 3.8388119835,
				"y": 1.718323457,
				"z": -2.5009361151,
				"element": "H" 
			},
			{
				"x": 2.2475088743,
				"y": 5.5552405103,
				"z": -2.9570213437,
				"element": "H" 
			}
		],
		 "valence_orbital": [ 
			{
				"type": "occ",
				"energy": -0.31381,
				"method": "rhf"
			},
			{
				"type": "occ",
				"energy": -0.26027,
				"method": "rhf"
			},
			{
				"type": "occ",
				"energy": -0.25633,
				"method": "rhf"
			},
			{
				"type": "occ",
				"energy": -0.24834,
				"method": "rhf"
			},
			{
				"type": "occ",
				"energy": -0.23997,
				"method": "rhf"
			},
			{
				"type": "unocc",
				"energy": -0.02125,
				"method": "rhf"
			},
			{
				"type": "unocc",
				"energy": 0.00273,
				"method": "rhf"
			},
			{
				"type": "unocc",
				"energy": 0.02602,
				"method": "rhf"
			},
			{
				"type": "unocc",
				"energy": 0.03127,
				"method": "rhf"
			},
			{
				"type": "unocc",
				"energy": 0.06154,
				"method": "rhf"
			}
		],
		"cosmo_sigma_profile": { 
			"-0.025": 0.0,
			"-0.024": 0.0,
			"-0.023": 0.0,
			"-0.022": 0.0,
			"-0.021": 0.0,
			"-0.02": 0.0,
			"-0.019": 0.0,
			"-0.018": 0.0,
			"-0.017": 0.0,
			"-0.016": 0.0,
			"-0.015": 0.0,
			"-0.014": 0.0,
			"-0.013": 0.0,
			"-0.012": 0.0,
			"-0.011": 0.00646051367875,
			"-0.01": 1.0653895999,
			"-0.009": 1.63437966899,
			"-0.008": 2.39706885376,
			"-0.007": 3.01832741652,
			"-0.006": 5.85384316491,
			"-0.005": 7.75201423795,
			"-0.004": 20.4980063197,
			"-0.003": 30.6895288431,
			"-0.002": 35.5639081651,
			"-0.001": 34.7141584256,
			"0.0": 38.8588767003,
			"0.001": 36.8187322598,
			"0.002": 20.6318836741,
			"0.003": 22.1210318984,
			"0.004": 21.8393348063,
			"0.005": 7.65735678508,
			"0.006": 6.09392007097,
			"0.007": 4.22313508867,
			"0.008": 3.2489499909,
			"0.009": 1.76152108775,
			"0.01": 1.0739716338,
			"0.011": 1.82547477637,
			"0.012": 0.867721504219,
			"0.013": 0.0,
			"0.014": 0.0,
			"0.015": 0.0,
			"0.016": 0.0,
			"0.017": 0.0,
			"0.018": 0.0,
			"0.019": 0.0,
			"0.02": 0.0,
			"0.021": 0.0,
			"0.022": 0.0,
			"0.023": 0.0,
			"0.024": 0.0,
			"0.025": 0.0
		}
	}
}
