{
	 "smiles": "CN1N(C(=O)C(NC(=O)CSCC(O)=O)=C1C)C1=CC=CC=C1", 
	 "Tm": 454.15, 
	 "num_atms": 40, 
	 "gaussian": { 
		 "optdone": 1, 
		 "sigma_profile": "yes", 
		 "theory": "DFT", 
		 "functional": "B3LYP", 
		 "basiset": "6-31G**", 
		 "properties": { 
			 "R2extent": 8231.5217, 
			 "electric_dipole_moment_norm": 7.47502621333, 
			 "electric_quadrupole_moment_norm": 24.616699934, 
			 "total_energy": -1445.17173749, 
			 "HOMO_LUMO_gap": 0.18799, 
			 "cosmo_polarized_energy": -26.95, 
			 "cosmo_cavitation_energy": 43.43, 
			 "cosmo_dispersion_energy": -29.11, 
			 "cosmo_repulsion_energy": 2.14, 
			 "cosmo_total_nonelectrostatic_energy": 16.47, 
			 "SMD_solvation_energy": 9.46 
		},
		"coords": [
			{
				"x": 0.7083133875,
				"y": -2.4056089264,
				"z": 0.0482153226,
				"element": "C" 
			},
			{
				"x": 0.6044717596,
				"y": -1.0540000602,
				"z": -0.5194904402,
				"element": "N" 
			},
			{
				"x": -0.6916499518,
				"y": -0.4622811186,
				"z": -0.3324328747,
				"element": "N" 
			},
			{
				"x": -1.0244506333,
				"y": 0.3084322357,
				"z": -1.4595693793,
				"element": "C" 
			},
			{
				"x": -1.9870428727,
				"y": 1.052190107,
				"z": -1.5555944478,
				"element": "O" 
			},
			{
				"x": 0.0113714305,
				"y": -0.0218089098,
				"z": -2.4475686424,
				"element": "C" 
			},
			{
				"x": -0.0365622181,
				"y": 0.4820665601,
				"z": -3.7594092472,
				"element": "N" 
			},
			{
				"x": 0.7521575244,
				"y": 1.4490272341,
				"z": -4.3662146134,
				"element": "C" 
			},
			{
				"x": 0.4288467831,
				"y": 1.9205835252,
				"z": -5.4436087259,
				"element": "O" 
			},
			{
				"x": 2.0360911027,
				"y": 1.8887872571,
				"z": -3.6686465826,
				"element": "C" 
			},
			{
				"x": 1.6469753495,
				"y": 3.1862949652,
				"z": -2.4090915404,
				"element": "S" 
			},
			{
				"x": 3.0675013957,
				"y": 2.9756775851,
				"z": -1.2500414312,
				"element": "C" 
			},
			{
				"x": 3.0664856695,
				"y": 1.5773924211,
				"z": -0.6842038299,
				"element": "C" 
			},
			{
				"x": 2.1664525599,
				"y": 1.4128927501,
				"z": 0.3004407581,
				"element": "O" 
			},
			{
				"x": 3.7512569612,
				"y": 0.6726137361,
				"z": -1.1244799043,
				"element": "O" 
			},
			{
				"x": 0.8944944224,
				"y": -0.8904186427,
				"z": -1.8900722775,
				"element": "C" 
			},
			{
				"x": 2.0231125985,
				"y": -1.6305058807,
				"z": -2.5294198569,
				"element": "C" 
			},
			{
				"x": -1.1415582758,
				"y": -0.1489963544,
				"z": 0.9916672412,
				"element": "C" 
			},
			{
				"x": -1.9912004616,
				"y": -1.0467270622,
				"z": 1.6454695762,
				"element": "C" 
			},
			{
				"x": -2.4559196103,
				"y": -0.7562896731,
				"z": 2.9286971804,
				"element": "C" 
			},
			{
				"x": -2.081502458,
				"y": 0.4352912903,
				"z": 3.552082524,
				"element": "C" 
			},
			{
				"x": -1.2452135386,
				"y": 1.3377070349,
				"z": 2.8905325327,
				"element": "C" 
			},
			{
				"x": -0.7731234081,
				"y": 1.0511120381,
				"z": 1.609896488,
				"element": "C" 
			},
			{
				"x": 0.0281669542,
				"y": -3.1140469393,
				"z": -0.4423164176,
				"element": "H" 
			},
			{
				"x": 0.4694805654,
				"y": -2.3570186512,
				"z": 1.1111859375,
				"element": "H" 
			},
			{
				"x": 1.7388052426,
				"y": -2.7471903455,
				"z": -0.0582550502,
				"element": "H" 
			},
			{
				"x": -0.9482499053,
				"y": 0.4340316776,
				"z": -4.2029068256,
				"element": "H" 
			},
			{
				"x": 2.6832747687,
				"y": 2.3089199648,
				"z": -4.4390323387,
				"element": "H" 
			},
			{
				"x": 2.5450016702,
				"y": 1.0638547192,
				"z": -3.1696723388,
				"element": "H" 
			},
			{
				"x": 4.015776295,
				"y": 3.1637495951,
				"z": -1.7552396453,
				"element": "H" 
			},
			{
				"x": 2.9005686158,
				"y": 3.7217081172,
				"z": -0.4698957491,
				"element": "H" 
			},
			{
				"x": 2.0074793004,
				"y": 0.4522208873,
				"z": 0.4014796272,
				"element": "H" 
			},
			{
				"x": 2.9814410641,
				"y": -1.3697471165,
				"z": -2.0715089465,
				"element": "H" 
			},
			{
				"x": 2.060143056,
				"y": -1.3778864425,
				"z": -3.590890693,
				"element": "H" 
			},
			{
				"x": 1.8802385699,
				"y": -2.7139816875,
				"z": -2.4493991979,
				"element": "H" 
			},
			{
				"x": -2.2933566265,
				"y": -1.9560076182,
				"z": 1.1355731944,
				"element": "H" 
			},
			{
				"x": -3.1163285102,
				"y": -1.4540832174,
				"z": 3.434695314,
				"element": "H" 
			},
			{
				"x": -2.4473682693,
				"y": 0.6646938285,
				"z": 4.5486428484,
				"element": "H" 
			},
			{
				"x": -0.9631552053,
				"y": 2.2702796512,
				"z": 3.3700771601,
				"element": "H" 
			},
			{
				"x": -0.1272251018,
				"y": 1.7464714653,
				"z": 1.0861052917,
				"element": "H" 
			}
		],
		 "valence_orbital": [ 
			{
				"type": "occ",
				"energy": -0.2642,
				"method": "rhf"
			},
			{
				"type": "occ",
				"energy": -0.25447,
				"method": "rhf"
			},
			{
				"type": "occ",
				"energy": -0.24416,
				"method": "rhf"
			},
			{
				"type": "occ",
				"energy": -0.23615,
				"method": "rhf"
			},
			{
				"type": "occ",
				"energy": -0.21977,
				"method": "rhf"
			},
			{
				"type": "unocc",
				"energy": -0.03178,
				"method": "rhf"
			},
			{
				"type": "unocc",
				"energy": -0.02518,
				"method": "rhf"
			},
			{
				"type": "unocc",
				"energy": -0.02086,
				"method": "rhf"
			},
			{
				"type": "unocc",
				"energy": -0.01549,
				"method": "rhf"
			},
			{
				"type": "unocc",
				"energy": -0.00145,
				"method": "rhf"
			}
		],
		"cosmo_sigma_profile": { 
			"-0.025": 0.0,
			"-0.024": 0.0,
			"-0.023": 0.0,
			"-0.022": 0.0,
			"-0.021": 0.0,
			"-0.02": 0.0,
			"-0.019": 0.0,
			"-0.018": 0.0,
			"-0.017": 0.0,
			"-0.016": 0.0,
			"-0.015": 0.0260566527816,
			"-0.014": 0.5304184448,
			"-0.013": 0.906116281674,
			"-0.012": 0.823394413706,
			"-0.011": 1.2912829565,
			"-0.01": 1.86720718349,
			"-0.009": 3.34921428504,
			"-0.008": 5.19637895996,
			"-0.007": 11.4898085422,
			"-0.006": 29.2273308661,
			"-0.005": 32.7558392681,
			"-0.004": 32.7292015403,
			"-0.003": 26.6135047783,
			"-0.002": 20.9786396703,
			"-0.001": 19.9748666693,
			"0.0": 17.5106864331,
			"0.001": 17.3495523296,
			"0.002": 17.5230662172,
			"0.003": 17.0330426708,
			"0.004": 19.0240456695,
			"0.005": 11.3903215945,
			"0.006": 8.27726607955,
			"0.007": 6.74599031648,
			"0.008": 6.21006162521,
			"0.009": 4.95198949916,
			"0.01": 5.64213268701,
			"0.011": 5.59032173505,
			"0.012": 6.52165337715,
			"0.013": 8.71628453856,
			"0.014": 6.08713517528,
			"0.015": 0.405158554403,
			"0.016": 0.0,
			"0.017": 0.0,
			"0.018": 0.0,
			"0.019": 0.0,
			"0.02": 0.0,
			"0.021": 0.0,
			"0.022": 0.0,
			"0.023": 0.0,
			"0.024": 0.0,
			"0.025": 0.0
		}
	}
}
