{
	 "smiles": "COC(=O)C1=CC(Cl)=NC(Cl)=C1", 
	 "Tm": 355.65, 
	 "num_atms": 17, 
	 "gaussian": { 
		 "optdone": 1, 
		 "sigma_profile": "yes", 
		 "theory": "DFT", 
		 "functional": "B3LYP", 
		 "basiset": "6-31G**", 
		 "properties": { 
			 "R2extent": 3631.645, 
			 "electric_dipole_moment_norm": 4.16707092932, 
			 "electric_quadrupole_moment_norm": 8.36055544686, 
			 "total_energy": -1395.3461076, 
			 "HOMO_LUMO_gap": 0.18378, 
			 "cosmo_polarized_energy": -8.37, 
			 "cosmo_cavitation_energy": 26.28, 
			 "cosmo_dispersion_energy": -19.58, 
			 "cosmo_repulsion_energy": 1.59, 
			 "cosmo_total_nonelectrostatic_energy": 8.28, 
			 "SMD_solvation_energy": 4.28 
		},
		"coords": [
			{
				"x": 2.5809860059,
				"y": -2.5386378502,
				"z": 1.5463659639,
				"element": "C" 
			},
			{
				"x": 1.3779508948,
				"y": -1.8527079359,
				"z": 1.1515106565,
				"element": "O" 
			},
			{
				"x": 1.3338215071,
				"y": -1.4627747303,
				"z": -0.1348930019,
				"element": "C" 
			},
			{
				"x": 2.2227367872,
				"y": -1.6563149195,
				"z": -0.9374217956,
				"element": "O" 
			},
			{
				"x": 0.0519943147,
				"y": -0.7579795286,
				"z": -0.4671893804,
				"element": "C" 
			},
			{
				"x": -0.9560574709,
				"y": -0.54926592,
				"z": 0.4778447379,
				"element": "C" 
			},
			{
				"x": -2.1001794759,
				"y": 0.119616716,
				"z": 0.0423600829,
				"element": "C" 
			},
			{
				"x": -3.3987052536,
				"y": 0.4092567293,
				"z": 1.1868270983,
				"element": "Cl" 
			},
			{
				"x": -2.28782009,
				"y": 0.5622204452,
				"z": -1.1911671758,
				"element": "N" 
			},
			{
				"x": -1.3166162011,
				"y": 0.3514628184,
				"z": -2.067884575,
				"element": "C" 
			},
			{
				"x": -1.5865149703,
				"y": 0.9460904181,
				"z": -3.6953401348,
				"element": "Cl" 
			},
			{
				"x": -0.120468687,
				"y": -0.301017415,
				"z": -1.7760913876,
				"element": "C" 
			},
			{
				"x": 3.4510689119,
				"y": -1.8938691585,
				"z": 1.402678613,
				"element": "H" 
			},
			{
				"x": 2.7108289438,
				"y": -3.4489821029,
				"z": 0.9565948786,
				"element": "H" 
			},
			{
				"x": 2.4476577595,
				"y": -2.7775956253,
				"z": 2.6006389,
				"element": "H" 
			},
			{
				"x": -0.8548651693,
				"y": -0.8898744769,
				"z": 1.498950773,
				"element": "H" 
			},
			{
				"x": 0.651082193,
				"y": -0.4551274641,
				"z": -2.519084253,
				"element": "H" 
			}
		],
		 "valence_orbital": [ 
			{
				"type": "occ",
				"energy": -0.32435,
				"method": "rhf"
			},
			{
				"type": "occ",
				"energy": -0.30948,
				"method": "rhf"
			},
			{
				"type": "occ",
				"energy": -0.30443,
				"method": "rhf"
			},
			{
				"type": "occ",
				"energy": -0.29931,
				"method": "rhf"
			},
			{
				"type": "occ",
				"energy": -0.26891,
				"method": "rhf"
			},
			{
				"type": "unocc",
				"energy": -0.08513,
				"method": "rhf"
			},
			{
				"type": "unocc",
				"energy": -0.04413,
				"method": "rhf"
			},
			{
				"type": "unocc",
				"energy": 0.01055,
				"method": "rhf"
			},
			{
				"type": "unocc",
				"energy": 0.02454,
				"method": "rhf"
			},
			{
				"type": "unocc",
				"energy": 0.03753,
				"method": "rhf"
			}
		],
		"cosmo_sigma_profile": { 
			"-0.025": 0.0,
			"-0.024": 0.0,
			"-0.023": 0.0,
			"-0.022": 0.0,
			"-0.021": 0.0,
			"-0.02": 0.0,
			"-0.019": 0.0,
			"-0.018": 0.0,
			"-0.017": 0.0,
			"-0.016": 0.0,
			"-0.015": 0.0,
			"-0.014": 0.0,
			"-0.013": 0.0,
			"-0.012": 0.0,
			"-0.011": 0.0,
			"-0.01": 0.0,
			"-0.009": 0.5212667277,
			"-0.008": 2.16999808087,
			"-0.007": 4.78423278569,
			"-0.006": 9.73079493889,
			"-0.005": 12.5577843558,
			"-0.004": 18.8893294052,
			"-0.003": 20.9354989821,
			"-0.002": 27.0217478381,
			"-0.001": 15.5067322578,
			"0.0": 12.4694898371,
			"0.001": 13.1458835369,
			"0.002": 14.7353108259,
			"0.003": 20.8977301503,
			"0.004": 15.4656300937,
			"0.005": 6.20934544728,
			"0.006": 3.22731090645,
			"0.007": 3.08000795875,
			"0.008": 3.52911491461,
			"0.009": 2.44298220529,
			"0.01": 4.13169483527,
			"0.011": 4.22075440118,
			"0.012": 0.550267618081,
			"0.013": 0.0,
			"0.014": 0.0,
			"0.015": 0.0,
			"0.016": 0.0,
			"0.017": 0.0,
			"0.018": 0.0,
			"0.019": 0.0,
			"0.02": 0.0,
			"0.021": 0.0,
			"0.022": 0.0,
			"0.023": 0.0,
			"0.024": 0.0,
			"0.025": 0.0
		}
	}
}
