{
	 "smiles": "CCOC(=O)C1=NC(C)=NN1", 
	 "Tm": 458.15, 
	 "num_atms": 20, 
	 "gaussian": { 
		 "optdone": 1, 
		 "sigma_profile": "yes", 
		 "theory": "DFT", 
		 "functional": "B3LYP", 
		 "basiset": "6-31G**", 
		 "properties": { 
			 "R2extent": 2745.0075, 
			 "electric_dipole_moment_norm": 3.82018587113, 
			 "electric_quadrupole_moment_norm": 19.6876717768, 
			 "total_energy": -548.769609672, 
			 "HOMO_LUMO_gap": 0.21218, 
			 "cosmo_polarized_energy": -14.21, 
			 "cosmo_cavitation_energy": 25.06, 
			 "cosmo_dispersion_energy": -18.42, 
			 "cosmo_repulsion_energy": 1.53, 
			 "cosmo_total_nonelectrostatic_energy": 8.17, 
			 "SMD_solvation_energy": 2.98 
		},
		"coords": [
			{
				"x": -4.4217483906,
				"y": -0.6605306892,
				"z": -0.1819496186,
				"element": "C" 
			},
			{
				"x": -3.3616602952,
				"y": -1.6959503049,
				"z": 0.1387971635,
				"element": "C" 
			},
			{
				"x": -2.1159885195,
				"y": -0.9910482266,
				"z": 0.3663152293,
				"element": "O" 
			},
			{
				"x": -1.0476627811,
				"y": -1.770711277,
				"z": 0.6680172567,
				"element": "C" 
			},
			{
				"x": -1.074704371,
				"y": -2.9752314458,
				"z": 0.7544718643,
				"element": "O" 
			},
			{
				"x": 0.1485805761,
				"y": -0.9211187819,
				"z": 0.8730493436,
				"element": "C" 
			},
			{
				"x": 1.3730949804,
				"y": -1.3244701705,
				"z": 1.180530098,
				"element": "N" 
			},
			{
				"x": 2.0781688644,
				"y": -0.1610003443,
				"z": 1.250652491,
				"element": "C" 
			},
			{
				"x": 3.5370840715,
				"y": -0.1076825554,
				"z": 1.5761662155,
				"element": "C" 
			},
			{
				"x": 1.3551649254,
				"y": 0.9370192695,
				"z": 1.0031010927,
				"element": "N" 
			},
			{
				"x": 0.131623235,
				"y": 0.4296565101,
				"z": 0.7655860087,
				"element": "N" 
			},
			{
				"x": -5.3799819708,
				"y": -1.1577045038,
				"z": -0.3605229072,
				"element": "H" 
			},
			{
				"x": -4.1583522442,
				"y": -0.0931977302,
				"z": -1.079358767,
				"element": "H" 
			},
			{
				"x": -4.5498157864,
				"y": 0.0410195811,
				"z": 0.6475191424,
				"element": "H" 
			},
			{
				"x": -3.215286042,
				"y": -2.4060107305,
				"z": -0.6807816162,
				"element": "H" 
			},
			{
				"x": -3.6044972778,
				"y": -2.272518756,
				"z": 1.0365351496,
				"element": "H" 
			},
			{
				"x": 4.1048982667,
				"y": 0.352441231,
				"z": 0.7617073161,
				"element": "H" 
			},
			{
				"x": 3.9086111038,
				"y": -1.1204308927,
				"z": 1.7376369556,
				"element": "H" 
			},
			{
				"x": 3.7169306334,
				"y": 0.4839078274,
				"z": 2.4790215363,
				"element": "H" 
			},
			{
				"x": -0.6516589782,
				"y": 1.0265619894,
				"z": 0.5429060455,
				"element": "H" 
			}
		],
		 "valence_orbital": [ 
			{
				"type": "occ",
				"energy": -0.31557,
				"method": "rhf"
			},
			{
				"type": "occ",
				"energy": -0.3018,
				"method": "rhf"
			},
			{
				"type": "occ",
				"energy": -0.28931,
				"method": "rhf"
			},
			{
				"type": "occ",
				"energy": -0.27903,
				"method": "rhf"
			},
			{
				"type": "occ",
				"energy": -0.26397,
				"method": "rhf"
			},
			{
				"type": "unocc",
				"energy": -0.05179,
				"method": "rhf"
			},
			{
				"type": "unocc",
				"energy": 0.03213,
				"method": "rhf"
			},
			{
				"type": "unocc",
				"energy": 0.07744,
				"method": "rhf"
			},
			{
				"type": "unocc",
				"energy": 0.09292,
				"method": "rhf"
			},
			{
				"type": "unocc",
				"energy": 0.09728,
				"method": "rhf"
			}
		],
		"cosmo_sigma_profile": { 
			"-0.025": 0.0,
			"-0.024": 0.0,
			"-0.023": 0.0,
			"-0.022": 0.0,
			"-0.021": 0.0,
			"-0.02": 0.0,
			"-0.019": 0.0,
			"-0.018": 0.278209295761,
			"-0.017": 1.21857580595,
			"-0.016": 0.642079970397,
			"-0.015": 0.61590604764,
			"-0.014": 0.838669465358,
			"-0.013": 0.957066136023,
			"-0.012": 0.90473192996,
			"-0.011": 0.271816508368,
			"-0.01": 0.946250182024,
			"-0.009": 0.834278237062,
			"-0.008": 0.724597501427,
			"-0.007": 0.985836400678,
			"-0.006": 4.83120518841,
			"-0.005": 17.0889814827,
			"-0.004": 23.5396763919,
			"-0.003": 20.6289667848,
			"-0.002": 20.3707442559,
			"-0.001": 21.1530007631,
			"0.0": 16.0631247106,
			"0.001": 8.38613634862,
			"0.002": 7.05836859304,
			"0.003": 5.63336559425,
			"0.004": 3.7714452097,
			"0.005": 4.21353421104,
			"0.006": 4.0897493631,
			"0.007": 3.27162502967,
			"0.008": 2.77381176252,
			"0.009": 4.08566400995,
			"0.01": 5.69292238828,
			"0.011": 6.40182103617,
			"0.012": 4.03844897006,
			"0.013": 2.88014000068,
			"0.014": 2.01925016299,
			"0.015": 1.11095330668,
			"0.016": 0.345475426228,
			"0.017": 0.0,
			"0.018": 0.0,
			"0.019": 0.0,
			"0.02": 0.0,
			"0.021": 0.0,
			"0.022": 0.0,
			"0.023": 0.0,
			"0.024": 0.0,
			"0.025": 0.0
		}
	}
}
