{
	 "smiles": "OC(=O)C1=C(SC(F)(F)F)C=CC=C1", 
	 "Tm": 394.15, 
	 "num_atms": 19, 
	 "gaussian": { 
		 "optdone": 1, 
		 "sigma_profile": "yes", 
		 "theory": "DFT", 
		 "functional": "B3LYP", 
		 "basiset": "6-31G**", 
		 "properties": { 
			 "R2extent": 2775.2659, 
			 "electric_dipole_moment_norm": 2.47223270143, 
			 "electric_quadrupole_moment_norm": 10.2266028397, 
			 "total_energy": -1156.01896677, 
			 "HOMO_LUMO_gap": 0.19304, 
			 "cosmo_polarized_energy": -9.45, 
			 "cosmo_cavitation_energy": 26.73, 
			 "cosmo_dispersion_energy": -19.19, 
			 "cosmo_repulsion_energy": 1.42, 
			 "cosmo_total_nonelectrostatic_energy": 8.96, 
			 "SMD_solvation_energy": 6.5 
		},
		"coords": [
			{
				"x": -2.0970941139,
				"y": 1.0371436693,
				"z": -0.5573957616,
				"element": "O" 
			},
			{
				"x": -1.7776329535,
				"y": -0.2650433509,
				"z": -0.678826527,
				"element": "C" 
			},
			{
				"x": -2.6156018259,
				"y": -1.1438696319,
				"z": -0.6418122248,
				"element": "O" 
			},
			{
				"x": -0.3235570306,
				"y": -0.5359154203,
				"z": -0.9349628827,
				"element": "C" 
			},
			{
				"x": 0.7755192906,
				"y": 0.2588123737,
				"z": -0.5360464785,
				"element": "C" 
			},
			{
				"x": 0.6523790578,
				"y": 1.7900331065,
				"z": 0.4031230653,
				"element": "S" 
			},
			{
				"x": 0.3155206474,
				"y": 1.1011706922,
				"z": 2.0568107341,
				"element": "C" 
			},
			{
				"x": 0.1901007176,
				"y": 2.1376246969,
				"z": 2.9014170472,
				"element": "F" 
			},
			{
				"x": -0.8186831634,
				"y": 0.3770921325,
				"z": 2.1075864292,
				"element": "F" 
			},
			{
				"x": 1.3037382952,
				"y": 0.3086233142,
				"z": 2.5040845069,
				"element": "F" 
			},
			{
				"x": 2.0731366482,
				"y": -0.1408941898,
				"z": -0.8820207072,
				"element": "C" 
			},
			{
				"x": 2.2971612807,
				"y": -1.3064867338,
				"z": -1.613839363,
				"element": "C" 
			},
			{
				"x": 1.2179913791,
				"y": -2.1067670292,
				"z": -1.9850274079,
				"element": "C" 
			},
			{
				"x": -0.0742334173,
				"y": -1.7258616945,
				"z": -1.6357450039,
				"element": "C" 
			},
			{
				"x": -3.0565921879,
				"y": 1.0591555137,
				"z": -0.4012461516,
				"element": "H" 
			},
			{
				"x": 2.9095567461,
				"y": 0.4699844439,
				"z": -0.5604970663,
				"element": "H" 
			},
			{
				"x": 3.311643133,
				"y": -1.591890657,
				"z": -1.8754100988,
				"element": "H" 
			},
			{
				"x": 1.3792764276,
				"y": -3.0250930062,
				"z": -2.5411419343,
				"element": "H" 
			},
			{
				"x": -0.9267289308,
				"y": -2.3400182293,
				"z": -1.9033501751,
				"element": "H" 
			}
		],
		 "valence_orbital": [ 
			{
				"type": "occ",
				"energy": -0.32479,
				"method": "rhf"
			},
			{
				"type": "occ",
				"energy": -0.28998,
				"method": "rhf"
			},
			{
				"type": "occ",
				"energy": -0.28043,
				"method": "rhf"
			},
			{
				"type": "occ",
				"energy": -0.27204,
				"method": "rhf"
			},
			{
				"type": "occ",
				"energy": -0.25653,
				"method": "rhf"
			},
			{
				"type": "unocc",
				"energy": -0.06349,
				"method": "rhf"
			},
			{
				"type": "unocc",
				"energy": -0.03309,
				"method": "rhf"
			},
			{
				"type": "unocc",
				"energy": 0.01291,
				"method": "rhf"
			},
			{
				"type": "unocc",
				"energy": 0.03525,
				"method": "rhf"
			},
			{
				"type": "unocc",
				"energy": 0.05841,
				"method": "rhf"
			}
		],
		"cosmo_sigma_profile": { 
			"-0.025": 0.0,
			"-0.024": 0.0,
			"-0.023": 0.0,
			"-0.022": 0.0,
			"-0.021": 0.0,
			"-0.02": 0.0,
			"-0.019": 0.200051863515,
			"-0.018": 0.873614848978,
			"-0.017": 1.06651924148,
			"-0.016": 0.429594727296,
			"-0.015": 1.074942857,
			"-0.014": 0.806539438606,
			"-0.013": 0.635346784142,
			"-0.012": 0.518293492706,
			"-0.011": 0.5003791244,
			"-0.01": 0.570232786183,
			"-0.009": 0.740726056617,
			"-0.008": 1.76841539379,
			"-0.007": 8.13180379285,
			"-0.006": 9.83928576442,
			"-0.005": 8.4354304408,
			"-0.004": 6.92780781336,
			"-0.003": 10.2663059891,
			"-0.002": 11.9036143192,
			"-0.001": 16.5298623417,
			"0.0": 20.3045129085,
			"0.001": 31.1108111459,
			"0.002": 44.9752909587,
			"0.003": 10.122202015,
			"0.004": 4.43014029537,
			"0.005": 3.80046849706,
			"0.006": 2.51778590203,
			"0.007": 3.07700478014,
			"0.008": 2.22377970055,
			"0.009": 3.32995233154,
			"0.01": 2.91852435598,
			"0.011": 4.56941150273,
			"0.012": 1.93752464927,
			"0.013": 0.0,
			"0.014": 0.0,
			"0.015": 0.0,
			"0.016": 0.0,
			"0.017": 0.0,
			"0.018": 0.0,
			"0.019": 0.0,
			"0.02": 0.0,
			"0.021": 0.0,
			"0.022": 0.0,
			"0.023": 0.0,
			"0.024": 0.0,
			"0.025": 0.0
		}
	}
}
