{
	 "smiles": "OC(=O)C1=CC(=C(Cl)C=C1)S(=O)(=O)NCC1=CC=CO1", 
	 "Tm": 407.15, 
	 "num_atms": 30, 
	 "gaussian": { 
		 "optdone": 1, 
		 "sigma_profile": "yes", 
		 "theory": "DFT", 
		 "functional": "B3LYP", 
		 "basiset": "6-31G**", 
		 "properties": { 
			 "R2extent": 5969.3659, 
			 "electric_dipole_moment_norm": 4.80162457716, 
			 "electric_quadrupole_moment_norm": 16.1551300341, 
			 "total_energy": -1752.4647681, 
			 "HOMO_LUMO_gap": 0.16276, 
			 "cosmo_polarized_energy": -20.0, 
			 "cosmo_cavitation_energy": 38.72, 
			 "cosmo_dispersion_energy": -26.03, 
			 "cosmo_repulsion_energy": 1.97, 
			 "cosmo_total_nonelectrostatic_energy": 14.66, 
			 "SMD_solvation_energy": 6.93 
		},
		"coords": [
			{
				"x": 2.3708455432,
				"y": -3.2274326677,
				"z": -2.0606403893,
				"element": "O" 
			},
			{
				"x": 1.022924435,
				"y": -3.3313880725,
				"z": -2.0133656617,
				"element": "C" 
			},
			{
				"x": 0.4405328816,
				"y": -4.386253906,
				"z": -2.1656145993,
				"element": "O" 
			},
			{
				"x": 0.3492642468,
				"y": -2.0288641761,
				"z": -1.756025027,
				"element": "C" 
			},
			{
				"x": 1.0658460028,
				"y": -0.8403987212,
				"z": -1.5872260781,
				"element": "C" 
			},
			{
				"x": 0.3964607688,
				"y": 0.3604191981,
				"z": -1.3474585877,
				"element": "C" 
			},
			{
				"x": -1.0046917117,
				"y": 0.3632282401,
				"z": -1.2787450083,
				"element": "C" 
			},
			{
				"x": -1.9177726427,
				"y": 1.8254085075,
				"z": -0.971650397,
				"element": "Cl" 
			},
			{
				"x": -1.7236601967,
				"y": -0.8232181774,
				"z": -1.4421626925,
				"element": "C" 
			},
			{
				"x": -1.048171891,
				"y": -2.0136502641,
				"z": -1.6827687238,
				"element": "C" 
			},
			{
				"x": 1.4240249603,
				"y": 1.8529835057,
				"z": -1.2112316372,
				"element": "S" 
			},
			{
				"x": 0.9407500191,
				"y": 2.803163081,
				"z": -2.2075588409,
				"element": "O" 
			},
			{
				"x": 2.8092485108,
				"y": 1.3790265993,
				"z": -1.1892211958,
				"element": "O" 
			},
			{
				"x": 1.1504604582,
				"y": 2.5475283196,
				"z": 0.2800061736,
				"element": "N" 
			},
			{
				"x": 1.7150072767,
				"y": 1.9635322869,
				"z": 1.5091663395,
				"element": "C" 
			},
			{
				"x": 0.9380632336,
				"y": 0.8407474812,
				"z": 2.1139189615,
				"element": "C" 
			},
			{
				"x": 1.2078649279,
				"y": -0.4751210805,
				"z": 2.350408139,
				"element": "C" 
			},
			{
				"x": 0.0419693441,
				"y": -1.0253127922,
				"z": 2.9798502444,
				"element": "C" 
			},
			{
				"x": -0.8516208918,
				"y": -0.0040952506,
				"z": 3.0762482885,
				"element": "C" 
			},
			{
				"x": -0.3233063313,
				"y": 1.1425644097,
				"z": 2.5577764933,
				"element": "O" 
			},
			{
				"x": 2.7057115745,
				"y": -4.1216402164,
				"z": -2.238987965,
				"element": "H" 
			},
			{
				"x": 2.1473521089,
				"y": -0.8320822946,
				"z": -1.6425104829,
				"element": "H" 
			},
			{
				"x": -2.8058356312,
				"y": -0.800477186,
				"z": -1.3818949526,
				"element": "H" 
			},
			{
				"x": -1.5898398472,
				"y": -2.943802875,
				"z": -1.8156323804,
				"element": "H" 
			},
			{
				"x": 0.2150437014,
				"y": 2.9350369349,
				"z": 0.3564428998,
				"element": "H" 
			},
			{
				"x": 1.8029459375,
				"y": 2.7920093533,
				"z": 2.2215731249,
				"element": "H" 
			},
			{
				"x": 2.7255395931,
				"y": 1.6253628883,
				"z": 1.275088465,
				"element": "H" 
			},
			{
				"x": 2.1255075005,
				"y": -0.9907239467,
				"z": 2.1053516446,
				"element": "H" 
			},
			{
				"x": -0.1052937686,
				"y": -2.0429209773,
				"z": 3.311617168,
				"element": "H" 
			},
			{
				"x": -1.8541701126,
				"y": 0.0750717988,
				"z": 3.4670466774,
				"element": "H" 
			}
		],
		 "valence_orbital": [ 
			{
				"type": "occ",
				"energy": -0.29061,
				"method": "rhf"
			},
			{
				"type": "occ",
				"energy": -0.28941,
				"method": "rhf"
			},
			{
				"type": "occ",
				"energy": -0.28007,
				"method": "rhf"
			},
			{
				"type": "occ",
				"energy": -0.27294,
				"method": "rhf"
			},
			{
				"type": "occ",
				"energy": -0.23652,
				"method": "rhf"
			},
			{
				"type": "unocc",
				"energy": -0.07376,
				"method": "rhf"
			},
			{
				"type": "unocc",
				"energy": -0.04681,
				"method": "rhf"
			},
			{
				"type": "unocc",
				"energy": -0.00366,
				"method": "rhf"
			},
			{
				"type": "unocc",
				"energy": 0.00099,
				"method": "rhf"
			},
			{
				"type": "unocc",
				"energy": 0.02369,
				"method": "rhf"
			}
		],
		"cosmo_sigma_profile": { 
			"-0.025": 0.0,
			"-0.024": 0.0,
			"-0.023": 0.0,
			"-0.022": 0.0,
			"-0.021": 0.0,
			"-0.02": 0.0,
			"-0.019": 0.371930212006,
			"-0.018": 0.961305725711,
			"-0.017": 1.04427568691,
			"-0.016": 0.680771472688,
			"-0.015": 0.835207041088,
			"-0.014": 0.661495079987,
			"-0.013": 1.35307515512,
			"-0.012": 1.51539277393,
			"-0.011": 1.61085365649,
			"-0.01": 1.42230142384,
			"-0.009": 3.36325729804,
			"-0.008": 7.70388674416,
			"-0.007": 14.678353644,
			"-0.006": 13.5360687306,
			"-0.005": 13.4859771663,
			"-0.004": 17.7402389581,
			"-0.003": 21.4488027629,
			"-0.002": 22.4816551447,
			"-0.001": 26.2209157699,
			"0.0": 22.6564539473,
			"0.001": 22.2834827264,
			"0.002": 20.0648691276,
			"0.003": 18.7012599656,
			"0.004": 12.9221474568,
			"0.005": 11.273977073,
			"0.006": 9.15493041498,
			"0.007": 7.45652485421,
			"0.008": 7.05109917843,
			"0.009": 5.65524502906,
			"0.01": 11.8295815025,
			"0.011": 11.234415039,
			"0.012": 1.3917481426,
			"0.013": 0.0,
			"0.014": 0.0,
			"0.015": 0.0,
			"0.016": 0.0,
			"0.017": 0.0,
			"0.018": 0.0,
			"0.019": 0.0,
			"0.02": 0.0,
			"0.021": 0.0,
			"0.022": 0.0,
			"0.023": 0.0,
			"0.024": 0.0,
			"0.0": 0.0
		}
	}
}
