{
	 "smiles": "NC1=C(C=C2CCCCC2=N1)C#N", 
	 "Tm": 469.15, 
	 "num_atms": 24, 
	 "gaussian": { 
		 "optdone": 1, 
		 "sigma_profile": "yes", 
		 "theory": "DFT", 
		 "functional": "B3LYP", 
		 "basiset": "6-31G**", 
		 "properties": { 
			 "R2extent": 2825.5757, 
			 "electric_dipole_moment_norm": 3.74598501065, 
			 "electric_quadrupole_moment_norm": 20.5418593148, 
			 "total_energy": -551.96365056, 
			 "HOMO_LUMO_gap": 0.17038, 
			 "cosmo_polarized_energy": -11.18, 
			 "cosmo_cavitation_energy": 27.32, 
			 "cosmo_dispersion_energy": -20.1, 
			 "cosmo_repulsion_energy": 1.61, 
			 "cosmo_total_nonelectrostatic_energy": 8.83, 
			 "SMD_solvation_energy": 3.69 
		},
		"coords": [
			{
				"x": -0.7183700406,
				"y": -2.3754559314,
				"z": 2.4032461988,
				"element": "N" 
			},
			{
				"x": -0.6557248606,
				"y": -1.5902343436,
				"z": 1.2882985686,
				"element": "C" 
			},
			{
				"x": -0.563155697,
				"y": -2.1570943277,
				"z": -0.0157903068,
				"element": "C" 
			},
			{
				"x": -0.5446333382,
				"y": -1.2839575124,
				"z": -1.1068736994,
				"element": "C" 
			},
			{
				"x": -0.6136906085,
				"y": 0.0953572197,
				"z": -0.9195413156,
				"element": "C" 
			},
			{
				"x": -0.5707719973,
				"y": 1.05160852,
				"z": -2.0977231793,
				"element": "C" 
			},
			{
				"x": -1.0789921139,
				"y": 2.454719468,
				"z": -1.7404501701,
				"element": "C" 
			},
			{
				"x": -0.4267376182,
				"y": 2.9419793573,
				"z": -0.4412369965,
				"element": "C" 
			},
			{
				"x": -0.8084399109,
				"y": 2.0287701778,
				"z": 0.730633759,
				"element": "C" 
			},
			{
				"x": -0.6979884841,
				"y": 0.5520014894,
				"z": 0.4111553211,
				"element": "C" 
			},
			{
				"x": -0.7151266984,
				"y": -0.2667591262,
				"z": 1.4726834011,
				"element": "N" 
			},
			{
				"x": -0.4861036609,
				"y": -3.5711331142,
				"z": -0.1735841658,
				"element": "C" 
			},
			{
				"x": -0.4177369827,
				"y": -4.7327498912,
				"z": -0.2418864064,
				"element": "N" 
			},
			{
				"x": -0.4702110921,
				"y": -3.3506996788,
				"z": 2.3467306507,
				"element": "H" 
			},
			{
				"x": -0.6156108206,
				"y": -1.9055946917,
				"z": 3.2889332804,
				"element": "H" 
			},
			{
				"x": -0.4754650011,
				"y": -1.6974161094,
				"z": -2.1095725682,
				"element": "H" 
			},
			{
				"x": 0.4651204526,
				"y": 1.1308719167,
				"z": -2.4593582162,
				"element": "H" 
			},
			{
				"x": -1.1489125706,
				"y": 0.6351849236,
				"z": -2.9314853436,
				"element": "H" 
			},
			{
				"x": -0.8699273231,
				"y": 3.1455755484,
				"z": -2.5645473773,
				"element": "H" 
			},
			{
				"x": -2.1697620441,
				"y": 2.4325579427,
				"z": -1.6138687972,
				"element": "H" 
			},
			{
				"x": 0.6645864319,
				"y": 2.9493845047,
				"z": -0.5659062747,
				"element": "H" 
			},
			{
				"x": -0.7231774268,
				"y": 3.9728328984,
				"z": -0.2188329954,
				"element": "H" 
			},
			{
				"x": -0.2025669949,
				"y": 2.2351585811,
				"z": 1.6190220082,
				"element": "H" 
			},
			{
				"x": -1.8486015999,
				"y": 2.2242921789,
				"z": 1.0290546248,
				"element": "H" 
			}
		],
		 "valence_orbital": [ 
			{
				"type": "occ",
				"energy": -0.32443,
				"method": "rhf"
			},
			{
				"type": "occ",
				"energy": -0.31306,
				"method": "rhf"
			},
			{
				"type": "occ",
				"energy": -0.27625,
				"method": "rhf"
			},
			{
				"type": "occ",
				"energy": -0.26467,
				"method": "rhf"
			},
			{
				"type": "occ",
				"energy": -0.21854,
				"method": "rhf"
			},
			{
				"type": "unocc",
				"energy": -0.04816,
				"method": "rhf"
			},
			{
				"type": "unocc",
				"energy": -0.00627,
				"method": "rhf"
			},
			{
				"type": "unocc",
				"energy": 0.03288,
				"method": "rhf"
			},
			{
				"type": "unocc",
				"energy": 0.06916,
				"method": "rhf"
			},
			{
				"type": "unocc",
				"energy": 0.08715,
				"method": "rhf"
			}
		],
		"cosmo_sigma_profile": { 
			"-0.025": 0.0,
			"-0.024": 0.0,
			"-0.023": 0.0,
			"-0.022": 0.0,
			"-0.021": 0.0,
			"-0.02": 0.0,
			"-0.019": 0.0,
			"-0.018": 0.0,
			"-0.017": 0.0,
			"-0.016": 0.0,
			"-0.015": 0.0,
			"-0.014": 0.490075544831,
			"-0.013": 1.80566723451,
			"-0.012": 1.70255979582,
			"-0.011": 2.05623674311,
			"-0.01": 2.51325226265,
			"-0.009": 1.6328365026,
			"-0.008": 3.10494948594,
			"-0.007": 4.3229919192,
			"-0.006": 4.21017624139,
			"-0.005": 4.5567395502,
			"-0.004": 10.2646601378,
			"-0.003": 21.728221101,
			"-0.002": 27.421973534,
			"-0.001": 29.7134054735,
			"0.0": 24.2376643707,
			"0.001": 18.765638382,
			"0.002": 10.3600505569,
			"0.003": 6.18928069315,
			"0.004": 3.64042243858,
			"0.005": 4.45586830047,
			"0.006": 5.16214940766,
			"0.007": 3.56541876342,
			"0.008": 4.91326990167,
			"0.009": 4.30817773952,
			"0.01": 4.46442744084,
			"0.011": 3.71243809035,
			"0.012": 3.4804920129,
			"0.013": 2.54288412782,
			"0.014": 0.864004239128,
			"0.015": 0.17076313231,
			"0.016": 0.0,
			"0.017": 0.0,
			"0.018": 0.0,
			"0.019": 0.0,
			"0.02": 0.0,
			"0.021": 0.0,
			"0.022": 0.0,
			"0.023": 0.0,
			"0.024": 0.0,
			"0.025": 0.0
		}
	}
}
