{
	 "smiles": "CC1=NC2=NC(=NN2C(C)=C1)C(O)=O", 
	 "Tm": 452.15, 
	 "num_atms": 22, 
	 "gaussian": { 
		 "optdone": 1, 
		 "sigma_profile": "yes", 
		 "theory": "DFT", 
		 "functional": "B3LYP", 
		 "basiset": "6-31G**", 
		 "properties": { 
			 "R2extent": 3049.203, 
			 "electric_dipole_moment_norm": 9.65565644842, 
			 "electric_quadrupole_moment_norm": 9.52155076235, 
			 "total_energy": -679.131264613, 
			 "HOMO_LUMO_gap": 0.18891, 
			 "cosmo_polarized_energy": -22.51, 
			 "cosmo_cavitation_energy": 27.26, 
			 "cosmo_dispersion_energy": -20.21, 
			 "cosmo_repulsion_energy": 1.59, 
			 "cosmo_total_nonelectrostatic_energy": 8.64, 
			 "SMD_solvation_energy": 2.19 
		},
		"coords": [
			{
				"x": -0.2977781732,
				"y": 3.8466284065,
				"z": -1.6931956292,
				"element": "C" 
			},
			{
				"x": -0.3269953243,
				"y": 2.5483576737,
				"z": -0.9295936971,
				"element": "C" 
			},
			{
				"x": -0.0146111393,
				"y": 1.451245751,
				"z": -1.6047404928,
				"element": "N" 
			},
			{
				"x": -0.0384870842,
				"y": 0.292912755,
				"z": -0.9318013912,
				"element": "C" 
			},
			{
				"x": 0.2280473559,
				"y": -0.9423820394,
				"z": -1.3583539158,
				"element": "N" 
			},
			{
				"x": 0.0422268846,
				"y": -1.6909880655,
				"z": -0.2558897654,
				"element": "C" 
			},
			{
				"x": -0.325875409,
				"y": -1.042081186,
				"z": 0.861935685,
				"element": "N" 
			},
			{
				"x": -0.3791336679,
				"y": 0.2368110887,
				"z": 0.4307224748,
				"element": "N" 
			},
			{
				"x": -0.7060296818,
				"y": 1.3475453708,
				"z": 1.1557250168,
				"element": "C" 
			},
			{
				"x": -1.0519739854,
				"y": 1.173088812,
				"z": 2.5979183719,
				"element": "C" 
			},
			{
				"x": -0.6776696714,
				"y": 2.5298369248,
				"z": 0.4534542237,
				"element": "C" 
			},
			{
				"x": 0.2187959094,
				"y": -3.1809329585,
				"z": -0.2022988428,
				"element": "C" 
			},
			{
				"x": -0.0257471568,
				"y": -3.7067621807,
				"z": 1.019703599,
				"element": "O" 
			},
			{
				"x": 0.5449340221,
				"y": -3.8543607202,
				"z": -1.1444642124,
				"element": "O" 
			},
			{
				"x": -0.9900326687,
				"y": 3.7973542127,
				"z": -2.5393162908,
				"element": "H" 
			},
			{
				"x": -0.5672090536,
				"y": 4.6984475314,
				"z": -1.0649638618,
				"element": "H" 
			},
			{
				"x": 0.7014588769,
				"y": 4.0135743226,
				"z": -2.1069937698,
				"element": "H" 
			},
			{
				"x": -0.2174921999,
				"y": 0.7155778652,
				"z": 3.1395288932,
				"element": "H" 
			},
			{
				"x": -1.2906456715,
				"y": 2.1359065396,
				"z": 3.0518827717,
				"element": "H" 
			},
			{
				"x": -1.9086197738,
				"y": 0.4999505039,
				"z": 2.7077576831,
				"element": "H" 
			},
			{
				"x": -0.9258826739,
				"y": 3.4523720573,
				"z": 0.9644095735,
				"element": "H" 
			},
			{
				"x": -0.2721797141,
				"y": -2.9861026651,
				"z": 1.6255735762,
				"element": "H" 
			}
		],
		 "valence_orbital": [ 
			{
				"type": "occ",
				"energy": -0.29798,
				"method": "rhf"
			},
			{
				"type": "occ",
				"energy": -0.29078,
				"method": "rhf"
			},
			{
				"type": "occ",
				"energy": -0.28496,
				"method": "rhf"
			},
			{
				"type": "occ",
				"energy": -0.27285,
				"method": "rhf"
			},
			{
				"type": "occ",
				"energy": -0.26758,
				"method": "rhf"
			},
			{
				"type": "unocc",
				"energy": -0.07867,
				"method": "rhf"
			},
			{
				"type": "unocc",
				"energy": -0.04742,
				"method": "rhf"
			},
			{
				"type": "unocc",
				"energy": -0.00727,
				"method": "rhf"
			},
			{
				"type": "unocc",
				"energy": 0.0718,
				"method": "rhf"
			},
			{
				"type": "unocc",
				"energy": 0.08459,
				"method": "rhf"
			}
		],
		"cosmo_sigma_profile": { 
			"-0.025": 0.0,
			"-0.024": 0.0,
			"-0.023": 0.0,
			"-0.022": 0.0,
			"-0.021": 0.0,
			"-0.02": 0.0,
			"-0.019": 0.0,
			"-0.018": 0.0,
			"-0.017": 0.0,
			"-0.016": 0.00298159833831,
			"-0.015": 0.597058573685,
			"-0.014": 0.265343463021,
			"-0.013": 0.486408117101,
			"-0.012": 1.16490471571,
			"-0.011": 0.71165922485,
			"-0.01": 0.283856847237,
			"-0.009": 1.7835555042,
			"-0.008": 5.12401958685,
			"-0.007": 8.33328054739,
			"-0.006": 18.0444396104,
			"-0.005": 19.2183317919,
			"-0.004": 19.1741722533,
			"-0.003": 22.8337398081,
			"-0.002": 24.0465796697,
			"-0.001": 13.1899809215,
			"0.0": 7.99962403158,
			"0.001": 5.77227507513,
			"0.002": 4.87776046022,
			"0.003": 5.24588377851,
			"0.004": 5.87248898722,
			"0.005": 4.62404602703,
			"0.006": 3.26657291954,
			"0.007": 4.58098676841,
			"0.008": 5.38159805836,
			"0.009": 7.06103549399,
			"0.01": 6.9875087508,
			"0.011": 8.21269308551,
			"0.012": 5.72895470053,
			"0.013": 3.81511107721,
			"0.014": 2.23265748074,
			"0.015": 1.40380673482,
			"0.016": 0.127296236947,
			"0.017": 0.0,
			"0.018": 0.0,
			"0.019": 0.0,
			"0.02": 0.0,
			"0.021": 0.0,
			"0.022": 0.0,
			"0.023": 0.0,
			"0.024": 0.0,
			"0.0": 0.0
		}
	}
}
