{
	 "smiles": "ClCC(=O)N1CCC(=CC1)C1=CNC2=C1C=CC=C2", 
	 "Tm": 446.15, 
	 "num_atms": 34, 
	 "gaussian": { 
		 "optdone": 1, 
		 "sigma_profile": "yes", 
		 "theory": "DFT", 
		 "functional": "B3LYP", 
		 "basiset": "6-31G**", 
		 "properties": { 
			 "R2extent": 9595.0279, 
			 "electric_dipole_moment_norm": 7.09674124299, 
			 "electric_quadrupole_moment_norm": 32.6957577332, 
			 "total_energy": -1225.55686356, 
			 "HOMO_LUMO_gap": 0.17721, 
			 "cosmo_polarized_energy": -21.49, 
			 "cosmo_cavitation_energy": 38.19, 
			 "cosmo_dispersion_energy": -28.16, 
			 "cosmo_repulsion_energy": 2.16, 
			 "cosmo_total_nonelectrostatic_energy": 12.19, 
			 "SMD_solvation_energy": 5.49 
		},
		"coords": [
			{
				"x": -7.3816716584,
				"y": 0.201303449,
				"z": -0.7556423262,
				"element": "Cl" 
			},
			{
				"x": -5.8309017955,
				"y": 0.1583398554,
				"z": 0.1382355774,
				"element": "C" 
			},
			{
				"x": -4.7068626328,
				"y": 0.9031731843,
				"z": -0.6096517994,
				"element": "C" 
			},
			{
				"x": -4.9064028158,
				"y": 1.4947219753,
				"z": -1.658845773,
				"element": "O" 
			},
			{
				"x": -3.4676467931,
				"y": 0.8453222793,
				"z": -0.0225416318,
				"element": "N" 
			},
			{
				"x": -3.1480557508,
				"y": 0.269995794,
				"z": 1.2803549584,
				"element": "C" 
			},
			{
				"x": -1.9710194163,
				"y": -0.7039938304,
				"z": 1.1677417078,
				"element": "C" 
			},
			{
				"x": -0.798990183,
				"y": -0.0721065393,
				"z": 0.4368478866,
				"element": "C" 
			},
			{
				"x": -1.0269098458,
				"y": 0.9656412243,
				"z": -0.3891434762,
				"element": "C" 
			},
			{
				"x": -2.3740084481,
				"y": 1.5655260345,
				"z": -0.6771960863,
				"element": "C" 
			},
			{
				"x": 0.5288281099,
				"y": -0.6557030948,
				"z": 0.6573030711,
				"element": "C" 
			},
			{
				"x": 0.7562308816,
				"y": -1.9509843452,
				"z": 1.0779532084,
				"element": "C" 
			},
			{
				"x": 2.1086740014,
				"y": -2.198563722,
				"z": 1.1549636031,
				"element": "N" 
			},
			{
				"x": 2.8021394955,
				"y": -1.0591603144,
				"z": 0.7994789467,
				"element": "C" 
			},
			{
				"x": 1.8421883038,
				"y": -0.0581614254,
				"z": 0.4829660858,
				"element": "C" 
			},
			{
				"x": 2.3110999911,
				"y": 1.2238133448,
				"z": 0.1405393259,
				"element": "C" 
			},
			{
				"x": 3.6797928971,
				"y": 1.4592341954,
				"z": 0.091631638,
				"element": "C" 
			},
			{
				"x": 4.6077840891,
				"y": 0.440751118,
				"z": 0.3855714889,
				"element": "C" 
			},
			{
				"x": 4.1808068395,
				"y": -0.8300008469,
				"z": 0.7506351511,
				"element": "C" 
			},
			{
				"x": -6.0115815015,
				"y": 0.6114040319,
				"z": 1.1156118725,
				"element": "H" 
			},
			{
				"x": -5.5741681324,
				"y": -0.8926543019,
				"z": 0.2858363884,
				"element": "H" 
			},
			{
				"x": -2.8840987219,
				"y": 1.0773857271,
				"z": 1.9793496565,
				"element": "H" 
			},
			{
				"x": -4.0196222616,
				"y": -0.2379077475,
				"z": 1.69292051,
				"element": "H" 
			},
			{
				"x": -2.2985417031,
				"y": -1.6154482662,
				"z": 0.6476840796,
				"element": "H" 
			},
			{
				"x": -1.6639948667,
				"y": -1.0082233781,
				"z": 2.1753398368,
				"element": "H" 
			},
			{
				"x": -0.2072955888,
				"y": 1.4130168325,
				"z": -0.9420032476,
				"element": "H" 
			},
			{
				"x": -2.3883778002,
				"y": 2.6280322023,
				"z": -0.3786564109,
				"element": "H" 
			},
			{
				"x": -2.578507752,
				"y": 1.5601676132,
				"z": -1.7519353817,
				"element": "H" 
			},
			{
				"x": 0.0467926197,
				"y": -2.7328041099,
				"z": 1.30780773,
				"element": "H" 
			},
			{
				"x": 2.5244676307,
				"y": -3.0742160145,
				"z": 1.4265538986,
				"element": "H" 
			},
			{
				"x": 1.6174308709,
				"y": 2.0316128648,
				"z": -0.0644101493,
				"element": "H" 
			},
			{
				"x": 4.0425256313,
				"y": 2.4479966061,
				"z": -0.1732739608,
				"element": "H" 
			},
			{
				"x": 5.6714156707,
				"y": 0.6539030079,
				"z": 0.3351751289,
				"element": "H" 
			},
			{
				"x": 4.8910806357,
				"y": -1.6151134037,
				"z": 0.9946984928,
				"element": "H" 
			}
		],
		 "valence_orbital": [ 
			{
				"type": "occ",
				"energy": -0.25588,
				"method": "rhf"
			},
			{
				"type": "occ",
				"energy": -0.25071,
				"method": "rhf"
			},
			{
				"type": "occ",
				"energy": -0.24102,
				"method": "rhf"
			},
			{
				"type": "occ",
				"energy": -0.22666,
				"method": "rhf"
			},
			{
				"type": "occ",
				"energy": -0.19819,
				"method": "rhf"
			},
			{
				"type": "unocc",
				"energy": -0.02098,
				"method": "rhf"
			},
			{
				"type": "unocc",
				"energy": 0.00442,
				"method": "rhf"
			},
			{
				"type": "unocc",
				"energy": 0.01975,
				"method": "rhf"
			},
			{
				"type": "unocc",
				"energy": 0.0236,
				"method": "rhf"
			},
			{
				"type": "unocc",
				"energy": 0.02799,
				"method": "rhf"
			}
		],
		"cosmo_sigma_profile": { 
			"-0.025": 0.0,
			"-0.024": 0.0,
			"-0.023": 0.0,
			"-0.022": 0.0,
			"-0.021": 0.0,
			"-0.02": 0.0,
			"-0.019": 0.0,
			"-0.018": 0.0,
			"-0.017": 0.0,
			"-0.016": 0.371545972815,
			"-0.015": 1.6606328666,
			"-0.014": 1.38491148681,
			"-0.013": 1.25693234393,
			"-0.012": 1.58810957123,
			"-0.011": 1.03190005627,
			"-0.01": 1.30097094604,
			"-0.009": 7.63022668711,
			"-0.008": 9.40408338253,
			"-0.007": 7.52464810064,
			"-0.006": 10.3341691966,
			"-0.005": 18.3258456388,
			"-0.004": 27.6973298437,
			"-0.003": 29.2971865057,
			"-0.002": 19.9269330838,
			"-0.001": 15.7133081618,
			"0.0": 14.7196977802,
			"0.001": 14.2831247284,
			"0.002": 13.6689421669,
			"0.003": 14.3090450349,
			"0.004": 18.7154519779,
			"0.005": 22.4342061955,
			"0.006": 22.4471958314,
			"0.007": 10.8572707912,
			"0.008": 2.44113416291,
			"0.009": 1.91561582276,
			"0.01": 2.15428785345,
			"0.011": 1.70371849289,
			"0.012": 2.47206812535,
			"0.013": 4.76038667414,
			"0.014": 3.29956763945,
			"0.015": 1.03830609554,
			"0.016": 0.0,
			"0.017": 0.0,
			"0.018": 0.0,
			"0.019": 0.0,
			"0.02": 0.0,
			"0.021": 0.0,
			"0.022": 0.0,
			"0.023": 0.0,
			"0.024": 0.0,
			"0.025": 0.0
		}
	}
}
