{
	 "smiles": "CC(C)N1N=CC=C1C(O)=O", 
	 "Tm": 423.15, 
	 "num_atms": 21, 
	 "gaussian": { 
		 "optdone": 1, 
		 "sigma_profile": "yes", 
		 "theory": "DFT", 
		 "functional": "B3LYP", 
		 "basiset": "6-31G**", 
		 "properties": { 
			 "R2extent": 1734.6593, 
			 "electric_dipole_moment_norm": 2.21000194796, 
			 "electric_quadrupole_moment_norm": 8.38049468647, 
			 "total_energy": -532.721094223, 
			 "HOMO_LUMO_gap": 0.21184, 
			 "cosmo_polarized_energy": -9.95, 
			 "cosmo_cavitation_energy": 24.21, 
			 "cosmo_dispersion_energy": -17.56, 
			 "cosmo_repulsion_energy": 1.41, 
			 "cosmo_total_nonelectrostatic_energy": 8.06, 
			 "SMD_solvation_energy": 5.04 
		},
		"coords": [
			{
				"x": -1.0569269318,
				"y": -2.1020774104,
				"z": 1.0505700524,
				"element": "C" 
			},
			{
				"x": -0.0462651903,
				"y": -1.0198430174,
				"z": 1.4454292836,
				"element": "C" 
			},
			{
				"x": -0.44228296,
				"y": -0.2092990399,
				"z": 2.6843255492,
				"element": "C" 
			},
			{
				"x": 0.3201921085,
				"y": -0.1500418894,
				"z": 0.3001112903,
				"element": "N" 
			},
			{
				"x": 1.6038532554,
				"y": -0.225003731,
				"z": -0.0939582497,
				"element": "N" 
			},
			{
				"x": 1.7321310586,
				"y": 0.6207399802,
				"z": -1.1217896246,
				"element": "C" 
			},
			{
				"x": 0.5216692337,
				"y": 1.2581170441,
				"z": -1.4065010305,
				"element": "C" 
			},
			{
				"x": -0.3820534038,
				"y": 0.7488408732,
				"z": -0.4777301303,
				"element": "C" 
			},
			{
				"x": -1.7898397755,
				"y": 1.1695098341,
				"z": -0.4378309062,
				"element": "C" 
			},
			{
				"x": -2.5536699801,
				"y": 0.5884045175,
				"z": 0.5244712605,
				"element": "O" 
			},
			{
				"x": -2.2565355209,
				"y": 1.9846011283,
				"z": -1.209283369,
				"element": "O" 
			},
			{
				"x": -2.0358617217,
				"y": -1.6804905072,
				"z": 0.8196564885,
				"element": "H" 
			},
			{
				"x": -0.6967981489,
				"y": -2.6625422576,
				"z": 0.1828763837,
				"element": "H" 
			},
			{
				"x": -1.1729808121,
				"y": -2.8038408379,
				"z": 1.8827602613,
				"element": "H" 
			},
			{
				"x": 0.9080876952,
				"y": -1.5089512313,
				"z": 1.6530444706,
				"element": "H" 
			},
			{
				"x": 0.3366736601,
				"y": 0.5185884823,
				"z": 2.9294834304,
				"element": "H" 
			},
			{
				"x": -0.5516473298,
				"y": -0.8882654111,
				"z": 3.5361039727,
				"element": "H" 
			},
			{
				"x": -1.3873021285,
				"y": 0.3161596827,
				"z": 2.5422295311,
				"element": "H" 
			},
			{
				"x": 2.6921072724,
				"y": 0.7294817648,
				"z": -1.6074806802,
				"element": "H" 
			},
			{
				"x": 0.289791192,
				"y": 1.9885995804,
				"z": -2.1659056754,
				"element": "H" 
			},
			{
				"x": -3.4399415725,
				"y": 0.9717124458,
				"z": 0.4120176915,
				"element": "H" 
			}
		],
		 "valence_orbital": [ 
			{
				"type": "occ",
				"energy": -0.32744,
				"method": "rhf"
			},
			{
				"type": "occ",
				"energy": -0.30176,
				"method": "rhf"
			},
			{
				"type": "occ",
				"energy": -0.27826,
				"method": "rhf"
			},
			{
				"type": "occ",
				"energy": -0.25705,
				"method": "rhf"
			},
			{
				"type": "occ",
				"energy": -0.25536,
				"method": "rhf"
			},
			{
				"type": "unocc",
				"energy": -0.04352,
				"method": "rhf"
			},
			{
				"type": "unocc",
				"energy": 0.04717,
				"method": "rhf"
			},
			{
				"type": "unocc",
				"energy": 0.06606,
				"method": "rhf"
			},
			{
				"type": "unocc",
				"energy": 0.0968,
				"method": "rhf"
			},
			{
				"type": "unocc",
				"energy": 0.10456,
				"method": "rhf"
			}
		],
		"cosmo_sigma_profile": { 
			"-0.025": 0.0,
			"-0.024": 0.0,
			"-0.023": 0.0,
			"-0.022": 0.0,
			"-0.021": 0.0,
			"-0.02": 0.0,
			"-0.019": 0.238155170747,
			"-0.018": 0.925426082832,
			"-0.017": 1.00716317778,
			"-0.016": 0.661444685203,
			"-0.015": 0.425815090861,
			"-0.014": 0.513687343228,
			"-0.013": 0.83208128626,
			"-0.012": 1.24226836064,
			"-0.011": 0.530742981632,
			"-0.01": 0.818469935424,
			"-0.009": 0.282442244638,
			"-0.008": 1.65079003853,
			"-0.007": 4.24959479206,
			"-0.006": 3.44360725334,
			"-0.005": 5.6039550517,
			"-0.004": 14.1868278337,
			"-0.003": 16.8334744078,
			"-0.002": 19.7507542343,
			"-0.001": 20.8723510887,
			"0.0": 23.0786876404,
			"0.001": 17.0121756081,
			"0.002": 10.5174311891,
			"0.003": 10.7513371202,
			"0.004": 6.42541274645,
			"0.005": 3.52157207334,
			"0.006": 3.25789657317,
			"0.007": 2.78941742603,
			"0.008": 2.52269486582,
			"0.009": 3.11377138045,
			"0.01": 3.33342335281,
			"0.011": 5.47702464865,
			"0.012": 3.97513208943,
			"0.013": 0.76191054486,
			"0.014": 0.764842833707,
			"0.015": 0.160270912213,
			"0.016": 0.0,
			"0.017": 0.0,
			"0.018": 0.0,
			"0.019": 0.0,
			"0.02": 0.0,
			"0.021": 0.0,
			"0.022": 0.0,
			"0.023": 0.0,
			"0.024": 0.0,
			"0.025": 0.0
		}
	}
}
