{
	 "smiles": "COC(=O)C(C)N(C(=O)CC1=CC=CC=C1)C1=C(C)C=CC=C1C", 
	 "Tm": 352.15, 
	 "num_atms": 47, 
	 "gaussian": { 
		 "optdone": 1, 
		 "sigma_profile": "yes", 
		 "theory": "DFT", 
		 "functional": "B3LYP", 
		 "basiset": "6-31G**", 
		 "properties": { 
			 "R2extent": 8236.2402, 
			 "electric_dipole_moment_norm": 2.4269516291, 
			 "electric_quadrupole_moment_norm": 8.37931785887, 
			 "total_energy": -1056.44787743, 
			 "HOMO_LUMO_gap": 0.22072, 
			 "cosmo_polarized_energy": -14.19, 
			 "cosmo_cavitation_energy": 47.42, 
			 "cosmo_dispersion_energy": -30.97, 
			 "cosmo_repulsion_energy": 2.34, 
			 "cosmo_total_nonelectrostatic_energy": 18.79, 
			 "SMD_solvation_energy": 9.7 
		},
		"coords": [
			{
				"x": 4.9210333656,
				"y": 3.3746655142,
				"z": 0.7910244925,
				"element": "C" 
			},
			{
				"x": 3.5769178693,
				"y": 3.0216321303,
				"z": 1.1567350094,
				"element": "O" 
			},
			{
				"x": 3.3199418693,
				"y": 1.7037887467,
				"z": 1.1765563545,
				"element": "C" 
			},
			{
				"x": 4.1675754588,
				"y": 0.855046639,
				"z": 0.9947280397,
				"element": "O" 
			},
			{
				"x": 1.8648125252,
				"y": 1.3962249085,
				"z": 1.5837475301,
				"element": "C" 
			},
			{
				"x": 0.9689443586,
				"y": 2.6363514332,
				"z": 1.6704249642,
				"element": "C" 
			},
			{
				"x": 1.3167416816,
				"y": 0.3271325817,
				"z": 0.7161352685,
				"element": "N" 
			},
			{
				"x": 1.4854323236,
				"y": 0.4774772292,
				"z": -0.6407838214,
				"element": "C" 
			},
			{
				"x": 2.0323393286,
				"y": 1.4809205248,
				"z": -1.0978125414,
				"element": "O" 
			},
			{
				"x": 1.0049575563,
				"y": -0.6396866463,
				"z": -1.5661275643,
				"element": "C" 
			},
			{
				"x": -0.2446510828,
				"y": -0.2751887946,
				"z": -2.3543231571,
				"element": "C" 
			},
			{
				"x": -0.299681278,
				"y": 0.9010534879,
				"z": -3.1165759784,
				"element": "C" 
			},
			{
				"x": -1.4426880808,
				"y": 1.2127483295,
				"z": -3.8529565813,
				"element": "C" 
			},
			{
				"x": -2.5452905626,
				"y": 0.3548749571,
				"z": -3.8439667542,
				"element": "C" 
			},
			{
				"x": -2.4978995214,
				"y": -0.8180343458,
				"z": -3.0898156256,
				"element": "C" 
			},
			{
				"x": -1.3551228781,
				"y": -1.1283964032,
				"z": -2.3490242937,
				"element": "C" 
			},
			{
				"x": 0.5813344073,
				"y": -0.7533226078,
				"z": 1.3337462964,
				"element": "C" 
			},
			{
				"x": 1.2937424089,
				"y": -1.8766658122,
				"z": 1.815918686,
				"element": "C" 
			},
			{
				"x": 2.7768310942,
				"y": -2.0415798976,
				"z": 1.5870853674,
				"element": "C" 
			},
			{
				"x": 0.5815690895,
				"y": -2.8862947347,
				"z": 2.4718165746,
				"element": "C" 
			},
			{
				"x": -0.8004043476,
				"y": -2.8065579979,
				"z": 2.6313017172,
				"element": "C" 
			},
			{
				"x": -1.4911250928,
				"y": -1.7129973586,
				"z": 2.1222786831,
				"element": "C" 
			},
			{
				"x": -0.820920567,
				"y": -0.668248302,
				"z": 1.4689349835,
				"element": "C" 
			},
			{
				"x": -1.6447834713,
				"y": 0.4839413634,
				"z": 0.9378849658,
				"element": "C" 
			},
			{
				"x": 5.1368072127,
				"y": 3.0287588437,
				"z": -0.2224833215,
				"element": "H" 
			},
			{
				"x": 4.9629281333,
				"y": 4.4625249725,
				"z": 0.8425963224,
				"element": "H" 
			},
			{
				"x": 5.6397542438,
				"y": 2.9264179843,
				"z": 1.4813944752,
				"element": "H" 
			},
			{
				"x": 1.9448795964,
				"y": 0.94628772,
				"z": 2.5799874463,
				"element": "H" 
			},
			{
				"x": -0.0077445878,
				"y": 2.3671781762,
				"z": 2.0762743924,
				"element": "H" 
			},
			{
				"x": 1.4215705353,
				"y": 3.3806789214,
				"z": 2.3289644105,
				"element": "H" 
			},
			{
				"x": 0.8413023389,
				"y": 3.083430304,
				"z": 0.6832651332,
				"element": "H" 
			},
			{
				"x": 1.8385558501,
				"y": -0.801397649,
				"z": -2.2591391271,
				"element": "H" 
			},
			{
				"x": 0.8392635746,
				"y": -1.5697420067,
				"z": -1.0203120983,
				"element": "H" 
			},
			{
				"x": 0.5559717376,
				"y": 1.5687549018,
				"z": -3.1157025268,
				"element": "H" 
			},
			{
				"x": -1.4709657898,
				"y": 2.1278137815,
				"z": -4.4382232965,
				"element": "H" 
			},
			{
				"x": -3.4327002491,
				"y": 0.5983440664,
				"z": -4.4213451746,
				"element": "H" 
			},
			{
				"x": -3.3489565081,
				"y": -1.4934773339,
				"z": -3.0762704617,
				"element": "H" 
			},
			{
				"x": -1.3248558831,
				"y": -2.0425250809,
				"z": -1.7612985477,
				"element": "H" 
			},
			{
				"x": 3.3391514879,
				"y": -1.1141001222,
				"z": 1.7051054604,
				"element": "H" 
			},
			{
				"x": 2.970546041,
				"y": -2.3800731573,
				"z": 0.5606154612,
				"element": "H" 
			},
			{
				"x": 3.1847373136,
				"y": -2.8004101634,
				"z": 2.2604588367,
				"element": "H" 
			},
			{
				"x": 1.1224556793,
				"y": -3.7495128586,
				"z": 2.8501832186,
				"element": "H" 
			},
			{
				"x": -1.337149686,
				"y": -3.6016453122,
				"z": 3.1412432395,
				"element": "H" 
			},
			{
				"x": -2.5715391928,
				"y": -1.6562123727,
				"z": 2.2282847072,
				"element": "H" 
			},
			{
				"x": -2.0131825029,
				"y": 1.1126368197,
				"z": 1.7574829956,
				"element": "H" 
			},
			{
				"x": -2.5209751839,
				"y": 0.1054533039,
				"z": 0.4031512168,
				"element": "H" 
			},
			{
				"x": -1.0900606154,
				"y": 1.1207313162,
				"z": 0.2506346229,
				"element": "H" 
			}
		],
		 "valence_orbital": [ 
			{
				"type": "occ",
				"energy": -0.2482,
				"method": "rhf"
			},
			{
				"type": "occ",
				"energy": -0.24684,
				"method": "rhf"
			},
			{
				"type": "occ",
				"energy": -0.24359,
				"method": "rhf"
			},
			{
				"type": "occ",
				"energy": -0.24019,
				"method": "rhf"
			},
			{
				"type": "occ",
				"energy": -0.23363,
				"method": "rhf"
			},
			{
				"type": "unocc",
				"energy": -0.01291,
				"method": "rhf"
			},
			{
				"type": "unocc",
				"energy": -0.00777,
				"method": "rhf"
			},
			{
				"type": "unocc",
				"energy": 0.0007,
				"method": "rhf"
			},
			{
				"type": "unocc",
				"energy": 0.00268,
				"method": "rhf"
			},
			{
				"type": "unocc",
				"energy": 0.01356,
				"method": "rhf"
			}
		],
		"cosmo_sigma_profile": { 
			"-0.025": 0.0,
			"-0.024": 0.0,
			"-0.023": 0.0,
			"-0.022": 0.0,
			"-0.021": 0.0,
			"-0.02": 0.0,
			"-0.019": 0.0,
			"-0.018": 0.0,
			"-0.017": 0.0,
			"-0.016": 0.0,
			"-0.015": 0.0,
			"-0.014": 0.0,
			"-0.013": 0.0,
			"-0.012": 0.0,
			"-0.011": 0.0,
			"-0.01": 0.0,
			"-0.009": 0.0,
			"-0.008": 1.00065434951,
			"-0.007": 3.22374800422,
			"-0.006": 11.4994573855,
			"-0.005": 30.4379010084,
			"-0.004": 40.6148910304,
			"-0.003": 44.6420369733,
			"-0.002": 34.5374424422,
			"-0.001": 31.9302732077,
			"0.0": 30.9495085731,
			"0.001": 27.1638232179,
			"0.002": 19.3677501415,
			"0.003": 19.3065741082,
			"0.004": 19.1873756596,
			"0.005": 19.7136677001,
			"0.006": 12.3029473059,
			"0.007": 4.80280922001,
			"0.008": 5.23530568039,
			"0.009": 3.52596924557,
			"0.01": 4.63308625076,
			"0.011": 4.07365037728,
			"0.012": 3.89864778309,
			"0.013": 2.01650920164,
			"0.014": 0.386176696687,
			"0.015": 0.0,
			"0.016": 0.0,
			"0.017": 0.0,
			"0.018": 0.0,
			"0.019": 0.0,
			"0.02": 0.0,
			"0.021": 0.0,
			"0.022": 0.0,
			"0.023": 0.0,
			"0.024": 0.0,
			"0.025": 0.0
		}
	}
}
