{
	 "smiles": "OC(=O)C1=CC=C(C=C1)S(=O)(=O)NCC1=CC=CS1", 
	 "Tm": 506.15, 
	 "num_atms": 30, 
	 "gaussian": { 
		 "optdone": 1, 
		 "sigma_profile": "yes", 
		 "theory": "DFT", 
		 "functional": "B3LYP", 
		 "basiset": "6-31G**", 
		 "properties": { 
			 "R2extent": 8743.7312, 
			 "electric_dipole_moment_norm": 5.75883383855, 
			 "electric_quadrupole_moment_norm": 18.657110444, 
			 "total_energy": -1615.84462659, 
			 "HOMO_LUMO_gap": 0.16934, 
			 "cosmo_polarized_energy": -24.31, 
			 "cosmo_cavitation_energy": 38.76, 
			 "cosmo_dispersion_energy": -28.1, 
			 "cosmo_repulsion_energy": 2.08, 
			 "cosmo_total_nonelectrostatic_energy": 12.74, 
			 "SMD_solvation_energy": 6.14 
		},
		"coords": [
			{
				"x": -0.216003339,
				"y": 5.3877738079,
				"z": 2.4378773719,
				"element": "O" 
			},
			{
				"x": 0.0806008221,
				"y": 5.2762681835,
				"z": 1.117283074,
				"element": "C" 
			},
			{
				"x": 0.6945022417,
				"y": 6.1519774262,
				"z": 0.5566490281,
				"element": "O" 
			},
			{
				"x": -0.386686286,
				"y": 4.0296346487,
				"z": 0.4187349103,
				"element": "C" 
			},
			{
				"x": 0.2429703764,
				"y": 3.6925869288,
				"z": -0.7858735427,
				"element": "C" 
			},
			{
				"x": -0.1415025064,
				"y": 2.5516611685,
				"z": -1.4864528293,
				"element": "C" 
			},
			{
				"x": -1.1689422586,
				"y": 1.7567800571,
				"z": -0.9754205701,
				"element": "C" 
			},
			{
				"x": -1.8332729869,
				"y": 2.0930822891,
				"z": 0.2053466344,
				"element": "C" 
			},
			{
				"x": -1.4365770908,
				"y": 3.232138222,
				"z": 0.9005395112,
				"element": "C" 
			},
			{
				"x": -1.6777027819,
				"y": 0.2822059692,
				"z": -1.870665403,
				"element": "S" 
			},
			{
				"x": -3.1139629504,
				"y": 0.0834216925,
				"z": -1.6589398021,
				"element": "O" 
			},
			{
				"x": -1.0987992229,
				"y": 0.3761192595,
				"z": -3.2158947617,
				"element": "O" 
			},
			{
				"x": -0.9279900647,
				"y": -0.9477689884,
				"z": -0.9839301075,
				"element": "N" 
			},
			{
				"x": 0.435732769,
				"y": -1.3605881378,
				"z": -1.3991049535,
				"element": "C" 
			},
			{
				"x": 0.864354877,
				"y": -2.5742981011,
				"z": -0.6297320303,
				"element": "C" 
			},
			{
				"x": 1.4307448468,
				"y": -2.6357719525,
				"z": 0.6175130616,
				"element": "C" 
			},
			{
				"x": 1.6694755162,
				"y": -3.9687314892,
				"z": 1.0663222581,
				"element": "C" 
			},
			{
				"x": 1.2755637997,
				"y": -4.9110064174,
				"z": 0.1558584804,
				"element": "C" 
			},
			{
				"x": 0.6124550344,
				"y": -4.1818063083,
				"z": -1.2685345344,
				"element": "S" 
			},
			{
				"x": -0.5630640107,
				"y": 4.5527389752,
				"z": 2.7806228778,
				"element": "H" 
			},
			{
				"x": 1.0276654012,
				"y": 4.3414688363,
				"z": -1.1589837622,
				"element": "H" 
			},
			{
				"x": 0.3275935335,
				"y": 2.2839835366,
				"z": -2.4267076082,
				"element": "H" 
			},
			{
				"x": -2.6576077403,
				"y": 1.4824655065,
				"z": 0.5565210377,
				"element": "H" 
			},
			{
				"x": -1.9844806548,
				"y": 3.5125665467,
				"z": 1.7965948309,
				"element": "H" 
			},
			{
				"x": -1.5853126713,
				"y": -1.723596379,
				"z": -0.922874259,
				"element": "H" 
			},
			{
				"x": 1.1146011486,
				"y": -0.5323861133,
				"z": -1.1709493846,
				"element": "H" 
			},
			{
				"x": 0.4864097347,
				"y": -1.5369553418,
				"z": -2.479502011,
				"element": "H" 
			},
			{
				"x": 1.6677988085,
				"y": -1.749882274,
				"z": 1.1968663154,
				"element": "H" 
			},
			{
				"x": 2.1184092942,
				"y": -4.2145491881,
				"z": 2.0218261738,
				"element": "H" 
			},
			{
				"x": 1.3458263608,
				"y": -5.9873323635,
				"z": 0.2295099939,
				"element": "H" 
			}
		],
		 "valence_orbital": [ 
			{
				"type": "occ",
				"energy": -0.29139,
				"method": "rhf"
			},
			{
				"type": "occ",
				"energy": -0.28657,
				"method": "rhf"
			},
			{
				"type": "occ",
				"energy": -0.27544,
				"method": "rhf"
			},
			{
				"type": "occ",
				"energy": -0.26485,
				"method": "rhf"
			},
			{
				"type": "occ",
				"energy": -0.2474,
				"method": "rhf"
			},
			{
				"type": "unocc",
				"energy": -0.07806,
				"method": "rhf"
			},
			{
				"type": "unocc",
				"energy": -0.04189,
				"method": "rhf"
			},
			{
				"type": "unocc",
				"energy": -0.03178,
				"method": "rhf"
			},
			{
				"type": "unocc",
				"energy": 0.01224,
				"method": "rhf"
			},
			{
				"type": "unocc",
				"energy": 0.01865,
				"method": "rhf"
			}
		],
		"cosmo_sigma_profile": { 
			"-0.025": 0.0,
			"-0.024": 0.0,
			"-0.023": 0.0,
			"-0.022": 0.0,
			"-0.021": 0.0,
			"-0.02": 0.169160428297,
			"-0.019": 0.667460600315,
			"-0.018": 1.14385893333,
			"-0.017": 0.962592035436,
			"-0.016": 1.25699775957,
			"-0.015": 0.886631664715,
			"-0.014": 0.832506216871,
			"-0.013": 1.63624198679,
			"-0.012": 2.60615048308,
			"-0.011": 2.50418404747,
			"-0.01": 2.7686638744,
			"-0.009": 3.95514338201,
			"-0.008": 8.12355593381,
			"-0.007": 12.9929350109,
			"-0.006": 19.3395398308,
			"-0.005": 19.6338058783,
			"-0.004": 17.5666400421,
			"-0.003": 17.0922183147,
			"-0.002": 15.6625031526,
			"-0.001": 16.6263882395,
			"0.0": 21.980959993,
			"0.001": 24.7324887989,
			"0.002": 15.5476704981,
			"0.003": 14.6554957102,
			"0.004": 17.3928168188,
			"0.005": 14.2848103606,
			"0.006": 5.67824100508,
			"0.007": 6.53673045469,
			"0.008": 7.1621531242,
			"0.009": 7.24622869091,
			"0.01": 13.9525885529,
			"0.011": 12.6399841868,
			"0.012": 4.00409880814,
			"0.013": 0.588389114687,
			"0.014": 0.0,
			"0.015": 0.0,
			"0.016": 0.0,
			"0.017": 0.0,
			"0.018": 0.0,
			"0.019": 0.0,
			"0.02": 0.0,
			"0.021": 0.0,
			"0.022": 0.0,
			"0.023": 0.0,
			"0.024": 0.0,
			"0.025": 0.0
		}
	}
}
