{
	 "smiles": "[O-][N+](=O)C1=CC=CC=C1C1=CC=C(O1)C=CC(=O)C1=CC=CO1", 
	 "Tm": 441.15, 
	 "num_atms": 34, 
	 "gaussian": { 
		 "optdone": 1, 
		 "sigma_profile": "yes", 
		 "theory": "DFT", 
		 "functional": "B3LYP", 
		 "basiset": "6-31G**", 
		 "properties": { 
			 "R2extent": 10265.3119, 
			 "electric_dipole_moment_norm": 6.12621120759, 
			 "electric_quadrupole_moment_norm": 28.8937647955, 
			 "total_energy": -1085.1453686, 
			 "HOMO_LUMO_gap": 0.12338, 
			 "cosmo_polarized_energy": -19.88, 
			 "cosmo_cavitation_energy": 42.03, 
			 "cosmo_dispersion_energy": -28.57, 
			 "cosmo_repulsion_energy": 2.12, 
			 "cosmo_total_nonelectrostatic_energy": 15.58, 
			 "SMD_solvation_energy": 11.35 
		},
		"coords": [
			{
				"x": 1.3293345841,
				"y": 0.3154719329,
				"z": 2.8202091076,
				"element": "O" 
			},
			{
				"x": 1.0877184477,
				"y": -0.799232844,
				"z": 2.3677868944,
				"element": "N" 
			},
			{
				"x": 0.1244362492,
				"y": -1.4998582141,
				"z": 2.6805961786,
				"element": "O" 
			},
			{
				"x": 2.0585574217,
				"y": -1.3782510009,
				"z": 1.4212708415,
				"element": "C" 
			},
			{
				"x": 2.4150715411,
				"y": -2.7051552498,
				"z": 1.6508865211,
				"element": "C" 
			},
			{
				"x": 3.4223593823,
				"y": -3.2905635295,
				"z": 0.8889305798,
				"element": "C" 
			},
			{
				"x": 4.0458308869,
				"y": -2.5449185738,
				"z": -0.1145908558,
				"element": "C" 
			},
			{
				"x": 3.6451848976,
				"y": -1.2368842713,
				"z": -0.3688785089,
				"element": "C" 
			},
			{
				"x": 2.6400952358,
				"y": -0.6107194163,
				"z": 0.392014118,
				"element": "C" 
			},
			{
				"x": 2.2218432517,
				"y": 0.7382201412,
				"z": 0.0297116876,
				"element": "C" 
			},
			{
				"x": 2.8921551236,
				"y": 1.7881413605,
				"z": -0.5558307593,
				"element": "C" 
			},
			{
				"x": 1.9452261641,
				"y": 2.8327544223,
				"z": -0.7148528727,
				"element": "C" 
			},
			{
				"x": 0.7470141477,
				"y": 2.3649626684,
				"z": -0.2191339267,
				"element": "C" 
			},
			{
				"x": 0.918415238,
				"y": 1.0809310167,
				"z": 0.2257280654,
				"element": "O" 
			},
			{
				"x": -0.5480403232,
				"y": 2.9651558083,
				"z": -0.0948266983,
				"element": "C" 
			},
			{
				"x": -1.6144910212,
				"y": 2.4002265795,
				"z": 0.5097540518,
				"element": "C" 
			},
			{
				"x": -2.9034631314,
				"y": 3.1257291665,
				"z": 0.5732378763,
				"element": "C" 
			},
			{
				"x": -3.0734886865,
				"y": 4.2217136619,
				"z": 0.0424196006,
				"element": "O" 
			},
			{
				"x": -3.9813658034,
				"y": 2.4570932006,
				"z": 1.3183912015,
				"element": "C" 
			},
			{
				"x": -4.0596997779,
				"y": 1.2837473529,
				"z": 2.0345773193,
				"element": "C" 
			},
			{
				"x": -5.3891774482,
				"y": 1.1995275942,
				"z": 2.5372748953,
				"element": "C" 
			},
			{
				"x": -6.0259369843,
				"y": 2.3245995245,
				"z": 2.092743125,
				"element": "C" 
			},
			{
				"x": -5.1930976218,
				"y": 3.0938023444,
				"z": 1.3579977558,
				"element": "O" 
			},
			{
				"x": 1.9108432905,
				"y": -3.2505944413,
				"z": 2.4398506357,
				"element": "H" 
			},
			{
				"x": 3.7155260587,
				"y": -4.3181396986,
				"z": 1.0770105702,
				"element": "H" 
			},
			{
				"x": 4.827950804,
				"y": -2.9922658002,
				"z": -0.7201823946,
				"element": "H" 
			},
			{
				"x": 4.0869068398,
				"y": -0.6875134894,
				"z": -1.193695247,
				"element": "H" 
			},
			{
				"x": 3.9415328478,
				"y": 1.8133579578,
				"z": -0.8110665753,
				"element": "H" 
			},
			{
				"x": 2.1165581902,
				"y": 3.8165280844,
				"z": -1.1275561611,
				"element": "H" 
			},
			{
				"x": -0.6678362351,
				"y": 3.9594588476,
				"z": -0.5184461552,
				"element": "H" 
			},
			{
				"x": -1.53072943,
				"y": 1.4177443892,
				"z": 0.9616644684,
				"element": "H" 
			},
			{
				"x": -3.2642543445,
				"y": 0.5699248482,
				"z": 2.1924339853,
				"element": "H" 
			},
			{
				"x": -5.8140130776,
				"y": 0.4142906876,
				"z": 3.1454434827,
				"element": "H" 
			},
			{
				"x": -7.0310667176,
				"y": 2.6998149395,
				"z": 2.2129271929,
				"element": "H" 
			}
		],
		 "valence_orbital": [ 
			{
				"type": "occ",
				"energy": -0.28061,
				"method": "rhf"
			},
			{
				"type": "occ",
				"energy": -0.27571,
				"method": "rhf"
			},
			{
				"type": "occ",
				"energy": -0.2433,
				"method": "rhf"
			},
			{
				"type": "occ",
				"energy": -0.23568,
				"method": "rhf"
			},
			{
				"type": "occ",
				"energy": -0.21498,
				"method": "rhf"
			},
			{
				"type": "unocc",
				"energy": -0.0916,
				"method": "rhf"
			},
			{
				"type": "unocc",
				"energy": -0.07446,
				"method": "rhf"
			},
			{
				"type": "unocc",
				"energy": -0.04315,
				"method": "rhf"
			},
			{
				"type": "unocc",
				"energy": -0.02255,
				"method": "rhf"
			},
			{
				"type": "unocc",
				"energy": -0.00527,
				"method": "rhf"
			}
		],
		"cosmo_sigma_profile": { 
			"-0.025": 0.0,
			"-0.024": 0.0,
			"-0.023": 0.0,
			"-0.022": 0.0,
			"-0.021": 0.0,
			"-0.02": 0.0,
			"-0.019": 0.0,
			"-0.018": 0.0,
			"-0.017": 0.0,
			"-0.016": 0.0,
			"-0.015": 0.0,
			"-0.014": 0.0,
			"-0.013": 0.0,
			"-0.012": 0.0,
			"-0.011": 0.0,
			"-0.01": 1.16549208946,
			"-0.009": 3.32748148706,
			"-0.008": 14.6742524108,
			"-0.007": 22.6203173271,
			"-0.006": 20.1509031008,
			"-0.005": 18.352467864,
			"-0.004": 15.9553291241,
			"-0.003": 15.4511903454,
			"-0.002": 15.7497693764,
			"-0.001": 24.3922436718,
			"0.0": 28.0313567613,
			"0.001": 36.9953232772,
			"0.002": 35.4364121302,
			"0.003": 20.7714500934,
			"0.004": 9.49660926823,
			"0.005": 6.8548780398,
			"0.006": 6.93835406881,
			"0.007": 10.9147288533,
			"0.008": 9.37902339177,
			"0.009": 6.49083571462,
			"0.01": 3.89020287248,
			"0.011": 2.84384463211,
			"0.012": 3.77981001083,
			"0.013": 4.6659742013,
			"0.014": 1.45321078609,
			"0.015": 0.129189808594,
			"0.016": 0.0,
			"0.017": 0.0,
			"0.018": 0.0,
			"0.019": 0.0,
			"0.02": 0.0,
			"0.021": 0.0,
			"0.022": 0.0,
			"0.023": 0.0,
			"0.024": 0.0,
			"0.025": 0.0
		}
	}
}
