{
	 "smiles": "ClC1=CC=C(C=C1)S(Cl)(=O)=O", 
	 "Tm": 324.65, 
	 "num_atms": 15, 
	 "gaussian": { 
		 "optdone": 1, 
		 "sigma_profile": "yes", 
		 "theory": "DFT", 
		 "functional": "B3LYP", 
		 "basiset": "6-31G**", 
		 "properties": { 
			 "R2extent": 4372.4874, 
			 "electric_dipole_moment_norm": 3.78053050907, 
			 "electric_quadrupole_moment_norm": 11.6078447595, 
			 "total_energy": -1699.99810271, 
			 "HOMO_LUMO_gap": 0.18774, 
			 "cosmo_polarized_energy": -8.57, 
			 "cosmo_cavitation_energy": 25.02, 
			 "cosmo_dispersion_energy": -19.07, 
			 "cosmo_repulsion_energy": 1.49, 
			 "cosmo_total_nonelectrostatic_energy": 7.43, 
			 "SMD_solvation_energy": 2.74 
		},
		"coords": [
			{
				"x": 0.7903766255,
				"y": 1.9845194474,
				"z": 3.8654755487,
				"element": "Cl" 
			},
			{
				"x": 1.1761579044,
				"y": 1.2216707392,
				"z": 2.3403248633,
				"element": "C" 
			},
			{
				"x": 2.4814042171,
				"y": 0.7787300268,
				"z": 2.1109635659,
				"element": "C" 
			},
			{
				"x": 2.7907334967,
				"y": 0.1717713123,
				"z": 0.8963733017,
				"element": "C" 
			},
			{
				"x": 1.7824414281,
				"y": 0.0224641637,
				"z": -0.0567006208,
				"element": "C" 
			},
			{
				"x": 0.4763224988,
				"y": 0.4600086132,
				"z": 0.1667738937,
				"element": "C" 
			},
			{
				"x": 0.1706783483,
				"y": 1.0665861748,
				"z": 1.3824743156,
				"element": "C" 
			},
			{
				"x": 2.1718231315,
				"y": -0.7745754982,
				"z": -1.6062448001,
				"element": "S" 
			},
			{
				"x": 2.7528063887,
				"y": 0.894359835,
				"z": -2.8010652775,
				"element": "Cl" 
			},
			{
				"x": 0.9465667232,
				"y": -1.2923374257,
				"z": -2.2012820316,
				"element": "O" 
			},
			{
				"x": 3.3679064432,
				"y": -1.5900749823,
				"z": -1.4396199493,
				"element": "O" 
			},
			{
				"x": 3.2408060128,
				"y": 0.9050971137,
				"z": 2.8739401932,
				"element": "H" 
			},
			{
				"x": 3.7929263828,
				"y": -0.1892542351,
				"z": 0.69467421,
				"element": "H" 
			},
			{
				"x": -0.2860230255,
				"y": 0.3187061916,
				"z": -0.5910464752,
				"element": "H" 
			},
			{
				"x": -0.8354265754,
				"y": 1.4129285237,
				"z": 1.5888592624,
				"element": "H" 
			}
		],
		 "valence_orbital": [ 
			{
				"type": "occ",
				"energy": -0.33906,
				"method": "rhf"
			},
			{
				"type": "occ",
				"energy": -0.3347,
				"method": "rhf"
			},
			{
				"type": "occ",
				"energy": -0.31842,
				"method": "rhf"
			},
			{
				"type": "occ",
				"energy": -0.30163,
				"method": "rhf"
			},
			{
				"type": "occ",
				"energy": -0.2843,
				"method": "rhf"
			},
			{
				"type": "unocc",
				"energy": -0.09656,
				"method": "rhf"
			},
			{
				"type": "unocc",
				"energy": -0.05374,
				"method": "rhf"
			},
			{
				"type": "unocc",
				"energy": -0.05071,
				"method": "rhf"
			},
			{
				"type": "unocc",
				"energy": 0.00375,
				"method": "rhf"
			},
			{
				"type": "unocc",
				"energy": 0.04842,
				"method": "rhf"
			}
		],
		"cosmo_sigma_profile": { 
			"-0.025": 0.0,
			"-0.024": 0.0,
			"-0.023": 0.0,
			"-0.022": 0.0,
			"-0.021": 0.0,
			"-0.02": 0.0,
			"-0.019": 0.0,
			"-0.018": 0.0,
			"-0.017": 0.0,
			"-0.016": 0.0,
			"-0.015": 0.0,
			"-0.014": 0.0,
			"-0.013": 0.0,
			"-0.012": 0.0,
			"-0.011": 0.0,
			"-0.01": 0.310415870852,
			"-0.009": 5.00017423044,
			"-0.008": 8.53664077297,
			"-0.007": 7.20837979623,
			"-0.006": 7.36354023928,
			"-0.005": 6.56944691764,
			"-0.004": 8.0433498568,
			"-0.003": 10.0316609332,
			"-0.002": 14.539950557,
			"-0.001": 21.8898085381,
			"0.0": 25.419488088,
			"0.001": 15.3227983921,
			"0.002": 13.7437123166,
			"0.003": 24.375586177,
			"0.004": 12.7265272207,
			"0.005": 2.51377325533,
			"0.006": 3.16537808021,
			"0.007": 6.9590270288,
			"0.008": 9.13518028549,
			"0.009": 3.86672422917,
			"0.01": 0.00224317203732,
			"0.011": 0.0,
			"0.012": 0.0,
			"0.013": 0.0,
			"0.014": 0.0,
			"0.015": 0.0,
			"0.016": 0.0,
			"0.017": 0.0,
			"0.018": 0.0,
			"0.019": 0.0,
			"0.02": 0.0,
			"0.021": 0.0,
			"0.022": 0.0,
			"0.023": 0.0,
			"0.024": 0.0,
			"0.025": 0.0
		}
	}
}
