{
	 "smiles": "OC1=CC=C(C=C1)C1=CC=CC=C1", 
	 "Tm": 439.15, 
	 "num_atms": 23, 
	 "gaussian": { 
		 "optdone": 1, 
		 "sigma_profile": "yes", 
		 "theory": "DFT", 
		 "functional": "B3LYP", 
		 "basiset": "6-31G**", 
		 "properties": { 
			 "R2extent": 3474.0296, 
			 "electric_dipole_moment_norm": 1.36828006636, 
			 "electric_quadrupole_moment_norm": 12.6708176129, 
			 "total_energy": -538.531159724, 
			 "HOMO_LUMO_gap": 0.18851, 
			 "cosmo_polarized_energy": -9.64, 
			 "cosmo_cavitation_energy": 26.88, 
			 "cosmo_dispersion_energy": -19.96, 
			 "cosmo_repulsion_energy": 1.56, 
			 "cosmo_total_nonelectrostatic_energy": 8.48, 
			 "SMD_solvation_energy": 4.72 
		},
		"coords": [
			{
				"x": -4.8067878379,
				"y": -2.0236924193,
				"z": -1.7371157024,
				"element": "O" 
			},
			{
				"x": -3.7198974586,
				"y": -1.3158246317,
				"z": -1.3081484271,
				"element": "C" 
			},
			{
				"x": -2.8349515172,
				"y": -1.9553079639,
				"z": -0.4328560464,
				"element": "C" 
			},
			{
				"x": -1.7137338591,
				"y": -1.2787013214,
				"z": 0.0335943462,
				"element": "C" 
			},
			{
				"x": -1.4364404123,
				"y": 0.0456539268,
				"z": -0.3524384482,
				"element": "C" 
			},
			{
				"x": -2.33786188,
				"y": 0.6665738566,
				"z": -1.2313682434,
				"element": "C" 
			},
			{
				"x": -3.4661701826,
				"y": 0.0007748632,
				"z": -1.7057926122,
				"element": "C" 
			},
			{
				"x": -0.2358074714,
				"y": 0.7594759544,
				"z": 0.1502683245,
				"element": "C" 
			},
			{
				"x": -0.2853869814,
				"y": 2.1293139854,
				"z": 0.4628704198,
				"element": "C" 
			},
			{
				"x": 0.8431037097,
				"y": 2.80065401,
				"z": 0.9313754789,
				"element": "C" 
			},
			{
				"x": 2.047957778,
				"y": 2.1168019596,
				"z": 1.1044457742,
				"element": "C" 
			},
			{
				"x": 2.1128226278,
				"y": 0.7554356649,
				"z": 0.8014949265,
				"element": "C" 
			},
			{
				"x": 0.9854580408,
				"y": 0.0859128023,
				"z": 0.3276872715,
				"element": "C" 
			},
			{
				"x": -5.3328393725,
				"y": -1.4684011073,
				"z": -2.3270230277,
				"element": "H" 
			},
			{
				"x": -3.0482577304,
				"y": -2.9731246685,
				"z": -0.1231169889,
				"element": "H" 
			},
			{
				"x": -1.0505233278,
				"y": -1.779101961,
				"z": 0.7329157028,
				"element": "H" 
			},
			{
				"x": -2.1419316999,
				"y": 1.678969631,
				"z": -1.5717627447,
				"element": "H" 
			},
			{
				"x": -4.1436817497,
				"y": 0.5012361956,
				"z": -2.394998245,
				"element": "H" 
			},
			{
				"x": -1.2248685575,
				"y": 2.6649078365,
				"z": 0.3617015833,
				"element": "H" 
			},
			{
				"x": 0.7779943654,
				"y": 3.8581521983,
				"z": 1.172403516,
				"element": "H" 
			},
			{
				"x": 2.9266805726,
				"y": 2.6390082538,
				"z": 1.4717174561,
				"element": "H" 
			},
			{
				"x": 3.0471203893,
				"y": 0.2144736728,
				"z": 0.9241747033,
				"element": "H" 
			},
			{
				"x": 1.0562025546,
				"y": -0.966090738,
				"z": 0.0670709825,
				"element": "H" 
			}
		],
		 "valence_orbital": [ 
			{
				"type": "occ",
				"energy": -0.32787,
				"method": "rhf"
			},
			{
				"type": "occ",
				"energy": -0.25785,
				"method": "rhf"
			},
			{
				"type": "occ",
				"energy": -0.25226,
				"method": "rhf"
			},
			{
				"type": "occ",
				"energy": -0.24674,
				"method": "rhf"
			},
			{
				"type": "occ",
				"energy": -0.20694,
				"method": "rhf"
			},
			{
				"type": "unocc",
				"energy": -0.01843,
				"method": "rhf"
			},
			{
				"type": "unocc",
				"energy": -0.00414,
				"method": "rhf"
			},
			{
				"type": "unocc",
				"energy": 0.00252,
				"method": "rhf"
			},
			{
				"type": "unocc",
				"energy": 0.03935,
				"method": "rhf"
			},
			{
				"type": "unocc",
				"energy": 0.06978,
				"method": "rhf"
			}
		],
		"cosmo_sigma_profile": { 
			"-0.025": 0.0,
			"-0.024": 0.0,
			"-0.023": 0.0,
			"-0.022": 0.0,
			"-0.021": 0.0,
			"-0.02": 0.0,
			"-0.019": 0.0,
			"-0.018": 0.419459474425,
			"-0.017": 1.06607642447,
			"-0.016": 1.11012140024,
			"-0.015": 1.14244600607,
			"-0.014": 1.20941560741,
			"-0.013": 0.352643287106,
			"-0.012": 0.517235064542,
			"-0.011": 1.21898351608,
			"-0.01": 1.72110869723,
			"-0.009": 1.35806699941,
			"-0.008": 0.578459211394,
			"-0.007": 1.50794875637,
			"-0.006": 6.64214726698,
			"-0.005": 18.8089458929,
			"-0.004": 18.6293838716,
			"-0.003": 17.639657525,
			"-0.002": 13.0148093354,
			"-0.001": 12.5565025844,
			"0.0": 10.4005157769,
			"0.001": 10.0374474378,
			"0.002": 14.1509189569,
			"0.003": 17.1367209768,
			"0.004": 20.1263871599,
			"0.005": 20.8300099952,
			"0.006": 13.7554796336,
			"0.007": 2.21504878544,
			"0.008": 0.740341129171,
			"0.009": 2.16855086172,
			"0.01": 1.59271385236,
			"0.011": 1.78792099489,
			"0.012": 0.74249825437,
			"0.013": 0.0,
			"0.014": 0.0,
			"0.015": 0.0,
			"0.016": 0.0,
			"0.017": 0.0,
			"0.018": 0.0,
			"0.019": 0.0,
			"0.02": 0.0,
			"0.021": 0.0,
			"0.022": 0.0,
			"0.023": 0.0,
			"0.024": 0.0,
			"0.025": 0.0
		}
	}
}
