{
	 "smiles": "COC1=C(OC)C=C(C(C)=C1)S(Cl)(=O)=O", 
	 "Tm": 347.15, 
	 "num_atms": 26, 
	 "gaussian": { 
		 "optdone": 1, 
		 "sigma_profile": "yes", 
		 "theory": "DFT", 
		 "functional": "B3LYP", 
		 "basiset": "6-31G**", 
		 "properties": { 
			 "R2extent": 4995.5163, 
			 "electric_dipole_moment_norm": 6.05582157102, 
			 "electric_quadrupole_moment_norm": 14.6093722733, 
			 "total_energy": -1508.76597695, 
			 "HOMO_LUMO_gap": 0.16955, 
			 "cosmo_polarized_energy": -9.9, 
			 "cosmo_cavitation_energy": 32.52, 
			 "cosmo_dispersion_energy": -23.76, 
			 "cosmo_repulsion_energy": 1.83, 
			 "cosmo_total_nonelectrostatic_energy": 10.59, 
			 "SMD_solvation_energy": 5.92 
		},
		"coords": [
			{
				"x": -2.0088324257,
				"y": -3.115576775,
				"z": 1.1811753847,
				"element": "C" 
			},
			{
				"x": -0.8248568955,
				"y": -2.3058523061,
				"z": 1.2830486712,
				"element": "O" 
			},
			{
				"x": -0.8486538559,
				"y": -1.1189385765,
				"z": 0.6057231938,
				"element": "C" 
			},
			{
				"x": -0.9494552075,
				"y": -1.0565303881,
				"z": -0.7986586228,
				"element": "C" 
			},
			{
				"x": -1.0756343904,
				"y": -2.1853131796,
				"z": -1.5699386934,
				"element": "O" 
			},
			{
				"x": 0.1149369179,
				"y": -2.9835305102,
				"z": -1.6624660286,
				"element": "C" 
			},
			{
				"x": -0.9506298119,
				"y": 0.1887384058,
				"z": -1.4182760576,
				"element": "C" 
			},
			{
				"x": -0.8404439929,
				"y": 1.3520728697,
				"z": -0.650963375,
				"element": "C" 
			},
			{
				"x": -0.6949804079,
				"y": 1.327484297,
				"z": 0.7507393402,
				"element": "C" 
			},
			{
				"x": -0.5439095057,
				"y": 2.5551238495,
				"z": 1.6157300484,
				"element": "C" 
			},
			{
				"x": -0.710116257,
				"y": 0.0604089066,
				"z": 1.3423844449,
				"element": "C" 
			},
			{
				"x": -0.893462668,
				"y": 2.8834839435,
				"z": -1.5724403001,
				"element": "S" 
			},
			{
				"x": 1.1703465488,
				"y": 3.4796464173,
				"z": -1.5469978709,
				"element": "Cl" 
			},
			{
				"x": -1.6117632584,
				"y": 3.9110329811,
				"z": -0.8275770304,
				"element": "O" 
			},
			{
				"x": -1.2039641501,
				"y": 2.598825262,
				"z": -2.9680189815,
				"element": "O" 
			},
			{
				"x": -1.8023259103,
				"y": -4.0191750726,
				"z": 1.7565077373,
				"element": "H" 
			},
			{
				"x": -2.2300682518,
				"y": -3.3732948,
				"z": 0.1425756424,
				"element": "H" 
			},
			{
				"x": -2.865573893,
				"y": -2.592114067,
				"z": 1.6213119848,
				"element": "H" 
			},
			{
				"x": 0.4358713991,
				"y": -3.3347194669,
				"z": -0.6766471252,
				"element": "H" 
			},
			{
				"x": 0.9258948462,
				"y": -2.4129095783,
				"z": -2.1301156514,
				"element": "H" 
			},
			{
				"x": -0.1400951407,
				"y": -3.8358556353,
				"z": -2.2943094979,
				"element": "H" 
			},
			{
				"x": -1.038738791,
				"y": 0.2429186013,
				"z": -2.4966530888,
				"element": "H" 
			},
			{
				"x": -0.3544355843,
				"y": 2.2611763427,
				"z": 2.6503035265,
				"element": "H" 
			},
			{
				"x": -1.4427020088,
				"y": 3.1761821203,
				"z": 1.5844413274,
				"element": "H" 
			},
			{
				"x": 0.2863099442,
				"y": 3.1841912115,
				"z": 1.280886495,
				"element": "H" 
			},
			{
				"x": -0.6182172494,
				"y": -0.0324748526,
				"z": 2.419934527,
				"element": "H" 
			}
		],
		 "valence_orbital": [ 
			{
				"type": "occ",
				"energy": -0.31805,
				"method": "rhf"
			},
			{
				"type": "occ",
				"energy": -0.30882,
				"method": "rhf"
			},
			{
				"type": "occ",
				"energy": -0.28859,
				"method": "rhf"
			},
			{
				"type": "occ",
				"energy": -0.27055,
				"method": "rhf"
			},
			{
				"type": "occ",
				"energy": -0.25492,
				"method": "rhf"
			},
			{
				"type": "unocc",
				"energy": -0.08537,
				"method": "rhf"
			},
			{
				"type": "unocc",
				"energy": -0.03872,
				"method": "rhf"
			},
			{
				"type": "unocc",
				"energy": -0.02676,
				"method": "rhf"
			},
			{
				"type": "unocc",
				"energy": 0.05801,
				"method": "rhf"
			},
			{
				"type": "unocc",
				"energy": 0.06448,
				"method": "rhf"
			}
		],
		"cosmo_sigma_profile": { 
			"-0.025": 0.0,
			"-0.024": 0.0,
			"-0.023": 0.0,
			"-0.022": 0.0,
			"-0.021": 0.0,
			"-0.02": 0.0,
			"-0.019": 0.0,
			"-0.018": 0.0,
			"-0.017": 0.0,
			"-0.016": 0.0,
			"-0.015": 0.0,
			"-0.014": 0.0,
			"-0.013": 0.0,
			"-0.012": 0.0,
			"-0.011": 0.0,
			"-0.01": 0.0,
			"-0.009": 0.0,
			"-0.008": 0.905054070061,
			"-0.007": 3.949359868,
			"-0.006": 8.0280903761,
			"-0.005": 15.7440981814,
			"-0.004": 24.5441550823,
			"-0.003": 30.232862539,
			"-0.002": 28.7074544851,
			"-0.001": 27.1086192673,
			"0.0": 22.2779606022,
			"0.001": 19.3619854691,
			"0.002": 12.7489800004,
			"0.003": 14.4439030295,
			"0.004": 14.6772168265,
			"0.005": 5.50218973269,
			"0.006": 5.74478653374,
			"0.007": 7.25602183618,
			"0.008": 9.97174625127,
			"0.009": 6.97450462865,
			"0.01": 2.21586975865,
			"0.011": 0.9105522786,
			"0.012": 0.000411278267962,
			"0.013": 0.0,
			"0.014": 0.0,
			"0.015": 0.0,
			"0.016": 0.0,
			"0.017": 0.0,
			"0.018": 0.0,
			"0.019": 0.0,
			"0.02": 0.0,
			"0.021": 0.0,
			"0.022": 0.0,
			"0.023": 0.0,
			"0.024": 0.0,
			"0.025": 0.0
		}
	}
}
