{
	 "smiles": "FC1=CC(C=O)=CC(F)=C1", 
	 "Tm": 291.15, 
	 "num_atms": 14, 
	 "gaussian": { 
		 "optdone": 1, 
		 "sigma_profile": "yes", 
		 "theory": "DFT", 
		 "functional": "B3LYP", 
		 "basiset": "6-31G**", 
		 "properties": { 
			 "R2extent": 1813.0843, 
			 "electric_dipole_moment_norm": 2.05532144931, 
			 "electric_quadrupole_moment_norm": 9.36402987394, 
			 "total_energy": -544.034859952, 
			 "HOMO_LUMO_gap": 0.18636, 
			 "cosmo_polarized_energy": -6.77, 
			 "cosmo_cavitation_energy": 20.21, 
			 "cosmo_dispersion_energy": -14.42, 
			 "cosmo_repulsion_energy": 1.11, 
			 "cosmo_total_nonelectrostatic_energy": 6.9, 
			 "SMD_solvation_energy": 5.68 
		},
		"coords": [
			{
				"x": 1.3138692865,
				"y": -2.7935115641,
				"z": 0.0486709311,
				"element": "F" 
			},
			{
				"x": 0.5071290202,
				"y": -1.7321667392,
				"z": 0.2238113565,
				"element": "C" 
			},
			{
				"x": -0.8265676885,
				"y": -1.9362233207,
				"z": 0.5414317523,
				"element": "C" 
			},
			{
				"x": -1.6458049055,
				"y": -0.8129533555,
				"z": 0.7186124274,
				"element": "C" 
			},
			{
				"x": -3.0799824967,
				"y": -0.995974133,
				"z": 1.0595416993,
				"element": "C" 
			},
			{
				"x": -3.6162057606,
				"y": -2.076187941,
				"z": 1.2014937377,
				"element": "O" 
			},
			{
				"x": -1.1335336129,
				"y": 0.4826029782,
				"z": 0.5791642117,
				"element": "C" 
			},
			{
				"x": 0.2107743162,
				"y": 0.6323212332,
				"z": 0.2598318308,
				"element": "C" 
			},
			{
				"x": 0.7192267409,
				"y": 1.869997624,
				"z": 0.1221058567,
				"element": "F" 
			},
			{
				"x": 1.0540700432,
				"y": -0.4579644489,
				"z": 0.0764716096,
				"element": "C" 
			},
			{
				"x": -1.2354893131,
				"y": -2.9336414176,
				"z": 0.652224204,
				"element": "H" 
			},
			{
				"x": -3.6510497173,
				"y": -0.0495966245,
				"z": 1.1806429359,
				"element": "H" 
			},
			{
				"x": -1.7605005595,
				"y": 1.3579889457,
				"z": 0.7145078574,
				"element": "H" 
			},
			{
				"x": 2.0996646471,
				"y": -0.3224912367,
				"z": -0.1722104104,
				"element": "H" 
			}
		],
		 "valence_orbital": [ 
			{
				"type": "occ",
				"energy": -0.38478,
				"method": "rhf"
			},
			{
				"type": "occ",
				"energy": -0.36161,
				"method": "rhf"
			},
			{
				"type": "occ",
				"energy": -0.27881,
				"method": "rhf"
			},
			{
				"type": "occ",
				"energy": -0.26993,
				"method": "rhf"
			},
			{
				"type": "occ",
				"energy": -0.26584,
				"method": "rhf"
			},
			{
				"type": "unocc",
				"energy": -0.07948,
				"method": "rhf"
			},
			{
				"type": "unocc",
				"energy": -0.01819,
				"method": "rhf"
			},
			{
				"type": "unocc",
				"energy": 0.0275,
				"method": "rhf"
			},
			{
				"type": "unocc",
				"energy": 0.07625,
				"method": "rhf"
			},
			{
				"type": "unocc",
				"energy": 0.10303,
				"method": "rhf"
			}
		],
		"cosmo_sigma_profile": { 
			"-0.025": 0.0,
			"-0.024": 0.0,
			"-0.023": 0.0,
			"-0.022": 0.0,
			"-0.021": 0.0,
			"-0.02": 0.0,
			"-0.019": 0.0,
			"-0.018": 0.0,
			"-0.017": 0.0,
			"-0.016": 0.0,
			"-0.015": 0.0,
			"-0.014": 0.0,
			"-0.013": 0.0,
			"-0.012": 0.0,
			"-0.011": 0.0,
			"-0.01": 0.418553617924,
			"-0.009": 3.73441623431,
			"-0.008": 5.30086898394,
			"-0.007": 7.40966525959,
			"-0.006": 6.56506571787,
			"-0.005": 6.16267874303,
			"-0.004": 7.23209320519,
			"-0.003": 6.8217111597,
			"-0.002": 9.20952765532,
			"-0.001": 19.9488834279,
			"0.0": 22.9384779151,
			"0.001": 13.3577542745,
			"0.002": 6.52581214911,
			"0.003": 15.8740058685,
			"0.004": 14.5637928015,
			"0.005": 1.32598967936,
			"0.006": 1.28041408162,
			"0.007": 2.29556617758,
			"0.008": 1.30453302232,
			"0.009": 2.33933102681,
			"0.01": 3.43947434397,
			"0.011": 3.88764051952,
			"0.012": 1.32285077041,
			"0.013": 0.110255018848,
			"0.014": 0.0,
			"0.015": 0.0,
			"0.016": 0.0,
			"0.017": 0.0,
			"0.018": 0.0,
			"0.019": 0.0,
			"0.02": 0.0,
			"0.021": 0.0,
			"0.022": 0.0,
			"0.023": 0.0,
			"0.024": 0.0,
			"0.025": 0.0
		}
	}
}
