{
	 "smiles": "O=CC1=CC=C(C=C1)C1=CC=CS1", 
	 "Tm": 340.65, 
	 "num_atms": 21, 
	 "gaussian": { 
		 "optdone": 1, 
		 "sigma_profile": "yes", 
		 "theory": "DFT", 
		 "functional": "B3LYP", 
		 "basiset": "6-31G**", 
		 "properties": { 
			 "R2extent": 3636.3832, 
			 "electric_dipole_moment_norm": 3.82224895448, 
			 "electric_quadrupole_moment_norm": 13.0283551207, 
			 "total_energy": -897.386516519, 
			 "HOMO_LUMO_gap": 0.15054, 
			 "cosmo_polarized_energy": -9.24, 
			 "cosmo_cavitation_energy": 27.29, 
			 "cosmo_dispersion_energy": -20.5, 
			 "cosmo_repulsion_energy": 1.54, 
			 "cosmo_total_nonelectrostatic_energy": 8.32, 
			 "SMD_solvation_energy": 5.6 
		},
		"coords": [
			{
				"x": -3.5740675263,
				"y": 2.3602501127,
				"z": -1.5596656192,
				"element": "O" 
			},
			{
				"x": -2.5303262438,
				"y": 2.7013432738,
				"z": -1.033771142,
				"element": "C" 
			},
			{
				"x": -1.4290696441,
				"y": 1.7834448313,
				"z": -0.6782445797,
				"element": "C" 
			},
			{
				"x": -1.5352261152,
				"y": 0.4074937282,
				"z": -0.9388646648,
				"element": "C" 
			},
			{
				"x": -0.5026164002,
				"y": -0.4512865026,
				"z": -0.5978722778,
				"element": "C" 
			},
			{
				"x": 0.6788598948,
				"y": 0.0370021631,
				"z": 0.0038222305,
				"element": "C" 
			},
			{
				"x": 0.7754614602,
				"y": 1.4182972631,
				"z": 0.2600716432,
				"element": "C" 
			},
			{
				"x": -0.2662401197,
				"y": 2.2764874165,
				"z": -0.0726237165,
				"element": "C" 
			},
			{
				"x": 1.7670045363,
				"y": -0.8840623366,
				"z": 0.342436916,
				"element": "C" 
			},
			{
				"x": 2.0460006739,
				"y": -2.1181404188,
				"z": -0.2050394669,
				"element": "C" 
			},
			{
				"x": 3.1894801971,
				"y": -2.7497712256,
				"z": 0.3596770139,
				"element": "C" 
			},
			{
				"x": 3.7803670482,
				"y": -1.9971343646,
				"z": 1.3382847728,
				"element": "C" 
			},
			{
				"x": 2.9434892901,
				"y": -0.5022211883,
				"z": 1.5869700727,
				"element": "S" 
			},
			{
				"x": -2.3412246304,
				"y": 3.7691240968,
				"z": -0.7819301606,
				"element": "H" 
			},
			{
				"x": -2.4458256891,
				"y": 0.0371551548,
				"z": -1.3992289456,
				"element": "H" 
			},
			{
				"x": -0.6091858301,
				"y": -1.5166870685,
				"z": -0.7743207117,
				"element": "H" 
			},
			{
				"x": 1.680789504,
				"y": 1.8205176391,
				"z": 0.7046722576,
				"element": "H" 
			},
			{
				"x": -0.1762100305,
				"y": 3.3414589904,
				"z": 0.1291796175,
				"element": "H" 
			},
			{
				"x": 1.4640208825,
				"y": -2.5488052552,
				"z": -1.0115732311,
				"element": "H" 
			},
			{
				"x": 3.5596928398,
				"y": -3.7191104407,
				"z": 0.046261003,
				"element": "H" 
			},
			{
				"x": 4.6530259027,
				"y": -2.231355869,
				"z": 1.9320589887,
				"element": "H" 
			}
		],
		 "valence_orbital": [ 
			{
				"type": "occ",
				"energy": -0.28675,
				"method": "rhf"
			},
			{
				"type": "occ",
				"energy": -0.26877,
				"method": "rhf"
			},
			{
				"type": "occ",
				"energy": -0.26124,
				"method": "rhf"
			},
			{
				"type": "occ",
				"energy": -0.25312,
				"method": "rhf"
			},
			{
				"type": "occ",
				"energy": -0.22442,
				"method": "rhf"
			},
			{
				"type": "unocc",
				"energy": -0.07388,
				"method": "rhf"
			},
			{
				"type": "unocc",
				"energy": -0.01752,
				"method": "rhf"
			},
			{
				"type": "unocc",
				"energy": -0.01717,
				"method": "rhf"
			},
			{
				"type": "unocc",
				"energy": 0.02161,
				"method": "rhf"
			},
			{
				"type": "unocc",
				"energy": 0.03959,
				"method": "rhf"
			}
		],
		"cosmo_sigma_profile": { 
			"-0.025": 0.0,
			"-0.024": 0.0,
			"-0.023": 0.0,
			"-0.022": 0.0,
			"-0.021": 0.0,
			"-0.02": 0.0,
			"-0.019": 0.0,
			"-0.018": 0.0,
			"-0.017": 0.0,
			"-0.016": 0.0,
			"-0.015": 0.0,
			"-0.014": 0.0,
			"-0.013": 0.0,
			"-0.012": 0.0,
			"-0.011": 0.0,
			"-0.01": 0.0,
			"-0.009": 0.922863231241,
			"-0.008": 3.47384287536,
			"-0.007": 12.1102683672,
			"-0.006": 14.7321738781,
			"-0.005": 15.629352923,
			"-0.004": 14.7059362436,
			"-0.003": 12.2117300402,
			"-0.002": 13.3393759124,
			"-0.001": 13.117229734,
			"0.0": 13.09544506,
			"0.001": 18.52322097,
			"0.002": 21.5510391655,
			"0.003": 27.7335008885,
			"0.004": 16.6713776894,
			"0.005": 6.65176046449,
			"0.006": 1.50540389502,
			"0.007": 1.18407719401,
			"0.008": 2.03810125046,
			"0.009": 2.06448822188,
			"0.01": 2.06347012108,
			"0.011": 4.04585525869,
			"0.012": 3.59093396864,
			"0.013": 1.11136702789,
			"0.014": 0.0371530074745,
			"0.015": 0.0,
			"0.016": 0.0,
			"0.017": 0.0,
			"0.018": 0.0,
			"0.019": 0.0,
			"0.02": 0.0,
			"0.021": 0.0,
			"0.022": 0.0,
			"0.023": 0.0,
			"0.024": 0.0,
			"0.025": 0.0
		}
	}
}
