{
	 "smiles": "COC(=O)C1=CC=C(C=C1)[N+]([O-])=O", 
	 "Tm": 368.65, 
	 "num_atms": 20, 
	 "gaussian": { 
		 "optdone": 1, 
		 "sigma_profile": "yes", 
		 "theory": "DFT", 
		 "functional": "B3LYP", 
		 "basiset": "6-31G**", 
		 "properties": { 
			 "R2extent": 3235.1444, 
			 "electric_dipole_moment_norm": 4.40178672019, 
			 "electric_quadrupole_moment_norm": 12.1730225979, 
			 "total_energy": -664.625801074, 
			 "HOMO_LUMO_gap": 0.18231, 
			 "cosmo_polarized_energy": -10.06, 
			 "cosmo_cavitation_energy": 25.86, 
			 "cosmo_dispersion_energy": -18.97, 
			 "cosmo_repulsion_energy": 1.49, 
			 "cosmo_total_nonelectrostatic_energy": 8.39, 
			 "SMD_solvation_energy": 8.42 
		},
		"coords": [
			{
				"x": 1.5736971334,
				"y": 4.0298938125,
				"z": -0.2877109333,
				"element": "C" 
			},
			{
				"x": 0.9934725281,
				"y": 2.7549044166,
				"z": -0.6130026016,
				"element": "O" 
			},
			{
				"x": 0.7105419104,
				"y": 1.9647578958,
				"z": 0.4428697017,
				"element": "C" 
			},
			{
				"x": 0.9208435448,
				"y": 2.2829167912,
				"z": 1.5960163544,
				"element": "O" 
			},
			{
				"x": 0.1110196205,
				"y": 0.6578975523,
				"z": 0.0310214507,
				"element": "C" 
			},
			{
				"x": -0.1151303353,
				"y": 0.3281916679,
				"z": -1.3130053908,
				"element": "C" 
			},
			{
				"x": -0.6760228618,
				"y": -0.9016458435,
				"z": -1.6443119049,
				"element": "C" 
			},
			{
				"x": -1.0025786198,
				"y": -1.7850711898,
				"z": -0.617112549,
				"element": "C" 
			},
			{
				"x": -0.7876044397,
				"y": -1.4807429443,
				"z": 0.7262991018,
				"element": "C" 
			},
			{
				"x": -0.2266309319,
				"y": -0.2490936356,
				"z": 1.0451508444,
				"element": "C" 
			},
			{
				"x": -1.5972727216,
				"y": -3.0894562723,
				"z": -0.964614905,
				"element": "N" 
			},
			{
				"x": -1.7764897789,
				"y": -3.3335330612,
				"z": -2.1567266044,
				"element": "O" 
			},
			{
				"x": -1.876458817,
				"y": -3.8513074282,
				"z": -0.0405171643,
				"element": "O" 
			},
			{
				"x": 1.7352087337,
				"y": 4.5302700303,
				"z": -1.2419604689,
				"element": "H" 
			},
			{
				"x": 2.519506646,
				"y": 3.895602244,
				"z": 0.242623015,
				"element": "H" 
			},
			{
				"x": 0.8946326193,
				"y": 4.6096579866,
				"z": 0.3420425446,
				"element": "H" 
			},
			{
				"x": 0.1486853807,
				"y": 1.0348078114,
				"z": -2.0905489619,
				"element": "H" 
			},
			{
				"x": -0.863382677,
				"y": -1.1866406995,
				"z": -2.6717700851,
				"element": "H" 
			},
			{
				"x": -1.0587376122,
				"y": -2.2016722168,
				"z": 1.4870501816,
				"element": "H" 
			},
			{
				"x": -0.0412993216,
				"y": 0.0307630825,
				"z": 2.0761083749,
				"element": "H" 
			}
		],
		 "valence_orbital": [ 
			{
				"type": "occ",
				"energy": -0.31319,
				"method": "rhf"
			},
			{
				"type": "occ",
				"energy": -0.29779,
				"method": "rhf"
			},
			{
				"type": "occ",
				"energy": -0.29168,
				"method": "rhf"
			},
			{
				"type": "occ",
				"energy": -0.29009,
				"method": "rhf"
			},
			{
				"type": "occ",
				"energy": -0.28585,
				"method": "rhf"
			},
			{
				"type": "unocc",
				"energy": -0.10354,
				"method": "rhf"
			},
			{
				"type": "unocc",
				"energy": -0.03885,
				"method": "rhf"
			},
			{
				"type": "unocc",
				"energy": -0.03443,
				"method": "rhf"
			},
			{
				"type": "unocc",
				"energy": 0.04653,
				"method": "rhf"
			},
			{
				"type": "unocc",
				"energy": 0.07836,
				"method": "rhf"
			}
		],
		"cosmo_sigma_profile": { 
			"-0.025": 0.0,
			"-0.024": 0.0,
			"-0.023": 0.0,
			"-0.022": 0.0,
			"-0.021": 0.0,
			"-0.02": 0.0,
			"-0.019": 0.0,
			"-0.018": 0.0,
			"-0.017": 0.0,
			"-0.016": 0.0,
			"-0.015": 0.0,
			"-0.014": 0.0,
			"-0.013": 0.0,
			"-0.012": 0.0,
			"-0.011": 0.0,
			"-0.01": 0.0,
			"-0.009": 0.196365389257,
			"-0.008": 3.22797041231,
			"-0.007": 8.61865344145,
			"-0.006": 13.2841242364,
			"-0.005": 14.0020564055,
			"-0.004": 18.4618784166,
			"-0.003": 16.9467824732,
			"-0.002": 16.8683980799,
			"-0.001": 19.0183174032,
			"0.0": 20.8752999289,
			"0.001": 12.940222245,
			"0.002": 6.22891630748,
			"0.003": 6.08143074339,
			"0.004": 6.77814923911,
			"0.005": 5.54990942407,
			"0.006": 5.44188890042,
			"0.007": 10.9156025548,
			"0.008": 7.06412830489,
			"0.009": 5.85202389364,
			"0.01": 3.72569798026,
			"0.011": 4.1633014493,
			"0.012": 1.36466146792,
			"0.013": 0.0,
			"0.014": 0.0,
			"0.015": 0.0,
			"0.016": 0.0,
			"0.017": 0.0,
			"0.018": 0.0,
			"0.019": 0.0,
			"0.02": 0.0,
			"0.021": 0.0,
			"0.022": 0.0,
			"0.023": 0.0,
			"0.024": 0.0,
			"0.025": 0.0
		}
	}
}
