{
	 "smiles": "ClC1=CC=CC(Cl)=C1Br", 
	 "Tm": 336.65, 
	 "num_atms": 12, 
	 "gaussian": { 
		 "optdone": 1, 
		 "sigma_profile": "yes", 
		 "theory": "DFT", 
		 "functional": "B3LYP", 
		 "basiset": "6-31G**", 
		 "properties": { 
			 "R2extent": 3675.2419, 
			 "electric_dipole_moment_norm": 2.57640172333, 
			 "electric_quadrupole_moment_norm": 2.93522664031, 
			 "total_energy": -3722.22542672, 
			 "HOMO_LUMO_gap": 0.22087, 
			 "cosmo_polarized_energy": -4.38, 
			 "cosmo_cavitation_energy": 21.9, 
			 "cosmo_dispersion_energy": -17.09, 
			 "cosmo_repulsion_energy": 1.39, 
			 "cosmo_total_nonelectrostatic_energy": 6.2, 
			 "SMD_solvation_energy": 2.27 
		},
		"coords": [
			{
				"x": -1.5072073599,
				"y": -2.0632748666,
				"z": -2.7163553475,
				"element": "Cl" 
			},
			{
				"x": -0.911635697,
				"y": -1.3584462551,
				"z": -1.2334061704,
				"element": "C" 
			},
			{
				"x": 0.4239556493,
				"y": -1.5797923136,
				"z": -0.8953088324,
				"element": "C" 
			},
			{
				"x": 0.9400081545,
				"y": -1.036659576,
				"z": 0.2776003666,
				"element": "C" 
			},
			{
				"x": 0.130021502,
				"y": -0.2742478366,
				"z": 1.1140649702,
				"element": "C" 
			},
			{
				"x": -1.205346115,
				"y": -0.0538923838,
				"z": 0.7744468838,
				"element": "C" 
			},
			{
				"x": -2.1766289113,
				"y": 0.9099749154,
				"z": 1.8599040471,
				"element": "Cl" 
			},
			{
				"x": -1.7486563649,
				"y": -0.5920013487,
				"z": -0.4046101723,
				"element": "C" 
			},
			{
				"x": -3.5599089497,
				"y": -0.2923492664,
				"z": -0.8642022825,
				"element": "Br" 
			},
			{
				"x": 1.0429637216,
				"y": -2.1754114324,
				"z": -1.5560720963,
				"element": "H" 
			},
			{
				"x": 1.9786212336,
				"y": -1.2084001814,
				"z": 0.5411253468,
				"element": "H" 
			},
			{
				"x": 0.5183131368,
				"y": 0.1548005451,
				"z": 2.030413287,
				"element": "H" 
			}
		],
		 "valence_orbital": [ 
			{
				"type": "occ",
				"energy": -0.32897,
				"method": "rhf"
			},
			{
				"type": "occ",
				"energy": -0.32502,
				"method": "rhf"
			},
			{
				"type": "occ",
				"energy": -0.28642,
				"method": "rhf"
			},
			{
				"type": "occ",
				"energy": -0.25982,
				"method": "rhf"
			},
			{
				"type": "occ",
				"energy": -0.25642,
				"method": "rhf"
			},
			{
				"type": "unocc",
				"energy": -0.03555,
				"method": "rhf"
			},
			{
				"type": "unocc",
				"energy": -0.03437,
				"method": "rhf"
			},
			{
				"type": "unocc",
				"energy": -0.03076,
				"method": "rhf"
			},
			{
				"type": "unocc",
				"energy": 0.04491,
				"method": "rhf"
			},
			{
				"type": "unocc",
				"energy": 0.04548,
				"method": "rhf"
			}
		],
		"cosmo_sigma_profile": { 
			"-0.025": 0.0,
			"-0.024": 0.0,
			"-0.023": 0.0,
			"-0.022": 0.0,
			"-0.021": 0.0,
			"-0.02": 0.0,
			"-0.019": 0.0,
			"-0.018": 0.0,
			"-0.017": 0.0,
			"-0.016": 0.0,
			"-0.015": 0.0,
			"-0.014": 0.0,
			"-0.013": 0.0,
			"-0.012": 0.0,
			"-0.011": 0.0,
			"-0.01": 0.0,
			"-0.009": 0.228577986125,
			"-0.008": 5.07272981165,
			"-0.007": 6.80785235219,
			"-0.006": 6.73834071617,
			"-0.005": 6.37257133391,
			"-0.004": 5.8986422391,
			"-0.003": 8.41283710847,
			"-0.002": 9.16771176185,
			"-0.001": 15.487263156,
			"0.0": 27.4375497854,
			"0.001": 22.1700268606,
			"0.002": 20.4257099819,
			"0.003": 22.6880553426,
			"0.004": 21.2814491347,
			"0.005": 5.93765839392,
			"0.006": 0.0479777043707,
			"0.007": 0.0,
			"0.008": 0.0,
			"0.009": 0.0,
			"0.01": 0.0,
			"0.011": 0.0,
			"0.012": 0.0,
			"0.013": 0.0,
			"0.014": 0.0,
			"0.015": 0.0,
			"0.016": 0.0,
			"0.017": 0.0,
			"0.018": 0.0,
			"0.019": 0.0,
			"0.02": 0.0,
			"0.021": 0.0,
			"0.022": 0.0,
			"0.023": 0.0,
			"0.024": 0.0,
			"0.025": 0.0
		}
	}
}
