{
	 "smiles": "OC(=O)C=C", 
	 "Tm": 286.15, 
	 "num_atms": 9, 
	 "gaussian": { 
		 "optdone": 1, 
		 "sigma_profile": "yes", 
		 "theory": "DFT", 
		 "functional": "B3LYP", 
		 "basiset": "6-31G**", 
		 "properties": { 
			 "R2extent": 915.2423, 
			 "electric_dipole_moment_norm": 4.49129704428, 
			 "electric_quadrupole_moment_norm": 10.4443085267, 
			 "total_energy": -267.154106527, 
			 "HOMO_LUMO_gap": 0.2183, 
			 "cosmo_polarized_energy": -12.98, 
			 "cosmo_cavitation_energy": 13.53, 
			 "cosmo_dispersion_energy": -9.84, 
			 "cosmo_repulsion_energy": 0.88, 
			 "cosmo_total_nonelectrostatic_energy": 4.57, 
			 "SMD_solvation_energy": 4.57 
		},
		"coords": [
			{
				"x": 0.252345754,
				"y": -1.7133730612,
				"z": -2.9121413129,
				"element": "O" 
			},
			{
				"x": 0.5130816896,
				"y": -0.7105818637,
				"z": -2.0312473495,
				"element": "C" 
			},
			{
				"x": 1.5891099686,
				"y": -0.1619782653,
				"z": -2.0287517004,
				"element": "O" 
			},
			{
				"x": -0.5712847592,
				"y": -0.3410105277,
				"z": -1.0727098032,
				"element": "C" 
			},
			{
				"x": -1.5702570579,
				"y": -1.1409616644,
				"z": -0.6908273504,
				"element": "C" 
			},
			{
				"x": -0.6886136458,
				"y": -1.9366472651,
				"z": -2.8903389072,
				"element": "H" 
			},
			{
				"x": -0.4411975353,
				"y": 0.6421873354,
				"z": -0.6305714912,
				"element": "H" 
			},
			{
				"x": -2.2971830273,
				"y": -0.823394905,
				"z": 0.0498707732,
				"element": "H" 
			},
			{
				"x": -1.6905013867,
				"y": -2.153939783,
				"z": -1.0692828584,
				"element": "H" 
			}
		],
		 "valence_orbital": [ 
			{
				"type": "occ",
				"energy": -0.41996,
				"method": "rhf"
			},
			{
				"type": "occ",
				"energy": -0.3777,
				"method": "rhf"
			},
			{
				"type": "occ",
				"energy": -0.32304,
				"method": "rhf"
			},
			{
				"type": "occ",
				"energy": -0.30139,
				"method": "rhf"
			},
			{
				"type": "occ",
				"energy": -0.27474,
				"method": "rhf"
			},
			{
				"type": "unocc",
				"energy": -0.05644,
				"method": "rhf"
			},
			{
				"type": "unocc",
				"energy": 0.05416,
				"method": "rhf"
			},
			{
				"type": "unocc",
				"energy": 0.06727,
				"method": "rhf"
			},
			{
				"type": "unocc",
				"energy": 0.10934,
				"method": "rhf"
			},
			{
				"type": "unocc",
				"energy": 0.14049,
				"method": "rhf"
			}
		],
		"cosmo_sigma_profile": { 
			"-0.025": 0.0,
			"-0.024": 0.0,
			"-0.023": 0.0,
			"-0.022": 0.0,
			"-0.021": 0.0,
			"-0.02": 0.0,
			"-0.019": 0.0608573083637,
			"-0.018": 0.804926197038,
			"-0.017": 1.13063479646,
			"-0.016": 1.18394457359,
			"-0.015": 0.446667228455,
			"-0.014": 1.33662901268,
			"-0.013": 0.965306917728,
			"-0.012": 1.11288005094,
			"-0.011": 1.28438290954,
			"-0.01": 0.982256575632,
			"-0.009": 1.34809410255,
			"-0.008": 3.1313178,
			"-0.007": 5.54263387489,
			"-0.006": 6.17664651634,
			"-0.005": 5.53055845834,
			"-0.004": 6.70420339392,
			"-0.003": 6.24541862346,
			"-0.002": 6.43714388167,
			"-0.001": 6.00753327987,
			"0.0": 5.01689180581,
			"0.001": 5.03463051209,
			"0.002": 5.40547371904,
			"0.003": 3.46976199006,
			"0.004": 1.52806242097,
			"0.005": 2.69322860364,
			"0.006": 2.10416265559,
			"0.007": 1.73771845417,
			"0.008": 3.02151578339,
			"0.009": 3.63777078747,
			"0.01": 3.98497889845,
			"0.011": 5.77281577994,
			"0.012": 5.67856752903,
			"0.013": 2.37803728281,
			"0.014": 0.089920392084,
			"0.015": 0.0,
			"0.016": 0.0,
			"0.017": 0.0,
			"0.018": 0.0,
			"0.019": 0.0,
			"0.02": 0.0,
			"0.021": 0.0,
			"0.022": 0.0,
			"0.023": 0.0,
			"0.024": 0.0,
			"0.025": 0.0
		}
	}
}
