{
	 "smiles": "ClC1=CC=C(C=C1)C(=O)N1CCNCC1", 
	 "Tm": 354.15, 
	 "num_atms": 28, 
	 "gaussian": { 
		 "optdone": 1, 
		 "sigma_profile": "yes", 
		 "theory": "DFT", 
		 "functional": "B3LYP", 
		 "basiset": "6-31G**", 
		 "properties": { 
			 "R2extent": 5213.8899, 
			 "electric_dipole_moment_norm": 3.16244208959, 
			 "electric_quadrupole_moment_norm": 10.4487255065, 
			 "total_energy": -1071.92160879, 
			 "HOMO_LUMO_gap": 0.18741, 
			 "cosmo_polarized_energy": -13.14, 
			 "cosmo_cavitation_energy": 32.07, 
			 "cosmo_dispersion_energy": -23.65, 
			 "cosmo_repulsion_energy": 1.86, 
			 "cosmo_total_nonelectrostatic_energy": 10.27, 
			 "SMD_solvation_energy": 2.08 
		},
		"coords": [
			{
				"x": 0.996377117,
				"y": -1.0229710082,
				"z": -4.9094820678,
				"element": "Cl" 
			},
			{
				"x": 0.8535035004,
				"y": -0.3001762469,
				"z": -3.3146865041,
				"element": "C" 
			},
			{
				"x": 1.8182186247,
				"y": -0.5800396975,
				"z": -2.3480568415,
				"element": "C" 
			},
			{
				"x": 1.6914748346,
				"y": -0.0129998338,
				"z": -1.0798232475,
				"element": "C" 
			},
			{
				"x": 0.6173657146,
				"y": 0.833999806,
				"z": -0.7759382822,
				"element": "C" 
			},
			{
				"x": -0.3198927842,
				"y": 1.1248851984,
				"z": -1.7769892641,
				"element": "C" 
			},
			{
				"x": -0.2180840315,
				"y": 0.5517454387,
				"z": -3.0412564324,
				"element": "C" 
			},
			{
				"x": 0.4747077048,
				"y": 1.5589479462,
				"z": 0.5362128383,
				"element": "C" 
			},
			{
				"x": 0.0987855976,
				"y": 2.73117989,
				"z": 0.5488241096,
				"element": "O" 
			},
			{
				"x": 0.8010404275,
				"y": 0.9080799459,
				"z": 1.7011876671,
				"element": "N" 
			},
			{
				"x": 0.8535660689,
				"y": -0.5510657842,
				"z": 1.8777497972,
				"element": "C" 
			},
			{
				"x": 0.0572509582,
				"y": -0.9631744062,
				"z": 3.1169736279,
				"element": "C" 
			},
			{
				"x": 0.6568218634,
				"y": -0.3822389019,
				"z": 4.326864122,
				"element": "N" 
			},
			{
				"x": 1.3194474469,
				"y": 0.9111159561,
				"z": 4.0950539416,
				"element": "C" 
			},
			{
				"x": 0.7280616513,
				"y": 1.7118398399,
				"z": 2.9333279548,
				"element": "C" 
			},
			{
				"x": 2.6562461444,
				"y": -1.2255359811,
				"z": -2.5863367032,
				"element": "H" 
			},
			{
				"x": 2.4531933906,
				"y": -0.216550857,
				"z": -0.3340814415,
				"element": "H" 
			},
			{
				"x": -1.1236277552,
				"y": 1.8176213097,
				"z": -1.5514643989,
				"element": "H" 
			},
			{
				"x": -0.951227812,
				"y": 0.767055685,
				"z": -3.8106174431,
				"element": "H" 
			},
			{
				"x": 1.8907613606,
				"y": -0.8976578626,
				"z": 1.9850346073,
				"element": "H" 
			},
			{
				"x": 0.4332149563,
				"y": -1.0367065642,
				"z": 0.9967227222,
				"element": "H" 
			},
			{
				"x": 0.0633732759,
				"y": -2.0582129886,
				"z": 3.1922492997,
				"element": "H" 
			},
			{
				"x": -0.9907764409,
				"y": -0.6562929066,
				"z": 2.9630206561,
				"element": "H" 
			},
			{
				"x": -0.0539549147,
				"y": -0.2840554517,
				"z": 5.0433496097,
				"element": "H" 
			},
			{
				"x": 2.3873228818,
				"y": 0.7430908713,
				"z": 3.8987862653,
				"element": "H" 
			},
			{
				"x": 1.2655162712,
				"y": 1.506720417,
				"z": 5.0111670143,
				"element": "H" 
			},
			{
				"x": 1.2767574301,
				"y": 2.6441402907,
				"z": 2.7728686578,
				"element": "H" 
			},
			{
				"x": -0.3136434822,
				"y": 1.9933558956,
				"z": 3.1414397354,
				"element": "H" 
			}
		],
		 "valence_orbital": [ 
			{
				"type": "occ",
				"energy": -0.26993,
				"method": "rhf"
			},
			{
				"type": "occ",
				"energy": -0.26001,
				"method": "rhf"
			},
			{
				"type": "occ",
				"energy": -0.24406,
				"method": "rhf"
			},
			{
				"type": "occ",
				"energy": -0.23805,
				"method": "rhf"
			},
			{
				"type": "occ",
				"energy": -0.22538,
				"method": "rhf"
			},
			{
				"type": "unocc",
				"energy": -0.03797,
				"method": "rhf"
			},
			{
				"type": "unocc",
				"energy": -0.01908,
				"method": "rhf"
			},
			{
				"type": "unocc",
				"energy": 0.02628,
				"method": "rhf"
			},
			{
				"type": "unocc",
				"energy": 0.04578,
				"method": "rhf"
			},
			{
				"type": "unocc",
				"energy": 0.06721,
				"method": "rhf"
			}
		],
		"cosmo_sigma_profile": { 
			"-0.025": 0.0,
			"-0.024": 0.0,
			"-0.023": 0.0,
			"-0.022": 0.0,
			"-0.021": 0.0,
			"-0.02": 0.0,
			"-0.019": 0.0,
			"-0.018": 0.0,
			"-0.017": 0.0,
			"-0.016": 0.0,
			"-0.015": 0.0,
			"-0.014": 0.0,
			"-0.013": 0.0,
			"-0.012": 0.0,
			"-0.011": 0.0529907094525,
			"-0.01": 1.4422200185,
			"-0.009": 1.31433070074,
			"-0.008": 2.70260642197,
			"-0.007": 7.36368348796,
			"-0.006": 10.5575781208,
			"-0.005": 16.4749754708,
			"-0.004": 23.821775785,
			"-0.003": 32.1312915429,
			"-0.002": 23.7630504427,
			"-0.001": 18.6372385333,
			"0.0": 14.7599924604,
			"0.001": 17.6065848427,
			"0.002": 20.4543318409,
			"0.003": 16.7499618341,
			"0.004": 12.714814421,
			"0.005": 7.04461996767,
			"0.006": 2.44731608138,
			"0.007": 2.71372961146,
			"0.008": 2.50208855703,
			"0.009": 1.84700149656,
			"0.01": 1.98662820375,
			"0.011": 2.33497657394,
			"0.012": 2.54385907564,
			"0.013": 3.44166936429,
			"0.014": 5.40951338446,
			"0.015": 1.12418332992,
			"0.016": 0.181793640701,
			"0.017": 0.851687869472,
			"0.018": 0.376817060597,
			"0.019": 0.0,
			"0.02": 0.0,
			"0.021": 0.0,
			"0.022": 0.0,
			"0.023": 0.0,
			"0.024": 0.0,
			"0.025": 0.0
		}
	}
}
