{
	 "smiles": "CC(C)(C)OC(=O)NCCNC1=CC=C(C=C1N)C(F)(F)F", 
	 "Tm": 403.15, 
	 "num_atms": 42, 
	 "gaussian": { 
		 "optdone": 1, 
		 "sigma_profile": "yes", 
		 "theory": "DFT", 
		 "functional": "B3LYP", 
		 "basiset": "6-31G**", 
		 "properties": { 
			 "R2extent": 9903.6995, 
			 "electric_dipole_moment_norm": 3.71471318139, 
			 "electric_quadrupole_moment_norm": 33.8749494922, 
			 "total_energy": -1159.82036435, 
			 "HOMO_LUMO_gap": 0.19409, 
			 "cosmo_polarized_energy": -17.27, 
			 "cosmo_cavitation_energy": 45.71, 
			 "cosmo_dispersion_energy": -30.17, 
			 "cosmo_repulsion_energy": 2.25, 
			 "cosmo_total_nonelectrostatic_energy": 17.79, 
			 "SMD_solvation_energy": 8.42 
		},
		"coords": [
			{
				"x": 0.0570927428,
				"y": -3.7534696571,
				"z": -2.3898019483,
				"element": "C" 
			},
			{
				"x": -0.9135385193,
				"y": -2.9285691688,
				"z": -1.5382832951,
				"element": "C" 
			},
			{
				"x": -1.2396084193,
				"y": -1.5990331269,
				"z": -2.2231389643,
				"element": "C" 
			},
			{
				"x": -2.198454136,
				"y": -3.6963616271,
				"z": -1.2103396305,
				"element": "C" 
			},
			{
				"x": -0.251797464,
				"y": -2.5003228954,
				"z": -0.2911523375,
				"element": "O" 
			},
			{
				"x": 0.1666414587,
				"y": -3.4200278883,
				"z": 0.6144816619,
				"element": "C" 
			},
			{
				"x": 0.113993349,
				"y": -4.632942694,
				"z": 0.48882559,
				"element": "O" 
			},
			{
				"x": 0.6670094634,
				"y": -2.8104737723,
				"z": 1.7350012041,
				"element": "N" 
			},
			{
				"x": 0.8455514232,
				"y": -1.3833140809,
				"z": 1.94667281,
				"element": "C" 
			},
			{
				"x": 2.1422766147,
				"y": -0.8391288736,
				"z": 1.3065522979,
				"element": "C" 
			},
			{
				"x": 2.3781575092,
				"y": 0.578746579,
				"z": 1.5199628664,
				"element": "N" 
			},
			{
				"x": 1.6204497841,
				"y": 1.5692090665,
				"z": 0.8967406712,
				"element": "C" 
			},
			{
				"x": 0.7053786874,
				"y": 1.3279170684,
				"z": -0.1365129764,
				"element": "C" 
			},
			{
				"x": -0.007644349,
				"y": 2.3765202375,
				"z": -0.7190141731,
				"element": "C" 
			},
			{
				"x": 0.1811107091,
				"y": 3.6827898903,
				"z": -0.2745483737,
				"element": "C" 
			},
			{
				"x": 1.1131718049,
				"y": 3.9425455442,
				"z": 0.739409792,
				"element": "C" 
			},
			{
				"x": 1.8383866496,
				"y": 2.9095085755,
				"z": 1.3205596992,
				"element": "C" 
			},
			{
				"x": 2.7706647936,
				"y": 3.1189878975,
				"z": 2.3632510619,
				"element": "N" 
			},
			{
				"x": -0.6321528045,
				"y": 4.8088060322,
				"z": -0.8351511804,
				"element": "C" 
			},
			{
				"x": 0.0812154429,
				"y": 5.9593393658,
				"z": -0.9143278719,
				"element": "F" 
			},
			{
				"x": -1.0960477006,
				"y": 4.5359883308,
				"z": -2.0761781743,
				"element": "F" 
			},
			{
				"x": -1.7172066336,
				"y": 5.0892000157,
				"z": -0.0692086335,
				"element": "F" 
			},
			{
				"x": 0.3033777851,
				"y": -4.6948981591,
				"z": -1.8990693761,
				"element": "H" 
			},
			{
				"x": -0.3991537653,
				"y": -3.9671125509,
				"z": -3.3618971726,
				"element": "H" 
			},
			{
				"x": 0.9800315672,
				"y": -3.1914287445,
				"z": -2.5656877757,
				"element": "H" 
			},
			{
				"x": -1.8809404789,
				"y": -0.9821023988,
				"z": -1.5868187583,
				"element": "H" 
			},
			{
				"x": -0.3253578805,
				"y": -1.0398700666,
				"z": -2.4445333345,
				"element": "H" 
			},
			{
				"x": -1.7634617929,
				"y": -1.7829819906,
				"z": -3.1657377356,
				"element": "H" 
			},
			{
				"x": -2.740917111,
				"y": -3.9141684896,
				"z": -2.1359944109,
				"element": "H" 
			},
			{
				"x": -1.9744197806,
				"y": -4.6352489606,
				"z": -0.7038790697,
				"element": "H" 
			},
			{
				"x": -2.8492376012,
				"y": -3.0922723089,
				"z": -0.5701313249,
				"element": "H" 
			},
			{
				"x": 1.0561688754,
				"y": -3.4634770268,
				"z": 2.3979200767,
				"element": "H" 
			},
			{
				"x": -0.0213324631,
				"y": -0.8528873032,
				"z": 1.5486422208,
				"element": "H" 
			},
			{
				"x": 0.8678973689,
				"y": -1.2031296936,
				"z": 3.0272720212,
				"element": "H" 
			},
			{
				"x": 2.9999496319,
				"y": -1.3865236235,
				"z": 1.7138329942,
				"element": "H" 
			},
			{
				"x": 2.1243840594,
				"y": -1.0432335241,
				"z": 0.2318802113,
				"element": "H" 
			},
			{
				"x": 2.6161798808,
				"y": 0.8293579949,
				"z": 2.473777401,
				"element": "H" 
			},
			{
				"x": 0.5267022016,
				"y": 0.3142003354,
				"z": -0.4757748694,
				"element": "H" 
			},
			{
				"x": -0.7153219363,
				"y": 2.1712478451,
				"z": -1.5142996569,
				"element": "H" 
			},
			{
				"x": 1.2881424881,
				"y": 4.9654361961,
				"z": 1.0604824548,
				"element": "H" 
			},
			{
				"x": 2.8792656086,
				"y": 4.0992444783,
				"z": 2.5959630498,
				"element": "H" 
			},
			{
				"x": 3.6816929366,
				"y": 2.7226331721,
				"z": 2.1450529591,
				"element": "H" 
			}
		],
		 "valence_orbital": [ 
			{
				"type": "occ",
				"energy": -0.29156,
				"method": "rhf"
			},
			{
				"type": "occ",
				"energy": -0.26414,
				"method": "rhf"
			},
			{
				"type": "occ",
				"energy": -0.25797,
				"method": "rhf"
			},
			{
				"type": "occ",
				"energy": -0.23418,
				"method": "rhf"
			},
			{
				"type": "occ",
				"energy": -0.19851,
				"method": "rhf"
			},
			{
				"type": "unocc",
				"energy": -0.00442,
				"method": "rhf"
			},
			{
				"type": "unocc",
				"energy": 0.00318,
				"method": "rhf"
			},
			{
				"type": "unocc",
				"energy": 0.05168,
				"method": "rhf"
			},
			{
				"type": "unocc",
				"energy": 0.06563,
				"method": "rhf"
			},
			{
				"type": "unocc",
				"energy": 0.06816,
				"method": "rhf"
			}
		],
		"cosmo_sigma_profile": { 
			"-0.025": 0.0,
			"-0.024": 0.0,
			"-0.023": 0.0,
			"-0.022": 0.0,
			"-0.021": 0.0,
			"-0.02": 0.0,
			"-0.019": 0.0,
			"-0.018": 0.0,
			"-0.017": 0.0,
			"-0.016": 0.0,
			"-0.015": 0.0,
			"-0.014": 0.570421430537,
			"-0.013": 1.26960309983,
			"-0.012": 2.78718081189,
			"-0.011": 4.51527550853,
			"-0.01": 4.35116748377,
			"-0.009": 4.97882728289,
			"-0.008": 6.57225670986,
			"-0.007": 6.29743115846,
			"-0.006": 7.23617348821,
			"-0.005": 11.0566211098,
			"-0.004": 20.503596196,
			"-0.003": 28.6037415338,
			"-0.002": 28.5027166552,
			"-0.001": 31.8570335776,
			"0.0": 35.5852254892,
			"0.001": 32.1073684544,
			"0.002": 21.5782675079,
			"0.003": 39.3808423239,
			"0.004": 30.6705144903,
			"0.005": 12.5667378385,
			"0.006": 6.2821093126,
			"0.007": 2.84544721267,
			"0.008": 2.95156731944,
			"0.009": 2.60036357512,
			"0.01": 2.32538848577,
			"0.011": 1.97154200846,
			"0.012": 1.96557100481,
			"0.013": 3.57049605091,
			"0.014": 3.18663531015,
			"0.015": 0.0985438154324,
			"0.016": 0.0,
			"0.017": 0.0,
			"0.018": 0.0,
			"0.019": 0.0,
			"0.02": 0.0,
			"0.021": 0.0,
			"0.022": 0.0,
			"0.023": 0.0,
			"0.024": 0.0,
			"0.025": 0.0
		}
	}
}
