{
	 "smiles": "CC1=CC(C)=C(C(F)=C1)[N+]([O-])=O", 
	 "Tm": 329.15, 
	 "num_atms": 20, 
	 "gaussian": { 
		 "optdone": 1, 
		 "sigma_profile": "yes", 
		 "theory": "DFT", 
		 "functional": "B3LYP", 
		 "basiset": "6-31G**", 
		 "properties": { 
			 "R2extent": 2377.0448, 
			 "electric_dipole_moment_norm": 5.37045239621, 
			 "electric_quadrupole_moment_norm": 12.8308791873, 
			 "total_energy": -614.608682317, 
			 "HOMO_LUMO_gap": 0.18084, 
			 "cosmo_polarized_energy": -8.65, 
			 "cosmo_cavitation_energy": 24.8, 
			 "cosmo_dispersion_energy": -17.88, 
			 "cosmo_repulsion_energy": 1.4, 
			 "cosmo_total_nonelectrostatic_energy": 8.32, 
			 "SMD_solvation_energy": 7.04 
		},
		"coords": [
			{
				"x": 0.7825113124,
				"y": -2.7086941658,
				"z": -0.2125063389,
				"element": "C" 
			},
			{
				"x": 0.5363740265,
				"y": -1.2381751217,
				"z": 0.0192563832,
				"element": "C" 
			},
			{
				"x": -0.5544549716,
				"y": -0.799305918,
				"z": 0.7783545857,
				"element": "C" 
			},
			{
				"x": -0.8010696571,
				"y": 0.5531048673,
				"z": 1.0426994128,
				"element": "C" 
			},
			{
				"x": -1.9943297734,
				"y": 0.9439779415,
				"z": 1.8808896288,
				"element": "C" 
			},
			{
				"x": 0.0868119751,
				"y": 1.4905090412,
				"z": 0.4851488233,
				"element": "C" 
			},
			{
				"x": 1.17659671,
				"y": 1.0628914797,
				"z": -0.2846612329,
				"element": "C" 
			},
			{
				"x": 2.0408273529,
				"y": 1.9542398505,
				"z": -0.7844275508,
				"element": "F" 
			},
			{
				"x": 1.411581392,
				"y": -0.2834167033,
				"z": -0.5103366157,
				"element": "C" 
			},
			{
				"x": -0.117661215,
				"y": 2.9283698032,
				"z": 0.6786055835,
				"element": "N" 
			},
			{
				"x": -0.4687493823,
				"y": 3.3068461709,
				"z": 1.7978133141,
				"element": "O" 
			},
			{
				"x": 0.065654497,
				"y": 3.6637752621,
				"z": -0.2877894802,
				"element": "O" 
			},
			{
				"x": 1.6357867481,
				"y": -3.0595655953,
				"z": 0.3800157908,
				"element": "H" 
			},
			{
				"x": 1.013271113,
				"y": -2.912244152,
				"z": -1.2630124828,
				"element": "H" 
			},
			{
				"x": -0.0865741134,
				"y": -3.3085019237,
				"z": 0.0687384964,
				"element": "H" 
			},
			{
				"x": -1.2436456708,
				"y": -1.5349247053,
				"z": 1.1832524543,
				"element": "H" 
			},
			{
				"x": -1.6806987583,
				"y": 1.2797044309,
				"z": 2.8728645391,
				"element": "H" 
			},
			{
				"x": -2.6639582675,
				"y": 0.088160531,
				"z": 1.9944665053,
				"element": "H" 
			},
			{
				"x": -2.5577826884,
				"y": 1.7690776934,
				"z": 1.4373150526,
				"element": "H" 
			},
			{
				"x": 2.2776093705,
				"y": -0.5658287866,
				"z": -1.0998868686,
				"element": "H" 
			}
		],
		 "valence_orbital": [ 
			{
				"type": "occ",
				"energy": -0.30653,
				"method": "rhf"
			},
			{
				"type": "occ",
				"energy": -0.30153,
				"method": "rhf"
			},
			{
				"type": "occ",
				"energy": -0.29742,
				"method": "rhf"
			},
			{
				"type": "occ",
				"energy": -0.26559,
				"method": "rhf"
			},
			{
				"type": "occ",
				"energy": -0.26111,
				"method": "rhf"
			},
			{
				"type": "unocc",
				"energy": -0.08027,
				"method": "rhf"
			},
			{
				"type": "unocc",
				"energy": -0.02285,
				"method": "rhf"
			},
			{
				"type": "unocc",
				"energy": -0.00936,
				"method": "rhf"
			},
			{
				"type": "unocc",
				"energy": 0.07203,
				"method": "rhf"
			},
			{
				"type": "unocc",
				"energy": 0.09947,
				"method": "rhf"
			}
		],
		"cosmo_sigma_profile": { 
			"-0.025": 0.0,
			"-0.024": 0.0,
			"-0.023": 0.0,
			"-0.022": 0.0,
			"-0.021": 0.0,
			"-0.02": 0.0,
			"-0.019": 0.0,
			"-0.018": 0.0,
			"-0.017": 0.0,
			"-0.016": 0.0,
			"-0.015": 0.0,
			"-0.014": 0.0,
			"-0.013": 0.0,
			"-0.012": 0.0,
			"-0.011": 0.0,
			"-0.01": 0.0,
			"-0.009": 0.0182535206235,
			"-0.008": 1.49403551758,
			"-0.007": 4.12179728105,
			"-0.006": 8.82354043818,
			"-0.005": 15.7036648205,
			"-0.004": 15.1518843009,
			"-0.003": 15.706589702,
			"-0.002": 16.5018908158,
			"-0.001": 25.1909402773,
			"0.0": 19.8044507212,
			"0.001": 13.3233361283,
			"0.002": 12.0052799101,
			"0.003": 10.9221797699,
			"0.004": 5.69635270343,
			"0.005": 3.74697512139,
			"0.006": 5.06378582932,
			"0.007": 7.82171408,
			"0.008": 9.16959268523,
			"0.009": 4.84019287808,
			"0.01": 2.27326086635,
			"0.011": 0.00118201389038,
			"0.012": 0.0,
			"0.013": 0.0,
			"0.014": 0.0,
			"0.015": 0.0,
			"0.016": 0.0,
			"0.017": 0.0,
			"0.018": 0.0,
			"0.019": 0.0,
			"0.02": 0.0,
			"0.021": 0.0,
			"0.022": 0.0,
			"0.023": 0.0,
			"0.024": 0.0,
			"0.025": 0.0
		}
	}
}
