{
	 "smiles": "NC(=O)C1=CC=C(OC2=CC=C(C=C2)C(O)=O)C=C1", 
	 "Tm": 563.15, 
	 "num_atms": 30, 
	 "gaussian": { 
		 "optdone": 1, 
		 "sigma_profile": "yes", 
		 "theory": "DFT", 
		 "functional": "B3LYP", 
		 "basiset": "6-31G**", 
		 "properties": { 
			 "R2extent": 8352.1159, 
			 "electric_dipole_moment_norm": 4.55255729673, 
			 "electric_quadrupole_moment_norm": 44.3897581088, 
			 "total_energy": -895.785497145, 
			 "HOMO_LUMO_gap": 0.18581, 
			 "cosmo_polarized_energy": -25.07, 
			 "cosmo_cavitation_energy": 35.94, 
			 "cosmo_dispersion_energy": -26.04, 
			 "cosmo_repulsion_energy": 2.0, 
			 "cosmo_total_nonelectrostatic_energy": 11.9, 
			 "SMD_solvation_energy": 8.24 
		},
		"coords": [
			{
				"x": 4.798779858,
				"y": 4.2251961744,
				"z": 1.5071785001,
				"element": "N" 
			},
			{
				"x": 4.7099254353,
				"y": 2.9267247999,
				"z": 1.0617983209,
				"element": "C" 
			},
			{
				"x": 5.6398984451,
				"y": 2.1387619949,
				"z": 1.1833752158,
				"element": "O" 
			},
			{
				"x": 3.4230534884,
				"y": 2.5362452563,
				"z": 0.3940890394,
				"element": "C" 
			},
			{
				"x": 2.4882387113,
				"y": 3.459118021,
				"z": -0.0955949071,
				"element": "C" 
			},
			{
				"x": 1.3146801502,
				"y": 3.0251174239,
				"z": -0.7076651898,
				"element": "C" 
			},
			{
				"x": 1.0740942088,
				"y": 1.6565516481,
				"z": -0.8387203961,
				"element": "C" 
			},
			{
				"x": -0.0666392204,
				"y": 1.289805117,
				"z": -1.5272010298,
				"element": "O" 
			},
			{
				"x": -0.8620029462,
				"y": 0.2543486988,
				"z": -1.100012632,
				"element": "C" 
			},
			{
				"x": -1.0121685492,
				"y": -0.0978748508,
				"z": 0.2475088753,
				"element": "C" 
			},
			{
				"x": -1.8943897341,
				"y": -1.1158498478,
				"z": 0.5896904796,
				"element": "C" 
			},
			{
				"x": -2.625585495,
				"y": -1.801003289,
				"z": -0.3911217883,
				"element": "C" 
			},
			{
				"x": -2.4788055795,
				"y": -1.4179008165,
				"z": -1.733111285,
				"element": "C" 
			},
			{
				"x": -1.6025749941,
				"y": -0.3988444384,
				"z": -2.0903496423,
				"element": "C" 
			},
			{
				"x": -3.5583065154,
				"y": -2.8786219966,
				"z": 0.0641013404,
				"element": "C" 
			},
			{
				"x": -3.9740999611,
				"y": -3.7711213268,
				"z": -0.8763380966,
				"element": "O" 
			},
			{
				"x": -3.9455856293,
				"y": -2.9840063948,
				"z": 1.2046488769,
				"element": "O" 
			},
			{
				"x": 2.0056797521,
				"y": 0.7193549736,
				"z": -0.3787097251,
				"element": "C" 
			},
			{
				"x": 3.172170043,
				"y": 1.1667196472,
				"z": 0.2317043498,
				"element": "C" 
			},
			{
				"x": 5.6205151249,
				"y": 4.433484457,
				"z": 2.0563465343,
				"element": "H" 
			},
			{
				"x": 3.9652162906,
				"y": 4.7491707914,
				"z": 1.7232983139,
				"element": "H" 
			},
			{
				"x": 2.680801812,
				"y": 4.5257892673,
				"z": -0.0311096319,
				"element": "H" 
			},
			{
				"x": 0.5865120638,
				"y": 3.7277484536,
				"z": -1.0983465129,
				"element": "H" 
			},
			{
				"x": -0.4518655548,
				"y": 0.4251748903,
				"z": 1.0139679152,
				"element": "H" 
			},
			{
				"x": -2.0390297705,
				"y": -1.3959734744,
				"z": 1.6275183337,
				"element": "H" 
			},
			{
				"x": -3.0716211033,
				"y": -1.885341057,
				"z": -2.515716642,
				"element": "H" 
			},
			{
				"x": -1.4864233666,
				"y": -0.0879500624,
				"z": -3.1228383974,
				"element": "H" 
			},
			{
				"x": -3.4559843023,
				"y": -3.6703945921,
				"z": -1.6864054669,
				"element": "H" 
			},
			{
				"x": 1.8195684075,
				"y": -0.3414417018,
				"z": -0.5073447835,
				"element": "H" 
			},
			{
				"x": 3.9195489308,
				"y": 0.4648122335,
				"z": 0.5855600315,
				"element": "H" 
			}
		],
		 "valence_orbital": [ 
			{
				"type": "occ",
				"energy": -0.27718,
				"method": "rhf"
			},
			{
				"type": "occ",
				"energy": -0.27221,
				"method": "rhf"
			},
			{
				"type": "occ",
				"energy": -0.2674,
				"method": "rhf"
			},
			{
				"type": "occ",
				"energy": -0.25553,
				"method": "rhf"
			},
			{
				"type": "occ",
				"energy": -0.23998,
				"method": "rhf"
			},
			{
				"type": "unocc",
				"energy": -0.05417,
				"method": "rhf"
			},
			{
				"type": "unocc",
				"energy": -0.04004,
				"method": "rhf"
			},
			{
				"type": "unocc",
				"energy": -0.03212,
				"method": "rhf"
			},
			{
				"type": "unocc",
				"energy": -0.01987,
				"method": "rhf"
			},
			{
				"type": "unocc",
				"energy": 0.0435,
				"method": "rhf"
			}
		],
		"cosmo_sigma_profile": { 
			"-0.025": 0.0,
			"-0.024": 0.0,
			"-0.023": 0.0,
			"-0.022": 0.0,
			"-0.021": 0.0,
			"-0.02": 0.0,
			"-0.019": 0.199794115143,
			"-0.018": 0.911468243723,
			"-0.017": 0.960084191676,
			"-0.016": 1.10154584126,
			"-0.015": 1.48995216957,
			"-0.014": 2.1160114419,
			"-0.013": 3.18698411364,
			"-0.012": 3.83846875787,
			"-0.011": 3.74111220967,
			"-0.01": 3.66006589177,
			"-0.009": 3.76784656476,
			"-0.008": 5.03553554011,
			"-0.007": 11.4872320514,
			"-0.006": 14.3430603771,
			"-0.005": 15.7166700017,
			"-0.004": 14.1906777935,
			"-0.003": 13.7644974582,
			"-0.002": 15.1618579224,
			"-0.001": 14.6523348721,
			"0.0": 20.7407212862,
			"0.001": 21.6493012798,
			"0.002": 27.2325039638,
			"0.003": 23.2709987813,
			"0.004": 8.18423788998,
			"0.005": 5.81047603217,
			"0.006": 5.66003603942,
			"0.007": 5.87297913669,
			"0.008": 5.77733371763,
			"0.009": 4.36040784055,
			"0.01": 5.71950102461,
			"0.011": 6.57368061163,
			"0.012": 7.33269123665,
			"0.013": 6.27451038795,
			"0.014": 4.14681478253,
			"0.015": 0.228936531768,
			"0.016": 0.0,
			"0.017": 0.0,
			"0.018": 0.0,
			"0.019": 0.0,
			"0.02": 0.0,
			"0.021": 0.0,
			"0.022": 0.0,
			"0.023": 0.0,
			"0.024": 0.0,
			"0.025": 0.0
		}
	}
}
