{
	 "smiles": "OC1=C(F)C=C(F)C=C1F", 
	 "Tm": 322.65, 
	 "num_atms": 13, 
	 "gaussian": { 
		 "optdone": 1, 
		 "sigma_profile": "yes", 
		 "theory": "DFT", 
		 "functional": "B3LYP", 
		 "basiset": "6-31G**", 
		 "properties": { 
			 "R2extent": 1481.2535, 
			 "electric_dipole_moment_norm": 1.34205556889, 
			 "electric_quadrupole_moment_norm": 6.0641009581, 
			 "total_energy": -605.155122323, 
			 "HOMO_LUMO_gap": 0.21584, 
			 "cosmo_polarized_energy": -6.13, 
			 "cosmo_cavitation_energy": 19.17, 
			 "cosmo_dispersion_energy": -14.02, 
			 "cosmo_repulsion_energy": 1.07, 
			 "cosmo_total_nonelectrostatic_energy": 6.23, 
			 "SMD_solvation_energy": 5.24 
		},
		"coords": [
			{
				"x": 0.919743595,
				"y": 1.2530729022,
				"z": 1.7601878045,
				"element": "O" 
			},
			{
				"x": 0.7175737134,
				"y": 0.6216524098,
				"z": 0.5740246742,
				"element": "C" 
			},
			{
				"x": 0.4115014012,
				"y": 1.3059302729,
				"z": -0.6037900447,
				"element": "C" 
			},
			{
				"x": 0.3241017392,
				"y": 2.6568150198,
				"z": -0.5047290885,
				"element": "F" 
			},
			{
				"x": 0.2019413803,
				"y": 0.6787854313,
				"z": -1.823201808,
				"element": "C" 
			},
			{
				"x": 0.3080675104,
				"y": -0.7076116594,
				"z": -1.847915716,
				"element": "C" 
			},
			{
				"x": 0.1115155547,
				"y": -1.3539641071,
				"z": -3.0136117242,
				"element": "F" 
			},
			{
				"x": 0.6100909415,
				"y": -1.4498727088,
				"z": -0.7109788223,
				"element": "C" 
			},
			{
				"x": 0.8105882017,
				"y": -0.771130163,
				"z": 0.4853746035,
				"element": "C" 
			},
			{
				"x": 1.1034383884,
				"y": -1.4603926203,
				"z": 1.5991380442,
				"element": "F" 
			},
			{
				"x": 0.8110003766,
				"y": 2.2028987464,
				"z": 1.6071738554,
				"element": "H" 
			},
			{
				"x": -0.0335602528,
				"y": 1.2477723226,
				"z": -2.7136098126,
				"element": "H" 
			},
			{
				"x": 0.6887974503,
				"y": -2.5291558464,
				"z": -0.7487619652,
				"element": "H" 
			}
		],
		 "valence_orbital": [ 
			{
				"type": "occ",
				"energy": -0.38138,
				"method": "rhf"
			},
			{
				"type": "occ",
				"energy": -0.37451,
				"method": "rhf"
			},
			{
				"type": "occ",
				"energy": -0.33849,
				"method": "rhf"
			},
			{
				"type": "occ",
				"energy": -0.26331,
				"method": "rhf"
			},
			{
				"type": "occ",
				"energy": -0.23177,
				"method": "rhf"
			},
			{
				"type": "unocc",
				"energy": -0.01593,
				"method": "rhf"
			},
			{
				"type": "unocc",
				"energy": -0.00064,
				"method": "rhf"
			},
			{
				"type": "unocc",
				"energy": 0.04124,
				"method": "rhf"
			},
			{
				"type": "unocc",
				"energy": 0.09037,
				"method": "rhf"
			},
			{
				"type": "unocc",
				"energy": 0.13253,
				"method": "rhf"
			}
		],
		"cosmo_sigma_profile": { 
			"-0.025": 0.0,
			"-0.024": 0.0,
			"-0.023": 0.0,
			"-0.022": 0.0,
			"-0.021": 0.0,
			"-0.02": 0.0,
			"-0.019": 0.0,
			"-0.018": 0.0272230780418,
			"-0.017": 0.559100543582,
			"-0.016": 0.504000737204,
			"-0.015": 0.826559274927,
			"-0.014": 0.814808861573,
			"-0.013": 0.782724011192,
			"-0.012": 0.615678801253,
			"-0.011": 0.975260874037,
			"-0.01": 1.18395043007,
			"-0.009": 3.24648356913,
			"-0.008": 3.26784776578,
			"-0.007": 3.73669972029,
			"-0.006": 4.96485322366,
			"-0.005": 2.88988458155,
			"-0.004": 5.20226770302,
			"-0.003": 4.71688169757,
			"-0.002": 5.31541594034,
			"-0.001": 13.3223211815,
			"0.0": 23.0878688256,
			"0.001": 17.8922915086,
			"0.002": 11.6045734009,
			"0.003": 17.3361995465,
			"0.004": 19.244847591,
			"0.005": 3.23805404508,
			"0.006": 1.79140383837,
			"0.007": 1.61972966948,
			"0.008": 1.97666741823,
			"0.009": 2.04904911462,
			"0.01": 1.89811147643,
			"0.011": 0.18655683759,
			"0.012": 0.0,
			"0.013": 0.0,
			"0.014": 0.0,
			"0.015": 0.0,
			"0.016": 0.0,
			"0.017": 0.0,
			"0.018": 0.0,
			"0.019": 0.0,
			"0.02": 0.0,
			"0.021": 0.0,
			"0.022": 0.0,
			"0.023": 0.0,
			"0.024": 0.0,
			"0.025": 0.0
		}
	}
}
