{
	 "smiles": "N#CCCC1=CC=CC(OCC2=CC=CC=C2)=C1OCC1=CC=CC=C1", 
	 "Tm": 473.15, 
	 "num_atms": 47, 
	 "gaussian": { 
		 "optdone": 1, 
		 "sigma_profile": "yes", 
		 "theory": "DFT", 
		 "functional": "B3LYP", 
		 "basiset": "6-31G**", 
		 "properties": { 
			 "R2extent": 8570.1969, 
			 "electric_dipole_moment_norm": 3.1101605264, 
			 "electric_quadrupole_moment_norm": 25.2540861943, 
			 "total_energy": -1094.26974438, 
			 "HOMO_LUMO_gap": 0.21107, 
			 "cosmo_polarized_energy": -15.44, 
			 "cosmo_cavitation_energy": 51.46, 
			 "cosmo_dispersion_energy": -31.06, 
			 "cosmo_repulsion_energy": 2.34, 
			 "cosmo_total_nonelectrostatic_energy": 22.74, 
			 "SMD_solvation_energy": 9.44 
		},
		"coords": [
			{
				"x": -0.8353077889,
				"y": -4.5957956029,
				"z": -1.0552285891,
				"element": "N" 
			},
			{
				"x": -0.5092952801,
				"y": -3.6031155737,
				"z": -1.5619607257,
				"element": "C" 
			},
			{
				"x": -0.0935304129,
				"y": -2.3470373294,
				"z": -2.1916138492,
				"element": "C" 
			},
			{
				"x": -1.2739055623,
				"y": -1.3910215778,
				"z": -2.5078502752,
				"element": "C" 
			},
			{
				"x": -2.0793364737,
				"y": -1.0002601001,
				"z": -1.2889169476,
				"element": "C" 
			},
			{
				"x": -3.3895875945,
				"y": -1.455381498,
				"z": -1.1101752592,
				"element": "C" 
			},
			{
				"x": -4.1175203539,
				"y": -1.1179185184,
				"z": 0.0313303938,
				"element": "C" 
			},
			{
				"x": -3.5237898879,
				"y": -0.3491768533,
				"z": 1.029898014,
				"element": "C" 
			},
			{
				"x": -2.2032928526,
				"y": 0.0876850937,
				"z": 0.8885190485,
				"element": "C" 
			},
			{
				"x": -1.5936430511,
				"y": 0.8185729034,
				"z": 1.887629442,
				"element": "O" 
			},
			{
				"x": -1.263937279,
				"y": 0.0689598698,
				"z": 3.0854636384,
				"element": "C" 
			},
			{
				"x": -0.1056811608,
				"y": -0.880510751,
				"z": 2.8939557689,
				"element": "C" 
			},
			{
				"x": -0.3150626184,
				"y": -2.1726349771,
				"z": 2.3915767626,
				"element": "C" 
			},
			{
				"x": 0.7605266243,
				"y": -3.0337131678,
				"z": 2.169348839,
				"element": "C" 
			},
			{
				"x": 2.0599369231,
				"y": -2.616604429,
				"z": 2.4666570303,
				"element": "C" 
			},
			{
				"x": 2.2793560016,
				"y": -1.3369683246,
				"z": 2.9829361998,
				"element": "C" 
			},
			{
				"x": 1.2020116133,
				"y": -0.4735078408,
				"z": 3.1887016686,
				"element": "C" 
			},
			{
				"x": -1.4912664905,
				"y": -0.2056455233,
				"z": -0.287061381,
				"element": "C" 
			},
			{
				"x": -0.1898500889,
				"y": 0.1951341356,
				"z": -0.4779520399,
				"element": "O" 
			},
			{
				"x": 0.0643904296,
				"y": 1.6162554723,
				"z": -0.4694845534,
				"element": "C" 
			},
			{
				"x": 1.5025362454,
				"y": 1.8485152354,
				"z": -0.8589522439,
				"element": "C" 
			},
			{
				"x": 2.5291235179,
				"y": 1.0922204012,
				"z": -0.2762189623,
				"element": "C" 
			},
			{
				"x": 3.8600069043,
				"y": 1.3320260822,
				"z": -0.6166721663,
				"element": "C" 
			},
			{
				"x": 4.1841315028,
				"y": 2.3352112428,
				"z": -1.5340159209,
				"element": "C" 
			},
			{
				"x": 3.1675841201,
				"y": 3.0935709402,
				"z": -2.1151826112,
				"element": "C" 
			},
			{
				"x": 1.8339506281,
				"y": 2.8451900953,
				"z": -1.7830432897,
				"element": "C" 
			},
			{
				"x": 0.6062844662,
				"y": -1.8406225094,
				"z": -1.5201548251,
				"element": "H" 
			},
			{
				"x": 0.4484599341,
				"y": -2.5861976801,
				"z": -3.1139412809,
				"element": "H" 
			},
			{
				"x": -0.8361374844,
				"y": -0.502663681,
				"z": -2.9748065694,
				"element": "H" 
			},
			{
				"x": -1.9324019914,
				"y": -1.8601351684,
				"z": -3.2450571554,
				"element": "H" 
			},
			{
				"x": -3.842976121,
				"y": -2.0751459623,
				"z": -1.8785629817,
				"element": "H" 
			},
			{
				"x": -5.1409401133,
				"y": -1.4611996579,
				"z": 0.1467559964,
				"element": "H" 
			},
			{
				"x": -4.0686587215,
				"y": -0.0836460873,
				"z": 1.9308792305,
				"element": "H" 
			},
			{
				"x": -2.1551403648,
				"y": -0.4709148927,
				"z": 3.4271363361,
				"element": "H" 
			},
			{
				"x": -1.0211727942,
				"y": 0.8361367344,
				"z": 3.8246708709,
				"element": "H" 
			},
			{
				"x": -1.3238703123,
				"y": -2.5063541331,
				"z": 2.1660100607,
				"element": "H" 
			},
			{
				"x": 0.5797317158,
				"y": -4.0235595022,
				"z": 1.7612474247,
				"element": "H" 
			},
			{
				"x": 2.8977853707,
				"y": -3.2885228068,
				"z": 2.3030810781,
				"element": "H" 
			},
			{
				"x": 3.2871333413,
				"y": -1.0127579038,
				"z": 3.2274581956,
				"element": "H" 
			},
			{
				"x": 1.3757971077,
				"y": 0.524064409,
				"z": 3.5852746682,
				"element": "H" 
			},
			{
				"x": -0.6111031759,
				"y": 2.1130156087,
				"z": -1.1783677832,
				"element": "H" 
			},
			{
				"x": -0.1458411284,
				"y": 2.0080255057,
				"z": 0.5309167358,
				"element": "H" 
			},
			{
				"x": 2.2779209962,
				"y": 0.3132561901,
				"z": 0.4369811831,
				"element": "H" 
			},
			{
				"x": 4.6474129843,
				"y": 0.7366146752,
				"z": -0.1626058568,
				"element": "H" 
			},
			{
				"x": 5.221930273,
				"y": 2.5217140339,
				"z": -1.7953875195,
				"element": "H" 
			},
			{
				"x": 3.409401418,
				"y": 3.8717034225,
				"z": -2.8337067706,
				"element": "H" 
			},
			{
				"x": 1.044236985,
				"y": 3.4313400005,
				"z": -2.2472090287,
				"element": "H" 
			}
		],
		 "valence_orbital": [ 
			{
				"type": "occ",
				"energy": -0.25009,
				"method": "rhf"
			},
			{
				"type": "occ",
				"energy": -0.24961,
				"method": "rhf"
			},
			{
				"type": "occ",
				"energy": -0.24425,
				"method": "rhf"
			},
			{
				"type": "occ",
				"energy": -0.24058,
				"method": "rhf"
			},
			{
				"type": "occ",
				"energy": -0.22616,
				"method": "rhf"
			},
			{
				"type": "unocc",
				"energy": -0.01509,
				"method": "rhf"
			},
			{
				"type": "unocc",
				"energy": -0.00933,
				"method": "rhf"
			},
			{
				"type": "unocc",
				"energy": -0.00585,
				"method": "rhf"
			},
			{
				"type": "unocc",
				"energy": -0.0013,
				"method": "rhf"
			},
			{
				"type": "unocc",
				"energy": 0.00126,
				"method": "rhf"
			}
		],
		"cosmo_sigma_profile": { 
			"-0.025": 0.0,
			"-0.024": 0.0,
			"-0.023": 0.0,
			"-0.022": 0.0,
			"-0.021": 0.0,
			"-0.02": 0.0,
			"-0.019": 0.0,
			"-0.018": 0.0,
			"-0.017": 0.0,
			"-0.016": 0.0,
			"-0.015": 0.0,
			"-0.014": 0.0,
			"-0.013": 0.0,
			"-0.012": 0.0,
			"-0.011": 0.0,
			"-0.01": 0.0,
			"-0.009": 0.0,
			"-0.008": 1.89314333377,
			"-0.007": 3.50749266795,
			"-0.006": 23.1100998021,
			"-0.005": 40.7663124061,
			"-0.004": 41.1083777374,
			"-0.003": 38.8117858344,
			"-0.002": 28.8511791923,
			"-0.001": 25.4668709245,
			"0.0": 25.7936187592,
			"0.001": 29.5073131134,
			"0.002": 29.9920785327,
			"0.003": 27.0431891371,
			"0.004": 28.3055414705,
			"0.005": 26.873877155,
			"0.006": 15.1536125815,
			"0.007": 4.94426738889,
			"0.008": 4.28800587295,
			"0.009": 3.68304098852,
			"0.01": 3.59686252035,
			"0.011": 3.01746351205,
			"0.012": 2.35866178647,
			"0.013": 2.1094179319,
			"0.014": 0.644726983747,
			"0.015": 0.0,
			"0.016": 0.0,
			"0.017": 0.0,
			"0.018": 0.0,
			"0.019": 0.0,
			"0.02": 0.0,
			"0.021": 0.0,
			"0.022": 0.0,
			"0.023": 0.0,
			"0.024": 0.0,
			"0.025": 0.0
		}
	}
}
