{
	 "smiles": "CC1=CC(N)=CC=C1[N+]([O-])=O", 
	 "Tm": 408.15, 
	 "num_atms": 19, 
	 "gaussian": { 
		 "optdone": 1, 
		 "sigma_profile": "yes", 
		 "theory": "DFT", 
		 "functional": "B3LYP", 
		 "basiset": "6-31G**", 
		 "properties": { 
			 "R2extent": 2077.1949, 
			 "electric_dipole_moment_norm": 6.85323661783, 
			 "electric_quadrupole_moment_norm": 11.891208167, 
			 "total_energy": -531.428632385, 
			 "HOMO_LUMO_gap": 0.15866, 
			 "cosmo_polarized_energy": -14.72, 
			 "cosmo_cavitation_energy": 23.12, 
			 "cosmo_dispersion_energy": -17.32, 
			 "cosmo_repulsion_energy": 1.39, 
			 "cosmo_total_nonelectrostatic_energy": 7.18, 
			 "SMD_solvation_energy": 6.09 
		},
		"coords": [
			{
				"x": 0.9608725256,
				"y": 1.0621813083,
				"z": 1.8685529424,
				"element": "C" 
			},
			{
				"x": 0.387591272,
				"y": 0.7635503889,
				"z": 0.5042915556,
				"element": "C" 
			},
			{
				"x": -0.9705254406,
				"y": 0.4568208809,
				"z": 0.4160863057,
				"element": "C" 
			},
			{
				"x": -1.6133907868,
				"y": 0.1627236852,
				"z": -0.8007655161,
				"element": "C" 
			},
			{
				"x": -2.9486530359,
				"y": -0.1785832612,
				"z": -0.8249869056,
				"element": "N" 
			},
			{
				"x": -0.8509543685,
				"y": 0.1794562119,
				"z": -1.9856785857,
				"element": "C" 
			},
			{
				"x": 0.4957555371,
				"y": 0.4806769124,
				"z": -1.9284239431,
				"element": "C" 
			},
			{
				"x": 1.1188419062,
				"y": 0.7708308235,
				"z": -0.7072792187,
				"element": "C" 
			},
			{
				"x": 2.5436292949,
				"y": 1.0783260315,
				"z": -0.7628348982,
				"element": "N" 
			},
			{
				"x": 3.0962438677,
				"y": 1.0646508239,
				"z": -1.8675999955,
				"element": "O" 
			},
			{
				"x": 3.1371541962,
				"y": 1.3383079298,
				"z": 0.2892229656,
				"element": "O" 
			},
			{
				"x": 1.3986527038,
				"y": 2.0623857918,
				"z": 1.9090724292,
				"element": "H" 
			},
			{
				"x": 1.7677508876,
				"y": 0.3710023177,
				"z": 2.1230734243,
				"element": "H" 
			},
			{
				"x": 0.1746540085,
				"y": 0.9859976356,
				"z": 2.6245584437,
				"element": "H" 
			},
			{
				"x": -1.5564790163,
				"y": 0.4411108287,
				"z": 1.3316041364,
				"element": "H" 
			},
			{
				"x": -3.4303510763,
				"y": -0.1178506722,
				"z": -1.7091447195,
				"element": "H" 
			},
			{
				"x": -3.5112153457,
				"y": 0.0725403081,
				"z": -0.0262687469,
				"element": "H" 
			},
			{
				"x": -1.3201868056,
				"y": -0.0470234654,
				"z": -2.9388221647,
				"element": "H" 
			},
			{
				"x": 1.1003096761,
				"y": 0.5015955206,
				"z": -2.8259575089,
				"element": "H" 
			}
		],
		 "valence_orbital": [ 
			{
				"type": "occ",
				"energy": -0.28935,
				"method": "rhf"
			},
			{
				"type": "occ",
				"energy": -0.28859,
				"method": "rhf"
			},
			{
				"type": "occ",
				"energy": -0.26863,
				"method": "rhf"
			},
			{
				"type": "occ",
				"energy": -0.26236,
				"method": "rhf"
			},
			{
				"type": "occ",
				"energy": -0.22661,
				"method": "rhf"
			},
			{
				"type": "unocc",
				"energy": -0.06795,
				"method": "rhf"
			},
			{
				"type": "unocc",
				"energy": -0.01432,
				"method": "rhf"
			},
			{
				"type": "unocc",
				"energy": 0.02028,
				"method": "rhf"
			},
			{
				"type": "unocc",
				"energy": 0.06126,
				"method": "rhf"
			},
			{
				"type": "unocc",
				"energy": 0.09747,
				"method": "rhf"
			}
		],
		"cosmo_sigma_profile": { 
			"-0.025": 0.0,
			"-0.024": 0.0,
			"-0.023": 0.0,
			"-0.022": 0.0,
			"-0.021": 0.0,
			"-0.02": 0.0,
			"-0.019": 0.0,
			"-0.018": 0.0,
			"-0.017": 0.0,
			"-0.016": 0.0,
			"-0.015": 0.0,
			"-0.014": 1.20886408085,
			"-0.013": 3.43950039262,
			"-0.012": 3.12135478968,
			"-0.011": 2.71719544816,
			"-0.01": 3.30981696069,
			"-0.009": 3.54721714249,
			"-0.008": 2.71683471477,
			"-0.007": 4.37746270395,
			"-0.006": 5.67611486659,
			"-0.005": 7.13272790513,
			"-0.004": 9.84426154902,
			"-0.003": 10.5626513053,
			"-0.002": 12.5376851486,
			"-0.001": 13.5421515398,
			"0.0": 15.3034683392,
			"0.001": 12.49635735,
			"0.002": 11.4527936929,
			"0.003": 16.0838791753,
			"0.004": 7.95354712981,
			"0.005": 3.01137070061,
			"0.006": 4.46471823654,
			"0.007": 3.97780637114,
			"0.008": 5.49182559707,
			"0.009": 8.3459189521,
			"0.01": 5.22338235041,
			"0.011": 4.56535616935,
			"0.012": 1.38249640886,
			"0.013": 0.0,
			"0.014": 0.0,
			"0.015": 0.0,
			"0.016": 0.0,
			"0.017": 0.0,
			"0.018": 0.0,
			"0.019": 0.0,
			"0.02": 0.0,
			"0.021": 0.0,
			"0.022": 0.0,
			"0.023": 0.0,
			"0.024": 0.0,
			"0.025": 0.0
		}
	}
}
