{
	 "smiles": "FC(F)(F)C1=CC=CC(CSC2=NN=C(S)S2)=C1", 
	 "Tm": 414.15, 
	 "num_atms": 25, 
	 "gaussian": { 
		 "optdone": 1, 
		 "sigma_profile": "yes", 
		 "theory": "DFT", 
		 "functional": "B3LYP", 
		 "basiset": "6-31G**", 
		 "properties": { 
			 "R2extent": 7293.3719, 
			 "electric_dipole_moment_norm": 2.78044273453, 
			 "electric_quadrupole_moment_norm": 13.6550218868, 
			 "total_energy": -1988.83429702, 
			 "HOMO_LUMO_gap": 0.18785, 
			 "cosmo_polarized_energy": -10.47, 
			 "cosmo_cavitation_energy": 36.73, 
			 "cosmo_dispersion_energy": -26.53, 
			 "cosmo_repulsion_energy": 1.88, 
			 "cosmo_total_nonelectrostatic_energy": 12.08, 
			 "SMD_solvation_energy": 4.69 
		},
		"coords": [
			{
				"x": -2.1328852449,
				"y": 2.8222733873,
				"z": 1.1038062371,
				"element": "F" 
			},
			{
				"x": -1.5555035557,
				"y": 3.1642185681,
				"z": -0.0714983058,
				"element": "C" 
			},
			{
				"x": -1.6459537395,
				"y": 4.5100823624,
				"z": -0.1738641102,
				"element": "F" 
			},
			{
				"x": -2.3139738719,
				"y": 2.6302734253,
				"z": -1.0524629111,
				"element": "F" 
			},
			{
				"x": -0.1269179204,
				"y": 2.6934719875,
				"z": -0.1443306734,
				"element": "C" 
			},
			{
				"x": 0.8991975667,
				"y": 3.5170358374,
				"z": 0.3247915573,
				"element": "C" 
			},
			{
				"x": 2.2145632157,
				"y": 3.0550003295,
				"z": 0.2993099311,
				"element": "C" 
			},
			{
				"x": 2.4987335389,
				"y": 1.781266689,
				"z": -0.1903688714,
				"element": "C" 
			},
			{
				"x": 1.4737726729,
				"y": 0.9495081939,
				"z": -0.662050634,
				"element": "C" 
			},
			{
				"x": 1.7919370832,
				"y": -0.4182276764,
				"z": -1.2073648722,
				"element": "C" 
			},
			{
				"x": 1.9340641648,
				"y": -1.7529922925,
				"z": 0.0805640264,
				"element": "S" 
			},
			{
				"x": 0.2447920076,
				"y": -2.2101137408,
				"z": 0.2610880975,
				"element": "C" 
			},
			{
				"x": -0.7458138123,
				"y": -1.7747528088,
				"z": -0.462944186,
				"element": "N" 
			},
			{
				"x": -1.9566207408,
				"y": -2.3219389824,
				"z": -0.1172054775,
				"element": "N" 
			},
			{
				"x": -1.8655466783,
				"y": -3.1674412684,
				"z": 0.8658927032,
				"element": "C" 
			},
			{
				"x": -3.2299777732,
				"y": -4.0528998621,
				"z": 1.5506901396,
				"element": "S" 
			},
			{
				"x": -0.2333356156,
				"y": -3.3798692488,
				"z": 1.4944511934,
				"element": "S" 
			},
			{
				"x": 0.1544633193,
				"y": 1.4167058503,
				"z": -0.6353127044,
				"element": "C" 
			},
			{
				"x": 0.6695768019,
				"y": 4.5106452256,
				"z": 0.6937532305,
				"element": "H" 
			},
			{
				"x": 3.0190851483,
				"y": 3.6917318503,
				"z": 0.6543298233,
				"element": "H" 
			},
			{
				"x": 3.5273869993,
				"y": 1.4296897504,
				"z": -0.2114060156,
				"element": "H" 
			},
			{
				"x": 2.7756134412,
				"y": -0.436709386,
				"z": -1.6835471389,
				"element": "H" 
			},
			{
				"x": 1.0468088133,
				"y": -0.7589213161,
				"z": -1.926880256,
				"element": "H" 
			},
			{
				"x": -4.1171207358,
				"y": -3.4836769111,
				"z": 0.7099496672,
				"element": "H" 
			},
			{
				"x": -0.6466450849,
				"y": 0.7797400363,
				"z": -0.99329045,
				"element": "H" 
			}
		],
		 "valence_orbital": [ 
			{
				"type": "occ",
				"energy": -0.28435,
				"method": "rhf"
			},
			{
				"type": "occ",
				"energy": -0.27666,
				"method": "rhf"
			},
			{
				"type": "occ",
				"energy": -0.2698,
				"method": "rhf"
			},
			{
				"type": "occ",
				"energy": -0.26128,
				"method": "rhf"
			},
			{
				"type": "occ",
				"energy": -0.23314,
				"method": "rhf"
			},
			{
				"type": "unocc",
				"energy": -0.04529,
				"method": "rhf"
			},
			{
				"type": "unocc",
				"energy": -0.0382,
				"method": "rhf"
			},
			{
				"type": "unocc",
				"energy": -0.0249,
				"method": "rhf"
			},
			{
				"type": "unocc",
				"energy": -0.02419,
				"method": "rhf"
			},
			{
				"type": "unocc",
				"energy": 0.00575,
				"method": "rhf"
			}
		],
		"cosmo_sigma_profile": { 
			"-0.025": 0.0,
			"-0.024": 0.0,
			"-0.023": 0.0,
			"-0.022": 0.0,
			"-0.021": 0.0,
			"-0.02": 0.0,
			"-0.019": 0.0,
			"-0.018": 0.0,
			"-0.017": 0.0,
			"-0.016": 0.0,
			"-0.015": 0.0,
			"-0.014": 0.0,
			"-0.013": 0.398050096592,
			"-0.012": 1.65099781091,
			"-0.011": 1.64198747719,
			"-0.01": 1.07327601129,
			"-0.009": 2.1468743468,
			"-0.008": 4.67412628623,
			"-0.007": 8.97759364906,
			"-0.006": 12.8879380456,
			"-0.005": 13.9606071155,
			"-0.004": 14.9750009958,
			"-0.003": 16.276524193,
			"-0.002": 21.476629606,
			"-0.001": 23.8791613596,
			"0.0": 25.5230774526,
			"0.001": 29.6528835219,
			"0.002": 34.9704446095,
			"0.003": 48.145083003,
			"0.004": 16.2955825608,
			"0.005": 6.90318673801,
			"0.006": 5.10468563558,
			"0.007": 2.0516781545,
			"0.008": 2.02058798359,
			"0.009": 2.19963517097,
			"0.01": 2.08413863338,
			"0.011": 1.47260704909,
			"0.012": 0.904846483679,
			"0.013": 1.06416712924,
			"0.014": 0.165553516334,
			"0.015": 0.0,
			"0.016": 0.0,
			"0.017": 0.0,
			"0.018": 0.0,
			"0.019": 0.0,
			"0.02": 0.0,
			"0.021": 0.0,
			"0.022": 0.0,
			"0.023": 0.0,
			"0.024": 0.0,
			"0.025": 0.0
		}
	}
}
