{
	 "smiles": "OC(=O)C1=CC=C(C=C1)C1SCCS1", 
	 "Tm": 440.15, 
	 "num_atms": 24, 
	 "gaussian": { 
		 "optdone": 1, 
		 "sigma_profile": "yes", 
		 "theory": "DFT", 
		 "functional": "B3LYP", 
		 "basiset": "6-31G**", 
		 "properties": { 
			 "R2extent": 4983.0316, 
			 "electric_dipole_moment_norm": 5.78357788311, 
			 "electric_quadrupole_moment_norm": 26.3321401362, 
			 "total_energy": -1333.92097175, 
			 "HOMO_LUMO_gap": 0.17622, 
			 "cosmo_polarized_energy": -17.9, 
			 "cosmo_cavitation_energy": 30.62, 
			 "cosmo_dispersion_energy": -23.26, 
			 "cosmo_repulsion_energy": 1.74, 
			 "cosmo_total_nonelectrostatic_energy": 9.09, 
			 "SMD_solvation_energy": 5.01 
		},
		"coords": [
			{
				"x": 0.2006155824,
				"y": -3.3595776077,
				"z": 3.2213233531,
				"element": "O" 
			},
			{
				"x": 0.4563133423,
				"y": -2.0338866978,
				"z": 3.3917802742,
				"element": "C" 
			},
			{
				"x": 0.7955323224,
				"y": -1.6193453076,
				"z": 4.4750007471,
				"element": "O" 
			},
			{
				"x": 0.2957864022,
				"y": -1.1555290799,
				"z": 2.1875461077,
				"element": "C" 
			},
			{
				"x": -0.4881216776,
				"y": -1.5070460341,
				"z": 1.0824397045,
				"element": "C" 
			},
			{
				"x": -0.6080232989,
				"y": -0.6359500773,
				"z": -0.0005173741,
				"element": "C" 
			},
			{
				"x": 0.0521291526,
				"y": 0.5976485175,
				"z": -0.0014853237,
				"element": "C" 
			},
			{
				"x": 0.8248461477,
				"y": 0.9530720866,
				"z": 1.1154263081,
				"element": "C" 
			},
			{
				"x": 0.938390654,
				"y": 0.0923387089,
				"z": 2.1983449843,
				"element": "C" 
			},
			{
				"x": -0.0820421904,
				"y": 1.5097870568,
				"z": -1.2002522239,
				"element": "C" 
			},
			{
				"x": 1.5466718605,
				"y": 1.7457397895,
				"z": -2.0392951525,
				"element": "S" 
			},
			{
				"x": 1.1221511137,
				"y": 3.3818360776,
				"z": -2.7381719843,
				"element": "C" 
			},
			{
				"x": 0.4958798203,
				"y": 4.2097837842,
				"z": -1.6198457723,
				"element": "C" 
			},
			{
				"x": -0.7879763333,
				"y": 3.1919921201,
				"z": -0.781633641,
				"element": "S" 
			},
			{
				"x": 0.108246002,
				"y": -3.562821792,
				"z": 2.2803676987,
				"element": "H" 
			},
			{
				"x": -1.0465558896,
				"y": -2.4400092841,
				"z": 1.0667170966,
				"element": "H" 
			},
			{
				"x": -1.2261256092,
				"y": -0.9162055416,
				"z": -0.8490903864,
				"element": "H" 
			},
			{
				"x": 1.3290879976,
				"y": 1.91366984,
				"z": 1.1283110196,
				"element": "H" 
			},
			{
				"x": 1.5227081654,
				"y": 0.3636506956,
				"z": 3.0708361611,
				"element": "H" 
			},
			{
				"x": -0.7746145385,
				"y": 1.0586321364,
				"z": -1.9134844005,
				"element": "H" 
			},
			{
				"x": 2.0521697179,
				"y": 3.8319006111,
				"z": -3.0990914533,
				"element": "H" 
			},
			{
				"x": 0.4346407928,
				"y": 3.2680923571,
				"z": -3.580925024,
				"element": "H" 
			},
			{
				"x": -0.003906807,
				"y": 5.099346699,
				"z": -2.0152223266,
				"element": "H" 
			},
			{
				"x": 1.2525972705,
				"y": 4.5196809418,
				"z": -0.8954783925,
				"element": "H" 
			}
		],
		 "valence_orbital": [ 
			{
				"type": "occ",
				"energy": -0.27694,
				"method": "rhf"
			},
			{
				"type": "occ",
				"energy": -0.27468,
				"method": "rhf"
			},
			{
				"type": "occ",
				"energy": -0.2647,
				"method": "rhf"
			},
			{
				"type": "occ",
				"energy": -0.24205,
				"method": "rhf"
			},
			{
				"type": "occ",
				"energy": -0.23467,
				"method": "rhf"
			},
			{
				"type": "unocc",
				"energy": -0.05845,
				"method": "rhf"
			},
			{
				"type": "unocc",
				"energy": -0.02333,
				"method": "rhf"
			},
			{
				"type": "unocc",
				"energy": -0.01273,
				"method": "rhf"
			},
			{
				"type": "unocc",
				"energy": 0.02619,
				"method": "rhf"
			},
			{
				"type": "unocc",
				"energy": 0.05033,
				"method": "rhf"
			}
		],
		"cosmo_sigma_profile": { 
			"-0.025": 0.0,
			"-0.024": 0.0,
			"-0.023": 0.0,
			"-0.022": 0.0,
			"-0.021": 0.0,
			"-0.02": 0.0,
			"-0.019": 0.150180760691,
			"-0.018": 0.815224113061,
			"-0.017": 0.943219588865,
			"-0.016": 1.5267959424,
			"-0.015": 0.611472576009,
			"-0.014": 0.925123755901,
			"-0.013": 0.875148319629,
			"-0.012": 1.00015978418,
			"-0.011": 1.34838738505,
			"-0.01": 1.43343341805,
			"-0.009": 1.01254776311,
			"-0.008": 3.98944789429,
			"-0.007": 10.3865440496,
			"-0.006": 15.7125898296,
			"-0.005": 18.7571282927,
			"-0.004": 18.2075575233,
			"-0.003": 17.8058698564,
			"-0.002": 13.7700152869,
			"-0.001": 11.7082358046,
			"0.0": 13.4627968074,
			"0.001": 12.2028463737,
			"0.002": 16.6381051076,
			"0.003": 17.6601142221,
			"0.004": 11.9784666237,
			"0.005": 9.55646769754,
			"0.006": 6.91712670132,
			"0.007": 7.78224828005,
			"0.008": 5.98018892012,
			"0.009": 6.57480853268,
			"0.01": 5.64794691743,
			"0.011": 5.70968968808,
			"0.012": 4.7822554165,
			"0.013": 1.62432915911,
			"0.014": 0.056575772402,
			"0.015": 0.0,
			"0.016": 0.0,
			"0.017": 0.0,
			"0.018": 0.0,
			"0.019": 0.0,
			"0.02": 0.0,
			"0.021": 0.0,
			"0.022": 0.0,
			"0.023": 0.0,
			"0.024": 0.0,
			"0.025": 0.0
		}
	}
}
