{
	 "smiles": "CC(C)(C)OC(=O)NCC1=NN=C(S)O1", 
	 "Tm": 380.15, 
	 "num_atms": 28, 
	 "gaussian": { 
		 "optdone": 1, 
		 "sigma_profile": "yes", 
		 "theory": "DFT", 
		 "functional": "B3LYP", 
		 "basiset": "6-31G**", 
		 "properties": { 
			 "R2extent": 4724.9274, 
			 "electric_dipole_moment_norm": 3.84793794519, 
			 "electric_quadrupole_moment_norm": 15.2750154759, 
			 "total_energy": -1100.78934897, 
			 "HOMO_LUMO_gap": 0.22992, 
			 "cosmo_polarized_energy": -17.52, 
			 "cosmo_cavitation_energy": 34.23, 
			 "cosmo_dispersion_energy": -23.54, 
			 "cosmo_repulsion_energy": 1.83, 
			 "cosmo_total_nonelectrostatic_energy": 12.52, 
			 "SMD_solvation_energy": 4.37 
		},
		"coords": [
			{
				"x": -0.4926710496,
				"y": 2.8402471291,
				"z": 2.7650553363,
				"element": "C" 
			},
			{
				"x": -0.4681151245,
				"y": 1.3366736254,
				"z": 2.4736102518,
				"element": "C" 
			},
			{
				"x": 0.4909374421,
				"y": 0.5792109103,
				"z": 3.3973973564,
				"element": "C" 
			},
			{
				"x": -1.8770470002,
				"y": 0.743232129,
				"z": 2.5455398508,
				"element": "C" 
			},
			{
				"x": -0.0951466886,
				"y": 1.1025776864,
				"z": 1.0662490259,
				"element": "O" 
			},
			{
				"x": 1.1072710879,
				"y": 1.4967276323,
				"z": 0.5929604142,
				"element": "C" 
			},
			{
				"x": 1.9916382523,
				"y": 2.0520174706,
				"z": 1.2212728574,
				"element": "O" 
			},
			{
				"x": 1.2215157401,
				"y": 1.2122437474,
				"z": -0.7489429311,
				"element": "N" 
			},
			{
				"x": 0.3099588608,
				"y": 0.3940801006,
				"z": -1.5293705388,
				"element": "C" 
			},
			{
				"x": 0.7030376738,
				"y": -1.0491801892,
				"z": -1.6000718768,
				"element": "C" 
			},
			{
				"x": 1.046483729,
				"y": -1.7348910229,
				"z": -2.6404099255,
				"element": "N" 
			},
			{
				"x": 1.3528375699,
				"y": -3.026795163,
				"z": -2.1924896966,
				"element": "N" 
			},
			{
				"x": 1.1649018856,
				"y": -3.004157803,
				"z": -0.9118119125,
				"element": "C" 
			},
			{
				"x": 1.3572886544,
				"y": -4.3523202066,
				"z": 0.1968315712,
				"element": "S" 
			},
			{
				"x": 0.7486465845,
				"y": -1.7925203413,
				"z": -0.446427533,
				"element": "O" 
			},
			{
				"x": 0.5069010197,
				"y": 3.269029875,
				"z": 2.6916744944,
				"element": "H" 
			},
			{
				"x": -1.1529897216,
				"y": 3.3537107412,
				"z": 2.0590368443,
				"element": "H" 
			},
			{
				"x": -0.8781838847,
				"y": 3.0108795778,
				"z": 3.7754099969,
				"element": "H" 
			},
			{
				"x": 0.5165430746,
				"y": -0.4815375989,
				"z": 3.1278806658,
				"element": "H" 
			},
			{
				"x": 0.1429970691,
				"y": 0.6586717597,
				"z": 4.4322972065,
				"element": "H" 
			},
			{
				"x": 1.5000808962,
				"y": 0.9861891411,
				"z": 3.3315946233,
				"element": "H" 
			},
			{
				"x": -1.8629948538,
				"y": -0.3194499133,
				"z": 2.2861558601,
				"element": "H" 
			},
			{
				"x": -2.5504007555,
				"y": 1.2589481489,
				"z": 1.8545972708,
				"element": "H" 
			},
			{
				"x": -2.2763380765,
				"y": 0.847288417,
				"z": 3.5586354996,
				"element": "H" 
			},
			{
				"x": 2.1427714047,
				"y": 1.3966630238,
				"z": -1.1191431719,
				"element": "H" 
			},
			{
				"x": -0.6864951052,
				"y": 0.4904121031,
				"z": -1.0949736353,
				"element": "H" 
			},
			{
				"x": 0.2724446454,
				"y": 0.757679501,
				"z": -2.5596505119,
				"element": "H" 
			},
			{
				"x": 1.24852667,
				"y": -3.5960304815,
				"z": 1.3060926077,
				"element": "H" 
			}
		],
		 "valence_orbital": [ 
			{
				"type": "occ",
				"energy": -0.29901,
				"method": "rhf"
			},
			{
				"type": "occ",
				"energy": -0.28972,
				"method": "rhf"
			},
			{
				"type": "occ",
				"energy": -0.27451,
				"method": "rhf"
			},
			{
				"type": "occ",
				"energy": -0.26897,
				"method": "rhf"
			},
			{
				"type": "occ",
				"energy": -0.25423,
				"method": "rhf"
			},
			{
				"type": "unocc",
				"energy": -0.02431,
				"method": "rhf"
			},
			{
				"type": "unocc",
				"energy": -0.00773,
				"method": "rhf"
			},
			{
				"type": "unocc",
				"energy": 0.02031,
				"method": "rhf"
			},
			{
				"type": "unocc",
				"energy": 0.04328,
				"method": "rhf"
			},
			{
				"type": "unocc",
				"energy": 0.04815,
				"method": "rhf"
			}
		],
		"cosmo_sigma_profile": { 
			"-0.025": 0.0,
			"-0.024": 0.0,
			"-0.023": 0.0,
			"-0.022": 0.0,
			"-0.021": 0.0,
			"-0.02": 0.0,
			"-0.019": 0.0,
			"-0.018": 0.0,
			"-0.017": 0.0,
			"-0.016": 0.0,
			"-0.015": 0.478195513062,
			"-0.014": 1.24259005399,
			"-0.013": 2.87182087182,
			"-0.012": 3.26880149082,
			"-0.011": 2.28444032565,
			"-0.01": 2.88304898235,
			"-0.009": 2.50190026949,
			"-0.008": 5.09172557403,
			"-0.007": 6.9904575878,
			"-0.006": 6.19078807621,
			"-0.005": 9.34783510188,
			"-0.004": 20.2792700548,
			"-0.003": 21.1917818064,
			"-0.002": 22.1299749398,
			"-0.001": 24.0797033127,
			"0.0": 34.002283985,
			"0.001": 25.9978174637,
			"0.002": 14.1356817839,
			"0.003": 10.6391302845,
			"0.004": 11.0219441699,
			"0.005": 7.10456999405,
			"0.006": 4.52437961818,
			"0.007": 3.69438473797,
			"0.008": 3.43821168451,
			"0.009": 3.54867620087,
			"0.01": 4.24763167806,
			"0.011": 4.91213793094,
			"0.012": 4.50670400929,
			"0.013": 6.2876012669,
			"0.014": 3.35738635808,
			"0.015": 0.496095293111,
			"0.016": 0.0,
			"0.017": 0.0,
			"0.018": 0.0,
			"0.019": 0.0,
			"0.02": 0.0,
			"0.021": 0.0,
			"0.022": 0.0,
			"0.023": 0.0,
			"0.024": 0.0,
			"0.025": 0.0
		}
	}
}
