{
	 "smiles": "OC(=O)C1=CC=C(C(O)=O)C2=C(C=CC(C(O)=O)=C12)C(O)=O", 
	 "Tm": 593.15, 
	 "num_atms": 30, 
	 "gaussian": { 
		 "optdone": 1, 
		 "sigma_profile": "yes", 
		 "theory": "DFT", 
		 "functional": "B3LYP", 
		 "basiset": "6-31G**", 
		 "properties": { 
			 "R2extent": 6242.2408, 
			 "electric_dipole_moment_norm": 4.58071641886, 
			 "electric_quadrupole_moment_norm": 20.6893628188, 
			 "total_energy": -1140.13967486, 
			 "HOMO_LUMO_gap": 0.15631, 
			 "cosmo_polarized_energy": -30.06, 
			 "cosmo_cavitation_energy": 35.87, 
			 "cosmo_dispersion_energy": -25.43, 
			 "cosmo_repulsion_energy": 1.9, 
			 "cosmo_total_nonelectrostatic_energy": 12.35, 
			 "SMD_solvation_energy": 9.64 
		},
		"coords": [
			{
				"x": -4.4531453554,
				"y": -0.8494870084,
				"z": 0.609419982,
				"element": "O" 
			},
			{
				"x": -3.5289446528,
				"y": -0.0924830307,
				"z": -0.0179585919,
				"element": "C" 
			},
			{
				"x": -3.8223631659,
				"y": 0.7562800319,
				"z": -0.8356312552,
				"element": "O" 
			},
			{
				"x": -2.1288390391,
				"y": -0.5018389077,
				"z": 0.3121675498,
				"element": "C" 
			},
			{
				"x": -1.8874391403,
				"y": -1.8558552075,
				"z": 0.4431042189,
				"element": "C" 
			},
			{
				"x": -0.5783472077,
				"y": -2.3585390558,
				"z": 0.3867928198,
				"element": "C" 
			},
			{
				"x": 0.4949670031,
				"y": -1.5150102051,
				"z": 0.1802757686,
				"element": "C" 
			},
			{
				"x": 1.7656392641,
				"y": -2.2257068047,
				"z": -0.1726242234,
				"element": "C" 
			},
			{
				"x": 2.4551774297,
				"y": -1.601095951,
				"z": -1.1621932444,
				"element": "O" 
			},
			{
				"x": 2.0973341538,
				"y": -3.2997046872,
				"z": 0.2745022754,
				"element": "O" 
			},
			{
				"x": 0.3099008167,
				"y": -0.0917145727,
				"z": 0.2059356509,
				"element": "C" 
			},
			{
				"x": 1.4013405885,
				"y": 0.8396437372,
				"z": 0.1707963918,
				"element": "C" 
			},
			{
				"x": 1.1563019276,
				"y": 2.1977292066,
				"z": 0.0961199874,
				"element": "C" 
			},
			{
				"x": -0.1513998155,
				"y": 2.7019461852,
				"z": 0.1893383284,
				"element": "C" 
			},
			{
				"x": -1.2237211589,
				"y": 1.8482065655,
				"z": 0.3539555654,
				"element": "C" 
			},
			{
				"x": -2.5039589879,
				"y": 2.464574614,
				"z": 0.8235682471,
				"element": "C" 
			},
			{
				"x": -2.7312060175,
				"y": 3.6729288059,
				"z": 0.2653132695,
				"element": "O" 
			},
			{
				"x": -3.2207800639,
				"y": 1.9957540151,
				"z": 1.6836030948,
				"element": "O" 
			},
			{
				"x": -1.0350005884,
				"y": 0.4265730767,
				"z": 0.2883868982,
				"element": "C" 
			},
			{
				"x": 2.8279552478,
				"y": 0.437457294,
				"z": 0.4375683713,
				"element": "C" 
			},
			{
				"x": 3.7619296226,
				"y": 1.0201650912,
				"z": -0.3569177569,
				"element": "O" 
			},
			{
				"x": 3.1572398621,
				"y": -0.2738424231,
				"z": 1.3548560623,
				"element": "O" 
			},
			{
				"x": -5.3153458805,
				"y": -0.5453449174,
				"z": 0.2799960015,
				"element": "H" 
			},
			{
				"x": -2.7251990805,
				"y": -2.5407768283,
				"z": 0.500624325,
				"element": "H" 
			},
			{
				"x": -0.3993099537,
				"y": -3.4275545073,
				"z": 0.4147706344,
				"element": "H" 
			},
			{
				"x": 3.2638714899,
				"y": -2.124552631,
				"z": -1.296219379,
				"element": "H" 
			},
			{
				"x": 1.9889216613,
				"y": 2.8947285233,
				"z": 0.0779759985,
				"element": "H" 
			},
			{
				"x": -0.3144039273,
				"y": 3.772638178,
				"z": 0.223485652,
				"element": "H" 
			},
			{
				"x": -3.5423622172,
				"y": 4.0095669705,
				"z": 0.6815769159,
				"element": "H" 
			},
			{
				"x": 3.3265871851,
				"y": 1.4215144428,
				"z": -1.1230895583,
				"element": "H" 
			}
		],
		 "valence_orbital": [ 
			{
				"type": "occ",
				"energy": -0.28929,
				"method": "rhf"
			},
			{
				"type": "occ",
				"energy": -0.28501,
				"method": "rhf"
			},
			{
				"type": "occ",
				"energy": -0.27759,
				"method": "rhf"
			},
			{
				"type": "occ",
				"energy": -0.27679,
				"method": "rhf"
			},
			{
				"type": "occ",
				"energy": -0.25155,
				"method": "rhf"
			},
			{
				"type": "unocc",
				"energy": -0.09524,
				"method": "rhf"
			},
			{
				"type": "unocc",
				"energy": -0.05851,
				"method": "rhf"
			},
			{
				"type": "unocc",
				"energy": -0.0467,
				"method": "rhf"
			},
			{
				"type": "unocc",
				"energy": -0.00131,
				"method": "rhf"
			},
			{
				"type": "unocc",
				"energy": 0.00873,
				"method": "rhf"
			}
		],
		"cosmo_sigma_profile": { 
			"-0.025": 0.0,
			"-0.024": 0.0,
			"-0.023": 0.0,
			"-0.022": 0.0,
			"-0.021": 0.0,
			"-0.02": 0.0450427553394,
			"-0.019": 1.8636646734,
			"-0.018": 3.47978666763,
			"-0.017": 3.48888638053,
			"-0.016": 3.05630765103,
			"-0.015": 2.48436227413,
			"-0.014": 3.49426823084,
			"-0.013": 3.18131514783,
			"-0.012": 3.4042320668,
			"-0.011": 2.8190430292,
			"-0.01": 2.92172232607,
			"-0.009": 3.50503181227,
			"-0.008": 9.05414408305,
			"-0.007": 11.0956300438,
			"-0.006": 8.17013077874,
			"-0.005": 8.10748306455,
			"-0.004": 12.9701527343,
			"-0.003": 12.185848223,
			"-0.002": 14.5984943717,
			"-0.001": 24.2585691961,
			"0.0": 20.3567546051,
			"0.001": 14.9983961706,
			"0.002": 10.5512900095,
			"0.003": 9.36404130571,
			"0.004": 9.89917429958,
			"0.005": 10.269296542,
			"0.006": 10.4357028671,
			"0.007": 11.2220448952,
			"0.008": 10.8518123233,
			"0.009": 11.0023729687,
			"0.01": 12.5801314078,
			"0.011": 17.4235878671,
			"0.012": 3.71025810076,
			"0.013": 0.0949821890282,
			"0.014": 0.0,
			"0.015": 0.0,
			"0.016": 0.0,
			"0.017": 0.0,
			"0.018": 0.0,
			"0.019": 0.0,
			"0.02": 0.0,
			"0.021": 0.0,
			"0.022": 0.0,
			"0.023": 0.0,
			"0.024": 0.0,
			"0.025": 0.0
		}
	}
}
