{
	 "smiles": "O1N=C2C=CC3=C(C=CN=N3)C2=N1", 
	 "Tm": 413.15, 
	 "num_atms": 17, 
	 "gaussian": { 
		 "optdone": 1, 
		 "sigma_profile": "yes", 
		 "theory": "DFT", 
		 "functional": "B3LYP", 
		 "basiset": "6-31G**", 
		 "properties": { 
			 "R2extent": 2849.8156, 
			 "electric_dipole_moment_norm": 0.260065741689, 
			 "electric_quadrupole_moment_norm": 21.9200584445, 
			 "total_energy": -601.361169889, 
			 "HOMO_LUMO_gap": 0.14824, 
			 "cosmo_polarized_energy": -11.67, 
			 "cosmo_cavitation_energy": 22.5, 
			 "cosmo_dispersion_energy": -17.13, 
			 "cosmo_repulsion_energy": 1.3, 
			 "cosmo_total_nonelectrostatic_energy": 6.67, 
			 "SMD_solvation_energy": 1.31 
		},
		"coords": [
			{
				"x": 1.9959010614,
				"y": -3.3374702751,
				"z": 0.9075321854,
				"element": "O" 
			},
			{
				"x": 3.098074535,
				"y": -2.527140985,
				"z": 1.0334428376,
				"element": "N" 
			},
			{
				"x": 2.609687726,
				"y": -1.3073293172,
				"z": 1.122969276,
				"element": "C" 
			},
			{
				"x": 3.2922788805,
				"y": -0.0495275663,
				"z": 1.2707140853,
				"element": "C" 
			},
			{
				"x": 2.5311013096,
				"y": 1.0723515214,
				"z": 1.3384678641,
				"element": "C" 
			},
			{
				"x": 1.0774949943,
				"y": 1.0375258038,
				"z": 1.2672753809,
				"element": "C" 
			},
			{
				"x": 0.3715848291,
				"y": -0.186789334,
				"z": 1.1215684345,
				"element": "C" 
			},
			{
				"x": -1.0176945997,
				"y": -0.117224653,
				"z": 1.0630038787,
				"element": "C" 
			},
			{
				"x": -1.5860006278,
				"y": 1.1478135304,
				"z": 1.1528394067,
				"element": "C" 
			},
			{
				"x": -0.8740156228,
				"y": 2.2830776138,
				"z": 1.2906059116,
				"element": "N" 
			},
			{
				"x": 0.443936805,
				"y": 2.2290651064,
				"z": 1.3472959214,
				"element": "N" 
			},
			{
				"x": 1.180864839,
				"y": -1.3798876554,
				"z": 1.0495459054,
				"element": "C" 
			},
			{
				"x": 0.8198929307,
				"y": -2.6368104305,
				"z": 0.9169172241,
				"element": "N" 
			},
			{
				"x": 4.3743986727,
				"y": -0.021384009,
				"z": 1.323904065,
				"element": "H" 
			},
			{
				"x": 2.9747192071,
				"y": 2.0559303705,
				"z": 1.4497931264,
				"element": "H" 
			},
			{
				"x": -1.6250904568,
				"y": -1.0094487238,
				"z": 0.9524873267,
				"element": "H" 
			},
			{
				"x": -2.6625344833,
				"y": 1.286449003,
				"z": 1.1152371704,
				"element": "H" 
			}
		],
		 "valence_orbital": [ 
			{
				"type": "occ",
				"energy": -0.33051,
				"method": "rhf"
			},
			{
				"type": "occ",
				"energy": -0.3286,
				"method": "rhf"
			},
			{
				"type": "occ",
				"energy": -0.29944,
				"method": "rhf"
			},
			{
				"type": "occ",
				"energy": -0.27021,
				"method": "rhf"
			},
			{
				"type": "occ",
				"energy": -0.24973,
				"method": "rhf"
			},
			{
				"type": "unocc",
				"energy": -0.10149,
				"method": "rhf"
			},
			{
				"type": "unocc",
				"energy": -0.08446,
				"method": "rhf"
			},
			{
				"type": "unocc",
				"energy": -0.03069,
				"method": "rhf"
			},
			{
				"type": "unocc",
				"energy": 0.00586,
				"method": "rhf"
			},
			{
				"type": "unocc",
				"energy": 0.06542,
				"method": "rhf"
			}
		],
		"cosmo_sigma_profile": { 
			"-0.025": 0.0,
			"-0.024": 0.0,
			"-0.023": 0.0,
			"-0.022": 0.0,
			"-0.021": 0.0,
			"-0.02": 0.0,
			"-0.019": 0.0,
			"-0.018": 0.0,
			"-0.017": 0.0,
			"-0.016": 0.0,
			"-0.015": 0.0,
			"-0.014": 0.0,
			"-0.013": 0.0,
			"-0.012": 0.0,
			"-0.011": 0.0,
			"-0.01": 0.614971568836,
			"-0.009": 5.42702509165,
			"-0.008": 7.55161132727,
			"-0.007": 8.58412326848,
			"-0.006": 7.52801184417,
			"-0.005": 11.097267952,
			"-0.004": 15.6115630942,
			"-0.003": 16.0684301982,
			"-0.002": 16.7073230826,
			"-0.001": 14.6073971566,
			"0.0": 9.77783856697,
			"0.001": 8.02799115817,
			"0.002": 4.78349910635,
			"0.003": 5.48648154131,
			"0.004": 10.067063721,
			"0.005": 9.72318710658,
			"0.006": 4.24717526414,
			"0.007": 4.06465898056,
			"0.008": 3.93220952093,
			"0.009": 4.17306147999,
			"0.01": 4.52775028255,
			"0.011": 2.66125471861,
			"0.012": 2.6232639771,
			"0.013": 2.65212224393,
			"0.014": 1.99487277176,
			"0.015": 1.07302113495,
			"0.016": 0.0335963880865,
			"0.017": 0.0,
			"0.018": 0.0,
			"0.019": 0.0,
			"0.02": 0.0,
			"0.021": 0.0,
			"0.022": 0.0,
			"0.023": 0.0,
			"0.024": 0.0,
			"0.025": 0.0
		}
	}
}
