{
	 "smiles": "COP(=S)(OC)OC1=CC=C(SC)C(C)=C1", 
	 "Tm": 280.4, 
	 "num_atms": 31, 
	 "gaussian": { 
		 "optdone": 1, 
		 "sigma_profile": "yes", 
		 "theory": "DFT", 
		 "functional": "B3LYP", 
		 "basiset": "6-31G**", 
		 "properties": { 
			 "R2extent": 6566.0472, 
			 "electric_dipole_moment_norm": 1.51289640756, 
			 "electric_quadrupole_moment_norm": 16.6171835788, 
			 "total_energy": -1753.56583122, 
			 "HOMO_LUMO_gap": 0.20386, 
			 "cosmo_polarized_energy": -11.83, 
			 "cosmo_cavitation_energy": 39.5, 
			 "cosmo_dispersion_energy": -27.66, 
			 "cosmo_repulsion_energy": 2.08, 
			 "cosmo_total_nonelectrostatic_energy": 13.92, 
			 "SMD_solvation_energy": 8.39 
		},
		"coords": [
			{
				"x": -1.8226686868,
				"y": 3.5529598678,
				"z": -0.2466460768,
				"element": "C" 
			},
			{
				"x": -0.726902173,
				"y": 3.2163623795,
				"z": 0.6240183412,
				"element": "O" 
			},
			{
				"x": 0.2706299872,
				"y": 2.0047730067,
				"z": 0.2619370505,
				"element": "P" 
			},
			{
				"x": 0.9707206877,
				"y": 1.9370665797,
				"z": -1.5429888765,
				"element": "S" 
			},
			{
				"x": 1.3288979883,
				"y": 2.1182374968,
				"z": 1.4705854716,
				"element": "O" 
			},
			{
				"x": 2.3944321857,
				"y": 3.0871474613,
				"z": 1.4172939145,
				"element": "C" 
			},
			{
				"x": -0.6246123193,
				"y": 0.7438646142,
				"z": 0.7627390373,
				"element": "O" 
			},
			{
				"x": -0.2392572641,
				"y": -0.588001188,
				"z": 0.5893929395,
				"element": "C" 
			},
			{
				"x": 0.8169247753,
				"y": -1.1201491739,
				"z": 1.322291536,
				"element": "C" 
			},
			{
				"x": 1.1181049377,
				"y": -2.4704553935,
				"z": 1.1569208076,
				"element": "C" 
			},
			{
				"x": 0.3807698486,
				"y": -3.282012166,
				"z": 0.2840891171,
				"element": "C" 
			},
			{
				"x": 0.814342009,
				"y": -5.0241529037,
				"z": 0.1844127723,
				"element": "S" 
			},
			{
				"x": 1.7702725939,
				"y": -5.0731949104,
				"z": -1.381045221,
				"element": "C" 
			},
			{
				"x": -0.7027368086,
				"y": -2.736381455,
				"z": -0.441062609,
				"element": "C" 
			},
			{
				"x": -1.5446467848,
				"y": -3.5619971047,
				"z": -1.3828507029,
				"element": "C" 
			},
			{
				"x": -0.9908882139,
				"y": -1.3763810885,
				"z": -0.2759897849,
				"element": "C" 
			},
			{
				"x": -1.4673069533,
				"y": 3.7149721497,
				"z": -1.2680058381,
				"element": "H" 
			},
			{
				"x": -2.2537849328,
				"y": 4.4723756115,
				"z": 0.1509015371,
				"element": "H" 
			},
			{
				"x": -2.5729925864,
				"y": 2.7570939186,
				"z": -0.2335388951,
				"element": "H" 
			},
			{
				"x": 3.0283994118,
				"y": 2.8858949055,
				"z": 2.2813596275,
				"element": "H" 
			},
			{
				"x": 2.9693615785,
				"y": 2.9753497307,
				"z": 0.4941645261,
				"element": "H" 
			},
			{
				"x": 1.9868158378,
				"y": 4.099652083,
				"z": 1.4846851139,
				"element": "H" 
			},
			{
				"x": 1.3793944824,
				"y": -0.4908901563,
				"z": 2.0020607895,
				"element": "H" 
			},
			{
				"x": 1.9367368523,
				"y": -2.911641306,
				"z": 1.7161040817,
				"element": "H" 
			},
			{
				"x": 1.15059484,
				"y": -4.8085882928,
				"z": -2.240275525,
				"element": "H" 
			},
			{
				"x": 2.1154761803,
				"y": -6.1034325852,
				"z": -1.4969471642,
				"element": "H" 
			},
			{
				"x": 2.6344541341,
				"y": -4.4082807919,
				"z": -1.3271917426,
				"element": "H" 
			},
			{
				"x": -1.8100616788,
				"y": -4.5240206311,
				"z": -0.9367600661,
				"element": "H" 
			},
			{
				"x": -1.0071670155,
				"y": -3.7795426383,
				"z": -2.3135750263,
				"element": "H" 
			},
			{
				"x": -2.4614779845,
				"y": -3.0310977863,
				"z": -1.6518181785,
				"element": "H" 
			},
			{
				"x": -1.8119249288,
				"y": -0.9197302332,
				"z": -0.8190609565,
				"element": "H" 
			}
		],
		 "valence_orbital": [ 
			{
				"type": "occ",
				"energy": -0.25389,
				"method": "rhf"
			},
			{
				"type": "occ",
				"energy": -0.24997,
				"method": "rhf"
			},
			{
				"type": "occ",
				"energy": -0.24435,
				"method": "rhf"
			},
			{
				"type": "occ",
				"energy": -0.23999,
				"method": "rhf"
			},
			{
				"type": "occ",
				"energy": -0.2241,
				"method": "rhf"
			},
			{
				"type": "unocc",
				"energy": -0.02024,
				"method": "rhf"
			},
			{
				"type": "unocc",
				"energy": -0.00916,
				"method": "rhf"
			},
			{
				"type": "unocc",
				"energy": 0.04043,
				"method": "rhf"
			},
			{
				"type": "unocc",
				"energy": 0.04923,
				"method": "rhf"
			},
			{
				"type": "unocc",
				"energy": 0.05657,
				"method": "rhf"
			}
		],
		"cosmo_sigma_profile": { 
			"-0.025": 0.0,
			"-0.024": 0.0,
			"-0.023": 0.0,
			"-0.022": 0.0,
			"-0.021": 0.0,
			"-0.02": 0.0,
			"-0.019": 0.0,
			"-0.018": 0.0,
			"-0.017": 0.0,
			"-0.016": 0.0,
			"-0.015": 0.0,
			"-0.014": 0.0,
			"-0.013": 0.0,
			"-0.012": 0.0,
			"-0.011": 0.0,
			"-0.01": 0.0,
			"-0.009": 0.0,
			"-0.008": 0.118314409941,
			"-0.007": 5.5276655668,
			"-0.006": 19.4666319541,
			"-0.005": 26.8288418989,
			"-0.004": 31.5044596769,
			"-0.003": 24.9831178993,
			"-0.002": 23.3220902718,
			"-0.001": 26.4557468545,
			"0.0": 23.1086353319,
			"0.001": 21.9378566097,
			"0.002": 19.6827938719,
			"0.003": 19.6021728963,
			"0.004": 17.1009189363,
			"0.005": 13.1377505362,
			"0.006": 13.8344432239,
			"0.007": 12.3405221056,
			"0.008": 11.3291601739,
			"0.009": 5.17134272733,
			"0.01": 0.563839062727,
			"0.011": 0.0285045190783,
			"0.012": 0.0,
			"0.013": 0.0,
			"0.014": 0.0,
			"0.015": 0.0,
			"0.016": 0.0,
			"0.017": 0.0,
			"0.018": 0.0,
			"0.019": 0.0,
			"0.02": 0.0,
			"0.021": 0.0,
			"0.022": 0.0,
			"0.023": 0.0,
			"0.024": 0.0,
			"0.025": 0.0
		}
	}
}
