{
	 "smiles": "CC1=NN=C(S)O1", 
	 "Tm": 513.15, 
	 "num_atms": 11, 
	 "gaussian": { 
		 "optdone": 1, 
		 "sigma_profile": "yes", 
		 "theory": "DFT", 
		 "functional": "B3LYP", 
		 "basiset": "6-31G**", 
		 "properties": { 
			 "R2extent": 1398.2523, 
			 "electric_dipole_moment_norm": 4.33558589928, 
			 "electric_quadrupole_moment_norm": 12.1851675077, 
			 "total_energy": -699.60323736, 
			 "HOMO_LUMO_gap": 0.237, 
			 "cosmo_polarized_energy": -11.7, 
			 "cosmo_cavitation_energy": 17.5, 
			 "cosmo_dispersion_energy": -13.79, 
			 "cosmo_repulsion_energy": 1.13, 
			 "cosmo_total_nonelectrostatic_energy": 4.84, 
			 "SMD_solvation_energy": 1.38 
		},
		"coords": [
			{
				"x": -0.5859282547,
				"y": -0.8422507749,
				"z": 2.0939627978,
				"element": "C" 
			},
			{
				"x": 0.6261958472,
				"y": -0.3800628421,
				"z": 1.3733218295,
				"element": "C" 
			},
			{
				"x": 1.6947164944,
				"y": 0.1733133338,
				"z": 1.8447394948,
				"element": "N" 
			},
			{
				"x": 2.5425538623,
				"y": 0.4193717865,
				"z": 0.7545254536,
				"element": "N" 
			},
			{
				"x": 1.9057770207,
				"y": -0.0106909227,
				"z": -0.2853134528,
				"element": "C" 
			},
			{
				"x": 2.4691637538,
				"y": 0.028374906,
				"z": -1.9501429013,
				"element": "S" 
			},
			{
				"x": 0.6818844551,
				"y": -0.5347478486,
				"z": 0.0062174336,
				"element": "O" 
			},
			{
				"x": -0.7443013269,
				"y": -1.9156436587,
				"z": 1.9485417687,
				"element": "H" 
			},
			{
				"x": -0.4544237302,
				"y": -0.6412969239,
				"z": 3.1577215521,
				"element": "H" 
			},
			{
				"x": -1.4787333997,
				"y": -0.318505053,
				"z": 1.7376077908,
				"element": "H" 
			},
			{
				"x": 1.3589952779,
				"y": -0.5458620025,
				"z": -2.4514817668,
				"element": "H" 
			}
		],
		 "valence_orbital": [ 
			{
				"type": "occ",
				"energy": -0.34887,
				"method": "rhf"
			},
			{
				"type": "occ",
				"energy": -0.32647,
				"method": "rhf"
			},
			{
				"type": "occ",
				"energy": -0.32333,
				"method": "rhf"
			},
			{
				"type": "occ",
				"energy": -0.28183,
				"method": "rhf"
			},
			{
				"type": "occ",
				"energy": -0.24848,
				"method": "rhf"
			},
			{
				"type": "unocc",
				"energy": -0.01148,
				"method": "rhf"
			},
			{
				"type": "unocc",
				"energy": -0.0048,
				"method": "rhf"
			},
			{
				"type": "unocc",
				"energy": 0.03086,
				"method": "rhf"
			},
			{
				"type": "unocc",
				"energy": 0.04845,
				"method": "rhf"
			},
			{
				"type": "unocc",
				"energy": 0.09787,
				"method": "rhf"
			}
		],
		"cosmo_sigma_profile": { 
			"-0.025": 0.0,
			"-0.024": 0.0,
			"-0.023": 0.0,
			"-0.022": 0.0,
			"-0.021": 0.0,
			"-0.02": 0.0,
			"-0.019": 0.0,
			"-0.018": 0.0,
			"-0.017": 0.0,
			"-0.016": 0.0,
			"-0.015": 0.0,
			"-0.014": 0.0314612565908,
			"-0.013": 1.84528518438,
			"-0.012": 1.73833585269,
			"-0.011": 1.31357571072,
			"-0.01": 1.62934468561,
			"-0.009": 0.935846829393,
			"-0.008": 2.16800118817,
			"-0.007": 6.08417832256,
			"-0.006": 8.05126347754,
			"-0.005": 9.18556837685,
			"-0.004": 11.3499317667,
			"-0.003": 14.3296263818,
			"-0.002": 10.2066784485,
			"-0.001": 8.4374110795,
			"0.0": 7.07709433292,
			"0.001": 8.49781623531,
			"0.002": 7.85159293872,
			"0.003": 6.43423399742,
			"0.004": 5.84248061648,
			"0.005": 4.69421435501,
			"0.006": 3.63402310486,
			"0.007": 2.1776150379,
			"0.008": 1.98949520453,
			"0.009": 1.49881373421,
			"0.01": 2.60784632402,
			"0.011": 3.60985231308,
			"0.012": 3.19780110972,
			"0.013": 3.01629159555,
			"0.014": 1.98038152016,
			"0.015": 1.55308340935,
			"0.016": 0.0424588126577,
			"0.017": 0.0,
			"0.018": 0.0,
			"0.019": 0.0,
			"0.02": 0.0,
			"0.021": 0.0,
			"0.022": 0.0,
			"0.023": 0.0,
			"0.024": 0.0,
			"0.025": 0.0
		}
	}
}
