{
	 "smiles": "CC1C(=O)NC(=O)C1(C)C", 
	 "Tm": 393.15, 
	 "num_atms": 21, 
	 "gaussian": { 
		 "optdone": 1, 
		 "sigma_profile": "yes", 
		 "theory": "DFT", 
		 "functional": "B3LYP", 
		 "basiset": "6-31G**", 
		 "properties": { 
			 "R2extent": 1875.4392, 
			 "electric_dipole_moment_norm": 2.02713655435, 
			 "electric_quadrupole_moment_norm": 9.52616857399, 
			 "total_energy": -478.618828262, 
			 "HOMO_LUMO_gap": 0.2341, 
			 "cosmo_polarized_energy": -12.33, 
			 "cosmo_cavitation_energy": 23.57, 
			 "cosmo_dispersion_energy": -16.73, 
			 "cosmo_repulsion_energy": 1.36, 
			 "cosmo_total_nonelectrostatic_energy": 8.2, 
			 "SMD_solvation_energy": 5.54 
		},
		"coords": [
			{
				"x": 0.0507877182,
				"y": -0.8036338599,
				"z": 2.7789660104,
				"element": "C" 
			},
			{
				"x": -0.055576877,
				"y": -0.8903675988,
				"z": 1.2562720362,
				"element": "C" 
			},
			{
				"x": -0.1932291884,
				"y": -2.3310229732,
				"z": 0.7569406397,
				"element": "C" 
			},
			{
				"x": -0.7824157129,
				"y": -3.2507946985,
				"z": 1.2827250216,
				"element": "O" 
			},
			{
				"x": 0.4649187418,
				"y": -2.3970502754,
				"z": -0.4689015634,
				"element": "N" 
			},
			{
				"x": 1.165094524,
				"y": -1.2446598948,
				"z": -0.8123079342,
				"element": "C" 
			},
			{
				"x": 1.7625995117,
				"y": -1.0771896557,
				"z": -1.854330526,
				"element": "O" 
			},
			{
				"x": 1.0821358002,
				"y": -0.2762450651,
				"z": 0.3831500247,
				"element": "C" 
			},
			{
				"x": 2.4646137201,
				"y": -0.31080946,
				"z": 1.0716613542,
				"element": "C" 
			},
			{
				"x": 0.7743320282,
				"y": 1.1455994608,
				"z": -0.1055558728,
				"element": "C" 
			},
			{
				"x": 0.9578157589,
				"y": -1.2848805011,
				"z": 3.1540453528,
				"element": "H" 
			},
			{
				"x": -0.8040085627,
				"y": -1.3121951464,
				"z": 3.2314785535,
				"element": "H" 
			},
			{
				"x": 0.0505881823,
				"y": 0.2377709876,
				"z": 3.114231189,
				"element": "H" 
			},
			{
				"x": -0.997348781,
				"y": -0.4072445682,
				"z": 0.9563298405,
				"element": "H" 
			},
			{
				"x": 0.4524235859,
				"y": -3.223980167,
				"z": -1.0532558334,
				"element": "H" 
			},
			{
				"x": 2.4866254724,
				"y": 0.3716561399,
				"z": 1.9262454735,
				"element": "H" 
			},
			{
				"x": 2.7197824288,
				"y": -1.3135317531,
				"z": 1.4297422135,
				"element": "H" 
			},
			{
				"x": 3.2356686109,
				"y": 0.0000359528,
				"z": 0.3615883028,
				"element": "H" 
			},
			{
				"x": 1.5389080572,
				"y": 1.4769666688,
				"z": -0.8130354809,
				"element": "H" 
			},
			{
				"x": 0.7535786931,
				"y": 1.8448145616,
				"z": 0.7368470442,
				"element": "H" 
			},
			{
				"x": -0.1953937115,
				"y": 1.1935618456,
				"z": -0.6118358458,
				"element": "H" 
			}
		],
		 "valence_orbital": [ 
			{
				"type": "occ",
				"energy": -0.35198,
				"method": "rhf"
			},
			{
				"type": "occ",
				"energy": -0.33595,
				"method": "rhf"
			},
			{
				"type": "occ",
				"energy": -0.29167,
				"method": "rhf"
			},
			{
				"type": "occ",
				"energy": -0.28162,
				"method": "rhf"
			},
			{
				"type": "occ",
				"energy": -0.25535,
				"method": "rhf"
			},
			{
				"type": "unocc",
				"energy": -0.02125,
				"method": "rhf"
			},
			{
				"type": "unocc",
				"energy": 0.02603,
				"method": "rhf"
			},
			{
				"type": "unocc",
				"energy": 0.07545,
				"method": "rhf"
			},
			{
				"type": "unocc",
				"energy": 0.08994,
				"method": "rhf"
			},
			{
				"type": "unocc",
				"energy": 0.11593,
				"method": "rhf"
			}
		],
		"cosmo_sigma_profile": { 
			"-0.025": 0.0,
			"-0.024": 0.0,
			"-0.023": 0.0,
			"-0.022": 0.0,
			"-0.021": 0.0,
			"-0.02": 0.0,
			"-0.019": 0.0,
			"-0.018": 0.0,
			"-0.017": 0.0428847072989,
			"-0.016": 1.02559277778,
			"-0.015": 1.22239250992,
			"-0.014": 1.10700998717,
			"-0.013": 0.849308567812,
			"-0.012": 0.278064577911,
			"-0.011": 1.20181814466,
			"-0.01": 1.05829525115,
			"-0.009": 0.656593635213,
			"-0.008": 1.52382426208,
			"-0.007": 4.41013767095,
			"-0.006": 5.91551460478,
			"-0.005": 7.34800899729,
			"-0.004": 18.3781924042,
			"-0.003": 22.7371269165,
			"-0.002": 21.2184617729,
			"-0.001": 18.4935239793,
			"0.0": 19.6296578898,
			"0.001": 8.19598916893,
			"0.002": 3.89792669688,
			"0.003": 3.77330098652,
			"0.004": 2.33080356939,
			"0.005": 3.57482565183,
			"0.006": 3.06226379456,
			"0.007": 2.09383170941,
			"0.008": 2.09080215948,
			"0.009": 3.89824883856,
			"0.01": 3.97142689946,
			"0.011": 6.5358740833,
			"0.012": 10.1595502001,
			"0.013": 3.03302382993,
			"0.014": 0.0,
			"0.015": 0.0,
			"0.016": 0.0,
			"0.017": 0.0,
			"0.018": 0.0,
			"0.019": 0.0,
			"0.02": 0.0,
			"0.021": 0.0,
			"0.022": 0.0,
			"0.023": 0.0,
			"0.024": 0.0,
			"0.025": 0.0
		}
	}
}
