{
	 "smiles": "O=S(=O)(CC1=CC=CC=C1)N1CCNCC1", 
	 "Tm": 403.15, 
	 "num_atms": 32, 
	 "gaussian": { 
		 "optdone": 1, 
		 "sigma_profile": "yes", 
		 "theory": "DFT", 
		 "functional": "B3LYP", 
		 "basiset": "6-31G**", 
		 "properties": { 
			 "R2extent": 4328.8302, 
			 "electric_dipole_moment_norm": 4.81146830292, 
			 "electric_quadrupole_moment_norm": 11.1798918702, 
			 "total_energy": -1086.86909556, 
			 "HOMO_LUMO_gap": 0.20103, 
			 "cosmo_polarized_energy": -16.22, 
			 "cosmo_cavitation_energy": 34.76, 
			 "cosmo_dispersion_energy": -24.42, 
			 "cosmo_repulsion_energy": 1.85, 
			 "cosmo_total_nonelectrostatic_energy": 12.19, 
			 "SMD_solvation_energy": 1.88 
		},
		"coords": [
			{
				"x": 0.6286948105,
				"y": -2.8149971544,
				"z": -2.0369285162,
				"element": "O" 
			},
			{
				"x": 1.1431996549,
				"y": -1.8121807728,
				"z": -1.0946561756,
				"element": "S" 
			},
			{
				"x": 2.5162067133,
				"y": -1.304340468,
				"z": -1.1980766859,
				"element": "O" 
			},
			{
				"x": 0.9510883137,
				"y": -2.5521510128,
				"z": 0.5736064134,
				"element": "C" 
			},
			{
				"x": 1.2616988724,
				"y": -1.6114947791,
				"z": 1.7033689343,
				"element": "C" 
			},
			{
				"x": 0.2255162627,
				"y": -1.0014559633,
				"z": 2.4234242577,
				"element": "C" 
			},
			{
				"x": 0.5080045498,
				"y": -0.1218342723,
				"z": 3.4694340399,
				"element": "C" 
			},
			{
				"x": 1.8330637575,
				"y": 0.1623519155,
				"z": 3.8041444937,
				"element": "C" 
			},
			{
				"x": 2.8725088702,
				"y": -0.437619434,
				"z": 3.0892638715,
				"element": "C" 
			},
			{
				"x": 2.5899267573,
				"y": -1.3189443527,
				"z": 2.0461705875,
				"element": "C" 
			},
			{
				"x": 0.1106845128,
				"y": -0.4940181584,
				"z": -1.0868672834,
				"element": "N" 
			},
			{
				"x": -1.2206960574,
				"y": -0.6068651432,
				"z": -1.7201371046,
				"element": "C" 
			},
			{
				"x": -1.4974842841,
				"y": 0.662016789,
				"z": -2.5365725055,
				"element": "C" 
			},
			{
				"x": -1.4032964194,
				"y": 1.9032185251,
				"z": -1.7591906875,
				"element": "N" 
			},
			{
				"x": -0.4001391475,
				"y": 1.8593186962,
				"z": -0.6806208999,
				"element": "C" 
			},
			{
				"x": 0.705798597,
				"y": 0.857055783,
				"z": -1.0005949722,
				"element": "C" 
			},
			{
				"x": -0.0777229733,
				"y": -2.9185585104,
				"z": 0.6068834603,
				"element": "H" 
			},
			{
				"x": 1.6243336553,
				"y": -3.414224175,
				"z": 0.5471330623,
				"element": "H" 
			},
			{
				"x": -0.8070967754,
				"y": -1.2247772526,
				"z": 2.1679515905,
				"element": "H" 
			},
			{
				"x": -0.3054955282,
				"y": 0.3371735259,
				"z": 4.0239410507,
				"element": "H" 
			},
			{
				"x": 2.055036629,
				"y": 0.844681799,
				"z": 4.6195695823,
				"element": "H" 
			},
			{
				"x": 3.9054677986,
				"y": -0.2205382109,
				"z": 3.3451981896,
				"element": "H" 
			},
			{
				"x": 3.3986961778,
				"y": -1.7737823186,
				"z": 1.4826371434,
				"element": "H" 
			},
			{
				"x": -1.2392516044,
				"y": -1.4893353504,
				"z": -2.3637385237,
				"element": "H" 
			},
			{
				"x": -1.9933214788,
				"y": -0.7310963513,
				"z": -0.9471313332,
				"element": "H" 
			},
			{
				"x": -2.4960232719,
				"y": 0.5985983432,
				"z": -2.9801584914,
				"element": "H" 
			},
			{
				"x": -0.7867367706,
				"y": 0.698224426,
				"z": -3.3721158274,
				"element": "H" 
			},
			{
				"x": -2.3100025028,
				"y": 2.1343466336,
				"z": -1.3684066793,
				"element": "H" 
			},
			{
				"x": 0.0550987162,
				"y": 2.8506395522,
				"z": -0.558957415,
				"element": "H" 
			},
			{
				"x": -0.834973485,
				"y": 1.5809750854,
				"z": 0.292706719,
				"element": "H" 
			},
			{
				"x": 1.4530364988,
				"y": 0.8663430303,
				"z": -0.2065903211,
				"element": "H" 
			},
			{
				"x": 1.2112791509,
				"y": 1.1345695756,
				"z": -1.934189974,
				"element": "H" 
			}
		],
		 "valence_orbital": [ 
			{
				"type": "occ",
				"energy": -0.29397,
				"method": "rhf"
			},
			{
				"type": "occ",
				"energy": -0.26001,
				"method": "rhf"
			},
			{
				"type": "occ",
				"energy": -0.25139,
				"method": "rhf"
			},
			{
				"type": "occ",
				"energy": -0.24493,
				"method": "rhf"
			},
			{
				"type": "occ",
				"energy": -0.22167,
				"method": "rhf"
			},
			{
				"type": "unocc",
				"energy": -0.02064,
				"method": "rhf"
			},
			{
				"type": "unocc",
				"energy": -0.01055,
				"method": "rhf"
			},
			{
				"type": "unocc",
				"energy": 0.0619,
				"method": "rhf"
			},
			{
				"type": "unocc",
				"energy": 0.07244,
				"method": "rhf"
			},
			{
				"type": "unocc",
				"energy": 0.08151,
				"method": "rhf"
			}
		],
		"cosmo_sigma_profile": { 
			"-0.025": 0.0,
			"-0.024": 0.0,
			"-0.023": 0.0,
			"-0.022": 0.0,
			"-0.021": 0.0,
			"-0.02": 0.0,
			"-0.019": 0.0,
			"-0.018": 0.0,
			"-0.017": 0.0,
			"-0.016": 0.0,
			"-0.015": 0.0,
			"-0.014": 0.0,
			"-0.013": 0.0,
			"-0.012": 0.0,
			"-0.011": 0.117487693689,
			"-0.01": 1.31796310294,
			"-0.009": 2.08878813694,
			"-0.008": 4.91990466264,
			"-0.007": 7.43053127218,
			"-0.006": 13.1347006363,
			"-0.005": 19.3863612846,
			"-0.004": 34.0888988967,
			"-0.003": 30.7512673146,
			"-0.002": 23.9532740338,
			"-0.001": 18.0791901825,
			"0.0": 13.8726311747,
			"0.001": 13.9084143285,
			"0.002": 13.6315896875,
			"0.003": 13.2346196804,
			"0.004": 11.6678969806,
			"0.005": 10.0804565092,
			"0.006": 4.56785764544,
			"0.007": 3.16220952329,
			"0.008": 4.18782954466,
			"0.009": 4.14389058059,
			"0.01": 5.62630568175,
			"0.011": 8.55750973703,
			"0.012": 7.68351046822,
			"0.013": 0.853232403126,
			"0.014": 0.570946809814,
			"0.015": 0.752871608559,
			"0.016": 0.524609747289,
			"0.017": 0.422769381963,
			"0.018": 0.41935929378,
			"0.019": 0.0150104765415,
			"0.02": 0.0,
			"0.021": 0.0,
			"0.022": 0.0,
			"0.023": 0.0,
			"0.024": 0.0,
			"0.025": 0.0
		}
	}
}
