{
	 "smiles": "NC1=CC(F)=C(OC2=NC=C(C=C2)C(F)(F)F)C=C1", 
	 "Tm": 364.15, 
	 "num_atms": 27, 
	 "gaussian": { 
		 "optdone": 1, 
		 "sigma_profile": "yes", 
		 "theory": "DFT", 
		 "functional": "B3LYP", 
		 "basiset": "6-31G**", 
		 "properties": { 
			 "R2extent": 8338.529, 
			 "electric_dipole_moment_norm": 3.32859069728, 
			 "electric_quadrupole_moment_norm": 24.5579437963, 
			 "total_energy": -1046.17774253, 
			 "HOMO_LUMO_gap": 0.17102, 
			 "cosmo_polarized_energy": -12.48, 
			 "cosmo_cavitation_energy": 34.48, 
			 "cosmo_dispersion_energy": -24.25, 
			 "cosmo_repulsion_energy": 1.79, 
			 "cosmo_total_nonelectrostatic_energy": 12.03, 
			 "SMD_solvation_energy": 6.86 
		},
		"coords": [
			{
				"x": -3.5021715898,
				"y": 0.8345288482,
				"z": 3.2171245221,
				"element": "N" 
			},
			{
				"x": -2.5403426668,
				"y": 0.5650537425,
				"z": 2.2434340415,
				"element": "C" 
			},
			{
				"x": -2.0205401885,
				"y": -0.733630421,
				"z": 2.0986941691,
				"element": "C" 
			},
			{
				"x": -1.1117409709,
				"y": -1.0002123624,
				"z": 1.0881581889,
				"element": "C" 
			},
			{
				"x": -0.6266633656,
				"y": -2.2479450956,
				"z": 0.9497813389,
				"element": "F" 
			},
			{
				"x": -0.6816599042,
				"y": -0.0089014868,
				"z": 0.2065249952,
				"element": "C" 
			},
			{
				"x": 0.1623320389,
				"y": -0.3073819201,
				"z": -0.8589489965,
				"element": "O" 
			},
			{
				"x": 1.4484589736,
				"y": -0.6771105732,
				"z": -0.6132524302,
				"element": "C" 
			},
			{
				"x": 1.9224224183,
				"y": -0.6329360864,
				"z": 0.6230011584,
				"element": "N" 
			},
			{
				"x": 3.1998200572,
				"y": -0.9904283227,
				"z": 0.8092541165,
				"element": "C" 
			},
			{
				"x": 4.0390462134,
				"y": -1.3980328717,
				"z": -0.2232178544,
				"element": "C" 
			},
			{
				"x": 3.5163588756,
				"y": -1.4382954779,
				"z": -1.5258128875,
				"element": "C" 
			},
			{
				"x": 2.1992612231,
				"y": -1.0748868759,
				"z": -1.7343064024,
				"element": "C" 
			},
			{
				"x": 5.4747488483,
				"y": -1.7486123685,
				"z": 0.025579607,
				"element": "C" 
			},
			{
				"x": 5.7247313946,
				"y": -1.9683246956,
				"z": 1.3341201917,
				"element": "F" 
			},
			{
				"x": 5.8382074418,
				"y": -2.8616836693,
				"z": -0.653718591,
				"element": "F" 
			},
			{
				"x": 6.3109189523,
				"y": -0.7627255699,
				"z": -0.3792503151,
				"element": "F" 
			},
			{
				"x": -1.1961334168,
				"y": 1.2748486755,
				"z": 0.3465160109,
				"element": "C" 
			},
			{
				"x": -2.1180732674,
				"y": 1.5648513893,
				"z": 1.3500700289,
				"element": "C" 
			},
			{
				"x": -3.5726632913,
				"y": 1.8041627165,
				"z": 3.492911253,
				"element": "H" 
			},
			{
				"x": -3.4939610285,
				"y": 0.2155133333,
				"z": 4.0158230041,
				"element": "H" 
			},
			{
				"x": -2.3221712542,
				"y": -1.5414686573,
				"z": 2.7576456025,
				"element": "H" 
			},
			{
				"x": 3.5651627763,
				"y": -0.9528601475,
				"z": 1.8316728358,
				"element": "H" 
			},
			{
				"x": 4.1383386253,
				"y": -1.7603502795,
				"z": -2.3549154121,
				"element": "H" 
			},
			{
				"x": 1.7387550379,
				"y": -1.092423366,
				"z": -2.7149469817,
				"element": "H" 
			},
			{
				"x": -0.8667434853,
				"y": 2.0451867057,
				"z": -0.3430416054,
				"element": "H" 
			},
			{
				"x": -2.5152984474,
				"y": 2.5715648363,
				"z": 1.4425004119,
				"element": "H" 
			}
		],
		 "valence_orbital": [ 
			{
				"type": "occ",
				"energy": -0.29983,
				"method": "rhf"
			},
			{
				"type": "occ",
				"energy": -0.27754,
				"method": "rhf"
			},
			{
				"type": "occ",
				"energy": -0.25255,
				"method": "rhf"
			},
			{
				"type": "occ",
				"energy": -0.24937,
				"method": "rhf"
			},
			{
				"type": "occ",
				"energy": -0.20631,
				"method": "rhf"
			},
			{
				"type": "unocc",
				"energy": -0.03529,
				"method": "rhf"
			},
			{
				"type": "unocc",
				"energy": -0.02339,
				"method": "rhf"
			},
			{
				"type": "unocc",
				"energy": -0.00244,
				"method": "rhf"
			},
			{
				"type": "unocc",
				"energy": 0.01375,
				"method": "rhf"
			},
			{
				"type": "unocc",
				"energy": 0.07122,
				"method": "rhf"
			}
		],
		"cosmo_sigma_profile": { 
			"-0.025": 0.0,
			"-0.024": 0.0,
			"-0.023": 0.0,
			"-0.022": 0.0,
			"-0.021": 0.0,
			"-0.02": 0.0,
			"-0.019": 0.0,
			"-0.018": 0.0,
			"-0.017": 0.0,
			"-0.016": 0.0,
			"-0.015": 0.0,
			"-0.014": 0.0,
			"-0.013": 1.0984294619,
			"-0.012": 2.73941714266,
			"-0.011": 3.50190616672,
			"-0.01": 3.39197251617,
			"-0.009": 3.70530885346,
			"-0.008": 7.15661364076,
			"-0.007": 11.5885593856,
			"-0.006": 10.7429658723,
			"-0.005": 10.8139711415,
			"-0.004": 11.6083207379,
			"-0.003": 10.310285753,
			"-0.002": 12.1359023482,
			"-0.001": 17.5726329856,
			"0.0": 24.1563060912,
			"0.001": 21.6729264799,
			"0.002": 30.9857039309,
			"0.003": 39.732815697,
			"0.004": 21.5101606352,
			"0.005": 10.6826084617,
			"0.006": 6.53242564114,
			"0.007": 3.7055522274,
			"0.008": 3.32023439128,
			"0.009": 1.84630919768,
			"0.01": 1.31321861625,
			"0.011": 2.08645199314,
			"0.012": 1.70225767898,
			"0.013": 0.975692834388,
			"0.014": 0.461276052823,
			"0.015": 0.0344198193098,
			"0.016": 0.0,
			"0.017": 0.0,
			"0.018": 0.0,
			"0.019": 0.0,
			"0.02": 0.0,
			"0.021": 0.0,
			"0.022": 0.0,
			"0.023": 0.0,
			"0.024": 0.0,
			"0.025": 0.0
		}
	}
}
