{
	 "smiles": "OCC(=O)C1=CC=CC=C1", 
	 "Tm": 278.4, 
	 "num_atms": 18, 
	 "gaussian": { 
		 "optdone": 1, 
		 "sigma_profile": "yes", 
		 "theory": "DFT", 
		 "functional": "B3LYP", 
		 "basiset": "6-31G**", 
		 "properties": { 
			 "R2extent": 2127.4279, 
			 "electric_dipole_moment_norm": 4.02086522281, 
			 "electric_quadrupole_moment_norm": 9.39888660587, 
			 "total_energy": -460.110765896, 
			 "HOMO_LUMO_gap": 0.19234, 
			 "cosmo_polarized_energy": -9.24, 
			 "cosmo_cavitation_energy": 21.9, 
			 "cosmo_dispersion_energy": -16.44, 
			 "cosmo_repulsion_energy": 1.33, 
			 "cosmo_total_nonelectrostatic_energy": 6.79, 
			 "SMD_solvation_energy": 4.3 
		},
		"coords": [
			{
				"x": 2.303239053,
				"y": 2.5534945784,
				"z": 3.188131909,
				"element": "O" 
			},
			{
				"x": 1.9515493402,
				"y": 1.6171172091,
				"z": 2.2123420392,
				"element": "C" 
			},
			{
				"x": 0.4692064242,
				"y": 1.7336116803,
				"z": 1.8547387209,
				"element": "C" 
			},
			{
				"x": -0.191358585,
				"y": 2.5874180089,
				"z": 2.436615415,
				"element": "O" 
			},
			{
				"x": -0.1324546057,
				"y": 0.833742091,
				"z": 0.8342741424,
				"element": "C" 
			},
			{
				"x": 0.618010885,
				"y": -0.1459957658,
				"z": 0.1646019783,
				"element": "C" 
			},
			{
				"x": 0.0111201661,
				"y": -0.9670127362,
				"z": -0.7843368203,
				"element": "C" 
			},
			{
				"x": -1.3474517355,
				"y": -0.8166168309,
				"z": -1.0717090193,
				"element": "C" 
			},
			{
				"x": -2.1014046595,
				"y": 0.1568449359,
				"z": -0.4089908188,
				"element": "C" 
			},
			{
				"x": -1.4977677131,
				"y": 0.9774606444,
				"z": 0.5385708029,
				"element": "C" 
			},
			{
				"x": 1.478057999,
				"y": 3.0374158652,
				"z": 3.3764166998,
				"element": "H" 
			},
			{
				"x": 2.1489854571,
				"y": 0.5889422899,
				"z": 2.5587012736,
				"element": "H" 
			},
			{
				"x": 2.5458901494,
				"y": 1.7577048463,
				"z": 1.2941452098,
				"element": "H" 
			},
			{
				"x": 1.6745011746,
				"y": -0.2728759413,
				"z": 0.3789372969,
				"element": "H" 
			},
			{
				"x": 0.5964046204,
				"y": -1.7229861761,
				"z": -1.2990836204,
				"element": "H" 
			},
			{
				"x": -1.8184565099,
				"y": -1.457474678,
				"z": -1.8115740317,
				"element": "H" 
			},
			{
				"x": -3.1575944559,
				"y": 0.2727642247,
				"z": -0.6333385603,
				"element": "H" 
			},
			{
				"x": -2.0607770043,
				"y": 1.7399457544,
				"z": 1.066357383,
				"element": "H" 
			}
		],
		 "valence_orbital": [ 
			{
				"type": "occ",
				"energy": -0.33827,
				"method": "rhf"
			},
			{
				"type": "occ",
				"energy": -0.27596,
				"method": "rhf"
			},
			{
				"type": "occ",
				"energy": -0.27236,
				"method": "rhf"
			},
			{
				"type": "occ",
				"energy": -0.269,
				"method": "rhf"
			},
			{
				"type": "occ",
				"energy": -0.26102,
				"method": "rhf"
			},
			{
				"type": "unocc",
				"energy": -0.06868,
				"method": "rhf"
			},
			{
				"type": "unocc",
				"energy": -0.0191,
				"method": "rhf"
			},
			{
				"type": "unocc",
				"energy": 0.02998,
				"method": "rhf"
			},
			{
				"type": "unocc",
				"energy": 0.07959,
				"method": "rhf"
			},
			{
				"type": "unocc",
				"energy": 0.10963,
				"method": "rhf"
			}
		],
		"cosmo_sigma_profile": { 
			"-0.025": 0.0,
			"-0.024": 0.0,
			"-0.023": 0.0,
			"-0.022": 0.0,
			"-0.021": 0.0,
			"-0.02": 0.0,
			"-0.019": 0.0,
			"-0.018": 0.0,
			"-0.017": 0.0,
			"-0.016": 0.0,
			"-0.015": 0.0,
			"-0.014": 0.0,
			"-0.013": 0.0,
			"-0.012": 0.0,
			"-0.011": 0.0,
			"-0.01": 0.32309661613,
			"-0.009": 0.434686784753,
			"-0.008": 1.28884171892,
			"-0.007": 7.71986734831,
			"-0.006": 18.6787093537,
			"-0.005": 15.7654566259,
			"-0.004": 12.962400733,
			"-0.003": 10.1480499744,
			"-0.002": 11.2484047155,
			"-0.001": 10.1703893868,
			"0.0": 9.70466764157,
			"0.001": 11.6049267921,
			"0.002": 12.4888930429,
			"0.003": 13.9423872139,
			"0.004": 11.5068342729,
			"0.005": 2.84636699772,
			"0.006": 1.83582632563,
			"0.007": 2.74144881585,
			"0.008": 3.06904983415,
			"0.009": 3.15495891584,
			"0.01": 3.38623044762,
			"0.011": 3.65925958404,
			"0.012": 1.40629664251,
			"0.013": 1.97914430433,
			"0.014": 2.38613120067,
			"0.015": 0.23699225393,
			"0.016": 0.0,
			"0.017": 0.0,
			"0.018": 0.0,
			"0.019": 0.0,
			"0.02": 0.0,
			"0.021": 0.0,
			"0.022": 0.0,
			"0.023": 0.0,
			"0.024": 0.0,
			"0.025": 0.0
		}
	}
}
