{
	 "smiles": "CC1=CC=C(CNC(N)=O)C=C1", 
	 "Tm": 458.15, 
	 "num_atms": 24, 
	 "gaussian": { 
		 "optdone": 1, 
		 "sigma_profile": "yes", 
		 "theory": "DFT", 
		 "functional": "B3LYP", 
		 "basiset": "6-31G**", 
		 "properties": { 
			 "R2extent": 3303.162, 
			 "electric_dipole_moment_norm": 4.26603554369, 
			 "electric_quadrupole_moment_norm": 18.0185351413, 
			 "total_energy": -534.951751986, 
			 "HOMO_LUMO_gap": 0.22486, 
			 "cosmo_polarized_energy": -13.98, 
			 "cosmo_cavitation_energy": 27.51, 
			 "cosmo_dispersion_energy": -19.79, 
			 "cosmo_repulsion_energy": 1.61, 
			 "cosmo_total_nonelectrostatic_energy": 9.33, 
			 "SMD_solvation_energy": 5.33 
		},
		"coords": [
			{
				"x": 2.1651002962,
				"y": 1.7623081231,
				"z": 3.5888813339,
				"element": "C" 
			},
			{
				"x": 1.0244437595,
				"y": 1.4233534947,
				"z": 2.6582966522,
				"element": "C" 
			},
			{
				"x": -0.2600614621,
				"y": 1.9391009496,
				"z": 2.8670477395,
				"element": "C" 
			},
			{
				"x": -1.3044421697,
				"y": 1.6481327838,
				"z": 1.9875877991,
				"element": "C" 
			},
			{
				"x": -1.0981920681,
				"y": 0.8227721865,
				"z": 0.8765533316,
				"element": "C" 
			},
			{
				"x": -2.2611684613,
				"y": 0.4629323806,
				"z": -0.0392216403,
				"element": "C" 
			},
			{
				"x": -1.8995860569,
				"y": 0.3161964903,
				"z": -1.4442824111,
				"element": "N" 
			},
			{
				"x": -1.7240856685,
				"y": 1.3710692398,
				"z": -2.3279282847,
				"element": "C" 
			},
			{
				"x": -1.5182656121,
				"y": 2.6054757696,
				"z": -1.7332952363,
				"element": "N" 
			},
			{
				"x": -1.7721718934,
				"y": 1.2134826197,
				"z": -3.540928681,
				"element": "O" 
			},
			{
				"x": 0.1865993317,
				"y": 0.306914822,
				"z": 0.6610107428,
				"element": "C" 
			},
			{
				"x": 1.2272956286,
				"y": 0.6027432541,
				"z": 1.5387923991,
				"element": "C" 
			},
			{
				"x": 2.8277362656,
				"y": 0.9039575534,
				"z": 3.7384320686,
				"element": "H" 
			},
			{
				"x": 1.8005885896,
				"y": 2.0833215197,
				"z": 4.5689259227,
				"element": "H" 
			},
			{
				"x": 2.7790451044,
				"y": 2.5771013971,
				"z": 3.1849571526,
				"element": "H" 
			},
			{
				"x": -0.446093397,
				"y": 2.581127535,
				"z": 3.7246383796,
				"element": "H" 
			},
			{
				"x": -2.2926031357,
				"y": 2.0644820782,
				"z": 2.1714482928,
				"element": "H" 
			},
			{
				"x": -2.6806367837,
				"y": -0.4988401528,
				"z": 0.2781609778,
				"element": "H" 
			},
			{
				"x": -3.0592495703,
				"y": 1.2078415673,
				"z": 0.0856535036,
				"element": "H" 
			},
			{
				"x": -2.2131024928,
				"y": -0.5144098981,
				"z": -1.9242801117,
				"element": "H" 
			},
			{
				"x": -1.0710570833,
				"y": 2.6357717159,
				"z": -0.8265353138,
				"element": "H" 
			},
			{
				"x": -1.202611461,
				"y": 3.302415452,
				"z": -2.392161068,
				"element": "H" 
			},
			{
				"x": 0.3648485349,
				"y": -0.321836416,
				"z": -0.2064205708,
				"element": "H" 
			},
			{
				"x": 2.2158698055,
				"y": 0.1891855348,
				"z": 1.3529670218,
				"element": "H" 
			}
		],
		 "valence_orbital": [ 
			{
				"type": "occ",
				"energy": -0.26503,
				"method": "rhf"
			},
			{
				"type": "occ",
				"energy": -0.25668,
				"method": "rhf"
			},
			{
				"type": "occ",
				"energy": -0.25144,
				"method": "rhf"
			},
			{
				"type": "occ",
				"energy": -0.24694,
				"method": "rhf"
			},
			{
				"type": "occ",
				"energy": -0.23494,
				"method": "rhf"
			},
			{
				"type": "unocc",
				"energy": -0.01008,
				"method": "rhf"
			},
			{
				"type": "unocc",
				"energy": -0.00876,
				"method": "rhf"
			},
			{
				"type": "unocc",
				"energy": 0.0614,
				"method": "rhf"
			},
			{
				"type": "unocc",
				"energy": 0.08188,
				"method": "rhf"
			},
			{
				"type": "unocc",
				"energy": 0.09551,
				"method": "rhf"
			}
		],
		"cosmo_sigma_profile": { 
			"-0.025": 0.0,
			"-0.024": 0.0,
			"-0.023": 0.0,
			"-0.022": 0.0,
			"-0.021": 0.0,
			"-0.02": 0.0,
			"-0.019": 0.0,
			"-0.018": 0.0,
			"-0.017": 0.0,
			"-0.016": 0.0,
			"-0.015": 0.0,
			"-0.014": 0.08193821918,
			"-0.013": 1.73298678658,
			"-0.012": 2.05352723815,
			"-0.011": 2.67045987828,
			"-0.01": 2.36808799503,
			"-0.009": 3.19110912872,
			"-0.008": 2.40424623954,
			"-0.007": 3.26305226544,
			"-0.006": 6.51244442477,
			"-0.005": 13.2757818438,
			"-0.004": 19.7930913458,
			"-0.003": 21.2779156279,
			"-0.002": 18.8694279691,
			"-0.001": 17.9551282753,
			"0.0": 17.990270669,
			"0.001": 13.4237074712,
			"0.002": 10.7198306302,
			"0.003": 9.21042172996,
			"0.004": 9.55556425983,
			"0.005": 9.85090396308,
			"0.006": 6.52087237354,
			"0.007": 2.54272167124,
			"0.008": 2.09069969436,
			"0.009": 1.75941678048,
			"0.01": 2.15279684384,
			"0.011": 1.05828767768,
			"0.012": 1.40915879673,
			"0.013": 2.08496221932,
			"0.014": 4.95225152368,
			"0.015": 5.52495319855,
			"0.016": 0.363753955666,
			"0.017": 0.0,
			"0.018": 0.0,
			"0.019": 0.0,
			"0.02": 0.0,
			"0.021": 0.0,
			"0.022": 0.0,
			"0.023": 0.0,
			"0.024": 0.0,
			"0.025": 0.0
		}
	}
}
