{
	 "smiles": "[O-][N+](=O)C1=CC=CC(=C1)C1=NN=C2SC(NN12)C=CC1=CC=CC=C1", 
	 "Tm": 464.15, 
	 "num_atms": 38, 
	 "gaussian": { 
		 "optdone": 1, 
		 "sigma_profile": "yes", 
		 "theory": "DFT", 
		 "functional": "B3LYP", 
		 "basiset": "6-31G**", 
		 "properties": { 
			 "R2extent": 12454.4632, 
			 "electric_dipole_moment_norm": 9.632305412, 
			 "electric_quadrupole_moment_norm": 25.6690085878, 
			 "total_energy": -1477.84878965, 
			 "HOMO_LUMO_gap": 0.14396, 
			 "cosmo_polarized_energy": -25.86, 
			 "cosmo_cavitation_energy": 45.75, 
			 "cosmo_dispersion_energy": -32.66, 
			 "cosmo_repulsion_energy": 2.41, 
			 "cosmo_total_nonelectrostatic_energy": 15.5, 
			 "SMD_solvation_energy": 7.0 
		},
		"coords": [
			{
				"x": 3.0635692825,
				"y": 4.2025883453,
				"z": 3.1627946387,
				"element": "O" 
			},
			{
				"x": 3.8602436172,
				"y": 3.7104956823,
				"z": 2.3674729702,
				"element": "N" 
			},
			{
				"x": 5.0817593927,
				"y": 3.854131259,
				"z": 2.41481204,
				"element": "O" 
			},
			{
				"x": 3.3155262351,
				"y": 2.8855604487,
				"z": 1.2714730673,
				"element": "C" 
			},
			{
				"x": 4.2031571142,
				"y": 2.3234989802,
				"z": 0.3533364938,
				"element": "C" 
			},
			{
				"x": 3.6776923722,
				"y": 1.5477188029,
				"z": -0.6760795942,
				"element": "C" 
			},
			{
				"x": 2.3006038767,
				"y": 1.3443983247,
				"z": -0.7816117585,
				"element": "C" 
			},
			{
				"x": 1.4218152922,
				"y": 1.9206068639,
				"z": 0.1509564877,
				"element": "C" 
			},
			{
				"x": 1.9420358472,
				"y": 2.7028149239,
				"z": 1.1943923783,
				"element": "C" 
			},
			{
				"x": -0.0287272508,
				"y": 1.7309335474,
				"z": 0.0908370276,
				"element": "C" 
			},
			{
				"x": -0.8843084169,
				"y": 2.1393970208,
				"z": 1.0135714469,
				"element": "N" 
			},
			{
				"x": -2.1687319098,
				"y": 1.7721217419,
				"z": 0.6480936087,
				"element": "N" 
			},
			{
				"x": -2.0556372503,
				"y": 1.1683191088,
				"z": -0.50624153,
				"element": "C" 
			},
			{
				"x": -3.1273679963,
				"y": 0.3743107902,
				"z": -1.6563929669,
				"element": "S" 
			},
			{
				"x": -1.5708861839,
				"y": -0.4476474705,
				"z": -2.3673662549,
				"element": "C" 
			},
			{
				"x": -0.4660441477,
				"y": 0.5129540147,
				"z": -2.152531974,
				"element": "N" 
			},
			{
				"x": -0.7481755188,
				"y": 1.1123338142,
				"z": -0.9078825735,
				"element": "N" 
			},
			{
				"x": -1.232025505,
				"y": -1.7864754498,
				"z": -1.7693802236,
				"element": "C" 
			},
			{
				"x": -1.9755698706,
				"y": -2.4980813199,
				"z": -0.9118679068,
				"element": "C" 
			},
			{
				"x": -1.6563265214,
				"y": -3.8173509311,
				"z": -0.3478343138,
				"element": "C" 
			},
			{
				"x": -0.5557926831,
				"y": -4.5918665952,
				"z": -0.7601253398,
				"element": "C" 
			},
			{
				"x": -0.3014863579,
				"y": -5.8315444675,
				"z": -0.1818478455,
				"element": "C" 
			},
			{
				"x": -1.1408724356,
				"y": -6.3298057749,
				"z": 0.8196783582,
				"element": "C" 
			},
			{
				"x": -2.2394516206,
				"y": -5.5772675653,
				"z": 1.2355820722,
				"element": "C" 
			},
			{
				"x": -2.4942335968,
				"y": -4.3358380741,
				"z": 0.6549065467,
				"element": "C" 
			},
			{
				"x": 5.2657031145,
				"y": 2.4999509548,
				"z": 0.4603134944,
				"element": "H" 
			},
			{
				"x": 4.3449015388,
				"y": 1.094736509,
				"z": -1.4025049139,
				"element": "H" 
			},
			{
				"x": 1.9040159322,
				"y": 0.7300237337,
				"z": -1.5824006425,
				"element": "H" 
			},
			{
				"x": 1.2829662496,
				"y": 3.1522080541,
				"z": 1.9260052547,
				"element": "H" 
			},
			{
				"x": -1.7202007862,
				"y": -0.5280169903,
				"z": -3.4488506044,
				"element": "H" 
			},
			{
				"x": -0.5344798837,
				"y": 1.254815472,
				"z": -2.8539699081,
				"element": "H" 
			},
			{
				"x": -0.2714952107,
				"y": -2.1591494652,
				"z": -2.1212676933,
				"element": "H" 
			},
			{
				"x": -2.9170916241,
				"y": -2.0687418525,
				"z": -0.5756272978,
				"element": "H" 
			},
			{
				"x": 0.1017566207,
				"y": -4.2279311634,
				"z": -1.5438137168,
				"element": "H" 
			},
			{
				"x": 0.5523316524,
				"y": -6.4148745445,
				"z": -0.5144364011,
				"element": "H" 
			},
			{
				"x": -0.9396190643,
				"y": -7.2982250752,
				"z": 1.2680430006,
				"element": "H" 
			},
			{
				"x": -2.898618007,
				"y": -5.9554875487,
				"z": 2.0113994805,
				"element": "H" 
			},
			{
				"x": -3.3498362963,
				"y": -3.7517141044,
				"z": 0.9837650929,
				"element": "H" 
			}
		],
		 "valence_orbital": [ 
			{
				"type": "occ",
				"energy": -0.28132,
				"method": "rhf"
			},
			{
				"type": "occ",
				"energy": -0.26377,
				"method": "rhf"
			},
			{
				"type": "occ",
				"energy": -0.26321,
				"method": "rhf"
			},
			{
				"type": "occ",
				"energy": -0.24096,
				"method": "rhf"
			},
			{
				"type": "occ",
				"energy": -0.23245,
				"method": "rhf"
			},
			{
				"type": "unocc",
				"energy": -0.08849,
				"method": "rhf"
			},
			{
				"type": "unocc",
				"energy": -0.05498,
				"method": "rhf"
			},
			{
				"type": "unocc",
				"energy": -0.05335,
				"method": "rhf"
			},
			{
				"type": "unocc",
				"energy": -0.02301,
				"method": "rhf"
			},
			{
				"type": "unocc",
				"energy": -0.0125,
				"method": "rhf"
			}
		],
		"cosmo_sigma_profile": { 
			"-0.025": 0.0,
			"-0.024": 0.0,
			"-0.023": 0.0,
			"-0.022": 0.0,
			"-0.021": 0.0,
			"-0.02": 0.0,
			"-0.019": 0.0,
			"-0.018": 0.0,
			"-0.017": 0.0,
			"-0.016": 0.267106077012,
			"-0.015": 2.21655519727,
			"-0.014": 2.1255681344,
			"-0.013": 1.99539762251,
			"-0.012": 1.6899228074,
			"-0.011": 1.91643661555,
			"-0.01": 3.61925065376,
			"-0.009": 3.20931919465,
			"-0.008": 5.67073338886,
			"-0.007": 10.4210595231,
			"-0.006": 20.4678558515,
			"-0.005": 20.4582651693,
			"-0.004": 22.6270016199,
			"-0.003": 22.6618794207,
			"-0.002": 25.9122259783,
			"-0.001": 29.5244749158,
			"0.0": 33.5429495129,
			"0.001": 29.6065250111,
			"0.002": 23.0122965084,
			"0.003": 20.1047880439,
			"0.004": 18.5905166215,
			"0.005": 18.4152854203,
			"0.006": 9.33457675229,
			"0.007": 9.79774455227,
			"0.008": 9.32393210172,
			"0.009": 6.27815273307,
			"0.01": 3.96843941572,
			"0.011": 2.62186054758,
			"0.012": 2.76837374292,
			"0.013": 3.75483283418,
			"0.014": 2.62623723657,
			"0.015": 1.58260788052,
			"0.016": 0.714041681156,
			"0.017": 0.0119699718823,
			"0.018": 0.0,
			"0.019": 0.0,
			"0.02": 0.0,
			"0.021": 0.0,
			"0.022": 0.0,
			"0.023": 0.0,
			"0.024": 0.0,
			"0.025": 0.0
		}
	}
}
