{
	 "smiles": "COC(=O)NC(C)(C)C(O)=O", 
	 "Tm": 428.15, 
	 "num_atms": 22, 
	 "gaussian": { 
		 "optdone": 1, 
		 "sigma_profile": "yes", 
		 "theory": "DFT", 
		 "functional": "B3LYP", 
		 "basiset": "6-31G**", 
		 "properties": { 
			 "R2extent": 2215.1547, 
			 "electric_dipole_moment_norm": 5.6844843548, 
			 "electric_quadrupole_moment_norm": 10.4341913472, 
			 "total_energy": -590.956250746, 
			 "HOMO_LUMO_gap": 0.26444, 
			 "cosmo_polarized_energy": -14.42, 
			 "cosmo_cavitation_energy": 24.99, 
			 "cosmo_dispersion_energy": -18.22, 
			 "cosmo_repulsion_energy": 1.47, 
			 "cosmo_total_nonelectrostatic_energy": 8.25, 
			 "SMD_solvation_energy": 6.77 
		},
		"coords": [
			{
				"x": -4.1666801573,
				"y": 1.9280582632,
				"z": 0.0681620579,
				"element": "C" 
			},
			{
				"x": -2.8400294238,
				"y": 1.8287626688,
				"z": -0.4786495946,
				"element": "O" 
			},
			{
				"x": -1.9578261421,
				"y": 1.1374449357,
				"z": 0.270129554,
				"element": "C" 
			},
			{
				"x": -2.2326091005,
				"y": 0.6647586254,
				"z": 1.3766398366,
				"element": "O" 
			},
			{
				"x": -0.7639280586,
				"y": 1.0264470471,
				"z": -0.357285009,
				"element": "N" 
			},
			{
				"x": 0.5009398374,
				"y": 0.5294933498,
				"z": 0.2355633312,
				"element": "C" 
			},
			{
				"x": 0.8298628019,
				"y": 1.278600639,
				"z": 1.543828143,
				"element": "C" 
			},
			{
				"x": 1.5935036271,
				"y": 0.7762070143,
				"z": -0.8093406433,
				"element": "C" 
			},
			{
				"x": 0.4281953255,
				"y": -1.0022656283,
				"z": 0.5318384185,
				"element": "C" 
			},
			{
				"x": -0.5924312779,
				"y": -1.4213247464,
				"z": 1.2855976661,
				"element": "O" 
			},
			{
				"x": 1.2841620368,
				"y": -1.7636948119,
				"z": 0.1416528784,
				"element": "O" 
			},
			{
				"x": -4.1510844913,
				"y": 2.4608749568,
				"z": 1.0214819623,
				"element": "H" 
			},
			{
				"x": -4.5967485564,
				"y": 0.9354642941,
				"z": 0.2199597924,
				"element": "H" 
			},
			{
				"x": -4.741207685,
				"y": 2.4849687282,
				"z": -0.6715014382,
				"element": "H" 
			},
			{
				"x": -0.7125116093,
				"y": 1.4316474843,
				"z": -1.2809040381,
				"element": "H" 
			},
			{
				"x": 0.9616885639,
				"y": 2.3452132988,
				"z": 1.3372873414,
				"element": "H" 
			},
			{
				"x": 1.7609623084,
				"y": 0.8886301952,
				"z": 1.9649479859,
				"element": "H" 
			},
			{
				"x": 0.0383402665,
				"y": 1.1634427337,
				"z": 2.2856894398,
				"element": "H" 
			},
			{
				"x": 1.6887419914,
				"y": 1.8486721124,
				"z": -1.0093552815,
				"element": "H" 
			},
			{
				"x": 1.3696187684,
				"y": 0.2502026752,
				"z": -1.7416722307,
				"element": "H" 
			},
			{
				"x": 2.5469910787,
				"y": 0.3956642622,
				"z": -0.4441579021,
				"element": "H" 
			},
			{
				"x": -1.2271501039,
				"y": -0.6879680977,
				"z": 1.4862877301,
				"element": "H" 
			}
		],
		 "valence_orbital": [ 
			{
				"type": "occ",
				"energy": -0.32154,
				"method": "rhf"
			},
			{
				"type": "occ",
				"energy": -0.30432,
				"method": "rhf"
			},
			{
				"type": "occ",
				"energy": -0.29682,
				"method": "rhf"
			},
			{
				"type": "occ",
				"energy": -0.29253,
				"method": "rhf"
			},
			{
				"type": "occ",
				"energy": -0.2498,
				"method": "rhf"
			},
			{
				"type": "unocc",
				"energy": 0.01464,
				"method": "rhf"
			},
			{
				"type": "unocc",
				"energy": 0.02542,
				"method": "rhf"
			},
			{
				"type": "unocc",
				"energy": 0.06982,
				"method": "rhf"
			},
			{
				"type": "unocc",
				"energy": 0.09897,
				"method": "rhf"
			},
			{
				"type": "unocc",
				"energy": 0.10372,
				"method": "rhf"
			}
		],
		"cosmo_sigma_profile": { 
			"-0.025": 0.0,
			"-0.024": 0.0,
			"-0.023": 0.0,
			"-0.022": 0.0,
			"-0.021": 0.0,
			"-0.02": 0.0,
			"-0.019": 0.0,
			"-0.018": 0.0,
			"-0.017": 0.0,
			"-0.016": 0.0,
			"-0.015": 0.486231835299,
			"-0.014": 0.595348892807,
			"-0.013": 0.906408549525,
			"-0.012": 1.30337179928,
			"-0.011": 0.674683996662,
			"-0.01": 0.779650540534,
			"-0.009": 1.12112837786,
			"-0.008": 1.0320944538,
			"-0.007": 3.23176439397,
			"-0.006": 8.80092809678,
			"-0.005": 16.2195024157,
			"-0.004": 22.0405866849,
			"-0.003": 22.8989399539,
			"-0.002": 19.7609256543,
			"-0.001": 19.5120277422,
			"0.0": 12.6887109014,
			"0.001": 5.65615525157,
			"0.002": 5.5633603709,
			"0.003": 4.78594313969,
			"0.004": 5.00930644888,
			"0.005": 3.62680812297,
			"0.006": 4.63404831248,
			"0.007": 4.93993473021,
			"0.008": 3.9329684148,
			"0.009": 4.47286838693,
			"0.01": 4.83699902312,
			"0.011": 6.39963115896,
			"0.012": 7.2864439196,
			"0.013": 2.32218420919,
			"0.014": 0.548934769753,
			"0.015": 0.0,
			"0.016": 0.0,
			"0.017": 0.0,
			"0.018": 0.0,
			"0.019": 0.0,
			"0.02": 0.0,
			"0.021": 0.0,
			"0.022": 0.0,
			"0.023": 0.0,
			"0.024": 0.0,
			"0.025": 0.0
		}
	}
}
