{
	 "smiles": "OC(=O)C1=C(S)C=C(F)C=C1", 
	 "Tm": 445.15, 
	 "num_atms": 16, 
	 "gaussian": { 
		 "optdone": 1, 
		 "sigma_profile": "yes", 
		 "theory": "DFT", 
		 "functional": "B3LYP", 
		 "basiset": "6-31G**", 
		 "properties": { 
			 "R2extent": 2901.2947, 
			 "electric_dipole_moment_norm": 3.51101501848, 
			 "electric_quadrupole_moment_norm": 17.731901078, 
			 "total_energy": -918.22948814, 
			 "HOMO_LUMO_gap": 0.20594, 
			 "cosmo_polarized_energy": -11.77, 
			 "cosmo_cavitation_energy": 22.63, 
			 "cosmo_dispersion_energy": -17.27, 
			 "cosmo_repulsion_energy": 1.3, 
			 "cosmo_total_nonelectrostatic_energy": 6.66, 
			 "SMD_solvation_energy": 5.31 
		},
		"coords": [
			{
				"x": 2.2407007842,
				"y": 1.668995595,
				"z": 2.6101536209,
				"element": "O" 
			},
			{
				"x": 1.5907876009,
				"y": 1.609043314,
				"z": 1.4361382713,
				"element": "C" 
			},
			{
				"x": 1.9346946975,
				"y": 2.3159732913,
				"z": 0.5141985008,
				"element": "O" 
			},
			{
				"x": 0.4505752826,
				"y": 0.6213258119,
				"z": 1.2740016686,
				"element": "C" 
			},
			{
				"x": -0.2667431928,
				"y": -0.0543844673,
				"z": 2.286344002,
				"element": "C" 
			},
			{
				"x": 0.0688582476,
				"y": 0.1142194135,
				"z": 4.0607968277,
				"element": "S" 
			},
			{
				"x": -1.2833191368,
				"y": -0.9542744067,
				"z": 1.9526951533,
				"element": "C" 
			},
			{
				"x": -1.5890992032,
				"y": -1.1746390551,
				"z": 0.6148861227,
				"element": "C" 
			},
			{
				"x": -2.5660394533,
				"y": -2.045037991,
				"z": 0.3112590609,
				"element": "F" 
			},
			{
				"x": -0.9206844204,
				"y": -0.512388157,
				"z": -0.4070814426,
				"element": "C" 
			},
			{
				"x": 0.084760974,
				"y": 0.3819312574,
				"z": -0.062015928,
				"element": "C" 
			},
			{
				"x": 1.8589538538,
				"y": 1.0428066031,
				"z": 3.2582846295,
				"element": "H" 
			},
			{
				"x": -0.4614462009,
				"y": 1.3444648049,
				"z": 4.2311364126,
				"element": "H" 
			},
			{
				"x": -1.8407581,
				"y": -1.4744276702,
				"z": 2.7225515801,
				"element": "H" 
			},
			{
				"x": -1.1884950848,
				"y": -0.6996229123,
				"z": -1.4409326326,
				"element": "H" 
			},
			{
				"x": 0.6261533516,
				"y": 0.9264145685,
				"z": -0.8270158472,
				"element": "H" 
			}
		],
		 "valence_orbital": [ 
			{
				"type": "occ",
				"energy": -0.31367,
				"method": "rhf"
			},
			{
				"type": "occ",
				"energy": -0.29678,
				"method": "rhf"
			},
			{
				"type": "occ",
				"energy": -0.28234,
				"method": "rhf"
			},
			{
				"type": "occ",
				"energy": -0.27574,
				"method": "rhf"
			},
			{
				"type": "occ",
				"energy": -0.26886,
				"method": "rhf"
			},
			{
				"type": "unocc",
				"energy": -0.06292,
				"method": "rhf"
			},
			{
				"type": "unocc",
				"energy": -0.04083,
				"method": "rhf"
			},
			{
				"type": "unocc",
				"energy": -0.0011,
				"method": "rhf"
			},
			{
				"type": "unocc",
				"energy": 0.0314,
				"method": "rhf"
			},
			{
				"type": "unocc",
				"energy": 0.04799,
				"method": "rhf"
			}
		],
		"cosmo_sigma_profile": { 
			"-0.025": 0.0,
			"-0.024": 0.0,
			"-0.023": 0.0,
			"-0.022": 0.0,
			"-0.021": 0.0,
			"-0.02": 0.0,
			"-0.019": 0.0,
			"-0.018": 0.0,
			"-0.017": 0.0,
			"-0.016": 0.0,
			"-0.015": 0.0,
			"-0.014": 0.0,
			"-0.013": 0.0,
			"-0.012": 1.3489737352,
			"-0.011": 3.36816677009,
			"-0.01": 2.62264230589,
			"-0.009": 3.40076041151,
			"-0.008": 5.63808081696,
			"-0.007": 6.64630732494,
			"-0.006": 9.14489760433,
			"-0.005": 7.42318843817,
			"-0.004": 8.27300938982,
			"-0.003": 9.86212460098,
			"-0.002": 12.9131791857,
			"-0.001": 17.1186768824,
			"0.0": 17.1353132734,
			"0.001": 16.6285067633,
			"0.002": 11.248209846,
			"0.003": 12.588916431,
			"0.004": 8.07056159981,
			"0.005": 3.81749398855,
			"0.006": 2.488654449,
			"0.007": 2.28803308317,
			"0.008": 3.37057732779,
			"0.009": 2.93796323637,
			"0.01": 4.1103845123,
			"0.011": 5.64243950291,
			"0.012": 4.45536198799,
			"0.013": 1.91678069411,
			"0.014": 0.189500104223,
			"0.015": 0.0,
			"0.016": 0.0,
			"0.017": 0.0,
			"0.018": 0.0,
			"0.019": 0.0,
			"0.02": 0.0,
			"0.021": 0.0,
			"0.022": 0.0,
			"0.023": 0.0,
			"0.024": 0.0,
			"0.025": 0.0
		}
	}
}
