{
	 "smiles": "CCC1=CC=C(NC2=NN=C(SCC(O)=O)S2)C=C1", 
	 "Tm": 524.15, 
	 "num_atms": 32, 
	 "gaussian": { 
		 "optdone": 1, 
		 "sigma_profile": "yes", 
		 "theory": "DFT", 
		 "functional": "B3LYP", 
		 "basiset": "6-31G**", 
		 "properties": { 
			 "R2extent": 10481.137, 
			 "electric_dipole_moment_norm": 3.58446126217, 
			 "electric_quadrupole_moment_norm": 15.3913440729, 
			 "total_energy": -1576.17139322, 
			 "HOMO_LUMO_gap": 0.16313, 
			 "cosmo_polarized_energy": -20.38, 
			 "cosmo_cavitation_energy": 40.81, 
			 "cosmo_dispersion_energy": -29.32, 
			 "cosmo_repulsion_energy": 2.21, 
			 "cosmo_total_nonelectrostatic_energy": 13.7, 
			 "SMD_solvation_energy": 5.25 
		},
		"coords": [
			{
				"x": -5.712398924,
				"y": 0.5358507057,
				"z": -0.5022472657,
				"element": "C" 
			},
			{
				"x": -4.9212245031,
				"y": 1.7383990171,
				"z": -1.0484057772,
				"element": "C" 
			},
			{
				"x": -3.4680317275,
				"y": 1.7308952189,
				"z": -0.6257261802,
				"element": "C" 
			},
			{
				"x": -2.4887157694,
				"y": 1.0980383494,
				"z": -1.3994910068,
				"element": "C" 
			},
			{
				"x": -1.1513260901,
				"y": 1.0539901283,
				"z": -1.0062591236,
				"element": "C" 
			},
			{
				"x": -0.7612018651,
				"y": 1.6378300775,
				"z": 0.2065291683,
				"element": "C" 
			},
			{
				"x": 0.5663229801,
				"y": 1.6457861427,
				"z": 0.6709801437,
				"element": "N" 
			},
			{
				"x": 1.6161601292,
				"y": 0.8155917168,
				"z": 0.415670868,
				"element": "C" 
			},
			{
				"x": 2.7948971504,
				"y": 1.0695438007,
				"z": 0.9600784416,
				"element": "N" 
			},
			{
				"x": 3.7265680219,
				"y": 0.1352145819,
				"z": 0.6600723088,
				"element": "N" 
			},
			{
				"x": 3.2955921831,
				"y": -0.8273873544,
				"z": -0.1020029042,
				"element": "C" 
			},
			{
				"x": 4.2783738158,
				"y": -2.1940382886,
				"z": -0.6212487628,
				"element": "S" 
			},
			{
				"x": 4.7884114794,
				"y": -1.6519887219,
				"z": -2.3173249881,
				"element": "C" 
			},
			{
				"x": 5.5775036159,
				"y": -0.3616817811,
				"z": -2.2969076443,
				"element": "C" 
			},
			{
				"x": 6.8585713089,
				"y": -0.5570735051,
				"z": -1.919327999,
				"element": "O" 
			},
			{
				"x": 5.1173403808,
				"y": 0.7229517705,
				"z": -2.5730191431,
				"element": "O" 
			},
			{
				"x": 1.5773198885,
				"y": -0.6579022686,
				"z": -0.5320244099,
				"element": "S" 
			},
			{
				"x": -1.7305217255,
				"y": 2.2853947554,
				"z": 0.9891322811,
				"element": "C" 
			},
			{
				"x": -3.0560684413,
				"y": 2.3319315585,
				"z": 0.5723795328,
				"element": "C" 
			},
			{
				"x": -6.7574611909,
				"y": 0.5744263661,
				"z": -0.8269972558,
				"element": "H" 
			},
			{
				"x": -5.6973100006,
				"y": 0.520275044,
				"z": 0.5924181745,
				"element": "H" 
			},
			{
				"x": -5.2822612498,
				"y": -0.4081164035,
				"z": -0.8523251046,
				"element": "H" 
			},
			{
				"x": -4.9825426895,
				"y": 1.7428538633,
				"z": -2.1432484303,
				"element": "H" 
			},
			{
				"x": -5.3957663214,
				"y": 2.6666175069,
				"z": -0.7080026887,
				"element": "H" 
			},
			{
				"x": -2.7689354405,
				"y": 0.6412974186,
				"z": -2.3455609487,
				"element": "H" 
			},
			{
				"x": -0.4197244367,
				"y": 0.5998513197,
				"z": -1.6637671374,
				"element": "H" 
			},
			{
				"x": 0.8030150268,
				"y": 2.3435362095,
				"z": 1.365660796,
				"element": "H" 
			},
			{
				"x": 3.9088982428,
				"y": -1.5190462666,
				"z": -2.9471521291,
				"element": "H" 
			},
			{
				"x": 5.3985809191,
				"y": -2.4780806047,
				"z": -2.6909530064,
				"element": "H" 
			},
			{
				"x": 7.2669237297,
				"y": 0.3235274727,
				"z": -1.869493809,
				"element": "H" 
			},
			{
				"x": -1.4391306466,
				"y": 2.7480524987,
				"z": 1.928815961,
				"element": "H" 
			},
			{
				"x": -3.7868578504,
				"y": 2.8426596716,
				"z": 1.1946480391,
				"element": "H" 
			}
		],
		 "valence_orbital": [ 
			{
				"type": "occ",
				"energy": -0.26903,
				"method": "rhf"
			},
			{
				"type": "occ",
				"energy": -0.26654,
				"method": "rhf"
			},
			{
				"type": "occ",
				"energy": -0.26234,
				"method": "rhf"
			},
			{
				"type": "occ",
				"energy": -0.24809,
				"method": "rhf"
			},
			{
				"type": "occ",
				"energy": -0.21183,
				"method": "rhf"
			},
			{
				"type": "unocc",
				"energy": -0.0487,
				"method": "rhf"
			},
			{
				"type": "unocc",
				"energy": -0.01878,
				"method": "rhf"
			},
			{
				"type": "unocc",
				"energy": -0.0152,
				"method": "rhf"
			},
			{
				"type": "unocc",
				"energy": 0.00167,
				"method": "rhf"
			},
			{
				"type": "unocc",
				"energy": 0.00507,
				"method": "rhf"
			}
		],
		"cosmo_sigma_profile": { 
			"-0.025": 0.0,
			"-0.024": 0.0,
			"-0.023": 0.0,
			"-0.022": 0.0,
			"-0.021": 0.0,
			"-0.02": 0.0,
			"-0.019": 0.319817045182,
			"-0.018": 1.07360465973,
			"-0.017": 1.12712910007,
			"-0.016": 0.739479123437,
			"-0.015": 2.02017042468,
			"-0.014": 1.1872080458,
			"-0.013": 1.54235501242,
			"-0.012": 1.83034240166,
			"-0.011": 2.94198236378,
			"-0.01": 1.71191815992,
			"-0.009": 4.16060070025,
			"-0.008": 4.87857820573,
			"-0.007": 7.31588508974,
			"-0.006": 11.1792411446,
			"-0.005": 16.5275906541,
			"-0.004": 18.122668792,
			"-0.003": 23.7437811714,
			"-0.002": 26.7787963946,
			"-0.001": 32.3180259106,
			"0.0": 28.6375271582,
			"0.001": 28.0420093368,
			"0.002": 18.587015167,
			"0.003": 13.7492554432,
			"0.004": 15.6168890889,
			"0.005": 16.722298253,
			"0.006": 7.08761140109,
			"0.007": 7.28919892137,
			"0.008": 5.58538933102,
			"0.009": 6.04688838778,
			"0.01": 5.13036996903,
			"0.011": 7.62853469502,
			"0.012": 4.6973055463,
			"0.013": 2.61441875198,
			"0.014": 1.65985800894,
			"0.015": 0.105043002639,
			"0.016": 0.0,
			"0.017": 0.0,
			"0.018": 0.0,
			"0.019": 0.0,
			"0.02": 0.0,
			"0.021": 0.0,
			"0.022": 0.0,
			"0.023": 0.0,
			"0.024": 0.0,
			"0.025": 0.0
		}
	}
}
