{
	 "smiles": "CN1C=CC=CC1=S", 
	 "Tm": 362.65, 
	 "num_atms": 15, 
	 "gaussian": { 
		 "optdone": 1, 
		 "sigma_profile": "yes", 
		 "theory": "DFT", 
		 "functional": "B3LYP", 
		 "basiset": "6-31G**", 
		 "properties": { 
			 "R2extent": 1343.705, 
			 "electric_dipole_moment_norm": 5.55642602848, 
			 "electric_quadrupole_moment_norm": 12.205025866, 
			 "total_energy": -685.791893592, 
			 "HOMO_LUMO_gap": 0.14479, 
			 "cosmo_polarized_energy": -15.14, 
			 "cosmo_cavitation_energy": 19.94, 
			 "cosmo_dispersion_energy": -15.43, 
			 "cosmo_repulsion_energy": 1.21, 
			 "cosmo_total_nonelectrostatic_energy": 5.71, 
			 "SMD_solvation_energy": 2.96 
		},
		"coords": [
			{
				"x": -0.6207561596,
				"y": 2.5653835888,
				"z": 1.1607201295,
				"element": "C" 
			},
			{
				"x": -0.4027335092,
				"y": 1.2674839496,
				"z": 0.5141830869,
				"element": "N" 
			},
			{
				"x": -0.75339776,
				"y": 0.1253070243,
				"z": 1.1833376375,
				"element": "C" 
			},
			{
				"x": -0.5789801049,
				"y": -1.1162264368,
				"z": 0.6425760755,
				"element": "C" 
			},
			{
				"x": -0.0147551711,
				"y": -1.2054743094,
				"z": -0.6556130547,
				"element": "C" 
			},
			{
				"x": 0.3364531566,
				"y": -0.0642625789,
				"z": -1.3260253263,
				"element": "C" 
			},
			{
				"x": 0.1580784224,
				"y": 1.2449977564,
				"z": -0.7680944839,
				"element": "C" 
			},
			{
				"x": 0.5842685996,
				"y": 2.6596133951,
				"z": -1.5783643747,
				"element": "S" 
			},
			{
				"x": -1.0607283145,
				"y": 2.3984762115,
				"z": 2.1446040477,
				"element": "H" 
			},
			{
				"x": -1.2818659549,
				"y": 3.1780551758,
				"z": 0.5439010212,
				"element": "H" 
			},
			{
				"x": 0.3292473035,
				"y": 3.0967247573,
				"z": 1.250569222,
				"element": "H" 
			},
			{
				"x": -1.1777152668,
				"y": 0.2747450585,
				"z": 2.1689136548,
				"element": "H" 
			},
			{
				"x": -0.8695582516,
				"y": -1.9950901091,
				"z": 1.2047525125,
				"element": "H" 
			},
			{
				"x": 0.1380507055,
				"y": -2.1770727346,
				"z": -1.1161991878,
				"element": "H" 
			},
			{
				"x": 0.769192305,
				"y": -0.1023607485,
				"z": -2.3181609602,
				"element": "H" 
			}
		],
		 "valence_orbital": [ 
			{
				"type": "occ",
				"energy": -0.34635,
				"method": "rhf"
			},
			{
				"type": "occ",
				"energy": -0.30605,
				"method": "rhf"
			},
			{
				"type": "occ",
				"energy": -0.30255,
				"method": "rhf"
			},
			{
				"type": "occ",
				"energy": -0.19895,
				"method": "rhf"
			},
			{
				"type": "occ",
				"energy": -0.19674,
				"method": "rhf"
			},
			{
				"type": "unocc",
				"energy": -0.05195,
				"method": "rhf"
			},
			{
				"type": "unocc",
				"energy": -0.02005,
				"method": "rhf"
			},
			{
				"type": "unocc",
				"energy": 0.06498,
				"method": "rhf"
			},
			{
				"type": "unocc",
				"energy": 0.10269,
				"method": "rhf"
			},
			{
				"type": "unocc",
				"energy": 0.11194,
				"method": "rhf"
			}
		],
		"cosmo_sigma_profile": { 
			"-0.025": 0.0,
			"-0.024": 0.0,
			"-0.023": 0.0,
			"-0.022": 0.0,
			"-0.021": 0.0,
			"-0.02": 0.0,
			"-0.019": 0.0,
			"-0.018": 0.0,
			"-0.017": 0.0,
			"-0.016": 0.0,
			"-0.015": 0.0,
			"-0.014": 0.0,
			"-0.013": 0.0,
			"-0.012": 0.0,
			"-0.011": 1.0358939589,
			"-0.01": 2.81941933015,
			"-0.009": 2.63849309342,
			"-0.008": 5.69256180175,
			"-0.007": 9.48460195982,
			"-0.006": 9.92099265966,
			"-0.005": 12.2149108676,
			"-0.004": 13.1918714916,
			"-0.003": 14.0558250203,
			"-0.002": 7.96361814279,
			"-0.001": 8.76667460889,
			"0.0": 8.21556362638,
			"0.001": 9.55393231571,
			"0.002": 10.8143098851,
			"0.003": 3.70790485883,
			"0.004": 3.01627994708,
			"0.005": 3.68644457599,
			"0.006": 3.85448555216,
			"0.007": 3.43619157473,
			"0.008": 3.85407418216,
			"0.009": 3.76938718633,
			"0.01": 4.74036104545,
			"0.011": 8.35992158821,
			"0.012": 4.04783772882,
			"0.013": 2.54616890961,
			"0.014": 0.591596439665,
			"0.015": 0.0,
			"0.016": 0.0,
			"0.017": 0.0,
			"0.018": 0.0,
			"0.019": 0.0,
			"0.02": 0.0,
			"0.021": 0.0,
			"0.022": 0.0,
			"0.023": 0.0,
			"0.024": 0.0,
			"0.025": 0.0
		}
	}
}
