{
	 "smiles": "NC1=CC=C(OCC2=CC=NC=C2)C=C1", 
	 "Tm": 403.15, 
	 "num_atms": 27, 
	 "gaussian": { 
		 "optdone": 1, 
		 "sigma_profile": "yes", 
		 "theory": "DFT", 
		 "functional": "B3LYP", 
		 "basiset": "6-31G**", 
		 "properties": { 
			 "R2extent": 4048.0684, 
			 "electric_dipole_moment_norm": 3.56848721309, 
			 "electric_quadrupole_moment_norm": 11.3132011606, 
			 "total_energy": -649.219041129, 
			 "HOMO_LUMO_gap": 0.16476, 
			 "cosmo_polarized_energy": -13.96, 
			 "cosmo_cavitation_energy": 31.03, 
			 "cosmo_dispersion_energy": -22.43, 
			 "cosmo_repulsion_energy": 1.77, 
			 "cosmo_total_nonelectrostatic_energy": 10.36, 
			 "SMD_solvation_energy": 3.93 
		},
		"coords": [
			{
				"x": -2.0216414967,
				"y": 3.713110262,
				"z": 1.7470517839,
				"element": "N" 
			},
			{
				"x": -1.6589235392,
				"y": 2.6692714792,
				"z": 0.8818657656,
				"element": "C" 
			},
			{
				"x": -2.5886207692,
				"y": 2.1301517935,
				"z": -0.0252699559,
				"element": "C" 
			},
			{
				"x": -2.2502644101,
				"y": 1.0587810949,
				"z": -0.8424721062,
				"element": "C" 
			},
			{
				"x": -0.9740528288,
				"y": 0.4881948401,
				"z": -0.7757177598,
				"element": "C" 
			},
			{
				"x": -0.7473300892,
				"y": -0.5701344471,
				"z": -1.63320276,
				"element": "O" 
			},
			{
				"x": 0.5785620487,
				"y": -1.0430089058,
				"z": -1.7940610254,
				"element": "C" 
			},
			{
				"x": 1.0377608642,
				"y": -2.0002418937,
				"z": -0.7099058767,
				"element": "C" 
			},
			{
				"x": 0.1279081582,
				"y": -2.7093986551,
				"z": 0.0772797643,
				"element": "C" 
			},
			{
				"x": 0.6165940973,
				"y": -3.6121317621,
				"z": 1.0222982533,
				"element": "C" 
			},
			{
				"x": 1.9180869416,
				"y": -3.8538287128,
				"z": 1.2257905785,
				"element": "N" 
			},
			{
				"x": 2.782513245,
				"y": -3.1706925332,
				"z": 0.4647907806,
				"element": "C" 
			},
			{
				"x": 2.3996232439,
				"y": -2.2419399776,
				"z": -0.5027346571,
				"element": "C" 
			},
			{
				"x": -0.0416451424,
				"y": 1.0064078163,
				"z": 0.126007564,
				"element": "C" 
			},
			{
				"x": -0.3855322343,
				"y": 2.0885203054,
				"z": 0.940319902,
				"element": "C" 
			},
			{
				"x": -2.7615443907,
				"y": 4.3063138145,
				"z": 1.3951193475,
				"element": "H" 
			},
			{
				"x": -1.2433409121,
				"y": 4.2673974808,
				"z": 2.0789105471,
				"element": "H" 
			},
			{
				"x": -3.5864263126,
				"y": 2.5575928617,
				"z": -0.0884351837,
				"element": "H" 
			},
			{
				"x": -2.9662960777,
				"y": 0.6510729535,
				"z": -1.5489202625,
				"element": "H" 
			},
			{
				"x": 0.5726336669,
				"y": -1.5706875337,
				"z": -2.7551732927,
				"element": "H" 
			},
			{
				"x": 1.2840202677,
				"y": -0.2056209613,
				"z": -1.887016154,
				"element": "H" 
			},
			{
				"x": -0.9384501475,
				"y": -2.5519370176,
				"z": -0.0419797979,
				"element": "H" 
			},
			{
				"x": -0.0767582829,
				"y": -4.1708387317,
				"z": 1.6489599934,
				"element": "H" 
			},
			{
				"x": 3.8383894935,
				"y": -3.371346247,
				"z": 0.6400560203,
				"element": "H" 
			},
			{
				"x": 3.1553548196,
				"y": -1.7164396232,
				"z": -1.081504189,
				"element": "H" 
			},
			{
				"x": 0.9470372705,
				"y": 0.5729544748,
				"z": 0.2210598338,
				"element": "H" 
			},
			{
				"x": 0.3490425164,
				"y": 2.4765778252,
				"z": 1.6417828863,
				"element": "H" 
			}
		],
		 "valence_orbital": [ 
			{
				"type": "occ",
				"energy": -0.276,
				"method": "rhf"
			},
			{
				"type": "occ",
				"energy": -0.26048,
				"method": "rhf"
			},
			{
				"type": "occ",
				"energy": -0.25094,
				"method": "rhf"
			},
			{
				"type": "occ",
				"energy": -0.24709,
				"method": "rhf"
			},
			{
				"type": "occ",
				"energy": -0.18816,
				"method": "rhf"
			},
			{
				"type": "unocc",
				"energy": -0.0234,
				"method": "rhf"
			},
			{
				"type": "unocc",
				"energy": -0.01093,
				"method": "rhf"
			},
			{
				"type": "unocc",
				"energy": 0.00194,
				"method": "rhf"
			},
			{
				"type": "unocc",
				"energy": 0.02852,
				"method": "rhf"
			},
			{
				"type": "unocc",
				"energy": 0.081,
				"method": "rhf"
			}
		],
		"cosmo_sigma_profile": { 
			"-0.025": 0.0,
			"-0.024": 0.0,
			"-0.023": 0.0,
			"-0.022": 0.0,
			"-0.021": 0.0,
			"-0.02": 0.0,
			"-0.019": 0.0,
			"-0.018": 0.0,
			"-0.017": 0.0,
			"-0.016": 0.0,
			"-0.015": 0.0,
			"-0.014": 0.0,
			"-0.013": 0.00821422555929,
			"-0.012": 1.4791202111,
			"-0.011": 3.43601279779,
			"-0.01": 2.04805358796,
			"-0.009": 2.7667519233,
			"-0.008": 3.46748019115,
			"-0.007": 9.22433004421,
			"-0.006": 19.2359061829,
			"-0.005": 20.9271878553,
			"-0.004": 16.9694053851,
			"-0.003": 16.3039396924,
			"-0.002": 12.3781153084,
			"-0.001": 11.9209894032,
			"0.0": 12.4374676682,
			"0.001": 13.849614145,
			"0.002": 19.0026970931,
			"0.003": 17.2336800546,
			"0.004": 12.1773447673,
			"0.005": 12.7050798893,
			"0.006": 12.749824175,
			"0.007": 7.56132480288,
			"0.008": 3.00311251793,
			"0.009": 2.86078884833,
			"0.01": 3.08528516453,
			"0.011": 2.64190381699,
			"0.012": 1.80933763618,
			"0.013": 1.23259119917,
			"0.014": 1.41698880213,
			"0.015": 1.70672848308,
			"0.016": 1.07492067459,
			"0.017": 0.514071227465,
			"0.018": 0.0,
			"0.019": 0.0,
			"0.02": 0.0,
			"0.021": 0.0,
			"0.022": 0.0,
			"0.023": 0.0,
			"0.024": 0.0,
			"0.025": 0.0
		}
	}
}
