{
	 "smiles": "OC(=O)C1=CC(Br)=C(C=C1Br)C(O)=O", 
	 "Tm": 589.15, 
	 "num_atms": 18, 
	 "gaussian": { 
		 "optdone": 1, 
		 "sigma_profile": "yes", 
		 "theory": "DFT", 
		 "functional": "B3LYP", 
		 "basiset": "6-31G**", 
		 "properties": { 
			 "R2extent": 5595.2823, 
			 "electric_dipole_moment_norm": 0.00194164878389, 
			 "electric_quadrupole_moment_norm": 25.6415304106, 
			 "total_energy": -5750.97089431, 
			 "HOMO_LUMO_gap": 0.17887, 
			 "cosmo_polarized_energy": -15.38, 
			 "cosmo_cavitation_energy": 27.6, 
			 "cosmo_dispersion_energy": -21.48, 
			 "cosmo_repulsion_energy": 1.65, 
			 "cosmo_total_nonelectrostatic_energy": 7.78, 
			 "SMD_solvation_energy": 5.07 
		},
		"coords": [
			{
				"x": -0.7113975796,
				"y": -0.898075727,
				"z": -3.6412690222,
				"element": "O" 
			},
			{
				"x": -0.8483763075,
				"y": -1.4153696796,
				"z": -2.4151027453,
				"element": "C" 
			},
			{
				"x": -1.069417241,
				"y": -2.5965800388,
				"z": -2.2723186726,
				"element": "O" 
			},
			{
				"x": -0.724611947,
				"y": -0.5093887342,
				"z": -1.1936189223,
				"element": "C" 
			},
			{
				"x": -0.8896609734,
				"y": -1.1888390452,
				"z": 0.0213677312,
				"element": "C" 
			},
			{
				"x": -0.8139157374,
				"y": -0.5451474311,
				"z": 1.2493104083,
				"element": "C" 
			},
			{
				"x": -1.0730085443,
				"y": -1.6829640549,
				"z": 2.7778326785,
				"element": "Br" 
			},
			{
				"x": -0.5652002529,
				"y": 0.8351188711,
				"z": 1.3336792831,
				"element": "C" 
			},
			{
				"x": -0.400181007,
				"y": 1.5145750897,
				"z": 0.1186919167,
				"element": "C" 
			},
			{
				"x": -0.4758680639,
				"y": 0.8708733525,
				"z": -1.1092491011,
				"element": "C" 
			},
			{
				"x": -0.2166820066,
				"y": 2.0086790873,
				"z": -2.6377640058,
				"element": "Br" 
			},
			{
				"x": -0.4415495122,
				"y": 1.7411123991,
				"z": 2.5551650637,
				"element": "C" 
			},
			{
				"x": -0.5775343319,
				"y": 1.2236229465,
				"z": 3.7813592171,
				"element": "O" 
			},
			{
				"x": -0.2213885099,
				"y": 2.9224848265,
				"z": 2.4123643202,
				"element": "O" 
			},
			{
				"x": -0.5368032733,
				"y": 0.0602549779,
				"z": -3.6225507869,
				"element": "H" 
			},
			{
				"x": -1.0817537808,
				"y": -2.2530863274,
				"z": -0.0363888917,
				"element": "H" 
			},
			{
				"x": -0.2081812776,
				"y": 2.5788390721,
				"z": 0.1764455538,
				"element": "H" 
			},
			{
				"x": -0.7515696538,
				"y": 0.2651904156,
				"z": 3.7626459751,
				"element": "H" 
			}
		],
		 "valence_orbital": [ 
			{
				"type": "occ",
				"energy": -0.32454,
				"method": "rhf"
			},
			{
				"type": "occ",
				"energy": -0.30204,
				"method": "rhf"
			},
			{
				"type": "occ",
				"energy": -0.3002,
				"method": "rhf"
			},
			{
				"type": "occ",
				"energy": -0.29328,
				"method": "rhf"
			},
			{
				"type": "occ",
				"energy": -0.28234,
				"method": "rhf"
			},
			{
				"type": "unocc",
				"energy": -0.10347,
				"method": "rhf"
			},
			{
				"type": "unocc",
				"energy": -0.05928,
				"method": "rhf"
			},
			{
				"type": "unocc",
				"energy": -0.04525,
				"method": "rhf"
			},
			{
				"type": "unocc",
				"energy": -0.03776,
				"method": "rhf"
			},
			{
				"type": "unocc",
				"energy": -0.01292,
				"method": "rhf"
			}
		],
		"cosmo_sigma_profile": { 
			"-0.025": 0.0,
			"-0.024": 0.0,
			"-0.023": 0.0,
			"-0.022": 0.0,
			"-0.021": 0.0,
			"-0.02": 0.0,
			"-0.019": 0.0,
			"-0.018": 0.0,
			"-0.017": 0.0,
			"-0.016": 0.0,
			"-0.015": 0.0,
			"-0.014": 0.0,
			"-0.013": 0.0,
			"-0.012": 0.068053271053,
			"-0.011": 1.66390915285,
			"-0.01": 3.63390789163,
			"-0.009": 4.71037038307,
			"-0.008": 5.0886200956,
			"-0.007": 7.74885063541,
			"-0.006": 12.7692565675,
			"-0.005": 12.6171455593,
			"-0.004": 13.8990209088,
			"-0.003": 19.5759688989,
			"-0.002": 30.531081117,
			"-0.001": 16.6980150383,
			"0.0": 14.4297384902,
			"0.001": 15.2249504331,
			"0.002": 11.6971616703,
			"0.003": 4.5588494014,
			"0.004": 4.28039233825,
			"0.005": 5.31828778077,
			"0.006": 2.95385252338,
			"0.007": 5.08897066501,
			"0.008": 6.68626503337,
			"0.009": 7.73621590782,
			"0.01": 9.99146401733,
			"0.011": 8.49940050192,
			"0.012": 3.92128957009,
			"0.013": 0.4778514548,
			"0.014": 0.0,
			"0.015": 0.0,
			"0.016": 0.0,
			"0.017": 0.0,
			"0.018": 0.0,
			"0.019": 0.0,
			"0.02": 0.0,
			"0.021": 0.0,
			"0.022": 0.0,
			"0.023": 0.0,
			"0.024": 0.0,
			"0.025": 0.0
		}
	}
}
