{
	 "smiles": "N#CC1=CC=CC=C1N1CCCCC1", 
	 "Tm": 319.65, 
	 "num_atms": 28, 
	 "gaussian": { 
		 "optdone": 1, 
		 "sigma_profile": "yes", 
		 "theory": "DFT", 
		 "functional": "B3LYP", 
		 "basiset": "6-31G**", 
		 "properties": { 
			 "R2extent": 3105.5976, 
			 "electric_dipole_moment_norm": 4.56055808975, 
			 "electric_quadrupole_moment_norm": 15.6479340783, 
			 "total_energy": -575.200102744, 
			 "HOMO_LUMO_gap": 0.16617, 
			 "cosmo_polarized_energy": -9.41, 
			 "cosmo_cavitation_energy": 29.86, 
			 "cosmo_dispersion_energy": -21.54, 
			 "cosmo_repulsion_energy": 1.68, 
			 "cosmo_total_nonelectrostatic_energy": 10.01, 
			 "SMD_solvation_energy": 4.61 
		},
		"coords": [
			{
				"x": 0.4080047765,
				"y": -3.2470633029,
				"z": 1.3928294857,
				"element": "N" 
			},
			{
				"x": 0.2005383065,
				"y": -2.1083755301,
				"z": 1.5265827889,
				"element": "C" 
			},
			{
				"x": -0.044441629,
				"y": -0.7184523874,
				"z": 1.7614781813,
				"element": "C" 
			},
			{
				"x": -0.6786951075,
				"y": -0.3847423939,
				"z": 2.9742760562,
				"element": "C" 
			},
			{
				"x": -0.8341475972,
				"y": 0.9358238243,
				"z": 3.3683583703,
				"element": "C" 
			},
			{
				"x": -0.3365833145,
				"y": 1.943897215,
				"z": 2.5361921323,
				"element": "C" 
			},
			{
				"x": 0.2727919572,
				"y": 1.6409388125,
				"z": 1.3256317848,
				"element": "C" 
			},
			{
				"x": 0.4223391102,
				"y": 0.3054968105,
				"z": 0.8798465589,
				"element": "C" 
			},
			{
				"x": 1.0175936493,
				"y": 0.0279913868,
				"z": -0.3368004987,
				"element": "N" 
			},
			{
				"x": 0.5886835407,
				"y": -1.1117156215,
				"z": -1.1721628269,
				"element": "C" 
			},
			{
				"x": 0.4987333469,
				"y": -0.6974954493,
				"z": -2.6452210887,
				"element": "C" 
			},
			{
				"x": 1.8634702481,
				"y": -0.2294450835,
				"z": -3.1927468714,
				"element": "C" 
			},
			{
				"x": 2.7057904457,
				"y": 0.4309373557,
				"z": -2.078484637,
				"element": "C" 
			},
			{
				"x": 1.8215374209,
				"y": 1.0606462249,
				"z": -0.9989158312,
				"element": "C" 
			},
			{
				"x": -1.0216708356,
				"y": -1.1943663956,
				"z": 3.6106592938,
				"element": "H" 
			},
			{
				"x": -1.3189355888,
				"y": 1.1766834137,
				"z": 4.3082794028,
				"element": "H" 
			},
			{
				"x": -0.4405587168,
				"y": 2.9862749774,
				"z": 2.8249015564,
				"element": "H" 
			},
			{
				"x": 0.6090850001,
				"y": 2.4527793486,
				"z": 0.6930802512,
				"element": "H" 
			},
			{
				"x": 1.2699901303,
				"y": -1.9646026714,
				"z": -1.0607345672,
				"element": "H" 
			},
			{
				"x": -0.3920612211,
				"y": -1.4457450631,
				"z": -0.8262349776,
				"element": "H" 
			},
			{
				"x": 0.114768977,
				"y": -1.5418943559,
				"z": -3.2272675975,
				"element": "H" 
			},
			{
				"x": -0.2412157817,
				"y": 0.1066077007,
				"z": -2.7365033092,
				"element": "H" 
			},
			{
				"x": 1.7035882151,
				"y": 0.4738875297,
				"z": -4.0175836865,
				"element": "H" 
			},
			{
				"x": 2.4154440013,
				"y": -1.0780229334,
				"z": -3.6113392879,
				"element": "H" 
			},
			{
				"x": 3.3680451414,
				"y": 1.1988704484,
				"z": -2.4915448482,
				"element": "H" 
			},
			{
				"x": 3.3497008783,
				"y": -0.3143859368,
				"z": -1.59803725,
				"element": "H" 
			},
			{
				"x": 1.1914875242,
				"y": 1.8473268168,
				"z": -1.4492535148,
				"element": "H" 
			},
			{
				"x": 2.4471171228,
				"y": 1.5471452602,
				"z": -0.24348507,
				"element": "H" 
			}
		],
		 "valence_orbital": [ 
			{
				"type": "occ",
				"energy": -0.32772,
				"method": "rhf"
			},
			{
				"type": "occ",
				"energy": -0.31071,
				"method": "rhf"
			},
			{
				"type": "occ",
				"energy": -0.28707,
				"method": "rhf"
			},
			{
				"type": "occ",
				"energy": -0.2539,
				"method": "rhf"
			},
			{
				"type": "occ",
				"energy": -0.20142,
				"method": "rhf"
			},
			{
				"type": "unocc",
				"energy": -0.03525,
				"method": "rhf"
			},
			{
				"type": "unocc",
				"energy": 0.00015,
				"method": "rhf"
			},
			{
				"type": "unocc",
				"energy": 0.04514,
				"method": "rhf"
			},
			{
				"type": "unocc",
				"energy": 0.07048,
				"method": "rhf"
			},
			{
				"type": "unocc",
				"energy": 0.08645,
				"method": "rhf"
			}
		],
		"cosmo_sigma_profile": { 
			"-0.025": 0.0,
			"-0.024": 0.0,
			"-0.023": 0.0,
			"-0.022": 0.0,
			"-0.021": 0.0,
			"-0.02": 0.0,
			"-0.019": 0.0,
			"-0.018": 0.0,
			"-0.017": 0.0,
			"-0.016": 0.0,
			"-0.015": 0.0,
			"-0.014": 0.0,
			"-0.013": 0.0,
			"-0.012": 0.0,
			"-0.011": 0.0,
			"-0.01": 0.0,
			"-0.009": 0.0,
			"-0.008": 0.0362161326516,
			"-0.007": 2.09687829799,
			"-0.006": 7.139879606,
			"-0.005": 11.2320339779,
			"-0.004": 18.995221618,
			"-0.003": 33.1192324222,
			"-0.002": 37.0709249948,
			"-0.001": 23.640056531,
			"0.0": 20.0007185795,
			"0.001": 16.0522012709,
			"0.002": 11.801289165,
			"0.003": 12.6145649086,
			"0.004": 12.0344103223,
			"0.005": 7.58969363678,
			"0.006": 2.18192689073,
			"0.007": 2.88880769081,
			"0.008": 1.82478327197,
			"0.009": 3.06989189314,
			"0.01": 2.73943817478,
			"0.011": 3.26287240355,
			"0.012": 2.62825897738,
			"0.013": 2.55234529799,
			"0.014": 1.32017032709,
			"0.015": 0.0,
			"0.016": 0.0,
			"0.017": 0.0,
			"0.018": 0.0,
			"0.019": 0.0,
			"0.02": 0.0,
			"0.021": 0.0,
			"0.022": 0.0,
			"0.023": 0.0,
			"0.024": 0.0,
			"0.025": 0.0
		}
	}
}
