{
	 "smiles": "COC1=CC(=CC=C1)C1=CC=C(CN)C=C1", 
	 "Tm": 320.15, 
	 "num_atms": 31, 
	 "gaussian": { 
		 "optdone": 1, 
		 "sigma_profile": "yes", 
		 "theory": "DFT", 
		 "functional": "B3LYP", 
		 "basiset": "6-31G**", 
		 "properties": { 
			 "R2extent": 5440.2361, 
			 "electric_dipole_moment_norm": 1.07849538247, 
			 "electric_quadrupole_moment_norm": 14.2045398384, 
			 "total_energy": -672.498722705, 
			 "HOMO_LUMO_gap": 0.18414, 
			 "cosmo_polarized_energy": -10.93, 
			 "cosmo_cavitation_energy": 34.48, 
			 "cosmo_dispersion_energy": -24.75, 
			 "cosmo_repulsion_energy": 1.93, 
			 "cosmo_total_nonelectrostatic_energy": 11.66, 
			 "SMD_solvation_energy": 4.86 
		},
		"coords": [
			{
				"x": 5.1368547597,
				"y": -0.7596715198,
				"z": -0.0279625147,
				"element": "C" 
			},
			{
				"x": 4.5623751956,
				"y": -1.983795885,
				"z": 0.3987579877,
				"element": "O" 
			},
			{
				"x": 3.2007446758,
				"y": -2.0780817102,
				"z": 0.4530322334,
				"element": "C" 
			},
			{
				"x": 2.3235334825,
				"y": -1.0405918055,
				"z": 0.1252618157,
				"element": "C" 
			},
			{
				"x": 0.9312519217,
				"y": -1.2267163385,
				"z": 0.2200582357,
				"element": "C" 
			},
			{
				"x": 0.4386908817,
				"y": -2.4665281555,
				"z": 0.6496789192,
				"element": "C" 
			},
			{
				"x": 1.3225654073,
				"y": -3.4980001752,
				"z": 0.9767267512,
				"element": "C" 
			},
			{
				"x": 2.6966462964,
				"y": -3.3150950778,
				"z": 0.8820676815,
				"element": "C" 
			},
			{
				"x": 0.0045828157,
				"y": -0.1203478422,
				"z": -0.1331206472,
				"element": "C" 
			},
			{
				"x": -1.1689562666,
				"y": 0.1051905313,
				"z": 0.6065297104,
				"element": "C" 
			},
			{
				"x": -2.0373999266,
				"y": 1.1429482734,
				"z": 0.2762716035,
				"element": "C" 
			},
			{
				"x": -1.7724464721,
				"y": 1.9959744243,
				"z": -0.8038029811,
				"element": "C" 
			},
			{
				"x": -2.753635395,
				"y": 3.084482528,
				"z": -1.2011704005,
				"element": "C" 
			},
			{
				"x": -3.8033583403,
				"y": 2.6756850646,
				"z": -2.1509583511,
				"element": "N" 
			},
			{
				"x": -0.5994967173,
				"y": 1.7759081846,
				"z": -1.5380541962,
				"element": "C" 
			},
			{
				"x": 0.271672481,
				"y": 0.7384556149,
				"z": -1.2126267867,
				"element": "C" 
			},
			{
				"x": 4.8749520445,
				"y": 0.0683857971,
				"z": 0.6435324647,
				"element": "H" 
			},
			{
				"x": 4.8297555352,
				"y": -0.5010984867,
				"z": -1.0498151207,
				"element": "H" 
			},
			{
				"x": 6.217455292,
				"y": -0.9098192923,
				"z": -0.0061080155,
				"element": "H" 
			},
			{
				"x": 2.7033610778,
				"y": -0.0720376445,
				"z": -0.1759400644,
				"element": "H" 
			},
			{
				"x": -0.6324002863,
				"y": -2.6333386326,
				"z": 0.6995765123,
				"element": "H" 
			},
			{
				"x": 0.9326865981,
				"y": -4.4587462803,
				"z": 1.3010861288,
				"element": "H" 
			},
			{
				"x": 3.3973917689,
				"y": -4.1045450976,
				"z": 1.1325192755,
				"element": "H" 
			},
			{
				"x": -1.3840255704,
				"y": -0.5211475257,
				"z": 1.4673191655,
				"element": "H" 
			},
			{
				"x": -2.9301182828,
				"y": 1.3034452241,
				"z": 0.8775503504,
				"element": "H" 
			},
			{
				"x": -3.2525722545,
				"y": 3.4756351089,
				"z": -0.3070291672,
				"element": "H" 
			},
			{
				"x": -2.2111622229,
				"y": 3.9242186809,
				"z": -1.650546036,
				"element": "H" 
			},
			{
				"x": -3.3644069747,
				"y": 2.3057014653,
				"z": -2.9923478263,
				"element": "H" 
			},
			{
				"x": -4.3255124754,
				"y": 1.8963646005,
				"z": -1.754109631,
				"element": "H" 
			},
			{
				"x": -0.3665801669,
				"y": 2.4243020701,
				"z": -2.3804144167,
				"element": "H" 
			},
			{
				"x": 1.1610511178,
				"y": 0.5772639014,
				"z": -1.8150626802,
				"element": "H" 
			}
		],
		 "valence_orbital": [ 
			{
				"type": "occ",
				"energy": -0.26835,
				"method": "rhf"
			},
			{
				"type": "occ",
				"energy": -0.25157,
				"method": "rhf"
			},
			{
				"type": "occ",
				"energy": -0.24191,
				"method": "rhf"
			},
			{
				"type": "occ",
				"energy": -0.22614,
				"method": "rhf"
			},
			{
				"type": "occ",
				"energy": -0.21138,
				"method": "rhf"
			},
			{
				"type": "unocc",
				"energy": -0.02724,
				"method": "rhf"
			},
			{
				"type": "unocc",
				"energy": -0.00453,
				"method": "rhf"
			},
			{
				"type": "unocc",
				"energy": 0.0101,
				"method": "rhf"
			},
			{
				"type": "unocc",
				"energy": 0.03036,
				"method": "rhf"
			},
			{
				"type": "unocc",
				"energy": 0.08913,
				"method": "rhf"
			}
		],
		"cosmo_sigma_profile": { 
			"-0.025": 0.0,
			"-0.024": 0.0,
			"-0.023": 0.0,
			"-0.022": 0.0,
			"-0.021": 0.0,
			"-0.02": 0.0,
			"-0.019": 0.0,
			"-0.018": 0.0,
			"-0.017": 0.0,
			"-0.016": 0.0,
			"-0.015": 0.0,
			"-0.014": 0.0,
			"-0.013": 0.0,
			"-0.012": 0.0,
			"-0.011": 0.0,
			"-0.01": 0.231513472196,
			"-0.009": 2.01933753579,
			"-0.008": 2.90443999877,
			"-0.007": 2.96307282644,
			"-0.006": 9.79241704001,
			"-0.005": 29.7720389494,
			"-0.004": 32.2966107815,
			"-0.003": 27.8712107171,
			"-0.002": 19.1145831392,
			"-0.001": 17.1361759731,
			"0.0": 14.1242713926,
			"0.001": 12.5198088728,
			"0.002": 15.4541400722,
			"0.003": 17.1063669859,
			"0.004": 20.195347498,
			"0.005": 20.1114960297,
			"0.006": 13.6562057489,
			"0.007": 2.81578856423,
			"0.008": 1.97280144788,
			"0.009": 2.04964905655,
			"0.01": 1.77540498979,
			"0.011": 1.73929285235,
			"0.012": 0.579071082926,
			"0.013": 0.645335517931,
			"0.014": 0.480460271482,
			"0.015": 0.7091855748,
			"0.016": 0.847157020148,
			"0.017": 0.53661745561,
			"0.018": 0.742217018134,
			"0.019": 0.609167210699,
			"0.02": 0.372456182694,
			"0.021": 0.0,
			"0.022": 0.0,
			"0.023": 0.0,
			"0.024": 0.0,
			"0.025": 0.0
		}
	}
}
