{
	 "smiles": "CN(C)CCOC(=O)C1=C(C)NC(C)=C(C#N)C1C1=CC(=CC=C1)[N+]([O-])=O", 
	 "Tm": 345.65, 
	 "num_atms": 49, 
	 "gaussian": { 
		 "optdone": 1, 
		 "sigma_profile": "yes", 
		 "theory": "DFT", 
		 "functional": "B3LYP", 
		 "basiset": "6-31G**", 
		 "properties": { 
			 "R2extent": 11059.51, 
			 "electric_dipole_moment_norm": 8.76717610294, 
			 "electric_quadrupole_moment_norm": 29.6480525625, 
			 "total_energy": -1257.06699083, 
			 "HOMO_LUMO_gap": 0.131, 
			 "cosmo_polarized_energy": -26.43, 
			 "cosmo_cavitation_energy": 52.9, 
			 "cosmo_dispersion_energy": -33.6, 
			 "cosmo_repulsion_energy": 2.61, 
			 "cosmo_total_nonelectrostatic_energy": 21.91, 
			 "SMD_solvation_energy": 11.68 
		},
		"coords": [
			{
				"x": 1.26868043,
				"y": -1.1287797248,
				"z": 4.3988338017,
				"element": "C" 
			},
			{
				"x": 1.6416732368,
				"y": -0.0280925561,
				"z": 3.5188903102,
				"element": "N" 
			},
			{
				"x": 2.0575069844,
				"y": 1.1429924268,
				"z": 4.2840294967,
				"element": "C" 
			},
			{
				"x": 2.6343370094,
				"y": -0.4495161995,
				"z": 2.5379887364,
				"element": "C" 
			},
			{
				"x": 2.795013826,
				"y": 0.5077745181,
				"z": 1.3596600859,
				"element": "C" 
			},
			{
				"x": 1.5709582143,
				"y": 0.5876961383,
				"z": 0.6058582904,
				"element": "O" 
			},
			{
				"x": 0.8111423766,
				"y": 1.7037479721,
				"z": 0.7502453075,
				"element": "C" 
			},
			{
				"x": 1.1638830466,
				"y": 2.6730123922,
				"z": 1.406436318,
				"element": "O" 
			},
			{
				"x": -0.4560758552,
				"y": 1.579127979,
				"z": 0.0079120681,
				"element": "C" 
			},
			{
				"x": -1.3820133455,
				"y": 2.5777176424,
				"z": 0.0769195369,
				"element": "C" 
			},
			{
				"x": -1.2281875701,
				"y": 3.8910136097,
				"z": 0.7993676162,
				"element": "C" 
			},
			{
				"x": -2.6147633785,
				"y": 2.4084322106,
				"z": -0.5375438719,
				"element": "N" 
			},
			{
				"x": -3.0580233328,
				"y": 1.1937267185,
				"z": -1.0344718412,
				"element": "C" 
			},
			{
				"x": -4.5149493163,
				"y": 1.136126726,
				"z": -1.3914221008,
				"element": "C" 
			},
			{
				"x": -2.1796690413,
				"y": 0.1640807789,
				"z": -1.1434262032,
				"element": "C" 
			},
			{
				"x": -2.6230816336,
				"y": -1.1109032931,
				"z": -1.5955954163,
				"element": "C" 
			},
			{
				"x": -2.956963744,
				"y": -2.1677077434,
				"z": -1.957572876,
				"element": "N" 
			},
			{
				"x": -0.6917365372,
				"y": 0.3219310119,
				"z": -0.8302489387,
				"element": "C" 
			},
			{
				"x": 0.1474498776,
				"y": 0.3140407666,
				"z": -2.1151361912,
				"element": "C" 
			},
			{
				"x": 1.1155533793,
				"y": -0.6708224639,
				"z": -2.3186946808,
				"element": "C" 
			},
			{
				"x": 1.8647123055,
				"y": -0.6607534764,
				"z": -3.4932461178,
				"element": "C" 
			},
			{
				"x": 1.683326515,
				"y": 0.2986029382,
				"z": -4.4863605591,
				"element": "C" 
			},
			{
				"x": 0.7165906744,
				"y": 1.2805318602,
				"z": -4.279245127,
				"element": "C" 
			},
			{
				"x": -0.0404065384,
				"y": 1.2876757284,
				"z": -3.1065994711,
				"element": "C" 
			},
			{
				"x": 2.8926964231,
				"y": -1.6975110973,
				"z": -3.6871385362,
				"element": "N" 
			},
			{
				"x": 3.5208061552,
				"y": -1.6882564901,
				"z": -4.7456372486,
				"element": "O" 
			},
			{
				"x": 3.0665683996,
				"y": -2.508594839,
				"z": -2.7779728566,
				"element": "O" 
			},
			{
				"x": 2.1063716173,
				"y": -1.4983162243,
				"z": 5.0220646008,
				"element": "H" 
			},
			{
				"x": 0.4692803222,
				"y": -0.8048575124,
				"z": 5.072880165,
				"element": "H" 
			},
			{
				"x": 0.8919965946,
				"y": -1.9693906964,
				"z": 3.8073226096,
				"element": "H" 
			},
			{
				"x": 2.1886305687,
				"y": 2.0014570573,
				"z": 3.6220988965,
				"element": "H" 
			},
			{
				"x": 1.2723613003,
				"y": 1.4003483305,
				"z": 5.0017921937,
				"element": "H" 
			},
			{
				"x": 2.994590696,
				"y": 0.97777151,
				"z": 4.8513041883,
				"element": "H" 
			},
			{
				"x": 2.3238594149,
				"y": -1.4222285726,
				"z": 2.1403496215,
				"element": "H" 
			},
			{
				"x": 3.6399148289,
				"y": -0.5951685138,
				"z": 2.9860303483,
				"element": "H" 
			},
			{
				"x": 3.0900918261,
				"y": 1.5113483941,
				"z": 1.6683717167,
				"element": "H" 
			},
			{
				"x": 3.5456650577,
				"y": 0.1090995,
				"z": 0.6712797682,
				"element": "H" 
			},
			{
				"x": -2.093608343,
				"y": 4.5365434469,
				"z": 0.6150783444,
				"element": "H" 
			},
			{
				"x": -1.1276060878,
				"y": 3.7324106932,
				"z": 1.8758674581,
				"element": "H" 
			},
			{
				"x": -0.3208768402,
				"y": 4.4084966712,
				"z": 0.4859930443,
				"element": "H" 
			},
			{
				"x": -3.2984014007,
				"y": 3.1396029221,
				"z": -0.4137004075,
				"element": "H" 
			},
			{
				"x": -4.7585909199,
				"y": 1.9033732901,
				"z": -2.1362265312,
				"element": "H" 
			},
			{
				"x": -5.1392299506,
				"y": 1.3194615478,
				"z": -0.5086084715,
				"element": "H" 
			},
			{
				"x": -4.7788675383,
				"y": 0.1621940752,
				"z": -1.8032858389,
				"element": "H" 
			},
			{
				"x": -0.3713642987,
				"y": -0.5446730402,
				"z": -0.2444057911,
				"element": "H" 
			},
			{
				"x": 1.3014227922,
				"y": -1.4379559346,
				"z": -1.577564512,
				"element": "H" 
			},
			{
				"x": 2.2889541323,
				"y": 0.2630841437,
				"z": -5.3828693971,
				"element": "H" 
			},
			{
				"x": 0.5538711324,
				"y": 2.0424937181,
				"z": -5.0351832874,
				"element": "H" 
			},
			{
				"x": -0.7891934657,
				"y": 2.0607116598,
				"z": -2.95961825,
				"element": "H" 
			}
		],
		 "valence_orbital": [ 
			{
				"type": "occ",
				"energy": -0.27243,
				"method": "rhf"
			},
			{
				"type": "occ",
				"energy": -0.26991,
				"method": "rhf"
			},
			{
				"type": "occ",
				"energy": -0.2614,
				"method": "rhf"
			},
			{
				"type": "occ",
				"energy": -0.22057,
				"method": "rhf"
			},
			{
				"type": "occ",
				"energy": -0.21413,
				"method": "rhf"
			},
			{
				"type": "unocc",
				"energy": -0.08313,
				"method": "rhf"
			},
			{
				"type": "unocc",
				"energy": -0.06124,
				"method": "rhf"
			},
			{
				"type": "unocc",
				"energy": -0.01515,
				"method": "rhf"
			},
			{
				"type": "unocc",
				"energy": -0.00278,
				"method": "rhf"
			},
			{
				"type": "unocc",
				"energy": 0.00468,
				"method": "rhf"
			}
		],
		"cosmo_sigma_profile": { 
			"-0.025": 0.0,
			"-0.024": 0.0,
			"-0.023": 0.0,
			"-0.022": 0.0,
			"-0.021": 0.0,
			"-0.02": 0.0,
			"-0.019": 0.0,
			"-0.018": 0.0,
			"-0.017": 0.0,
			"-0.016": 0.950365328424,
			"-0.015": 1.31217486329,
			"-0.014": 1.32340971094,
			"-0.013": 1.57945554235,
			"-0.012": 1.45805439398,
			"-0.011": 1.49961306522,
			"-0.01": 1.25745208672,
			"-0.009": 1.71190810614,
			"-0.008": 2.49515127025,
			"-0.007": 9.65876973265,
			"-0.006": 15.7010795877,
			"-0.005": 21.8278694011,
			"-0.004": 32.505998583,
			"-0.003": 40.4914271356,
			"-0.002": 45.9395926839,
			"-0.001": 46.0841050182,
			"0.0": 41.3017277164,
			"0.001": 31.0895730491,
			"0.002": 21.1665529535,
			"0.003": 12.0453497412,
			"0.004": 7.67294444832,
			"0.005": 9.09692158165,
			"0.006": 8.94067256669,
			"0.007": 11.6445903954,
			"0.008": 14.6592524092,
			"0.009": 10.0452569152,
			"0.01": 9.07647994136,
			"0.011": 6.58908597858,
			"0.012": 4.89915094045,
			"0.013": 3.68541923773,
			"0.014": 1.33506917968,
			"0.015": 0.0,
			"0.016": 0.0,
			"0.017": 0.0,
			"0.018": 0.0,
			"0.019": 0.0,
			"0.02": 0.0,
			"0.021": 0.0,
			"0.022": 0.0,
			"0.023": 0.0,
			"0.024": 0.0,
			"0.025": 0.0
		}
	}
}
