{
	 "smiles": "ICC(=O)OC(=O)CI", 
	 "Tm": 319.15, 
	 "num_atms": 13, 
	 "gaussian": { 
		 "optdone": 1, 
		 "sigma_profile": "no", 
		 "theory": "DFT", 
		 "functional": "B3LYP", 
		 "basiset": "6-31G**", 
		 "properties": { 
			 "R2extent": 2219.0432, 
			 "electric_dipole_moment_norm": 2.29529234739, 
			 "electric_quadrupole_moment_norm": 13.5423498626, 
			 "total_energy": -403.284856498, 
			 "HOMO_LUMO_gap": 0.18103, 
			 "cosmo_polarized_energy": -214505.56, 
			 "cosmo_cavitation_energy": 25.36, 
			 "cosmo_dispersion_energy": -20.31, 
			 "cosmo_repulsion_energy": 1.66, 
			 "cosmo_total_nonelectrostatic_energy": 6.71, 
			 "SMD_solvation_energy": 4.54 
		},
		"coords": [
			{
				"x": 0.7995583862,
				"y": -1.6768695655,
				"z": 2.7973602352,
				"element": "I" 
			},
			{
				"x": -0.6158779068,
				"y": -0.4961792556,
				"z": 1.6344141378,
				"element": "C" 
			},
			{
				"x": -1.2677037693,
				"y": -1.327903551,
				"z": 0.5585271897,
				"element": "C" 
			},
			{
				"x": -2.3675367328,
				"y": -1.7978707281,
				"z": 0.6177546379,
				"element": "O" 
			},
			{
				"x": -0.3848758722,
				"y": -1.4939642399,
				"z": -0.502151205,
				"element": "O" 
			},
			{
				"x": -0.8154034074,
				"y": -1.8956854054,
				"z": -1.7611961907,
				"element": "C" 
			},
			{
				"x": -1.943661256,
				"y": -1.8266344534,
				"z": -2.1565317397,
				"element": "O" 
			},
			{
				"x": 0.3597878671,
				"y": -2.3977754874,
				"z": -2.561840137,
				"element": "C" 
			},
			{
				"x": 1.5563150783,
				"y": -0.7457688091,
				"z": -3.3294666745,
				"element": "I" 
			},
			{
				"x": -1.3717393428,
				"y": -0.1555010563,
				"z": 2.3365886813,
				"element": "H" 
			},
			{
				"x": -0.039038348,
				"y": 0.3280217211,
				"z": 1.2194150676,
				"element": "H" 
			},
			{
				"x": 1.0390943094,
				"y": -2.9961383298,
				"z": -1.9578535255,
				"element": "H" 
			},
			{
				"x": 0.0000809942,
				"y": -2.9387308396,
				"z": -3.432720477,
				"element": "H" 
			}
		],
		 "valence_orbital": [ 
			{
				"type": "occ",
				"energy": -0.30152,
				"method": "rhf"
			},
			{
				"type": "occ",
				"energy": -0.28147,
				"method": "rhf"
			},
			{
				"type": "occ",
				"energy": -0.27955,
				"method": "rhf"
			},
			{
				"type": "occ",
				"energy": -0.27874,
				"method": "rhf"
			},
			{
				"type": "occ",
				"energy": -0.27625,
				"method": "rhf"
			},
			{
				"type": "unocc",
				"energy": -0.09522,
				"method": "rhf"
			},
			{
				"type": "unocc",
				"energy": -0.08149,
				"method": "rhf"
			},
			{
				"type": "unocc",
				"energy": -0.02092,
				"method": "rhf"
			},
			{
				"type": "unocc",
				"energy": 0.00475,
				"method": "rhf"
			},
			{
				"type": "unocc",
				"energy": 0.03235,
				"method": "rhf"
			}
		],
		"cosmo_sigma_profile": { 
			"0.0": 0.0,
			"0.0": 0.0,
			"0.0": 0.0,
			"0.0": 0.0,
			"0.0": 0.0,
			"0.0": 0.0,
			"0.0": 0.0,
			"0.0": 0.0,
			"0.0": 0.0,
			"0.0": 0.0,
			"0.0": 0.0,
			"0.0": 0.0,
			"0.0": 0.0,
			"0.0": 0.0,
			"0.0": 0.0,
			"0.0": 0.0,
			"0.0": 0.0,
			"0.0": 0.0,
			"0.0": 0.0,
			"0.0": 0.0,
			"0.0": 0.0,
			"0.0": 0.0,
			"0.0": 0.0,
			"0.0": 0.0,
			"0.0": 0.0,
			"0.0": 0.0,
			"0.0": 0.0,
			"0.0": 0.0,
			"0.0": 0.0,
			"0.0": 0.0,
			"0.0": 0.0,
			"0.0": 0.0,
			"0.0": 0.0,
			"0.0": 0.0,
			"0.0": 0.0,
			"0.0": 0.0,
			"0.0": 0.0,
			"0.0": 0.0,
			"0.0": 0.0,
			"0.0": 0.0,
			"0.0": 0.0,
			"0.0": 0.0,
			"0.0": 0.0,
			"0.0": 0.0,
			"0.0": 0.0,
			"0.0": 0.0,
			"0.0": 0.0,
			"0.0": 0.0,
			"0.0": 0.0,
			"0.0": 0.0,
			"0.0": 0.0
		}
	}
}
