{
	 "smiles": "CS(=O)(=O)NCC1=CC=C(O1)C(O)=O", 
	 "Tm": 413.15, 
	 "num_atms": 23, 
	 "gaussian": { 
		 "optdone": 1, 
		 "sigma_profile": "yes", 
		 "theory": "DFT", 
		 "functional": "B3LYP", 
		 "basiset": "6-31G**", 
		 "properties": { 
			 "R2extent": 4235.7405, 
			 "electric_dipole_moment_norm": 5.29408190058, 
			 "electric_quadrupole_moment_norm": 23.3216411161, 
			 "total_energy": -1101.14508622, 
			 "HOMO_LUMO_gap": 0.19919, 
			 "cosmo_polarized_energy": -23.69, 
			 "cosmo_cavitation_energy": 29.47, 
			 "cosmo_dispersion_energy": -21.05, 
			 "cosmo_repulsion_energy": 1.61, 
			 "cosmo_total_nonelectrostatic_energy": 10.04, 
			 "SMD_solvation_energy": 5.76 
		},
		"coords": [
			{
				"x": -2.0270760687,
				"y": 1.8509515396,
				"z": -0.4370407543,
				"element": "C" 
			},
			{
				"x": -2.3656105667,
				"y": 2.2992862923,
				"z": 1.27004383,
				"element": "S" 
			},
			{
				"x": -3.2372998977,
				"y": 3.4773316058,
				"z": 1.2710583343,
				"element": "O" 
			},
			{
				"x": -2.7263828737,
				"y": 1.0740220131,
				"z": 1.9926579535,
				"element": "O" 
			},
			{
				"x": -0.8487697944,
				"y": 2.8523140312,
				"z": 1.8196122675,
				"element": "N" 
			},
			{
				"x": -0.0983394609,
				"y": 2.005998552,
				"z": 2.7761439898,
				"element": "C" 
			},
			{
				"x": 0.7945196919,
				"y": 1.0194152606,
				"z": 2.1002926175,
				"element": "C" 
			},
			{
				"x": 2.1490905753,
				"y": 0.9125008297,
				"z": 1.9410640777,
				"element": "C" 
			},
			{
				"x": 2.3855006758,
				"y": -0.2737625384,
				"z": 1.1824406426,
				"element": "C" 
			},
			{
				"x": 1.1583459881,
				"y": -0.8159060849,
				"z": 0.9258609169,
				"element": "C" 
			},
			{
				"x": 0.1782134275,
				"y": -0.0330016397,
				"z": 1.4869957784,
				"element": "O" 
			},
			{
				"x": 0.7282062034,
				"y": -2.0172786517,
				"z": 0.1911451752,
				"element": "C" 
			},
			{
				"x": -0.6071407874,
				"y": -2.2503279129,
				"z": 0.1925647556,
				"element": "O" 
			},
			{
				"x": 1.5041235736,
				"y": -2.7449123855,
				"z": -0.3833921678,
				"element": "O" 
			},
			{
				"x": -2.9704496971,
				"y": 1.5057725102,
				"z": -0.8643114971,
				"element": "H" 
			},
			{
				"x": -1.2857889833,
				"y": 1.0523099971,
				"z": -0.4511364382,
				"element": "H" 
			},
			{
				"x": -1.6658585211,
				"y": 2.7339152325,
				"z": -0.9640041459,
				"element": "H" 
			},
			{
				"x": -1.0016018614,
				"y": 3.7970145015,
				"z": 2.1630061871,
				"element": "H" 
			},
			{
				"x": 0.5255992192,
				"y": 2.6784858735,
				"z": 3.3691958189,
				"element": "H" 
			},
			{
				"x": -0.7791726009,
				"y": 1.4809771936,
				"z": 3.4563212689,
				"element": "H" 
			},
			{
				"x": 2.8891670763,
				"y": 1.6025722303,
				"z": 2.3205416626,
				"element": "H" 
			},
			{
				"x": 3.3317293499,
				"y": -0.683840831,
				"z": 0.8625852827,
				"element": "H" 
			},
			{
				"x": -1.0636046677,
				"y": -1.5991376188,
				"z": 0.7501544441,
				"element": "H" 
			}
		],
		 "valence_orbital": [ 
			{
				"type": "occ",
				"energy": -0.31325,
				"method": "rhf"
			},
			{
				"type": "occ",
				"energy": -0.30948,
				"method": "rhf"
			},
			{
				"type": "occ",
				"energy": -0.29394,
				"method": "rhf"
			},
			{
				"type": "occ",
				"energy": -0.28181,
				"method": "rhf"
			},
			{
				"type": "occ",
				"energy": -0.2574,
				"method": "rhf"
			},
			{
				"type": "unocc",
				"energy": -0.05821,
				"method": "rhf"
			},
			{
				"type": "unocc",
				"energy": 0.01511,
				"method": "rhf"
			},
			{
				"type": "unocc",
				"energy": 0.04431,
				"method": "rhf"
			},
			{
				"type": "unocc",
				"energy": 0.05678,
				"method": "rhf"
			},
			{
				"type": "unocc",
				"energy": 0.06092,
				"method": "rhf"
			}
		],
		"cosmo_sigma_profile": { 
			"-0.025": 0.0,
			"-0.024": 0.0,
			"-0.023": 0.0,
			"-0.022": 0.0,
			"-0.021": 0.0,
			"-0.02": 0.0,
			"-0.019": 0.0,
			"-0.018": 0.0,
			"-0.017": 0.0,
			"-0.016": 0.0,
			"-0.015": 0.83023724573,
			"-0.014": 1.86964944417,
			"-0.013": 1.56805445411,
			"-0.012": 1.56203687598,
			"-0.011": 2.31121714509,
			"-0.01": 2.85444880326,
			"-0.009": 7.34636385379,
			"-0.008": 13.9296769403,
			"-0.007": 12.9954678435,
			"-0.006": 14.8144395622,
			"-0.005": 17.3098382976,
			"-0.004": 14.0449461483,
			"-0.003": 12.3901802256,
			"-0.002": 8.05772034887,
			"-0.001": 12.0896263268,
			"0.0": 9.18843574987,
			"0.001": 11.1395373616,
			"0.002": 11.1633648431,
			"0.003": 8.4613274601,
			"0.004": 5.36341117063,
			"0.005": 4.87750128607,
			"0.006": 5.83474484913,
			"0.007": 5.10386277865,
			"0.008": 7.15389628246,
			"0.009": 6.85956611699,
			"0.01": 10.24426589,
			"0.011": 14.8497317335,
			"0.012": 9.18270944395,
			"0.013": 1.54807575927,
			"0.014": 0.00991643034474,
			"0.015": 0.0,
			"0.016": 0.0,
			"0.017": 0.0,
			"0.018": 0.0,
			"0.019": 0.0,
			"0.02": 0.0,
			"0.021": 0.0,
			"0.022": 0.0,
			"0.023": 0.0,
			"0.024": 0.0,
			"0.025": 0.0
		}
	}
}
