{
	 "smiles": "N(C=NC1=CC=CC=C1)C1=CC=CC=C1", 
	 "Tm": 413.15, 
	 "num_atms": 27, 
	 "gaussian": { 
		 "optdone": 1, 
		 "sigma_profile": "yes", 
		 "theory": "DFT", 
		 "functional": "B3LYP", 
		 "basiset": "6-31G**", 
		 "properties": { 
			 "R2extent": 4944.7376, 
			 "electric_dipole_moment_norm": 2.71225849247, 
			 "electric_quadrupole_moment_norm": 4.37200448765, 
			 "total_energy": -612.114329478, 
			 "HOMO_LUMO_gap": 0.199, 
			 "cosmo_polarized_energy": -11.57, 
			 "cosmo_cavitation_energy": 31.5, 
			 "cosmo_dispersion_energy": -23.02, 
			 "cosmo_repulsion_energy": 1.81, 
			 "cosmo_total_nonelectrostatic_energy": 10.28, 
			 "SMD_solvation_energy": 4.93 
		},
		"coords": [
			{
				"x": -0.7221963839,
				"y": -1.3677086243,
				"z": 0.191759557,
				"element": "N" 
			},
			{
				"x": -0.1816932713,
				"y": -0.1833601815,
				"z": 0.6241578503,
				"element": "C" 
			},
			{
				"x": 0.8586841174,
				"y": 0.3767383246,
				"z": 0.1362914285,
				"element": "N" 
			},
			{
				"x": 1.287729332,
				"y": 1.599885853,
				"z": 0.6965659883,
				"element": "C" 
			},
			{
				"x": 2.2248913406,
				"y": 1.6138486646,
				"z": 1.7415288307,
				"element": "C" 
			},
			{
				"x": 2.6875169113,
				"y": 2.8247999826,
				"z": 2.2563851221,
				"element": "C" 
			},
			{
				"x": 2.2299501236,
				"y": 4.037225864,
				"z": 1.7358207485,
				"element": "C" 
			},
			{
				"x": 1.3034684022,
				"y": 4.0273613786,
				"z": 0.6909031355,
				"element": "C" 
			},
			{
				"x": 0.8361150755,
				"y": 2.8205145504,
				"z": 0.1706992064,
				"element": "C" 
			},
			{
				"x": -0.3153444947,
				"y": -2.2393059964,
				"z": -0.8363245671,
				"element": "C" 
			},
			{
				"x": -1.0889904181,
				"y": -3.3948966471,
				"z": -1.0415913504,
				"element": "C" 
			},
			{
				"x": -0.7495965498,
				"y": -4.3035630115,
				"z": -2.0388410032,
				"element": "C" 
			},
			{
				"x": 0.3658900794,
				"y": -4.0769946461,
				"z": -2.8485962054,
				"element": "C" 
			},
			{
				"x": 1.132102675,
				"y": -2.9295283735,
				"z": -2.6429273504,
				"element": "C" 
			},
			{
				"x": 0.8067417831,
				"y": -2.0070163745,
				"z": -1.647412236,
				"element": "C" 
			},
			{
				"x": -1.5465728771,
				"y": -1.6605868397,
				"z": 0.6940699097,
				"element": "H" 
			},
			{
				"x": -0.7533926274,
				"y": 0.2454963749,
				"z": 1.4577074526,
				"element": "H" 
			},
			{
				"x": 2.5859569788,
				"y": 0.6685957981,
				"z": 2.1357326638,
				"element": "H" 
			},
			{
				"x": 3.4093839437,
				"y": 2.8192973551,
				"z": 3.068730651,
				"element": "H" 
			},
			{
				"x": 2.5939712976,
				"y": 4.9784120166,
				"z": 2.1369841351,
				"element": "H" 
			},
			{
				"x": 0.9407305059,
				"y": 4.9642221995,
				"z": 0.276486952,
				"element": "H" 
			},
			{
				"x": 0.1239570436,
				"y": 2.8077378876,
				"z": -0.6490210088,
				"element": "H" 
			},
			{
				"x": -1.9594827168,
				"y": -3.5780970764,
				"z": -0.4146435718,
				"element": "H" 
			},
			{
				"x": -1.3599034277,
				"y": -5.1907181264,
				"z": -2.1819966122,
				"element": "H" 
			},
			{
				"x": 0.6319956478,
				"y": -4.7851591041,
				"z": -3.6272459856,
				"element": "H" 
			},
			{
				"x": 2.0023526575,
				"y": -2.7408603295,
				"z": -3.2654823265,
				"element": "H" 
			},
			{
				"x": 1.4000348517,
				"y": -1.1175409188,
				"z": -1.4874414142,
				"element": "H" 
			}
		],
		 "valence_orbital": [ 
			{
				"type": "occ",
				"energy": -0.28042,
				"method": "rhf"
			},
			{
				"type": "occ",
				"energy": -0.24849,
				"method": "rhf"
			},
			{
				"type": "occ",
				"energy": -0.24182,
				"method": "rhf"
			},
			{
				"type": "occ",
				"energy": -0.21361,
				"method": "rhf"
			},
			{
				"type": "occ",
				"energy": -0.21072,
				"method": "rhf"
			},
			{
				"type": "unocc",
				"energy": -0.01172,
				"method": "rhf"
			},
			{
				"type": "unocc",
				"energy": 0.00125,
				"method": "rhf"
			},
			{
				"type": "unocc",
				"energy": 0.00824,
				"method": "rhf"
			},
			{
				"type": "unocc",
				"energy": 0.01449,
				"method": "rhf"
			},
			{
				"type": "unocc",
				"energy": 0.04783,
				"method": "rhf"
			}
		],
		"cosmo_sigma_profile": { 
			"-0.025": 0.0,
			"-0.024": 0.0,
			"-0.023": 0.0,
			"-0.022": 0.0,
			"-0.021": 0.0,
			"-0.02": 0.0,
			"-0.019": 0.0,
			"-0.018": 0.0,
			"-0.017": 0.0,
			"-0.016": 0.314224831353,
			"-0.015": 1.65114747084,
			"-0.014": 1.3447909313,
			"-0.013": 1.67241080796,
			"-0.012": 1.38235352855,
			"-0.011": 1.27386369343,
			"-0.01": 1.89008080304,
			"-0.009": 1.96046173123,
			"-0.008": 2.12974420262,
			"-0.007": 3.64709307397,
			"-0.006": 6.58675976723,
			"-0.005": 17.5699688286,
			"-0.004": 19.8433475984,
			"-0.003": 21.4362158326,
			"-0.002": 17.6485471675,
			"-0.001": 15.6508283185,
			"0.0": 14.7462067907,
			"0.001": 14.6493050783,
			"0.002": 15.1624068066,
			"0.003": 18.0487177135,
			"0.004": 20.1031485404,
			"0.005": 20.8062441211,
			"0.006": 20.7850621958,
			"0.007": 7.10721067067,
			"0.008": 2.55744896863,
			"0.009": 2.24980870059,
			"0.01": 0.316373218592,
			"0.011": 0.0,
			"0.012": 0.0,
			"0.013": 0.0,
			"0.014": 0.0,
			"0.015": 0.0,
			"0.016": 0.0,
			"0.017": 0.0,
			"0.018": 0.0,
			"0.019": 0.0,
			"0.02": 0.0,
			"0.021": 0.0,
			"0.022": 0.0,
			"0.023": 0.0,
			"0.024": 0.0,
			"0.025": 0.0
		}
	}
}
