{
	 "smiles": "OC(=O)CCCN1C(=O)CCC1=O", 
	 "Tm": 376.15, 
	 "num_atms": 24, 
	 "gaussian": { 
		 "optdone": 1, 
		 "sigma_profile": "yes", 
		 "theory": "DFT", 
		 "functional": "B3LYP", 
		 "basiset": "6-31G**", 
		 "properties": { 
			 "R2extent": 2724.4204, 
			 "electric_dipole_moment_norm": 1.30895966706, 
			 "electric_quadrupole_moment_norm": 15.9526462153, 
			 "total_energy": -667.18747318, 
			 "HOMO_LUMO_gap": 0.24072, 
			 "cosmo_polarized_energy": -15.96, 
			 "cosmo_cavitation_energy": 27.06, 
			 "cosmo_dispersion_energy": -19.22, 
			 "cosmo_repulsion_energy": 1.54, 
			 "cosmo_total_nonelectrostatic_energy": 9.37, 
			 "SMD_solvation_energy": 6.15 
		},
		"coords": [
			{
				"x": 2.3164351295,
				"y": 0.384156127,
				"z": 3.7562559932,
				"element": "O" 
			},
			{
				"x": 1.8980086518,
				"y": 0.622145807,
				"z": 2.4926882121,
				"element": "C" 
			},
			{
				"x": 1.2767771298,
				"y": 1.6230380495,
				"z": 2.196272926,
				"element": "O" 
			},
			{
				"x": 2.3202544663,
				"y": -0.4948709523,
				"z": 1.561927413,
				"element": "C" 
			},
			{
				"x": 2.0007206251,
				"y": -0.2602360101,
				"z": 0.078288315,
				"element": "C" 
			},
			{
				"x": 0.5798503282,
				"y": -0.6429190988,
				"z": -0.3673267738,
				"element": "C" 
			},
			{
				"x": -0.462709945,
				"y": 0.2132184361,
				"z": 0.1841630957,
				"element": "N" 
			},
			{
				"x": -1.120651171,
				"y": -0.0533486601,
				"z": 1.3791418324,
				"element": "C" 
			},
			{
				"x": -0.947220218,
				"y": -1.0501886451,
				"z": 2.054758206,
				"element": "O" 
			},
			{
				"x": -2.0650509842,
				"y": 1.1087631957,
				"z": 1.6646673454,
				"element": "C" 
			},
			{
				"x": -1.8052695619,
				"y": 2.122590387,
				"z": 0.5396702881,
				"element": "C" 
			},
			{
				"x": -0.7795066361,
				"y": 1.4545048529,
				"z": -0.3686475391,
				"element": "C" 
			},
			{
				"x": -0.3003096732,
				"y": 1.8873909917,
				"z": -1.3961143506,
				"element": "O" 
			},
			{
				"x": 2.0017219237,
				"y": 1.1306351278,
				"z": 4.2930453792,
				"element": "H" 
			},
			{
				"x": 1.8492028881,
				"y": -1.4132433927,
				"z": 1.9318908776,
				"element": "H" 
			},
			{
				"x": 3.3984470228,
				"y": -0.6312253953,
				"z": 1.7066224246,
				"element": "H" 
			},
			{
				"x": 2.1881761215,
				"y": 0.7848919802,
				"z": -0.1859323889,
				"element": "H" 
			},
			{
				"x": 2.6903494694,
				"y": -0.867295672,
				"z": -0.5195891757,
				"element": "H" 
			},
			{
				"x": 0.5110925276,
				"y": -0.5628423364,
				"z": -1.4551188702,
				"element": "H" 
			},
			{
				"x": 0.3423269332,
				"y": -1.6676021697,
				"z": -0.0685330197,
				"element": "H" 
			},
			{
				"x": -1.8383489325,
				"y": 1.4972488872,
				"z": 2.6603988652,
				"element": "H" 
			},
			{
				"x": -3.0925796527,
				"y": 0.7334350521,
				"z": 1.6859980995,
				"element": "H" 
			},
			{
				"x": -2.6938755232,
				"y": 2.3765191879,
				"z": -0.0445328332,
				"element": "H" 
			},
			{
				"x": -1.3729409193,
				"y": 3.0589342503,
				"z": 0.9027056783,
				"element": "H" 
			}
		],
		 "valence_orbital": [ 
			{
				"type": "occ",
				"energy": -0.32431,
				"method": "rhf"
			},
			{
				"type": "occ",
				"energy": -0.28623,
				"method": "rhf"
			},
			{
				"type": "occ",
				"energy": -0.27833,
				"method": "rhf"
			},
			{
				"type": "occ",
				"energy": -0.26533,
				"method": "rhf"
			},
			{
				"type": "occ",
				"energy": -0.25269,
				"method": "rhf"
			},
			{
				"type": "unocc",
				"energy": -0.01197,
				"method": "rhf"
			},
			{
				"type": "unocc",
				"energy": 0.00399,
				"method": "rhf"
			},
			{
				"type": "unocc",
				"energy": 0.03042,
				"method": "rhf"
			},
			{
				"type": "unocc",
				"energy": 0.07392,
				"method": "rhf"
			},
			{
				"type": "unocc",
				"energy": 0.09166,
				"method": "rhf"
			}
		],
		"cosmo_sigma_profile": { 
			"-0.025": 0.0,
			"-0.024": 0.0,
			"-0.023": 0.0,
			"-0.022": 0.0,
			"-0.021": 0.0,
			"-0.02": 0.0,
			"-0.019": 0.0,
			"-0.018": 0.402050828192,
			"-0.017": 1.50566072574,
			"-0.016": 0.22988861478,
			"-0.015": 0.953080770582,
			"-0.014": 0.978073903902,
			"-0.013": 1.04850299856,
			"-0.012": 0.406174192349,
			"-0.011": 0.347873984819,
			"-0.01": 0.837129596235,
			"-0.009": 0.563461531829,
			"-0.008": 0.397423886825,
			"-0.007": 7.51832655986,
			"-0.006": 16.5519705881,
			"-0.005": 19.9696550627,
			"-0.004": 22.102886356,
			"-0.003": 21.5807973441,
			"-0.002": 17.4863543749,
			"-0.001": 10.2825203326,
			"0.0": 6.37640779461,
			"0.001": 7.37883083048,
			"0.002": 7.81525363329,
			"0.003": 8.34667639699,
			"0.004": 6.12721153769,
			"0.005": 5.356069482,
			"0.006": 6.040601587,
			"0.007": 5.2174220262,
			"0.008": 5.94128451098,
			"0.009": 4.56107684529,
			"0.01": 5.92726492142,
			"0.011": 6.84160422708,
			"0.012": 9.10184837954,
			"0.013": 3.52988371453,
			"0.014": 0.236733624856,
			"0.015": 0.0,
			"0.016": 0.0,
			"0.017": 0.0,
			"0.018": 0.0,
			"0.019": 0.0,
			"0.02": 0.0,
			"0.021": 0.0,
			"0.022": 0.0,
			"0.023": 0.0,
			"0.024": 0.0,
			"0.025": 0.0
		}
	}
}
