{
	 "smiles": "CC1=CC(C)=C(CCl)C(C)=C1CCl", 
	 "Tm": 378.65, 
	 "num_atms": 27, 
	 "gaussian": { 
		 "optdone": 1, 
		 "sigma_profile": "yes", 
		 "theory": "DFT", 
		 "functional": "B3LYP", 
		 "basiset": "6-31G**", 
		 "properties": { 
			 "R2extent": 3987.5974, 
			 "electric_dipole_moment_norm": 3.94936180414, 
			 "electric_quadrupole_moment_norm": 12.0168996413, 
			 "total_energy": -1348.02237193, 
			 "HOMO_LUMO_gap": 0.20553, 
			 "cosmo_polarized_energy": -8.9, 
			 "cosmo_cavitation_energy": 31.59, 
			 "cosmo_dispersion_energy": -22.7, 
			 "cosmo_repulsion_energy": 1.79, 
			 "cosmo_total_nonelectrostatic_energy": 10.68, 
			 "SMD_solvation_energy": 4.57 
		},
		"coords": [
			{
				"x": -1.9269874487,
				"y": -1.3341870997,
				"z": -1.8202325273,
				"element": "C" 
			},
			{
				"x": -0.7488406049,
				"y": -0.597616665,
				"z": -1.224415142,
				"element": "C" 
			},
			{
				"x": -0.0340197541,
				"y": 0.3045809096,
				"z": -2.0130252753,
				"element": "C" 
			},
			{
				"x": 1.058496524,
				"y": 1.0210259818,
				"z": -1.5232067734,
				"element": "C" 
			},
			{
				"x": 1.7818151829,
				"y": 1.9874545253,
				"z": -2.4333843728,
				"element": "C" 
			},
			{
				"x": 1.4628240862,
				"y": 0.8117977736,
				"z": -0.188548499,
				"element": "C" 
			},
			{
				"x": 2.6037725052,
				"y": 1.6117557072,
				"z": 0.3664275715,
				"element": "C" 
			},
			{
				"x": 4.2448794603,
				"y": 0.7950019401,
				"z": 0.1285421528,
				"element": "Cl" 
			},
			{
				"x": 0.7888133425,
				"y": -0.1281051595,
				"z": 0.6199872928,
				"element": "C" 
			},
			{
				"x": 1.282031553,
				"y": -0.4198157283,
				"z": 2.0242365141,
				"element": "C" 
			},
			{
				"x": -0.3404403776,
				"y": -0.8031902409,
				"z": 0.1095525276,
				"element": "C" 
			},
			{
				"x": -1.1295966346,
				"y": -1.7320683338,
				"z": 0.9836751288,
				"element": "C" 
			},
			{
				"x": -0.5254461388,
				"y": -3.47779552,
				"z": 0.9174596368,
				"element": "Cl" 
			},
			{
				"x": -2.8758408004,
				"y": -1.0254556474,
				"z": -1.3636809265,
				"element": "H" 
			},
			{
				"x": -1.8376426714,
				"y": -2.4167811169,
				"z": -1.6837758334,
				"element": "H" 
			},
			{
				"x": -2.0032453362,
				"y": -1.1354631259,
				"z": -2.8920370815,
				"element": "H" 
			},
			{
				"x": -0.3402527136,
				"y": 0.4560157958,
				"z": -3.0451489169,
				"element": "H" 
			},
			{
				"x": 2.8581476949,
				"y": 1.7889447834,
				"z": -2.4599395061,
				"element": "H" 
			},
			{
				"x": 1.6503172853,
				"y": 3.0283997899,
				"z": -2.1121056328,
				"element": "H" 
			},
			{
				"x": 1.4007843255,
				"y": 1.9129546173,
				"z": -3.4548243928,
				"element": "H" 
			},
			{
				"x": 2.5252061373,
				"y": 1.7722329465,
				"z": 1.4393425804,
				"element": "H" 
			},
			{
				"x": 2.7048155282,
				"y": 2.5774672818,
				"z": -0.124155082,
				"element": "H" 
			},
			{
				"x": 1.0721451816,
				"y": -1.4507917222,
				"z": 2.3142107582,
				"element": "H" 
			},
			{
				"x": 2.3629274485,
				"y": -0.2908954795,
				"z": 2.1020151101,
				"element": "H" 
			},
			{
				"x": 0.8136054679,
				"y": 0.2377423044,
				"z": 2.7690462998,
				"element": "H" 
			},
			{
				"x": -2.1731880504,
				"y": -1.7918098671,
				"z": 0.6823037577,
				"element": "H" 
			},
			{
				"x": -1.0855811925,
				"y": -1.4615986507,
				"z": 2.036280631,
				"element": "H" 
			}
		],
		 "valence_orbital": [ 
			{
				"type": "occ",
				"energy": -0.2937,
				"method": "rhf"
			},
			{
				"type": "occ",
				"energy": -0.29273,
				"method": "rhf"
			},
			{
				"type": "occ",
				"energy": -0.29157,
				"method": "rhf"
			},
			{
				"type": "occ",
				"energy": -0.2452,
				"method": "rhf"
			},
			{
				"type": "occ",
				"energy": -0.24162,
				"method": "rhf"
			},
			{
				"type": "unocc",
				"energy": -0.03609,
				"method": "rhf"
			},
			{
				"type": "unocc",
				"energy": -0.02256,
				"method": "rhf"
			},
			{
				"type": "unocc",
				"energy": 0.02847,
				"method": "rhf"
			},
			{
				"type": "unocc",
				"energy": 0.05189,
				"method": "rhf"
			},
			{
				"type": "unocc",
				"energy": 0.08098,
				"method": "rhf"
			}
		],
		"cosmo_sigma_profile": { 
			"-0.025": 0.0,
			"-0.024": 0.0,
			"-0.023": 0.0,
			"-0.022": 0.0,
			"-0.021": 0.0,
			"-0.02": 0.0,
			"-0.019": 0.0,
			"-0.018": 0.0,
			"-0.017": 0.0,
			"-0.016": 0.0,
			"-0.015": 0.0,
			"-0.014": 0.0,
			"-0.013": 0.0,
			"-0.012": 0.0,
			"-0.011": 0.0,
			"-0.01": 0.0,
			"-0.009": 0.0,
			"-0.008": 0.277701512151,
			"-0.007": 7.04671904008,
			"-0.006": 10.468770661,
			"-0.005": 19.3640087774,
			"-0.004": 23.0913285306,
			"-0.003": 19.525033377,
			"-0.002": 21.067067375,
			"-0.001": 22.7316514525,
			"0.0": 23.5106451631,
			"0.001": 16.671033608,
			"0.002": 13.7540170949,
			"0.003": 12.733087009,
			"0.004": 16.1843730567,
			"0.005": 18.3838501778,
			"0.006": 16.7795850966,
			"0.007": 11.7916058748,
			"0.008": 0.148773787561,
			"0.009": 0.0,
			"0.01": 0.0,
			"0.011": 0.0,
			"0.012": 0.0,
			"0.013": 0.0,
			"0.014": 0.0,
			"0.015": 0.0,
			"0.016": 0.0,
			"0.017": 0.0,
			"0.018": 0.0,
			"0.019": 0.0,
			"0.02": 0.0,
			"0.021": 0.0,
			"0.022": 0.0,
			"0.023": 0.0,
			"0.024": 0.0,
			"0.025": 0.0
		}
	}
}
