{
	 "smiles": "BrCC1=CC(I)=CC=C1", 
	 "Tm": 323.15, 
	 "num_atms": 15, 
	 "gaussian": { 
		 "optdone": 1, 
		 "sigma_profile": "no", 
		 "theory": "DFT", 
		 "functional": "B3LYP", 
		 "basiset": "6-31G**", 
		 "properties": { 
			 "R2extent": 2949.9268, 
			 "electric_dipole_moment_norm": 2.30831187884, 
			 "electric_quadrupole_moment_norm": 9.87065723344, 
			 "total_energy": -2853.15555884, 
			 "HOMO_LUMO_gap": 0.19684, 
			 "cosmo_polarized_energy": -99132.1, 
			 "cosmo_cavitation_energy": 24.6, 
			 "cosmo_dispersion_energy": -19.66, 
			 "cosmo_repulsion_energy": 1.59, 
			 "cosmo_total_nonelectrostatic_energy": 6.54, 
			 "SMD_solvation_energy": 2.04 
		},
		"coords": [
			{
				"x": 0.3290817196,
				"y": -3.542453844,
				"z": -1.212638793,
				"element": "Br" 
			},
			{
				"x": 0.2374641299,
				"y": -1.8468970349,
				"z": -2.2769054121,
				"element": "C" 
			},
			{
				"x": -0.09761159,
				"y": -0.6643288893,
				"z": -1.4253645503,
				"element": "C" 
			},
			{
				"x": 0.9288899067,
				"y": 0.1032031004,
				"z": -0.8570067306,
				"element": "C" 
			},
			{
				"x": 0.6111156145,
				"y": 1.2128218275,
				"z": -0.0753545303,
				"element": "C" 
			},
			{
				"x": 2.174204098,
				"y": 2.370683872,
				"z": 0.7714775354,
				"element": "I" 
			},
			{
				"x": -0.7170049266,
				"y": 1.5760220666,
				"z": 0.1558816926,
				"element": "C" 
			},
			{
				"x": -1.7355350378,
				"y": 0.8067970299,
				"z": -0.4115009537,
				"element": "C" 
			},
			{
				"x": -1.4316399924,
				"y": -0.3041288566,
				"z": -1.1951692852,
				"element": "C" 
			},
			{
				"x": 1.2180579154,
				"y": -1.7662947242,
				"z": -2.7420719205,
				"element": "H" 
			},
			{
				"x": -0.5192467022,
				"y": -2.0450980018,
				"z": -3.0337603276,
				"element": "H" 
			},
			{
				"x": 1.9645150522,
				"y": -0.1722738311,
				"z": -1.0260321833,
				"element": "H" 
			},
			{
				"x": -0.9558386959,
				"y": 2.4410349045,
				"z": 0.7639960024,
				"element": "H" 
			},
			{
				"x": -2.7714105095,
				"y": 1.0828962113,
				"z": -0.238306593,
				"element": "H" 
			},
			{
				"x": -2.230540982,
				"y": -0.8991838303,
				"z": -1.628543951,
				"element": "H" 
			}
		],
		 "valence_orbital": [ 
			{
				"type": "occ",
				"energy": -0.28051,
				"method": "rhf"
			},
			{
				"type": "occ",
				"energy": -0.27522,
				"method": "rhf"
			},
			{
				"type": "occ",
				"energy": -0.27259,
				"method": "rhf"
			},
			{
				"type": "occ",
				"energy": -0.26369,
				"method": "rhf"
			},
			{
				"type": "occ",
				"energy": -0.24552,
				"method": "rhf"
			},
			{
				"type": "unocc",
				"energy": -0.04868,
				"method": "rhf"
			},
			{
				"type": "unocc",
				"energy": -0.04321,
				"method": "rhf"
			},
			{
				"type": "unocc",
				"energy": -0.0257,
				"method": "rhf"
			},
			{
				"type": "unocc",
				"energy": 0.01791,
				"method": "rhf"
			},
			{
				"type": "unocc",
				"energy": 0.04064,
				"method": "rhf"
			}
		],
		"cosmo_sigma_profile": { 
			"0.0": 0.0,
			"0.0": 0.0,
			"0.0": 0.0,
			"0.0": 0.0,
			"0.0": 0.0,
			"0.0": 0.0,
			"0.0": 0.0,
			"0.0": 0.0,
			"0.0": 0.0,
			"0.0": 0.0,
			"0.0": 0.0,
			"0.0": 0.0,
			"0.0": 0.0,
			"0.0": 0.0,
			"0.0": 0.0,
			"0.0": 0.0,
			"0.0": 0.0,
			"0.0": 0.0,
			"0.0": 0.0,
			"0.0": 0.0,
			"0.0": 0.0,
			"0.0": 0.0,
			"0.0": 0.0,
			"0.0": 0.0,
			"0.0": 0.0,
			"0.0": 0.0,
			"0.0": 0.0,
			"0.0": 0.0,
			"0.0": 0.0,
			"0.0": 0.0,
			"0.0": 0.0,
			"0.0": 0.0,
			"0.0": 0.0,
			"0.0": 0.0,
			"0.0": 0.0,
			"0.0": 0.0,
			"0.0": 0.0,
			"0.0": 0.0,
			"0.0": 0.0,
			"0.0": 0.0,
			"0.0": 0.0,
			"0.0": 0.0,
			"0.0": 0.0,
			"0.0": 0.0,
			"0.0": 0.0,
			"0.0": 0.0,
			"0.0": 0.0,
			"0.0": 0.0,
			"0.0": 0.0,
			"0.0": 0.0,
			"0.0": 0.0
		}
	}
}
