{
	 "smiles": "NCCNC(=O)C1=CC=C(O)C=C1", 
	 "Tm": 465.15, 
	 "num_atms": 25, 
	 "gaussian": { 
		 "optdone": 1, 
		 "sigma_profile": "yes", 
		 "theory": "DFT", 
		 "functional": "B3LYP", 
		 "basiset": "6-31G**", 
		 "properties": { 
			 "R2extent": 2978.0725, 
			 "electric_dipole_moment_norm": 2.55414858221, 
			 "electric_quadrupole_moment_norm": 26.5210481844, 
			 "total_energy": -610.147146916, 
			 "HOMO_LUMO_gap": 0.20212, 
			 "cosmo_polarized_energy": -17.94, 
			 "cosmo_cavitation_energy": 28.24, 
			 "cosmo_dispersion_energy": -20.71, 
			 "cosmo_repulsion_energy": 1.67, 
			 "cosmo_total_nonelectrostatic_energy": 9.2, 
			 "SMD_solvation_energy": 5.05 
		},
		"coords": [
			{
				"x": 0.8803328981,
				"y": -0.8206546546,
				"z": -2.9253528105,
				"element": "N" 
			},
			{
				"x": 1.682171713,
				"y": 0.4029533144,
				"z": -2.9012840755,
				"element": "C" 
			},
			{
				"x": 1.4049648076,
				"y": 1.1954323447,
				"z": -1.6205143152,
				"element": "C" 
			},
			{
				"x": -0.0033370014,
				"y": 1.5798878157,
				"z": -1.5170883782,
				"element": "N" 
			},
			{
				"x": -0.8201502191,
				"y": 1.5510204824,
				"z": -0.3979619312,
				"element": "C" 
			},
			{
				"x": -1.7384472555,
				"y": 2.3624401737,
				"z": -0.3009412096,
				"element": "O" 
			},
			{
				"x": -0.603237474,
				"y": 0.5087013369,
				"z": 0.6560541677,
				"element": "C" 
			},
			{
				"x": -1.0175445157,
				"y": 0.8361396884,
				"z": 1.9556142449,
				"element": "C" 
			},
			{
				"x": -0.9097917913,
				"y": -0.0801348269,
				"z": 2.9950102162,
				"element": "C" 
			},
			{
				"x": -0.405321844,
				"y": -1.3624090559,
				"z": 2.7417983587,
				"element": "C" 
			},
			{
				"x": -0.2792487843,
				"y": -2.3080760988,
				"z": 3.7160081125,
				"element": "O" 
			},
			{
				"x": -0.0154007786,
				"y": -1.7143060056,
				"z": 1.4446916557,
				"element": "C" 
			},
			{
				"x": -0.1116193746,
				"y": -0.7861334406,
				"z": 0.4122880653,
				"element": "C" 
			},
			{
				"x": 1.0943690848,
				"y": -1.3708457382,
				"z": -3.7526001413,
				"element": "H" 
			},
			{
				"x": -0.1033681344,
				"y": -0.5672246581,
				"z": -2.983714852,
				"element": "H" 
			},
			{
				"x": 1.5185971778,
				"y": 1.0646083073,
				"z": -3.7721068114,
				"element": "H" 
			},
			{
				"x": 2.7438331935,
				"y": 0.128812216,
				"z": -2.9118096225,
				"element": "H" 
			},
			{
				"x": 1.6693360419,
				"y": 0.5952129103,
				"z": -0.7503245329,
				"element": "H" 
			},
			{
				"x": 2.0405386917,
				"y": 2.0923395473,
				"z": -1.6069477552,
				"element": "H" 
			},
			{
				"x": -0.2816804681,
				"y": 2.3529155008,
				"z": -2.1121498511,
				"element": "H" 
			},
			{
				"x": -1.4336831966,
				"y": 1.8222175481,
				"z": 2.131784155,
				"element": "H" 
			},
			{
				"x": -1.2240702553,
				"y": 0.1927962482,
				"z": 4.0005378508,
				"element": "H" 
			},
			{
				"x": -0.5943708857,
				"y": -1.9442539454,
				"z": 4.5537938284,
				"element": "H" 
			},
			{
				"x": 0.3523348915,
				"y": -2.7186837979,
				"z": 1.2624733463,
				"element": "H" 
			},
			{
				"x": 0.1823934787,
				"y": -1.0851552122,
				"z": -0.5900577149,
				"element": "H" 
			}
		],
		 "valence_orbital": [ 
			{
				"type": "occ",
				"energy": -0.25623,
				"method": "rhf"
			},
			{
				"type": "occ",
				"energy": -0.25355,
				"method": "rhf"
			},
			{
				"type": "occ",
				"energy": -0.24544,
				"method": "rhf"
			},
			{
				"type": "occ",
				"energy": -0.23592,
				"method": "rhf"
			},
			{
				"type": "occ",
				"energy": -0.22063,
				"method": "rhf"
			},
			{
				"type": "unocc",
				"energy": -0.01851,
				"method": "rhf"
			},
			{
				"type": "unocc",
				"energy": -0.00225,
				"method": "rhf"
			},
			{
				"type": "unocc",
				"energy": 0.06465,
				"method": "rhf"
			},
			{
				"type": "unocc",
				"energy": 0.06936,
				"method": "rhf"
			},
			{
				"type": "unocc",
				"energy": 0.07617,
				"method": "rhf"
			}
		],
		"cosmo_sigma_profile": { 
			"-0.025": 0.0,
			"-0.024": 0.0,
			"-0.023": 0.0,
			"-0.022": 0.0,
			"-0.021": 0.0,
			"-0.02": 0.0,
			"-0.019": 0.0274569910579,
			"-0.018": 0.860057586093,
			"-0.017": 1.0154202034,
			"-0.016": 0.953939832763,
			"-0.015": 1.27656802177,
			"-0.014": 1.03819889313,
			"-0.013": 0.83579580656,
			"-0.012": 2.11968679718,
			"-0.011": 1.93847168717,
			"-0.01": 3.4185587542,
			"-0.009": 3.9736664348,
			"-0.008": 4.48833604818,
			"-0.007": 5.21266189844,
			"-0.006": 8.47125297194,
			"-0.005": 10.0999248759,
			"-0.004": 17.1278633543,
			"-0.003": 17.1342377328,
			"-0.002": 19.5475334074,
			"-0.001": 15.5520981516,
			"0.0": 12.3830496606,
			"0.001": 9.42518115198,
			"0.002": 12.6559933646,
			"0.003": 13.3861512592,
			"0.004": 14.5672078951,
			"0.005": 8.58045170117,
			"0.006": 3.61320772576,
			"0.007": 3.44271409873,
			"0.008": 3.62420485864,
			"0.009": 4.37110979299,
			"0.01": 3.73371597096,
			"0.011": 3.54280458197,
			"0.012": 2.34433775848,
			"0.013": 3.92917564158,
			"0.014": 5.74069934903,
			"0.015": 1.74324023069,
			"0.016": 0.30099674972,
			"0.017": 0.0,
			"0.018": 0.0,
			"0.019": 0.0,
			"0.02": 0.0,
			"0.021": 0.0,
			"0.022": 0.0,
			"0.023": 0.0,
			"0.024": 0.0,
			"0.025": 0.0
		}
	}
}
