{
	 "smiles": "CC1=CC=C(C=C1)N1N=C(C=C1C1=CC=C(C=C1)C1=CC=CC=C1)C(O)=O", 
	 "Tm": 479.15, 
	 "num_atms": 45, 
	 "gaussian": { 
		 "optdone": 1, 
		 "sigma_profile": "yes", 
		 "theory": "DFT", 
		 "functional": "B3LYP", 
		 "basiset": "6-31G**", 
		 "properties": { 
			 "R2extent": 14003.5531, 
			 "electric_dipole_moment_norm": 8.12673743946, 
			 "electric_quadrupole_moment_norm": 43.5750985219, 
			 "total_energy": -1147.251314, 
			 "HOMO_LUMO_gap": 0.17335, 
			 "cosmo_polarized_energy": -22.83, 
			 "cosmo_cavitation_energy": 50.28, 
			 "cosmo_dispersion_energy": -34.85, 
			 "cosmo_repulsion_energy": 2.63, 
			 "cosmo_total_nonelectrostatic_energy": 18.06, 
			 "SMD_solvation_energy": 8.45 
		},
		"coords": [
			{
				"x": 0.6455652066,
				"y": -5.6916122798,
				"z": -2.9048470388,
				"element": "C" 
			},
			{
				"x": -0.0465855254,
				"y": -4.389271145,
				"z": -2.5805112708,
				"element": "C" 
			},
			{
				"x": -0.0269237085,
				"y": -3.8641758641,
				"z": -1.2818544751,
				"element": "C" 
			},
			{
				"x": -0.6454411172,
				"y": -2.6525132551,
				"z": -0.978411598,
				"element": "C" 
			},
			{
				"x": -1.2857221156,
				"y": -1.9366321688,
				"z": -1.9918232915,
				"element": "C" 
			},
			{
				"x": -1.329274768,
				"y": -2.4437479446,
				"z": -3.2926996881,
				"element": "C" 
			},
			{
				"x": -0.7161097257,
				"y": -3.6615286798,
				"z": -3.5746590507,
				"element": "C" 
			},
			{
				"x": -1.9500023714,
				"y": -0.7010483973,
				"z": -1.7097702639,
				"element": "N" 
			},
			{
				"x": -3.1874210391,
				"y": -0.5198485213,
				"z": -2.2132057571,
				"element": "N" 
			},
			{
				"x": -3.5847374105,
				"y": 0.667629098,
				"z": -1.7520461777,
				"element": "C" 
			},
			{
				"x": -2.5925742541,
				"y": 1.2552407328,
				"z": -0.9313512307,
				"element": "C" 
			},
			{
				"x": -1.537562739,
				"y": 0.3568534433,
				"z": -0.9232332558,
				"element": "C" 
			},
			{
				"x": -0.2177551008,
				"y": 0.5027296057,
				"z": -0.2862206845,
				"element": "C" 
			},
			{
				"x": -0.1328264676,
				"y": 0.998990271,
				"z": 1.0247606631,
				"element": "C" 
			},
			{
				"x": 1.1024814338,
				"y": 1.2084488295,
				"z": 1.6305375258,
				"element": "C" 
			},
			{
				"x": 2.3010988281,
				"y": 0.9270289513,
				"z": 0.9536504859,
				"element": "C" 
			},
			{
				"x": 2.2094704016,
				"y": 0.432188259,
				"z": -0.3592637698,
				"element": "C" 
			},
			{
				"x": 0.9775968492,
				"y": 0.2266218528,
				"z": -0.971125612,
				"element": "C" 
			},
			{
				"x": 3.6185496548,
				"y": 1.1459440958,
				"z": 1.601597248,
				"element": "C" 
			},
			{
				"x": 4.7136930951,
				"y": 1.630085022,
				"z": 0.865411336,
				"element": "C" 
			},
			{
				"x": 5.9506716796,
				"y": 1.8360351276,
				"z": 1.4743121262,
				"element": "C" 
			},
			{
				"x": 6.1200847042,
				"y": 1.5626719935,
				"z": 2.8329798583,
				"element": "C" 
			},
			{
				"x": 5.0413158142,
				"y": 1.0813850456,
				"z": 3.5772503491,
				"element": "C" 
			},
			{
				"x": 3.8044084782,
				"y": 0.8751418985,
				"z": 2.9682628213,
				"element": "C" 
			},
			{
				"x": -4.9332624774,
				"y": 1.1855851627,
				"z": -2.1177104429,
				"element": "C" 
			},
			{
				"x": -5.1000005217,
				"y": 2.526520511,
				"z": -1.9241956895,
				"element": "O" 
			},
			{
				"x": -5.8383168802,
				"y": 0.5121962557,
				"z": -2.5394882548,
				"element": "O" 
			},
			{
				"x": 0.7214089292,
				"y": -6.3348356646,
				"z": -2.0233890827,
				"element": "H" 
			},
			{
				"x": 1.6653381026,
				"y": -5.5175000455,
				"z": -3.2706600224,
				"element": "H" 
			},
			{
				"x": 0.1122327226,
				"y": -6.2447371418,
				"z": -3.6837904726,
				"element": "H" 
			},
			{
				"x": 0.4666829003,
				"y": -4.418098292,
				"z": -0.487784934,
				"element": "H" 
			},
			{
				"x": -0.64125738,
				"y": -2.2744090423,
				"z": 0.0374374794,
				"element": "H" 
			},
			{
				"x": -1.8579993591,
				"y": -1.8901750644,
				"z": -4.0601434905,
				"element": "H" 
			},
			{
				"x": -0.7595494222,
				"y": -4.0534456801,
				"z": -4.5874466326,
				"element": "H" 
			},
			{
				"x": -2.6101769526,
				"y": 2.2022944634,
				"z": -0.4105550472,
				"element": "H" 
			},
			{
				"x": -1.0453807598,
				"y": 1.2171667176,
				"z": 1.5716895899,
				"element": "H" 
			},
			{
				"x": 1.1388598756,
				"y": 1.6141800545,
				"z": 2.6369358498,
				"element": "H" 
			},
			{
				"x": 3.1174476087,
				"y": 0.1889872619,
				"z": -0.9025383213,
				"element": "H" 
			},
			{
				"x": 0.9416841353,
				"y": -0.1494042158,
				"z": -1.9882288675,
				"element": "H" 
			},
			{
				"x": 4.5861630033,
				"y": 1.8720651682,
				"z": -0.1856060956,
				"element": "H" 
			},
			{
				"x": 6.7811180726,
				"y": 2.2192299004,
				"z": 0.8881445101,
				"element": "H" 
			},
			{
				"x": 7.0837615875,
				"y": 1.723305724,
				"z": 3.3073424202,
				"element": "H" 
			},
			{
				"x": 5.1646783246,
				"y": 0.8573908387,
				"z": 4.6330371629,
				"element": "H" 
			},
			{
				"x": 2.9797272739,
				"y": 0.4748465288,
				"z": 3.5506509198,
				"element": "H" 
			},
			{
				"x": -4.2492585857,
				"y": 2.9409205893,
				"z": -1.7240398275,
				"element": "H" 
			}
		],
		 "valence_orbital": [ 
			{
				"type": "occ",
				"energy": -0.2606,
				"method": "rhf"
			},
			{
				"type": "occ",
				"energy": -0.25972,
				"method": "rhf"
			},
			{
				"type": "occ",
				"energy": -0.25928,
				"method": "rhf"
			},
			{
				"type": "occ",
				"energy": -0.23958,
				"method": "rhf"
			},
			{
				"type": "occ",
				"energy": -0.22587,
				"method": "rhf"
			},
			{
				"type": "unocc",
				"energy": -0.05252,
				"method": "rhf"
			},
			{
				"type": "unocc",
				"energy": -0.0318,
				"method": "rhf"
			},
			{
				"type": "unocc",
				"energy": -0.02266,
				"method": "rhf"
			},
			{
				"type": "unocc",
				"energy": -0.01141,
				"method": "rhf"
			},
			{
				"type": "unocc",
				"energy": -0.01024,
				"method": "rhf"
			}
		],
		"cosmo_sigma_profile": { 
			"-0.025": 0.0,
			"-0.024": 0.0,
			"-0.023": 0.0,
			"-0.022": 0.0,
			"-0.021": 0.0,
			"-0.02": 0.0,
			"-0.019": 0.0773862833133,
			"-0.018": 0.786029276932,
			"-0.017": 1.32528028015,
			"-0.016": 0.834856960453,
			"-0.015": 1.24879245819,
			"-0.014": 0.774644453968,
			"-0.013": 1.26460237179,
			"-0.012": 0.961023296847,
			"-0.011": 1.23507370075,
			"-0.01": 1.46252268534,
			"-0.009": 1.12103468586,
			"-0.008": 1.60549264304,
			"-0.007": 3.07699861122,
			"-0.006": 20.6164073218,
			"-0.005": 35.2641999966,
			"-0.004": 35.5336291995,
			"-0.003": 31.3110568196,
			"-0.002": 29.2391811008,
			"-0.001": 30.6688291944,
			"0.0": 28.4295026878,
			"0.001": 26.2931055066,
			"0.002": 29.9686297513,
			"0.003": 27.4256853034,
			"0.004": 32.160661675,
			"0.005": 17.1750863572,
			"0.006": 7.15597856407,
			"0.007": 3.97861504431,
			"0.008": 3.65176629845,
			"0.009": 4.43294355381,
			"0.01": 5.71534429941,
			"0.011": 6.47965633071,
			"0.012": 6.15304674236,
			"0.013": 3.39715782725,
			"0.014": 2.06017322445,
			"0.015": 0.244426554362,
			"0.016": 0.0,
			"0.017": 0.0,
			"0.018": 0.0,
			"0.019": 0.0,
			"0.02": 0.0,
			"0.021": 0.0,
			"0.022": 0.0,
			"0.023": 0.0,
			"0.024": 0.0,
			"0.025": 0.0
		}
	}
}
