{
	 "smiles": "CNC1CCCCC1", 
	 "Tm": 265.15, 
	 "num_atms": 23, 
	 "gaussian": { 
		 "optdone": 1, 
		 "sigma_profile": "yes", 
		 "theory": "DFT", 
		 "functional": "B3LYP", 
		 "basiset": "6-31G**", 
		 "properties": { 
			 "R2extent": 1329.5704, 
			 "electric_dipole_moment_norm": 0.884413692793, 
			 "electric_quadrupole_moment_norm": 4.41129539591, 
			 "total_energy": -330.533894571, 
			 "HOMO_LUMO_gap": 0.28189, 
			 "cosmo_polarized_energy": -3.46, 
			 "cosmo_cavitation_energy": 22.41, 
			 "cosmo_dispersion_energy": -16.99, 
			 "cosmo_repulsion_energy": 1.4, 
			 "cosmo_total_nonelectrostatic_energy": 6.83, 
			 "SMD_solvation_energy": 1.24 
		},
		"coords": [
			{
				"x": -1.157424319,
				"y": 0.3795509382,
				"z": -2.8228291198,
				"element": "C" 
			},
			{
				"x": -0.5184109458,
				"y": 1.5792100243,
				"z": -2.2907835985,
				"element": "N" 
			},
			{
				"x": 0.3844947348,
				"y": 1.4061743548,
				"z": -1.1402368171,
				"element": "C" 
			},
			{
				"x": 1.6392111237,
				"y": 0.535265332,
				"z": -1.4098715418,
				"element": "C" 
			},
			{
				"x": 2.3338610692,
				"y": 0.1609643183,
				"z": -0.0928395317,
				"element": "C" 
			},
			{
				"x": 1.4342626698,
				"y": -0.7506587171,
				"z": 0.7805097251,
				"element": "C" 
			},
			{
				"x": -0.0675321115,
				"y": -0.5577044128,
				"z": 0.4692740551,
				"element": "C" 
			},
			{
				"x": -0.3854069088,
				"y": 0.9020983831,
				"z": 0.1151708384,
				"element": "C" 
			},
			{
				"x": -1.7727979532,
				"y": 0.6616162414,
				"z": -3.6831194461,
				"element": "H" 
			},
			{
				"x": -1.8310122406,
				"y": -0.0480397477,
				"z": -2.072973249,
				"element": "H" 
			},
			{
				"x": -0.4746461633,
				"y": -0.4237062076,
				"z": -3.1507277748,
				"element": "H" 
			},
			{
				"x": -0.0065156639,
				"y": 2.0414223387,
				"z": -3.0381918195,
				"element": "H" 
			},
			{
				"x": 0.7451328881,
				"y": 2.4189180352,
				"z": -0.91630433,
				"element": "H" 
			},
			{
				"x": 1.3594182091,
				"y": -0.3817733847,
				"z": -1.9434864746,
				"element": "H" 
			},
			{
				"x": 2.324649122,
				"y": 1.0801495369,
				"z": -2.0710153154,
				"element": "H" 
			},
			{
				"x": 3.2958628647,
				"y": -0.3265746593,
				"z": -0.2861697028,
				"element": "H" 
			},
			{
				"x": 2.5676809387,
				"y": 1.0852707855,
				"z": 0.4525967393,
				"element": "H" 
			},
			{
				"x": 1.6236171651,
				"y": -0.5408335241,
				"z": 1.8400795919,
				"element": "H" 
			},
			{
				"x": 1.7024145537,
				"y": -1.8025019009,
				"z": 0.6251941731,
				"element": "H" 
			},
			{
				"x": -0.6734592548,
				"y": -0.8815262585,
				"z": 1.3233517841,
				"element": "H" 
			},
			{
				"x": -0.3553778354,
				"y": -1.2056980899,
				"z": -0.3676243791,
				"element": "H" 
			},
			{
				"x": -0.1211185979,
				"y": 1.5342376728,
				"z": 0.9720706854,
				"element": "H" 
			},
			{
				"x": -1.4585033447,
				"y": 1.0475389412,
				"z": -0.0458744924,
				"element": "H" 
			}
		],
		 "valence_orbital": [ 
			{
				"type": "occ",
				"energy": -0.33939,
				"method": "rhf"
			},
			{
				"type": "occ",
				"energy": -0.30565,
				"method": "rhf"
			},
			{
				"type": "occ",
				"energy": -0.29608,
				"method": "rhf"
			},
			{
				"type": "occ",
				"energy": -0.29345,
				"method": "rhf"
			},
			{
				"type": "occ",
				"energy": -0.20724,
				"method": "rhf"
			},
			{
				"type": "unocc",
				"energy": 0.07465,
				"method": "rhf"
			},
			{
				"type": "unocc",
				"energy": 0.09671,
				"method": "rhf"
			},
			{
				"type": "unocc",
				"energy": 0.10563,
				"method": "rhf"
			},
			{
				"type": "unocc",
				"energy": 0.13275,
				"method": "rhf"
			},
			{
				"type": "unocc",
				"energy": 0.13885,
				"method": "rhf"
			}
		],
		"cosmo_sigma_profile": { 
			"-0.025": 0.0,
			"-0.024": 0.0,
			"-0.023": 0.0,
			"-0.022": 0.0,
			"-0.021": 0.0,
			"-0.02": 0.0,
			"-0.019": 0.0,
			"-0.018": 0.0,
			"-0.017": 0.0,
			"-0.016": 0.0,
			"-0.015": 0.0,
			"-0.014": 0.0,
			"-0.013": 0.0,
			"-0.012": 0.0,
			"-0.011": 0.0,
			"-0.01": 0.00259022704222,
			"-0.009": 1.04928849512,
			"-0.008": 1.2741014676,
			"-0.007": 0.74595968657,
			"-0.006": 1.69989512078,
			"-0.005": 1.09667150359,
			"-0.004": 2.07633621919,
			"-0.003": 7.03394551935,
			"-0.002": 29.8316229439,
			"-0.001": 37.2306069287,
			"0.0": 37.34086731,
			"0.001": 27.17245875,
			"0.002": 11.9753768675,
			"0.003": 1.70788457292,
			"0.004": 1.46407951812,
			"0.005": 1.03006844318,
			"0.006": 0.628237024444,
			"0.007": 0.766465300589,
			"0.008": 0.957998326966,
			"0.009": 0.924750119293,
			"0.01": 0.932680423235,
			"0.011": 0.547253421933,
			"0.012": 0.532381513241,
			"0.013": 0.480276290873,
			"0.014": 0.663287857843,
			"0.015": 0.53575209322,
			"0.016": 0.628018314792,
			"0.017": 0.419341887021,
			"0.018": 0.383246613891,
			"0.019": 0.292799672109,
			"0.02": 0.0,
			"0.021": 0.0,
			"0.022": 0.0,
			"0.023": 0.0,
			"0.024": 0.0,
			"0.025": 0.0
		}
	}
}
