{
	 "smiles": "NNC(=O)CC1=NC(=NO1)C1=NC=CN=C1", 
	 "Tm": 458.15, 
	 "num_atms": 24, 
	 "gaussian": { 
		 "optdone": 1, 
		 "sigma_profile": "yes", 
		 "theory": "DFT", 
		 "functional": "B3LYP", 
		 "basiset": "6-31G**", 
		 "properties": { 
			 "R2extent": 4453.8054, 
			 "electric_dipole_moment_norm": 3.55998746206, 
			 "electric_quadrupole_moment_norm": 21.0716357082, 
			 "total_energy": -788.548607378, 
			 "HOMO_LUMO_gap": 0.17634, 
			 "cosmo_polarized_energy": -20.89, 
			 "cosmo_cavitation_energy": 30.22, 
			 "cosmo_dispersion_energy": -21.94, 
			 "cosmo_repulsion_energy": 1.7, 
			 "cosmo_total_nonelectrostatic_energy": 9.98, 
			 "SMD_solvation_energy": 2.79 
		},
		"coords": [
			{
				"x": 3.3585494209,
				"y": 1.1117148447,
				"z": -0.8373872009,
				"element": "N" 
			},
			{
				"x": 4.0036706456,
				"y": 0.0008405207,
				"z": -0.2719566241,
				"element": "N" 
			},
			{
				"x": 3.6377860133,
				"y": -1.3139865612,
				"z": -0.3524144351,
				"element": "C" 
			},
			{
				"x": 4.1917988237,
				"y": -2.1879582987,
				"z": 0.293022859,
				"element": "O" 
			},
			{
				"x": 2.4876619099,
				"y": -1.6455350993,
				"z": -1.3294289691,
				"element": "C" 
			},
			{
				"x": 1.1414936901,
				"y": -1.3797935604,
				"z": -0.7429939187,
				"element": "C" 
			},
			{
				"x": 0.6365858776,
				"y": -0.2461978437,
				"z": -0.3433352331,
				"element": "N" 
			},
			{
				"x": -0.6183256264,
				"y": -0.615206975,
				"z": 0.1019538501,
				"element": "C" 
			},
			{
				"x": -0.8783505949,
				"y": -1.8979707524,
				"z": -0.01587976,
				"element": "N" 
			},
			{
				"x": 0.2994790913,
				"y": -2.4095129487,
				"z": -0.5791527322,
				"element": "O" 
			},
			{
				"x": -1.5771642032,
				"y": 0.3546306041,
				"z": 0.6603173632,
				"element": "C" 
			},
			{
				"x": -2.7840216869,
				"y": -0.0988009433,
				"z": 1.0339366346,
				"element": "N" 
			},
			{
				"x": -3.6244773811,
				"y": 0.8051518249,
				"z": 1.5351753567,
				"element": "C" 
			},
			{
				"x": -3.2739259844,
				"y": 2.1535653767,
				"z": 1.6650204926,
				"element": "C" 
			},
			{
				"x": -2.0737883756,
				"y": 2.610024252,
				"z": 1.294200267,
				"element": "N" 
			},
			{
				"x": -1.2265118805,
				"y": 1.7064209252,
				"z": 0.7924418487,
				"element": "C" 
			},
			{
				"x": 2.3567349623,
				"y": 1.0641069447,
				"z": -0.6581924291,
				"element": "H" 
			},
			{
				"x": 3.5356919311,
				"y": 1.1549437673,
				"z": -1.8376269122,
				"element": "H" 
			},
			{
				"x": 4.7124422392,
				"y": 0.2102666792,
				"z": 0.4197414245,
				"element": "H" 
			},
			{
				"x": 2.5726987951,
				"y": -2.7072614609,
				"z": -1.5600058057,
				"element": "H" 
			},
			{
				"x": 2.5878641717,
				"y": -1.0671995948,
				"z": -2.2537089055,
				"element": "H" 
			},
			{
				"x": -4.6058310636,
				"y": 0.4500805409,
				"z": 1.8425194119,
				"element": "H" 
			},
			{
				"x": -3.9754186123,
				"y": 2.8765545594,
				"z": 2.0756346712,
				"element": "H" 
			},
			{
				"x": -0.2447421628,
				"y": 2.0562231985,
				"z": 0.4875187462,
				"element": "H" 
			}
		],
		 "valence_orbital": [ 
			{
				"type": "occ",
				"energy": -0.29477,
				"method": "rhf"
			},
			{
				"type": "occ",
				"energy": -0.27784,
				"method": "rhf"
			},
			{
				"type": "occ",
				"energy": -0.26778,
				"method": "rhf"
			},
			{
				"type": "occ",
				"energy": -0.26272,
				"method": "rhf"
			},
			{
				"type": "occ",
				"energy": -0.2564,
				"method": "rhf"
			},
			{
				"type": "unocc",
				"energy": -0.08006,
				"method": "rhf"
			},
			{
				"type": "unocc",
				"energy": -0.05168,
				"method": "rhf"
			},
			{
				"type": "unocc",
				"energy": -0.03371,
				"method": "rhf"
			},
			{
				"type": "unocc",
				"energy": 0.01207,
				"method": "rhf"
			},
			{
				"type": "unocc",
				"energy": 0.03954,
				"method": "rhf"
			}
		],
		"cosmo_sigma_profile": { 
			"-0.025": 0.0,
			"-0.024": 0.0,
			"-0.023": 0.0,
			"-0.022": 0.0,
			"-0.021": 0.0,
			"-0.02": 0.0,
			"-0.019": 0.0,
			"-0.018": 0.0,
			"-0.017": 0.0,
			"-0.016": 0.0,
			"-0.015": 0.0362789475563,
			"-0.014": 0.703375939765,
			"-0.013": 1.07962264154,
			"-0.012": 3.32101351274,
			"-0.011": 2.70197004393,
			"-0.01": 3.87606939751,
			"-0.009": 4.55917250314,
			"-0.008": 11.7484014929,
			"-0.007": 12.5092403505,
			"-0.006": 12.6891740798,
			"-0.005": 12.6429446891,
			"-0.004": 13.4425758897,
			"-0.003": 18.6496217575,
			"-0.002": 19.5488286963,
			"-0.001": 17.708086089,
			"0.0": 13.0170865246,
			"0.001": 10.1234014854,
			"0.002": 10.138339824,
			"0.003": 6.56693117464,
			"0.004": 6.74326047423,
			"0.005": 8.90443137965,
			"0.006": 6.83460653796,
			"0.007": 3.79737003267,
			"0.008": 4.20812698139,
			"0.009": 5.02667878448,
			"0.01": 6.27639695605,
			"0.011": 4.68956522411,
			"0.012": 6.66442757078,
			"0.013": 9.31536200524,
			"0.014": 3.74259639969,
			"0.015": 1.19277013458,
			"0.016": 0.214280138796,
			"0.017": 0.0,
			"0.018": 0.0,
			"0.019": 0.0,
			"0.02": 0.0,
			"0.021": 0.0,
			"0.022": 0.0,
			"0.023": 0.0,
			"0.024": 0.0,
			"0.025": 0.0
		}
	}
}
