{
	 "smiles": "COC1=CC(=CC(OC)=C1)C(=O)NCC(O)=O", 
	 "Tm": 365.15, 
	 "num_atms": 30, 
	 "gaussian": { 
		 "optdone": 1, 
		 "sigma_profile": "yes", 
		 "theory": "DFT", 
		 "functional": "B3LYP", 
		 "basiset": "6-31G**", 
		 "properties": { 
			 "R2extent": 6884.7525, 
			 "electric_dipole_moment_norm": 6.33998574841, 
			 "electric_quadrupole_moment_norm": 26.4563648162, 
			 "total_energy": -857.866585083, 
			 "HOMO_LUMO_gap": 0.18711, 
			 "cosmo_polarized_energy": -24.69, 
			 "cosmo_cavitation_energy": 35.12, 
			 "cosmo_dispersion_energy": -24.99, 
			 "cosmo_repulsion_energy": 1.97, 
			 "cosmo_total_nonelectrostatic_energy": 12.11, 
			 "SMD_solvation_energy": 8.59 
		},
		"coords": [
			{
				"x": -0.0212692251,
				"y": -0.2496074726,
				"z": -4.7188432481,
				"element": "C" 
			},
			{
				"x": -0.4043428447,
				"y": 0.7939916046,
				"z": -3.8328743764,
				"element": "O" 
			},
			{
				"x": 0.3443277937,
				"y": 0.9908508273,
				"z": -2.7116629559,
				"element": "C" 
			},
			{
				"x": 1.4519370777,
				"y": 0.2235404745,
				"z": -2.356266213,
				"element": "C" 
			},
			{
				"x": 2.1343285508,
				"y": 0.5182649157,
				"z": -1.1637703269,
				"element": "C" 
			},
			{
				"x": 1.7324735577,
				"y": 1.5801983256,
				"z": -0.3574645734,
				"element": "C" 
			},
			{
				"x": 0.6216240894,
				"y": 2.3554561337,
				"z": -0.7336388792,
				"element": "C" 
			},
			{
				"x": 0.3095388625,
				"y": 3.3784821856,
				"z": 0.1132947921,
				"element": "O" 
			},
			{
				"x": -0.776253507,
				"y": 4.2266687169,
				"z": -0.2297780466,
				"element": "C" 
			},
			{
				"x": -0.079227425,
				"y": 2.0589374747,
				"z": -1.8998688332,
				"element": "C" 
			},
			{
				"x": 3.3504121032,
				"y": -0.3164798292,
				"z": -0.8661361637,
				"element": "C" 
			},
			{
				"x": 4.0465064004,
				"y": -0.763112841,
				"z": -1.7702601558,
				"element": "O" 
			},
			{
				"x": 3.6839817723,
				"y": -0.5497314775,
				"z": 0.4532605779,
				"element": "N" 
			},
			{
				"x": 2.7934757992,
				"y": -0.5723244709,
				"z": 1.5912684196,
				"element": "C" 
			},
			{
				"x": 3.1472764807,
				"y": -1.7495532653,
				"z": 2.5028570605,
				"element": "C" 
			},
			{
				"x": 2.3499940401,
				"y": -1.8991682212,
				"z": 3.5858378932,
				"element": "O" 
			},
			{
				"x": 4.0790603214,
				"y": -2.4887091996,
				"z": 2.3118512136,
				"element": "O" 
			},
			{
				"x": 0.9883703207,
				"y": -0.0901819397,
				"z": -5.1164146561,
				"element": "H" 
			},
			{
				"x": -0.7408407409,
				"y": -0.2257602969,
				"z": -5.5384505091,
				"element": "H" 
			},
			{
				"x": -0.0624800389,
				"y": -1.2301075729,
				"z": -4.2284171492,
				"element": "H" 
			},
			{
				"x": 1.824928194,
				"y": -0.5825240886,
				"z": -2.973393658,
				"element": "H" 
			},
			{
				"x": 2.2767719065,
				"y": 1.8634528272,
				"z": 0.5354424575,
				"element": "H" 
			},
			{
				"x": -0.6084386859,
				"y": 4.7277062957,
				"z": -1.1913993504,
				"element": "H" 
			},
			{
				"x": -0.8348315506,
				"y": 4.975792536,
				"z": 0.5612026742,
				"element": "H" 
			},
			{
				"x": -1.7233425297,
				"y": 3.6737942412,
				"z": -0.2745239689,
				"element": "H" 
			},
			{
				"x": -0.9417012159,
				"y": 2.6285854721,
				"z": -2.2212599833,
				"element": "H" 
			},
			{
				"x": 4.4710026293,
				"y": -1.1860734554,
				"z": 0.5475281117,
				"element": "H" 
			},
			{
				"x": 2.8632614243,
				"y": 0.3420513178,
				"z": 2.2021837266,
				"element": "H" 
			},
			{
				"x": 1.7463964209,
				"y": -0.6584606324,
				"z": 1.2775295374,
				"element": "H" 
			},
			{
				"x": 1.6471600188,
				"y": -1.2327785854,
				"z": 3.5918665827,
				"element": "H" 
			}
		],
		 "valence_orbital": [ 
			{
				"type": "occ",
				"energy": -0.29523,
				"method": "rhf"
			},
			{
				"type": "occ",
				"energy": -0.26257,
				"method": "rhf"
			},
			{
				"type": "occ",
				"energy": -0.25039,
				"method": "rhf"
			},
			{
				"type": "occ",
				"energy": -0.23819,
				"method": "rhf"
			},
			{
				"type": "occ",
				"energy": -0.22152,
				"method": "rhf"
			},
			{
				"type": "unocc",
				"energy": -0.03441,
				"method": "rhf"
			},
			{
				"type": "unocc",
				"energy": -0.00731,
				"method": "rhf"
			},
			{
				"type": "unocc",
				"energy": 0.00971,
				"method": "rhf"
			},
			{
				"type": "unocc",
				"energy": 0.03666,
				"method": "rhf"
			},
			{
				"type": "unocc",
				"energy": 0.05746,
				"method": "rhf"
			}
		],
		"cosmo_sigma_profile": { 
			"-0.025": 0.0,
			"-0.024": 0.0,
			"-0.023": 0.0,
			"-0.022": 0.0,
			"-0.021": 0.0215261268256,
			"-0.02": 1.04063021242,
			"-0.019": 1.12954485231,
			"-0.018": 1.46282623311,
			"-0.017": 1.52859740695,
			"-0.016": 0.708907572151,
			"-0.015": 1.10349947463,
			"-0.014": 0.736222722553,
			"-0.013": 1.6458131201,
			"-0.012": 1.89738348918,
			"-0.011": 0.86218725873,
			"-0.01": 2.05807784488,
			"-0.009": 3.28108340334,
			"-0.008": 5.9019348083,
			"-0.007": 5.58783672586,
			"-0.006": 14.609140066,
			"-0.005": 26.2629032558,
			"-0.004": 22.9920156308,
			"-0.003": 23.9364610008,
			"-0.002": 13.842644574,
			"-0.001": 11.2486383573,
			"0.0": 12.053119817,
			"0.001": 11.3092943694,
			"0.002": 13.0885834451,
			"0.003": 19.5339626193,
			"0.004": 14.5574110835,
			"0.005": 9.28129206221,
			"0.006": 6.78935397484,
			"0.007": 5.90183162444,
			"0.008": 7.58472837908,
			"0.009": 9.69660686161,
			"0.01": 8.9381624009,
			"0.011": 5.56072347372,
			"0.012": 3.84792612243,
			"0.013": 4.66853881914,
			"0.014": 3.47369507524,
			"0.015": 0.0490235430874,
			"0.016": 0.0,
			"0.017": 0.0,
			"0.018": 0.0,
			"0.019": 0.0,
			"0.02": 0.0,
			"0.021": 0.0,
			"0.022": 0.0,
			"0.023": 0.0,
			"0.024": 0.0,
			"0.025": 0.0
		}
	}
}
