{
	 "smiles": "CCOC1=C(Br)C=NC(Cl)=N1", 
	 "Tm": 346.15, 
	 "num_atms": 17, 
	 "gaussian": { 
		 "optdone": 1, 
		 "sigma_profile": "yes", 
		 "theory": "DFT", 
		 "functional": "B3LYP", 
		 "basiset": "6-31G**", 
		 "properties": { 
			 "R2extent": 3692.6896, 
			 "electric_dipole_moment_norm": 2.67959907449, 
			 "electric_quadrupole_moment_norm": 7.88998609061, 
			 "total_energy": -3448.57257049, 
			 "HOMO_LUMO_gap": 0.20331, 
			 "cosmo_polarized_energy": -6.66, 
			 "cosmo_cavitation_energy": 25.75, 
			 "cosmo_dispersion_energy": -19.34, 
			 "cosmo_repulsion_energy": 1.6, 
			 "cosmo_total_nonelectrostatic_energy": 8.0, 
			 "SMD_solvation_energy": 1.52 
		},
		"coords": [
			{
				"x": 3.1628186971,
				"y": -0.6513115421,
				"z": -0.9341513271,
				"element": "C" 
			},
			{
				"x": 2.4798755792,
				"y": -1.913820516,
				"z": -0.4339313456,
				"element": "C" 
			},
			{
				"x": 1.5612013509,
				"y": -1.6254577447,
				"z": 0.6542196186,
				"element": "O" 
			},
			{
				"x": 0.3269151167,
				"y": -1.2259913715,
				"z": 0.3661116863,
				"element": "C" 
			},
			{
				"x": -0.5644190272,
				"y": -0.9465842441,
				"z": 1.4268748623,
				"element": "C" 
			},
			{
				"x": -0.0423935027,
				"y": -1.1158867561,
				"z": 3.237074074,
				"element": "Br" 
			},
			{
				"x": -1.8415686262,
				"y": -0.5437910293,
				"z": 1.0782359553,
				"element": "C" 
			},
			{
				"x": -2.2420701073,
				"y": -0.4164241667,
				"z": -0.2002178808,
				"element": "N" 
			},
			{
				"x": -1.3206081276,
				"y": -0.7061075498,
				"z": -1.1015300657,
				"element": "C" 
			},
			{
				"x": -1.8025033874,
				"y": -0.5527711425,
				"z": -2.7795374551,
				"element": "Cl" 
			},
			{
				"x": -0.0666732334,
				"y": -1.0988183625,
				"z": -0.9015979447,
				"element": "N" 
			},
			{
				"x": 2.4420002333,
				"y": 0.0232382149,
				"z": -1.4020364412,
				"element": "H" 
			},
			{
				"x": 3.9171532417,
				"y": -0.917246624,
				"z": -1.6819552824,
				"element": "H" 
			},
			{
				"x": 3.6618408074,
				"y": -0.1280899355,
				"z": -0.1135772982,
				"element": "H" 
			},
			{
				"x": 3.1954616808,
				"y": -2.6057756122,
				"z": 0.0149699024,
				"element": "H" 
			},
			{
				"x": 1.9363516262,
				"y": -2.4199048426,
				"z": -1.2343420864,
				"element": "H" 
			},
			{
				"x": -2.5746823215,
				"y": -0.3139567751,
				"z": 1.8464910285,
				"element": "H" 
			}
		],
		 "valence_orbital": [ 
			{
				"type": "occ",
				"energy": -0.32116,
				"method": "rhf"
			},
			{
				"type": "occ",
				"energy": -0.30807,
				"method": "rhf"
			},
			{
				"type": "occ",
				"energy": -0.30369,
				"method": "rhf"
			},
			{
				"type": "occ",
				"energy": -0.27534,
				"method": "rhf"
			},
			{
				"type": "occ",
				"energy": -0.2553,
				"method": "rhf"
			},
			{
				"type": "unocc",
				"energy": -0.05199,
				"method": "rhf"
			},
			{
				"type": "unocc",
				"energy": -0.03757,
				"method": "rhf"
			},
			{
				"type": "unocc",
				"energy": -0.00537,
				"method": "rhf"
			},
			{
				"type": "unocc",
				"energy": 0.03295,
				"method": "rhf"
			},
			{
				"type": "unocc",
				"energy": 0.09942,
				"method": "rhf"
			}
		],
		"cosmo_sigma_profile": { 
			"-0.025": 0.0,
			"-0.024": 0.0,
			"-0.023": 0.0,
			"-0.022": 0.0,
			"-0.021": 0.0,
			"-0.02": 0.0,
			"-0.019": 0.0,
			"-0.018": 0.0,
			"-0.017": 0.0,
			"-0.016": 0.0,
			"-0.015": 0.0,
			"-0.014": 0.0,
			"-0.013": 0.0,
			"-0.012": 0.0,
			"-0.011": 0.0,
			"-0.01": 0.247455056382,
			"-0.009": 1.79387702338,
			"-0.008": 1.15642804335,
			"-0.007": 2.54250182543,
			"-0.006": 6.14228347826,
			"-0.005": 12.2083867245,
			"-0.004": 19.6091747193,
			"-0.003": 20.6038059251,
			"-0.002": 21.593744034,
			"-0.001": 19.8238574292,
			"0.0": 18.2857889956,
			"0.001": 12.6206122451,
			"0.002": 14.0717572236,
			"0.003": 19.7700599294,
			"0.004": 15.4901571109,
			"0.005": 7.31218713577,
			"0.006": 5.36965697351,
			"0.007": 3.79654076564,
			"0.008": 3.91928512932,
			"0.009": 1.7952742664,
			"0.01": 0.918091759164,
			"0.011": 0.930916278203,
			"0.012": 0.962901705027,
			"0.013": 0.764746864497,
			"0.014": 0.176892407963,
			"0.015": 0.0,
			"0.016": 0.0,
			"0.017": 0.0,
			"0.018": 0.0,
			"0.019": 0.0,
			"0.02": 0.0,
			"0.021": 0.0,
			"0.022": 0.0,
			"0.023": 0.0,
			"0.024": 0.0,
			"0.025": 0.0
		}
	}
}
