{
	 "smiles": "CNS(=O)(=O)CC1=CC=C2NC=C(CCN(C)C)C2=C1", 
	 "Tm": 442.15, 
	 "num_atms": 41, 
	 "gaussian": { 
		 "optdone": 1, 
		 "sigma_profile": "yes", 
		 "theory": "DFT", 
		 "functional": "B3LYP", 
		 "basiset": "6-31G**", 
		 "properties": { 
			 "R2extent": 9998.5249, 
			 "electric_dipole_moment_norm": 6.17859516476, 
			 "electric_quadrupole_moment_norm": 30.6874904945, 
			 "total_energy": -1258.9695198, 
			 "HOMO_LUMO_gap": 0.17754, 
			 "cosmo_polarized_energy": -21.08, 
			 "cosmo_cavitation_energy": 44.73, 
			 "cosmo_dispersion_energy": -30.74, 
			 "cosmo_repulsion_energy": 2.36, 
			 "cosmo_total_nonelectrostatic_energy": 16.35, 
			 "SMD_solvation_energy": 3.9 
		},
		"coords": [
			{
				"x": -1.5982788449,
				"y": -4.1693005339,
				"z": -1.4800352781,
				"element": "C" 
			},
			{
				"x": -2.1359439008,
				"y": -2.8926430001,
				"z": -0.9835775295,
				"element": "N" 
			},
			{
				"x": -3.5379168613,
				"y": -2.3286707955,
				"z": -1.7604224559,
				"element": "S" 
			},
			{
				"x": -4.7433724755,
				"y": -2.7266262046,
				"z": -1.0171044189,
				"element": "O" 
			},
			{
				"x": -3.397549,
				"y": -2.6726674815,
				"z": -3.1804938436,
				"element": "O" 
			},
			{
				"x": -3.3316208837,
				"y": -0.5211068549,
				"z": -1.5852444189,
				"element": "C" 
			},
			{
				"x": -3.2281119358,
				"y": -0.0448729816,
				"z": -0.1620758257,
				"element": "C" 
			},
			{
				"x": -4.3977031627,
				"y": 0.0759530685,
				"z": 0.6279976761,
				"element": "C" 
			},
			{
				"x": -4.3425179464,
				"y": 0.5063382944,
				"z": 1.9458891358,
				"element": "C" 
			},
			{
				"x": -3.0863806059,
				"y": 0.821690802,
				"z": 2.4759959332,
				"element": "C" 
			},
			{
				"x": -2.7255408406,
				"y": 1.2660666279,
				"z": 3.7280427371,
				"element": "N" 
			},
			{
				"x": -1.3506944931,
				"y": 1.4312236832,
				"z": 3.7726530152,
				"element": "C" 
			},
			{
				"x": -0.7930582671,
				"y": 1.1044151085,
				"z": 2.5614225597,
				"element": "C" 
			},
			{
				"x": 0.6570399257,
				"y": 1.1889706417,
				"z": 2.1829609219,
				"element": "C" 
			},
			{
				"x": 0.9770573386,
				"y": 2.4597478245,
				"z": 1.3458620826,
				"element": "C" 
			},
			{
				"x": 2.3524704539,
				"y": 2.6318121728,
				"z": 0.8918021988,
				"element": "N" 
			},
			{
				"x": 2.7930720926,
				"y": 1.6486317551,
				"z": -0.0840224266,
				"element": "C" 
			},
			{
				"x": 3.3181040495,
				"y": 2.8323907428,
				"z": 1.9596215094,
				"element": "C" 
			},
			{
				"x": -1.8923891749,
				"y": 0.7105742101,
				"z": 1.7101607165,
				"element": "C" 
			},
			{
				"x": -1.9817225919,
				"y": 0.2673035677,
				"z": 0.3807752584,
				"element": "C" 
			},
			{
				"x": -0.6344669528,
				"y": -4.3352627271,
				"z": -0.9918119117,
				"element": "H" 
			},
			{
				"x": -1.4393927588,
				"y": -4.0862476783,
				"z": -2.5553187693,
				"element": "H" 
			},
			{
				"x": -2.2511486344,
				"y": -5.0291529565,
				"z": -1.284674404,
				"element": "H" 
			},
			{
				"x": -2.3137476044,
				"y": -2.9047658585,
				"z": 0.0182104507,
				"element": "H" 
			},
			{
				"x": -4.2134597035,
				"y": -0.1238526311,
				"z": -2.0976144551,
				"element": "H" 
			},
			{
				"x": -2.4449942513,
				"y": -0.2814326227,
				"z": -2.1749302064,
				"element": "H" 
			},
			{
				"x": -5.3548875583,
				"y": -0.1908883013,
				"z": 0.1918680735,
				"element": "H" 
			},
			{
				"x": -5.246960548,
				"y": 0.5936857265,
				"z": 2.5410680016,
				"element": "H" 
			},
			{
				"x": -3.3564158693,
				"y": 1.4266448764,
				"z": 4.4958764846,
				"element": "H" 
			},
			{
				"x": -0.8697783019,
				"y": 1.7695097356,
				"z": 4.680152907,
				"element": "H" 
			},
			{
				"x": 1.2720419144,
				"y": 1.1858629573,
				"z": 3.0901553304,
				"element": "H" 
			},
			{
				"x": 0.9426512918,
				"y": 0.2959479852,
				"z": 1.6126991524,
				"element": "H" 
			},
			{
				"x": 0.704515854,
				"y": 3.3397112891,
				"z": 1.9420846714,
				"element": "H" 
			},
			{
				"x": 0.3278087719,
				"y": 2.471069825,
				"z": 0.461684193,
				"element": "H" 
			},
			{
				"x": 3.7478983649,
				"y": 1.9671784935,
				"z": -0.5173730655,
				"element": "H" 
			},
			{
				"x": 2.062311859,
				"y": 1.582414959,
				"z": -0.8972639944,
				"element": "H" 
			},
			{
				"x": 2.9408174546,
				"y": 0.6308324609,
				"z": 0.3241229683,
				"element": "H" 
			},
			{
				"x": 3.5201462507,
				"y": 1.9323805822,
				"z": 2.5709204555,
				"element": "H" 
			},
			{
				"x": 2.9666914285,
				"y": 3.6232703272,
				"z": 2.6310249193,
				"element": "H" 
			},
			{
				"x": 4.2735602985,
				"y": 3.1560921585,
				"z": 1.5315225382,
				"element": "H" 
			},
			{
				"x": -1.0869341812,
				"y": 0.1651707521,
				"z": -0.2274108873,
				"element": "H" 
			}
		],
		 "valence_orbital": [ 
			{
				"type": "occ",
				"energy": -0.27832,
				"method": "rhf"
			},
			{
				"type": "occ",
				"energy": -0.2599,
				"method": "rhf"
			},
			{
				"type": "occ",
				"energy": -0.22479,
				"method": "rhf"
			},
			{
				"type": "occ",
				"energy": -0.21699,
				"method": "rhf"
			},
			{
				"type": "occ",
				"energy": -0.19544,
				"method": "rhf"
			},
			{
				"type": "unocc",
				"energy": -0.0179,
				"method": "rhf"
			},
			{
				"type": "unocc",
				"energy": 0.00584,
				"method": "rhf"
			},
			{
				"type": "unocc",
				"energy": 0.05846,
				"method": "rhf"
			},
			{
				"type": "unocc",
				"energy": 0.06908,
				"method": "rhf"
			},
			{
				"type": "unocc",
				"energy": 0.07292,
				"method": "rhf"
			}
		],
		"cosmo_sigma_profile": { 
			"-0.025": 0.0,
			"-0.024": 0.0,
			"-0.023": 0.0,
			"-0.022": 0.0,
			"-0.021": 0.0,
			"-0.02": 0.0,
			"-0.019": 0.0,
			"-0.018": 0.0,
			"-0.017": 0.0,
			"-0.016": 0.174023020108,
			"-0.015": 1.83151360473,
			"-0.014": 1.82125734128,
			"-0.013": 2.04462287763,
			"-0.012": 2.25042542295,
			"-0.011": 2.33618947599,
			"-0.01": 1.52834763389,
			"-0.009": 3.01191814559,
			"-0.008": 5.84499312467,
			"-0.007": 9.10931678574,
			"-0.006": 12.0635937466,
			"-0.005": 15.7107388197,
			"-0.004": 22.1852060785,
			"-0.003": 35.9526905453,
			"-0.002": 38.3184385731,
			"-0.001": 31.940138805,
			"0.0": 32.1674839715,
			"0.001": 17.5691492525,
			"0.002": 13.8653677348,
			"0.003": 13.2950769415,
			"0.004": 15.1663382527,
			"0.005": 18.3654821786,
			"0.006": 13.0238643639,
			"0.007": 4.19346893463,
			"0.008": 4.7392896175,
			"0.009": 4.66607717331,
			"0.01": 6.16776642074,
			"0.011": 9.16408855561,
			"0.012": 9.39493611703,
			"0.013": 1.47381180017,
			"0.014": 0.366204262706,
			"0.015": 0.689676754136,
			"0.016": 0.405275084029,
			"0.017": 0.0348197707146,
			"0.018": 0.0,
			"0.019": 0.0,
			"0.02": 0.0,
			"0.021": 0.0,
			"0.022": 0.0,
			"0.023": 0.0,
			"0.024": 0.0,
			"0.025": 0.0
		}
	}
}
