{
	 "smiles": "CC(C)(N)P(O)(O)=O", 
	 "Tm": 561.15, 
	 "num_atms": 18, 
	 "gaussian": { 
		 "optdone": 1, 
		 "sigma_profile": "yes", 
		 "theory": "DFT", 
		 "functional": "B3LYP", 
		 "basiset": "6-31G**", 
		 "properties": { 
			 "R2extent": 1281.0658, 
			 "electric_dipole_moment_norm": 1.30149154819, 
			 "electric_quadrupole_moment_norm": 8.2729028539, 
			 "total_energy": -742.200016135, 
			 "HOMO_LUMO_gap": 0.27454, 
			 "cosmo_polarized_energy": -16.03, 
			 "cosmo_cavitation_energy": 22.21, 
			 "cosmo_dispersion_energy": -16.17, 
			 "cosmo_repulsion_energy": 1.32, 
			 "cosmo_total_nonelectrostatic_energy": 7.36, 
			 "SMD_solvation_energy": 5.26 
		},
		"coords": [
			{
				"x": -0.3068295456,
				"y": 1.5857161434,
				"z": 0.1586613361,
				"element": "C" 
			},
			{
				"x": 0.026780241,
				"y": 0.5125771608,
				"z": 1.2061005653,
				"element": "C" 
			},
			{
				"x": 1.4556818597,
				"y": 0.6981887869,
				"z": 1.7388607211,
				"element": "C" 
			},
			{
				"x": -0.9163139178,
				"y": 0.6291166326,
				"z": 2.3234098976,
				"element": "N" 
			},
			{
				"x": -0.0873439693,
				"y": -1.1498194306,
				"z": 0.3996717272,
				"element": "P" 
			},
			{
				"x": -1.6845615707,
				"y": -1.2490320809,
				"z": 0.064368529,
				"element": "O" 
			},
			{
				"x": 0.1104435358,
				"y": -2.1536646574,
				"z": 1.6750309564,
				"element": "O" 
			},
			{
				"x": 0.782775706,
				"y": -1.4900980117,
				"z": -0.7611993724,
				"element": "O" 
			},
			{
				"x": -0.2264798021,
				"y": 2.5709926671,
				"z": 0.6270840984,
				"element": "H" 
			},
			{
				"x": -1.3269723459,
				"y": 1.4657122872,
				"z": -0.2183399936,
				"element": "H" 
			},
			{
				"x": 0.3809102742,
				"y": 1.5341983148,
				"z": -0.6898836391,
				"element": "H" 
			},
			{
				"x": 2.1892190905,
				"y": 0.6226462504,
				"z": 0.9314627753,
				"element": "H" 
			},
			{
				"x": 1.6967227613,
				"y": -0.0564531591,
				"z": 2.4935953282,
				"element": "H" 
			},
			{
				"x": 1.5322701858,
				"y": 1.6858892276,
				"z": 2.2027859906,
				"element": "H" 
			},
			{
				"x": -1.8702482278,
				"y": 0.4882790218,
				"z": 1.9987127468,
				"element": "H" 
			},
			{
				"x": -0.7298217109,
				"y": -0.0874179571,
				"z": 3.0212998674,
				"element": "H" 
			},
			{
				"x": -1.8055915917,
				"y": -1.6920739017,
				"z": -0.7876914449,
				"element": "H" 
			},
			{
				"x": 0.6330590274,
				"y": -2.9207572941,
				"z": 1.4004699107,
				"element": "H" 
			}
		],
		 "valence_orbital": [ 
			{
				"type": "occ",
				"energy": -0.34553,
				"method": "rhf"
			},
			{
				"type": "occ",
				"energy": -0.33577,
				"method": "rhf"
			},
			{
				"type": "occ",
				"energy": -0.30364,
				"method": "rhf"
			},
			{
				"type": "occ",
				"energy": -0.28876,
				"method": "rhf"
			},
			{
				"type": "occ",
				"energy": -0.23615,
				"method": "rhf"
			},
			{
				"type": "unocc",
				"energy": 0.03839,
				"method": "rhf"
			},
			{
				"type": "unocc",
				"energy": 0.07311,
				"method": "rhf"
			},
			{
				"type": "unocc",
				"energy": 0.08363,
				"method": "rhf"
			},
			{
				"type": "unocc",
				"energy": 0.10121,
				"method": "rhf"
			},
			{
				"type": "unocc",
				"energy": 0.12093,
				"method": "rhf"
			}
		],
		"cosmo_sigma_profile": { 
			"-0.025": 0.0,
			"-0.024": 0.0,
			"-0.023": 0.0,
			"-0.022": 0.0,
			"-0.021": 0.0,
			"-0.02": 0.0,
			"-0.019": 0.350360626631,
			"-0.018": 1.67764745127,
			"-0.017": 1.97463756074,
			"-0.016": 1.5702477039,
			"-0.015": 1.37259913859,
			"-0.014": 1.42102853627,
			"-0.013": 0.972951854473,
			"-0.012": 1.05110932148,
			"-0.011": 1.3501807225,
			"-0.01": 2.78876740639,
			"-0.009": 3.63593507792,
			"-0.008": 3.4614214906,
			"-0.007": 3.48741089165,
			"-0.006": 3.50979917322,
			"-0.005": 3.79816274263,
			"-0.004": 11.1873631149,
			"-0.003": 14.4575072762,
			"-0.002": 14.6836243565,
			"-0.001": 16.2416445714,
			"0.0": 17.5967696442,
			"0.001": 9.1294535644,
			"0.002": 4.93401656431,
			"0.003": 4.20872674196,
			"0.004": 4.0887045766,
			"0.005": 3.8883646689,
			"0.006": 4.11433875335,
			"0.007": 3.14692363683,
			"0.008": 3.54797124452,
			"0.009": 3.34732676306,
			"0.01": 4.34779706535,
			"0.011": 2.58124086578,
			"0.012": 1.18937616381,
			"0.013": 2.30082104039,
			"0.014": 3.4254724628,
			"0.015": 6.58037819557,
			"0.016": 1.02194432003,
			"0.017": 0.478393598487,
			"0.018": 0.203779567347,
			"0.019": 0.0,
			"0.02": 0.0,
			"0.021": 0.0,
			"0.022": 0.0,
			"0.023": 0.0,
			"0.024": 0.0,
			"0.025": 0.0
		}
	}
}
