{
	 "smiles": "ClC1=CC(Cl)=C(C=C1)N1C=CC=N1", 
	 "Tm": 308.15, 
	 "num_atms": 19, 
	 "gaussian": { 
		 "optdone": 1, 
		 "sigma_profile": "yes", 
		 "theory": "DFT", 
		 "functional": "B3LYP", 
		 "basiset": "6-31G**", 
		 "properties": { 
			 "R2extent": 3639.6809, 
			 "electric_dipole_moment_norm": 1.58258468652, 
			 "electric_quadrupole_moment_norm": 5.25371738201, 
			 "total_energy": -1376.42971326, 
			 "HOMO_LUMO_gap": 0.19792, 
			 "cosmo_polarized_energy": -6.72, 
			 "cosmo_cavitation_energy": 27.11, 
			 "cosmo_dispersion_energy": -20.26, 
			 "cosmo_repulsion_energy": 1.58, 
			 "cosmo_total_nonelectrostatic_energy": 8.43, 
			 "SMD_solvation_energy": 3.95 
		},
		"coords": [
			{
				"x": 2.4598574644,
				"y": -2.7744219842,
				"z": -1.1587449015,
				"element": "Cl" 
			},
			{
				"x": 1.4565605382,
				"y": -1.4555360533,
				"z": -0.587015648,
				"element": "C" 
			},
			{
				"x": 2.0008752937,
				"y": -0.1783992648,
				"z": -0.4944449483,
				"element": "C" 
			},
			{
				"x": 1.2052116124,
				"y": 0.8765789322,
				"z": -0.0434345368,
				"element": "C" 
			},
			{
				"x": 1.930956149,
				"y": 2.4736564001,
				"z": -0.0304861746,
				"element": "Cl" 
			},
			{
				"x": -0.1278419178,
				"y": 0.6572092772,
				"z": 0.3414932336,
				"element": "C" 
			},
			{
				"x": -0.6478038274,
				"y": -0.6399412967,
				"z": 0.2265613035,
				"element": "C" 
			},
			{
				"x": 0.1271535566,
				"y": -1.6944412393,
				"z": -0.2388881548,
				"element": "C" 
			},
			{
				"x": -0.9879047584,
				"y": 1.6770210162,
				"z": 0.817181522,
				"element": "N" 
			},
			{
				"x": -0.7346536957,
				"y": 2.674672213,
				"z": 1.7224707329,
				"element": "C" 
			},
			{
				"x": -1.9282709871,
				"y": 3.3213086827,
				"z": 1.9470916228,
				"element": "C" 
			},
			{
				"x": -2.8633602379,
				"y": 2.6364207032,
				"z": 1.1351224039,
				"element": "C" 
			},
			{
				"x": -2.3043599058,
				"y": 1.6391702866,
				"z": 0.4610671787,
				"element": "N" 
			},
			{
				"x": 3.0270800945,
				"y": 0.0084256869,
				"z": -0.785048524,
				"element": "H" 
			},
			{
				"x": -1.683140721,
				"y": -0.7940465907,
				"z": 0.505014533,
				"element": "H" 
			},
			{
				"x": -0.2903055962,
				"y": -2.6912314323,
				"z": -0.3203634427,
				"element": "H" 
			},
			{
				"x": 0.2496999416,
				"y": 2.8316677764,
				"z": 2.1319109913,
				"element": "H" 
			},
			{
				"x": -2.0996177856,
				"y": 4.1624187577,
				"z": 2.6017547349,
				"element": "H" 
			},
			{
				"x": -3.9201352174,
				"y": 2.8332681291,
				"z": 1.0119580739,
				"element": "H" 
			}
		],
		 "valence_orbital": [ 
			{
				"type": "occ",
				"energy": -0.29694,
				"method": "rhf"
			},
			{
				"type": "occ",
				"energy": -0.288,
				"method": "rhf"
			},
			{
				"type": "occ",
				"energy": -0.26989,
				"method": "rhf"
			},
			{
				"type": "occ",
				"energy": -0.25477,
				"method": "rhf"
			},
			{
				"type": "occ",
				"energy": -0.23812,
				"method": "rhf"
			},
			{
				"type": "unocc",
				"energy": -0.0402,
				"method": "rhf"
			},
			{
				"type": "unocc",
				"energy": -0.03288,
				"method": "rhf"
			},
			{
				"type": "unocc",
				"energy": -0.00162,
				"method": "rhf"
			},
			{
				"type": "unocc",
				"energy": 0.01909,
				"method": "rhf"
			},
			{
				"type": "unocc",
				"energy": 0.04032,
				"method": "rhf"
			}
		],
		"cosmo_sigma_profile": { 
			"-0.025": 0.0,
			"-0.024": 0.0,
			"-0.023": 0.0,
			"-0.022": 0.0,
			"-0.021": 0.0,
			"-0.02": 0.0,
			"-0.019": 0.0,
			"-0.018": 0.0,
			"-0.017": 0.0,
			"-0.016": 0.0,
			"-0.015": 0.0,
			"-0.014": 0.0,
			"-0.013": 0.0,
			"-0.012": 0.0,
			"-0.011": 0.0,
			"-0.01": 0.0,
			"-0.009": 0.99756440926,
			"-0.008": 5.44160900427,
			"-0.007": 10.8866150481,
			"-0.006": 8.60017345436,
			"-0.005": 9.95764388546,
			"-0.004": 10.6089281882,
			"-0.003": 12.0761872367,
			"-0.002": 14.9967084316,
			"-0.001": 17.5122782259,
			"0.0": 24.405678759,
			"0.001": 26.9062404744,
			"0.002": 20.5856457804,
			"0.003": 21.4710240655,
			"0.004": 21.3111309403,
			"0.005": 6.45198717433,
			"0.006": 2.47744612368,
			"0.007": 1.71438891472,
			"0.008": 1.35734040508,
			"0.009": 1.00719265902,
			"0.01": 1.03212538833,
			"0.011": 1.43426846917,
			"0.012": 0.684951094425,
			"0.013": 0.905246841731,
			"0.014": 0.704360818849,
			"0.015": 0.104422952017,
			"0.016": 0.0,
			"0.017": 0.0,
			"0.018": 0.0,
			"0.019": 0.0,
			"0.02": 0.0,
			"0.021": 0.0,
			"0.022": 0.0,
			"0.023": 0.0,
			"0.024": 0.0,
			"0.025": 0.0
		}
	}
}
