{
	 "smiles": "NC1=NNC(CC2=CC(F)=CC=C2)=N1", 
	 "Tm": 453.15, 
	 "num_atms": 23, 
	 "gaussian": { 
		 "optdone": 1, 
		 "sigma_profile": "yes", 
		 "theory": "DFT", 
		 "functional": "B3LYP", 
		 "basiset": "6-31G**", 
		 "properties": { 
			 "R2extent": 3669.4119, 
			 "electric_dipole_moment_norm": 2.55881145261, 
			 "electric_quadrupole_moment_norm": 4.10485132374, 
			 "total_energy": -667.220764339, 
			 "HOMO_LUMO_gap": 0.1842, 
			 "cosmo_polarized_energy": -15.55, 
			 "cosmo_cavitation_energy": 28.4, 
			 "cosmo_dispersion_energy": -20.47, 
			 "cosmo_repulsion_energy": 1.61, 
			 "cosmo_total_nonelectrostatic_energy": 9.53, 
			 "SMD_solvation_energy": 2.08 
		},
		"coords": [
			{
				"x": -3.1701712518,
				"y": 2.6761793944,
				"z": -0.670001016,
				"element": "N" 
			},
			{
				"x": -2.1198951453,
				"y": 1.8235883817,
				"z": -0.3841744716,
				"element": "C" 
			},
			{
				"x": -1.3333433788,
				"y": 1.9799816105,
				"z": 0.6762981616,
				"element": "N" 
			},
			{
				"x": -0.4311119354,
				"y": 0.9661777891,
				"z": 0.4871816166,
				"element": "N" 
			},
			{
				"x": -0.7220637666,
				"y": 0.2667646675,
				"z": -0.6273925922,
				"element": "C" 
			},
			{
				"x": 0.0856472533,
				"y": -0.8923948986,
				"z": -1.1434034385,
				"element": "C" 
			},
			{
				"x": 0.9422547016,
				"y": -1.5604986697,
				"z": -0.0852704867,
				"element": "C" 
			},
			{
				"x": 2.2821375202,
				"y": -1.1866405082,
				"z": 0.0782710114,
				"element": "C" 
			},
			{
				"x": 3.0443908739,
				"y": -1.7954157039,
				"z": 1.0705167692,
				"element": "C" 
			},
			{
				"x": 4.3343183344,
				"y": -1.427586218,
				"z": 1.2121888528,
				"element": "F" 
			},
			{
				"x": 2.5227194231,
				"y": -2.7671307924,
				"z": 1.9153702727,
				"element": "C" 
			},
			{
				"x": 1.1858649818,
				"y": -3.1347939325,
				"z": 1.7497865535,
				"element": "C" 
			},
			{
				"x": 0.4013608724,
				"y": -2.5382473201,
				"z": 0.762324151,
				"element": "C" 
			},
			{
				"x": -1.7944511244,
				"y": 0.7841334612,
				"z": -1.211906684,
				"element": "N" 
			},
			{
				"x": -3.8933728906,
				"y": 2.2414214947,
				"z": -1.2257201357,
				"element": "H" 
			},
			{
				"x": -3.5257308726,
				"y": 3.1697282177,
				"z": 0.1370653746,
				"element": "H" 
			},
			{
				"x": 0.3020200097,
				"y": 0.8047683818,
				"z": 1.1602612732,
				"element": "H" 
			},
			{
				"x": -0.6159744982,
				"y": -1.6087502855,
				"z": -1.5816577133,
				"element": "H" 
			},
			{
				"x": 0.7179717901,
				"y": -0.5398564883,
				"z": -1.9677004129,
				"element": "H" 
			},
			{
				"x": 2.7438309429,
				"y": -0.4410166153,
				"z": -0.5617690249,
				"element": "H" 
			},
			{
				"x": 3.1545177948,
				"y": -3.2176294718,
				"z": 2.6728421809,
				"element": "H" 
			},
			{
				"x": 0.7564755284,
				"y": -3.894461243,
				"z": 2.3959942947,
				"element": "H" 
			},
			{
				"x": -0.6373951628,
				"y": -2.8331212512,
				"z": 0.6439954637,
				"element": "H" 
			}
		],
		 "valence_orbital": [ 
			{
				"type": "occ",
				"energy": -0.27019,
				"method": "rhf"
			},
			{
				"type": "occ",
				"energy": -0.26901,
				"method": "rhf"
			},
			{
				"type": "occ",
				"energy": -0.26509,
				"method": "rhf"
			},
			{
				"type": "occ",
				"energy": -0.25478,
				"method": "rhf"
			},
			{
				"type": "occ",
				"energy": -0.20806,
				"method": "rhf"
			},
			{
				"type": "unocc",
				"energy": -0.02386,
				"method": "rhf"
			},
			{
				"type": "unocc",
				"energy": -0.01272,
				"method": "rhf"
			},
			{
				"type": "unocc",
				"energy": 0.0225,
				"method": "rhf"
			},
			{
				"type": "unocc",
				"energy": 0.07624,
				"method": "rhf"
			},
			{
				"type": "unocc",
				"energy": 0.07945,
				"method": "rhf"
			}
		],
		"cosmo_sigma_profile": { 
			"-0.025": 0.0,
			"-0.024": 0.0,
			"-0.023": 0.0,
			"-0.022": 0.0,
			"-0.021": 0.0,
			"-0.02": 0.0,
			"-0.019": 0.0,
			"-0.018": 0.0,
			"-0.017": 0.0,
			"-0.016": 0.259998904028,
			"-0.015": 0.7320241049,
			"-0.014": 0.368918313624,
			"-0.013": 2.53345056929,
			"-0.012": 3.08660613227,
			"-0.011": 2.47047147174,
			"-0.01": 3.47298348848,
			"-0.009": 2.55341380179,
			"-0.008": 3.34959680956,
			"-0.007": 9.88939956633,
			"-0.006": 16.6883019783,
			"-0.005": 14.0075159766,
			"-0.004": 14.1961896503,
			"-0.003": 11.4586629323,
			"-0.002": 11.0974724508,
			"-0.001": 10.1531498638,
			"0.0": 12.4602098609,
			"0.001": 16.1135177589,
			"0.002": 15.9890812673,
			"0.003": 15.020995426,
			"0.004": 18.7496408352,
			"0.005": 8.51555425648,
			"0.006": 3.68444384603,
			"0.007": 3.40917659152,
			"0.008": 4.25717236146,
			"0.009": 3.57268036845,
			"0.01": 2.74425499348,
			"0.011": 2.87410993695,
			"0.012": 2.49641692515,
			"0.013": 3.36027176621,
			"0.014": 2.49626216387,
			"0.015": 2.10613106674,
			"0.016": 1.65170379531,
			"0.017": 0.657923845837,
			"0.018": 0.0,
			"0.019": 0.0,
			"0.02": 0.0,
			"0.021": 0.0,
			"0.022": 0.0,
			"0.023": 0.0,
			"0.024": 0.0,
			"0.025": 0.0
		}
	}
}
