{
	 "smiles": "N#CC1CSCCS1", 
	 "Tm": 350.15, 
	 "num_atms": 15, 
	 "gaussian": { 
		 "optdone": 1, 
		 "sigma_profile": "yes", 
		 "theory": "DFT", 
		 "functional": "B3LYP", 
		 "basiset": "6-31G**", 
		 "properties": { 
			 "R2extent": 1271.7896, 
			 "electric_dipole_moment_norm": 3.76318779893, 
			 "electric_quadrupole_moment_norm": 14.6553523741, 
			 "total_energy": -1045.85355957, 
			 "HOMO_LUMO_gap": 0.22952, 
			 "cosmo_polarized_energy": -12.5, 
			 "cosmo_cavitation_energy": 21.14, 
			 "cosmo_dispersion_energy": -16.31, 
			 "cosmo_repulsion_energy": 1.25, 
			 "cosmo_total_nonelectrostatic_energy": 6.07, 
			 "SMD_solvation_energy": 3.61 
		},
		"coords": [
			{
				"x": -2.2341587288,
				"y": -1.9684153174,
				"z": -1.2776126485,
				"element": "N" 
			},
			{
				"x": -1.8113354542,
				"y": -0.8934651499,
				"z": -1.1590981871,
				"element": "C" 
			},
			{
				"x": -1.2865232646,
				"y": 0.4669834793,
				"z": -1.0079702237,
				"element": "C" 
			},
			{
				"x": 0.1632961658,
				"y": 0.6083496239,
				"z": -1.5143190315,
				"element": "C" 
			},
			{
				"x": 1.393781602,
				"y": -0.4152336701,
				"z": -0.6272397162,
				"element": "S" 
			},
			{
				"x": 1.1491725934,
				"y": 0.2026571616,
				"z": 1.0836641836,
				"element": "C" 
			},
			{
				"x": -0.2792604747,
				"y": 0.0331628401,
				"z": 1.5959628071,
				"element": "C" 
			},
			{
				"x": -1.5036317814,
				"y": 1.0877954597,
				"z": 0.7231662284,
				"element": "S" 
			},
			{
				"x": -1.9234941944,
				"y": 1.1386087284,
				"z": -1.5960293454,
				"element": "H" 
			},
			{
				"x": 0.4433179404,
				"y": 1.6642672533,
				"z": -1.463946145,
				"element": "H" 
			},
			{
				"x": 0.2228964234,
				"y": 0.2842718639,
				"z": -2.5577110931,
				"element": "H" 
			},
			{
				"x": 1.4633866721,
				"y": 1.2488815495,
				"z": 1.1490133496,
				"element": "H" 
			},
			{
				"x": 1.8349987241,
				"y": -0.3971430603,
				"z": 1.6910189473,
				"element": "H" 
			},
			{
				"x": -0.5981060487,
				"y": -1.0114139036,
				"z": 1.5392954052,
				"element": "H" 
			},
			{
				"x": -0.3487401744,
				"y": 0.3557931417,
				"z": 2.6402054694,
				"element": "H" 
			}
		],
		 "valence_orbital": [ 
			{
				"type": "occ",
				"energy": -0.33817,
				"method": "rhf"
			},
			{
				"type": "occ",
				"energy": -0.32486,
				"method": "rhf"
			},
			{
				"type": "occ",
				"energy": -0.31513,
				"method": "rhf"
			},
			{
				"type": "occ",
				"energy": -0.25408,
				"method": "rhf"
			},
			{
				"type": "occ",
				"energy": -0.23917,
				"method": "rhf"
			},
			{
				"type": "unocc",
				"energy": -0.00965,
				"method": "rhf"
			},
			{
				"type": "unocc",
				"energy": 0.0152,
				"method": "rhf"
			},
			{
				"type": "unocc",
				"energy": 0.0255,
				"method": "rhf"
			},
			{
				"type": "unocc",
				"energy": 0.03416,
				"method": "rhf"
			},
			{
				"type": "unocc",
				"energy": 0.05743,
				"method": "rhf"
			}
		],
		"cosmo_sigma_profile": { 
			"-0.025": 0.0,
			"-0.024": 0.0,
			"-0.023": 0.0,
			"-0.022": 0.0,
			"-0.021": 0.0,
			"-0.02": 0.0,
			"-0.019": 0.0,
			"-0.018": 0.0,
			"-0.017": 0.0,
			"-0.016": 0.0,
			"-0.015": 0.0,
			"-0.014": 0.0,
			"-0.013": 0.0,
			"-0.012": 0.0,
			"-0.011": 0.934191834743,
			"-0.01": 3.81603025732,
			"-0.009": 2.68832184437,
			"-0.008": 6.00370530373,
			"-0.007": 10.6303664847,
			"-0.006": 12.2312826808,
			"-0.005": 15.4327075212,
			"-0.004": 13.0517582062,
			"-0.003": 11.0207328808,
			"-0.002": 7.93027240639,
			"-0.001": 6.8155244983,
			"0.0": 5.18658683311,
			"0.001": 5.28034523057,
			"0.002": 6.35268339221,
			"0.003": 7.66204787933,
			"0.004": 8.86777610376,
			"0.005": 7.84791710861,
			"0.006": 7.27713067235,
			"0.007": 8.16025110177,
			"0.008": 7.65745177377,
			"0.009": 6.53674419527,
			"0.01": 3.61870413678,
			"0.011": 2.93950966243,
			"0.012": 2.36286706993,
			"0.013": 1.24184015247,
			"0.014": 0.0078362510615,
			"0.015": 0.0,
			"0.016": 0.0,
			"0.017": 0.0,
			"0.018": 0.0,
			"0.019": 0.0,
			"0.02": 0.0,
			"0.021": 0.0,
			"0.022": 0.0,
			"0.023": 0.0,
			"0.024": 0.0,
			"0.025": 0.0
		}
	}
}
