{
	 "smiles": "O=C(CCC1=CC=CC=C1)C=COC(=O)C1=CC=CC=C1", 
	 "Tm": 372.65, 
	 "num_atms": 37, 
	 "gaussian": { 
		 "optdone": 1, 
		 "sigma_profile": "yes", 
		 "theory": "DFT", 
		 "functional": "B3LYP", 
		 "basiset": "6-31G**", 
		 "properties": { 
			 "R2extent": 11810.5862, 
			 "electric_dipole_moment_norm": 4.54010614523, 
			 "electric_quadrupole_moment_norm": 16.8787662239, 
			 "total_energy": -921.229784099, 
			 "HOMO_LUMO_gap": 0.15746, 
			 "cosmo_polarized_energy": -12.76, 
			 "cosmo_cavitation_energy": 42.67, 
			 "cosmo_dispersion_energy": -30.08, 
			 "cosmo_repulsion_energy": 2.3, 
			 "cosmo_total_nonelectrostatic_energy": 14.9, 
			 "SMD_solvation_energy": 8.84 
		},
		"coords": [
			{
				"x": 0.4740638848,
				"y": 1.7313747449,
				"z": 3.9826930089,
				"element": "O" 
			},
			{
				"x": 0.4958856135,
				"y": 1.8016939292,
				"z": 2.7600063741,
				"element": "C" 
			},
			{
				"x": 1.4902947484,
				"y": 2.7076667472,
				"z": 2.0320272732,
				"element": "C" 
			},
			{
				"x": 2.6510687965,
				"y": 3.1938543857,
				"z": 2.9209935454,
				"element": "C" 
			},
			{
				"x": 3.7325018286,
				"y": 2.1526509872,
				"z": 3.1361978803,
				"element": "C" 
			},
			{
				"x": 3.6710717273,
				"y": 1.2487232161,
				"z": 4.2066321549,
				"element": "C" 
			},
			{
				"x": 4.6643875253,
				"y": 0.2839255222,
				"z": 4.3823421994,
				"element": "C" 
			},
			{
				"x": 5.736124848,
				"y": 0.2043856374,
				"z": 3.491009886,
				"element": "C" 
			},
			{
				"x": 5.808911847,
				"y": 1.09891858,
				"z": 2.4217725542,
				"element": "C" 
			},
			{
				"x": 4.8152360278,
				"y": 2.0637116954,
				"z": 2.249665391,
				"element": "C" 
			},
			{
				"x": -0.4939808598,
				"y": 1.0315271554,
				"z": 1.9774265921,
				"element": "C" 
			},
			{
				"x": -0.5758829529,
				"y": 1.0370325026,
				"z": 0.6401957165,
				"element": "C" 
			},
			{
				"x": -1.540203222,
				"y": 0.2937848767,
				"z": 0.0154770353,
				"element": "O" 
			},
			{
				"x": -1.5900726324,
				"y": 0.3363367987,
				"z": -1.3669855319,
				"element": "C" 
			},
			{
				"x": -0.8235877233,
				"y": 1.0033343406,
				"z": -2.0250102524,
				"element": "O" 
			},
			{
				"x": -2.6747028623,
				"y": -0.5173079749,
				"z": -1.9036535943,
				"element": "C" 
			},
			{
				"x": -3.5263093385,
				"y": -1.2650208572,
				"z": -1.076281694,
				"element": "C" 
			},
			{
				"x": -4.5282605423,
				"y": -2.0489729234,
				"z": -1.6444522163,
				"element": "C" 
			},
			{
				"x": -4.6844515554,
				"y": -2.0905688622,
				"z": -3.0322735187,
				"element": "C" 
			},
			{
				"x": -3.8367884678,
				"y": -1.3463840594,
				"z": -3.8580994166,
				"element": "C" 
			},
			{
				"x": -2.8340132997,
				"y": -0.5612764767,
				"z": -3.2971958545,
				"element": "C" 
			},
			{
				"x": 1.8802059839,
				"y": 2.1994854425,
				"z": 1.1429384962,
				"element": "H" 
			},
			{
				"x": 0.9174078104,
				"y": 3.5709966078,
				"z": 1.663576449,
				"element": "H" 
			},
			{
				"x": 2.2373151597,
				"y": 3.5101812125,
				"z": 3.882603506,
				"element": "H" 
			},
			{
				"x": 3.0936367109,
				"y": 4.0775764711,
				"z": 2.4483309781,
				"element": "H" 
			},
			{
				"x": 2.8327618853,
				"y": 1.3032343108,
				"z": 4.8939319739,
				"element": "H" 
			},
			{
				"x": 4.6012546483,
				"y": -0.4059711198,
				"z": 5.2195889676,
				"element": "H" 
			},
			{
				"x": 6.5099677868,
				"y": -0.54531609,
				"z": 3.6304391449,
				"element": "H" 
			},
			{
				"x": 6.6416418397,
				"y": 1.050320662,
				"z": 1.7252872282,
				"element": "H" 
			},
			{
				"x": 4.88430507,
				"y": 2.763594111,
				"z": 1.4193429,
				"element": "H" 
			},
			{
				"x": -1.1901215139,
				"y": 0.4401006,
				"z": 2.5648071666,
				"element": "H" 
			},
			{
				"x": 0.0670921203,
				"y": 1.5926781231,
				"z": -0.0322683226,
				"element": "H" 
			},
			{
				"x": -3.3996018157,
				"y": -1.2284360027,
				"z": -0.0008122302,
				"element": "H" 
			},
			{
				"x": -5.1876086432,
				"y": -2.6279007594,
				"z": -1.0049894687,
				"element": "H" 
			},
			{
				"x": -5.4669917315,
				"y": -2.7032461078,
				"z": -3.4706235327,
				"element": "H" 
			},
			{
				"x": -3.9592147119,
				"y": -1.3797990102,
				"z": -4.9363789513,
				"element": "H" 
			},
			{
				"x": -2.1640439902,
				"y": 0.0247115837,
				"z": -3.9170618372,
				"element": "H" 
			}
		],
		 "valence_orbital": [ 
			{
				"type": "occ",
				"energy": -0.27174,
				"method": "rhf"
			},
			{
				"type": "occ",
				"energy": -0.26122,
				"method": "rhf"
			},
			{
				"type": "occ",
				"energy": -0.24946,
				"method": "rhf"
			},
			{
				"type": "occ",
				"energy": -0.23902,
				"method": "rhf"
			},
			{
				"type": "occ",
				"energy": -0.23164,
				"method": "rhf"
			},
			{
				"type": "unocc",
				"energy": -0.07418,
				"method": "rhf"
			},
			{
				"type": "unocc",
				"energy": -0.04176,
				"method": "rhf"
			},
			{
				"type": "unocc",
				"energy": -0.02042,
				"method": "rhf"
			},
			{
				"type": "unocc",
				"energy": 0.00775,
				"method": "rhf"
			},
			{
				"type": "unocc",
				"energy": 0.00938,
				"method": "rhf"
			}
		],
		"cosmo_sigma_profile": { 
			"-0.025": 0.0,
			"-0.024": 0.0,
			"-0.023": 0.0,
			"-0.022": 0.0,
			"-0.021": 0.0,
			"-0.02": 0.0,
			"-0.019": 0.0,
			"-0.018": 0.0,
			"-0.017": 0.0,
			"-0.016": 0.0,
			"-0.015": 0.0,
			"-0.014": 0.0,
			"-0.013": 0.0,
			"-0.012": 0.0,
			"-0.011": 0.0,
			"-0.01": 0.0,
			"-0.009": 0.380151535151,
			"-0.008": 1.73062913136,
			"-0.007": 6.57140526531,
			"-0.006": 17.3637943489,
			"-0.005": 26.6123134499,
			"-0.004": 31.0984263127,
			"-0.003": 31.6503139911,
			"-0.002": 28.0574823369,
			"-0.001": 26.7674478369,
			"0.0": 26.6133555315,
			"0.001": 28.4985117669,
			"0.002": 23.5744304105,
			"0.003": 25.4013879821,
			"0.004": 17.0595700666,
			"0.005": 11.418266322,
			"0.006": 11.9429482363,
			"0.007": 5.7886271378,
			"0.008": 3.24358398095,
			"0.009": 3.92444707192,
			"0.01": 5.07875702922,
			"0.011": 3.92986267303,
			"0.012": 2.92194951826,
			"0.013": 1.47061855473,
			"0.014": 0.257823121982,
			"0.015": 0.0,
			"0.016": 0.0,
			"0.017": 0.0,
			"0.018": 0.0,
			"0.019": 0.0,
			"0.02": 0.0,
			"0.021": 0.0,
			"0.022": 0.0,
			"0.023": 0.0,
			"0.024": 0.0,
			"0.025": 0.0
		}
	}
}
