{
	 "smiles": "OCCCCl", 
	 "Tm": 253.15, 
	 "num_atms": 12, 
	 "gaussian": { 
		 "optdone": 1, 
		 "sigma_profile": "yes", 
		 "theory": "DFT", 
		 "functional": "B3LYP", 
		 "basiset": "6-31G**", 
		 "properties": { 
			 "R2extent": 1104.6443, 
			 "electric_dipole_moment_norm": 1.7629474666, 
			 "electric_quadrupole_moment_norm": 10.9488803743, 
			 "total_energy": -653.948938153, 
			 "HOMO_LUMO_gap": 0.29211, 
			 "cosmo_polarized_energy": -8.91, 
			 "cosmo_cavitation_energy": 16.78, 
			 "cosmo_dispersion_energy": -12.74, 
			 "cosmo_repulsion_energy": 1.16, 
			 "cosmo_total_nonelectrostatic_energy": 5.2, 
			 "SMD_solvation_energy": 2.57 
		},
		"coords": [
			{
				"x": -1.603467238,
				"y": -1.4184256663,
				"z": 2.7564353577,
				"element": "O" 
			},
			{
				"x": -1.3380308862,
				"y": -1.2884695374,
				"z": 1.3692350852,
				"element": "C" 
			},
			{
				"x": -1.1382214412,
				"y": 0.1743000453,
				"z": 0.9484772087,
				"element": "C" 
			},
			{
				"x": -0.7784735598,
				"y": 0.29572161,
				"z": -0.5258342133,
				"element": "C" 
			},
			{
				"x": -0.5753560502,
				"y": 2.0307452688,
				"z": -1.0300252565,
				"element": "Cl" 
			},
			{
				"x": -2.4422258167,
				"y": -0.9762744995,
				"z": 2.9413491761,
				"element": "H" 
			},
			{
				"x": -0.4215200533,
				"y": -1.861012794,
				"z": 1.1891120953,
				"element": "H" 
			},
			{
				"x": -2.132300785,
				"y": -1.7520650738,
				"z": 0.7608222268,
				"element": "H" 
			},
			{
				"x": -0.3496319487,
				"y": 0.6166277255,
				"z": 1.5653623655,
				"element": "H" 
			},
			{
				"x": -2.057728585,
				"y": 0.7407923701,
				"z": 1.1434799857,
				"element": "H" 
			},
			{
				"x": 0.167723466,
				"y": -0.1987046392,
				"z": -0.7546807008,
				"element": "H" 
			},
			{
				"x": -1.5557671019,
				"y": -0.1173348094,
				"z": -1.1721333303,
				"element": "H" 
			}
		],
		 "valence_orbital": [ 
			{
				"type": "occ",
				"energy": -0.37066,
				"method": "rhf"
			},
			{
				"type": "occ",
				"energy": -0.33451,
				"method": "rhf"
			},
			{
				"type": "occ",
				"energy": -0.30107,
				"method": "rhf"
			},
			{
				"type": "occ",
				"energy": -0.29568,
				"method": "rhf"
			},
			{
				"type": "occ",
				"energy": -0.27341,
				"method": "rhf"
			},
			{
				"type": "unocc",
				"energy": 0.0187,
				"method": "rhf"
			},
			{
				"type": "unocc",
				"energy": 0.06684,
				"method": "rhf"
			},
			{
				"type": "unocc",
				"energy": 0.09543,
				"method": "rhf"
			},
			{
				"type": "unocc",
				"energy": 0.11822,
				"method": "rhf"
			},
			{
				"type": "unocc",
				"energy": 0.13812,
				"method": "rhf"
			}
		],
		"cosmo_sigma_profile": { 
			"-0.025": 0.0,
			"-0.024": 0.0,
			"-0.023": 0.0,
			"-0.022": 0.0,
			"-0.021": 0.0,
			"-0.02": 0.0,
			"-0.019": 0.0,
			"-0.018": 0.0,
			"-0.017": 0.0,
			"-0.016": 0.219288712327,
			"-0.015": 0.922315786662,
			"-0.014": 1.28027619214,
			"-0.013": 0.554248232254,
			"-0.012": 1.30752109029,
			"-0.011": 0.991131915886,
			"-0.01": 1.03375530643,
			"-0.009": 0.578601660381,
			"-0.008": 0.588928847942,
			"-0.007": 4.25656231315,
			"-0.006": 9.14512152264,
			"-0.005": 9.7151753643,
			"-0.004": 14.9394292582,
			"-0.003": 10.6479164781,
			"-0.002": 6.92254781678,
			"-0.001": 6.27792160511,
			"0.0": 6.64929947703,
			"0.001": 5.57727359188,
			"0.002": 4.74376235032,
			"0.003": 5.00251979834,
			"0.004": 5.38065306211,
			"0.005": 6.64957252535,
			"0.006": 9.10836416309,
			"0.007": 9.2121918645,
			"0.008": 1.0933417003,
			"0.009": 1.39149848086,
			"0.01": 1.09851149521,
			"0.011": 1.2770776941,
			"0.012": 1.41369709638,
			"0.013": 1.77927014726,
			"0.014": 2.31651769033,
			"0.015": 0.648688258407,
			"0.016": 0.0,
			"0.017": 0.0,
			"0.018": 0.0,
			"0.019": 0.0,
			"0.02": 0.0,
			"0.021": 0.0,
			"0.022": 0.0,
			"0.023": 0.0,
			"0.024": 0.0,
			"0.025": 0.0
		}
	}
}
