{
	 "smiles": "OC(=O)C1=C(C=CS1)S(=O)(=O)N1CCOCC1", 
	 "Tm": 463.15, 
	 "num_atms": 28, 
	 "gaussian": { 
		 "optdone": 1, 
		 "sigma_profile": "yes", 
		 "theory": "DFT", 
		 "functional": "B3LYP", 
		 "basiset": "6-31G**", 
		 "properties": { 
			 "R2extent": 6108.0972, 
			 "electric_dipole_moment_norm": 7.46103994494, 
			 "electric_quadrupole_moment_norm": 30.8313310519, 
			 "total_energy": -1576.72644356, 
			 "HOMO_LUMO_gap": 0.19013, 
			 "cosmo_polarized_energy": -19.55, 
			 "cosmo_cavitation_energy": 33.42, 
			 "cosmo_dispersion_energy": -25.12, 
			 "cosmo_repulsion_energy": 1.84, 
			 "cosmo_total_nonelectrostatic_energy": 10.14, 
			 "SMD_solvation_energy": 6.11 
		},
		"coords": [
			{
				"x": 1.1824317124,
				"y": -1.3790415156,
				"z": 4.0430864792,
				"element": "O" 
			},
			{
				"x": 1.4717814288,
				"y": -0.1036055291,
				"z": 4.2682039856,
				"element": "C" 
			},
			{
				"x": 1.6720404323,
				"y": 0.3189118985,
				"z": 5.3903743605,
				"element": "O" 
			},
			{
				"x": 1.5595330263,
				"y": 0.8637073184,
				"z": 3.1162105938,
				"element": "C" 
			},
			{
				"x": 1.5224312328,
				"y": 0.8132449275,
				"z": 1.7284384095,
				"element": "C" 
			},
			{
				"x": 1.6971215783,
				"y": 2.0828223281,
				"z": 1.1005418526,
				"element": "C" 
			},
			{
				"x": 1.851255913,
				"y": 3.0864423111,
				"z": 2.0164475506,
				"element": "C" 
			},
			{
				"x": 1.809186731,
				"y": 2.5054334692,
				"z": 3.6367548782,
				"element": "S" 
			},
			{
				"x": 1.4315469608,
				"y": -0.6590193908,
				"z": 0.7193053763,
				"element": "S" 
			},
			{
				"x": 2.7647130857,
				"y": -1.0237252671,
				"z": 0.2409579158,
				"element": "O" 
			},
			{
				"x": 0.6383952785,
				"y": -1.657790326,
				"z": 1.478995715,
				"element": "O" 
			},
			{
				"x": 0.5528892437,
				"y": -0.134883181,
				"z": -0.5963105269,
				"element": "N" 
			},
			{
				"x": -0.9016814443,
				"y": 0.058363677,
				"z": -0.4072455993,
				"element": "C" 
			},
			{
				"x": -1.524379481,
				"y": 0.3481654948,
				"z": -1.7848947902,
				"element": "C" 
			},
			{
				"x": -0.672224989,
				"y": 1.1770874702,
				"z": -2.5515968465,
				"element": "O" 
			},
			{
				"x": 0.5311747837,
				"y": 0.5152601006,
				"z": -2.9390311842,
				"element": "C" 
			},
			{
				"x": 0.9573395901,
				"y": -0.5766631149,
				"z": -1.939998989,
				"element": "C" 
			},
			{
				"x": 0.9616648977,
				"y": -1.5687020278,
				"z": 3.0990571283,
				"element": "H" 
			},
			{
				"x": 1.6832760284,
				"y": 2.2211688511,
				"z": 0.0274446862,
				"element": "H" 
			},
			{
				"x": 1.987025985,
				"y": 4.1410793955,
				"z": 1.817858982,
				"element": "H" 
			},
			{
				"x": -1.048996612,
				"y": 0.9134627793,
				"z": 0.2600587831,
				"element": "H" 
			},
			{
				"x": -1.3699120121,
				"y": -0.8238602724,
				"z": 0.0472126654,
				"element": "H" 
			},
			{
				"x": -2.4663046001,
				"y": 0.8869816903,
				"z": -1.6561811064,
				"element": "H" 
			},
			{
				"x": -1.7486696642,
				"y": -0.5906641197,
				"z": -2.3137391958,
				"element": "H" 
			},
			{
				"x": 1.2955820985,
				"y": 1.2956671935,
				"z": -3.0020190721,
				"element": "H" 
			},
			{
				"x": 0.4183220562,
				"y": 0.0617229142,
				"z": -3.9358838348,
				"element": "H" 
			},
			{
				"x": 2.0387779043,
				"y": -0.7126757729,
				"z": -1.9592913955,
				"element": "H" 
			},
			{
				"x": 0.4971788352,
				"y": -1.5430913023,
				"z": -2.1857568217,
				"element": "H" 
			}
		],
		 "valence_orbital": [ 
			{
				"type": "occ",
				"energy": -0.28762,
				"method": "rhf"
			},
			{
				"type": "occ",
				"energy": -0.27913,
				"method": "rhf"
			},
			{
				"type": "occ",
				"energy": -0.27668,
				"method": "rhf"
			},
			{
				"type": "occ",
				"energy": -0.27353,
				"method": "rhf"
			},
			{
				"type": "occ",
				"energy": -0.26876,
				"method": "rhf"
			},
			{
				"type": "unocc",
				"energy": -0.07863,
				"method": "rhf"
			},
			{
				"type": "unocc",
				"energy": -0.00446,
				"method": "rhf"
			},
			{
				"type": "unocc",
				"energy": 0.00035,
				"method": "rhf"
			},
			{
				"type": "unocc",
				"energy": 0.03837,
				"method": "rhf"
			},
			{
				"type": "unocc",
				"energy": 0.0506,
				"method": "rhf"
			}
		],
		"cosmo_sigma_profile": { 
			"-0.025": 0.0,
			"-0.024": 0.0,
			"-0.023": 0.0,
			"-0.022": 0.0,
			"-0.021": 0.0,
			"-0.02": 0.0,
			"-0.019": 0.0,
			"-0.018": 0.0,
			"-0.017": 0.0,
			"-0.016": 0.0,
			"-0.015": 0.0,
			"-0.014": 0.0,
			"-0.013": 0.0,
			"-0.012": 0.00830914811991,
			"-0.011": 0.836802107694,
			"-0.01": 2.68485662828,
			"-0.009": 2.67872300411,
			"-0.008": 3.3739163457,
			"-0.007": 7.18516346626,
			"-0.006": 22.7109296715,
			"-0.005": 32.3733255929,
			"-0.004": 24.4848016322,
			"-0.003": 20.4168216884,
			"-0.002": 14.3726870757,
			"-0.001": 17.1617880559,
			"0.0": 16.0880253812,
			"0.001": 15.9878485951,
			"0.002": 12.1013461423,
			"0.003": 6.31102399315,
			"0.004": 6.132711857,
			"0.005": 5.93433946087,
			"0.006": 7.42919861136,
			"0.007": 7.09729723767,
			"0.008": 6.74380025346,
			"0.009": 9.29115708573,
			"0.01": 11.6250033454,
			"0.011": 7.44435839606,
			"0.012": 5.08227375003,
			"0.013": 2.48959214425,
			"0.014": 0.00306154160301,
			"0.015": 0.0,
			"0.016": 0.0,
			"0.017": 0.0,
			"0.018": 0.0,
			"0.019": 0.0,
			"0.02": 0.0,
			"0.021": 0.0,
			"0.022": 0.0,
			"0.023": 0.0,
			"0.024": 0.0,
			"0.025": 0.0
		}
	}
}
