{
	 "smiles": "CSC1=NC2=C(N1C)C(=O)N(C(=S)N2)C1=CC=CC=C1C(O)=O", 
	 "Tm": 557.15, 
	 "num_atms": 35, 
	 "gaussian": { 
		 "optdone": 1, 
		 "sigma_profile": "yes", 
		 "theory": "DFT", 
		 "functional": "B3LYP", 
		 "basiset": "6-31G**", 
		 "properties": { 
			 "R2extent": 9293.4375, 
			 "electric_dipole_moment_norm": 5.96522283406, 
			 "electric_quadrupole_moment_norm": 19.2435771955, 
			 "total_energy": -1781.81840818, 
			 "HOMO_LUMO_gap": 0.15757, 
			 "cosmo_polarized_energy": -24.2, 
			 "cosmo_cavitation_energy": 43.09, 
			 "cosmo_dispersion_energy": -30.57, 
			 "cosmo_repulsion_energy": 2.26, 
			 "cosmo_total_nonelectrostatic_energy": 14.78, 
			 "SMD_solvation_energy": 6.79 
		},
		"coords": [
			{
				"x": 2.4015534904,
				"y": 1.3964262983,
				"z": 4.5769042346,
				"element": "C" 
			},
			{
				"x": 1.1553661504,
				"y": 0.0765865648,
				"z": 4.3711198469,
				"element": "S" 
			},
			{
				"x": 0.9859173403,
				"y": 0.114835184,
				"z": 2.6220879142,
				"element": "C" 
			},
			{
				"x": 1.6467503031,
				"y": 0.9331286831,
				"z": 1.7980165782,
				"element": "N" 
			},
			{
				"x": 1.1820784418,
				"y": 0.585510562,
				"z": 0.571929772,
				"element": "C" 
			},
			{
				"x": 0.252017377,
				"y": -0.4287307424,
				"z": 0.6264811705,
				"element": "C" 
			},
			{
				"x": 0.1291333024,
				"y": -0.7305331268,
				"z": 1.9800057584,
				"element": "N" 
			},
			{
				"x": -0.7392922989,
				"y": -1.7438346778,
				"z": 2.5721945447,
				"element": "C" 
			},
			{
				"x": -0.387780839,
				"y": -0.9628955342,
				"z": -0.5333511851,
				"element": "C" 
			},
			{
				"x": -1.2270043979,
				"y": -1.8528270016,
				"z": -0.5806260834,
				"element": "O" 
			},
			{
				"x": 0.0830663264,
				"y": -0.3229221991,
				"z": -1.7362866544,
				"element": "N" 
			},
			{
				"x": 1.0082021421,
				"y": 0.7136269272,
				"z": -1.82700815,
				"element": "C" 
			},
			{
				"x": 1.4844832852,
				"y": 1.4368092806,
				"z": -3.2571555614,
				"element": "S" 
			},
			{
				"x": 1.5447252195,
				"y": 1.1305697426,
				"z": -0.63173324,
				"element": "N" 
			},
			{
				"x": -0.5388543857,
				"y": -0.7971709795,
				"z": -2.9531690558,
				"element": "C" 
			},
			{
				"x": 0.1005426305,
				"y": -1.8298176686,
				"z": -3.6356228305,
				"element": "C" 
			},
			{
				"x": -0.4545237533,
				"y": -2.3596673934,
				"z": -4.7979040551,
				"element": "C" 
			},
			{
				"x": -1.6638842964,
				"y": -1.857547174,
				"z": -5.2801937209,
				"element": "C" 
			},
			{
				"x": -2.3077535572,
				"y": -0.8341082684,
				"z": -4.5937999387,
				"element": "C" 
			},
			{
				"x": -1.7643956705,
				"y": -0.288576503,
				"z": -3.4209590446,
				"element": "C" 
			},
			{
				"x": -2.5672354119,
				"y": 0.8012835339,
				"z": -2.7912483598,
				"element": "C" 
			},
			{
				"x": -2.0447308838,
				"y": 1.3201390503,
				"z": -1.6544325381,
				"element": "O" 
			},
			{
				"x": -3.6176741662,
				"y": 1.2105618309,
				"z": -3.2456422978,
				"element": "O" 
			},
			{
				"x": 3.3189386696,
				"y": 1.135944656,
				"z": 4.0497218583,
				"element": "H" 
			},
			{
				"x": 2.5861168832,
				"y": 1.4592934998,
				"z": 5.6507368667,
				"element": "H" 
			},
			{
				"x": 2.0144054805,
				"y": 2.3439761926,
				"z": 4.2032326901,
				"element": "H" 
			},
			{
				"x": -0.1424365267,
				"y": -2.4898447799,
				"z": 3.1051605527,
				"element": "H" 
			},
			{
				"x": -1.2878805119,
				"y": -2.2211457274,
				"z": 1.7607836403,
				"element": "H" 
			},
			{
				"x": -1.4413515876,
				"y": -1.2788538815,
				"z": 3.2704675047,
				"element": "H" 
			},
			{
				"x": 2.2213627799,
				"y": 1.8800137538,
				"z": -0.6813205846,
				"element": "H" 
			},
			{
				"x": 1.0415059169,
				"y": -2.2057348128,
				"z": -3.2487686701,
				"element": "H" 
			},
			{
				"x": 0.0570435618,
				"y": -3.1610807408,
				"z": -5.3221933708,
				"element": "H" 
			},
			{
				"x": -2.1045581804,
				"y": -2.2633022658,
				"z": -6.1855011843,
				"element": "H" 
			},
			{
				"x": -3.2498250422,
				"y": -0.4289403703,
				"z": -4.9450885736,
				"element": "H" 
			},
			{
				"x": -2.6696277913,
				"y": 2.0138280875,
				"z": -1.3840378331,
				"element": "H" 
			}
		],
		 "valence_orbital": [ 
			{
				"type": "occ",
				"energy": -0.26622,
				"method": "rhf"
			},
			{
				"type": "occ",
				"energy": -0.26176,
				"method": "rhf"
			},
			{
				"type": "occ",
				"energy": -0.24351,
				"method": "rhf"
			},
			{
				"type": "occ",
				"energy": -0.21056,
				"method": "rhf"
			},
			{
				"type": "occ",
				"energy": -0.20842,
				"method": "rhf"
			},
			{
				"type": "unocc",
				"energy": -0.05085,
				"method": "rhf"
			},
			{
				"type": "unocc",
				"energy": -0.0397,
				"method": "rhf"
			},
			{
				"type": "unocc",
				"energy": -0.02658,
				"method": "rhf"
			},
			{
				"type": "unocc",
				"energy": -0.01332,
				"method": "rhf"
			},
			{
				"type": "unocc",
				"energy": 0.0032,
				"method": "rhf"
			}
		],
		"cosmo_sigma_profile": { 
			"-0.025": 0.0,
			"-0.024": 0.0,
			"-0.023": 0.0,
			"-0.022": 0.0,
			"-0.021": 0.0,
			"-0.02": 0.0,
			"-0.019": 0.0344395828692,
			"-0.018": 0.983100060405,
			"-0.017": 1.37805667994,
			"-0.016": 1.56027405771,
			"-0.015": 1.69088237051,
			"-0.014": 1.50256061079,
			"-0.013": 1.28855040288,
			"-0.012": 1.33523590486,
			"-0.011": 1.73969485526,
			"-0.01": 1.41778495379,
			"-0.009": 1.10785884145,
			"-0.008": 4.21939326705,
			"-0.007": 14.8456934252,
			"-0.006": 21.8868242049,
			"-0.005": 23.2166175334,
			"-0.004": 25.5114425496,
			"-0.003": 25.4691913884,
			"-0.002": 26.8743447596,
			"-0.001": 20.7803989748,
			"0.0": 19.7750955833,
			"0.001": 18.6434831779,
			"0.002": 19.9110407764,
			"0.003": 19.9981576546,
			"0.004": 13.6700692448,
			"0.005": 12.4004081816,
			"0.006": 11.6549789653,
			"0.007": 9.70656908801,
			"0.008": 10.3999175665,
			"0.009": 12.3818873101,
			"0.01": 10.3666387051,
			"0.011": 8.49769154376,
			"0.012": 5.10299807835,
			"0.013": 0.37715538795,
			"0.014": 0.0,
			"0.015": 0.0,
			"0.016": 0.0,
			"0.017": 0.0,
			"0.018": 0.0,
			"0.019": 0.0,
			"0.02": 0.0,
			"0.021": 0.0,
			"0.022": 0.0,
			"0.023": 0.0,
			"0.024": 0.0,
			"0.025": 0.0
		}
	}
}
