{
	 "smiles": "NC(=S)CCCC1=CC=CC=C1", 
	 "Tm": 333.15, 
	 "num_atms": 25, 
	 "gaussian": { 
		 "optdone": 1, 
		 "sigma_profile": "yes", 
		 "theory": "DFT", 
		 "functional": "B3LYP", 
		 "basiset": "6-31G**", 
		 "properties": { 
			 "R2extent": 3293.8953, 
			 "electric_dipole_moment_norm": 4.84996565039, 
			 "electric_quadrupole_moment_norm": 21.4252093392, 
			 "total_energy": -841.85480846, 
			 "HOMO_LUMO_gap": 0.17352, 
			 "cosmo_polarized_energy": -14.26, 
			 "cosmo_cavitation_energy": 28.94, 
			 "cosmo_dispersion_energy": -20.52, 
			 "cosmo_repulsion_energy": 1.6, 
			 "cosmo_total_nonelectrostatic_energy": 10.03, 
			 "SMD_solvation_energy": 3.34 
		},
		"coords": [
			{
				"x": -0.6019247158,
				"y": -2.5532169736,
				"z": -0.4622244589,
				"element": "N" 
			},
			{
				"x": -1.8891325841,
				"y": -2.552413874,
				"z": -0.0719189402,
				"element": "C" 
			},
			{
				"x": -2.3842539466,
				"y": -3.2259700721,
				"z": 1.372026674,
				"element": "S" 
			},
			{
				"x": -2.8722631461,
				"y": -1.90904788,
				"z": -1.0405204572,
				"element": "C" 
			},
			{
				"x": -3.3484933146,
				"y": -0.4932658177,
				"z": -0.6146733342,
				"element": "C" 
			},
			{
				"x": -2.6186356485,
				"y": 0.6786533109,
				"z": -1.3096289691,
				"element": "C" 
			},
			{
				"x": -1.1161850613,
				"y": 0.7046570776,
				"z": -1.1227517118,
				"element": "C" 
			},
			{
				"x": -0.5500721915,
				"y": 0.9842144626,
				"z": 0.1302395693,
				"element": "C" 
			},
			{
				"x": 0.8323823981,
				"y": 0.972494619,
				"z": 0.3117175438,
				"element": "C" 
			},
			{
				"x": 1.6813905232,
				"y": 0.6821751431,
				"z": -0.7599734536,
				"element": "C" 
			},
			{
				"x": 1.1352311844,
				"y": 0.4134669854,
				"z": -2.0158235998,
				"element": "C" 
			},
			{
				"x": -0.2524941487,
				"y": 0.4276808528,
				"z": -2.192965611,
				"element": "C" 
			},
			{
				"x": 0.0914728604,
				"y": -2.8968851995,
				"z": 0.1873506655,
				"element": "H" 
			},
			{
				"x": -0.2875446674,
				"y": -1.9718832331,
				"z": -1.2286245983,
				"element": "H" 
			},
			{
				"x": -3.737404569,
				"y": -2.5737653986,
				"z": -1.0819402717,
				"element": "H" 
			},
			{
				"x": -2.443331263,
				"y": -1.873911623,
				"z": -2.0505979453,
				"element": "H" 
			},
			{
				"x": -3.267624068,
				"y": -0.4055993233,
				"z": 0.4733825127,
				"element": "H" 
			},
			{
				"x": -4.4148087762,
				"y": -0.3997506125,
				"z": -0.8476560837,
				"element": "H" 
			},
			{
				"x": -2.843580626,
				"y": 0.6488119107,
				"z": -2.382700108,
				"element": "H" 
			},
			{
				"x": -3.0494071685,
				"y": 1.6147317416,
				"z": -0.9317079603,
				"element": "H" 
			},
			{
				"x": -1.199904141,
				"y": 1.2061477074,
				"z": 0.97301775,
				"element": "H" 
			},
			{
				"x": 1.2489055112,
				"y": 1.1900908431,
				"z": 1.2911351135,
				"element": "H" 
			},
			{
				"x": 2.7582011238,
				"y": 0.6748419541,
				"z": -0.6184234625,
				"element": "H" 
			},
			{
				"x": 1.785494443,
				"y": 0.2015732083,
				"z": -2.8602177155,
				"element": "H" 
			},
			{
				"x": -0.6708180077,
				"y": 0.2323701906,
				"z": -3.1779211478,
				"element": "H" 
			}
		],
		 "valence_orbital": [ 
			{
				"type": "occ",
				"energy": -0.33112,
				"method": "rhf"
			},
			{
				"type": "occ",
				"energy": -0.26339,
				"method": "rhf"
			},
			{
				"type": "occ",
				"energy": -0.2534,
				"method": "rhf"
			},
			{
				"type": "occ",
				"energy": -0.22171,
				"method": "rhf"
			},
			{
				"type": "occ",
				"energy": -0.19858,
				"method": "rhf"
			},
			{
				"type": "unocc",
				"energy": -0.02506,
				"method": "rhf"
			},
			{
				"type": "unocc",
				"energy": -0.01652,
				"method": "rhf"
			},
			{
				"type": "unocc",
				"energy": -0.01182,
				"method": "rhf"
			},
			{
				"type": "unocc",
				"energy": 0.07615,
				"method": "rhf"
			},
			{
				"type": "unocc",
				"energy": 0.08489,
				"method": "rhf"
			}
		],
		"cosmo_sigma_profile": { 
			"-0.025": 0.0,
			"-0.024": 0.0,
			"-0.023": 0.0,
			"-0.022": 0.0,
			"-0.021": 0.0,
			"-0.02": 0.0,
			"-0.019": 0.0,
			"-0.018": 0.0,
			"-0.017": 0.0,
			"-0.016": 0.0,
			"-0.015": 0.204885052194,
			"-0.014": 1.166572565,
			"-0.013": 0.82158566575,
			"-0.012": 0.60461799844,
			"-0.011": 1.10367791497,
			"-0.01": 1.37448006146,
			"-0.009": 2.98206867024,
			"-0.008": 2.47112392265,
			"-0.007": 2.05769645194,
			"-0.006": 5.49140409919,
			"-0.005": 16.9760002047,
			"-0.004": 24.3474433642,
			"-0.003": 27.2897677652,
			"-0.002": 21.9992583066,
			"-0.001": 18.2705321357,
			"0.0": 13.7471087132,
			"0.001": 11.1518061711,
			"0.002": 10.3111191132,
			"0.003": 11.9654867688,
			"0.004": 10.6943665849,
			"0.005": 7.98371992155,
			"0.006": 8.40337692366,
			"0.007": 3.7378366225,
			"0.008": 4.10666814434,
			"0.009": 6.50162584238,
			"0.01": 6.20017178901,
			"0.011": 3.58751693825,
			"0.012": 3.49876543633,
			"0.013": 1.71789520806,
			"0.014": 0.0314391933639,
			"0.015": 0.0,
			"0.016": 0.0,
			"0.017": 0.0,
			"0.018": 0.0,
			"0.019": 0.0,
			"0.02": 0.0,
			"0.021": 0.0,
			"0.022": 0.0,
			"0.023": 0.0,
			"0.024": 0.0,
			"0.025": 0.0
		}
	}
}
