{
	 "smiles": "NC(=S)COC1=CC=C(F)C=C1", 
	 "Tm": 394.15, 
	 "num_atms": 20, 
	 "gaussian": { 
		 "optdone": 1, 
		 "sigma_profile": "yes", 
		 "theory": "DFT", 
		 "functional": "B3LYP", 
		 "basiset": "6-31G**", 
		 "properties": { 
			 "R2extent": 3034.1797, 
			 "electric_dipole_moment_norm": 5.33987975333, 
			 "electric_quadrupole_moment_norm": 15.8061552868, 
			 "total_energy": -937.654084248, 
			 "HOMO_LUMO_gap": 0.17167, 
			 "cosmo_polarized_energy": -21.11, 
			 "cosmo_cavitation_energy": 26.69, 
			 "cosmo_dispersion_energy": -19.45, 
			 "cosmo_repulsion_energy": 1.51, 
			 "cosmo_total_nonelectrostatic_energy": 8.75, 
			 "SMD_solvation_energy": 4.38 
		},
		"coords": [
			{
				"x": -1.509456719,
				"y": 2.6975557182,
				"z": -0.248669295,
				"element": "N" 
			},
			{
				"x": -0.4253891931,
				"y": 2.2736689484,
				"z": 0.4354763234,
				"element": "C" 
			},
			{
				"x": -0.3350359163,
				"y": 2.264893779,
				"z": 2.0852568467,
				"element": "S" 
			},
			{
				"x": 0.7317267184,
				"y": 1.8737271258,
				"z": -0.4899373928,
				"element": "C" 
			},
			{
				"x": 1.6643488409,
				"y": 0.9844226286,
				"z": 0.0623538589,
				"element": "O" 
			},
			{
				"x": 1.3514172155,
				"y": -0.352556133,
				"z": 0.1291888037,
				"element": "C" 
			},
			{
				"x": 0.1055229676,
				"y": -0.8996231116,
				"z": -0.1926097202,
				"element": "C" 
			},
			{
				"x": -0.0884867771,
				"y": -2.2820410014,
				"z": -0.1075174949,
				"element": "C" 
			},
			{
				"x": 0.9594055447,
				"y": -3.0927171347,
				"z": 0.3011848736,
				"element": "C" 
			},
			{
				"x": 0.7697078683,
				"y": -4.4289971125,
				"z": 0.3828935628,
				"element": "F" 
			},
			{
				"x": 2.2032361711,
				"y": -2.5624860386,
				"z": 0.6335298808,
				"element": "C" 
			},
			{
				"x": 2.3962249709,
				"y": -1.1883661236,
				"z": 0.5449920762,
				"element": "C" 
			},
			{
				"x": -2.2976328501,
				"y": 3.0664013415,
				"z": 0.2639285206,
				"element": "H" 
			},
			{
				"x": -1.5499837376,
				"y": 2.6886728435,
				"z": -1.2580561881,
				"element": "H" 
			},
			{
				"x": 1.2953901994,
				"y": 2.7867639178,
				"z": -0.7126519522,
				"element": "H" 
			},
			{
				"x": 0.3352430153,
				"y": 1.4851132674,
				"z": -1.4417002623,
				"element": "H" 
			},
			{
				"x": -0.7266820361,
				"y": -0.2717646145,
				"z": -0.4872697715,
				"element": "H" 
			},
			{
				"x": -1.0481748486,
				"y": -2.7266910545,
				"z": -0.347466751,
				"element": "H" 
			},
			{
				"x": 3.0008387703,
				"y": -3.2241491292,
				"z": 0.9534670643,
				"element": "H" 
			},
			{
				"x": 3.3515797953,
				"y": -0.7396281166,
				"z": 0.794507017,
				"element": "H" 
			}
		],
		 "valence_orbital": [ 
			{
				"type": "occ",
				"energy": -0.31866,
				"method": "rhf"
			},
			{
				"type": "occ",
				"energy": -0.26023,
				"method": "rhf"
			},
			{
				"type": "occ",
				"energy": -0.24133,
				"method": "rhf"
			},
			{
				"type": "occ",
				"energy": -0.2195,
				"method": "rhf"
			},
			{
				"type": "occ",
				"energy": -0.21447,
				"method": "rhf"
			},
			{
				"type": "unocc",
				"energy": -0.0428,
				"method": "rhf"
			},
			{
				"type": "unocc",
				"energy": -0.00995,
				"method": "rhf"
			},
			{
				"type": "unocc",
				"energy": 0.01488,
				"method": "rhf"
			},
			{
				"type": "unocc",
				"energy": 0.04651,
				"method": "rhf"
			},
			{
				"type": "unocc",
				"energy": 0.08165,
				"method": "rhf"
			}
		],
		"cosmo_sigma_profile": { 
			"-0.025": 0.0,
			"-0.024": 0.0,
			"-0.023": 0.0,
			"-0.022": 0.0,
			"-0.021": 0.0,
			"-0.02": 0.0,
			"-0.019": 0.0,
			"-0.018": 0.0,
			"-0.017": 0.155841721942,
			"-0.016": 1.76784342836,
			"-0.015": 2.47814874345,
			"-0.014": 3.37735137331,
			"-0.013": 3.14830171198,
			"-0.012": 2.35379721431,
			"-0.011": 2.14603945412,
			"-0.01": 2.29612247145,
			"-0.009": 3.91762073971,
			"-0.008": 6.70102068865,
			"-0.007": 9.21518064031,
			"-0.006": 9.82807227325,
			"-0.005": 11.2695507381,
			"-0.004": 9.13246249892,
			"-0.003": 8.45180872639,
			"-0.002": 6.31240723806,
			"-0.001": 7.16102646625,
			"0.0": 9.66441987525,
			"0.001": 13.1538081566,
			"0.002": 13.2596368128,
			"0.003": 15.7914583219,
			"0.004": 22.0621419094,
			"0.005": 12.7390663701,
			"0.006": 5.30195784244,
			"0.007": 7.04191360489,
			"0.008": 8.37975573054,
			"0.009": 6.14031928678,
			"0.01": 5.3833688298,
			"0.011": 2.9574305427,
			"0.012": 2.3922164986,
			"0.013": 1.45323927568,
			"0.014": 0.202409991938,
			"0.015": 0.0,
			"0.016": 0.0,
			"0.017": 0.0,
			"0.018": 0.0,
			"0.019": 0.0,
			"0.02": 0.0,
			"0.021": 0.0,
			"0.022": 0.0,
			"0.023": 0.0,
			"0.024": 0.0,
			"0.025": 0.0
		}
	}
}
