{
	 "smiles": "CC(C)(C)OC(=O)N1C2CCC1CC(=O)C2", 
	 "Tm": 331.65, 
	 "num_atms": 35, 
	 "gaussian": { 
		 "optdone": 1, 
		 "sigma_profile": "yes", 
		 "theory": "DFT", 
		 "functional": "B3LYP", 
		 "basiset": "6-31G**", 
		 "properties": { 
			 "R2extent": 3975.3461, 
			 "electric_dipole_moment_norm": 2.91908467332, 
			 "electric_quadrupole_moment_norm": 14.670287232, 
			 "total_energy": -749.189791136, 
			 "HOMO_LUMO_gap": 0.2223, 
			 "cosmo_polarized_energy": -11.61, 
			 "cosmo_cavitation_energy": 34.99, 
			 "cosmo_dispersion_energy": -24.23, 
			 "cosmo_repulsion_energy": 1.89, 
			 "cosmo_total_nonelectrostatic_energy": 12.65, 
			 "SMD_solvation_energy": 5.84 
		},
		"coords": [
			{
				"x": -2.4750024931,
				"y": -0.1373281448,
				"z": 2.1507228891,
				"element": "C" 
			},
			{
				"x": -1.9160602333,
				"y": 1.1075342212,
				"z": 1.4534101613,
				"element": "C" 
			},
			{
				"x": -1.4069116184,
				"y": 2.1227626195,
				"z": 2.4799330997,
				"element": "C" 
			},
			{
				"x": -2.9367419271,
				"y": 1.7527599991,
				"z": 0.5101582421,
				"element": "C" 
			},
			{
				"x": -0.6912406012,
				"y": 0.7631704755,
				"z": 0.7108960373,
				"element": "O" 
			},
			{
				"x": -0.7281643224,
				"y": -0.1107933792,
				"z": -0.3251463265,
				"element": "C" 
			},
			{
				"x": -1.7103726897,
				"y": -0.7281848218,
				"z": -0.7121339856,
				"element": "O" 
			},
			{
				"x": 0.5033863718,
				"y": -0.2005621413,
				"z": -0.9220304005,
				"element": "N" 
			},
			{
				"x": 1.78846095,
				"y": 0.1894949557,
				"z": -0.3269041977,
				"element": "C" 
			},
			{
				"x": 2.7008846029,
				"y": 0.2569288373,
				"z": -1.5751828252,
				"element": "C" 
			},
			{
				"x": 2.0500936235,
				"y": -0.7303398073,
				"z": -2.5930571845,
				"element": "C" 
			},
			{
				"x": 0.8113086683,
				"y": -1.2899007197,
				"z": -1.8558968888,
				"element": "C" 
			},
			{
				"x": 1.143394165,
				"y": -2.5597440564,
				"z": -1.0355472739,
				"element": "C" 
			},
			{
				"x": 2.250816228,
				"y": -2.2955813704,
				"z": -0.0162385729,
				"element": "C" 
			},
			{
				"x": 3.0988499591,
				"y": -3.1266293777,
				"z": 0.2467531865,
				"element": "O" 
			},
			{
				"x": 2.233346667,
				"y": -0.9208413773,
				"z": 0.6558692342,
				"element": "C" 
			},
			{
				"x": -1.7087783778,
				"y": -0.5941559224,
				"z": 2.7855758516,
				"element": "H" 
			},
			{
				"x": -3.3172202639,
				"y": 0.1470770607,
				"z": 2.7898359387,
				"element": "H" 
			},
			{
				"x": -2.8170517585,
				"y": -0.8724980488,
				"z": 1.4222332702,
				"element": "H" 
			},
			{
				"x": -0.643666602,
				"y": 1.6739412627,
				"z": 3.1225198385,
				"element": "H" 
			},
			{
				"x": -2.2324159373,
				"y": 2.4646852651,
				"z": 3.1111595128,
				"element": "H" 
			},
			{
				"x": -0.9700126784,
				"y": 2.9922459989,
				"z": 1.9801684886,
				"element": "H" 
			},
			{
				"x": -3.794773773,
				"y": 2.1110941594,
				"z": 1.0881250654,
				"element": "H" 
			},
			{
				"x": -2.490654158,
				"y": 2.6109904193,
				"z": -0.002381862,
				"element": "H" 
			},
			{
				"x": -3.2868838878,
				"y": 1.0377667847,
				"z": -0.234605136,
				"element": "H" 
			},
			{
				"x": 1.6955126648,
				"y": 1.1443922622,
				"z": 0.1899874298,
				"element": "H" 
			},
			{
				"x": 2.7097694668,
				"y": 1.2726594902,
				"z": -1.978906261,
				"element": "H" 
			},
			{
				"x": 3.7330196797,
				"y": -0.0085593168,
				"z": -1.3299833232,
				"element": "H" 
			},
			{
				"x": 2.7300935176,
				"y": -1.5310588737,
				"z": -2.8965346742,
				"element": "H" 
			},
			{
				"x": 1.7421839525,
				"y": -0.1997631117,
				"z": -3.4976555034,
				"element": "H" 
			},
			{
				"x": -0.0429502336,
				"y": -1.4717790757,
				"z": -2.5082198987,
				"element": "H" 
			},
			{
				"x": 1.4468187359,
				"y": -3.3993010845,
				"z": -1.6677600704,
				"element": "H" 
			},
			{
				"x": 0.2355545539,
				"y": -2.8594716225,
				"z": -0.4946763753,
				"element": "H" 
			},
			{
				"x": 1.5155207911,
				"y": -0.9527718819,
				"z": 1.4866690463,
				"element": "H" 
			},
			{
				"x": 3.2237869576,
				"y": -0.7308396776,
				"z": 1.0799434677,
				"element": "H" 
			}
		],
		 "valence_orbital": [ 
			{
				"type": "occ",
				"energy": -0.32907,
				"method": "rhf"
			},
			{
				"type": "occ",
				"energy": -0.29196,
				"method": "rhf"
			},
			{
				"type": "occ",
				"energy": -0.26643,
				"method": "rhf"
			},
			{
				"type": "occ",
				"energy": -0.24425,
				"method": "rhf"
			},
			{
				"type": "occ",
				"energy": -0.24126,
				"method": "rhf"
			},
			{
				"type": "unocc",
				"energy": -0.01896,
				"method": "rhf"
			},
			{
				"type": "unocc",
				"energy": 0.04285,
				"method": "rhf"
			},
			{
				"type": "unocc",
				"energy": 0.0735,
				"method": "rhf"
			},
			{
				"type": "unocc",
				"energy": 0.09129,
				"method": "rhf"
			},
			{
				"type": "unocc",
				"energy": 0.0977,
				"method": "rhf"
			}
		],
		"cosmo_sigma_profile": { 
			"-0.025": 0.0,
			"-0.024": 0.0,
			"-0.023": 0.0,
			"-0.022": 0.0,
			"-0.021": 0.0,
			"-0.02": 0.0,
			"-0.019": 0.0,
			"-0.018": 0.0,
			"-0.017": 0.0,
			"-0.016": 0.0,
			"-0.015": 0.0,
			"-0.014": 0.0,
			"-0.013": 0.0,
			"-0.012": 0.0,
			"-0.011": 0.0,
			"-0.01": 0.0,
			"-0.009": 0.0,
			"-0.008": 0.300718211347,
			"-0.007": 1.73347211835,
			"-0.006": 4.10653030094,
			"-0.005": 12.9559718081,
			"-0.004": 35.835962768,
			"-0.003": 37.9835744219,
			"-0.002": 32.4912355879,
			"-0.001": 30.5157859724,
			"0.0": 30.1921850038,
			"0.001": 21.2973751749,
			"0.002": 9.73238938577,
			"0.003": 8.36481283898,
			"0.004": 6.06858619917,
			"0.005": 6.51027001719,
			"0.006": 3.95323133681,
			"0.007": 3.33518536136,
			"0.008": 2.54479416195,
			"0.009": 2.90133306739,
			"0.01": 3.362227345,
			"0.011": 5.1289069278,
			"0.012": 6.01171317725,
			"0.013": 5.26561868251,
			"0.014": 0.946273755125,
			"0.015": 0.0,
			"0.016": 0.0,
			"0.017": 0.0,
			"0.018": 0.0,
			"0.019": 0.0,
			"0.02": 0.0,
			"0.021": 0.0,
			"0.022": 0.0,
			"0.023": 0.0,
			"0.024": 0.0,
			"0.025": 0.0
		}
	}
}
