{
	 "smiles": "O=C1C=CC=CC=C1", 
	 "Tm": 266.15, 
	 "num_atms": 14, 
	 "gaussian": { 
		 "optdone": 1, 
		 "sigma_profile": "yes", 
		 "theory": "DFT", 
		 "functional": "B3LYP", 
		 "basiset": "6-31G**", 
		 "properties": { 
			 "R2extent": 1089.3464, 
			 "electric_dipole_moment_norm": 4.40434829912, 
			 "electric_quadrupole_moment_norm": 10.3868049149, 
			 "total_energy": -345.539379124, 
			 "HOMO_LUMO_gap": 0.15386, 
			 "cosmo_polarized_energy": -10.79, 
			 "cosmo_cavitation_energy": 18.12, 
			 "cosmo_dispersion_energy": -13.55, 
			 "cosmo_repulsion_energy": 1.12, 
			 "cosmo_total_nonelectrostatic_energy": 5.69, 
			 "SMD_solvation_energy": 3.89 
		},
		"coords": [
			{
				"x": 0.335979781,
				"y": -0.4226478425,
				"z": -2.7231614388,
				"element": "O" 
			},
			{
				"x": 0.1683900919,
				"y": -0.7020789765,
				"z": -1.5316439217,
				"element": "C" 
			},
			{
				"x": 0.8343813938,
				"y": 0.113733238,
				"z": -0.5029414343,
				"element": "C" 
			},
			{
				"x": 0.8200514053,
				"y": 0.0264902347,
				"z": 0.8550102469,
				"element": "C" 
			},
			{
				"x": 0.1410517346,
				"y": -0.9013941365,
				"z": 1.7130489184,
				"element": "C" 
			},
			{
				"x": -0.6692180931,
				"y": -1.9389987255,
				"z": 1.3557469281,
				"element": "C" 
			},
			{
				"x": -1.0407691616,
				"y": -2.356468293,
				"z": 0.0344245582,
				"element": "C" 
			},
			{
				"x": -0.6927900002,
				"y": -1.8420304019,
				"z": -1.176404585,
				"element": "C" 
			},
			{
				"x": 1.4277022825,
				"y": 0.9092396134,
				"z": -0.9481781437,
				"element": "H" 
			},
			{
				"x": 1.4134642536,
				"y": 0.7730873684,
				"z": 1.3799591926,
				"element": "H" 
			},
			{
				"x": 0.2990045326,
				"y": -0.7493453125,
				"z": 2.7783197374,
				"element": "H" 
			},
			{
				"x": -1.0916112881,
				"y": -2.530087315,
				"z": 2.1651097783,
				"element": "H" 
			},
			{
				"x": -1.7040674529,
				"y": -3.2191948337,
				"z": 0.0051706382,
				"element": "H" 
			},
			{
				"x": -1.0983694794,
				"y": -2.3258046174,
				"z": -2.0621604746,
				"element": "H" 
			}
		],
		 "valence_orbital": [ 
			{
				"type": "occ",
				"energy": -0.35353,
				"method": "rhf"
			},
			{
				"type": "occ",
				"energy": -0.34635,
				"method": "rhf"
			},
			{
				"type": "occ",
				"energy": -0.30297,
				"method": "rhf"
			},
			{
				"type": "occ",
				"energy": -0.23754,
				"method": "rhf"
			},
			{
				"type": "occ",
				"energy": -0.2345,
				"method": "rhf"
			},
			{
				"type": "unocc",
				"energy": -0.08064,
				"method": "rhf"
			},
			{
				"type": "unocc",
				"energy": -0.05028,
				"method": "rhf"
			},
			{
				"type": "unocc",
				"energy": 0.06514,
				"method": "rhf"
			},
			{
				"type": "unocc",
				"energy": 0.10416,
				"method": "rhf"
			},
			{
				"type": "unocc",
				"energy": 0.10788,
				"method": "rhf"
			}
		],
		"cosmo_sigma_profile": { 
			"-0.025": 0.0,
			"-0.024": 0.0,
			"-0.023": 0.0,
			"-0.022": 0.0,
			"-0.021": 0.0,
			"-0.02": 0.0,
			"-0.019": 0.0,
			"-0.018": 0.0,
			"-0.017": 0.0,
			"-0.016": 0.0,
			"-0.015": 0.0,
			"-0.014": 0.0,
			"-0.013": 0.0,
			"-0.012": 0.0,
			"-0.011": 0.0,
			"-0.01": 0.0,
			"-0.009": 0.0,
			"-0.008": 0.579789105996,
			"-0.007": 13.0138683473,
			"-0.006": 15.1171461871,
			"-0.005": 11.1998287981,
			"-0.004": 7.9822552907,
			"-0.003": 6.14250903679,
			"-0.002": 7.32918228933,
			"-0.001": 9.88273208052,
			"0.0": 14.4299157085,
			"0.001": 16.5523163541,
			"0.002": 16.3533811164,
			"0.003": 2.6999273392,
			"0.004": 1.52254574449,
			"0.005": 1.82824975873,
			"0.006": 0.759689581484,
			"0.007": 1.55487692192,
			"0.008": 1.7851835784,
			"0.009": 0.855933700313,
			"0.01": 1.13437893599,
			"0.011": 1.89723740648,
			"0.012": 1.48531074989,
			"0.013": 3.12436197942,
			"0.014": 5.23761513173,
			"0.015": 2.65910425063,
			"0.016": 0.21557743554,
			"0.017": 0.0,
			"0.018": 0.0,
			"0.019": 0.0,
			"0.02": 0.0,
			"0.021": 0.0,
			"0.022": 0.0,
			"0.023": 0.0,
			"0.024": 0.0,
			"0.025": 0.0
		}
	}
}
