{
	 "smiles": "CS(=O)(=O)C1=NC=C(N)C=C1", 
	 "Tm": 445.15, 
	 "num_atms": 19, 
	 "gaussian": { 
		 "optdone": 1, 
		 "sigma_profile": "yes", 
		 "theory": "DFT", 
		 "functional": "B3LYP", 
		 "basiset": "6-31G**", 
		 "properties": { 
			 "R2extent": 2818.5654, 
			 "electric_dipole_moment_norm": 7.02118611703, 
			 "electric_quadrupole_moment_norm": 27.0280698739, 
			 "total_energy": -891.530556442, 
			 "HOMO_LUMO_gap": 0.19231, 
			 "cosmo_polarized_energy": -21.78, 
			 "cosmo_cavitation_energy": 24.61, 
			 "cosmo_dispersion_energy": -18.73, 
			 "cosmo_repulsion_energy": 1.46, 
			 "cosmo_total_nonelectrostatic_energy": 7.34, 
			 "SMD_solvation_energy": 3.02 
		},
		"coords": [
			{
				"x": -0.2911995571,
				"y": -2.9975801389,
				"z": -1.716185127,
				"element": "C" 
			},
			{
				"x": -1.7265897674,
				"y": -1.9037922925,
				"z": -1.7165027669,
				"element": "S" 
			},
			{
				"x": -2.7620572657,
				"y": -2.4744013746,
				"z": -0.8357316071,
				"element": "O" 
			},
			{
				"x": -2.0429073454,
				"y": -1.5841384747,
				"z": -3.1165005406,
				"element": "O" 
			},
			{
				"x": -1.1054188729,
				"y": -0.4196186468,
				"z": -0.8906597902,
				"element": "C" 
			},
			{
				"x": 0.0328349999,
				"y": 0.0851890693,
				"z": -1.362123631,
				"element": "N" 
			},
			{
				"x": 0.4893097979,
				"y": 1.2067969915,
				"z": -0.8150698256,
				"element": "C" 
			},
			{
				"x": -0.1755866954,
				"y": 1.8923354581,
				"z": 0.2265755868,
				"element": "C" 
			},
			{
				"x": 0.3692890583,
				"y": 3.0348282305,
				"z": 0.7797879685,
				"element": "N" 
			},
			{
				"x": -1.3716372461,
				"y": 1.3306461801,
				"z": 0.7061892958,
				"element": "C" 
			},
			{
				"x": -1.8451688432,
				"y": 0.1515959604,
				"z": 0.1435417698,
				"element": "C" 
			},
			{
				"x": 0.5375356123,
				"y": -2.4745888336,
				"z": -2.1932636748,
				"element": "H" 
			},
			{
				"x": -0.5804037688,
				"y": -3.8785213421,
				"z": -2.292151639,
				"element": "H" 
			},
			{
				"x": -0.0500282776,
				"y": -3.2707821563,
				"z": -0.6880901283,
				"element": "H" 
			},
			{
				"x": 1.4271486777,
				"y": 1.5977119404,
				"z": -1.2085040398,
				"element": "H" 
			},
			{
				"x": -0.2578666058,
				"y": 3.6427985508,
				"z": 1.2857243427,
				"element": "H" 
			},
			{
				"x": 1.0492438184,
				"y": 3.5314249735,
				"z": 0.2226882602,
				"element": "H" 
			},
			{
				"x": -1.9147061426,
				"y": 1.8136983969,
				"z": 1.5142632248,
				"element": "H" 
			},
			{
				"x": -2.7565915766,
				"y": -0.324502492,
				"z": 0.4860123218,
				"element": "H" 
			}
		],
		 "valence_orbital": [ 
			{
				"type": "occ",
				"energy": -0.29801,
				"method": "rhf"
			},
			{
				"type": "occ",
				"energy": -0.29346,
				"method": "rhf"
			},
			{
				"type": "occ",
				"energy": -0.28243,
				"method": "rhf"
			},
			{
				"type": "occ",
				"energy": -0.26491,
				"method": "rhf"
			},
			{
				"type": "occ",
				"energy": -0.23502,
				"method": "rhf"
			},
			{
				"type": "unocc",
				"energy": -0.04271,
				"method": "rhf"
			},
			{
				"type": "unocc",
				"energy": -0.0261,
				"method": "rhf"
			},
			{
				"type": "unocc",
				"energy": 0.05462,
				"method": "rhf"
			},
			{
				"type": "unocc",
				"energy": 0.07951,
				"method": "rhf"
			},
			{
				"type": "unocc",
				"energy": 0.08828,
				"method": "rhf"
			}
		],
		"cosmo_sigma_profile": { 
			"-0.025": 0.0,
			"-0.024": 0.0,
			"-0.023": 0.0,
			"-0.022": 0.0,
			"-0.021": 0.0,
			"-0.02": 0.0,
			"-0.019": 0.0,
			"-0.018": 0.0,
			"-0.017": 0.0,
			"-0.016": 0.0,
			"-0.015": 0.0,
			"-0.014": 1.25673101849,
			"-0.013": 3.56626638019,
			"-0.012": 3.72606236024,
			"-0.011": 3.40992868037,
			"-0.01": 3.34122915544,
			"-0.009": 4.47153114055,
			"-0.008": 8.63903722777,
			"-0.007": 10.6930632779,
			"-0.006": 10.7304382425,
			"-0.005": 10.4611881998,
			"-0.004": 10.6832098965,
			"-0.003": 9.95075223865,
			"-0.002": 7.49936462194,
			"-0.001": 7.75636660474,
			"0.0": 11.2120358342,
			"0.001": 15.043562235,
			"0.002": 11.2857530392,
			"0.003": 5.33674449323,
			"0.004": 4.81352679805,
			"0.005": 3.95531668341,
			"0.006": 4.52296571147,
			"0.007": 3.37953606071,
			"0.008": 4.88431870942,
			"0.009": 4.89886935101,
			"0.01": 5.75644174263,
			"0.011": 10.2079321136,
			"0.012": 11.9515118622,
			"0.013": 2.58406214579,
			"0.014": 0.0,
			"0.015": 0.0,
			"0.016": 0.0,
			"0.017": 0.0,
			"0.018": 0.0,
			"0.019": 0.0,
			"0.02": 0.0,
			"0.021": 0.0,
			"0.022": 0.0,
			"0.023": 0.0,
			"0.024": 0.0,
			"0.025": 0.0
		}
	}
}
