{
	 "smiles": "O=NC1=CC=C(NC2=CC=CC=C2)C=C1", 
	 "Tm": 416.15, 
	 "num_atms": 25, 
	 "gaussian": { 
		 "optdone": 1, 
		 "sigma_profile": "yes", 
		 "theory": "DFT", 
		 "functional": "B3LYP", 
		 "basiset": "6-31G**", 
		 "properties": { 
			 "R2extent": 5575.5793, 
			 "electric_dipole_moment_norm": 6.39510931337, 
			 "electric_quadrupole_moment_norm": 30.9093177594, 
			 "total_energy": -647.952337155, 
			 "HOMO_LUMO_gap": 0.11858, 
			 "cosmo_polarized_energy": -14.61, 
			 "cosmo_cavitation_energy": 29.84, 
			 "cosmo_dispersion_energy": -21.84, 
			 "cosmo_repulsion_energy": 1.69, 
			 "cosmo_total_nonelectrostatic_energy": 9.69, 
			 "SMD_solvation_energy": 5.06 
		},
		"coords": [
			{
				"x": -5.4978145805,
				"y": -2.8674005006,
				"z": 2.6700816233,
				"element": "O" 
			},
			{
				"x": -4.4845913979,
				"y": -3.5636420417,
				"z": 2.7091457179,
				"element": "N" 
			},
			{
				"x": -3.3189330655,
				"y": -2.9686531326,
				"z": 2.1539655634,
				"element": "C" 
			},
			{
				"x": -3.2741083673,
				"y": -1.6715490191,
				"z": 1.6138567212,
				"element": "C" 
			},
			{
				"x": -2.0972693948,
				"y": -1.16758113,
				"z": 1.0942952741,
				"element": "C" 
			},
			{
				"x": -0.9211513846,
				"y": -1.9596732392,
				"z": 1.095548167,
				"element": "C" 
			},
			{
				"x": 0.2906026526,
				"y": -1.503297283,
				"z": 0.6123255914,
				"element": "N" 
			},
			{
				"x": 0.574516508,
				"y": -0.3795249758,
				"z": -0.1890110547,
				"element": "C" 
			},
			{
				"x": 1.8000223004,
				"y": 0.2798966925,
				"z": -0.002733517,
				"element": "C" 
			},
			{
				"x": 2.1485358106,
				"y": 1.3610856826,
				"z": -0.8086134316,
				"element": "C" 
			},
			{
				"x": 1.2766613158,
				"y": 1.8126539349,
				"z": -1.8015440359,
				"element": "C" 
			},
			{
				"x": 0.0599754076,
				"y": 1.1551801544,
				"z": -1.9916134903,
				"element": "C" 
			},
			{
				"x": -0.29040194,
				"y": 0.0589478898,
				"z": -1.2044023636,
				"element": "C" 
			},
			{
				"x": -0.9714570168,
				"y": -3.2575816464,
				"z": 1.6543321151,
				"element": "C" 
			},
			{
				"x": -2.1541868622,
				"y": -3.7497598664,
				"z": 2.1767575532,
				"element": "C" 
			},
			{
				"x": -4.1834565444,
				"y": -1.0798247617,
				"z": 1.6317977203,
				"element": "H" 
			},
			{
				"x": -2.0626139546,
				"y": -0.1552226006,
				"z": 0.7105633262,
				"element": "H" 
			},
			{
				"x": 1.0977691063,
				"y": -2.0345895109,
				"z": 0.9053625036,
				"element": "H" 
			},
			{
				"x": 2.4717956842,
				"y": -0.0550702484,
				"z": 0.7836061961,
				"element": "H" 
			},
			{
				"x": 3.1010753054,
				"y": 1.8584680624,
				"z": -0.6507290501,
				"element": "H" 
			},
			{
				"x": 1.5445946871,
				"y": 2.6615362901,
				"z": -2.4226279657,
				"element": "H" 
			},
			{
				"x": -0.6195528082,
				"y": 1.483778365,
				"z": -2.7726866993,
				"element": "H" 
			},
			{
				"x": -1.2174769311,
				"y": -0.4704006204,
				"z": -1.3925440725,
				"element": "H" 
			},
			{
				"x": -0.0724732987,
				"y": -3.8688275258,
				"z": 1.6600317504,
				"element": "H" 
			},
			{
				"x": -2.2098612317,
				"y": -4.7459489692,
				"z": 2.6053358573,
				"element": "H" 
			}
		],
		 "valence_orbital": [ 
			{
				"type": "occ",
				"energy": -0.27006,
				"method": "rhf"
			},
			{
				"type": "occ",
				"energy": -0.26693,
				"method": "rhf"
			},
			{
				"type": "occ",
				"energy": -0.26513,
				"method": "rhf"
			},
			{
				"type": "occ",
				"energy": -0.2107,
				"method": "rhf"
			},
			{
				"type": "occ",
				"energy": -0.19939,
				"method": "rhf"
			},
			{
				"type": "unocc",
				"energy": -0.08081,
				"method": "rhf"
			},
			{
				"type": "unocc",
				"energy": -0.01883,
				"method": "rhf"
			},
			{
				"type": "unocc",
				"energy": -0.01614,
				"method": "rhf"
			},
			{
				"type": "unocc",
				"energy": -0.00948,
				"method": "rhf"
			},
			{
				"type": "unocc",
				"energy": 0.03545,
				"method": "rhf"
			}
		],
		"cosmo_sigma_profile": { 
			"-0.025": 0.0,
			"-0.024": 0.0,
			"-0.023": 0.0,
			"-0.022": 0.0,
			"-0.021": 0.0,
			"-0.02": 0.0,
			"-0.019": 0.0,
			"-0.018": 0.0,
			"-0.017": 0.0,
			"-0.016": 0.0,
			"-0.015": 0.886867938365,
			"-0.014": 1.67729090451,
			"-0.013": 1.22772205502,
			"-0.012": 1.84943606281,
			"-0.011": 1.53824604688,
			"-0.01": 1.54166449268,
			"-0.009": 1.37530104293,
			"-0.008": 2.11129183681,
			"-0.007": 5.50802358592,
			"-0.006": 13.4302881836,
			"-0.005": 17.0023154488,
			"-0.004": 18.7764504006,
			"-0.003": 15.0476693812,
			"-0.002": 11.2412464924,
			"-0.001": 12.4563765911,
			"0.0": 15.9327094738,
			"0.001": 21.0485283299,
			"0.002": 25.6751284857,
			"0.003": 19.1682386335,
			"0.004": 12.3562455057,
			"0.005": 12.032945335,
			"0.006": 5.05243613556,
			"0.007": 2.70900239817,
			"0.008": 2.95719598658,
			"0.009": 4.89558206735,
			"0.01": 4.65167819494,
			"0.011": 3.25711717687,
			"0.012": 2.76365742033,
			"0.013": 1.47098936478,
			"0.014": 0.15560052609,
			"0.015": 0.0,
			"0.016": 0.0,
			"0.017": 0.0,
			"0.018": 0.0,
			"0.019": 0.0,
			"0.02": 0.0,
			"0.021": 0.0,
			"0.022": 0.0,
			"0.023": 0.0,
			"0.024": 0.0,
			"0.025": 0.0
		}
	}
}
