{
	 "smiles": "CC1=NOC(COC2=C(Br)C=C(C=C2)C(O)=O)=C1", 
	 "Tm": 483.15, 
	 "num_atms": 28, 
	 "gaussian": { 
		 "optdone": 1, 
		 "sigma_profile": "yes", 
		 "theory": "DFT", 
		 "functional": "B3LYP", 
		 "basiset": "6-31G**", 
		 "properties": { 
			 "R2extent": 9832.9518, 
			 "electric_dipole_moment_norm": 3.55932375881, 
			 "electric_quadrupole_moment_norm": 25.5507271437, 
			 "total_energy": -3390.30022983, 
			 "HOMO_LUMO_gap": 0.19383, 
			 "cosmo_polarized_energy": -21.01, 
			 "cosmo_cavitation_energy": 36.44, 
			 "cosmo_dispersion_energy": -26.44, 
			 "cosmo_repulsion_energy": 2.04, 
			 "cosmo_total_nonelectrostatic_energy": 12.04, 
			 "SMD_solvation_energy": 6.54 
		},
		"coords": [
			{
				"x": 4.759141842,
				"y": 3.4806894656,
				"z": 0.1588999317,
				"element": "C" 
			},
			{
				"x": 3.2871491638,
				"y": 3.2782968061,
				"z": 0.3441982119,
				"element": "C" 
			},
			{
				"x": 2.637794586,
				"y": 3.9743763692,
				"z": 1.2508524075,
				"element": "N" 
			},
			{
				"x": 1.2997729497,
				"y": 3.5497386228,
				"z": 1.1669180451,
				"element": "O" 
			},
			{
				"x": 1.2049636943,
				"y": 2.6109448107,
				"z": 0.2062670819,
				"element": "C" 
			},
			{
				"x": -0.1589746541,
				"y": 2.0451922113,
				"z": -0.0216833085,
				"element": "C" 
			},
			{
				"x": -0.0324259383,
				"y": 1.0658863105,
				"z": -1.0449357299,
				"element": "O" 
			},
			{
				"x": -1.1357001378,
				"y": 0.3965689102,
				"z": -1.4531820136,
				"element": "C" 
			},
			{
				"x": -0.9609748908,
				"y": -0.5513389443,
				"z": -2.4802583987,
				"element": "C" 
			},
			{
				"x": 0.7645751573,
				"y": -0.8176363091,
				"z": -3.2391113688,
				"element": "Br" 
			},
			{
				"x": -2.0368707334,
				"y": -1.2883182003,
				"z": -2.9544059418,
				"element": "C" 
			},
			{
				"x": -3.3198979236,
				"y": -1.102913453,
				"z": -2.4177344668,
				"element": "C" 
			},
			{
				"x": -3.4982780136,
				"y": -0.1459549448,
				"z": -1.4137098044,
				"element": "C" 
			},
			{
				"x": -2.4222989471,
				"y": 0.5897391347,
				"z": -0.9286666001,
				"element": "C" 
			},
			{
				"x": -4.5253648917,
				"y": -1.8528203167,
				"z": -2.8929660179,
				"element": "C" 
			},
			{
				"x": -4.3050352656,
				"y": -3.0097130354,
				"z": -3.573154082,
				"element": "O" 
			},
			{
				"x": -5.6562317923,
				"y": -1.4741233582,
				"z": -2.6965648504,
				"element": "O" 
			},
			{
				"x": 2.4185002177,
				"y": 2.3848076638,
				"z": -0.3594513531,
				"element": "C" 
			},
			{
				"x": 4.9820706268,
				"y": 3.8063571453,
				"z": -0.8624019667,
				"element": "H" 
			},
			{
				"x": 5.1237589218,
				"y": 4.2380592224,
				"z": 0.8554578949,
				"element": "H" 
			},
			{
				"x": 5.3058518517,
				"y": 2.5486430492,
				"z": 0.3356139377,
				"element": "H" 
			},
			{
				"x": -0.5441964715,
				"y": 1.5962118772,
				"z": 0.9047759076,
				"element": "H" 
			},
			{
				"x": -0.8555919297,
				"y": 2.839506695,
				"z": -0.3253306344,
				"element": "H" 
			},
			{
				"x": -1.858731507,
				"y": -1.9783430731,
				"z": -3.7731205567,
				"element": "H" 
			},
			{
				"x": -4.4962467595,
				"y": 0.009813282,
				"z": -1.0193644281,
				"element": "H" 
			},
			{
				"x": -2.5877216724,
				"y": 1.3165489805,
				"z": -0.1425602868,
				"element": "H" 
			},
			{
				"x": -3.3790267585,
				"y": -3.2775660471,
				"z": -3.4979392967,
				"element": "H" 
			},
			{
				"x": 2.6572892758,
				"y": 1.6925471256,
				"z": -1.151042313,
				"element": "H" 
			}
		],
		 "valence_orbital": [ 
			{
				"type": "occ",
				"energy": -0.29218,
				"method": "rhf"
			},
			{
				"type": "occ",
				"energy": -0.28048,
				"method": "rhf"
			},
			{
				"type": "occ",
				"energy": -0.27634,
				"method": "rhf"
			},
			{
				"type": "occ",
				"energy": -0.26479,
				"method": "rhf"
			},
			{
				"type": "occ",
				"energy": -0.25037,
				"method": "rhf"
			},
			{
				"type": "unocc",
				"energy": -0.05654,
				"method": "rhf"
			},
			{
				"type": "unocc",
				"energy": -0.04088,
				"method": "rhf"
			},
			{
				"type": "unocc",
				"energy": -0.01597,
				"method": "rhf"
			},
			{
				"type": "unocc",
				"energy": -0.01248,
				"method": "rhf"
			},
			{
				"type": "unocc",
				"energy": 0.04138,
				"method": "rhf"
			}
		],
		"cosmo_sigma_profile": { 
			"-0.025": 0.0,
			"-0.024": 0.0,
			"-0.023": 0.0,
			"-0.022": 0.0,
			"-0.021": 0.0,
			"-0.02": 0.036194227347,
			"-0.019": 0.607100640767,
			"-0.018": 0.974922837657,
			"-0.017": 1.38947117753,
			"-0.016": 0.642981522214,
			"-0.015": 1.018922652,
			"-0.014": 1.02159717008,
			"-0.013": 1.04350005418,
			"-0.012": 0.894501440457,
			"-0.011": 1.83059353642,
			"-0.01": 1.85500663641,
			"-0.009": 6.3471083228,
			"-0.008": 9.85877652365,
			"-0.007": 10.2501250277,
			"-0.006": 10.1652428781,
			"-0.005": 14.1255588278,
			"-0.004": 18.0353405397,
			"-0.003": 17.2654984846,
			"-0.002": 18.3860432302,
			"-0.001": 20.4962094963,
			"0.0": 22.522837822,
			"0.001": 27.9923313694,
			"0.002": 21.6303750805,
			"0.003": 16.0063979363,
			"0.004": 13.8507082903,
			"0.005": 9.10224946587,
			"0.006": 6.07659574215,
			"0.007": 5.4792559247,
			"0.008": 7.48566899734,
			"0.009": 5.38166931846,
			"0.01": 6.166564823,
			"0.011": 6.97453004068,
			"0.012": 6.05788505451,
			"0.013": 2.89065245052,
			"0.014": 0.971192124081,
			"0.015": 0.446903001314,
			"0.016": 0.0,
			"0.017": 0.0,
			"0.018": 0.0,
			"0.019": 0.0,
			"0.02": 0.0,
			"0.021": 0.0,
			"0.022": 0.0,
			"0.023": 0.0,
			"0.024": 0.0,
			"0.025": 0.0
		}
	}
}
