{
	 "smiles": "CN(C)C(Cl)=O", 
	 "Tm": 240.15, 
	 "num_atms": 12, 
	 "gaussian": { 
		 "optdone": 1, 
		 "sigma_profile": "yes", 
		 "theory": "DFT", 
		 "functional": "B3LYP", 
		 "basiset": "6-31G**", 
		 "properties": { 
			 "R2extent": 1861.1118, 
			 "electric_dipole_moment_norm": 4.35771617479, 
			 "electric_quadrupole_moment_norm": 15.2718183161, 
			 "total_energy": -708.11473833, 
			 "HOMO_LUMO_gap": 0.28249, 
			 "cosmo_polarized_energy": -7.89, 
			 "cosmo_cavitation_energy": 17.14, 
			 "cosmo_dispersion_energy": -12.97, 
			 "cosmo_repulsion_energy": 1.12, 
			 "cosmo_total_nonelectrostatic_energy": 5.29, 
			 "SMD_solvation_energy": 4.16 
		},
		"coords": [
			{
				"x": 1.1985467248,
				"y": 0.6425573789,
				"z": -1.057134943,
				"element": "C" 
			},
			{
				"x": 1.4542250637,
				"y": 0.6480208695,
				"z": 0.3844466732,
				"element": "N" 
			},
			{
				"x": 0.3578027746,
				"y": 1.1415202741,
				"z": 1.2069279937,
				"element": "C" 
			},
			{
				"x": 2.6631594481,
				"y": 0.1988991289,
				"z": 0.8018922437,
				"element": "C" 
			},
			{
				"x": 2.8959876847,
				"y": 0.2392528123,
				"z": 2.6189915174,
				"element": "Cl" 
			},
			{
				"x": 3.5628924128,
				"y": -0.2079561925,
				"z": 0.1157629748,
				"element": "O" 
			},
			{
				"x": 0.3328795536,
				"y": 0.0086709253,
				"z": -1.2812210129,
				"element": "H" 
			},
			{
				"x": 2.0748638247,
				"y": 0.2583854971,
				"z": -1.5741348427,
				"element": "H" 
			},
			{
				"x": 0.9851461084,
				"y": 1.6604987823,
				"z": -1.4029898747,
				"element": "H" 
			},
			{
				"x": -0.5329517474,
				"y": 0.521463858,
				"z": 1.0504680357,
				"element": "H" 
			},
			{
				"x": 0.6240206207,
				"y": 1.1187076086,
				"z": 2.2594186697,
				"element": "H" 
			},
			{
				"x": 0.1151275313,
				"y": 2.1722790575,
				"z": 0.922472565,
				"element": "H" 
			}
		],
		 "valence_orbital": [ 
			{
				"type": "occ",
				"energy": -0.40429,
				"method": "rhf"
			},
			{
				"type": "occ",
				"energy": -0.32311,
				"method": "rhf"
			},
			{
				"type": "occ",
				"energy": -0.3139,
				"method": "rhf"
			},
			{
				"type": "occ",
				"energy": -0.28266,
				"method": "rhf"
			},
			{
				"type": "occ",
				"energy": -0.26644,
				"method": "rhf"
			},
			{
				"type": "unocc",
				"energy": 0.01605,
				"method": "rhf"
			},
			{
				"type": "unocc",
				"energy": 0.01621,
				"method": "rhf"
			},
			{
				"type": "unocc",
				"energy": 0.07927,
				"method": "rhf"
			},
			{
				"type": "unocc",
				"energy": 0.1279,
				"method": "rhf"
			},
			{
				"type": "unocc",
				"energy": 0.13265,
				"method": "rhf"
			}
		],
		"cosmo_sigma_profile": { 
			"-0.025": 0.0,
			"-0.024": 0.0,
			"-0.023": 0.0,
			"-0.022": 0.0,
			"-0.021": 0.0,
			"-0.02": 0.0,
			"-0.019": 0.0,
			"-0.018": 0.0,
			"-0.017": 0.0,
			"-0.016": 0.0,
			"-0.015": 0.0,
			"-0.014": 0.0,
			"-0.013": 0.0,
			"-0.012": 0.0,
			"-0.011": 0.0,
			"-0.01": 0.0,
			"-0.009": 0.0,
			"-0.008": 0.0,
			"-0.007": 0.13069412034,
			"-0.006": 10.5284381623,
			"-0.005": 13.5267655824,
			"-0.004": 12.8862265406,
			"-0.003": 17.8753699847,
			"-0.002": 16.4427767697,
			"-0.001": 9.26439149112,
			"0.0": 5.63992586891,
			"0.001": 5.09424261772,
			"0.002": 6.72728468086,
			"0.003": 5.82508441039,
			"0.004": 6.56062278285,
			"0.005": 8.01384401648,
			"0.006": 2.9396217636,
			"0.007": 2.61352458474,
			"0.008": 1.82757030542,
			"0.009": 2.34511018343,
			"0.01": 3.4633980588,
			"0.011": 4.89231672769,
			"0.012": 1.29769452502,
			"0.013": 0.0,
			"0.014": 0.0,
			"0.015": 0.0,
			"0.016": 0.0,
			"0.017": 0.0,
			"0.018": 0.0,
			"0.019": 0.0,
			"0.02": 0.0,
			"0.021": 0.0,
			"0.022": 0.0,
			"0.023": 0.0,
			"0.024": 0.0,
			"0.025": 0.0
		}
	}
}
