{
	 "smiles": "CC1C(C1C(=O)NN)C(=O)NN", 
	 "Tm": 517.15, 
	 "num_atms": 24, 
	 "gaussian": { 
		 "optdone": 1, 
		 "sigma_profile": "yes", 
		 "theory": "DFT", 
		 "functional": "B3LYP", 
		 "basiset": "6-31G**", 
		 "properties": { 
			 "R2extent": 2335.409, 
			 "electric_dipole_moment_norm": 2.63145166211, 
			 "electric_quadrupole_moment_norm": 8.4387477276, 
			 "total_energy": -605.255330414, 
			 "HOMO_LUMO_gap": 0.24701, 
			 "cosmo_polarized_energy": -18.52, 
			 "cosmo_cavitation_energy": 26.72, 
			 "cosmo_dispersion_energy": -19.27, 
			 "cosmo_repulsion_energy": 1.59, 
			 "cosmo_total_nonelectrostatic_energy": 9.04, 
			 "SMD_solvation_energy": 6.03 
		},
		"coords": [
			{
				"x": -0.7415057375,
				"y": 1.6637274939,
				"z": 2.1084116156,
				"element": "C" 
			},
			{
				"x": -0.990248355,
				"y": 1.7801537366,
				"z": 0.6155636023,
				"element": "C" 
			},
			{
				"x": -0.2216872557,
				"y": 1.018960106,
				"z": -0.4406730656,
				"element": "C" 
			},
			{
				"x": -1.6935827175,
				"y": 0.7191871932,
				"z": -0.2144053311,
				"element": "C" 
			},
			{
				"x": -2.1074750492,
				"y": -0.6451236888,
				"z": 0.2875742084,
				"element": "C" 
			},
			{
				"x": -1.7771495749,
				"y": -1.6964060895,
				"z": -0.2632028704,
				"element": "O" 
			},
			{
				"x": -2.945267992,
				"y": -0.6394908471,
				"z": 1.3613092936,
				"element": "N" 
			},
			{
				"x": -3.4069259699,
				"y": -1.8244753854,
				"z": 1.9650906121,
				"element": "N" 
			},
			{
				"x": 0.7919269766,
				"y": -0.0415332104,
				"z": -0.0925902237,
				"element": "C" 
			},
			{
				"x": 1.2739069791,
				"y": -0.2106233571,
				"z": 1.0218353339,
				"element": "O" 
			},
			{
				"x": 1.1707243517,
				"y": -0.8449348048,
				"z": -1.1445022262,
				"element": "N" 
			},
			{
				"x": 0.3426169375,
				"y": -0.9268862178,
				"z": -2.2815785483,
				"element": "N" 
			},
			{
				"x": -0.5071248338,
				"y": 0.6455845379,
				"z": 2.4146370238,
				"element": "H" 
			},
			{
				"x": 0.110490802,
				"y": 2.2867122814,
				"z": 2.3963761641,
				"element": "H" 
			},
			{
				"x": -1.6158828266,
				"y": 2.0216879203,
				"z": 2.6674365346,
				"element": "H" 
			},
			{
				"x": -1.2443063058,
				"y": 2.7942541207,
				"z": 0.3095479458,
				"element": "H" 
			},
			{
				"x": -0.0052891219,
				"y": 1.5251463551,
				"z": -1.375966973,
				"element": "H" 
			},
			{
				"x": -2.3651871522,
				"y": 1.0696956673,
				"z": -0.9964539478,
				"element": "H" 
			},
			{
				"x": -3.1119463885,
				"y": 0.2086776705,
				"z": 1.8811139669,
				"element": "H" 
			},
			{
				"x": -2.5985300839,
				"y": -2.4346323424,
				"z": 2.0904015364,
				"element": "H" 
			},
			{
				"x": -4.0001643248,
				"y": -2.3009247398,
				"z": 1.286311921,
				"element": "H" 
			},
			{
				"x": 1.652355292,
				"y": -1.6827779606,
				"z": -0.8250377816,
				"element": "H" 
			},
			{
				"x": -0.4224087985,
				"y": -1.5761170183,
				"z": -2.0949004684,
				"element": "H" 
			},
			{
				"x": 0.900061149,
				"y": -1.2328614208,
				"z": -3.0712983224,
				"element": "H" 
			}
		],
		 "valence_orbital": [ 
			{
				"type": "occ",
				"energy": -0.27638,
				"method": "rhf"
			},
			{
				"type": "occ",
				"energy": -0.26561,
				"method": "rhf"
			},
			{
				"type": "occ",
				"energy": -0.26066,
				"method": "rhf"
			},
			{
				"type": "occ",
				"energy": -0.23956,
				"method": "rhf"
			},
			{
				"type": "occ",
				"energy": -0.23547,
				"method": "rhf"
			},
			{
				"type": "unocc",
				"energy": 0.01154,
				"method": "rhf"
			},
			{
				"type": "unocc",
				"energy": 0.02202,
				"method": "rhf"
			},
			{
				"type": "unocc",
				"energy": 0.07891,
				"method": "rhf"
			},
			{
				"type": "unocc",
				"energy": 0.08222,
				"method": "rhf"
			},
			{
				"type": "unocc",
				"energy": 0.09048,
				"method": "rhf"
			}
		],
		"cosmo_sigma_profile": { 
			"-0.025": 0.0,
			"-0.024": 0.0,
			"-0.023": 0.0,
			"-0.022": 0.0,
			"-0.021": 0.0,
			"-0.02": 0.0,
			"-0.019": 0.0,
			"-0.018": 0.0,
			"-0.017": 0.0,
			"-0.016": 0.0,
			"-0.015": 0.0,
			"-0.014": 0.0284328887418,
			"-0.013": 1.3500579311,
			"-0.012": 3.23511445067,
			"-0.011": 5.55874464226,
			"-0.01": 7.39086322106,
			"-0.009": 5.86117478178,
			"-0.008": 5.93355036262,
			"-0.007": 7.16744641018,
			"-0.006": 10.3240025481,
			"-0.005": 12.0704021951,
			"-0.004": 9.94249296835,
			"-0.003": 11.9394531399,
			"-0.002": 14.8427130579,
			"-0.001": 14.3021427599,
			"0.0": 12.7762777595,
			"0.001": 10.3826399746,
			"0.002": 8.33532204447,
			"0.003": 6.60011800848,
			"0.004": 6.30487538954,
			"0.005": 5.17934641473,
			"0.006": 6.70494939009,
			"0.007": 5.67505388583,
			"0.008": 4.52549896652,
			"0.009": 5.36756178394,
			"0.01": 4.26090714742,
			"0.011": 4.56082966995,
			"0.012": 4.70514132675,
			"0.013": 5.95453889869,
			"0.014": 4.92017072286,
			"0.015": 0.980492134973,
			"0.016": 0.600135834185,
			"0.017": 0.146438912722,
			"0.018": 0.0,
			"0.019": 0.0,
			"0.02": 0.0,
			"0.021": 0.0,
			"0.022": 0.0,
			"0.023": 0.0,
			"0.024": 0.0,
			"0.025": 0.0
		}
	}
}
