{
	 "smiles": "NC(=O)COC1=CC(O)=CC=C1", 
	 "Tm": 408.15, 
	 "num_atms": 21, 
	 "gaussian": { 
		 "optdone": 1, 
		 "sigma_profile": "yes", 
		 "theory": "DFT", 
		 "functional": "B3LYP", 
		 "basiset": "6-31G**", 
		 "properties": { 
			 "R2extent": 2941.4147, 
			 "electric_dipole_moment_norm": 3.78134205409, 
			 "electric_quadrupole_moment_norm": 13.7569515511, 
			 "total_energy": -590.698120757, 
			 "HOMO_LUMO_gap": 0.21716, 
			 "cosmo_polarized_energy": -17.11, 
			 "cosmo_cavitation_energy": 25.42, 
			 "cosmo_dispersion_energy": -18.6, 
			 "cosmo_repulsion_energy": 1.52, 
			 "cosmo_total_nonelectrostatic_energy": 8.34, 
			 "SMD_solvation_energy": 5.74 
		},
		"coords": [
			{
				"x": -0.2926981669,
				"y": -3.8177185734,
				"z": -1.7550144146,
				"element": "N" 
			},
			{
				"x": -0.2843741968,
				"y": -3.6717005447,
				"z": -0.4038460303,
				"element": "C" 
			},
			{
				"x": -0.9990227502,
				"y": -4.2943204362,
				"z": 0.3670719909,
				"element": "O" 
			},
			{
				"x": 0.7722369498,
				"y": -2.6930644858,
				"z": 0.1264948084,
				"element": "C" 
			},
			{
				"x": 1.2415670291,
				"y": -1.7507050976,
				"z": -0.8313803877,
				"element": "O" 
			},
			{
				"x": 0.4967315177,
				"y": -0.6176609263,
				"z": -1.0645196206,
				"element": "C" 
			},
			{
				"x": -0.7869402767,
				"y": -0.4110750808,
				"z": -0.5575567802,
				"element": "C" 
			},
			{
				"x": -1.4541444511,
				"y": 0.7828160734,
				"z": -0.8642696814,
				"element": "C" 
			},
			{
				"x": -2.7063681707,
				"y": 0.9302946021,
				"z": -0.3403077049,
				"element": "O" 
			},
			{
				"x": -0.8540005227,
				"y": 1.7537007818,
				"z": -1.6695489211,
				"element": "C" 
			},
			{
				"x": 0.4294860934,
				"y": 1.5201251942,
				"z": -2.1703723873,
				"element": "C" 
			},
			{
				"x": 1.1127871471,
				"y": 0.3460071693,
				"z": -1.8767717898,
				"element": "C" 
			},
			{
				"x": -0.9903414237,
				"y": -4.4157697978,
				"z": -2.1699723762,
				"element": "H" 
			},
			{
				"x": 0.2656478871,
				"y": -3.2148312692,
				"z": -2.3385774302,
				"element": "H" 
			},
			{
				"x": 0.372945359,
				"y": -2.2077310676,
				"z": 1.021654639,
				"element": "H" 
			},
			{
				"x": 1.6512494749,
				"y": -3.275634404,
				"z": 0.4196196205,
				"element": "H" 
			},
			{
				"x": -1.3008799305,
				"y": -1.1414524497,
				"z": 0.0549823731,
				"element": "H" 
			},
			{
				"x": -3.0664747144,
				"y": 1.7821858439,
				"z": -0.6187137459,
				"element": "H" 
			},
			{
				"x": -1.3802371647,
				"y": 2.6762574498,
				"z": -1.9019868512,
				"element": "H" 
			},
			{
				"x": 0.9024741519,
				"y": 2.2720550487,
				"z": -2.7953016221,
				"element": "H" 
			},
			{
				"x": 2.1130561582,
				"y": 0.15762197,
				"z": -2.2502836884,
				"element": "H" 
			}
		],
		 "valence_orbital": [ 
			{
				"type": "occ",
				"energy": -0.31622,
				"method": "rhf"
			},
			{
				"type": "occ",
				"energy": -0.26978,
				"method": "rhf"
			},
			{
				"type": "occ",
				"energy": -0.25397,
				"method": "rhf"
			},
			{
				"type": "occ",
				"energy": -0.23744,
				"method": "rhf"
			},
			{
				"type": "occ",
				"energy": -0.21778,
				"method": "rhf"
			},
			{
				"type": "unocc",
				"energy": -0.00062,
				"method": "rhf"
			},
			{
				"type": "unocc",
				"energy": 0.01209,
				"method": "rhf"
			},
			{
				"type": "unocc",
				"energy": 0.02616,
				"method": "rhf"
			},
			{
				"type": "unocc",
				"energy": 0.06837,
				"method": "rhf"
			},
			{
				"type": "unocc",
				"energy": 0.0836,
				"method": "rhf"
			}
		],
		"cosmo_sigma_profile": { 
			"-0.025": 0.0,
			"-0.024": 0.0,
			"-0.023": 0.0,
			"-0.022": 0.0,
			"-0.021": 0.0,
			"-0.02": 0.0,
			"-0.019": 0.0,
			"-0.018": 0.323664442354,
			"-0.017": 1.16403669187,
			"-0.016": 0.962772871705,
			"-0.015": 1.09505821129,
			"-0.014": 2.14164489804,
			"-0.013": 3.1361033011,
			"-0.012": 2.48929480927,
			"-0.011": 2.71331359202,
			"-0.01": 3.68060202716,
			"-0.009": 3.04145155249,
			"-0.008": 4.27494911836,
			"-0.007": 6.37724696857,
			"-0.006": 10.5163715325,
			"-0.005": 11.970061024,
			"-0.004": 13.336146279,
			"-0.003": 10.9692500727,
			"-0.002": 8.38643920226,
			"-0.001": 8.58492400851,
			"0.0": 8.13485436268,
			"0.001": 8.84402390478,
			"0.002": 11.7493887556,
			"0.003": 11.8639514813,
			"0.004": 15.6634267004,
			"0.005": 13.2905090509,
			"0.006": 7.45945488434,
			"0.007": 3.56610540939,
			"0.008": 3.15759175711,
			"0.009": 3.88233252943,
			"0.01": 3.06384797065,
			"0.011": 2.93114720379,
			"0.012": 2.4846678883,
			"0.013": 4.73078499731,
			"0.014": 5.02212892695,
			"0.015": 0.591038298995,
			"0.016": 0.0,
			"0.017": 0.0,
			"0.018": 0.0,
			"0.019": 0.0,
			"0.02": 0.0,
			"0.021": 0.0,
			"0.022": 0.0,
			"0.023": 0.0,
			"0.024": 0.0,
			"0.025": 0.0
		}
	}
}
