{
	 "smiles": "CC1NC2=CC(Cl)=C(C=C2C(=O)N1C1=CC=CC=C1C)S(N)(=O)=O", 
	 "Tm": 525.15, 
	 "num_atms": 40, 
	 "gaussian": { 
		 "optdone": 1, 
		 "sigma_profile": "yes", 
		 "theory": "DFT", 
		 "functional": "B3LYP", 
		 "basiset": "6-31G**", 
		 "properties": { 
			 "R2extent": 12016.5119, 
			 "electric_dipole_moment_norm": 8.06986350194, 
			 "electric_quadrupole_moment_norm": 24.3943072615, 
			 "total_energy": -1867.60517825, 
			 "HOMO_LUMO_gap": 0.1735, 
			 "cosmo_polarized_energy": -28.63, 
			 "cosmo_cavitation_energy": 45.77, 
			 "cosmo_dispersion_energy": -32.45, 
			 "cosmo_repulsion_energy": 2.39, 
			 "cosmo_total_nonelectrostatic_energy": 15.7, 
			 "SMD_solvation_energy": 6.39 
		},
		"coords": [
			{
				"x": 1.0257405192,
				"y": 1.3722695281,
				"z": 1.8904317152,
				"element": "C" 
			},
			{
				"x": 0.6228630329,
				"y": 1.863492624,
				"z": 0.490590987,
				"element": "C" 
			},
			{
				"x": -0.7977555006,
				"y": 2.1982331581,
				"z": 0.3980829077,
				"element": "N" 
			},
			{
				"x": -1.7046479643,
				"y": 1.1701046432,
				"z": 0.259900324,
				"element": "C" 
			},
			{
				"x": -3.0408677226,
				"y": 1.2904830735,
				"z": 0.6781718266,
				"element": "C" 
			},
			{
				"x": -3.9284669694,
				"y": 0.2424959048,
				"z": 0.4735078104,
				"element": "C" 
			},
			{
				"x": -5.5679866,
				"y": 0.461244664,
				"z": 1.0450435441,
				"element": "Cl" 
			},
			{
				"x": -3.5103888954,
				"y": -0.9506543183,
				"z": -0.1445736635,
				"element": "C" 
			},
			{
				"x": -2.1873274518,
				"y": -1.0557552066,
				"z": -0.5697680286,
				"element": "C" 
			},
			{
				"x": -1.2804385445,
				"y": -0.0179179995,
				"z": -0.3698458179,
				"element": "C" 
			},
			{
				"x": 0.0958196566,
				"y": -0.1276802284,
				"z": -0.9280245419,
				"element": "C" 
			},
			{
				"x": 0.4186493014,
				"y": -1.0271207846,
				"z": -1.695585696,
				"element": "O" 
			},
			{
				"x": 0.9642359199,
				"y": 0.8873413484,
				"z": -0.5577617322,
				"element": "N" 
			},
			{
				"x": 2.2804094961,
				"y": 0.9736527188,
				"z": -1.1364457001,
				"element": "C" 
			},
			{
				"x": 2.5657291703,
				"y": 2.0979540639,
				"z": -1.9208956509,
				"element": "C" 
			},
			{
				"x": 3.827613992,
				"y": 2.2742385329,
				"z": -2.4821528081,
				"element": "C" 
			},
			{
				"x": 4.8117271476,
				"y": 1.3095532126,
				"z": -2.2649932815,
				"element": "C" 
			},
			{
				"x": 4.522527549,
				"y": 0.1876149266,
				"z": -1.4908805394,
				"element": "C" 
			},
			{
				"x": 3.2628047891,
				"y": -0.0093960275,
				"z": -0.9060385572,
				"element": "C" 
			},
			{
				"x": 2.9989618039,
				"y": -1.2482396175,
				"z": -0.0890579827,
				"element": "C" 
			},
			{
				"x": -4.5966206916,
				"y": -2.3343292228,
				"z": -0.5023772112,
				"element": "S" 
			},
			{
				"x": -5.1165174793,
				"y": -2.826911177,
				"z": 1.0306461127,
				"element": "N" 
			},
			{
				"x": -3.7493786836,
				"y": -3.4138033372,
				"z": -1.0159072366,
				"element": "O" 
			},
			{
				"x": -5.7528938365,
				"y": -1.8439230672,
				"z": -1.253524153,
				"element": "O" 
			},
			{
				"x": 0.8133206894,
				"y": 2.1418710401,
				"z": 2.6408172415,
				"element": "H" 
			},
			{
				"x": 0.4753741019,
				"y": 0.4650484918,
				"z": 2.1560405692,
				"element": "H" 
			},
			{
				"x": 2.0973265973,
				"y": 1.1560579615,
				"z": 1.9211468606,
				"element": "H" 
			},
			{
				"x": 1.181199692,
				"y": 2.7755231374,
				"z": 0.2633903194,
				"element": "H" 
			},
			{
				"x": -1.0840630103,
				"y": 2.9668125499,
				"z": 0.9895249255,
				"element": "H" 
			},
			{
				"x": -3.3863873608,
				"y": 2.1968136259,
				"z": 1.1641010598,
				"element": "H" 
			},
			{
				"x": -1.8509878421,
				"y": -1.9534456004,
				"z": -1.0761311955,
				"element": "H" 
			},
			{
				"x": 1.7780112368,
				"y": 2.8242491665,
				"z": -2.1010867183,
				"element": "H" 
			},
			{
				"x": 4.0338904935,
				"y": 3.1483705242,
				"z": -3.0922587875,
				"element": "H" 
			},
			{
				"x": 5.8006697515,
				"y": 1.4280720873,
				"z": -2.6980824026,
				"element": "H" 
			},
			{
				"x": 5.2923744878,
				"y": -0.5616843779,
				"z": -1.3260898156,
				"element": "H" 
			},
			{
				"x": 2.3899487535,
				"y": -1.9539154551,
				"z": -0.6620439051,
				"element": "H" 
			},
			{
				"x": 2.4454124261,
				"y": -1.0236202056,
				"z": 0.8278598656,
				"element": "H" 
			},
			{
				"x": 3.9371566825,
				"y": -1.7346064881,
				"z": 0.1906242448,
				"element": "H" 
			},
			{
				"x": -4.9073893651,
				"y": -3.8159259088,
				"z": 1.1384096083,
				"element": "H" 
			},
			{
				"x": -6.1081493724,
				"y": -2.6348679612,
				"z": 1.1409355035,
				"element": "H" 
			}
		],
		 "valence_orbital": [ 
			{
				"type": "occ",
				"energy": -0.2665,
				"method": "rhf"
			},
			{
				"type": "occ",
				"energy": -0.25817,
				"method": "rhf"
			},
			{
				"type": "occ",
				"energy": -0.24928,
				"method": "rhf"
			},
			{
				"type": "occ",
				"energy": -0.24378,
				"method": "rhf"
			},
			{
				"type": "occ",
				"energy": -0.22863,
				"method": "rhf"
			},
			{
				"type": "unocc",
				"energy": -0.05513,
				"method": "rhf"
			},
			{
				"type": "unocc",
				"energy": -0.02834,
				"method": "rhf"
			},
			{
				"type": "unocc",
				"energy": -0.01207,
				"method": "rhf"
			},
			{
				"type": "unocc",
				"energy": -0.00582,
				"method": "rhf"
			},
			{
				"type": "unocc",
				"energy": 0.01054,
				"method": "rhf"
			}
		],
		"cosmo_sigma_profile": { 
			"-0.025": 0.0,
			"-0.024": 0.0,
			"-0.023": 0.0,
			"-0.022": 0.0,
			"-0.021": 0.0,
			"-0.02": 0.0,
			"-0.019": 0.0,
			"-0.018": 0.0,
			"-0.017": 0.0,
			"-0.016": 0.045606758015,
			"-0.015": 2.40673354114,
			"-0.014": 3.75110298567,
			"-0.013": 4.48978888291,
			"-0.012": 4.18791722884,
			"-0.011": 4.16632898005,
			"-0.01": 3.27361932677,
			"-0.009": 3.80753278382,
			"-0.008": 4.50524926412,
			"-0.007": 5.89253110113,
			"-0.006": 12.3239143209,
			"-0.005": 16.6439040064,
			"-0.004": 24.2448000582,
			"-0.003": 28.8977160514,
			"-0.002": 27.6130953473,
			"-0.001": 27.3266902568,
			"0.0": 36.9444990306,
			"0.001": 29.6501155252,
			"0.002": 17.3539561172,
			"0.003": 18.344688411,
			"0.004": 16.3249711559,
			"0.005": 14.6181333153,
			"0.006": 9.35480238634,
			"0.007": 6.49443004641,
			"0.008": 5.95992911138,
			"0.009": 5.88622696513,
			"0.01": 11.6270886546,
			"0.011": 11.3445471625,
			"0.012": 3.81727018286,
			"0.013": 3.87631828262,
			"0.014": 0.742937630252,
			"0.015": 0.0,
			"0.016": 0.0,
			"0.017": 0.0,
			"0.018": 0.0,
			"0.019": 0.0,
			"0.02": 0.0,
			"0.021": 0.0,
			"0.022": 0.0,
			"0.023": 0.0,
			"0.024": 0.0,
			"0.025": 0.0
		}
	}
}
