{
	 "smiles": "NC(=N)NC(=N)NC1=CC=CC=C1", 
	 "Tm": 416.15, 
	 "num_atms": 24, 
	 "gaussian": { 
		 "optdone": 1, 
		 "sigma_profile": "yes", 
		 "theory": "DFT", 
		 "functional": "B3LYP", 
		 "basiset": "6-31G**", 
		 "properties": { 
			 "R2extent": 3684.842, 
			 "electric_dipole_moment_norm": 2.54905114307, 
			 "electric_quadrupole_moment_norm": 15.7715941109, 
			 "total_energy": -585.237867644, 
			 "HOMO_LUMO_gap": 0.20251, 
			 "cosmo_polarized_energy": -18.59, 
			 "cosmo_cavitation_energy": 28.11, 
			 "cosmo_dispersion_energy": -20.39, 
			 "cosmo_repulsion_energy": 1.63, 
			 "cosmo_total_nonelectrostatic_energy": 9.35, 
			 "SMD_solvation_energy": 3.3 
		},
		"coords": [
			{
				"x": -2.6127533413,
				"y": -2.0831377154,
				"z": -1.0412517545,
				"element": "N" 
			},
			{
				"x": -2.9951975906,
				"y": -0.749285182,
				"z": -0.999816828,
				"element": "C" 
			},
			{
				"x": -4.117203164,
				"y": -0.3908263222,
				"z": -1.5029805056,
				"element": "N" 
			},
			{
				"x": -2.081285701,
				"y": 0.1157604878,
				"z": -0.3758609859,
				"element": "N" 
			},
			{
				"x": -1.0016058399,
				"y": -0.1967033869,
				"z": 0.4654568263,
				"element": "C" 
			},
			{
				"x": -0.7610102496,
				"y": -1.2942991697,
				"z": 1.0809704815,
				"element": "N" 
			},
			{
				"x": -0.140595933,
				"y": 0.8759950284,
				"z": 0.6802006668,
				"element": "N" 
			},
			{
				"x": 0.16489587,
				"y": 1.99026049,
				"z": -0.1228262741,
				"element": "C" 
			},
			{
				"x": -0.0276597845,
				"y": 2.0201932173,
				"z": -1.5150380538,
				"element": "C" 
			},
			{
				"x": 0.3075460953,
				"y": 3.1635274371,
				"z": -2.2421545272,
				"element": "C" 
			},
			{
				"x": 0.8603510499,
				"y": 4.27842879,
				"z": -1.6125672818,
				"element": "C" 
			},
			{
				"x": 1.075152415,
				"y": 4.241386868,
				"z": -0.2324275887,
				"element": "C" 
			},
			{
				"x": 0.7231766773,
				"y": 3.1166726731,
				"z": 0.507635486,
				"element": "C" 
			},
			{
				"x": -3.2306725093,
				"y": -2.6166393666,
				"z": -1.6386973165,
				"element": "H" 
			},
			{
				"x": -1.6288127738,
				"y": -2.2647744371,
				"z": -1.192970619,
				"element": "H" 
			},
			{
				"x": -4.3301788348,
				"y": 0.5845087239,
				"z": -1.2957580932,
				"element": "H" 
			},
			{
				"x": -2.2801713063,
				"y": 1.0986290972,
				"z": -0.4984577487,
				"element": "H" 
			},
			{
				"x": -1.5372581352,
				"y": -1.9454713923,
				"z": 0.9812262057,
				"element": "H" 
			},
			{
				"x": 0.4652607869,
				"y": 0.7018252003,
				"z": 1.4699599672,
				"element": "H" 
			},
			{
				"x": -0.4153530843,
				"y": 1.1491187103,
				"z": -2.0298263757,
				"element": "H" 
			},
			{
				"x": 0.1499045732,
				"y": 3.1683039872,
				"z": -3.3170356906,
				"element": "H" 
			},
			{
				"x": 1.1251468919,
				"y": 5.1602900062,
				"z": -2.187278834,
				"element": "H" 
			},
			{
				"x": 1.5088411378,
				"y": 5.0980305102,
				"z": 0.2755682745,
				"element": "H" 
			},
			{
				"x": 0.8710827504,
				"y": 3.1013057451,
				"z": 1.5842305695,
				"element": "H" 
			}
		],
		 "valence_orbital": [ 
			{
				"type": "occ",
				"energy": -0.26863,
				"method": "rhf"
			},
			{
				"type": "occ",
				"energy": -0.2611,
				"method": "rhf"
			},
			{
				"type": "occ",
				"energy": -0.25754,
				"method": "rhf"
			},
			{
				"type": "occ",
				"energy": -0.23324,
				"method": "rhf"
			},
			{
				"type": "occ",
				"energy": -0.21582,
				"method": "rhf"
			},
			{
				"type": "unocc",
				"energy": -0.01331,
				"method": "rhf"
			},
			{
				"type": "unocc",
				"energy": -0.01209,
				"method": "rhf"
			},
			{
				"type": "unocc",
				"energy": 0.02755,
				"method": "rhf"
			},
			{
				"type": "unocc",
				"energy": 0.07056,
				"method": "rhf"
			},
			{
				"type": "unocc",
				"energy": 0.07674,
				"method": "rhf"
			}
		],
		"cosmo_sigma_profile": { 
			"-0.025": 0.0,
			"-0.024": 0.0,
			"-0.023": 0.0,
			"-0.022": 0.0,
			"-0.021": 0.0,
			"-0.02": 0.0,
			"-0.019": 0.0,
			"-0.018": 0.0,
			"-0.017": 0.0,
			"-0.016": 0.0197233441907,
			"-0.015": 0.729424538299,
			"-0.014": 1.57136935879,
			"-0.013": 2.62505059224,
			"-0.012": 4.3818956253,
			"-0.011": 4.09042335276,
			"-0.01": 4.86481398279,
			"-0.009": 6.08325694456,
			"-0.008": 4.33798716261,
			"-0.007": 4.48721205314,
			"-0.006": 9.53229484712,
			"-0.005": 15.9543544577,
			"-0.004": 15.519825662,
			"-0.003": 15.2818016019,
			"-0.002": 11.2855900273,
			"-0.001": 11.6211118474,
			"0.0": 10.0162685915,
			"0.001": 12.2451563144,
			"0.002": 12.2230003407,
			"0.003": 12.9657768909,
			"0.004": 11.7472491723,
			"0.005": 11.199741487,
			"0.006": 9.8455498698,
			"0.007": 2.77389978828,
			"0.008": 3.94822412502,
			"0.009": 2.10765570959,
			"0.01": 2.50478754603,
			"0.011": 3.03889565093,
			"0.012": 1.62679257942,
			"0.013": 2.68430225016,
			"0.014": 2.56428503017,
			"0.015": 1.99307663852,
			"0.016": 2.18254663339,
			"0.017": 2.41522384388,
			"0.018": 2.04658373589,
			"0.019": 0.433119145021,
			"0.02": 0.0,
			"0.021": 0.0,
			"0.022": 0.0,
			"0.023": 0.0,
			"0.024": 0.0,
			"0.025": 0.0
		}
	}
}
