{
	 "smiles": "OC(=O)C1CN(C(=O)C1)C1=C(F)C=CC=C1", 
	 "Tm": 405.15, 
	 "num_atms": 26, 
	 "gaussian": { 
		 "optdone": 1, 
		 "sigma_profile": "yes", 
		 "theory": "DFT", 
		 "functional": "B3LYP", 
		 "basiset": "6-31G**", 
		 "properties": { 
			 "R2extent": 4332.8623, 
			 "electric_dipole_moment_norm": 3.09845283004, 
			 "electric_quadrupole_moment_norm": 19.6309998877, 
			 "total_energy": -805.473395094, 
			 "HOMO_LUMO_gap": 0.20577, 
			 "cosmo_polarized_energy": -20.6, 
			 "cosmo_cavitation_energy": 30.4, 
			 "cosmo_dispersion_energy": -21.99, 
			 "cosmo_repulsion_energy": 1.69, 
			 "cosmo_total_nonelectrostatic_energy": 10.1, 
			 "SMD_solvation_energy": 6.75 
		},
		"coords": [
			{
				"x": 1.529108592,
				"y": -1.4898877601,
				"z": -3.3486064775,
				"element": "O" 
			},
			{
				"x": 0.6925616432,
				"y": -1.4854284909,
				"z": -2.2776244341,
				"element": "C" 
			},
			{
				"x": 0.1777587106,
				"y": -2.5096473305,
				"z": -1.9058062563,
				"element": "O" 
			},
			{
				"x": 0.4885018602,
				"y": -0.1248037417,
				"z": -1.6238962197,
				"element": "C" 
			},
			{
				"x": -0.4885688645,
				"y": -0.1715761125,
				"z": -0.4373226886,
				"element": "C" 
			},
			{
				"x": -0.0502009005,
				"y": 0.9529144801,
				"z": 0.4079920862,
				"element": "N" 
			},
			{
				"x": 1.2393911287,
				"y": 1.3708972986,
				"z": 0.1217518892,
				"element": "C" 
			},
			{
				"x": 1.8556384447,
				"y": 2.2669038878,
				"z": 0.6685936916,
				"element": "O" 
			},
			{
				"x": 1.7656284212,
				"y": 0.4866736448,
				"z": -1.0109754253,
				"element": "C" 
			},
			{
				"x": -0.8619420646,
				"y": 1.5274361777,
				"z": 1.4159128673,
				"element": "C" 
			},
			{
				"x": -1.7585161351,
				"y": 0.7454970329,
				"z": 2.157926393,
				"element": "C" 
			},
			{
				"x": -1.821485539,
				"y": -0.5890279761,
				"z": 1.9312305978,
				"element": "F" 
			},
			{
				"x": -2.5937537544,
				"y": 1.285417062,
				"z": 3.1258369293,
				"element": "C" 
			},
			{
				"x": -2.526999875,
				"y": 2.6509075632,
				"z": 3.3984639208,
				"element": "C" 
			},
			{
				"x": -1.6287062399,
				"y": 3.4512229269,
				"z": 2.6903786762,
				"element": "C" 
			},
			{
				"x": -0.8102295751,
				"y": 2.9007942048,
				"z": 1.7062125785,
				"element": "C" 
			},
			{
				"x": 1.8632314807,
				"y": -0.5983153697,
				"z": -3.5229561269,
				"element": "H" 
			},
			{
				"x": 0.1018337524,
				"y": 0.5639971748,
				"z": -2.3872827025,
				"element": "H" 
			},
			{
				"x": -0.4131721757,
				"y": -1.1285222358,
				"z": 0.0826882358,
				"element": "H" 
			},
			{
				"x": -1.5280959617,
				"y": -0.0353087083,
				"z": -0.7444921078,
				"element": "H" 
			},
			{
				"x": 2.370908005,
				"y": 1.0854952087,
				"z": -1.6954676891,
				"element": "H" 
			},
			{
				"x": 2.4144867543,
				"y": -0.2821612742,
				"z": -0.573497267,
				"element": "H" 
			},
			{
				"x": -3.2684756356,
				"y": 0.6224922747,
				"z": 3.6566363808,
				"element": "H" 
			},
			{
				"x": -3.169178631,
				"y": 3.0815216637,
				"z": 4.1601222798,
				"element": "H" 
			},
			{
				"x": -1.5661075351,
				"y": 4.5149073386,
				"z": 2.8973146328,
				"element": "H" 
			},
			{
				"x": -0.1085159059,
				"y": 3.5208010605,
				"z": 1.1650662357,
				"element": "H" 
			}
		],
		 "valence_orbital": [ 
			{
				"type": "occ",
				"energy": -0.29982,
				"method": "rhf"
			},
			{
				"type": "occ",
				"energy": -0.28839,
				"method": "rhf"
			},
			{
				"type": "occ",
				"energy": -0.26351,
				"method": "rhf"
			},
			{
				"type": "occ",
				"energy": -0.25318,
				"method": "rhf"
			},
			{
				"type": "occ",
				"energy": -0.23036,
				"method": "rhf"
			},
			{
				"type": "unocc",
				"energy": -0.02459,
				"method": "rhf"
			},
			{
				"type": "unocc",
				"energy": -0.0064,
				"method": "rhf"
			},
			{
				"type": "unocc",
				"energy": -0.0051,
				"method": "rhf"
			},
			{
				"type": "unocc",
				"energy": 0.02159,
				"method": "rhf"
			},
			{
				"type": "unocc",
				"energy": 0.03888,
				"method": "rhf"
			}
		],
		"cosmo_sigma_profile": { 
			"-0.025": 0.0,
			"-0.024": 0.0,
			"-0.023": 0.0,
			"-0.022": 0.0,
			"-0.021": 0.0,
			"-0.02": 0.0209784072711,
			"-0.019": 0.74511163894,
			"-0.018": 0.968615090263,
			"-0.017": 1.26280045188,
			"-0.016": 1.34897192539,
			"-0.015": 1.19488633783,
			"-0.014": 0.778651071695,
			"-0.013": 1.01241858781,
			"-0.012": 1.34191306603,
			"-0.011": 1.67505019056,
			"-0.01": 0.739778009422,
			"-0.009": 2.48123583157,
			"-0.008": 7.06800533281,
			"-0.007": 13.5298213927,
			"-0.006": 16.588420268,
			"-0.005": 14.8789460485,
			"-0.004": 13.4578847433,
			"-0.003": 12.9011405487,
			"-0.002": 12.0834044623,
			"-0.001": 12.7174358689,
			"0.0": 13.250578428,
			"0.001": 14.1760693372,
			"0.002": 13.8773555853,
			"0.003": 14.0773374854,
			"0.004": 17.5243683598,
			"0.005": 8.066985203,
			"0.006": 4.25047401583,
			"0.007": 3.6637936554,
			"0.008": 4.77102461539,
			"0.009": 4.32476368335,
			"0.01": 7.89292383332,
			"0.011": 7.63258655452,
			"0.012": 6.62381909777,
			"0.013": 4.36980285219,
			"0.014": 0.835008747842,
			"0.015": 0.0,
			"0.016": 0.0,
			"0.017": 0.0,
			"0.018": 0.0,
			"0.019": 0.0,
			"0.02": 0.0,
			"0.021": 0.0,
			"0.022": 0.0,
			"0.023": 0.0,
			"0.024": 0.0,
			"0.025": 0.0
		}
	}
}
