{
	 "smiles": "CN(C)CCOC1=CC=C(C=C1)C(=C(CCCl)C1=CC=CC=C1)C1=CC=CC=C1", 
	 "Tm": 381.15, 
	 "num_atms": 57, 
	 "gaussian": { 
		 "optdone": 1, 
		 "sigma_profile": "yes", 
		 "theory": "DFT", 
		 "functional": "B3LYP", 
		 "basiset": "6-31G**", 
		 "properties": { 
			 "R2extent": 18464.3633, 
			 "electric_dipole_moment_norm": 4.39584621888, 
			 "electric_quadrupole_moment_norm": 21.1667750751, 
			 "total_energy": -1597.78819468, 
			 "HOMO_LUMO_gap": 0.16161, 
			 "cosmo_polarized_energy": -14.49, 
			 "cosmo_cavitation_energy": 60.64, 
			 "cosmo_dispersion_energy": -39.69, 
			 "cosmo_repulsion_energy": 3.1, 
			 "cosmo_total_nonelectrostatic_energy": 24.05, 
			 "SMD_solvation_energy": 7.67 
		},
		"coords": [
			{
				"x": 1.4352811655,
				"y": 0.7571648915,
				"z": 7.2822138378,
				"element": "C" 
			},
			{
				"x": 0.4381640287,
				"y": 0.8237769638,
				"z": 6.222538095,
				"element": "N" 
			},
			{
				"x": -0.7413201656,
				"y": 1.5572108525,
				"z": 6.6599306307,
				"element": "C" 
			},
			{
				"x": 0.1183442055,
				"y": -0.4997294896,
				"z": 5.6983119082,
				"element": "C" 
			},
			{
				"x": -0.5076206209,
				"y": -0.4827192317,
				"z": 4.3089055277,
				"element": "C" 
			},
			{
				"x": 0.4787170873,
				"y": -0.0481205633,
				"z": 3.3801278117,
				"element": "O" 
			},
			{
				"x": 0.1429067527,
				"y": 0.0451289176,
				"z": 2.0633230519,
				"element": "C" 
			},
			{
				"x": 1.1540104541,
				"y": 0.5073565866,
				"z": 1.2061354325,
				"element": "C" 
			},
			{
				"x": 0.9109443674,
				"y": 0.6406035756,
				"z": -0.1528806663,
				"element": "C" 
			},
			{
				"x": -0.3358714439,
				"y": 0.2991057796,
				"z": -0.7146531633,
				"element": "C" 
			},
			{
				"x": -1.3365746436,
				"y": -0.1469727781,
				"z": 0.1594202048,
				"element": "C" 
			},
			{
				"x": -1.1122232092,
				"y": -0.2760742258,
				"z": 1.5310648033,
				"element": "C" 
			},
			{
				"x": -0.5805635703,
				"y": 0.472314831,
				"z": -2.1776419107,
				"element": "C" 
			},
			{
				"x": -1.210031674,
				"y": -0.4559557513,
				"z": -2.9498628334,
				"element": "C" 
			},
			{
				"x": -1.6601749448,
				"y": -0.1643430185,
				"z": -4.3748918613,
				"element": "C" 
			},
			{
				"x": -0.9153158206,
				"y": -1.0152313158,
				"z": -5.404299182,
				"element": "C" 
			},
			{
				"x": -1.5602539084,
				"y": -0.7364588278,
				"z": -7.0849575587,
				"element": "Cl" 
			},
			{
				"x": -1.5199330945,
				"y": -1.8380946193,
				"z": -2.4685459377,
				"element": "C" 
			},
			{
				"x": -0.5044863963,
				"y": -2.6600433103,
				"z": -1.948090405,
				"element": "C" 
			},
			{
				"x": -0.7733712644,
				"y": -3.9664831824,
				"z": -1.544244672,
				"element": "C" 
			},
			{
				"x": -2.0655403559,
				"y": -4.4853987819,
				"z": -1.6525086557,
				"element": "C" 
			},
			{
				"x": -3.0839924849,
				"y": -3.6856079016,
				"z": -2.1729496067,
				"element": "C" 
			},
			{
				"x": -2.812239412,
				"y": -2.3800692744,
				"z": -2.583620803,
				"element": "C" 
			},
			{
				"x": -0.1190377021,
				"y": 1.7859533604,
				"z": -2.730013552,
				"element": "C" 
			},
			{
				"x": 0.8147750557,
				"y": 1.8566906871,
				"z": -3.7763932789,
				"element": "C" 
			},
			{
				"x": 1.2521842216,
				"y": 3.088412174,
				"z": -4.267219658,
				"element": "C" 
			},
			{
				"x": 0.76412505,
				"y": 4.2742218302,
				"z": -3.717941416,
				"element": "C" 
			},
			{
				"x": -0.1559848738,
				"y": 4.2198721345,
				"z": -2.6675777136,
				"element": "C" 
			},
			{
				"x": -0.5841054714,
				"y": 2.9896970228,
				"z": -2.1724125526,
				"element": "C" 
			},
			{
				"x": 1.700520716,
				"y": 1.7705426918,
				"z": 7.6002886864,
				"element": "H" 
			},
			{
				"x": 2.3429558496,
				"y": 0.2728697441,
				"z": 6.909030299,
				"element": "H" 
			},
			{
				"x": 1.0928898328,
				"y": 0.2018554008,
				"z": 8.1779401675,
				"element": "H" 
			},
			{
				"x": -1.2730223359,
				"y": 1.0658940727,
				"z": 7.4994485834,
				"element": "H" 
			},
			{
				"x": -1.451043399,
				"y": 1.6765420661,
				"z": 5.8364587629,
				"element": "H" 
			},
			{
				"x": -0.4487768654,
				"y": 2.5600188539,
				"z": 6.9860877583,
				"element": "H" 
			},
			{
				"x": 1.0473757205,
				"y": -1.0752587994,
				"z": 5.6291183468,
				"element": "H" 
			},
			{
				"x": -0.5597434411,
				"y": -1.0649028035,
				"z": 6.3707386662,
				"element": "H" 
			},
			{
				"x": -1.3838129441,
				"y": 0.1781318576,
				"z": 4.2683234726,
				"element": "H" 
			},
			{
				"x": -0.8461482655,
				"y": -1.4984050123,
				"z": 4.0569926942,
				"element": "H" 
			},
			{
				"x": 2.1180728478,
				"y": 0.7618214502,
				"z": 1.6343537408,
				"element": "H" 
			},
			{
				"x": 1.7010060465,
				"y": 1.0130213195,
				"z": -0.7982375501,
				"element": "H" 
			},
			{
				"x": -2.3151906471,
				"y": -0.3973432877,
				"z": -0.2362527877,
				"element": "H" 
			},
			{
				"x": -1.918077459,
				"y": -0.6214696451,
				"z": 2.167685232,
				"element": "H" 
			},
			{
				"x": -1.5348115648,
				"y": 0.8917295823,
				"z": -4.6164043596,
				"element": "H" 
			},
			{
				"x": -2.7299194422,
				"y": -0.3885878005,
				"z": -4.4663362337,
				"element": "H" 
			},
			{
				"x": -1.0267695697,
				"y": -2.0816553105,
				"z": -5.2073825375,
				"element": "H" 
			},
			{
				"x": 0.1463367192,
				"y": -0.7679173899,
				"z": -5.4427183609,
				"element": "H" 
			},
			{
				"x": 0.5018853963,
				"y": -2.262881594,
				"z": -1.861701858,
				"element": "H" 
			},
			{
				"x": 0.029622859,
				"y": -4.5820951383,
				"z": -1.148463921,
				"element": "H" 
			},
			{
				"x": -2.2752718305,
				"y": -5.5039314151,
				"z": -1.3388209738,
				"element": "H" 
			},
			{
				"x": -4.0934171736,
				"y": -4.0775241234,
				"z": -2.2619919398,
				"element": "H" 
			},
			{
				"x": -3.6191088471,
				"y": -1.7707639394,
				"z": -2.9811670532,
				"element": "H" 
			},
			{
				"x": 1.2131246009,
				"y": 0.9370439164,
				"z": -4.1948251314,
				"element": "H" 
			},
			{
				"x": 1.9774965798,
				"y": 3.1188690469,
				"z": -5.0754045491,
				"element": "H" 
			},
			{
				"x": 1.1021977396,
				"y": 5.2333318861,
				"z": -4.0994967826,
				"element": "H" 
			},
			{
				"x": -0.5380695522,
				"y": 5.1384129294,
				"z": -2.2309524605,
				"element": "H" 
			},
			{
				"x": -1.2902129028,
				"y": 2.9524441056,
				"z": -1.3480757882,
				"element": "H" 
			}
		],
		 "valence_orbital": [ 
			{
				"type": "occ",
				"energy": -0.25032,
				"method": "rhf"
			},
			{
				"type": "occ",
				"energy": -0.24405,
				"method": "rhf"
			},
			{
				"type": "occ",
				"energy": -0.23545,
				"method": "rhf"
			},
			{
				"type": "occ",
				"energy": -0.21441,
				"method": "rhf"
			},
			{
				"type": "occ",
				"energy": -0.19763,
				"method": "rhf"
			},
			{
				"type": "unocc",
				"energy": -0.03602,
				"method": "rhf"
			},
			{
				"type": "unocc",
				"energy": -0.00832,
				"method": "rhf"
			},
			{
				"type": "unocc",
				"energy": -0.00524,
				"method": "rhf"
			},
			{
				"type": "unocc",
				"energy": 0.00163,
				"method": "rhf"
			},
			{
				"type": "unocc",
				"energy": 0.00558,
				"method": "rhf"
			}
		],
		"cosmo_sigma_profile": { 
			"-0.025": 0.0,
			"-0.024": 0.0,
			"-0.023": 0.0,
			"-0.022": 0.0,
			"-0.021": 0.0,
			"-0.02": 0.0,
			"-0.019": 0.0,
			"-0.018": 0.0,
			"-0.017": 0.0,
			"-0.016": 0.0,
			"-0.015": 0.0,
			"-0.014": 0.0,
			"-0.013": 0.0,
			"-0.012": 0.0,
			"-0.011": 0.0,
			"-0.01": 0.0,
			"-0.009": 0.0,
			"-0.008": 0.473452750379,
			"-0.007": 2.99533358533,
			"-0.006": 16.2582317475,
			"-0.005": 33.5492189355,
			"-0.004": 47.754435317,
			"-0.003": 49.4950263107,
			"-0.002": 45.7901832556,
			"-0.001": 50.827738738,
			"0.0": 45.736511078,
			"0.001": 30.9962158988,
			"0.002": 27.4540519843,
			"0.003": 27.3323193226,
			"0.004": 27.7332600208,
			"0.005": 31.5838622571,
			"0.006": 23.1387409186,
			"0.007": 10.0870078582,
			"0.008": 1.93082776269,
			"0.009": 1.55932855771,
			"0.01": 1.26329771589,
			"0.011": 0.993418327655,
			"0.012": 0.921207875948,
			"0.013": 0.847885743966,
			"0.014": 1.01121320005,
			"0.015": 0.718072965701,
			"0.016": 0.978070848637,
			"0.017": 0.376527160822,
			"0.018": 0.0439976634533,
			"0.019": 0.0,
			"0.02": 0.0,
			"0.021": 0.0,
			"0.022": 0.0,
			"0.023": 0.0,
			"0.024": 0.0,
			"0.025": 0.0
		}
	}
}
