{
	 "smiles": "CNC(=O)CC(N)=NO", 
	 "Tm": 393.15, 
	 "num_atms": 18, 
	 "gaussian": { 
		 "optdone": 1, 
		 "sigma_profile": "yes", 
		 "theory": "DFT", 
		 "functional": "B3LYP", 
		 "basiset": "6-31G**", 
		 "properties": { 
			 "R2extent": 1624.7717, 
			 "electric_dipole_moment_norm": 3.03048033981, 
			 "electric_quadrupole_moment_norm": 8.42124687502, 
			 "total_energy": -472.516798301, 
			 "HOMO_LUMO_gap": 0.21793, 
			 "cosmo_polarized_energy": -15.15, 
			 "cosmo_cavitation_energy": 21.84, 
			 "cosmo_dispersion_energy": -16.11, 
			 "cosmo_repulsion_energy": 1.37, 
			 "cosmo_total_nonelectrostatic_energy": 7.1, 
			 "SMD_solvation_energy": 4.0 
		},
		"coords": [
			{
				"x": -1.1529601611,
				"y": 0.4461063489,
				"z": -3.0342409144,
				"element": "C" 
			},
			{
				"x": -1.3973835652,
				"y": -0.6483135789,
				"z": -2.1028442501,
				"element": "N" 
			},
			{
				"x": -0.8252119463,
				"y": -0.8398764764,
				"z": -0.8836499006,
				"element": "C" 
			},
			{
				"x": -1.1950170235,
				"y": -1.7369258306,
				"z": -0.1259630562,
				"element": "O" 
			},
			{
				"x": 0.2722058453,
				"y": 0.1350645019,
				"z": -0.4523403514,
				"element": "C" 
			},
			{
				"x": -0.2990661527,
				"y": 1.1285669038,
				"z": 0.5311630888,
				"element": "C" 
			},
			{
				"x": -0.7693475722,
				"y": 0.6237395834,
				"z": 1.7140853917,
				"element": "N" 
			},
			{
				"x": -0.2809971759,
				"y": 2.3729209575,
				"z": 0.1839640976,
				"element": "N" 
			},
			{
				"x": -0.8895508081,
				"y": 3.1524904633,
				"z": 1.2180907956,
				"element": "O" 
			},
			{
				"x": -0.2226443585,
				"y": 0.3122149814,
				"z": -3.6000822929,
				"element": "H" 
			},
			{
				"x": -1.9781160637,
				"y": 0.4815011718,
				"z": -3.7485443196,
				"element": "H" 
			},
			{
				"x": -1.1143956925,
				"y": 1.4055994963,
				"z": -2.5112960056,
				"element": "H" 
			},
			{
				"x": -2.131030702,
				"y": -1.311629971,
				"z": -2.3131263265,
				"element": "H" 
			},
			{
				"x": 1.04149233,
				"y": -0.4655877324,
				"z": 0.0431267064,
				"element": "H" 
			},
			{
				"x": 0.7255349862,
				"y": 0.6820768245,
				"z": -1.2783581815,
				"element": "H" 
			},
			{
				"x": -1.0539364116,
				"y": -0.3482845942,
				"z": 1.6819317241,
				"element": "H" 
			},
			{
				"x": -1.3507513217,
				"y": 1.2534510563,
				"z": 2.2486421402,
				"element": "H" 
			},
			{
				"x": -0.8028242065,
				"y": 4.0466858944,
				"z": 0.8675416543,
				"element": "H" 
			}
		],
		 "valence_orbital": [ 
			{
				"type": "occ",
				"energy": -0.30683,
				"method": "rhf"
			},
			{
				"type": "occ",
				"energy": -0.27008,
				"method": "rhf"
			},
			{
				"type": "occ",
				"energy": -0.25934,
				"method": "rhf"
			},
			{
				"type": "occ",
				"energy": -0.25401,
				"method": "rhf"
			},
			{
				"type": "occ",
				"energy": -0.20724,
				"method": "rhf"
			},
			{
				"type": "unocc",
				"energy": 0.01069,
				"method": "rhf"
			},
			{
				"type": "unocc",
				"energy": 0.05333,
				"method": "rhf"
			},
			{
				"type": "unocc",
				"energy": 0.07745,
				"method": "rhf"
			},
			{
				"type": "unocc",
				"energy": 0.08097,
				"method": "rhf"
			},
			{
				"type": "unocc",
				"energy": 0.10641,
				"method": "rhf"
			}
		],
		"cosmo_sigma_profile": { 
			"-0.025": 0.0,
			"-0.024": 0.0,
			"-0.023": 0.0,
			"-0.022": 0.0,
			"-0.021": 0.0,
			"-0.02": 0.0,
			"-0.019": 0.0,
			"-0.018": 0.0,
			"-0.017": 0.257767255893,
			"-0.016": 0.839856010538,
			"-0.015": 0.792497640662,
			"-0.014": 1.76821607052,
			"-0.013": 1.9737430638,
			"-0.012": 1.99831575205,
			"-0.011": 2.58376078602,
			"-0.01": 2.37883713773,
			"-0.009": 4.08925871462,
			"-0.008": 3.59742646744,
			"-0.007": 3.70681036729,
			"-0.006": 10.1206908095,
			"-0.005": 11.8791923894,
			"-0.004": 10.1060955292,
			"-0.003": 13.6562516259,
			"-0.002": 13.1779491039,
			"-0.001": 10.5528796112,
			"0.0": 8.34800586794,
			"0.001": 6.54974076292,
			"0.002": 6.47547180606,
			"0.003": 5.15490079514,
			"0.004": 4.6928836484,
			"0.005": 4.6827733583,
			"0.006": 4.5171237471,
			"0.007": 5.75994850802,
			"0.008": 5.40198206785,
			"0.009": 5.68542740784,
			"0.01": 4.82501384453,
			"0.011": 3.939597193,
			"0.012": 2.82315320483,
			"0.013": 4.47452505908,
			"0.014": 3.38557576153,
			"0.015": 0.841156731773,
			"0.016": 0.0,
			"0.017": 0.0,
			"0.018": 0.0,
			"0.019": 0.0,
			"0.02": 0.0,
			"0.021": 0.0,
			"0.022": 0.0,
			"0.023": 0.0,
			"0.024": 0.0,
			"0.025": 0.0
		}
	}
}
