{
	 "smiles": "CN(C(Cl)=S)C1=CC=C(F)C=C1", 
	 "Tm": 366.15, 
	 "num_atms": 19, 
	 "gaussian": { 
		 "optdone": 1, 
		 "sigma_profile": "yes", 
		 "theory": "DFT", 
		 "functional": "B3LYP", 
		 "basiset": "6-31G**", 
		 "properties": { 
			 "R2extent": 3269.1255, 
			 "electric_dipole_moment_norm": 4.55024486044, 
			 "electric_quadrupole_moment_norm": 15.4231720022, 
			 "total_energy": -1322.02271028, 
			 "HOMO_LUMO_gap": 0.17592, 
			 "cosmo_polarized_energy": -11.06, 
			 "cosmo_cavitation_energy": 27.43, 
			 "cosmo_dispersion_energy": -19.53, 
			 "cosmo_repulsion_energy": 1.51, 
			 "cosmo_total_nonelectrostatic_energy": 9.41, 
			 "SMD_solvation_energy": 4.62 
		},
		"coords": [
			{
				"x": -1.9686227448,
				"y": -0.3864936778,
				"z": -1.9216485013,
				"element": "C" 
			},
			{
				"x": -1.5609437581,
				"y": -0.2354734571,
				"z": -0.5126564842,
				"element": "N" 
			},
			{
				"x": -2.4214076055,
				"y": -0.14574497,
				"z": 0.5283875785,
				"element": "C" 
			},
			{
				"x": -4.1373311722,
				"y": -0.2329070804,
				"z": -0.0106346152,
				"element": "Cl" 
			},
			{
				"x": -2.0627575997,
				"y": 0.023058716,
				"z": 2.1208275223,
				"element": "S" 
			},
			{
				"x": -0.1400589573,
				"y": -0.1820780533,
				"z": -0.252934595,
				"element": "C" 
			},
			{
				"x": 0.5234716541,
				"y": 1.0465505852,
				"z": -0.2834827974,
				"element": "C" 
			},
			{
				"x": 1.9035716781,
				"y": 1.0966948847,
				"z": -0.0960291858,
				"element": "C" 
			},
			{
				"x": 2.5925870177,
				"y": -0.092615403,
				"z": 0.1181286478,
				"element": "C" 
			},
			{
				"x": 3.9265704533,
				"y": -0.0491091251,
				"z": 0.2975227592,
				"element": "F" 
			},
			{
				"x": 1.9494170707,
				"y": -1.3256446592,
				"z": 0.1504870573,
				"element": "C" 
			},
			{
				"x": 0.5691431029,
				"y": -1.3659655039,
				"z": -0.0380168067,
				"element": "C" 
			},
			{
				"x": -1.0603451504,
				"y": -0.4316202911,
				"z": -2.5209750474,
				"element": "H" 
			},
			{
				"x": -2.5741786416,
				"y": 0.4622817337,
				"z": -2.2496173365,
				"element": "H" 
			},
			{
				"x": -2.5428417126,
				"y": -1.3047150959,
				"z": -2.0692454242,
				"element": "H" 
			},
			{
				"x": -0.0416682147,
				"y": 1.9590088436,
				"z": -0.4426046764,
				"element": "H" 
			},
			{
				"x": 2.4453586512,
				"y": 2.0357733632,
				"z": -0.1104826111,
				"element": "H" 
			},
			{
				"x": 2.5260061175,
				"y": -2.227440793,
				"z": 0.3234558735,
				"element": "H" 
			},
			{
				"x": 0.0391298113,
				"y": -2.3122600167,
				"z": -0.0079813575,
				"element": "H" 
			}
		],
		 "valence_orbital": [ 
			{
				"type": "occ",
				"energy": -0.31289,
				"method": "rhf"
			},
			{
				"type": "occ",
				"energy": -0.2784,
				"method": "rhf"
			},
			{
				"type": "occ",
				"energy": -0.26468,
				"method": "rhf"
			},
			{
				"type": "occ",
				"energy": -0.23943,
				"method": "rhf"
			},
			{
				"type": "occ",
				"energy": -0.21998,
				"method": "rhf"
			},
			{
				"type": "unocc",
				"energy": -0.04406,
				"method": "rhf"
			},
			{
				"type": "unocc",
				"energy": -0.02805,
				"method": "rhf"
			},
			{
				"type": "unocc",
				"energy": -0.02496,
				"method": "rhf"
			},
			{
				"type": "unocc",
				"energy": 0.01054,
				"method": "rhf"
			},
			{
				"type": "unocc",
				"energy": 0.06917,
				"method": "rhf"
			}
		],
		"cosmo_sigma_profile": { 
			"-0.025": 0.0,
			"-0.024": 0.0,
			"-0.023": 0.0,
			"-0.022": 0.0,
			"-0.021": 0.0,
			"-0.02": 0.0,
			"-0.019": 0.0,
			"-0.018": 0.0,
			"-0.017": 0.0,
			"-0.016": 0.0,
			"-0.015": 0.0,
			"-0.014": 0.0,
			"-0.013": 0.0,
			"-0.012": 0.0,
			"-0.011": 0.0,
			"-0.01": 0.0,
			"-0.009": 0.0,
			"-0.008": 3.836269505,
			"-0.007": 12.3897075165,
			"-0.006": 14.5934213739,
			"-0.005": 18.1755516481,
			"-0.004": 18.2416974534,
			"-0.003": 12.0491676336,
			"-0.002": 10.2613529406,
			"-0.001": 10.7307796091,
			"0.0": 15.7889281666,
			"0.001": 17.8430479122,
			"0.002": 17.0592779853,
			"0.003": 16.6427226102,
			"0.004": 19.7383727922,
			"0.005": 8.66476699817,
			"0.006": 7.462114217,
			"0.007": 9.25721635848,
			"0.008": 6.1713191662,
			"0.009": 4.15306697109,
			"0.01": 1.57653825198,
			"0.011": 0.0963168134649,
			"0.012": 0.0,
			"0.013": 0.0,
			"0.014": 0.0,
			"0.015": 0.0,
			"0.016": 0.0,
			"0.017": 0.0,
			"0.018": 0.0,
			"0.019": 0.0,
			"0.02": 0.0,
			"0.021": 0.0,
			"0.022": 0.0,
			"0.023": 0.0,
			"0.024": 0.0,
			"0.025": 0.0
		}
	}
}
