{
	 "smiles": "CCOP(=S)(OCC)ON=C(C#N)C1=CC=CC=C1Cl", 
	 "Tm": 339.65, 
	 "num_atms": 34, 
	 "gaussian": { 
		 "optdone": 1, 
		 "sigma_profile": "yes", 
		 "theory": "DFT", 
		 "functional": "B3LYP", 
		 "basiset": "6-31G**", 
		 "properties": { 
			 "R2extent": 8388.1582, 
			 "electric_dipole_moment_norm": 2.87864175611, 
			 "electric_quadrupole_moment_norm": 39.3234888672, 
			 "total_energy": -2000.6032959, 
			 "HOMO_LUMO_gap": 0.16752, 
			 "cosmo_polarized_energy": -16.06, 
			 "cosmo_cavitation_energy": 45.83, 
			 "cosmo_dispersion_energy": -29.52, 
			 "cosmo_repulsion_energy": 2.34, 
			 "cosmo_total_nonelectrostatic_energy": 18.65, 
			 "SMD_solvation_energy": 8.83 
		},
		"coords": [
			{
				"x": -1.3945985946,
				"y": 3.8335417224,
				"z": -2.0648621165,
				"element": "C" 
			},
			{
				"x": -1.3642842728,
				"y": 2.3604028186,
				"z": -1.7089253093,
				"element": "C" 
			},
			{
				"x": -0.8696638143,
				"y": 2.2517837984,
				"z": -0.3475018128,
				"element": "O" 
			},
			{
				"x": -0.874604745,
				"y": 0.8539873422,
				"z": 0.4273349233,
				"element": "P" 
			},
			{
				"x": -2.4431214945,
				"y": -0.2699173537,
				"z": 0.3682493913,
				"element": "S" 
			},
			{
				"x": -0.3310789305,
				"y": 1.3939427768,
				"z": 1.8306281682,
				"element": "O" 
			},
			{
				"x": -0.1755592272,
				"y": 0.4958180082,
				"z": 2.9643718582,
				"element": "C" 
			},
			{
				"x": 0.2560981995,
				"y": 1.3346593876,
				"z": 4.1506432931,
				"element": "C" 
			},
			{
				"x": 0.4004406545,
				"y": -0.0276026795,
				"z": -0.2193590644,
				"element": "O" 
			},
			{
				"x": 1.5914338275,
				"y": 0.7101267427,
				"z": -0.3180823859,
				"element": "N" 
			},
			{
				"x": 2.5788168264,
				"y": -0.0395452848,
				"z": -0.6765572372,
				"element": "C" 
			},
			{
				"x": 3.8242717425,
				"y": 0.6736339567,
				"z": -0.8269051916,
				"element": "C" 
			},
			{
				"x": 4.8378957607,
				"y": 1.2184253649,
				"z": -0.9890979949,
				"element": "N" 
			},
			{
				"x": 2.5457114739,
				"y": -1.492814899,
				"z": -1.0094854496,
				"element": "C" 
			},
			{
				"x": 1.7477218784,
				"y": -1.9391933022,
				"z": -2.073974995,
				"element": "C" 
			},
			{
				"x": 1.7292651819,
				"y": -3.2821944423,
				"z": -2.4374359129,
				"element": "C" 
			},
			{
				"x": 2.5078225726,
				"y": -4.2028617594,
				"z": -1.7337407663,
				"element": "C" 
			},
			{
				"x": 3.2988670154,
				"y": -3.7832653071,
				"z": -0.6656024792,
				"element": "C" 
			},
			{
				"x": 3.3145782364,
				"y": -2.4351187426,
				"z": -0.3097214167,
				"element": "C" 
			},
			{
				"x": 4.2891570573,
				"y": -1.9417565966,
				"z": 1.063007927,
				"element": "Cl" 
			},
			{
				"x": -0.3959647487,
				"y": 4.2720359736,
				"z": -1.9912786554,
				"element": "H" 
			},
			{
				"x": -1.7542901745,
				"y": 3.955678101,
				"z": -3.0914319624,
				"element": "H" 
			},
			{
				"x": -2.0650982906,
				"y": 4.378191056,
				"z": -1.3948670874,
				"element": "H" 
			},
			{
				"x": -2.3596307849,
				"y": 1.9082916808,
				"z": -1.7608487875,
				"element": "H" 
			},
			{
				"x": -0.6903760424,
				"y": 1.8032840901,
				"z": -2.3691977055,
				"element": "H" 
			},
			{
				"x": -1.1301688578,
				"y": -0.0073802119,
				"z": 3.1466240587,
				"element": "H" 
			},
			{
				"x": 0.5765694257,
				"y": -0.2591498101,
				"z": 2.7113189904,
				"element": "H" 
			},
			{
				"x": 1.2029476885,
				"y": 1.8409855722,
				"z": 3.9453659999,
				"element": "H" 
			},
			{
				"x": 0.3882886614,
				"y": 0.6906700239,
				"z": 5.025774884,
				"element": "H" 
			},
			{
				"x": -0.499415627,
				"y": 2.0891284724,
				"z": 4.3855554529,
				"element": "H" 
			},
			{
				"x": 1.1422654148,
				"y": -1.218983774,
				"z": -2.6129770435,
				"element": "H" 
			},
			{
				"x": 1.1077707173,
				"y": -3.6083470368,
				"z": -3.2648945027,
				"element": "H" 
			},
			{
				"x": 2.4982799479,
				"y": -5.2526269443,
				"z": -2.0103571212,
				"element": "H" 
			},
			{
				"x": 3.8991533221,
				"y": -4.4898287442,
				"z": -0.1036699489,
				"element": "H" 
			}
		],
		 "valence_orbital": [ 
			{
				"type": "occ",
				"energy": -0.30223,
				"method": "rhf"
			},
			{
				"type": "occ",
				"energy": -0.27869,
				"method": "rhf"
			},
			{
				"type": "occ",
				"energy": -0.26631,
				"method": "rhf"
			},
			{
				"type": "occ",
				"energy": -0.25197,
				"method": "rhf"
			},
			{
				"type": "occ",
				"energy": -0.25061,
				"method": "rhf"
			},
			{
				"type": "unocc",
				"energy": -0.08309,
				"method": "rhf"
			},
			{
				"type": "unocc",
				"energy": -0.03734,
				"method": "rhf"
			},
			{
				"type": "unocc",
				"energy": -0.03091,
				"method": "rhf"
			},
			{
				"type": "unocc",
				"energy": 0.00146,
				"method": "rhf"
			},
			{
				"type": "unocc",
				"energy": 0.02062,
				"method": "rhf"
			}
		],
		"cosmo_sigma_profile": { 
			"-0.025": 0.0,
			"-0.024": 0.0,
			"-0.023": 0.0,
			"-0.022": 0.0,
			"-0.021": 0.0,
			"-0.02": 0.0,
			"-0.019": 0.0,
			"-0.018": 0.0,
			"-0.017": 0.0,
			"-0.016": 0.0,
			"-0.015": 0.0,
			"-0.014": 0.0,
			"-0.013": 0.0,
			"-0.012": 0.0,
			"-0.011": 0.0,
			"-0.01": 0.0,
			"-0.009": 0.0,
			"-0.008": 3.41882934056,
			"-0.007": 10.8969208691,
			"-0.006": 17.4917315148,
			"-0.005": 30.7710196875,
			"-0.004": 34.4486283316,
			"-0.003": 30.3833596327,
			"-0.002": 28.6585326031,
			"-0.001": 31.1243049472,
			"0.0": 30.3561886828,
			"0.001": 24.7934957554,
			"0.002": 23.9910405988,
			"0.003": 21.4136430499,
			"0.004": 15.8024661453,
			"0.005": 10.492994909,
			"0.006": 13.0211569637,
			"0.007": 12.4318534753,
			"0.008": 14.1487425527,
			"0.009": 9.88958089694,
			"0.01": 3.48757938589,
			"0.011": 2.06994162856,
			"0.012": 0.391356745156,
			"0.013": 0.0,
			"0.014": 0.0,
			"0.015": 0.0,
			"0.016": 0.0,
			"0.017": 0.0,
			"0.018": 0.0,
			"0.019": 0.0,
			"0.02": 0.0,
			"0.021": 0.0,
			"0.022": 0.0,
			"0.023": 0.0,
			"0.024": 0.0,
			"0.025": 0.0
		}
	}
}
