{
	 "smiles": "OC(=O)C1=CC=C(C=C1)N1CC=CC1", 
	 "Tm": 559.15, 
	 "num_atms": 25, 
	 "gaussian": { 
		 "optdone": 1, 
		 "sigma_profile": "yes", 
		 "theory": "DFT", 
		 "functional": "B3LYP", 
		 "basiset": "6-31G**", 
		 "properties": { 
			 "R2extent": 3828.2123, 
			 "electric_dipole_moment_norm": 7.74152045208, 
			 "electric_quadrupole_moment_norm": 21.7956323694, 
			 "total_energy": -630.984296203, 
			 "HOMO_LUMO_gap": 0.17623, 
			 "cosmo_polarized_energy": -16.96, 
			 "cosmo_cavitation_energy": 28.52, 
			 "cosmo_dispersion_energy": -21.25, 
			 "cosmo_repulsion_energy": 1.65, 
			 "cosmo_total_nonelectrostatic_energy": 8.91, 
			 "SMD_solvation_energy": 4.95 
		},
		"coords": [
			{
				"x": 4.1841757964,
				"y": -0.6019055198,
				"z": 1.4633327009,
				"element": "O" 
			},
			{
				"x": 3.6852981301,
				"y": 0.2529011166,
				"z": 0.5219243516,
				"element": "C" 
			},
			{
				"x": 4.417383681,
				"y": 1.0800357518,
				"z": 0.0250223024,
				"element": "O" 
			},
			{
				"x": 2.2472488538,
				"y": 0.1031472241,
				"z": 0.1708317654,
				"element": "C" 
			},
			{
				"x": 1.4798666289,
				"y": -1.0354470207,
				"z": 0.4625589874,
				"element": "C" 
			},
			{
				"x": 0.1435792081,
				"y": -1.1231817014,
				"z": 0.0983912911,
				"element": "C" 
			},
			{
				"x": -0.4892603253,
				"y": -0.0563578742,
				"z": -0.584216461,
				"element": "C" 
			},
			{
				"x": 0.2915021107,
				"y": 1.0860134455,
				"z": -0.8924795804,
				"element": "C" 
			},
			{
				"x": 1.6253403705,
				"y": 1.1505827538,
				"z": -0.5281032421,
				"element": "C" 
			},
			{
				"x": -1.8103196845,
				"y": -0.1287188921,
				"z": -0.9405841071,
				"element": "N" 
			},
			{
				"x": -2.5208055856,
				"y": 0.9301743036,
				"z": -1.6571617835,
				"element": "C" 
			},
			{
				"x": -3.9050376691,
				"y": 0.3571269739,
				"z": -1.7973311507,
				"element": "C" 
			},
			{
				"x": -3.9866680673,
				"y": -0.854162932,
				"z": -1.2492912703,
				"element": "C" 
			},
			{
				"x": -2.6691940525,
				"y": -1.2778808525,
				"z": -0.6583596824,
				"element": "C" 
			},
			{
				"x": 3.4599808852,
				"y": -1.076486265,
				"z": 1.8931016355,
				"element": "H" 
			},
			{
				"x": 1.9284551456,
				"y": -1.8988095016,
				"z": 0.9500236073,
				"element": "H" 
			},
			{
				"x": -0.4105934032,
				"y": -2.0247547983,
				"z": 0.3318485627,
				"element": "H" 
			},
			{
				"x": -0.1540473853,
				"y": 1.9200815579,
				"z": -1.4222778591,
				"element": "H" 
			},
			{
				"x": 2.2207034172,
				"y": 2.0231420256,
				"z": -0.7758397548,
				"element": "H" 
			},
			{
				"x": -2.0591945678,
				"y": 1.1429305872,
				"z": -2.6352436516,
				"element": "H" 
			},
			{
				"x": -2.5187469624,
				"y": 1.877216812,
				"z": -1.0932953618,
				"element": "H" 
			},
			{
				"x": -4.7064337601,
				"y": 0.8951742441,
				"z": -2.2901561215,
				"element": "H" 
			},
			{
				"x": -4.8667598803,
				"y": -1.4856143781,
				"z": -1.2129476959,
				"element": "H" 
			},
			{
				"x": -2.7435405474,
				"y": -1.4760690212,
				"z": 0.4235558714,
				"element": "H" 
			},
			{
				"x": -2.2843323366,
				"y": -2.2004380391,
				"z": -1.1235033532,
				"element": "H" 
			}
		],
		 "valence_orbital": [ 
			{
				"type": "occ",
				"energy": -0.29506,
				"method": "rhf"
			},
			{
				"type": "occ",
				"energy": -0.26604,
				"method": "rhf"
			},
			{
				"type": "occ",
				"energy": -0.26051,
				"method": "rhf"
			},
			{
				"type": "occ",
				"energy": -0.25529,
				"method": "rhf"
			},
			{
				"type": "occ",
				"energy": -0.20383,
				"method": "rhf"
			},
			{
				"type": "unocc",
				"energy": -0.0276,
				"method": "rhf"
			},
			{
				"type": "unocc",
				"energy": -0.01211,
				"method": "rhf"
			},
			{
				"type": "unocc",
				"energy": 0.00356,
				"method": "rhf"
			},
			{
				"type": "unocc",
				"energy": 0.06571,
				"method": "rhf"
			},
			{
				"type": "unocc",
				"energy": 0.07418,
				"method": "rhf"
			}
		],
		"cosmo_sigma_profile": { 
			"-0.025": 0.0,
			"-0.024": 0.0,
			"-0.023": 0.0,
			"-0.022": 0.0,
			"-0.021": 0.0,
			"-0.02": 0.0,
			"-0.019": 0.0,
			"-0.018": 0.365372370523,
			"-0.017": 0.906793511771,
			"-0.016": 1.02603948739,
			"-0.015": 1.08346726042,
			"-0.014": 0.708994370697,
			"-0.013": 0.63365893453,
			"-0.012": 0.900844959168,
			"-0.011": 1.61151372621,
			"-0.01": 0.909511177057,
			"-0.009": 1.11450124141,
			"-0.008": 1.52627798938,
			"-0.007": 3.60109221047,
			"-0.006": 10.1799503834,
			"-0.005": 22.5897536886,
			"-0.004": 23.4708965416,
			"-0.003": 20.9709743532,
			"-0.002": 13.1344007978,
			"-0.001": 12.1284282979,
			"0.0": 11.6216160765,
			"0.001": 13.9008952012,
			"0.002": 12.3263814447,
			"0.003": 13.35521104,
			"0.004": 14.0426889408,
			"0.005": 13.705935263,
			"0.006": 3.53061382411,
			"0.007": 2.62720646524,
			"0.008": 2.80657874211,
			"0.009": 2.2606743604,
			"0.01": 3.73662529293,
			"0.011": 4.64624832442,
			"0.012": 5.53855120841,
			"0.013": 4.6342587389,
			"0.014": 1.50361311309,
			"0.015": 0.054313654608,
			"0.016": 0.0,
			"0.017": 0.0,
			"0.018": 0.0,
			"0.019": 0.0,
			"0.02": 0.0,
			"0.021": 0.0,
			"0.022": 0.0,
			"0.023": 0.0,
			"0.024": 0.0,
			"0.025": 0.0
		}
	}
}
