{
	 "smiles": "COC1=CC(OC)=C(Br)C=C1S(N)(=O)=O", 
	 "Tm": 531.15, 
	 "num_atms": 25, 
	 "gaussian": { 
		 "optdone": 1, 
		 "sigma_profile": "yes", 
		 "theory": "DFT", 
		 "functional": "B3LYP", 
		 "basiset": "6-31G**", 
		 "properties": { 
			 "R2extent": 6038.0257, 
			 "electric_dipole_moment_norm": 2.56219160291, 
			 "electric_quadrupole_moment_norm": 26.4041799856, 
			 "total_energy": -3636.00932912, 
			 "HOMO_LUMO_gap": 0.19655, 
			 "cosmo_polarized_energy": -19.81, 
			 "cosmo_cavitation_energy": 32.77, 
			 "cosmo_dispersion_energy": -24.3, 
			 "cosmo_repulsion_energy": 1.89, 
			 "cosmo_total_nonelectrostatic_energy": 10.37, 
			 "SMD_solvation_energy": 5.88 
		},
		"coords": [
			{
				"x": -3.573036657,
				"y": 2.1663214028,
				"z": -0.7850887521,
				"element": "C" 
			},
			{
				"x": -2.2318063223,
				"y": 2.0659683495,
				"z": -0.3227860633,
				"element": "O" 
			},
			{
				"x": -1.3961816951,
				"y": 1.1880806861,
				"z": -0.9171513658,
				"element": "C" 
			},
			{
				"x": -1.746240061,
				"y": 0.3604670468,
				"z": -1.9865890627,
				"element": "C" 
			},
			{
				"x": -0.8181596532,
				"y": -0.5272572269,
				"z": -2.543768855,
				"element": "C" 
			},
			{
				"x": -1.2335102646,
				"y": -1.3505712725,
				"z": -3.5529945304,
				"element": "O" 
			},
			{
				"x": -0.9249176126,
				"y": -0.8986486944,
				"z": -4.8775671598,
				"element": "C" 
			},
			{
				"x": 0.4788282789,
				"y": -0.5854767544,
				"z": -2.0208514658,
				"element": "C" 
			},
			{
				"x": 1.753714443,
				"y": -1.8116028104,
				"z": -2.7299625975,
				"element": "Br" 
			},
			{
				"x": 0.84185273,
				"y": 0.2378314871,
				"z": -0.9562450451,
				"element": "C" 
			},
			{
				"x": -0.081051044,
				"y": 1.1213989464,
				"z": -0.4062006638,
				"element": "C" 
			},
			{
				"x": 0.3467954937,
				"y": 2.1997441917,
				"z": 0.9665063847,
				"element": "S" 
			},
			{
				"x": 1.9672975845,
				"y": 1.7853100382,
				"z": 1.2493579804,
				"element": "N" 
			},
			{
				"x": -0.4165267305,
				"y": 1.7831710373,
				"z": 2.1446695155,
				"element": "O" 
			},
			{
				"x": 0.3355771749,
				"y": 3.5851778118,
				"z": 0.4915765005,
				"element": "O" 
			},
			{
				"x": -3.6104398167,
				"y": 2.4879323008,
				"z": -1.8328290073,
				"element": "H" 
			},
			{
				"x": -4.0444314467,
				"y": 2.9215942045,
				"z": -0.1566072086,
				"element": "H" 
			},
			{
				"x": -4.1049836692,
				"y": 1.2140305183,
				"z": -0.6738987467,
				"element": "H" 
			},
			{
				"x": -2.7443712085,
				"y": 0.3688219014,
				"z": -2.4056100822,
				"element": "H" 
			},
			{
				"x": -1.4005277848,
				"y": 0.0688875366,
				"z": -5.0810345032,
				"element": "H" 
			},
			{
				"x": -1.3276377501,
				"y": -1.6524083441,
				"z": -5.555875096,
				"element": "H" 
			},
			{
				"x": 0.1563872736,
				"y": -0.8141813553,
				"z": -5.0281726842,
				"element": "H" 
			},
			{
				"x": 1.8418500958,
				"y": 0.1948375009,
				"z": -0.5454456068,
				"element": "H" 
			},
			{
				"x": 2.0516890928,
				"y": 1.4170461258,
				"z": 2.1930172161,
				"element": "H" 
			},
			{
				"x": 2.5437295491,
				"y": 2.6122253719,
				"z": 1.1185508992,
				"element": "H" 
			}
		],
		 "valence_orbital": [ 
			{
				"type": "occ",
				"energy": -0.2933,
				"method": "rhf"
			},
			{
				"type": "occ",
				"energy": -0.28862,
				"method": "rhf"
			},
			{
				"type": "occ",
				"energy": -0.28651,
				"method": "rhf"
			},
			{
				"type": "occ",
				"energy": -0.26611,
				"method": "rhf"
			},
			{
				"type": "occ",
				"energy": -0.23128,
				"method": "rhf"
			},
			{
				"type": "unocc",
				"energy": -0.03473,
				"method": "rhf"
			},
			{
				"type": "unocc",
				"energy": -0.01627,
				"method": "rhf"
			},
			{
				"type": "unocc",
				"energy": -0.00114,
				"method": "rhf"
			},
			{
				"type": "unocc",
				"energy": 0.0497,
				"method": "rhf"
			},
			{
				"type": "unocc",
				"energy": 0.07961,
				"method": "rhf"
			}
		],
		"cosmo_sigma_profile": { 
			"-0.025": 0.0,
			"-0.024": 0.0,
			"-0.023": 0.0,
			"-0.022": 0.0,
			"-0.021": 0.0,
			"-0.02": 0.0,
			"-0.019": 0.0,
			"-0.018": 0.0,
			"-0.017": 0.0,
			"-0.016": 0.00453849723506,
			"-0.015": 1.3277544171,
			"-0.014": 2.61507871815,
			"-0.013": 2.71859468409,
			"-0.012": 2.77642715829,
			"-0.011": 1.3573486537,
			"-0.01": 1.79724061276,
			"-0.009": 1.98089834618,
			"-0.008": 3.61174014937,
			"-0.007": 7.91671117795,
			"-0.006": 14.155442426,
			"-0.005": 17.8239656457,
			"-0.004": 23.3321689446,
			"-0.003": 21.3917988608,
			"-0.002": 15.4709634807,
			"-0.001": 13.8539764123,
			"0.0": 16.8396689639,
			"0.001": 22.7763558969,
			"0.002": 13.0732757918,
			"0.003": 10.1347388546,
			"0.004": 12.1282860449,
			"0.005": 6.25641854757,
			"0.006": 5.28699780351,
			"0.007": 4.49225864013,
			"0.008": 4.90427992771,
			"0.009": 6.08049246194,
			"0.01": 10.854918981,
			"0.011": 13.8128212984,
			"0.012": 5.07243180995,
			"0.013": 0.000689510919556,
			"0.014": 0.0,
			"0.015": 0.0,
			"0.016": 0.0,
			"0.017": 0.0,
			"0.018": 0.0,
			"0.019": 0.0,
			"0.02": 0.0,
			"0.021": 0.0,
			"0.022": 0.0,
			"0.023": 0.0,
			"0.024": 0.0,
			"0.025": 0.0
		}
	}
}
