{
	 "smiles": "OC(=O)C1=C(OCC2=CC=C(F)C=C2)C=CC=C1", 
	 "Tm": 355.15, 
	 "num_atms": 29, 
	 "gaussian": { 
		 "optdone": 1, 
		 "sigma_profile": "yes", 
		 "theory": "DFT", 
		 "functional": "B3LYP", 
		 "basiset": "6-31G**", 
		 "properties": { 
			 "R2extent": 5171.6274, 
			 "electric_dipole_moment_norm": 6.29562232825, 
			 "electric_quadrupole_moment_norm": 14.767082141, 
			 "total_energy": -865.630258109, 
			 "HOMO_LUMO_gap": 0.2013, 
			 "cosmo_polarized_energy": -16.12, 
			 "cosmo_cavitation_energy": 34.17, 
			 "cosmo_dispersion_energy": -23.69, 
			 "cosmo_repulsion_energy": 1.79, 
			 "cosmo_total_nonelectrostatic_energy": 12.28, 
			 "SMD_solvation_energy": 7.43 
		},
		"coords": [
			{
				"x": -0.256301955,
				"y": -2.0770165008,
				"z": -1.8453011374,
				"element": "O" 
			},
			{
				"x": 0.9887551302,
				"y": -2.0258654556,
				"z": -1.3290249815,
				"element": "C" 
			},
			{
				"x": 1.9164143271,
				"y": -2.5470653843,
				"z": -1.908669385,
				"element": "O" 
			},
			{
				"x": 1.1806077299,
				"y": -1.2818057348,
				"z": -0.0294868546,
				"element": "C" 
			},
			{
				"x": 0.1714346441,
				"y": -0.6017338873,
				"z": 0.6856063377,
				"element": "C" 
			},
			{
				"x": -1.1211079792,
				"y": -0.7063281796,
				"z": 0.2053443777,
				"element": "O" 
			},
			{
				"x": -2.0989839159,
				"y": 0.3070540995,
				"z": 0.5030492115,
				"element": "C" 
			},
			{
				"x": -1.7832464539,
				"y": 1.647474123,
				"z": -0.1211113796,
				"element": "C" 
			},
			{
				"x": -2.0535769791,
				"y": 2.8315841356,
				"z": 0.5729838843,
				"element": "C" 
			},
			{
				"x": -1.8227266116,
				"y": 4.0759328171,
				"z": -0.0144527688,
				"element": "C" 
			},
			{
				"x": -1.3049280221,
				"y": 4.1155232308,
				"z": -1.3034001402,
				"element": "C" 
			},
			{
				"x": -1.0705107354,
				"y": 5.311899656,
				"z": -1.8769650838,
				"element": "F" 
			},
			{
				"x": -1.0157252176,
				"y": 2.956642265,
				"z": -2.0176645984,
				"element": "C" 
			},
			{
				"x": -1.2630644556,
				"y": 1.7227053633,
				"z": -1.4209058129,
				"element": "C" 
			},
			{
				"x": 0.4806900959,
				"y": 0.1055400253,
				"z": 1.8499355057,
				"element": "C" 
			},
			{
				"x": 1.7923212983,
				"y": 0.1243206806,
				"z": 2.3224907191,
				"element": "C" 
			},
			{
				"x": 2.8013694103,
				"y": -0.5568731977,
				"z": 1.640393383,
				"element": "C" 
			},
			{
				"x": 2.4880342731,
				"y": -1.2478514377,
				"z": 0.4751751864,
				"element": "C" 
			},
			{
				"x": -0.8762146132,
				"y": -1.6507042474,
				"z": -1.2218285246,
				"element": "H" 
			},
			{
				"x": -2.238036109,
				"y": 0.3952101053,
				"z": 1.5859741485,
				"element": "H" 
			},
			{
				"x": -3.022385013,
				"y": -0.1128629763,
				"z": 0.0923718836,
				"element": "H" 
			},
			{
				"x": -2.4508185284,
				"y": 2.7878980653,
				"z": 1.5841400805,
				"element": "H" 
			},
			{
				"x": -2.0266429882,
				"y": 5.0022271602,
				"z": 0.5112784963,
				"element": "H" 
			},
			{
				"x": -0.6066210296,
				"y": 3.0319553067,
				"z": -3.0191579504,
				"element": "H" 
			},
			{
				"x": -1.0346755747,
				"y": 0.8104162603,
				"z": -1.9639823083,
				"element": "H" 
			},
			{
				"x": -0.2907243637,
				"y": 0.6395814507,
				"z": 2.3907971798,
				"element": "H" 
			},
			{
				"x": 2.0199541695,
				"y": 0.6760203767,
				"z": 3.2299552418,
				"element": "H" 
			},
			{
				"x": 3.8215865009,
				"y": -0.5422039533,
				"z": 2.0099011836,
				"element": "H" 
			},
			{
				"x": 3.2464229658,
				"y": -1.7763741666,
				"z": -0.0919458941,
				"element": "H" 
			}
		],
		 "valence_orbital": [ 
			{
				"type": "occ",
				"energy": -0.27568,
				"method": "rhf"
			},
			{
				"type": "occ",
				"energy": -0.26648,
				"method": "rhf"
			},
			{
				"type": "occ",
				"energy": -0.26282,
				"method": "rhf"
			},
			{
				"type": "occ",
				"energy": -0.25607,
				"method": "rhf"
			},
			{
				"type": "occ",
				"energy": -0.24742,
				"method": "rhf"
			},
			{
				"type": "unocc",
				"energy": -0.04612,
				"method": "rhf"
			},
			{
				"type": "unocc",
				"energy": -0.0289,
				"method": "rhf"
			},
			{
				"type": "unocc",
				"energy": -0.02086,
				"method": "rhf"
			},
			{
				"type": "unocc",
				"energy": -0.0085,
				"method": "rhf"
			},
			{
				"type": "unocc",
				"energy": 0.059,
				"method": "rhf"
			}
		],
		"cosmo_sigma_profile": { 
			"-0.025": 0.0,
			"-0.024": 0.0,
			"-0.023": 0.0,
			"-0.022": 0.0,
			"-0.021": 0.0,
			"-0.02": 0.0,
			"-0.019": 0.0,
			"-0.018": 0.0,
			"-0.017": 0.0,
			"-0.016": 0.0,
			"-0.015": 0.0,
			"-0.014": 0.0,
			"-0.013": 0.0,
			"-0.012": 0.0,
			"-0.011": 0.0,
			"-0.01": 0.262484620758,
			"-0.009": 2.60772120969,
			"-0.008": 6.3817843959,
			"-0.007": 15.5527653747,
			"-0.006": 18.9713152752,
			"-0.005": 21.5878294095,
			"-0.004": 18.6314694918,
			"-0.003": 15.7124691543,
			"-0.002": 14.2518963459,
			"-0.001": 11.6847620534,
			"0.0": 17.6612185417,
			"0.001": 21.5253806809,
			"0.002": 23.3901002554,
			"0.003": 26.7469901602,
			"0.004": 25.3396460687,
			"0.005": 6.10045137974,
			"0.006": 2.2852190273,
			"0.007": 1.79094151958,
			"0.008": 2.95256931937,
			"0.009": 2.36302708324,
			"0.01": 3.76109628942,
			"0.011": 5.07078184427,
			"0.012": 6.22806723193,
			"0.013": 2.82556173226,
			"0.014": 0.734713745697,
			"0.015": 0.0,
			"0.016": 0.0,
			"0.017": 0.0,
			"0.018": 0.0,
			"0.019": 0.0,
			"0.02": 0.0,
			"0.021": 0.0,
			"0.022": 0.0,
			"0.023": 0.0,
			"0.024": 0.0,
			"0.0": 0.0
		}
	}
}
