{
	 "smiles": "CCC1=C(OC2=C1C=CC=C2)C(C)O", 
	 "Tm": 340.15, 
	 "num_atms": 28, 
	 "gaussian": { 
		 "optdone": 1, 
		 "sigma_profile": "yes", 
		 "theory": "DFT", 
		 "functional": "B3LYP", 
		 "basiset": "6-31G**", 
		 "properties": { 
			 "R2extent": 3387.2889, 
			 "electric_dipole_moment_norm": 1.2436738841, 
			 "electric_quadrupole_moment_norm": 8.24100491809, 
			 "total_energy": -616.162457339, 
			 "HOMO_LUMO_gap": 0.19548, 
			 "cosmo_polarized_energy": -7.93, 
			 "cosmo_cavitation_energy": 30.97, 
			 "cosmo_dispersion_energy": -21.81, 
			 "cosmo_repulsion_energy": 1.74, 
			 "cosmo_total_nonelectrostatic_energy": 10.91, 
			 "SMD_solvation_energy": 5.34 
		},
		"coords": [
			{
				"x": -2.7704100407,
				"y": -0.3883100096,
				"z": -2.9069542751,
				"element": "C" 
			},
			{
				"x": -2.9499239792,
				"y": 0.0101496998,
				"z": -1.4303943284,
				"element": "C" 
			},
			{
				"x": -1.7486362303,
				"y": -0.3018190853,
				"z": -0.5825384048,
				"element": "C" 
			},
			{
				"x": -0.8135390259,
				"y": 0.5623394084,
				"z": -0.0982855737,
				"element": "C" 
			},
			{
				"x": 0.1771970312,
				"y": -0.0949927091,
				"z": 0.6172390702,
				"element": "O" 
			},
			{
				"x": -0.1405618062,
				"y": -1.4258232364,
				"z": 0.5838969434,
				"element": "C" 
			},
			{
				"x": -1.3282303971,
				"y": -1.6197576429,
				"z": -0.1427442601,
				"element": "C" 
			},
			{
				"x": -1.8295348478,
				"y": -2.9231802189,
				"z": -0.2795503988,
				"element": "C" 
			},
			{
				"x": -1.1250985269,
				"y": -3.9717294357,
				"z": 0.3079306432,
				"element": "C" 
			},
			{
				"x": 0.0632228184,
				"y": -3.7424966219,
				"z": 1.025461626,
				"element": "C" 
			},
			{
				"x": 0.5791519547,
				"y": -2.4550053866,
				"z": 1.1775378578,
				"element": "C" 
			},
			{
				"x": -0.6159953728,
				"y": 2.045476493,
				"z": -0.1941660899,
				"element": "C" 
			},
			{
				"x": -0.6269534038,
				"y": 2.7273021778,
				"z": 1.1803540169,
				"element": "C" 
			},
			{
				"x": 0.5812166831,
				"y": 2.3561384626,
				"z": -0.912958448,
				"element": "O" 
			},
			{
				"x": -3.6770843312,
				"y": -0.1720367296,
				"z": -3.4814546722,
				"element": "H" 
			},
			{
				"x": -2.553426952,
				"y": -1.4563710814,
				"z": -3.0060731441,
				"element": "H" 
			},
			{
				"x": -1.9391932733,
				"y": 0.1617348432,
				"z": -3.3584651503,
				"element": "H" 
			},
			{
				"x": -3.8235838885,
				"y": -0.5112153253,
				"z": -1.0177474415,
				"element": "H" 
			},
			{
				"x": -3.1808683389,
				"y": 1.0792661999,
				"z": -1.3693249762,
				"element": "H" 
			},
			{
				"x": -2.7464322899,
				"y": -3.1137165625,
				"z": -0.8296546307,
				"element": "H" 
			},
			{
				"x": -1.498057932,
				"y": -4.9871606176,
				"z": 0.2117357486,
				"element": "H" 
			},
			{
				"x": 0.5883165448,
				"y": -4.5819403912,
				"z": 1.4711295828,
				"element": "H" 
			},
			{
				"x": 1.4918071451,
				"y": -2.2602858711,
				"z": 1.7304753892,
				"element": "H" 
			},
			{
				"x": -1.4278810451,
				"y": 2.4524796458,
				"z": -0.8048171642,
				"element": "H" 
			},
			{
				"x": -0.449103503,
				"y": 3.7991080767,
				"z": 1.0583284924,
				"element": "H" 
			},
			{
				"x": 0.1578197147,
				"y": 2.3122806939,
				"z": 1.8208349432,
				"element": "H" 
			},
			{
				"x": -1.5872691183,
				"y": 2.5817020145,
				"z": 1.6857447088,
				"element": "H" 
			},
			{
				"x": 1.3034524106,
				"y": 1.8902632095,
				"z": -0.4688400644,
				"element": "H" 
			}
		],
		 "valence_orbital": [ 
			{
				"type": "occ",
				"energy": -0.32591,
				"method": "rhf"
			},
			{
				"type": "occ",
				"energy": -0.28067,
				"method": "rhf"
			},
			{
				"type": "occ",
				"energy": -0.2715,
				"method": "rhf"
			},
			{
				"type": "occ",
				"energy": -0.23523,
				"method": "rhf"
			},
			{
				"type": "occ",
				"energy": -0.21417,
				"method": "rhf"
			},
			{
				"type": "unocc",
				"energy": -0.01869,
				"method": "rhf"
			},
			{
				"type": "unocc",
				"energy": 0.01373,
				"method": "rhf"
			},
			{
				"type": "unocc",
				"energy": 0.05085,
				"method": "rhf"
			},
			{
				"type": "unocc",
				"energy": 0.08447,
				"method": "rhf"
			},
			{
				"type": "unocc",
				"energy": 0.08779,
				"method": "rhf"
			}
		],
		"cosmo_sigma_profile": { 
			"-0.025": 0.0,
			"-0.024": 0.0,
			"-0.023": 0.0,
			"-0.022": 0.0,
			"-0.021": 0.0,
			"-0.02": 0.0,
			"-0.019": 0.0,
			"-0.018": 0.0,
			"-0.017": 0.0,
			"-0.016": 0.0,
			"-0.015": 0.0386396785791,
			"-0.014": 0.640953949938,
			"-0.013": 0.670252157326,
			"-0.012": 0.322724267925,
			"-0.011": 1.00848736744,
			"-0.01": 0.679628628436,
			"-0.009": 0.287627042021,
			"-0.008": 0.733113555848,
			"-0.007": 2.3132243617,
			"-0.006": 7.45929477561,
			"-0.005": 11.6450655277,
			"-0.004": 19.0663440117,
			"-0.003": 26.1206538853,
			"-0.002": 24.8624574375,
			"-0.001": 24.2395496792,
			"0.0": 24.9991666016,
			"0.001": 21.8290196609,
			"0.002": 16.4230906245,
			"0.003": 15.114605935,
			"0.004": 13.7378218973,
			"0.005": 11.6363400533,
			"0.006": 8.16046663205,
			"0.007": 2.12954781871,
			"0.008": 1.20147887466,
			"0.009": 0.788063777248,
			"0.01": 1.20472244787,
			"0.011": 1.298793726,
			"0.012": 1.68861837665,
			"0.013": 1.52097542822,
			"0.014": 2.30524070671,
			"0.015": 0.126926853997,
			"0.016": 0.0,
			"0.017": 0.0,
			"0.018": 0.0,
			"0.019": 0.0,
			"0.02": 0.0,
			"0.021": 0.0,
			"0.022": 0.0,
			"0.023": 0.0,
			"0.024": 0.0,
			"0.025": 0.0
		}
	}
}
