{
	 "smiles": "OC(=O)CNC(=O)C1=C(F)C=C(F)C=C1", 
	 "Tm": 413.15, 
	 "num_atms": 22, 
	 "gaussian": { 
		 "optdone": 1, 
		 "sigma_profile": "yes", 
		 "theory": "DFT", 
		 "functional": "B3LYP", 
		 "basiset": "6-31G**", 
		 "properties": { 
			 "R2extent": 4497.7451, 
			 "electric_dipole_moment_norm": 5.96668530761, 
			 "electric_quadrupole_moment_norm": 22.1617688091, 
			 "total_energy": -827.299944438, 
			 "HOMO_LUMO_gap": 0.18682, 
			 "cosmo_polarized_energy": -15.39, 
			 "cosmo_cavitation_energy": 27.85, 
			 "cosmo_dispersion_energy": -20.48, 
			 "cosmo_repulsion_energy": 1.55, 
			 "cosmo_total_nonelectrostatic_energy": 8.92, 
			 "SMD_solvation_energy": 6.67 
		},
		"coords": [
			{
				"x": -2.3286536683,
				"y": 3.5259312336,
				"z": 1.7043503571,
				"element": "O" 
			},
			{
				"x": -1.4632088807,
				"y": 3.1603593324,
				"z": 2.6576907644,
				"element": "C" 
			},
			{
				"x": -1.7325018549,
				"y": 3.1985633719,
				"z": 3.8347932356,
				"element": "O" 
			},
			{
				"x": -0.0736172919,
				"y": 2.7189519861,
				"z": 2.1530015501,
				"element": "C" 
			},
			{
				"x": -0.0924644403,
				"y": 1.5849884416,
				"z": 1.2312399544,
				"element": "N" 
			},
			{
				"x": -0.4777193751,
				"y": 1.7200093273,
				"z": -0.0587529837,
				"element": "C" 
			},
			{
				"x": -0.9401676818,
				"y": 2.7946885775,
				"z": -0.4811066696,
				"element": "O" 
			},
			{
				"x": -0.3372074427,
				"y": 0.5510253027,
				"z": -0.9838617146,
				"element": "C" 
			},
			{
				"x": 0.1888906046,
				"y": -0.7067545896,
				"z": -0.6623954601,
				"element": "C" 
			},
			{
				"x": 0.6276865708,
				"y": -0.9645711867,
				"z": 0.5977275748,
				"element": "F" 
			},
			{
				"x": 0.2915031072,
				"y": -1.7428990662,
				"z": -1.5783846787,
				"element": "C" 
			},
			{
				"x": -0.1528256436,
				"y": -1.5032002135,
				"z": -2.8738586535,
				"element": "C" 
			},
			{
				"x": -0.0619540446,
				"y": -2.4918798633,
				"z": -3.7751357138,
				"element": "F" 
			},
			{
				"x": -0.686540275,
				"y": -0.2756118942,
				"z": -3.2582690924,
				"element": "C" 
			},
			{
				"x": -0.7726777555,
				"y": 0.7336555281,
				"z": -2.3080702191,
				"element": "C" 
			},
			{
				"x": -1.90699678,
				"y": 3.4341951638,
				"z": 0.8147627035,
				"element": "H" 
			},
			{
				"x": 0.4023503653,
				"y": 3.5709908667,
				"z": 1.652670475,
				"element": "H" 
			},
			{
				"x": 0.5173302234,
				"y": 2.4433883007,
				"z": 3.0253250342,
				"element": "H" 
			},
			{
				"x": 0.2317365448,
				"y": 0.6871029703,
				"z": 1.5560758599,
				"element": "H" 
			},
			{
				"x": 0.7031443934,
				"y": -2.7018889721,
				"z": -1.2893133513,
				"element": "H" 
			},
			{
				"x": -1.0230319409,
				"y": -0.1302495087,
				"z": -4.27811899,
				"element": "H" 
			},
			{
				"x": -1.1818747344,
				"y": 1.7048048914,
				"z": -2.562069982,
				"element": "H" 
			}
		],
		 "valence_orbital": [ 
			{
				"type": "occ",
				"energy": -0.30007,
				"method": "rhf"
			},
			{
				"type": "occ",
				"energy": -0.29119,
				"method": "rhf"
			},
			{
				"type": "occ",
				"energy": -0.28816,
				"method": "rhf"
			},
			{
				"type": "occ",
				"energy": -0.27942,
				"method": "rhf"
			},
			{
				"type": "occ",
				"energy": -0.25364,
				"method": "rhf"
			},
			{
				"type": "unocc",
				"energy": -0.06682,
				"method": "rhf"
			},
			{
				"type": "unocc",
				"energy": -0.03779,
				"method": "rhf"
			},
			{
				"type": "unocc",
				"energy": 0.01269,
				"method": "rhf"
			},
			{
				"type": "unocc",
				"energy": 0.03317,
				"method": "rhf"
			},
			{
				"type": "unocc",
				"energy": 0.05435,
				"method": "rhf"
			}
		],
		"cosmo_sigma_profile": { 
			"-0.025": 0.0,
			"-0.024": 0.0,
			"-0.023": 0.0,
			"-0.022": 0.0,
			"-0.021": 0.0,
			"-0.02": 0.0,
			"-0.019": 0.0,
			"-0.018": 0.0,
			"-0.017": 0.0,
			"-0.016": 0.0,
			"-0.015": 0.0758826243153,
			"-0.014": 0.796512239593,
			"-0.013": 0.837867977692,
			"-0.012": 0.756298711718,
			"-0.011": 1.20123107347,
			"-0.01": 1.64483829931,
			"-0.009": 3.99328744507,
			"-0.008": 7.6936725268,
			"-0.007": 10.2282625472,
			"-0.006": 9.64918149562,
			"-0.005": 12.4064178673,
			"-0.004": 11.6891395095,
			"-0.003": 14.7317660005,
			"-0.002": 16.4080795605,
			"-0.001": 22.1770305113,
			"0.0": 19.8995643724,
			"0.001": 15.165601763,
			"0.002": 13.6286797299,
			"0.003": 14.3884125112,
			"0.004": 6.13128851296,
			"0.005": 3.02556585617,
			"0.006": 3.50651139398,
			"0.007": 4.02811955635,
			"0.008": 3.28025217102,
			"0.009": 4.20064515859,
			"0.01": 5.40157189515,
			"0.011": 8.15771054201,
			"0.012": 6.7189062546,
			"0.013": 2.21928413535,
			"0.014": 0.114896164503,
			"0.015": 0.0,
			"0.016": 0.0,
			"0.017": 0.0,
			"0.018": 0.0,
			"0.019": 0.0,
			"0.02": 0.0,
			"0.021": 0.0,
			"0.022": 0.0,
			"0.023": 0.0,
			"0.024": 0.0,
			"0.025": 0.0
		}
	}
}
