{
	 "smiles": "CC1(NC(=O)NC1=O)C1=CC(=CC=C1)C(F)(F)F", 
	 "Tm": 493.15, 
	 "num_atms": 27, 
	 "gaussian": { 
		 "optdone": 1, 
		 "sigma_profile": "yes", 
		 "theory": "DFT", 
		 "functional": "B3LYP", 
		 "basiset": "6-31G**", 
		 "properties": { 
			 "R2extent": 5401.1458, 
			 "electric_dipole_moment_norm": 2.96854095475, 
			 "electric_quadrupole_moment_norm": 23.0276559461, 
			 "total_energy": -984.117626656, 
			 "HOMO_LUMO_gap": 0.2281, 
			 "cosmo_polarized_energy": -17.12, 
			 "cosmo_cavitation_energy": 32.95, 
			 "cosmo_dispersion_energy": -22.62, 
			 "cosmo_repulsion_energy": 1.7, 
			 "cosmo_total_nonelectrostatic_energy": 12.03, 
			 "SMD_solvation_energy": 8.48 
		},
		"coords": [
			{
				"x": -0.7702234729,
				"y": 1.5955335184,
				"z": 2.3113389978,
				"element": "C" 
			},
			{
				"x": -1.0392490795,
				"y": 0.7056695529,
				"z": 1.0796091592,
				"element": "C" 
			},
			{
				"x": -2.4715883651,
				"y": 0.5167697072,
				"z": 0.8568843583,
				"element": "N" 
			},
			{
				"x": -2.9062669647,
				"y": -0.7651749221,
				"z": 1.1070468846,
				"element": "C" 
			},
			{
				"x": -4.042211697,
				"y": -1.1866878115,
				"z": 1.1195018416,
				"element": "O" 
			},
			{
				"x": -1.7380764988,
				"y": -1.5151475264,
				"z": 1.3540923213,
				"element": "N" 
			},
			{
				"x": -0.5948685934,
				"y": -0.7505666506,
				"z": 1.3970344451,
				"element": "C" 
			},
			{
				"x": 0.5300465572,
				"y": -1.1228818394,
				"z": 1.6521540439,
				"element": "O" 
			},
			{
				"x": -0.3046495153,
				"y": 1.2287825429,
				"z": -0.1610977764,
				"element": "C" 
			},
			{
				"x": 1.0927033323,
				"y": 1.3367808881,
				"z": -0.1444602286,
				"element": "C" 
			},
			{
				"x": 1.7712541329,
				"y": 1.8381033439,
				"z": -1.2547451426,
				"element": "C" 
			},
			{
				"x": 1.0707554614,
				"y": 2.2407690724,
				"z": -2.3956490427,
				"element": "C" 
			},
			{
				"x": -0.3158877612,
				"y": 2.1241705941,
				"z": -2.4181295949,
				"element": "C" 
			},
			{
				"x": -0.9995264404,
				"y": 1.6167115539,
				"z": -1.3108855392,
				"element": "C" 
			},
			{
				"x": 3.2763189206,
				"y": 1.8953795131,
				"z": -1.2494638628,
				"element": "C" 
			},
			{
				"x": 3.8188615955,
				"y": 0.787723311,
				"z": -1.8041441947,
				"element": "F" 
			},
			{
				"x": 3.7752304387,
				"y": 1.9963713219,
				"z": 0.001495669,
				"element": "F" 
			},
			{
				"x": 3.7365239977,
				"y": 2.9521916448,
				"z": -1.9574445572,
				"element": "F" 
			},
			{
				"x": 0.2967578631,
				"y": 1.6187336641,
				"z": 2.5405488544,
				"element": "H" 
			},
			{
				"x": -1.1038607603,
				"y": 2.6189212138,
				"z": 2.1143477409,
				"element": "H" 
			},
			{
				"x": -1.3045067216,
				"y": 1.2103217828,
				"z": 3.1849276434,
				"element": "H" 
			},
			{
				"x": -3.1403515182,
				"y": 1.270337769,
				"z": 0.9167722432,
				"element": "H" 
			},
			{
				"x": -1.7650366051,
				"y": -2.506545832,
				"z": 1.546349682,
				"element": "H" 
			},
			{
				"x": 1.6541986096,
				"y": 1.0079536813,
				"z": 0.7214172598,
				"element": "H" 
			},
			{
				"x": 1.6077706205,
				"y": 2.6416303075,
				"z": -3.2484464023,
				"element": "H" 
			},
			{
				"x": -0.8712184937,
				"y": 2.4281405646,
				"z": -3.3001649108,
				"element": "H" 
			},
			{
				"x": -2.0783990423,
				"y": 1.5135090341,
				"z": -1.3452898926,
				"element": "H" 
			}
		],
		 "valence_orbital": [ 
			{
				"type": "occ",
				"energy": -0.29835,
				"method": "rhf"
			},
			{
				"type": "occ",
				"energy": -0.28364,
				"method": "rhf"
			},
			{
				"type": "occ",
				"energy": -0.27716,
				"method": "rhf"
			},
			{
				"type": "occ",
				"energy": -0.2722,
				"method": "rhf"
			},
			{
				"type": "occ",
				"energy": -0.26387,
				"method": "rhf"
			},
			{
				"type": "unocc",
				"energy": -0.03577,
				"method": "rhf"
			},
			{
				"type": "unocc",
				"energy": -0.03085,
				"method": "rhf"
			},
			{
				"type": "unocc",
				"energy": -0.01079,
				"method": "rhf"
			},
			{
				"type": "unocc",
				"energy": 0.04816,
				"method": "rhf"
			},
			{
				"type": "unocc",
				"energy": 0.06489,
				"method": "rhf"
			}
		],
		"cosmo_sigma_profile": { 
			"-0.025": 0.0,
			"-0.024": 0.0,
			"-0.023": 0.0,
			"-0.022": 0.0,
			"-0.021": 0.0,
			"-0.02": 0.0,
			"-0.019": 0.0,
			"-0.018": 0.0172509397251,
			"-0.017": 0.856268318426,
			"-0.016": 1.27867255007,
			"-0.015": 2.03483021216,
			"-0.014": 1.99809352246,
			"-0.013": 2.16516778284,
			"-0.012": 2.20647739625,
			"-0.011": 1.65837022263,
			"-0.01": 2.21084309619,
			"-0.009": 2.26326807946,
			"-0.008": 2.64457854894,
			"-0.007": 6.37424508134,
			"-0.006": 12.3078133659,
			"-0.005": 14.3671130067,
			"-0.004": 15.2956503555,
			"-0.003": 15.8422526889,
			"-0.002": 18.9949695031,
			"-0.001": 16.272699437,
			"0.0": 15.3105967736,
			"0.001": 17.7742483688,
			"0.002": 27.5402918301,
			"0.003": 39.8204451708,
			"0.004": 7.66736719873,
			"0.005": 3.22544145216,
			"0.006": 2.45358868508,
			"0.007": 2.19132842909,
			"0.008": 2.10738459219,
			"0.009": 3.18342815279,
			"0.01": 3.97415656668,
			"0.011": 5.7611279178,
			"0.012": 8.25791856463,
			"0.013": 4.57749665074,
			"0.014": 0.281799023272,
			"0.015": 0.0,
			"0.016": 0.0,
			"0.017": 0.0,
			"0.018": 0.0,
			"0.019": 0.0,
			"0.02": 0.0,
			"0.021": 0.0,
			"0.022": 0.0,
			"0.023": 0.0,
			"0.024": 0.0,
			"0.025": 0.0
		}
	}
}
