{
	 "smiles": "OC(=O)COC1=CC(OCC(O)=O)=CC=C1", 
	 "Tm": 467.15, 
	 "num_atms": 26, 
	 "gaussian": { 
		 "optdone": 1, 
		 "sigma_profile": "yes", 
		 "theory": "DFT", 
		 "functional": "B3LYP", 
		 "basiset": "6-31G**", 
		 "properties": { 
			 "R2extent": 5768.7079, 
			 "electric_dipole_moment_norm": 3.18194209407, 
			 "electric_quadrupole_moment_norm": 22.3404593084, 
			 "total_energy": -838.422494976, 
			 "HOMO_LUMO_gap": 0.21816, 
			 "cosmo_polarized_energy": -21.81, 
			 "cosmo_cavitation_energy": 31.35, 
			 "cosmo_dispersion_energy": -22.46, 
			 "cosmo_repulsion_energy": 1.79, 
			 "cosmo_total_nonelectrostatic_energy": 10.68, 
			 "SMD_solvation_energy": 8.23 
		},
		"coords": [
			{
				"x": 0.7348271485,
				"y": -1.5525863245,
				"z": 3.0350296339,
				"element": "O" 
			},
			{
				"x": 0.2609445951,
				"y": -0.4779664,
				"z": 3.6926489781,
				"element": "C" 
			},
			{
				"x": -0.528525869,
				"y": -0.5601175896,
				"z": 4.5993202644,
				"element": "O" 
			},
			{
				"x": 0.8488822243,
				"y": 0.8617161664,
				"z": 3.2340103439,
				"element": "C" 
			},
			{
				"x": 1.4348718993,
				"y": 0.7920282508,
				"z": 1.9364654942,
				"element": "O" 
			},
			{
				"x": 0.6158845444,
				"y": 0.966650796,
				"z": 0.8376096716,
				"element": "C" 
			},
			{
				"x": 1.3004369777,
				"y": 1.1816949,
				"z": -0.3667900755,
				"element": "C" 
			},
			{
				"x": 0.5659153995,
				"y": 1.3519249334,
				"z": -1.5385642649,
				"element": "C" 
			},
			{
				"x": 1.1349260456,
				"y": 1.5840839804,
				"z": -2.7755419922,
				"element": "O" 
			},
			{
				"x": 2.5378159403,
				"y": 1.3870045987,
				"z": -2.9267805974,
				"element": "C" 
			},
			{
				"x": 3.3592828882,
				"y": 2.613973032,
				"z": -2.5126168149,
				"element": "C" 
			},
			{
				"x": 2.6671807349,
				"y": 3.7679067944,
				"z": -2.4821052591,
				"element": "O" 
			},
			{
				"x": 4.5396786563,
				"y": 2.5511047994,
				"z": -2.278869134,
				"element": "O" 
			},
			{
				"x": -0.8349716574,
				"y": 1.3207492647,
				"z": -1.5187112459,
				"element": "C" 
			},
			{
				"x": -1.4877454148,
				"y": 1.1099818784,
				"z": -0.3117489905,
				"element": "C" 
			},
			{
				"x": -0.7777523589,
				"y": 0.9256951613,
				"z": 0.8810294321,
				"element": "C" 
			},
			{
				"x": 1.3422342212,
				"y": -1.2391002352,
				"z": 2.3422554464,
				"element": "H" 
			},
			{
				"x": 0.0812562482,
				"y": 1.6365240543,
				"z": 3.3017388562,
				"element": "H" 
			},
			{
				"x": 1.6642155373,
				"y": 1.1245732221,
				"z": 3.9153219798,
				"element": "H" 
			},
			{
				"x": 2.382070255,
				"y": 1.2310428721,
				"z": -0.3362100706,
				"element": "H" 
			},
			{
				"x": 2.8963963624,
				"y": 0.5104923413,
				"z": -2.3812532689,
				"element": "H" 
			},
			{
				"x": 2.7012285363,
				"y": 1.2163673466,
				"z": -3.9955375031,
				"element": "H" 
			},
			{
				"x": 1.7372841171,
				"y": 3.5691238402,
				"z": -2.6892187177,
				"element": "H" 
			},
			{
				"x": -1.3791290838,
				"y": 1.4530651405,
				"z": -2.4470627921,
				"element": "H" 
			},
			{
				"x": -2.5725510042,
				"y": 1.0751693548,
				"z": -0.2900382066,
				"element": "H" 
			},
			{
				"x": -1.3151569435,
				"y": 0.7418978213,
				"z": 1.803418833,
				"element": "H" 
			}
		],
		 "valence_orbital": [ 
			{
				"type": "occ",
				"energy": -0.32485,
				"method": "rhf"
			},
			{
				"type": "occ",
				"energy": -0.28472,
				"method": "rhf"
			},
			{
				"type": "occ",
				"energy": -0.28314,
				"method": "rhf"
			},
			{
				"type": "occ",
				"energy": -0.2613,
				"method": "rhf"
			},
			{
				"type": "occ",
				"energy": -0.24462,
				"method": "rhf"
			},
			{
				"type": "unocc",
				"energy": -0.02646,
				"method": "rhf"
			},
			{
				"type": "unocc",
				"energy": -0.0145,
				"method": "rhf"
			},
			{
				"type": "unocc",
				"energy": -0.00345,
				"method": "rhf"
			},
			{
				"type": "unocc",
				"energy": -0.00199,
				"method": "rhf"
			},
			{
				"type": "unocc",
				"energy": 0.06415,
				"method": "rhf"
			}
		],
		"cosmo_sigma_profile": { 
			"-0.025": 0.0,
			"-0.024": 0.0,
			"-0.023": 0.0,
			"-0.022": 0.0,
			"-0.021": 0.0,
			"-0.02": 0.0,
			"-0.019": 0.0,
			"-0.018": 0.0,
			"-0.017": 0.0,
			"-0.016": 0.690085526763,
			"-0.015": 1.29166679399,
			"-0.014": 1.52070981552,
			"-0.013": 1.43966793831,
			"-0.012": 1.13797702181,
			"-0.011": 2.38229192202,
			"-0.01": 4.98947461832,
			"-0.009": 9.71844993287,
			"-0.008": 11.3998945422,
			"-0.007": 13.1987173977,
			"-0.006": 16.8561846056,
			"-0.005": 14.5353070367,
			"-0.004": 12.5764128142,
			"-0.003": 10.7319118858,
			"-0.002": 9.29710192366,
			"-0.001": 10.8632274112,
			"0.0": 10.6297586253,
			"0.001": 12.2638078786,
			"0.002": 11.2839633567,
			"0.003": 14.5248268644,
			"0.004": 12.8945090996,
			"0.005": 8.46951023448,
			"0.006": 5.98382367651,
			"0.007": 5.70093059243,
			"0.008": 7.45956180389,
			"0.009": 8.87947932668,
			"0.01": 9.37093770905,
			"0.011": 10.0942924597,
			"0.012": 8.56154270211,
			"0.013": 1.23798128089,
			"0.014": 0.0,
			"0.015": 0.0,
			"0.016": 0.0,
			"0.017": 0.0,
			"0.018": 0.0,
			"0.019": 0.0,
			"0.02": 0.0,
			"0.021": 0.0,
			"0.022": 0.0,
			"0.023": 0.0,
			"0.024": 0.0,
			"0.025": 0.0
		}
	}
}
