{
	 "smiles": "CCNC(=O)C1=CC(=CC=C1)C#N", 
	 "Tm": 373.15, 
	 "num_atms": 23, 
	 "gaussian": { 
		 "optdone": 1, 
		 "sigma_profile": "yes", 
		 "theory": "DFT", 
		 "functional": "B3LYP", 
		 "basiset": "6-31G**", 
		 "properties": { 
			 "R2extent": 2963.3533, 
			 "electric_dipole_moment_norm": 3.52394068196, 
			 "electric_quadrupole_moment_norm": 23.5393366024, 
			 "total_energy": -571.817744538, 
			 "HOMO_LUMO_gap": 0.19143, 
			 "cosmo_polarized_energy": -15.31, 
			 "cosmo_cavitation_energy": 28.41, 
			 "cosmo_dispersion_energy": -19.68, 
			 "cosmo_repulsion_energy": 1.59, 
			 "cosmo_total_nonelectrostatic_energy": 10.32, 
			 "SMD_solvation_energy": 6.45 
		},
		"coords": [
			{
				"x": -1.9877893422,
				"y": -1.8344556035,
				"z": -1.9196336904,
				"element": "C" 
			},
			{
				"x": -0.6930201842,
				"y": -1.224949652,
				"z": -1.3776515658,
				"element": "C" 
			},
			{
				"x": -0.5483356185,
				"y": 0.1756226757,
				"z": -1.7769588479,
				"element": "N" 
			},
			{
				"x": -0.4549865285,
				"y": 1.299300628,
				"z": -0.9955276239,
				"element": "C" 
			},
			{
				"x": -0.7551617463,
				"y": 2.4062124599,
				"z": -1.4332616709,
				"element": "O" 
			},
			{
				"x": 0.0722487583,
				"y": 1.1647135389,
				"z": 0.410093195,
				"element": "C" 
			},
			{
				"x": 1.1097176527,
				"y": 0.2951533486,
				"z": 0.7553779369,
				"element": "C" 
			},
			{
				"x": 1.6138948911,
				"y": 0.2870663116,
				"z": 2.0669021245,
				"element": "C" 
			},
			{
				"x": 1.072945993,
				"y": 1.1475764398,
				"z": 3.0358361739,
				"element": "C" 
			},
			{
				"x": 0.0478605422,
				"y": 2.0230625216,
				"z": 2.681889521,
				"element": "C" 
			},
			{
				"x": -0.4390131125,
				"y": 2.043046597,
				"z": 1.3765416548,
				"element": "C" 
			},
			{
				"x": 2.6837675052,
				"y": -0.6041791657,
				"z": 2.4125436159,
				"element": "C" 
			},
			{
				"x": 3.5474666698,
				"y": -1.331954109,
				"z": 2.6909708164,
				"element": "N" 
			},
			{
				"x": -2.0186161324,
				"y": -1.7898737943,
				"z": -3.0140800666,
				"element": "H" 
			},
			{
				"x": -2.0620369531,
				"y": -2.8871319469,
				"z": -1.6296973885,
				"element": "H" 
			},
			{
				"x": -2.8633134836,
				"y": -1.3051377045,
				"z": -1.5319584192,
				"element": "H" 
			},
			{
				"x": -0.6874108418,
				"y": -1.2769461401,
				"z": -0.287428138,
				"element": "H" 
			},
			{
				"x": 0.1677400061,
				"y": -1.8084865472,
				"z": -1.7318913814,
				"element": "H" 
			},
			{
				"x": -0.8720526239,
				"y": 0.407090065,
				"z": -2.7093671061,
				"element": "H" 
			},
			{
				"x": 1.5534235578,
				"y": -0.3600956373,
				"z": 0.0141591288,
				"element": "H" 
			},
			{
				"x": 1.4642888371,
				"y": 1.129254439,
				"z": 4.0474337194,
				"element": "H" 
			},
			{
				"x": -0.3642209621,
				"y": 2.6980071387,
				"z": 3.4254366688,
				"element": "H" 
			},
			{
				"x": -1.2125968841,
				"y": 2.7427041367,
				"z": 1.0787713434,
				"element": "H" 
			}
		],
		 "valence_orbital": [ 
			{
				"type": "occ",
				"energy": -0.33591,
				"method": "rhf"
			},
			{
				"type": "occ",
				"energy": -0.28285,
				"method": "rhf"
			},
			{
				"type": "occ",
				"energy": -0.27462,
				"method": "rhf"
			},
			{
				"type": "occ",
				"energy": -0.26429,
				"method": "rhf"
			},
			{
				"type": "occ",
				"energy": -0.25221,
				"method": "rhf"
			},
			{
				"type": "unocc",
				"energy": -0.06078,
				"method": "rhf"
			},
			{
				"type": "unocc",
				"energy": -0.04574,
				"method": "rhf"
			},
			{
				"type": "unocc",
				"energy": 0.02712,
				"method": "rhf"
			},
			{
				"type": "unocc",
				"energy": 0.03466,
				"method": "rhf"
			},
			{
				"type": "unocc",
				"energy": 0.06981,
				"method": "rhf"
			}
		],
		"cosmo_sigma_profile": { 
			"-0.025": 0.0,
			"-0.024": 0.0,
			"-0.023": 0.0,
			"-0.022": 0.0,
			"-0.021": 0.0,
			"-0.02": 0.0,
			"-0.019": 0.0,
			"-0.018": 0.0,
			"-0.017": 0.0,
			"-0.016": 0.0,
			"-0.015": 0.0,
			"-0.014": 0.0269462656071,
			"-0.013": 0.586537814878,
			"-0.012": 1.03517372637,
			"-0.011": 0.859534170366,
			"-0.01": 1.00807500436,
			"-0.009": 1.72034734797,
			"-0.008": 5.25752312223,
			"-0.007": 9.73783943814,
			"-0.006": 10.3733460901,
			"-0.005": 13.6398829826,
			"-0.004": 19.6268259004,
			"-0.003": 22.6045524189,
			"-0.002": 21.7564013229,
			"-0.001": 18.7635296069,
			"0.0": 19.0604283437,
			"0.001": 15.9186382011,
			"0.002": 10.688415897,
			"0.003": 5.76076845519,
			"0.004": 3.93504660547,
			"0.005": 4.69664440013,
			"0.006": 3.42535028983,
			"0.007": 4.43729889161,
			"0.008": 4.7612085585,
			"0.009": 4.37242570081,
			"0.01": 4.10623532478,
			"0.011": 4.69122077396,
			"0.012": 4.25403319897,
			"0.013": 5.6545487578,
			"0.014": 4.14081126679,
			"0.015": 0.290710725667,
			"0.016": 0.0,
			"0.017": 0.0,
			"0.018": 0.0,
			"0.019": 0.0,
			"0.02": 0.0,
			"0.021": 0.0,
			"0.022": 0.0,
			"0.023": 0.0,
			"0.024": 0.0,
			"0.025": 0.0
		}
	}
}
