{
	 "smiles": "CS(=O)(=O)NCC1CCCNC1", 
	 "Tm": 404.15, 
	 "num_atms": 28, 
	 "gaussian": { 
		 "optdone": 1, 
		 "sigma_profile": "yes", 
		 "theory": "DFT", 
		 "functional": "B3LYP", 
		 "basiset": "6-31G**", 
		 "properties": { 
			 "R2extent": 3874.1522, 
			 "electric_dipole_moment_norm": 4.99155532174, 
			 "electric_quadrupole_moment_norm": 17.8512974162, 
			 "total_energy": -934.462332132, 
			 "HOMO_LUMO_gap": 0.27828, 
			 "cosmo_polarized_energy": -16.01, 
			 "cosmo_cavitation_energy": 30.05, 
			 "cosmo_dispersion_energy": -22.4, 
			 "cosmo_repulsion_energy": 1.76, 
			 "cosmo_total_nonelectrostatic_energy": 9.41, 
			 "SMD_solvation_energy": 1.79 
		},
		"coords": [
			{
				"x": -0.1211436782,
				"y": -2.0153504715,
				"z": 1.5060669947,
				"element": "C" 
			},
			{
				"x": -1.5180597408,
				"y": -0.9930948435,
				"z": 1.0119579039,
				"element": "S" 
			},
			{
				"x": -2.3078324981,
				"y": -1.7691289009,
				"z": 0.049912424,
				"element": "O" 
			},
			{
				"x": -2.1284296424,
				"y": -0.4300830028,
				"z": 2.2212125699,
				"element": "O" 
			},
			{
				"x": -0.7458753025,
				"y": 0.3035219637,
				"z": 0.2457930312,
				"element": "N" 
			},
			{
				"x": -0.70096265,
				"y": 0.3173260025,
				"z": -1.2307275973,
				"element": "C" 
			},
			{
				"x": 0.3554702847,
				"y": 1.3145506454,
				"z": -1.7376849814,
				"element": "C" 
			},
			{
				"x": 0.1095063469,
				"y": 2.7747314001,
				"z": -1.2946578712,
				"element": "C" 
			},
			{
				"x": -1.0893036139,
				"y": 3.4137803749,
				"z": -2.0156903749,
				"element": "C" 
			},
			{
				"x": -0.9518506846,
				"y": 3.2510233273,
				"z": -3.5336731855,
				"element": "C" 
			},
			{
				"x": -0.7897398015,
				"y": 1.8325370976,
				"z": -3.8560471027,
				"element": "N" 
			},
			{
				"x": 0.4318270171,
				"y": 1.2726881784,
				"z": -3.27641753,
				"element": "C" 
			},
			{
				"x": 0.5081521853,
				"y": -1.4419112264,
				"z": 2.1862340615,
				"element": "H" 
			},
			{
				"x": -0.5307082438,
				"y": -2.8960766769,
				"z": 2.003855728,
				"element": "H" 
			},
			{
				"x": 0.4346749484,
				"y": -2.312201883,
				"z": 0.6154760161,
				"element": "H" 
			},
			{
				"x": -1.1471993664,
				"y": 1.1454234321,
				"z": 0.6511935804,
				"element": "H" 
			},
			{
				"x": -1.679895646,
				"y": 0.5287851482,
				"z": -1.6715006055,
				"element": "H" 
			},
			{
				"x": -0.4234820865,
				"y": -0.6886896496,
				"z": -1.5591664431,
				"element": "H" 
			},
			{
				"x": 1.3254637774,
				"y": 0.9937057361,
				"z": -1.3365581111,
				"element": "H" 
			},
			{
				"x": -0.0070917873,
				"y": 2.8400521001,
				"z": -0.2061317006,
				"element": "H" 
			},
			{
				"x": 1.0122303858,
				"y": 3.3541455352,
				"z": -1.5311739329,
				"element": "H" 
			},
			{
				"x": -2.0267619289,
				"y": 2.9442863531,
				"z": -1.6945126915,
				"element": "H" 
			},
			{
				"x": -1.1590562047,
				"y": 4.4771951985,
				"z": -1.7591787314,
				"element": "H" 
			},
			{
				"x": -1.8471906745,
				"y": 3.6262063694,
				"z": -4.0410857915,
				"element": "H" 
			},
			{
				"x": -0.095878473,
				"y": 3.8641609145,
				"z": -3.8817329937,
				"element": "H" 
			},
			{
				"x": -0.7914106611,
				"y": 1.6974301884,
				"z": -4.8624625107,
				"element": "H" 
			},
			{
				"x": 0.5416253231,
				"y": 0.2388062591,
				"z": -3.6244251411,
				"element": "H" 
			},
			{
				"x": 1.3420224155,
				"y": 1.8207804302,
				"z": -3.5909750135,
				"element": "H" 
			}
		],
		 "valence_orbital": [ 
			{
				"type": "occ",
				"energy": -0.30775,
				"method": "rhf"
			},
			{
				"type": "occ",
				"energy": -0.30221,
				"method": "rhf"
			},
			{
				"type": "occ",
				"energy": -0.29189,
				"method": "rhf"
			},
			{
				"type": "occ",
				"energy": -0.26796,
				"method": "rhf"
			},
			{
				"type": "occ",
				"energy": -0.2255,
				"method": "rhf"
			},
			{
				"type": "unocc",
				"energy": 0.05278,
				"method": "rhf"
			},
			{
				"type": "unocc",
				"energy": 0.07473,
				"method": "rhf"
			},
			{
				"type": "unocc",
				"energy": 0.08169,
				"method": "rhf"
			},
			{
				"type": "unocc",
				"energy": 0.09391,
				"method": "rhf"
			},
			{
				"type": "unocc",
				"energy": 0.09959,
				"method": "rhf"
			}
		],
		"cosmo_sigma_profile": { 
			"-0.025": 0.0,
			"-0.024": 0.0,
			"-0.023": 0.0,
			"-0.022": 0.0,
			"-0.021": 0.0,
			"-0.02": 0.0,
			"-0.019": 0.0,
			"-0.018": 0.0,
			"-0.017": 0.0,
			"-0.016": 0.0,
			"-0.015": 0.0,
			"-0.014": 0.0,
			"-0.013": 0.201998588897,
			"-0.012": 0.760834282876,
			"-0.011": 1.4307027364,
			"-0.01": 1.83338503492,
			"-0.009": 3.74861406755,
			"-0.008": 8.54520251226,
			"-0.007": 8.26768479595,
			"-0.006": 8.89999003871,
			"-0.005": 9.71941078136,
			"-0.004": 15.6527479454,
			"-0.003": 20.2471973254,
			"-0.002": 24.1688803906,
			"-0.001": 33.3906165279,
			"0.0": 23.7800135203,
			"0.001": 11.5066338871,
			"0.002": 4.32885092133,
			"0.003": 4.02028488018,
			"0.004": 4.85971903788,
			"0.005": 3.36222356982,
			"0.006": 3.14249535769,
			"0.007": 3.92572078516,
			"0.008": 3.96306964903,
			"0.009": 4.15454835349,
			"0.01": 4.87574730765,
			"0.011": 11.7131619365,
			"0.012": 9.72370850148,
			"0.013": 1.10557625593,
			"0.014": 0.889131817377,
			"0.015": 0.29630722125,
			"0.016": 0.105173657519,
			"0.017": 0.0,
			"0.018": 0.0,
			"0.019": 0.0,
			"0.02": 0.0,
			"0.021": 0.0,
			"0.022": 0.0,
			"0.023": 0.0,
			"0.024": 0.0,
			"0.025": 0.0
		}
	}
}
