{
	 "smiles": "NC1=NN=C(O1)C1=CC=C(Cl)C=C1", 
	 "Tm": 534.15, 
	 "num_atms": 19, 
	 "gaussian": { 
		 "optdone": 1, 
		 "sigma_profile": "yes", 
		 "theory": "DFT", 
		 "functional": "B3LYP", 
		 "basiset": "6-31G**", 
		 "properties": { 
			 "R2extent": 5481.5019, 
			 "electric_dipole_moment_norm": 4.13531168475, 
			 "electric_quadrupole_moment_norm": 10.7574656184, 
			 "total_energy": -1008.11598811, 
			 "HOMO_LUMO_gap": 0.1714, 
			 "cosmo_polarized_energy": -15.52, 
			 "cosmo_cavitation_energy": 26.35, 
			 "cosmo_dispersion_energy": -19.89, 
			 "cosmo_repulsion_energy": 1.57, 
			 "cosmo_total_nonelectrostatic_energy": 8.03, 
			 "SMD_solvation_energy": 2.75 
		},
		"coords": [
			{
				"x": -2.1962779097,
				"y": 0.0190984049,
				"z": 1.494208665,
				"element": "N" 
			},
			{
				"x": -1.3208305176,
				"y": 0.455619098,
				"z": 0.5406446621,
				"element": "C" 
			},
			{
				"x": -1.0315627447,
				"y": 1.679633718,
				"z": 0.2048389366,
				"element": "N" 
			},
			{
				"x": -0.0177657148,
				"y": 1.5722115043,
				"z": -0.7494000156,
				"element": "N" 
			},
			{
				"x": 0.2165095884,
				"y": 0.3102393474,
				"z": -0.9255633127,
				"element": "C" 
			},
			{
				"x": -0.5885659635,
				"y": -0.4765036752,
				"z": -0.120631767,
				"element": "O" 
			},
			{
				"x": 1.1672823981,
				"y": -0.3310111328,
				"z": -1.8216317504,
				"element": "C" 
			},
			{
				"x": 1.2957654845,
				"y": -1.7270389029,
				"z": -1.8743681695,
				"element": "C" 
			},
			{
				"x": 2.2124545437,
				"y": -2.3195007381,
				"z": -2.7397626184,
				"element": "C" 
			},
			{
				"x": 3.0033470589,
				"y": -1.5098493314,
				"z": -3.5542836945,
				"element": "C" 
			},
			{
				"x": 4.160047407,
				"y": -2.2519496355,
				"z": -4.646533567,
				"element": "Cl" 
			},
			{
				"x": 2.8909068238,
				"y": -0.1178326097,
				"z": -3.5156726591,
				"element": "C" 
			},
			{
				"x": 1.9738607718,
				"y": 0.4673523505,
				"z": -2.6505500289,
				"element": "C" 
			},
			{
				"x": -2.6250110873,
				"y": -0.8793243998,
				"z": 1.3209678153,
				"element": "H" 
			},
			{
				"x": -2.8373948038,
				"y": 0.7352855065,
				"z": 1.805984057,
				"element": "H" 
			},
			{
				"x": 0.6789063086,
				"y": -2.3508096666,
				"z": -1.2366735955,
				"element": "H" 
			},
			{
				"x": 2.3139625806,
				"y": -3.3980810431,
				"z": -2.7823013157,
				"element": "H" 
			},
			{
				"x": 3.5146227387,
				"y": 0.4954046504,
				"z": -4.1562931933,
				"element": "H" 
			},
			{
				"x": 1.8711430373,
				"y": 1.5461565551,
				"z": -2.6056784484,
				"element": "H" 
			}
		],
		 "valence_orbital": [ 
			{
				"type": "occ",
				"energy": -0.31639,
				"method": "rhf"
			},
			{
				"type": "occ",
				"energy": -0.27503,
				"method": "rhf"
			},
			{
				"type": "occ",
				"energy": -0.27315,
				"method": "rhf"
			},
			{
				"type": "occ",
				"energy": -0.27223,
				"method": "rhf"
			},
			{
				"type": "occ",
				"energy": -0.2223,
				"method": "rhf"
			},
			{
				"type": "unocc",
				"energy": -0.0509,
				"method": "rhf"
			},
			{
				"type": "unocc",
				"energy": -0.02114,
				"method": "rhf"
			},
			{
				"type": "unocc",
				"energy": 0.02544,
				"method": "rhf"
			},
			{
				"type": "unocc",
				"energy": 0.03099,
				"method": "rhf"
			},
			{
				"type": "unocc",
				"energy": 0.05644,
				"method": "rhf"
			}
		],
		"cosmo_sigma_profile": { 
			"-0.025": 0.0,
			"-0.024": 0.0,
			"-0.023": 0.0,
			"-0.022": 0.0,
			"-0.021": 0.0,
			"-0.02": 0.0,
			"-0.019": 0.0,
			"-0.018": 0.0,
			"-0.017": 0.0,
			"-0.016": 0.212009950978,
			"-0.015": 2.48701559153,
			"-0.014": 3.0190682663,
			"-0.013": 1.86530950113,
			"-0.012": 2.80436661611,
			"-0.011": 2.59696447999,
			"-0.01": 2.01076109838,
			"-0.009": 1.25442700504,
			"-0.008": 3.57911057517,
			"-0.007": 8.09581758728,
			"-0.006": 8.80755615775,
			"-0.005": 7.54618203952,
			"-0.004": 9.42991633288,
			"-0.003": 10.4479076177,
			"-0.002": 12.0347418956,
			"-0.001": 15.4560628507,
			"0.0": 15.076359824,
			"0.001": 22.7263429728,
			"0.002": 24.3147882289,
			"0.003": 15.5266066835,
			"0.004": 13.3197232909,
			"0.005": 4.43539064044,
			"0.006": 2.3887932884,
			"0.007": 3.36166108023,
			"0.008": 2.61296315988,
			"0.009": 2.58418422063,
			"0.01": 2.49639483923,
			"0.011": 2.75025754113,
			"0.012": 3.38453969343,
			"0.013": 2.93300278432,
			"0.014": 2.6696441434,
			"0.015": 1.49744750853,
			"0.016": 0.761514675165,
			"0.017": 0.0,
			"0.018": 0.0,
			"0.019": 0.0,
			"0.02": 0.0,
			"0.021": 0.0,
			"0.022": 0.0,
			"0.023": 0.0,
			"0.024": 0.0,
			"0.025": 0.0
		}
	}
}
