{
	 "smiles": "CC1=NN(C=C1C(O)=O)C1CCOC1", 
	 "Tm": 437.15, 
	 "num_atms": 26, 
	 "gaussian": { 
		 "optdone": 1, 
		 "sigma_profile": "yes", 
		 "theory": "DFT", 
		 "functional": "B3LYP", 
		 "basiset": "6-31G**", 
		 "properties": { 
			 "R2extent": 4404.8175, 
			 "electric_dipole_moment_norm": 4.58155580016, 
			 "electric_quadrupole_moment_norm": 36.5997068634, 
			 "total_energy": -685.344789246, 
			 "HOMO_LUMO_gap": 0.22564, 
			 "cosmo_polarized_energy": -20.75, 
			 "cosmo_cavitation_energy": 29.41, 
			 "cosmo_dispersion_energy": -21.39, 
			 "cosmo_repulsion_energy": 1.71, 
			 "cosmo_total_nonelectrostatic_energy": 9.72, 
			 "SMD_solvation_energy": 5.54 
		},
		"coords": [
			{
				"x": 3.5221439329,
				"y": -0.3487785382,
				"z": 2.0497147138,
				"element": "C" 
			},
			{
				"x": 2.6821394588,
				"y": 0.3158265772,
				"z": 1.0063884339,
				"element": "C" 
			},
			{
				"x": 1.4880859105,
				"y": -0.1707264766,
				"z": 0.677108249,
				"element": "N" 
			},
			{
				"x": 1.0078523504,
				"y": 0.653463748,
				"z": -0.2907354544,
				"element": "N" 
			},
			{
				"x": 1.8657838113,
				"y": 1.6547826453,
				"z": -0.5776799161,
				"element": "C" 
			},
			{
				"x": 2.9760745974,
				"y": 1.4874234988,
				"z": 0.2448815093,
				"element": "C" 
			},
			{
				"x": 4.2153119467,
				"y": 2.2777396611,
				"z": 0.3219978056,
				"element": "C" 
			},
			{
				"x": 4.2095571867,
				"y": 3.4917562497,
				"z": -0.3056773523,
				"element": "O" 
			},
			{
				"x": 5.2153723377,
				"y": 1.9093243334,
				"z": 0.8962565348,
				"element": "O" 
			},
			{
				"x": -0.2977376709,
				"y": 0.38831408,
				"z": -0.8874496299,
				"element": "C" 
			},
			{
				"x": -0.4484550585,
				"y": -1.057097448,
				"z": -1.4345940499,
				"element": "C" 
			},
			{
				"x": -1.5159539282,
				"y": -1.6679739649,
				"z": -0.5122229313,
				"element": "C" 
			},
			{
				"x": -2.3407228704,
				"y": -0.5648478408,
				"z": -0.1392705222,
				"element": "O" 
			},
			{
				"x": -1.4520840372,
				"y": 0.4974552542,
				"z": 0.1540945843,
				"element": "C" 
			},
			{
				"x": 4.4815092073,
				"y": -0.6651784097,
				"z": 1.6315877322,
				"element": "H" 
			},
			{
				"x": 2.9926544449,
				"y": -1.2156378055,
				"z": 2.450388846,
				"element": "H" 
			},
			{
				"x": 3.7539801658,
				"y": 0.3418743005,
				"z": 2.8660784417,
				"element": "H" 
			},
			{
				"x": 1.6394349274,
				"y": 2.3758397711,
				"z": -1.3519424442,
				"element": "H" 
			},
			{
				"x": 3.3130316359,
				"y": 3.7216691524,
				"z": -0.5841774532,
				"element": "H" 
			},
			{
				"x": -0.4147962222,
				"y": 1.1246985132,
				"z": -1.6854225384,
				"element": "H" 
			},
			{
				"x": 0.5001976136,
				"y": -1.5959989,
				"z": -1.408950053,
				"element": "H" 
			},
			{
				"x": -0.8072144959,
				"y": -1.0251613377,
				"z": -2.4668978203,
				"element": "H" 
			},
			{
				"x": -2.1508758655,
				"y": -2.4120520401,
				"z": -0.9986793634,
				"element": "H" 
			},
			{
				"x": -1.0470692668,
				"y": -2.1189610324,
				"z": 0.3746557739,
				"element": "H" 
			},
			{
				"x": -2.0072193571,
				"y": 1.4368219882,
				"z": 0.0869610864,
				"element": "H" 
			},
			{
				"x": -1.0258007547,
				"y": 0.3989240207,
				"z": 1.1627858177,
				"element": "H" 
			}
		],
		 "valence_orbital": [ 
			{
				"type": "occ",
				"energy": -0.30404,
				"method": "rhf"
			},
			{
				"type": "occ",
				"energy": -0.27218,
				"method": "rhf"
			},
			{
				"type": "occ",
				"energy": -0.2697,
				"method": "rhf"
			},
			{
				"type": "occ",
				"energy": -0.26364,
				"method": "rhf"
			},
			{
				"type": "occ",
				"energy": -0.2532,
				"method": "rhf"
			},
			{
				"type": "unocc",
				"energy": -0.02756,
				"method": "rhf"
			},
			{
				"type": "unocc",
				"energy": 0.00925,
				"method": "rhf"
			},
			{
				"type": "unocc",
				"energy": 0.05283,
				"method": "rhf"
			},
			{
				"type": "unocc",
				"energy": 0.05829,
				"method": "rhf"
			},
			{
				"type": "unocc",
				"energy": 0.08574,
				"method": "rhf"
			}
		],
		"cosmo_sigma_profile": { 
			"-0.025": 0.0,
			"-0.024": 0.0,
			"-0.023": 0.0,
			"-0.022": 0.0,
			"-0.021": 0.0,
			"-0.02": 0.0,
			"-0.019": 0.36695278417,
			"-0.018": 1.31234215631,
			"-0.017": 0.979164339257,
			"-0.016": 1.25134493796,
			"-0.015": 0.704833037128,
			"-0.014": 1.24558793314,
			"-0.013": 1.79992030373,
			"-0.012": 0.698968298032,
			"-0.011": 2.60041189048,
			"-0.01": 3.1746550144,
			"-0.009": 2.34225579959,
			"-0.008": 3.79119816384,
			"-0.007": 3.91970993606,
			"-0.006": 7.56387463738,
			"-0.005": 12.0108940812,
			"-0.004": 17.6438181446,
			"-0.003": 22.3620086248,
			"-0.002": 22.8821302739,
			"-0.001": 19.0728973368,
			"0.0": 16.5843767502,
			"0.001": 11.143909392,
			"0.002": 11.2203528079,
			"0.003": 8.11963123425,
			"0.004": 5.95269406427,
			"0.005": 5.74433750708,
			"0.006": 5.46172094656,
			"0.007": 5.78211953883,
			"0.008": 4.22433972201,
			"0.009": 5.14208080995,
			"0.01": 6.07557740188,
			"0.011": 7.23195053108,
			"0.012": 7.72399858594,
			"0.013": 4.7710846694,
			"0.014": 1.01700373569,
			"0.015": 0.0,
			"0.016": 0.0,
			"0.017": 0.0,
			"0.018": 0.0,
			"0.019": 0.0,
			"0.02": 0.0,
			"0.021": 0.0,
			"0.022": 0.0,
			"0.023": 0.0,
			"0.024": 0.0,
			"0.025": 0.0
		}
	}
}
