{
	 "smiles": "COC(=O)C1=C(CS(Cl)(=O)=O)C=CC=C1", 
	 "Tm": 359.15, 
	 "num_atms": 24, 
	 "gaussian": { 
		 "optdone": 1, 
		 "sigma_profile": "yes", 
		 "theory": "DFT", 
		 "functional": "B3LYP", 
		 "basiset": "6-31G**", 
		 "properties": { 
			 "R2extent": 4141.6938, 
			 "electric_dipole_moment_norm": 5.85386465252, 
			 "electric_quadrupole_moment_norm": 16.6972497613, 
			 "total_energy": -1507.60316951, 
			 "HOMO_LUMO_gap": 0.18971, 
			 "cosmo_polarized_energy": -12.97, 
			 "cosmo_cavitation_energy": 31.5, 
			 "cosmo_dispersion_energy": -22.73, 
			 "cosmo_repulsion_energy": 1.74, 
			 "cosmo_total_nonelectrostatic_energy": 10.51, 
			 "SMD_solvation_energy": 5.41 
		},
		"coords": [
			{
				"x": -1.0932747492,
				"y": 3.3178264875,
				"z": -0.7271917757,
				"element": "C" 
			},
			{
				"x": -1.1310578379,
				"y": 1.8942734393,
				"z": -0.9300799485,
				"element": "O" 
			},
			{
				"x": 0.0053475848,
				"y": 1.2370514666,
				"z": -0.6232968368,
				"element": "C" 
			},
			{
				"x": 0.9932884356,
				"y": 1.8121649458,
				"z": -0.2018181113,
				"element": "O" 
			},
			{
				"x": -0.1119489522,
				"y": -0.2339569178,
				"z": -0.8863019219,
				"element": "C" 
			},
			{
				"x": 0.8162989124,
				"y": -1.1710976663,
				"z": -0.3706646426,
				"element": "C" 
			},
			{
				"x": 1.9606401149,
				"y": -0.7886349426,
				"z": 0.525479955,
				"element": "C" 
			},
			{
				"x": 1.7632289819,
				"y": -1.2944471328,
				"z": 2.2823891958,
				"element": "S" 
			},
			{
				"x": 0.0522460977,
				"y": -0.1550903573,
				"z": 2.8571445946,
				"element": "Cl" 
			},
			{
				"x": 1.3796551592,
				"y": -2.6997315774,
				"z": 2.3705464441,
				"element": "O" 
			},
			{
				"x": 2.9004562034,
				"y": -0.7710392872,
				"z": 3.0298585983,
				"element": "O" 
			},
			{
				"x": 0.6605952413,
				"y": -2.5249506741,
				"z": -0.69693313,
				"element": "C" 
			},
			{
				"x": -0.3796988391,
				"y": -2.9599393306,
				"z": -1.5143291446,
				"element": "C" 
			},
			{
				"x": -1.2928250629,
				"y": -2.0362683035,
				"z": -2.0212949324,
				"element": "C" 
			},
			{
				"x": -1.1569852598,
				"y": -0.6872537293,
				"z": -1.7065776224,
				"element": "C" 
			},
			{
				"x": -0.3221524774,
				"y": 3.7744581287,
				"z": -1.3522590547,
				"element": "H" 
			},
			{
				"x": -2.081892157,
				"y": 3.6778523451,
				"z": -1.0102151671,
				"element": "H" 
			},
			{
				"x": -0.883150636,
				"y": 3.547951019,
				"z": 0.319640284,
				"element": "H" 
			},
			{
				"x": 2.1473059502,
				"y": 0.2830721876,
				"z": 0.5550128134,
				"element": "H" 
			},
			{
				"x": 2.8799556295,
				"y": -1.3225681822,
				"z": 0.2623021723,
				"element": "H" 
			},
			{
				"x": 1.3597320354,
				"y": -3.2465943002,
				"z": -0.2870942229,
				"element": "H" 
			},
			{
				"x": -0.4748178508,
				"y": -4.0151428667,
				"z": -1.7513366811,
				"element": "H" 
			},
			{
				"x": -2.1070861196,
				"y": -2.3623703176,
				"z": -2.6610166396,
				"element": "H" 
			},
			{
				"x": -1.8613604046,
				"y": 0.035535566,
				"z": -2.098764226,
				"element": "H" 
			}
		],
		 "valence_orbital": [ 
			{
				"type": "occ",
				"energy": -0.31742,
				"method": "rhf"
			},
			{
				"type": "occ",
				"energy": -0.30888,
				"method": "rhf"
			},
			{
				"type": "occ",
				"energy": -0.2889,
				"method": "rhf"
			},
			{
				"type": "occ",
				"energy": -0.27734,
				"method": "rhf"
			},
			{
				"type": "occ",
				"energy": -0.27335,
				"method": "rhf"
			},
			{
				"type": "unocc",
				"energy": -0.08364,
				"method": "rhf"
			},
			{
				"type": "unocc",
				"energy": -0.06098,
				"method": "rhf"
			},
			{
				"type": "unocc",
				"energy": -0.03307,
				"method": "rhf"
			},
			{
				"type": "unocc",
				"energy": 0.03537,
				"method": "rhf"
			},
			{
				"type": "unocc",
				"energy": 0.05711,
				"method": "rhf"
			}
		],
		"cosmo_sigma_profile": { 
			"-0.025": 0.0,
			"-0.024": 0.0,
			"-0.023": 0.0,
			"-0.022": 0.0,
			"-0.021": 0.0,
			"-0.02": 0.0,
			"-0.019": 0.0,
			"-0.018": 0.0,
			"-0.017": 0.0,
			"-0.016": 0.0,
			"-0.015": 0.0,
			"-0.014": 0.0,
			"-0.013": 0.232884517497,
			"-0.012": 1.27542608401,
			"-0.011": 2.09569163615,
			"-0.01": 1.98999663833,
			"-0.009": 1.81048735867,
			"-0.008": 2.01459295314,
			"-0.007": 9.34932532537,
			"-0.006": 16.3908604599,
			"-0.005": 18.5487927882,
			"-0.004": 17.0266712584,
			"-0.003": 16.423786072,
			"-0.002": 12.6512450297,
			"-0.001": 16.5849136938,
			"0.0": 17.8864634584,
			"0.001": 19.2539411997,
			"0.002": 23.2520023496,
			"0.003": 21.8412846583,
			"0.004": 13.4142404797,
			"0.005": 5.98064602365,
			"0.006": 4.91049503675,
			"0.007": 5.92398983256,
			"0.008": 12.2587206748,
			"0.009": 8.82811556789,
			"0.01": 2.0883344188,
			"0.011": 1.96302290605,
			"0.012": 0.428983440512,
			"0.013": 0.0,
			"0.014": 0.0,
			"0.015": 0.0,
			"0.016": 0.0,
			"0.017": 0.0,
			"0.018": 0.0,
			"0.019": 0.0,
			"0.02": 0.0,
			"0.021": 0.0,
			"0.022": 0.0,
			"0.023": 0.0,
			"0.024": 0.0,
			"0.025": 0.0
		}
	}
}
