{
	 "smiles": "O=C1CCCC2=CC=CC=C12", 
	 "Tm": 280.65, 
	 "num_atms": 21, 
	 "gaussian": { 
		 "optdone": 1, 
		 "sigma_profile": "yes", 
		 "theory": "DFT", 
		 "functional": "B3LYP", 
		 "basiset": "6-31G**", 
		 "properties": { 
			 "R2extent": 2018.0449, 
			 "electric_dipole_moment_norm": 3.27859771549, 
			 "electric_quadrupole_moment_norm": 9.24521904121, 
			 "total_energy": -462.331148894, 
			 "HOMO_LUMO_gap": 0.18709, 
			 "cosmo_polarized_energy": -7.92, 
			 "cosmo_cavitation_energy": 23.45, 
			 "cosmo_dispersion_energy": -17.71, 
			 "cosmo_repulsion_energy": 1.41, 
			 "cosmo_total_nonelectrostatic_energy": 7.15, 
			 "SMD_solvation_energy": 3.93 
		},
		"coords": [
			{
				"x": 0.687482331,
				"y": -0.0354045348,
				"z": -2.6314562496,
				"element": "O" 
			},
			{
				"x": 0.3532082591,
				"y": -0.0956221508,
				"z": -1.4571802908,
				"element": "C" 
			},
			{
				"x": -0.5934649412,
				"y": 0.9338615751,
				"z": -0.853047183,
				"element": "C" 
			},
			{
				"x": -0.3666955181,
				"y": 1.1384935104,
				"z": 0.6492785903,
				"element": "C" 
			},
			{
				"x": -0.4680737742,
				"y": -0.2006312664,
				"z": 1.3893225346,
				"element": "C" 
			},
			{
				"x": 0.4533537901,
				"y": -1.247601891,
				"z": 0.798334601,
				"element": "C" 
			},
			{
				"x": 0.9403236514,
				"y": -2.2994081461,
				"z": 1.5843529593,
				"element": "C" 
			},
			{
				"x": 1.7774047418,
				"y": -3.2729007532,
				"z": 1.0417879098,
				"element": "C" 
			},
			{
				"x": 2.1508391593,
				"y": -3.2111885884,
				"z": -0.305631818,
				"element": "C" 
			},
			{
				"x": 1.6805665041,
				"y": -2.1715000513,
				"z": -1.0976903568,
				"element": "C" 
			},
			{
				"x": 0.8329341926,
				"y": -1.190054679,
				"z": -0.5590844329,
				"element": "C" 
			},
			{
				"x": -1.6170849694,
				"y": 0.5658465589,
				"z": -1.0226353235,
				"element": "H" 
			},
			{
				"x": -0.4927546245,
				"y": 1.8590109665,
				"z": -1.4272900901,
				"element": "H" 
			},
			{
				"x": 0.6275413158,
				"y": 1.5724916835,
				"z": 0.8150859354,
				"element": "H" 
			},
			{
				"x": -1.0952484388,
				"y": 1.8512697557,
				"z": 1.0502873024,
				"element": "H" 
			},
			{
				"x": -0.2483411635,
				"y": -0.0745078549,
				"z": 2.4553385744,
				"element": "H" 
			},
			{
				"x": -1.5062747046,
				"y": -0.5623001833,
				"z": 1.3330167951,
				"element": "H" 
			},
			{
				"x": 0.6625332104,
				"y": -2.3506783751,
				"z": 2.6343418899,
				"element": "H" 
			},
			{
				"x": 2.145294028,
				"y": -4.0783067853,
				"z": 1.6715813078,
				"element": "H" 
			},
			{
				"x": 2.8047005652,
				"y": -3.9690524009,
				"z": -0.7269072426,
				"element": "H" 
			},
			{
				"x": 1.9498563853,
				"y": -2.0877163898,
				"z": -2.1456054128,
				"element": "H" 
			}
		],
		 "valence_orbital": [ 
			{
				"type": "occ",
				"energy": -0.33524,
				"method": "rhf"
			},
			{
				"type": "occ",
				"energy": -0.33269,
				"method": "rhf"
			},
			{
				"type": "occ",
				"energy": -0.25531,
				"method": "rhf"
			},
			{
				"type": "occ",
				"energy": -0.25039,
				"method": "rhf"
			},
			{
				"type": "occ",
				"energy": -0.23917,
				"method": "rhf"
			},
			{
				"type": "unocc",
				"energy": -0.05208,
				"method": "rhf"
			},
			{
				"type": "unocc",
				"energy": -0.00774,
				"method": "rhf"
			},
			{
				"type": "unocc",
				"energy": 0.04275,
				"method": "rhf"
			},
			{
				"type": "unocc",
				"energy": 0.09099,
				"method": "rhf"
			},
			{
				"type": "unocc",
				"energy": 0.10131,
				"method": "rhf"
			}
		],
		"cosmo_sigma_profile": { 
			"-0.025": 0.0,
			"-0.024": 0.0,
			"-0.023": 0.0,
			"-0.022": 0.0,
			"-0.021": 0.0,
			"-0.02": 0.0,
			"-0.019": 0.0,
			"-0.018": 0.0,
			"-0.017": 0.0,
			"-0.016": 0.0,
			"-0.015": 0.0,
			"-0.014": 0.0,
			"-0.013": 0.0,
			"-0.012": 0.0,
			"-0.011": 0.0,
			"-0.01": 0.0,
			"-0.009": 0.0,
			"-0.008": 0.0,
			"-0.007": 0.325521058798,
			"-0.006": 6.20401899348,
			"-0.005": 14.0287795167,
			"-0.004": 22.8966131202,
			"-0.003": 22.6519765392,
			"-0.002": 21.7824693139,
			"-0.001": 19.1349585942,
			"0.0": 12.1479269112,
			"0.001": 8.57724482589,
			"0.002": 9.24414734874,
			"0.003": 11.3568352663,
			"0.004": 12.3731976856,
			"0.005": 6.39917750036,
			"0.006": 2.13116229733,
			"0.007": 1.51210241351,
			"0.008": 1.30567031364,
			"0.009": 1.75090160038,
			"0.01": 1.67085551445,
			"0.011": 2.75338129812,
			"0.012": 4.12369563659,
			"0.013": 2.72168148497,
			"0.014": 0.609456734529,
			"0.015": 0.0,
			"0.016": 0.0,
			"0.017": 0.0,
			"0.018": 0.0,
			"0.019": 0.0,
			"0.02": 0.0,
			"0.021": 0.0,
			"0.022": 0.0,
			"0.023": 0.0,
			"0.024": 0.0,
			"0.025": 0.0
		}
	}
}
