{
	 "smiles": "CCOC1=C(CCl)C=C(C=C1)C(C)=O", 
	 "Tm": 354.15, 
	 "num_atms": 27, 
	 "gaussian": { 
		 "optdone": 1, 
		 "sigma_profile": "yes", 
		 "theory": "DFT", 
		 "functional": "B3LYP", 
		 "basiset": "6-31G**", 
		 "properties": { 
			 "R2extent": 3961.9414, 
			 "electric_dipole_moment_norm": 2.9997755566, 
			 "electric_quadrupole_moment_norm": 21.4754287627, 
			 "total_energy": -1037.65371999, 
			 "HOMO_LUMO_gap": 0.18326, 
			 "cosmo_polarized_energy": -12.61, 
			 "cosmo_cavitation_energy": 32.29, 
			 "cosmo_dispersion_energy": -22.71, 
			 "cosmo_repulsion_energy": 1.82, 
			 "cosmo_total_nonelectrostatic_energy": 11.4, 
			 "SMD_solvation_energy": 6.24 
		},
		"coords": [
			{
				"x": 2.32900606,
				"y": -0.7348612125,
				"z": 3.4781541457,
				"element": "C" 
			},
			{
				"x": 0.9037941415,
				"y": -1.2736561635,
				"z": 3.4897390523,
				"element": "C" 
			},
			{
				"x": 0.0319341722,
				"y": -0.5252025154,
				"z": 2.6296568001,
				"element": "O" 
			},
			{
				"x": 0.0265416088,
				"y": -0.7391268253,
				"z": 1.2909607513,
				"element": "C" 
			},
			{
				"x": -0.8224783563,
				"y": 0.1124527714,
				"z": 0.5452386576,
				"element": "C" 
			},
			{
				"x": -1.6204054253,
				"y": 1.1715257547,
				"z": 1.2357625754,
				"element": "C" 
			},
			{
				"x": -0.6530642609,
				"y": 2.7138268679,
				"z": 1.5169422308,
				"element": "Cl" 
			},
			{
				"x": -0.9003409055,
				"y": -0.0554060629,
				"z": -0.8358687532,
				"element": "C" 
			},
			{
				"x": -0.1651704667,
				"y": -1.0455639515,
				"z": -1.5038013453,
				"element": "C" 
			},
			{
				"x": 0.6682825649,
				"y": -1.8776837116,
				"z": -0.7428034951,
				"element": "C" 
			},
			{
				"x": 0.7695018891,
				"y": -1.7334614932,
				"z": 0.6350686702,
				"element": "C" 
			},
			{
				"x": -0.223938034,
				"y": -1.2562127026,
				"z": -2.9812564416,
				"element": "C" 
			},
			{
				"x": -1.1178667591,
				"y": -0.3533049979,
				"z": -3.8164069893,
				"element": "C" 
			},
			{
				"x": 0.4357953232,
				"y": -2.1385398983,
				"z": -3.5129495512,
				"element": "O" 
			},
			{
				"x": 2.3342790551,
				"y": 0.3238438019,
				"z": 3.7507152964,
				"element": "H" 
			},
			{
				"x": 2.9388833753,
				"y": -1.2834094832,
				"z": 4.2035380385,
				"element": "H" 
			},
			{
				"x": 2.7941781663,
				"y": -0.8367424843,
				"z": 2.4941339867,
				"element": "H" 
			},
			{
				"x": 0.4594067369,
				"y": -1.1588510095,
				"z": 4.4816416015,
				"element": "H" 
			},
			{
				"x": 0.8647079267,
				"y": -2.3387785974,
				"z": 3.2321175418,
				"element": "H" 
			},
			{
				"x": -2.4789288836,
				"y": 1.4778622786,
				"z": 0.6389949447,
				"element": "H" 
			},
			{
				"x": -1.9446559528,
				"y": 0.8590686273,
				"z": 2.2263678742,
				"element": "H" 
			},
			{
				"x": -1.5526144918,
				"y": 0.6095397504,
				"z": -1.3944500158,
				"element": "H" 
			},
			{
				"x": 1.2370551662,
				"y": -2.641887811,
				"z": -1.2621904932,
				"element": "H" 
			},
			{
				"x": 1.4265478005,
				"y": -2.3907943349,
				"z": 1.1911837585,
				"element": "H" 
			},
			{
				"x": -1.0328935361,
				"y": -0.6506821854,
				"z": -4.8618725881,
				"element": "H" 
			},
			{
				"x": -2.1642534957,
				"y": -0.4326990748,
				"z": -3.5010581645,
				"element": "H" 
			},
			{
				"x": -0.8241034189,
				"y": 0.697144663,
				"z": -3.7126580881,
				"element": "H" 
			}
		],
		 "valence_orbital": [ 
			{
				"type": "occ",
				"energy": -0.29267,
				"method": "rhf"
			},
			{
				"type": "occ",
				"energy": -0.2891,
				"method": "rhf"
			},
			{
				"type": "occ",
				"energy": -0.2645,
				"method": "rhf"
			},
			{
				"type": "occ",
				"energy": -0.24534,
				"method": "rhf"
			},
			{
				"type": "occ",
				"energy": -0.23341,
				"method": "rhf"
			},
			{
				"type": "unocc",
				"energy": -0.05015,
				"method": "rhf"
			},
			{
				"type": "unocc",
				"energy": -0.0306,
				"method": "rhf"
			},
			{
				"type": "unocc",
				"energy": 0.02506,
				"method": "rhf"
			},
			{
				"type": "unocc",
				"energy": 0.05803,
				"method": "rhf"
			},
			{
				"type": "unocc",
				"energy": 0.08095,
				"method": "rhf"
			}
		],
		"cosmo_sigma_profile": { 
			"-0.025": 0.0,
			"-0.024": 0.0,
			"-0.023": 0.0,
			"-0.022": 0.0,
			"-0.021": 0.0,
			"-0.02": 0.0,
			"-0.019": 0.0,
			"-0.018": 0.0,
			"-0.017": 0.0,
			"-0.016": 0.0,
			"-0.015": 0.0,
			"-0.014": 0.0,
			"-0.013": 0.0,
			"-0.012": 0.0,
			"-0.011": 0.0,
			"-0.01": 0.0,
			"-0.009": 0.09308763647,
			"-0.008": 3.55304578569,
			"-0.007": 8.16030544876,
			"-0.006": 16.3953889531,
			"-0.005": 20.1824956643,
			"-0.004": 23.4598914266,
			"-0.003": 22.4702955931,
			"-0.002": 18.7441993713,
			"-0.001": 19.5596049238,
			"0.0": 20.3643181445,
			"0.001": 14.4096610725,
			"0.002": 15.2401317516,
			"0.003": 16.5518357341,
			"0.004": 11.4165170014,
			"0.005": 8.38332892073,
			"0.006": 10.5381655426,
			"0.007": 12.1808691239,
			"0.008": 3.19918841734,
			"0.009": 1.3494516698,
			"0.01": 2.11689608148,
			"0.011": 2.68274982389,
			"0.012": 3.89522786822,
			"0.013": 2.47655355539,
			"0.014": 0.437031038318,
			"0.015": 0.0,
			"0.016": 0.0,
			"0.017": 0.0,
			"0.018": 0.0,
			"0.019": 0.0,
			"0.02": 0.0,
			"0.021": 0.0,
			"0.022": 0.0,
			"0.023": 0.0,
			"0.024": 0.0,
			"0.025": 0.0
		}
	}
}
