{
	 "smiles": "C1=CC2=C(C=C1)C1=CC=CN=C1C=C2", 
	 "Tm": 367.15, 
	 "num_atms": 23, 
	 "gaussian": { 
		 "optdone": 1, 
		 "sigma_profile": "yes", 
		 "theory": "DFT", 
		 "functional": "B3LYP", 
		 "basiset": "6-31G**", 
		 "properties": { 
			 "R2extent": 2844.6172, 
			 "electric_dipole_moment_norm": 2.13652084708, 
			 "electric_quadrupole_moment_norm": 9.59646268789, 
			 "total_energy": -555.57903552, 
			 "HOMO_LUMO_gap": 0.17189, 
			 "cosmo_polarized_energy": -7.86, 
			 "cosmo_cavitation_energy": 26.34, 
			 "cosmo_dispersion_energy": -20.01, 
			 "cosmo_repulsion_energy": 1.5, 
			 "cosmo_total_nonelectrostatic_energy": 7.83, 
			 "SMD_solvation_energy": 2.6 
		},
		"coords": [
			{
				"x": -2.3313017259,
				"y": -1.7852955284,
				"z": -1.8386063456,
				"element": "C" 
			},
			{
				"x": -1.8302429216,
				"y": -0.5203072967,
				"z": -2.0757899649,
				"element": "C" 
			},
			{
				"x": -0.6297827061,
				"y": -0.0850606479,
				"z": -1.46770368,
				"element": "C" 
			},
			{
				"x": 0.0752814547,
				"y": -0.9668033428,
				"z": -0.5950902635,
				"element": "C" 
			},
			{
				"x": -0.4627117514,
				"y": -2.255592902,
				"z": -0.3718903643,
				"element": "C" 
			},
			{
				"x": -1.6389231931,
				"y": -2.6584152358,
				"z": -0.9783891371,
				"element": "C" 
			},
			{
				"x": 1.3089039064,
				"y": -0.5040629892,
				"z": 0.0227275041,
				"element": "C" 
			},
			{
				"x": 2.0915314182,
				"y": -1.2846414657,
				"z": 0.9013103163,
				"element": "C" 
			},
			{
				"x": 3.2501506374,
				"y": -0.7613642238,
				"z": 1.4413443473,
				"element": "C" 
			},
			{
				"x": 3.6232238205,
				"y": 0.5517038779,
				"z": 1.0967165502,
				"element": "C" 
			},
			{
				"x": 2.9233227536,
				"y": 1.3207810068,
				"z": 0.2788455639,
				"element": "N" 
			},
			{
				"x": 1.7827076169,
				"y": 0.8122780546,
				"z": -0.2558687733,
				"element": "C" 
			},
			{
				"x": 1.0391049777,
				"y": 1.6638845088,
				"z": -1.1405989818,
				"element": "C" 
			},
			{
				"x": -0.113660009,
				"y": 1.2318188855,
				"z": -1.7182185426,
				"element": "C" 
			},
			{
				"x": -3.2542687889,
				"y": -2.1065710391,
				"z": -2.3121748866,
				"element": "H" 
			},
			{
				"x": -2.3553332544,
				"y": 0.1634233636,
				"z": -2.7379174813,
				"element": "H" 
			},
			{
				"x": 0.0492551436,
				"y": -2.9495422616,
				"z": 0.2860897485,
				"element": "H" 
			},
			{
				"x": -2.029219733,
				"y": -3.6541012923,
				"z": -0.788955503,
				"element": "H" 
			},
			{
				"x": 1.7907818219,
				"y": -2.2950493433,
				"z": 1.1573195122,
				"element": "H" 
			},
			{
				"x": 3.8660092257,
				"y": -1.344615289,
				"z": 2.1186281715,
				"element": "H" 
			},
			{
				"x": 4.5327850581,
				"y": 0.9860883198,
				"z": 1.5099977264,
				"element": "H" 
			},
			{
				"x": 1.4393699913,
				"y": 2.6558598211,
				"z": -1.3215509011,
				"element": "H" 
			},
			{
				"x": -0.6716837428,
				"y": 1.8819850197,
				"z": -2.3872246153,
				"element": "H" 
			}
		],
		 "valence_orbital": [ 
			{
				"type": "occ",
				"energy": -0.3024,
				"method": "rhf"
			},
			{
				"type": "occ",
				"energy": -0.27271,
				"method": "rhf"
			},
			{
				"type": "occ",
				"energy": -0.25202,
				"method": "rhf"
			},
			{
				"type": "occ",
				"energy": -0.23453,
				"method": "rhf"
			},
			{
				"type": "occ",
				"energy": -0.22121,
				"method": "rhf"
			},
			{
				"type": "unocc",
				"energy": -0.04932,
				"method": "rhf"
			},
			{
				"type": "unocc",
				"energy": -0.03967,
				"method": "rhf"
			},
			{
				"type": "unocc",
				"energy": -0.00088,
				"method": "rhf"
			},
			{
				"type": "unocc",
				"energy": 0.02626,
				"method": "rhf"
			},
			{
				"type": "unocc",
				"energy": 0.07537,
				"method": "rhf"
			}
		],
		"cosmo_sigma_profile": { 
			"-0.025": 0.0,
			"-0.024": 0.0,
			"-0.023": 0.0,
			"-0.022": 0.0,
			"-0.021": 0.0,
			"-0.02": 0.0,
			"-0.019": 0.0,
			"-0.018": 0.0,
			"-0.017": 0.0,
			"-0.016": 0.0,
			"-0.015": 0.0,
			"-0.014": 0.0,
			"-0.013": 0.0,
			"-0.012": 0.0,
			"-0.011": 0.0,
			"-0.01": 0.0,
			"-0.009": 0.818415103495,
			"-0.008": 2.20460088666,
			"-0.007": 4.48392036058,
			"-0.006": 16.7498803539,
			"-0.005": 17.9581086427,
			"-0.004": 16.1296901952,
			"-0.003": 13.0826889904,
			"-0.002": 12.0242397814,
			"-0.001": 9.93825200873,
			"0.0": 11.4731233335,
			"0.001": 16.8069264607,
			"0.002": 27.1299830329,
			"0.003": 25.0635285364,
			"0.004": 17.4691959274,
			"0.005": 9.88887626659,
			"0.006": 1.46980973246,
			"0.007": 1.6149245438,
			"0.008": 1.34018273477,
			"0.009": 1.01557985131,
			"0.01": 1.07098937479,
			"0.011": 0.722529728064,
			"0.012": 1.12624923187,
			"0.013": 1.08454684016,
			"0.014": 0.440263658237,
			"0.015": 0.912401681779,
			"0.016": 0.639946395588,
			"0.017": 0.0596539197574,
			"0.018": 0.0,
			"0.019": 0.0,
			"0.02": 0.0,
			"0.021": 0.0,
			"0.022": 0.0,
			"0.023": 0.0,
			"0.024": 0.0,
			"0.025": 0.0
		}
	}
}
