{
	 "smiles": "NC1=CC=C(OC2=CC=NC=C2)C=C1", 
	 "Tm": 434.15, 
	 "num_atms": 24, 
	 "gaussian": { 
		 "optdone": 1, 
		 "sigma_profile": "yes", 
		 "theory": "DFT", 
		 "functional": "B3LYP", 
		 "basiset": "6-31G**", 
		 "properties": { 
			 "R2extent": 4050.2157, 
			 "electric_dipole_moment_norm": 4.453962309, 
			 "electric_quadrupole_moment_norm": 17.8324172927, 
			 "total_energy": -609.910758747, 
			 "HOMO_LUMO_gap": 0.1943, 
			 "cosmo_polarized_energy": -12.7, 
			 "cosmo_cavitation_energy": 28.67, 
			 "cosmo_dispersion_energy": -20.87, 
			 "cosmo_repulsion_energy": 1.65, 
			 "cosmo_total_nonelectrostatic_energy": 9.45, 
			 "SMD_solvation_energy": 3.71 
		},
		"coords": [
			{
				"x": 1.6391908368,
				"y": -0.6840930406,
				"z": 3.2523958453,
				"element": "N" 
			},
			{
				"x": 0.6936765761,
				"y": -0.2864533432,
				"z": 2.3059203387,
				"element": "C" 
			},
			{
				"x": 0.2791869043,
				"y": 1.0549809858,
				"z": 2.2234104522,
				"element": "C" 
			},
			{
				"x": -0.7075256763,
				"y": 1.4416445343,
				"z": 1.3200926909,
				"element": "C" 
			},
			{
				"x": -1.2937549177,
				"y": 0.4928697725,
				"z": 0.4842718376,
				"element": "C" 
			},
			{
				"x": -2.3358599064,
				"y": 0.8663487482,
				"z": -0.365649492,
				"element": "O" 
			},
			{
				"x": -2.0546086426,
				"y": 1.2680480248,
				"z": -1.6409920505,
				"element": "C" 
			},
			{
				"x": -3.146528231,
				"y": 1.6264345586,
				"z": -2.4398464626,
				"element": "C" 
			},
			{
				"x": -2.8998763612,
				"y": 2.0408180976,
				"z": -3.7440586342,
				"element": "C" 
			},
			{
				"x": -1.6787657733,
				"y": 2.1219855251,
				"z": -4.2950401486,
				"element": "N" 
			},
			{
				"x": -0.6522883476,
				"y": 1.7741162663,
				"z": -3.5108965152,
				"element": "C" 
			},
			{
				"x": -0.7708895929,
				"y": 1.3428946959,
				"z": -2.1886608505,
				"element": "C" 
			},
			{
				"x": -0.899643017,
				"y": -0.8422419171,
				"z": 0.5525999743,
				"element": "C" 
			},
			{
				"x": 0.0871105075,
				"y": -1.2286614644,
				"z": 1.4559405704,
				"element": "C" 
			},
			{
				"x": 2.1326360861,
				"y": -1.5392901815,
				"z": 3.0371941237,
				"element": "H" 
			},
			{
				"x": 2.2653734332,
				"y": 0.0429736397,
				"z": 3.569307277,
				"element": "H" 
			},
			{
				"x": 0.7286529812,
				"y": 1.796321682,
				"z": 2.8790811209,
				"element": "H" 
			},
			{
				"x": -1.0308808638,
				"y": 2.4761102751,
				"z": 1.2628730065,
				"element": "H" 
			},
			{
				"x": -4.1520728889,
				"y": 1.5764476969,
				"z": -2.0366926443,
				"element": "H" 
			},
			{
				"x": -3.7336399633,
				"y": 2.3245142967,
				"z": -4.3842551357,
				"element": "H" 
			},
			{
				"x": 0.3374502564,
				"y": 1.8409803835,
				"z": -3.9606329325,
				"element": "H" 
			},
			{
				"x": 0.1053272531,
				"y": 1.076319227,
				"z": -1.6104114117,
				"element": "H" 
			},
			{
				"x": -1.3713696454,
				"y": -1.5721745607,
				"z": -0.097500968,
				"element": "H" 
			},
			{
				"x": 0.3864989928,
				"y": -2.2720939022,
				"z": 1.5118500083,
				"element": "H" 
			}
		],
		 "valence_orbital": [ 
			{
				"type": "occ",
				"energy": -0.26145,
				"method": "rhf"
			},
			{
				"type": "occ",
				"energy": -0.25525,
				"method": "rhf"
			},
			{
				"type": "occ",
				"energy": -0.24682,
				"method": "rhf"
			},
			{
				"type": "occ",
				"energy": -0.24291,
				"method": "rhf"
			},
			{
				"type": "occ",
				"energy": -0.20896,
				"method": "rhf"
			},
			{
				"type": "unocc",
				"energy": -0.01466,
				"method": "rhf"
			},
			{
				"type": "unocc",
				"energy": -0.00188,
				"method": "rhf"
			},
			{
				"type": "unocc",
				"energy": 0.00051,
				"method": "rhf"
			},
			{
				"type": "unocc",
				"energy": 0.00888,
				"method": "rhf"
			},
			{
				"type": "unocc",
				"energy": 0.07147,
				"method": "rhf"
			}
		],
		"cosmo_sigma_profile": { 
			"-0.025": 0.0,
			"-0.024": 0.0,
			"-0.023": 0.0,
			"-0.022": 0.0,
			"-0.021": 0.0,
			"-0.02": 0.0,
			"-0.019": 0.0,
			"-0.018": 0.0,
			"-0.017": 0.0,
			"-0.016": 0.0,
			"-0.015": 0.0,
			"-0.014": 0.0,
			"-0.013": 0.392030328534,
			"-0.012": 3.01853811292,
			"-0.011": 2.54519036418,
			"-0.01": 2.41965928214,
			"-0.009": 3.29163082912,
			"-0.008": 4.20277285406,
			"-0.007": 5.86268771244,
			"-0.006": 16.4408388664,
			"-0.005": 15.3905145571,
			"-0.004": 14.2779200332,
			"-0.003": 12.3581163831,
			"-0.002": 12.6439493887,
			"-0.001": 12.7662347199,
			"0.0": 14.0169286743,
			"0.001": 14.2643871464,
			"0.002": 20.508323054,
			"0.003": 19.6210526945,
			"0.004": 14.1859948859,
			"0.005": 13.771469577,
			"0.006": 5.76329926231,
			"0.007": 3.59667966042,
			"0.008": 4.06298255871,
			"0.009": 3.10554932677,
			"0.01": 1.41531421057,
			"0.011": 1.89856991748,
			"0.012": 1.95354615582,
			"0.013": 1.25701282611,
			"0.014": 1.61793415236,
			"0.015": 1.22442002591,
			"0.016": 0.870707320775,
			"0.017": 0.644865645745,
			"0.018": 0.0804062400687,
			"0.019": 0.0,
			"0.02": 0.0,
			"0.021": 0.0,
			"0.022": 0.0,
			"0.023": 0.0,
			"0.024": 0.0,
			"0.025": 0.0
		}
	}
}
