{
	 "smiles": "CC(C1=C(F)C=C(F)C=C1)S(N)(=O)=O", 
	 "Tm": 367.15, 
	 "num_atms": 23, 
	 "gaussian": { 
		 "optdone": 1, 
		 "sigma_profile": "yes", 
		 "theory": "DFT", 
		 "functional": "B3LYP", 
		 "basiset": "6-31G**", 
		 "properties": { 
			 "R2extent": 3613.3946, 
			 "electric_dipole_moment_norm": 3.28268575103, 
			 "electric_quadrupole_moment_norm": 7.3793348745, 
			 "total_energy": -1113.27330732, 
			 "HOMO_LUMO_gap": 0.22519, 
			 "cosmo_polarized_energy": -15.0, 
			 "cosmo_cavitation_energy": 29.05, 
			 "cosmo_dispersion_energy": -20.78, 
			 "cosmo_repulsion_energy": 1.55, 
			 "cosmo_total_nonelectrostatic_energy": 9.82, 
			 "SMD_solvation_energy": 5.63 
		},
		"coords": [
			{
				"x": 2.0267266391,
				"y": -1.642571509,
				"z": -0.5649661619,
				"element": "C" 
			},
			{
				"x": 0.6108081846,
				"y": -1.0593179369,
				"z": -0.5312757665,
				"element": "C" 
			},
			{
				"x": -0.1566910812,
				"y": -1.3558492661,
				"z": 0.736332258,
				"element": "C" 
			},
			{
				"x": -1.3941810893,
				"y": -2.0033094857,
				"z": 0.6736601104,
				"element": "C" 
			},
			{
				"x": -1.8904917427,
				"y": -2.3533625807,
				"z": -0.5322419347,
				"element": "F" 
			},
			{
				"x": -2.1410212444,
				"y": -2.3243820531,
				"z": 1.7998253809,
				"element": "C" 
			},
			{
				"x": -1.6211083851,
				"y": -1.9632807832,
				"z": 3.0366118867,
				"element": "C" 
			},
			{
				"x": -2.3259565931,
				"y": -2.2614306248,
				"z": 4.1433794489,
				"element": "F" 
			},
			{
				"x": -0.400898322,
				"y": -1.3074777422,
				"z": 3.1642598502,
				"element": "C" 
			},
			{
				"x": 0.3199483036,
				"y": -1.0102593262,
				"z": 2.0098369659,
				"element": "C" 
			},
			{
				"x": 0.6613330637,
				"y": 0.7627375583,
				"z": -0.7841143025,
				"element": "S" 
			},
			{
				"x": 1.3063479453,
				"y": 0.8814685877,
				"z": -2.3526971951,
				"element": "N" 
			},
			{
				"x": 1.6582053926,
				"y": 1.3323290359,
				"z": 0.1338588755,
				"element": "O" 
			},
			{
				"x": -0.7182703894,
				"y": 1.2560822488,
				"z": -0.8284079192,
				"element": "O" 
			},
			{
				"x": 2.5122973459,
				"y": -1.4237011963,
				"z": -1.518972795,
				"element": "H" 
			},
			{
				"x": 1.9671473342,
				"y": -2.7281328775,
				"z": -0.4468438689,
				"element": "H" 
			},
			{
				"x": 2.6417656524,
				"y": -1.2391129345,
				"z": 0.242361663,
				"element": "H" 
			},
			{
				"x": 0.0345459367,
				"y": -1.414667265,
				"z": -1.3882395043,
				"element": "H" 
			},
			{
				"x": -3.0935782243,
				"y": -2.8319571563,
				"z": 1.7121377055,
				"element": "H" 
			},
			{
				"x": -0.036684737,
				"y": -1.0356556522,
				"z": 4.1481606393,
				"element": "H" 
			},
			{
				"x": 1.2614906457,
				"y": -0.4782878847,
				"z": 2.0929608186,
				"element": "H" 
			},
			{
				"x": 2.1523273747,
				"y": 1.4445165512,
				"z": -2.3193739565,
				"element": "H" 
			},
			{
				"x": 0.6119379901,
				"y": 1.3021222926,
				"z": -2.9651521983,
				"element": "H" 
			}
		],
		 "valence_orbital": [ 
			{
				"type": "occ",
				"energy": -0.31665,
				"method": "rhf"
			},
			{
				"type": "occ",
				"energy": -0.304,
				"method": "rhf"
			},
			{
				"type": "occ",
				"energy": -0.29278,
				"method": "rhf"
			},
			{
				"type": "occ",
				"energy": -0.26542,
				"method": "rhf"
			},
			{
				"type": "occ",
				"energy": -0.24984,
				"method": "rhf"
			},
			{
				"type": "unocc",
				"energy": -0.02465,
				"method": "rhf"
			},
			{
				"type": "unocc",
				"energy": -0.0125,
				"method": "rhf"
			},
			{
				"type": "unocc",
				"energy": 0.05386,
				"method": "rhf"
			},
			{
				"type": "unocc",
				"energy": 0.07049,
				"method": "rhf"
			},
			{
				"type": "unocc",
				"energy": 0.07935,
				"method": "rhf"
			}
		],
		"cosmo_sigma_profile": { 
			"-0.025": 0.0,
			"-0.024": 0.0,
			"-0.023": 0.0,
			"-0.022": 0.0,
			"-0.021": 0.0,
			"-0.02": 0.0,
			"-0.019": 0.0,
			"-0.018": 0.0,
			"-0.017": 0.0,
			"-0.016": 0.0,
			"-0.015": 0.852678880116,
			"-0.014": 2.37455255542,
			"-0.013": 2.89057146082,
			"-0.012": 2.61312940013,
			"-0.011": 1.476788871,
			"-0.01": 1.83006446228,
			"-0.009": 3.03631098111,
			"-0.008": 4.88912456919,
			"-0.007": 6.83534765039,
			"-0.006": 10.0984448725,
			"-0.005": 11.6151136754,
			"-0.004": 10.955568775,
			"-0.003": 14.143214887,
			"-0.002": 13.7778630766,
			"-0.001": 17.217942409,
			"0.0": 19.2455855391,
			"0.001": 19.5941152378,
			"0.002": 14.279734363,
			"0.003": 19.4010269307,
			"0.004": 16.1161259394,
			"0.005": 3.19589979419,
			"0.006": 3.5855859567,
			"0.007": 3.24511291121,
			"0.008": 4.08870887779,
			"0.009": 4.46032526621,
			"0.01": 6.10104693511,
			"0.011": 9.57816030712,
			"0.012": 3.56160238866,
			"0.013": 0.0,
			"0.014": 0.0,
			"0.015": 0.0,
			"0.016": 0.0,
			"0.017": 0.0,
			"0.018": 0.0,
			"0.019": 0.0,
			"0.02": 0.0,
			"0.021": 0.0,
			"0.022": 0.0,
			"0.023": 0.0,
			"0.024": 0.0,
			"0.025": 0.0
		}
	}
}
