{
	 "smiles": "OC(=O)C1=CC2=C(C=C1)C(=O)N(CCC1=CC=CC=C1)C(S)=N2", 
	 "Tm": 384.15, 
	 "num_atms": 37, 
	 "gaussian": { 
		 "optdone": 1, 
		 "sigma_profile": "yes", 
		 "theory": "DFT", 
		 "functional": "B3LYP", 
		 "basiset": "6-31G**", 
		 "properties": { 
			 "R2extent": 9708.6333, 
			 "electric_dipole_moment_norm": 6.66936377325, 
			 "electric_quadrupole_moment_norm": 21.9169225559, 
			 "total_energy": -1389.64303171, 
			 "HOMO_LUMO_gap": 0.16145, 
			 "cosmo_polarized_energy": -20.76, 
			 "cosmo_cavitation_energy": 42.51, 
			 "cosmo_dispersion_energy": -29.99, 
			 "cosmo_repulsion_energy": 2.2, 
			 "cosmo_total_nonelectrostatic_energy": 14.72, 
			 "SMD_solvation_energy": 6.19 
		},
		"coords": [
			{
				"x": 3.8589870318,
				"y": 4.6924454846,
				"z": 1.9172849567,
				"element": "O" 
			},
			{
				"x": 3.226548031,
				"y": 4.8613790596,
				"z": 0.7281623572,
				"element": "C" 
			},
			{
				"x": 3.317165759,
				"y": 5.9097687376,
				"z": 0.1348283593,
				"element": "O" 
			},
			{
				"x": 2.4277744806,
				"y": 3.6967452234,
				"z": 0.2114407268,
				"element": "C" 
			},
			{
				"x": 2.6538254001,
				"y": 2.3900314552,
				"z": 0.6306387936,
				"element": "C" 
			},
			{
				"x": 1.8878233439,
				"y": 1.3312397306,
				"z": 0.1029230554,
				"element": "C" 
			},
			{
				"x": 0.8952820478,
				"y": 1.619940937,
				"z": -0.8537563884,
				"element": "C" 
			},
			{
				"x": 0.6778431017,
				"y": 2.940666869,
				"z": -1.2827052996,
				"element": "C" 
			},
			{
				"x": 1.4418011161,
				"y": 3.9692014952,
				"z": -0.7624978393,
				"element": "C" 
			},
			{
				"x": 0.1154747653,
				"y": 0.5189674768,
				"z": -1.418681877,
				"element": "C" 
			},
			{
				"x": -0.7581616275,
				"y": 0.6444080023,
				"z": -2.2683635616,
				"element": "O" 
			},
			{
				"x": 0.4570393239,
				"y": -0.7719723776,
				"z": -0.9304051985,
				"element": "N" 
			},
			{
				"x": -0.220039837,
				"y": -1.887326562,
				"z": -1.6245180155,
				"element": "C" 
			},
			{
				"x": -1.6659430469,
				"y": -2.146292113,
				"z": -1.1487439239,
				"element": "C" 
			},
			{
				"x": -1.7889281058,
				"y": -2.6625394259,
				"z": 0.2677046955,
				"element": "C" 
			},
			{
				"x": -1.9870525812,
				"y": -1.7836571712,
				"z": 1.3420292617,
				"element": "C" 
			},
			{
				"x": -2.0592949107,
				"y": -2.2593426078,
				"z": 2.652533779,
				"element": "C" 
			},
			{
				"x": -1.9377991807,
				"y": -3.6256562987,
				"z": 2.9115455721,
				"element": "C" 
			},
			{
				"x": -1.7499749385,
				"y": -4.5147518492,
				"z": 1.8512827806,
				"element": "C" 
			},
			{
				"x": -1.6777316762,
				"y": -4.035746968,
				"z": 0.5415871946,
				"element": "C" 
			},
			{
				"x": 1.4304227572,
				"y": -0.9224808622,
				"z": 0.0504767911,
				"element": "C" 
			},
			{
				"x": 1.9014950897,
				"y": -2.5334549336,
				"z": 0.6673251843,
				"element": "S" 
			},
			{
				"x": 2.1219191633,
				"y": 0.0494475148,
				"z": 0.5549631599,
				"element": "N" 
			},
			{
				"x": 3.576842438,
				"y": 3.8665813466,
				"z": 2.3345507519,
				"element": "H" 
			},
			{
				"x": 3.4336196023,
				"y": 2.1255022021,
				"z": 1.3392223117,
				"element": "H" 
			},
			{
				"x": -0.0901020926,
				"y": 3.1224212324,
				"z": -2.0268640316,
				"element": "H" 
			},
			{
				"x": 1.3059334463,
				"y": 4.995444023,
				"z": -1.0839825792,
				"element": "H" 
			},
			{
				"x": -0.2527581018,
				"y": -1.6079893591,
				"z": -2.6791723273,
				"element": "H" 
			},
			{
				"x": 0.4022308583,
				"y": -2.7760062208,
				"z": -1.5216835343,
				"element": "H" 
			},
			{
				"x": -2.2305538034,
				"y": -1.2189548547,
				"z": -1.2743067697,
				"element": "H" 
			},
			{
				"x": -2.0949913552,
				"y": -2.8751521026,
				"z": -1.8467697606,
				"element": "H" 
			},
			{
				"x": -2.0911848572,
				"y": -0.7192712386,
				"z": 1.1482021243,
				"element": "H" 
			},
			{
				"x": -2.2130994416,
				"y": -1.5621060092,
				"z": 3.4710222991,
				"element": "H" 
			},
			{
				"x": -1.9954466292,
				"y": -3.9958028315,
				"z": 3.9307791567,
				"element": "H" 
			},
			{
				"x": -1.6668103623,
				"y": -5.5809669264,
				"z": 2.0417877775,
				"element": "H" 
			},
			{
				"x": -1.5445175275,
				"y": -4.7355667152,
				"z": -0.2807602323,
				"element": "H" 
			},
			{
				"x": 0.688562319,
				"y": -3.1230533628,
				"z": 0.6191202498,
				"element": "H" 
			}
		],
		 "valence_orbital": [ 
			{
				"type": "occ",
				"energy": -0.2767,
				"method": "rhf"
			},
			{
				"type": "occ",
				"energy": -0.27461,
				"method": "rhf"
			},
			{
				"type": "occ",
				"energy": -0.26736,
				"method": "rhf"
			},
			{
				"type": "occ",
				"energy": -0.25983,
				"method": "rhf"
			},
			{
				"type": "occ",
				"energy": -0.23758,
				"method": "rhf"
			},
			{
				"type": "unocc",
				"energy": -0.07613,
				"method": "rhf"
			},
			{
				"type": "unocc",
				"energy": -0.05363,
				"method": "rhf"
			},
			{
				"type": "unocc",
				"energy": -0.02188,
				"method": "rhf"
			},
			{
				"type": "unocc",
				"energy": -0.02021,
				"method": "rhf"
			},
			{
				"type": "unocc",
				"energy": 0.00401,
				"method": "rhf"
			}
		],
		"cosmo_sigma_profile": { 
			"-0.025": 0.0,
			"-0.024": 0.0,
			"-0.023": 0.0,
			"-0.022": 0.0,
			"-0.021": 0.0,
			"-0.02": 0.00434698005622,
			"-0.019": 0.384670673076,
			"-0.018": 1.28526082172,
			"-0.017": 0.770006052231,
			"-0.016": 1.1626317259,
			"-0.015": 1.1108530569,
			"-0.014": 0.479339813917,
			"-0.013": 1.03487281375,
			"-0.012": 1.58697009578,
			"-0.011": 0.990802449827,
			"-0.01": 1.41934616025,
			"-0.009": 1.28757845826,
			"-0.008": 2.1780560303,
			"-0.007": 6.51317887686,
			"-0.006": 17.1274699526,
			"-0.005": 32.4662433954,
			"-0.004": 29.6163249532,
			"-0.003": 25.8445513449,
			"-0.002": 20.5546408262,
			"-0.001": 23.2735216867,
			"0.0": 26.7374262977,
			"0.001": 26.2976175738,
			"0.002": 22.8785311689,
			"0.003": 16.2267787222,
			"0.004": 14.434449372,
			"0.005": 12.8923673113,
			"0.006": 9.32295526865,
			"0.007": 6.92979808308,
			"0.008": 6.36982179825,
			"0.009": 6.61089256982,
			"0.01": 7.71077849242,
			"0.011": 9.00240770284,
			"0.012": 6.91028036721,
			"0.013": 1.74424651115,
			"0.014": 0.171681119785,
			"0.015": 0.0,
			"0.016": 0.0,
			"0.017": 0.0,
			"0.018": 0.0,
			"0.019": 0.0,
			"0.02": 0.0,
			"0.021": 0.0,
			"0.022": 0.0,
			"0.023": 0.0,
			"0.024": 0.0,
			"0.025": 0.0
		}
	}
}
