{
	 "smiles": "OC(=O)C1=C(C=CC(SC#N)=C1)[N+]([O-])=O", 
	 "Tm": 431.15, 
	 "num_atms": 19, 
	 "gaussian": { 
		 "optdone": 1, 
		 "sigma_profile": "yes", 
		 "theory": "DFT", 
		 "functional": "B3LYP", 
		 "basiset": "6-31G**", 
		 "properties": { 
			 "R2extent": 4509.4055, 
			 "electric_dipole_moment_norm": 2.10957346637, 
			 "electric_quadrupole_moment_norm": 23.4906207394, 
			 "total_energy": -1115.7097926, 
			 "HOMO_LUMO_gap": 0.14707, 
			 "cosmo_polarized_energy": -16.13, 
			 "cosmo_cavitation_energy": 27.71, 
			 "cosmo_dispersion_energy": -20.46, 
			 "cosmo_repulsion_energy": 1.52, 
			 "cosmo_total_nonelectrostatic_energy": 8.77, 
			 "SMD_solvation_energy": 9.57 
		},
		"coords": [
			{
				"x": 4.3666818471,
				"y": -0.1268722128,
				"z": 1.33975068,
				"element": "O" 
			},
			{
				"x": 3.1952616747,
				"y": -0.3337561733,
				"z": 1.9203271409,
				"element": "C" 
			},
			{
				"x": 3.1066345931,
				"y": -0.5849119467,
				"z": 3.1025415285,
				"element": "O" 
			},
			{
				"x": 1.8992103418,
				"y": -0.2045925908,
				"z": 1.0962972139,
				"element": "C" 
			},
			{
				"x": 1.6414031842,
				"y": -0.3388091074,
				"z": -0.2894005169,
				"element": "C" 
			},
			{
				"x": 0.3389837877,
				"y": -0.2662623102,
				"z": -0.7965410004,
				"element": "C" 
			},
			{
				"x": -0.7433063167,
				"y": -0.0242870957,
				"z": 0.036006918,
				"element": "C" 
			},
			{
				"x": -0.5107564983,
				"y": 0.1116268168,
				"z": 1.405874891,
				"element": "C" 
			},
			{
				"x": -1.7935089305,
				"y": 0.4146990319,
				"z": 2.6246043962,
				"element": "S" 
			},
			{
				"x": -3.182184033,
				"y": 0.4650217113,
				"z": 1.6482052621,
				"element": "C" 
			},
			{
				"x": -4.1580157719,
				"y": 0.5081163309,
				"z": 1.0116834896,
				"element": "N" 
			},
			{
				"x": 0.7830558994,
				"y": 0.0030900146,
				"z": 1.916066085,
				"element": "C" 
			},
			{
				"x": 2.6612707656,
				"y": -0.5685814839,
				"z": -1.3297263528,
				"element": "N" 
			},
			{
				"x": 3.810660085,
				"y": -0.1223858827,
				"z": -1.1710341776,
				"element": "O" 
			},
			{
				"x": 2.3147970253,
				"y": -1.1540992438,
				"z": -2.3444217229,
				"element": "O" 
			},
			{
				"x": 4.2568986042,
				"y": 0.038066224,
				"z": 0.3740448333,
				"element": "H" 
			},
			{
				"x": 0.1895111223,
				"y": -0.3980089295,
				"z": -1.8604872394,
				"element": "H" 
			},
			{
				"x": -1.7423996544,
				"y": 0.0495048193,
				"z": -0.3782322809,
				"element": "H" 
			},
			{
				"x": 0.9747022743,
				"y": 0.0554420279,
				"z": 2.9825408524,
				"element": "H" 
			}
		],
		 "valence_orbital": [ 
			{
				"type": "occ",
				"energy": -0.33295,
				"method": "rhf"
			},
			{
				"type": "occ",
				"energy": -0.32924,
				"method": "rhf"
			},
			{
				"type": "occ",
				"energy": -0.31277,
				"method": "rhf"
			},
			{
				"type": "occ",
				"energy": -0.29263,
				"method": "rhf"
			},
			{
				"type": "occ",
				"energy": -0.28097,
				"method": "rhf"
			},
			{
				"type": "unocc",
				"energy": -0.1339,
				"method": "rhf"
			},
			{
				"type": "unocc",
				"energy": -0.08141,
				"method": "rhf"
			},
			{
				"type": "unocc",
				"energy": -0.05834,
				"method": "rhf"
			},
			{
				"type": "unocc",
				"energy": -0.0516,
				"method": "rhf"
			},
			{
				"type": "unocc",
				"energy": 0.00286,
				"method": "rhf"
			}
		],
		"cosmo_sigma_profile": { 
			"-0.025": 0.0,
			"-0.024": 0.0,
			"-0.023": 0.0,
			"-0.022": 0.0,
			"-0.021": 0.0,
			"-0.02": 0.0,
			"-0.019": 0.0,
			"-0.018": 0.0,
			"-0.017": 0.0,
			"-0.016": 0.0,
			"-0.015": 0.028174801376,
			"-0.014": 0.367620492691,
			"-0.013": 0.398035176669,
			"-0.012": 0.514175532457,
			"-0.011": 1.69584375592,
			"-0.01": 3.1428264281,
			"-0.009": 6.38534558114,
			"-0.008": 7.85750081801,
			"-0.007": 9.6412442809,
			"-0.006": 11.841340951,
			"-0.005": 12.7008489332,
			"-0.004": 14.2405349798,
			"-0.003": 20.7654919279,
			"-0.002": 20.856818669,
			"-0.001": 16.1688057393,
			"0.0": 9.88574164614,
			"0.001": 8.88609919761,
			"0.002": 7.57735319065,
			"0.003": 6.84051077789,
			"0.004": 6.47029251725,
			"0.005": 9.93874415816,
			"0.006": 10.1742531228,
			"0.007": 9.06878813566,
			"0.008": 8.57764828881,
			"0.009": 5.93594465328,
			"0.01": 8.16160148899,
			"0.011": 6.56336403981,
			"0.012": 2.75607733254,
			"0.013": 0.518513087936,
			"0.014": 0.0,
			"0.015": 0.0,
			"0.016": 0.0,
			"0.017": 0.0,
			"0.018": 0.0,
			"0.019": 0.0,
			"0.02": 0.0,
			"0.021": 0.0,
			"0.022": 0.0,
			"0.023": 0.0,
			"0.024": 0.0,
			"0.025": 0.0
		}
	}
}
