{
	 "smiles": "NC1=CC=CC=C1N1C=CC=C1", 
	 "Tm": 369.15, 
	 "num_atms": 22, 
	 "gaussian": { 
		 "optdone": 1, 
		 "sigma_profile": "yes", 
		 "theory": "DFT", 
		 "functional": "B3LYP", 
		 "basiset": "6-31G**", 
		 "properties": { 
			 "R2extent": 2245.1644, 
			 "electric_dipole_moment_norm": 1.89477247447, 
			 "electric_quadrupole_moment_norm": 7.79360646748, 
			 "total_energy": -496.580635438, 
			 "HOMO_LUMO_gap": 0.19868, 
			 "cosmo_polarized_energy": -8.49, 
			 "cosmo_cavitation_energy": 25.58, 
			 "cosmo_dispersion_energy": -18.57, 
			 "cosmo_repulsion_energy": 1.48, 
			 "cosmo_total_nonelectrostatic_energy": 8.48, 
			 "SMD_solvation_energy": 5.16 
		},
		"coords": [
			{
				"x": -1.0175057652,
				"y": -1.9220481836,
				"z": 1.7580091572,
				"element": "N" 
			},
			{
				"x": -0.5932363485,
				"y": -0.6023346562,
				"z": 1.7286727497,
				"element": "C" 
			},
			{
				"x": -0.2240143273,
				"y": 0.0696281085,
				"z": 2.9085753634,
				"element": "C" 
			},
			{
				"x": 0.1244360849,
				"y": 1.4165098859,
				"z": 2.8867229161,
				"element": "C" 
			},
			{
				"x": 0.1198192898,
				"y": 2.1371741814,
				"z": 1.6895571877,
				"element": "C" 
			},
			{
				"x": -0.2292297658,
				"y": 1.4816416239,
				"z": 0.509959947,
				"element": "C" 
			},
			{
				"x": -0.5794482507,
				"y": 0.1310319123,
				"z": 0.5199917535,
				"element": "C" 
			},
			{
				"x": -0.939479033,
				"y": -0.5242847309,
				"z": -0.6990593125,
				"element": "N" 
			},
			{
				"x": -2.1231196265,
				"y": -0.3504183675,
				"z": -1.3886550454,
				"element": "C" 
			},
			{
				"x": -2.1148572551,
				"y": -1.1865180063,
				"z": -2.4835800809,
				"element": "C" 
			},
			{
				"x": -0.8825394909,
				"y": -1.9004942297,
				"z": -2.4636276744,
				"element": "C" 
			},
			{
				"x": -0.1788650889,
				"y": -1.4767154456,
				"z": -1.3565608237,
				"element": "C" 
			},
			{
				"x": -0.6931941115,
				"y": -2.4758253954,
				"z": 2.5366798626,
				"element": "H" 
			},
			{
				"x": -1.0079461516,
				"y": -2.4123862678,
				"z": 0.874366568,
				"element": "H" 
			},
			{
				"x": -0.2307370757,
				"y": -0.4768480495,
				"z": 3.8484045535,
				"element": "H" 
			},
			{
				"x": 0.4011769506,
				"y": 1.907138735,
				"z": 3.8157355838,
				"element": "H" 
			},
			{
				"x": 0.3911235446,
				"y": 3.1875551164,
				"z": 1.6732675779,
				"element": "H" 
			},
			{
				"x": -0.2275836457,
				"y": 2.0042726367,
				"z": -0.4418780184,
				"element": "H" 
			},
			{
				"x": -2.8682927838,
				"y": 0.3388052907,
				"z": -1.0205746604,
				"element": "H" 
			},
			{
				"x": -2.9054359511,
				"y": -1.2765428341,
				"z": -3.2154602648,
				"element": "H" 
			},
			{
				"x": -0.5430396245,
				"y": -2.6304464893,
				"z": -3.1855408593,
				"element": "H" 
			},
			{
				"x": 0.808568426,
				"y": -1.7280948352,
				"z": -0.9976064806,
				"element": "H" 
			}
		],
		 "valence_orbital": [ 
			{
				"type": "occ",
				"energy": -0.31211,
				"method": "rhf"
			},
			{
				"type": "occ",
				"energy": -0.25521,
				"method": "rhf"
			},
			{
				"type": "occ",
				"energy": -0.23066,
				"method": "rhf"
			},
			{
				"type": "occ",
				"energy": -0.20729,
				"method": "rhf"
			},
			{
				"type": "occ",
				"energy": -0.20336,
				"method": "rhf"
			},
			{
				"type": "unocc",
				"energy": -0.00468,
				"method": "rhf"
			},
			{
				"type": "unocc",
				"energy": 0.01234,
				"method": "rhf"
			},
			{
				"type": "unocc",
				"energy": 0.04246,
				"method": "rhf"
			},
			{
				"type": "unocc",
				"energy": 0.08328,
				"method": "rhf"
			},
			{
				"type": "unocc",
				"energy": 0.09537,
				"method": "rhf"
			}
		],
		"cosmo_sigma_profile": { 
			"-0.025": 0.0,
			"-0.024": 0.0,
			"-0.023": 0.0,
			"-0.022": 0.0,
			"-0.021": 0.0,
			"-0.02": 0.0,
			"-0.019": 0.0,
			"-0.018": 0.0,
			"-0.017": 0.0,
			"-0.016": 0.0,
			"-0.015": 0.0,
			"-0.014": 0.0,
			"-0.013": 0.619087736448,
			"-0.012": 1.6121945123,
			"-0.011": 1.39807608409,
			"-0.01": 1.47938421201,
			"-0.009": 2.56887671896,
			"-0.008": 2.47680640251,
			"-0.007": 5.05252733872,
			"-0.006": 8.96827479343,
			"-0.005": 14.3545251536,
			"-0.004": 16.2879519541,
			"-0.003": 15.0127192045,
			"-0.002": 14.7257474579,
			"-0.001": 13.8530424085,
			"0.0": 12.7019122971,
			"0.001": 12.9408006998,
			"0.002": 11.5996947061,
			"0.003": 12.9345795447,
			"0.004": 11.5996647419,
			"0.005": 13.825091651,
			"0.006": 12.7835791177,
			"0.007": 7.50949907535,
			"0.008": 5.22511680552,
			"0.009": 2.33107450873,
			"0.01": 0.840047331714,
			"0.011": 0.292364607365,
			"0.012": 0.688323070539,
			"0.013": 0.673633643293,
			"0.014": 0.0751826561764,
			"0.015": 0.0,
			"0.016": 0.0,
			"0.017": 0.0,
			"0.018": 0.0,
			"0.019": 0.0,
			"0.02": 0.0,
			"0.021": 0.0,
			"0.022": 0.0,
			"0.023": 0.0,
			"0.024": 0.0,
			"0.025": 0.0
		}
	}
}
