{
	 "smiles": "O=C1NC2=C(CCC2)C=C1C#N", 
	 "Tm": 493.15, 
	 "num_atms": 20, 
	 "gaussian": { 
		 "optdone": 1, 
		 "sigma_profile": "yes", 
		 "theory": "DFT", 
		 "functional": "B3LYP", 
		 "basiset": "6-31G**", 
		 "properties": { 
			 "R2extent": 2813.2942, 
			 "electric_dipole_moment_norm": 9.01861061251, 
			 "electric_quadrupole_moment_norm": 28.7903725471, 
			 "total_energy": -532.502529946, 
			 "HOMO_LUMO_gap": 0.15302, 
			 "cosmo_polarized_energy": -21.14, 
			 "cosmo_cavitation_energy": 24.7, 
			 "cosmo_dispersion_energy": -17.97, 
			 "cosmo_repulsion_energy": 1.45, 
			 "cosmo_total_nonelectrostatic_energy": 8.18, 
			 "SMD_solvation_energy": 5.69 
		},
		"coords": [
			{
				"x": 1.643443441,
				"y": -3.0109793585,
				"z": 1.6916206672,
				"element": "O" 
			},
			{
				"x": 1.1438551928,
				"y": -2.3321957068,
				"z": 0.8071556081,
				"element": "C" 
			},
			{
				"x": 0.0498531998,
				"y": -1.4804692673,
				"z": 1.0968676434,
				"element": "N" 
			},
			{
				"x": -0.5832941027,
				"y": -0.6967264627,
				"z": 0.1898726773,
				"element": "C" 
			},
			{
				"x": -0.1867872571,
				"y": -0.6658140615,
				"z": -1.1246601719,
				"element": "C" 
			},
			{
				"x": -1.0267513355,
				"y": 0.3204974167,
				"z": -1.9058885168,
				"element": "C" 
			},
			{
				"x": -2.2258958525,
				"y": 0.5877844697,
				"z": -0.9523108349,
				"element": "C" 
			},
			{
				"x": -1.7229790736,
				"y": 0.2423078076,
				"z": 0.4761261673,
				"element": "C" 
			},
			{
				"x": 0.9036143509,
				"y": -1.4710027221,
				"z": -1.5199138492,
				"element": "C" 
			},
			{
				"x": 1.550009464,
				"y": -2.2805246661,
				"z": -0.6029517711,
				"element": "C" 
			},
			{
				"x": 2.6452521843,
				"y": -3.1043044289,
				"z": -1.0012200305,
				"element": "C" 
			},
			{
				"x": 3.5350246551,
				"y": -3.7627683335,
				"z": -1.3605269026,
				"element": "N" 
			},
			{
				"x": -0.2470177345,
				"y": -1.5087971806,
				"z": 2.0657066535,
				"element": "H" 
			},
			{
				"x": -1.3536542649,
				"y": -0.0657038574,
				"z": -2.8770291418,
				"element": "H" 
			},
			{
				"x": -0.4638075876,
				"y": 1.2425249599,
				"z": -2.1057085936,
				"element": "H" 
			},
			{
				"x": -3.0506897485,
				"y": -0.0833695122,
				"z": -1.2112054544,
				"element": "H" 
			},
			{
				"x": -2.6016310407,
				"y": 1.6111999987,
				"z": -1.0232042384,
				"element": "H" 
			},
			{
				"x": -2.4989426543,
				"y": -0.2044940901,
				"z": 1.1077381018,
				"element": "H" 
			},
			{
				"x": -1.3512635248,
				"y": 1.1304913055,
				"z": 1.0063404512,
				"element": "H" 
			},
			{
				"x": 1.2458616888,
				"y": -1.4676563105,
				"z": -2.5513084647,
				"element": "H" 
			}
		],
		 "valence_orbital": [ 
			{
				"type": "occ",
				"energy": -0.33623,
				"method": "rhf"
			},
			{
				"type": "occ",
				"energy": -0.3212,
				"method": "rhf"
			},
			{
				"type": "occ",
				"energy": -0.30128,
				"method": "rhf"
			},
			{
				"type": "occ",
				"energy": -0.26673,
				"method": "rhf"
			},
			{
				"type": "occ",
				"energy": -0.22526,
				"method": "rhf"
			},
			{
				"type": "unocc",
				"energy": -0.07224,
				"method": "rhf"
			},
			{
				"type": "unocc",
				"energy": -0.00312,
				"method": "rhf"
			},
			{
				"type": "unocc",
				"energy": 0.0415,
				"method": "rhf"
			},
			{
				"type": "unocc",
				"energy": 0.06089,
				"method": "rhf"
			},
			{
				"type": "unocc",
				"energy": 0.0651,
				"method": "rhf"
			}
		],
		"cosmo_sigma_profile": { 
			"-0.025": 0.0,
			"-0.024": 0.0,
			"-0.023": 0.0,
			"-0.022": 0.0,
			"-0.021": 0.0,
			"-0.02": 0.0,
			"-0.019": 0.0,
			"-0.018": 0.0,
			"-0.017": 0.302467865535,
			"-0.016": 1.13849438564,
			"-0.015": 1.26052677941,
			"-0.014": 0.647201383516,
			"-0.013": 1.49975356322,
			"-0.012": 1.1719227003,
			"-0.011": 1.11501214317,
			"-0.01": 0.976543057623,
			"-0.009": 2.3757994251,
			"-0.008": 3.74311140786,
			"-0.007": 3.50507875097,
			"-0.006": 7.85574800941,
			"-0.005": 10.5797745977,
			"-0.004": 19.1592043958,
			"-0.003": 24.4508276657,
			"-0.002": 22.2880965729,
			"-0.001": 20.2987245862,
			"0.0": 14.4182315369,
			"0.001": 5.09232494626,
			"0.002": 2.47110094422,
			"0.003": 2.38202794075,
			"0.004": 3.18977125336,
			"0.005": 2.84397121371,
			"0.006": 3.82435694606,
			"0.007": 4.49255543455,
			"0.008": 5.36207922021,
			"0.009": 5.19533052567,
			"0.01": 4.99927491376,
			"0.011": 4.75017747428,
			"0.012": 4.89084772379,
			"0.013": 8.48279349804,
			"0.014": 2.61324605642,
			"0.015": 0.0,
			"0.016": 0.0,
			"0.017": 0.0,
			"0.018": 0.0,
			"0.019": 0.0,
			"0.02": 0.0,
			"0.021": 0.0,
			"0.022": 0.0,
			"0.023": 0.0,
			"0.024": 0.0,
			"0.025": 0.0
		}
	}
}
