{
	 "smiles": "CC1(C)C2CCC1(C)C(=O)C2C1OC(C1=O)=C1C2CCC(C)(C1=O)C2(C)C", 
	 "Tm": 469.15, 
	 "num_atms": 57, 
	 "gaussian": { 
		 "optdone": 1, 
		 "sigma_profile": "yes", 
		 "theory": "DFT", 
		 "functional": "B3LYP", 
		 "basiset": "6-31G**", 
		 "properties": { 
			 "R2extent": 13533.6115, 
			 "electric_dipole_moment_norm": 5.40979802303, 
			 "electric_quadrupole_moment_norm": 24.2261602001, 
			 "total_energy": -1195.3723773, 
			 "HOMO_LUMO_gap": 0.15003, 
			 "cosmo_polarized_energy": -18.27, 
			 "cosmo_cavitation_energy": 53.38, 
			 "cosmo_dispersion_energy": -35.07, 
			 "cosmo_repulsion_energy": 2.59, 
			 "cosmo_total_nonelectrostatic_energy": 20.9, 
			 "SMD_solvation_energy": 9.95 
		},
		"coords": [
			{
				"x": 3.2720597266,
				"y": -3.9062516773,
				"z": 1.9595509524,
				"element": "C" 
			},
			{
				"x": 3.7056257073,
				"y": -3.0679235833,
				"z": 0.7439116622,
				"element": "C" 
			},
			{
				"x": 5.2161392551,
				"y": -2.7987640515,
				"z": 0.9043544078,
				"element": "C" 
			},
			{
				"x": 2.8246478279,
				"y": -1.7830644608,
				"z": 0.5192321162,
				"element": "C" 
			},
			{
				"x": 1.4297637073,
				"y": -2.3955468038,
				"z": 0.268897195,
				"element": "C" 
			},
			{
				"x": 1.7512376814,
				"y": -3.6412529416,
				"z": -0.6076987039,
				"element": "C" 
			},
			{
				"x": 3.3208859374,
				"y": -3.7008415316,
				"z": -0.6436642082,
				"element": "C" 
			},
			{
				"x": 3.9060398088,
				"y": -5.0421913946,
				"z": -1.0492256086,
				"element": "C" 
			},
			{
				"x": 3.6850654337,
				"y": -2.552867258,
				"z": -1.5860393905,
				"element": "C" 
			},
			{
				"x": 4.0965063952,
				"y": -2.6254764439,
				"z": -2.723703238,
				"element": "O" 
			},
			{
				"x": 3.4099488731,
				"y": -1.2419049983,
				"z": -0.8104542127,
				"element": "C" 
			},
			{
				"x": 2.6967102656,
				"y": -0.2141771363,
				"z": -1.6736609068,
				"element": "C" 
			},
			{
				"x": 2.4043431882,
				"y": 1.0520595503,
				"z": -0.9727520304,
				"element": "O" 
			},
			{
				"x": 1.0720710375,
				"y": 1.0510357914,
				"z": -1.3467021568,
				"element": "C" 
			},
			{
				"x": 1.1992563361,
				"y": -0.2631265862,
				"z": -2.0659195116,
				"element": "C" 
			},
			{
				"x": 0.5045591687,
				"y": -1.0034338624,
				"z": -2.7066277462,
				"element": "O" 
			},
			{
				"x": 0.1548442618,
				"y": 1.9950182013,
				"z": -1.0865807957,
				"element": "C" 
			},
			{
				"x": 0.3375522823,
				"y": 3.3048800852,
				"z": -0.3511907737,
				"element": "C" 
			},
			{
				"x": 0.288736099,
				"y": 4.4091218301,
				"z": -1.4476672083,
				"element": "C" 
			},
			{
				"x": -1.201663123,
				"y": 4.3711693454,
				"z": -1.9044968946,
				"element": "C" 
			},
			{
				"x": -1.8656046919,
				"y": 3.2925142561,
				"z": -0.9818160099,
				"element": "C" 
			},
			{
				"x": -3.3829620686,
				"y": 3.3198749069,
				"z": -0.94641118,
				"element": "C" 
			},
			{
				"x": -1.2814781252,
				"y": 1.964203067,
				"z": -1.5032285258,
				"element": "C" 
			},
			{
				"x": -1.8689079163,
				"y": 1.1021047332,
				"z": -2.1278130887,
				"element": "O" 
			},
			{
				"x": -1.0542974357,
				"y": 3.4624271397,
				"z": 0.3555808104,
				"element": "C" 
			},
			{
				"x": -1.3364522155,
				"y": 2.3617721541,
				"z": 1.3935222326,
				"element": "C" 
			},
			{
				"x": -1.2468981736,
				"y": 4.820972908,
				"z": 1.0484579734,
				"element": "C" 
			},
			{
				"x": 3.4215998318,
				"y": -3.3347200174,
				"z": 2.8829169958,
				"element": "H" 
			},
			{
				"x": 3.8847337627,
				"y": -4.8105704872,
				"z": 2.0346092825,
				"element": "H" 
			},
			{
				"x": 2.2281660815,
				"y": -4.221825059,
				"z": 1.9319862988,
				"element": "H" 
			},
			{
				"x": 5.7497286722,
				"y": -3.7383931723,
				"z": 1.0796400948,
				"element": "H" 
			},
			{
				"x": 5.6840626915,
				"y": -2.3300070995,
				"z": 0.0350067481,
				"element": "H" 
			},
			{
				"x": 5.4010201341,
				"y": -2.154130668,
				"z": 1.7710838959,
				"element": "H" 
			},
			{
				"x": 2.8592121451,
				"y": -1.0536405019,
				"z": 1.3330459413,
				"element": "H" 
			},
			{
				"x": 0.9630197808,
				"y": -2.6779603949,
				"z": 1.2158160205,
				"element": "H" 
			},
			{
				"x": 0.7348549029,
				"y": -1.7109184329,
				"z": -0.2168374227,
				"element": "H" 
			},
			{
				"x": 1.3296820449,
				"y": -3.5600430344,
				"z": -1.6139293839,
				"element": "H" 
			},
			{
				"x": 1.3618223495,
				"y": -4.5656098849,
				"z": -0.1701521998,
				"element": "H" 
			},
			{
				"x": 5.0003221118,
				"y": -5.0244941862,
				"z": -1.0300880118,
				"element": "H" 
			},
			{
				"x": 3.5627744189,
				"y": -5.8413555492,
				"z": -0.3845416049,
				"element": "H" 
			},
			{
				"x": 3.6050441978,
				"y": -5.2926951986,
				"z": -2.0707832605,
				"element": "H" 
			},
			{
				"x": 4.3884429735,
				"y": -0.7920931406,
				"z": -0.6001810711,
				"element": "H" 
			},
			{
				"x": 3.3152293607,
				"y": -0.0182069116,
				"z": -2.5576394785,
				"element": "H" 
			},
			{
				"x": 1.2146292808,
				"y": 3.3442538783,
				"z": 0.2987268492,
				"element": "H" 
			},
			{
				"x": 0.5633736057,
				"y": 5.383351315,
				"z": -1.0330876637,
				"element": "H" 
			},
			{
				"x": 0.9861228963,
				"y": 4.1952788002,
				"z": -2.2615226524,
				"element": "H" 
			},
			{
				"x": -1.6969944578,
				"y": 5.3364524626,
				"z": -1.7613976201,
				"element": "H" 
			},
			{
				"x": -1.3142869716,
				"y": 4.1111941731,
				"z": -2.9614197303,
				"element": "H" 
			},
			{
				"x": -3.7809623325,
				"y": 2.5668698025,
				"z": -0.2591925381,
				"element": "H" 
			},
			{
				"x": -3.7563339303,
				"y": 4.3014996271,
				"z": -0.6369305813,
				"element": "H" 
			},
			{
				"x": -3.7875275787,
				"y": 3.0943634558,
				"z": -1.9376239073,
				"element": "H" 
			},
			{
				"x": -2.3554393429,
				"y": 2.4511674502,
				"z": 1.784388069,
				"element": "H" 
			},
			{
				"x": -0.6506951601,
				"y": 2.4555243531,
				"z": 2.2430893259,
				"element": "H" 
			},
			{
				"x": -1.2242454957,
				"y": 1.3521522243,
				"z": 0.9890476758,
				"element": "H" 
			},
			{
				"x": -1.1090916207,
				"y": 5.6780805842,
				"z": 0.3866729163,
				"element": "H" 
			},
			{
				"x": -2.2540720325,
				"y": 4.8919869182,
				"z": 1.4727968059,
				"element": "H" 
			},
			{
				"x": -0.5367215628,
				"y": 4.9249574551,
				"z": 1.8768450469,
				"element": "H" 
			}
		],
		 "valence_orbital": [ 
			{
				"type": "occ",
				"energy": -0.30058,
				"method": "rhf"
			},
			{
				"type": "occ",
				"energy": -0.26521,
				"method": "rhf"
			},
			{
				"type": "occ",
				"energy": -0.24613,
				"method": "rhf"
			},
			{
				"type": "occ",
				"energy": -0.23721,
				"method": "rhf"
			},
			{
				"type": "occ",
				"energy": -0.23365,
				"method": "rhf"
			},
			{
				"type": "unocc",
				"energy": -0.08362,
				"method": "rhf"
			},
			{
				"type": "unocc",
				"energy": -0.02118,
				"method": "rhf"
			},
			{
				"type": "unocc",
				"energy": 0.00345,
				"method": "rhf"
			},
			{
				"type": "unocc",
				"energy": 0.0587,
				"method": "rhf"
			},
			{
				"type": "unocc",
				"energy": 0.0668,
				"method": "rhf"
			}
		],
		"cosmo_sigma_profile": { 
			"-0.025": 0.0,
			"-0.024": 0.0,
			"-0.023": 0.0,
			"-0.022": 0.0,
			"-0.021": 0.0,
			"-0.02": 0.0,
			"-0.019": 0.0,
			"-0.018": 0.0,
			"-0.017": 0.0,
			"-0.016": 0.0,
			"-0.015": 0.0,
			"-0.014": 0.0,
			"-0.013": 0.0,
			"-0.012": 0.0,
			"-0.011": 0.0,
			"-0.01": 0.00170331434356,
			"-0.009": 1.05948777225,
			"-0.008": 3.84235332242,
			"-0.007": 4.87392873081,
			"-0.006": 3.72617187965,
			"-0.005": 6.78444629478,
			"-0.004": 26.7605703643,
			"-0.003": 63.7558273515,
			"-0.002": 70.853727991,
			"-0.001": 57.3822807137,
			"0.0": 56.5421214516,
			"0.001": 37.7868744358,
			"0.002": 10.7559806236,
			"0.003": 5.82606480847,
			"0.004": 5.4012230459,
			"0.005": 6.35601165674,
			"0.006": 5.28970447077,
			"0.007": 4.93366141305,
			"0.008": 7.15972660546,
			"0.009": 7.17327305229,
			"0.01": 7.79713952355,
			"0.011": 8.6134319093,
			"0.012": 7.5173262619,
			"0.013": 3.12184797863,
			"0.014": 0.837247623198,
			"0.015": 0.0,
			"0.016": 0.0,
			"0.017": 0.0,
			"0.018": 0.0,
			"0.019": 0.0,
			"0.02": 0.0,
			"0.021": 0.0,
			"0.022": 0.0,
			"0.023": 0.0,
			"0.024": 0.0,
			"0.025": 0.0
		}
	}
}
