{
	 "smiles": "C(CP(C1=CC=CC=C1)C1=CC=CC=C1)CP(C1=CC=CC=C1)C1=CC=CC=C1", 
	 "Tm": 333.65, 
	 "num_atms": 55, 
	 "gaussian": { 
		 "optdone": 1, 
		 "sigma_profile": "yes", 
		 "theory": "DFT", 
		 "functional": "B3LYP", 
		 "basiset": "6-31G**", 
		 "properties": { 
			 "R2extent": 12872.2674, 
			 "electric_dipole_moment_norm": 1.67412199675, 
			 "electric_quadrupole_moment_norm": 19.4587689014, 
			 "total_energy": -1727.24661809, 
			 "HOMO_LUMO_gap": 0.18153, 
			 "cosmo_polarized_energy": -12.84, 
			 "cosmo_cavitation_energy": 59.15, 
			 "cosmo_dispersion_energy": -37.52, 
			 "cosmo_repulsion_energy": 3.12, 
			 "cosmo_total_nonelectrostatic_energy": 24.75, 
			 "SMD_solvation_energy": 9.49 
		},
		"coords": [
			{
				"x": -0.9786186277,
				"y": 0.5303007226,
				"z": 0.0311793611,
				"element": "C" 
			},
			{
				"x": -1.4099896044,
				"y": 1.782093949,
				"z": -0.7487267014,
				"element": "C" 
			},
			{
				"x": -0.4818094826,
				"y": 2.2888884679,
				"z": -2.3073849567,
				"element": "P" 
			},
			{
				"x": 1.284849468,
				"y": 2.3531147623,
				"z": -1.7645037275,
				"element": "C" 
			},
			{
				"x": 1.641857387,
				"y": 2.7887959097,
				"z": -0.4769880378,
				"element": "C" 
			},
			{
				"x": 2.9801355582,
				"y": 2.9728605865,
				"z": -0.1245589911,
				"element": "C" 
			},
			{
				"x": 3.9924256496,
				"y": 2.7338191745,
				"z": -1.0543280847,
				"element": "C" 
			},
			{
				"x": 3.6535904304,
				"y": 2.3151162011,
				"z": -2.3426727425,
				"element": "C" 
			},
			{
				"x": 2.3165783737,
				"y": 2.1320984449,
				"z": -2.6948568987,
				"element": "C" 
			},
			{
				"x": -0.567398729,
				"y": 0.7391508896,
				"z": -3.3222390531,
				"element": "C" 
			},
			{
				"x": -1.513466511,
				"y": 0.7209241186,
				"z": -4.3602706002,
				"element": "C" 
			},
			{
				"x": -1.6871967832,
				"y": -0.4136127264,
				"z": -5.1556290329,
				"element": "C" 
			},
			{
				"x": -0.9050249845,
				"y": -1.5474391509,
				"z": -4.9332574316,
				"element": "C" 
			},
			{
				"x": 0.0492575642,
				"y": -1.5411050014,
				"z": -3.9129911537,
				"element": "C" 
			},
			{
				"x": 0.2161142939,
				"y": -0.4092109332,
				"z": -3.1141384273,
				"element": "C" 
			},
			{
				"x": -1.8988045302,
				"y": 0.2723163332,
				"z": 1.2344474465,
				"element": "C" 
			},
			{
				"x": -1.5526034054,
				"y": -1.1707119447,
				"z": 2.3945831013,
				"element": "P" 
			},
			{
				"x": 0.2072795815,
				"y": -0.8515103319,
				"z": 2.8843378843,
				"element": "C" 
			},
			{
				"x": 1.3302459303,
				"y": -1.1010967256,
				"z": 2.0764759258,
				"element": "C" 
			},
			{
				"x": 2.6146625502,
				"y": -0.790115399,
				"z": 2.5244541288,
				"element": "C" 
			},
			{
				"x": 2.8007731505,
				"y": -0.2222313921,
				"z": 3.7872290039,
				"element": "C" 
			},
			{
				"x": 1.6966555819,
				"y": 0.0268794241,
				"z": 4.6030949158,
				"element": "C" 
			},
			{
				"x": 0.4126767741,
				"y": -0.2919261988,
				"z": 4.1561433448,
				"element": "C" 
			},
			{
				"x": -1.4281577796,
				"y": -2.6254503585,
				"z": 1.2595238621,
				"element": "C" 
			},
			{
				"x": -0.6433777463,
				"y": -3.7360287118,
				"z": 1.6194198651,
				"element": "C" 
			},
			{
				"x": -0.6477971358,
				"y": -4.8991097674,
				"z": 0.8497262039,
				"element": "C" 
			},
			{
				"x": -1.4448761612,
				"y": -4.985035885,
				"z": -0.2935969298,
				"element": "C" 
			},
			{
				"x": -2.2412887859,
				"y": -3.8981586167,
				"z": -0.6553007382,
				"element": "C" 
			},
			{
				"x": -2.2361183207,
				"y": -2.7336901026,
				"z": 0.1147641105,
				"element": "C" 
			},
			{
				"x": 0.0523264256,
				"y": 0.6477001951,
				"z": 0.3773718824,
				"element": "H" 
			},
			{
				"x": -0.9891661273,
				"y": -0.3373603424,
				"z": -0.6347881583,
				"element": "H" 
			},
			{
				"x": -1.4033830752,
				"y": 2.663412517,
				"z": -0.093977637,
				"element": "H" 
			},
			{
				"x": -2.4506361008,
				"y": 1.679705074,
				"z": -1.0828783087,
				"element": "H" 
			},
			{
				"x": 0.8745164017,
				"y": 2.9896295479,
				"z": 0.2645878074,
				"element": "H" 
			},
			{
				"x": 3.2286880596,
				"y": 3.3008847931,
				"z": 0.8809692498,
				"element": "H" 
			},
			{
				"x": 5.0337330539,
				"y": 2.8763695424,
				"z": -0.7801307604,
				"element": "H" 
			},
			{
				"x": 4.43193983,
				"y": 2.1311591375,
				"z": -3.0783353916,
				"element": "H" 
			},
			{
				"x": 2.0730496802,
				"y": 1.8084515519,
				"z": -3.7027043139,
				"element": "H" 
			},
			{
				"x": -2.113083344,
				"y": 1.6078341209,
				"z": -4.5493623268,
				"element": "H" 
			},
			{
				"x": -2.4249424445,
				"y": -0.4070244691,
				"z": -5.9532347186,
				"element": "H" 
			},
			{
				"x": -1.0326959459,
				"y": -2.4294272855,
				"z": -5.5546637425,
				"element": "H" 
			},
			{
				"x": 0.6626769101,
				"y": -2.4202449782,
				"z": -3.735989578,
				"element": "H" 
			},
			{
				"x": 0.967694613,
				"y": -0.4141852789,
				"z": -2.3312126184,
				"element": "H" 
			},
			{
				"x": -2.9384237243,
				"y": 0.1500929009,
				"z": 0.9032185081,
				"element": "H" 
			},
			{
				"x": -1.9090444046,
				"y": 1.1472580619,
				"z": 1.8973658837,
				"element": "H" 
			},
			{
				"x": 1.2003067257,
				"y": -1.5508839329,
				"z": 1.0973613529,
				"element": "H" 
			},
			{
				"x": 3.4705702576,
				"y": -0.9880885754,
				"z": 1.8851406374,
				"element": "H" 
			},
			{
				"x": 3.8017236066,
				"y": 0.0183115116,
				"z": 4.1344890054,
				"element": "H" 
			},
			{
				"x": 1.8336933285,
				"y": 0.4594587597,
				"z": 5.5903033989,
				"element": "H" 
			},
			{
				"x": -0.4425860121,
				"y": -0.112017892,
				"z": 4.8027072997,
				"element": "H" 
			},
			{
				"x": -0.018583189,
				"y": -3.6895335296,
				"z": 2.5066975412,
				"element": "H" 
			},
			{
				"x": -0.0272989939,
				"y": -5.7405725795,
				"z": 1.1460296524,
				"element": "H" 
			},
			{
				"x": -1.4482344857,
				"y": -5.8908994841,
				"z": -0.8929511183,
				"element": "H" 
			},
			{
				"x": -2.868080938,
				"y": -3.9514690131,
				"z": -1.5411639234,
				"element": "H" 
			},
			{
				"x": -2.8716338131,
				"y": -1.9061860912,
				"z": -0.1859852702,
				"element": "H" 
			}
		],
		 "valence_orbital": [ 
			{
				"type": "occ",
				"energy": -0.25181,
				"method": "rhf"
			},
			{
				"type": "occ",
				"energy": -0.24739,
				"method": "rhf"
			},
			{
				"type": "occ",
				"energy": -0.2468,
				"method": "rhf"
			},
			{
				"type": "occ",
				"energy": -0.21476,
				"method": "rhf"
			},
			{
				"type": "occ",
				"energy": -0.20166,
				"method": "rhf"
			},
			{
				"type": "unocc",
				"energy": -0.02013,
				"method": "rhf"
			},
			{
				"type": "unocc",
				"energy": -0.01672,
				"method": "rhf"
			},
			{
				"type": "unocc",
				"energy": -0.00888,
				"method": "rhf"
			},
			{
				"type": "unocc",
				"energy": -0.00845,
				"method": "rhf"
			},
			{
				"type": "unocc",
				"energy": -0.00706,
				"method": "rhf"
			}
		],
		"cosmo_sigma_profile": { 
			"-0.025": 0.0,
			"-0.024": 0.0,
			"-0.023": 0.0,
			"-0.022": 0.0,
			"-0.021": 0.0,
			"-0.02": 0.0,
			"-0.019": 0.0,
			"-0.018": 0.0,
			"-0.017": 0.0,
			"-0.016": 0.0,
			"-0.015": 0.0,
			"-0.014": 0.0,
			"-0.013": 0.0,
			"-0.012": 0.0,
			"-0.011": 0.0,
			"-0.01": 0.0,
			"-0.009": 0.0,
			"-0.008": 0.0,
			"-0.007": 0.00836385484159,
			"-0.006": 16.6405249524,
			"-0.005": 41.7430476827,
			"-0.004": 51.3943811609,
			"-0.003": 51.867446748,
			"-0.002": 36.379661383,
			"-0.001": 37.6014154093,
			"0.0": 33.0564461444,
			"0.001": 33.3127673412,
			"0.002": 33.6092586834,
			"0.003": 33.1368115853,
			"0.004": 34.7085471786,
			"0.005": 35.8832320582,
			"0.006": 21.5501189232,
			"0.007": 2.26150057094,
			"0.008": 2.17372506418,
			"0.009": 1.35031160141,
			"0.01": 1.28007122446,
			"0.011": 1.65592378412,
			"0.012": 1.34374984949,
			"0.013": 1.62531851069,
			"0.014": 1.0401292798,
			"0.015": 0.300480149515,
			"0.016": 0.0,
			"0.017": 0.0,
			"0.018": 0.0,
			"0.019": 0.0,
			"0.02": 0.0,
			"0.021": 0.0,
			"0.022": 0.0,
			"0.023": 0.0,
			"0.024": 0.0,
			"0.025": 0.0
		}
	}
}
