{
	 "smiles": "CC(C)(C)OC(=O)CNC(=O)CCl", 
	 "Tm": 340.15, 
	 "num_atms": 27, 
	 "gaussian": { 
		 "optdone": 1, 
		 "sigma_profile": "yes", 
		 "theory": "DFT", 
		 "functional": "B3LYP", 
		 "basiset": "6-31G**", 
		 "properties": { 
			 "R2extent": 4234.7035, 
			 "electric_dipole_moment_norm": 5.43433373837, 
			 "electric_quadrupole_moment_norm": 12.4551320543, 
			 "total_energy": -1053.93974117, 
			 "HOMO_LUMO_gap": 0.23643, 
			 "cosmo_polarized_energy": -14.1, 
			 "cosmo_cavitation_energy": 31.61, 
			 "cosmo_dispersion_energy": -22.07, 
			 "cosmo_repulsion_energy": 1.81, 
			 "cosmo_total_nonelectrostatic_energy": 11.34, 
			 "SMD_solvation_energy": 6.33 
		},
		"coords": [
			{
				"x": 1.4421078286,
				"y": -0.8112896572,
				"z": -2.294543555,
				"element": "C" 
			},
			{
				"x": 1.4103479832,
				"y": 0.5693320733,
				"z": -1.6330496722,
				"element": "C" 
			},
			{
				"x": 0.5377477039,
				"y": 1.5662309847,
				"z": -2.400754608,
				"element": "C" 
			},
			{
				"x": 2.8245960783,
				"y": 1.1168089604,
				"z": -1.4333988549,
				"element": "C" 
			},
			{
				"x": 0.9158812678,
				"y": 0.441505745,
				"z": -0.2399495765,
				"element": "O" 
			},
			{
				"x": -0.3185052246,
				"y": 0.0041219804,
				"z": 0.0367291329,
				"element": "C" 
			},
			{
				"x": -1.1552586458,
				"y": -0.3648445428,
				"z": -0.761629875,
				"element": "O" 
			},
			{
				"x": -0.5636981967,
				"y": 0.0830782096,
				"z": 1.5501358213,
				"element": "C" 
			},
			{
				"x": -1.6286463605,
				"y": -0.7738640744,
				"z": 2.0178075351,
				"element": "N" 
			},
			{
				"x": -2.9778455079,
				"y": -0.6239804684,
				"z": 1.8229807937,
				"element": "C" 
			},
			{
				"x": -3.7636972083,
				"y": -1.5276098843,
				"z": 2.0625141662,
				"element": "O" 
			},
			{
				"x": -3.4884648909,
				"y": 0.7153365519,
				"z": 1.2927421963,
				"element": "C" 
			},
			{
				"x": -3.1998505587,
				"y": 2.098276715,
				"z": 2.4418140063,
				"element": "Cl" 
			},
			{
				"x": 2.0298920057,
				"y": -1.5102447531,
				"z": -1.691406542,
				"element": "H" 
			},
			{
				"x": 1.9160225007,
				"y": -0.7321135122,
				"z": -3.2781417382,
				"element": "H" 
			},
			{
				"x": 0.4360999036,
				"y": -1.2119468232,
				"z": -2.4226045063,
				"element": "H" 
			},
			{
				"x": 0.977220432,
				"y": 1.7493567245,
				"z": -3.3863760364,
				"element": "H" 
			},
			{
				"x": 0.4905720597,
				"y": 2.5218024815,
				"z": -1.8691818216,
				"element": "H" 
			},
			{
				"x": -0.4744380968,
				"y": 1.184088554,
				"z": -2.5369106683,
				"element": "H" 
			},
			{
				"x": 3.3112519485,
				"y": 1.2571636757,
				"z": -2.4030029864,
				"element": "H" 
			},
			{
				"x": 2.7979410426,
				"y": 2.0803428264,
				"z": -0.9165438612,
				"element": "H" 
			},
			{
				"x": 3.4279744272,
				"y": 0.4235042165,
				"z": -0.8404986066,
				"element": "H" 
			},
			{
				"x": 0.3592950387,
				"y": -0.1701073079,
				"z": 2.0767049995,
				"element": "H" 
			},
			{
				"x": -0.7789539551,
				"y": 1.1286447161,
				"z": 1.7960048898,
				"element": "H" 
			},
			{
				"x": -1.3853547709,
				"y": -1.7215857536,
				"z": 2.2751778326,
				"element": "H" 
			},
			{
				"x": -3.0187297442,
				"y": 0.9750969047,
				"z": 0.3440338996,
				"element": "H" 
			},
			{
				"x": -4.5651070603,
				"y": 0.6229954571,
				"z": 1.1739476353,
				"element": "H" 
			}
		],
		 "valence_orbital": [ 
			{
				"type": "occ",
				"energy": -0.31174,
				"method": "rhf"
			},
			{
				"type": "occ",
				"energy": -0.30331,
				"method": "rhf"
			},
			{
				"type": "occ",
				"energy": -0.28869,
				"method": "rhf"
			},
			{
				"type": "occ",
				"energy": -0.26175,
				"method": "rhf"
			},
			{
				"type": "occ",
				"energy": -0.25349,
				"method": "rhf"
			},
			{
				"type": "unocc",
				"energy": -0.01706,
				"method": "rhf"
			},
			{
				"type": "unocc",
				"energy": -0.0044,
				"method": "rhf"
			},
			{
				"type": "unocc",
				"energy": 0.05443,
				"method": "rhf"
			},
			{
				"type": "unocc",
				"energy": 0.07268,
				"method": "rhf"
			},
			{
				"type": "unocc",
				"energy": 0.07881,
				"method": "rhf"
			}
		],
		"cosmo_sigma_profile": { 
			"-0.025": 0.0,
			"-0.024": 0.0,
			"-0.023": 0.0,
			"-0.022": 0.0,
			"-0.021": 0.0,
			"-0.02": 0.0,
			"-0.019": 0.0,
			"-0.018": 0.0,
			"-0.017": 0.0,
			"-0.016": 0.0,
			"-0.015": 0.351773055288,
			"-0.014": 1.54786932937,
			"-0.013": 1.03911615414,
			"-0.012": 1.38440540245,
			"-0.011": 1.18517872609,
			"-0.01": 1.51126664592,
			"-0.009": 2.07887168029,
			"-0.008": 5.29291637717,
			"-0.007": 6.87901187428,
			"-0.006": 6.53872545135,
			"-0.005": 10.1710943031,
			"-0.004": 19.3649509465,
			"-0.003": 21.3859904039,
			"-0.002": 20.6892736002,
			"-0.001": 23.9593758643,
			"0.0": 30.5043151349,
			"0.001": 17.3304461636,
			"0.002": 11.4728217835,
			"0.003": 10.9843690115,
			"0.004": 10.2100444522,
			"0.005": 12.9702740379,
			"0.006": 6.7380950269,
			"0.007": 3.16589929026,
			"0.008": 2.99168350476,
			"0.009": 2.61374787081,
			"0.01": 3.25065053813,
			"0.011": 4.00178329094,
			"0.012": 4.143667615,
			"0.013": 5.10920480305,
			"0.014": 0.75733547816,
			"0.015": 0.0,
			"0.016": 0.0,
			"0.017": 0.0,
			"0.018": 0.0,
			"0.019": 0.0,
			"0.02": 0.0,
			"0.021": 0.0,
			"0.022": 0.0,
			"0.023": 0.0,
			"0.024": 0.0,
			"0.025": 0.0
		}
	}
}
