{
	 "smiles": "CC(Cl)C(=O)NCC#C", 
	 "Tm": 335.15, 
	 "num_atms": 17, 
	 "gaussian": { 
		 "optdone": 1, 
		 "sigma_profile": "yes", 
		 "theory": "DFT", 
		 "functional": "B3LYP", 
		 "basiset": "6-31G**", 
		 "properties": { 
			 "R2extent": 1852.4692, 
			 "electric_dipole_moment_norm": 3.00945458348, 
			 "electric_quadrupole_moment_norm": 10.3538430078, 
			 "total_energy": -823.560897873, 
			 "HOMO_LUMO_gap": 0.24137, 
			 "cosmo_polarized_energy": -11.34, 
			 "cosmo_cavitation_energy": 23.11, 
			 "cosmo_dispersion_energy": -16.02, 
			 "cosmo_repulsion_energy": 1.33, 
			 "cosmo_total_nonelectrostatic_energy": 8.43, 
			 "SMD_solvation_energy": 5.36 
		},
		"coords": [
			{
				"x": -0.6636403571,
				"y": 0.9724451536,
				"z": 0.0314604467,
				"element": "C" 
			},
			{
				"x": -0.7044253821,
				"y": 0.5000577937,
				"z": -1.4192262948,
				"element": "C" 
			},
			{
				"x": -1.8983877693,
				"y": -0.8835971682,
				"z": -1.6259891957,
				"element": "Cl" 
			},
			{
				"x": 0.6804123835,
				"y": 0.1938038823,
				"z": -2.0126393312,
				"element": "C" 
			},
			{
				"x": 1.1581784336,
				"y": 1.00453757,
				"z": -2.7952346564,
				"element": "O" 
			},
			{
				"x": 1.3714542768,
				"y": -0.9347066724,
				"z": -1.6611988572,
				"element": "N" 
			},
			{
				"x": 1.1227231833,
				"y": -1.8936832811,
				"z": -0.5870174015,
				"element": "C" 
			},
			{
				"x": 1.8256344722,
				"y": -1.5785096549,
				"z": 0.6646821147,
				"element": "C" 
			},
			{
				"x": 2.4098317726,
				"y": -1.3217955454,
				"z": 1.6899467219,
				"element": "C" 
			},
			{
				"x": -1.6619429397,
				"y": 1.2739075353,
				"z": 0.3569921593,
				"element": "H" 
			},
			{
				"x": -0.0005578934,
				"y": 1.8421741686,
				"z": 0.0948002557,
				"element": "H" 
			},
			{
				"x": -0.2868151772,
				"y": 0.2072742427,
				"z": 0.7131111429,
				"element": "H" 
			},
			{
				"x": -1.0985562582,
				"y": 1.285290085,
				"z": -2.0616299535,
				"element": "H" 
			},
			{
				"x": 2.299335817,
				"y": -0.9429922116,
				"z": -2.0671995617,
				"element": "H" 
			},
			{
				"x": 1.4340837443,
				"y": -2.884355622,
				"z": -0.9395243962,
				"element": "H" 
			},
			{
				"x": 0.0473600779,
				"y": -1.9611865051,
				"z": -0.4127601474,
				"element": "H" 
			},
			{
				"x": 2.9263116158,
				"y": -1.0920637706,
				"z": 2.5934269544,
				"element": "H" 
			}
		],
		 "valence_orbital": [ 
			{
				"type": "occ",
				"energy": -0.30665,
				"method": "rhf"
			},
			{
				"type": "occ",
				"energy": -0.29337,
				"method": "rhf"
			},
			{
				"type": "occ",
				"energy": -0.28244,
				"method": "rhf"
			},
			{
				"type": "occ",
				"energy": -0.267,
				"method": "rhf"
			},
			{
				"type": "occ",
				"energy": -0.25766,
				"method": "rhf"
			},
			{
				"type": "unocc",
				"energy": -0.01629,
				"method": "rhf"
			},
			{
				"type": "unocc",
				"energy": 0.02366,
				"method": "rhf"
			},
			{
				"type": "unocc",
				"energy": 0.03712,
				"method": "rhf"
			},
			{
				"type": "unocc",
				"energy": 0.04965,
				"method": "rhf"
			},
			{
				"type": "unocc",
				"energy": 0.08326,
				"method": "rhf"
			}
		],
		"cosmo_sigma_profile": { 
			"-0.025": 0.0,
			"-0.024": 0.0,
			"-0.023": 0.0,
			"-0.022": 0.0,
			"-0.021": 0.0,
			"-0.02": 0.0,
			"-0.019": 0.0,
			"-0.018": 0.0,
			"-0.017": 0.0,
			"-0.016": 0.0,
			"-0.015": 0.306196677571,
			"-0.014": 1.00922776859,
			"-0.013": 1.10619108624,
			"-0.012": 1.97729309946,
			"-0.011": 2.35004324947,
			"-0.01": 1.77486478751,
			"-0.009": 1.98285635616,
			"-0.008": 6.89629110326,
			"-0.007": 5.2401824387,
			"-0.006": 7.95501644431,
			"-0.005": 14.444388631,
			"-0.004": 9.93184175046,
			"-0.003": 10.0314096008,
			"-0.002": 12.379510189,
			"-0.001": 11.7437605165,
			"0.0": 10.6894388601,
			"0.001": 10.9445900389,
			"0.002": 11.3291844633,
			"0.003": 11.5006664282,
			"0.004": 11.434608255,
			"0.005": 12.5905510028,
			"0.006": 11.460288833,
			"0.007": 1.58737129731,
			"0.008": 1.32285875359,
			"0.009": 1.4495850375,
			"0.01": 1.04117360308,
			"0.011": 1.96796694785,
			"0.012": 3.77116066299,
			"0.013": 5.07993777453,
			"0.014": 0.838914638706,
			"0.015": 0.0,
			"0.016": 0.0,
			"0.017": 0.0,
			"0.018": 0.0,
			"0.019": 0.0,
			"0.02": 0.0,
			"0.021": 0.0,
			"0.022": 0.0,
			"0.023": 0.0,
			"0.024": 0.0,
			"0.025": 0.0
		}
	}
}
