{
	 "smiles": "CC(C)[C@H]1[C@H](O)[C@@]2(O)[C@@]3(C)C[C@]4(O)O[C@@]5([C@H](O)[C@@H](C)CC[C@]35O)[C@@]2(O)[C@]14C", 
	 "Tm": 579.15, 
	 "num_atms": 59, 
	 "gaussian": { 
		 "optdone": 1, 
		 "sigma_profile": "yes", 
		 "theory": "DFT", 
		 "functional": "B3LYP", 
		 "basiset": "6-31G**", 
		 "properties": { 
			 "R2extent": 8171.7075, 
			 "electric_dipole_moment_norm": 2.53420556783, 
			 "electric_quadrupole_moment_norm": 9.31609412039, 
			 "total_energy": -1307.9881391, 
			 "HOMO_LUMO_gap": 0.2882, 
			 "cosmo_polarized_energy": -17.48, 
			 "cosmo_cavitation_energy": 47.96, 
			 "cosmo_dispersion_energy": -33.89, 
			 "cosmo_repulsion_energy": 2.42, 
			 "cosmo_total_nonelectrostatic_energy": 16.49, 
			 "SMD_solvation_energy": 7.56 
		},
		"coords": [
			{
				"x": -1.2670182343,
				"y": 1.8519621428,
				"z": 3.7979385197,
				"element": "C" 
			},
			{
				"x": -0.8502660442,
				"y": 0.4306738197,
				"z": 3.3877158471,
				"element": "C" 
			},
			{
				"x": -0.5125834966,
				"y": -0.3811792607,
				"z": 4.6533611379,
				"element": "C" 
			},
			{
				"x": 0.3335491006,
				"y": 0.3501056121,
				"z": 2.3834471636,
				"element": "C" 
			},
			{
				"x": 0.6518018962,
				"y": -1.1072930555,
				"z": 1.959773796,
				"element": "C" 
			},
			{
				"x": 1.7542723973,
				"y": -1.5797544121,
				"z": 2.7164017165,
				"element": "O" 
			},
			{
				"x": 0.9860900716,
				"y": -1.0504403147,
				"z": 0.4419575779,
				"element": "C" 
			},
			{
				"x": 2.1031567608,
				"y": -1.9040166939,
				"z": 0.1539929331,
				"element": "O" 
			},
			{
				"x": -0.2310462119,
				"y": -1.3398418362,
				"z": -0.5100780898,
				"element": "C" 
			},
			{
				"x": -0.6423659837,
				"y": -2.8089431356,
				"z": -0.587788786,
				"element": "C" 
			},
			{
				"x": -1.3917069581,
				"y": -0.4346004468,
				"z": -0.000114497,
				"element": "C" 
			},
			{
				"x": -0.9395614152,
				"y": 1.0371595482,
				"z": 0.1601264417,
				"element": "C" 
			},
			{
				"x": -1.9653695876,
				"y": 1.8868904793,
				"z": 0.5530039254,
				"element": "O" 
			},
			{
				"x": -0.4462503233,
				"y": 1.4623495253,
				"z": -1.1295803489,
				"element": "O" 
			},
			{
				"x": 0.7389323453,
				"y": 0.6623713732,
				"z": -1.3507298048,
				"element": "C" 
			},
			{
				"x": 1.6064068182,
				"y": 1.3492510501,
				"z": -2.3914169853,
				"element": "C" 
			},
			{
				"x": 2.1763467012,
				"y": 2.5613916747,
				"z": -1.8715509066,
				"element": "O" 
			},
			{
				"x": 0.788230843,
				"y": 1.5587543474,
				"z": -3.6856725617,
				"element": "C" 
			},
			{
				"x": 1.64608569,
				"y": 2.1863908478,
				"z": -4.7903425888,
				"element": "C" 
			},
			{
				"x": 0.1468735501,
				"y": 0.2284177724,
				"z": -4.1597891566,
				"element": "C" 
			},
			{
				"x": -0.6284322148,
				"y": -0.5461476644,
				"z": -3.0677718698,
				"element": "C" 
			},
			{
				"x": 0.2931368087,
				"y": -0.7393040943,
				"z": -1.857175118,
				"element": "C" 
			},
			{
				"x": 1.3901592,
				"y": -1.4967289111,
				"z": -2.3636977164,
				"element": "O" 
			},
			{
				"x": 1.3001677756,
				"y": 0.4330122181,
				"z": 0.0982988956,
				"element": "C" 
			},
			{
				"x": 2.675604042,
				"y": 0.6889921364,
				"z": 0.2683246465,
				"element": "O" 
			},
			{
				"x": 0.3160148124,
				"y": 1.182419447,
				"z": 1.0607932063,
				"element": "C" 
			},
			{
				"x": 0.7076172788,
				"y": 2.6496179881,
				"z": 1.2697039175,
				"element": "C" 
			},
			{
				"x": -1.6798442672,
				"y": 2.4146552619,
				"z": 2.9591054037,
				"element": "H" 
			},
			{
				"x": -2.0386861497,
				"y": 1.7996878015,
				"z": 4.5743689916,
				"element": "H" 
			},
			{
				"x": -0.421988907,
				"y": 2.4095165768,
				"z": 4.2193794233,
				"element": "H" 
			},
			{
				"x": -1.7282054692,
				"y": -0.035342771,
				"z": 2.9184396852,
				"element": "H" 
			},
			{
				"x": -0.2115610231,
				"y": -1.4077086927,
				"z": 4.4306529647,
				"element": "H" 
			},
			{
				"x": 0.3167427501,
				"y": 0.0856452318,
				"z": 5.1979198124,
				"element": "H" 
			},
			{
				"x": -1.3763084139,
				"y": -0.4149604492,
				"z": 5.3261840975,
				"element": "H" 
			},
			{
				"x": 1.2350878003,
				"y": 0.6798403962,
				"z": 2.9163607866,
				"element": "H" 
			},
			{
				"x": -0.2147795285,
				"y": -1.7656816961,
				"z": 2.1277918234,
				"element": "H" 
			},
			{
				"x": 2.1091796107,
				"y": -2.3382523713,
				"z": 2.2282635348,
				"element": "H" 
			},
			{
				"x": 2.8785433162,
				"y": -1.3256231428,
				"z": 0.288334611,
				"element": "H" 
			},
			{
				"x": -1.517000829,
				"y": -2.9272652673,
				"z": -1.2361885625,
				"element": "H" 
			},
			{
				"x": -0.9056289042,
				"y": -3.2053351724,
				"z": 0.3986358029,
				"element": "H" 
			},
			{
				"x": 0.1647013483,
				"y": -3.4184489648,
				"z": -0.9995888598,
				"element": "H" 
			},
			{
				"x": -2.2187054176,
				"y": -0.4642777139,
				"z": -0.7187859483,
				"element": "H" 
			},
			{
				"x": -1.7862962654,
				"y": -0.8095815379,
				"z": 0.9474652849,
				"element": "H" 
			},
			{
				"x": -2.6886759552,
				"y": 1.7991304353,
				"z": -0.0837073462,
				"element": "H" 
			},
			{
				"x": 2.4596512772,
				"y": 0.6994231284,
				"z": -2.6019164996,
				"element": "H" 
			},
			{
				"x": 1.4330809904,
				"y": 3.1361084058,
				"z": -1.6355216285,
				"element": "H" 
			},
			{
				"x": -0.0225249249,
				"y": 2.2564268148,
				"z": -3.4312496791,
				"element": "H" 
			},
			{
				"x": 1.041941543,
				"y": 2.4111933918,
				"z": -5.6756818861,
				"element": "H" 
			},
			{
				"x": 2.4470052465,
				"y": 1.503447159,
				"z": -5.0977646325,
				"element": "H" 
			},
			{
				"x": 2.1114218859,
				"y": 3.1141968962,
				"z": -4.4467845476,
				"element": "H" 
			},
			{
				"x": -0.5233540497,
				"y": 0.4448820552,
				"z": -5.0002003898,
				"element": "H" 
			},
			{
				"x": 0.9388118004,
				"y": -0.4217876244,
				"z": -4.5457331012,
				"element": "H" 
			},
			{
				"x": -0.9319514673,
				"y": -1.5240213407,
				"z": -3.4565897764,
				"element": "H" 
			},
			{
				"x": -1.5280671277,
				"y": 0.0056052673,
				"z": -2.7891005983,
				"element": "H" 
			},
			{
				"x": 1.8936052798,
				"y": -1.8339448004,
				"z": -1.600617003,
				"element": "H" 
			},
			{
				"x": 2.8829245383,
				"y": 1.4767298364,
				"z": -0.2670829298,
				"element": "H" 
			},
			{
				"x": 1.7463033584,
				"y": 2.7019840242,
				"z": 1.6087539455,
				"element": "H" 
			},
			{
				"x": 0.6139646053,
				"y": 3.2211073127,
				"z": 0.3445478255,
				"element": "H" 
			},
			{
				"x": 0.0804677266,
				"y": 3.1348413923,
				"z": 2.0150781004,
				"element": "H" 
			}
		],
		 "valence_orbital": [ 
			{
				"type": "occ",
				"energy": -0.28289,
				"method": "rhf"
			},
			{
				"type": "occ",
				"energy": -0.27877,
				"method": "rhf"
			},
			{
				"type": "occ",
				"energy": -0.2641,
				"method": "rhf"
			},
			{
				"type": "occ",
				"energy": -0.25823,
				"method": "rhf"
			},
			{
				"type": "occ",
				"energy": -0.23352,
				"method": "rhf"
			},
			{
				"type": "unocc",
				"energy": 0.05468,
				"method": "rhf"
			},
			{
				"type": "unocc",
				"energy": 0.05547,
				"method": "rhf"
			},
			{
				"type": "unocc",
				"energy": 0.06903,
				"method": "rhf"
			},
			{
				"type": "unocc",
				"energy": 0.08299,
				"method": "rhf"
			},
			{
				"type": "unocc",
				"energy": 0.09546,
				"method": "rhf"
			}
		],
		"cosmo_sigma_profile": { 
			"-0.025": 0.0,
			"-0.024": 0.0,
			"-0.023": 0.0,
			"-0.022": 0.0,
			"-0.021": 0.0,
			"-0.02": 0.0,
			"-0.019": 0.0,
			"-0.018": 0.0,
			"-0.017": 0.17243644576,
			"-0.016": 0.860398720701,
			"-0.015": 0.987103046453,
			"-0.014": 1.23461801355,
			"-0.013": 1.4673253538,
			"-0.012": 1.99741065906,
			"-0.011": 2.87939350387,
			"-0.01": 3.03747410881,
			"-0.009": 2.9981129964,
			"-0.008": 4.08908856473,
			"-0.007": 4.84972717043,
			"-0.006": 7.19049437312,
			"-0.005": 9.88079024224,
			"-0.004": 14.38950994,
			"-0.003": 27.3603658313,
			"-0.002": 48.1226937742,
			"-0.001": 51.6164395921,
			"0.0": 42.3351026773,
			"0.001": 41.2711011006,
			"0.002": 23.5857446138,
			"0.003": 10.312136315,
			"0.004": 9.27740856402,
			"0.005": 8.65197675331,
			"0.006": 7.77561491861,
			"0.007": 7.88769250562,
			"0.008": 8.88470699291,
			"0.009": 6.24016945385,
			"0.01": 5.67878233204,
			"0.011": 4.49617102545,
			"0.012": 3.37022201773,
			"0.013": 2.7279293408,
			"0.014": 1.48742749341,
			"0.015": 0.0112910922077,
			"0.016": 0.0,
			"0.017": 0.0,
			"0.018": 0.0,
			"0.019": 0.0,
			"0.02": 0.0,
			"0.021": 0.0,
			"0.022": 0.0,
			"0.023": 0.0,
			"0.024": 0.0,
			"0.025": 0.0
		}
	}
}
