{
	 "smiles": "NC(=O)C1=CNC(=C1)C#N", 
	 "Tm": 519.15, 
	 "num_atms": 15, 
	 "gaussian": { 
		 "optdone": 1, 
		 "sigma_profile": "yes", 
		 "theory": "DFT", 
		 "functional": "B3LYP", 
		 "basiset": "6-31G**", 
		 "properties": { 
			 "R2extent": 2205.0325, 
			 "electric_dipole_moment_norm": 1.20032942145, 
			 "electric_quadrupole_moment_norm": 27.4826656857, 
			 "total_energy": -471.120999488, 
			 "HOMO_LUMO_gap": 0.20786, 
			 "cosmo_polarized_energy": -21.39, 
			 "cosmo_cavitation_energy": 21.36, 
			 "cosmo_dispersion_energy": -15.26, 
			 "cosmo_repulsion_energy": 1.26, 
			 "cosmo_total_nonelectrostatic_energy": 7.36, 
			 "SMD_solvation_energy": 6.19 
		},
		"coords": [
			{
				"x": 1.2154839143,
				"y": -1.0271915957,
				"z": -0.4785817552,
				"element": "N" 
			},
			{
				"x": 0.6399256887,
				"y": 0.0021687492,
				"z": -1.1694698768,
				"element": "C" 
			},
			{
				"x": 1.1967780747,
				"y": 0.5429237721,
				"z": -2.1198034744,
				"element": "O" 
			},
			{
				"x": -0.7035906101,
				"y": 0.4376124664,
				"z": -0.7087178672,
				"element": "C" 
			},
			{
				"x": -1.3839926038,
				"y": 1.4739706013,
				"z": -1.3346426673,
				"element": "C" 
			},
			{
				"x": -2.5729928979,
				"y": 1.648802699,
				"z": -0.7050894024,
				"element": "N" 
			},
			{
				"x": -2.6892147117,
				"y": 0.7372693037,
				"z": 0.334449253,
				"element": "C" 
			},
			{
				"x": -1.5322289678,
				"y": -0.0273996977,
				"z": 0.3480862695,
				"element": "C" 
			},
			{
				"x": -3.8326393132,
				"y": 0.6903716396,
				"z": 1.166339223,
				"element": "C" 
			},
			{
				"x": -4.7760378123,
				"y": 0.6549619153,
				"z": 1.8492854198,
				"element": "N" 
			},
			{
				"x": 2.1274391501,
				"y": -1.3362517404,
				"z": -0.7766194761,
				"element": "H" 
			},
			{
				"x": 0.776244311,
				"y": -1.4833951021,
				"z": 0.3028522861,
				"element": "H" 
			},
			{
				"x": -1.0752146558,
				"y": 2.0731684552,
				"z": -2.1770636379,
				"element": "H" 
			},
			{
				"x": -3.2741286684,
				"y": 2.3330062225,
				"z": -0.9458741695,
				"element": "H" 
			},
			{
				"x": -1.3387308977,
				"y": -0.8229176882,
				"z": 1.0535498753,
				"element": "H" 
			}
		],
		 "valence_orbital": [ 
			{
				"type": "occ",
				"energy": -0.34352,
				"method": "rhf"
			},
			{
				"type": "occ",
				"energy": -0.281,
				"method": "rhf"
			},
			{
				"type": "occ",
				"energy": -0.27132,
				"method": "rhf"
			},
			{
				"type": "occ",
				"energy": -0.25662,
				"method": "rhf"
			},
			{
				"type": "occ",
				"energy": -0.2433,
				"method": "rhf"
			},
			{
				"type": "unocc",
				"energy": -0.03544,
				"method": "rhf"
			},
			{
				"type": "unocc",
				"energy": -0.01707,
				"method": "rhf"
			},
			{
				"type": "unocc",
				"energy": 0.00933,
				"method": "rhf"
			},
			{
				"type": "unocc",
				"energy": 0.0518,
				"method": "rhf"
			},
			{
				"type": "unocc",
				"energy": 0.07329,
				"method": "rhf"
			}
		],
		"cosmo_sigma_profile": { 
			"-0.025": 0.0,
			"-0.024": 0.0,
			"-0.023": 0.0,
			"-0.022": 0.0,
			"-0.021": 0.0,
			"-0.02": 0.0,
			"-0.019": 0.0,
			"-0.018": 0.976084734825,
			"-0.017": 1.96050611671,
			"-0.016": 0.694403165547,
			"-0.015": 2.0825001581,
			"-0.014": 3.86395540655,
			"-0.013": 3.83338571728,
			"-0.012": 3.83253412063,
			"-0.011": 3.38269985159,
			"-0.01": 5.0201564687,
			"-0.009": 5.88833173265,
			"-0.008": 4.44667752041,
			"-0.007": 4.37052422844,
			"-0.006": 4.90935729664,
			"-0.005": 4.30369904223,
			"-0.004": 5.01841309724,
			"-0.003": 5.42505107326,
			"-0.002": 5.19540981998,
			"-0.001": 7.61192675859,
			"0.0": 10.6059378355,
			"0.001": 12.0846924649,
			"0.002": 12.44412803,
			"0.003": 11.49564261,
			"0.004": 5.8118554417,
			"0.005": 5.20137767296,
			"0.006": 3.86503582069,
			"0.007": 3.77049579302,
			"0.008": 4.78915917656,
			"0.009": 4.69736630203,
			"0.01": 4.9747121738,
			"0.011": 3.92367442186,
			"0.012": 4.12778674403,
			"0.013": 4.60895053977,
			"0.014": 5.66316259576,
			"0.015": 1.21795387207,
			"0.016": 0.0,
			"0.017": 0.0,
			"0.018": 0.0,
			"0.019": 0.0,
			"0.02": 0.0,
			"0.021": 0.0,
			"0.022": 0.0,
			"0.023": 0.0,
			"0.024": 0.0,
			"0.025": 0.0
		}
	}
}
