{
	 "smiles": "CC(C)C1=C(OCCN(C)C)C=C(C)C(OC(C)=O)=C1", 
	 "Tm": 417.15, 
	 "num_atms": 45, 
	 "gaussian": { 
		 "optdone": 1, 
		 "sigma_profile": "yes", 
		 "theory": "DFT", 
		 "functional": "B3LYP", 
		 "basiset": "6-31G**", 
		 "properties": { 
			 "R2extent": 9015.2492, 
			 "electric_dipole_moment_norm": 2.3154108102, 
			 "electric_quadrupole_moment_norm": 16.0315986898, 
			 "total_energy": -905.202346984, 
			 "HOMO_LUMO_gap": 0.20949, 
			 "cosmo_polarized_energy": -12.89, 
			 "cosmo_cavitation_energy": 46.6, 
			 "cosmo_dispersion_energy": -30.87, 
			 "cosmo_repulsion_energy": 2.45, 
			 "cosmo_total_nonelectrostatic_energy": 18.18, 
			 "SMD_solvation_energy": 7.33 
		},
		"coords": [
			{
				"x": -0.3246171128,
				"y": -4.4554609067,
				"z": -0.5727996639,
				"element": "C" 
			},
			{
				"x": -0.1269974766,
				"y": -3.128256889,
				"z": 0.1733913981,
				"element": "C" 
			},
			{
				"x": 1.2083020933,
				"y": -3.1311888195,
				"z": 0.9475542386,
				"element": "C" 
			},
			{
				"x": -0.2260901246,
				"y": -1.9014405649,
				"z": -0.7239759761,
				"element": "C" 
			},
			{
				"x": -0.5961791181,
				"y": -0.6548048146,
				"z": -0.1709859348,
				"element": "C" 
			},
			{
				"x": -0.8488152919,
				"y": -0.6585319573,
				"z": 1.1742924607,
				"element": "O" 
			},
			{
				"x": -1.3786132678,
				"y": 0.5079559469,
				"z": 1.7866748822,
				"element": "C" 
			},
			{
				"x": -1.6481801282,
				"y": 0.1951582611,
				"z": 3.2540229804,
				"element": "C" 
			},
			{
				"x": -2.6867201418,
				"y": -0.8063004705,
				"z": 3.4715761512,
				"element": "N" 
			},
			{
				"x": -2.6117024538,
				"y": -1.3703829117,
				"z": 4.8125301471,
				"element": "C" 
			},
			{
				"x": -4.0249288333,
				"y": -0.3056756042,
				"z": 3.1896583786,
				"element": "C" 
			},
			{
				"x": -0.6920396048,
				"y": 0.4863441132,
				"z": -0.9720269187,
				"element": "C" 
			},
			{
				"x": -0.412717268,
				"y": 0.4445275359,
				"z": -2.3455701515,
				"element": "C" 
			},
			{
				"x": -0.5127216529,
				"y": 1.6822217208,
				"z": -3.1998743056,
				"element": "C" 
			},
			{
				"x": -0.03551927,
				"y": -0.7873558371,
				"z": -2.8772158103,
				"element": "C" 
			},
			{
				"x": 0.1808361983,
				"y": -0.9382548099,
				"z": -4.2590566081,
				"element": "O" 
			},
			{
				"x": 1.3495390913,
				"y": -0.4719278509,
				"z": -4.7951645035,
				"element": "C" 
			},
			{
				"x": 1.3917876263,
				"y": -0.7736734003,
				"z": -6.2740581814,
				"element": "C" 
			},
			{
				"x": 2.2059781987,
				"y": 0.0983753134,
				"z": -4.164226521,
				"element": "O" 
			},
			{
				"x": 0.0510631297,
				"y": -1.9331534152,
				"z": -2.0895993736,
				"element": "C" 
			},
			{
				"x": 0.5005360385,
				"y": -4.6644175196,
				"z": -1.2633238145,
				"element": "H" 
			},
			{
				"x": -1.2565513914,
				"y": -4.4625574371,
				"z": -1.1472949447,
				"element": "H" 
			},
			{
				"x": -0.3619131385,
				"y": -5.2839457213,
				"z": 0.1421265956,
				"element": "H" 
			},
			{
				"x": -0.9287804033,
				"y": -3.0360708127,
				"z": 0.9153344339,
				"element": "H" 
			},
			{
				"x": 2.0570857159,
				"y": -3.2085086221,
				"z": 0.2586538388,
				"element": "H" 
			},
			{
				"x": 1.2530781445,
				"y": -3.9815192993,
				"z": 1.6376453524,
				"element": "H" 
			},
			{
				"x": 1.3243463545,
				"y": -2.2136381625,
				"z": 1.5300431234,
				"element": "H" 
			},
			{
				"x": -0.6562627753,
				"y": 1.3355915823,
				"z": 1.7295596088,
				"element": "H" 
			},
			{
				"x": -2.2902625976,
				"y": 0.8290710502,
				"z": 1.2650097914,
				"element": "H" 
			},
			{
				"x": -0.7151464456,
				"y": -0.1837528087,
				"z": 3.6845549472,
				"element": "H" 
			},
			{
				"x": -1.8731910619,
				"y": 1.1528381315,
				"z": 3.7680405074,
				"element": "H" 
			},
			{
				"x": -2.7955510587,
				"y": -0.628823388,
				"z": 5.6151546057,
				"element": "H" 
			},
			{
				"x": -3.3556314515,
				"y": -2.1665620807,
				"z": 4.9180173683,
				"element": "H" 
			},
			{
				"x": -1.6226501569,
				"y": -1.8091953512,
				"z": 4.9769229757,
				"element": "H" 
			},
			{
				"x": -4.3211907843,
				"y": 0.5384108606,
				"z": 3.8442731549,
				"element": "H" 
			},
			{
				"x": -4.1032773519,
				"y": 0.0288655865,
				"z": 2.1515745642,
				"element": "H" 
			},
			{
				"x": -4.752599069,
				"y": -1.1111874532,
				"z": 3.328135655,
				"element": "H" 
			},
			{
				"x": -0.9829691292,
				"y": 1.4360747226,
				"z": -0.5380006563,
				"element": "H" 
			},
			{
				"x": -1.065854814,
				"y": 1.4831462018,
				"z": -4.1239208455,
				"element": "H" 
			},
			{
				"x": 0.4834435442,
				"y": 2.0370207688,
				"z": -3.4857750301,
				"element": "H" 
			},
			{
				"x": -1.0223166004,
				"y": 2.4878510256,
				"z": -2.6648614206,
				"element": "H" 
			},
			{
				"x": 2.32651489,
				"y": -0.4027299583,
				"z": -6.6930204734,
				"element": "H" 
			},
			{
				"x": 0.542846972,
				"y": -0.3013728442,
				"z": -6.7771737419,
				"element": "H" 
			},
			{
				"x": 1.3081975747,
				"y": -1.8517359139,
				"z": -6.4395066746,
				"element": "H" 
			},
			{
				"x": 0.3303344024,
				"y": -2.8627271967,
				"z": -2.5730156097,
				"element": "H" 
			}
		],
		 "valence_orbital": [ 
			{
				"type": "occ",
				"energy": -0.29538,
				"method": "rhf"
			},
			{
				"type": "occ",
				"energy": -0.2689,
				"method": "rhf"
			},
			{
				"type": "occ",
				"energy": -0.23644,
				"method": "rhf"
			},
			{
				"type": "occ",
				"energy": -0.21515,
				"method": "rhf"
			},
			{
				"type": "occ",
				"energy": -0.20445,
				"method": "rhf"
			},
			{
				"type": "unocc",
				"energy": 0.00504,
				"method": "rhf"
			},
			{
				"type": "unocc",
				"energy": 0.01071,
				"method": "rhf"
			},
			{
				"type": "unocc",
				"energy": 0.02224,
				"method": "rhf"
			},
			{
				"type": "unocc",
				"energy": 0.07782,
				"method": "rhf"
			},
			{
				"type": "unocc",
				"energy": 0.09934,
				"method": "rhf"
			}
		],
		"cosmo_sigma_profile": { 
			"-0.025": 0.0,
			"-0.024": 0.0,
			"-0.023": 0.0,
			"-0.022": 0.0,
			"-0.021": 0.0,
			"-0.02": 0.0,
			"-0.019": 0.0,
			"-0.018": 0.0,
			"-0.017": 0.0,
			"-0.016": 0.0,
			"-0.015": 0.0,
			"-0.014": 0.0,
			"-0.013": 0.0,
			"-0.012": 0.0,
			"-0.011": 0.0,
			"-0.01": 0.0,
			"-0.009": 0.0,
			"-0.008": 0.0,
			"-0.007": 1.68838778865,
			"-0.006": 9.46040440624,
			"-0.005": 18.9078358533,
			"-0.004": 30.024898984,
			"-0.003": 37.9531466539,
			"-0.002": 48.7475712857,
			"-0.001": 51.4215585528,
			"0.0": 45.3021209379,
			"0.001": 27.630107822,
			"0.002": 18.7722381657,
			"0.003": 13.3808224999,
			"0.004": 13.0423498546,
			"0.005": 12.0192249655,
			"0.006": 6.48197843268,
			"0.007": 4.59415904095,
			"0.008": 4.07907881345,
			"0.009": 3.32673071512,
			"0.01": 3.60867575032,
			"0.011": 4.4801674153,
			"0.012": 4.81098300992,
			"0.013": 1.62203418942,
			"0.014": 1.13437319083,
			"0.015": 0.960058664107,
			"0.016": 0.0768375326015,
			"0.017": 0.0,
			"0.018": 0.0,
			"0.019": 0.0,
			"0.02": 0.0,
			"0.021": 0.0,
			"0.022": 0.0,
			"0.023": 0.0,
			"0.024": 0.0,
			"0.025": 0.0
		}
	}
}
