{
	 "smiles": "CSC1=C(F)C=C(N)C=C1", 
	 "Tm": 323.15, 
	 "num_atms": 18, 
	 "gaussian": { 
		 "optdone": 1, 
		 "sigma_profile": "yes", 
		 "theory": "DFT", 
		 "functional": "B3LYP", 
		 "basiset": "6-31G**", 
		 "properties": { 
			 "R2extent": 2265.3409, 
			 "electric_dipole_moment_norm": 3.25133639754, 
			 "electric_quadrupole_moment_norm": 18.770742875, 
			 "total_energy": -824.342672427, 
			 "HOMO_LUMO_gap": 0.19659, 
			 "cosmo_polarized_energy": -10.13, 
			 "cosmo_cavitation_energy": 23.6, 
			 "cosmo_dispersion_energy": -17.83, 
			 "cosmo_repulsion_energy": 1.39, 
			 "cosmo_total_nonelectrostatic_energy": 7.17, 
			 "SMD_solvation_energy": 4.55 
		},
		"coords": [
			{
				"x": 2.0067772999,
				"y": -0.9087295333,
				"z": 2.1405611142,
				"element": "C" 
			},
			{
				"x": 2.0142416682,
				"y": -2.1087861911,
				"z": 0.7533480091,
				"element": "S" 
			},
			{
				"x": 0.9789942171,
				"y": -1.2846513096,
				"z": -0.4410255483,
				"element": "C" 
			},
			{
				"x": -0.3761540166,
				"y": -1.0220528822,
				"z": -0.2067548037,
				"element": "C" 
			},
			{
				"x": -0.9111425056,
				"y": -1.3384360312,
				"z": 0.9921450316,
				"element": "F" 
			},
			{
				"x": -1.2092725338,
				"y": -0.436818249,
				"z": -1.1469746514,
				"element": "C" 
			},
			{
				"x": -0.6982858863,
				"y": -0.1036262786,
				"z": -2.4130895333,
				"element": "C" 
			},
			{
				"x": -1.5039403507,
				"y": 0.5272850701,
				"z": -3.3555268164,
				"element": "N" 
			},
			{
				"x": 0.6575095609,
				"y": -0.3672764302,
				"z": -2.6811346569,
				"element": "C" 
			},
			{
				"x": 1.471293235,
				"y": -0.9364257318,
				"z": -1.7073664515,
				"element": "C" 
			},
			{
				"x": 2.6274893276,
				"y": -1.3436292645,
				"z": 2.927584276,
				"element": "H" 
			},
			{
				"x": 2.4335601794,
				"y": 0.0473593333,
				"z": 1.8308425421,
				"element": "H" 
			},
			{
				"x": 0.9926494468,
				"y": -0.7686845567,
				"z": 2.5164974996,
				"element": "H" 
			},
			{
				"x": -2.2465183488,
				"y": -0.2499926737,
				"z": -0.887328412,
				"element": "H" 
			},
			{
				"x": -2.4984327063,
				"y": 0.3842928342,
				"z": -3.2508769382,
				"element": "H" 
			},
			{
				"x": -1.2011113256,
				"y": 0.4415221884,
				"z": -4.3153500405,
				"element": "H" 
			},
			{
				"x": 1.0731368005,
				"y": -0.1099109772,
				"z": -3.651526222,
				"element": "H" 
			},
			{
				"x": 2.5179059383,
				"y": -1.1252393167,
				"z": -1.9248243985,
				"element": "H" 
			}
		],
		 "valence_orbital": [ 
			{
				"type": "occ",
				"energy": -0.32355,
				"method": "rhf"
			},
			{
				"type": "occ",
				"energy": -0.30045,
				"method": "rhf"
			},
			{
				"type": "occ",
				"energy": -0.24768,
				"method": "rhf"
			},
			{
				"type": "occ",
				"energy": -0.23211,
				"method": "rhf"
			},
			{
				"type": "occ",
				"energy": -0.20022,
				"method": "rhf"
			},
			{
				"type": "unocc",
				"energy": -0.00363,
				"method": "rhf"
			},
			{
				"type": "unocc",
				"energy": 0.00173,
				"method": "rhf"
			},
			{
				"type": "unocc",
				"energy": 0.05145,
				"method": "rhf"
			},
			{
				"type": "unocc",
				"energy": 0.07705,
				"method": "rhf"
			},
			{
				"type": "unocc",
				"energy": 0.08367,
				"method": "rhf"
			}
		],
		"cosmo_sigma_profile": { 
			"-0.025": 0.0,
			"-0.024": 0.0,
			"-0.023": 0.0,
			"-0.022": 0.0,
			"-0.021": 0.0,
			"-0.02": 0.0,
			"-0.019": 0.0,
			"-0.018": 0.0,
			"-0.017": 0.0,
			"-0.016": 0.0,
			"-0.015": 0.0,
			"-0.014": 0.0310648454746,
			"-0.013": 1.65281254757,
			"-0.012": 2.71208219972,
			"-0.011": 3.26063942663,
			"-0.01": 2.86125228234,
			"-0.009": 3.13356066762,
			"-0.008": 4.20963293936,
			"-0.007": 3.91693511263,
			"-0.006": 6.96548104055,
			"-0.005": 9.69300214804,
			"-0.004": 10.0731562116,
			"-0.003": 10.1980914082,
			"-0.002": 11.8147355924,
			"-0.001": 13.7380102398,
			"0.0": 10.0654192522,
			"0.001": 13.0256854976,
			"0.002": 12.9643152286,
			"0.003": 14.5035853897,
			"0.004": 19.8400069933,
			"0.005": 12.9508870883,
			"0.006": 6.42785919198,
			"0.007": 4.16251399873,
			"0.008": 3.59900351045,
			"0.009": 3.04847535986,
			"0.01": 2.39790306355,
			"0.011": 0.710176129489,
			"0.012": 0.893609967437,
			"0.013": 0.537506623892,
			"0.014": 0.207114092049,
			"0.015": 0.0,
			"0.016": 0.0,
			"0.017": 0.0,
			"0.018": 0.0,
			"0.019": 0.0,
			"0.02": 0.0,
			"0.021": 0.0,
			"0.022": 0.0,
			"0.023": 0.0,
			"0.024": 0.0,
			"0.025": 0.0
		}
	}
}
