{
	 "smiles": "NC1=CC=C(C=C1)C(CC(=NO)C1=CC=CC=C1)NO", 
	 "Tm": 451.15, 
	 "num_atms": 37, 
	 "gaussian": { 
		 "optdone": 1, 
		 "sigma_profile": "yes", 
		 "theory": "DFT", 
		 "functional": "B3LYP", 
		 "basiset": "6-31G**", 
		 "properties": { 
			 "R2extent": 5739.1126, 
			 "electric_dipole_moment_norm": 2.75121713792, 
			 "electric_quadrupole_moment_norm": 21.3944002197, 
			 "total_energy": -896.423429495, 
			 "HOMO_LUMO_gap": 0.16427, 
			 "cosmo_polarized_energy": -19.95, 
			 "cosmo_cavitation_energy": 40.38, 
			 "cosmo_dispersion_energy": -26.7, 
			 "cosmo_repulsion_energy": 2.12, 
			 "cosmo_total_nonelectrostatic_energy": 15.8, 
			 "SMD_solvation_energy": 6.92 
		},
		"coords": [
			{
				"x": -3.6444771824,
				"y": -1.6096392719,
				"z": 3.5050409617,
				"element": "N" 
			},
			{
				"x": -2.5315753804,
				"y": -1.4681387347,
				"z": 2.668934943,
				"element": "C" 
			},
			{
				"x": -1.2273809566,
				"y": -1.5549115197,
				"z": 3.1838759752,
				"element": "C" 
			},
			{
				"x": -0.1271603399,
				"y": -1.4781689939,
				"z": 2.3342793578,
				"element": "C" 
			},
			{
				"x": -0.2763296811,
				"y": -1.300277586,
				"z": 0.9535642487,
				"element": "C" 
			},
			{
				"x": -1.5784027988,
				"y": -1.2195124411,
				"z": 0.4457418245,
				"element": "C" 
			},
			{
				"x": -2.6876878294,
				"y": -1.3023247794,
				"z": 1.2828635365,
				"element": "C" 
			},
			{
				"x": 0.9538598607,
				"y": -1.1974526945,
				"z": 0.0642084337,
				"element": "C" 
			},
			{
				"x": 1.5623879648,
				"y": 0.234132328,
				"z": -0.0473196422,
				"element": "C" 
			},
			{
				"x": 0.8727606683,
				"y": 1.1776283473,
				"z": -1.016385829,
				"element": "C" 
			},
			{
				"x": 1.5053338525,
				"y": 1.2912763939,
				"z": -2.1347178322,
				"element": "N" 
			},
			{
				"x": 0.8974299962,
				"y": 2.1661164503,
				"z": -3.0506728862,
				"element": "O" 
			},
			{
				"x": -0.3920439823,
				"y": 1.8671788957,
				"z": -0.6407581188,
				"element": "C" 
			},
			{
				"x": -0.5391155511,
				"y": 2.4125398527,
				"z": 0.6449153616,
				"element": "C" 
			},
			{
				"x": -1.7151977471,
				"y": 3.0626434253,
				"z": 1.0156446552,
				"element": "C" 
			},
			{
				"x": -2.7743632568,
				"y": 3.1628209962,
				"z": 0.1129353436,
				"element": "C" 
			},
			{
				"x": -2.6447807725,
				"y": 2.6150598429,
				"z": -1.1651805004,
				"element": "C" 
			},
			{
				"x": -1.463696074,
				"y": 1.9805015371,
				"z": -1.5437145699,
				"element": "C" 
			},
			{
				"x": 0.6668531889,
				"y": -1.685666452,
				"z": -1.2894110834,
				"element": "N" 
			},
			{
				"x": 0.7141219806,
				"y": -3.1270118735,
				"z": -1.2642197875,
				"element": "O" 
			},
			{
				"x": -3.4823920548,
				"y": -1.3623655542,
				"z": 4.4718842873,
				"element": "H" 
			},
			{
				"x": -4.4935868808,
				"y": -1.1885775285,
				"z": 3.1528937291,
				"element": "H" 
			},
			{
				"x": -1.0805679476,
				"y": -1.7011873382,
				"z": 4.2515899343,
				"element": "H" 
			},
			{
				"x": 0.8716087031,
				"y": -1.5644134957,
				"z": 2.7582364565,
				"element": "H" 
			},
			{
				"x": -1.7182800093,
				"y": -1.0833472041,
				"z": -0.6215823232,
				"element": "H" 
			},
			{
				"x": -3.6885381484,
				"y": -1.2385100891,
				"z": 0.8617420863,
				"element": "H" 
			},
			{
				"x": 1.7399823446,
				"y": -1.817150164,
				"z": 0.52384834,
				"element": "H" 
			},
			{
				"x": 2.597964342,
				"y": 0.1356277422,
				"z": -0.3878130987,
				"element": "H" 
			},
			{
				"x": 1.5906091214,
				"y": 0.6640615245,
				"z": 0.9581682333,
				"element": "H" 
			},
			{
				"x": 1.5346344274,
				"y": 2.160334599,
				"z": -3.776952219,
				"element": "H" 
			},
			{
				"x": 0.2735258983,
				"y": 2.3402723244,
				"z": 1.360585317,
				"element": "H" 
			},
			{
				"x": -1.8041888852,
				"y": 3.4863036994,
				"z": 2.0119062343,
				"element": "H" 
			},
			{
				"x": -3.6936792501,
				"y": 3.6642318707,
				"z": 0.4023368599,
				"element": "H" 
			},
			{
				"x": -3.4655301653,
				"y": 2.6860858883,
				"z": -1.8734608319,
				"element": "H" 
			},
			{
				"x": -1.3638761423,
				"y": 1.5672523483,
				"z": -2.5393270685,
				"element": "H" 
			},
			{
				"x": 1.4413588629,
				"y": -1.4300340691,
				"z": -1.9013471634,
				"element": "H" 
			},
			{
				"x": -0.2142801754,
				"y": -3.3690782769,
				"z": -1.3825331653,
				"element": "H" 
			}
		],
		 "valence_orbital": [ 
			{
				"type": "occ",
				"energy": -0.24748,
				"method": "rhf"
			},
			{
				"type": "occ",
				"energy": -0.23972,
				"method": "rhf"
			},
			{
				"type": "occ",
				"energy": -0.23293,
				"method": "rhf"
			},
			{
				"type": "occ",
				"energy": -0.22515,
				"method": "rhf"
			},
			{
				"type": "occ",
				"energy": -0.19274,
				"method": "rhf"
			},
			{
				"type": "unocc",
				"energy": -0.02847,
				"method": "rhf"
			},
			{
				"type": "unocc",
				"energy": 0.00116,
				"method": "rhf"
			},
			{
				"type": "unocc",
				"energy": 0.00772,
				"method": "rhf"
			},
			{
				"type": "unocc",
				"energy": 0.02078,
				"method": "rhf"
			},
			{
				"type": "unocc",
				"energy": 0.04035,
				"method": "rhf"
			}
		],
		"cosmo_sigma_profile": { 
			"-0.025": 0.0,
			"-0.024": 0.0,
			"-0.023": 0.0,
			"-0.022": 0.0,
			"-0.021": 0.0,
			"-0.02": 0.0,
			"-0.019": 0.0,
			"-0.018": 0.00215353645634,
			"-0.017": 0.737996472677,
			"-0.016": 0.99548659367,
			"-0.015": 1.46207837993,
			"-0.014": 1.85880123871,
			"-0.013": 1.33714463487,
			"-0.012": 2.65904258365,
			"-0.011": 3.77432668204,
			"-0.01": 5.02754650805,
			"-0.009": 5.13328722235,
			"-0.008": 5.50218553631,
			"-0.007": 7.82536159162,
			"-0.006": 11.73389274,
			"-0.005": 21.1063323662,
			"-0.004": 25.8690579569,
			"-0.003": 24.7700913101,
			"-0.002": 19.1095209487,
			"-0.001": 17.134658026,
			"0.0": 13.9985073464,
			"0.001": 16.5342605335,
			"0.002": 16.6098206075,
			"0.003": 15.0124889961,
			"0.004": 17.1356736757,
			"0.005": 21.3805038283,
			"0.006": 19.0313529539,
			"0.007": 15.5475196923,
			"0.008": 6.11947761826,
			"0.009": 4.45229014557,
			"0.01": 4.90042888217,
			"0.011": 3.94072615629,
			"0.012": 4.03590236815,
			"0.013": 2.28765541432,
			"0.014": 0.805597926468,
			"0.015": 0.475139508052,
			"0.016": 0.0,
			"0.017": 0.0,
			"0.018": 0.0,
			"0.019": 0.0,
			"0.02": 0.0,
			"0.021": 0.0,
			"0.022": 0.0,
			"0.023": 0.0,
			"0.024": 0.0,
			"0.025": 0.0
		}
	}
}
