{
	 "smiles": "OC(=O)C1=CC(=C(F)C(F)=C1)S(Cl)(=O)=O", 
	 "Tm": 428.15, 
	 "num_atms": 18, 
	 "gaussian": { 
		 "optdone": 1, 
		 "sigma_profile": "yes", 
		 "theory": "DFT", 
		 "functional": "B3LYP", 
		 "basiset": "6-31G**", 
		 "properties": { 
			 "R2extent": 4063.0804, 
			 "electric_dipole_moment_norm": 5.46054419815, 
			 "electric_quadrupole_moment_norm": 8.13466872589, 
			 "total_energy": -1627.42531794, 
			 "HOMO_LUMO_gap": 0.18924, 
			 "cosmo_polarized_energy": -12.97, 
			 "cosmo_cavitation_energy": 28.38, 
			 "cosmo_dispersion_energy": -20.86, 
			 "cosmo_repulsion_energy": 1.55, 
			 "cosmo_total_nonelectrostatic_energy": 9.08, 
			 "SMD_solvation_energy": 5.85 
		},
		"coords": [
			{
				"x": 3.2464824427,
				"y": 2.6094345133,
				"z": -0.0668329675,
				"element": "O" 
			},
			{
				"x": 2.8994295668,
				"y": 1.3861367479,
				"z": 0.3932761189,
				"element": "C" 
			},
			{
				"x": 3.673655844,
				"y": 0.6478929421,
				"z": 0.9632853419,
				"element": "O" 
			},
			{
				"x": 1.4709349872,
				"y": 1.0560062663,
				"z": 0.1202855642,
				"element": "C" 
			},
			{
				"x": 0.9988401047,
				"y": -0.1871668307,
				"z": 0.5509035968,
				"element": "C" 
			},
			{
				"x": -0.3309621525,
				"y": -0.5293797347,
				"z": 0.3172073541,
				"element": "C" 
			},
			{
				"x": -1.1914014287,
				"y": 0.3515861878,
				"z": -0.3434404048,
				"element": "C" 
			},
			{
				"x": -2.4577866182,
				"y": 0.0356119112,
				"z": -0.591200351,
				"element": "F" 
			},
			{
				"x": -0.7021694257,
				"y": 1.5882250314,
				"z": -0.7696030007,
				"element": "C" 
			},
			{
				"x": -1.5377867495,
				"y": 2.4182447265,
				"z": -1.4032927348,
				"element": "F" 
			},
			{
				"x": 0.6166482494,
				"y": 1.9480854645,
				"z": -0.5423855446,
				"element": "C" 
			},
			{
				"x": -0.9341062887,
				"y": -2.1003691771,
				"z": 0.9367212228,
				"element": "S" 
			},
			{
				"x": -1.2608851053,
				"y": -3.1456089872,
				"z": -0.8759256571,
				"element": "Cl" 
			},
			{
				"x": 0.1672443338,
				"y": -2.7694882672,
				"z": 1.6138352443,
				"element": "O" 
			},
			{
				"x": -2.2346438203,
				"y": -1.9150807535,
				"z": 1.5604294299,
				"element": "O" 
			},
			{
				"x": 4.1844453943,
				"y": 2.7302120319,
				"z": 0.1561218345,
				"element": "H" 
			},
			{
				"x": 1.6642835744,
				"y": -0.8724645555,
				"z": 1.0625877176,
				"element": "H" 
			},
			{
				"x": 0.9695770917,
				"y": 2.913922483,
				"z": -0.8829727644,
				"element": "H" 
			}
		],
		 "valence_orbital": [ 
			{
				"type": "occ",
				"energy": -0.34567,
				"method": "rhf"
			},
			{
				"type": "occ",
				"energy": -0.32414,
				"method": "rhf"
			},
			{
				"type": "occ",
				"energy": -0.30991,
				"method": "rhf"
			},
			{
				"type": "occ",
				"energy": -0.30724,
				"method": "rhf"
			},
			{
				"type": "occ",
				"energy": -0.29092,
				"method": "rhf"
			},
			{
				"type": "unocc",
				"energy": -0.10168,
				"method": "rhf"
			},
			{
				"type": "unocc",
				"energy": -0.08331,
				"method": "rhf"
			},
			{
				"type": "unocc",
				"energy": -0.06074,
				"method": "rhf"
			},
			{
				"type": "unocc",
				"energy": 0.0105,
				"method": "rhf"
			},
			{
				"type": "unocc",
				"energy": 0.02243,
				"method": "rhf"
			}
		],
		"cosmo_sigma_profile": { 
			"-0.025": 0.0,
			"-0.024": 0.0,
			"-0.023": 0.0,
			"-0.022": 0.0,
			"-0.021": 0.0,
			"-0.02": 0.0791479975833,
			"-0.019": 0.639479512103,
			"-0.018": 1.35342242859,
			"-0.017": 0.538237752723,
			"-0.016": 0.554762388526,
			"-0.015": 1.02979033109,
			"-0.014": 0.472608547888,
			"-0.013": 0.338402713262,
			"-0.012": 1.16848304211,
			"-0.011": 1.131995183,
			"-0.01": 0.953134302298,
			"-0.009": 1.64870547638,
			"-0.008": 2.5435113618,
			"-0.007": 3.05615326208,
			"-0.006": 6.83174833395,
			"-0.005": 14.8035917207,
			"-0.004": 17.8878743079,
			"-0.003": 20.2076869481,
			"-0.002": 17.9209066936,
			"-0.001": 12.1275038434,
			"0.0": 12.1148228047,
			"0.001": 21.4112206373,
			"0.002": 28.9944807158,
			"0.003": 15.5687560275,
			"0.004": 6.27580334336,
			"0.005": 6.10955791003,
			"0.006": 6.53469452548,
			"0.007": 11.0985995857,
			"0.008": 8.89550814071,
			"0.009": 2.2998984118,
			"0.01": 3.27020906551,
			"0.011": 3.91512933767,
			"0.012": 0.187287018375,
			"0.013": 0.0,
			"0.014": 0.0,
			"0.015": 0.0,
			"0.016": 0.0,
			"0.017": 0.0,
			"0.018": 0.0,
			"0.019": 0.0,
			"0.02": 0.0,
			"0.021": 0.0,
			"0.022": 0.0,
			"0.023": 0.0,
			"0.024": 0.0,
			"0.025": 0.0
		}
	}
}
