{
	 "smiles": "CC1=NN(C(C)=C1CC(O)=O)C1=C(F)C=C(F)C=C1", 
	 "Tm": 437.15, 
	 "num_atms": 31, 
	 "gaussian": { 
		 "optdone": 1, 
		 "sigma_profile": "yes", 
		 "theory": "DFT", 
		 "functional": "B3LYP", 
		 "basiset": "6-31G**", 
		 "properties": { 
			 "R2extent": 6696.2305, 
			 "electric_dipole_moment_norm": 4.60721080699, 
			 "electric_quadrupole_moment_norm": 27.0457000455, 
			 "total_energy": -962.23390889, 
			 "HOMO_LUMO_gap": 0.20295, 
			 "cosmo_polarized_energy": -18.34, 
			 "cosmo_cavitation_energy": 36.98, 
			 "cosmo_dispersion_energy": -24.72, 
			 "cosmo_repulsion_energy": 1.88, 
			 "cosmo_total_nonelectrostatic_energy": 14.14, 
			 "SMD_solvation_energy": 7.72 
		},
		"coords": [
			{
				"x": 1.5899952415,
				"y": -1.4971226312,
				"z": 3.8670220043,
				"element": "C" 
			},
			{
				"x": 1.1234284234,
				"y": -0.991261254,
				"z": 2.5357904691,
				"element": "C" 
			},
			{
				"x": 0.1365691736,
				"y": -0.1072813001,
				"z": 2.4540805914,
				"element": "N" 
			},
			{
				"x": -0.0212119871,
				"y": 0.1251427635,
				"z": 1.1184432014,
				"element": "N" 
			},
			{
				"x": 0.8548932745,
				"y": -0.5972307248,
				"z": 0.3503575143,
				"element": "C" 
			},
			{
				"x": 0.9129429433,
				"y": -0.4991250566,
				"z": -1.1412519941,
				"element": "C" 
			},
			{
				"x": 1.6179178767,
				"y": -1.342975706,
				"z": 1.241744803,
				"element": "C" 
			},
			{
				"x": 2.7332985148,
				"y": -2.2955470018,
				"z": 0.9289704298,
				"element": "C" 
			},
			{
				"x": 2.3782863283,
				"y": -3.7946380101,
				"z": 0.9405752444,
				"element": "C" 
			},
			{
				"x": 1.0960419237,
				"y": -4.1029764371,
				"z": 1.2407957873,
				"element": "O" 
			},
			{
				"x": 3.1903675803,
				"y": -4.6533988732,
				"z": 0.7029608453,
				"element": "O" 
			},
			{
				"x": -1.0057652913,
				"y": 1.0525121015,
				"z": 0.6860196562,
				"element": "C" 
			},
			{
				"x": -0.9158890162,
				"y": 2.3973469084,
				"z": 1.0682110442,
				"element": "C" 
			},
			{
				"x": 0.1197069553,
				"y": 2.8017535683,
				"z": 1.8126891483,
				"element": "F" 
			},
			{
				"x": -1.8686696884,
				"y": 3.331074061,
				"z": 0.6817309058,
				"element": "C" 
			},
			{
				"x": -2.9220013668,
				"y": 2.8955300941,
				"z": -0.1153474134,
				"element": "C" 
			},
			{
				"x": -3.8476005797,
				"y": 3.7905521702,
				"z": -0.5011742248,
				"element": "F" 
			},
			{
				"x": -3.0479115314,
				"y": 1.5719634855,
				"z": -0.5243461724,
				"element": "C" 
			},
			{
				"x": -2.0857526815,
				"y": 0.6541092211,
				"z": -0.1068067238,
				"element": "C" 
			},
			{
				"x": 0.9942079898,
				"y": -1.0458916217,
				"z": 4.6627117498,
				"element": "H" 
			},
			{
				"x": 1.4972814113,
				"y": -2.5868025881,
				"z": 3.9374943997,
				"element": "H" 
			},
			{
				"x": 2.6433287928,
				"y": -1.2487100095,
				"z": 4.0415415,
				"element": "H" 
			},
			{
				"x": 0.1418543899,
				"y": -1.1064229566,
				"z": -1.6294697133,
				"element": "H" 
			},
			{
				"x": 0.7801565826,
				"y": 0.5329697089,
				"z": -1.478585302,
				"element": "H" 
			},
			{
				"x": 1.882108192,
				"y": -0.8512707502,
				"z": -1.5025813524,
				"element": "H" 
			},
			{
				"x": 3.5579785567,
				"y": -2.1805272371,
				"z": 1.6415514599,
				"element": "H" 
			},
			{
				"x": 3.1677246816,
				"y": -2.095792877,
				"z": -0.0560386918,
				"element": "H" 
			},
			{
				"x": 0.6057509029,
				"y": -3.2733410697,
				"z": 1.3758865249,
				"element": "H" 
			},
			{
				"x": -1.7840075967,
				"y": 4.3667992747,
				"z": 0.9868896898,
				"element": "H" 
			},
			{
				"x": -3.8895771761,
				"y": 1.2749891336,
				"z": -1.1387979833,
				"element": "H" 
			},
			{
				"x": -2.17305282,
				"y": -0.3905263863,
				"z": -0.3857673977,
				"element": "H" 
			}
		],
		 "valence_orbital": [ 
			{
				"type": "occ",
				"energy": -0.28695,
				"method": "rhf"
			},
			{
				"type": "occ",
				"energy": -0.27895,
				"method": "rhf"
			},
			{
				"type": "occ",
				"energy": -0.27146,
				"method": "rhf"
			},
			{
				"type": "occ",
				"energy": -0.25159,
				"method": "rhf"
			},
			{
				"type": "occ",
				"energy": -0.2405,
				"method": "rhf"
			},
			{
				"type": "unocc",
				"energy": -0.03755,
				"method": "rhf"
			},
			{
				"type": "unocc",
				"energy": -0.02751,
				"method": "rhf"
			},
			{
				"type": "unocc",
				"energy": 0.00578,
				"method": "rhf"
			},
			{
				"type": "unocc",
				"energy": 0.01669,
				"method": "rhf"
			},
			{
				"type": "unocc",
				"energy": 0.04386,
				"method": "rhf"
			}
		],
		"cosmo_sigma_profile": { 
			"-0.025": 0.0,
			"-0.024": 0.0,
			"-0.023": 0.0,
			"-0.022": 0.0,
			"-0.021": 0.0,
			"-0.02": 0.0,
			"-0.019": 0.0,
			"-0.018": 0.0,
			"-0.017": 0.0,
			"-0.016": 0.0,
			"-0.015": 0.0,
			"-0.014": 0.0692812251937,
			"-0.013": 0.66449613691,
			"-0.012": 0.697888594847,
			"-0.011": 0.365909309631,
			"-0.01": 1.21273735688,
			"-0.009": 2.21772463884,
			"-0.008": 8.09849864446,
			"-0.007": 11.4749299893,
			"-0.006": 17.5111313103,
			"-0.005": 21.0615399294,
			"-0.004": 23.6373191053,
			"-0.003": 20.0851997686,
			"-0.002": 20.6884099451,
			"-0.001": 25.7252715334,
			"0.0": 24.6982208443,
			"0.001": 17.9491024463,
			"0.002": 15.4561276974,
			"0.003": 18.3054339583,
			"0.004": 17.0581630084,
			"0.005": 4.50726568285,
			"0.006": 4.45680305665,
			"0.007": 4.39765036881,
			"0.008": 4.47186412092,
			"0.009": 4.97090804757,
			"0.01": 6.00634542235,
			"0.011": 5.96806007546,
			"0.012": 6.78793730667,
			"0.013": 4.57352631048,
			"0.014": 1.06033232871,
			"0.015": 0.761752666181,
			"0.016": 0.131327975385,
			"0.017": 0.0,
			"0.018": 0.0,
			"0.019": 0.0,
			"0.02": 0.0,
			"0.021": 0.0,
			"0.022": 0.0,
			"0.023": 0.0,
			"0.024": 0.0,
			"0.025": 0.0
		}
	}
}
