{
	 "smiles": "OC(=O)C=CC1=CC2=C(OCCO2)C(Cl)=C1", 
	 "Tm": 535.15, 
	 "num_atms": 25, 
	 "gaussian": { 
		 "optdone": 1, 
		 "sigma_profile": "yes", 
		 "theory": "DFT", 
		 "functional": "B3LYP", 
		 "basiset": "6-31G**", 
		 "properties": { 
			 "R2extent": 4951.3317, 
			 "electric_dipole_moment_norm": 5.31602864646, 
			 "electric_quadrupole_moment_norm": 28.8539861771, 
			 "total_energy": -1185.64753491, 
			 "HOMO_LUMO_gap": 0.16381, 
			 "cosmo_polarized_energy": -17.07, 
			 "cosmo_cavitation_energy": 31.12, 
			 "cosmo_dispersion_energy": -23.02, 
			 "cosmo_repulsion_energy": 1.81, 
			 "cosmo_total_nonelectrostatic_energy": 9.9, 
			 "SMD_solvation_energy": 6.54 
		},
		"coords": [
			{
				"x": -1.4902698299,
				"y": 2.2947898592,
				"z": 0.8800530328,
				"element": "O" 
			},
			{
				"x": -1.8986571323,
				"y": 1.7192790342,
				"z": 2.0397365916,
				"element": "C" 
			},
			{
				"x": -2.0616176647,
				"y": 2.4013383024,
				"z": 3.0261712924,
				"element": "O" 
			},
			{
				"x": -2.1932833725,
				"y": 0.2567214039,
				"z": 2.0549631871,
				"element": "C" 
			},
			{
				"x": -1.7891746617,
				"y": -0.7412090316,
				"z": 1.2440289399,
				"element": "C" 
			},
			{
				"x": -0.8501777845,
				"y": -0.7447569769,
				"z": 0.1067883248,
				"element": "C" 
			},
			{
				"x": 0.3190922334,
				"y": 0.0338198335,
				"z": 0.0716088402,
				"element": "C" 
			},
			{
				"x": 1.1856149303,
				"y": -0.0364957666,
				"z": -1.0172197843,
				"element": "C" 
			},
			{
				"x": 0.9027381603,
				"y": -0.8782247339,
				"z": -2.1106142198,
				"element": "C" 
			},
			{
				"x": 1.7149966284,
				"y": -0.9517956495,
				"z": -3.1997285637,
				"element": "O" 
			},
			{
				"x": 2.6734627615,
				"y": 0.1083974931,
				"z": -3.2919739303,
				"element": "C" 
			},
			{
				"x": 3.3155055779,
				"y": 0.3471972978,
				"z": -1.9370829787,
				"element": "C" 
			},
			{
				"x": 2.3187142679,
				"y": 0.7299298933,
				"z": -0.9862418717,
				"element": "O" 
			},
			{
				"x": -0.2474413496,
				"y": -1.6788276959,
				"z": -2.0525621168,
				"element": "C" 
			},
			{
				"x": -0.595722945,
				"y": -2.7554584076,
				"z": -3.3849956543,
				"element": "Cl" 
			},
			{
				"x": -1.1041397159,
				"y": -1.6271987535,
				"z": -0.9601721182,
				"element": "C" 
			},
			{
				"x": -1.4246051264,
				"y": 1.6324097981,
				"z": 0.1753578985,
				"element": "H" 
			},
			{
				"x": -2.8467924505,
				"y": 0.0016032525,
				"z": 2.8835862432,
				"element": "H" 
			},
			{
				"x": -2.225311737,
				"y": -1.7180328004,
				"z": 1.4510120518,
				"element": "H" 
			},
			{
				"x": 0.5999298797,
				"y": 0.6749960799,
				"z": 0.8989081262,
				"element": "H" 
			},
			{
				"x": 3.4080205192,
				"y": -0.2096416889,
				"z": -4.0348658476,
				"element": "H" 
			},
			{
				"x": 2.1771978221,
				"y": 1.0221662415,
				"z": -3.6428484717,
				"element": "H" 
			},
			{
				"x": 4.0349809385,
				"y": 1.1680700191,
				"z": -1.9761410921,
				"element": "H" 
			},
			{
				"x": 3.8258307767,
				"y": -0.562688035,
				"z": -1.5947738718,
				"element": "H" 
			},
			{
				"x": -1.9824907261,
				"y": -2.2628889686,
				"z": -0.9477940078,
				"element": "H" 
			}
		],
		 "valence_orbital": [ 
			{
				"type": "occ",
				"energy": -0.3091,
				"method": "rhf"
			},
			{
				"type": "occ",
				"energy": -0.28946,
				"method": "rhf"
			},
			{
				"type": "occ",
				"energy": -0.26704,
				"method": "rhf"
			},
			{
				"type": "occ",
				"energy": -0.25143,
				"method": "rhf"
			},
			{
				"type": "occ",
				"energy": -0.23221,
				"method": "rhf"
			},
			{
				"type": "unocc",
				"energy": -0.0684,
				"method": "rhf"
			},
			{
				"type": "unocc",
				"energy": -0.02635,
				"method": "rhf"
			},
			{
				"type": "unocc",
				"energy": 0.00237,
				"method": "rhf"
			},
			{
				"type": "unocc",
				"energy": 0.01662,
				"method": "rhf"
			},
			{
				"type": "unocc",
				"energy": 0.07131,
				"method": "rhf"
			}
		],
		"cosmo_sigma_profile": { 
			"-0.025": 0.0,
			"-0.024": 0.0,
			"-0.023": 0.0,
			"-0.022": 0.0,
			"-0.021": 0.0,
			"-0.02": 0.0,
			"-0.019": 0.0,
			"-0.018": 0.0,
			"-0.017": 0.0,
			"-0.016": 0.0,
			"-0.015": 0.190396695703,
			"-0.014": 0.59466216114,
			"-0.013": 0.226053320588,
			"-0.012": 0.781308495947,
			"-0.011": 1.34263636981,
			"-0.01": 0.716022008368,
			"-0.009": 0.812708068804,
			"-0.008": 8.68549302246,
			"-0.007": 19.5092629101,
			"-0.006": 19.9418091737,
			"-0.005": 14.9477938343,
			"-0.004": 13.1272205299,
			"-0.003": 11.9949916652,
			"-0.002": 12.5385152286,
			"-0.001": 15.3012643407,
			"0.0": 17.0616552525,
			"0.001": 19.3334784006,
			"0.002": 19.6919316378,
			"0.003": 12.1602828395,
			"0.004": 11.5800681403,
			"0.005": 8.31572374387,
			"0.006": 5.37323155489,
			"0.007": 5.95267931789,
			"0.008": 4.66636553838,
			"0.009": 6.56972353682,
			"0.01": 4.91281667892,
			"0.011": 5.4120759669,
			"0.012": 5.90031489167,
			"0.013": 3.17784747398,
			"0.014": 0.229181965625,
			"0.015": 0.0,
			"0.016": 0.0,
			"0.017": 0.0,
			"0.018": 0.0,
			"0.019": 0.0,
			"0.02": 0.0,
			"0.021": 0.0,
			"0.022": 0.0,
			"0.023": 0.0,
			"0.024": 0.0,
			"0.025": 0.0
		}
	}
}
