{
	 "smiles": "CCOC(=O)C1=NN(C(C)=C1C(=O)C1=NOC2C1C(=O)N(C2=O)C1=CC=C(OC)C=C1)C1=CC=C(C)C=C1", 
	 "Tm": 494.15, 
	 "num_atms": 62, 
	 "gaussian": { 
		 "optdone": 1, 
		 "sigma_profile": "yes", 
		 "theory": "DFT", 
		 "functional": "B3LYP", 
		 "basiset": "6-31G**", 
		 "properties": { 
			 "R2extent": 21143.4892, 
			 "electric_dipole_moment_norm": 6.28846482776, 
			 "electric_quadrupole_moment_norm": 16.8027061788, 
			 "total_energy": -1788.84662653, 
			 "HOMO_LUMO_gap": 0.15425, 
			 "cosmo_polarized_energy": -29.97, 
			 "cosmo_cavitation_energy": 66.48, 
			 "cosmo_dispersion_energy": -42.67, 
			 "cosmo_repulsion_energy": 3.16, 
			 "cosmo_total_nonelectrostatic_energy": 26.97, 
			 "SMD_solvation_energy": 12.91 
		},
		"coords": [
			{
				"x": 4.6887763827,
				"y": -1.5470498183,
				"z": -0.278553329,
				"element": "C" 
			},
			{
				"x": 4.2961657285,
				"y": -1.6619345946,
				"z": 1.1860968205,
				"element": "C" 
			},
			{
				"x": 3.2872791613,
				"y": -0.6888500388,
				"z": 1.5797489074,
				"element": "O" 
			},
			{
				"x": 2.0165574678,
				"y": -0.9785868762,
				"z": 1.2639565342,
				"element": "C" 
			},
			{
				"x": 1.6606246911,
				"y": -1.9650777582,
				"z": 0.6502475969,
				"element": "O" 
			},
			{
				"x": 1.0715955817,
				"y": 0.036548867,
				"z": 1.8187947789,
				"element": "C" 
			},
			{
				"x": -0.0814422749,
				"y": -0.4329332084,
				"z": 2.2739255901,
				"element": "N" 
			},
			{
				"x": -0.7233126509,
				"y": 0.6400367615,
				"z": 2.8032791879,
				"element": "N" 
			},
			{
				"x": 0.0074524832,
				"y": 1.7879943141,
				"z": 2.7230367653,
				"element": "C" 
			},
			{
				"x": -0.4485697132,
				"y": 3.1072118326,
				"z": 3.2584477571,
				"element": "C" 
			},
			{
				"x": 1.1956180821,
				"y": 1.4414339199,
				"z": 2.0642852746,
				"element": "C" 
			},
			{
				"x": 2.2041305549,
				"y": 2.4276456491,
				"z": 1.6607546017,
				"element": "C" 
			},
			{
				"x": 2.3434645314,
				"y": 3.5080919135,
				"z": 2.220182268,
				"element": "O" 
			},
			{
				"x": 3.0103292648,
				"y": 2.2193760518,
				"z": 0.3927878649,
				"element": "C" 
			},
			{
				"x": 4.2511358847,
				"y": 1.9161374637,
				"z": 0.4073173723,
				"element": "N" 
			},
			{
				"x": 4.7854028559,
				"y": 1.9925350014,
				"z": -0.8856647127,
				"element": "O" 
			},
			{
				"x": 3.7406172846,
				"y": 2.3631399047,
				"z": -1.8189128594,
				"element": "C" 
			},
			{
				"x": 2.4849935184,
				"y": 2.598748613,
				"z": -0.9828805479,
				"element": "C" 
			},
			{
				"x": 1.4311758117,
				"y": 1.6309547321,
				"z": -1.5401749332,
				"element": "C" 
			},
			{
				"x": 0.2733650884,
				"y": 1.5654691017,
				"z": -1.1969678418,
				"element": "O" 
			},
			{
				"x": 2.0518649572,
				"y": 0.8352136901,
				"z": -2.513075261,
				"element": "N" 
			},
			{
				"x": 3.3936995364,
				"y": 1.1853079681,
				"z": -2.7445727585,
				"element": "C" 
			},
			{
				"x": 4.1352156898,
				"y": 0.6613418615,
				"z": -3.5409611154,
				"element": "O" 
			},
			{
				"x": 1.3740279254,
				"y": -0.2052107997,
				"z": -3.233533134,
				"element": "C" 
			},
			{
				"x": 0.7110203276,
				"y": -1.2173200103,
				"z": -2.5417710749,
				"element": "C" 
			},
			{
				"x": 0.045816437,
				"y": -2.2225273804,
				"z": -3.245890276,
				"element": "C" 
			},
			{
				"x": 0.0536228965,
				"y": -2.2185287276,
				"z": -4.6457789742,
				"element": "C" 
			},
			{
				"x": -0.5590828436,
				"y": -3.1514882627,
				"z": -5.4267887539,
				"element": "O" 
			},
			{
				"x": -1.2566753959,
				"y": -4.2104542165,
				"z": -4.7878530929,
				"element": "C" 
			},
			{
				"x": 0.7314813609,
				"y": -1.2002221741,
				"z": -5.3349251353,
				"element": "C" 
			},
			{
				"x": 1.3839656132,
				"y": -0.1972588285,
				"z": -4.6339655529,
				"element": "C" 
			},
			{
				"x": -2.0106415933,
				"y": 0.4323698286,
				"z": 3.3906321881,
				"element": "C" 
			},
			{
				"x": -3.0763643653,
				"y": 1.2885498227,
				"z": 3.1005828401,
				"element": "C" 
			},
			{
				"x": -4.3204429589,
				"y": 1.0563229147,
				"z": 3.6823936748,
				"element": "C" 
			},
			{
				"x": -4.5321643016,
				"y": -0.0314173849,
				"z": 4.5413910256,
				"element": "C" 
			},
			{
				"x": -5.8872123521,
				"y": -0.2683196951,
				"z": 5.1645517045,
				"element": "C" 
			},
			{
				"x": -3.4531399168,
				"y": -0.8874853788,
				"z": 4.7976185494,
				"element": "C" 
			},
			{
				"x": -2.1989500819,
				"y": -0.6640434574,
				"z": 4.2335177957,
				"element": "C" 
			},
			{
				"x": 3.8441208043,
				"y": -1.7851771989,
				"z": -0.9289540085,
				"element": "H" 
			},
			{
				"x": 5.4892899967,
				"y": -2.264172584,
				"z": -0.4900274355,
				"element": "H" 
			},
			{
				"x": 5.0592199282,
				"y": -0.5471103218,
				"z": -0.5138240534,
				"element": "H" 
			},
			{
				"x": 5.1373936627,
				"y": -1.437521115,
				"z": 1.8444079366,
				"element": "H" 
			},
			{
				"x": 3.9094588704,
				"y": -2.6586201891,
				"z": 1.4138434936,
				"element": "H" 
			},
			{
				"x": 0.4206507027,
				"y": 3.6953125949,
				"z": 3.5478742842,
				"element": "H" 
			},
			{
				"x": -0.9970630534,
				"y": 3.6775303812,
				"z": 2.4991530604,
				"element": "H" 
			},
			{
				"x": -1.1102940192,
				"y": 2.9724218299,
				"z": 4.1173121354,
				"element": "H" 
			},
			{
				"x": 4.0990161304,
				"y": 3.2113829593,
				"z": -2.4070518405,
				"element": "H" 
			},
			{
				"x": 2.0767675523,
				"y": 3.6138179347,
				"z": -0.9839701231,
				"element": "H" 
			},
			{
				"x": 0.7139705872,
				"y": -1.2423090904,
				"z": -1.4579987881,
				"element": "H" 
			},
			{
				"x": -0.4623742628,
				"y": -2.9998790915,
				"z": -2.6889332021,
				"element": "H" 
			},
			{
				"x": -1.6640559803,
				"y": -4.8284885722,
				"z": -5.5893101772,
				"element": "H" 
			},
			{
				"x": -0.5871706238,
				"y": -4.8191120091,
				"z": -4.1670277613,
				"element": "H" 
			},
			{
				"x": -2.0798667289,
				"y": -3.8355196779,
				"z": -4.1665389143,
				"element": "H" 
			},
			{
				"x": 0.7301165702,
				"y": -1.2166662747,
				"z": -6.4194385519,
				"element": "H" 
			},
			{
				"x": 1.9097942772,
				"y": 0.5850545032,
				"z": -5.1693279267,
				"element": "H" 
			},
			{
				"x": -2.9424772455,
				"y": 2.1113009387,
				"z": 2.4073189365,
				"element": "H" 
			},
			{
				"x": -5.1453317276,
				"y": 1.7249126025,
				"z": 3.4501593229,
				"element": "H" 
			},
			{
				"x": -5.905572898,
				"y": -1.1975959445,
				"z": 5.7398115963,
				"element": "H" 
			},
			{
				"x": -6.1615104629,
				"y": 0.5488850362,
				"z": 5.8418347549,
				"element": "H" 
			},
			{
				"x": -6.6707812483,
				"y": -0.329905281,
				"z": 4.4012819405,
				"element": "H" 
			},
			{
				"x": -3.5935678644,
				"y": -1.7430546592,
				"z": 5.4525187142,
				"element": "H" 
			},
			{
				"x": -1.3689336362,
				"y": -1.3332083727,
				"z": 4.4286068623,
				"element": "H" 
			}
		],
		 "valence_orbital": [ 
			{
				"type": "occ",
				"energy": -0.26028,
				"method": "rhf"
			},
			{
				"type": "occ",
				"energy": -0.25352,
				"method": "rhf"
			},
			{
				"type": "occ",
				"energy": -0.25082,
				"method": "rhf"
			},
			{
				"type": "occ",
				"energy": -0.24475,
				"method": "rhf"
			},
			{
				"type": "occ",
				"energy": -0.21921,
				"method": "rhf"
			},
			{
				"type": "unocc",
				"energy": -0.06496,
				"method": "rhf"
			},
			{
				"type": "unocc",
				"energy": -0.04174,
				"method": "rhf"
			},
			{
				"type": "unocc",
				"energy": -0.03713,
				"method": "rhf"
			},
			{
				"type": "unocc",
				"energy": -0.02685,
				"method": "rhf"
			},
			{
				"type": "unocc",
				"energy": -0.01997,
				"method": "rhf"
			}
		],
		"cosmo_sigma_profile": { 
			"-0.025": 0.0,
			"-0.024": 0.0,
			"-0.023": 0.0,
			"-0.022": 0.0,
			"-0.021": 0.0,
			"-0.02": 0.0,
			"-0.019": 0.0,
			"-0.018": 0.0,
			"-0.017": 0.0,
			"-0.016": 0.0,
			"-0.015": 0.0,
			"-0.014": 0.0,
			"-0.013": 0.0833359848445,
			"-0.012": 0.718410024038,
			"-0.011": 2.63015518693,
			"-0.01": 9.33162913014,
			"-0.009": 5.96118909977,
			"-0.008": 6.57742421407,
			"-0.007": 13.9941342129,
			"-0.006": 30.0077732425,
			"-0.005": 38.1988884191,
			"-0.004": 45.7385489805,
			"-0.003": 43.1944216881,
			"-0.002": 39.8923224219,
			"-0.001": 37.121601873,
			"0.0": 36.0507885018,
			"0.001": 28.3312301599,
			"0.002": 26.4264851017,
			"0.003": 32.6410571451,
			"0.004": 32.3205511631,
			"0.005": 15.790744343,
			"0.006": 13.9810649014,
			"0.007": 13.5494420874,
			"0.008": 12.3367282421,
			"0.009": 14.2646150757,
			"0.01": 14.7631291043,
			"0.011": 12.1194644439,
			"0.012": 2.28051993154,
			"0.013": 1.94476670383,
			"0.014": 0.54007535747,
			"0.015": 0.0,
			"0.016": 0.0,
			"0.017": 0.0,
			"0.018": 0.0,
			"0.019": 0.0,
			"0.02": 0.0,
			"0.021": 0.0,
			"0.022": 0.0,
			"0.023": 0.0,
			"0.024": 0.0,
			"0.025": 0.0
		}
	}
}
