{
	 "smiles": "CCCCCCCCCCOC1=CC=C(C=C1OCCCCCCCCCC)C(C)=O", 
	 "Tm": 336.15, 
	 "num_atms": 79, 
	 "gaussian": { 
		 "optdone": 1, 
		 "sigma_profile": "yes", 
		 "theory": "DFT", 
		 "functional": "B3LYP", 
		 "basiset": "6-31G**", 
		 "properties": { 
			 "R2extent": 28555.1283, 
			 "electric_dipole_moment_norm": 4.44481200727, 
			 "electric_quadrupole_moment_norm": 21.8961545475, 
			 "total_energy": -1321.61802191, 
			 "HOMO_LUMO_gap": 0.17054, 
			 "cosmo_polarized_energy": -12.34, 
			 "cosmo_cavitation_energy": 77.27, 
			 "cosmo_dispersion_energy": -50.01, 
			 "cosmo_repulsion_energy": 4.01, 
			 "cosmo_total_nonelectrostatic_energy": 31.27, 
			 "SMD_solvation_energy": 11.72 
		},
		"coords": [
			{
				"x": 4.4831241278,
				"y": 6.7481534029,
				"z": 2.5146661597,
				"element": "C" 
			},
			{
				"x": 5.6338924722,
				"y": 6.7002443428,
				"z": 1.5022124774,
				"element": "C" 
			},
			{
				"x": 6.4209897869,
				"y": 5.3791658128,
				"z": 1.4925796028,
				"element": "C" 
			},
			{
				"x": 5.6214338594,
				"y": 4.157265669,
				"z": 1.0182427675,
				"element": "C" 
			},
			{
				"x": 6.4643978618,
				"y": 2.8746542215,
				"z": 0.9661743262,
				"element": "C" 
			},
			{
				"x": 5.7269673597,
				"y": 1.638789651,
				"z": 0.4235479925,
				"element": "C" 
			},
			{
				"x": 4.579122533,
				"y": 1.1394125572,
				"z": 1.3146445129,
				"element": "C" 
			},
			{
				"x": 3.9557418698,
				"y": -0.1939356449,
				"z": 0.8662295057,
				"element": "C" 
			},
			{
				"x": 3.2675033893,
				"y": -0.1847126678,
				"z": -0.5101803814,
				"element": "C" 
			},
			{
				"x": 2.0738381486,
				"y": 0.7541116676,
				"z": -0.6268668921,
				"element": "C" 
			},
			{
				"x": 1.0962951268,
				"y": 0.3502937299,
				"z": 0.3533078995,
				"element": "O" 
			},
			{
				"x": -0.0388388706,
				"y": 1.10667834,
				"z": 0.4495146748,
				"element": "C" 
			},
			{
				"x": -0.2752526221,
				"y": 1.8114505262,
				"z": 1.6303951843,
				"element": "C" 
			},
			{
				"x": -1.4430129751,
				"y": 2.5470147652,
				"z": 1.8046695759,
				"element": "C" 
			},
			{
				"x": -2.3979741857,
				"y": 2.5923637375,
				"z": 0.7827944457,
				"element": "C" 
			},
			{
				"x": -2.1708484169,
				"y": 1.8793256621,
				"z": -0.4086382186,
				"element": "C" 
			},
			{
				"x": -1.0052177281,
				"y": 1.1324102874,
				"z": -0.5859896281,
				"element": "C" 
			},
			{
				"x": -0.6973494024,
				"y": 0.4039623163,
				"z": -1.7005718639,
				"element": "O" 
			},
			{
				"x": -1.6452308596,
				"y": 0.2838742968,
				"z": -2.7651756136,
				"element": "C" 
			},
			{
				"x": -2.7293638085,
				"y": -0.7568392655,
				"z": -2.4815060777,
				"element": "C" 
			},
			{
				"x": -3.6691002242,
				"y": -0.9377513945,
				"z": -3.6820041563,
				"element": "C" 
			},
			{
				"x": -4.8624732968,
				"y": -1.8856771657,
				"z": -3.4632922429,
				"element": "C" 
			},
			{
				"x": -4.5132779184,
				"y": -3.3666899784,
				"z": -3.1959674121,
				"element": "C" 
			},
			{
				"x": -4.3681902549,
				"y": -3.7527399559,
				"z": -1.7154190367,
				"element": "C" 
			},
			{
				"x": -4.0130486746,
				"y": -5.235117337,
				"z": -1.519329305,
				"element": "C" 
			},
			{
				"x": -3.8676078383,
				"y": -5.6892980494,
				"z": -0.049598846,
				"element": "C" 
			},
			{
				"x": -5.1373852655,
				"y": -6.2570874878,
				"z": 0.6102701702,
				"element": "C" 
			},
			{
				"x": -6.3091492514,
				"y": -5.2800837856,
				"z": 0.7608140697,
				"element": "C" 
			},
			{
				"x": -3.6374424421,
				"y": 3.4001058363,
				"z": 1.0057940686,
				"element": "C" 
			},
			{
				"x": -4.6886716919,
				"y": 3.4588022987,
				"z": -0.092981802,
				"element": "C" 
			},
			{
				"x": -3.809242183,
				"y": 4.0076121112,
				"z": 2.0530467625,
				"element": "O" 
			},
			{
				"x": 3.9967839696,
				"y": 7.7292480294,
				"z": 2.512326882,
				"element": "H" 
			},
			{
				"x": 3.7128410071,
				"y": 6.0017230165,
				"z": 2.2955011465,
				"element": "H" 
			},
			{
				"x": 4.8457308058,
				"y": 6.5602920221,
				"z": 3.5322040433,
				"element": "H" 
			},
			{
				"x": 6.3303225521,
				"y": 7.5208093097,
				"z": 1.7176990229,
				"element": "H" 
			},
			{
				"x": 5.2420055867,
				"y": 6.8937793146,
				"z": 0.4939992392,
				"element": "H" 
			},
			{
				"x": 6.8128696704,
				"y": 5.1856433005,
				"z": 2.5018042806,
				"element": "H" 
			},
			{
				"x": 7.3007651934,
				"y": 5.4968260715,
				"z": 0.8449487474,
				"element": "H" 
			},
			{
				"x": 4.7572726154,
				"y": 4.0041971296,
				"z": 1.6756015496,
				"element": "H" 
			},
			{
				"x": 5.2121553876,
				"y": 4.3609715803,
				"z": 0.0173805898,
				"element": "H" 
			},
			{
				"x": 6.848279373,
				"y": 2.6529432314,
				"z": 1.9725130399,
				"element": "H" 
			},
			{
				"x": 7.3483393288,
				"y": 3.0602573906,
				"z": 0.3406496381,
				"element": "H" 
			},
			{
				"x": 6.4524585793,
				"y": 0.82282239,
				"z": 0.2982459939,
				"element": "H" 
			},
			{
				"x": 5.3510739895,
				"y": 1.8650879995,
				"z": -0.5838290305,
				"element": "H" 
			},
			{
				"x": 3.7969144361,
				"y": 1.9055177222,
				"z": 1.3855702829,
				"element": "H" 
			},
			{
				"x": 4.9605232204,
				"y": 1.0112715786,
				"z": 2.3371180856,
				"element": "H" 
			},
			{
				"x": 3.221136334,
				"y": -0.5117054398,
				"z": 1.6141016009,
				"element": "H" 
			},
			{
				"x": 4.7382711267,
				"y": -0.9644977724,
				"z": 0.8533173085,
				"element": "H" 
			},
			{
				"x": 3.9807724014,
				"y": 0.0895751076,
				"z": -1.2976900217,
				"element": "H" 
			},
			{
				"x": 2.9248596341,
				"y": -1.2000170159,
				"z": -0.7435109787,
				"element": "H" 
			},
			{
				"x": 1.6385841199,
				"y": 0.7000146776,
				"z": -1.6293188878,
				"element": "H" 
			},
			{
				"x": 2.3615533841,
				"y": 1.7965178251,
				"z": -0.4319825596,
				"element": "H" 
			},
			{
				"x": 0.4808169322,
				"y": 1.7587914296,
				"z": 2.4074350149,
				"element": "H" 
			},
			{
				"x": -1.6348693291,
				"y": 3.0972106803,
				"z": 2.718799753,
				"element": "H" 
			},
			{
				"x": -2.9166784092,
				"y": 1.900509039,
				"z": -1.192523188,
				"element": "H" 
			},
			{
				"x": -1.046266681,
				"y": -0.0247877581,
				"z": -3.6274871066,
				"element": "H" 
			},
			{
				"x": -2.0793394259,
				"y": 1.2635566706,
				"z": -3.0064807006,
				"element": "H" 
			},
			{
				"x": -2.2307497066,
				"y": -1.6994970039,
				"z": -2.2326453203,
				"element": "H" 
			},
			{
				"x": -3.3051244879,
				"y": -0.4626377898,
				"z": -1.5957931408,
				"element": "H" 
			},
			{
				"x": -3.0868624961,
				"y": -1.2948982408,
				"z": -4.5435096717,
				"element": "H" 
			},
			{
				"x": -4.0637443756,
				"y": 0.0459749992,
				"z": -3.9738985668,
				"element": "H" 
			},
			{
				"x": -5.4874168178,
				"y": -1.8277721089,
				"z": -4.362905121,
				"element": "H" 
			},
			{
				"x": -5.4861639538,
				"y": -1.5036984029,
				"z": -2.6428957972,
				"element": "H" 
			},
			{
				"x": -5.2996541512,
				"y": -3.9974038708,
				"z": -3.6311974126,
				"element": "H" 
			},
			{
				"x": -3.5928446781,
				"y": -3.6288613237,
				"z": -3.737923827,
				"element": "H" 
			},
			{
				"x": -3.5953465308,
				"y": -3.1406147044,
				"z": -1.2342925189,
				"element": "H" 
			},
			{
				"x": -5.3043702192,
				"y": -3.5141888302,
				"z": -1.1961086763,
				"element": "H" 
			},
			{
				"x": -4.762477198,
				"y": -5.8626137538,
				"z": -2.023533476,
				"element": "H" 
			},
			{
				"x": -3.0679166668,
				"y": -5.425479434,
				"z": -2.045352243,
				"element": "H" 
			},
			{
				"x": -3.4854442481,
				"y": -4.853354767,
				"z": 0.5534557142,
				"element": "H" 
			},
			{
				"x": -3.0968166185,
				"y": -6.4684123881,
				"z": 0.0019866653,
				"element": "H" 
			},
			{
				"x": -4.864618139,
				"y": -6.6353498354,
				"z": 1.6041781938,
				"element": "H" 
			},
			{
				"x": -5.4710659106,
				"y": -7.133324739,
				"z": 0.0371686946,
				"element": "H" 
			},
			{
				"x": -6.0081936181,
				"y": -4.3775735275,
				"z": 1.3054059347,
				"element": "H" 
			},
			{
				"x": -7.1328181973,
				"y": -5.7421680009,
				"z": 1.3156259903,
				"element": "H" 
			},
			{
				"x": -6.7073576029,
				"y": -4.9663959057,
				"z": -0.2094255449,
				"element": "H" 
			},
			{
				"x": -5.0744817041,
				"y": 2.4595255723,
				"z": -0.3238821683,
				"element": "H" 
			},
			{
				"x": -5.5091282669,
				"y": 4.0918869548,
				"z": 0.245832122,
				"element": "H" 
			},
			{
				"x": -4.2710088401,
				"y": 3.8710410703,
				"z": -1.018266295,
				"element": "H" 
			}
		],
		 "valence_orbital": [ 
			{
				"type": "occ",
				"energy": -0.29788,
				"method": "rhf"
			},
			{
				"type": "occ",
				"energy": -0.2744,
				"method": "rhf"
			},
			{
				"type": "occ",
				"energy": -0.24652,
				"method": "rhf"
			},
			{
				"type": "occ",
				"energy": -0.24139,
				"method": "rhf"
			},
			{
				"type": "occ",
				"energy": -0.21772,
				"method": "rhf"
			},
			{
				"type": "unocc",
				"energy": -0.04718,
				"method": "rhf"
			},
			{
				"type": "unocc",
				"energy": 0.00347,
				"method": "rhf"
			},
			{
				"type": "unocc",
				"energy": 0.04958,
				"method": "rhf"
			},
			{
				"type": "unocc",
				"energy": 0.0662,
				"method": "rhf"
			},
			{
				"type": "unocc",
				"energy": 0.07952,
				"method": "rhf"
			}
		],
		"cosmo_sigma_profile": { 
			"-0.025": 0.0,
			"-0.024": 0.0,
			"-0.023": 0.0,
			"-0.022": 0.0,
			"-0.021": 0.0,
			"-0.02": 0.0,
			"-0.019": 0.0,
			"-0.018": 0.0,
			"-0.017": 0.0,
			"-0.016": 0.0,
			"-0.015": 0.0,
			"-0.014": 0.0,
			"-0.013": 0.0,
			"-0.012": 0.0,
			"-0.011": 0.0,
			"-0.01": 0.0,
			"-0.009": 0.0,
			"-0.008": 0.45970481218,
			"-0.007": 2.04570289854,
			"-0.006": 8.91621250877,
			"-0.005": 14.580072645,
			"-0.004": 18.2261565497,
			"-0.003": 33.608496813,
			"-0.002": 80.6807767367,
			"-0.001": 116.705917721,
			"0.0": 116.239212229,
			"0.001": 92.7386381134,
			"0.002": 46.0548575129,
			"0.003": 17.5076686653,
			"0.004": 13.3406180159,
			"0.005": 5.42915706059,
			"0.006": 4.0857698164,
			"0.007": 3.47239363877,
			"0.008": 3.82871630869,
			"0.009": 3.83177757659,
			"0.01": 4.15437153952,
			"0.011": 3.7872193305,
			"0.012": 4.14075530509,
			"0.013": 2.27721082828,
			"0.014": 0.367087397311,
			"0.015": 0.0,
			"0.016": 0.0,
			"0.017": 0.0,
			"0.018": 0.0,
			"0.019": 0.0,
			"0.02": 0.0,
			"0.021": 0.0,
			"0.022": 0.0,
			"0.023": 0.0,
			"0.024": 0.0,
			"0.025": 0.0
		}
	}
}
