{
	 "smiles": "CC1=NN=C(S)N1C1CCCCC1", 
	 "Tm": 438.15, 
	 "num_atms": 28, 
	 "gaussian": { 
		 "optdone": 1, 
		 "sigma_profile": "yes", 
		 "theory": "DFT", 
		 "functional": "B3LYP", 
		 "basiset": "6-31G**", 
		 "properties": { 
			 "R2extent": 3284.7926, 
			 "electric_dipole_moment_norm": 6.37620424704, 
			 "electric_quadrupole_moment_norm": 22.676582874, 
			 "total_energy": -914.425029207, 
			 "HOMO_LUMO_gap": 0.24177, 
			 "cosmo_polarized_energy": -16.4, 
			 "cosmo_cavitation_energy": 30.31, 
			 "cosmo_dispersion_energy": -22.09, 
			 "cosmo_repulsion_energy": 1.71, 
			 "cosmo_total_nonelectrostatic_energy": 9.93, 
			 "SMD_solvation_energy": 2.03 
		},
		"coords": [
			{
				"x": -0.8332467456,
				"y": -2.2442342506,
				"z": 1.1636263829,
				"element": "C" 
			},
			{
				"x": 0.2221523457,
				"y": -2.3098745533,
				"z": 0.1081528888,
				"element": "C" 
			},
			{
				"x": 0.8687268746,
				"y": -3.4219298327,
				"z": -0.1849363342,
				"element": "N" 
			},
			{
				"x": 1.7439635388,
				"y": -3.1508701804,
				"z": -1.2056461851,
				"element": "N" 
			},
			{
				"x": 1.6156040301,
				"y": -1.8779816704,
				"z": -1.5003500369,
				"element": "C" 
			},
			{
				"x": 2.5006441683,
				"y": -1.0549027606,
				"z": -2.7955768426,
				"element": "S" 
			},
			{
				"x": 0.6507805976,
				"y": -1.2831845638,
				"z": -0.7012170716,
				"element": "N" 
			},
			{
				"x": 0.2572839327,
				"y": 0.1357562042,
				"z": -0.7174244242,
				"element": "C" 
			},
			{
				"x": 0.7987765648,
				"y": 0.899752249,
				"z": 0.5182626024,
				"element": "C" 
			},
			{
				"x": -0.0102649781,
				"y": 2.1881210959,
				"z": 0.7941614925,
				"element": "C" 
			},
			{
				"x": -0.5377769146,
				"y": 2.8028528931,
				"z": -0.5096310465,
				"element": "C" 
			},
			{
				"x": -1.5250745419,
				"y": 1.8452252155,
				"z": -1.2248565051,
				"element": "C" 
			},
			{
				"x": -1.2520573171,
				"y": 0.3568821927,
				"z": -0.8975152632,
				"element": "C" 
			},
			{
				"x": -0.6606161671,
				"y": -1.4400840169,
				"z": 1.8853816651,
				"element": "H" 
			},
			{
				"x": -1.8318988434,
				"y": -2.1045066531,
				"z": 0.7371483892,
				"element": "H" 
			},
			{
				"x": -0.8196420455,
				"y": -3.197844342,
				"z": 1.694207707,
				"element": "H" 
			},
			{
				"x": 3.5843747504,
				"y": -0.7055555138,
				"z": -2.0684841288,
				"element": "H" 
			},
			{
				"x": 0.748875441,
				"y": 0.5329981354,
				"z": -1.6096207686,
				"element": "H" 
			},
			{
				"x": 0.7764474071,
				"y": 0.2495097376,
				"z": 1.3985389053,
				"element": "H" 
			},
			{
				"x": 1.8533529223,
				"y": 1.1414494275,
				"z": 0.342328619,
				"element": "H" 
			},
			{
				"x": -0.8591069509,
				"y": 1.960288264,
				"z": 1.4515028568,
				"element": "H" 
			},
			{
				"x": 0.6123408873,
				"y": 2.9059572739,
				"z": 1.3384926714,
				"element": "H" 
			},
			{
				"x": 0.3131935537,
				"y": 3.0225227886,
				"z": -1.1673967768,
				"element": "H" 
			},
			{
				"x": -1.0235103365,
				"y": 3.7641965365,
				"z": -0.3122581499,
				"element": "H" 
			},
			{
				"x": -1.4652855022,
				"y": 2.001464607,
				"z": -2.307801317,
				"element": "H" 
			},
			{
				"x": -2.5544992046,
				"y": 2.0836799716,
				"z": -0.93585607,
				"element": "H" 
			},
			{
				"x": -1.6339984743,
				"y": -0.2883712178,
				"z": -1.6951598997,
				"element": "H" 
			},
			{
				"x": -1.7822389927,
				"y": 0.0770829628,
				"z": 0.0184266399,
				"element": "H" 
			}
		],
		 "valence_orbital": [ 
			{
				"type": "occ",
				"energy": -0.30297,
				"method": "rhf"
			},
			{
				"type": "occ",
				"energy": -0.28071,
				"method": "rhf"
			},
			{
				"type": "occ",
				"energy": -0.26445,
				"method": "rhf"
			},
			{
				"type": "occ",
				"energy": -0.2489,
				"method": "rhf"
			},
			{
				"type": "occ",
				"energy": -0.2456,
				"method": "rhf"
			},
			{
				"type": "unocc",
				"energy": -0.00383,
				"method": "rhf"
			},
			{
				"type": "unocc",
				"energy": 0.0323,
				"method": "rhf"
			},
			{
				"type": "unocc",
				"energy": 0.04769,
				"method": "rhf"
			},
			{
				"type": "unocc",
				"energy": 0.05554,
				"method": "rhf"
			},
			{
				"type": "unocc",
				"energy": 0.06928,
				"method": "rhf"
			}
		],
		"cosmo_sigma_profile": { 
			"-0.025": 0.0,
			"-0.024": 0.0,
			"-0.023": 0.0,
			"-0.022": 0.0,
			"-0.021": 0.0,
			"-0.02": 0.0,
			"-0.019": 0.0,
			"-0.018": 0.0,
			"-0.017": 0.0,
			"-0.016": 0.0,
			"-0.015": 0.0,
			"-0.014": 0.0,
			"-0.013": 0.0,
			"-0.012": 0.201335704056,
			"-0.011": 2.1353959997,
			"-0.01": 1.87974915199,
			"-0.009": 1.92355381384,
			"-0.008": 1.7115580699,
			"-0.007": 1.58600301901,
			"-0.006": 5.26981630837,
			"-0.005": 11.7289221407,
			"-0.004": 18.8078298469,
			"-0.003": 33.5096908847,
			"-0.002": 37.1946891022,
			"-0.001": 31.8910303207,
			"0.0": 23.3095361906,
			"0.001": 14.4512333499,
			"0.002": 5.89972224926,
			"0.003": 5.65590685861,
			"0.004": 4.69057968868,
			"0.005": 3.73993231782,
			"0.006": 4.50470047388,
			"0.007": 2.74557222066,
			"0.008": 2.80908859455,
			"0.009": 2.51469757101,
			"0.01": 2.46123854054,
			"0.011": 2.18204306155,
			"0.012": 3.19348190059,
			"0.013": 3.10094729334,
			"0.014": 3.3913958856,
			"0.015": 2.82312459546,
			"0.016": 2.10823698584,
			"0.017": 1.94778288079,
			"0.018": 0.14256533827,
			"0.019": 0.0,
			"0.02": 0.0,
			"0.021": 0.0,
			"0.022": 0.0,
			"0.023": 0.0,
			"0.024": 0.0,
			"0.025": 0.0
		}
	}
}
