{
	 "smiles": "NC(CC1=CC=C(N)C=C1)C(O)=O", 
	 "Tm": 529.15, 
	 "num_atms": 25, 
	 "gaussian": { 
		 "optdone": 1, 
		 "sigma_profile": "yes", 
		 "theory": "DFT", 
		 "functional": "B3LYP", 
		 "basiset": "6-31G**", 
		 "properties": { 
			 "R2extent": 3655.724, 
			 "electric_dipole_moment_norm": 5.47179064749, 
			 "electric_quadrupole_moment_norm": 23.2291590986, 
			 "total_energy": -610.148600967, 
			 "HOMO_LUMO_gap": 0.20025, 
			 "cosmo_polarized_energy": -20.41, 
			 "cosmo_cavitation_energy": 28.55, 
			 "cosmo_dispersion_energy": -20.68, 
			 "cosmo_repulsion_energy": 1.66, 
			 "cosmo_total_nonelectrostatic_energy": 9.53, 
			 "SMD_solvation_energy": 4.93 
		},
		"coords": [
			{
				"x": -2.8012306885,
				"y": -0.8638097014,
				"z": 0.7455938019,
				"element": "N" 
			},
			{
				"x": -1.9692746884,
				"y": -0.1774592149,
				"z": 1.7199974643,
				"element": "C" 
			},
			{
				"x": -0.888195735,
				"y": 0.6735888602,
				"z": 0.9956343612,
				"element": "C" 
			},
			{
				"x": 0.0375931441,
				"y": -0.1607716332,
				"z": 0.1377004877,
				"element": "C" 
			},
			{
				"x": -0.2897688724,
				"y": -0.4820192735,
				"z": -1.1876339056,
				"element": "C" 
			},
			{
				"x": 0.546634953,
				"y": -1.2732380528,
				"z": -1.9697384562,
				"element": "C" 
			},
			{
				"x": 1.7527850945,
				"y": -1.775220783,
				"z": -1.4507459626,
				"element": "C" 
			},
			{
				"x": 2.6244991352,
				"y": -2.5148694985,
				"z": -2.2517504791,
				"element": "N" 
			},
			{
				"x": 2.0868300638,
				"y": -1.4580879113,
				"z": -0.1231435882,
				"element": "C" 
			},
			{
				"x": 1.2409508839,
				"y": -0.6655857707,
				"z": 0.6480756922,
				"element": "C" 
			},
			{
				"x": -2.885883745,
				"y": 0.6579197406,
				"z": 2.6267546858,
				"element": "C" 
			},
			{
				"x": -2.2764037759,
				"y": 1.5395809559,
				"z": 3.4563957642,
				"element": "O" 
			},
			{
				"x": -4.0855151431,
				"y": 0.5280901816,
				"z": 2.660451609,
				"element": "O" 
			},
			{
				"x": -3.7125091576,
				"y": -1.0502052437,
				"z": 1.1541817835,
				"element": "H" 
			},
			{
				"x": -2.373827815,
				"y": -1.7360570696,
				"z": 0.4564191745,
				"element": "H" 
			},
			{
				"x": -1.4369534645,
				"y": -0.8627945621,
				"z": 2.4093320192,
				"element": "H" 
			},
			{
				"x": -0.27567618,
				"y": 1.2190835363,
				"z": 1.7280656081,
				"element": "H" 
			},
			{
				"x": -1.4068819838,
				"y": 1.419555633,
				"z": 0.3847708963,
				"element": "H" 
			},
			{
				"x": -1.2211493769,
				"y": -0.1128259536,
				"z": -1.6063677296,
				"element": "H" 
			},
			{
				"x": 0.2715865189,
				"y": -1.4989356542,
				"z": -2.9973946505,
				"element": "H" 
			},
			{
				"x": 2.1943954601,
				"y": -2.9853295635,
				"z": -3.0360160091,
				"element": "H" 
			},
			{
				"x": 3.2615867665,
				"y": -3.1197347141,
				"z": -1.7521311305,
				"element": "H" 
			},
			{
				"x": 3.0195678476,
				"y": -1.8257259293,
				"z": 0.297931398,
				"element": "H" 
			},
			{
				"x": 1.5304678099,
				"y": -0.432175445,
				"z": 1.6709224948,
				"element": "H" 
			},
			{
				"x": -1.3209270516,
				"y": 1.5375270667,
				"z": 3.3047946708,
				"element": "H" 
			}
		],
		 "valence_orbital": [ 
			{
				"type": "occ",
				"energy": -0.30598,
				"method": "rhf"
			},
			{
				"type": "occ",
				"energy": -0.27327,
				"method": "rhf"
			},
			{
				"type": "occ",
				"energy": -0.25083,
				"method": "rhf"
			},
			{
				"type": "occ",
				"energy": -0.23817,
				"method": "rhf"
			},
			{
				"type": "occ",
				"energy": -0.20354,
				"method": "rhf"
			},
			{
				"type": "unocc",
				"energy": -0.00329,
				"method": "rhf"
			},
			{
				"type": "unocc",
				"energy": 0.00575,
				"method": "rhf"
			},
			{
				"type": "unocc",
				"energy": 0.01427,
				"method": "rhf"
			},
			{
				"type": "unocc",
				"energy": 0.05096,
				"method": "rhf"
			},
			{
				"type": "unocc",
				"energy": 0.07695,
				"method": "rhf"
			}
		],
		"cosmo_sigma_profile": { 
			"-0.025": 0.0,
			"-0.024": 0.0,
			"-0.023": 0.0,
			"-0.022": 0.0,
			"-0.021": 0.0,
			"-0.02": 0.0,
			"-0.019": 0.0291119575432,
			"-0.018": 0.898523578886,
			"-0.017": 0.818563971773,
			"-0.016": 1.24426379486,
			"-0.015": 0.992328402162,
			"-0.014": 0.867770379723,
			"-0.013": 1.12035827246,
			"-0.012": 2.90822428659,
			"-0.011": 4.10949937554,
			"-0.01": 4.22730475484,
			"-0.009": 5.1769028461,
			"-0.008": 6.66169133856,
			"-0.007": 6.89247776856,
			"-0.006": 9.86786542507,
			"-0.005": 14.5063131611,
			"-0.004": 15.7863765924,
			"-0.003": 15.1014727869,
			"-0.002": 13.0214288038,
			"-0.001": 10.0300717581,
			"0.0": 8.24018752094,
			"0.001": 9.124257472,
			"0.002": 10.1802988464,
			"0.003": 8.33070188215,
			"0.004": 9.09560563364,
			"0.005": 9.26531892211,
			"0.006": 12.0513730574,
			"0.007": 10.4444734472,
			"0.008": 4.77199138872,
			"0.009": 6.21523114994,
			"0.01": 7.14448106739,
			"0.011": 6.33566362288,
			"0.012": 4.21306692063,
			"0.013": 1.32087281107,
			"0.014": 1.64023112165,
			"0.015": 1.07717074243,
			"0.016": 0.254685143294,
			"0.017": 0.345748435969,
			"0.018": 0.0306143421872,
			"0.019": 0.0,
			"0.02": 0.0,
			"0.021": 0.0,
			"0.022": 0.0,
			"0.023": 0.0,
			"0.024": 0.0,
			"0.025": 0.0
		}
	}
}
