{
	 "smiles": "CS(=O)(=O)OCCN1C=C(C=N1)C#N", 
	 "Tm": 338.15, 
	 "num_atms": 23, 
	 "gaussian": { 
		 "optdone": 1, 
		 "sigma_profile": "yes", 
		 "theory": "DFT", 
		 "functional": "B3LYP", 
		 "basiset": "6-31G**", 
		 "properties": { 
			 "R2extent": 5362.9439, 
			 "electric_dipole_moment_norm": 6.76626310603, 
			 "electric_quadrupole_moment_norm": 17.1053503805, 
			 "total_energy": -1060.17324821, 
			 "HOMO_LUMO_gap": 0.23817, 
			 "cosmo_polarized_energy": -20.44, 
			 "cosmo_cavitation_energy": 30.62, 
			 "cosmo_dispersion_energy": -21.92, 
			 "cosmo_repulsion_energy": 1.7, 
			 "cosmo_total_nonelectrostatic_energy": 10.4, 
			 "SMD_solvation_energy": 5.85 
		},
		"coords": [
			{
				"x": 3.5421149697,
				"y": -1.589990989,
				"z": 0.112600738,
				"element": "C" 
			},
			{
				"x": 2.2682015904,
				"y": -0.410826802,
				"z": 0.5536764427,
				"element": "S" 
			},
			{
				"x": 2.4691632811,
				"y": 0.0786405859,
				"z": 1.9164476461,
				"element": "O" 
			},
			{
				"x": 2.0765842689,
				"y": 0.5429529923,
				"z": -0.5385600389,
				"element": "O" 
			},
			{
				"x": 1.0155300316,
				"y": -1.4861463737,
				"z": 0.5569840253,
				"element": "O" 
			},
			{
				"x": -0.2042214042,
				"y": -1.0347200749,
				"z": 1.19032821,
				"element": "C" 
			},
			{
				"x": -1.0199649447,
				"y": -0.1555851084,
				"z": 0.233056154,
				"element": "C" 
			},
			{
				"x": -2.3087155876,
				"y": 0.1741178977,
				"z": 0.8236745455,
				"element": "N" 
			},
			{
				"x": -2.7446328735,
				"y": 1.3785001799,
				"z": 1.2567195582,
				"element": "C" 
			},
			{
				"x": -4.0218699658,
				"y": 1.1752406931,
				"z": 1.7695892528,
				"element": "C" 
			},
			{
				"x": -4.2548303476,
				"y": -0.2163705002,
				"z": 1.5945361243,
				"element": "C" 
			},
			{
				"x": -3.2175245265,
				"y": -0.8141324306,
				"z": 1.0254605871,
				"element": "N" 
			},
			{
				"x": -4.8899866216,
				"y": 2.1458975288,
				"z": 2.3326422941,
				"element": "C" 
			},
			{
				"x": -5.6099989136,
				"y": 2.9333670995,
				"z": 2.7974188411,
				"element": "N" 
			},
			{
				"x": 3.6228321778,
				"y": -2.3309754739,
				"z": 0.9073342113,
				"element": "H" 
			},
			{
				"x": 3.2722249138,
				"y": -2.0517735686,
				"z": -0.8370979218,
				"element": "H" 
			},
			{
				"x": 4.4688410307,
				"y": -1.0225598575,
				"z": 0.0143671846,
				"element": "H" 
			},
			{
				"x": 0.031619971,
				"y": -0.5072960322,
				"z": 2.119492146,
				"element": "H" 
			},
			{
				"x": -0.7576229902,
				"y": -1.945024233,
				"z": 1.4246529094,
				"element": "H" 
			},
			{
				"x": -1.1880800452,
				"y": -0.6911503961,
				"z": -0.7046277252,
				"element": "H" 
			},
			{
				"x": -0.4951704459,
				"y": 0.7745209244,
				"z": 0.0088294818,
				"element": "H" 
			},
			{
				"x": -2.1490734827,
				"y": 2.275395256,
				"z": 1.1736068537,
				"element": "H" 
			},
			{
				"x": -5.1378200857,
				"y": -0.7798813176,
				"z": 1.86166848,
				"element": "H" 
			}
		],
		 "valence_orbital": [ 
			{
				"type": "occ",
				"energy": -0.33302,
				"method": "rhf"
			},
			{
				"type": "occ",
				"energy": -0.31267,
				"method": "rhf"
			},
			{
				"type": "occ",
				"energy": -0.30867,
				"method": "rhf"
			},
			{
				"type": "occ",
				"energy": -0.28427,
				"method": "rhf"
			},
			{
				"type": "occ",
				"energy": -0.26338,
				"method": "rhf"
			},
			{
				"type": "unocc",
				"energy": -0.02521,
				"method": "rhf"
			},
			{
				"type": "unocc",
				"energy": -5e-05,
				"method": "rhf"
			},
			{
				"type": "unocc",
				"energy": 0.02324,
				"method": "rhf"
			},
			{
				"type": "unocc",
				"energy": 0.03066,
				"method": "rhf"
			},
			{
				"type": "unocc",
				"energy": 0.04436,
				"method": "rhf"
			}
		],
		"cosmo_sigma_profile": { 
			"-0.025": 0.0,
			"-0.024": 0.0,
			"-0.023": 0.0,
			"-0.022": 0.0,
			"-0.021": 0.0,
			"-0.02": 0.0,
			"-0.019": 0.0,
			"-0.018": 0.0,
			"-0.017": 0.0,
			"-0.016": 0.0,
			"-0.015": 0.0,
			"-0.014": 0.0,
			"-0.013": 0.0,
			"-0.012": 0.59556435886,
			"-0.011": 3.84472802354,
			"-0.01": 6.01057564776,
			"-0.009": 9.7594559122,
			"-0.008": 11.1589067079,
			"-0.007": 14.896768193,
			"-0.006": 14.9697292421,
			"-0.005": 16.5031873513,
			"-0.004": 16.0085367183,
			"-0.003": 10.229572776,
			"-0.002": 8.80964492298,
			"-0.001": 12.0386896355,
			"0.0": 14.0255049103,
			"0.001": 14.2155831972,
			"0.002": 8.73167483516,
			"0.003": 8.09969811012,
			"0.004": 7.3905519828,
			"0.005": 6.02364845293,
			"0.006": 7.28420928895,
			"0.007": 7.49738537205,
			"0.008": 8.78110135377,
			"0.009": 9.5234338434,
			"0.01": 15.9521658338,
			"0.011": 6.78534503048,
			"0.012": 3.74368051272,
			"0.013": 2.5427340659,
			"0.014": 0.256993631077,
			"0.015": 0.0,
			"0.016": 0.0,
			"0.017": 0.0,
			"0.018": 0.0,
			"0.019": 0.0,
			"0.02": 0.0,
			"0.021": 0.0,
			"0.022": 0.0,
			"0.023": 0.0,
			"0.024": 0.0,
			"0.025": 0.0
		}
	}
}
