{
	 "smiles": "CCNCCS(=O)(=O)C1=CC=C(C)C=C1", 
	 "Tm": 316.65, 
	 "num_atms": 32, 
	 "gaussian": { 
		 "optdone": 1, 
		 "sigma_profile": "yes", 
		 "theory": "DFT", 
		 "functional": "B3LYP", 
		 "basiset": "6-31G**", 
		 "properties": { 
			 "R2extent": 4881.5234, 
			 "electric_dipole_moment_norm": 5.99872282157, 
			 "electric_quadrupole_moment_norm": 21.6489261138, 
			 "total_energy": -1032.74403788, 
			 "HOMO_LUMO_gap": 0.19797, 
			 "cosmo_polarized_energy": -16.52, 
			 "cosmo_cavitation_energy": 35.64, 
			 "cosmo_dispersion_energy": -25.05, 
			 "cosmo_repulsion_energy": 1.95, 
			 "cosmo_total_nonelectrostatic_energy": 12.53, 
			 "SMD_solvation_energy": 5.08 
		},
		"coords": [
			{
				"x": -1.7235755276,
				"y": 4.6816071285,
				"z": 0.8753485854,
				"element": "C" 
			},
			{
				"x": -1.7953239386,
				"y": 3.5237287278,
				"z": -0.1320997737,
				"element": "C" 
			},
			{
				"x": -0.7776782387,
				"y": 2.4790510158,
				"z": 0.000357777,
				"element": "N" 
			},
			{
				"x": 0.5929694906,
				"y": 2.9090023458,
				"z": -0.2431410697,
				"element": "C" 
			},
			{
				"x": 1.5544231556,
				"y": 1.7280631862,
				"z": -0.316332475,
				"element": "C" 
			},
			{
				"x": 1.3811222639,
				"y": 0.6764060543,
				"z": -1.8084140562,
				"element": "S" 
			},
			{
				"x": 0.9335053293,
				"y": 1.5383413297,
				"z": -2.9166459617,
				"element": "O" 
			},
			{
				"x": 2.6461478024,
				"y": -0.0770010724,
				"z": -1.8973367469,
				"element": "O" 
			},
			{
				"x": 0.0849874427,
				"y": -0.5224389334,
				"z": -1.4633983669,
				"element": "C" 
			},
			{
				"x": -1.2373340438,
				"y": -0.2388509143,
				"z": -1.8090654911,
				"element": "C" 
			},
			{
				"x": -2.2176867718,
				"y": -1.1981037605,
				"z": -1.5703954172,
				"element": "C" 
			},
			{
				"x": -1.8993490059,
				"y": -2.4346411509,
				"z": -0.9866748804,
				"element": "C" 
			},
			{
				"x": -2.9789519678,
				"y": -3.4532401923,
				"z": -0.7094262844,
				"element": "C" 
			},
			{
				"x": -0.5620902678,
				"y": -2.6948190309,
				"z": -0.6588686653,
				"element": "C" 
			},
			{
				"x": 0.4345448125,
				"y": -1.7485145699,
				"z": -0.8976159182,
				"element": "C" 
			},
			{
				"x": -1.8054404876,
				"y": 4.3131311064,
				"z": 1.9049220156,
				"element": "H" 
			},
			{
				"x": -2.5436739924,
				"y": 5.3886501172,
				"z": 0.7093283545,
				"element": "H" 
			},
			{
				"x": -0.7854062798,
				"y": 5.2395218664,
				"z": 0.7913273331,
				"element": "H" 
			},
			{
				"x": -1.7277363843,
				"y": 3.9180271814,
				"z": -1.153705496,
				"element": "H" 
			},
			{
				"x": -2.7745870108,
				"y": 3.0360970683,
				"z": -0.053539543,
				"element": "H" 
			},
			{
				"x": -0.8487661536,
				"y": 2.0444475668,
				"z": 0.9181744957,
				"element": "H" 
			},
			{
				"x": 0.9929112158,
				"y": 3.6099466685,
				"z": 0.5122654284,
				"element": "H" 
			},
			{
				"x": 0.6180441361,
				"y": 3.4320126964,
				"z": -1.2055386487,
				"element": "H" 
			},
			{
				"x": 1.483210318,
				"y": 1.0618721364,
				"z": 0.5494605913,
				"element": "H" 
			},
			{
				"x": 2.5906360849,
				"y": 2.0719262095,
				"z": -0.3917135685,
				"element": "H" 
			},
			{
				"x": -1.4802003548,
				"y": 0.7145290859,
				"z": -2.2616777276,
				"element": "H" 
			},
			{
				"x": -3.2478204691,
				"y": -0.987962633,
				"z": -1.8469072577,
				"element": "H" 
			},
			{
				"x": -3.7121199335,
				"y": -3.4889631916,
				"z": -1.5212345977,
				"element": "H" 
			},
			{
				"x": -2.5616015985,
				"y": -4.4559684509,
				"z": -0.583232437,
				"element": "H" 
			},
			{
				"x": -3.5259050738,
				"y": -3.2063993415,
				"z": 0.209103315,
				"element": "H" 
			},
			{
				"x": -0.294277456,
				"y": -3.6543066828,
				"z": -0.2242681052,
				"element": "H" 
			},
			{
				"x": 1.4747229043,
				"y": -1.9626515668,
				"z": -0.676355408,
				"element": "H" 
			}
		],
		 "valence_orbital": [ 
			{
				"type": "occ",
				"energy": -0.28449,
				"method": "rhf"
			},
			{
				"type": "occ",
				"energy": -0.27556,
				"method": "rhf"
			},
			{
				"type": "occ",
				"energy": -0.26206,
				"method": "rhf"
			},
			{
				"type": "occ",
				"energy": -0.25668,
				"method": "rhf"
			},
			{
				"type": "occ",
				"energy": -0.22702,
				"method": "rhf"
			},
			{
				"type": "unocc",
				"energy": -0.02905,
				"method": "rhf"
			},
			{
				"type": "unocc",
				"energy": -0.01129,
				"method": "rhf"
			},
			{
				"type": "unocc",
				"energy": 0.06636,
				"method": "rhf"
			},
			{
				"type": "unocc",
				"energy": 0.06959,
				"method": "rhf"
			},
			{
				"type": "unocc",
				"energy": 0.08567,
				"method": "rhf"
			}
		],
		"cosmo_sigma_profile": { 
			"-0.025": 0.0,
			"-0.024": 0.0,
			"-0.023": 0.0,
			"-0.022": 0.0,
			"-0.021": 0.0,
			"-0.02": 0.0,
			"-0.019": 0.0,
			"-0.018": 0.0,
			"-0.017": 0.0,
			"-0.016": 0.0,
			"-0.015": 0.0,
			"-0.014": 0.0,
			"-0.013": 0.0,
			"-0.012": 0.0,
			"-0.011": 0.0,
			"-0.01": 1.00128098626,
			"-0.009": 2.41883606081,
			"-0.008": 3.86464903497,
			"-0.007": 7.25996440965,
			"-0.006": 11.7084489415,
			"-0.005": 17.0719558871,
			"-0.004": 23.6989288343,
			"-0.003": 31.2774495956,
			"-0.002": 29.904763136,
			"-0.001": 26.8360763774,
			"0.0": 23.0542627654,
			"0.001": 17.5012629475,
			"0.002": 13.8273985455,
			"0.003": 13.1468687785,
			"0.004": 12.2198514324,
			"0.005": 5.88439834089,
			"0.006": 4.46661457976,
			"0.007": 4.29117005093,
			"0.008": 3.03400468647,
			"0.009": 4.38957033568,
			"0.01": 3.10799976873,
			"0.011": 6.93013750381,
			"0.012": 8.90803023257,
			"0.013": 3.68070123438,
			"0.014": 0.0,
			"0.015": 0.0,
			"0.016": 0.0,
			"0.017": 0.0,
			"0.018": 0.0,
			"0.019": 0.0,
			"0.02": 0.0,
			"0.021": 0.0,
			"0.022": 0.0,
			"0.023": 0.0,
			"0.024": 0.0,
			"0.025": 0.0
		}
	}
}
