{
	 "smiles": "CC(C)OC=C", 
	 "Tm": 133.15, 
	 "num_atms": 16, 
	 "gaussian": { 
		 "optdone": 1, 
		 "sigma_profile": "yes", 
		 "theory": "DFT", 
		 "functional": "B3LYP", 
		 "basiset": "6-31G**", 
		 "properties": { 
			 "R2extent": 738.3735, 
			 "electric_dipole_moment_norm": 1.14873678012, 
			 "electric_quadrupole_moment_norm": 1.48410538372, 
			 "total_energy": -271.752412585, 
			 "HOMO_LUMO_gap": 0.26194, 
			 "cosmo_polarized_energy": -3.65, 
			 "cosmo_cavitation_energy": 18.14, 
			 "cosmo_dispersion_energy": -13.33, 
			 "cosmo_repulsion_energy": 1.15, 
			 "cosmo_total_nonelectrostatic_energy": 5.96, 
			 "SMD_solvation_energy": 4.61 
		},
		"coords": [
			{
				"x": -1.1295525752,
				"y": 0.7655976549,
				"z": -0.5749275074,
				"element": "C" 
			},
			{
				"x": -0.0392463361,
				"y": -0.2413014906,
				"z": -0.2013028421,
				"element": "C" 
			},
			{
				"x": 0.9551832105,
				"y": -0.5447022386,
				"z": -1.3243555515,
				"element": "C" 
			},
			{
				"x": 0.614865642,
				"y": 0.0867472836,
				"z": 1.0442824744,
				"element": "O" 
			},
			{
				"x": 1.3749131278,
				"y": 1.1972486515,
				"z": 1.2179626128,
				"element": "C" 
			},
			{
				"x": 1.7027493479,
				"y": 2.1944046481,
				"z": 0.3886087123,
				"element": "C" 
			},
			{
				"x": -0.7256228085,
				"y": 1.7288462027,
				"z": -0.8921739614,
				"element": "H" 
			},
			{
				"x": -1.7301118623,
				"y": 0.3623997414,
				"z": -1.3970181821,
				"element": "H" 
			},
			{
				"x": -1.7911411045,
				"y": 0.9369597412,
				"z": 0.2789138806,
				"element": "H" 
			},
			{
				"x": -0.5373199113,
				"y": -1.1822281037,
				"z": 0.0584014631,
				"element": "H" 
			},
			{
				"x": 0.4221385949,
				"y": -0.9888461323,
				"z": -2.1715005324,
				"element": "H" 
			},
			{
				"x": 1.7047960797,
				"y": -1.2621457075,
				"z": -0.9787175768,
				"element": "H" 
			},
			{
				"x": 1.4749942644,
				"y": 0.3462756466,
				"z": -1.6815236679,
				"element": "H" 
			},
			{
				"x": 1.7448397225,
				"y": 1.1998690349,
				"z": 2.2414283698,
				"element": "H" 
			},
			{
				"x": 2.3370998114,
				"y": 2.9862920881,
				"z": 0.7693207867,
				"element": "H" 
			},
			{
				"x": 1.3814147968,
				"y": 2.2723829797,
				"z": -0.6405984782,
				"element": "H" 
			}
		],
		 "valence_orbital": [ 
			{
				"type": "occ",
				"energy": -0.36713,
				"method": "rhf"
			},
			{
				"type": "occ",
				"energy": -0.33907,
				"method": "rhf"
			},
			{
				"type": "occ",
				"energy": -0.33026,
				"method": "rhf"
			},
			{
				"type": "occ",
				"energy": -0.30891,
				"method": "rhf"
			},
			{
				"type": "occ",
				"energy": -0.21833,
				"method": "rhf"
			},
			{
				"type": "unocc",
				"energy": 0.04361,
				"method": "rhf"
			},
			{
				"type": "unocc",
				"energy": 0.09027,
				"method": "rhf"
			},
			{
				"type": "unocc",
				"energy": 0.10336,
				"method": "rhf"
			},
			{
				"type": "unocc",
				"energy": 0.13171,
				"method": "rhf"
			},
			{
				"type": "unocc",
				"energy": 0.13991,
				"method": "rhf"
			}
		],
		"cosmo_sigma_profile": { 
			"-0.025": 0.0,
			"-0.024": 0.0,
			"-0.023": 0.0,
			"-0.022": 0.0,
			"-0.021": 0.0,
			"-0.02": 0.0,
			"-0.019": 0.0,
			"-0.018": 0.0,
			"-0.017": 0.0,
			"-0.016": 0.0,
			"-0.015": 0.0,
			"-0.014": 0.0,
			"-0.013": 0.0,
			"-0.012": 0.0,
			"-0.011": 0.0,
			"-0.01": 0.0,
			"-0.009": 0.0,
			"-0.008": 0.0,
			"-0.007": 0.143946889031,
			"-0.006": 2.58889116449,
			"-0.005": 6.77846770848,
			"-0.004": 14.8028280844,
			"-0.003": 17.8513244144,
			"-0.002": 15.5587586258,
			"-0.001": 15.4460056889,
			"0.0": 17.4086721429,
			"0.001": 13.6480946698,
			"0.002": 5.73972591044,
			"0.003": 5.85865584879,
			"0.004": 6.01757477835,
			"0.005": 5.02768944933,
			"0.006": 4.39385677277,
			"0.007": 3.98799947093,
			"0.008": 2.13569123386,
			"0.009": 1.01520532012,
			"0.01": 1.79789910061,
			"0.011": 1.17152540072,
			"0.012": 0.457694422917,
			"0.013": 0.0,
			"0.014": 0.0,
			"0.015": 0.0,
			"0.016": 0.0,
			"0.017": 0.0,
			"0.018": 0.0,
			"0.019": 0.0,
			"0.02": 0.0,
			"0.021": 0.0,
			"0.022": 0.0,
			"0.023": 0.0,
			"0.024": 0.0,
			"0.025": 0.0
		}
	}
}
