{
	 "smiles": "CC1=C(C=NN1CCC#N)C(O)=O", 
	 "Tm": 433.15, 
	 "num_atms": 22, 
	 "gaussian": { 
		 "optdone": 1, 
		 "sigma_profile": "yes", 
		 "theory": "DFT", 
		 "functional": "B3LYP", 
		 "basiset": "6-31G**", 
		 "properties": { 
			 "R2extent": 3007.2255, 
			 "electric_dipole_moment_norm": 4.47682491617, 
			 "electric_quadrupole_moment_norm": 27.109355923, 
			 "total_energy": -624.953203361, 
			 "HOMO_LUMO_gap": 0.23161, 
			 "cosmo_polarized_energy": -25.96, 
			 "cosmo_cavitation_energy": 27.49, 
			 "cosmo_dispersion_energy": -18.96, 
			 "cosmo_repulsion_energy": 1.51, 
			 "cosmo_total_nonelectrostatic_energy": 10.03, 
			 "SMD_solvation_energy": 6.48 
		},
		"coords": [
			{
				"x": 0.715828799,
				"y": 0.8633999476,
				"z": 1.0644784623,
				"element": "C" 
			},
			{
				"x": -0.2736306059,
				"y": -0.2205329789,
				"z": 0.781252578,
				"element": "C" 
			},
			{
				"x": -1.6092967983,
				"y": -0.3575168885,
				"z": 1.1682032695,
				"element": "C" 
			},
			{
				"x": -2.0174581972,
				"y": -1.600021361,
				"z": 0.6115135362,
				"element": "C" 
			},
			{
				"x": -1.041815979,
				"y": -2.1875625213,
				"z": -0.0607930601,
				"element": "N" 
			},
			{
				"x": 0.0119766431,
				"y": -1.3317646281,
				"z": 0.0485930491,
				"element": "N" 
			},
			{
				"x": 1.2491398148,
				"y": -1.6680289998,
				"z": -0.6327321461,
				"element": "C" 
			},
			{
				"x": 1.3749573871,
				"y": -1.0411959444,
				"z": -2.0392815976,
				"element": "C" 
			},
			{
				"x": 0.3707654547,
				"y": -1.5145391402,
				"z": -2.9953009987,
				"element": "C" 
			},
			{
				"x": -0.4103075242,
				"y": -1.8813078536,
				"z": -3.7705230932,
				"element": "N" 
			},
			{
				"x": -2.3685868492,
				"y": 0.5970084397,
				"z": 1.9974506215,
				"element": "C" 
			},
			{
				"x": -3.7074979175,
				"y": 0.373505395,
				"z": 2.0972562049,
				"element": "O" 
			},
			{
				"x": -1.8806762584,
				"y": 1.540742989,
				"z": 2.5825888449,
				"element": "O" 
			},
			{
				"x": 1.0186149021,
				"y": 1.3902823057,
				"z": 0.1518455432,
				"element": "H" 
			},
			{
				"x": 1.6217125587,
				"y": 0.4643391418,
				"z": 1.5355010947,
				"element": "H" 
			},
			{
				"x": 0.2576736364,
				"y": 1.5809433322,
				"z": 1.744643943,
				"element": "H" 
			},
			{
				"x": -2.9710094089,
				"y": -2.1080074508,
				"z": 0.694620803,
				"element": "H" 
			},
			{
				"x": 1.2840317074,
				"y": -2.7563797305,
				"z": -0.6971484999,
				"element": "H" 
			},
			{
				"x": 2.0913702664,
				"y": -1.327032353,
				"z": -0.025141475,
				"element": "H" 
			},
			{
				"x": 2.3692890417,
				"y": -1.2767709428,
				"z": -2.4367123765,
				"element": "H" 
			},
			{
				"x": 1.3084797207,
				"y": 0.0503639028,
				"z": -1.9742322509,
				"element": "H" 
			},
			{
				"x": -3.9800603936,
				"y": -0.3405246609,
				"z": 1.5050175479,
				"element": "H" 
			}
		],
		 "valence_orbital": [ 
			{
				"type": "occ",
				"energy": -0.31669,
				"method": "rhf"
			},
			{
				"type": "occ",
				"energy": -0.31258,
				"method": "rhf"
			},
			{
				"type": "occ",
				"energy": -0.27819,
				"method": "rhf"
			},
			{
				"type": "occ",
				"energy": -0.27306,
				"method": "rhf"
			},
			{
				"type": "occ",
				"energy": -0.2625,
				"method": "rhf"
			},
			{
				"type": "unocc",
				"energy": -0.03089,
				"method": "rhf"
			},
			{
				"type": "unocc",
				"energy": -0.00355,
				"method": "rhf"
			},
			{
				"type": "unocc",
				"energy": 0.0159,
				"method": "rhf"
			},
			{
				"type": "unocc",
				"energy": 0.02452,
				"method": "rhf"
			},
			{
				"type": "unocc",
				"energy": 0.05828,
				"method": "rhf"
			}
		],
		"cosmo_sigma_profile": { 
			"-0.025": 0.0,
			"-0.024": 0.0,
			"-0.023": 0.0,
			"-0.022": 0.0,
			"-0.021": 0.0,
			"-0.02": 0.0,
			"-0.019": 0.0749050678276,
			"-0.018": 1.03628116965,
			"-0.017": 1.19669873155,
			"-0.016": 1.23687671775,
			"-0.015": 0.768622413256,
			"-0.014": 1.07236896754,
			"-0.013": 1.01651220346,
			"-0.012": 1.2069811046,
			"-0.011": 1.55346149337,
			"-0.01": 2.10913129513,
			"-0.009": 10.9475891352,
			"-0.008": 15.8128570292,
			"-0.007": 13.1587625256,
			"-0.006": 12.9889166161,
			"-0.005": 9.74458826644,
			"-0.004": 6.87368103904,
			"-0.003": 8.77979914113,
			"-0.002": 12.1033327591,
			"-0.001": 11.4080912668,
			"0.0": 8.84121858857,
			"0.001": 10.71876851,
			"0.002": 8.09267775361,
			"0.003": 6.87792593922,
			"0.004": 5.84406713523,
			"0.005": 5.49284783121,
			"0.006": 6.22444739541,
			"0.007": 6.52174232087,
			"0.008": 7.82982800974,
			"0.009": 8.90444494853,
			"0.01": 8.82883967349,
			"0.011": 8.72678934884,
			"0.012": 7.37071657591,
			"0.013": 4.93510093937,
			"0.014": 1.39667386784,
			"0.015": 0.073526164243,
			"0.016": 0.0,
			"0.017": 0.0,
			"0.018": 0.0,
			"0.019": 0.0,
			"0.02": 0.0,
			"0.021": 0.0,
			"0.022": 0.0,
			"0.023": 0.0,
			"0.024": 0.0,
			"0.025": 0.0
		}
	}
}
