{
	 "smiles": "O=C1C=CC(=O)N1C1=NC=CN=C1", 
	 "Tm": 390.15, 
	 "num_atms": 18, 
	 "gaussian": { 
		 "optdone": 1, 
		 "sigma_profile": "yes", 
		 "theory": "DFT", 
		 "functional": "B3LYP", 
		 "basiset": "6-31G**", 
		 "properties": { 
			 "R2extent": 2783.6106, 
			 "electric_dipole_moment_norm": 2.13230656567, 
			 "electric_quadrupole_moment_norm": 16.6346706841, 
			 "total_energy": -622.539198679, 
			 "HOMO_LUMO_gap": 0.13906, 
			 "cosmo_polarized_energy": -13.36, 
			 "cosmo_cavitation_energy": 23.68, 
			 "cosmo_dispersion_energy": -17.67, 
			 "cosmo_repulsion_energy": 1.36, 
			 "cosmo_total_nonelectrostatic_energy": 7.38, 
			 "SMD_solvation_energy": 3.62 
		},
		"coords": [
			{
				"x": 1.146643185,
				"y": 0.6788935151,
				"z": 0.3989284102,
				"element": "O" 
			},
			{
				"x": 0.3712433038,
				"y": -0.2353760181,
				"z": 0.5868838734,
				"element": "C" 
			},
			{
				"x": 0.1551262136,
				"y": -0.9511970819,
				"z": 1.8792555949,
				"element": "C" 
			},
			{
				"x": -0.7702269297,
				"y": -1.8944273685,
				"z": 1.7056076957,
				"element": "C" 
			},
			{
				"x": -1.2397157965,
				"y": -1.8769253027,
				"z": 0.2833733376,
				"element": "C" 
			},
			{
				"x": -2.0714686529,
				"y": -2.6043737878,
				"z": -0.1965102327,
				"element": "O" 
			},
			{
				"x": -0.4978762398,
				"y": -0.82868513,
				"z": -0.3632634342,
				"element": "N" 
			},
			{
				"x": -0.6134384201,
				"y": -0.4463081081,
				"z": -1.7302374521,
				"element": "C" 
			},
			{
				"x": -1.4890237305,
				"y": -1.1258230946,
				"z": -2.4666412885,
				"element": "N" 
			},
			{
				"x": -1.6050861903,
				"y": -0.7752194804,
				"z": -3.7494389045,
				"element": "C" 
			},
			{
				"x": -0.8489232271,
				"y": 0.2540042539,
				"z": -4.3032185375,
				"element": "C" 
			},
			{
				"x": 0.0326252317,
				"y": 0.9396608132,
				"z": -3.5659688135,
				"element": "N" 
			},
			{
				"x": 0.1588243288,
				"y": 0.5998694673,
				"z": -2.2826204644,
				"element": "C" 
			},
			{
				"x": 0.7096689566,
				"y": -0.6772893497,
				"z": 2.7668266033,
				"element": "H" 
			},
			{
				"x": -1.178799047,
				"y": -2.6028041781,
				"z": 2.4140562238,
				"element": "H" 
			},
			{
				"x": -2.3229550517,
				"y": -1.3353198925,
				"z": -4.3451744573,
				"element": "H" 
			},
			{
				"x": -0.95027864,
				"y": 0.5326766609,
				"z": -5.3494234442,
				"element": "H" 
			},
			{
				"x": 0.8703607061,
				"y": 1.1520440819,
				"z": -1.6842347101,
				"element": "H" 
			}
		],
		 "valence_orbital": [ 
			{
				"type": "occ",
				"energy": -0.31908,
				"method": "rhf"
			},
			{
				"type": "occ",
				"energy": -0.29668,
				"method": "rhf"
			},
			{
				"type": "occ",
				"energy": -0.28805,
				"method": "rhf"
			},
			{
				"type": "occ",
				"energy": -0.25615,
				"method": "rhf"
			},
			{
				"type": "occ",
				"energy": -0.24624,
				"method": "rhf"
			},
			{
				"type": "unocc",
				"energy": -0.10718,
				"method": "rhf"
			},
			{
				"type": "unocc",
				"energy": -0.05215,
				"method": "rhf"
			},
			{
				"type": "unocc",
				"energy": -0.03107,
				"method": "rhf"
			},
			{
				"type": "unocc",
				"energy": 0.05093,
				"method": "rhf"
			},
			{
				"type": "unocc",
				"energy": 0.05589,
				"method": "rhf"
			}
		],
		"cosmo_sigma_profile": { 
			"-0.025": 0.0,
			"-0.024": 0.0,
			"-0.023": 0.0,
			"-0.022": 0.0,
			"-0.021": 0.0,
			"-0.02": 0.0,
			"-0.019": 0.0,
			"-0.018": 0.0,
			"-0.017": 0.0,
			"-0.016": 0.0,
			"-0.015": 0.0,
			"-0.014": 0.0,
			"-0.013": 0.0,
			"-0.012": 0.0,
			"-0.011": 0.196082877159,
			"-0.01": 3.47091222752,
			"-0.009": 3.05157828868,
			"-0.008": 6.6149003397,
			"-0.007": 10.4838136475,
			"-0.006": 11.7535826703,
			"-0.005": 12.1369526442,
			"-0.004": 14.126076449,
			"-0.003": 16.5703257118,
			"-0.002": 15.2423667035,
			"-0.001": 15.4751694327,
			"0.0": 13.9952462723,
			"0.001": 7.23832060401,
			"0.002": 5.83059710048,
			"0.003": 6.67907570675,
			"0.004": 4.67516429501,
			"0.005": 3.45838208365,
			"0.006": 4.60098623378,
			"0.007": 6.26390376558,
			"0.008": 4.33981012758,
			"0.009": 6.14994342003,
			"0.01": 7.87937033073,
			"0.011": 4.38720682434,
			"0.012": 1.97309320235,
			"0.013": 1.84434942731,
			"0.014": 1.74128056852,
			"0.015": 1.63688694627,
			"0.016": 0.745361589943,
			"0.017": 0.230138069307,
			"0.018": 0.0,
			"0.019": 0.0,
			"0.02": 0.0,
			"0.021": 0.0,
			"0.022": 0.0,
			"0.023": 0.0,
			"0.024": 0.0,
			"0.025": 0.0
		}
	}
}
