{
	 "smiles": "CC(=NN1C(S)=NN=C1C(F)(F)F)C1=CC=C(C)C=C1", 
	 "Tm": 474.15, 
	 "num_atms": 31, 
	 "gaussian": { 
		 "optdone": 1, 
		 "sigma_profile": "yes", 
		 "theory": "DFT", 
		 "functional": "B3LYP", 
		 "basiset": "6-31G**", 
		 "properties": { 
			 "R2extent": 6587.8059, 
			 "electric_dipole_moment_norm": 6.87251413895, 
			 "electric_quadrupole_moment_norm": 18.5799592696, 
			 "total_energy": -1380.55352173, 
			 "HOMO_LUMO_gap": 0.17628, 
			 "cosmo_polarized_energy": -15.21, 
			 "cosmo_cavitation_energy": 38.24, 
			 "cosmo_dispersion_energy": -25.85, 
			 "cosmo_repulsion_energy": 1.92, 
			 "cosmo_total_nonelectrostatic_energy": 14.31, 
			 "SMD_solvation_energy": 5.15 
		},
		"coords": [
			{
				"x": 1.3092974195,
				"y": 0.3460510362,
				"z": 3.1444826504,
				"element": "C" 
			},
			{
				"x": 0.284738035,
				"y": 0.5009366259,
				"z": 2.0508539421,
				"element": "C" 
			},
			{
				"x": -0.9305634246,
				"y": 0.2643342155,
				"z": 2.4247202018,
				"element": "N" 
			},
			{
				"x": -1.9452353881,
				"y": 0.4716996579,
				"z": 1.4672232123,
				"element": "N" 
			},
			{
				"x": -2.4809903135,
				"y": 1.6536890226,
				"z": 1.0218292363,
				"element": "C" 
			},
			{
				"x": -1.7761214019,
				"y": 3.232465018,
				"z": 1.3581023625,
				"element": "S" 
			},
			{
				"x": -3.601212304,
				"y": 1.43146949,
				"z": 0.3599228797,
				"element": "N" 
			},
			{
				"x": -3.8333249417,
				"y": 0.0788160725,
				"z": 0.3859054035,
				"element": "N" 
			},
			{
				"x": -2.8582932449,
				"y": -0.4740271065,
				"z": 1.0660176635,
				"element": "C" 
			},
			{
				"x": -2.7028600826,
				"y": -1.9361493029,
				"z": 1.3384246157,
				"element": "C" 
			},
			{
				"x": -2.7149662118,
				"y": -2.2054823556,
				"z": 2.6580252751,
				"element": "F" 
			},
			{
				"x": -1.5135481109,
				"y": -2.3947085182,
				"z": 0.8585744726,
				"element": "F" 
			},
			{
				"x": -3.6798814501,
				"y": -2.634828569,
				"z": 0.7549749729,
				"element": "F" 
			},
			{
				"x": 0.7681786084,
				"y": 0.8669227504,
				"z": 0.6922755793,
				"element": "C" 
			},
			{
				"x": 1.689275639,
				"y": 1.9134238373,
				"z": 0.5264795304,
				"element": "C" 
			},
			{
				"x": 2.1717909626,
				"y": 2.2394556127,
				"z": -0.7382640322,
				"element": "C" 
			},
			{
				"x": 1.7746441201,
				"y": 1.5196989813,
				"z": -1.8725274875,
				"element": "C" 
			},
			{
				"x": 2.2798271185,
				"y": 1.8874649551,
				"z": -3.2459513335,
				"element": "C" 
			},
			{
				"x": 0.8779719387,
				"y": 0.4560179544,
				"z": -1.6963240629,
				"element": "C" 
			},
			{
				"x": 0.3733686082,
				"y": 0.1343830166,
				"z": -0.4403689713,
				"element": "C" 
			},
			{
				"x": 1.830828375,
				"y": 1.2930059851,
				"z": 3.3205248433,
				"element": "H" 
			},
			{
				"x": 2.0669805697,
				"y": -0.3869487571,
				"z": 2.8489703942,
				"element": "H" 
			},
			{
				"x": 0.8248951451,
				"y": 0.0305426579,
				"z": 4.0690639047,
				"element": "H" 
			},
			{
				"x": -2.8977241578,
				"y": 3.8760188102,
				"z": 0.9818483068,
				"element": "H" 
			},
			{
				"x": 2.016921037,
				"y": 2.4922460288,
				"z": 1.3844921786,
				"element": "H" 
			},
			{
				"x": 2.8718703726,
				"y": 3.0637790199,
				"z": -0.8451673217,
				"element": "H" 
			},
			{
				"x": 2.4207553336,
				"y": 1.0006681734,
				"z": -3.8711321609,
				"element": "H" 
			},
			{
				"x": 1.5638664477,
				"y": 2.5381558783,
				"z": -3.7631449721,
				"element": "H" 
			},
			{
				"x": 3.2312951608,
				"y": 2.424076544,
				"z": -3.193540754,
				"element": "H" 
			},
			{
				"x": 0.5702934503,
				"y": -0.1325288718,
				"z": -2.5565656812,
				"element": "H" 
			},
			{
				"x": -0.2988773097,
				"y": -0.7083478626,
				"z": -0.3327248481,
				"element": "H" 
			}
		],
		 "valence_orbital": [ 
			{
				"type": "occ",
				"energy": -0.27467,
				"method": "rhf"
			},
			{
				"type": "occ",
				"energy": -0.26937,
				"method": "rhf"
			},
			{
				"type": "occ",
				"energy": -0.26474,
				"method": "rhf"
			},
			{
				"type": "occ",
				"energy": -0.25661,
				"method": "rhf"
			},
			{
				"type": "occ",
				"energy": -0.24078,
				"method": "rhf"
			},
			{
				"type": "unocc",
				"energy": -0.0645,
				"method": "rhf"
			},
			{
				"type": "unocc",
				"energy": -0.02334,
				"method": "rhf"
			},
			{
				"type": "unocc",
				"energy": -0.00949,
				"method": "rhf"
			},
			{
				"type": "unocc",
				"energy": 0.00204,
				"method": "rhf"
			},
			{
				"type": "unocc",
				"energy": 0.00768,
				"method": "rhf"
			}
		],
		"cosmo_sigma_profile": { 
			"-0.025": 0.0,
			"-0.024": 0.0,
			"-0.023": 0.0,
			"-0.022": 0.0,
			"-0.021": 0.0,
			"-0.02": 0.0,
			"-0.019": 0.0,
			"-0.018": 0.0,
			"-0.017": 0.0,
			"-0.016": 0.0,
			"-0.015": 0.0,
			"-0.014": 0.0,
			"-0.013": 0.643138794351,
			"-0.012": 1.94077741343,
			"-0.011": 0.877890858834,
			"-0.01": 1.4554295671,
			"-0.009": 2.13652348448,
			"-0.008": 3.82184722266,
			"-0.007": 4.48348414951,
			"-0.006": 12.1898579201,
			"-0.005": 19.4620366897,
			"-0.004": 25.3590784611,
			"-0.003": 24.0280604644,
			"-0.002": 26.8191215748,
			"-0.001": 25.8611411114,
			"0.0": 23.0410084105,
			"0.001": 25.528510859,
			"0.002": 37.0660117944,
			"0.003": 19.0514432974,
			"0.004": 14.6721307733,
			"0.005": 8.94709028357,
			"0.006": 5.36423923289,
			"0.007": 3.14468035789,
			"0.008": 3.08183314349,
			"0.009": 3.24158625815,
			"0.01": 3.28925832393,
			"0.011": 4.00032832675,
			"0.012": 2.94465955468,
			"0.013": 2.82537817975,
			"0.014": 2.09356161605,
			"0.015": 0.951563547648,
			"0.016": 0.0909410207382,
			"0.017": 0.0,
			"0.018": 0.0,
			"0.019": 0.0,
			"0.02": 0.0,
			"0.021": 0.0,
			"0.022": 0.0,
			"0.023": 0.0,
			"0.024": 0.0,
			"0.025": 0.0
		}
	}
}
