{
	 "smiles": "OC(=O)C1CN(CCOC2=C(Cl)C=CC=C2)C(=O)C1", 
	 "Tm": 412.15, 
	 "num_atms": 33, 
	 "gaussian": { 
		 "optdone": 1, 
		 "sigma_profile": "yes", 
		 "theory": "DFT", 
		 "functional": "B3LYP", 
		 "basiset": "6-31G**", 
		 "properties": { 
			 "R2extent": 6596.6603, 
			 "electric_dipole_moment_norm": 6.22861653018, 
			 "electric_quadrupole_moment_norm": 13.4048124056, 
			 "total_energy": -1319.67077038, 
			 "HOMO_LUMO_gap": 0.20978, 
			 "cosmo_polarized_energy": -25.37, 
			 "cosmo_cavitation_energy": 38.81, 
			 "cosmo_dispersion_energy": -26.46, 
			 "cosmo_repulsion_energy": 2.06, 
			 "cosmo_total_nonelectrostatic_energy": 14.41, 
			 "SMD_solvation_energy": 7.46 
		},
		"coords": [
			{
				"x": 2.0624440871,
				"y": 2.7301878436,
				"z": -2.4531617241,
				"element": "O" 
			},
			{
				"x": 2.1303667477,
				"y": 3.1581960435,
				"z": -1.1643743125,
				"element": "C" 
			},
			{
				"x": 1.9179268365,
				"y": 4.3138122595,
				"z": -0.8991746006,
				"element": "O" 
			},
			{
				"x": 2.4565306001,
				"y": 2.0766532296,
				"z": -0.139466307,
				"element": "C" 
			},
			{
				"x": 1.289475105,
				"y": 1.0540944785,
				"z": 0.0215805721,
				"element": "C" 
			},
			{
				"x": 1.3958999175,
				"y": 0.6572443828,
				"z": 1.4187360125,
				"element": "N" 
			},
			{
				"x": 0.6724994938,
				"y": -0.4543814555,
				"z": 2.0038942179,
				"element": "C" 
			},
			{
				"x": -0.8320722506,
				"y": -0.2079362393,
				"z": 2.1462214478,
				"element": "C" 
			},
			{
				"x": -1.4973414292,
				"y": -0.1092327889,
				"z": 0.883468603,
				"element": "O" 
			},
			{
				"x": -1.8537195866,
				"y": -1.2344234227,
				"z": 0.2047258872,
				"element": "C" 
			},
			{
				"x": -2.4414957411,
				"y": -1.044003194,
				"z": -1.0621575636,
				"element": "C" 
			},
			{
				"x": -2.6476353465,
				"y": 0.5833411347,
				"z": -1.680869315,
				"element": "Cl" 
			},
			{
				"x": -2.8617324872,
				"y": -2.1261218267,
				"z": -1.8284373869,
				"element": "C" 
			},
			{
				"x": -2.7002691946,
				"y": -3.428120589,
				"z": -1.3499968559,
				"element": "C" 
			},
			{
				"x": -2.1150994664,
				"y": -3.6305264951,
				"z": -0.1028463973,
				"element": "C" 
			},
			{
				"x": -1.6917798445,
				"y": -2.5465977743,
				"z": 0.6696933463,
				"element": "C" 
			},
			{
				"x": 2.1406421097,
				"y": 1.5196736354,
				"z": 2.1945719486,
				"element": "C" 
			},
			{
				"x": 2.310377155,
				"y": 1.41061085,
				"z": 3.3980923389,
				"element": "O" 
			},
			{
				"x": 2.6819828084,
				"y": 2.6119614868,
				"z": 1.279021367,
				"element": "C" 
			},
			{
				"x": 2.2671769498,
				"y": 1.7860567537,
				"z": -2.5105452404,
				"element": "H" 
			},
			{
				"x": 3.3493323349,
				"y": 1.5344544737,
				"z": -0.4770615704,
				"element": "H" 
			},
			{
				"x": 0.3150030772,
				"y": 1.5089291553,
				"z": -0.194732375,
				"element": "H" 
			},
			{
				"x": 1.397515256,
				"y": 0.1828475957,
				"z": -0.6364698314,
				"element": "H" 
			},
			{
				"x": 0.8524872558,
				"y": -1.3605232374,
				"z": 1.4125959907,
				"element": "H" 
			},
			{
				"x": 1.098432963,
				"y": -0.6000304655,
				"z": 3.0016453148,
				"element": "H" 
			},
			{
				"x": -1.0020286953,
				"y": 0.758421608,
				"z": 2.626706647,
				"element": "H" 
			},
			{
				"x": -1.2937004989,
				"y": -0.9812218281,
				"z": 2.7716441677,
				"element": "H" 
			},
			{
				"x": -3.3139599782,
				"y": -1.9397764708,
				"z": -2.7965138018,
				"element": "H" 
			},
			{
				"x": -3.0290045248,
				"y": -4.2694961975,
				"z": -1.9510958589,
				"element": "H" 
			},
			{
				"x": -1.9801743306,
				"y": -4.6369624724,
				"z": 0.2816177305,
				"element": "H" 
			},
			{
				"x": -1.2375460496,
				"y": -2.7320107978,
				"z": 1.6354933357,
				"element": "H" 
			},
			{
				"x": 3.7259694938,
				"y": 2.828376542,
				"z": 1.5127150776,
				"element": "H" 
			},
			{
				"x": 2.1116972328,
				"y": 3.534603782,
				"z": 1.4325791357,
				"element": "H" 
			}
		],
		 "valence_orbital": [ 
			{
				"type": "occ",
				"energy": -0.28169,
				"method": "rhf"
			},
			{
				"type": "occ",
				"energy": -0.26187,
				"method": "rhf"
			},
			{
				"type": "occ",
				"energy": -0.25817,
				"method": "rhf"
			},
			{
				"type": "occ",
				"energy": -0.25218,
				"method": "rhf"
			},
			{
				"type": "occ",
				"energy": -0.23219,
				"method": "rhf"
			},
			{
				"type": "unocc",
				"energy": -0.02241,
				"method": "rhf"
			},
			{
				"type": "unocc",
				"energy": -0.00815,
				"method": "rhf"
			},
			{
				"type": "unocc",
				"energy": -0.0027,
				"method": "rhf"
			},
			{
				"type": "unocc",
				"energy": 0.02089,
				"method": "rhf"
			},
			{
				"type": "unocc",
				"energy": 0.02439,
				"method": "rhf"
			}
		],
		"cosmo_sigma_profile": { 
			"-0.025": 0.0,
			"-0.024": 0.0,
			"-0.023": 0.0,
			"-0.022": 0.0,
			"-0.021": 0.0,
			"-0.02": 0.0234117509773,
			"-0.019": 0.734521462812,
			"-0.018": 0.94653411125,
			"-0.017": 1.58139458345,
			"-0.016": 1.12365195053,
			"-0.015": 0.990852806343,
			"-0.014": 1.5340155219,
			"-0.013": 0.66364946338,
			"-0.012": 0.946402867393,
			"-0.011": 1.69599384493,
			"-0.01": 1.41350648491,
			"-0.009": 2.80498998172,
			"-0.008": 4.65514783313,
			"-0.007": 10.9401004021,
			"-0.006": 26.6551296711,
			"-0.005": 25.212742635,
			"-0.004": 24.1486513643,
			"-0.003": 16.7235470236,
			"-0.002": 18.0812468747,
			"-0.001": 12.093837533,
			"0.0": 14.2602036261,
			"0.001": 18.3521633738,
			"0.002": 19.0935737132,
			"0.003": 18.9336726156,
			"0.004": 20.4755270762,
			"0.005": 14.2550010882,
			"0.006": 5.67387038207,
			"0.007": 4.53501046029,
			"0.008": 4.89001949184,
			"0.009": 6.72699629176,
			"0.01": 7.1983756751,
			"0.011": 6.83351465659,
			"0.012": 5.66063814774,
			"0.013": 5.29808060893,
			"0.014": 3.98809330834,
			"0.015": 0.76190001659,
			"0.016": 0.0,
			"0.017": 0.0,
			"0.018": 0.0,
			"0.019": 0.0,
			"0.02": 0.0,
			"0.021": 0.0,
			"0.022": 0.0,
			"0.023": 0.0,
			"0.024": 0.0,
			"0.025": 0.0
		}
	}
}
