{
	 "smiles": "O=S(=O)(N1CCNCC1)C1=NN=CN1", 
	 "Tm": 514.15, 
	 "num_atms": 25, 
	 "gaussian": { 
		 "optdone": 1, 
		 "sigma_profile": "yes", 
		 "theory": "DFT", 
		 "functional": "B3LYP", 
		 "basiset": "6-31G**", 
		 "properties": { 
			 "R2extent": 3522.0835, 
			 "electric_dipole_moment_norm": 2.72588602293, 
			 "electric_quadrupole_moment_norm": 22.3903289306, 
			 "total_energy": -1057.53609785, 
			 "HOMO_LUMO_gap": 0.19024, 
			 "cosmo_polarized_energy": -21.32, 
			 "cosmo_cavitation_energy": 28.15, 
			 "cosmo_dispersion_energy": -21.43, 
			 "cosmo_repulsion_energy": 1.62, 
			 "cosmo_total_nonelectrostatic_energy": 8.35, 
			 "SMD_solvation_energy": -0.79 
		},
		"coords": [
			{
				"x": -0.2949810592,
				"y": -1.0022599767,
				"z": -3.3991541363,
				"element": "O" 
			},
			{
				"x": 0.7524692094,
				"y": -1.0500951484,
				"z": -2.3741989508,
				"element": "S" 
			},
			{
				"x": 1.9921308583,
				"y": -1.7932513116,
				"z": -2.5878971928,
				"element": "O" 
			},
			{
				"x": 0.1058454599,
				"y": -1.523874186,
				"z": -0.9457473915,
				"element": "N" 
			},
			{
				"x": -1.1835341659,
				"y": -0.9505296041,
				"z": -0.5041107224,
				"element": "C" 
			},
			{
				"x": -1.109198898,
				"y": -0.6343911,
				"z": 1.0133002015,
				"element": "C" 
			},
			{
				"x": 0.2040118207,
				"y": -0.1754860692,
				"z": 1.4401419868,
				"element": "N" 
			},
			{
				"x": 1.2341082214,
				"y": -1.2043233818,
				"z": 1.2550167796,
				"element": "C" 
			},
			{
				"x": 0.9238439675,
				"y": -2.1780043887,
				"z": 0.0902692723,
				"element": "C" 
			},
			{
				"x": 1.1787817858,
				"y": 0.687389489,
				"z": -2.1782923712,
				"element": "C" 
			},
			{
				"x": 1.5580640767,
				"y": 1.3085861922,
				"z": -1.0875339055,
				"element": "N" 
			},
			{
				"x": 1.8131477851,
				"y": 2.6207834628,
				"z": -1.4316627062,
				"element": "N" 
			},
			{
				"x": 1.5783661942,
				"y": 2.7363377265,
				"z": -2.7190329487,
				"element": "C" 
			},
			{
				"x": 1.1729586741,
				"y": 1.5424987467,
				"z": -3.2412666551,
				"element": "N" 
			},
			{
				"x": -1.3714659464,
				"y": -0.0307822661,
				"z": -1.0657220682,
				"element": "H" 
			},
			{
				"x": -2.0003727539,
				"y": -1.6462017556,
				"z": -0.7355700738,
				"element": "H" 
			},
			{
				"x": -1.3707010144,
				"y": -1.5279995069,
				"z": 1.5933033996,
				"element": "H" 
			},
			{
				"x": -1.8639534036,
				"y": 0.1221842567,
				"z": 1.2519954831,
				"element": "H" 
			},
			{
				"x": 0.4765012847,
				"y": 0.6403171902,
				"z": 0.8957143292,
				"element": "H" 
			},
			{
				"x": 1.3490355118,
				"y": -1.7941950364,
				"z": 2.1755956762,
				"element": "H" 
			},
			{
				"x": 2.1831742555,
				"y": -0.6935941673,
				"z": 1.0719276688,
				"element": "H" 
			},
			{
				"x": 1.8301940884,
				"y": -2.5641960165,
				"z": -0.3757477067,
				"element": "H" 
			},
			{
				"x": 0.3474655129,
				"y": -3.0421388331,
				"z": 0.441341121,
				"element": "H" 
			},
			{
				"x": 1.6827450041,
				"y": 3.6411561368,
				"z": -3.2998297147,
				"element": "H" 
			},
			{
				"x": 0.8712635309,
				"y": 1.3189695476,
				"z": -4.1799393742,
				"element": "H" 
			}
		],
		 "valence_orbital": [ 
			{
				"type": "occ",
				"energy": -0.31595,
				"method": "rhf"
			},
			{
				"type": "occ",
				"energy": -0.28953,
				"method": "rhf"
			},
			{
				"type": "occ",
				"energy": -0.28524,
				"method": "rhf"
			},
			{
				"type": "occ",
				"energy": -0.2708,
				"method": "rhf"
			},
			{
				"type": "occ",
				"energy": -0.2187,
				"method": "rhf"
			},
			{
				"type": "unocc",
				"energy": -0.02846,
				"method": "rhf"
			},
			{
				"type": "unocc",
				"energy": 0.00789,
				"method": "rhf"
			},
			{
				"type": "unocc",
				"energy": 0.05003,
				"method": "rhf"
			},
			{
				"type": "unocc",
				"energy": 0.05614,
				"method": "rhf"
			},
			{
				"type": "unocc",
				"energy": 0.0691,
				"method": "rhf"
			}
		],
		"cosmo_sigma_profile": { 
			"-0.025": 0.0,
			"-0.024": 0.0,
			"-0.023": 0.0,
			"-0.022": 0.0,
			"-0.021": 0.0,
			"-0.02": 0.0,
			"-0.019": 0.557416682074,
			"-0.018": 1.2529760728,
			"-0.017": 1.38909824626,
			"-0.016": 0.709520026344,
			"-0.015": 1.45340787705,
			"-0.014": 0.885716501697,
			"-0.013": 0.782703134267,
			"-0.012": 2.90659859939,
			"-0.011": 4.04292436301,
			"-0.01": 2.50652089647,
			"-0.009": 2.52772922134,
			"-0.008": 1.49918949406,
			"-0.007": 2.98052947337,
			"-0.006": 10.0498695582,
			"-0.005": 19.3423026455,
			"-0.004": 23.4970828589,
			"-0.003": 21.6979972737,
			"-0.002": 14.3119395807,
			"-0.001": 11.661478129,
			"0.0": 9.26516386642,
			"0.001": 8.1529377953,
			"0.002": 7.42308530713,
			"0.003": 7.5054957332,
			"0.004": 6.69671628493,
			"0.005": 4.40967501164,
			"0.006": 5.33908907949,
			"0.007": 6.58166669561,
			"0.008": 6.69722334319,
			"0.009": 8.13149190515,
			"0.01": 11.597255628,
			"0.011": 7.47970764765,
			"0.012": 2.1177716709,
			"0.013": 2.16690044518,
			"0.014": 1.38239646488,
			"0.015": 1.71199243078,
			"0.016": 0.77574854025,
			"0.017": 0.650419278341,
			"0.018": 0.490628182756,
			"0.019": 0.0,
			"0.02": 0.0,
			"0.021": 0.0,
			"0.022": 0.0,
			"0.023": 0.0,
			"0.024": 0.0,
			"0.025": 0.0
		}
	}
}
