{
	 "smiles": "CC12CCCC1C1CCC(CC(O)=O)C(C)(CC(O)=O)C1CC2", 
	 "Tm": 502.15, 
	 "num_atms": 53, 
	 "gaussian": { 
		 "optdone": 1, 
		 "sigma_profile": "yes", 
		 "theory": "DFT", 
		 "functional": "B3LYP", 
		 "basiset": "6-31G**", 
		 "properties": { 
			 "R2extent": 8208.9859, 
			 "electric_dipole_moment_norm": 4.89067515482, 
			 "electric_quadrupole_moment_norm": 24.6924553166, 
			 "total_energy": -1043.04287324, 
			 "HOMO_LUMO_gap": 0.26077, 
			 "cosmo_polarized_energy": -20.27, 
			 "cosmo_cavitation_energy": 45.8, 
			 "cosmo_dispersion_energy": -31.94, 
			 "cosmo_repulsion_energy": 2.37, 
			 "cosmo_total_nonelectrostatic_energy": 16.23, 
			 "SMD_solvation_energy": 8.55 
		},
		"coords": [
			{
				"x": -0.5496081964,
				"y": 1.8283214068,
				"z": 3.9413638577,
				"element": "C" 
			},
			{
				"x": -0.0391574177,
				"y": 1.307922742,
				"z": 2.5795351776,
				"element": "C" 
			},
			{
				"x": 1.5120067385,
				"y": 1.3451445316,
				"z": 2.5834524221,
				"element": "C" 
			},
			{
				"x": 1.9648687949,
				"y": 0.0286035809,
				"z": 3.2737894617,
				"element": "C" 
			},
			{
				"x": 0.702381464,
				"y": -0.8796078379,
				"z": 3.3477051276,
				"element": "C" 
			},
			{
				"x": -0.3561811202,
				"y": -0.211557368,
				"z": 2.4382081766,
				"element": "C" 
			},
			{
				"x": -0.3777615117,
				"y": -0.7793111558,
				"z": 0.9839711791,
				"element": "C" 
			},
			{
				"x": 0.973759877,
				"y": -1.1349020213,
				"z": 0.3306239377,
				"element": "C" 
			},
			{
				"x": 0.753366506,
				"y": -1.8515453306,
				"z": -1.0092434156,
				"element": "C" 
			},
			{
				"x": -0.0691479895,
				"y": -1.0253643881,
				"z": -2.0264593186,
				"element": "C" 
			},
			{
				"x": 0.810830293,
				"y": 0.0504858914,
				"z": -2.6961327945,
				"element": "C" 
			},
			{
				"x": 1.8343599104,
				"y": -0.5466924613,
				"z": -3.6587006547,
				"element": "C" 
			},
			{
				"x": 2.6690437778,
				"y": 0.3630666291,
				"z": -4.2350623264,
				"element": "O" 
			},
			{
				"x": 1.944135079,
				"y": -1.7149292507,
				"z": -3.9364800377,
				"element": "O" 
			},
			{
				"x": -1.4115621501,
				"y": -0.523327001,
				"z": -1.3827691858,
				"element": "C" 
			},
			{
				"x": -2.3505935553,
				"y": -1.7470478998,
				"z": -1.219242309,
				"element": "C" 
			},
			{
				"x": -2.1736202716,
				"y": 0.501135662,
				"z": -2.2884962174,
				"element": "C" 
			},
			{
				"x": -2.484730676,
				"y": 0.0132093467,
				"z": -3.6860568725,
				"element": "C" 
			},
			{
				"x": -3.7441663467,
				"y": -0.4705959787,
				"z": -3.8062714645,
				"element": "O" 
			},
			{
				"x": -1.7167764259,
				"y": 0.0432953311,
				"z": -4.6270259735,
				"element": "O" 
			},
			{
				"x": -1.2053087299,
				"y": 0.1314983709,
				"z": 0.0360425968,
				"element": "C" 
			},
			{
				"x": -0.6157844969,
				"y": 1.5593689992,
				"z": 0.063134843,
				"element": "C" 
			},
			{
				"x": -0.6944189399,
				"y": 2.1575260863,
				"z": 1.4735290307,
				"element": "C" 
			},
			{
				"x": -0.3491797395,
				"y": 2.9018543478,
				"z": 4.0376453787,
				"element": "H" 
			},
			{
				"x": -0.0650270781,
				"y": 1.3294897162,
				"z": 4.7861815896,
				"element": "H" 
			},
			{
				"x": -1.6310786086,
				"y": 1.6810009329,
				"z": 4.0415558037,
				"element": "H" 
			},
			{
				"x": 1.8876003009,
				"y": 2.2372327855,
				"z": 3.0972495246,
				"element": "H" 
			},
			{
				"x": 1.8989431696,
				"y": 1.392578667,
				"z": 1.5603763162,
				"element": "H" 
			},
			{
				"x": 2.3632301286,
				"y": 0.2202595455,
				"z": 4.2749700663,
				"element": "H" 
			},
			{
				"x": 2.7700240171,
				"y": -0.4503029029,
				"z": 2.7086068775,
				"element": "H" 
			},
			{
				"x": 0.9098366427,
				"y": -1.9146679365,
				"z": 3.0586223741,
				"element": "H" 
			},
			{
				"x": 0.328857392,
				"y": -0.9216480558,
				"z": 4.3756153766,
				"element": "H" 
			},
			{
				"x": -1.364056878,
				"y": -0.3950336569,
				"z": 2.8350628547,
				"element": "H" 
			},
			{
				"x": -0.9087030275,
				"y": -1.7356456383,
				"z": 1.0798328397,
				"element": "H" 
			},
			{
				"x": 1.5520909905,
				"y": -1.7919867554,
				"z": 0.9878299945,
				"element": "H" 
			},
			{
				"x": 1.5921179404,
				"y": -0.2425728145,
				"z": 0.1806139623,
				"element": "H" 
			},
			{
				"x": 0.2428443151,
				"y": -2.8029693383,
				"z": -0.8193147937,
				"element": "H" 
			},
			{
				"x": 1.7096639062,
				"y": -2.1188700249,
				"z": -1.4666427889,
				"element": "H" 
			},
			{
				"x": -0.3425342311,
				"y": -1.7028961826,
				"z": -2.8425243012,
				"element": "H" 
			},
			{
				"x": 1.3541470187,
				"y": 0.6605071123,
				"z": -1.9640079141,
				"element": "H" 
			},
			{
				"x": 0.2038180798,
				"y": 0.7326669205,
				"z": -3.2994725945,
				"element": "H" 
			},
			{
				"x": 2.4364560276,
				"y": 1.2561080929,
				"z": -3.9435711274,
				"element": "H" 
			},
			{
				"x": -1.9267657762,
				"y": -2.5158847287,
				"z": -0.5719682942,
				"element": "H" 
			},
			{
				"x": -2.5600033137,
				"y": -2.2155162831,
				"z": -2.184859589,
				"element": "H" 
			},
			{
				"x": -3.3100244366,
				"y": -1.4424655973,
				"z": -0.7877978066,
				"element": "H" 
			},
			{
				"x": -3.1105111327,
				"y": 0.7676954463,
				"z": -1.7899049893,
				"element": "H" 
			},
			{
				"x": -1.5923846783,
				"y": 1.4151606252,
				"z": -2.4151991131,
				"element": "H" 
			},
			{
				"x": -3.8329956,
				"y": -0.763099406,
				"z": -4.7298798754,
				"element": "H" 
			},
			{
				"x": -2.2154927645,
				"y": 0.217545747,
				"z": 0.4677286368,
				"element": "H" 
			},
			{
				"x": 0.4227010203,
				"y": 1.559942282,
				"z": -0.2840578079,
				"element": "H" 
			},
			{
				"x": -1.1617013528,
				"y": 2.2242283083,
				"z": -0.6132027042,
				"element": "H" 
			},
			{
				"x": -0.2553954766,
				"y": 3.1642267552,
				"z": 1.4788535755,
				"element": "H" 
			},
			{
				"x": -1.756311468,
				"y": 2.2918641518,
				"z": 1.7248432883,
				"element": "H" 
			}
		],
		 "valence_orbital": [ 
			{
				"type": "occ",
				"energy": -0.29326,
				"method": "rhf"
			},
			{
				"type": "occ",
				"energy": -0.28627,
				"method": "rhf"
			},
			{
				"type": "occ",
				"energy": -0.2805,
				"method": "rhf"
			},
			{
				"type": "occ",
				"energy": -0.2732,
				"method": "rhf"
			},
			{
				"type": "occ",
				"energy": -0.26236,
				"method": "rhf"
			},
			{
				"type": "unocc",
				"energy": -0.00159,
				"method": "rhf"
			},
			{
				"type": "unocc",
				"energy": 0.0195,
				"method": "rhf"
			},
			{
				"type": "unocc",
				"energy": 0.05718,
				"method": "rhf"
			},
			{
				"type": "unocc",
				"energy": 0.0637,
				"method": "rhf"
			},
			{
				"type": "unocc",
				"energy": 0.07202,
				"method": "rhf"
			}
		],
		"cosmo_sigma_profile": { 
			"-0.025": 0.0,
			"-0.024": 0.0,
			"-0.023": 0.0,
			"-0.022": 0.0,
			"-0.021": 0.0,
			"-0.02": 0.0,
			"-0.019": 0.245375993047,
			"-0.018": 1.34282010561,
			"-0.017": 1.96113600254,
			"-0.016": 1.86723373824,
			"-0.015": 2.18853852375,
			"-0.014": 1.75931616284,
			"-0.013": 1.38983982645,
			"-0.012": 1.87442533276,
			"-0.011": 1.81223168623,
			"-0.01": 1.98242300243,
			"-0.009": 1.36994507839,
			"-0.008": 2.43294683029,
			"-0.007": 2.57827308694,
			"-0.006": 6.42109349723,
			"-0.005": 7.62906959883,
			"-0.004": 14.0697832924,
			"-0.003": 21.6878339557,
			"-0.002": 40.0490261971,
			"-0.001": 56.301545513,
			"0.0": 51.4324076846,
			"0.001": 40.6023646095,
			"0.002": 24.0432620653,
			"0.003": 7.49995940497,
			"0.004": 6.60605556348,
			"0.005": 4.94354678582,
			"0.006": 5.87192232109,
			"0.007": 5.17992006836,
			"0.008": 5.7831322366,
			"0.009": 5.44095707989,
			"0.01": 6.69712029067,
			"0.011": 8.15569799949,
			"0.012": 7.59097933212,
			"0.013": 2.69801722,
			"0.014": 0.179679668265,
			"0.015": 0.0,
			"0.016": 0.0,
			"0.017": 0.0,
			"0.018": 0.0,
			"0.019": 0.0,
			"0.02": 0.0,
			"0.021": 0.0,
			"0.022": 0.0,
			"0.023": 0.0,
			"0.024": 0.0,
			"0.025": 0.0
		}
	}
}
