{
	 "smiles": "CC=CC=C(/C)C=NNC1=C(C=C(C=C1)[N+]([O-])=O)[N+]([O-])=O", 
	 "Tm": 472.15, 
	 "num_atms": 35, 
	 "gaussian": { 
		 "optdone": 1, 
		 "sigma_profile": "yes", 
		 "theory": "DFT", 
		 "functional": "B3LYP", 
		 "basiset": "6-31G**", 
		 "properties": { 
			 "R2extent": 14910.6003, 
			 "electric_dipole_moment_norm": 9.39671254269, 
			 "electric_quadrupole_moment_norm": 28.0230350958, 
			 "total_energy": -1023.4800415, 
			 "HOMO_LUMO_gap": 0.11256, 
			 "cosmo_polarized_energy": -15.58, 
			 "cosmo_cavitation_energy": 42.05, 
			 "cosmo_dispersion_energy": -29.8, 
			 "cosmo_repulsion_energy": 2.28, 
			 "cosmo_total_nonelectrostatic_energy": 14.53, 
			 "SMD_solvation_energy": 11.66 
		},
		"coords": [
			{
				"x": 3.2109849585,
				"y": -2.6096033477,
				"z": -4.9038998818,
				"element": "C" 
			},
			{
				"x": 2.049148003,
				"y": -1.9666472077,
				"z": -4.2142918929,
				"element": "C" 
			},
			{
				"x": 2.127520391,
				"y": -1.2131536704,
				"z": -3.0990839554,
				"element": "C" 
			},
			{
				"x": 0.9731242244,
				"y": -0.6133366288,
				"z": -2.4705918453,
				"element": "C" 
			},
			{
				"x": 0.9400452488,
				"y": 0.1608147855,
				"z": -1.3491589426,
				"element": "C" 
			},
			{
				"x": 2.1404811243,
				"y": 0.5501372629,
				"z": -0.5260049919,
				"element": "C" 
			},
			{
				"x": -0.3544506417,
				"y": 0.6476093602,
				"z": -0.9154018664,
				"element": "C" 
			},
			{
				"x": -0.4825124119,
				"y": 1.3883744957,
				"z": 0.1373217888,
				"element": "N" 
			},
			{
				"x": -1.7500044313,
				"y": 1.7801595359,
				"z": 0.4382563854,
				"element": "N" 
			},
			{
				"x": -2.0044282541,
				"y": 2.5598004327,
				"z": 1.5216486514,
				"element": "C" 
			},
			{
				"x": -3.3246206945,
				"y": 2.9899361148,
				"z": 1.8675048907,
				"element": "C" 
			},
			{
				"x": -3.5510329708,
				"y": 3.7911486494,
				"z": 2.9882607203,
				"element": "C" 
			},
			{
				"x": -2.4842462759,
				"y": 4.1754824703,
				"z": 3.7767686617,
				"element": "C" 
			},
			{
				"x": -1.1728452309,
				"y": 3.7724203091,
				"z": 3.4687142163,
				"element": "C" 
			},
			{
				"x": -0.9413257782,
				"y": 2.9831724167,
				"z": 2.3664745252,
				"element": "C" 
			},
			{
				"x": -2.725701319,
				"y": 5.013125571,
				"z": 4.9472516153,
				"element": "N" 
			},
			{
				"x": -1.7470476459,
				"y": 5.3345242855,
				"z": 5.6252542691,
				"element": "O" 
			},
			{
				"x": -3.8867007019,
				"y": 5.3473885357,
				"z": 5.1868630525,
				"element": "O" 
			},
			{
				"x": -4.4940678878,
				"y": 2.6260565397,
				"z": 1.087088906,
				"element": "N" 
			},
			{
				"x": -4.3379300102,
				"y": 1.9108210229,
				"z": 0.0763403149,
				"element": "O" 
			},
			{
				"x": -5.5941454196,
				"y": 3.034367096,
				"z": 1.4485647326,
				"element": "O" 
			},
			{
				"x": 3.086721556,
				"y": -3.6992543602,
				"z": -4.9534134132,
				"element": "H" 
			},
			{
				"x": 4.1549371116,
				"y": -2.3964810944,
				"z": -4.3940941635,
				"element": "H" 
			},
			{
				"x": 3.29577145,
				"y": -2.2616508573,
				"z": -5.9416497278,
				"element": "H" 
			},
			{
				"x": 1.0684029534,
				"y": -2.130983959,
				"z": -4.6628908783,
				"element": "H" 
			},
			{
				"x": 3.1053301359,
				"y": -1.0487953259,
				"z": -2.6512331788,
				"element": "H" 
			},
			{
				"x": 0.0215588646,
				"y": -0.8132032638,
				"z": -2.9645965046,
				"element": "H" 
			},
			{
				"x": 2.0247754281,
				"y": 0.2043914384,
				"z": 0.5066875874,
				"element": "H" 
			},
			{
				"x": 2.2358491214,
				"y": 1.6401902525,
				"z": -0.480159324,
				"element": "H" 
			},
			{
				"x": 3.0689988768,
				"y": 0.1401266866,
				"z": -0.9239597369,
				"element": "H" 
			},
			{
				"x": -1.2278952699,
				"y": 0.363358078,
				"z": -1.5160489681,
				"element": "H" 
			},
			{
				"x": -2.556213263,
				"y": 1.5102416204,
				"z": -0.127488457,
				"element": "H" 
			},
			{
				"x": -4.5578769965,
				"y": 4.1032671087,
				"z": 3.2288381108,
				"element": "H" 
			},
			{
				"x": -0.3605273066,
				"y": 4.09261061,
				"z": 4.109439146,
				"element": "H" 
			},
			{
				"x": 0.0585230616,
				"y": 2.6609850367,
				"z": 2.1098901541,
				"element": "H" 
			}
		],
		 "valence_orbital": [ 
			{
				"type": "occ",
				"energy": -0.29538,
				"method": "rhf"
			},
			{
				"type": "occ",
				"energy": -0.2949,
				"method": "rhf"
			},
			{
				"type": "occ",
				"energy": -0.28809,
				"method": "rhf"
			},
			{
				"type": "occ",
				"energy": -0.25876,
				"method": "rhf"
			},
			{
				"type": "occ",
				"energy": -0.21497,
				"method": "rhf"
			},
			{
				"type": "unocc",
				"energy": -0.10241,
				"method": "rhf"
			},
			{
				"type": "unocc",
				"energy": -0.09058,
				"method": "rhf"
			},
			{
				"type": "unocc",
				"energy": -0.06415,
				"method": "rhf"
			},
			{
				"type": "unocc",
				"energy": -0.01699,
				"method": "rhf"
			},
			{
				"type": "unocc",
				"energy": 0.00862,
				"method": "rhf"
			}
		],
		"cosmo_sigma_profile": { 
			"-0.025": 0.0,
			"-0.024": 0.0,
			"-0.023": 0.0,
			"-0.022": 0.0,
			"-0.021": 0.0,
			"-0.02": 0.0,
			"-0.019": 0.0,
			"-0.018": 0.0,
			"-0.017": 0.0,
			"-0.016": 0.0,
			"-0.015": 0.0,
			"-0.014": 0.00179742248803,
			"-0.013": 0.597461233244,
			"-0.012": 1.12662689583,
			"-0.011": 1.05638622006,
			"-0.01": 0.666956763066,
			"-0.009": 1.44915322797,
			"-0.008": 4.69076936866,
			"-0.007": 8.05292155774,
			"-0.006": 13.5471530293,
			"-0.005": 18.2556568059,
			"-0.004": 26.416685564,
			"-0.003": 27.9356957539,
			"-0.002": 37.5498083019,
			"-0.001": 33.640261219,
			"0.0": 30.9722090993,
			"0.001": 22.397548582,
			"0.002": 17.2602973107,
			"0.003": 13.6080622576,
			"0.004": 14.7179306889,
			"0.005": 11.4503293622,
			"0.006": 8.64577635832,
			"0.007": 12.0843852449,
			"0.008": 13.6092288063,
			"0.009": 9.30740319788,
			"0.01": 6.2682182516,
			"0.011": 0.746903686178,
			"0.012": 0.0,
			"0.013": 0.0,
			"0.014": 0.0,
			"0.015": 0.0,
			"0.016": 0.0,
			"0.017": 0.0,
			"0.018": 0.0,
			"0.019": 0.0,
			"0.02": 0.0,
			"0.021": 0.0,
			"0.022": 0.0,
			"0.023": 0.0,
			"0.024": 0.0,
			"0.025": 0.0
		}
	}
}
