{
	 "smiles": "OCC(CO)(CO)CBr", 
	 "Tm": 349.15, 
	 "num_atms": 20, 
	 "gaussian": { 
		 "optdone": 1, 
		 "sigma_profile": "yes", 
		 "theory": "DFT", 
		 "functional": "B3LYP", 
		 "basiset": "6-31G**", 
		 "properties": { 
			 "R2extent": 3085.7814, 
			 "electric_dipole_moment_norm": 3.67107114341, 
			 "electric_quadrupole_moment_norm": 11.5080958977, 
			 "total_energy": -2994.21584181, 
			 "HOMO_LUMO_gap": 0.25505, 
			 "cosmo_polarized_energy": -12.27, 
			 "cosmo_cavitation_energy": 23.3, 
			 "cosmo_dispersion_energy": -17.8, 
			 "cosmo_repulsion_energy": 1.46, 
			 "cosmo_total_nonelectrostatic_energy": 6.96, 
			 "SMD_solvation_energy": 2.88 
		},
		"coords": [
			{
				"x": -0.4280078274,
				"y": -0.9184079939,
				"z": 1.8036106632,
				"element": "O" 
			},
			{
				"x": -0.6487044444,
				"y": -1.7623782982,
				"z": 0.6847873858,
				"element": "C" 
			},
			{
				"x": -0.1896534129,
				"y": -1.1177221286,
				"z": -0.6587395355,
				"element": "C" 
			},
			{
				"x": -0.5767128216,
				"y": 0.3835430434,
				"z": -0.662869611,
				"element": "C" 
			},
			{
				"x": -1.8905127739,
				"y": 0.6031947291,
				"z": -0.1800793153,
				"element": "O" 
			},
			{
				"x": 1.3312937387,
				"y": -1.2683484851,
				"z": -0.8088042489,
				"element": "C" 
			},
			{
				"x": 1.9427414753,
				"y": -0.8028802817,
				"z": 0.401847968,
				"element": "O" 
			},
			{
				"x": -0.9442928119,
				"y": -1.8750870127,
				"z": -1.7530275533,
				"element": "C" 
			},
			{
				"x": -0.3471794642,
				"y": -1.4741132726,
				"z": -3.6090601618,
				"element": "Br" 
			},
			{
				"x": 0.5228165466,
				"y": -0.7215139477,
				"z": 1.7944862605,
				"element": "H" 
			},
			{
				"x": -1.7267475521,
				"y": -1.9453353745,
				"z": 0.6529756852,
				"element": "H" 
			},
			{
				"x": -0.1510346252,
				"y": -2.7364122905,
				"z": 0.8100601608,
				"element": "H" 
			},
			{
				"x": -0.5447901189,
				"y": 0.7593324555,
				"z": -1.6904733641,
				"element": "H" 
			},
			{
				"x": 0.1638981567,
				"y": 0.9432663516,
				"z": -0.0791950669,
				"element": "H" 
			},
			{
				"x": -1.8360120429,
				"y": 0.4594070963,
				"z": 0.7773608184,
				"element": "H" 
			},
			{
				"x": 1.6859091084,
				"y": -0.6896661711,
				"z": -1.6709752787,
				"element": "H" 
			},
			{
				"x": 1.584798348,
				"y": -2.3247173429,
				"z": -0.9861245913,
				"element": "H" 
			},
			{
				"x": 2.9010048668,
				"y": -0.8556306796,
				"z": 0.3095498038,
				"element": "H" 
			},
			{
				"x": -0.8360141832,
				"y": -2.9568248865,
				"z": -1.6617043801,
				"element": "H" 
			},
			{
				"x": -1.998400162,
				"y": -1.6010055103,
				"z": -1.734025639,
				"element": "H" 
			}
		],
		 "valence_orbital": [ 
			{
				"type": "occ",
				"energy": -0.29941,
				"method": "rhf"
			},
			{
				"type": "occ",
				"energy": -0.28189,
				"method": "rhf"
			},
			{
				"type": "occ",
				"energy": -0.27375,
				"method": "rhf"
			},
			{
				"type": "occ",
				"energy": -0.2699,
				"method": "rhf"
			},
			{
				"type": "occ",
				"energy": -0.25809,
				"method": "rhf"
			},
			{
				"type": "unocc",
				"energy": -0.00304,
				"method": "rhf"
			},
			{
				"type": "unocc",
				"energy": 0.04785,
				"method": "rhf"
			},
			{
				"type": "unocc",
				"energy": 0.0884,
				"method": "rhf"
			},
			{
				"type": "unocc",
				"energy": 0.09489,
				"method": "rhf"
			},
			{
				"type": "unocc",
				"energy": 0.12686,
				"method": "rhf"
			}
		],
		"cosmo_sigma_profile": { 
			"-0.025": 0.0,
			"-0.024": 0.0,
			"-0.023": 0.0,
			"-0.022": 0.0,
			"-0.021": 0.0,
			"-0.02": 0.0,
			"-0.019": 0.0,
			"-0.018": 0.0,
			"-0.017": 0.466361240255,
			"-0.016": 1.13725567466,
			"-0.015": 1.00238807156,
			"-0.014": 0.692322947682,
			"-0.013": 1.29387863744,
			"-0.012": 0.8843780272,
			"-0.011": 0.733764231759,
			"-0.01": 0.874479639119,
			"-0.009": 1.92334507778,
			"-0.008": 2.14981394784,
			"-0.007": 6.0163511204,
			"-0.006": 7.23475094005,
			"-0.005": 12.1489628827,
			"-0.004": 14.6620375604,
			"-0.003": 14.4086832862,
			"-0.002": 14.0863998008,
			"-0.001": 14.565878055,
			"0.0": 11.8676563603,
			"0.001": 8.95260997946,
			"0.002": 8.37223850221,
			"0.003": 9.16283904136,
			"0.004": 10.0732373868,
			"0.005": 10.0551428716,
			"0.006": 10.5864718031,
			"0.007": 3.52726334964,
			"0.008": 2.10212845687,
			"0.009": 1.92570464573,
			"0.01": 2.19574396979,
			"0.011": 2.47202451663,
			"0.012": 2.00231720683,
			"0.013": 2.31538727252,
			"0.014": 2.90931502035,
			"0.015": 0.612464192889,
			"0.016": 0.0,
			"0.017": 0.0,
			"0.018": 0.0,
			"0.019": 0.0,
			"0.02": 0.0,
			"0.021": 0.0,
			"0.022": 0.0,
			"0.023": 0.0,
			"0.024": 0.0,
			"0.025": 0.0
		}
	}
}
