{
	 "smiles": "CC(=O)C1=NC(S)=C(C=C1)C#N", 
	 "Tm": 483.15, 
	 "num_atms": 18, 
	 "gaussian": { 
		 "optdone": 1, 
		 "sigma_profile": "yes", 
		 "theory": "DFT", 
		 "functional": "B3LYP", 
		 "basiset": "6-31G**", 
		 "properties": { 
			 "R2extent": 2861.8877, 
			 "electric_dipole_moment_norm": 4.60613773459, 
			 "electric_quadrupole_moment_norm": 21.2114341307, 
			 "total_energy": -891.350103596, 
			 "HOMO_LUMO_gap": 0.15478, 
			 "cosmo_polarized_energy": -16.99, 
			 "cosmo_cavitation_energy": 26.0, 
			 "cosmo_dispersion_energy": -18.71, 
			 "cosmo_repulsion_energy": 1.46, 
			 "cosmo_total_nonelectrostatic_energy": 8.74, 
			 "SMD_solvation_energy": 5.09 
		},
		"coords": [
			{
				"x": -3.3455531504,
				"y": 2.526791404,
				"z": -2.0618630989,
				"element": "C" 
			},
			{
				"x": -2.6504304999,
				"y": 2.3246804984,
				"z": -0.727101711,
				"element": "C" 
			},
			{
				"x": -2.9066698241,
				"y": 3.0183216604,
				"z": 0.2354956173,
				"element": "O" 
			},
			{
				"x": -1.6110890763,
				"y": 1.2186991733,
				"z": -0.619893653,
				"element": "C" 
			},
			{
				"x": -1.0322920009,
				"y": 1.0898777536,
				"z": 0.5842076104,
				"element": "N" 
			},
			{
				"x": -0.1135925906,
				"y": 0.1511556191,
				"z": 0.770198206,
				"element": "C" 
			},
			{
				"x": 0.6269951329,
				"y": 0.015631801,
				"z": 2.3793887338,
				"element": "S" 
			},
			{
				"x": 0.2881079577,
				"y": -0.735343519,
				"z": -0.266756949,
				"element": "C" 
			},
			{
				"x": -0.319794971,
				"y": -0.594198441,
				"z": -1.517749716,
				"element": "C" 
			},
			{
				"x": -1.2825625515,
				"y": 0.3940712092,
				"z": -1.7022747214,
				"element": "C" 
			},
			{
				"x": 1.279492407,
				"y": -1.7411193717,
				"z": -0.0487459565,
				"element": "C" 
			},
			{
				"x": 2.0864489557,
				"y": -2.5610831478,
				"z": 0.1257349499,
				"element": "N" 
			},
			{
				"x": -4.0516180012,
				"y": 3.3512903921,
				"z": -1.9622053982,
				"element": "H" 
			},
			{
				"x": -2.6238180526,
				"y": 2.7622756873,
				"z": -2.8520743015,
				"element": "H" 
			},
			{
				"x": -3.8852474864,
				"y": 1.6234405135,
				"z": -2.3675952118,
				"element": "H" 
			},
			{
				"x": -0.0984321419,
				"y": 1.0332664182,
				"z": 2.8814860717,
				"element": "H" 
			},
			{
				"x": -0.0337192733,
				"y": -1.2562090488,
				"z": -2.3283623934,
				"element": "H" 
			},
			{
				"x": -1.7608248331,
				"y": 0.5137513985,
				"z": -2.6663880784,
				"element": "H" 
			}
		],
		 "valence_orbital": [ 
			{
				"type": "occ",
				"energy": -0.33686,
				"method": "rhf"
			},
			{
				"type": "occ",
				"energy": -0.30309,
				"method": "rhf"
			},
			{
				"type": "occ",
				"energy": -0.28838,
				"method": "rhf"
			},
			{
				"type": "occ",
				"energy": -0.26604,
				"method": "rhf"
			},
			{
				"type": "occ",
				"energy": -0.25479,
				"method": "rhf"
			},
			{
				"type": "unocc",
				"energy": -0.10001,
				"method": "rhf"
			},
			{
				"type": "unocc",
				"energy": -0.05278,
				"method": "rhf"
			},
			{
				"type": "unocc",
				"energy": -0.01339,
				"method": "rhf"
			},
			{
				"type": "unocc",
				"energy": -0.00802,
				"method": "rhf"
			},
			{
				"type": "unocc",
				"energy": 0.02873,
				"method": "rhf"
			}
		],
		"cosmo_sigma_profile": { 
			"-0.025": 0.0,
			"-0.024": 0.0,
			"-0.023": 0.0,
			"-0.022": 0.0,
			"-0.021": 0.0,
			"-0.02": 0.0,
			"-0.019": 0.0,
			"-0.018": 0.0,
			"-0.017": 0.0,
			"-0.016": 0.0,
			"-0.015": 0.0,
			"-0.014": 0.0,
			"-0.013": 0.0,
			"-0.012": 0.573988471413,
			"-0.011": 1.6214797036,
			"-0.01": 3.1226898098,
			"-0.009": 5.30365581522,
			"-0.008": 8.88217918531,
			"-0.007": 11.7854823766,
			"-0.006": 9.21850018502,
			"-0.005": 10.8017771438,
			"-0.004": 13.2105667323,
			"-0.003": 19.0755797674,
			"-0.002": 18.9064467529,
			"-0.001": 15.7139888766,
			"0.0": 9.35151390006,
			"0.001": 9.09284762674,
			"0.002": 10.0062685866,
			"0.003": 7.71089374351,
			"0.004": 7.13587559078,
			"0.005": 7.69235515571,
			"0.006": 6.21547477928,
			"0.007": 5.42818008985,
			"0.008": 5.09072306991,
			"0.009": 4.97852577997,
			"0.01": 5.82658615775,
			"0.011": 6.91970934873,
			"0.012": 4.75026996701,
			"0.013": 1.30716884636,
			"0.014": 0.787760896671,
			"0.015": 0.843757564111,
			"0.016": 0.902173154761,
			"0.017": 0.093250729225,
			"0.018": 0.0,
			"0.019": 0.0,
			"0.02": 0.0,
			"0.021": 0.0,
			"0.022": 0.0,
			"0.023": 0.0,
			"0.024": 0.0,
			"0.025": 0.0
		}
	}
}
