{
	 "smiles": "BrC(C1=CC=CC=C1)C1=CC=CC=C1", 
	 "Tm": 318.15, 
	 "num_atms": 25, 
	 "gaussian": { 
		 "optdone": 1, 
		 "sigma_profile": "yes", 
		 "theory": "DFT", 
		 "functional": "B3LYP", 
		 "basiset": "6-31G**", 
		 "properties": { 
			 "R2extent": 4980.0876, 
			 "electric_dipole_moment_norm": 2.40723932545, 
			 "electric_quadrupole_moment_norm": 7.18095903136, 
			 "total_energy": -3073.42273372, 
			 "HOMO_LUMO_gap": 0.19665, 
			 "cosmo_polarized_energy": -7.51, 
			 "cosmo_cavitation_energy": 30.66, 
			 "cosmo_dispersion_energy": -22.1, 
			 "cosmo_repulsion_energy": 1.75, 
			 "cosmo_total_nonelectrostatic_energy": 10.31, 
			 "SMD_solvation_energy": 3.88 
		},
		"coords": [
			{
				"x": -2.0156345712,
				"y": -1.0877295336,
				"z": -0.7456822089,
				"element": "Br" 
			},
			{
				"x": -0.6855112891,
				"y": -0.5570922933,
				"z": 0.7019597422,
				"element": "C" 
			},
			{
				"x": 0.713108849,
				"y": -0.9830581356,
				"z": 0.322777004,
				"element": "C" 
			},
			{
				"x": 1.01265263,
				"y": -2.2358728125,
				"z": -0.2289258137,
				"element": "C" 
			},
			{
				"x": 2.3335987167,
				"y": -2.5925271918,
				"z": -0.4988201716,
				"element": "C" 
			},
			{
				"x": 3.3747589865,
				"y": -1.7024030028,
				"z": -0.2265387073,
				"element": "C" 
			},
			{
				"x": 3.0855686239,
				"y": -0.4494918068,
				"z": 0.3147070911,
				"element": "C" 
			},
			{
				"x": 1.7637414987,
				"y": -0.0930188609,
				"z": 0.5849396094,
				"element": "C" 
			},
			{
				"x": -1.2056358275,
				"y": -1.0348635282,
				"z": 2.0365469011,
				"element": "C" 
			},
			{
				"x": -0.7719400234,
				"y": -2.226043802,
				"z": 2.632749139,
				"element": "C" 
			},
			{
				"x": -1.2763021271,
				"y": -2.6210823394,
				"z": 3.8723806854,
				"element": "C" 
			},
			{
				"x": -2.2157322073,
				"y": -1.8311207594,
				"z": 4.5360108696,
				"element": "C" 
			},
			{
				"x": -2.6502177314,
				"y": -0.6386200466,
				"z": 3.9522573421,
				"element": "C" 
			},
			{
				"x": -2.1481780981,
				"y": -0.2458964848,
				"z": 2.7138934212,
				"element": "C" 
			},
			{
				"x": -0.7561548769,
				"y": 0.529264928,
				"z": 0.6593713559,
				"element": "H" 
			},
			{
				"x": 0.2041351404,
				"y": -2.9180398392,
				"z": -0.4706764827,
				"element": "H" 
			},
			{
				"x": 2.5484566878,
				"y": -3.5653332181,
				"z": -0.9317223274,
				"element": "H" 
			},
			{
				"x": 4.4020173303,
				"y": -1.9802104481,
				"z": -0.443736505,
				"element": "H" 
			},
			{
				"x": 3.8860597869,
				"y": 0.2550696012,
				"z": 0.5211360228,
				"element": "H" 
			},
			{
				"x": 1.5459796895,
				"y": 0.8851518534,
				"z": 1.0065173132,
				"element": "H" 
			},
			{
				"x": -0.0303638552,
				"y": -2.8402937815,
				"z": 2.1338738875,
				"element": "H" 
			},
			{
				"x": -0.9286059279,
				"y": -3.5467702485,
				"z": 4.3219809287,
				"element": "H" 
			},
			{
				"x": -2.6040101622,
				"y": -2.1392660244,
				"z": 5.5024495817,
				"element": "H" 
			},
			{
				"x": -3.3779204735,
				"y": -0.014144088,
				"z": 4.4624316212,
				"element": "H" 
			},
			{
				"x": -2.4963707688,
				"y": 0.6775918628,
				"z": 2.2580197004,
				"element": "H" 
			}
		],
		 "valence_orbital": [ 
			{
				"type": "occ",
				"energy": -0.26916,
				"method": "rhf"
			},
			{
				"type": "occ",
				"energy": -0.25648,
				"method": "rhf"
			},
			{
				"type": "occ",
				"energy": -0.25315,
				"method": "rhf"
			},
			{
				"type": "occ",
				"energy": -0.25147,
				"method": "rhf"
			},
			{
				"type": "occ",
				"energy": -0.24055,
				"method": "rhf"
			},
			{
				"type": "unocc",
				"energy": -0.0439,
				"method": "rhf"
			},
			{
				"type": "unocc",
				"energy": -0.00888,
				"method": "rhf"
			},
			{
				"type": "unocc",
				"energy": -0.00762,
				"method": "rhf"
			},
			{
				"type": "unocc",
				"energy": -0.00136,
				"method": "rhf"
			},
			{
				"type": "unocc",
				"energy": 0.03197,
				"method": "rhf"
			}
		],
		"cosmo_sigma_profile": { 
			"-0.025": 0.0,
			"-0.024": 0.0,
			"-0.023": 0.0,
			"-0.022": 0.0,
			"-0.021": 0.0,
			"-0.02": 0.0,
			"-0.019": 0.0,
			"-0.018": 0.0,
			"-0.017": 0.0,
			"-0.016": 0.0,
			"-0.015": 0.0,
			"-0.014": 0.0,
			"-0.013": 0.0,
			"-0.012": 0.0,
			"-0.011": 0.0,
			"-0.01": 0.0,
			"-0.009": 0.00829031619896,
			"-0.008": 2.50020739534,
			"-0.007": 4.4172870756,
			"-0.006": 15.3160634682,
			"-0.005": 19.3275340472,
			"-0.004": 24.4910173719,
			"-0.003": 18.9370685456,
			"-0.002": 15.620771026,
			"-0.001": 14.5937025922,
			"0.0": 14.3552497436,
			"0.001": 15.4895326278,
			"0.002": 16.5043482977,
			"0.003": 20.3840866906,
			"0.004": 22.4007580285,
			"0.005": 28.3359339279,
			"0.006": 12.7159991879,
			"0.007": 3.16738649677,
			"0.008": 0.0,
			"0.009": 0.0,
			"0.01": 0.0,
			"0.011": 0.0,
			"0.012": 0.0,
			"0.013": 0.0,
			"0.014": 0.0,
			"0.015": 0.0,
			"0.016": 0.0,
			"0.017": 0.0,
			"0.018": 0.0,
			"0.019": 0.0,
			"0.02": 0.0,
			"0.021": 0.0,
			"0.022": 0.0,
			"0.023": 0.0,
			"0.024": 0.0,
			"0.025": 0.0
		}
	}
}
