{
	 "smiles": "COC1=CC=C(C(Cl)=O)C(OC)=C1", 
	 "Tm": 332.15, 
	 "num_atms": 22, 
	 "gaussian": { 
		 "optdone": 1, 
		 "sigma_profile": "yes", 
		 "theory": "DFT", 
		 "functional": "B3LYP", 
		 "basiset": "6-31G**", 
		 "properties": { 
			 "R2extent": 3506.5482, 
			 "electric_dipole_moment_norm": 6.09337888696, 
			 "electric_quadrupole_moment_norm": 18.170187542, 
			 "total_energy": -1034.22416896, 
			 "HOMO_LUMO_gap": 0.18023, 
			 "cosmo_polarized_energy": -11.16, 
			 "cosmo_cavitation_energy": 28.12, 
			 "cosmo_dispersion_energy": -20.62, 
			 "cosmo_repulsion_energy": 1.63, 
			 "cosmo_total_nonelectrostatic_energy": 9.14, 
			 "SMD_solvation_energy": 7.07 
		},
		"coords": [
			{
				"x": 2.5976037965,
				"y": -2.1152985587,
				"z": 2.2139208765,
				"element": "C" 
			},
			{
				"x": 1.3154881678,
				"y": -1.4996825428,
				"z": 2.2691655489,
				"element": "O" 
			},
			{
				"x": 1.0089196237,
				"y": -0.5556883957,
				"z": 1.3452811488,
				"element": "C" 
			},
			{
				"x": 1.8679563283,
				"y": -0.1366031795,
				"z": 0.3198725487,
				"element": "C" 
			},
			{
				"x": 1.4197346388,
				"y": 0.8399344105,
				"z": -0.5586084647,
				"element": "C" 
			},
			{
				"x": 0.1368194766,
				"y": 1.4072035529,
				"z": -0.4783387571,
				"element": "C" 
			},
			{
				"x": -0.1572654887,
				"y": 2.4038765762,
				"z": -1.5286092939,
				"element": "C" 
			},
			{
				"x": -1.9040998709,
				"y": 2.6377464285,
				"z": -1.9962671398,
				"element": "Cl" 
			},
			{
				"x": 0.6709275795,
				"y": 3.0058331201,
				"z": -2.1522720314,
				"element": "O" 
			},
			{
				"x": -0.7104211126,
				"y": 0.9914781437,
				"z": 0.5885685745,
				"element": "C" 
			},
			{
				"x": -1.9076309541,
				"y": 1.6007452162,
				"z": 0.7176937564,
				"element": "O" 
			},
			{
				"x": -2.7849251989,
				"y": 1.2004865861,
				"z": 1.7625244309,
				"element": "C" 
			},
			{
				"x": -0.2650408167,
				"y": 0.0135112346,
				"z": 1.4781529983,
				"element": "C" 
			},
			{
				"x": 3.401254515,
				"y": -1.3808714004,
				"z": 2.3445402878,
				"element": "H" 
			},
			{
				"x": 2.6217273513,
				"y": -2.8274463606,
				"z": 3.0394623269,
				"element": "H" 
			},
			{
				"x": 2.7450303788,
				"y": -2.6507919614,
				"z": 1.2684963697,
				"element": "H" 
			},
			{
				"x": 2.8586924142,
				"y": -0.5555155045,
				"z": 0.2006214911,
				"element": "H" 
			},
			{
				"x": 2.0667611311,
				"y": 1.1813691732,
				"z": -1.3588831473,
				"element": "H" 
			},
			{
				"x": -3.6797145733,
				"y": 1.8118277832,
				"z": 1.6431197503,
				"element": "H" 
			},
			{
				"x": -2.3447008457,
				"y": 1.3867364806,
				"z": 2.7496028079,
				"element": "H" 
			},
			{
				"x": -3.0534196657,
				"y": 0.1408398749,
				"z": 1.677362442,
				"element": "H" 
			},
			{
				"x": -0.8790968752,
				"y": -0.3239906771,
				"z": 2.3020934754,
				"element": "H" 
			}
		],
		 "valence_orbital": [ 
			{
				"type": "occ",
				"energy": -0.30058,
				"method": "rhf"
			},
			{
				"type": "occ",
				"energy": -0.29305,
				"method": "rhf"
			},
			{
				"type": "occ",
				"energy": -0.27591,
				"method": "rhf"
			},
			{
				"type": "occ",
				"energy": -0.2479,
				"method": "rhf"
			},
			{
				"type": "occ",
				"energy": -0.23468,
				"method": "rhf"
			},
			{
				"type": "unocc",
				"energy": -0.05445,
				"method": "rhf"
			},
			{
				"type": "unocc",
				"energy": -0.00629,
				"method": "rhf"
			},
			{
				"type": "unocc",
				"energy": 0.02356,
				"method": "rhf"
			},
			{
				"type": "unocc",
				"energy": 0.04774,
				"method": "rhf"
			},
			{
				"type": "unocc",
				"energy": 0.08491,
				"method": "rhf"
			}
		],
		"cosmo_sigma_profile": { 
			"-0.025": 0.0,
			"-0.024": 0.0,
			"-0.023": 0.0,
			"-0.022": 0.0,
			"-0.021": 0.0,
			"-0.02": 0.0,
			"-0.019": 0.0,
			"-0.018": 0.0,
			"-0.017": 0.0,
			"-0.016": 0.0,
			"-0.015": 0.0,
			"-0.014": 0.0,
			"-0.013": 0.0,
			"-0.012": 0.0,
			"-0.011": 0.0,
			"-0.01": 0.0,
			"-0.009": 0.0,
			"-0.008": 0.743541202433,
			"-0.007": 7.36226224235,
			"-0.006": 20.5434528761,
			"-0.005": 20.1492483973,
			"-0.004": 20.2618603489,
			"-0.003": 15.9887717805,
			"-0.002": 11.0962736724,
			"-0.001": 11.8504788507,
			"0.0": 12.5197381028,
			"0.001": 16.5795577396,
			"0.002": 20.3538593942,
			"0.003": 14.489928222,
			"0.004": 12.0317251574,
			"0.005": 12.2355189274,
			"0.006": 8.40688072383,
			"0.007": 6.07684381716,
			"0.008": 6.43064968641,
			"0.009": 6.17726726204,
			"0.01": 2.86516050219,
			"0.011": 0.47993635438,
			"0.012": 0.0,
			"0.013": 0.0,
			"0.014": 0.0,
			"0.015": 0.0,
			"0.016": 0.0,
			"0.017": 0.0,
			"0.018": 0.0,
			"0.019": 0.0,
			"0.02": 0.0,
			"0.021": 0.0,
			"0.022": 0.0,
			"0.023": 0.0,
			"0.024": 0.0,
			"0.025": 0.0
		}
	}
}
