{
	 "smiles": "OC1=CC=C(C=C1)C(=O)C1=CC=CC=C1F", 
	 "Tm": 390.15, 
	 "num_atms": 25, 
	 "gaussian": { 
		 "optdone": 1, 
		 "sigma_profile": "yes", 
		 "theory": "DFT", 
		 "functional": "B3LYP", 
		 "basiset": "6-31G**", 
		 "properties": { 
			 "R2extent": 4218.2146, 
			 "electric_dipole_moment_norm": 1.69502894666, 
			 "electric_quadrupole_moment_norm": 20.9331260812, 
			 "total_energy": -751.086141339, 
			 "HOMO_LUMO_gap": 0.17127, 
			 "cosmo_polarized_energy": -13.66, 
			 "cosmo_cavitation_energy": 30.17, 
			 "cosmo_dispersion_energy": -21.83, 
			 "cosmo_repulsion_energy": 1.67, 
			 "cosmo_total_nonelectrostatic_energy": 10.01, 
			 "SMD_solvation_energy": 6.33 
		},
		"coords": [
			{
				"x": -0.4769061422,
				"y": -4.5966097399,
				"z": -1.5633470138,
				"element": "O" 
			},
			{
				"x": -0.0727613344,
				"y": -3.3012577708,
				"z": -1.4669986091,
				"element": "C" 
			},
			{
				"x": 0.1303340099,
				"y": -2.7836920905,
				"z": -0.1810555524,
				"element": "C" 
			},
			{
				"x": 0.531749514,
				"y": -1.4636813468,
				"z": -0.0262078973,
				"element": "C" 
			},
			{
				"x": 0.7503233872,
				"y": -0.6377818525,
				"z": -1.1422801952,
				"element": "C" 
			},
			{
				"x": 0.5629100037,
				"y": -1.1794184509,
				"z": -2.4246546945,
				"element": "C" 
			},
			{
				"x": 0.1450393665,
				"y": -2.4922378729,
				"z": -2.5919809501,
				"element": "C" 
			},
			{
				"x": 1.2501133473,
				"y": 0.759937826,
				"z": -1.0448080603,
				"element": "C" 
			},
			{
				"x": 1.7638149573,
				"y": 1.311164117,
				"z": -2.0137383956,
				"element": "O" 
			},
			{
				"x": 1.1926666754,
				"y": 1.5177278051,
				"z": 0.2576612388,
				"element": "C" 
			},
			{
				"x": 2.288355223,
				"y": 2.3320593972,
				"z": 0.5901651383,
				"element": "C" 
			},
			{
				"x": 2.2956054127,
				"y": 3.0992140308,
				"z": 1.7510229609,
				"element": "C" 
			},
			{
				"x": 1.1814487943,
				"y": 3.0910879001,
				"z": 2.5958994664,
				"element": "C" 
			},
			{
				"x": 0.0657348959,
				"y": 2.320082406,
				"z": 2.2743264901,
				"element": "C" 
			},
			{
				"x": 0.0894086647,
				"y": 1.5501100378,
				"z": 1.1161403636,
				"element": "C" 
			},
			{
				"x": -1.0179635465,
				"y": 0.837196697,
				"z": 0.8134133132,
				"element": "F" 
			},
			{
				"x": -0.5763572472,
				"y": -4.8326547891,
				"z": -2.4951987074,
				"element": "H" 
			},
			{
				"x": -0.030114508,
				"y": -3.430262711,
				"z": 0.6749504289,
				"element": "H" 
			},
			{
				"x": 0.6973688916,
				"y": -1.0793726892,
				"z": 0.974099364,
				"element": "H" 
			},
			{
				"x": 0.7531861043,
				"y": -0.5445082776,
				"z": -3.2833369118,
				"element": "H" 
			},
			{
				"x": -0.0096482005,
				"y": -2.8965071524,
				"z": -3.5903120936,
				"element": "H" 
			},
			{
				"x": 3.1318004837,
				"y": 2.3449708521,
				"z": -0.0922023528,
				"element": "H" 
			},
			{
				"x": 3.1609130447,
				"y": 3.707604695,
				"z": 1.9943806924,
				"element": "H" 
			},
			{
				"x": 1.174946544,
				"y": 3.6920371859,
				"z": 3.5003250387,
				"element": "H" 
			},
			{
				"x": -0.8244683415,
				"y": 2.3102917935,
				"z": 2.8939369388,
				"element": "H" 
			}
		],
		 "valence_orbital": [ 
			{
				"type": "occ",
				"energy": -0.26767,
				"method": "rhf"
			},
			{
				"type": "occ",
				"energy": -0.26162,
				"method": "rhf"
			},
			{
				"type": "occ",
				"energy": -0.25193,
				"method": "rhf"
			},
			{
				"type": "occ",
				"energy": -0.24576,
				"method": "rhf"
			},
			{
				"type": "occ",
				"energy": -0.23072,
				"method": "rhf"
			},
			{
				"type": "unocc",
				"energy": -0.05945,
				"method": "rhf"
			},
			{
				"type": "unocc",
				"energy": -0.01231,
				"method": "rhf"
			},
			{
				"type": "unocc",
				"energy": -0.00887,
				"method": "rhf"
			},
			{
				"type": "unocc",
				"energy": -0.00321,
				"method": "rhf"
			},
			{
				"type": "unocc",
				"energy": 0.05861,
				"method": "rhf"
			}
		],
		"cosmo_sigma_profile": { 
			"-0.025": 0.0,
			"-0.024": 0.0,
			"-0.023": 0.0,
			"-0.022": 0.0,
			"-0.021": 0.0,
			"-0.02": 0.0,
			"-0.019": 0.154377378009,
			"-0.018": 0.973321823038,
			"-0.017": 1.19462355676,
			"-0.016": 1.2850965742,
			"-0.015": 1.07637286546,
			"-0.014": 0.929584671826,
			"-0.013": 0.832080427059,
			"-0.012": 0.824263542942,
			"-0.011": 1.10931268789,
			"-0.01": 1.16193308326,
			"-0.009": 1.11803217521,
			"-0.008": 1.71030201444,
			"-0.007": 7.15380007631,
			"-0.006": 14.4733751176,
			"-0.005": 15.8100657908,
			"-0.004": 14.1300936101,
			"-0.003": 12.8430858318,
			"-0.002": 13.8462344272,
			"-0.001": 13.4432567507,
			"0.0": 17.2353392138,
			"0.001": 17.2894520324,
			"0.002": 20.3795569885,
			"0.003": 26.4373961719,
			"0.004": 25.4805710937,
			"0.005": 5.82966544774,
			"0.006": 3.5541473872,
			"0.007": 3.02959513428,
			"0.008": 2.99586110687,
			"0.009": 3.69142111863,
			"0.01": 3.52687992969,
			"0.011": 3.60297728709,
			"0.012": 4.24147343457,
			"0.013": 1.13617122441,
			"0.014": 0.00953008258682,
			"0.015": 0.0,
			"0.016": 0.0,
			"0.017": 0.0,
			"0.018": 0.0,
			"0.019": 0.0,
			"0.02": 0.0,
			"0.021": 0.0,
			"0.022": 0.0,
			"0.023": 0.0,
			"0.024": 0.0,
			"0.025": 0.0
		}
	}
}
