{
	 "smiles": "CC(Cl)=C", 
	 "Tm": 135.15, 
	 "num_atms": 9, 
	 "gaussian": { 
		 "optdone": 1, 
		 "sigma_profile": "yes", 
		 "theory": "DFT", 
		 "functional": "B3LYP", 
		 "basiset": "6-31G**", 
		 "properties": { 
			 "R2extent": 1400.5851, 
			 "electric_dipole_moment_norm": 1.80123528724, 
			 "electric_quadrupole_moment_norm": 6.2095433101, 
			 "total_energy": -577.508589245, 
			 "HOMO_LUMO_gap": 0.25959, 
			 "cosmo_polarized_energy": -2.88, 
			 "cosmo_cavitation_energy": 14.23, 
			 "cosmo_dispersion_energy": -10.53, 
			 "cosmo_repulsion_energy": 0.95, 
			 "cosmo_total_nonelectrostatic_energy": 4.65, 
			 "SMD_solvation_energy": 3.22 
		},
		"coords": [
			{
				"x": -0.8869517421,
				"y": 1.27981779,
				"z": 1.08346718,
				"element": "C" 
			},
			{
				"x": -0.395226549,
				"y": 2.2859045734,
				"z": 0.0880613188,
				"element": "C" 
			},
			{
				"x": -1.6659659629,
				"y": 3.3588684586,
				"z": -0.5257496962,
				"element": "Cl" 
			},
			{
				"x": 0.8532219178,
				"y": 2.4304336764,
				"z": -0.3487573649,
				"element": "C" 
			},
			{
				"x": -1.3318520283,
				"y": 1.7759964406,
				"z": 1.9526136608,
				"element": "H" 
			},
			{
				"x": -1.65877591,
				"y": 0.6398200245,
				"z": 0.6427486879,
				"element": "H" 
			},
			{
				"x": -0.0596014007,
				"y": 0.6507359743,
				"z": 1.4226241566,
				"element": "H" 
			},
			{
				"x": 1.1316332085,
				"y": 3.1858200978,
				"z": -1.0734923812,
				"element": "H" 
			},
			{
				"x": 1.6311184669,
				"y": 1.7732029644,
				"z": 0.0272844383,
				"element": "H" 
			}
		],
		 "valence_orbital": [ 
			{
				"type": "occ",
				"energy": -0.39284,
				"method": "rhf"
			},
			{
				"type": "occ",
				"energy": -0.37318,
				"method": "rhf"
			},
			{
				"type": "occ",
				"energy": -0.3412,
				"method": "rhf"
			},
			{
				"type": "occ",
				"energy": -0.30633,
				"method": "rhf"
			},
			{
				"type": "occ",
				"energy": -0.25348,
				"method": "rhf"
			},
			{
				"type": "unocc",
				"energy": 0.00611,
				"method": "rhf"
			},
			{
				"type": "unocc",
				"energy": 0.03435,
				"method": "rhf"
			},
			{
				"type": "unocc",
				"energy": 0.10344,
				"method": "rhf"
			},
			{
				"type": "unocc",
				"energy": 0.13959,
				"method": "rhf"
			},
			{
				"type": "unocc",
				"energy": 0.16084,
				"method": "rhf"
			}
		],
		"cosmo_sigma_profile": { 
			"-0.025": 0.0,
			"-0.024": 0.0,
			"-0.023": 0.0,
			"-0.022": 0.0,
			"-0.021": 0.0,
			"-0.02": 0.0,
			"-0.019": 0.0,
			"-0.018": 0.0,
			"-0.017": 0.0,
			"-0.016": 0.0,
			"-0.015": 0.0,
			"-0.014": 0.0,
			"-0.013": 0.0,
			"-0.012": 0.0,
			"-0.011": 0.0,
			"-0.01": 0.0,
			"-0.009": 0.0,
			"-0.008": 0.0,
			"-0.007": 1.15976032398,
			"-0.006": 5.39374300679,
			"-0.005": 8.63620760762,
			"-0.004": 7.86343062438,
			"-0.003": 9.49091170154,
			"-0.002": 11.0565165497,
			"-0.001": 12.5482726191,
			"0.0": 8.27555241409,
			"0.001": 7.68997795448,
			"0.002": 7.43295789621,
			"0.003": 8.05549028531,
			"0.004": 10.9910711792,
			"0.005": 12.5392215544,
			"0.006": 3.9057125722,
			"0.007": 0.0,
			"0.008": 0.0,
			"0.009": 0.0,
			"0.01": 0.0,
			"0.011": 0.0,
			"0.012": 0.0,
			"0.013": 0.0,
			"0.014": 0.0,
			"0.015": 0.0,
			"0.016": 0.0,
			"0.017": 0.0,
			"0.018": 0.0,
			"0.019": 0.0,
			"0.02": 0.0,
			"0.021": 0.0,
			"0.022": 0.0,
			"0.023": 0.0,
			"0.024": 0.0,
			"0.025": 0.0
		}
	}
}
