{
	 "smiles": "CC1=CC=C(C=C1C)C1=CC=C(C)C(C)=C1", 
	 "Tm": 349.15, 
	 "num_atms": 34, 
	 "gaussian": { 
		 "optdone": 1, 
		 "sigma_profile": "yes", 
		 "theory": "DFT", 
		 "functional": "B3LYP", 
		 "basiset": "6-31G**", 
		 "properties": { 
			 "R2extent": 5274.5839, 
			 "electric_dipole_moment_norm": 0.54127915164, 
			 "electric_quadrupole_moment_norm": 9.10890494297, 
			 "total_energy": -620.590377799, 
			 "HOMO_LUMO_gap": 0.18929, 
			 "cosmo_polarized_energy": -5.65, 
			 "cosmo_cavitation_energy": 36.0, 
			 "cosmo_dispersion_energy": -25.77, 
			 "cosmo_repulsion_energy": 1.98, 
			 "cosmo_total_nonelectrostatic_energy": 12.21, 
			 "SMD_solvation_energy": 5.9 
		},
		"coords": [
			{
				"x": 0.5985820784,
				"y": -4.268196759,
				"z": 2.6457939865,
				"element": "C" 
			},
			{
				"x": 0.4038117085,
				"y": -2.9357930351,
				"z": 1.9630466366,
				"element": "C" 
			},
			{
				"x": 1.4966024255,
				"y": -2.2483394057,
				"z": 1.4245810235,
				"element": "C" 
			},
			{
				"x": 1.3468665986,
				"y": -1.0178811673,
				"z": 0.7884062498,
				"element": "C" 
			},
			{
				"x": 0.0809695636,
				"y": -0.4268970742,
				"z": 0.6703375445,
				"element": "C" 
			},
			{
				"x": -1.01391671,
				"y": -1.1192955062,
				"z": 1.213669071,
				"element": "C" 
			},
			{
				"x": -0.8778071177,
				"y": -2.3541256065,
				"z": 1.8528106896,
				"element": "C" 
			},
			{
				"x": -2.0920715513,
				"y": -3.0466791042,
				"z": 2.4257780878,
				"element": "C" 
			},
			{
				"x": -0.0968414208,
				"y": 0.8842857828,
				"z": -0.0029806402,
				"element": "C" 
			},
			{
				"x": 0.853067156,
				"y": 1.9064337932,
				"z": 0.1334005609,
				"element": "C" 
			},
			{
				"x": 0.6718397811,
				"y": 3.1306358063,
				"z": -0.5066485655,
				"element": "C" 
			},
			{
				"x": -0.4515576898,
				"y": 3.3867353002,
				"z": -1.2997892301,
				"element": "C" 
			},
			{
				"x": -0.6196373734,
				"y": 4.723989714,
				"z": -1.980129022,
				"element": "C" 
			},
			{
				"x": -1.4175423868,
				"y": 2.3678228222,
				"z": -1.4474463974,
				"element": "C" 
			},
			{
				"x": -2.6450916501,
				"y": 2.5855515309,
				"z": -2.3006998931,
				"element": "C" 
			},
			{
				"x": -1.2229671632,
				"y": 1.1444428556,
				"z": -0.8014601045,
				"element": "C" 
			},
			{
				"x": 0.0232320781,
				"y": -5.0642012498,
				"z": 2.1569374866,
				"element": "H" 
			},
			{
				"x": 0.2689081364,
				"y": -4.2411384573,
				"z": 3.6918731127,
				"element": "H" 
			},
			{
				"x": 1.6507248291,
				"y": -4.5651412994,
				"z": 2.6368191336,
				"element": "H" 
			},
			{
				"x": 2.4867137071,
				"y": -2.6923594185,
				"z": 1.4972825926,
				"element": "H" 
			},
			{
				"x": 2.2140014777,
				"y": -0.5260948351,
				"z": 0.357647763,
				"element": "H" 
			},
			{
				"x": -2.0012271354,
				"y": -0.6679386975,
				"z": 1.1584625521,
				"element": "H" 
			},
			{
				"x": -2.9981619216,
				"y": -2.4587836449,
				"z": 2.2572058301,
				"element": "H" 
			},
			{
				"x": -1.9952413905,
				"y": -3.2081392168,
				"z": 3.5064589199,
				"element": "H" 
			},
			{
				"x": -2.2459417338,
				"y": -4.0343661427,
				"z": 1.9738836659,
				"element": "H" 
			},
			{
				"x": 1.7238663945,
				"y": 1.7529150555,
				"z": 0.7638535263,
				"element": "H" 
			},
			{
				"x": 1.4173272151,
				"y": 3.9123101552,
				"z": -0.3801654171,
				"element": "H" 
			},
			{
				"x": -1.5402021351,
				"y": 5.229491453,
				"z": -1.6628413662,
				"element": "H" 
			},
			{
				"x": 0.2188846692,
				"y": 5.3884268697,
				"z": -1.755042946,
				"element": "H" 
			},
			{
				"x": -0.6794747921,
				"y": 4.6205794764,
				"z": -3.0707326133,
				"element": "H" 
			},
			{
				"x": -3.2494265914,
				"y": 3.42453052,
				"z": -1.9341774771,
				"element": "H" 
			},
			{
				"x": -3.2814036321,
				"y": 1.6967146317,
				"z": -2.3112683829,
				"element": "H" 
			},
			{
				"x": -2.3812955175,
				"y": 2.8196402583,
				"z": -3.3394028819,
				"element": "H" 
			},
			{
				"x": -1.959289906,
				"y": 0.3576645952,
				"z": -0.9441634954,
				"element": "H" 
			}
		],
		 "valence_orbital": [ 
			{
				"type": "occ",
				"energy": -0.31948,
				"method": "rhf"
			},
			{
				"type": "occ",
				"energy": -0.2535,
				"method": "rhf"
			},
			{
				"type": "occ",
				"energy": -0.23567,
				"method": "rhf"
			},
			{
				"type": "occ",
				"energy": -0.23522,
				"method": "rhf"
			},
			{
				"type": "occ",
				"energy": -0.20668,
				"method": "rhf"
			},
			{
				"type": "unocc",
				"energy": -0.01739,
				"method": "rhf"
			},
			{
				"type": "unocc",
				"energy": 0.00654,
				"method": "rhf"
			},
			{
				"type": "unocc",
				"energy": 0.01074,
				"method": "rhf"
			},
			{
				"type": "unocc",
				"energy": 0.03736,
				"method": "rhf"
			},
			{
				"type": "unocc",
				"energy": 0.09582,
				"method": "rhf"
			}
		],
		"cosmo_sigma_profile": { 
			"-0.025": 0.0,
			"-0.024": 0.0,
			"-0.023": 0.0,
			"-0.022": 0.0,
			"-0.021": 0.0,
			"-0.02": 0.0,
			"-0.019": 0.0,
			"-0.018": 0.0,
			"-0.017": 0.0,
			"-0.016": 0.0,
			"-0.015": 0.0,
			"-0.014": 0.0,
			"-0.013": 0.0,
			"-0.012": 0.0,
			"-0.011": 0.0,
			"-0.01": 0.0,
			"-0.009": 0.0,
			"-0.008": 0.0,
			"-0.007": 0.0,
			"-0.006": 0.240411737342,
			"-0.005": 9.05992864461,
			"-0.004": 33.0452560489,
			"-0.003": 35.89293276,
			"-0.002": 31.4866879563,
			"-0.001": 27.560302605,
			"0.0": 38.6867439872,
			"0.001": 26.6681288013,
			"0.002": 14.5986778742,
			"0.003": 14.4245053641,
			"0.004": 14.9904717724,
			"0.005": 14.9385059853,
			"0.006": 16.1711530823,
			"0.007": 5.97586009917,
			"0.008": 0.0,
			"0.009": 0.0,
			"0.01": 0.0,
			"0.011": 0.0,
			"0.012": 0.0,
			"0.013": 0.0,
			"0.014": 0.0,
			"0.015": 0.0,
			"0.016": 0.0,
			"0.017": 0.0,
			"0.018": 0.0,
			"0.019": 0.0,
			"0.02": 0.0,
			"0.021": 0.0,
			"0.022": 0.0,
			"0.023": 0.0,
			"0.024": 0.0,
			"0.025": 0.0
		}
	}
}
