{
	 "smiles": "OC(=O)CCCCCNS(=O)(=O)C1=CC2=C(OCCO2)C=C1", 
	 "Tm": 361.15, 
	 "num_atms": 41, 
	 "gaussian": { 
		 "optdone": 1, 
		 "sigma_profile": "yes", 
		 "theory": "DFT", 
		 "functional": "B3LYP", 
		 "basiset": "6-31G**", 
		 "properties": { 
			 "R2extent": 7426.1002, 
			 "electric_dipole_moment_norm": 4.29249954805, 
			 "electric_quadrupole_moment_norm": 32.6070462897, 
			 "total_energy": -1449.1543002, 
			 "HOMO_LUMO_gap": 0.19533, 
			 "cosmo_polarized_energy": -23.71, 
			 "cosmo_cavitation_energy": 43.1, 
			 "cosmo_dispersion_energy": -29.5, 
			 "cosmo_repulsion_energy": 2.18, 
			 "cosmo_total_nonelectrostatic_energy": 15.79, 
			 "SMD_solvation_energy": 7.09 
		},
		"coords": [
			{
				"x": -1.2992987015,
				"y": -0.3879550214,
				"z": -1.518853326,
				"element": "O" 
			},
			{
				"x": -0.5143022891,
				"y": -0.8646225263,
				"z": -2.509755376,
				"element": "C" 
			},
			{
				"x": -0.2710547906,
				"y": -0.1657798389,
				"z": -3.4692010698,
				"element": "O" 
			},
			{
				"x": 0.0303748045,
				"y": -2.278181599,
				"z": -2.3461532824,
				"element": "C" 
			},
			{
				"x": 1.3437985489,
				"y": -2.3293469507,
				"z": -1.5302761538,
				"element": "C" 
			},
			{
				"x": 1.2081171097,
				"y": -1.897579417,
				"z": -0.0613024083,
				"element": "C" 
			},
			{
				"x": 0.3800415879,
				"y": -2.8587271053,
				"z": 0.8165089652,
				"element": "C" 
			},
			{
				"x": -0.329500736,
				"y": -2.1488431868,
				"z": 1.9743367395,
				"element": "C" 
			},
			{
				"x": -1.4604753939,
				"y": -1.3309204715,
				"z": 1.4637689083,
				"element": "N" 
			},
			{
				"x": -1.8764487602,
				"y": 0.092068736,
				"z": 2.3739470036,
				"element": "S" 
			},
			{
				"x": -3.340802349,
				"y": 0.1330580155,
				"z": 2.3061459478,
				"element": "O" 
			},
			{
				"x": -1.1590060531,
				"y": 0.0605800182,
				"z": 3.6531362154,
				"element": "O" 
			},
			{
				"x": -1.1955938902,
				"y": 1.3979699331,
				"z": 1.3782159375,
				"element": "C" 
			},
			{
				"x": -1.9442179427,
				"y": 1.8636953797,
				"z": 0.2986265027,
				"element": "C" 
			},
			{
				"x": -1.3563529357,
				"y": 2.7374965991,
				"z": -0.607306894,
				"element": "C" 
			},
			{
				"x": -0.0219164985,
				"y": 3.1516460967,
				"z": -0.4193613636,
				"element": "C" 
			},
			{
				"x": 0.6117301411,
				"y": 3.9714768548,
				"z": -1.3027559122,
				"element": "O" 
			},
			{
				"x": -0.2000773047,
				"y": 4.4876580998,
				"z": -2.3682190289,
				"element": "C" 
			},
			{
				"x": -1.2292074752,
				"y": 3.4611478356,
				"z": -2.8093131238,
				"element": "C" 
			},
			{
				"x": -2.075782228,
				"y": 3.1398140904,
				"z": -1.697496577,
				"element": "O" 
			},
			{
				"x": 0.6990771345,
				"y": 2.7046095677,
				"z": 0.6930313061,
				"element": "C" 
			},
			{
				"x": 0.1216313404,
				"y": 1.8171806006,
				"z": 1.5954335914,
				"element": "C" 
			},
			{
				"x": -1.3135511354,
				"y": -0.9392081364,
				"z": -0.7120091958,
				"element": "H" 
			},
			{
				"x": -0.7331085068,
				"y": -2.9191161519,
				"z": -1.8897303482,
				"element": "H" 
			},
			{
				"x": 0.2195254234,
				"y": -2.6564880077,
				"z": -3.353353416,
				"element": "H" 
			},
			{
				"x": 2.080564483,
				"y": -1.6903528284,
				"z": -2.0301702723,
				"element": "H" 
			},
			{
				"x": 1.7344295391,
				"y": -3.3534448991,
				"z": -1.5810802821,
				"element": "H" 
			},
			{
				"x": 2.2100445595,
				"y": -1.7985373873,
				"z": 0.372840919,
				"element": "H" 
			},
			{
				"x": 0.7722577877,
				"y": -0.8926427847,
				"z": -0.0209458186,
				"element": "H" 
			},
			{
				"x": 1.029692494,
				"y": -3.6396990796,
				"z": 1.2298692386,
				"element": "H" 
			},
			{
				"x": -0.3735765472,
				"y": -3.3885035596,
				"z": 0.2191869602,
				"element": "H" 
			},
			{
				"x": -0.6842671732,
				"y": -2.8694700705,
				"z": 2.7199637204,
				"element": "H" 
			},
			{
				"x": 0.3624871364,
				"y": -1.4814378813,
				"z": 2.4937990598,
				"element": "H" 
			},
			{
				"x": -2.3294384584,
				"y": -1.8647944688,
				"z": 1.4444235614,
				"element": "H" 
			},
			{
				"x": -2.9569830201,
				"y": 1.5222345917,
				"z": 0.1222854243,
				"element": "H" 
			},
			{
				"x": -0.7039830833,
				"y": 5.4005360006,
				"z": -2.0263980422,
				"element": "H" 
			},
			{
				"x": 0.4879268107,
				"y": 4.7419264963,
				"z": -3.1786717059,
				"element": "H" 
			},
			{
				"x": -0.7528918864,
				"y": 2.5435178861,
				"z": -3.177443958,
				"element": "H" 
			},
			{
				"x": -1.8792181421,
				"y": 3.8707849083,
				"z": -3.5855579709,
				"element": "H" 
			},
			{
				"x": 1.7165069427,
				"y": 3.0583993263,
				"z": 0.8220611822,
				"element": "H" 
			},
			{
				"x": 0.6721494579,
				"y": 1.4616503357,
				"z": 2.4585743423,
				"element": "H" 
			}
		],
		 "valence_orbital": [ 
			{
				"type": "occ",
				"energy": -0.30293,
				"method": "rhf"
			},
			{
				"type": "occ",
				"energy": -0.28587,
				"method": "rhf"
			},
			{
				"type": "occ",
				"energy": -0.26576,
				"method": "rhf"
			},
			{
				"type": "occ",
				"energy": -0.24793,
				"method": "rhf"
			},
			{
				"type": "occ",
				"energy": -0.22345,
				"method": "rhf"
			},
			{
				"type": "unocc",
				"energy": -0.02812,
				"method": "rhf"
			},
			{
				"type": "unocc",
				"energy": -0.01009,
				"method": "rhf"
			},
			{
				"type": "unocc",
				"energy": 0.00881,
				"method": "rhf"
			},
			{
				"type": "unocc",
				"energy": 0.04406,
				"method": "rhf"
			},
			{
				"type": "unocc",
				"energy": 0.06677,
				"method": "rhf"
			}
		],
		"cosmo_sigma_profile": { 
			"-0.025": 0.0,
			"-0.024": 0.0,
			"-0.023": 0.0,
			"-0.022": 0.0,
			"-0.021": 0.0,
			"-0.02": 0.0,
			"-0.019": 0.0,
			"-0.018": 0.0,
			"-0.017": 0.0,
			"-0.016": 0.0,
			"-0.015": 0.0,
			"-0.014": 0.848230937676,
			"-0.013": 1.39850985651,
			"-0.012": 1.65996140946,
			"-0.011": 1.83321633305,
			"-0.01": 2.29338924261,
			"-0.009": 3.02447948525,
			"-0.008": 4.25019919019,
			"-0.007": 14.8411199116,
			"-0.006": 18.9231889156,
			"-0.005": 20.971165667,
			"-0.004": 26.3532901446,
			"-0.003": 35.1851791128,
			"-0.002": 32.0401135693,
			"-0.001": 23.2324408487,
			"0.0": 18.4331458053,
			"0.001": 16.6517512979,
			"0.002": 19.857098659,
			"0.003": 13.2872886627,
			"0.004": 8.7048519191,
			"0.005": 9.28207351322,
			"0.006": 8.83344576943,
			"0.007": 8.65463549463,
			"0.008": 8.7855099108,
			"0.009": 10.8032900229,
			"0.01": 11.4462219782,
			"0.011": 10.9161011776,
			"0.012": 4.770221547,
			"0.013": 1.95794907151,
			"0.014": 0.213652495234,
			"0.015": 0.0,
			"0.016": 0.0,
			"0.017": 0.0,
			"0.018": 0.0,
			"0.019": 0.0,
			"0.02": 0.0,
			"0.021": 0.0,
			"0.022": 0.0,
			"0.023": 0.0,
			"0.024": 0.0,
			"0.025": 0.0
		}
	}
}
