{
	 "smiles": "CC1OC2=C(OC1C(O)=O)C=CC=C2", 
	 "Tm": 380.15, 
	 "num_atms": 24, 
	 "gaussian": { 
		 "optdone": 1, 
		 "sigma_profile": "yes", 
		 "theory": "DFT", 
		 "functional": "B3LYP", 
		 "basiset": "6-31G**", 
		 "properties": { 
			 "R2extent": 2891.8703, 
			 "electric_dipole_moment_norm": 2.64369015204, 
			 "electric_quadrupole_moment_norm": 8.56867043946, 
			 "total_energy": -687.982433424, 
			 "HOMO_LUMO_gap": 0.20177, 
			 "cosmo_polarized_energy": -13.64, 
			 "cosmo_cavitation_energy": 27.41, 
			 "cosmo_dispersion_energy": -20.14, 
			 "cosmo_repulsion_energy": 1.59, 
			 "cosmo_total_nonelectrostatic_energy": 8.86, 
			 "SMD_solvation_energy": 5.92 
		},
		"coords": [
			{
				"x": 2.3773407153,
				"y": -0.5483183114,
				"z": -2.0133271646,
				"element": "C" 
			},
			{
				"x": 1.8430124045,
				"y": 0.5010543873,
				"z": -1.053449795,
				"element": "C" 
			},
			{
				"x": 1.4689251524,
				"y": -0.165240184,
				"z": 0.153245863,
				"element": "O" 
			},
			{
				"x": 0.8875862009,
				"y": 0.6608679634,
				"z": 1.0895207912,
				"element": "C" 
			},
			{
				"x": 0.3105440186,
				"y": 1.8831005132,
				"z": 0.7183951466,
				"element": "C" 
			},
			{
				"x": 0.303472635,
				"y": 2.316233808,
				"z": -0.5912823132,
				"element": "O" 
			},
			{
				"x": 0.6459120657,
				"y": 1.338091313,
				"z": -1.5596510402,
				"element": "C" 
			},
			{
				"x": -0.5835958866,
				"y": 0.4937397259,
				"z": -1.903331287,
				"element": "C" 
			},
			{
				"x": -0.4570134138,
				"y": -0.0595554021,
				"z": -3.135237547,
				"element": "O" 
			},
			{
				"x": -1.5489916434,
				"y": 0.3334888659,
				"z": -1.1991149018,
				"element": "O" 
			},
			{
				"x": -0.259055868,
				"y": 2.7071316131,
				"z": 1.6874040166,
				"element": "C" 
			},
			{
				"x": -0.2677352913,
				"y": 2.3066672244,
				"z": 3.0229854344,
				"element": "C" 
			},
			{
				"x": 0.2879052134,
				"y": 1.0781729177,
				"z": 3.3906856808,
				"element": "C" 
			},
			{
				"x": 0.869324291,
				"y": 0.2584774877,
				"z": 2.4239231223,
				"element": "C" 
			},
			{
				"x": 3.2368265768,
				"y": -1.0461102747,
				"z": -1.5572635588,
				"element": "H" 
			},
			{
				"x": 1.6202300592,
				"y": -1.3006022973,
				"z": -2.2417856982,
				"element": "H" 
			},
			{
				"x": 2.698919542,
				"y": -0.0851786572,
				"z": -2.9505063388,
				"element": "H" 
			},
			{
				"x": 2.6323772033,
				"y": 1.2327797804,
				"z": -0.8239869583,
				"element": "H" 
			},
			{
				"x": 0.9451993723,
				"y": 1.8855443864,
				"z": -2.458469322,
				"element": "H" 
			},
			{
				"x": -1.2585756219,
				"y": -0.5914915295,
				"z": -3.2786018252,
				"element": "H" 
			},
			{
				"x": -0.6971952666,
				"y": 3.6482399459,
				"z": 1.3713744969,
				"element": "H" 
			},
			{
				"x": -0.7158167393,
				"y": 2.9512550932,
				"z": 3.7727797065,
				"element": "H" 
			},
			{
				"x": 0.276684932,
				"y": 0.7602247051,
				"z": 4.4285475366,
				"element": "H" 
			},
			{
				"x": 1.3179193486,
				"y": -0.6960730746,
				"z": 2.6799459551,
				"element": "H" 
			}
		],
		 "valence_orbital": [ 
			{
				"type": "occ",
				"energy": -0.31524,
				"method": "rhf"
			},
			{
				"type": "occ",
				"energy": -0.3016,
				"method": "rhf"
			},
			{
				"type": "occ",
				"energy": -0.28625,
				"method": "rhf"
			},
			{
				"type": "occ",
				"energy": -0.23131,
				"method": "rhf"
			},
			{
				"type": "occ",
				"energy": -0.20932,
				"method": "rhf"
			},
			{
				"type": "unocc",
				"energy": -0.00755,
				"method": "rhf"
			},
			{
				"type": "unocc",
				"energy": 0.00788,
				"method": "rhf"
			},
			{
				"type": "unocc",
				"energy": 0.02089,
				"method": "rhf"
			},
			{
				"type": "unocc",
				"energy": 0.06495,
				"method": "rhf"
			},
			{
				"type": "unocc",
				"energy": 0.08364,
				"method": "rhf"
			}
		],
		"cosmo_sigma_profile": { 
			"-0.025": 0.0,
			"-0.024": 0.0,
			"-0.023": 0.0,
			"-0.022": 0.0,
			"-0.021": 0.0,
			"-0.02": 0.0,
			"-0.019": 0.365724109707,
			"-0.018": 1.01610884435,
			"-0.017": 1.08314522066,
			"-0.016": 0.685626276466,
			"-0.015": 0.753056678124,
			"-0.014": 0.841564823081,
			"-0.013": 0.358743700612,
			"-0.012": 0.518024699263,
			"-0.011": 0.876431505799,
			"-0.01": 0.755456640588,
			"-0.009": 2.54327695357,
			"-0.008": 4.1591082193,
			"-0.007": 5.20460934111,
			"-0.006": 12.0034586934,
			"-0.005": 14.9488806895,
			"-0.004": 16.7297263413,
			"-0.003": 16.8097072363,
			"-0.002": 13.545079856,
			"-0.001": 14.9576460799,
			"0.0": 11.6248273672,
			"0.001": 9.18577865051,
			"0.002": 9.76751202842,
			"0.003": 12.6562974237,
			"0.004": 13.0990430256,
			"0.005": 13.8110425639,
			"0.006": 11.1944959494,
			"0.007": 5.41567679338,
			"0.008": 6.34267282212,
			"0.009": 5.4873943303,
			"0.01": 5.14654764116,
			"0.011": 4.97556198807,
			"0.012": 0.392009459141,
			"0.013": 0.0,
			"0.014": 0.0,
			"0.015": 0.0,
			"0.016": 0.0,
			"0.017": 0.0,
			"0.018": 0.0,
			"0.019": 0.0,
			"0.02": 0.0,
			"0.021": 0.0,
			"0.022": 0.0,
			"0.023": 0.0,
			"0.024": 0.0,
			"0.025": 0.0
		}
	}
}
