{
	 "smiles": "NC1=C(C=C(Cl)C=C1Cl)C#N", 
	 "Tm": 396.15, 
	 "num_atms": 15, 
	 "gaussian": { 
		 "optdone": 1, 
		 "sigma_profile": "yes", 
		 "theory": "DFT", 
		 "functional": "B3LYP", 
		 "basiset": "6-31G**", 
		 "properties": { 
			 "R2extent": 3270.6928, 
			 "electric_dipole_moment_norm": 2.62619108787, 
			 "electric_quadrupole_moment_norm": 10.0763992264, 
			 "total_energy": -1299.03163322, 
			 "HOMO_LUMO_gap": 0.16654, 
			 "cosmo_polarized_energy": -9.86, 
			 "cosmo_cavitation_energy": 24.1, 
			 "cosmo_dispersion_energy": -17.71, 
			 "cosmo_repulsion_energy": 1.43, 
			 "cosmo_total_nonelectrostatic_energy": 7.82, 
			 "SMD_solvation_energy": 4.75 
		},
		"coords": [
			{
				"x": -2.4936648346,
				"y": 1.0946524598,
				"z": -0.8400800792,
				"element": "N" 
			},
			{
				"x": -1.1389737582,
				"y": 1.0128945152,
				"z": -0.9746460959,
				"element": "C" 
			},
			{
				"x": -0.385049249,
				"y": 0.0122131562,
				"z": -0.3007660342,
				"element": "C" 
			},
			{
				"x": 1.0133806255,
				"y": -0.0496706426,
				"z": -0.4010242933,
				"element": "C" 
			},
			{
				"x": 1.6860195785,
				"y": 0.8805784442,
				"z": -1.1787889863,
				"element": "C" 
			},
			{
				"x": 3.4324740672,
				"y": 0.8157388913,
				"z": -1.3139278321,
				"element": "Cl" 
			},
			{
				"x": 0.9797190879,
				"y": 1.8743390912,
				"z": -1.8627021232,
				"element": "C" 
			},
			{
				"x": -0.4024268247,
				"y": 1.9307507995,
				"z": -1.7571617755,
				"element": "C" 
			},
			{
				"x": -1.2727455625,
				"y": 3.1838469365,
				"z": -2.6282768863,
				"element": "Cl" 
			},
			{
				"x": -1.0937545547,
				"y": -0.9468252654,
				"z": 0.4857095223,
				"element": "C" 
			},
			{
				"x": -1.7270662485,
				"y": -1.7035730472,
				"z": 1.1044921854,
				"element": "N" 
			},
			{
				"x": -3.0098898385,
				"y": 1.6822514756,
				"z": -1.4748788192,
				"element": "H" 
			},
			{
				"x": -2.9872358815,
				"y": 0.3268818911,
				"z": -0.4106613172,
				"element": "H" 
			},
			{
				"x": 1.5538597363,
				"y": -0.825589926,
				"z": 0.1275295833,
				"element": "H" 
			},
			{
				"x": 1.5030536569,
				"y": 2.5993112207,
				"z": -2.4744170486,
				"element": "H" 
			}
		],
		 "valence_orbital": [ 
			{
				"type": "occ",
				"energy": -0.34284,
				"method": "rhf"
			},
			{
				"type": "occ",
				"energy": -0.32648,
				"method": "rhf"
			},
			{
				"type": "occ",
				"energy": -0.31518,
				"method": "rhf"
			},
			{
				"type": "occ",
				"energy": -0.2756,
				"method": "rhf"
			},
			{
				"type": "occ",
				"energy": -0.23085,
				"method": "rhf"
			},
			{
				"type": "unocc",
				"energy": -0.06431,
				"method": "rhf"
			},
			{
				"type": "unocc",
				"energy": -0.02383,
				"method": "rhf"
			},
			{
				"type": "unocc",
				"energy": -0.00742,
				"method": "rhf"
			},
			{
				"type": "unocc",
				"energy": 0.01127,
				"method": "rhf"
			},
			{
				"type": "unocc",
				"energy": 0.04699,
				"method": "rhf"
			}
		],
		"cosmo_sigma_profile": { 
			"-0.025": 0.0,
			"-0.024": 0.0,
			"-0.023": 0.0,
			"-0.022": 0.0,
			"-0.021": 0.0,
			"-0.02": 0.0,
			"-0.019": 0.0,
			"-0.018": 0.0,
			"-0.017": 0.0,
			"-0.016": 0.0,
			"-0.015": 0.0156565824483,
			"-0.014": 0.835433793226,
			"-0.013": 1.645557655,
			"-0.012": 2.07143102985,
			"-0.011": 2.53249718067,
			"-0.01": 1.77806719681,
			"-0.009": 4.65844679276,
			"-0.008": 4.90514846091,
			"-0.007": 5.8682944511,
			"-0.006": 5.00840976279,
			"-0.005": 5.41481253953,
			"-0.004": 6.53603391721,
			"-0.003": 9.03925961739,
			"-0.002": 12.5568798446,
			"-0.001": 19.0248027929,
			"0.0": 24.6124606922,
			"0.001": 22.4025160749,
			"0.002": 12.3950744326,
			"0.003": 15.8823287383,
			"0.004": 16.2959101578,
			"0.005": 5.15610430157,
			"0.006": 2.94758084154,
			"0.007": 2.85975489915,
			"0.008": 3.61350024685,
			"0.009": 2.67224928444,
			"0.01": 3.20443253051,
			"0.011": 2.33791086522,
			"0.012": 2.39524608387,
			"0.013": 0.878634380933,
			"0.014": 0.0,
			"0.015": 0.0,
			"0.016": 0.0,
			"0.017": 0.0,
			"0.018": 0.0,
			"0.019": 0.0,
			"0.02": 0.0,
			"0.021": 0.0,
			"0.022": 0.0,
			"0.023": 0.0,
			"0.024": 0.0,
			"0.025": 0.0
		}
	}
}
