{
	 "smiles": "O=C(C1=CC=C(C=C1)C1=CC=CC=C1)C1=CC=C(C=C1)C1=CC=CC=C1", 
	 "Tm": 510.65, 
	 "num_atms": 44, 
	 "gaussian": { 
		 "optdone": 1, 
		 "sigma_profile": "yes", 
		 "theory": "DFT", 
		 "functional": "B3LYP", 
		 "basiset": "6-31G**", 
		 "properties": { 
			 "R2extent": 17403.0283, 
			 "electric_dipole_moment_norm": 3.26869053904, 
			 "electric_quadrupole_moment_norm": 24.2356448175, 
			 "total_energy": -1038.75426725, 
			 "HOMO_LUMO_gap": 0.16123, 
			 "cosmo_polarized_energy": -12.43, 
			 "cosmo_cavitation_energy": 48.58, 
			 "cosmo_dispersion_energy": -34.87, 
			 "cosmo_repulsion_energy": 2.57, 
			 "cosmo_total_nonelectrostatic_energy": 16.28, 
			 "SMD_solvation_energy": 8.0 
		},
		"coords": [
			{
				"x": -3.8065704573,
				"y": -1.0144465924,
				"z": -1.1505687334,
				"element": "O" 
			},
			{
				"x": -2.6558371616,
				"y": -0.708313198,
				"z": -0.8520601736,
				"element": "C" 
			},
			{
				"x": -1.5193594274,
				"y": -1.5858811727,
				"z": -1.2824860681,
				"element": "C" 
			},
			{
				"x": -1.7895567882,
				"y": -2.944142881,
				"z": -1.5152295909,
				"element": "C" 
			},
			{
				"x": -0.7924756235,
				"y": -3.8012614206,
				"z": -1.961385071,
				"element": "C" 
			},
			{
				"x": 0.508963128,
				"y": -3.3291072777,
				"z": -2.2179855605,
				"element": "C" 
			},
			{
				"x": 0.7667855845,
				"y": -1.9637845821,
				"z": -2.0100422127,
				"element": "C" 
			},
			{
				"x": -0.2272282175,
				"y": -1.1058468335,
				"z": -1.5455875361,
				"element": "C" 
			},
			{
				"x": 1.5732971378,
				"y": -4.2446141584,
				"z": -2.6993372336,
				"element": "C" 
			},
			{
				"x": 2.5207349524,
				"y": -3.8175776088,
				"z": -3.6458880678,
				"element": "C" 
			},
			{
				"x": 3.5199074688,
				"y": -4.6785298778,
				"z": -4.0970211937,
				"element": "C" 
			},
			{
				"x": 3.5944820908,
				"y": -5.9853623816,
				"z": -3.6110630442,
				"element": "C" 
			},
			{
				"x": 2.660325172,
				"y": -6.423796028,
				"z": -2.6705755336,
				"element": "C" 
			},
			{
				"x": 1.6604295349,
				"y": -5.5632245552,
				"z": -2.2202107424,
				"element": "C" 
			},
			{
				"x": -2.4020561661,
				"y": 0.5391894183,
				"z": -0.06057125,
				"element": "C" 
			},
			{
				"x": -3.3521956075,
				"y": 1.5703109752,
				"z": -0.1376191614,
				"element": "C" 
			},
			{
				"x": -3.2014150378,
				"y": 2.7331245168,
				"z": 0.6061175325,
				"element": "C" 
			},
			{
				"x": -2.109309236,
				"y": 2.8997586228,
				"z": 1.4789852878,
				"element": "C" 
			},
			{
				"x": -1.1767637569,
				"y": 1.8530059376,
				"z": 1.5738384919,
				"element": "C" 
			},
			{
				"x": -1.3148944895,
				"y": 0.6945621964,
				"z": 0.8132250304,
				"element": "C" 
			},
			{
				"x": -1.9517348097,
				"y": 4.139080287,
				"z": 2.2801841801,
				"element": "C" 
			},
			{
				"x": -0.6800095219,
				"y": 4.69002045,
				"z": 2.5146597559,
				"element": "C" 
			},
			{
				"x": -0.5317221648,
				"y": 5.8539803072,
				"z": 3.2672350707,
				"element": "C" 
			},
			{
				"x": -1.6520017463,
				"y": 6.4923873152,
				"z": 3.8028069989,
				"element": "C" 
			},
			{
				"x": -2.9217491208,
				"y": 5.9566657781,
				"z": 3.5786482158,
				"element": "C" 
			},
			{
				"x": -3.0701383007,
				"y": 4.7932895879,
				"z": 2.8252154752,
				"element": "C" 
			},
			{
				"x": -2.799299636,
				"y": -3.3043608731,
				"z": -1.3484433709,
				"element": "H" 
			},
			{
				"x": -1.0269031625,
				"y": -4.8452419962,
				"z": -2.1462113886,
				"element": "H" 
			},
			{
				"x": 1.7636933159,
				"y": -1.5743230751,
				"z": -2.1926926302,
				"element": "H" 
			},
			{
				"x": 0.000402664,
				"y": -0.0545811525,
				"z": -1.4046911407,
				"element": "H" 
			},
			{
				"x": 2.4553721482,
				"y": -2.8121403279,
				"z": -4.0510293929,
				"element": "H" 
			},
			{
				"x": 4.236015551,
				"y": -4.3304883971,
				"z": -4.8360565924,
				"element": "H" 
			},
			{
				"x": 4.3730489924,
				"y": -6.6560949131,
				"z": -3.9625418384,
				"element": "H" 
			},
			{
				"x": 2.7142913701,
				"y": -7.4360985005,
				"z": -2.2801564127,
				"element": "H" 
			},
			{
				"x": 0.9546280479,
				"y": -5.9063690002,
				"z": -1.4696083219,
				"element": "H" 
			},
			{
				"x": -4.2026962496,
				"y": 1.4390796182,
				"z": -0.7983410888,
				"element": "H" 
			},
			{
				"x": -3.9255707577,
				"y": 3.5349965332,
				"z": 0.4987015845,
				"element": "H" 
			},
			{
				"x": -0.3508723272,
				"y": 1.935442745,
				"z": 2.2738101222,
				"element": "H" 
			},
			{
				"x": -0.5925871699,
				"y": -0.1066584446,
				"z": 0.9285091526,
				"element": "H" 
			},
			{
				"x": 0.1953701847,
				"y": 4.2159683447,
				"z": 2.0806221432,
				"element": "H" 
			},
			{
				"x": 0.4598674411,
				"y": 6.2673913676,
				"z": 3.4284101637,
				"element": "H" 
			},
			{
				"x": -1.5366110048,
				"y": 7.3991282534,
				"z": 4.3894040183,
				"element": "H" 
			},
			{
				"x": -3.7990642673,
				"y": 6.4407922312,
				"z": 3.9981927438,
				"element": "H" 
			},
			{
				"x": -4.0597925762,
				"y": 4.3707707622,
				"z": 2.6793373829,
				"element": "H" 
			}
		],
		 "valence_orbital": [ 
			{
				"type": "occ",
				"energy": -0.25522,
				"method": "rhf"
			},
			{
				"type": "occ",
				"energy": -0.25514,
				"method": "rhf"
			},
			{
				"type": "occ",
				"energy": -0.24686,
				"method": "rhf"
			},
			{
				"type": "occ",
				"energy": -0.22997,
				"method": "rhf"
			},
			{
				"type": "occ",
				"energy": -0.22934,
				"method": "rhf"
			},
			{
				"type": "unocc",
				"energy": -0.06811,
				"method": "rhf"
			},
			{
				"type": "unocc",
				"energy": -0.03568,
				"method": "rhf"
			},
			{
				"type": "unocc",
				"energy": -0.01326,
				"method": "rhf"
			},
			{
				"type": "unocc",
				"energy": -0.00829,
				"method": "rhf"
			},
			{
				"type": "unocc",
				"energy": -0.00574,
				"method": "rhf"
			}
		],
		"cosmo_sigma_profile": { 
			"-0.025": 0.0,
			"-0.024": 0.0,
			"-0.023": 0.0,
			"-0.022": 0.0,
			"-0.021": 0.0,
			"-0.02": 0.0,
			"-0.019": 0.0,
			"-0.018": 0.0,
			"-0.017": 0.0,
			"-0.016": 0.0,
			"-0.015": 0.0,
			"-0.014": 0.0,
			"-0.013": 0.0,
			"-0.012": 0.0,
			"-0.011": 0.0,
			"-0.01": 0.0,
			"-0.009": 0.0,
			"-0.008": 0.0,
			"-0.007": 0.63846084547,
			"-0.006": 24.3459257489,
			"-0.005": 37.8817122186,
			"-0.004": 37.3052336256,
			"-0.003": 34.9441827432,
			"-0.002": 25.4049895755,
			"-0.001": 26.1486753171,
			"0.0": 24.4519097514,
			"0.001": 26.6593829287,
			"0.002": 33.4224640706,
			"0.003": 39.0747459123,
			"0.004": 35.0289279749,
			"0.005": 21.8742098491,
			"0.006": 8.1874778565,
			"0.007": 1.87393962659,
			"0.008": 2.00570747849,
			"0.009": 1.72655710918,
			"0.01": 1.99202893127,
			"0.011": 2.55838610762,
			"0.012": 4.16437760518,
			"0.013": 1.27186056677,
			"0.014": 0.0,
			"0.015": 0.0,
			"0.016": 0.0,
			"0.017": 0.0,
			"0.018": 0.0,
			"0.019": 0.0,
			"0.02": 0.0,
			"0.021": 0.0,
			"0.022": 0.0,
			"0.023": 0.0,
			"0.024": 0.0,
			"0.025": 0.0
		}
	}
}
