{
	 "smiles": "S=C1NCCCCN1", 
	 "Tm": 452.15, 
	 "num_atms": 18, 
	 "gaussian": { 
		 "optdone": 1, 
		 "sigma_profile": "yes", 
		 "theory": "DFT", 
		 "functional": "B3LYP", 
		 "basiset": "6-31G**", 
		 "properties": { 
			 "R2extent": 1471.779, 
			 "electric_dipole_moment_norm": 6.02982528271, 
			 "electric_quadrupole_moment_norm": 16.1808741022, 
			 "total_energy": -704.264101, 
			 "HOMO_LUMO_gap": 0.19807, 
			 "cosmo_polarized_energy": -16.27, 
			 "cosmo_cavitation_energy": 21.19, 
			 "cosmo_dispersion_energy": -16.79, 
			 "cosmo_repulsion_energy": 1.36, 
			 "cosmo_total_nonelectrostatic_energy": 5.76, 
			 "SMD_solvation_energy": 0.92 
		},
		"coords": [
			{
				"x": 2.7518797034,
				"y": -1.0426513213,
				"z": -1.9644211664,
				"element": "S" 
			},
			{
				"x": 1.5256548058,
				"y": -0.7446317128,
				"z": -0.8401614539,
				"element": "C" 
			},
			{
				"x": 1.8129338155,
				"y": -0.2220604121,
				"z": 0.3854964429,
				"element": "N" 
			},
			{
				"x": 0.9468643576,
				"y": 0.4989903919,
				"z": 1.3351826432,
				"element": "C" 
			},
			{
				"x": -0.3140770089,
				"y": 1.1027004153,
				"z": 0.7068476756,
				"element": "C" 
			},
			{
				"x": -1.409053531,
				"y": 0.0626852147,
				"z": 0.4073577891,
				"element": "C" 
			},
			{
				"x": -0.8159709938,
				"y": -1.2487504493,
				"z": -0.1235896984,
				"element": "C" 
			},
			{
				"x": 0.2238368304,
				"y": -1.0286198095,
				"z": -1.1285446681,
				"element": "N" 
			},
			{
				"x": 2.8061315309,
				"y": -0.0795988869,
				"z": 0.4988580788,
				"element": "H" 
			},
			{
				"x": 1.5599746697,
				"y": 1.3048990097,
				"z": 1.751090528,
				"element": "H" 
			},
			{
				"x": 0.675849029,
				"y": -0.1529578516,
				"z": 2.1781705074,
				"element": "H" 
			},
			{
				"x": -0.7086700866,
				"y": 1.8644042698,
				"z": 1.3883427622,
				"element": "H" 
			},
			{
				"x": -0.0281516818,
				"y": 1.6230011333,
				"z": -0.213082532,
				"element": "H" 
			},
			{
				"x": -1.9820779426,
				"y": -0.1610202196,
				"z": 1.3159622913,
				"element": "H" 
			},
			{
				"x": -2.1149652651,
				"y": 0.4795943452,
				"z": -0.3193868018,
				"element": "H" 
			},
			{
				"x": -1.5941049127,
				"y": -1.8644783629,
				"z": -0.5825610574,
				"element": "H" 
			},
			{
				"x": -0.3975312722,
				"y": -1.8363572868,
				"z": 0.7039625878,
				"element": "H" 
			},
			{
				"x": 0.1133779525,
				"y": -1.458148467,
				"z": -2.0349239283,
				"element": "H" 
			}
		],
		 "valence_orbital": [ 
			{
				"type": "occ",
				"energy": -0.3497,
				"method": "rhf"
			},
			{
				"type": "occ",
				"energy": -0.34172,
				"method": "rhf"
			},
			{
				"type": "occ",
				"energy": -0.25362,
				"method": "rhf"
			},
			{
				"type": "occ",
				"energy": -0.20238,
				"method": "rhf"
			},
			{
				"type": "occ",
				"energy": -0.19291,
				"method": "rhf"
			},
			{
				"type": "unocc",
				"energy": 0.00516,
				"method": "rhf"
			},
			{
				"type": "unocc",
				"energy": 0.05183,
				"method": "rhf"
			},
			{
				"type": "unocc",
				"energy": 0.08772,
				"method": "rhf"
			},
			{
				"type": "unocc",
				"energy": 0.10106,
				"method": "rhf"
			},
			{
				"type": "unocc",
				"energy": 0.11038,
				"method": "rhf"
			}
		],
		"cosmo_sigma_profile": { 
			"-0.025": 0.0,
			"-0.024": 0.0,
			"-0.023": 0.0,
			"-0.022": 0.0,
			"-0.021": 0.0,
			"-0.02": 0.0,
			"-0.019": 0.0,
			"-0.018": 0.0,
			"-0.017": 0.0,
			"-0.016": 0.0,
			"-0.015": 0.0,
			"-0.014": 0.622901452166,
			"-0.013": 2.02575467121,
			"-0.012": 1.8703770855,
			"-0.011": 1.9221755173,
			"-0.01": 2.05597779167,
			"-0.009": 1.84177662091,
			"-0.008": 2.72550371748,
			"-0.007": 2.54350972272,
			"-0.006": 5.59683150859,
			"-0.005": 10.4267149767,
			"-0.004": 17.9169648111,
			"-0.003": 24.8367898944,
			"-0.002": 18.7967279347,
			"-0.001": 12.3805043732,
			"0.0": 7.72575750552,
			"0.001": 3.82567561101,
			"0.002": 3.07041170303,
			"0.003": 2.79284507776,
			"0.004": 4.08741107986,
			"0.005": 3.80204467566,
			"0.006": 3.13640824723,
			"0.007": 3.42642347742,
			"0.008": 3.43228621996,
			"0.009": 2.64918836365,
			"0.01": 3.56399287061,
			"0.011": 5.77067267478,
			"0.012": 7.57742697962,
			"0.013": 6.54967018911,
			"0.014": 0.829903704117,
			"0.015": 0.0,
			"0.016": 0.0,
			"0.017": 0.0,
			"0.018": 0.0,
			"0.019": 0.0,
			"0.02": 0.0,
			"0.021": 0.0,
			"0.022": 0.0,
			"0.023": 0.0,
			"0.024": 0.0,
			"0.025": 0.0
		}
	}
}
