{
	 "smiles": "CC1=C2C(=O)C(=O)C2=CC=C1", 
	 "Tm": 394.15, 
	 "num_atms": 17, 
	 "gaussian": { 
		 "optdone": 1, 
		 "sigma_profile": "yes", 
		 "theory": "DFT", 
		 "functional": "B3LYP", 
		 "basiset": "6-31G**", 
		 "properties": { 
			 "R2extent": 2326.9226, 
			 "electric_dipole_moment_norm": 5.9204173282, 
			 "electric_quadrupole_moment_norm": 17.4846123466, 
			 "total_energy": -496.976057079, 
			 "HOMO_LUMO_gap": 0.14644, 
			 "cosmo_polarized_energy": -11.22, 
			 "cosmo_cavitation_energy": 22.56, 
			 "cosmo_dispersion_energy": -16.13, 
			 "cosmo_repulsion_energy": 1.31, 
			 "cosmo_total_nonelectrostatic_energy": 7.73, 
			 "SMD_solvation_energy": 5.38 
		},
		"coords": [
			{
				"x": -0.2501980355,
				"y": -2.9107666685,
				"z": -0.5970927255,
				"element": "C" 
			},
			{
				"x": -0.617430415,
				"y": -1.4986639258,
				"z": -0.2257472511,
				"element": "C" 
			},
			{
				"x": -0.7956175445,
				"y": -1.087997306,
				"z": 1.1008204106,
				"element": "C" 
			},
			{
				"x": -0.7245468096,
				"y": -1.5688838482,
				"z": 2.5236686606,
				"element": "C" 
			},
			{
				"x": -0.4615567084,
				"y": -2.5975664267,
				"z": 3.0882068516,
				"element": "O" 
			},
			{
				"x": -1.1451528369,
				"y": -0.0840218445,
				"z": 2.9397726194,
				"element": "C" 
			},
			{
				"x": -1.3522977621,
				"y": 0.5145546722,
				"z": 3.9600227346,
				"element": "O" 
			},
			{
				"x": -1.1604992227,
				"y": 0.2201572297,
				"z": 1.461320119,
				"element": "C" 
			},
			{
				"x": -1.3741750905,
				"y": 1.217772268,
				"z": 0.5133799633,
				"element": "C" 
			},
			{
				"x": -1.196298143,
				"y": 0.8285342548,
				"z": -0.8159882584,
				"element": "C" 
			},
			{
				"x": -0.8278812574,
				"y": -0.4866286384,
				"z": -1.1717439006,
				"element": "C" 
			},
			{
				"x": 0.4050514855,
				"y": -3.35634539,
				"z": 0.1557817526,
				"element": "H" 
			},
			{
				"x": 0.2464935218,
				"y": -2.9525922768,
				"z": -1.570280737,
				"element": "H" 
			},
			{
				"x": -1.1469381899,
				"y": -3.5396957997,
				"z": -0.6539578571,
				"element": "H" 
			},
			{
				"x": -1.6550448882,
				"y": 2.2315909399,
				"z": 0.7784391093,
				"element": "H" 
			},
			{
				"x": -1.3405915687,
				"y": 1.5557236255,
				"z": -1.6104112777,
				"element": "H" 
			},
			{
				"x": -0.7007165347,
				"y": -0.7185708654,
				"z": -2.2265902135,
				"element": "H" 
			}
		],
		 "valence_orbital": [ 
			{
				"type": "occ",
				"energy": -0.36481,
				"method": "rhf"
			},
			{
				"type": "occ",
				"energy": -0.31493,
				"method": "rhf"
			},
			{
				"type": "occ",
				"energy": -0.28445,
				"method": "rhf"
			},
			{
				"type": "occ",
				"energy": -0.27716,
				"method": "rhf"
			},
			{
				"type": "occ",
				"energy": -0.23501,
				"method": "rhf"
			},
			{
				"type": "unocc",
				"energy": -0.08857,
				"method": "rhf"
			},
			{
				"type": "unocc",
				"energy": -0.06159,
				"method": "rhf"
			},
			{
				"type": "unocc",
				"energy": 0.00694,
				"method": "rhf"
			},
			{
				"type": "unocc",
				"energy": 0.05532,
				"method": "rhf"
			},
			{
				"type": "unocc",
				"energy": 0.08159,
				"method": "rhf"
			}
		],
		"cosmo_sigma_profile": { 
			"-0.025": 0.0,
			"-0.024": 0.0,
			"-0.023": 0.0,
			"-0.022": 0.0,
			"-0.021": 0.0,
			"-0.02": 0.0,
			"-0.019": 0.0,
			"-0.018": 0.0,
			"-0.017": 0.0,
			"-0.016": 0.0,
			"-0.015": 0.0,
			"-0.014": 0.0,
			"-0.013": 0.0,
			"-0.012": 0.0,
			"-0.011": 0.0,
			"-0.01": 0.0,
			"-0.009": 0.0350450317215,
			"-0.008": 3.22968216629,
			"-0.007": 8.73808523395,
			"-0.006": 11.4956611264,
			"-0.005": 13.2176970874,
			"-0.004": 12.8669073822,
			"-0.003": 15.5168911806,
			"-0.002": 18.6463269584,
			"-0.001": 18.37772881,
			"0.0": 15.2964451519,
			"0.001": 14.2582647765,
			"0.002": 6.9794021171,
			"0.003": 2.22651448824,
			"0.004": 3.95919482486,
			"0.005": 2.73289424312,
			"0.006": 3.44596141804,
			"0.007": 3.4905748906,
			"0.008": 4.73455851062,
			"0.009": 6.2864407061,
			"0.01": 9.73183368228,
			"0.011": 6.27454982266,
			"0.012": 0.399827407008,
			"0.013": 0.0,
			"0.014": 0.0,
			"0.015": 0.0,
			"0.016": 0.0,
			"0.017": 0.0,
			"0.018": 0.0,
			"0.019": 0.0,
			"0.02": 0.0,
			"0.021": 0.0,
			"0.022": 0.0,
			"0.023": 0.0,
			"0.024": 0.0,
			"0.025": 0.0
		}
	}
}
