{
	 "smiles": "CCC(=O)OC1=C2C=CC=CC2=CC=C1", 
	 "Tm": 307.65, 
	 "num_atms": 27, 
	 "gaussian": { 
		 "optdone": 1, 
		 "sigma_profile": "yes", 
		 "theory": "DFT", 
		 "functional": "B3LYP", 
		 "basiset": "6-31G**", 
		 "properties": { 
			 "R2extent": 3596.628, 
			 "electric_dipole_moment_norm": 1.79761018577, 
			 "electric_quadrupole_moment_norm": 14.4393104323, 
			 "total_energy": -653.086655089, 
			 "HOMO_LUMO_gap": 0.17181, 
			 "cosmo_polarized_energy": -8.53, 
			 "cosmo_cavitation_energy": 30.99, 
			 "cosmo_dispersion_energy": -22.1, 
			 "cosmo_repulsion_energy": 1.72, 
			 "cosmo_total_nonelectrostatic_energy": 10.62, 
			 "SMD_solvation_energy": 6.04 
		},
		"coords": [
			{
				"x": -1.272959209,
				"y": -0.6558961315,
				"z": 4.3074147932,
				"element": "C" 
			},
			{
				"x": -2.3988431594,
				"y": -1.0618345699,
				"z": 3.3457667157,
				"element": "C" 
			},
			{
				"x": -2.1656498183,
				"y": -0.6696988671,
				"z": 1.9005104565,
				"element": "C" 
			},
			{
				"x": -2.9472083194,
				"y": -0.0757662725,
				"z": 1.2002790063,
				"element": "O" 
			},
			{
				"x": -0.9333240575,
				"y": -1.1113834766,
				"z": 1.4817387036,
				"element": "O" 
			},
			{
				"x": -0.5007756282,
				"y": -0.9050006533,
				"z": 0.170092724,
				"element": "C" 
			},
			{
				"x": 0.8248274086,
				"y": -0.4052906773,
				"z": 0.0235253763,
				"element": "C" 
			},
			{
				"x": 1.6469532126,
				"y": -0.0586899599,
				"z": 1.1289817229,
				"element": "C" 
			},
			{
				"x": 2.9227709027,
				"y": 0.4192526839,
				"z": 0.929442901,
				"element": "C" 
			},
			{
				"x": 3.4370982069,
				"y": 0.5702542766,
				"z": -0.3812984354,
				"element": "C" 
			},
			{
				"x": 2.6625335288,
				"y": 0.2414836845,
				"z": -1.4702154921,
				"element": "C" 
			},
			{
				"x": 1.3401488032,
				"y": -0.2529508676,
				"z": -1.3059890224,
				"element": "C" 
			},
			{
				"x": 0.5209385994,
				"y": -0.5950447689,
				"z": -2.4147215255,
				"element": "C" 
			},
			{
				"x": -0.7545531169,
				"y": -1.0726223255,
				"z": -2.220987055,
				"element": "C" 
			},
			{
				"x": -1.2771450295,
				"y": -1.2346803844,
				"z": -0.9164984746,
				"element": "C" 
			},
			{
				"x": -0.3346426819,
				"y": -1.1499702829,
				"z": 4.0450715826,
				"element": "H" 
			},
			{
				"x": -1.108338952,
				"y": 0.4259743321,
				"z": 4.2910467872,
				"element": "H" 
			},
			{
				"x": -1.5329987958,
				"y": -0.9391278629,
				"z": 5.331476745,
				"element": "H" 
			},
			{
				"x": -2.5268462408,
				"y": -2.1517293064,
				"z": 3.370362464,
				"element": "H" 
			},
			{
				"x": -3.3513764559,
				"y": -0.6129170027,
				"z": 3.6361589938,
				"element": "H" 
			},
			{
				"x": 1.2524495254,
				"y": -0.1753479057,
				"z": 2.1316713187,
				"element": "H" 
			},
			{
				"x": 3.5413414743,
				"y": 0.6829282344,
				"z": 1.7824766704,
				"element": "H" 
			},
			{
				"x": 4.4457695997,
				"y": 0.9471930753,
				"z": -0.5235074774,
				"element": "H" 
			},
			{
				"x": 3.0521305032,
				"y": 0.356371785,
				"z": -2.4784018225,
				"element": "H" 
			},
			{
				"x": 0.9189341555,
				"y": -0.4732805982,
				"z": -3.4183610011,
				"element": "H" 
			},
			{
				"x": -1.3769628105,
				"y": -1.3321943381,
				"z": -3.0719608363,
				"element": "H" 
			},
			{
				"x": -2.2835716453,
				"y": -1.6060318205,
				"z": -0.772475819,
				"element": "H" 
			}
		],
		 "valence_orbital": [ 
			{
				"type": "occ",
				"energy": -0.31637,
				"method": "rhf"
			},
			{
				"type": "occ",
				"energy": -0.27728,
				"method": "rhf"
			},
			{
				"type": "occ",
				"energy": -0.2729,
				"method": "rhf"
			},
			{
				"type": "occ",
				"energy": -0.2446,
				"method": "rhf"
			},
			{
				"type": "occ",
				"energy": -0.21259,
				"method": "rhf"
			},
			{
				"type": "unocc",
				"energy": -0.04078,
				"method": "rhf"
			},
			{
				"type": "unocc",
				"energy": -0.01027,
				"method": "rhf"
			},
			{
				"type": "unocc",
				"energy": 0.00304,
				"method": "rhf"
			},
			{
				"type": "unocc",
				"energy": 0.038,
				"method": "rhf"
			},
			{
				"type": "unocc",
				"energy": 0.08566,
				"method": "rhf"
			}
		],
		"cosmo_sigma_profile": { 
			"-0.025": 0.0,
			"-0.024": 0.0,
			"-0.023": 0.0,
			"-0.022": 0.0,
			"-0.021": 0.0,
			"-0.02": 0.0,
			"-0.019": 0.0,
			"-0.018": 0.0,
			"-0.017": 0.0,
			"-0.016": 0.0,
			"-0.015": 0.0,
			"-0.014": 0.0,
			"-0.013": 0.0,
			"-0.012": 0.0,
			"-0.011": 0.0,
			"-0.01": 0.0,
			"-0.009": 0.0,
			"-0.008": 0.0,
			"-0.007": 1.30129545895,
			"-0.006": 14.3511706786,
			"-0.005": 17.2416421765,
			"-0.004": 25.8099593696,
			"-0.003": 25.3978999641,
			"-0.002": 23.9675043663,
			"-0.001": 21.2295097576,
			"0.0": 16.0747157158,
			"0.001": 12.5174132243,
			"0.002": 15.58169142,
			"0.003": 21.2963803588,
			"0.004": 21.3108452376,
			"0.005": 12.9950461239,
			"0.006": 2.07966528277,
			"0.007": 2.8569255229,
			"0.008": 1.31732781879,
			"0.009": 2.22013476542,
			"0.01": 2.40648595392,
			"0.011": 4.64419463425,
			"0.012": 2.55286649441,
			"0.013": 0.102120514522,
			"0.014": 0.0,
			"0.015": 0.0,
			"0.016": 0.0,
			"0.017": 0.0,
			"0.018": 0.0,
			"0.019": 0.0,
			"0.02": 0.0,
			"0.021": 0.0,
			"0.022": 0.0,
			"0.023": 0.0,
			"0.024": 0.0,
			"0.025": 0.0
		}
	}
}
