{
	 "smiles": "CCC1(CC)C(=O)NC=CC1=O", 
	 "Tm": 363.85, 
	 "num_atms": 25, 
	 "gaussian": { 
		 "optdone": 1, 
		 "sigma_profile": "yes", 
		 "theory": "DFT", 
		 "functional": "B3LYP", 
		 "basiset": "6-31G**", 
		 "properties": { 
			 "R2extent": 2534.4219, 
			 "electric_dipole_moment_norm": 3.66822030145, 
			 "electric_quadrupole_moment_norm": 20.3245465844, 
			 "total_energy": -556.004949561, 
			 "HOMO_LUMO_gap": 0.18034, 
			 "cosmo_polarized_energy": -14.65, 
			 "cosmo_cavitation_energy": 26.77, 
			 "cosmo_dispersion_energy": -19.05, 
			 "cosmo_repulsion_energy": 1.52, 
			 "cosmo_total_nonelectrostatic_energy": 9.24, 
			 "SMD_solvation_energy": 5.86 
		},
		"coords": [
			{
				"x": -2.529924846,
				"y": 0.5564671219,
				"z": -2.4685686801,
				"element": "C" 
			},
			{
				"x": -1.9656081631,
				"y": 0.6361671825,
				"z": -1.0455507473,
				"element": "C" 
			},
			{
				"x": -0.4342194522,
				"y": 0.8283313851,
				"z": -0.9807878942,
				"element": "C" 
			},
			{
				"x": 0.0563359222,
				"y": 0.9791257149,
				"z": 0.5115151221,
				"element": "C" 
			},
			{
				"x": -0.2873554981,
				"y": -0.1728822412,
				"z": 1.4602439013,
				"element": "C" 
			},
			{
				"x": 0.2752275644,
				"y": -0.4001994392,
				"z": -1.5537721247,
				"element": "C" 
			},
			{
				"x": -0.1179425237,
				"y": -1.5450309381,
				"z": -1.4022799416,
				"element": "O" 
			},
			{
				"x": 1.4770253334,
				"y": -0.1691467887,
				"z": -2.2227450661,
				"element": "N" 
			},
			{
				"x": 1.905654661,
				"y": 1.0734323976,
				"z": -2.642784604,
				"element": "C" 
			},
			{
				"x": 1.2284233825,
				"y": 2.211700289,
				"z": -2.3802973598,
				"element": "C" 
			},
			{
				"x": -0.0283761357,
				"y": 2.1732606482,
				"z": -1.6375613179,
				"element": "C" 
			},
			{
				"x": -0.7224204679,
				"y": 3.1684566926,
				"z": -1.4680916765,
				"element": "O" 
			},
			{
				"x": -3.6156366831,
				"y": 0.4211878803,
				"z": -2.4387102447,
				"element": "H" 
			},
			{
				"x": -2.3275756837,
				"y": 1.4725089572,
				"z": -3.0316470206,
				"element": "H" 
			},
			{
				"x": -2.1098895104,
				"y": -0.292446276,
				"z": -3.017952809,
				"element": "H" 
			},
			{
				"x": -2.4187682807,
				"y": 1.480059483,
				"z": -0.5176091308,
				"element": "H" 
			},
			{
				"x": -2.2194680969,
				"y": -0.2785760333,
				"z": -0.5054302126,
				"element": "H" 
			},
			{
				"x": 1.1426015032,
				"y": 1.1363578707,
				"z": 0.5039114856,
				"element": "H" 
			},
			{
				"x": -0.3887413005,
				"y": 1.9117450296,
				"z": 0.8751158836,
				"element": "H" 
			},
			{
				"x": 0.1555275287,
				"y": 0.0222704068,
				"z": 2.4425263264,
				"element": "H" 
			},
			{
				"x": -1.3667873477,
				"y": -0.2741923113,
				"z": 1.600809714,
				"element": "H" 
			},
			{
				"x": 0.0927397886,
				"y": -1.1317470652,
				"z": 1.0988076378,
				"element": "H" 
			},
			{
				"x": 1.947928961,
				"y": -1.0045393405,
				"z": -2.5455519715,
				"element": "H" 
			},
			{
				"x": 2.8280647408,
				"y": 1.067071456,
				"z": -3.2147376151,
				"element": "H" 
			},
			{
				"x": 1.5814846037,
				"y": 3.1682179182,
				"z": -2.7452516543,
				"element": "H" 
			}
		],
		 "valence_orbital": [ 
			{
				"type": "occ",
				"energy": -0.33392,
				"method": "rhf"
			},
			{
				"type": "occ",
				"energy": -0.31714,
				"method": "rhf"
			},
			{
				"type": "occ",
				"energy": -0.27092,
				"method": "rhf"
			},
			{
				"type": "occ",
				"energy": -0.24526,
				"method": "rhf"
			},
			{
				"type": "occ",
				"energy": -0.24198,
				"method": "rhf"
			},
			{
				"type": "unocc",
				"energy": -0.06164,
				"method": "rhf"
			},
			{
				"type": "unocc",
				"energy": 0.01122,
				"method": "rhf"
			},
			{
				"type": "unocc",
				"energy": 0.06031,
				"method": "rhf"
			},
			{
				"type": "unocc",
				"energy": 0.07002,
				"method": "rhf"
			},
			{
				"type": "unocc",
				"energy": 0.10261,
				"method": "rhf"
			}
		],
		"cosmo_sigma_profile": { 
			"-0.025": 0.0,
			"-0.024": 0.0,
			"-0.023": 0.0,
			"-0.022": 0.0,
			"-0.021": 0.0,
			"-0.02": 0.0,
			"-0.019": 0.0,
			"-0.018": 0.0,
			"-0.017": 0.0401458207316,
			"-0.016": 1.49674939237,
			"-0.015": 1.46222725631,
			"-0.014": 1.38015394509,
			"-0.013": 0.901778849869,
			"-0.012": 1.14111646213,
			"-0.011": 1.48772732586,
			"-0.01": 3.14302721865,
			"-0.009": 2.41124573474,
			"-0.008": 2.31172025085,
			"-0.007": 3.52372964307,
			"-0.006": 4.34248327081,
			"-0.005": 3.65735434588,
			"-0.004": 9.23365559048,
			"-0.003": 20.7117081378,
			"-0.002": 26.7510394027,
			"-0.001": 28.1199844648,
			"0.0": 22.0195570424,
			"0.001": 19.0665755016,
			"0.002": 9.96907266097,
			"0.003": 5.78456406617,
			"0.004": 2.97266197529,
			"0.005": 4.00773370899,
			"0.006": 3.96596193402,
			"0.007": 3.58612615327,
			"0.008": 2.0046922884,
			"0.009": 2.82075852452,
			"0.01": 3.53295547928,
			"0.011": 3.94948457793,
			"0.012": 7.03052803277,
			"0.013": 5.54727790746,
			"0.014": 1.06108906384,
			"0.015": 0.0,
			"0.016": 0.0,
			"0.017": 0.0,
			"0.018": 0.0,
			"0.019": 0.0,
			"0.02": 0.0,
			"0.021": 0.0,
			"0.022": 0.0,
			"0.023": 0.0,
			"0.024": 0.0,
			"0.025": 0.0
		}
	}
}
