{
	 "smiles": "NC1=CC(F)=C(Br)C(F)=C1", 
	 "Tm": 373.15, 
	 "num_atms": 14, 
	 "gaussian": { 
		 "optdone": 1, 
		 "sigma_profile": "yes", 
		 "theory": "DFT", 
		 "functional": "B3LYP", 
		 "basiset": "6-31G**", 
		 "properties": { 
			 "R2extent": 3753.6733, 
			 "electric_dipole_moment_norm": 4.47279092961, 
			 "electric_quadrupole_moment_norm": 4.24262242723, 
			 "total_energy": -3056.86878995, 
			 "HOMO_LUMO_gap": 0.2089, 
			 "cosmo_polarized_energy": -9.33, 
			 "cosmo_cavitation_energy": 21.65, 
			 "cosmo_dispersion_energy": -16.36, 
			 "cosmo_repulsion_energy": 1.29, 
			 "cosmo_total_nonelectrostatic_energy": 6.57, 
			 "SMD_solvation_energy": 3.61 
		},
		"coords": [
			{
				"x": 0.8215582959,
				"y": 1.3142099578,
				"z": 1.6325064809,
				"element": "N" 
			},
			{
				"x": 0.9083730297,
				"y": 0.4389382833,
				"z": 0.5592124133,
				"element": "C" 
			},
			{
				"x": 0.1923243018,
				"y": 0.6880087763,
				"z": -0.6247273067,
				"element": "C" 
			},
			{
				"x": 0.3367183952,
				"y": -0.1679752719,
				"z": -1.7059074752,
				"element": "C" 
			},
			{
				"x": -0.3593966213,
				"y": 0.0911295619,
				"z": -2.823271822,
				"element": "F" 
			},
			{
				"x": 1.1724500972,
				"y": -1.2852330186,
				"z": -1.6721265933,
				"element": "C" 
			},
			{
				"x": 1.3457614674,
				"y": -2.4380259173,
				"z": -3.1599897013,
				"element": "Br" 
			},
			{
				"x": 1.8722458185,
				"y": -1.511569739,
				"z": -0.4859900101,
				"element": "C" 
			},
			{
				"x": 2.6869080326,
				"y": -2.5744251697,
				"z": -0.4031093202,
				"element": "F" 
			},
			{
				"x": 1.7565677229,
				"y": -0.6807023643,
				"z": 0.617995,
				"element": "C" 
			},
			{
				"x": 1.0802219599,
				"y": 0.9395634563,
				"z": 2.5337302216,
				"element": "H" 
			},
			{
				"x": -0.0065834821,
				"y": 1.8906042102,
				"z": 1.6702467583,
				"element": "H" 
			},
			{
				"x": -0.4697348259,
				"y": 1.5419307811,
				"z": -0.7189237735,
				"element": "H" 
			},
			{
				"x": 2.3328858082,
				"y": -0.910353546,
				"z": 1.5076551282,
				"element": "H" 
			}
		],
		 "valence_orbital": [ 
			{
				"type": "occ",
				"energy": -0.33979,
				"method": "rhf"
			},
			{
				"type": "occ",
				"energy": -0.28613,
				"method": "rhf"
			},
			{
				"type": "occ",
				"energy": -0.28591,
				"method": "rhf"
			},
			{
				"type": "occ",
				"energy": -0.25321,
				"method": "rhf"
			},
			{
				"type": "occ",
				"energy": -0.21559,
				"method": "rhf"
			},
			{
				"type": "unocc",
				"energy": -0.00669,
				"method": "rhf"
			},
			{
				"type": "unocc",
				"energy": -0.00281,
				"method": "rhf"
			},
			{
				"type": "unocc",
				"energy": 0.00124,
				"method": "rhf"
			},
			{
				"type": "unocc",
				"energy": 0.06867,
				"method": "rhf"
			},
			{
				"type": "unocc",
				"energy": 0.10388,
				"method": "rhf"
			}
		],
		"cosmo_sigma_profile": { 
			"-0.025": 0.0,
			"-0.024": 0.0,
			"-0.023": 0.0,
			"-0.022": 0.0,
			"-0.021": 0.0,
			"-0.02": 0.0,
			"-0.019": 0.0,
			"-0.018": 0.0,
			"-0.017": 0.0,
			"-0.016": 0.0,
			"-0.015": 0.0,
			"-0.014": 0.287828045023,
			"-0.013": 2.7492964903,
			"-0.012": 3.40822503516,
			"-0.011": 2.9323973872,
			"-0.01": 3.68617035137,
			"-0.009": 3.17927277366,
			"-0.008": 4.71622657637,
			"-0.007": 4.86765002304,
			"-0.006": 3.30108553207,
			"-0.005": 4.45702098702,
			"-0.004": 4.64054602558,
			"-0.003": 4.85467627035,
			"-0.002": 5.50641671319,
			"-0.001": 6.466622303,
			"0.0": 14.9552045097,
			"0.001": 21.3276700776,
			"0.002": 18.1023504191,
			"0.003": 24.0084448995,
			"0.004": 27.7747588804,
			"0.005": 9.79472222327,
			"0.006": 1.93051133183,
			"0.007": 0.6031053225,
			"0.008": 0.474072043943,
			"0.009": 0.384736967291,
			"0.01": 1.1768962351,
			"0.011": 0.437246954217,
			"0.012": 0.601113168566,
			"0.013": 0.31126481054,
			"0.014": 0.00375903106721,
			"0.015": 0.0,
			"0.016": 0.0,
			"0.017": 0.0,
			"0.018": 0.0,
			"0.019": 0.0,
			"0.02": 0.0,
			"0.021": 0.0,
			"0.022": 0.0,
			"0.023": 0.0,
			"0.024": 0.0,
			"0.025": 0.0
		}
	}
}
