{
	 "smiles": "NC(=NO)C1=CN=C(OC2=CC=CC=C2)C=C1", 
	 "Tm": 433.15, 
	 "num_atms": 28, 
	 "gaussian": { 
		 "optdone": 1, 
		 "sigma_profile": "yes", 
		 "theory": "DFT", 
		 "functional": "B3LYP", 
		 "basiset": "6-31G**", 
		 "properties": { 
			 "R2extent": 6009.5894, 
			 "electric_dipole_moment_norm": 2.59080559093, 
			 "electric_quadrupole_moment_norm": 16.1060943497, 
			 "total_energy": -778.548936713, 
			 "HOMO_LUMO_gap": 0.17939, 
			 "cosmo_polarized_energy": -16.08, 
			 "cosmo_cavitation_energy": 33.29, 
			 "cosmo_dispersion_energy": -24.39, 
			 "cosmo_repulsion_energy": 1.9, 
			 "cosmo_total_nonelectrostatic_energy": 10.8, 
			 "SMD_solvation_energy": 4.44 
		},
		"coords": [
			{
				"x": 3.4440852365,
				"y": -0.3929304608,
				"z": 3.0608810714,
				"element": "N" 
			},
			{
				"x": 2.9889229813,
				"y": -0.7501035,
				"z": 1.8056114554,
				"element": "C" 
			},
			{
				"x": 3.6354225925,
				"y": -1.5209513887,
				"z": 0.990581892,
				"element": "N" 
			},
			{
				"x": 4.8045611759,
				"y": -2.0181653113,
				"z": 1.6309431675,
				"element": "O" 
			},
			{
				"x": 1.7144839122,
				"y": -0.1714307708,
				"z": 1.3314805982,
				"element": "C" 
			},
			{
				"x": 1.1866772656,
				"y": 1.0016456627,
				"z": 1.8840636649,
				"element": "C" 
			},
			{
				"x": 0.0380460839,
				"y": 1.5645267297,
				"z": 1.4954522853,
				"element": "N" 
			},
			{
				"x": -0.6373104389,
				"y": 0.9756346509,
				"z": 0.5160678044,
				"element": "C" 
			},
			{
				"x": -1.8179173194,
				"y": 1.6027120811,
				"z": 0.2210058275,
				"element": "O" 
			},
			{
				"x": -2.4983807785,
				"y": 1.3072438963,
				"z": -0.9511849834,
				"element": "C" 
			},
			{
				"x": -1.9562164281,
				"y": 1.6361163125,
				"z": -2.1959199062,
				"element": "C" 
			},
			{
				"x": -2.7056676142,
				"y": 1.3980025541,
				"z": -3.3483604393,
				"element": "C" 
			},
			{
				"x": -3.9863159944,
				"y": 0.8465619564,
				"z": -3.2581196457,
				"element": "C" 
			},
			{
				"x": -4.5194604216,
				"y": 0.5323887714,
				"z": -2.0064846708,
				"element": "C" 
			},
			{
				"x": -3.7761234492,
				"y": 0.758698261,
				"z": -0.8466910229,
				"element": "C" 
			},
			{
				"x": -0.2107427747,
				"y": -0.1997177687,
				"z": -0.1265909477,
				"element": "C" 
			},
			{
				"x": 0.9781886926,
				"y": -0.7714378407,
				"z": 0.2965829572,
				"element": "C" 
			},
			{
				"x": 2.7341648862,
				"y": -0.2537815134,
				"z": 3.7653588294,
				"element": "H" 
			},
			{
				"x": 4.2376187294,
				"y": -0.938368356,
				"z": 3.3697127115,
				"element": "H" 
			},
			{
				"x": 5.2006878958,
				"y": -2.5550687232,
				"z": 0.9344503961,
				"element": "H" 
			},
			{
				"x": 1.7278146015,
				"y": 1.5299528752,
				"z": 2.6662403062,
				"element": "H" 
			},
			{
				"x": -0.9669386542,
				"y": 2.0788821299,
				"z": -2.2510147879,
				"element": "H" 
			},
			{
				"x": -2.2894836769,
				"y": 1.6532673541,
				"z": -4.3185411176,
				"element": "H" 
			},
			{
				"x": -4.5667690451,
				"y": 0.6681942358,
				"z": -4.1581605818,
				"element": "H" 
			},
			{
				"x": -5.5163070412,
				"y": 0.1082989512,
				"z": -1.9291928972,
				"element": "H" 
			},
			{
				"x": -4.171336117,
				"y": 0.5263979863,
				"z": 0.1366790407,
				"element": "H" 
			},
			{
				"x": -0.80043554,
				"y": -0.6505682726,
				"z": -0.9150541662,
				"element": "H" 
			},
			{
				"x": 1.3490312401,
				"y": -1.6844005025,
				"z": -0.156396841,
				"element": "H" 
			}
		],
		 "valence_orbital": [ 
			{
				"type": "occ",
				"energy": -0.26674,
				"method": "rhf"
			},
			{
				"type": "occ",
				"energy": -0.26105,
				"method": "rhf"
			},
			{
				"type": "occ",
				"energy": -0.2547,
				"method": "rhf"
			},
			{
				"type": "occ",
				"energy": -0.23872,
				"method": "rhf"
			},
			{
				"type": "occ",
				"energy": -0.20941,
				"method": "rhf"
			},
			{
				"type": "unocc",
				"energy": -0.03002,
				"method": "rhf"
			},
			{
				"type": "unocc",
				"energy": -0.02439,
				"method": "rhf"
			},
			{
				"type": "unocc",
				"energy": -0.00819,
				"method": "rhf"
			},
			{
				"type": "unocc",
				"energy": -0.00379,
				"method": "rhf"
			},
			{
				"type": "unocc",
				"energy": 0.05694,
				"method": "rhf"
			}
		],
		"cosmo_sigma_profile": { 
			"-0.025": 0.0,
			"-0.024": 0.0,
			"-0.023": 0.0,
			"-0.022": 0.0,
			"-0.021": 0.0,
			"-0.02": 0.0,
			"-0.019": 0.0,
			"-0.018": 0.0,
			"-0.017": 0.56909104096,
			"-0.016": 0.887267910953,
			"-0.015": 0.957138927747,
			"-0.014": 1.05933859354,
			"-0.013": 2.19464496373,
			"-0.012": 2.26115245955,
			"-0.011": 2.42569683683,
			"-0.01": 3.45155767223,
			"-0.009": 2.44861424178,
			"-0.008": 2.82667773128,
			"-0.007": 8.10299955719,
			"-0.006": 17.2551321907,
			"-0.005": 15.3046270731,
			"-0.004": 16.7002809171,
			"-0.003": 14.0058167196,
			"-0.002": 15.7469174625,
			"-0.001": 16.6536101343,
			"0.0": 17.9484988903,
			"0.001": 21.0564906892,
			"0.002": 20.1129999437,
			"0.003": 15.547994421,
			"0.004": 15.4710849793,
			"0.005": 11.3442416772,
			"0.006": 7.08882124794,
			"0.007": 8.11181157194,
			"0.008": 5.95685620292,
			"0.009": 5.49192152582,
			"0.01": 4.58447835314,
			"0.011": 3.39383106894,
			"0.012": 2.5261560528,
			"0.013": 2.39792879675,
			"0.014": 1.01596919345,
			"0.015": 1.16466224946,
			"0.016": 0.409604920069,
			"0.017": 0.0,
			"0.018": 0.0,
			"0.019": 0.0,
			"0.02": 0.0,
			"0.021": 0.0,
			"0.022": 0.0,
			"0.023": 0.0,
			"0.024": 0.0,
			"0.025": 0.0
		}
	}
}
