{
	 "smiles": "CN(C1CCCCC1)C1=CC=C(C=C1)C(O)=O", 
	 "Tm": 422.15, 
	 "num_atms": 36, 
	 "gaussian": { 
		 "optdone": 1, 
		 "sigma_profile": "yes", 
		 "theory": "DFT", 
		 "functional": "B3LYP", 
		 "basiset": "6-31G**", 
		 "properties": { 
			 "R2extent": 7113.4396, 
			 "electric_dipole_moment_norm": 7.81769640815, 
			 "electric_quadrupole_moment_norm": 44.5087305568, 
			 "total_energy": -750.149434032, 
			 "HOMO_LUMO_gap": 0.17411, 
			 "cosmo_polarized_energy": -16.62, 
			 "cosmo_cavitation_energy": 35.99, 
			 "cosmo_dispersion_energy": -26.17, 
			 "cosmo_repulsion_energy": 2.02, 
			 "cosmo_total_nonelectrostatic_energy": 11.84, 
			 "SMD_solvation_energy": 6.3 
		},
		"coords": [
			{
				"x": 1.5882546499,
				"y": 2.9373335136,
				"z": 0.3259856769,
				"element": "C" 
			},
			{
				"x": 0.5136425676,
				"y": 1.983928754,
				"z": 0.0751441001,
				"element": "N" 
			},
			{
				"x": 0.0095659571,
				"y": 1.2012166565,
				"z": 1.2212095585,
				"element": "C" 
			},
			{
				"x": 0.1832566185,
				"y": -0.3395855867,
				"z": 1.0456714892,
				"element": "C" 
			},
			{
				"x": -0.9113346105,
				"y": -1.1373768277,
				"z": 1.7793559127,
				"element": "C" 
			},
			{
				"x": -1.2010056067,
				"y": -0.5282568901,
				"z": 3.1579288036,
				"element": "C" 
			},
			{
				"x": -1.7396821437,
				"y": 0.9244809675,
				"z": 3.0444646694,
				"element": "C" 
			},
			{
				"x": -1.4112324299,
				"y": 1.5874247157,
				"z": 1.6873931403,
				"element": "C" 
			},
			{
				"x": -0.0309986473,
				"y": 1.9306249665,
				"z": -1.1952315793,
				"element": "C" 
			},
			{
				"x": 0.4700887568,
				"y": 2.7636812095,
				"z": -2.2319394294,
				"element": "C" 
			},
			{
				"x": -0.0536604756,
				"y": 2.7183619067,
				"z": -3.5134240571,
				"element": "C" 
			},
			{
				"x": -1.0904581238,
				"y": 1.8382998231,
				"z": -3.8542047592,
				"element": "C" 
			},
			{
				"x": -1.6055393784,
				"y": 1.024744246,
				"z": -2.8339083818,
				"element": "C" 
			},
			{
				"x": -1.0999991551,
				"y": 1.0635647707,
				"z": -1.5424604758,
				"element": "C" 
			},
			{
				"x": -1.5974274386,
				"y": 1.8530362785,
				"z": -5.2523185827,
				"element": "C" 
			},
			{
				"x": -2.3654525279,
				"y": 0.7926138643,
				"z": -5.6421880791,
				"element": "O" 
			},
			{
				"x": -1.3647461837,
				"y": 2.7392449176,
				"z": -6.0444840074,
				"element": "O" 
			},
			{
				"x": 1.2679265099,
				"y": 3.976728596,
				"z": 0.1704491674,
				"element": "H" 
			},
			{
				"x": 2.454501893,
				"y": 2.7513628392,
				"z": -0.3216530604,
				"element": "H" 
			},
			{
				"x": 1.9206849712,
				"y": 2.840820498,
				"z": 1.3594926601,
				"element": "H" 
			},
			{
				"x": 0.6628462294,
				"y": 1.4912843297,
				"z": 2.0489393821,
				"element": "H" 
			},
			{
				"x": 1.1664449906,
				"y": -0.6207173389,
				"z": 1.4415750117,
				"element": "H" 
			},
			{
				"x": 0.1992440087,
				"y": -0.6052053989,
				"z": -0.0139151916,
				"element": "H" 
			},
			{
				"x": -1.834911516,
				"y": -1.1470886831,
				"z": 1.1847144211,
				"element": "H" 
			},
			{
				"x": -0.6029536724,
				"y": -2.1842976759,
				"z": 1.8766407685,
				"element": "H" 
			},
			{
				"x": -0.2712151922,
				"y": -0.5365878464,
				"z": 3.7419466605,
				"element": "H" 
			},
			{
				"x": -1.9108319487,
				"y": -1.1519256619,
				"z": 3.711721781,
				"element": "H" 
			},
			{
				"x": -2.8263243955,
				"y": 0.9350154709,
				"z": 3.1834602386,
				"element": "H" 
			},
			{
				"x": -1.3244965187,
				"y": 1.5308293315,
				"z": 3.8583369827,
				"element": "H" 
			},
			{
				"x": -2.1587908381,
				"y": 1.2997131629,
				"z": 0.9438429701,
				"element": "H" 
			},
			{
				"x": -1.4744886278,
				"y": 2.677445021,
				"z": 1.774576575,
				"element": "H" 
			},
			{
				"x": 1.2743271727,
				"y": 3.4593231887,
				"z": -2.0332414103,
				"element": "H" 
			},
			{
				"x": 0.3381601372,
				"y": 3.3717385828,
				"z": -4.2860505846,
				"element": "H" 
			},
			{
				"x": -2.4503444438,
				"y": 0.3645514358,
				"z": -3.020992045,
				"element": "H" 
			},
			{
				"x": -1.550698429,
				"y": 0.4200360077,
				"z": -0.8015775318,
				"element": "H" 
			},
			{
				"x": -2.3214521594,
				"y": 0.0930368548,
				"z": -4.9765607941,
				"element": "H" 
			}
		],
		 "valence_orbital": [ 
			{
				"type": "occ",
				"energy": -0.30161,
				"method": "rhf"
			},
			{
				"type": "occ",
				"energy": -0.28701,
				"method": "rhf"
			},
			{
				"type": "occ",
				"energy": -0.25856,
				"method": "rhf"
			},
			{
				"type": "occ",
				"energy": -0.25455,
				"method": "rhf"
			},
			{
				"type": "occ",
				"energy": -0.20121,
				"method": "rhf"
			},
			{
				"type": "unocc",
				"energy": -0.0271,
				"method": "rhf"
			},
			{
				"type": "unocc",
				"energy": -0.00879,
				"method": "rhf"
			},
			{
				"type": "unocc",
				"energy": 0.05774,
				"method": "rhf"
			},
			{
				"type": "unocc",
				"energy": 0.06558,
				"method": "rhf"
			},
			{
				"type": "unocc",
				"energy": 0.07176,
				"method": "rhf"
			}
		],
		"cosmo_sigma_profile": { 
			"-0.025": 0.0,
			"-0.024": 0.0,
			"-0.023": 0.0,
			"-0.022": 0.0,
			"-0.021": 0.0,
			"-0.02": 0.0,
			"-0.019": 0.0,
			"-0.018": 0.374233580796,
			"-0.017": 0.806441963137,
			"-0.016": 1.01827695627,
			"-0.015": 0.973701572479,
			"-0.014": 0.758853999832,
			"-0.013": 0.762727498221,
			"-0.012": 0.914298633371,
			"-0.011": 1.64514415631,
			"-0.01": 0.974379132511,
			"-0.009": 0.881174998384,
			"-0.008": 1.43955751269,
			"-0.007": 2.52177995163,
			"-0.006": 7.46756111652,
			"-0.005": 12.9807546001,
			"-0.004": 17.4154935983,
			"-0.003": 22.9274373132,
			"-0.002": 38.329344432,
			"-0.001": 35.582220233,
			"0.0": 30.4613041287,
			"0.001": 26.4725200608,
			"0.002": 12.2879912675,
			"0.003": 11.7028527561,
			"0.004": 10.1026642075,
			"0.005": 11.9066195019,
			"0.006": 3.08997571533,
			"0.007": 2.75372938627,
			"0.008": 2.41822491374,
			"0.009": 2.88945343645,
			"0.01": 3.60357817997,
			"0.011": 4.34071437082,
			"0.012": 5.94298511391,
			"0.013": 4.5582885829,
			"0.014": 1.57469875788,
			"0.015": 0.00883791949578,
			"0.016": 0.0,
			"0.017": 0.0,
			"0.018": 0.0,
			"0.019": 0.0,
			"0.02": 0.0,
			"0.021": 0.0,
			"0.022": 0.0,
			"0.023": 0.0,
			"0.024": 0.0,
			"0.025": 0.0
		}
	}
}
