{
	 "smiles": "CC1=C(C)C=C(C=C1)N1N=NN=C1S", 
	 "Tm": 384.15, 
	 "num_atms": 24, 
	 "gaussian": { 
		 "optdone": 1, 
		 "sigma_profile": "yes", 
		 "theory": "DFT", 
		 "functional": "B3LYP", 
		 "basiset": "6-31G**", 
		 "properties": { 
			 "R2extent": 6962.0432, 
			 "electric_dipole_moment_norm": 7.78969576492, 
			 "electric_quadrupole_moment_norm": 45.4744596514, 
			 "total_energy": -966.124475227, 
			 "HOMO_LUMO_gap": 0.21098, 
			 "cosmo_polarized_energy": -14.85, 
			 "cosmo_cavitation_energy": 29.94, 
			 "cosmo_dispersion_energy": -21.75, 
			 "cosmo_repulsion_energy": 1.65, 
			 "cosmo_total_nonelectrostatic_energy": 9.84, 
			 "SMD_solvation_energy": 2.74 
		},
		"coords": [
			{
				"x": 0.2028548296,
				"y": -1.660626722,
				"z": 1.1725884656,
				"element": "C" 
			},
			{
				"x": 0.0601187738,
				"y": -0.1670756826,
				"z": 1.3344919836,
				"element": "C" 
			},
			{
				"x": -1.2146556062,
				"y": 0.4417502788,
				"z": 1.3321695342,
				"element": "C" 
			},
			{
				"x": -2.4689294473,
				"y": -0.3844194296,
				"z": 1.1796251627,
				"element": "C" 
			},
			{
				"x": -1.3080665682,
				"y": 1.8278044848,
				"z": 1.4915911756,
				"element": "C" 
			},
			{
				"x": -0.1575523471,
				"y": 2.6085234948,
				"z": 1.6347069907,
				"element": "C" 
			},
			{
				"x": 1.1044192163,
				"y": 2.0178333815,
				"z": 1.6440109665,
				"element": "C" 
			},
			{
				"x": 1.1956479389,
				"y": 0.6355944343,
				"z": 1.4985592754,
				"element": "C" 
			},
			{
				"x": -0.2684749322,
				"y": 4.0211395247,
				"z": 1.79950088,
				"element": "N" 
			},
			{
				"x": 0.3288609238,
				"y": 4.6613479838,
				"z": 2.8545925932,
				"element": "N" 
			},
			{
				"x": 0.0689760304,
				"y": 5.9140762686,
				"z": 2.7171521872,
				"element": "N" 
			},
			{
				"x": -0.6736874631,
				"y": 6.1550423061,
				"z": 1.6034830742,
				"element": "N" 
			},
			{
				"x": -0.8719053882,
				"y": 4.976279087,
				"z": 1.042591213,
				"element": "C" 
			},
			{
				"x": -1.7602710947,
				"y": 4.7802533498,
				"z": -0.4619744973,
				"element": "S" 
			},
			{
				"x": -0.2257058936,
				"y": -2.0069744689,
				"z": 0.2245226266,
				"element": "H" 
			},
			{
				"x": 1.2530327858,
				"y": -1.9613825168,
				"z": 1.1944931903,
				"element": "H" 
			},
			{
				"x": -0.3176572624,
				"y": -2.2036212525,
				"z": 1.9704757518,
				"element": "H" 
			},
			{
				"x": -2.4749253606,
				"y": -0.9361622506,
				"z": 0.2320442975,
				"element": "H" 
			},
			{
				"x": -3.3632824999,
				"y": 0.2427939626,
				"z": 1.2073727105,
				"element": "H" 
			},
			{
				"x": -2.5582669194,
				"y": -1.1297331184,
				"z": 1.9786308105,
				"element": "H" 
			},
			{
				"x": -2.2846072536,
				"y": 2.3013849856,
				"z": 1.5296167199,
				"element": "H" 
			},
			{
				"x": 1.9881311714,
				"y": 2.6329583503,
				"z": 1.7701985838,
				"element": "H" 
			},
			{
				"x": 2.176101445,
				"y": 0.1675861886,
				"z": 1.5076120636,
				"element": "H" 
			},
			{
				"x": -1.4800550787,
				"y": 3.4695273602,
				"z": -0.6093557591,
				"element": "H" 
			}
		],
		 "valence_orbital": [ 
			{
				"type": "occ",
				"energy": -0.2951,
				"method": "rhf"
			},
			{
				"type": "occ",
				"energy": -0.28683,
				"method": "rhf"
			},
			{
				"type": "occ",
				"energy": -0.27218,
				"method": "rhf"
			},
			{
				"type": "occ",
				"energy": -0.26056,
				"method": "rhf"
			},
			{
				"type": "occ",
				"energy": -0.25239,
				"method": "rhf"
			},
			{
				"type": "unocc",
				"energy": -0.04141,
				"method": "rhf"
			},
			{
				"type": "unocc",
				"energy": -0.02874,
				"method": "rhf"
			},
			{
				"type": "unocc",
				"energy": -0.00314,
				"method": "rhf"
			},
			{
				"type": "unocc",
				"energy": 0.00395,
				"method": "rhf"
			},
			{
				"type": "unocc",
				"energy": 0.02514,
				"method": "rhf"
			}
		],
		"cosmo_sigma_profile": { 
			"-0.025": 0.0,
			"-0.024": 0.0,
			"-0.023": 0.0,
			"-0.022": 0.0,
			"-0.021": 0.0,
			"-0.02": 0.0,
			"-0.019": 0.0,
			"-0.018": 0.0,
			"-0.017": 0.0,
			"-0.016": 0.0,
			"-0.015": 0.0,
			"-0.014": 0.0,
			"-0.013": 0.225430860585,
			"-0.012": 1.08293895262,
			"-0.011": 1.07745778299,
			"-0.01": 1.29880327718,
			"-0.009": 1.60454538467,
			"-0.008": 2.51896242799,
			"-0.007": 6.52836623754,
			"-0.006": 10.4413192955,
			"-0.005": 17.7249526383,
			"-0.004": 22.5951943226,
			"-0.003": 18.2212360281,
			"-0.002": 18.5188589019,
			"-0.001": 21.0447680025,
			"0.0": 25.026545318,
			"0.001": 15.9816895317,
			"0.002": 13.2142418602,
			"0.003": 14.5191894017,
			"0.004": 10.990444203,
			"0.005": 5.63015704896,
			"0.006": 3.9552893126,
			"0.007": 4.39335425259,
			"0.008": 4.79647520677,
			"0.009": 5.37486812332,
			"0.01": 4.42746237843,
			"0.011": 4.03818397734,
			"0.012": 2.79787102709,
			"0.013": 2.43620318138,
			"0.014": 1.06366270728,
			"0.015": 0.165758134337,
			"0.016": 0.0,
			"0.017": 0.0,
			"0.018": 0.0,
			"0.019": 0.0,
			"0.02": 0.0,
			"0.021": 0.0,
			"0.022": 0.0,
			"0.023": 0.0,
			"0.024": 0.0,
			"0.025": 0.0
		}
	}
}
