{
	 "smiles": "OC(=O)CC1=CC=C(S1)C(=O)CCl", 
	 "Tm": 375.15, 
	 "num_atms": 20, 
	 "gaussian": { 
		 "optdone": 1, 
		 "sigma_profile": "yes", 
		 "theory": "DFT", 
		 "functional": "B3LYP", 
		 "basiset": "6-31G**", 
		 "properties": { 
			 "R2extent": 4076.1779, 
			 "electric_dipole_moment_norm": 3.93883002299, 
			 "electric_quadrupole_moment_norm": 21.3318135108, 
			 "total_energy": -1393.110862, 
			 "HOMO_LUMO_gap": 0.16649, 
			 "cosmo_polarized_energy": -18.55, 
			 "cosmo_cavitation_energy": 28.64, 
			 "cosmo_dispersion_energy": -20.8, 
			 "cosmo_repulsion_energy": 1.64, 
			 "cosmo_total_nonelectrostatic_energy": 9.48, 
			 "SMD_solvation_energy": 6.09 
		},
		"coords": [
			{
				"x": -3.1562489465,
				"y": 0.5823016253,
				"z": -2.233373698,
				"element": "O" 
			},
			{
				"x": -2.7170388765,
				"y": -0.6711143119,
				"z": -2.4691182658,
				"element": "C" 
			},
			{
				"x": -3.4615097853,
				"y": -1.5407652155,
				"z": -2.8412943008,
				"element": "O" 
			},
			{
				"x": -1.2025127138,
				"y": -0.9179676637,
				"z": -2.292506066,
				"element": "C" 
			},
			{
				"x": -0.4702639426,
				"y": 0.0576354421,
				"z": -1.419080334,
				"element": "C" 
			},
			{
				"x": 0.1388220921,
				"y": 1.2381212271,
				"z": -1.7991504871,
				"element": "C" 
			},
			{
				"x": 0.6973156992,
				"y": 1.9552664091,
				"z": -0.713224884,
				"element": "C" 
			},
			{
				"x": 0.5134406858,
				"y": 1.3313626303,
				"z": 0.5029374324,
				"element": "C" 
			},
			{
				"x": -0.3723974688,
				"y": -0.1641604209,
				"z": 0.3025446036,
				"element": "S" 
			},
			{
				"x": 1.0482170559,
				"y": 1.8410584624,
				"z": 1.7807673654,
				"element": "C" 
			},
			{
				"x": 1.6938559616,
				"y": 2.8764615717,
				"z": 1.8167920933,
				"element": "O" 
			},
			{
				"x": 0.8330781628,
				"y": 1.0468739929,
				"z": 3.0695373499,
				"element": "C" 
			},
			{
				"x": -0.9074428881,
				"y": 1.0561320157,
				"z": 3.5782956705,
				"element": "Cl" 
			},
			{
				"x": -2.4240097681,
				"y": 1.1342312681,
				"z": -1.9127279187,
				"element": "H" 
			},
			{
				"x": -0.7699264906,
				"y": -0.8891420387,
				"z": -3.2999838185,
				"element": "H" 
			},
			{
				"x": -1.0989402425,
				"y": -1.9469000782,
				"z": -1.9407667959,
				"element": "H" 
			},
			{
				"x": 0.1982470737,
				"y": 1.5610580318,
				"z": -2.833470334,
				"element": "H" 
			},
			{
				"x": 1.2338637013,
				"y": 2.8927699412,
				"z": -0.7933900442,
				"element": "H" 
			},
			{
				"x": 1.1276683085,
				"y": 0.0006173754,
				"z": 2.9588291333,
				"element": "H" 
			},
			{
				"x": 1.4093823818,
				"y": 1.5238597358,
				"z": 3.8600832986,
				"element": "H" 
			}
		],
		 "valence_orbital": [ 
			{
				"type": "occ",
				"energy": -0.31707,
				"method": "rhf"
			},
			{
				"type": "occ",
				"energy": -0.29235,
				"method": "rhf"
			},
			{
				"type": "occ",
				"energy": -0.28702,
				"method": "rhf"
			},
			{
				"type": "occ",
				"energy": -0.27643,
				"method": "rhf"
			},
			{
				"type": "occ",
				"energy": -0.2601,
				"method": "rhf"
			},
			{
				"type": "unocc",
				"energy": -0.09361,
				"method": "rhf"
			},
			{
				"type": "unocc",
				"energy": -0.02378,
				"method": "rhf"
			},
			{
				"type": "unocc",
				"energy": -0.00683,
				"method": "rhf"
			},
			{
				"type": "unocc",
				"energy": 0.00067,
				"method": "rhf"
			},
			{
				"type": "unocc",
				"energy": 0.01857,
				"method": "rhf"
			}
		],
		"cosmo_sigma_profile": { 
			"-0.025": 0.0,
			"-0.024": 0.0,
			"-0.023": 0.0,
			"-0.022": 0.0,
			"-0.021": 0.0,
			"-0.02": 0.0,
			"-0.019": 0.0,
			"-0.018": 0.0,
			"-0.017": 0.0,
			"-0.016": 0.0,
			"-0.015": 0.225939150498,
			"-0.014": 0.415847141728,
			"-0.013": 0.714145646265,
			"-0.012": 1.41823384799,
			"-0.011": 2.23091303511,
			"-0.01": 2.07921190255,
			"-0.009": 8.30295123163,
			"-0.008": 15.2800466972,
			"-0.007": 12.6150173832,
			"-0.006": 12.9591092519,
			"-0.005": 12.7712871729,
			"-0.004": 9.38627127955,
			"-0.003": 8.23783875322,
			"-0.002": 9.65858611435,
			"-0.001": 11.4745867914,
			"0.0": 14.2587238903,
			"0.001": 18.0272161827,
			"0.002": 16.1071663611,
			"0.003": 9.65738960202,
			"0.004": 12.029159916,
			"0.005": 11.34708445,
			"0.006": 5.61721360119,
			"0.007": 3.85037725882,
			"0.008": 4.1004776118,
			"0.009": 5.89957400941,
			"0.01": 8.60206498087,
			"0.011": 8.68827161426,
			"0.012": 5.94014576691,
			"0.013": 1.06286974606,
			"0.014": 0.0,
			"0.015": 0.0,
			"0.016": 0.0,
			"0.017": 0.0,
			"0.018": 0.0,
			"0.019": 0.0,
			"0.02": 0.0,
			"0.021": 0.0,
			"0.022": 0.0,
			"0.023": 0.0,
			"0.024": 0.0,
			"0.025": 0.0
		}
	}
}
