{
	 "smiles": "COC1=CC=C(C=C1)C(N)C1=C(OC)C=CC=C1", 
	 "Tm": 332.15, 
	 "num_atms": 35, 
	 "gaussian": { 
		 "optdone": 1, 
		 "sigma_profile": "yes", 
		 "theory": "DFT", 
		 "functional": "B3LYP", 
		 "basiset": "6-31G**", 
		 "properties": { 
			 "R2extent": 5325.1162, 
			 "electric_dipole_moment_norm": 2.28167363354, 
			 "electric_quadrupole_moment_norm": 10.0618985713, 
			 "total_energy": -787.013152548, 
			 "HOMO_LUMO_gap": 0.20514, 
			 "cosmo_polarized_energy": -12.92, 
			 "cosmo_cavitation_energy": 37.8, 
			 "cosmo_dispersion_energy": -26.17, 
			 "cosmo_repulsion_energy": 2.05, 
			 "cosmo_total_nonelectrostatic_energy": 13.68, 
			 "SMD_solvation_energy": 6.88 
		},
		"coords": [
			{
				"x": 2.771990002,
				"y": -3.6586947127,
				"z": -2.9983068186,
				"element": "C" 
			},
			{
				"x": 2.6338598206,
				"y": -3.6015506477,
				"z": -1.5890066808,
				"element": "O" 
			},
			{
				"x": 2.10732569,
				"y": -2.4657290341,
				"z": -1.0384138503,
				"element": "C" 
			},
			{
				"x": 1.9896072942,
				"y": -2.4627226853,
				"z": 0.3587929089,
				"element": "C" 
			},
			{
				"x": 1.4644436123,
				"y": -1.3534245535,
				"z": 1.0105238922,
				"element": "C" 
			},
			{
				"x": 1.0429881885,
				"y": -0.218799699,
				"z": 0.3011252505,
				"element": "C" 
			},
			{
				"x": 1.1617605322,
				"y": -0.2408397387,
				"z": -1.0912241356,
				"element": "C" 
			},
			{
				"x": 1.6884272162,
				"y": -1.346030939,
				"z": -1.7661306677,
				"element": "C" 
			},
			{
				"x": 0.5626233539,
				"y": 1.0311805939,
				"z": 1.0443708724,
				"element": "C" 
			},
			{
				"x": 1.6332886023,
				"y": 2.0391686119,
				"z": 1.1959982187,
				"element": "N" 
			},
			{
				"x": -0.6801239996,
				"y": 1.6501615251,
				"z": 0.4139259246,
				"element": "C" 
			},
			{
				"x": -1.8914474939,
				"y": 0.9225926873,
				"z": 0.4108002528,
				"element": "C" 
			},
			{
				"x": -1.8446255475,
				"y": -0.2977654592,
				"z": 1.0271894412,
				"element": "O" 
			},
			{
				"x": -3.0135373652,
				"y": -1.0985436997,
				"z": 1.0388346722,
				"element": "C" 
			},
			{
				"x": -3.0425032518,
				"y": 1.4549389282,
				"z": -0.1764472197,
				"element": "C" 
			},
			{
				"x": -3.0006011746,
				"y": 2.7254582505,
				"z": -0.7598912403,
				"element": "C" 
			},
			{
				"x": -1.8230093001,
				"y": 3.4647025283,
				"z": -0.7460291441,
				"element": "C" 
			},
			{
				"x": -0.6765820314,
				"y": 2.9235012681,
				"z": -0.153079954,
				"element": "C" 
			},
			{
				"x": 3.4408590942,
				"y": -2.8730739974,
				"z": -3.3740233258,
				"element": "H" 
			},
			{
				"x": 1.8023145577,
				"y": -3.572912949,
				"z": -3.506339576,
				"element": "H" 
			},
			{
				"x": 3.2068180569,
				"y": -4.6346732407,
				"z": -3.2206627451,
				"element": "H" 
			},
			{
				"x": 2.3112195853,
				"y": -3.3420476156,
				"z": 0.9078768664,
				"element": "H" 
			},
			{
				"x": 1.3725314845,
				"y": -1.3696564843,
				"z": 2.0943623841,
				"element": "H" 
			},
			{
				"x": 0.8250905438,
				"y": 0.6155112652,
				"z": -1.6704281601,
				"element": "H" 
			},
			{
				"x": 1.7593675058,
				"y": -1.3239464778,
				"z": -2.8474356192,
				"element": "H" 
			},
			{
				"x": 0.2882584658,
				"y": 0.717261141,
				"z": 2.058638455,
				"element": "H" 
			},
			{
				"x": 2.0843475252,
				"y": 2.1756072604,
				"z": 0.292178873,
				"element": "H" 
			},
			{
				"x": 2.3573208533,
				"y": 1.6440242849,
				"z": 1.7921905257,
				"element": "H" 
			},
			{
				"x": -2.7422143443,
				"y": -2.0199856148,
				"z": 1.5565925795,
				"element": "H" 
			},
			{
				"x": -3.8358668211,
				"y": -0.6099971152,
				"z": 1.5778862791,
				"element": "H" 
			},
			{
				"x": -3.3475519299,
				"y": -1.3420200432,
				"z": 0.0220603574,
				"element": "H" 
			},
			{
				"x": -3.9705122113,
				"y": 0.8955397893,
				"z": -0.1788292741,
				"element": "H" 
			},
			{
				"x": -3.9002010233,
				"y": 3.1313233703,
				"z": -1.2141989734,
				"element": "H" 
			},
			{
				"x": -1.7907741184,
				"y": 4.4580808643,
				"z": -1.1832461749,
				"element": "H" 
			},
			{
				"x": 0.2348086277,
				"y": 3.5088623379,
				"z": -0.1020541941,
				"element": "H" 
			}
		],
		 "valence_orbital": [ 
			{
				"type": "occ",
				"energy": -0.24484,
				"method": "rhf"
			},
			{
				"type": "occ",
				"energy": -0.24298,
				"method": "rhf"
			},
			{
				"type": "occ",
				"energy": -0.2377,
				"method": "rhf"
			},
			{
				"type": "occ",
				"energy": -0.21011,
				"method": "rhf"
			},
			{
				"type": "occ",
				"energy": -0.20366,
				"method": "rhf"
			},
			{
				"type": "unocc",
				"energy": 0.00148,
				"method": "rhf"
			},
			{
				"type": "unocc",
				"energy": 0.00701,
				"method": "rhf"
			},
			{
				"type": "unocc",
				"energy": 0.01962,
				"method": "rhf"
			},
			{
				"type": "unocc",
				"energy": 0.02219,
				"method": "rhf"
			},
			{
				"type": "unocc",
				"energy": 0.09231,
				"method": "rhf"
			}
		],
		"cosmo_sigma_profile": { 
			"-0.025": 0.0,
			"-0.024": 0.0,
			"-0.023": 0.0,
			"-0.022": 0.0,
			"-0.021": 0.0,
			"-0.02": 0.0,
			"-0.019": 0.0,
			"-0.018": 0.0,
			"-0.017": 0.0,
			"-0.016": 0.0,
			"-0.015": 0.0,
			"-0.014": 0.0,
			"-0.013": 0.0,
			"-0.012": 0.0,
			"-0.011": 0.0,
			"-0.01": 0.517335548056,
			"-0.009": 2.03090996096,
			"-0.008": 2.88655563979,
			"-0.007": 2.76684805878,
			"-0.006": 12.7236143024,
			"-0.005": 33.0975135927,
			"-0.004": 34.1114954502,
			"-0.003": 34.4361392224,
			"-0.002": 22.0207597775,
			"-0.001": 15.5003667458,
			"0.0": 13.5053675345,
			"0.001": 14.7736865619,
			"0.002": 13.7018171633,
			"0.003": 15.7027788495,
			"0.004": 18.3400585482,
			"0.005": 18.2264507957,
			"0.006": 18.8608959517,
			"0.007": 9.10659469023,
			"0.008": 4.33662460072,
			"0.009": 3.57648296698,
			"0.01": 3.08140317969,
			"0.011": 1.52613546862,
			"0.012": 0.549861710682,
			"0.013": 0.339393462075,
			"0.014": 0.816565970916,
			"0.015": 0.945616939899,
			"0.016": 0.437295399981,
			"0.017": 0.52522194519,
			"0.018": 0.300465409699,
			"0.019": 0.221384887938,
			"0.02": 0.0,
			"0.021": 0.0,
			"0.022": 0.0,
			"0.023": 0.0,
			"0.024": 0.0,
			"0.025": 0.0
		}
	}
}
