{
	 "smiles": "NS(=O)(=O)C#CC1=CC=CC=C1", 
	 "Tm": 410.15, 
	 "num_atms": 19, 
	 "gaussian": { 
		 "optdone": 1, 
		 "sigma_profile": "yes", 
		 "theory": "DFT", 
		 "functional": "B3LYP", 
		 "basiset": "6-31G**", 
		 "properties": { 
			 "R2extent": 3612.7361, 
			 "electric_dipole_moment_norm": 6.71550036036, 
			 "electric_quadrupole_moment_norm": 16.486552825, 
			 "total_energy": -912.309730835, 
			 "HOMO_LUMO_gap": 0.19173, 
			 "cosmo_polarized_energy": -18.03, 
			 "cosmo_cavitation_energy": 26.62, 
			 "cosmo_dispersion_energy": -20.01, 
			 "cosmo_repulsion_energy": 1.6, 
			 "cosmo_total_nonelectrostatic_energy": 8.21, 
			 "SMD_solvation_energy": 4.95 
		},
		"coords": [
			{
				"x": -0.4998626753,
				"y": -1.0565377658,
				"z": -3.609468173,
				"element": "N" 
			},
			{
				"x": -0.4866266699,
				"y": 0.5260757476,
				"z": -3.075108184,
				"element": "S" 
			},
			{
				"x": 0.7525756252,
				"y": 1.1135957121,
				"z": -3.5656074998,
				"element": "O" 
			},
			{
				"x": -1.8002134103,
				"y": 1.0738584567,
				"z": -3.3846718165,
				"element": "O" 
			},
			{
				"x": -0.3633312803,
				"y": 0.4221879587,
				"z": -1.357883009,
				"element": "C" 
			},
			{
				"x": -0.2787299621,
				"y": 0.4394614823,
				"z": -0.1455984481,
				"element": "C" 
			},
			{
				"x": -0.178929384,
				"y": 0.4367215435,
				"z": 1.2764058405,
				"element": "C" 
			},
			{
				"x": -1.3430124065,
				"y": 0.4180232237,
				"z": 2.0692594138,
				"element": "C" 
			},
			{
				"x": -1.2392824018,
				"y": 0.4170289625,
				"z": 3.4573653222,
				"element": "C" 
			},
			{
				"x": 0.0170957409,
				"y": 0.4351230385,
				"z": 4.0687679796,
				"element": "C" 
			},
			{
				"x": 1.1757123578,
				"y": 0.4554512287,
				"z": 3.2878522894,
				"element": "C" 
			},
			{
				"x": 1.0844809715,
				"y": 0.4566552857,
				"z": 1.8988706592,
				"element": "C" 
			},
			{
				"x": -1.3227207683,
				"y": -1.5706944363,
				"z": -3.3114114276,
				"element": "H" 
			},
			{
				"x": 0.3722677889,
				"y": -1.5443786723,
				"z": -3.4314381511,
				"element": "H" 
			},
			{
				"x": -2.3147836424,
				"y": 0.4073773452,
				"z": 1.5867658554,
				"element": "H" 
			},
			{
				"x": -2.1398759802,
				"y": 0.4036102619,
				"z": 4.0636736688,
				"element": "H" 
			},
			{
				"x": 0.0931321361,
				"y": 0.4350303118,
				"z": 5.1520513922,
				"element": "H" 
			},
			{
				"x": 2.1521217442,
				"y": 0.4718950891,
				"z": 3.7624166449,
				"element": "H" 
			},
			{
				"x": 1.9791822166,
				"y": 0.4757152266,
				"z": 1.285357643,
				"element": "H" 
			}
		],
		 "valence_orbital": [ 
			{
				"type": "occ",
				"energy": -0.31472,
				"method": "rhf"
			},
			{
				"type": "occ",
				"energy": -0.31261,
				"method": "rhf"
			},
			{
				"type": "occ",
				"energy": -0.28597,
				"method": "rhf"
			},
			{
				"type": "occ",
				"energy": -0.27472,
				"method": "rhf"
			},
			{
				"type": "occ",
				"energy": -0.25362,
				"method": "rhf"
			},
			{
				"type": "unocc",
				"energy": -0.06189,
				"method": "rhf"
			},
			{
				"type": "unocc",
				"energy": -0.02322,
				"method": "rhf"
			},
			{
				"type": "unocc",
				"energy": -0.0027,
				"method": "rhf"
			},
			{
				"type": "unocc",
				"energy": 0.03448,
				"method": "rhf"
			},
			{
				"type": "unocc",
				"energy": 0.05623,
				"method": "rhf"
			}
		],
		"cosmo_sigma_profile": { 
			"-0.025": 0.0,
			"-0.024": 0.0,
			"-0.023": 0.0,
			"-0.022": 0.0,
			"-0.021": 0.0,
			"-0.02": 0.0,
			"-0.019": 0.0,
			"-0.018": 0.0,
			"-0.017": 0.0104374724871,
			"-0.016": 1.86417290938,
			"-0.015": 3.28441792162,
			"-0.014": 2.2184751481,
			"-0.013": 2.57512301166,
			"-0.012": 2.47777022288,
			"-0.011": 2.20313327748,
			"-0.01": 2.02212001026,
			"-0.009": 1.89404436503,
			"-0.008": 1.16961759384,
			"-0.007": 8.37818836993,
			"-0.006": 13.3070797507,
			"-0.005": 13.385158551,
			"-0.004": 10.1161711405,
			"-0.003": 9.35296834273,
			"-0.002": 10.3576722881,
			"-0.001": 9.03507275109,
			"0.0": 12.2917095014,
			"0.001": 16.41649121,
			"0.002": 18.9203681481,
			"0.003": 17.9383204556,
			"0.004": 9.8008606143,
			"0.005": 4.2267295195,
			"0.006": 4.54538967928,
			"0.007": 4.29463652615,
			"0.008": 3.95222069934,
			"0.009": 5.86106670134,
			"0.01": 14.5938528038,
			"0.011": 7.86810413005,
			"0.012": 0.118381066343,
			"0.013": 0.0,
			"0.014": 0.0,
			"0.015": 0.0,
			"0.016": 0.0,
			"0.017": 0.0,
			"0.018": 0.0,
			"0.019": 0.0,
			"0.02": 0.0,
			"0.021": 0.0,
			"0.022": 0.0,
			"0.023": 0.0,
			"0.024": 0.0,
			"0.025": 0.0
		}
	}
}
