{
	 "smiles": "CC1C2CC(OC(C)=O)C3C(C2OC(C)=O)(C(CC2C4(C)CCCC32C(OC(C)=O)OC4)OC(C)=O)C1=O", 
	 "Tm": 377.15, 
	 "num_atms": 76, 
	 "gaussian": { 
		 "optdone": 1, 
		 "sigma_profile": "yes", 
		 "theory": "DFT", 
		 "functional": "B3LYP", 
		 "basiset": "6-31G**", 
		 "properties": { 
			 "R2extent": 15834.8621, 
			 "electric_dipole_moment_norm": 2.09752830017, 
			 "electric_quadrupole_moment_norm": 21.9222744691, 
			 "total_energy": -1842.19102267, 
			 "HOMO_LUMO_gap": 0.21713, 
			 "cosmo_polarized_energy": -23.19, 
			 "cosmo_cavitation_energy": 66.34, 
			 "cosmo_dispersion_energy": -41.07, 
			 "cosmo_repulsion_energy": 2.99, 
			 "cosmo_total_nonelectrostatic_energy": 28.26, 
			 "SMD_solvation_energy": 14.01 
		},
		"coords": [
			{
				"x": -0.3188015076,
				"y": 2.6216823892,
				"z": -3.8070792898,
				"element": "C" 
			},
			{
				"x": 0.3391008587,
				"y": 2.5939653808,
				"z": -2.430210536,
				"element": "C" 
			},
			{
				"x": 1.6874982777,
				"y": 1.8628523502,
				"z": -2.212921382,
				"element": "C" 
			},
			{
				"x": 1.7537387424,
				"y": 0.3893864527,
				"z": -2.6542372815,
				"element": "C" 
			},
			{
				"x": 0.6767246825,
				"y": -0.5223261566,
				"z": -2.0332435986,
				"element": "C" 
			},
			{
				"x": -0.5506884544,
				"y": -0.3803913332,
				"z": -2.8010237008,
				"element": "O" 
			},
			{
				"x": -0.6908800096,
				"y": -1.1752934004,
				"z": -3.888583536,
				"element": "C" 
			},
			{
				"x": -2.0554946919,
				"y": -1.011342311,
				"z": -4.5119630097,
				"element": "C" 
			},
			{
				"x": 0.1692185188,
				"y": -1.9337375327,
				"z": -4.2870935003,
				"element": "O" 
			},
			{
				"x": 0.3882012574,
				"y": -0.2268967251,
				"z": -0.5351082702,
				"element": "C" 
			},
			{
				"x": 0.3857864867,
				"y": 1.3336729302,
				"z": -0.2603720187,
				"element": "C" 
			},
			{
				"x": 1.7813368454,
				"y": 1.8658299917,
				"z": -0.683100454,
				"element": "C" 
			},
			{
				"x": 1.9236217372,
				"y": 3.2287877859,
				"z": -0.2135453111,
				"element": "O" 
			},
			{
				"x": 3.0925849767,
				"y": 3.5877821034,
				"z": 0.3811681186,
				"element": "C" 
			},
			{
				"x": 3.0278006309,
				"y": 5.0171506503,
				"z": 0.8558428906,
				"element": "C" 
			},
			{
				"x": 4.0319629871,
				"y": 2.8363521269,
				"z": 0.5319243783,
				"element": "O" 
			},
			{
				"x": 0.0617953319,
				"y": 1.6856591336,
				"z": 1.2003249528,
				"element": "C" 
			},
			{
				"x": -1.1169741423,
				"y": 0.9073062988,
				"z": 1.7603665742,
				"element": "C" 
			},
			{
				"x": -0.8624125206,
				"y": -0.6030759862,
				"z": 1.6594829377,
				"element": "C" 
			},
			{
				"x": -1.8802808939,
				"y": -1.4829930319,
				"z": 2.4369678169,
				"element": "C" 
			},
			{
				"x": -1.9324048467,
				"y": -1.11989919,
				"z": 3.9315606894,
				"element": "C" 
			},
			{
				"x": -3.2847960258,
				"y": -1.3395372683,
				"z": 1.809718614,
				"element": "C" 
			},
			{
				"x": -3.3153107396,
				"y": -1.640492703,
				"z": 0.303319721,
				"element": "C" 
			},
			{
				"x": -2.173217678,
				"y": -0.9711826331,
				"z": -0.4928192523,
				"element": "C" 
			},
			{
				"x": -0.7654213709,
				"y": -1.0701520099,
				"z": 0.1650969531,
				"element": "C" 
			},
			{
				"x": -0.29476426,
				"y": -2.550730758,
				"z": 0.2496887281,
				"element": "C" 
			},
			{
				"x": -0.290397114,
				"y": -3.1506662822,
				"z": -1.0413342105,
				"element": "O" 
			},
			{
				"x": 0.5299364098,
				"y": -4.2421945287,
				"z": -1.2097834332,
				"element": "C" 
			},
			{
				"x": 0.274035449,
				"y": -4.8851822645,
				"z": -2.5468277454,
				"element": "C" 
			},
			{
				"x": 1.3398607888,
				"y": -4.5984124714,
				"z": -0.3886633323,
				"element": "O" 
			},
			{
				"x": -1.1630435481,
				"y": -3.3632791775,
				"z": 1.0037316462,
				"element": "O" 
			},
			{
				"x": -1.3590959694,
				"y": -2.928827339,
				"z": 2.343024306,
				"element": "C" 
			},
			{
				"x": 1.2470775531,
				"y": 1.3394271702,
				"z": 1.9812127994,
				"element": "O" 
			},
			{
				"x": 1.645881357,
				"y": 2.1984903799,
				"z": 2.9520589955,
				"element": "C" 
			},
			{
				"x": 2.8940856646,
				"y": 1.6923026066,
				"z": 3.6320461641,
				"element": "C" 
			},
			{
				"x": 1.0849173351,
				"y": 3.244909721,
				"z": 3.2025975422,
				"element": "O" 
			},
			{
				"x": -0.5304134981,
				"y": 2.0788664176,
				"z": -1.2711175688,
				"element": "C" 
			},
			{
				"x": -1.717671298,
				"y": 2.2902751747,
				"z": -1.1383599417,
				"element": "O" 
			},
			{
				"x": -0.4307399934,
				"y": 1.623167552,
				"z": -4.2293795054,
				"element": "H" 
			},
			{
				"x": 0.2690230227,
				"y": 3.2264774309,
				"z": -4.5046137783,
				"element": "H" 
			},
			{
				"x": -1.3145420098,
				"y": 3.0671667091,
				"z": -3.7235278341,
				"element": "H" 
			},
			{
				"x": 0.5248359176,
				"y": 3.6388189568,
				"z": -2.1393259669,
				"element": "H" 
			},
			{
				"x": 2.5213235288,
				"y": 2.41185501,
				"z": -2.6623738969,
				"element": "H" 
			},
			{
				"x": 2.7372284873,
				"y": -0.0022964977,
				"z": -2.3655941078,
				"element": "H" 
			},
			{
				"x": 1.6969756133,
				"y": 0.2886869796,
				"z": -3.7413014809,
				"element": "H" 
			},
			{
				"x": 0.9972312344,
				"y": -1.5546237397,
				"z": -2.1449407003,
				"element": "H" 
			},
			{
				"x": -2.426550575,
				"y": 0.009042653,
				"z": -4.4022327949,
				"element": "H" 
			},
			{
				"x": -2.0114231693,
				"y": -1.2991007046,
				"z": -5.5628080595,
				"element": "H" 
			},
			{
				"x": -2.7572361825,
				"y": -1.6783021661,
				"z": -3.9987043641,
				"element": "H" 
			},
			{
				"x": 1.3032074182,
				"y": -0.5672501581,
				"z": -0.0278460023,
				"element": "H" 
			},
			{
				"x": 2.6088155596,
				"y": 1.2782316793,
				"z": -0.2875670589,
				"element": "H" 
			},
			{
				"x": 4.0327441368,
				"y": 5.3684116499,
				"z": 1.0892135295,
				"element": "H" 
			},
			{
				"x": 2.5607296098,
				"y": 5.6581756666,
				"z": 0.1047712474,
				"element": "H" 
			},
			{
				"x": 2.4094153675,
				"y": 5.0521690036,
				"z": 1.7590352139,
				"element": "H" 
			},
			{
				"x": -0.0978213781,
				"y": 2.759164545,
				"z": 1.3008097871,
				"element": "H" 
			},
			{
				"x": -1.2531476829,
				"y": 1.2095308829,
				"z": 2.8026477796,
				"element": "H" 
			},
			{
				"x": -2.0126231283,
				"y": 1.2135637055,
				"z": 1.2135950552,
				"element": "H" 
			},
			{
				"x": 0.1186921927,
				"y": -0.7828601788,
				"z": 2.1232169522,
				"element": "H" 
			},
			{
				"x": -2.5294128904,
				"y": -1.8562872643,
				"z": 4.4820693775,
				"element": "H" 
			},
			{
				"x": -2.3934963639,
				"y": -0.1429100191,
				"z": 4.0993990278,
				"element": "H" 
			},
			{
				"x": -0.9313770176,
				"y": -1.1019759887,
				"z": 4.3781268937,
				"element": "H" 
			},
			{
				"x": -3.6354359962,
				"y": -0.3150475924,
				"z": 1.9899457608,
				"element": "H" 
			},
			{
				"x": -3.9894614064,
				"y": -1.9961225047,
				"z": 2.3370982851,
				"element": "H" 
			},
			{
				"x": -4.2703729255,
				"y": -1.2974625891,
				"z": -0.1139330782,
				"element": "H" 
			},
			{
				"x": -3.2758834245,
				"y": -2.7206514381,
				"z": 0.1500646647,
				"element": "H" 
			},
			{
				"x": -2.4080784762,
				"y": 0.0829643036,
				"z": -0.6536718513,
				"element": "H" 
			},
			{
				"x": -2.1400163211,
				"y": -1.4271089972,
				"z": -1.4803143736,
				"element": "H" 
			},
			{
				"x": 0.7205099816,
				"y": -2.6040787009,
				"z": 0.6713599335,
				"element": "H" 
			},
			{
				"x": -0.7469007915,
				"y": -5.2797162736,
				"z": -2.5696597434,
				"element": "H" 
			},
			{
				"x": 0.3585502038,
				"y": -4.1429293267,
				"z": -3.3456836694,
				"element": "H" 
			},
			{
				"x": 0.9849298343,
				"y": -5.6968988253,
				"z": -2.6984798852,
				"element": "H" 
			},
			{
				"x": -2.0747561156,
				"y": -3.6343758278,
				"z": 2.77695992,
				"element": "H" 
			},
			{
				"x": -0.4143120484,
				"y": -3.0147255396,
				"z": 2.9066218639,
				"element": "H" 
			},
			{
				"x": 2.8166240255,
				"y": 0.623549774,
				"z": 3.8448173525,
				"element": "H" 
			},
			{
				"x": 3.7422165977,
				"y": 1.8390114376,
				"z": 2.9552378426,
				"element": "H" 
			},
			{
				"x": 3.060037843,
				"y": 2.2542504319,
				"z": 4.5510212092,
				"element": "H" 
			}
		],
		 "valence_orbital": [ 
			{
				"type": "occ",
				"energy": -0.2788,
				"method": "rhf"
			},
			{
				"type": "occ",
				"energy": -0.27652,
				"method": "rhf"
			},
			{
				"type": "occ",
				"energy": -0.2706,
				"method": "rhf"
			},
			{
				"type": "occ",
				"energy": -0.24874,
				"method": "rhf"
			},
			{
				"type": "occ",
				"energy": -0.24676,
				"method": "rhf"
			},
			{
				"type": "unocc",
				"energy": -0.02963,
				"method": "rhf"
			},
			{
				"type": "unocc",
				"energy": -0.00628,
				"method": "rhf"
			},
			{
				"type": "unocc",
				"energy": -0.00209,
				"method": "rhf"
			},
			{
				"type": "unocc",
				"energy": 0.01066,
				"method": "rhf"
			},
			{
				"type": "unocc",
				"energy": 0.01375,
				"method": "rhf"
			}
		],
		"cosmo_sigma_profile": { 
			"-0.025": 0.0,
			"-0.024": 0.0,
			"-0.023": 0.0,
			"-0.022": 0.0,
			"-0.021": 0.0,
			"-0.02": 0.0,
			"-0.019": 0.0,
			"-0.018": 0.0,
			"-0.017": 0.0,
			"-0.016": 0.0,
			"-0.015": 0.0,
			"-0.014": 0.0,
			"-0.013": 0.0,
			"-0.012": 0.0,
			"-0.011": 0.0,
			"-0.01": 0.0,
			"-0.009": 0.267303835188,
			"-0.008": 1.7295843382,
			"-0.007": 7.53525783205,
			"-0.006": 20.0566876151,
			"-0.005": 30.1339557802,
			"-0.004": 51.0045800709,
			"-0.003": 65.5799995151,
			"-0.002": 72.9376923327,
			"-0.001": 53.874525796,
			"0.0": 39.1028390896,
			"0.001": 34.5338530471,
			"0.002": 23.3525512295,
			"0.003": 15.3197584627,
			"0.004": 12.3897011935,
			"0.005": 10.7579122271,
			"0.006": 10.2338458939,
			"0.007": 10.2005952837,
			"0.008": 8.02547565394,
			"0.009": 8.98304351224,
			"0.01": 11.7232804548,
			"0.011": 16.2335523848,
			"0.012": 10.2028507032,
			"0.013": 1.35793409234,
			"0.014": 0.0,
			"0.015": 0.0,
			"0.016": 0.0,
			"0.017": 0.0,
			"0.018": 0.0,
			"0.019": 0.0,
			"0.02": 0.0,
			"0.021": 0.0,
			"0.022": 0.0,
			"0.023": 0.0,
			"0.024": 0.0,
			"0.025": 0.0
		}
	}
}
