{
	 "smiles": "COC(=O)C1=CC(=CC(=C1)C(=O)OC)S(Cl)(=O)=O", 
	 "Tm": 379.15, 
	 "num_atms": 27, 
	 "gaussian": { 
		 "optdone": 1, 
		 "sigma_profile": "yes", 
		 "theory": "DFT", 
		 "functional": "B3LYP", 
		 "basiset": "6-31G**", 
		 "properties": { 
			 "R2extent": 6823.6393, 
			 "electric_dipole_moment_norm": 5.27587794684, 
			 "electric_quadrupole_moment_norm": 17.3364758273, 
			 "total_energy": -1696.16093405, 
			 "HOMO_LUMO_gap": 0.19871, 
			 "cosmo_polarized_energy": -14.0, 
			 "cosmo_cavitation_energy": 36.84, 
			 "cosmo_dispersion_energy": -26.55, 
			 "cosmo_repulsion_energy": 2.04, 
			 "cosmo_total_nonelectrostatic_energy": 12.33, 
			 "SMD_solvation_energy": 8.27 
		},
		"coords": [
			{
				"x": -3.7287051186,
				"y": -2.336649037,
				"z": 3.4562240173,
				"element": "C" 
			},
			{
				"x": -2.5951820882,
				"y": -1.9373487859,
				"z": 2.6638277276,
				"element": "O" 
			},
			{
				"x": -2.8694456315,
				"y": -1.1006381487,
				"z": 1.6462641148,
				"element": "C" 
			},
			{
				"x": -3.9809774947,
				"y": -0.6895156929,
				"z": 1.3839378605,
				"element": "O" 
			},
			{
				"x": -1.643020581,
				"y": -0.7333938374,
				"z": 0.8706702737,
				"element": "C" 
			},
			{
				"x": -1.8044668376,
				"y": 0.1349768786,
				"z": -0.2149671779,
				"element": "C" 
			},
			{
				"x": -0.678585897,
				"y": 0.4944314724,
				"z": -0.9497126278,
				"element": "C" 
			},
			{
				"x": 0.5991440672,
				"y": 0.0278504905,
				"z": -0.6441655846,
				"element": "C" 
			},
			{
				"x": 0.7458433346,
				"y": -0.8392981404,
				"z": 0.4433332276,
				"element": "C" 
			},
			{
				"x": -0.3724893934,
				"y": -1.2179508969,
				"z": 1.1952331401,
				"element": "C" 
			},
			{
				"x": 2.0782955932,
				"y": -1.3873340225,
				"z": 0.8479399768,
				"element": "C" 
			},
			{
				"x": 2.242111797,
				"y": -2.1420263186,
				"z": 1.7845580716,
				"element": "O" 
			},
			{
				"x": 3.0705992048,
				"y": -0.9464567486,
				"z": 0.0524836897,
				"element": "O" 
			},
			{
				"x": 4.3864212304,
				"y": -1.4303118274,
				"z": 0.3788851027,
				"element": "C" 
			},
			{
				"x": -0.8698469832,
				"y": 1.624029143,
				"z": -2.3271723383,
				"element": "S" 
			},
			{
				"x": -1.2325306568,
				"y": 0.2624368085,
				"z": -3.9257577156,
				"element": "Cl" 
			},
			{
				"x": 0.4143868562,
				"y": 2.2523465405,
				"z": -2.6090227732,
				"element": "O" 
			},
			{
				"x": -2.0958633889,
				"y": 2.3906773121,
				"z": -2.153771479,
				"element": "O" 
			},
			{
				"x": -3.3299376546,
				"y": -3.0016047088,
				"z": 4.2213162256,
				"element": "H" 
			},
			{
				"x": -4.4627505761,
				"y": -2.8562753408,
				"z": 2.8360722226,
				"element": "H" 
			},
			{
				"x": -4.2021139823,
				"y": -1.4633440389,
				"z": 3.9107839971,
				"element": "H" 
			},
			{
				"x": -2.7903114062,
				"y": 0.515102585,
				"z": -0.4583831512,
				"element": "H" 
			},
			{
				"x": 1.457202903,
				"y": 0.3359173476,
				"z": -1.2286515584,
				"element": "H" 
			},
			{
				"x": -0.2350207584,
				"y": -1.8902961432,
				"z": 2.0333524906,
				"element": "H" 
			},
			{
				"x": 4.4184726347,
				"y": -2.5202484196,
				"z": 0.312420019,
				"element": "H" 
			},
			{
				"x": 5.0534285937,
				"y": -0.9791830785,
				"z": -0.3546301945,
				"element": "H" 
			},
			{
				"x": 4.6630422336,
				"y": -1.1272933921,
				"z": 1.3913324432,
				"element": "H" 
			}
		],
		 "valence_orbital": [ 
			{
				"type": "occ",
				"energy": -0.31792,
				"method": "rhf"
			},
			{
				"type": "occ",
				"energy": -0.3006,
				"method": "rhf"
			},
			{
				"type": "occ",
				"energy": -0.29971,
				"method": "rhf"
			},
			{
				"type": "occ",
				"energy": -0.29849,
				"method": "rhf"
			},
			{
				"type": "occ",
				"energy": -0.29548,
				"method": "rhf"
			},
			{
				"type": "unocc",
				"energy": -0.09677,
				"method": "rhf"
			},
			{
				"type": "unocc",
				"energy": -0.08591,
				"method": "rhf"
			},
			{
				"type": "unocc",
				"energy": -0.0652,
				"method": "rhf"
			},
			{
				"type": "unocc",
				"energy": -0.01132,
				"method": "rhf"
			},
			{
				"type": "unocc",
				"energy": 0.05506,
				"method": "rhf"
			}
		],
		"cosmo_sigma_profile": { 
			"-0.025": 0.0,
			"-0.024": 0.0,
			"-0.023": 0.0,
			"-0.022": 0.0,
			"-0.021": 0.0,
			"-0.02": 0.0,
			"-0.019": 0.0,
			"-0.018": 0.0,
			"-0.017": 0.0,
			"-0.016": 0.0,
			"-0.015": 0.0,
			"-0.014": 0.0,
			"-0.013": 0.0,
			"-0.012": 0.0,
			"-0.011": 0.0,
			"-0.01": 0.0,
			"-0.009": 0.0,
			"-0.008": 0.844335562023,
			"-0.007": 7.66770962335,
			"-0.006": 16.6257413999,
			"-0.005": 21.7454869553,
			"-0.004": 34.3873350681,
			"-0.003": 33.1073669005,
			"-0.002": 33.9507981565,
			"-0.001": 17.6104226264,
			"0.0": 14.9651269835,
			"0.001": 14.8088411888,
			"0.002": 15.6866217215,
			"0.003": 21.1760076322,
			"0.004": 12.2152250848,
			"0.005": 5.33592670533,
			"0.006": 5.32098596419,
			"0.007": 11.1523396726,
			"0.008": 11.7687631928,
			"0.009": 5.27615485448,
			"0.01": 4.84541662025,
			"0.011": 8.30650213897,
			"0.012": 1.19639985931,
			"0.013": 0.0,
			"0.014": 0.0,
			"0.015": 0.0,
			"0.016": 0.0,
			"0.017": 0.0,
			"0.018": 0.0,
			"0.019": 0.0,
			"0.02": 0.0,
			"0.021": 0.0,
			"0.022": 0.0,
			"0.023": 0.0,
			"0.024": 0.0,
			"0.025": 0.0
		}
	}
}
