{
	 "smiles": "CC1(C)C2CCC1(C)C1=NN(C=C21)C1=CC=CC=C1", 
	 "Tm": 398.15, 
	 "num_atms": 39, 
	 "gaussian": { 
		 "optdone": 1, 
		 "sigma_profile": "yes", 
		 "theory": "DFT", 
		 "functional": "B3LYP", 
		 "basiset": "6-31G**", 
		 "properties": { 
			 "R2extent": 6048.2858, 
			 "electric_dipole_moment_norm": 1.61558542021, 
			 "electric_quadrupole_moment_norm": 8.96392166354, 
			 "total_energy": -769.337860238, 
			 "HOMO_LUMO_gap": 0.1898, 
			 "cosmo_polarized_energy": -7.78, 
			 "cosmo_cavitation_energy": 38.46, 
			 "cosmo_dispersion_energy": -27.46, 
			 "cosmo_repulsion_energy": 2.07, 
			 "cosmo_total_nonelectrostatic_energy": 13.08, 
			 "SMD_solvation_energy": 5.51 
		},
		"coords": [
			{
				"x": 3.2809643222,
				"y": 0.7363629647,
				"z": -2.2160604029,
				"element": "C" 
			},
			{
				"x": 2.1193718827,
				"y": 0.2141121266,
				"z": -1.3537730572,
				"element": "C" 
			},
			{
				"x": 2.4050650365,
				"y": -1.2657528057,
				"z": -1.0477785302,
				"element": "C" 
			},
			{
				"x": 0.6925717687,
				"y": 0.4613858255,
				"z": -1.9885521501,
				"element": "C" 
			},
			{
				"x": 0.6350743831,
				"y": 2.0233759872,
				"z": -2.0305398059,
				"element": "C" 
			},
			{
				"x": 1.3816029465,
				"y": 2.4490466888,
				"z": -0.7252762952,
				"element": "C" 
			},
			{
				"x": 1.8173365277,
				"y": 1.0948295983,
				"z": -0.0586701428,
				"element": "C" 
			},
			{
				"x": 2.893872171,
				"y": 1.2159628451,
				"z": 1.0075144369,
				"element": "C" 
			},
			{
				"x": 0.5078337545,
				"y": 0.4576624434,
				"z": 0.3436429154,
				"element": "C" 
			},
			{
				"x": -0.1639137397,
				"y": 0.2283568458,
				"z": 1.4553204363,
				"element": "N" 
			},
			{
				"x": -1.3382426668,
				"y": -0.32947684,
				"z": 1.0066390239,
				"element": "N" 
			},
			{
				"x": -1.3750619549,
				"y": -0.4348082117,
				"z": -0.3752724972,
				"element": "C" 
			},
			{
				"x": -0.1837855909,
				"y": 0.0679723566,
				"z": -0.8273292183,
				"element": "C" 
			},
			{
				"x": -2.3157589452,
				"y": -0.7570577913,
				"z": 1.9352159725,
				"element": "C" 
			},
			{
				"x": -1.9571781779,
				"y": -0.9528412955,
				"z": 3.2759965433,
				"element": "C" 
			},
			{
				"x": -2.9166796576,
				"y": -1.3768346248,
				"z": 4.1920437132,
				"element": "C" 
			},
			{
				"x": -4.2323484558,
				"y": -1.618588778,
				"z": 3.789545282,
				"element": "C" 
			},
			{
				"x": -4.5843300618,
				"y": -1.4179867574,
				"z": 2.4542891463,
				"element": "C" 
			},
			{
				"x": -3.638065042,
				"y": -0.9808162008,
				"z": 1.5281517599,
				"element": "C" 
			},
			{
				"x": 3.2026951383,
				"y": 1.7926076311,
				"z": -2.4784011252,
				"element": "H" 
			},
			{
				"x": 4.2349566371,
				"y": 0.5961011448,
				"z": -1.6961971854,
				"element": "H" 
			},
			{
				"x": 3.3376204274,
				"y": 0.1677912358,
				"z": -3.1513972322,
				"element": "H" 
			},
			{
				"x": 2.4838385524,
				"y": -1.8370702779,
				"z": -1.9799006153,
				"element": "H" 
			},
			{
				"x": 1.628893974,
				"y": -1.729162566,
				"z": -0.4358101857,
				"element": "H" 
			},
			{
				"x": 3.3595573985,
				"y": -1.3735724026,
				"z": -0.5207600139,
				"element": "H" 
			},
			{
				"x": 0.5100001417,
				"y": -0.0271472338,
				"z": -2.9488581373,
				"element": "H" 
			},
			{
				"x": -0.3976824673,
				"y": 2.3796864658,
				"z": -2.056748695,
				"element": "H" 
			},
			{
				"x": 1.135463985,
				"y": 2.4100365782,
				"z": -2.9235159417,
				"element": "H" 
			},
			{
				"x": 2.2609987974,
				"y": 3.0622125123,
				"z": -0.9476138803,
				"element": "H" 
			},
			{
				"x": 0.7483061434,
				"y": 3.0279870002,
				"z": -0.0477407673,
				"element": "H" 
			},
			{
				"x": 3.8026982036,
				"y": 1.6750035122,
				"z": 0.6040720097,
				"element": "H" 
			},
			{
				"x": 3.1576754576,
				"y": 0.2379269789,
				"z": 1.4220143187,
				"element": "H" 
			},
			{
				"x": 2.5443674876,
				"y": 1.8387980242,
				"z": 1.837513627,
				"element": "H" 
			},
			{
				"x": -2.217230074,
				"y": -0.8845372986,
				"z": -0.8771916108,
				"element": "H" 
			},
			{
				"x": -0.933535855,
				"y": -0.7655530759,
				"z": 3.574812731,
				"element": "H" 
			},
			{
				"x": -2.629130549,
				"y": -1.5255577922,
				"z": 5.2290043427,
				"element": "H" 
			},
			{
				"x": -4.9742821094,
				"y": -1.953726781,
				"z": 4.5078227922,
				"element": "H" 
			},
			{
				"x": -5.6059549867,
				"y": -1.5890363562,
				"z": 2.1272843278,
				"element": "H" 
			},
			{
				"x": -3.9360848029,
				"y": -0.7964916761,
				"z": 0.5018041111,
				"element": "H" 
			}
		],
		 "valence_orbital": [ 
			{
				"type": "occ",
				"energy": -0.27296,
				"method": "rhf"
			},
			{
				"type": "occ",
				"energy": -0.27186,
				"method": "rhf"
			},
			{
				"type": "occ",
				"energy": -0.25055,
				"method": "rhf"
			},
			{
				"type": "occ",
				"energy": -0.23847,
				"method": "rhf"
			},
			{
				"type": "occ",
				"energy": -0.20579,
				"method": "rhf"
			},
			{
				"type": "unocc",
				"energy": -0.01599,
				"method": "rhf"
			},
			{
				"type": "unocc",
				"energy": -0.00048,
				"method": "rhf"
			},
			{
				"type": "unocc",
				"energy": 0.04448,
				"method": "rhf"
			},
			{
				"type": "unocc",
				"energy": 0.07387,
				"method": "rhf"
			},
			{
				"type": "unocc",
				"energy": 0.07711,
				"method": "rhf"
			}
		],
		"cosmo_sigma_profile": { 
			"-0.025": 0.0,
			"-0.024": 0.0,
			"-0.023": 0.0,
			"-0.022": 0.0,
			"-0.021": 0.0,
			"-0.02": 0.0,
			"-0.019": 0.0,
			"-0.018": 0.0,
			"-0.017": 0.0,
			"-0.016": 0.0,
			"-0.015": 0.0,
			"-0.014": 0.0,
			"-0.013": 0.0,
			"-0.012": 0.0,
			"-0.011": 0.0,
			"-0.01": 0.113003036717,
			"-0.009": 1.83269748104,
			"-0.008": 2.33329524225,
			"-0.007": 2.22224164266,
			"-0.006": 6.12641809962,
			"-0.005": 9.98594513088,
			"-0.004": 14.8103531415,
			"-0.003": 27.6806086081,
			"-0.002": 39.6497589448,
			"-0.001": 39.6990901883,
			"0.0": 35.7201769529,
			"0.001": 37.3142559532,
			"0.002": 23.3948185886,
			"0.003": 16.5415001749,
			"0.004": 14.7353832125,
			"0.005": 13.4817815606,
			"0.006": 6.3972546034,
			"0.007": 1.79433214715,
			"0.008": 1.94070968146,
			"0.009": 1.59951323871,
			"0.01": 1.2771173328,
			"0.011": 1.18223095217,
			"0.012": 1.40077429461,
			"0.013": 0.614417725192,
			"0.014": 0.565146346854,
			"0.015": 0.0,
			"0.016": 0.0,
			"0.017": 0.0,
			"0.018": 0.0,
			"0.019": 0.0,
			"0.02": 0.0,
			"0.021": 0.0,
			"0.022": 0.0,
			"0.023": 0.0,
			"0.024": 0.0,
			"0.025": 0.0
		}
	}
}
