{
	 "smiles": "NC1=C(C=CC(Br)=C1)[N+]([O-])=O", 
	 "Tm": 417.15, 
	 "num_atms": 16, 
	 "gaussian": { 
		 "optdone": 1, 
		 "sigma_profile": "yes", 
		 "theory": "DFT", 
		 "functional": "B3LYP", 
		 "basiset": "6-31G**", 
		 "properties": { 
			 "R2extent": 3247.7277, 
			 "electric_dipole_moment_norm": 3.38684303002, 
			 "electric_quadrupole_moment_norm": 23.2910988302, 
			 "total_energy": -3062.91431721, 
			 "HOMO_LUMO_gap": 0.14496, 
			 "cosmo_polarized_energy": -10.74, 
			 "cosmo_cavitation_energy": 23.05, 
			 "cosmo_dispersion_energy": -17.92, 
			 "cosmo_repulsion_energy": 1.43, 
			 "cosmo_total_nonelectrostatic_energy": 6.56, 
			 "SMD_solvation_energy": 4.82 
		},
		"coords": [
			{
				"x": 0.2683388671,
				"y": -2.4032367802,
				"z": -2.0554085398,
				"element": "N" 
			},
			{
				"x": 0.2907834797,
				"y": -1.7317706586,
				"z": -0.8800409708,
				"element": "C" 
			},
			{
				"x": 0.4587838904,
				"y": -2.3559830058,
				"z": 0.3901746885,
				"element": "C" 
			},
			{
				"x": 0.4729659652,
				"y": -1.5991565127,
				"z": 1.572474363,
				"element": "C" 
			},
			{
				"x": 0.3252031369,
				"y": -0.2266066938,
				"z": 1.5491787589,
				"element": "C" 
			},
			{
				"x": 0.1592112808,
				"y": 0.394120264,
				"z": 0.3003793517,
				"element": "C" 
			},
			{
				"x": -0.0474323987,
				"y": 2.2877117141,
				"z": 0.2337121322,
				"element": "Br" 
			},
			{
				"x": 0.1407950912,
				"y": -0.3208307662,
				"z": -0.8797298309,
				"element": "C" 
			},
			{
				"x": 0.6216059756,
				"y": -3.7882713903,
				"z": 0.5245833003,
				"element": "N" 
			},
			{
				"x": 0.6139058923,
				"y": -4.4930861261,
				"z": -0.5032954371,
				"element": "O" 
			},
			{
				"x": 0.7623514557,
				"y": -4.2609665272,
				"z": 1.6527585963,
				"element": "O" 
			},
			{
				"x": 0.3758972768,
				"y": -3.4072847248,
				"z": -2.0361759623,
				"element": "H" 
			},
			{
				"x": 0.1452908847,
				"y": -1.9015405344,
				"z": -2.9185836366,
				"element": "H" 
			},
			{
				"x": 0.6042259417,
				"y": -2.131193774,
				"z": 2.5061462513,
				"element": "H" 
			},
			{
				"x": 0.3363004911,
				"y": 0.3556895709,
				"z": 2.4613619951,
				"element": "H" 
			},
			{
				"x": 0.0105727696,
				"y": 0.1916059451,
				"z": -1.8264350597,
				"element": "H" 
			}
		],
		 "valence_orbital": [ 
			{
				"type": "occ",
				"energy": -0.30648,
				"method": "rhf"
			},
			{
				"type": "occ",
				"energy": -0.30157,
				"method": "rhf"
			},
			{
				"type": "occ",
				"energy": -0.29033,
				"method": "rhf"
			},
			{
				"type": "occ",
				"energy": -0.26641,
				"method": "rhf"
			},
			{
				"type": "occ",
				"energy": -0.23359,
				"method": "rhf"
			},
			{
				"type": "unocc",
				"energy": -0.08863,
				"method": "rhf"
			},
			{
				"type": "unocc",
				"energy": -0.01727,
				"method": "rhf"
			},
			{
				"type": "unocc",
				"energy": -0.00719,
				"method": "rhf"
			},
			{
				"type": "unocc",
				"energy": -0.00149,
				"method": "rhf"
			},
			{
				"type": "unocc",
				"energy": 0.07248,
				"method": "rhf"
			}
		],
		"cosmo_sigma_profile": { 
			"-0.025": 0.0,
			"-0.024": 0.0,
			"-0.023": 0.0,
			"-0.022": 0.0,
			"-0.021": 0.0,
			"-0.02": 0.0,
			"-0.019": 0.0,
			"-0.018": 0.0,
			"-0.017": 0.0,
			"-0.016": 0.0316243434559,
			"-0.015": 1.08135540883,
			"-0.014": 1.70915506363,
			"-0.013": 2.04670249665,
			"-0.012": 1.07764330082,
			"-0.011": 1.71752124925,
			"-0.01": 2.64720655266,
			"-0.009": 2.89817743113,
			"-0.008": 2.819244761,
			"-0.007": 5.12223114914,
			"-0.006": 5.90351284186,
			"-0.005": 7.83221386515,
			"-0.004": 7.95280687734,
			"-0.003": 8.58024250965,
			"-0.002": 11.3642559156,
			"-0.001": 12.0185274632,
			"0.0": 19.2571570217,
			"0.001": 21.7159084621,
			"0.002": 17.7829978569,
			"0.003": 14.6794296257,
			"0.004": 12.7090434922,
			"0.005": 2.92680157998,
			"0.006": 3.30486219255,
			"0.007": 3.50034513791,
			"0.008": 6.52743335903,
			"0.009": 4.71340660883,
			"0.01": 4.04314990169,
			"0.011": 2.35526604878,
			"0.012": 0.064699297239,
			"0.013": 0.0,
			"0.014": 0.0,
			"0.015": 0.0,
			"0.016": 0.0,
			"0.017": 0.0,
			"0.018": 0.0,
			"0.019": 0.0,
			"0.02": 0.0,
			"0.021": 0.0,
			"0.022": 0.0,
			"0.023": 0.0,
			"0.024": 0.0,
			"0.025": 0.0
		}
	}
}
