{
	 "smiles": "CC1=NC2=C(C=CC3=C2C=CC=C3)C1(C)C", 
	 "Tm": 344.15, 
	 "num_atms": 31, 
	 "gaussian": { 
		 "optdone": 1, 
		 "sigma_profile": "yes", 
		 "theory": "DFT", 
		 "functional": "B3LYP", 
		 "basiset": "6-31G**", 
		 "properties": { 
			 "R2extent": 3809.9563, 
			 "electric_dipole_moment_norm": 2.34477935423, 
			 "electric_quadrupole_moment_norm": 9.05831817061, 
			 "total_energy": -635.410221562, 
			 "HOMO_LUMO_gap": 0.15609, 
			 "cosmo_polarized_energy": -8.66, 
			 "cosmo_cavitation_energy": 33.05, 
			 "cosmo_dispersion_energy": -23.49, 
			 "cosmo_repulsion_energy": 1.79, 
			 "cosmo_total_nonelectrostatic_energy": 11.35, 
			 "SMD_solvation_energy": 3.85 
		},
		"coords": [
			{
				"x": 1.7994087016,
				"y": 2.1700381301,
				"z": 2.815480164,
				"element": "C" 
			},
			{
				"x": 1.0389480281,
				"y": 1.6093602012,
				"z": 1.6560936751,
				"element": "C" 
			},
			{
				"x": 0.2725455106,
				"y": 0.5748089015,
				"z": 1.7709650553,
				"element": "N" 
			},
			{
				"x": -0.2814864161,
				"y": 0.3257193248,
				"z": 0.4903643992,
				"element": "C" 
			},
			{
				"x": 0.1529238245,
				"y": 1.2358575594,
				"z": -0.4602796542,
				"element": "C" 
			},
			{
				"x": -0.2879660322,
				"y": 1.1524813513,
				"z": -1.7933879963,
				"element": "C" 
			},
			{
				"x": -1.1660737898,
				"y": 0.1438359268,
				"z": -2.143867632,
				"element": "C" 
			},
			{
				"x": -1.6296765342,
				"y": -0.8053192018,
				"z": -1.1893684163,
				"element": "C" 
			},
			{
				"x": -1.1813517498,
				"y": -0.7234677667,
				"z": 0.1737449217,
				"element": "C" 
			},
			{
				"x": -1.6435379674,
				"y": -1.6693864249,
				"z": 1.1244404041,
				"element": "C" 
			},
			{
				"x": -2.5183190433,
				"y": -2.6633595061,
				"z": 0.7463021966,
				"element": "C" 
			},
			{
				"x": -2.9663760062,
				"y": -2.752616719,
				"z": -0.5955099808,
				"element": "C" 
			},
			{
				"x": -2.5328082837,
				"y": -1.8469571683,
				"z": -1.5375866147,
				"element": "C" 
			},
			{
				"x": 1.0937527944,
				"y": 2.1997942783,
				"z": 0.2360647833,
				"element": "C" 
			},
			{
				"x": 0.5649133112,
				"y": 3.6509385437,
				"z": 0.2128419276,
				"element": "C" 
			},
			{
				"x": 2.525308754,
				"y": 2.1377142925,
				"z": -0.340758254,
				"element": "C" 
			},
			{
				"x": 2.8796476282,
				"y": 2.1643065401,
				"z": 2.6238212876,
				"element": "H" 
			},
			{
				"x": 1.5964560324,
				"y": 1.579346526,
				"z": 3.7103504702,
				"element": "H" 
			},
			{
				"x": 1.5203256626,
				"y": 3.2134466324,
				"z": 3.0081151471,
				"element": "H" 
			},
			{
				"x": 0.0518428003,
				"y": 1.8655248517,
				"z": -2.5405333161,
				"element": "H" 
			},
			{
				"x": -1.5193947276,
				"y": 0.0610424916,
				"z": -3.1684266532,
				"element": "H" 
			},
			{
				"x": -1.2899374615,
				"y": -1.5855363435,
				"z": 2.1467774282,
				"element": "H" 
			},
			{
				"x": -2.8694479616,
				"y": -3.3853985505,
				"z": 1.4781265543,
				"element": "H" 
			},
			{
				"x": -3.6565553791,
				"y": -3.5420242254,
				"z": -0.8796519495,
				"element": "H" 
			},
			{
				"x": -2.8774993427,
				"y": -1.9168821251,
				"z": -2.5664138493,
				"element": "H" 
			},
			{
				"x": 0.5248218078,
				"y": 4.0232839104,
				"z": -0.8160279242,
				"element": "H" 
			},
			{
				"x": -0.4429647432,
				"y": 3.7115653316,
				"z": 0.6336722572,
				"element": "H" 
			},
			{
				"x": 1.2204766937,
				"y": 4.3172732922,
				"z": 0.7838463097,
				"element": "H" 
			},
			{
				"x": 2.5292723192,
				"y": 2.4761272464,
				"z": -1.382034469,
				"element": "H" 
			},
			{
				"x": 2.9181842203,
				"y": 1.1171237802,
				"z": -0.3156053398,
				"element": "H" 
			},
			{
				"x": 3.2047673495,
				"y": 2.7855589191,
				"z": 0.2235450683,
				"element": "H" 
			}
		],
		 "valence_orbital": [ 
			{
				"type": "occ",
				"energy": -0.30887,
				"method": "rhf"
			},
			{
				"type": "occ",
				"energy": -0.2595,
				"method": "rhf"
			},
			{
				"type": "occ",
				"energy": -0.25574,
				"method": "rhf"
			},
			{
				"type": "occ",
				"energy": -0.23539,
				"method": "rhf"
			},
			{
				"type": "occ",
				"energy": -0.19804,
				"method": "rhf"
			},
			{
				"type": "unocc",
				"energy": -0.04195,
				"method": "rhf"
			},
			{
				"type": "unocc",
				"energy": -0.00486,
				"method": "rhf"
			},
			{
				"type": "unocc",
				"energy": 0.00285,
				"method": "rhf"
			},
			{
				"type": "unocc",
				"energy": 0.0598,
				"method": "rhf"
			},
			{
				"type": "unocc",
				"energy": 0.07501,
				"method": "rhf"
			}
		],
		"cosmo_sigma_profile": { 
			"-0.025": 0.0,
			"-0.024": 0.0,
			"-0.023": 0.0,
			"-0.022": 0.0,
			"-0.021": 0.0,
			"-0.02": 0.0,
			"-0.019": 0.0,
			"-0.018": 0.0,
			"-0.017": 0.0,
			"-0.016": 0.0,
			"-0.015": 0.0,
			"-0.014": 0.0,
			"-0.013": 0.0,
			"-0.012": 0.0,
			"-0.011": 0.0,
			"-0.01": 0.0,
			"-0.009": 0.0,
			"-0.008": 0.0,
			"-0.007": 0.0,
			"-0.006": 4.2165869484,
			"-0.005": 17.6673256758,
			"-0.004": 31.9698465142,
			"-0.003": 32.7976299829,
			"-0.002": 25.2273902494,
			"-0.001": 25.8581171082,
			"0.0": 23.412463161,
			"0.001": 14.9625365931,
			"0.002": 11.6859185444,
			"0.003": 13.9374050904,
			"0.004": 23.997226241,
			"0.005": 19.654881187,
			"0.006": 6.2216748364,
			"0.007": 1.70242426302,
			"0.008": 1.68403202101,
			"0.009": 1.87548886545,
			"0.01": 0.495173227065,
			"0.011": 0.740641824364,
			"0.012": 1.28356481709,
			"0.013": 0.913496364016,
			"0.014": 0.849846936493,
			"0.015": 0.589232295089,
			"0.016": 0.0404352681923,
			"0.017": 0.0,
			"0.018": 0.0,
			"0.019": 0.0,
			"0.02": 0.0,
			"0.021": 0.0,
			"0.022": 0.0,
			"0.023": 0.0,
			"0.024": 0.0,
			"0.025": 0.0
		}
	}
}
