{
	 "smiles": "CC1=C(C)C2=C(S1)N=C(CN1CCCC1)N=C2Cl", 
	 "Tm": 343.15, 
	 "num_atms": 34, 
	 "gaussian": { 
		 "optdone": 1, 
		 "sigma_profile": "yes", 
		 "theory": "DFT", 
		 "functional": "B3LYP", 
		 "basiset": "6-31G**", 
		 "properties": { 
			 "R2extent": 6697.54, 
			 "electric_dipole_moment_norm": 3.38714302178, 
			 "electric_quadrupole_moment_norm": 14.2269725479, 
			 "total_energy": -1527.66536562, 
			 "HOMO_LUMO_gap": 0.15157, 
			 "cosmo_polarized_energy": -7.85, 
			 "cosmo_cavitation_energy": 38.6, 
			 "cosmo_dispersion_energy": -28.39, 
			 "cosmo_repulsion_energy": 2.17, 
			 "cosmo_total_nonelectrostatic_energy": 12.38, 
			 "SMD_solvation_energy": 0.52 
		},
		"coords": [
			{
				"x": 0.6922167505,
				"y": 4.2847309251,
				"z": -2.828498734,
				"element": "C" 
			},
			{
				"x": 0.1034731874,
				"y": 3.1759094457,
				"z": -2.0069268437,
				"element": "C" 
			},
			{
				"x": -0.2824271681,
				"y": 3.1766278749,
				"z": -0.6926432158,
				"element": "C" 
			},
			{
				"x": -0.1778429971,
				"y": 4.3691983034,
				"z": 0.2219472479,
				"element": "C" 
			},
			{
				"x": -0.8053819415,
				"y": 1.8817790528,
				"z": -0.2932953906,
				"element": "C" 
			},
			{
				"x": -0.7946020252,
				"y": 0.9314162731,
				"z": -1.3484446709,
				"element": "C" 
			},
			{
				"x": -0.1467677405,
				"y": 1.6245253256,
				"z": -2.8151297503,
				"element": "S" 
			},
			{
				"x": -1.2178646674,
				"y": -0.3273108937,
				"z": -1.274026522,
				"element": "N" 
			},
			{
				"x": -1.6915609554,
				"y": -0.6996716375,
				"z": -0.0804026388,
				"element": "C" 
			},
			{
				"x": -2.1475359536,
				"y": -2.1386755367,
				"z": 0.0895472733,
				"element": "C" 
			},
			{
				"x": -1.1256484909,
				"y": -3.068487247,
				"z": 0.557040158,
				"element": "N" 
			},
			{
				"x": -0.5821891245,
				"y": -2.8627778983,
				"z": 1.9001215456,
				"element": "C" 
			},
			{
				"x": 0.4970144495,
				"y": -3.958234793,
				"z": 2.0032175513,
				"element": "C" 
			},
			{
				"x": 0.9248935939,
				"y": -4.2254264004,
				"z": 0.5293608979,
				"element": "C" 
			},
			{
				"x": 0.0298824804,
				"y": -3.2914929696,
				"z": -0.3120983506,
				"element": "C" 
			},
			{
				"x": -1.7524487057,
				"y": 0.1009567242,
				"z": 1.0068732448,
				"element": "N" 
			},
			{
				"x": -1.3240346146,
				"y": 1.3400342122,
				"z": 0.8977260438,
				"element": "C" 
			},
			{
				"x": -1.4461790341,
				"y": 2.3076572532,
				"z": 2.3684046441,
				"element": "Cl" 
			},
			{
				"x": 1.6765548882,
				"y": 4.0067641353,
				"z": -3.2222144277,
				"element": "H" 
			},
			{
				"x": 0.0539242025,
				"y": 4.5242218542,
				"z": -3.6867205823,
				"element": "H" 
			},
			{
				"x": 0.8144734202,
				"y": 5.1955747255,
				"z": -2.2405801263,
				"element": "H" 
			},
			{
				"x": 0.4585367344,
				"y": 4.1545466675,
				"z": 1.0854714293,
				"element": "H" 
			},
			{
				"x": 0.2428416526,
				"y": 5.2316238324,
				"z": -0.2973752399,
				"element": "H" 
			},
			{
				"x": -1.1578944527,
				"y": 4.6585795558,
				"z": 0.6124337969,
				"element": "H" 
			},
			{
				"x": -2.5135105234,
				"y": -2.4933922064,
				"z": -0.879406762,
				"element": "H" 
			},
			{
				"x": -2.9745229912,
				"y": -2.1530485801,
				"z": 0.8069169613,
				"element": "H" 
			},
			{
				"x": -1.3745674681,
				"y": -2.9566902499,
				"z": 2.6507357596,
				"element": "H" 
			},
			{
				"x": -0.1276395101,
				"y": -1.8644683485,
				"z": 2.0290051177,
				"element": "H" 
			},
			{
				"x": 0.0784575997,
				"y": -4.865153129,
				"z": 2.4482316758,
				"element": "H" 
			},
			{
				"x": 1.3330090137,
				"y": -3.6400380413,
				"z": 2.6324736353,
				"element": "H" 
			},
			{
				"x": 1.9853728503,
				"y": -4.0199194998,
				"z": 0.3580759339,
				"element": "H" 
			},
			{
				"x": 0.7483011375,
				"y": -5.2711943324,
				"z": 0.263333307,
				"element": "H" 
			},
			{
				"x": -0.2884827405,
				"y": -3.7316467626,
				"z": -1.26363133,
				"element": "H" 
			},
			{
				"x": 0.5705491438,
				"y": -2.3577176346,
				"z": -0.5500216385,
				"element": "H" 
			}
		],
		 "valence_orbital": [ 
			{
				"type": "occ",
				"energy": -0.30163,
				"method": "rhf"
			},
			{
				"type": "occ",
				"energy": -0.26686,
				"method": "rhf"
			},
			{
				"type": "occ",
				"energy": -0.26314,
				"method": "rhf"
			},
			{
				"type": "occ",
				"energy": -0.23263,
				"method": "rhf"
			},
			{
				"type": "occ",
				"energy": -0.20309,
				"method": "rhf"
			},
			{
				"type": "unocc",
				"energy": -0.05152,
				"method": "rhf"
			},
			{
				"type": "unocc",
				"energy": -0.03704,
				"method": "rhf"
			},
			{
				"type": "unocc",
				"energy": 0.0036,
				"method": "rhf"
			},
			{
				"type": "unocc",
				"energy": 0.02391,
				"method": "rhf"
			},
			{
				"type": "unocc",
				"energy": 0.03764,
				"method": "rhf"
			}
		],
		"cosmo_sigma_profile": { 
			"-0.025": 0.0,
			"-0.024": 0.0,
			"-0.023": 0.0,
			"-0.022": 0.0,
			"-0.021": 0.0,
			"-0.02": 0.0,
			"-0.019": 0.0,
			"-0.018": 0.0,
			"-0.017": 0.0,
			"-0.016": 0.0,
			"-0.015": 0.0,
			"-0.014": 0.0,
			"-0.013": 0.0,
			"-0.012": 0.0,
			"-0.011": 0.0,
			"-0.01": 0.0,
			"-0.009": 0.0,
			"-0.008": 0.0329126673081,
			"-0.007": 1.27164292376,
			"-0.006": 3.62587301089,
			"-0.005": 9.00671225107,
			"-0.004": 17.4320819558,
			"-0.003": 33.5853641593,
			"-0.002": 43.5861191929,
			"-0.001": 53.7085444201,
			"0.0": 39.9451282759,
			"0.001": 34.0187372945,
			"0.002": 18.8614170184,
			"0.003": 13.7786074448,
			"0.004": 12.659509148,
			"0.005": 5.26145088091,
			"0.006": 4.74669590457,
			"0.007": 3.65171354063,
			"0.008": 2.81194438709,
			"0.009": 2.62107949492,
			"0.01": 2.4850765413,
			"0.011": 2.07658734393,
			"0.012": 1.6994825507,
			"0.013": 1.23596518164,
			"0.014": 0.554083373538,
			"0.015": 0.375133955189,
			"0.016": 0.0,
			"0.017": 0.0,
			"0.018": 0.0,
			"0.019": 0.0,
			"0.02": 0.0,
			"0.021": 0.0,
			"0.022": 0.0,
			"0.023": 0.0,
			"0.024": 0.0,
			"0.025": 0.0
		}
	}
}
