{
	 "smiles": "OC(=O)C1=CC(COCC2CC2)=C(F)C=C1", 
	 "Tm": 343.15, 
	 "num_atms": 29, 
	 "gaussian": { 
		 "optdone": 1, 
		 "sigma_profile": "yes", 
		 "theory": "DFT", 
		 "functional": "B3LYP", 
		 "basiset": "6-31G**", 
		 "properties": { 
			 "R2extent": 4971.2317, 
			 "electric_dipole_moment_norm": 5.25696451386, 
			 "electric_quadrupole_moment_norm": 20.2860418554, 
			 "total_energy": -790.585133056, 
			 "HOMO_LUMO_gap": 0.20744, 
			 "cosmo_polarized_energy": -14.16, 
			 "cosmo_cavitation_energy": 33.65, 
			 "cosmo_dispersion_energy": -23.35, 
			 "cosmo_repulsion_energy": 1.8, 
			 "cosmo_total_nonelectrostatic_energy": 12.11, 
			 "SMD_solvation_energy": 6.87 
		},
		"coords": [
			{
				"x": 0.6452047668,
				"y": 1.1092682805,
				"z": 3.2442609649,
				"element": "O" 
			},
			{
				"x": 1.6647954708,
				"y": 0.3333263619,
				"z": 2.789565073,
				"element": "C" 
			},
			{
				"x": 2.6597061002,
				"y": 0.192113579,
				"z": 3.4621515603,
				"element": "O" 
			},
			{
				"x": 1.4840437314,
				"y": -0.3097960977,
				"z": 1.4479287035,
				"element": "C" 
			},
			{
				"x": 0.2311043313,
				"y": -0.4610528387,
				"z": 0.8349541079,
				"element": "C" 
			},
			{
				"x": 0.1069717517,
				"y": -1.0760152943,
				"z": -0.4106405388,
				"element": "C" 
			},
			{
				"x": -1.2203995178,
				"y": -1.2709433804,
				"z": -1.1032297928,
				"element": "C" 
			},
			{
				"x": -2.2467435665,
				"y": -0.6719991906,
				"z": -0.3450029936,
				"element": "O" 
			},
			{
				"x": -3.5323809772,
				"y": -0.8344608357,
				"z": -0.9265203863,
				"element": "C" 
			},
			{
				"x": -4.5778429354,
				"y": -0.1595369638,
				"z": -0.0669774725,
				"element": "C" 
			},
			{
				"x": -4.4704686013,
				"y": -0.1613765069,
				"z": 1.4359968913,
				"element": "C" 
			},
			{
				"x": -4.2741312672,
				"y": 1.1237162356,
				"z": 0.6623668288,
				"element": "C" 
			},
			{
				"x": 1.2759624088,
				"y": -1.5352686727,
				"z": -1.0184919523,
				"element": "C" 
			},
			{
				"x": 1.1667486023,
				"y": -2.1298287838,
				"z": -2.2273647014,
				"element": "F" 
			},
			{
				"x": 2.5311563777,
				"y": -1.4146515404,
				"z": -0.435695207,
				"element": "C" 
			},
			{
				"x": 2.6300243003,
				"y": -0.8036528062,
				"z": 0.8103484901,
				"element": "C" 
			},
			{
				"x": -0.0093947189,
				"y": 1.249080613,
				"z": 2.5463970434,
				"element": "H" 
			},
			{
				"x": -0.6856697329,
				"y": -0.139473712,
				"z": 1.3183328285,
				"element": "H" 
			},
			{
				"x": -1.4140223686,
				"y": -2.3488804815,
				"z": -1.2386946906,
				"element": "H" 
			},
			{
				"x": -1.176936771,
				"y": -0.8360254677,
				"z": -2.1159858976,
				"element": "H" 
			},
			{
				"x": -3.7615064076,
				"y": -1.9089992282,
				"z": -1.0291451904,
				"element": "H" 
			},
			{
				"x": -3.5391716588,
				"y": -0.4005215929,
				"z": -1.9411081217,
				"element": "H" 
			},
			{
				"x": -5.5784287076,
				"y": -0.2576611863,
				"z": -0.4834615016,
				"element": "H" 
			},
			{
				"x": -5.3802208497,
				"y": -0.282523718,
				"z": 2.016123646,
				"element": "H" 
			},
			{
				"x": -3.5911299182,
				"y": -0.6231741362,
				"z": 1.8728474986,
				"element": "H" 
			},
			{
				"x": -5.0484010223,
				"y": 1.883210513,
				"z": 0.7128580875,
				"element": "H" 
			},
			{
				"x": -3.2636891858,
				"y": 1.5114668885,
				"z": 0.5845514673,
				"element": "H" 
			},
			{
				"x": 3.400493579,
				"y": -1.7982792616,
				"z": -0.9582882519,
				"element": "H" 
			},
			{
				"x": 3.5873267864,
				"y": -0.697460776,
				"z": 1.3080235073,
				"element": "H" 
			}
		],
		 "valence_orbital": [ 
			{
				"type": "occ",
				"energy": -0.29668,
				"method": "rhf"
			},
			{
				"type": "occ",
				"energy": -0.27502,
				"method": "rhf"
			},
			{
				"type": "occ",
				"energy": -0.27447,
				"method": "rhf"
			},
			{
				"type": "occ",
				"energy": -0.27117,
				"method": "rhf"
			},
			{
				"type": "occ",
				"energy": -0.25603,
				"method": "rhf"
			},
			{
				"type": "unocc",
				"energy": -0.04859,
				"method": "rhf"
			},
			{
				"type": "unocc",
				"energy": -0.02647,
				"method": "rhf"
			},
			{
				"type": "unocc",
				"energy": 0.04717,
				"method": "rhf"
			},
			{
				"type": "unocc",
				"energy": 0.05362,
				"method": "rhf"
			},
			{
				"type": "unocc",
				"energy": 0.07248,
				"method": "rhf"
			}
		],
		"cosmo_sigma_profile": { 
			"-0.025": 0.0,
			"-0.024": 0.0,
			"-0.023": 0.0,
			"-0.022": 0.0,
			"-0.021": 0.0,
			"-0.02": 0.0,
			"-0.019": 0.0,
			"-0.018": 0.63540028805,
			"-0.017": 1.25176471821,
			"-0.016": 0.425761929601,
			"-0.015": 1.10786420308,
			"-0.014": 0.999236305016,
			"-0.013": 0.52556238047,
			"-0.012": 1.55333156176,
			"-0.011": 0.848711210287,
			"-0.01": 0.730145923834,
			"-0.009": 1.22183285201,
			"-0.008": 2.26799247162,
			"-0.007": 3.43332953978,
			"-0.006": 6.00828914562,
			"-0.005": 13.0564922484,
			"-0.004": 23.6018569552,
			"-0.003": 28.6951273188,
			"-0.002": 21.0765056454,
			"-0.001": 20.7711603926,
			"0.0": 20.1751404741,
			"0.001": 24.8178448515,
			"0.002": 22.7666183819,
			"0.003": 18.317722767,
			"0.004": 14.552753648,
			"0.005": 7.44210892485,
			"0.006": 5.07126894424,
			"0.007": 3.32788614593,
			"0.008": 1.98841181992,
			"0.009": 3.69193194988,
			"0.01": 4.22999176024,
			"0.011": 5.40191062583,
			"0.012": 4.96104819186,
			"0.013": 1.75496889423,
			"0.014": 0.0879226266909,
			"0.015": 0.0,
			"0.016": 0.0,
			"0.017": 0.0,
			"0.018": 0.0,
			"0.019": 0.0,
			"0.02": 0.0,
			"0.021": 0.0,
			"0.022": 0.0,
			"0.023": 0.0,
			"0.024": 0.0,
			"0.025": 0.0
		}
	}
}
