{
	 "smiles": "CCOC(=O)C1=CC=C(C=C1)[N+]([O-])=O", 
	 "Tm": 330.65, 
	 "num_atms": 23, 
	 "gaussian": { 
		 "optdone": 1, 
		 "sigma_profile": "yes", 
		 "theory": "DFT", 
		 "functional": "B3LYP", 
		 "basiset": "6-31G**", 
		 "properties": { 
			 "R2extent": 4410.9253, 
			 "electric_dipole_moment_norm": 4.58480188667, 
			 "electric_quadrupole_moment_norm": 15.9852532589, 
			 "total_energy": -703.946843903, 
			 "HOMO_LUMO_gap": 0.18214, 
			 "cosmo_polarized_energy": -9.75, 
			 "cosmo_cavitation_energy": 28.54, 
			 "cosmo_dispersion_energy": -20.74, 
			 "cosmo_repulsion_energy": 1.64, 
			 "cosmo_total_nonelectrostatic_energy": 9.44, 
			 "SMD_solvation_energy": 8.37 
		},
		"coords": [
			{
				"x": 0.1748902633,
				"y": -1.0892238235,
				"z": -3.6428708663,
				"element": "C" 
			},
			{
				"x": 0.3315995119,
				"y": 0.3627695628,
				"z": -3.2186602892,
				"element": "C" 
			},
			{
				"x": -0.1209931452,
				"y": 0.5645855403,
				"z": -1.8552731204,
				"element": "O" 
			},
			{
				"x": 0.7750249923,
				"y": 0.3166111411,
				"z": -0.8791431067,
				"element": "C" 
			},
			{
				"x": 1.9164121462,
				"y": -0.051960852,
				"z": -1.0765981,
				"element": "O" 
			},
			{
				"x": 0.2052841134,
				"y": 0.5529050825,
				"z": 0.4847627262,
				"element": "C" 
			},
			{
				"x": -1.1180420065,
				"y": 0.9730538495,
				"z": 0.6807726801,
				"element": "C" 
			},
			{
				"x": -1.6009407775,
				"y": 1.1788949599,
				"z": 1.9697559765,
				"element": "C" 
			},
			{
				"x": -0.7441625426,
				"y": 0.9589168457,
				"z": 3.0466211734,
				"element": "C" 
			},
			{
				"x": 0.5751502816,
				"y": 0.5410926523,
				"z": 2.8782817663,
				"element": "C" 
			},
			{
				"x": 1.0460463779,
				"y": 0.3382908465,
				"z": 1.5857691216,
				"element": "C" 
			},
			{
				"x": -1.252533508,
				"y": 1.176098249,
				"z": 4.4144171332,
				"element": "N" 
			},
			{
				"x": -0.4772440196,
				"y": 0.9756423357,
				"z": 5.3476868825,
				"element": "O" 
			},
			{
				"x": -2.4198498946,
				"y": 1.5440597238,
				"z": 4.5358062668,
				"element": "O" 
			},
			{
				"x": 0.8263672972,
				"y": -1.7361987333,
				"z": -3.0505783695,
				"element": "H" 
			},
			{
				"x": 0.4513396595,
				"y": -1.1970802807,
				"z": -4.6968483668,
				"element": "H" 
			},
			{
				"x": -0.8604774943,
				"y": -1.4215199086,
				"z": -3.5239231783,
				"element": "H" 
			},
			{
				"x": 1.371818071,
				"y": 0.6875944238,
				"z": -3.2926124524,
				"element": "H" 
			},
			{
				"x": -0.3012809955,
				"y": 1.0264908152,
				"z": -3.8119544804,
				"element": "H" 
			},
			{
				"x": -1.7608651655,
				"y": 1.1359179765,
				"z": -0.1757472045,
				"element": "H" 
			},
			{
				"x": -2.6171113,
				"y": 1.503017804,
				"z": 2.155023132,
				"element": "H" 
			},
			{
				"x": 1.2005387733,
				"y": 0.3840596623,
				"z": 3.7478887032,
				"element": "H" 
			},
			{
				"x": 2.0647293617,
				"y": 0.0133821273,
				"z": 1.4063239727,
				"element": "H" 
			}
		],
		 "valence_orbital": [ 
			{
				"type": "occ",
				"energy": -0.31252,
				"method": "rhf"
			},
			{
				"type": "occ",
				"energy": -0.29706,
				"method": "rhf"
			},
			{
				"type": "occ",
				"energy": -0.28995,
				"method": "rhf"
			},
			{
				"type": "occ",
				"energy": -0.289,
				"method": "rhf"
			},
			{
				"type": "occ",
				"energy": -0.28484,
				"method": "rhf"
			},
			{
				"type": "unocc",
				"energy": -0.1027,
				"method": "rhf"
			},
			{
				"type": "unocc",
				"energy": -0.03785,
				"method": "rhf"
			},
			{
				"type": "unocc",
				"energy": -0.03348,
				"method": "rhf"
			},
			{
				"type": "unocc",
				"energy": 0.04802,
				"method": "rhf"
			},
			{
				"type": "unocc",
				"energy": 0.07998,
				"method": "rhf"
			}
		],
		"cosmo_sigma_profile": { 
			"-0.025": 0.0,
			"-0.024": 0.0,
			"-0.023": 0.0,
			"-0.022": 0.0,
			"-0.021": 0.0,
			"-0.02": 0.0,
			"-0.019": 0.0,
			"-0.018": 0.0,
			"-0.017": 0.0,
			"-0.016": 0.0,
			"-0.015": 0.0,
			"-0.014": 0.0,
			"-0.013": 0.0,
			"-0.012": 0.0,
			"-0.011": 0.0,
			"-0.01": 0.0,
			"-0.009": 0.0964433625554,
			"-0.008": 3.02369057769,
			"-0.007": 7.28770753668,
			"-0.006": 10.2151553813,
			"-0.005": 13.2541597545,
			"-0.004": 18.9188634432,
			"-0.003": 20.9689011582,
			"-0.002": 21.5722295635,
			"-0.001": 26.0772342572,
			"0.0": 27.4004365386,
			"0.001": 15.5234836252,
			"0.002": 6.80664509132,
			"0.003": 6.34591566628,
			"0.004": 6.40264549396,
			"0.005": 6.48650013869,
			"0.006": 5.38831096244,
			"0.007": 11.3021834053,
			"0.008": 6.82911317319,
			"0.009": 5.95928534574,
			"0.01": 3.29905866293,
			"0.011": 3.75188196086,
			"0.012": 1.17333454663,
			"0.013": 0.0,
			"0.014": 0.0,
			"0.015": 0.0,
			"0.016": 0.0,
			"0.017": 0.0,
			"0.018": 0.0,
			"0.019": 0.0,
			"0.02": 0.0,
			"0.021": 0.0,
			"0.022": 0.0,
			"0.023": 0.0,
			"0.024": 0.0,
			"0.025": 0.0
		}
	}
}
