{
	 "smiles": "CCO[Si](Cl)(OCC)OCC", 
	 "Tm": 222.15, 
	 "num_atms": 26, 
	 "gaussian": { 
		 "optdone": 1, 
		 "sigma_profile": "yes", 
		 "theory": "DFT", 
		 "functional": "B3LYP", 
		 "basiset": "6-31G**", 
		 "properties": { 
			 "R2extent": 3984.0436, 
			 "electric_dipole_moment_norm": 2.57752458572, 
			 "electric_quadrupole_moment_norm": 12.919173054, 
			 "total_energy": -1213.22455523, 
			 "HOMO_LUMO_gap": 0.33261, 
			 "cosmo_polarized_energy": -6.88, 
			 "cosmo_cavitation_energy": 32.57, 
			 "cosmo_dispersion_energy": -20.85, 
			 "cosmo_repulsion_energy": 1.88, 
			 "cosmo_total_nonelectrostatic_energy": 13.61, 
			 "SMD_solvation_energy": 5.54 
		},
		"coords": [
			{
				"x": 1.5320426384,
				"y": 4.6641927134,
				"z": 0.3866582536,
				"element": "C" 
			},
			{
				"x": 2.0295793006,
				"y": 3.2801376751,
				"z": 0.7662384205,
				"element": "C" 
			},
			{
				"x": 0.8976427777,
				"y": 2.440412731,
				"z": 1.0382062476,
				"element": "O" 
			},
			{
				"x": 0.9638995527,
				"y": 0.8403881034,
				"z": 1.3652403958,
				"element": "Si" 
			},
			{
				"x": 1.8279816444,
				"y": 0.4798498176,
				"z": 3.2157406435,
				"element": "Cl" 
			},
			{
				"x": -0.5588569439,
				"y": 0.2547369703,
				"z": 1.4783423317,
				"element": "O" 
			},
			{
				"x": -1.6068406276,
				"y": 0.5549386935,
				"z": 0.5403154486,
				"element": "C" 
			},
			{
				"x": -2.911288867,
				"y": -0.0142654434,
				"z": 1.0702831546,
				"element": "C" 
			},
			{
				"x": 1.8846373419,
				"y": 0.1313548453,
				"z": 0.2051167929,
				"element": "O" 
			},
			{
				"x": 2.2710812445,
				"y": -1.2500312441,
				"z": 0.1689663797,
				"element": "C" 
			},
			{
				"x": 3.1225335494,
				"y": -1.4889344028,
				"z": -1.0661957078,
				"element": "C" 
			},
			{
				"x": 0.9036323976,
				"y": 4.6163640609,
				"z": -0.5075700924,
				"element": "H" 
			},
			{
				"x": 0.9422028985,
				"y": 5.0974770066,
				"z": 1.1995352246,
				"element": "H" 
			},
			{
				"x": 2.3788644023,
				"y": 5.3269814558,
				"z": 0.1803965589,
				"element": "H" 
			},
			{
				"x": 2.664090365,
				"y": 3.3307156131,
				"z": 1.6604081282,
				"element": "H" 
			},
			{
				"x": 2.6224707755,
				"y": 2.8415901478,
				"z": -0.045423085,
				"element": "H" 
			},
			{
				"x": -1.6781661155,
				"y": 1.6409431679,
				"z": 0.409848736,
				"element": "H" 
			},
			{
				"x": -1.3610242053,
				"y": 0.1136009038,
				"z": -0.4346723819,
				"element": "H" 
			},
			{
				"x": -3.7274510314,
				"y": 0.195777303,
				"z": 0.3709993102,
				"element": "H" 
			},
			{
				"x": -3.1587079266,
				"y": 0.430802082,
				"z": 2.0381496914,
				"element": "H" 
			},
			{
				"x": -2.8351737923,
				"y": -1.0977557019,
				"z": 1.1999735028,
				"element": "H" 
			},
			{
				"x": 1.372963776,
				"y": -1.8808514635,
				"z": 0.1476573365,
				"element": "H" 
			},
			{
				"x": 2.8318246213,
				"y": -1.4961584289,
				"z": 1.0792453487,
				"element": "H" 
			},
			{
				"x": 4.0211959591,
				"y": -0.865749479,
				"z": -1.0399619577,
				"element": "H" 
			},
			{
				"x": 2.5628157076,
				"y": -1.2472823312,
				"z": -1.9745036589,
				"element": "H" 
			},
			{
				"x": 3.4298505569,
				"y": -2.5386347956,
				"z": -1.1164950222,
				"element": "H" 
			}
		],
		 "valence_orbital": [ 
			{
				"type": "occ",
				"energy": -0.31431,
				"method": "rhf"
			},
			{
				"type": "occ",
				"energy": -0.31126,
				"method": "rhf"
			},
			{
				"type": "occ",
				"energy": -0.30035,
				"method": "rhf"
			},
			{
				"type": "occ",
				"energy": -0.29008,
				"method": "rhf"
			},
			{
				"type": "occ",
				"energy": -0.28539,
				"method": "rhf"
			},
			{
				"type": "unocc",
				"energy": 0.04722,
				"method": "rhf"
			},
			{
				"type": "unocc",
				"energy": 0.08566,
				"method": "rhf"
			},
			{
				"type": "unocc",
				"energy": 0.0875,
				"method": "rhf"
			},
			{
				"type": "unocc",
				"energy": 0.09512,
				"method": "rhf"
			},
			{
				"type": "unocc",
				"energy": 0.10998,
				"method": "rhf"
			}
		],
		"cosmo_sigma_profile": { 
			"-0.025": 0.0,
			"-0.024": 0.0,
			"-0.023": 0.0,
			"-0.022": 0.0,
			"-0.021": 0.0,
			"-0.02": 0.0,
			"-0.019": 0.0,
			"-0.018": 0.0,
			"-0.017": 0.0,
			"-0.016": 0.0,
			"-0.015": 0.0,
			"-0.014": 0.0,
			"-0.013": 0.0,
			"-0.012": 0.0,
			"-0.011": 0.0,
			"-0.01": 0.0,
			"-0.009": 0.0,
			"-0.008": 0.0,
			"-0.007": 0.0,
			"-0.006": 0.0,
			"-0.005": 5.5434236274,
			"-0.004": 27.9259847568,
			"-0.003": 41.5202630544,
			"-0.002": 32.497201066,
			"-0.001": 28.4464229838,
			"0.0": 26.3885209151,
			"0.001": 18.7189969171,
			"0.002": 11.1852784555,
			"0.003": 11.9250260557,
			"0.004": 13.3177947183,
			"0.005": 14.2283701529,
			"0.006": 6.47284117388,
			"0.007": 4.21110307044,
			"0.008": 3.60910959564,
			"0.009": 3.05995301671,
			"0.01": 2.14600400108,
			"0.011": 0.900790353655,
			"0.012": 0.181000210557,
			"0.013": 0.0,
			"0.014": 0.0,
			"0.015": 0.0,
			"0.016": 0.0,
			"0.017": 0.0,
			"0.018": 0.0,
			"0.019": 0.0,
			"0.02": 0.0,
			"0.021": 0.0,
			"0.022": 0.0,
			"0.023": 0.0,
			"0.024": 0.0,
			"0.025": 0.0
		}
	}
}
