{
	 "smiles": "O=C1CCCCN1", 
	 "Tm": 311.35, 
	 "num_atms": 16, 
	 "gaussian": { 
		 "optdone": 1, 
		 "sigma_profile": "yes", 
		 "theory": "DFT", 
		 "functional": "B3LYP", 
		 "basiset": "6-31G**", 
		 "properties": { 
			 "R2extent": 892.2158, 
			 "electric_dipole_moment_norm": 3.97400635379, 
			 "electric_quadrupole_moment_norm": 11.9169066746, 
			 "total_energy": -325.949367908, 
			 "HOMO_LUMO_gap": 0.27004, 
			 "cosmo_polarized_energy": -10.72, 
			 "cosmo_cavitation_energy": 17.99, 
			 "cosmo_dispersion_energy": -13.96, 
			 "cosmo_repulsion_energy": 1.2, 
			 "cosmo_total_nonelectrostatic_energy": 5.23, 
			 "SMD_solvation_energy": 2.72 
		},
		"coords": [
			{
				"x": -0.4709771353,
				"y": -1.2563183123,
				"z": 2.4351589381,
				"element": "O" 
			},
			{
				"x": -0.3711069137,
				"y": -1.0565610591,
				"z": 1.232514563,
				"element": "C" 
			},
			{
				"x": -0.0901279035,
				"y": 0.3045441915,
				"z": 0.6068533173,
				"element": "C" 
			},
			{
				"x": 0.9595672072,
				"y": 0.2073748953,
				"z": -0.5183667101,
				"element": "C" 
			},
			{
				"x": 0.6102578039,
				"y": -0.8783431045,
				"z": -1.5734088808,
				"element": "C" 
			},
			{
				"x": -0.5708942688,
				"y": -1.7616704255,
				"z": -1.1275809218,
				"element": "C" 
			},
			{
				"x": -0.4821298924,
				"y": -2.055363151,
				"z": 0.2980765527,
				"element": "N" 
			},
			{
				"x": 0.2310304564,
				"y": 0.9772239997,
				"z": 1.4045241099,
				"element": "H" 
			},
			{
				"x": -1.0349027706,
				"y": 0.7002625569,
				"z": 0.2079409819,
				"element": "H" 
			},
			{
				"x": 1.9263188449,
				"y": -0.0286674817,
				"z": -0.0619021302,
				"element": "H" 
			},
			{
				"x": 1.0767406521,
				"y": 1.1852983714,
				"z": -0.9961755843,
				"element": "H" 
			},
			{
				"x": 1.4846792316,
				"y": -1.5135254972,
				"z": -1.7460896848,
				"element": "H" 
			},
			{
				"x": 0.3553718343,
				"y": -0.4225837147,
				"z": -2.5363429389,
				"element": "H" 
			},
			{
				"x": -0.5718155185,
				"y": -2.7072714487,
				"z": -1.6764633519,
				"element": "H" 
			},
			{
				"x": -1.5218659267,
				"y": -1.2594883208,
				"z": -1.3626333258,
				"element": "H" 
			},
			{
				"x": -0.7657457008,
				"y": -2.9585114994,
				"z": 0.6527950656,
				"element": "H" 
			}
		],
		 "valence_orbital": [ 
			{
				"type": "occ",
				"energy": -0.35055,
				"method": "rhf"
			},
			{
				"type": "occ",
				"energy": -0.33694,
				"method": "rhf"
			},
			{
				"type": "occ",
				"energy": -0.33218,
				"method": "rhf"
			},
			{
				"type": "occ",
				"energy": -0.24491,
				"method": "rhf"
			},
			{
				"type": "occ",
				"energy": -0.23439,
				"method": "rhf"
			},
			{
				"type": "unocc",
				"energy": 0.03565,
				"method": "rhf"
			},
			{
				"type": "unocc",
				"energy": 0.07024,
				"method": "rhf"
			},
			{
				"type": "unocc",
				"energy": 0.09968,
				"method": "rhf"
			},
			{
				"type": "unocc",
				"energy": 0.11145,
				"method": "rhf"
			},
			{
				"type": "unocc",
				"energy": 0.13081,
				"method": "rhf"
			}
		],
		"cosmo_sigma_profile": { 
			"-0.025": 0.0,
			"-0.024": 0.0,
			"-0.023": 0.0,
			"-0.022": 0.0,
			"-0.021": 0.0,
			"-0.02": 0.0,
			"-0.019": 0.0,
			"-0.018": 0.0,
			"-0.017": 0.0,
			"-0.016": 0.0,
			"-0.015": 0.0,
			"-0.014": 0.143843414728,
			"-0.013": 0.95625544521,
			"-0.012": 1.23858582181,
			"-0.011": 1.09110499131,
			"-0.01": 1.11943227024,
			"-0.009": 0.476357333347,
			"-0.008": 0.927294315081,
			"-0.007": 1.87432036434,
			"-0.006": 2.35064616566,
			"-0.005": 7.40616680721,
			"-0.004": 12.1001858117,
			"-0.003": 21.5702614046,
			"-0.002": 24.4258133639,
			"-0.001": 16.4428816999,
			"0.0": 11.5565436266,
			"0.001": 4.11976462547,
			"0.002": 2.45447130867,
			"0.003": 2.26564043324,
			"0.004": 2.29903995534,
			"0.005": 2.21574392181,
			"0.006": 1.98667896844,
			"0.007": 0.968165150565,
			"0.008": 0.954887436271,
			"0.009": 1.79989982601,
			"0.01": 1.35640380969,
			"0.011": 1.00743698881,
			"0.012": 1.68402125896,
			"0.013": 2.35141592596,
			"0.014": 5.63051743813,
			"0.015": 4.31158991876,
			"0.016": 0.5698182271,
			"0.017": 0.0,
			"0.018": 0.0,
			"0.019": 0.0,
			"0.02": 0.0,
			"0.021": 0.0,
			"0.022": 0.0,
			"0.023": 0.0,
			"0.024": 0.0,
			"0.025": 0.0
		}
	}
}
