{
	 "smiles": "NC1=CC(=CC=C1)S(=O)(=O)NC1=C(F)C=CC=C1", 
	 "Tm": 469.15, 
	 "num_atms": 29, 
	 "gaussian": { 
		 "optdone": 1, 
		 "sigma_profile": "yes", 
		 "theory": "DFT", 
		 "functional": "B3LYP", 
		 "basiset": "6-31G**", 
		 "properties": { 
			 "R2extent": 5982.9429, 
			 "electric_dipole_moment_norm": 7.90312224061, 
			 "electric_quadrupole_moment_norm": 27.7353629717, 
			 "total_energy": -1221.80542998, 
			 "HOMO_LUMO_gap": 0.18312, 
			 "cosmo_polarized_energy": -23.11, 
			 "cosmo_cavitation_energy": 35.19, 
			 "cosmo_dispersion_energy": -24.83, 
			 "cosmo_repulsion_energy": 1.87, 
			 "cosmo_total_nonelectrostatic_energy": 12.22, 
			 "SMD_solvation_energy": 5.55 
		},
		"coords": [
			{
				"x": -0.7548229124,
				"y": 5.1929571752,
				"z": -0.7585140868,
				"element": "N" 
			},
			{
				"x": -0.88099731,
				"y": 4.0774562463,
				"z": 0.0600907986,
				"element": "C" 
			},
			{
				"x": 0.2565953888,
				"y": 3.3756518286,
				"z": 0.4945681967,
				"element": "C" 
			},
			{
				"x": 0.1087604851,
				"y": 2.3043604214,
				"z": 1.3737497581,
				"element": "C" 
			},
			{
				"x": -1.138345136,
				"y": 1.892829946,
				"z": 1.8481568591,
				"element": "C" 
			},
			{
				"x": -2.2636410638,
				"y": 2.5910929735,
				"z": 1.4053541233,
				"element": "C" 
			},
			{
				"x": -2.1441591588,
				"y": 3.6616951048,
				"z": 0.5236440479,
				"element": "C" 
			},
			{
				"x": 1.5817206585,
				"y": 1.4026537502,
				"z": 1.8772278637,
				"element": "S" 
			},
			{
				"x": 1.3248623153,
				"y": 0.827267269,
				"z": 3.1935947788,
				"element": "O" 
			},
			{
				"x": 2.7423692588,
				"y": 2.2434906763,
				"z": 1.5827147265,
				"element": "O" 
			},
			{
				"x": 1.7277063592,
				"y": 0.0911733855,
				"z": 0.7917967478,
				"element": "N" 
			},
			{
				"x": 0.7997607732,
				"y": -0.9870504063,
				"z": 0.820539073,
				"element": "C" 
			},
			{
				"x": 0.9663997652,
				"y": -2.0169153768,
				"z": 1.7581387069,
				"element": "C" 
			},
			{
				"x": 1.9861479253,
				"y": -1.9639213428,
				"z": 2.6227651926,
				"element": "F" 
			},
			{
				"x": 0.1051262859,
				"y": -3.1073219188,
				"z": 1.7994528124,
				"element": "C" 
			},
			{
				"x": -0.9346770294,
				"y": -3.1956481578,
				"z": 0.8732332538,
				"element": "C" 
			},
			{
				"x": -1.1095225089,
				"y": -2.1929849048,
				"z": -0.0825674931,
				"element": "C" 
			},
			{
				"x": -0.2530889567,
				"y": -1.0923866451,
				"z": -0.0978178674,
				"element": "C" 
			},
			{
				"x": 0.1017762261,
				"y": 5.2663440058,
				"z": -1.2877578634,
				"element": "H" 
			},
			{
				"x": -1.5722585119,
				"y": 5.4530614719,
				"z": -1.2907943361,
				"element": "H" 
			},
			{
				"x": 1.2504878375,
				"y": 3.6806472633,
				"z": 0.1823136503,
				"element": "H" 
			},
			{
				"x": -1.216561912,
				"y": 1.0742385743,
				"z": 2.5527468524,
				"element": "H" 
			},
			{
				"x": -3.2490298234,
				"y": 2.2996671201,
				"z": 1.7569755608,
				"element": "H" 
			},
			{
				"x": -3.0322905952,
				"y": 4.1979217167,
				"z": 0.1988535925,
				"element": "H" 
			},
			{
				"x": 1.9516875497,
				"y": 0.4389300936,
				"z": -0.1355609559,
				"element": "H" 
			},
			{
				"x": 0.275165761,
				"y": -3.8763865866,
				"z": 2.5450785181,
				"element": "H" 
			},
			{
				"x": -1.6032870911,
				"y": -4.0506351293,
				"z": 0.8980446462,
				"element": "H" 
			},
			{
				"x": -1.914638645,
				"y": -2.2606786741,
				"z": -0.8072565577,
				"element": "H" 
			},
			{
				"x": -0.3908459351,
				"y": -0.2987098801,
				"z": -0.826770599,
				"element": "H" 
			}
		],
		 "valence_orbital": [ 
			{
				"type": "occ",
				"energy": -0.29961,
				"method": "rhf"
			},
			{
				"type": "occ",
				"energy": -0.26759,
				"method": "rhf"
			},
			{
				"type": "occ",
				"energy": -0.25801,
				"method": "rhf"
			},
			{
				"type": "occ",
				"energy": -0.24045,
				"method": "rhf"
			},
			{
				"type": "occ",
				"energy": -0.22046,
				"method": "rhf"
			},
			{
				"type": "unocc",
				"energy": -0.03734,
				"method": "rhf"
			},
			{
				"type": "unocc",
				"energy": -0.01837,
				"method": "rhf"
			},
			{
				"type": "unocc",
				"energy": -0.00933,
				"method": "rhf"
			},
			{
				"type": "unocc",
				"energy": -0.00071,
				"method": "rhf"
			},
			{
				"type": "unocc",
				"energy": 0.06156,
				"method": "rhf"
			}
		],
		"cosmo_sigma_profile": { 
			"-0.025": 0.0,
			"-0.024": 0.0,
			"-0.023": 0.0,
			"-0.022": 0.0,
			"-0.021": 0.0,
			"-0.02": 0.0,
			"-0.019": 0.0,
			"-0.018": 0.0,
			"-0.017": 0.0,
			"-0.016": 0.261995919657,
			"-0.015": 1.05559537789,
			"-0.014": 1.08398904001,
			"-0.013": 3.06312377942,
			"-0.012": 4.49580649353,
			"-0.011": 4.55060274663,
			"-0.01": 4.04815952534,
			"-0.009": 5.14097263356,
			"-0.008": 4.56099189685,
			"-0.007": 10.7479238222,
			"-0.006": 15.673184086,
			"-0.005": 17.839198783,
			"-0.004": 15.292378696,
			"-0.003": 11.5442331944,
			"-0.002": 12.3070342234,
			"-0.001": 12.2591161646,
			"0.0": 15.4494630076,
			"0.001": 16.5397257744,
			"0.002": 19.8569883891,
			"0.003": 23.586732563,
			"0.004": 26.757912398,
			"0.005": 9.3240446154,
			"0.006": 6.14766507899,
			"0.007": 6.81197937242,
			"0.008": 5.88482593453,
			"0.009": 5.81752420024,
			"0.01": 9.07766269364,
			"0.011": 9.20903536152,
			"0.012": 2.37429024635,
			"0.013": 0.546309710958,
			"0.014": 0.0114410154449,
			"0.015": 0.0,
			"0.016": 0.0,
			"0.017": 0.0,
			"0.018": 0.0,
			"0.019": 0.0,
			"0.02": 0.0,
			"0.021": 0.0,
			"0.022": 0.0,
			"0.023": 0.0,
			"0.024": 0.0,
			"0.025": 0.0
		}
	}
}
