{
	 "smiles": "N#CC1=CC=C(CCC2=CC=C(C=C2)C#N)C=C1", 
	 "Tm": 473.15, 
	 "num_atms": 30, 
	 "gaussian": { 
		 "optdone": 1, 
		 "sigma_profile": "yes", 
		 "theory": "DFT", 
		 "functional": "B3LYP", 
		 "basiset": "6-31G**", 
		 "properties": { 
			 "R2extent": 5778.471, 
			 "electric_dipole_moment_norm": 7.2573114588, 
			 "electric_quadrupole_moment_norm": 25.4332837956, 
			 "total_energy": -726.418378849, 
			 "HOMO_LUMO_gap": 0.20298, 
			 "cosmo_polarized_energy": -17.38, 
			 "cosmo_cavitation_energy": 36.96, 
			 "cosmo_dispersion_energy": -23.98, 
			 "cosmo_repulsion_energy": 1.87, 
			 "cosmo_total_nonelectrostatic_energy": 14.85, 
			 "SMD_solvation_energy": 8.61 
		},
		"coords": [
			{
				"x": 4.2133289528,
				"y": -1.3358205153,
				"z": 3.7449194509,
				"element": "N" 
			},
			{
				"x": 3.2074136418,
				"y": -1.3577706979,
				"z": 3.1608491401,
				"element": "C" 
			},
			{
				"x": 1.9665427502,
				"y": -1.3824507631,
				"z": 2.4427743907,
				"element": "C" 
			},
			{
				"x": 1.9480237986,
				"y": -1.6851383191,
				"z": 1.0716209955,
				"element": "C" 
			},
			{
				"x": 0.7383887473,
				"y": -1.7091508326,
				"z": 0.3834407528,
				"element": "C" 
			},
			{
				"x": -0.4726642691,
				"y": -1.4364674913,
				"z": 1.0353642345,
				"element": "C" 
			},
			{
				"x": -1.7857711054,
				"y": -1.4389508392,
				"z": 0.2850807988,
				"element": "C" 
			},
			{
				"x": -2.2582598862,
				"y": -0.0272922057,
				"z": -0.1655066106,
				"element": "C" 
			},
			{
				"x": -1.3797107494,
				"y": 0.6064202767,
				"z": -1.2208201871,
				"element": "C" 
			},
			{
				"x": -0.3767655215,
				"y": 1.5241322375,
				"z": -0.8774845459,
				"element": "C" 
			},
			{
				"x": 0.4447587016,
				"y": 2.0898219784,
				"z": -1.8482931097,
				"element": "C" 
			},
			{
				"x": 0.2748607268,
				"y": 1.7409141971,
				"z": -3.1978865187,
				"element": "C" 
			},
			{
				"x": -0.7271008425,
				"y": 0.822941718,
				"z": -3.55653604,
				"element": "C" 
			},
			{
				"x": -1.5396076675,
				"y": 0.2683216046,
				"z": -2.5737079008,
				"element": "C" 
			},
			{
				"x": 1.1146057819,
				"y": 2.3202335712,
				"z": -4.2054638641,
				"element": "C" 
			},
			{
				"x": 1.7955349652,
				"y": 2.7882975669,
				"z": -5.0244484364,
				"element": "N" 
			},
			{
				"x": -0.4394888515,
				"y": -1.1373356461,
				"z": 2.4063441204,
				"element": "C" 
			},
			{
				"x": 0.7600346679,
				"y": -1.1078436327,
				"z": 3.1092086197,
				"element": "C" 
			},
			{
				"x": 2.8785316162,
				"y": -1.9003220537,
				"z": 0.5570133361,
				"element": "H" 
			},
			{
				"x": 0.7337769633,
				"y": -1.9449967463,
				"z": -0.676739018,
				"element": "H" 
			},
			{
				"x": -1.7087704108,
				"y": -2.0853489444,
				"z": -0.5960571029,
				"element": "H" 
			},
			{
				"x": -2.5674048292,
				"y": -1.8659112135,
				"z": 0.9241099262,
				"element": "H" 
			},
			{
				"x": -3.2788922217,
				"y": -0.1235067165,
				"z": -0.5536697412,
				"element": "H" 
			},
			{
				"x": -2.3134902538,
				"y": 0.6253503449,
				"z": 0.7126518495,
				"element": "H" 
			},
			{
				"x": -0.2385082866,
				"y": 1.8005660254,
				"z": 0.1637068447,
				"element": "H" 
			},
			{
				"x": 1.215855434,
				"y": 2.8007286098,
				"z": -1.5708253416,
				"element": "H" 
			},
			{
				"x": -0.8635076695,
				"y": 0.5583158075,
				"z": -4.5998232612,
				"element": "H" 
			},
			{
				"x": -2.3177554717,
				"y": -0.4340932789,
				"z": -2.861674536,
				"element": "H" 
			},
			{
				"x": -1.3685922463,
				"y": -0.9322807176,
				"z": 2.932218097,
				"element": "H" 
			},
			{
				"x": 0.7729335351,
				"y": -0.8807633239,
				"z": 4.1700336574,
				"element": "H" 
			}
		],
		 "valence_orbital": [ 
			{
				"type": "occ",
				"energy": -0.33165,
				"method": "rhf"
			},
			{
				"type": "occ",
				"energy": -0.28228,
				"method": "rhf"
			},
			{
				"type": "occ",
				"energy": -0.27877,
				"method": "rhf"
			},
			{
				"type": "occ",
				"energy": -0.26682,
				"method": "rhf"
			},
			{
				"type": "occ",
				"energy": -0.26121,
				"method": "rhf"
			},
			{
				"type": "unocc",
				"energy": -0.05823,
				"method": "rhf"
			},
			{
				"type": "unocc",
				"energy": -0.05357,
				"method": "rhf"
			},
			{
				"type": "unocc",
				"energy": -0.03201,
				"method": "rhf"
			},
			{
				"type": "unocc",
				"energy": -0.02764,
				"method": "rhf"
			},
			{
				"type": "unocc",
				"energy": 0.03468,
				"method": "rhf"
			}
		],
		"cosmo_sigma_profile": { 
			"-0.025": 0.0,
			"-0.024": 0.0,
			"-0.023": 0.0,
			"-0.022": 0.0,
			"-0.021": 0.0,
			"-0.02": 0.0,
			"-0.019": 0.0,
			"-0.018": 0.0,
			"-0.017": 0.0,
			"-0.016": 0.0,
			"-0.015": 0.0,
			"-0.014": 0.0,
			"-0.013": 0.0,
			"-0.012": 0.0,
			"-0.011": 0.0,
			"-0.01": 0.0,
			"-0.009": 0.0,
			"-0.008": 3.53791906437,
			"-0.007": 11.4610943452,
			"-0.006": 20.2146104909,
			"-0.005": 27.0863795487,
			"-0.004": 26.8858701702,
			"-0.003": 21.6854544894,
			"-0.002": 21.6054105521,
			"-0.001": 24.1593105871,
			"0.0": 21.6811188376,
			"0.001": 18.5582636957,
			"0.002": 23.4432163553,
			"0.003": 22.0308786971,
			"0.004": 5.44069600453,
			"0.005": 3.96708710846,
			"0.006": 5.3048181658,
			"0.007": 5.45144105303,
			"0.008": 6.72076142309,
			"0.009": 6.97714836332,
			"0.01": 6.85408184132,
			"0.011": 5.36611354015,
			"0.012": 5.18493095381,
			"0.013": 3.68444297787,
			"0.014": 0.361794514814,
			"0.015": 0.0,
			"0.016": 0.0,
			"0.017": 0.0,
			"0.018": 0.0,
			"0.019": 0.0,
			"0.02": 0.0,
			"0.021": 0.0,
			"0.022": 0.0,
			"0.023": 0.0,
			"0.024": 0.0,
			"0.025": 0.0
		}
	}
}
