{
	 "smiles": "FC1=CC=C(OCC2CO2)C=C1", 
	 "Tm": 292.65, 
	 "num_atms": 21, 
	 "gaussian": { 
		 "optdone": 1, 
		 "sigma_profile": "yes", 
		 "theory": "DFT", 
		 "functional": "B3LYP", 
		 "basiset": "6-31G**", 
		 "properties": { 
			 "R2extent": 3053.5912, 
			 "electric_dipole_moment_norm": 2.88999244982, 
			 "electric_quadrupole_moment_norm": 16.4423333186, 
			 "total_energy": -598.597350676, 
			 "HOMO_LUMO_gap": 0.20389, 
			 "cosmo_polarized_energy": -9.95, 
			 "cosmo_cavitation_energy": 25.66, 
			 "cosmo_dispersion_energy": -18.68, 
			 "cosmo_repulsion_energy": 1.47, 
			 "cosmo_total_nonelectrostatic_energy": 8.45, 
			 "SMD_solvation_energy": 5.16 
		},
		"coords": [
			{
				"x": -0.3220888382,
				"y": -4.5058645597,
				"z": 0.3132575046,
				"element": "F" 
			},
			{
				"x": -0.2676183292,
				"y": -3.1762298266,
				"z": 0.0730263498,
				"element": "C" 
			},
			{
				"x": -1.3650656407,
				"y": -2.5404361864,
				"z": -0.4858696413,
				"element": "C" 
			},
			{
				"x": -1.3118056272,
				"y": -1.164190113,
				"z": -0.7326849636,
				"element": "C" 
			},
			{
				"x": -0.1536230878,
				"y": -0.4420519187,
				"z": -0.4192792738,
				"element": "C" 
			},
			{
				"x": 0.0257136261,
				"y": 0.8999790999,
				"z": -0.6279164553,
				"element": "O" 
			},
			{
				"x": -1.0183864483,
				"y": 1.6708641213,
				"z": -1.2147934584,
				"element": "C" 
			},
			{
				"x": -2.0721677903,
				"y": 2.0867226281,
				"z": -0.2151439883,
				"element": "C" 
			},
			{
				"x": -2.8426358175,
				"y": 3.3235608877,
				"z": -0.4151803905,
				"element": "C" 
			},
			{
				"x": -1.7890979669,
				"y": 3.2636835235,
				"z": 0.549683678,
				"element": "O" 
			},
			{
				"x": 0.9439040209,
				"y": -1.1076109954,
				"z": 0.1487870662,
				"element": "C" 
			},
			{
				"x": 0.8909529925,
				"y": -2.4742963591,
				"z": 0.3963576197,
				"element": "C" 
			},
			{
				"x": -2.2543752352,
				"y": -3.1146972058,
				"z": -0.7222764756,
				"element": "H" 
			},
			{
				"x": -2.1794290151,
				"y": -0.6800867207,
				"z": -1.1644936976,
				"element": "H" 
			},
			{
				"x": -1.4706609607,
				"y": 1.133484386,
				"z": -2.059582862,
				"element": "H" 
			},
			{
				"x": -0.5296451637,
				"y": 2.5687807902,
				"z": -1.6023655098,
				"element": "H" 
			},
			{
				"x": -2.5276938266,
				"y": 1.2804337998,
				"z": 0.3611663289,
				"element": "H" 
			},
			{
				"x": -2.6450502897,
				"y": 3.9487681905,
				"z": -1.2869698683,
				"element": "H" 
			},
			{
				"x": -3.8527960624,
				"y": 3.3984847537,
				"z": -0.0132601911,
				"element": "H" 
			},
			{
				"x": 1.830938081,
				"y": -0.5301768536,
				"z": 0.3861690129,
				"element": "H" 
			},
			{
				"x": 1.7327313791,
				"y": -3.0002214417,
				"z": 0.8337692155,
				"element": "H" 
			}
		],
		 "valence_orbital": [ 
			{
				"type": "occ",
				"energy": -0.32263,
				"method": "rhf"
			},
			{
				"type": "occ",
				"energy": -0.31064,
				"method": "rhf"
			},
			{
				"type": "occ",
				"energy": -0.27586,
				"method": "rhf"
			},
			{
				"type": "occ",
				"energy": -0.26199,
				"method": "rhf"
			},
			{
				"type": "occ",
				"energy": -0.21762,
				"method": "rhf"
			},
			{
				"type": "unocc",
				"energy": -0.01373,
				"method": "rhf"
			},
			{
				"type": "unocc",
				"energy": 0.01389,
				"method": "rhf"
			},
			{
				"type": "unocc",
				"energy": 0.07186,
				"method": "rhf"
			},
			{
				"type": "unocc",
				"energy": 0.08828,
				"method": "rhf"
			},
			{
				"type": "unocc",
				"energy": 0.104,
				"method": "rhf"
			}
		],
		"cosmo_sigma_profile": { 
			"-0.025": 0.0,
			"-0.024": 0.0,
			"-0.023": 0.0,
			"-0.022": 0.0,
			"-0.021": 0.0,
			"-0.02": 0.0,
			"-0.019": 0.0,
			"-0.018": 0.0,
			"-0.017": 0.0,
			"-0.016": 0.0,
			"-0.015": 0.0,
			"-0.014": 0.0,
			"-0.013": 0.0,
			"-0.012": 0.0,
			"-0.011": 0.0,
			"-0.01": 0.0,
			"-0.009": 0.444488157834,
			"-0.008": 2.26384207073,
			"-0.007": 11.0928527158,
			"-0.006": 18.7742178792,
			"-0.005": 17.5955014192,
			"-0.004": 16.1221272777,
			"-0.003": 11.8771622511,
			"-0.002": 11.7873359809,
			"-0.001": 9.42662450512,
			"0.0": 8.62298929075,
			"0.001": 11.7700722976,
			"0.002": 14.2731238416,
			"0.003": 15.2184028981,
			"0.004": 21.290814846,
			"0.005": 12.2917373514,
			"0.006": 3.03139989798,
			"0.007": 2.91014289946,
			"0.008": 2.64806032045,
			"0.009": 3.77021752158,
			"0.01": 3.26613242715,
			"0.011": 3.31419753305,
			"0.012": 2.56191666952,
			"0.013": 0.309484990798,
			"0.014": 0.0,
			"0.015": 0.0,
			"0.016": 0.0,
			"0.017": 0.0,
			"0.018": 0.0,
			"0.019": 0.0,
			"0.02": 0.0,
			"0.021": 0.0,
			"0.022": 0.0,
			"0.023": 0.0,
			"0.024": 0.0,
			"0.025": 0.0
		}
	}
}
