{
	 "smiles": "ClC1=C(Cl)C=C(C=C1)C1=NNC(=O)C2=C1C=CC=C2", 
	 "Tm": 548.15, 
	 "num_atms": 27, 
	 "gaussian": { 
		 "optdone": 1, 
		 "sigma_profile": "yes", 
		 "theory": "DFT", 
		 "functional": "B3LYP", 
		 "basiset": "6-31G**", 
		 "properties": { 
			 "R2extent": 7847.2392, 
			 "electric_dipole_moment_norm": 3.27449863949, 
			 "electric_quadrupole_moment_norm": 25.9043551093, 
			 "total_energy": -1643.42208696, 
			 "HOMO_LUMO_gap": 0.16648, 
			 "cosmo_polarized_energy": -13.19, 
			 "cosmo_cavitation_energy": 35.45, 
			 "cosmo_dispersion_energy": -26.24, 
			 "cosmo_repulsion_energy": 2.0, 
			 "cosmo_total_nonelectrostatic_energy": 11.21, 
			 "SMD_solvation_energy": 5.12 
		},
		"coords": [
			{
				"x": 1.0631183151,
				"y": -0.8338121639,
				"z": -5.6386422218,
				"element": "Cl" 
			},
			{
				"x": 0.7223969884,
				"y": -0.699043819,
				"z": -3.9327105865,
				"element": "C" 
			},
			{
				"x": 1.2837248997,
				"y": 0.3183858992,
				"z": -3.1480001812,
				"element": "C" 
			},
			{
				"x": 2.3582244957,
				"y": 1.5104382576,
				"z": -3.8366203647,
				"element": "Cl" 
			},
			{
				"x": 0.9826785291,
				"y": 0.3954425223,
				"z": -1.789031143,
				"element": "C" 
			},
			{
				"x": 0.1194686882,
				"y": -0.5295682882,
				"z": -1.1888996535,
				"element": "C" 
			},
			{
				"x": -0.4274085145,
				"y": -1.550718896,
				"z": -1.9809755264,
				"element": "C" 
			},
			{
				"x": -0.1285553156,
				"y": -1.6326289531,
				"z": -3.3376302556,
				"element": "C" 
			},
			{
				"x": -0.1378959662,
				"y": -0.4431624703,
				"z": 0.2758450012,
				"element": "C" 
			},
			{
				"x": 0.9270637797,
				"y": -0.2587911537,
				"z": 1.0081097407,
				"element": "N" 
			},
			{
				"x": 0.7780601853,
				"y": -0.192425889,
				"z": 2.34705427,
				"element": "N" 
			},
			{
				"x": -0.3799402363,
				"y": -0.3524273599,
				"z": 3.0990304542,
				"element": "C" 
			},
			{
				"x": -0.344772369,
				"y": -0.3289369823,
				"z": 4.3237443618,
				"element": "O" 
			},
			{
				"x": -1.5840584319,
				"y": -0.5169995795,
				"z": 2.2696014455,
				"element": "C" 
			},
			{
				"x": -1.4746543186,
				"y": -0.5423592247,
				"z": 0.8584037822,
				"element": "C" 
			},
			{
				"x": -2.6622707289,
				"y": -0.6167347806,
				"z": 0.1000364441,
				"element": "C" 
			},
			{
				"x": -3.8953528694,
				"y": -0.7020585675,
				"z": 0.7315084096,
				"element": "C" 
			},
			{
				"x": -3.986091374,
				"y": -0.7101806702,
				"z": 2.1325980615,
				"element": "C" 
			},
			{
				"x": -2.8337028031,
				"y": -0.6095944341,
				"z": 2.897531969,
				"element": "C" 
			},
			{
				"x": 1.4273063373,
				"y": 1.1808709148,
				"z": -1.1898210909,
				"element": "H" 
			},
			{
				"x": -1.0682308742,
				"y": -2.3033165761,
				"z": -1.5342866374,
				"element": "H" 
			},
			{
				"x": -0.5443337017,
				"y": -2.4279179183,
				"z": -3.9461950732,
				"element": "H" 
			},
			{
				"x": 1.6390726316,
				"y": -0.0694203586,
				"z": 2.8657736259,
				"element": "H" 
			},
			{
				"x": -2.6132669318,
				"y": -0.5908849563,
				"z": -0.981932881,
				"element": "H" 
			},
			{
				"x": -4.799343827,
				"y": -0.7562708724,
				"z": 0.1320009926,
				"element": "H" 
			},
			{
				"x": -4.9570201694,
				"y": -0.7806208029,
				"z": 2.6133419,
				"element": "H" 
			},
			{
				"x": -2.8624164183,
				"y": -0.5885628773,
				"z": 3.981665157,
				"element": "H" 
			}
		],
		 "valence_orbital": [ 
			{
				"type": "occ",
				"energy": -0.27525,
				"method": "rhf"
			},
			{
				"type": "occ",
				"energy": -0.27046,
				"method": "rhf"
			},
			{
				"type": "occ",
				"energy": -0.26135,
				"method": "rhf"
			},
			{
				"type": "occ",
				"energy": -0.25947,
				"method": "rhf"
			},
			{
				"type": "occ",
				"energy": -0.23346,
				"method": "rhf"
			},
			{
				"type": "unocc",
				"energy": -0.06698,
				"method": "rhf"
			},
			{
				"type": "unocc",
				"energy": -0.05364,
				"method": "rhf"
			},
			{
				"type": "unocc",
				"energy": -0.03432,
				"method": "rhf"
			},
			{
				"type": "unocc",
				"energy": -0.03059,
				"method": "rhf"
			},
			{
				"type": "unocc",
				"energy": -0.00176,
				"method": "rhf"
			}
		],
		"cosmo_sigma_profile": { 
			"-0.025": 0.0,
			"-0.024": 0.0,
			"-0.023": 0.0,
			"-0.022": 0.0,
			"-0.021": 0.0,
			"-0.02": 0.0,
			"-0.019": 0.0,
			"-0.018": 0.0,
			"-0.017": 0.0,
			"-0.016": 0.669854187537,
			"-0.015": 1.22650387222,
			"-0.014": 0.998735743494,
			"-0.013": 0.49874190777,
			"-0.012": 0.963215511657,
			"-0.011": 0.864112816272,
			"-0.01": 0.929889733453,
			"-0.009": 0.544758260264,
			"-0.008": 3.42510325138,
			"-0.007": 10.3064735804,
			"-0.006": 14.6241091557,
			"-0.005": 15.9690808988,
			"-0.004": 13.7367887266,
			"-0.003": 16.072021179,
			"-0.002": 21.8753363256,
			"-0.001": 21.2705647261,
			"0.0": 30.0512166488,
			"0.001": 33.934730018,
			"0.002": 29.6237224551,
			"0.003": 23.3043307705,
			"0.004": 19.280215669,
			"0.005": 6.3662042925,
			"0.006": 2.95259171268,
			"0.007": 2.95602643719,
			"0.008": 1.79753479688,
			"0.009": 1.19819066195,
			"0.01": 2.32844066374,
			"0.011": 3.20419059938,
			"0.012": 2.45354896001,
			"0.013": 5.87021293916,
			"0.014": 1.36636781885,
			"0.015": 0.0,
			"0.016": 0.0,
			"0.017": 0.0,
			"0.018": 0.0,
			"0.019": 0.0,
			"0.02": 0.0,
			"0.021": 0.0,
			"0.022": 0.0,
			"0.023": 0.0,
			"0.024": 0.0,
			"0.025": 0.0
		}
	}
}
