{
	 "smiles": "O=S(=O)(N1CCNCC1)C1=C2N=S=NC2=CC=C1", 
	 "Tm": 453.15, 
	 "num_atms": 30, 
	 "gaussian": { 
		 "optdone": 1, 
		 "sigma_profile": "yes", 
		 "theory": "DFT", 
		 "functional": "B3LYP", 
		 "basiset": "6-31G**", 
		 "properties": { 
			 "R2extent": 5508.6493, 
			 "electric_dipole_moment_norm": 2.99901728238, 
			 "electric_quadrupole_moment_norm": 22.9347839484, 
			 "total_energy": -1554.01491115, 
			 "HOMO_LUMO_gap": 0.11998, 
			 "cosmo_polarized_energy": -16.53, 
			 "cosmo_cavitation_energy": 35.2, 
			 "cosmo_dispersion_energy": -26.02, 
			 "cosmo_repulsion_energy": 1.89, 
			 "cosmo_total_nonelectrostatic_energy": 11.08, 
			 "SMD_solvation_energy": -1.04 
		},
		"coords": [
			{
				"x": 0.4862659159,
				"y": -1.9593074848,
				"z": -2.1216326844,
				"element": "O" 
			},
			{
				"x": -0.1516686415,
				"y": -0.6637930978,
				"z": -1.8555165015,
				"element": "S" 
			},
			{
				"x": -0.5038373176,
				"y": 0.2462565951,
				"z": -2.9463547221,
				"element": "O" 
			},
			{
				"x": 0.7771913755,
				"y": 0.1826666979,
				"z": -0.7357553736,
				"element": "N" 
			},
			{
				"x": 1.0913752755,
				"y": 1.5941865072,
				"z": -1.028927532,
				"element": "C" 
			},
			{
				"x": 1.4784730681,
				"y": 2.2864055202,
				"z": 0.2856693992,
				"element": "C" 
			},
			{
				"x": 2.5480957093,
				"y": 1.6115354186,
				"z": 1.0241312594,
				"element": "N" 
			},
			{
				"x": 2.2371910827,
				"y": 0.1964961776,
				"z": 1.2252604796,
				"element": "C" 
			},
			{
				"x": 1.864612527,
				"y": -0.5515833901,
				"z": -0.0648143699,
				"element": "C" 
			},
			{
				"x": -1.6562745891,
				"y": -1.0320038545,
				"z": -0.9392331064,
				"element": "C" 
			},
			{
				"x": -2.4835677702,
				"y": 0.0018037908,
				"z": -0.3967316762,
				"element": "C" 
			},
			{
				"x": -2.2579884172,
				"y": 1.3187185691,
				"z": -0.4172252748,
				"element": "N" 
			},
			{
				"x": -3.5310763532,
				"y": 2.0174299967,
				"z": 0.3528001261,
				"element": "S" 
			},
			{
				"x": -4.4036985697,
				"y": 0.6844447545,
				"z": 0.7433211028,
				"element": "N" 
			},
			{
				"x": -3.7181182491,
				"y": -0.3656246909,
				"z": 0.2749003703,
				"element": "C" 
			},
			{
				"x": -4.1016197527,
				"y": -1.7335711678,
				"z": 0.3925309126,
				"element": "C" 
			},
			{
				"x": -3.2743159054,
				"y": -2.6863705828,
				"z": -0.1406598947,
				"element": "C" 
			},
			{
				"x": -2.0564721957,
				"y": -2.3373166394,
				"z": -0.8061789809,
				"element": "C" 
			},
			{
				"x": 1.9212520024,
				"y": 1.6618099967,
				"z": -1.7506554129,
				"element": "H" 
			},
			{
				"x": 0.2131626099,
				"y": 2.0640365593,
				"z": -1.471152206,
				"element": "H" 
			},
			{
				"x": 1.7852073295,
				"y": 3.3169984852,
				"z": 0.0767431733,
				"element": "H" 
			},
			{
				"x": 0.5928710703,
				"y": 2.3276807515,
				"z": 0.9314076738,
				"element": "H" 
			},
			{
				"x": 3.4204189959,
				"y": 1.6940430609,
				"z": 0.5042786576,
				"element": "H" 
			},
			{
				"x": 1.3947915648,
				"y": 0.1317386381,
				"z": 1.9255445678,
				"element": "H" 
			},
			{
				"x": 3.0958786775,
				"y": -0.2958863767,
				"z": 1.6945899352,
				"element": "H" 
			},
			{
				"x": 2.7428996982,
				"y": -0.6307998352,
				"z": -0.7248030028,
				"element": "H" 
			},
			{
				"x": 1.5301646821,
				"y": -1.5666450079,
				"z": 0.1591231081,
				"element": "H" 
			},
			{
				"x": -5.0280345288,
				"y": -1.9859585578,
				"z": 0.8961749202,
				"element": "H" 
			},
			{
				"x": -3.5384301867,
				"y": -3.7365906807,
				"z": -0.0669975808,
				"element": "H" 
			},
			{
				"x": -1.4275491075,
				"y": -3.1162001531,
				"z": -1.2237373669,
				"element": "H" 
			}
		],
		 "valence_orbital": [ 
			{
				"type": "occ",
				"energy": -0.29973,
				"method": "rhf"
			},
			{
				"type": "occ",
				"energy": -0.28087,
				"method": "rhf"
			},
			{
				"type": "occ",
				"energy": -0.27046,
				"method": "rhf"
			},
			{
				"type": "occ",
				"energy": -0.25238,
				"method": "rhf"
			},
			{
				"type": "occ",
				"energy": -0.22394,
				"method": "rhf"
			},
			{
				"type": "unocc",
				"energy": -0.10396,
				"method": "rhf"
			},
			{
				"type": "unocc",
				"energy": -0.02073,
				"method": "rhf"
			},
			{
				"type": "unocc",
				"energy": -0.00822,
				"method": "rhf"
			},
			{
				"type": "unocc",
				"energy": -0.00215,
				"method": "rhf"
			},
			{
				"type": "unocc",
				"energy": 0.0543,
				"method": "rhf"
			}
		],
		"cosmo_sigma_profile": { 
			"-0.025": 0.0,
			"-0.024": 0.0,
			"-0.023": 0.0,
			"-0.022": 0.0,
			"-0.021": 0.0,
			"-0.02": 0.0,
			"-0.019": 0.0,
			"-0.018": 0.0,
			"-0.017": 0.0,
			"-0.016": 0.0,
			"-0.015": 0.0,
			"-0.014": 0.0,
			"-0.013": 0.0,
			"-0.012": 0.0,
			"-0.011": 0.0361258895943,
			"-0.01": 1.06609983275,
			"-0.009": 2.35093736415,
			"-0.008": 6.59072020291,
			"-0.007": 8.43365675118,
			"-0.006": 9.09731998773,
			"-0.005": 20.0733594537,
			"-0.004": 31.4396858022,
			"-0.003": 30.0176981399,
			"-0.002": 32.0686733469,
			"-0.001": 23.5044400692,
			"0.0": 20.3769627224,
			"0.001": 13.7862860276,
			"0.002": 10.3656563995,
			"0.003": 8.00461800514,
			"0.004": 6.45151064843,
			"0.005": 8.00722077861,
			"0.006": 5.86181916137,
			"0.007": 5.78489039606,
			"0.008": 6.53236769877,
			"0.009": 6.03717867077,
			"0.01": 9.44826705505,
			"0.011": 10.590339833,
			"0.012": 2.9972608813,
			"0.013": 0.286457243637,
			"0.014": 0.92975695813,
			"0.015": 0.86015042834,
			"0.016": 0.429030811497,
			"0.017": 0.512470787996,
			"0.018": 0.370531848086,
			"0.019": 0.00370980526234,
			"0.02": 0.0,
			"0.021": 0.0,
			"0.022": 0.0,
			"0.023": 0.0,
			"0.024": 0.0,
			"0.025": 0.0
		}
	}
}
