{
	 "smiles": "OC(=O)C1=CC(NS(=O)(=O)C2=CC=CC=C2)=CC=C1", 
	 "Tm": 473.15, 
	 "num_atms": 30, 
	 "gaussian": { 
		 "optdone": 1, 
		 "sigma_profile": "yes", 
		 "theory": "DFT", 
		 "functional": "B3LYP", 
		 "basiset": "6-31G**", 
		 "properties": { 
			 "R2extent": 6141.2929, 
			 "electric_dipole_moment_norm": 2.27122631853, 
			 "electric_quadrupole_moment_norm": 35.1995366318, 
			 "total_energy": -1255.78433279, 
			 "HOMO_LUMO_gap": 0.19073, 
			 "cosmo_polarized_energy": -25.09, 
			 "cosmo_cavitation_energy": 36.61, 
			 "cosmo_dispersion_energy": -25.76, 
			 "cosmo_repulsion_energy": 1.95, 
			 "cosmo_total_nonelectrostatic_energy": 12.8, 
			 "SMD_solvation_energy": 6.52 
		},
		"coords": [
			{
				"x": 0.3050962362,
				"y": 3.759658334,
				"z": -3.049765668,
				"element": "O" 
			},
			{
				"x": 0.0456754088,
				"y": 4.1703569989,
				"z": -1.7781302328,
				"element": "C" 
			},
			{
				"x": -0.6788645622,
				"y": 5.1166032681,
				"z": -1.5830921657,
				"element": "O" 
			},
			{
				"x": 0.6978534284,
				"y": 3.390128894,
				"z": -0.6749793359,
				"element": "C" 
			},
			{
				"x": 1.0868629654,
				"y": 2.0535721523,
				"z": -0.8321897051,
				"element": "C" 
			},
			{
				"x": 1.6849363099,
				"y": 1.3592627927,
				"z": 0.2271007871,
				"element": "C" 
			},
			{
				"x": 2.1159167283,
				"y": 0.021478331,
				"z": 0.0355916565,
				"element": "N" 
			},
			{
				"x": 1.6451438146,
				"y": -1.2755227729,
				"z": 1.0413946477,
				"element": "S" 
			},
			{
				"x": 2.2466613788,
				"y": -2.441636329,
				"z": 0.3966170559,
				"element": "O" 
			},
			{
				"x": 1.9530670454,
				"y": -0.8817038609,
				"z": 2.4147375905,
				"element": "O" 
			},
			{
				"x": -0.1379318278,
				"y": -1.4060749782,
				"z": 0.8922754937,
				"element": "C" 
			},
			{
				"x": -0.9552051006,
				"y": -0.6429713795,
				"z": 1.730442154,
				"element": "C" 
			},
			{
				"x": -2.3394573847,
				"y": -0.7286836142,
				"z": 1.5803603448,
				"element": "C" 
			},
			{
				"x": -2.8899573139,
				"y": -1.5696762415,
				"z": 0.6103973068,
				"element": "C" 
			},
			{
				"x": -2.060473823,
				"y": -2.3354493915,
				"z": -0.2129422138,
				"element": "C" 
			},
			{
				"x": -0.6746496257,
				"y": -2.2569866685,
				"z": -0.077745974,
				"element": "C" 
			},
			{
				"x": 1.8939704848,
				"y": 2.0119711952,
				"z": 1.45146287,
				"element": "C" 
			},
			{
				"x": 1.4675973604,
				"y": 3.3300702505,
				"z": 1.6124473195,
				"element": "C" 
			},
			{
				"x": 0.867642873,
				"y": 4.0218385801,
				"z": 0.5623758185,
				"element": "C" 
			},
			{
				"x": 1.0370397614,
				"y": 3.1273140813,
				"z": -3.0505092541,
				"element": "H" 
			},
			{
				"x": 0.8873683524,
				"y": 1.5237782887,
				"z": -1.7612686683,
				"element": "H" 
			},
			{
				"x": 2.1351205186,
				"y": -0.2952280874,
				"z": -0.9285874553,
				"element": "H" 
			},
			{
				"x": -0.5124755101,
				"y": -0.0123336981,
				"z": 2.4927440122,
				"element": "H" 
			},
			{
				"x": -2.9869643908,
				"y": -0.1433383342,
				"z": 2.2258043913,
				"element": "H" 
			},
			{
				"x": -3.9683823141,
				"y": -1.6342863608,
				"z": 0.5007864535,
				"element": "H" 
			},
			{
				"x": -2.4918351648,
				"y": -2.9992353173,
				"z": -0.9559411938,
				"element": "H" 
			},
			{
				"x": -0.0141577974,
				"y": -2.8587203779,
				"z": -0.6927009867,
				"element": "H" 
			},
			{
				"x": 2.3801069608,
				"y": 1.4781716348,
				"z": 2.2587974998,
				"element": "H" 
			},
			{
				"x": 1.6232614442,
				"y": 3.8248641602,
				"z": 2.5662918257,
				"element": "H" 
			},
			{
				"x": 0.533033744,
				"y": 5.04697845,
				"z": 0.6741256259,
				"element": "H" 
			}
		],
		 "valence_orbital": [ 
			{
				"type": "occ",
				"energy": -0.28558,
				"method": "rhf"
			},
			{
				"type": "occ",
				"energy": -0.28222,
				"method": "rhf"
			},
			{
				"type": "occ",
				"energy": -0.28035,
				"method": "rhf"
			},
			{
				"type": "occ",
				"energy": -0.27552,
				"method": "rhf"
			},
			{
				"type": "occ",
				"energy": -0.24982,
				"method": "rhf"
			},
			{
				"type": "unocc",
				"energy": -0.05909,
				"method": "rhf"
			},
			{
				"type": "unocc",
				"energy": -0.05283,
				"method": "rhf"
			},
			{
				"type": "unocc",
				"energy": -0.03264,
				"method": "rhf"
			},
			{
				"type": "unocc",
				"energy": -0.02599,
				"method": "rhf"
			},
			{
				"type": "unocc",
				"energy": 0.0332,
				"method": "rhf"
			}
		],
		"cosmo_sigma_profile": { 
			"-0.025": 0.0,
			"-0.024": 0.0,
			"-0.023": 0.0,
			"-0.022": 0.0,
			"-0.021": 0.0,
			"-0.02": 0.0,
			"-0.019": 0.267606880032,
			"-0.018": 0.995716121671,
			"-0.017": 1.25741162106,
			"-0.016": 1.74639751495,
			"-0.015": 1.70111662568,
			"-0.014": 2.53657874244,
			"-0.013": 2.44596326373,
			"-0.012": 3.39073336377,
			"-0.011": 2.75992571246,
			"-0.01": 2.11969320925,
			"-0.009": 2.65944332636,
			"-0.008": 2.84009336406,
			"-0.007": 11.4680993368,
			"-0.006": 17.5269607517,
			"-0.005": 19.5125521928,
			"-0.004": 14.4918701423,
			"-0.003": 15.7317143959,
			"-0.002": 15.7167088499,
			"-0.001": 14.7163398044,
			"0.0": 17.0419535644,
			"0.001": 21.2368092129,
			"0.002": 27.7310815326,
			"0.003": 23.436966022,
			"0.004": 7.63069071868,
			"0.005": 5.87470313159,
			"0.006": 6.59515506122,
			"0.007": 6.27500803013,
			"0.008": 6.95499872837,
			"0.009": 7.40923138557,
			"0.01": 12.1017159156,
			"0.011": 12.3260924032,
			"0.012": 4.50059236913,
			"0.013": 1.00834955142,
			"0.014": 0.0,
			"0.015": 0.0,
			"0.016": 0.0,
			"0.017": 0.0,
			"0.018": 0.0,
			"0.019": 0.0,
			"0.02": 0.0,
			"0.021": 0.0,
			"0.022": 0.0,
			"0.023": 0.0,
			"0.024": 0.0,
			"0.025": 0.0
		}
	}
}
