{
	 "smiles": "OC(=O)CCNC(=O)C1=CNC2=C1C=CC=C2", 
	 "Tm": 431.15, 
	 "num_atms": 29, 
	 "gaussian": { 
		 "optdone": 1, 
		 "sigma_profile": "yes", 
		 "theory": "DFT", 
		 "functional": "B3LYP", 
		 "basiset": "6-31G**", 
		 "properties": { 
			 "R2extent": 5317.3157, 
			 "electric_dipole_moment_norm": 8.30606096835, 
			 "electric_quadrupole_moment_norm": 26.5908977902, 
			 "total_energy": -799.721650742, 
			 "HOMO_LUMO_gap": 0.18615, 
			 "cosmo_polarized_energy": -24.81, 
			 "cosmo_cavitation_energy": 33.26, 
			 "cosmo_dispersion_energy": -23.84, 
			 "cosmo_repulsion_energy": 1.83, 
			 "cosmo_total_nonelectrostatic_energy": 11.26, 
			 "SMD_solvation_energy": 7.25 
		},
		"coords": [
			{
				"x": -3.1111232876,
				"y": 0.0699737883,
				"z": -1.86600932,
				"element": "O" 
			},
			{
				"x": -2.9267076673,
				"y": -0.7302830008,
				"z": -2.9434479962,
				"element": "C" 
			},
			{
				"x": -3.863337266,
				"y": -1.1032194859,
				"z": -3.6076215354,
				"element": "O" 
			},
			{
				"x": -1.4750577762,
				"y": -1.0890736929,
				"z": -3.2519690657,
				"element": "C" 
			},
			{
				"x": -0.6399753246,
				"y": -1.5452425122,
				"z": -2.0426287461,
				"element": "C" 
			},
			{
				"x": -0.4710052787,
				"y": -0.4848937378,
				"z": -1.0324219018,
				"element": "N" 
			},
			{
				"x": 0.5558989987,
				"y": 0.4488930473,
				"z": -1.2174990898,
				"element": "C" 
			},
			{
				"x": 1.1534893524,
				"y": 0.523473467,
				"z": -2.2864806238,
				"element": "O" 
			},
			{
				"x": 0.8476618571,
				"y": 1.3209637192,
				"z": -0.0696018239,
				"element": "C" 
			},
			{
				"x": 1.990140282,
				"y": 2.094320673,
				"z": -0.0354427175,
				"element": "C" 
			},
			{
				"x": 2.0497987701,
				"y": 2.780107079,
				"z": 1.1437469685,
				"element": "N" 
			},
			{
				"x": 0.9355147399,
				"y": 2.4824895152,
				"z": 1.9135455604,
				"element": "C" 
			},
			{
				"x": 0.1418992047,
				"y": 1.5612884525,
				"z": 1.1752006332,
				"element": "C" 
			},
			{
				"x": -1.0766307448,
				"y": 1.1368318435,
				"z": 1.7383675252,
				"element": "C" 
			},
			{
				"x": -1.4438250572,
				"y": 1.6040812579,
				"z": 2.9949642458,
				"element": "C" 
			},
			{
				"x": -0.6270929494,
				"y": 2.4997872106,
				"z": 3.7110379253,
				"element": "C" 
			},
			{
				"x": 0.5718092238,
				"y": 2.9564757452,
				"z": 3.1761140091,
				"element": "C" 
			},
			{
				"x": -2.2420887741,
				"y": 0.2373214522,
				"z": -1.449004231,
				"element": "H" 
			},
			{
				"x": -0.9808632274,
				"y": -0.2186388612,
				"z": -3.6988718434,
				"element": "H" 
			},
			{
				"x": -1.4934848925,
				"y": -1.880015296,
				"z": -4.0047026122,
				"element": "H" 
			},
			{
				"x": 0.3436352765,
				"y": -1.8652222975,
				"z": -2.3999698355,
				"element": "H" 
			},
			{
				"x": -1.1211334067,
				"y": -2.3932896403,
				"z": -1.5470166449,
				"element": "H" 
			},
			{
				"x": -0.6027582226,
				"y": -0.7764687221,
				"z": -0.0716095903,
				"element": "H" 
			},
			{
				"x": 2.7598561139,
				"y": 2.1777968901,
				"z": -0.7882420758,
				"element": "H" 
			},
			{
				"x": 2.7900426708,
				"y": 3.409346107,
				"z": 1.4114757802,
				"element": "H" 
			},
			{
				"x": -1.7482865771,
				"y": 0.4760618209,
				"z": 1.1990019514,
				"element": "H" 
			},
			{
				"x": -2.3845414047,
				"y": 1.2796590886,
				"z": 3.4290985753,
				"element": "H" 
			},
			{
				"x": -0.9429297556,
				"y": 2.8468598455,
				"z": 4.6899319696,
				"element": "H" 
			},
			{
				"x": 1.1991951228,
				"y": 3.6591162437,
				"z": 3.7169545092,
				"element": "H" 
			}
		],
		 "valence_orbital": [ 
			{
				"type": "occ",
				"energy": -0.28063,
				"method": "rhf"
			},
			{
				"type": "occ",
				"energy": -0.26686,
				"method": "rhf"
			},
			{
				"type": "occ",
				"energy": -0.25104,
				"method": "rhf"
			},
			{
				"type": "occ",
				"energy": -0.24458,
				"method": "rhf"
			},
			{
				"type": "occ",
				"energy": -0.2275,
				"method": "rhf"
			},
			{
				"type": "unocc",
				"energy": -0.04135,
				"method": "rhf"
			},
			{
				"type": "unocc",
				"energy": -0.01216,
				"method": "rhf"
			},
			{
				"type": "unocc",
				"energy": 0.00637,
				"method": "rhf"
			},
			{
				"type": "unocc",
				"energy": 0.02592,
				"method": "rhf"
			},
			{
				"type": "unocc",
				"energy": 0.05944,
				"method": "rhf"
			}
		],
		"cosmo_sigma_profile": { 
			"-0.025": 0.0,
			"-0.024": 0.0,
			"-0.023": 0.0,
			"-0.022": 0.0,
			"-0.021": 0.0,
			"-0.02": 0.0,
			"-0.019": 0.0,
			"-0.018": 0.0,
			"-0.017": 0.30659838877,
			"-0.016": 1.81957223828,
			"-0.015": 1.63150960101,
			"-0.014": 1.96467552196,
			"-0.013": 2.41752854946,
			"-0.012": 2.75472475963,
			"-0.011": 2.92798720744,
			"-0.01": 3.41138049281,
			"-0.009": 5.89244215207,
			"-0.008": 7.37439643632,
			"-0.007": 11.5169236643,
			"-0.006": 12.8838266039,
			"-0.005": 18.8897735052,
			"-0.004": 18.1392461074,
			"-0.003": 17.5737130211,
			"-0.002": 13.3137830535,
			"-0.001": 10.0740309515,
			"0.0": 11.0568235009,
			"0.001": 10.7488895989,
			"0.002": 14.013712646,
			"0.003": 15.8877624993,
			"0.004": 13.410096355,
			"0.005": 12.8303142154,
			"0.006": 10.5413050761,
			"0.007": 4.44534985595,
			"0.008": 4.71209088636,
			"0.009": 3.6488068219,
			"0.01": 4.29820659242,
			"0.011": 7.28191823633,
			"0.012": 9.20154045364,
			"0.013": 8.07616064785,
			"0.014": 2.02539472619,
			"0.015": 0.0,
			"0.016": 0.0,
			"0.017": 0.0,
			"0.018": 0.0,
			"0.019": 0.0,
			"0.02": 0.0,
			"0.021": 0.0,
			"0.022": 0.0,
			"0.023": 0.0,
			"0.024": 0.0,
			"0.025": 0.0
		}
	}
}
