{
	 "smiles": "CN1C=C(Br)C(=N1)C1=CC(N)=CC=C1", 
	 "Tm": 369.15, 
	 "num_atms": 24, 
	 "gaussian": { 
		 "optdone": 1, 
		 "sigma_profile": "yes", 
		 "theory": "DFT", 
		 "functional": "B3LYP", 
		 "basiset": "6-31G**", 
		 "properties": { 
			 "R2extent": 4827.0783, 
			 "electric_dipole_moment_norm": 2.45926340395, 
			 "electric_quadrupole_moment_norm": 24.5324971473, 
			 "total_energy": -3122.7320971, 
			 "HOMO_LUMO_gap": 0.18022, 
			 "cosmo_polarized_energy": -14.06, 
			 "cosmo_cavitation_energy": 30.33, 
			 "cosmo_dispersion_energy": -22.57, 
			 "cosmo_repulsion_energy": 1.79, 
			 "cosmo_total_nonelectrostatic_energy": 9.54, 
			 "SMD_solvation_energy": 3.57 
		},
		"coords": [
			{
				"x": -4.1517269836,
				"y": -2.4697064747,
				"z": 0.3210084181,
				"element": "C" 
			},
			{
				"x": -3.2717067553,
				"y": -1.416738396,
				"z": -0.1499059044,
				"element": "N" 
			},
			{
				"x": -3.5279582536,
				"y": -0.4720129685,
				"z": -1.087642497,
				"element": "C" 
			},
			{
				"x": -2.3521432036,
				"y": 0.2324394189,
				"z": -1.2525005035,
				"element": "C" 
			},
			{
				"x": -2.1911182779,
				"y": 1.726330597,
				"z": -2.3987733601,
				"element": "Br" 
			},
			{
				"x": -1.4090306288,
				"y": -0.3587870967,
				"z": -0.3649397531,
				"element": "C" 
			},
			{
				"x": -2.0007796564,
				"y": -1.3705050353,
				"z": 0.2903184329,
				"element": "N" 
			},
			{
				"x": -0.0011782683,
				"y": -0.0300574522,
				"z": -0.0707355157,
				"element": "C" 
			},
			{
				"x": 0.8171469196,
				"y": 0.6003914687,
				"z": -1.0160219242,
				"element": "C" 
			},
			{
				"x": 2.1605550516,
				"y": 0.8922858428,
				"z": -0.7309089968,
				"element": "C" 
			},
			{
				"x": 2.948909449,
				"y": 1.5732206922,
				"z": -1.6643833772,
				"element": "N" 
			},
			{
				"x": 2.6824433634,
				"y": 0.5352562661,
				"z": 0.5225899086,
				"element": "C" 
			},
			{
				"x": 1.8696596622,
				"y": -0.0998332443,
				"z": 1.4598804644,
				"element": "C" 
			},
			{
				"x": 0.5365205609,
				"y": -0.3851732667,
				"z": 1.1788396165,
				"element": "C" 
			},
			{
				"x": -3.9179707009,
				"y": -3.4217174641,
				"z": -0.1660105039,
				"element": "H" 
			},
			{
				"x": -5.1856292741,
				"y": -2.1958793944,
				"z": 0.1030980336,
				"element": "H" 
			},
			{
				"x": -4.0234558078,
				"y": -2.5804574661,
				"z": 1.3990407644,
				"element": "H" 
			},
			{
				"x": -4.4937356486,
				"y": -0.3541532619,
				"z": -1.5548704972,
				"element": "H" 
			},
			{
				"x": 0.4172773778,
				"y": 0.8657006725,
				"z": -1.9885020388,
				"element": "H" 
			},
			{
				"x": 2.6389058398,
				"y": 1.4898763299,
				"z": -2.6230002943,
				"element": "H" 
			},
			{
				"x": 3.9431890856,
				"y": 1.4119281245,
				"z": -1.5791402115,
				"element": "H" 
			},
			{
				"x": 3.7197792203,
				"y": 0.7608569776,
				"z": 0.7578478516,
				"element": "H" 
			},
			{
				"x": 2.2855791489,
				"y": -0.3728365437,
				"z": 2.4259763405,
				"element": "H" 
			},
			{
				"x": -0.0951322203,
				"y": -0.8780283256,
				"z": 1.9082355472,
				"element": "H" 
			}
		],
		 "valence_orbital": [ 
			{
				"type": "occ",
				"energy": -0.27449,
				"method": "rhf"
			},
			{
				"type": "occ",
				"energy": -0.26863,
				"method": "rhf"
			},
			{
				"type": "occ",
				"energy": -0.23577,
				"method": "rhf"
			},
			{
				"type": "occ",
				"energy": -0.21784,
				"method": "rhf"
			},
			{
				"type": "occ",
				"energy": -0.19288,
				"method": "rhf"
			},
			{
				"type": "unocc",
				"energy": -0.01266,
				"method": "rhf"
			},
			{
				"type": "unocc",
				"energy": 0.01575,
				"method": "rhf"
			},
			{
				"type": "unocc",
				"energy": 0.01934,
				"method": "rhf"
			},
			{
				"type": "unocc",
				"energy": 0.02801,
				"method": "rhf"
			},
			{
				"type": "unocc",
				"energy": 0.08286,
				"method": "rhf"
			}
		],
		"cosmo_sigma_profile": { 
			"-0.025": 0.0,
			"-0.024": 0.0,
			"-0.023": 0.0,
			"-0.022": 0.0,
			"-0.021": 0.0,
			"-0.02": 0.0,
			"-0.019": 0.0,
			"-0.018": 0.0,
			"-0.017": 0.0,
			"-0.016": 0.0,
			"-0.015": 0.0,
			"-0.014": 0.0,
			"-0.013": 0.163793374299,
			"-0.012": 2.25362160389,
			"-0.011": 2.53038838842,
			"-0.01": 4.4007606682,
			"-0.009": 6.39462092444,
			"-0.008": 5.5883520337,
			"-0.007": 8.44362156879,
			"-0.006": 10.9338804581,
			"-0.005": 11.6719475632,
			"-0.004": 17.4450156405,
			"-0.003": 17.9651888094,
			"-0.002": 13.0883709774,
			"-0.001": 10.3390864924,
			"0.0": 11.7036241858,
			"0.001": 12.8042733047,
			"0.002": 16.5332042918,
			"0.003": 23.7660537542,
			"0.004": 20.178573503,
			"0.005": 15.5670714123,
			"0.006": 13.4826277684,
			"0.007": 7.21577562468,
			"0.008": 2.8895317299,
			"0.009": 2.56593804193,
			"0.01": 1.26433856542,
			"0.011": 1.69461066952,
			"0.012": 1.66793623123,
			"0.013": 1.35272933507,
			"0.014": 1.18254392517,
			"0.015": 0.332966103898,
			"0.016": 0.0,
			"0.017": 0.0,
			"0.018": 0.0,
			"0.019": 0.0,
			"0.02": 0.0,
			"0.021": 0.0,
			"0.022": 0.0,
			"0.023": 0.0,
			"0.024": 0.0,
			"0.025": 0.0
		}
	}
}
