{
	 "smiles": "NC(=O)C1=CNC(=O)C=C1", 
	 "Tm": 590.15, 
	 "num_atms": 16, 
	 "gaussian": { 
		 "optdone": 1, 
		 "sigma_profile": "yes", 
		 "theory": "DFT", 
		 "functional": "B3LYP", 
		 "basiset": "6-31G**", 
		 "properties": { 
			 "R2extent": 1835.0126, 
			 "electric_dipole_moment_norm": 4.86236042885, 
			 "electric_quadrupole_moment_norm": 23.2064837862, 
			 "total_energy": -492.225914753, 
			 "HOMO_LUMO_gap": 0.17672, 
			 "cosmo_polarized_energy": -22.1, 
			 "cosmo_cavitation_energy": 20.93, 
			 "cosmo_dispersion_energy": -15.68, 
			 "cosmo_repulsion_energy": 1.28, 
			 "cosmo_total_nonelectrostatic_energy": 6.53, 
			 "SMD_solvation_energy": 5.46 
		},
		"coords": [
			{
				"x": -2.2299970754,
				"y": -0.2004926889,
				"z": 2.0794841323,
				"element": "N" 
			},
			{
				"x": -0.958738908,
				"y": 0.2862019728,
				"z": 1.8395034073,
				"element": "C" 
			},
			{
				"x": -0.1409943176,
				"y": 0.4284169713,
				"z": 2.7396766164,
				"element": "O" 
			},
			{
				"x": -0.6473881195,
				"y": 0.669347512,
				"z": 0.4335419096,
				"element": "C" 
			},
			{
				"x": -1.6044951735,
				"y": 0.9187966986,
				"z": -0.5153801242,
				"element": "C" 
			},
			{
				"x": -1.2503632834,
				"y": 1.2932902303,
				"z": -1.771894444,
				"element": "N" 
			},
			{
				"x": 0.0787600537,
				"y": 1.4684897435,
				"z": -2.2378432442,
				"element": "C" 
			},
			{
				"x": 0.2732572772,
				"y": 1.8007416142,
				"z": -3.4000827284,
				"element": "O" 
			},
			{
				"x": 1.0744824923,
				"y": 1.2241853535,
				"z": -1.2072910876,
				"element": "C" 
			},
			{
				"x": 0.7237727597,
				"y": 0.8566689593,
				"z": 0.05588385,
				"element": "C" 
			},
			{
				"x": -2.7028560802,
				"y": -0.7182087501,
				"z": 1.3536059856,
				"element": "H" 
			},
			{
				"x": -2.3650477714,
				"y": -0.5487561046,
				"z": 3.0189860365,
				"element": "H" 
			},
			{
				"x": -2.6692304355,
				"y": 0.8662861364,
				"z": -0.3146869436,
				"element": "H" 
			},
			{
				"x": -1.9598737683,
				"y": 1.4938427002,
				"z": -2.4664324726,
				"element": "H" 
			},
			{
				"x": 2.1089154299,
				"y": 1.3604112883,
				"z": -1.5005287754,
				"element": "H" 
			},
			{
				"x": 1.4738969201,
				"y": 0.6943783631,
				"z": 0.8235578822,
				"element": "H" 
			}
		],
		 "valence_orbital": [ 
			{
				"type": "occ",
				"energy": -0.31264,
				"method": "rhf"
			},
			{
				"type": "occ",
				"energy": -0.28547,
				"method": "rhf"
			},
			{
				"type": "occ",
				"energy": -0.26365,
				"method": "rhf"
			},
			{
				"type": "occ",
				"energy": -0.25691,
				"method": "rhf"
			},
			{
				"type": "occ",
				"energy": -0.22991,
				"method": "rhf"
			},
			{
				"type": "unocc",
				"energy": -0.05319,
				"method": "rhf"
			},
			{
				"type": "unocc",
				"energy": -0.02858,
				"method": "rhf"
			},
			{
				"type": "unocc",
				"energy": 0.0512,
				"method": "rhf"
			},
			{
				"type": "unocc",
				"energy": 0.0592,
				"method": "rhf"
			},
			{
				"type": "unocc",
				"energy": 0.07875,
				"method": "rhf"
			}
		],
		"cosmo_sigma_profile": { 
			"-0.025": 0.0,
			"-0.024": 0.0,
			"-0.023": 0.0,
			"-0.022": 0.0,
			"-0.021": 0.0,
			"-0.02": 0.0,
			"-0.019": 0.0,
			"-0.018": 0.0,
			"-0.017": 0.424605626346,
			"-0.016": 1.75249782246,
			"-0.015": 1.53333112951,
			"-0.014": 3.05164169569,
			"-0.013": 3.8688276159,
			"-0.012": 4.71461147697,
			"-0.011": 4.06773379844,
			"-0.01": 5.75433388062,
			"-0.009": 3.25296387488,
			"-0.008": 2.9348354262,
			"-0.007": 4.57567897099,
			"-0.006": 5.80403578402,
			"-0.005": 6.72742325667,
			"-0.004": 6.79951928532,
			"-0.003": 5.09194291318,
			"-0.002": 8.5052960263,
			"-0.001": 14.1509237808,
			"0.0": 10.6394387968,
			"0.001": 10.1002208548,
			"0.002": 8.78772872494,
			"0.003": 6.62040611947,
			"0.004": 3.80031915693,
			"0.005": 3.64988454136,
			"0.006": 2.68177175499,
			"0.007": 3.06297752935,
			"0.008": 3.22703534258,
			"0.009": 2.53855046412,
			"0.01": 2.82849852225,
			"0.011": 3.07688840849,
			"0.012": 4.37520506768,
			"0.013": 9.03538705324,
			"0.014": 8.08341773236,
			"0.015": 1.44861718333,
			"0.016": 0.00648442596598,
			"0.017": 0.0,
			"0.018": 0.0,
			"0.019": 0.0,
			"0.02": 0.0,
			"0.021": 0.0,
			"0.022": 0.0,
			"0.023": 0.0,
			"0.024": 0.0,
			"0.025": 0.0
		}
	}
}
