{
	 "smiles": "CC=CC1=CC=C2OCOC2=C1", 
	 "Tm": 281.35, 
	 "num_atms": 22, 
	 "gaussian": { 
		 "optdone": 1, 
		 "sigma_profile": "yes", 
		 "theory": "DFT", 
		 "functional": "B3LYP", 
		 "basiset": "6-31G**", 
		 "properties": { 
			 "R2extent": 3054.1369, 
			 "electric_dipole_moment_norm": 0.389878250227, 
			 "electric_quadrupole_moment_norm": 8.72236555184, 
			 "total_energy": -537.5011716, 
			 "HOMO_LUMO_gap": 0.17279, 
			 "cosmo_polarized_energy": -6.34, 
			 "cosmo_cavitation_energy": 25.79, 
			 "cosmo_dispersion_energy": -19.52, 
			 "cosmo_repulsion_energy": 1.55, 
			 "cosmo_total_nonelectrostatic_energy": 7.82, 
			 "SMD_solvation_energy": 5.27 
		},
		"coords": [
			{
				"x": 2.9148809394,
				"y": 2.4573266191,
				"z": -0.442663425,
				"element": "C" 
			},
			{
				"x": 1.5762784463,
				"y": 1.803125993,
				"z": -0.2677481525,
				"element": "C" 
			},
			{
				"x": 1.2444666404,
				"y": 0.6057491518,
				"z": -0.7739585069,
				"element": "C" 
			},
			{
				"x": -0.0368727957,
				"y": -0.1033626746,
				"z": -0.6487718754,
				"element": "C" 
			},
			{
				"x": -0.1785774218,
				"y": -1.3496215825,
				"z": -1.2807968636,
				"element": "C" 
			},
			{
				"x": -1.3653671235,
				"y": -2.1001488744,
				"z": -1.2205329193,
				"element": "C" 
			},
			{
				"x": -2.4094718225,
				"y": -1.5540466359,
				"z": -0.5032051883,
				"element": "C" 
			},
			{
				"x": -3.6583241548,
				"y": -2.076419807,
				"z": -0.2663975853,
				"element": "O" 
			},
			{
				"x": -4.3836429534,
				"y": -1.0505582376,
				"z": 0.4213919473,
				"element": "C" 
			},
			{
				"x": -3.4585704062,
				"y": -0.0233186524,
				"z": 0.7915904983,
				"element": "O" 
			},
			{
				"x": -2.2871545141,
				"y": -0.3180289552,
				"z": 0.1324124406,
				"element": "C" 
			},
			{
				"x": -1.1312019576,
				"y": 0.4261808082,
				"z": 0.0842281077,
				"element": "C" 
			},
			{
				"x": 2.8214954467,
				"y": 3.4309523384,
				"z": -0.9416368905,
				"element": "H" 
			},
			{
				"x": 3.5919280157,
				"y": 1.8362971283,
				"z": -1.0371948608,
				"element": "H" 
			},
			{
				"x": 3.3945903162,
				"y": 2.6503447271,
				"z": 0.5259874273,
				"element": "H" 
			},
			{
				"x": 0.8474453059,
				"y": 2.3660838016,
				"z": 0.314757368,
				"element": "H" 
			},
			{
				"x": 2.0001274457,
				"y": 0.0741938068,
				"z": -1.3534576564,
				"element": "H" 
			},
			{
				"x": 0.6622880939,
				"y": -1.748425388,
				"z": -1.8408052478,
				"element": "H" 
			},
			{
				"x": -1.4581026339,
				"y": -3.0621028181,
				"z": -1.7118008988,
				"element": "H" 
			},
			{
				"x": -4.8425941805,
				"y": -1.4706573756,
				"z": 1.3220811519,
				"element": "H" 
			},
			{
				"x": -5.1499496805,
				"y": -0.6324314461,
				"z": -0.2473195411,
				"element": "H" 
			},
			{
				"x": -1.0707710054,
				"y": 1.380168073,
				"z": 0.5943406707,
				"element": "H" 
			}
		],
		 "valence_orbital": [ 
			{
				"type": "occ",
				"energy": -0.34141,
				"method": "rhf"
			},
			{
				"type": "occ",
				"energy": -0.32806,
				"method": "rhf"
			},
			{
				"type": "occ",
				"energy": -0.26591,
				"method": "rhf"
			},
			{
				"type": "occ",
				"energy": -0.23318,
				"method": "rhf"
			},
			{
				"type": "occ",
				"energy": -0.19383,
				"method": "rhf"
			},
			{
				"type": "unocc",
				"energy": -0.02104,
				"method": "rhf"
			},
			{
				"type": "unocc",
				"energy": 0.00771,
				"method": "rhf"
			},
			{
				"type": "unocc",
				"energy": 0.07286,
				"method": "rhf"
			},
			{
				"type": "unocc",
				"energy": 0.0984,
				"method": "rhf"
			},
			{
				"type": "unocc",
				"energy": 0.1048,
				"method": "rhf"
			}
		],
		"cosmo_sigma_profile": { 
			"-0.025": 0.0,
			"-0.024": 0.0,
			"-0.023": 0.0,
			"-0.022": 0.0,
			"-0.021": 0.0,
			"-0.02": 0.0,
			"-0.019": 0.0,
			"-0.018": 0.0,
			"-0.017": 0.0,
			"-0.016": 0.0,
			"-0.015": 0.0,
			"-0.014": 0.0,
			"-0.013": 0.0,
			"-0.012": 0.0,
			"-0.011": 0.0,
			"-0.01": 0.0,
			"-0.009": 0.0,
			"-0.008": 2.50568549699,
			"-0.007": 9.01214799386,
			"-0.006": 12.2193316413,
			"-0.005": 11.6121814683,
			"-0.004": 14.9222271897,
			"-0.003": 16.0634930243,
			"-0.002": 15.3913589625,
			"-0.001": 15.574044696,
			"0.0": 16.8640048081,
			"0.001": 13.4626825847,
			"0.002": 13.7714822703,
			"0.003": 14.9066509978,
			"0.004": 14.5515544583,
			"0.005": 15.3364994369,
			"0.006": 7.58773692493,
			"0.007": 3.37106753184,
			"0.008": 3.28674040904,
			"0.009": 3.12503648089,
			"0.01": 2.08901828642,
			"0.011": 0.0,
			"0.012": 0.0,
			"0.013": 0.0,
			"0.014": 0.0,
			"0.015": 0.0,
			"0.016": 0.0,
			"0.017": 0.0,
			"0.018": 0.0,
			"0.019": 0.0,
			"0.02": 0.0,
			"0.021": 0.0,
			"0.022": 0.0,
			"0.023": 0.0,
			"0.024": 0.0,
			"0.025": 0.0
		}
	}
}
