{
	 "smiles": "CCC1=NN(C)C(C(=O)NCC2=CC=C(OC3=CC=C(C)C=C3)C=C2)=C1Cl", 
	 "Tm": 360.95, 
	 "num_atms": 49, 
	 "gaussian": { 
		 "optdone": 1, 
		 "sigma_profile": "yes", 
		 "theory": "DFT", 
		 "functional": "B3LYP", 
		 "basiset": "6-31G**", 
		 "properties": { 
			 "R2extent": 18925.8001, 
			 "electric_dipole_moment_norm": 5.5384694402, 
			 "electric_quadrupole_moment_norm": 15.9143595862, 
			 "total_energy": -1588.38808214, 
			 "HOMO_LUMO_gap": 0.18563, 
			 "cosmo_polarized_energy": -19.39, 
			 "cosmo_cavitation_energy": 55.51, 
			 "cosmo_dispersion_energy": -37.9, 
			 "cosmo_repulsion_energy": 2.91, 
			 "cosmo_total_nonelectrostatic_energy": 20.52, 
			 "SMD_solvation_energy": 8.41 
		},
		"coords": [
			{
				"x": -2.8506883991,
				"y": -1.0181335139,
				"z": -5.9811062049,
				"element": "C" 
			},
			{
				"x": -1.8556867491,
				"y": -0.0723996886,
				"z": -6.6772282551,
				"element": "C" 
			},
			{
				"x": -0.6713445368,
				"y": 0.2707364098,
				"z": -5.8236347779,
				"element": "C" 
			},
			{
				"x": 0.5007035647,
				"y": -0.3523730646,
				"z": -5.9757902729,
				"element": "N" 
			},
			{
				"x": 1.3289398086,
				"y": 0.1606131005,
				"z": -5.0429692886,
				"element": "N" 
			},
			{
				"x": 2.7111832631,
				"y": -0.2960083895,
				"z": -5.0338598612,
				"element": "C" 
			},
			{
				"x": 0.7224984904,
				"y": 1.1300790518,
				"z": -4.2842890086,
				"element": "C" 
			},
			{
				"x": 1.3521589544,
				"y": 1.9155833297,
				"z": -3.1848673478,
				"element": "C" 
			},
			{
				"x": 1.110797356,
				"y": 3.1073190931,
				"z": -3.0327175566,
				"element": "O" 
			},
			{
				"x": 2.2177225288,
				"y": 1.2135794304,
				"z": -2.3795718122,
				"element": "N" 
			},
			{
				"x": 2.8327296558,
				"y": 1.8404624651,
				"z": -1.2037779545,
				"element": "C" 
			},
			{
				"x": 2.0615905478,
				"y": 1.6212964016,
				"z": 0.0823466515,
				"element": "C" 
			},
			{
				"x": 2.5395026771,
				"y": 0.7546988312,
				"z": 1.069740839,
				"element": "C" 
			},
			{
				"x": 1.8320837008,
				"y": 0.536620279,
				"z": 2.2538826329,
				"element": "C" 
			},
			{
				"x": 0.6152482974,
				"y": 1.1938616353,
				"z": 2.450116576,
				"element": "C" 
			},
			{
				"x": -0.1290172717,
				"y": 1.0907910291,
				"z": 3.6048896248,
				"element": "O" 
			},
			{
				"x": -0.0478825751,
				"y": -0.039216699,
				"z": 4.4012690842,
				"element": "C" 
			},
			{
				"x": -0.2388032629,
				"y": -1.3240151425,
				"z": 3.8860051607,
				"element": "C" 
			},
			{
				"x": -0.2263873008,
				"y": -2.4160516264,
				"z": 4.7520074335,
				"element": "C" 
			},
			{
				"x": -0.0392298714,
				"y": -2.2556346547,
				"z": 6.1325512232,
				"element": "C" 
			},
			{
				"x": -0.0647424087,
				"y": -3.4452379534,
				"z": 7.0638563882,
				"element": "C" 
			},
			{
				"x": 0.1436466016,
				"y": -0.9560712269,
				"z": 6.6219302671,
				"element": "C" 
			},
			{
				"x": 0.1436842154,
				"y": 0.1480176164,
				"z": 5.7692664183,
				"element": "C" 
			},
			{
				"x": 0.1205397786,
				"y": 2.0673850255,
				"z": 1.4743269542,
				"element": "C" 
			},
			{
				"x": 0.8411041265,
				"y": 2.2799709275,
				"z": 0.3045299707,
				"element": "C" 
			},
			{
				"x": -0.5738071681,
				"y": 1.2175800191,
				"z": -4.780754963,
				"element": "C" 
			},
			{
				"x": -1.8404071074,
				"y": 2.2589067514,
				"z": -4.2283432478,
				"element": "Cl" 
			},
			{
				"x": -3.6946987556,
				"y": -1.2430645716,
				"z": -6.6410287047,
				"element": "H" 
			},
			{
				"x": -3.2479509001,
				"y": -0.5690025585,
				"z": -5.0658535028,
				"element": "H" 
			},
			{
				"x": -2.3663576094,
				"y": -1.9623173091,
				"z": -5.7133534006,
				"element": "H" 
			},
			{
				"x": -1.483650134,
				"y": -0.5353423074,
				"z": -7.5965235214,
				"element": "H" 
			},
			{
				"x": -2.3696799208,
				"y": 0.8523105281,
				"z": -6.9632720649,
				"element": "H" 
			},
			{
				"x": 2.8475627806,
				"y": -1.1477291013,
				"z": -4.3576287745,
				"element": "H" 
			},
			{
				"x": 2.9528844747,
				"y": -0.6133290485,
				"z": -6.0480648315,
				"element": "H" 
			},
			{
				"x": 3.3724186964,
				"y": 0.5142637863,
				"z": -4.7270790842,
				"element": "H" 
			},
			{
				"x": 2.1238422362,
				"y": 0.2071640081,
				"z": -2.364122681,
				"element": "H" 
			},
			{
				"x": 2.9012740321,
				"y": 2.9050217622,
				"z": -1.437192689,
				"element": "H" 
			},
			{
				"x": 3.8501629422,
				"y": 1.447890334,
				"z": -1.1030709041,
				"element": "H" 
			},
			{
				"x": 3.48972537,
				"y": 0.2452949451,
				"z": 0.9239803813,
				"element": "H" 
			},
			{
				"x": 2.2228016865,
				"y": -0.1293097678,
				"z": 3.0148866947,
				"element": "H" 
			},
			{
				"x": -0.3953818426,
				"y": -1.4619569811,
				"z": 2.8211905909,
				"element": "H" 
			},
			{
				"x": -0.3736253724,
				"y": -3.4137405133,
				"z": 4.3454547777,
				"element": "H" 
			},
			{
				"x": 0.3660149557,
				"y": -4.3338056689,
				"z": 6.5917482862,
				"element": "H" 
			},
			{
				"x": 0.4957555572,
				"y": -3.2464135247,
				"z": 7.9821284092,
				"element": "H" 
			},
			{
				"x": -1.0909084002,
				"y": -3.7001695189,
				"z": 7.35742619,
				"element": "H" 
			},
			{
				"x": 0.2942754914,
				"y": -0.8021030065,
				"z": 7.6875312995,
				"element": "H" 
			},
			{
				"x": 0.287183016,
				"y": 1.1545572713,
				"z": 6.1483141065,
				"element": "H" 
			},
			{
				"x": -0.8223546894,
				"y": 2.5726764023,
				"z": 1.6558213896,
				"element": "H" 
			},
			{
				"x": 0.4585694697,
				"y": 2.958645403,
				"z": -0.4523006401,
				"element": "H" 
			}
		],
		 "valence_orbital": [ 
			{
				"type": "occ",
				"energy": -0.25311,
				"method": "rhf"
			},
			{
				"type": "occ",
				"energy": -0.25116,
				"method": "rhf"
			},
			{
				"type": "occ",
				"energy": -0.24314,
				"method": "rhf"
			},
			{
				"type": "occ",
				"energy": -0.23499,
				"method": "rhf"
			},
			{
				"type": "occ",
				"energy": -0.2157,
				"method": "rhf"
			},
			{
				"type": "unocc",
				"energy": -0.03007,
				"method": "rhf"
			},
			{
				"type": "unocc",
				"energy": -0.01268,
				"method": "rhf"
			},
			{
				"type": "unocc",
				"energy": -0.00722,
				"method": "rhf"
			},
			{
				"type": "unocc",
				"energy": -0.0002,
				"method": "rhf"
			},
			{
				"type": "unocc",
				"energy": 0.00829,
				"method": "rhf"
			}
		],
		"cosmo_sigma_profile": { 
			"-0.025": 0.0,
			"-0.024": 0.0,
			"-0.023": 0.0,
			"-0.022": 0.0,
			"-0.021": 0.0,
			"-0.02": 0.0,
			"-0.019": 0.0,
			"-0.018": 0.0,
			"-0.017": 0.0,
			"-0.016": 0.0,
			"-0.015": 0.279537765797,
			"-0.014": 1.06151538699,
			"-0.013": 1.32471041617,
			"-0.012": 1.38654383557,
			"-0.011": 1.89636246146,
			"-0.01": 1.26979369587,
			"-0.009": 1.28993747343,
			"-0.008": 1.74178774309,
			"-0.007": 5.53024032593,
			"-0.006": 18.6778558209,
			"-0.005": 23.3675777845,
			"-0.004": 36.5303386201,
			"-0.003": 37.8146301759,
			"-0.002": 38.8869593112,
			"-0.001": 41.9977411142,
			"0.0": 43.5979083462,
			"0.001": 37.6095433547,
			"0.002": 30.3298701947,
			"0.003": 29.3748588089,
			"0.004": 28.8737626674,
			"0.005": 23.4189506728,
			"0.006": 7.67988813676,
			"0.007": 4.85651086965,
			"0.008": 3.9511182814,
			"0.009": 4.21471971689,
			"0.01": 3.18080069945,
			"0.011": 2.90562103913,
			"0.012": 4.1985813635,
			"0.013": 4.10467989954,
			"0.014": 1.25023906096,
			"0.015": 0.279112806872,
			"0.016": 0.0,
			"0.017": 0.0,
			"0.018": 0.0,
			"0.019": 0.0,
			"0.02": 0.0,
			"0.021": 0.0,
			"0.022": 0.0,
			"0.023": 0.0,
			"0.024": 0.0,
			"0.025": 0.0
		}
	}
}
