{
	 "smiles": "CC1=CC(NC(=O)C2=CN=C(C(Cl)=N2)C(C)(C)C)=CC=C1", 
	 "Tm": 372.15, 
	 "num_atms": 39, 
	 "gaussian": { 
		 "optdone": 1, 
		 "sigma_profile": "yes", 
		 "theory": "DFT", 
		 "functional": "B3LYP", 
		 "basiset": "6-31G**", 
		 "properties": { 
			 "R2extent": 9145.9795, 
			 "electric_dipole_moment_norm": 4.99224328834, 
			 "electric_quadrupole_moment_norm": 28.6595677387, 
			 "total_energy": -1320.23518372, 
			 "HOMO_LUMO_gap": 0.16991, 
			 "cosmo_polarized_energy": -14.95, 
			 "cosmo_cavitation_energy": 43.6, 
			 "cosmo_dispersion_energy": -29.79, 
			 "cosmo_repulsion_energy": 2.32, 
			 "cosmo_total_nonelectrostatic_energy": 16.13, 
			 "SMD_solvation_energy": 5.88 
		},
		"coords": [
			{
				"x": -0.3635736275,
				"y": -1.5516148703,
				"z": 5.5366855034,
				"element": "C" 
			},
			{
				"x": -0.9397048737,
				"y": -0.768114891,
				"z": 4.3806431311,
				"element": "C" 
			},
			{
				"x": -1.8017813145,
				"y": -1.3767441984,
				"z": 3.4637639266,
				"element": "C" 
			},
			{
				"x": -2.3673658836,
				"y": -0.6507032314,
				"z": 2.406910649,
				"element": "C" 
			},
			{
				"x": -3.2631499579,
				"y": -1.3194312713,
				"z": 1.5309132314,
				"element": "N" 
			},
			{
				"x": -3.4752763634,
				"y": -1.1386591542,
				"z": 0.1804087575,
				"element": "C" 
			},
			{
				"x": -4.4798356735,
				"y": -1.5578352854,
				"z": -0.3712626686,
				"element": "O" 
			},
			{
				"x": -2.3623594758,
				"y": -0.5054201059,
				"z": -0.6227732168,
				"element": "C" 
			},
			{
				"x": -1.0400953556,
				"y": -0.9400340351,
				"z": -0.5584888014,
				"element": "C" 
			},
			{
				"x": -0.1099449949,
				"y": -0.4606287388,
				"z": -1.3855724136,
				"element": "N" 
			},
			{
				"x": -0.4271221657,
				"y": 0.4760758592,
				"z": -2.2895485051,
				"element": "C" 
			},
			{
				"x": -1.782478791,
				"y": 0.9094773711,
				"z": -2.3096658771,
				"element": "C" 
			},
			{
				"x": -2.3718844371,
				"y": 2.1599407661,
				"z": -3.4118731578,
				"element": "Cl" 
			},
			{
				"x": -2.7158627558,
				"y": 0.4243209011,
				"z": -1.5187132638,
				"element": "N" 
			},
			{
				"x": 0.7127966242,
				"y": 0.9672227847,
				"z": -3.2004279916,
				"element": "C" 
			},
			{
				"x": 0.9637410036,
				"y": 2.4802324084,
				"z": -2.9845017453,
				"element": "C" 
			},
			{
				"x": 2.015794975,
				"y": 0.2185771415,
				"z": -2.8530437874,
				"element": "C" 
			},
			{
				"x": 0.3813666075,
				"y": 0.6776241752,
				"z": -4.6852891726,
				"element": "C" 
			},
			{
				"x": -2.0726119783,
				"y": 0.7102811081,
				"z": 2.2624770941,
				"element": "C" 
			},
			{
				"x": -1.1896424114,
				"y": 1.3147878054,
				"z": 3.1572716132,
				"element": "C" 
			},
			{
				"x": -0.6291807325,
				"y": 0.5883742298,
				"z": 4.2065397535,
				"element": "C" 
			},
			{
				"x": -0.9190357974,
				"y": -1.3542482251,
				"z": 6.4618300551,
				"element": "H" 
			},
			{
				"x": 0.679980118,
				"y": -1.2789686729,
				"z": 5.7223482934,
				"element": "H" 
			},
			{
				"x": -0.404866952,
				"y": -2.6288836187,
				"z": 5.3530079369,
				"element": "H" 
			},
			{
				"x": -2.035928978,
				"y": -2.4341478446,
				"z": 3.5610655003,
				"element": "H" 
			},
			{
				"x": -3.9794935116,
				"y": -1.8970035078,
				"z": 1.9557617447,
				"element": "H" 
			},
			{
				"x": -0.7228653466,
				"y": -1.6903665066,
				"z": 0.1609149762,
				"element": "H" 
			},
			{
				"x": 1.2204736067,
				"y": 2.6856121894,
				"z": -1.9398172033,
				"element": "H" 
			},
			{
				"x": 0.1029246885,
				"y": 3.0934001954,
				"z": -3.2536410742,
				"element": "H" 
			},
			{
				"x": 1.8092415727,
				"y": 2.7974285036,
				"z": -3.6040177887,
				"element": "H" 
			},
			{
				"x": 2.8148265036,
				"y": 0.5776131749,
				"z": -3.5099213435,
				"element": "H" 
			},
			{
				"x": 1.9121162617,
				"y": -0.8602336369,
				"z": -2.9916298394,
				"element": "H" 
			},
			{
				"x": 2.3166132399,
				"y": 0.3879542238,
				"z": -1.8164812505,
				"element": "H" 
			},
			{
				"x": -0.505329917,
				"y": 1.2096154474,
				"z": -5.0318262475,
				"element": "H" 
			},
			{
				"x": 1.2253650516,
				"y": 0.9883565112,
				"z": -5.3101023343,
				"element": "H" 
			},
			{
				"x": 0.2241885932,
				"y": -0.3941364575,
				"z": -4.8457472296,
				"element": "H" 
			},
			{
				"x": -2.5389002433,
				"y": 1.2891061858,
				"z": 1.4727500539,
				"element": "H" 
			},
			{
				"x": -0.9531638425,
				"y": 2.3685666432,
				"z": 3.0419775463,
				"element": "H" 
			},
			{
				"x": 0.0500265344,
				"y": 1.0765066266,
				"z": 4.9003751455,
				"element": "H" 
			}
		],
		 "valence_orbital": [ 
			{
				"type": "occ",
				"energy": -0.27856,
				"method": "rhf"
			},
			{
				"type": "occ",
				"energy": -0.26621,
				"method": "rhf"
			},
			{
				"type": "occ",
				"energy": -0.25639,
				"method": "rhf"
			},
			{
				"type": "occ",
				"energy": -0.25094,
				"method": "rhf"
			},
			{
				"type": "occ",
				"energy": -0.23493,
				"method": "rhf"
			},
			{
				"type": "unocc",
				"energy": -0.06502,
				"method": "rhf"
			},
			{
				"type": "unocc",
				"energy": -0.04653,
				"method": "rhf"
			},
			{
				"type": "unocc",
				"energy": -0.01774,
				"method": "rhf"
			},
			{
				"type": "unocc",
				"energy": -0.01279,
				"method": "rhf"
			},
			{
				"type": "unocc",
				"energy": 0.02523,
				"method": "rhf"
			}
		],
		"cosmo_sigma_profile": { 
			"-0.025": 0.0,
			"-0.024": 0.0,
			"-0.023": 0.0,
			"-0.022": 0.0,
			"-0.021": 0.0,
			"-0.02": 0.0,
			"-0.019": 0.0,
			"-0.018": 0.0,
			"-0.017": 0.0,
			"-0.016": 0.0,
			"-0.015": 0.522079492844,
			"-0.014": 0.947790071994,
			"-0.013": 1.23027207667,
			"-0.012": 1.29417085986,
			"-0.011": 0.695172620403,
			"-0.01": 0.68244700889,
			"-0.009": 1.34444786108,
			"-0.008": 2.02458292972,
			"-0.007": 3.40506706572,
			"-0.006": 8.42857357629,
			"-0.005": 14.8305911951,
			"-0.004": 24.5763089322,
			"-0.003": 38.0124469407,
			"-0.002": 37.7389515203,
			"-0.001": 39.5319260205,
			"0.0": 43.7035892576,
			"0.001": 35.4427668119,
			"0.002": 16.8412636402,
			"0.003": 13.8913588741,
			"0.004": 15.1362494102,
			"0.005": 12.4473328759,
			"0.006": 5.06108113751,
			"0.007": 4.16844602594,
			"0.008": 2.53922567689,
			"0.009": 2.58237003691,
			"0.01": 3.8494162013,
			"0.011": 3.55823589399,
			"0.012": 6.43233385765,
			"0.013": 5.26691735377,
			"0.014": 0.785031198844,
			"0.015": 0.0,
			"0.016": 0.0,
			"0.017": 0.0,
			"0.018": 0.0,
			"0.019": 0.0,
			"0.02": 0.0,
			"0.021": 0.0,
			"0.022": 0.0,
			"0.023": 0.0,
			"0.024": 0.0,
			"0.025": 0.0
		}
	}
}
