{
	 "smiles": "NC(=O)CC(NC(=O)OCC1C2=C(C=CC=C2)C2=C1C=CC=C2)C(O)=O", 
	 "Tm": 453.15, 
	 "num_atms": 44, 
	 "gaussian": { 
		 "optdone": 1, 
		 "sigma_profile": "yes", 
		 "theory": "DFT", 
		 "functional": "B3LYP", 
		 "basiset": "6-31G**", 
		 "properties": { 
			 "R2extent": 7571.4494, 
			 "electric_dipole_moment_norm": 2.05946562486, 
			 "electric_quadrupole_moment_norm": 19.4004955895, 
			 "total_energy": -1220.55799644, 
			 "HOMO_LUMO_gap": 0.18387, 
			 "cosmo_polarized_energy": -26.48, 
			 "cosmo_cavitation_energy": 46.66, 
			 "cosmo_dispersion_energy": -29.54, 
			 "cosmo_repulsion_energy": 2.19, 
			 "cosmo_total_nonelectrostatic_energy": 19.31, 
			 "SMD_solvation_energy": 8.79 
		},
		"coords": [
			{
				"x": 2.0193296357,
				"y": -2.451945648,
				"z": -0.7001755182,
				"element": "N" 
			},
			{
				"x": 1.0488213061,
				"y": -3.3400769363,
				"z": -0.3498550977,
				"element": "C" 
			},
			{
				"x": 0.3539964843,
				"y": -3.946538283,
				"z": -1.1589197333,
				"element": "O" 
			},
			{
				"x": 0.9221655072,
				"y": -3.5803585021,
				"z": 1.1602354448,
				"element": "C" 
			},
			{
				"x": 0.0489823702,
				"y": -2.5818421823,
				"z": 1.9577356766,
				"element": "C" 
			},
			{
				"x": -1.3989801385,
				"y": -2.6220109715,
				"z": 1.7209872712,
				"element": "N" 
			},
			{
				"x": -2.0202971888,
				"y": -2.4560941859,
				"z": 0.4832000005,
				"element": "C" 
			},
			{
				"x": -3.1073455228,
				"y": -2.9298023922,
				"z": 0.2298671103,
				"element": "O" 
			},
			{
				"x": -1.2987870315,
				"y": -1.6424667925,
				"z": -0.3099778343,
				"element": "O" 
			},
			{
				"x": -1.7903959821,
				"y": -1.4769069547,
				"z": -1.6604591207,
				"element": "C" 
			},
			{
				"x": -1.5377116598,
				"y": -0.0371780979,
				"z": -2.1209392073,
				"element": "C" 
			},
			{
				"x": -0.0755709077,
				"y": 0.3339089903,
				"z": -2.3142477928,
				"element": "C" 
			},
			{
				"x": 0.2593757947,
				"y": 1.4384114454,
				"z": -1.5067125679,
				"element": "C" 
			},
			{
				"x": 1.5555192647,
				"y": 1.9591141934,
				"z": -1.5256660344,
				"element": "C" 
			},
			{
				"x": 2.5057504738,
				"y": 1.3750769244,
				"z": -2.3663401083,
				"element": "C" 
			},
			{
				"x": 2.1668982867,
				"y": 0.2902164263,
				"z": -3.1838291671,
				"element": "C" 
			},
			{
				"x": 0.8688260871,
				"y": -0.2375655784,
				"z": -3.1607882172,
				"element": "C" 
			},
			{
				"x": -0.9397611469,
				"y": 1.8582127961,
				"z": -0.7669079749,
				"element": "C" 
			},
			{
				"x": -2.0095890616,
				"y": 1.0139294388,
				"z": -1.1263344739,
				"element": "C" 
			},
			{
				"x": -3.2720099799,
				"y": 1.196938319,
				"z": -0.5736426765,
				"element": "C" 
			},
			{
				"x": -3.4647787909,
				"y": 2.2371772888,
				"z": 0.3438440388,
				"element": "C" 
			},
			{
				"x": -2.4038911569,
				"y": 3.0771456326,
				"z": 0.6998952769,
				"element": "C" 
			},
			{
				"x": -1.1339173174,
				"y": 2.8947345779,
				"z": 0.14791177,
				"element": "C" 
			},
			{
				"x": 0.5964471618,
				"y": -1.1397573319,
				"z": 1.9476738544,
				"element": "C" 
			},
			{
				"x": -0.2893200692,
				"y": -0.1873613993,
				"z": 2.2547340412,
				"element": "O" 
			},
			{
				"x": 1.7704200667,
				"y": -0.8898301436,
				"z": 1.7792186117,
				"element": "O" 
			},
			{
				"x": 2.3688712151,
				"y": -1.8138878898,
				"z": 0.0049087997,
				"element": "H" 
			},
			{
				"x": 2.0124537257,
				"y": -2.1226759658,
				"z": -1.6556984839,
				"element": "H" 
			},
			{
				"x": 0.4971902869,
				"y": -4.5786636327,
				"z": 1.287641518,
				"element": "H" 
			},
			{
				"x": 1.916012256,
				"y": -3.5677716575,
				"z": 1.6168353444,
				"element": "H" 
			},
			{
				"x": 0.1535418767,
				"y": -2.8751664049,
				"z": 3.011320101,
				"element": "H" 
			},
			{
				"x": -1.9003468382,
				"y": -3.317514836,
				"z": 2.2584844341,
				"element": "H" 
			},
			{
				"x": -2.8560608338,
				"y": -1.7108848885,
				"z": -1.6671974665,
				"element": "H" 
			},
			{
				"x": -1.2607560642,
				"y": -2.204340436,
				"z": -2.2827118909,
				"element": "H" 
			},
			{
				"x": -2.0753666821,
				"y": 0.0662551325,
				"z": -3.0756941264,
				"element": "H" 
			},
			{
				"x": 1.8245835182,
				"y": 2.8055638786,
				"z": -0.9004096328,
				"element": "H" 
			},
			{
				"x": 3.5164389591,
				"y": 1.7720767423,
				"z": -2.3928310571,
				"element": "H" 
			},
			{
				"x": 2.9132522185,
				"y": -0.1399666754,
				"z": -3.8458106364,
				"element": "H" 
			},
			{
				"x": 0.6083464464,
				"y": -1.0766496854,
				"z": -3.8018722271,
				"element": "H" 
			},
			{
				"x": -4.1001026785,
				"y": 0.545909789,
				"z": -0.8423817588,
				"element": "H" 
			},
			{
				"x": -4.4465473755,
				"y": 2.3937486333,
				"z": 0.7814601073,
				"element": "H" 
			},
			{
				"x": -2.56969207,
				"y": 3.8790423121,
				"z": 1.4136463638,
				"element": "H" 
			},
			{
				"x": -0.3137289779,
				"y": 3.5477584621,
				"z": 0.4320674972,
				"element": "H" 
			},
			{
				"x": -1.1740654671,
				"y": -0.5959635111,
				"z": 2.2758355423,
				"element": "H" 
			}
		],
		 "valence_orbital": [ 
			{
				"type": "occ",
				"energy": -0.2621,
				"method": "rhf"
			},
			{
				"type": "occ",
				"energy": -0.25222,
				"method": "rhf"
			},
			{
				"type": "occ",
				"energy": -0.24789,
				"method": "rhf"
			},
			{
				"type": "occ",
				"energy": -0.24311,
				"method": "rhf"
			},
			{
				"type": "occ",
				"energy": -0.21878,
				"method": "rhf"
			},
			{
				"type": "unocc",
				"energy": -0.03491,
				"method": "rhf"
			},
			{
				"type": "unocc",
				"energy": -0.01731,
				"method": "rhf"
			},
			{
				"type": "unocc",
				"energy": -0.00832,
				"method": "rhf"
			},
			{
				"type": "unocc",
				"energy": 0.00385,
				"method": "rhf"
			},
			{
				"type": "unocc",
				"energy": 0.01995,
				"method": "rhf"
			}
		],
		"cosmo_sigma_profile": { 
			"-0.025": 0.0,
			"-0.024": 0.0,
			"-0.023": 0.0,
			"-0.022": 0.0,
			"-0.021": 0.0,
			"-0.02": 0.0,
			"-0.019": 0.0,
			"-0.018": 0.0,
			"-0.017": 0.0,
			"-0.016": 0.0740639500224,
			"-0.015": 1.52221241266,
			"-0.014": 1.9770097748,
			"-0.013": 2.0529934566,
			"-0.012": 2.18183958683,
			"-0.011": 3.31802874986,
			"-0.01": 6.40531931504,
			"-0.009": 4.00405011782,
			"-0.008": 4.43823873966,
			"-0.007": 6.93849413434,
			"-0.006": 28.8816541671,
			"-0.005": 30.3732599553,
			"-0.004": 29.410106893,
			"-0.003": 25.5669106865,
			"-0.002": 19.7759098436,
			"-0.001": 18.4607198284,
			"0.0": 17.1291333477,
			"0.001": 18.067732744,
			"0.002": 19.561857147,
			"0.003": 24.7768320177,
			"0.004": 24.1472658007,
			"0.005": 19.9957783034,
			"0.006": 13.4935970678,
			"0.007": 7.38655590964,
			"0.008": 5.64725908278,
			"0.009": 7.06222757333,
			"0.01": 5.44454620978,
			"0.011": 6.03906653638,
			"0.012": 8.83158279197,
			"0.013": 3.4822613796,
			"0.014": 3.44461504071,
			"0.015": 0.779728743085,
			"0.016": 0.0,
			"0.017": 0.0,
			"0.018": 0.0,
			"0.019": 0.0,
			"0.02": 0.0,
			"0.021": 0.0,
			"0.022": 0.0,
			"0.023": 0.0,
			"0.024": 0.0,
			"0.025": 0.0
		}
	}
}
