{
	 "smiles": "OCNC(=O)C1=CC=C(Cl)C=C1", 
	 "Tm": 419.15, 
	 "num_atms": 20, 
	 "gaussian": { 
		 "optdone": 1, 
		 "sigma_profile": "yes", 
		 "theory": "DFT", 
		 "functional": "B3LYP", 
		 "basiset": "6-31G**", 
		 "properties": { 
			 "R2extent": 3309.5887, 
			 "electric_dipole_moment_norm": 4.14631507124, 
			 "electric_quadrupole_moment_norm": 16.9835002679, 
			 "total_energy": -975.063629212, 
			 "HOMO_LUMO_gap": 0.20266, 
			 "cosmo_polarized_energy": -15.16, 
			 "cosmo_cavitation_energy": 26.45, 
			 "cosmo_dispersion_energy": -19.29, 
			 "cosmo_repulsion_energy": 1.58, 
			 "cosmo_total_nonelectrostatic_energy": 8.74, 
			 "SMD_solvation_energy": 4.32 
		},
		"coords": [
			{
				"x": -2.2878278003,
				"y": 0.0237910937,
				"z": -2.7099417083,
				"element": "O" 
			},
			{
				"x": -1.2390518498,
				"y": -0.9305438236,
				"z": -2.6083791796,
				"element": "C" 
			},
			{
				"x": -1.6988223257,
				"y": -2.0443231823,
				"z": -1.821044775,
				"element": "N" 
			},
			{
				"x": -1.8634540143,
				"y": -2.0092491591,
				"z": -0.4387523477,
				"element": "C" 
			},
			{
				"x": -2.7996380802,
				"y": -2.5865631977,
				"z": 0.0949178877,
				"element": "O" 
			},
			{
				"x": -0.8144389344,
				"y": -1.3166036396,
				"z": 0.3809297916,
				"element": "C" 
			},
			{
				"x": 0.5529702854,
				"y": -1.3873275757,
				"z": 0.0822885292,
				"element": "C" 
			},
			{
				"x": 1.4963109096,
				"y": -0.7942272103,
				"z": 0.9209845636,
				"element": "C" 
			},
			{
				"x": 1.0596364269,
				"y": -0.1196970353,
				"z": 2.0607044448,
				"element": "C" 
			},
			{
				"x": 2.2395715237,
				"y": 0.6438099065,
				"z": 3.1136463576,
				"element": "Cl" 
			},
			{
				"x": -0.2962908913,
				"y": -0.0488821669,
				"z": 2.3858906148,
				"element": "C" 
			},
			{
				"x": -1.2248314855,
				"y": -0.6617531366,
				"z": 1.5494812965,
				"element": "C" 
			},
			{
				"x": -1.9910880062,
				"y": 0.7409075676,
				"z": -3.2867728043,
				"element": "H" 
			},
			{
				"x": -0.9539284762,
				"y": -1.3121946417,
				"z": -3.5995346974,
				"element": "H" 
			},
			{
				"x": -0.3518318216,
				"y": -0.4980312149,
				"z": -2.1347601237,
				"element": "H" 
			},
			{
				"x": -2.482682132,
				"y": -2.5358318032,
				"z": -2.2403434228,
				"element": "H" 
			},
			{
				"x": 0.888786178,
				"y": -1.9370792783,
				"z": -0.7914367646,
				"element": "H" 
			},
			{
				"x": 2.5557723267,
				"y": -0.8596169388,
				"z": 0.6998163289,
				"element": "H" 
			},
			{
				"x": -0.6133771158,
				"y": 0.4706302232,
				"z": 3.2832042875,
				"element": "H" 
			},
			{
				"x": -2.281384717,
				"y": -0.6432147871,
				"z": 1.7946017213,
				"element": "H" 
			}
		],
		 "valence_orbital": [ 
			{
				"type": "occ",
				"energy": -0.29017,
				"method": "rhf"
			},
			{
				"type": "occ",
				"energy": -0.28113,
				"method": "rhf"
			},
			{
				"type": "occ",
				"energy": -0.27109,
				"method": "rhf"
			},
			{
				"type": "occ",
				"energy": -0.26104,
				"method": "rhf"
			},
			{
				"type": "occ",
				"energy": -0.24693,
				"method": "rhf"
			},
			{
				"type": "unocc",
				"energy": -0.04427,
				"method": "rhf"
			},
			{
				"type": "unocc",
				"energy": -0.02244,
				"method": "rhf"
			},
			{
				"type": "unocc",
				"energy": 0.02422,
				"method": "rhf"
			},
			{
				"type": "unocc",
				"energy": 0.03553,
				"method": "rhf"
			},
			{
				"type": "unocc",
				"energy": 0.06894,
				"method": "rhf"
			}
		],
		"cosmo_sigma_profile": { 
			"-0.025": 0.0,
			"-0.024": 0.0,
			"-0.023": 0.0,
			"-0.022": 0.0,
			"-0.021": 0.0,
			"-0.02": 0.0,
			"-0.019": 0.0,
			"-0.018": 0.0,
			"-0.017": 0.0670789361387,
			"-0.016": 1.12123263904,
			"-0.015": 1.1811001974,
			"-0.014": 1.06989120629,
			"-0.013": 1.72362170937,
			"-0.012": 2.46861569575,
			"-0.011": 1.17657542617,
			"-0.01": 1.47949011163,
			"-0.009": 2.17114376889,
			"-0.008": 4.19683932722,
			"-0.007": 8.69272532232,
			"-0.006": 14.8106985662,
			"-0.005": 13.1989637395,
			"-0.004": 9.92051469537,
			"-0.003": 9.68182790392,
			"-0.002": 10.8466568333,
			"-0.001": 10.8683328489,
			"0.0": 13.3685229197,
			"0.001": 19.0711260637,
			"0.002": 20.308727454,
			"0.003": 15.324696056,
			"0.004": 13.4750153095,
			"0.005": 6.34073396883,
			"0.006": 3.67736311822,
			"0.007": 3.06049852624,
			"0.008": 2.99890075244,
			"0.009": 2.00942079247,
			"0.01": 2.48665206283,
			"0.011": 3.54373349362,
			"0.012": 5.14347640321,
			"0.013": 6.30099540509,
			"0.014": 0.968897886745,
			"0.015": 0.0,
			"0.016": 0.0,
			"0.017": 0.0,
			"0.018": 0.0,
			"0.019": 0.0,
			"0.02": 0.0,
			"0.021": 0.0,
			"0.022": 0.0,
			"0.023": 0.0,
			"0.024": 0.0,
			"0.025": 0.0
		}
	}
}
