{
	 "smiles": "COC1=C(OCC2=CC=C(C=C2)[N+]([O-])=O)C=C(C=O)C=C1", 
	 "Tm": 383.15, 
	 "num_atms": 34, 
	 "gaussian": { 
		 "optdone": 1, 
		 "sigma_profile": "yes", 
		 "theory": "DFT", 
		 "functional": "B3LYP", 
		 "basiset": "6-31G**", 
		 "properties": { 
			 "R2extent": 11175.684, 
			 "electric_dipole_moment_norm": 4.86085246125, 
			 "electric_quadrupole_moment_norm": 52.7477326768, 
			 "total_energy": -1010.16846761, 
			 "HOMO_LUMO_gap": 0.1522, 
			 "cosmo_polarized_energy": -17.49, 
			 "cosmo_cavitation_energy": 40.41, 
			 "cosmo_dispersion_energy": -28.35, 
			 "cosmo_repulsion_energy": 2.16, 
			 "cosmo_total_nonelectrostatic_energy": 14.21, 
			 "SMD_solvation_energy": 11.02 
		},
		"coords": [
			{
				"x": 2.3010607127,
				"y": -2.0779403947,
				"z": 2.8039415474,
				"element": "C" 
			},
			{
				"x": 1.6962179895,
				"y": -0.9980410123,
				"z": 2.0995494456,
				"element": "O" 
			},
			{
				"x": 2.3813923551,
				"y": -0.4243333799,
				"z": 1.0770020888,
				"element": "C" 
			},
			{
				"x": 1.7413844094,
				"y": 0.6693492305,
				"z": 0.4447200718,
				"element": "C" 
			},
			{
				"x": 0.5300363856,
				"y": 1.1365704682,
				"z": 0.9009467885,
				"element": "O" 
			},
			{
				"x": -0.6030230912,
				"y": 0.3061861812,
				"z": 0.6270924378,
				"element": "C" 
			},
			{
				"x": -1.8085029161,
				"y": 0.8524676271,
				"z": 1.3524500479,
				"element": "C" 
			},
			{
				"x": -3.0946709665,
				"y": 0.5564436332,
				"z": 0.8794212987,
				"element": "C" 
			},
			{
				"x": -4.2238300901,
				"y": 1.0031953554,
				"z": 1.5580227751,
				"element": "C" 
			},
			{
				"x": -4.0494186265,
				"y": 1.7606151214,
				"z": 2.7150962464,
				"element": "C" 
			},
			{
				"x": -2.7837627008,
				"y": 2.0772009262,
				"z": 3.2043305209,
				"element": "C" 
			},
			{
				"x": -1.6638217607,
				"y": 1.6158664698,
				"z": 2.5179873395,
				"element": "C" 
			},
			{
				"x": -5.2364164599,
				"y": 2.2419341643,
				"z": 3.437051762,
				"element": "N" 
			},
			{
				"x": -5.0548200893,
				"y": 2.9092897293,
				"z": 4.455181779,
				"element": "O" 
			},
			{
				"x": -6.34126643,
				"y": 1.9471611052,
				"z": 2.9808163824,
				"element": "O" 
			},
			{
				"x": 2.3768564585,
				"y": 1.3278616464,
				"z": -0.5971648223,
				"element": "C" 
			},
			{
				"x": 3.6465149224,
				"y": 0.9212244207,
				"z": -1.0368401941,
				"element": "C" 
			},
			{
				"x": 4.3115224514,
				"y": 1.6354177373,
				"z": -2.1442444512,
				"element": "C" 
			},
			{
				"x": 5.4041270605,
				"y": 1.3469761889,
				"z": -2.5974779018,
				"element": "O" 
			},
			{
				"x": 4.2698013357,
				"y": -0.1680115238,
				"z": -0.4170142543,
				"element": "C" 
			},
			{
				"x": 3.6457678062,
				"y": -0.8374989181,
				"z": 0.6308595242,
				"element": "C" 
			},
			{
				"x": 1.5908461561,
				"y": -2.3601523166,
				"z": 3.5816803892,
				"element": "H" 
			},
			{
				"x": 2.4805522016,
				"y": -2.9366392784,
				"z": 2.1459927073,
				"element": "H" 
			},
			{
				"x": 3.2456589472,
				"y": -1.771173362,
				"z": 3.2679148044,
				"element": "H" 
			},
			{
				"x": -0.4036400496,
				"y": -0.719394507,
				"z": 0.9636970451,
				"element": "H" 
			},
			{
				"x": -0.7898026897,
				"y": 0.2753626161,
				"z": -0.4557733858,
				"element": "H" 
			},
			{
				"x": -3.2157104131,
				"y": -0.0256165559,
				"z": -0.0303632204,
				"element": "H" 
			},
			{
				"x": -5.225298138,
				"y": 0.786480867,
				"z": 1.2083519022,
				"element": "H" 
			},
			{
				"x": -2.6953746564,
				"y": 2.6717986631,
				"z": 4.1049785963,
				"element": "H" 
			},
			{
				"x": -0.6679118246,
				"y": 1.8512504071,
				"z": 2.8741380426,
				"element": "H" 
			},
			{
				"x": 1.8725954454,
				"y": 2.1740426499,
				"z": -1.056421466,
				"element": "H" 
			},
			{
				"x": 3.7298084181,
				"y": 2.4895433272,
				"z": -2.5583629857,
				"element": "H" 
			},
			{
				"x": 5.2495397486,
				"y": -0.4743452639,
				"z": -0.7688750437,
				"element": "H" 
			},
			{
				"x": 4.1452880988,
				"y": -1.673792023,
				"z": 1.1052141821,
				"element": "H" 
			}
		],
		 "valence_orbital": [ 
			{
				"type": "occ",
				"energy": -0.27762,
				"method": "rhf"
			},
			{
				"type": "occ",
				"energy": -0.27277,
				"method": "rhf"
			},
			{
				"type": "occ",
				"energy": -0.26767,
				"method": "rhf"
			},
			{
				"type": "occ",
				"energy": -0.25516,
				"method": "rhf"
			},
			{
				"type": "occ",
				"energy": -0.23971,
				"method": "rhf"
			},
			{
				"type": "unocc",
				"energy": -0.08751,
				"method": "rhf"
			},
			{
				"type": "unocc",
				"energy": -0.0617,
				"method": "rhf"
			},
			{
				"type": "unocc",
				"energy": -0.02779,
				"method": "rhf"
			},
			{
				"type": "unocc",
				"energy": -0.02016,
				"method": "rhf"
			},
			{
				"type": "unocc",
				"energy": -0.00042,
				"method": "rhf"
			}
		],
		"cosmo_sigma_profile": { 
			"-0.025": 0.0,
			"-0.024": 0.0,
			"-0.023": 0.0,
			"-0.022": 0.0,
			"-0.021": 0.0,
			"-0.02": 0.0,
			"-0.019": 0.0,
			"-0.018": 0.0,
			"-0.017": 0.0,
			"-0.016": 0.0,
			"-0.015": 0.0,
			"-0.014": 0.0,
			"-0.013": 0.0,
			"-0.012": 0.0,
			"-0.011": 0.0,
			"-0.01": 0.0,
			"-0.009": 0.0,
			"-0.008": 3.03343849296,
			"-0.007": 15.7765058896,
			"-0.006": 27.3589114235,
			"-0.005": 27.5174685138,
			"-0.004": 25.4281455871,
			"-0.003": 20.6560438603,
			"-0.002": 19.7928057444,
			"-0.001": 20.7926272619,
			"0.0": 21.03467701,
			"0.001": 27.0011051599,
			"0.002": 28.1118021294,
			"0.003": 16.7306457995,
			"0.004": 9.42508876761,
			"0.005": 8.02436807974,
			"0.006": 7.85321746266,
			"0.007": 10.9851381412,
			"0.008": 11.7786799977,
			"0.009": 7.55282740181,
			"0.01": 5.20076021096,
			"0.011": 4.06311986426,
			"0.012": 4.05565578674,
			"0.013": 1.31290568596,
			"0.014": 0.116127601113,
			"0.015": 0.0,
			"0.016": 0.0,
			"0.017": 0.0,
			"0.018": 0.0,
			"0.019": 0.0,
			"0.02": 0.0,
			"0.021": 0.0,
			"0.022": 0.0,
			"0.023": 0.0,
			"0.024": 0.0,
			"0.025": 0.0
		}
	}
}
