{
	 "smiles": "CN(C)CCN1C2=CC=CC=C2N(C)C2=CC=CC=C2C1=O", 
	 "Tm": 389.15, 
	 "num_atms": 43, 
	 "gaussian": { 
		 "optdone": 1, 
		 "sigma_profile": "yes", 
		 "theory": "DFT", 
		 "functional": "B3LYP", 
		 "basiset": "6-31G**", 
		 "properties": { 
			 "R2extent": 6977.2489, 
			 "electric_dipole_moment_norm": 3.42518391915, 
			 "electric_quadrupole_moment_norm": 16.8975707473, 
			 "total_energy": -938.04302324, 
			 "HOMO_LUMO_gap": 0.17449, 
			 "cosmo_polarized_energy": -14.11, 
			 "cosmo_cavitation_energy": 43.75, 
			 "cosmo_dispersion_energy": -28.85, 
			 "cosmo_repulsion_energy": 2.17, 
			 "cosmo_total_nonelectrostatic_energy": 17.07, 
			 "SMD_solvation_energy": 5.73 
		},
		"coords": [
			{
				"x": -3.0496313776,
				"y": -2.9197531822,
				"z": 0.2346795301,
				"element": "C" 
			},
			{
				"x": -2.1552909846,
				"y": -2.8729707079,
				"z": -0.9138995694,
				"element": "N" 
			},
			{
				"x": -1.8291677022,
				"y": -4.2157340036,
				"z": -1.3759417388,
				"element": "C" 
			},
			{
				"x": -2.6684364748,
				"y": -2.0419061276,
				"z": -2.000055574,
				"element": "C" 
			},
			{
				"x": -2.5940143335,
				"y": -0.5356807024,
				"z": -1.7175950327,
				"element": "C" 
			},
			{
				"x": -1.2064268817,
				"y": -0.0595427779,
				"z": -1.5653421472,
				"element": "N" 
			},
			{
				"x": -0.7160263904,
				"y": 0.2472051792,
				"z": -0.2644579981,
				"element": "C" 
			},
			{
				"x": -1.5054276959,
				"y": 1.010216279,
				"z": 0.6079961992,
				"element": "C" 
			},
			{
				"x": -1.1188387378,
				"y": 1.2321623204,
				"z": 1.9277964317,
				"element": "C" 
			},
			{
				"x": 0.0865753602,
				"y": 0.7060053597,
				"z": 2.3891475241,
				"element": "C" 
			},
			{
				"x": 0.9067923799,
				"y": -0.006519927,
				"z": 1.5164655933,
				"element": "C" 
			},
			{
				"x": 0.5254181264,
				"y": -0.2398098324,
				"z": 0.1878882216,
				"element": "C" 
			},
			{
				"x": 1.3701929579,
				"y": -0.9452884493,
				"z": -0.7158428603,
				"element": "N" 
			},
			{
				"x": 2.2476949831,
				"y": -1.9605864949,
				"z": -0.1496051825,
				"element": "C" 
			},
			{
				"x": 1.8653590272,
				"y": -0.1736503699,
				"z": -1.8008875045,
				"element": "C" 
			},
			{
				"x": 3.2442625207,
				"y": -0.0101197319,
				"z": -2.0124425038,
				"element": "C" 
			},
			{
				"x": 3.7165000163,
				"y": 0.7598082367,
				"z": -3.0732795902,
				"element": "C" 
			},
			{
				"x": 2.8239999459,
				"y": 1.3803970295,
				"z": -3.9488257314,
				"element": "C" 
			},
			{
				"x": 1.4580476529,
				"y": 1.1900752713,
				"z": -3.7688809076,
				"element": "C" 
			},
			{
				"x": 0.9626836012,
				"y": 0.4259845762,
				"z": -2.7042283985,
				"element": "C" 
			},
			{
				"x": -0.5022436281,
				"y": 0.1117230528,
				"z": -2.7400949626,
				"element": "C" 
			},
			{
				"x": -1.0691286254,
				"y": -0.0040935064,
				"z": -3.8273240843,
				"element": "O" 
			},
			{
				"x": -3.2073352139,
				"y": -1.9179443163,
				"z": 0.6438492417,
				"element": "H" 
			},
			{
				"x": -4.0415353144,
				"y": -3.3532212283,
				"z": -0.0034605044,
				"element": "H" 
			},
			{
				"x": -2.5985264495,
				"y": -3.5264129848,
				"z": 1.0263201237,
				"element": "H" 
			},
			{
				"x": -1.0999051337,
				"y": -4.1614046159,
				"z": -2.1899091239,
				"element": "H" 
			},
			{
				"x": -2.7081384956,
				"y": -4.7824884167,
				"z": -1.7416133172,
				"element": "H" 
			},
			{
				"x": -1.381821108,
				"y": -4.7891870181,
				"z": -0.5570362178,
				"element": "H" 
			},
			{
				"x": -3.720943065,
				"y": -2.2887744356,
				"z": -2.2507467729,
				"element": "H" 
			},
			{
				"x": -2.0772232743,
				"y": -2.2385610341,
				"z": -2.8981173292,
				"element": "H" 
			},
			{
				"x": -3.1434290828,
				"y": -0.2862892205,
				"z": -0.8108942741,
				"element": "H" 
			},
			{
				"x": -3.051450101,
				"y": -0.0041777246,
				"z": -2.5547542976,
				"element": "H" 
			},
			{
				"x": -2.4388592202,
				"y": 1.4279091243,
				"z": 0.2450127789,
				"element": "H" 
			},
			{
				"x": -1.7557932088,
				"y": 1.8155243241,
				"z": 2.5855897706,
				"element": "H" 
			},
			{
				"x": 0.4017935652,
				"y": 0.8658305919,
				"z": 3.4159120256,
				"element": "H" 
			},
			{
				"x": 1.8592986108,
				"y": -0.3853341187,
				"z": 1.8700801965,
				"element": "H" 
			},
			{
				"x": 1.656629466,
				"y": -2.6007827885,
				"z": 0.5091572386,
				"element": "H" 
			},
			{
				"x": 2.6476828617,
				"y": -2.5727543527,
				"z": -0.9617833725,
				"element": "H" 
			},
			{
				"x": 3.0983759231,
				"y": -1.564766252,
				"z": 0.4276131591,
				"element": "H" 
			},
			{
				"x": 3.9530278316,
				"y": -0.4749495208,
				"z": -1.3368049928,
				"element": "H" 
			},
			{
				"x": 4.7880495998,
				"y": 0.8779587502,
				"z": -3.2091503378,
				"element": "H" 
			},
			{
				"x": 3.1893483702,
				"y": 1.9811745804,
				"z": -4.7757692038,
				"element": "H" 
			},
			{
				"x": 0.7407596995,
				"y": 1.5983291656,
				"z": -4.4726645046,
				"element": "H" 
			}
		],
		 "valence_orbital": [ 
			{
				"type": "occ",
				"energy": -0.2469,
				"method": "rhf"
			},
			{
				"type": "occ",
				"energy": -0.237,
				"method": "rhf"
			},
			{
				"type": "occ",
				"energy": -0.22265,
				"method": "rhf"
			},
			{
				"type": "occ",
				"energy": -0.20759,
				"method": "rhf"
			},
			{
				"type": "occ",
				"energy": -0.20075,
				"method": "rhf"
			},
			{
				"type": "unocc",
				"energy": -0.02626,
				"method": "rhf"
			},
			{
				"type": "unocc",
				"energy": -0.0092,
				"method": "rhf"
			},
			{
				"type": "unocc",
				"energy": -0.00014,
				"method": "rhf"
			},
			{
				"type": "unocc",
				"energy": 0.00628,
				"method": "rhf"
			},
			{
				"type": "unocc",
				"energy": 0.06087,
				"method": "rhf"
			}
		],
		"cosmo_sigma_profile": { 
			"-0.025": 0.0,
			"-0.024": 0.0,
			"-0.023": 0.0,
			"-0.022": 0.0,
			"-0.021": 0.0,
			"-0.02": 0.0,
			"-0.019": 0.0,
			"-0.018": 0.0,
			"-0.017": 0.0,
			"-0.016": 0.0,
			"-0.015": 0.0,
			"-0.014": 0.0,
			"-0.013": 0.0,
			"-0.012": 0.0,
			"-0.011": 0.0,
			"-0.01": 0.0,
			"-0.009": 0.0,
			"-0.008": 0.0,
			"-0.007": 2.11665039581,
			"-0.006": 15.5489452663,
			"-0.005": 23.560957403,
			"-0.004": 32.9894991768,
			"-0.003": 35.1732044136,
			"-0.002": 37.3484963617,
			"-0.001": 38.1555533908,
			"0.0": 35.0492595636,
			"0.001": 20.0772812497,
			"0.002": 18.2779911852,
			"0.003": 17.8295188644,
			"0.004": 19.7114311141,
			"0.005": 18.7901799045,
			"0.006": 5.32962181297,
			"0.007": 3.83925807453,
			"0.008": 3.33525288086,
			"0.009": 3.41941400642,
			"0.01": 2.51954591305,
			"0.011": 2.74890469088,
			"0.012": 3.3474726713,
			"0.013": 4.15960345894,
			"0.014": 2.1716131194,
			"0.015": 0.0683618740786,
			"0.016": 0.0,
			"0.017": 0.0,
			"0.018": 0.0,
			"0.019": 0.0,
			"0.02": 0.0,
			"0.021": 0.0,
			"0.022": 0.0,
			"0.023": 0.0,
			"0.024": 0.0,
			"0.025": 0.0
		}
	}
}
