{
	 "smiles": "NC1=C(Br)C=CC(I)=C1", 
	 "Tm": 338.15, 
	 "num_atms": 14, 
	 "gaussian": { 
		 "optdone": 1, 
		 "sigma_profile": "yes", 
		 "theory": "DFT", 
		 "functional": "B3LYP", 
		 "basiset": "6-31G**", 
		 "properties": { 
			 "R2extent": 2658.958, 
			 "electric_dipole_moment_norm": 1.89017116156, 
			 "electric_quadrupole_moment_norm": 10.7388606751, 
			 "total_energy": -2869.19657683, 
			 "HOMO_LUMO_gap": 0.17752, 
			 "cosmo_polarized_energy": -7.5, 
			 "cosmo_cavitation_energy": 23.35, 
			 "cosmo_dispersion_energy": -19.4, 
			 "cosmo_repulsion_energy": 1.55, 
			 "cosmo_total_nonelectrostatic_energy": 5.49, 
			 "SMD_solvation_energy": 1.95 
		},
		"coords": [
			{
				"x": -2.4434585621,
				"y": 1.8524566763,
				"z": 1.2449899855,
				"element": "N" 
			},
			{
				"x": -1.4551767273,
				"y": 0.962334777,
				"z": 0.8732791653,
				"element": "C" 
			},
			{
				"x": -1.4762930119,
				"y": 0.2841097128,
				"z": -0.3613614963,
				"element": "C" 
			},
			{
				"x": -2.8747881938,
				"y": 0.6622382025,
				"z": -1.6155053051,
				"element": "Br" 
			},
			{
				"x": -0.5045581773,
				"y": -0.6509952656,
				"z": -0.6987804368,
				"element": "C" 
			},
			{
				"x": 0.5354287611,
				"y": -0.9456363118,
				"z": 0.1828903409,
				"element": "C" 
			},
			{
				"x": 0.5691271976,
				"y": -0.2756045769,
				"z": 1.4070488703,
				"element": "C" 
			},
			{
				"x": 2.1378092383,
				"y": -0.688687403,
				"z": 2.7754436935,
				"element": "I" 
			},
			{
				"x": -0.397564504,
				"y": 0.6597883971,
				"z": 1.7561308075,
				"element": "C" 
			},
			{
				"x": -3.0062543157,
				"y": 2.2307715656,
				"z": 0.4960728678,
				"element": "H" 
			},
			{
				"x": -2.1995932747,
				"y": 2.5204913848,
				"z": 1.9607775696,
				"element": "H" 
			},
			{
				"x": -0.5580039627,
				"y": -1.1498777076,
				"z": -1.6601200224,
				"element": "H" 
			},
			{
				"x": 1.2906953911,
				"y": -1.6741912118,
				"z": -0.084076207,
				"element": "H" 
			},
			{
				"x": -0.3576698586,
				"y": 1.1645017606,
				"z": 2.7156101672,
				"element": "H" 
			}
		],
		 "valence_orbital": [ 
			{
				"type": "occ",
				"energy": -0.2992,
				"method": "rhf"
			},
			{
				"type": "occ",
				"energy": -0.27922,
				"method": "rhf"
			},
			{
				"type": "occ",
				"energy": -0.26921,
				"method": "rhf"
			},
			{
				"type": "occ",
				"energy": -0.2425,
				"method": "rhf"
			},
			{
				"type": "occ",
				"energy": -0.21796,
				"method": "rhf"
			},
			{
				"type": "unocc",
				"energy": -0.04044,
				"method": "rhf"
			},
			{
				"type": "unocc",
				"energy": -0.02271,
				"method": "rhf"
			},
			{
				"type": "unocc",
				"energy": -0.00477,
				"method": "rhf"
			},
			{
				"type": "unocc",
				"energy": 0.00206,
				"method": "rhf"
			},
			{
				"type": "unocc",
				"energy": 0.0409,
				"method": "rhf"
			}
		],
		"cosmo_sigma_profile": { 
			"-0.025": 0.0,
			"-0.024": 0.0,
			"-0.023": 0.0,
			"-0.022": 0.0,
			"-0.021": 0.0,
			"-0.02": 0.0,
			"-0.019": 0.0,
			"-0.018": 0.0,
			"-0.017": 0.0,
			"-0.016": 0.0,
			"-0.015": 0.0,
			"-0.014": 0.393711876346,
			"-0.013": 1.5960957379,
			"-0.012": 1.94853459182,
			"-0.011": 2.10490980849,
			"-0.01": 2.96411099044,
			"-0.009": 2.71643379516,
			"-0.008": 2.72504927057,
			"-0.007": 5.75501958745,
			"-0.006": 7.36051424835,
			"-0.005": 8.05089583427,
			"-0.004": 9.43312814943,
			"-0.003": 8.68523990515,
			"-0.002": 9.00585947661,
			"-0.001": 11.481071224,
			"0.0": 10.2010376937,
			"0.001": 14.9274007324,
			"0.002": 21.8079649345,
			"0.003": 27.5638491661,
			"0.004": 30.1775574087,
			"0.005": 11.9718280313,
			"0.006": 0.595264474779,
			"0.007": 0.460102727059,
			"0.008": 0.541125696489,
			"0.009": 1.07514124786,
			"0.01": 0.548561356617,
			"0.011": 0.671404558318,
			"0.012": 0.438428444684,
			"0.013": 0.0938759396067,
			"0.014": 0.0,
			"0.015": 0.0,
			"0.016": 0.0,
			"0.017": 0.0,
			"0.018": 0.0,
			"0.019": 0.0,
			"0.02": 0.0,
			"0.021": 0.0,
			"0.022": 0.0,
			"0.023": 0.0,
			"0.024": 0.0,
			"0.025": 0.0
		}
	}
}
