{
	 "smiles": "O=C1OC2=CC=CC=C2N1CC1=CC=CC(=C1)C#N", 
	 "Tm": 444.15, 
	 "num_atms": 29, 
	 "gaussian": { 
		 "optdone": 1, 
		 "sigma_profile": "yes", 
		 "theory": "DFT", 
		 "functional": "B3LYP", 
		 "basiset": "6-31G**", 
		 "properties": { 
			 "R2extent": 5948.4797, 
			 "electric_dipole_moment_norm": 1.8854731263, 
			 "electric_quadrupole_moment_norm": 36.4064827869, 
			 "total_energy": -837.580185483, 
			 "HOMO_LUMO_gap": 0.16964, 
			 "cosmo_polarized_energy": -16.36, 
			 "cosmo_cavitation_energy": 35.42, 
			 "cosmo_dispersion_energy": -24.35, 
			 "cosmo_repulsion_energy": 1.85, 
			 "cosmo_total_nonelectrostatic_energy": 12.92, 
			 "SMD_solvation_energy": 8.2 
		},
		"coords": [
			{
				"x": 2.2710348837,
				"y": 3.5743868319,
				"z": -0.6342144457,
				"element": "O" 
			},
			{
				"x": 1.6394566663,
				"y": 2.9495231775,
				"z": 0.1848164905,
				"element": "C" 
			},
			{
				"x": 0.7246889618,
				"y": 3.5116875073,
				"z": 1.0600760413,
				"element": "O" 
			},
			{
				"x": 0.1849404037,
				"y": 2.4951254342,
				"z": 1.821039083,
				"element": "C" 
			},
			{
				"x": -0.7663979873,
				"y": 2.5984578508,
				"z": 2.8163944439,
				"element": "C" 
			},
			{
				"x": -1.1498523414,
				"y": 1.4023712201,
				"z": 3.4423433031,
				"element": "C" 
			},
			{
				"x": -0.5910742313,
				"y": 0.1764491137,
				"z": 3.0677532238,
				"element": "C" 
			},
			{
				"x": 0.3745205472,
				"y": 0.0883337733,
				"z": 2.0546422457,
				"element": "C" 
			},
			{
				"x": 0.7530608803,
				"y": 1.2752731768,
				"z": 1.4401310882,
				"element": "C" 
			},
			{
				"x": 1.6675380283,
				"y": 1.5862015823,
				"z": 0.4323851328,
				"element": "N" 
			},
			{
				"x": 2.532474386,
				"y": 0.6787548886,
				"z": -0.3119877564,
				"element": "C" 
			},
			{
				"x": 1.8362054398,
				"y": -0.0102075448,
				"z": -1.4725814323,
				"element": "C" 
			},
			{
				"x": 1.3621005082,
				"y": 0.7469470116,
				"z": -2.5550736835,
				"element": "C" 
			},
			{
				"x": 0.7224551491,
				"y": 0.1256390206,
				"z": -3.6266877413,
				"element": "C" 
			},
			{
				"x": 0.5491399803,
				"y": -1.2576240343,
				"z": -3.6397033694,
				"element": "C" 
			},
			{
				"x": 1.0253355848,
				"y": -2.0226070425,
				"z": -2.5643080253,
				"element": "C" 
			},
			{
				"x": 1.6676793702,
				"y": -1.3936259251,
				"z": -1.4830746095,
				"element": "C" 
			},
			{
				"x": 0.8570027801,
				"y": -3.4472001496,
				"z": -2.561007554,
				"element": "C" 
			},
			{
				"x": 0.7215850813,
				"y": -4.6025231222,
				"z": -2.5536049102,
				"element": "N" 
			},
			{
				"x": -1.1895828568,
				"y": 3.5573661469,
				"z": 3.0930281064,
				"element": "H" 
			},
			{
				"x": -1.8957145944,
				"y": 1.4327082051,
				"z": 4.2299354841,
				"element": "H" 
			},
			{
				"x": -0.9120554763,
				"y": -0.7314520394,
				"z": 3.5684866375,
				"element": "H" 
			},
			{
				"x": 0.7966710942,
				"y": -0.8670883062,
				"z": 1.7632869574,
				"element": "H" 
			},
			{
				"x": 3.3625478487,
				"y": 1.2893267618,
				"z": -0.6782849388,
				"element": "H" 
			},
			{
				"x": 2.9383714206,
				"y": -0.0594370503,
				"z": 0.386414728,
				"element": "H" 
			},
			{
				"x": 1.5032755471,
				"y": 1.8241973883,
				"z": -2.5514688718,
				"element": "H" 
			},
			{
				"x": 0.3609813611,
				"y": 0.7208560074,
				"z": -4.4593482689,
				"element": "H" 
			},
			{
				"x": 0.0538280924,
				"y": -1.74848513,
				"z": -4.4705157359,
				"element": "H" 
			},
			{
				"x": 2.0347834722,
				"y": -1.9992547538,
				"z": -0.6596716228,
				"element": "H" 
			}
		],
		 "valence_orbital": [ 
			{
				"type": "occ",
				"energy": -0.30033,
				"method": "rhf"
			},
			{
				"type": "occ",
				"energy": -0.28191,
				"method": "rhf"
			},
			{
				"type": "occ",
				"energy": -0.27208,
				"method": "rhf"
			},
			{
				"type": "occ",
				"energy": -0.26134,
				"method": "rhf"
			},
			{
				"type": "occ",
				"energy": -0.23045,
				"method": "rhf"
			},
			{
				"type": "unocc",
				"energy": -0.06081,
				"method": "rhf"
			},
			{
				"type": "unocc",
				"energy": -0.03434,
				"method": "rhf"
			},
			{
				"type": "unocc",
				"energy": -0.02204,
				"method": "rhf"
			},
			{
				"type": "unocc",
				"energy": -0.00587,
				"method": "rhf"
			},
			{
				"type": "unocc",
				"energy": 0.03021,
				"method": "rhf"
			}
		],
		"cosmo_sigma_profile": { 
			"-0.025": 0.0,
			"-0.024": 0.0,
			"-0.023": 0.0,
			"-0.022": 0.0,
			"-0.021": 0.0,
			"-0.02": 0.0,
			"-0.019": 0.0,
			"-0.018": 0.0,
			"-0.017": 0.0,
			"-0.016": 0.0,
			"-0.015": 0.0,
			"-0.014": 0.0,
			"-0.013": 0.0,
			"-0.012": 0.0,
			"-0.011": 0.0,
			"-0.01": 0.0046759854408,
			"-0.009": 1.96829838258,
			"-0.008": 8.71927951241,
			"-0.007": 14.628207285,
			"-0.006": 19.3900383352,
			"-0.005": 21.0952871842,
			"-0.004": 22.091926696,
			"-0.003": 18.521072632,
			"-0.002": 18.2787517454,
			"-0.001": 19.0407161127,
			"0.0": 19.2099163556,
			"0.001": 21.7057159365,
			"0.002": 22.9710797705,
			"0.003": 14.1549799845,
			"0.004": 12.2563704751,
			"0.005": 8.32605418613,
			"0.006": 5.28626385263,
			"0.007": 7.37063120639,
			"0.008": 6.41306216443,
			"0.009": 4.73539290724,
			"0.01": 4.90116576339,
			"0.011": 6.68135021451,
			"0.012": 6.56770181031,
			"0.013": 2.24218181372,
			"0.014": 0.0125724720376,
			"0.015": 0.0,
			"0.016": 0.0,
			"0.017": 0.0,
			"0.018": 0.0,
			"0.019": 0.0,
			"0.02": 0.0,
			"0.021": 0.0,
			"0.022": 0.0,
			"0.023": 0.0,
			"0.024": 0.0,
			"0.025": 0.0
		}
	}
}
