{
	 "smiles": "COC1=CC=C(COCC2=CC(N)=CC=C2)C=C1", 
	 "Tm": 329.15, 
	 "num_atms": 35, 
	 "gaussian": { 
		 "optdone": 1, 
		 "sigma_profile": "yes", 
		 "theory": "DFT", 
		 "functional": "B3LYP", 
		 "basiset": "6-31G**", 
		 "properties": { 
			 "R2extent": 4781.4276, 
			 "electric_dipole_moment_norm": 3.07327722472, 
			 "electric_quadrupole_moment_norm": 10.4724522797, 
			 "total_energy": -787.017558997, 
			 "HOMO_LUMO_gap": 0.19238, 
			 "cosmo_polarized_energy": -13.9, 
			 "cosmo_cavitation_energy": 38.28, 
			 "cosmo_dispersion_energy": -25.36, 
			 "cosmo_repulsion_energy": 2.0, 
			 "cosmo_total_nonelectrostatic_energy": 14.93, 
			 "SMD_solvation_energy": 6.93 
		},
		"coords": [
			{
				"x": -1.1847816022,
				"y": 0.8459978705,
				"z": -4.7745443209,
				"element": "C" 
			},
			{
				"x": -1.9861565672,
				"y": 0.5056495202,
				"z": -3.655212668,
				"element": "O" 
			},
			{
				"x": -1.5602418111,
				"y": 0.8931715638,
				"z": -2.4160986177,
				"element": "C" 
			},
			{
				"x": -2.4033495562,
				"y": 0.5450995272,
				"z": -1.3475040876,
				"element": "C" 
			},
			{
				"x": -2.0597765639,
				"y": 0.8948566867,
				"z": -0.0496925901,
				"element": "C" 
			},
			{
				"x": -0.8701147763,
				"y": 1.5896497539,
				"z": 0.2266424049,
				"element": "C" 
			},
			{
				"x": -0.5188095422,
				"y": 1.9604935173,
				"z": 1.651644744,
				"element": "C" 
			},
			{
				"x": -0.3001551291,
				"y": 0.8516477142,
				"z": 2.525900056,
				"element": "O" 
			},
			{
				"x": 1.0332601347,
				"y": 0.3638872885,
				"z": 2.5853133553,
				"element": "C" 
			},
			{
				"x": 1.4471472921,
				"y": -0.5760385706,
				"z": 1.4662236503,
				"element": "C" 
			},
			{
				"x": 0.5345062135,
				"y": -1.4956687712,
				"z": 0.9492360181,
				"element": "C" 
			},
			{
				"x": 0.9106328793,
				"y": -2.4025772206,
				"z": -0.0529050706,
				"element": "C" 
			},
			{
				"x": -0.0090742949,
				"y": -3.3355255666,
				"z": -0.5433214431,
				"element": "N" 
			},
			{
				"x": 2.2397440495,
				"y": -2.3918065358,
				"z": -0.5122685936,
				"element": "C" 
			},
			{
				"x": 3.1525402633,
				"y": -1.4817642199,
				"z": 0.0134675481,
				"element": "C" 
			},
			{
				"x": 2.7648370018,
				"y": -0.5667250283,
				"z": 0.9943565152,
				"element": "C" 
			},
			{
				"x": -0.0464292673,
				"y": 1.9299594535,
				"z": -0.8453338496,
				"element": "C" 
			},
			{
				"x": -0.3772202827,
				"y": 1.5934445933,
				"z": -2.1624642486,
				"element": "C" 
			},
			{
				"x": -0.187539492,
				"y": 0.3908314031,
				"z": -4.7139494745,
				"element": "H" 
			},
			{
				"x": -1.7052295788,
				"y": 0.4535253159,
				"z": -5.6497353993,
				"element": "H" 
			},
			{
				"x": -1.0742227997,
				"y": 1.933228443,
				"z": -4.8788652664,
				"element": "H" 
			},
			{
				"x": -3.3235404238,
				"y": 0.0128291712,
				"z": -1.5673229464,
				"element": "H" 
			},
			{
				"x": -2.7196126498,
				"y": 0.6225212746,
				"z": 0.7703129758,
				"element": "H" 
			},
			{
				"x": 0.3568349902,
				"y": 2.6267263297,
				"z": 1.6600757549,
				"element": "H" 
			},
			{
				"x": -1.3533503409,
				"y": 2.5093759971,
				"z": 2.104356256,
				"element": "H" 
			},
			{
				"x": 1.0905358096,
				"y": -0.1691579866,
				"z": 3.5430845575,
				"element": "H" 
			},
			{
				"x": 1.7437161061,
				"y": 1.2039359758,
				"z": 2.6416261614,
				"element": "H" 
			},
			{
				"x": -0.4884803126,
				"y": -1.4868482783,
				"z": 1.3138909088,
				"element": "H" 
			},
			{
				"x": -0.9741584166,
				"y": -3.0391485611,
				"z": -0.4818258856,
				"element": "H" 
			},
			{
				"x": 0.2059958129,
				"y": -3.6939206568,
				"z": -1.4640962297,
				"element": "H" 
			},
			{
				"x": 2.5479922254,
				"y": -3.0948456771,
				"z": -1.2826031838,
				"element": "H" 
			},
			{
				"x": 4.174443923,
				"y": -1.4781566429,
				"z": -0.35668301,
				"element": "H" 
			},
			{
				"x": 3.4808790167,
				"y": 0.1493342649,
				"z": 1.3894731209,
				"element": "H" 
			},
			{
				"x": 0.881853157,
				"y": 2.4644791854,
				"z": -0.6588212352,
				"element": "H" 
			},
			{
				"x": 0.2912245321,
				"y": 1.873938866,
				"z": -2.9677559064,
				"element": "H" 
			}
		],
		 "valence_orbital": [ 
			{
				"type": "occ",
				"energy": -0.2544,
				"method": "rhf"
			},
			{
				"type": "occ",
				"energy": -0.24749,
				"method": "rhf"
			},
			{
				"type": "occ",
				"energy": -0.23307,
				"method": "rhf"
			},
			{
				"type": "occ",
				"energy": -0.21263,
				"method": "rhf"
			},
			{
				"type": "occ",
				"energy": -0.19419,
				"method": "rhf"
			},
			{
				"type": "unocc",
				"energy": -0.00181,
				"method": "rhf"
			},
			{
				"type": "unocc",
				"energy": 0.00549,
				"method": "rhf"
			},
			{
				"type": "unocc",
				"energy": 0.01397,
				"method": "rhf"
			},
			{
				"type": "unocc",
				"energy": 0.02686,
				"method": "rhf"
			},
			{
				"type": "unocc",
				"energy": 0.08741,
				"method": "rhf"
			}
		],
		"cosmo_sigma_profile": { 
			"-0.025": 0.0,
			"-0.024": 0.0,
			"-0.023": 0.0,
			"-0.022": 0.0,
			"-0.021": 0.0,
			"-0.02": 0.0,
			"-0.019": 0.0,
			"-0.018": 0.0,
			"-0.017": 0.0,
			"-0.016": 0.0,
			"-0.015": 0.0,
			"-0.014": 0.0,
			"-0.013": 0.0147403495104,
			"-0.012": 0.985350368323,
			"-0.011": 2.73137329626,
			"-0.01": 2.21230642626,
			"-0.009": 2.97488894259,
			"-0.008": 2.81793788528,
			"-0.007": 2.62037038125,
			"-0.006": 9.85141504013,
			"-0.005": 29.0985551209,
			"-0.004": 34.0221909604,
			"-0.003": 31.2506592752,
			"-0.002": 24.125544852,
			"-0.001": 16.0759634602,
			"0.0": 15.9176769072,
			"0.001": 17.1334876297,
			"0.002": 13.0853057063,
			"0.003": 15.1946411838,
			"0.004": 16.6885215514,
			"0.005": 16.8454798755,
			"0.006": 15.7291552645,
			"0.007": 12.012074542,
			"0.008": 6.56325782193,
			"0.009": 3.94129731451,
			"0.01": 3.24243851108,
			"0.011": 1.93144895352,
			"0.012": 2.05477414216,
			"0.013": 1.70283752251,
			"0.014": 0.800188803742,
			"0.015": 0.653678911873,
			"0.016": 0.0,
			"0.017": 0.0,
			"0.018": 0.0,
			"0.019": 0.0,
			"0.02": 0.0,
			"0.021": 0.0,
			"0.022": 0.0,
			"0.023": 0.0,
			"0.024": 0.0,
			"0.025": 0.0
		}
	}
}
