{
	 "smiles": "CCNC(=O)NC(=O)CN(C)CC1=CC=CC=C1", 
	 "Tm": 336.15, 
	 "num_atms": 37, 
	 "gaussian": { 
		 "optdone": 1, 
		 "sigma_profile": "yes", 
		 "theory": "DFT", 
		 "functional": "B3LYP", 
		 "basiset": "6-31G**", 
		 "properties": { 
			 "R2extent": 4966.7081, 
			 "electric_dipole_moment_norm": 5.57084501849, 
			 "electric_quadrupole_moment_norm": 10.8291412397, 
			 "total_energy": -821.569628597, 
			 "HOMO_LUMO_gap": 0.22074, 
			 "cosmo_polarized_energy": -16.06, 
			 "cosmo_cavitation_energy": 39.29, 
			 "cosmo_dispersion_energy": -25.5, 
			 "cosmo_repulsion_energy": 1.96, 
			 "cosmo_total_nonelectrostatic_energy": 15.75, 
			 "SMD_solvation_energy": 7.27 
		},
		"coords": [
			{
				"x": -1.2823265353,
				"y": -0.7980035594,
				"z": 3.1521946957,
				"element": "C" 
			},
			{
				"x": -1.7787943483,
				"y": -1.5850852554,
				"z": 1.9373503013,
				"element": "C" 
			},
			{
				"x": -0.8335720329,
				"y": -1.5739244634,
				"z": 0.822756066,
				"element": "N" 
			},
			{
				"x": 0.2206338851,
				"y": -2.4224655017,
				"z": 0.8397755121,
				"element": "C" 
			},
			{
				"x": 0.4693959913,
				"y": -3.2174890342,
				"z": 1.7381376118,
				"element": "O" 
			},
			{
				"x": 1.0910180266,
				"y": -2.3974468092,
				"z": -0.2898624054,
				"element": "N" 
			},
			{
				"x": 1.448239911,
				"y": -1.4724311273,
				"z": -1.2585333763,
				"element": "C" 
			},
			{
				"x": 2.4053672754,
				"y": -1.704303234,
				"z": -1.9824771553,
				"element": "O" 
			},
			{
				"x": 0.6784876255,
				"y": -0.1586591273,
				"z": -1.4097614725,
				"element": "C" 
			},
			{
				"x": -0.7332357364,
				"y": -0.31974289,
				"z": -1.7970029672,
				"element": "N" 
			},
			{
				"x": -0.8768682142,
				"y": -1.1716729956,
				"z": -2.9855538166,
				"element": "C" 
			},
			{
				"x": -1.3607335889,
				"y": 0.9990470273,
				"z": -2.0439512522,
				"element": "C" 
			},
			{
				"x": -1.5017187354,
				"y": 1.8637728388,
				"z": -0.8091083077,
				"element": "C" 
			},
			{
				"x": -2.5533749769,
				"y": 1.6428029894,
				"z": 0.0913046816,
				"element": "C" 
			},
			{
				"x": -2.7000916159,
				"y": 2.4384048413,
				"z": 1.2274992619,
				"element": "C" 
			},
			{
				"x": -1.7943093601,
				"y": 3.4724488969,
				"z": 1.478950707,
				"element": "C" 
			},
			{
				"x": -0.7486284774,
				"y": 3.708298573,
				"z": 0.5858447263,
				"element": "C" 
			},
			{
				"x": -0.6074186455,
				"y": 2.9103277408,
				"z": -0.5515341395,
				"element": "C" 
			},
			{
				"x": -1.1104806898,
				"y": 0.2515930963,
				"z": 2.8953233526,
				"element": "H" 
			},
			{
				"x": -0.3483488318,
				"y": -1.2298022014,
				"z": 3.5204057429,
				"element": "H" 
			},
			{
				"x": -2.0206819551,
				"y": -0.8404671398,
				"z": 3.9604668913,
				"element": "H" 
			},
			{
				"x": -2.7161802981,
				"y": -1.1606083087,
				"z": 1.565099616,
				"element": "H" 
			},
			{
				"x": -1.97111265,
				"y": -2.6242620059,
				"z": 2.2241667885,
				"element": "H" 
			},
			{
				"x": -1.0792423945,
				"y": -1.1109939433,
				"z": -0.0567494931,
				"element": "H" 
			},
			{
				"x": 1.7580742231,
				"y": -3.1595385363,
				"z": -0.2355457171,
				"element": "H" 
			},
			{
				"x": 1.2466308588,
				"y": 0.4051889485,
				"z": -2.1648522815,
				"element": "H" 
			},
			{
				"x": 0.713250186,
				"y": 0.3952815876,
				"z": -0.4653168183,
				"element": "H" 
			},
			{
				"x": -0.4718877852,
				"y": -2.1660525301,
				"z": -2.7856164844,
				"element": "H" 
			},
			{
				"x": -0.3599818126,
				"y": -0.759805695,
				"z": -3.8681675337,
				"element": "H" 
			},
			{
				"x": -1.9387284086,
				"y": -1.2794385891,
				"z": -3.2232495491,
				"element": "H" 
			},
			{
				"x": -0.7975632297,
				"y": 1.5490114597,
				"z": -2.8188544789,
				"element": "H" 
			},
			{
				"x": -2.3554365473,
				"y": 0.7988383084,
				"z": -2.456221716,
				"element": "H" 
			},
			{
				"x": -3.2683447214,
				"y": 0.848083558,
				"z": -0.1083228525,
				"element": "H" 
			},
			{
				"x": -3.5242351065,
				"y": 2.2583127652,
				"z": 1.9116996101,
				"element": "H" 
			},
			{
				"x": -1.9090756597,
				"y": 4.094721689,
				"z": 2.3616050976,
				"element": "H" 
			},
			{
				"x": -0.0454214247,
				"y": 4.515237376,
				"z": 0.7702179287,
				"element": "H" 
			},
			{
				"x": 0.2021957992,
				"y": 3.105721251,
				"z": -1.250516774,
				"element": "H" 
			}
		],
		 "valence_orbital": [ 
			{
				"type": "occ",
				"energy": -0.26536,
				"method": "rhf"
			},
			{
				"type": "occ",
				"energy": -0.26167,
				"method": "rhf"
			},
			{
				"type": "occ",
				"energy": -0.25253,
				"method": "rhf"
			},
			{
				"type": "occ",
				"energy": -0.24697,
				"method": "rhf"
			},
			{
				"type": "occ",
				"energy": -0.24504,
				"method": "rhf"
			},
			{
				"type": "unocc",
				"energy": -0.0243,
				"method": "rhf"
			},
			{
				"type": "unocc",
				"energy": -0.01663,
				"method": "rhf"
			},
			{
				"type": "unocc",
				"energy": -0.00541,
				"method": "rhf"
			},
			{
				"type": "unocc",
				"energy": 0.06405,
				"method": "rhf"
			},
			{
				"type": "unocc",
				"energy": 0.071,
				"method": "rhf"
			}
		],
		"cosmo_sigma_profile": { 
			"-0.025": 0.0,
			"-0.024": 0.0,
			"-0.023": 0.0,
			"-0.022": 0.0,
			"-0.021": 0.0,
			"-0.02": 0.0,
			"-0.019": 0.0,
			"-0.018": 0.0,
			"-0.017": 0.0,
			"-0.016": 0.0,
			"-0.015": 0.0,
			"-0.014": 0.165346634421,
			"-0.013": 0.906135383182,
			"-0.012": 0.768487571464,
			"-0.011": 0.247188292933,
			"-0.01": 0.730781555457,
			"-0.009": 1.14175528744,
			"-0.008": 0.649962517963,
			"-0.007": 1.5653693249,
			"-0.006": 8.83136821158,
			"-0.005": 26.0594971505,
			"-0.004": 33.4340022202,
			"-0.003": 34.9261332573,
			"-0.002": 33.428878127,
			"-0.001": 30.293791145,
			"0.0": 23.1184749218,
			"0.001": 26.1553126334,
			"0.002": 18.0091229064,
			"0.003": 11.0368135151,
			"0.004": 9.61491705608,
			"0.005": 9.9601350467,
			"0.006": 5.42166755165,
			"0.007": 2.94417899328,
			"0.008": 2.27335401136,
			"0.009": 2.34692605248,
			"0.01": 2.89953764956,
			"0.011": 3.52961864788,
			"0.012": 6.56743618621,
			"0.013": 7.35603551657,
			"0.014": 4.38535556129,
			"0.015": 0.0689663237519,
			"0.016": 0.0,
			"0.017": 0.0,
			"0.018": 0.0,
			"0.019": 0.0,
			"0.02": 0.0,
			"0.021": 0.0,
			"0.022": 0.0,
			"0.023": 0.0,
			"0.024": 0.0,
			"0.025": 0.0
		}
	}
}
