{
	 "smiles": "CC1=CC2=C(C=CC=C2)C=N1", 
	 "Tm": 338.65, 
	 "num_atms": 20, 
	 "gaussian": { 
		 "optdone": 1, 
		 "sigma_profile": "yes", 
		 "theory": "DFT", 
		 "functional": "B3LYP", 
		 "basiset": "6-31G**", 
		 "properties": { 
			 "R2extent": 2396.3215, 
			 "electric_dipole_moment_norm": 2.04074558924, 
			 "electric_quadrupole_moment_norm": 7.87027755991, 
			 "total_energy": -441.252890068, 
			 "HOMO_LUMO_gap": 0.17197, 
			 "cosmo_polarized_energy": -6.46, 
			 "cosmo_cavitation_energy": 23.47, 
			 "cosmo_dispersion_energy": -17.62, 
			 "cosmo_repulsion_energy": 1.39, 
			 "cosmo_total_nonelectrostatic_energy": 7.23, 
			 "SMD_solvation_energy": 2.55 
		},
		"coords": [
			{
				"x": 0.9948267562,
				"y": 2.057433499,
				"z": 0.708858292,
				"element": "C" 
			},
			{
				"x": 0.7434240627,
				"y": 0.6364967575,
				"z": 0.2637859883,
				"element": "C" 
			},
			{
				"x": 1.4548492622,
				"y": 0.0610593904,
				"z": -0.7723303086,
				"element": "C" 
			},
			{
				"x": 1.1940017464,
				"y": -1.2740479308,
				"z": -1.164713618,
				"element": "C" 
			},
			{
				"x": 0.1796417478,
				"y": -1.9825552058,
				"z": -0.4512081727,
				"element": "C" 
			},
			{
				"x": -0.122964081,
				"y": -3.3240136457,
				"z": -0.802849971,
				"element": "C" 
			},
			{
				"x": 0.5571213141,
				"y": -3.9419640329,
				"z": -1.8271453826,
				"element": "C" 
			},
			{
				"x": 1.5658229179,
				"y": -3.2407525459,
				"z": -2.5383293474,
				"element": "C" 
			},
			{
				"x": 1.8794257488,
				"y": -1.9393008141,
				"z": -2.2182585814,
				"element": "C" 
			},
			{
				"x": -0.4833616074,
				"y": -1.287039801,
				"z": 0.5939747374,
				"element": "C" 
			},
			{
				"x": -0.2268597451,
				"y": -0.0437542796,
				"z": 0.9451376765,
				"element": "N" 
			},
			{
				"x": 2.0296700269,
				"y": 2.1949519244,
				"z": 1.0425201088,
				"element": "H" 
			},
			{
				"x": 0.3268455052,
				"y": 2.3040550094,
				"z": 1.5355996447,
				"element": "H" 
			},
			{
				"x": 0.8196984768,
				"y": 2.7688242858,
				"z": -0.1062494889,
				"element": "H" 
			},
			{
				"x": 2.2202617886,
				"y": 0.6317023121,
				"z": -1.2927909281,
				"element": "H" 
			},
			{
				"x": -0.897352272,
				"y": -3.8514097328,
				"z": -0.2513866123,
				"element": "H" 
			},
			{
				"x": 0.3268703295,
				"y": -4.9681858791,
				"z": -2.0974507544,
				"element": "H" 
			},
			{
				"x": 2.0939489924,
				"y": -3.7421191888,
				"z": -3.3445219887,
				"element": "H" 
			},
			{
				"x": 2.6523047614,
				"y": -1.4054029515,
				"z": -2.7648911008,
				"element": "H" 
			},
			{
				"x": -1.2631757313,
				"y": -1.8021771705,
				"z": 1.1573498072,
				"element": "H" 
			}
		],
		 "valence_orbital": [ 
			{
				"type": "occ",
				"energy": -0.33925,
				"method": "rhf"
			},
			{
				"type": "occ",
				"energy": -0.29128,
				"method": "rhf"
			},
			{
				"type": "occ",
				"energy": -0.25836,
				"method": "rhf"
			},
			{
				"type": "occ",
				"energy": -0.2489,
				"method": "rhf"
			},
			{
				"type": "occ",
				"energy": -0.22124,
				"method": "rhf"
			},
			{
				"type": "unocc",
				"energy": -0.04927,
				"method": "rhf"
			},
			{
				"type": "unocc",
				"energy": -0.01726,
				"method": "rhf"
			},
			{
				"type": "unocc",
				"energy": 0.02621,
				"method": "rhf"
			},
			{
				"type": "unocc",
				"energy": 0.0869,
				"method": "rhf"
			},
			{
				"type": "unocc",
				"energy": 0.09644,
				"method": "rhf"
			}
		],
		"cosmo_sigma_profile": { 
			"-0.025": 0.0,
			"-0.024": 0.0,
			"-0.023": 0.0,
			"-0.022": 0.0,
			"-0.021": 0.0,
			"-0.02": 0.0,
			"-0.019": 0.0,
			"-0.018": 0.0,
			"-0.017": 0.0,
			"-0.016": 0.0,
			"-0.015": 0.0,
			"-0.014": 0.0,
			"-0.013": 0.0,
			"-0.012": 0.0,
			"-0.011": 0.0,
			"-0.01": 0.0,
			"-0.009": 0.0,
			"-0.008": 0.0,
			"-0.007": 1.6221867375,
			"-0.006": 14.3152845954,
			"-0.005": 13.6502104994,
			"-0.004": 16.4855095167,
			"-0.003": 14.9832423763,
			"-0.002": 14.2098622611,
			"-0.001": 13.0048876715,
			"0.0": 15.4289153341,
			"0.001": 13.9721515418,
			"0.002": 18.5877576208,
			"0.003": 20.7975737006,
			"0.004": 13.1710395085,
			"0.005": 5.04324107971,
			"0.006": 2.22659772544,
			"0.007": 1.4037734665,
			"0.008": 1.31275093009,
			"0.009": 1.21010277837,
			"0.01": 1.10751926522,
			"0.011": 0.916065205072,
			"0.012": 1.08410195918,
			"0.013": 0.841978036176,
			"0.014": 0.56923057589,
			"0.015": 0.984644954326,
			"0.016": 0.752108736335,
			"0.017": 0.095138041084,
			"0.018": 0.0,
			"0.019": 0.0,
			"0.02": 0.0,
			"0.021": 0.0,
			"0.022": 0.0,
			"0.023": 0.0,
			"0.024": 0.0,
			"0.025": 0.0
		}
	}
}
