{
	 "smiles": "ClCCC1=NC=C(O1)C1=CC=CC=C1", 
	 "Tm": 342.15, 
	 "num_atms": 24, 
	 "gaussian": { 
		 "optdone": 1, 
		 "sigma_profile": "yes", 
		 "theory": "DFT", 
		 "functional": "B3LYP", 
		 "basiset": "6-31G**", 
		 "properties": { 
			 "R2extent": 4767.1804, 
			 "electric_dipole_moment_norm": 2.42631670233, 
			 "electric_quadrupole_moment_norm": 14.7219175371, 
			 "total_energy": -1015.36648645, 
			 "HOMO_LUMO_gap": 0.17722, 
			 "cosmo_polarized_energy": -10.03, 
			 "cosmo_cavitation_energy": 30.32, 
			 "cosmo_dispersion_energy": -22.14, 
			 "cosmo_repulsion_energy": 1.75, 
			 "cosmo_total_nonelectrostatic_energy": 9.94, 
			 "SMD_solvation_energy": 3.47 
		},
		"coords": [
			{
				"x": -0.6034308562,
				"y": 1.6973013728,
				"z": -4.8442366433,
				"element": "Cl" 
			},
			{
				"x": 0.8568871559,
				"y": 0.6292596893,
				"z": -4.6916899157,
				"element": "C" 
			},
			{
				"x": 1.4888484749,
				"y": 0.724542936,
				"z": -3.306105098,
				"element": "C" 
			},
			{
				"x": 0.6607350517,
				"y": 0.0746646458,
				"z": -2.2450809547,
				"element": "C" 
			},
			{
				"x": 0.0153129727,
				"y": -1.0503709598,
				"z": -2.308565573,
				"element": "N" 
			},
			{
				"x": -0.5490290237,
				"y": -1.1995883214,
				"z": -1.0529197076,
				"element": "C" 
			},
			{
				"x": -0.2117132392,
				"y": -0.1375379119,
				"z": -0.2611114687,
				"element": "C" 
			},
			{
				"x": 0.574154225,
				"y": 0.6906634783,
				"z": -1.0363731789,
				"element": "O" 
			},
			{
				"x": -0.4926958275,
				"y": 0.2613385182,
				"z": 1.1107199316,
				"element": "C" 
			},
			{
				"x": -1.2695713003,
				"y": -0.5651147082,
				"z": 1.9431154362,
				"element": "C" 
			},
			{
				"x": -1.5425930763,
				"y": -0.1893870833,
				"z": 3.2548755642,
				"element": "C" 
			},
			{
				"x": -1.0468155148,
				"y": 1.0148280665,
				"z": 3.7622615605,
				"element": "C" 
			},
			{
				"x": -0.2747400471,
				"y": 1.8405345199,
				"z": 2.9431722135,
				"element": "C" 
			},
			{
				"x": 0.0020041725,
				"y": 1.4709191546,
				"z": 1.6284882486,
				"element": "C" 
			},
			{
				"x": 0.5204501839,
				"y": -0.3871690681,
				"z": -4.8951809231,
				"element": "H" 
			},
			{
				"x": 1.5568393308,
				"y": 0.9525242988,
				"z": -5.4626643501,
				"element": "H" 
			},
			{
				"x": 2.4669080824,
				"y": 0.2241336321,
				"z": -3.3575051036,
				"element": "H" 
			},
			{
				"x": 1.675523428,
				"y": 1.7667958237,
				"z": -3.0350943705,
				"element": "H" 
			},
			{
				"x": -1.1597408598,
				"y": -2.0561815245,
				"z": -0.8087667514,
				"element": "H" 
			},
			{
				"x": -1.659330634,
				"y": -1.5037869188,
				"z": 1.5608666718,
				"element": "H" 
			},
			{
				"x": -2.1442645652,
				"y": -0.8388834532,
				"z": 3.8840615433,
				"element": "H" 
			},
			{
				"x": -1.2612417697,
				"y": 1.3056500152,
				"z": 4.7862905535,
				"element": "H" 
			},
			{
				"x": 0.1143491181,
				"y": 2.7787477385,
				"z": 3.3281825818,
				"element": "H" 
			},
			{
				"x": 0.6004545177,
				"y": 2.1159160596,
				"z": 0.9944597336,
				"element": "H" 
			}
		],
		 "valence_orbital": [ 
			{
				"type": "occ",
				"energy": -0.29471,
				"method": "rhf"
			},
			{
				"type": "occ",
				"energy": -0.28924,
				"method": "rhf"
			},
			{
				"type": "occ",
				"energy": -0.2876,
				"method": "rhf"
			},
			{
				"type": "occ",
				"energy": -0.25702,
				"method": "rhf"
			},
			{
				"type": "occ",
				"energy": -0.21598,
				"method": "rhf"
			},
			{
				"type": "unocc",
				"energy": -0.03876,
				"method": "rhf"
			},
			{
				"type": "unocc",
				"energy": -0.0068,
				"method": "rhf"
			},
			{
				"type": "unocc",
				"energy": 0.01797,
				"method": "rhf"
			},
			{
				"type": "unocc",
				"energy": 0.02941,
				"method": "rhf"
			},
			{
				"type": "unocc",
				"energy": 0.07303,
				"method": "rhf"
			}
		],
		"cosmo_sigma_profile": { 
			"-0.025": 0.0,
			"-0.024": 0.0,
			"-0.023": 0.0,
			"-0.022": 0.0,
			"-0.021": 0.0,
			"-0.02": 0.0,
			"-0.019": 0.0,
			"-0.018": 0.0,
			"-0.017": 0.0,
			"-0.016": 0.0,
			"-0.015": 0.0,
			"-0.014": 0.0,
			"-0.013": 0.0,
			"-0.012": 0.0,
			"-0.011": 0.0,
			"-0.01": 0.0,
			"-0.009": 0.139363244591,
			"-0.008": 5.13603973862,
			"-0.007": 11.5929172977,
			"-0.006": 16.6173728981,
			"-0.005": 20.6375588534,
			"-0.004": 18.7259945486,
			"-0.003": 13.1549372546,
			"-0.002": 12.1203656358,
			"-0.001": 12.1753200481,
			"0.0": 14.301554614,
			"0.001": 19.5563025927,
			"0.002": 20.0442961008,
			"0.003": 18.7957557671,
			"0.004": 18.3918324349,
			"0.005": 19.4118696114,
			"0.006": 11.608423467,
			"0.007": 4.5350511148,
			"0.008": 1.83699015595,
			"0.009": 0.936732152091,
			"0.01": 0.730445667178,
			"0.011": 1.53582245131,
			"0.012": 0.53788418822,
			"0.013": 0.80220495368,
			"0.014": 1.00546532544,
			"0.015": 0.547816137228,
			"0.016": 0.0133299886631,
			"0.017": 0.0,
			"0.018": 0.0,
			"0.019": 0.0,
			"0.02": 0.0,
			"0.021": 0.0,
			"0.022": 0.0,
			"0.023": 0.0,
			"0.024": 0.0,
			"0.025": 0.0
		}
	}
}
