{
	 "smiles": "CC(C)S(=O)(=O)C1=CSC(C(O)=O)=C1N", 
	 "Tm": 431.15, 
	 "num_atms": 26, 
	 "gaussian": { 
		 "optdone": 1, 
		 "sigma_profile": "yes", 
		 "theory": "DFT", 
		 "functional": "B3LYP", 
		 "basiset": "6-31G**", 
		 "properties": { 
			 "R2extent": 4288.9942, 
			 "electric_dipole_moment_norm": 4.74957337242, 
			 "electric_quadrupole_moment_norm": 24.5059697949, 
			 "total_energy": -1463.44899325, 
			 "HOMO_LUMO_gap": 0.17863, 
			 "cosmo_polarized_energy": -21.68, 
			 "cosmo_cavitation_energy": 31.72, 
			 "cosmo_dispersion_energy": -23.46, 
			 "cosmo_repulsion_energy": 1.73, 
			 "cosmo_total_nonelectrostatic_energy": 9.99, 
			 "SMD_solvation_energy": 5.7 
		},
		"coords": [
			{
				"x": 0.4995679773,
				"y": 2.3204610331,
				"z": -1.3194891198,
				"element": "C" 
			},
			{
				"x": 1.6294704348,
				"y": 1.3622129386,
				"z": -0.9453223466,
				"element": "C" 
			},
			{
				"x": 1.8452807956,
				"y": 0.2315746816,
				"z": -1.9510260086,
				"element": "C" 
			},
			{
				"x": 1.4115899279,
				"y": 0.7059512125,
				"z": 0.7626542359,
				"element": "S" 
			},
			{
				"x": 1.135400948,
				"y": 1.8497911757,
				"z": 1.6437411345,
				"element": "O" 
			},
			{
				"x": 2.561636329,
				"y": -0.1905098234,
				"z": 1.0269235699,
				"element": "O" 
			},
			{
				"x": -0.0458855505,
				"y": -0.3296040997,
				"z": 0.7275052182,
				"element": "C" 
			},
			{
				"x": -1.3054024957,
				"y": 0.1962753437,
				"z": 0.8951372938,
				"element": "C" 
			},
			{
				"x": -2.5280934781,
				"y": -1.0031997367,
				"z": 0.8168710572,
				"element": "S" 
			},
			{
				"x": -1.3466551409,
				"y": -2.2520460958,
				"z": 0.5273559337,
				"element": "C" 
			},
			{
				"x": -1.8224121472,
				"y": -3.6192041799,
				"z": 0.2311358461,
				"element": "C" 
			},
			{
				"x": -0.8900991239,
				"y": -4.4764492266,
				"z": -0.2489139518,
				"element": "O" 
			},
			{
				"x": -2.9757367027,
				"y": -3.9583016232,
				"z": 0.3814414056,
				"element": "O" 
			},
			{
				"x": -0.0528881139,
				"y": -1.7574764741,
				"z": 0.5477402487,
				"element": "C" 
			},
			{
				"x": 1.0796824877,
				"y": -2.5776935807,
				"z": 0.3966654433,
				"element": "N" 
			},
			{
				"x": 0.3746212742,
				"y": 3.1003606759,
				"z": -0.5655488831,
				"element": "H" 
			},
			{
				"x": -0.4487377164,
				"y": 1.7882040804,
				"z": -1.4437900607,
				"element": "H" 
			},
			{
				"x": 0.7392043416,
				"y": 2.7988122081,
				"z": -2.274255187,
				"element": "H" 
			},
			{
				"x": 2.5630775765,
				"y": 1.9228988973,
				"z": -0.8092394596,
				"element": "H" 
			},
			{
				"x": 2.674315872,
				"y": -0.4147145563,
				"z": -1.6555408729,
				"element": "H" 
			},
			{
				"x": 0.9432727666,
				"y": -0.3774846794,
				"z": -2.0686250819,
				"element": "H" 
			},
			{
				"x": 2.0821118367,
				"y": 0.663512603,
				"z": -2.9282456724,
				"element": "H" 
			},
			{
				"x": -1.5457926295,
				"y": 1.2299485544,
				"z": 1.1016278563,
				"element": "H" 
			},
			{
				"x": -0.057380659,
				"y": -4.0011181038,
				"z": -0.4416126683,
				"element": "H" 
			},
			{
				"x": 1.9385815566,
				"y": -2.032319072,
				"z": 0.4593585112,
				"element": "H" 
			},
			{
				"x": 1.1079696334,
				"y": -3.3103821525,
				"z": 1.1008515585,
				"element": "H" 
			}
		],
		 "valence_orbital": [ 
			{
				"type": "occ",
				"energy": -0.31671,
				"method": "rhf"
			},
			{
				"type": "occ",
				"energy": -0.30071,
				"method": "rhf"
			},
			{
				"type": "occ",
				"energy": -0.28441,
				"method": "rhf"
			},
			{
				"type": "occ",
				"energy": -0.27605,
				"method": "rhf"
			},
			{
				"type": "occ",
				"energy": -0.25123,
				"method": "rhf"
			},
			{
				"type": "unocc",
				"energy": -0.0726,
				"method": "rhf"
			},
			{
				"type": "unocc",
				"energy": -0.02091,
				"method": "rhf"
			},
			{
				"type": "unocc",
				"energy": 0.00285,
				"method": "rhf"
			},
			{
				"type": "unocc",
				"energy": 0.04194,
				"method": "rhf"
			},
			{
				"type": "unocc",
				"energy": 0.05568,
				"method": "rhf"
			}
		],
		"cosmo_sigma_profile": { 
			"-0.025": 0.0,
			"-0.024": 0.0,
			"-0.023": 0.0,
			"-0.022": 0.0,
			"-0.021": 0.0,
			"-0.02": 0.0,
			"-0.019": 0.0,
			"-0.018": 0.0,
			"-0.017": 0.0,
			"-0.016": 0.0,
			"-0.015": 0.363550467666,
			"-0.014": 1.54031065788,
			"-0.013": 1.79163181064,
			"-0.012": 1.8085668632,
			"-0.011": 3.26922408142,
			"-0.01": 4.63056692033,
			"-0.009": 4.50951367835,
			"-0.008": 5.97523550465,
			"-0.007": 5.34720020843,
			"-0.006": 8.92113406354,
			"-0.005": 17.6230848134,
			"-0.004": 20.4611372502,
			"-0.003": 18.5668726757,
			"-0.002": 23.0710430902,
			"-0.001": 24.1800558786,
			"0.0": 17.6362041475,
			"0.001": 14.3694964615,
			"0.002": 8.33574662311,
			"0.003": 5.63608790243,
			"0.004": 5.85746487236,
			"0.005": 4.10725322802,
			"0.006": 4.37208933465,
			"0.007": 5.65106935848,
			"0.008": 6.17458605389,
			"0.009": 6.30161513451,
			"0.01": 9.63794422156,
			"0.011": 12.4373590023,
			"0.012": 8.83867914287,
			"0.013": 1.88858907035,
			"0.014": 0.17640853245,
			"0.015": 0.0,
			"0.016": 0.0,
			"0.017": 0.0,
			"0.018": 0.0,
			"0.019": 0.0,
			"0.02": 0.0,
			"0.021": 0.0,
			"0.022": 0.0,
			"0.023": 0.0,
			"0.024": 0.0,
			"0.025": 0.0
		}
	}
}
