{
	 "smiles": "CC1=C(N)C=CC=N1", 
	 "Tm": 390.15, 
	 "num_atms": 16, 
	 "gaussian": { 
		 "optdone": 1, 
		 "sigma_profile": "yes", 
		 "theory": "DFT", 
		 "functional": "B3LYP", 
		 "basiset": "6-31G**", 
		 "properties": { 
			 "R2extent": 1633.9239, 
			 "electric_dipole_moment_norm": 3.07740415935, 
			 "electric_quadrupole_moment_norm": 10.9853442304, 
			 "total_energy": -342.967171189, 
			 "HOMO_LUMO_gap": 0.19892, 
			 "cosmo_polarized_energy": -10.31, 
			 "cosmo_cavitation_energy": 19.2, 
			 "cosmo_dispersion_energy": -14.57, 
			 "cosmo_repulsion_energy": 1.21, 
			 "cosmo_total_nonelectrostatic_energy": 5.84, 
			 "SMD_solvation_energy": 2.07 
		},
		"coords": [
			{
				"x": -3.4559678841,
				"y": 1.3549333647,
				"z": -0.4674536068,
				"element": "C" 
			},
			{
				"x": -2.5845081731,
				"y": 0.1859877151,
				"z": -0.0822866118,
				"element": "C" 
			},
			{
				"x": -1.2242850983,
				"y": 0.3858989598,
				"z": 0.2623572239,
				"element": "C" 
			},
			{
				"x": -0.6545629671,
				"y": 1.6590650621,
				"z": 0.2056642469,
				"element": "N" 
			},
			{
				"x": -0.4627526329,
				"y": -0.739527681,
				"z": 0.5995926549,
				"element": "C" 
			},
			{
				"x": -1.0593501538,
				"y": -1.997068665,
				"z": 0.5837493262,
				"element": "C" 
			},
			{
				"x": -2.4048286205,
				"y": -2.0929748096,
				"z": 0.2357762689,
				"element": "C" 
			},
			{
				"x": -3.1472749985,
				"y": -1.0264773449,
				"z": -0.088243461,
				"element": "N" 
			},
			{
				"x": -3.0352814321,
				"y": 1.9074340808,
				"z": -1.3170408025,
				"element": "H" 
			},
			{
				"x": -3.5735057581,
				"y": 2.0708759455,
				"z": 0.3589084166,
				"element": "H" 
			},
			{
				"x": -4.4462669292,
				"y": 0.9876225592,
				"z": -0.7392545611,
				"element": "H" 
			},
			{
				"x": 0.2047229152,
				"y": 1.7651773474,
				"z": 0.7277965727,
				"element": "H" 
			},
			{
				"x": -1.2896725922,
				"y": 2.4280948208,
				"z": 0.3669655914,
				"element": "H" 
			},
			{
				"x": 0.5853569373,
				"y": -0.6240620194,
				"z": 0.8669218904,
				"element": "H" 
			},
			{
				"x": -0.4893741313,
				"y": -2.8847188728,
				"z": 0.8409893927,
				"element": "H" 
			},
			{
				"x": -2.9091484814,
				"y": -3.0567604626,
				"z": 0.2139574588,
				"element": "H" 
			}
		],
		 "valence_orbital": [ 
			{
				"type": "occ",
				"energy": -0.35691,
				"method": "rhf"
			},
			{
				"type": "occ",
				"energy": -0.32577,
				"method": "rhf"
			},
			{
				"type": "occ",
				"energy": -0.26311,
				"method": "rhf"
			},
			{
				"type": "occ",
				"energy": -0.2409,
				"method": "rhf"
			},
			{
				"type": "occ",
				"energy": -0.20691,
				"method": "rhf"
			},
			{
				"type": "unocc",
				"energy": -0.00799,
				"method": "rhf"
			},
			{
				"type": "unocc",
				"energy": 0.01284,
				"method": "rhf"
			},
			{
				"type": "unocc",
				"energy": 0.07376,
				"method": "rhf"
			},
			{
				"type": "unocc",
				"energy": 0.10252,
				"method": "rhf"
			},
			{
				"type": "unocc",
				"energy": 0.1247,
				"method": "rhf"
			}
		],
		"cosmo_sigma_profile": { 
			"-0.025": 0.0,
			"-0.024": 0.0,
			"-0.023": 0.0,
			"-0.022": 0.0,
			"-0.021": 0.0,
			"-0.02": 0.0,
			"-0.019": 0.0,
			"-0.018": 0.0,
			"-0.017": 0.0,
			"-0.016": 0.0,
			"-0.015": 0.0,
			"-0.014": 0.0,
			"-0.013": 0.507361823745,
			"-0.012": 2.03103278983,
			"-0.011": 2.70638192905,
			"-0.01": 2.57662038296,
			"-0.009": 3.63991526211,
			"-0.008": 3.06788808335,
			"-0.007": 4.17186556055,
			"-0.006": 5.88617652513,
			"-0.005": 7.30979403452,
			"-0.004": 12.0002581267,
			"-0.003": 9.8335892993,
			"-0.002": 10.5311013914,
			"-0.001": 9.79150124709,
			"0.0": 11.148422402,
			"0.001": 8.68195063344,
			"0.002": 7.89396228552,
			"0.003": 8.95603945344,
			"0.004": 10.2997345779,
			"0.005": 10.2352346968,
			"0.006": 3.77096968201,
			"0.007": 1.94383060513,
			"0.008": 2.79115730786,
			"0.009": 2.03902894086,
			"0.01": 1.6528334323,
			"0.011": 1.79434008608,
			"0.012": 1.78568681876,
			"0.013": 1.40236321038,
			"0.014": 1.44043860601,
			"0.015": 0.839276069427,
			"0.016": 0.679916729723,
			"0.017": 0.569981981886,
			"0.018": 0.0508399877048,
			"0.019": 0.0,
			"0.02": 0.0,
			"0.021": 0.0,
			"0.022": 0.0,
			"0.023": 0.0,
			"0.024": 0.0,
			"0.025": 0.0
		}
	}
}
