{
	 "smiles": "CN(C)C1=NC(N)=CC=C1", 
	 "Tm": 315.15, 
	 "num_atms": 21, 
	 "gaussian": { 
		 "optdone": 1, 
		 "sigma_profile": "yes", 
		 "theory": "DFT", 
		 "functional": "B3LYP", 
		 "basiset": "6-31G**", 
		 "properties": { 
			 "R2extent": 1745.6746, 
			 "electric_dipole_moment_norm": 0.768939464457, 
			 "electric_quadrupole_moment_norm": 9.9798911963, 
			 "total_energy": -437.636722569, 
			 "HOMO_LUMO_gap": 0.18808, 
			 "cosmo_polarized_energy": -9.08, 
			 "cosmo_cavitation_energy": 23.65, 
			 "cosmo_dispersion_energy": -17.75, 
			 "cosmo_repulsion_energy": 1.45, 
			 "cosmo_total_nonelectrostatic_energy": 7.34, 
			 "SMD_solvation_energy": 2.93 
		},
		"coords": [
			{
				"x": 1.0467537737,
				"y": -2.8729567781,
				"z": 0.571722677,
				"element": "C" 
			},
			{
				"x": 0.3792892477,
				"y": -2.3813057163,
				"z": -0.6247139313,
				"element": "N" 
			},
			{
				"x": 0.6291282979,
				"y": -3.1128978509,
				"z": -1.8517723862,
				"element": "C" 
			},
			{
				"x": -0.0659707263,
				"y": -1.0705595945,
				"z": -0.6832948456,
				"element": "C" 
			},
			{
				"x": -0.1450089692,
				"y": -0.4089878964,
				"z": 0.4868307807,
				"element": "N" 
			},
			{
				"x": -0.6012777837,
				"y": 0.8478174985,
				"z": 0.4988501501,
				"element": "C" 
			},
			{
				"x": -0.6000246599,
				"y": 1.4772781421,
				"z": 1.7356528929,
				"element": "N" 
			},
			{
				"x": -1.0158691141,
				"y": 1.5277950975,
				"z": -0.6608587477,
				"element": "C" 
			},
			{
				"x": -0.9239763879,
				"y": 0.8376652275,
				"z": -1.8635750586,
				"element": "C" 
			},
			{
				"x": -0.4440805569,
				"y": -0.4682298907,
				"z": -1.905135139,
				"element": "C" 
			},
			{
				"x": 0.8440716273,
				"y": -3.9427346102,
				"z": 0.6887577738,
				"element": "H" 
			},
			{
				"x": 2.1384150767,
				"y": -2.7309476329,
				"z": 0.5290878327,
				"element": "H" 
			},
			{
				"x": 0.6660249643,
				"y": -2.3348967465,
				"z": 1.4369849759,
				"element": "H" 
			},
			{
				"x": -0.2557307785,
				"y": -3.113102282,
				"z": -2.4962284649,
				"element": "H" 
			},
			{
				"x": 1.475819793,
				"y": -2.7106788861,
				"z": -2.4311951001,
				"element": "H" 
			},
			{
				"x": 0.8540159635,
				"y": -4.152150479,
				"z": -1.6013246039,
				"element": "H" 
			},
			{
				"x": -0.5391335618,
				"y": 0.8361406026,
				"z": 2.5144164831,
				"element": "H" 
			},
			{
				"x": -1.2720160349,
				"y": 2.2199279365,
				"z": 1.8614141684,
				"element": "H" 
			},
			{
				"x": -1.3701701425,
				"y": 2.5520702803,
				"z": -0.613097901,
				"element": "H" 
			},
			{
				"x": -1.2232678401,
				"y": 1.3244242997,
				"z": -2.788362065,
				"element": "H" 
			},
			{
				"x": -0.3619921884,
				"y": -0.989370721,
				"z": -2.8489594913,
				"element": "H" 
			}
		],
		 "valence_orbital": [ 
			{
				"type": "occ",
				"energy": -0.31532,
				"method": "rhf"
			},
			{
				"type": "occ",
				"energy": -0.27526,
				"method": "rhf"
			},
			{
				"type": "occ",
				"energy": -0.24647,
				"method": "rhf"
			},
			{
				"type": "occ",
				"energy": -0.22207,
				"method": "rhf"
			},
			{
				"type": "occ",
				"energy": -0.18014,
				"method": "rhf"
			},
			{
				"type": "unocc",
				"energy": 0.00794,
				"method": "rhf"
			},
			{
				"type": "unocc",
				"energy": 0.03344,
				"method": "rhf"
			},
			{
				"type": "unocc",
				"energy": 0.09261,
				"method": "rhf"
			},
			{
				"type": "unocc",
				"energy": 0.10267,
				"method": "rhf"
			},
			{
				"type": "unocc",
				"energy": 0.1215,
				"method": "rhf"
			}
		],
		"cosmo_sigma_profile": { 
			"-0.025": 0.0,
			"-0.024": 0.0,
			"-0.023": 0.0,
			"-0.022": 0.0,
			"-0.021": 0.0,
			"-0.02": 0.0,
			"-0.019": 0.0,
			"-0.018": 0.0,
			"-0.017": 0.0,
			"-0.016": 0.0,
			"-0.015": 0.0,
			"-0.014": 0.0,
			"-0.013": 0.409809003649,
			"-0.012": 1.83525392365,
			"-0.011": 1.6726782083,
			"-0.01": 2.46493312066,
			"-0.009": 2.81310824631,
			"-0.008": 2.48355553071,
			"-0.007": 2.08378867957,
			"-0.006": 3.81473356615,
			"-0.005": 11.4453112272,
			"-0.004": 13.7368154337,
			"-0.003": 18.6175079693,
			"-0.002": 19.4547036853,
			"-0.001": 21.5791204784,
			"0.0": 10.2259825872,
			"0.001": 7.45965208313,
			"0.002": 7.67222784927,
			"0.003": 7.11388115003,
			"0.004": 7.93819963756,
			"0.005": 12.4175111103,
			"0.006": 10.4510848172,
			"0.007": 7.16289816064,
			"0.008": 4.8432002444,
			"0.009": 2.74766912927,
			"0.01": 2.21693065152,
			"0.011": 1.85238434828,
			"0.012": 0.747201388889,
			"0.013": 0.746685490649,
			"0.014": 0.366558551792,
			"0.015": 0.0,
			"0.016": 0.0,
			"0.017": 0.0,
			"0.018": 0.0,
			"0.019": 0.0,
			"0.02": 0.0,
			"0.021": 0.0,
			"0.022": 0.0,
			"0.023": 0.0,
			"0.024": 0.0,
			"0.025": 0.0
		}
	}
}
