{
	 "smiles": "CN(C1=CC=C(C=C1)C(=O)CCl)S(C)(=O)=O", 
	 "Tm": 349.15, 
	 "num_atms": 28, 
	 "gaussian": { 
		 "optdone": 1, 
		 "sigma_profile": "yes", 
		 "theory": "DFT", 
		 "functional": "B3LYP", 
		 "basiset": "6-31G**", 
		 "properties": { 
			 "R2extent": 7491.433, 
			 "electric_dipole_moment_norm": 5.25473344329, 
			 "electric_quadrupole_moment_norm": 19.3604690914, 
			 "total_energy": -1527.02531284, 
			 "HOMO_LUMO_gap": 0.16616, 
			 "cosmo_polarized_energy": -18.76, 
			 "cosmo_cavitation_energy": 34.38, 
			 "cosmo_dispersion_energy": -25.16, 
			 "cosmo_repulsion_energy": 1.9, 
			 "cosmo_total_nonelectrostatic_energy": 11.13, 
			 "SMD_solvation_energy": 5.71 
		},
		"coords": [
			{
				"x": -1.7345248226,
				"y": -0.7448476548,
				"z": 1.8129249645,
				"element": "C" 
			},
			{
				"x": -1.1937221337,
				"y": -1.4561752738,
				"z": 0.646667048,
				"element": "N" 
			},
			{
				"x": 0.1950890441,
				"y": -1.3767537873,
				"z": 0.3666298478,
				"element": "C" 
			},
			{
				"x": 0.8310749763,
				"y": -2.2993772041,
				"z": -0.4922062228,
				"element": "C" 
			},
			{
				"x": 2.1923976186,
				"y": -2.1996743831,
				"z": -0.7332389297,
				"element": "C" 
			},
			{
				"x": 2.9778754626,
				"y": -1.2070922268,
				"z": -0.1225348604,
				"element": "C" 
			},
			{
				"x": 2.3461316296,
				"y": -0.3050152371,
				"z": 0.744694312,
				"element": "C" 
			},
			{
				"x": 0.9776722073,
				"y": -0.3801634386,
				"z": 0.9814267975,
				"element": "C" 
			},
			{
				"x": 4.4273519699,
				"y": -1.1611427709,
				"z": -0.4468278977,
				"element": "C" 
			},
			{
				"x": 4.9302659955,
				"y": -1.915216455,
				"z": -1.2656518447,
				"element": "O" 
			},
			{
				"x": 5.3287463428,
				"y": -0.1154556452,
				"z": 0.2193184009,
				"element": "C" 
			},
			{
				"x": 5.5605120551,
				"y": -0.4390295344,
				"z": 1.9914272847,
				"element": "Cl" 
			},
			{
				"x": -2.3149186953,
				"y": -1.8329853236,
				"z": -0.5991239292,
				"element": "S" 
			},
			{
				"x": -2.0415079829,
				"y": -0.5490937926,
				"z": -1.8384168565,
				"element": "C" 
			},
			{
				"x": -3.6412185826,
				"y": -1.6354814395,
				"z": -0.0159757527,
				"element": "O" 
			},
			{
				"x": -1.9485205405,
				"y": -3.1146274664,
				"z": -1.1992194476,
				"element": "O" 
			},
			{
				"x": -2.7478572887,
				"y": -1.0948049201,
				"z": 1.9940583933,
				"element": "H" 
			},
			{
				"x": -1.7548390547,
				"y": 0.3450791697,
				"z": 1.6800454011,
				"element": "H" 
			},
			{
				"x": -1.1127240905,
				"y": -0.988641531,
				"z": 2.6771749282,
				"element": "H" 
			},
			{
				"x": 0.2554671077,
				"y": -3.0948152951,
				"z": -0.9459550064,
				"element": "H" 
			},
			{
				"x": 2.683008688,
				"y": -2.9081129452,
				"z": -1.3922774688,
				"element": "H" 
			},
			{
				"x": 2.9155160837,
				"y": 0.4670668824,
				"z": 1.250746627,
				"element": "H" 
			},
			{
				"x": 0.5229794089,
				"y": 0.3424935704,
				"z": 1.6472488017,
				"element": "H" 
			},
			{
				"x": 6.3093135405,
				"y": -0.173213841,
				"z": -0.2490043906,
				"element": "H" 
			},
			{
				"x": 4.9245077338,
				"y": 0.8949923198,
				"z": 0.1305655618,
				"element": "H" 
			},
			{
				"x": -1.0032976946,
				"y": -0.5878086825,
				"z": -2.1696059549,
				"element": "H" 
			},
			{
				"x": -2.7142799944,
				"y": -0.7706633012,
				"z": -2.6686092497,
				"element": "H" 
			},
			{
				"x": -2.282398984,
				"y": 0.4198602072,
				"z": -1.3992805568,
				"element": "H" 
			}
		],
		 "valence_orbital": [ 
			{
				"type": "occ",
				"energy": -0.31022,
				"method": "rhf"
			},
			{
				"type": "occ",
				"energy": -0.30713,
				"method": "rhf"
			},
			{
				"type": "occ",
				"energy": -0.2739,
				"method": "rhf"
			},
			{
				"type": "occ",
				"energy": -0.26295,
				"method": "rhf"
			},
			{
				"type": "occ",
				"energy": -0.2411,
				"method": "rhf"
			},
			{
				"type": "unocc",
				"energy": -0.07494,
				"method": "rhf"
			},
			{
				"type": "unocc",
				"energy": -0.02387,
				"method": "rhf"
			},
			{
				"type": "unocc",
				"energy": -0.00466,
				"method": "rhf"
			},
			{
				"type": "unocc",
				"energy": 0.03458,
				"method": "rhf"
			},
			{
				"type": "unocc",
				"energy": 0.05337,
				"method": "rhf"
			}
		],
		"cosmo_sigma_profile": { 
			"-0.025": 0.0,
			"-0.024": 0.0,
			"-0.023": 0.0,
			"-0.022": 0.0,
			"-0.021": 0.0,
			"-0.02": 0.0,
			"-0.019": 0.0,
			"-0.018": 0.0,
			"-0.017": 0.0,
			"-0.016": 0.0,
			"-0.015": 0.0,
			"-0.014": 0.0,
			"-0.013": 0.0,
			"-0.012": 0.0,
			"-0.011": 0.0,
			"-0.01": 0.71413812179,
			"-0.009": 7.39620270957,
			"-0.008": 9.70667667419,
			"-0.007": 15.2406192999,
			"-0.006": 19.9892767624,
			"-0.005": 22.8905398496,
			"-0.004": 18.9432228857,
			"-0.003": 15.9591886023,
			"-0.002": 11.7308544428,
			"-0.001": 12.3214622931,
			"0.0": 14.4831984562,
			"0.001": 16.5534522225,
			"0.002": 18.017452499,
			"0.003": 20.7022167626,
			"0.004": 13.1700288862,
			"0.005": 11.3999155122,
			"0.006": 7.09621673476,
			"0.007": 4.87724140823,
			"0.008": 5.36072126416,
			"0.009": 5.85441859266,
			"0.01": 11.0305595915,
			"0.011": 10.8449475939,
			"0.012": 1.83927733438,
			"0.013": 0.0638806083752,
			"0.014": 0.0,
			"0.015": 0.0,
			"0.016": 0.0,
			"0.017": 0.0,
			"0.018": 0.0,
			"0.019": 0.0,
			"0.02": 0.0,
			"0.021": 0.0,
			"0.022": 0.0,
			"0.023": 0.0,
			"0.024": 0.0,
			"0.025": 0.0
		}
	}
}
