{
	 "smiles": "CCS(=O)(=O)CCN1C=CC(N)=N1", 
	 "Tm": 327.15, 
	 "num_atms": 26, 
	 "gaussian": { 
		 "optdone": 1, 
		 "sigma_profile": "yes", 
		 "theory": "DFT", 
		 "functional": "B3LYP", 
		 "basiset": "6-31G**", 
		 "properties": { 
			 "R2extent": 3719.0587, 
			 "electric_dipole_moment_norm": 3.38129240528, 
			 "electric_quadrupole_moment_norm": 24.9163863921, 
			 "total_energy": -987.389599302, 
			 "HOMO_LUMO_gap": 0.22585, 
			 "cosmo_polarized_energy": -22.86, 
			 "cosmo_cavitation_energy": 30.75, 
			 "cosmo_dispersion_energy": -22.35, 
			 "cosmo_repulsion_energy": 1.75, 
			 "cosmo_total_nonelectrostatic_energy": 10.15, 
			 "SMD_solvation_energy": 3.82 
		},
		"coords": [
			{
				"x": -0.0054415348,
				"y": 1.9426609967,
				"z": -3.881137728,
				"element": "C" 
			},
			{
				"x": 0.1638172412,
				"y": 0.5122951498,
				"z": -3.3732867103,
				"element": "C" 
			},
			{
				"x": 0.6855750775,
				"y": 0.5209805193,
				"z": -1.6246612622,
				"element": "S" 
			},
			{
				"x": -0.3861946741,
				"y": 1.1774674079,
				"z": -0.8509960756,
				"element": "O" 
			},
			{
				"x": 2.0672006297,
				"y": 1.0255450552,
				"z": -1.5658944308,
				"element": "O" 
			},
			{
				"x": 0.7302143062,
				"y": -1.2532072291,
				"z": -1.1850424887,
				"element": "C" 
			},
			{
				"x": -0.6091716878,
				"y": -1.8252691919,
				"z": -0.6870230359,
				"element": "C" 
			},
			{
				"x": -0.7777620865,
				"y": -1.7193772252,
				"z": 0.743560636,
				"element": "N" 
			},
			{
				"x": -1.3931069627,
				"y": -0.7494749469,
				"z": 1.468513284,
				"element": "C" 
			},
			{
				"x": -1.185874742,
				"y": -1.0464726627,
				"z": 2.7994544979,
				"element": "C" 
			},
			{
				"x": -0.3999778127,
				"y": -2.230156937,
				"z": 2.781094946,
				"element": "C" 
			},
			{
				"x": 0.0218995783,
				"y": -2.983099731,
				"z": 3.8776375776,
				"element": "N" 
			},
			{
				"x": -0.1381672678,
				"y": -2.631560395,
				"z": 1.5375936865,
				"element": "N" 
			},
			{
				"x": -0.3205143838,
				"y": 1.9258712224,
				"z": -4.9281957529,
				"element": "H" 
			},
			{
				"x": -0.7610603467,
				"y": 2.472920599,
				"z": -3.2969160437,
				"element": "H" 
			},
			{
				"x": 0.9374557974,
				"y": 2.4904006235,
				"z": -3.8109090983,
				"element": "H" 
			},
			{
				"x": -0.7735236241,
				"y": -0.0512074932,
				"z": -3.4215922098,
				"element": "H" 
			},
			{
				"x": 0.9372726531,
				"y": -0.0307537673,
				"z": -3.9240448518,
				"element": "H" 
			},
			{
				"x": 1.4915949239,
				"y": -1.3332902136,
				"z": -0.4054983255,
				"element": "H" 
			},
			{
				"x": 1.0972720748,
				"y": -1.7771982424,
				"z": -2.0729274374,
				"element": "H" 
			},
			{
				"x": -0.6454480525,
				"y": -2.8896694283,
				"z": -0.9340154936,
				"element": "H" 
			},
			{
				"x": -1.4571862473,
				"y": -1.3347214375,
				"z": -1.1719134416,
				"element": "H" 
			},
			{
				"x": -1.8956584772,
				"y": 0.0749184709,
				"z": 0.9861662462,
				"element": "H" 
			},
			{
				"x": -1.5578135814,
				"y": -0.5073921152,
				"z": 3.6577465734,
				"element": "H" 
			},
			{
				"x": 0.3141612699,
				"y": -2.4182500302,
				"z": 4.6648467219,
				"element": "H" 
			},
			{
				"x": 0.7411379294,
				"y": -3.6491589982,
				"z": 3.6224402165,
				"element": "H" 
			}
		],
		 "valence_orbital": [ 
			{
				"type": "occ",
				"energy": -0.29687,
				"method": "rhf"
			},
			{
				"type": "occ",
				"energy": -0.28427,
				"method": "rhf"
			},
			{
				"type": "occ",
				"energy": -0.28156,
				"method": "rhf"
			},
			{
				"type": "occ",
				"energy": -0.23339,
				"method": "rhf"
			},
			{
				"type": "occ",
				"energy": -0.19826,
				"method": "rhf"
			},
			{
				"type": "unocc",
				"energy": 0.02759,
				"method": "rhf"
			},
			{
				"type": "unocc",
				"energy": 0.04589,
				"method": "rhf"
			},
			{
				"type": "unocc",
				"energy": 0.06072,
				"method": "rhf"
			},
			{
				"type": "unocc",
				"energy": 0.07271,
				"method": "rhf"
			},
			{
				"type": "unocc",
				"energy": 0.08186,
				"method": "rhf"
			}
		],
		"cosmo_sigma_profile": { 
			"-0.025": 0.0,
			"-0.024": 0.0,
			"-0.023": 0.0,
			"-0.022": 0.0,
			"-0.021": 0.0,
			"-0.02": 0.0,
			"-0.019": 0.0,
			"-0.018": 0.0,
			"-0.017": 0.0,
			"-0.016": 0.0,
			"-0.015": 0.0,
			"-0.014": 0.0,
			"-0.013": 0.0835186955474,
			"-0.012": 1.83762525647,
			"-0.011": 3.3797297441,
			"-0.01": 4.76875341245,
			"-0.009": 7.66630909074,
			"-0.008": 10.7289902471,
			"-0.007": 13.5173262968,
			"-0.006": 16.024155869,
			"-0.005": 15.2682862274,
			"-0.004": 18.5654483603,
			"-0.003": 14.9331447637,
			"-0.002": 13.6657049949,
			"-0.001": 13.3611645119,
			"0.0": 10.4562758805,
			"0.001": 8.24799420822,
			"0.002": 7.31319778315,
			"0.003": 7.66689407876,
			"0.004": 6.43752586199,
			"0.005": 8.91969275157,
			"0.006": 9.27274436074,
			"0.007": 7.48348866815,
			"0.008": 5.49646204613,
			"0.009": 5.90540441801,
			"0.01": 5.7747213107,
			"0.011": 7.81076579459,
			"0.012": 9.49539420624,
			"0.013": 3.42783070836,
			"0.014": 1.98057178907,
			"0.015": 1.46984661652,
			"0.016": 0.83665869606,
			"0.017": 0.0,
			"0.018": 0.0,
			"0.019": 0.0,
			"0.02": 0.0,
			"0.021": 0.0,
			"0.022": 0.0,
			"0.023": 0.0,
			"0.024": 0.0,
			"0.025": 0.0
		}
	}
}
