{
	 "smiles": "COC1=C(NC2=NCCCS2)C=CC=C1", 
	 "Tm": 357.15, 
	 "num_atms": 29, 
	 "gaussian": { 
		 "optdone": 1, 
		 "sigma_profile": "yes", 
		 "theory": "DFT", 
		 "functional": "B3LYP", 
		 "basiset": "6-31G**", 
		 "properties": { 
			 "R2extent": 4475.8005, 
			 "electric_dipole_moment_norm": 1.17516549047, 
			 "electric_quadrupole_moment_norm": 14.8200620468, 
			 "total_energy": -1010.50527201, 
			 "HOMO_LUMO_gap": 0.19104, 
			 "cosmo_polarized_energy": -10.21, 
			 "cosmo_cavitation_energy": 32.52, 
			 "cosmo_dispersion_energy": -24.81, 
			 "cosmo_repulsion_energy": 1.92, 
			 "cosmo_total_nonelectrostatic_energy": 9.63, 
			 "SMD_solvation_energy": 2.78 
		},
		"coords": [
			{
				"x": -2.2825141358,
				"y": -1.6381087682,
				"z": -2.7148113386,
				"element": "C" 
			},
			{
				"x": -1.3992102232,
				"y": -1.0876804524,
				"z": -1.7513960131,
				"element": "O" 
			},
			{
				"x": -0.8143829406,
				"y": -1.9344125333,
				"z": -0.8457519664,
				"element": "C" 
			},
			{
				"x": 0.0901859428,
				"y": -1.3103656253,
				"z": 0.0520854386,
				"element": "C" 
			},
			{
				"x": 0.295024224,
				"y": 0.0665501027,
				"z": -0.1104784671,
				"element": "N" 
			},
			{
				"x": 0.4576001914,
				"y": 1.1023269465,
				"z": 0.8012777617,
				"element": "C" 
			},
			{
				"x": 0.5272850382,
				"y": 2.2827863581,
				"z": 0.3212865107,
				"element": "N" 
			},
			{
				"x": 0.7006573502,
				"y": 3.4779161292,
				"z": 1.1223032487,
				"element": "C" 
			},
			{
				"x": 1.2986312777,
				"y": 3.2790739403,
				"z": 2.5175480485,
				"element": "C" 
			},
			{
				"x": 0.4943185725,
				"y": 2.2639525033,
				"z": 3.3220548177,
				"element": "C" 
			},
			{
				"x": 0.5118107393,
				"y": 0.5993463792,
				"z": 2.5401056558,
				"element": "S" 
			},
			{
				"x": 0.7720877579,
				"y": -2.1100641331,
				"z": 0.9739189956,
				"element": "C" 
			},
			{
				"x": 0.5200518111,
				"y": -3.4829586374,
				"z": 1.0548123654,
				"element": "C" 
			},
			{
				"x": -0.3838382515,
				"y": -4.0805181641,
				"z": 0.1838344562,
				"element": "C" 
			},
			{
				"x": -1.0440391659,
				"y": -3.3065738595,
				"z": -0.7782642335,
				"element": "C" 
			},
			{
				"x": -2.614768389,
				"y": -0.8023336997,
				"z": -3.3324251835,
				"element": "H" 
			},
			{
				"x": -1.7783419764,
				"y": -2.3796316496,
				"z": -3.3476162925,
				"element": "H" 
			},
			{
				"x": -3.1546826154,
				"y": -2.1050503456,
				"z": -2.2399182898,
				"element": "H" 
			},
			{
				"x": 0.0333443904,
				"y": 0.431231362,
				"z": -1.0182140906,
				"element": "H" 
			},
			{
				"x": 1.3343309972,
				"y": 4.168509221,
				"z": 0.5514912728,
				"element": "H" 
			},
			{
				"x": -0.2748489049,
				"y": 3.9813048391,
				"z": 1.2157537231,
				"element": "H" 
			},
			{
				"x": 2.3390590912,
				"y": 2.9439381557,
				"z": 2.4384754944,
				"element": "H" 
			},
			{
				"x": 1.3025223937,
				"y": 4.2392543934,
				"z": 3.0481243634,
				"element": "H" 
			},
			{
				"x": 0.9140786698,
				"y": 2.1068888969,
				"z": 4.3189371708,
				"element": "H" 
			},
			{
				"x": -0.5441916246,
				"y": 2.5888257391,
				"z": 3.4382620619,
				"element": "H" 
			},
			{
				"x": 1.5160455733,
				"y": -1.6594508656,
				"z": 1.6197283498,
				"element": "H" 
			},
			{
				"x": 1.0525982416,
				"y": -4.0795421623,
				"z": 1.7889213446,
				"element": "H" 
			},
			{
				"x": -0.576372878,
				"y": -5.1478025652,
				"z": 0.2342941958,
				"element": "H" 
			},
			{
				"x": -1.7400411569,
				"y": -3.7787115053,
				"z": -1.4616394002,
				"element": "H" 
			}
		],
		 "valence_orbital": [ 
			{
				"type": "occ",
				"energy": -0.27086,
				"method": "rhf"
			},
			{
				"type": "occ",
				"energy": -0.23518,
				"method": "rhf"
			},
			{
				"type": "occ",
				"energy": -0.23137,
				"method": "rhf"
			},
			{
				"type": "occ",
				"energy": -0.22411,
				"method": "rhf"
			},
			{
				"type": "occ",
				"energy": -0.19121,
				"method": "rhf"
			},
			{
				"type": "unocc",
				"energy": -0.00017,
				"method": "rhf"
			},
			{
				"type": "unocc",
				"energy": 0.01024,
				"method": "rhf"
			},
			{
				"type": "unocc",
				"energy": 0.04219,
				"method": "rhf"
			},
			{
				"type": "unocc",
				"energy": 0.0455,
				"method": "rhf"
			},
			{
				"type": "unocc",
				"energy": 0.08165,
				"method": "rhf"
			}
		],
		"cosmo_sigma_profile": { 
			"-0.025": 0.0,
			"-0.024": 0.0,
			"-0.023": 0.0,
			"-0.022": 0.0,
			"-0.021": 0.0,
			"-0.02": 0.0,
			"-0.019": 0.0,
			"-0.018": 0.0,
			"-0.017": 0.0,
			"-0.016": 0.0,
			"-0.015": 0.0,
			"-0.014": 0.0,
			"-0.013": 0.0,
			"-0.012": 0.0,
			"-0.011": 0.0,
			"-0.01": 0.0,
			"-0.009": 0.395541104421,
			"-0.008": 0.433809269077,
			"-0.007": 1.33949371891,
			"-0.006": 11.2637883106,
			"-0.005": 21.3082239666,
			"-0.004": 28.7098700434,
			"-0.003": 34.3148839212,
			"-0.002": 24.1413870175,
			"-0.001": 18.0764790856,
			"0.0": 13.6443146707,
			"0.001": 12.5211439166,
			"0.002": 14.3573607341,
			"0.003": 16.0752256992,
			"0.004": 16.890846764,
			"0.005": 14.3061343429,
			"0.006": 14.1305720275,
			"0.007": 6.44328011737,
			"0.008": 3.27965139156,
			"0.009": 1.32455069589,
			"0.01": 1.14171534299,
			"0.011": 1.15072052561,
			"0.012": 0.98968661004,
			"0.013": 0.876747246908,
			"0.014": 0.973609483365,
			"0.015": 0.865925696751,
			"0.016": 0.0724677221329,
			"0.017": 0.0,
			"0.018": 0.0,
			"0.019": 0.0,
			"0.02": 0.0,
			"0.021": 0.0,
			"0.022": 0.0,
			"0.023": 0.0,
			"0.024": 0.0,
			"0.025": 0.0
		}
	}
}
