{
	 "smiles": "COC1=CC=C(NC(=O)C(C)=O)C=C1", 
	 "Tm": 400.15, 
	 "num_atms": 25, 
	 "gaussian": { 
		 "optdone": 1, 
		 "sigma_profile": "yes", 
		 "theory": "DFT", 
		 "functional": "B3LYP", 
		 "basiset": "6-31G**", 
		 "properties": { 
			 "R2extent": 3831.668, 
			 "electric_dipole_moment_norm": 3.18569425244, 
			 "electric_quadrupole_moment_norm": 9.36081614978, 
			 "total_energy": -668.104184848, 
			 "HOMO_LUMO_gap": 0.16985, 
			 "cosmo_polarized_energy": -13.17, 
			 "cosmo_cavitation_energy": 29.8, 
			 "cosmo_dispersion_energy": -21.33, 
			 "cosmo_repulsion_energy": 1.7, 
			 "cosmo_total_nonelectrostatic_energy": 10.17, 
			 "SMD_solvation_energy": 7.43 
		},
		"coords": [
			{
				"x": 2.5350951374,
				"y": -3.3412013532,
				"z": -1.8291415996,
				"element": "C" 
			},
			{
				"x": 1.7335233094,
				"y": -3.5722500845,
				"z": -0.6807848174,
				"element": "O" 
			},
			{
				"x": 0.7855310716,
				"y": -2.6464863263,
				"z": -0.3590557234,
				"element": "C" 
			},
			{
				"x": 0.5367849197,
				"y": -1.4731134731,
				"z": -1.079862503,
				"element": "C" 
			},
			{
				"x": -0.4701440727,
				"y": -0.596472082,
				"z": -0.6682134601,
				"element": "C" 
			},
			{
				"x": -1.2134073005,
				"y": -0.8630453145,
				"z": 0.4824912513,
				"element": "C" 
			},
			{
				"x": -2.279504013,
				"y": -0.0183808425,
				"z": 0.9208382301,
				"element": "N" 
			},
			{
				"x": -2.3051414384,
				"y": 1.3021954594,
				"z": 1.2744076752,
				"element": "C" 
			},
			{
				"x": -3.2958062614,
				"y": 1.8195636439,
				"z": 1.7811372926,
				"element": "O" 
			},
			{
				"x": -1.0919885855,
				"y": 2.2128586434,
				"z": 1.0112162337,
				"element": "C" 
			},
			{
				"x": -0.669895943,
				"y": 3.0468799794,
				"z": 2.1958440069,
				"element": "C" 
			},
			{
				"x": -0.6092659131,
				"y": 2.3256588382,
				"z": -0.0989563763,
				"element": "O" 
			},
			{
				"x": -0.9599278463,
				"y": -2.0419254846,
				"z": 1.2019526779,
				"element": "C" 
			},
			{
				"x": 0.021910658,
				"y": -2.9285941298,
				"z": 0.7842400292,
				"element": "C" 
			},
			{
				"x": 1.9291837634,
				"y": -3.2936266394,
				"z": -2.7430634768,
				"element": "H" 
			},
			{
				"x": 3.1175215111,
				"y": -2.4155316229,
				"z": -1.7367227566,
				"element": "H" 
			},
			{
				"x": 3.2178135307,
				"y": -4.1895749412,
				"z": -1.8954590676,
				"element": "H" 
			},
			{
				"x": 1.1050668324,
				"y": -1.2339078643,
				"z": -1.9706095787,
				"element": "H" 
			},
			{
				"x": -0.6666148426,
				"y": 0.3071163649,
				"z": -1.2306795769,
				"element": "H" 
			},
			{
				"x": -3.1387012434,
				"y": -0.4835411106,
				"z": 1.1946346471,
				"element": "H" 
			},
			{
				"x": -0.3177701457,
				"y": 2.3967746852,
				"z": 3.0059300843,
				"element": "H" 
			},
			{
				"x": 0.1231810471,
				"y": 3.7342133853,
				"z": 1.899226475,
				"element": "H" 
			},
			{
				"x": -1.5364886181,
				"y": 3.5927094071,
				"z": 2.5792249949,
				"element": "H" 
			},
			{
				"x": -1.5371716415,
				"y": -2.2582885382,
				"z": 2.0968908473,
				"element": "H" 
			},
			{
				"x": 0.2238160844,
				"y": -3.8427305998,
				"z": 1.3324144906,
				"element": "H" 
			}
		],
		 "valence_orbital": [ 
			{
				"type": "occ",
				"energy": -0.29965,
				"method": "rhf"
			},
			{
				"type": "occ",
				"energy": -0.27925,
				"method": "rhf"
			},
			{
				"type": "occ",
				"energy": -0.26006,
				"method": "rhf"
			},
			{
				"type": "occ",
				"energy": -0.24298,
				"method": "rhf"
			},
			{
				"type": "occ",
				"energy": -0.21543,
				"method": "rhf"
			},
			{
				"type": "unocc",
				"energy": -0.04558,
				"method": "rhf"
			},
			{
				"type": "unocc",
				"energy": -0.01069,
				"method": "rhf"
			},
			{
				"type": "unocc",
				"energy": -0.00291,
				"method": "rhf"
			},
			{
				"type": "unocc",
				"energy": 0.03961,
				"method": "rhf"
			},
			{
				"type": "unocc",
				"energy": 0.08733,
				"method": "rhf"
			}
		],
		"cosmo_sigma_profile": { 
			"-0.025": 0.0,
			"-0.024": 0.0,
			"-0.023": 0.0,
			"-0.022": 0.0,
			"-0.021": 0.0,
			"-0.02": 0.0,
			"-0.019": 0.0,
			"-0.018": 0.0,
			"-0.017": 0.0,
			"-0.016": 0.0,
			"-0.015": 0.405991931055,
			"-0.014": 1.05322128672,
			"-0.013": 1.05851271188,
			"-0.012": 0.987539699304,
			"-0.011": 0.920073011796,
			"-0.01": 1.60781413726,
			"-0.009": 0.866736905211,
			"-0.008": 2.54271202699,
			"-0.007": 5.88132865647,
			"-0.006": 14.0846688208,
			"-0.005": 20.5163460628,
			"-0.004": 21.9491109402,
			"-0.003": 19.8294232166,
			"-0.002": 18.5097062652,
			"-0.001": 15.5031249589,
			"0.0": 12.4957042308,
			"0.001": 10.6637032383,
			"0.002": 12.0999279703,
			"0.003": 13.8469835865,
			"0.004": 16.3164468903,
			"0.005": 10.988159061,
			"0.006": 3.9039393309,
			"0.007": 4.48620926438,
			"0.008": 4.08095515384,
			"0.009": 4.77802078469,
			"0.01": 5.50247758079,
			"0.011": 4.2289663291,
			"0.012": 5.10455111052,
			"0.013": 2.78954168985,
			"0.014": 0.0156625535015,
			"0.015": 0.0,
			"0.016": 0.0,
			"0.017": 0.0,
			"0.018": 0.0,
			"0.019": 0.0,
			"0.02": 0.0,
			"0.021": 0.0,
			"0.022": 0.0,
			"0.023": 0.0,
			"0.024": 0.0,
			"0.025": 0.0
		}
	}
}
