{
	 "smiles": "COC1=CC(=CC(OC)=C1OC)C1=NNC(=S)N1N=CC1=C(O)C=CC=C1", 
	 "Tm": 494.15, 
	 "num_atms": 45, 
	 "gaussian": { 
		 "optdone": 1, 
		 "sigma_profile": "yes", 
		 "theory": "DFT", 
		 "functional": "B3LYP", 
		 "basiset": "6-31G**", 
		 "properties": { 
			 "R2extent": 14237.6923, 
			 "electric_dipole_moment_norm": 5.32821199747, 
			 "electric_quadrupole_moment_norm": 14.0484526219, 
			 "total_energy": -1614.75683273, 
			 "HOMO_LUMO_gap": 0.14342, 
			 "cosmo_polarized_energy": -18.36, 
			 "cosmo_cavitation_energy": 51.37, 
			 "cosmo_dispersion_energy": -35.55, 
			 "cosmo_repulsion_energy": 2.65, 
			 "cosmo_total_nonelectrostatic_energy": 18.47, 
			 "SMD_solvation_energy": 9.13 
		},
		"coords": [
			{
				"x": -0.0746911354,
				"y": 3.4458692852,
				"z": 2.2955997361,
				"element": "C" 
			},
			{
				"x": 0.5485836378,
				"y": 2.480587714,
				"z": 1.4402597682,
				"element": "O" 
			},
			{
				"x": 0.1434744432,
				"y": 1.1803069442,
				"z": 1.6011063672,
				"element": "C" 
			},
			{
				"x": -0.4804896707,
				"y": 0.5480433707,
				"z": 0.5244770063,
				"element": "C" 
			},
			{
				"x": -0.8336999237,
				"y": -0.8053314958,
				"z": 0.6072252081,
				"element": "C" 
			},
			{
				"x": -0.5908153605,
				"y": -1.5133205898,
				"z": 1.7958005498,
				"element": "C" 
			},
			{
				"x": 0.0209016827,
				"y": -0.8827360758,
				"z": 2.8740381011,
				"element": "C" 
			},
			{
				"x": 0.3099878929,
				"y": -1.6203660225,
				"z": 3.9975215389,
				"element": "O" 
			},
			{
				"x": -0.43791487,
				"y": -1.2673619937,
				"z": 5.1682442311,
				"element": "C" 
			},
			{
				"x": 0.408849057,
				"y": 0.4681079171,
				"z": 2.7833402087,
				"element": "C" 
			},
			{
				"x": 1.0321650902,
				"y": 1.0937861583,
				"z": 3.8367061006,
				"element": "O" 
			},
			{
				"x": 2.423466285,
				"y": 0.7635404608,
				"z": 3.9748063066,
				"element": "C" 
			},
			{
				"x": -1.508609476,
				"y": -1.515179733,
				"z": -0.484976998,
				"element": "C" 
			},
			{
				"x": -2.2451603937,
				"y": -2.5842302724,
				"z": -0.2999564037,
				"element": "N" 
			},
			{
				"x": -2.6664543082,
				"y": -2.9276317646,
				"z": -1.549771216,
				"element": "N" 
			},
			{
				"x": -2.2396447365,
				"y": -2.111741321,
				"z": -2.543294638,
				"element": "C" 
			},
			{
				"x": -2.5277851594,
				"y": -2.3099903101,
				"z": -4.1911872769,
				"element": "S" 
			},
			{
				"x": -1.4970324749,
				"y": -1.1643196784,
				"z": -1.8332913356,
				"element": "N" 
			},
			{
				"x": -0.5976970462,
				"y": -0.2491380027,
				"z": -2.373203614,
				"element": "N" 
			},
			{
				"x": -1.0478560011,
				"y": 0.3636125447,
				"z": -3.4167297698,
				"element": "C" 
			},
			{
				"x": -0.2344785118,
				"y": 1.2723097223,
				"z": -4.2090775008,
				"element": "C" 
			},
			{
				"x": -0.5925093596,
				"y": 1.4699952363,
				"z": -5.5628790476,
				"element": "C" 
			},
			{
				"x": -1.5976201882,
				"y": 0.7845161337,
				"z": -6.1703094458,
				"element": "O" 
			},
			{
				"x": 0.1068147451,
				"y": 2.4044979847,
				"z": -6.3364810686,
				"element": "C" 
			},
			{
				"x": 1.1685705407,
				"y": 3.1089935493,
				"z": -5.7804040293,
				"element": "C" 
			},
			{
				"x": 1.562134938,
				"y": 2.8876347817,
				"z": -4.4521893428,
				"element": "C" 
			},
			{
				"x": 0.8664910511,
				"y": 1.9705328152,
				"z": -3.6778397769,
				"element": "C" 
			},
			{
				"x": 0.1371123277,
				"y": 3.2424041565,
				"z": 3.3485209614,
				"element": "H" 
			},
			{
				"x": -1.1599784674,
				"y": 3.4646662973,
				"z": 2.1334460739,
				"element": "H" 
			},
			{
				"x": 0.3461319257,
				"y": 4.4132057785,
				"z": 2.0143487998,
				"element": "H" 
			},
			{
				"x": -0.6610742441,
				"y": 1.1276149414,
				"z": -0.3701375367,
				"element": "H" 
			},
			{
				"x": -0.8635916445,
				"y": -2.5581849341,
				"z": 1.8826024722,
				"element": "H" 
			},
			{
				"x": -1.5115809138,
				"y": -1.4197647291,
				"z": 5.0021086166,
				"element": "H" 
			},
			{
				"x": -0.0975190241,
				"y": -1.938348219,
				"z": 5.9592375557,
				"element": "H" 
			},
			{
				"x": -0.2547653782,
				"y": -0.2289472383,
				"z": 5.4598869854,
				"element": "H" 
			},
			{
				"x": 2.5533051931,
				"y": -0.3100985662,
				"z": 4.1426469664,
				"element": "H" 
			},
			{
				"x": 2.9825732835,
				"y": 1.0725744928,
				"z": 3.0845532279,
				"element": "H" 
			},
			{
				"x": 2.7839478307,
				"y": 1.3190905168,
				"z": 4.8426336405,
				"element": "H" 
			},
			{
				"x": -3.2553336952,
				"y": -3.7344609211,
				"z": -1.6897956659,
				"element": "H" 
			},
			{
				"x": -2.0730965429,
				"y": 0.2121530744,
				"z": -3.7447919129,
				"element": "H" 
			},
			{
				"x": -1.8008905719,
				"y": -0.0431000003,
				"z": -5.7017158232,
				"element": "H" 
			},
			{
				"x": -0.1886178884,
				"y": 2.5427653653,
				"z": -7.3710014269,
				"element": "H" 
			},
			{
				"x": 1.7062905207,
				"y": 3.8290360197,
				"z": -6.3907193004,
				"element": "H" 
			},
			{
				"x": 2.399062366,
				"y": 3.4349390961,
				"z": -4.0307474391,
				"element": "H" 
			},
			{
				"x": 1.1416441754,
				"y": 1.791367511,
				"z": -2.6433098538,
				"element": "H" 
			}
		],
		 "valence_orbital": [ 
			{
				"type": "occ",
				"energy": -0.24339,
				"method": "rhf"
			},
			{
				"type": "occ",
				"energy": -0.23967,
				"method": "rhf"
			},
			{
				"type": "occ",
				"energy": -0.22849,
				"method": "rhf"
			},
			{
				"type": "occ",
				"energy": -0.22606,
				"method": "rhf"
			},
			{
				"type": "occ",
				"energy": -0.20936,
				"method": "rhf"
			},
			{
				"type": "unocc",
				"energy": -0.06594,
				"method": "rhf"
			},
			{
				"type": "unocc",
				"energy": -0.04216,
				"method": "rhf"
			},
			{
				"type": "unocc",
				"energy": -0.00965,
				"method": "rhf"
			},
			{
				"type": "unocc",
				"energy": -0.00414,
				"method": "rhf"
			},
			{
				"type": "unocc",
				"energy": 0.0035,
				"method": "rhf"
			}
		],
		"cosmo_sigma_profile": { 
			"-0.025": 0.0,
			"-0.024": 0.0,
			"-0.023": 0.0,
			"-0.022": 0.0,
			"-0.021": 0.0,
			"-0.02": 0.0,
			"-0.019": 0.000459729106511,
			"-0.018": 0.81518490605,
			"-0.017": 1.30431241799,
			"-0.016": 0.914144690268,
			"-0.015": 1.08211630195,
			"-0.014": 0.762679635135,
			"-0.013": 0.919843855792,
			"-0.012": 0.683692217065,
			"-0.011": 0.405971134792,
			"-0.01": 0.792617420794,
			"-0.009": 1.23888201331,
			"-0.008": 2.32409974995,
			"-0.007": 5.54288014456,
			"-0.006": 17.2604035506,
			"-0.005": 28.7070110286,
			"-0.004": 37.4569436623,
			"-0.003": 42.6119423846,
			"-0.002": 37.0705141191,
			"-0.001": 29.6578160612,
			"0.0": 25.6432571891,
			"0.001": 26.3253110521,
			"0.002": 31.1879360135,
			"0.003": 30.3671393722,
			"0.004": 21.4830686603,
			"0.005": 13.3860386395,
			"0.006": 9.94609187371,
			"0.007": 7.77238557804,
			"0.008": 11.0038341987,
			"0.009": 9.16021140721,
			"0.01": 11.0141898338,
			"0.011": 5.50147356764,
			"0.012": 1.13663028211,
			"0.013": 0.0,
			"0.014": 0.0,
			"0.015": 0.0,
			"0.016": 0.0,
			"0.017": 0.0,
			"0.018": 0.0,
			"0.019": 0.0,
			"0.02": 0.0,
			"0.021": 0.0,
			"0.022": 0.0,
			"0.023": 0.0,
			"0.024": 0.0,
			"0.025": 0.0
		}
	}
}
