{
	 "smiles": "C1OC2=C(O1)C=CC=C2", 
	 "Tm": 255.15, 
	 "num_atms": 15, 
	 "gaussian": { 
		 "optdone": 1, 
		 "sigma_profile": "yes", 
		 "theory": "DFT", 
		 "functional": "B3LYP", 
		 "basiset": "6-31G**", 
		 "properties": { 
			 "R2extent": 1449.1135, 
			 "electric_dipole_moment_norm": 0.346297401088, 
			 "electric_quadrupole_moment_norm": 5.3987333394, 
			 "total_energy": -420.778339772, 
			 "HOMO_LUMO_gap": 0.20708, 
			 "cosmo_polarized_energy": -5.25, 
			 "cosmo_cavitation_energy": 18.63, 
			 "cosmo_dispersion_energy": -14.64, 
			 "cosmo_repulsion_energy": 1.19, 
			 "cosmo_total_nonelectrostatic_energy": 5.18, 
			 "SMD_solvation_energy": 3.93 
		},
		"coords": [
			{
				"x": 1.089331587,
				"y": 0.9903934002,
				"z": 1.7466530314,
				"element": "C" 
			},
			{
				"x": 1.0698684094,
				"y": -0.259700815,
				"z": 2.445198769,
				"element": "O" 
			},
			{
				"x": 0.459163916,
				"y": -1.1584903325,
				"z": 1.6024964932,
				"element": "C" 
			},
			{
				"x": 0.1005697241,
				"y": -0.5222446409,
				"z": 0.4162936965,
				"element": "C" 
			},
			{
				"x": 0.4722390512,
				"y": 0.8006529537,
				"z": 0.4682562691,
				"element": "O" 
			},
			{
				"x": -0.532254581,
				"y": -1.1931598953,
				"z": -0.6117732873,
				"element": "C" 
			},
			{
				"x": -0.8005325093,
				"y": -2.5597472451,
				"z": -0.4048819002,
				"element": "C" 
			},
			{
				"x": -0.4416604502,
				"y": -3.1965361952,
				"z": 0.7823436336,
				"element": "C" 
			},
			{
				"x": 0.203119065,
				"y": -2.4979812491,
				"z": 1.8209210562,
				"element": "C" 
			},
			{
				"x": 2.1281468208,
				"y": 1.31552221,
				"z": 1.6070104571,
				"element": "H" 
			},
			{
				"x": 0.5247360368,
				"y": 1.7379356037,
				"z": 2.3182878474,
				"element": "H" 
			},
			{
				"x": -0.8058734355,
				"y": -0.6858187544,
				"z": -1.5300071809,
				"element": "H" 
			},
			{
				"x": -1.296674382,
				"y": -3.1240487042,
				"z": -1.1882849044,
				"element": "H" 
			},
			{
				"x": -0.6613471861,
				"y": -4.2514365381,
				"z": 0.913626857,
				"element": "H" 
			},
			{
				"x": 0.487567934,
				"y": -2.9809397979,
				"z": 2.7489591621,
				"element": "H" 
			}
		],
		 "valence_orbital": [ 
			{
				"type": "occ",
				"energy": -0.36893,
				"method": "rhf"
			},
			{
				"type": "occ",
				"energy": -0.34758,
				"method": "rhf"
			},
			{
				"type": "occ",
				"energy": -0.31154,
				"method": "rhf"
			},
			{
				"type": "occ",
				"energy": -0.24407,
				"method": "rhf"
			},
			{
				"type": "occ",
				"energy": -0.20408,
				"method": "rhf"
			},
			{
				"type": "unocc",
				"energy": 0.003,
				"method": "rhf"
			},
			{
				"type": "unocc",
				"energy": 0.01513,
				"method": "rhf"
			},
			{
				"type": "unocc",
				"energy": 0.09442,
				"method": "rhf"
			},
			{
				"type": "unocc",
				"energy": 0.10406,
				"method": "rhf"
			},
			{
				"type": "unocc",
				"energy": 0.11159,
				"method": "rhf"
			}
		],
		"cosmo_sigma_profile": { 
			"-0.025": 0.0,
			"-0.024": 0.0,
			"-0.023": 0.0,
			"-0.022": 0.0,
			"-0.021": 0.0,
			"-0.02": 0.0,
			"-0.019": 0.0,
			"-0.018": 0.0,
			"-0.017": 0.0,
			"-0.016": 0.0,
			"-0.015": 0.0,
			"-0.014": 0.0,
			"-0.013": 0.0,
			"-0.012": 0.0,
			"-0.011": 0.0,
			"-0.01": 0.0,
			"-0.009": 0.0,
			"-0.008": 1.00421891717,
			"-0.007": 8.91261521709,
			"-0.006": 11.7185129146,
			"-0.005": 11.9671384849,
			"-0.004": 11.3725026015,
			"-0.003": 10.1885106439,
			"-0.002": 7.67545479721,
			"-0.001": 7.83552018583,
			"0.0": 8.78513151136,
			"0.001": 7.22475912898,
			"0.002": 10.8029917264,
			"0.003": 13.1036348859,
			"0.004": 10.5552567955,
			"0.005": 9.99393603553,
			"0.006": 6.68609771191,
			"0.007": 3.57103868192,
			"0.008": 2.63930951721,
			"0.009": 3.21166808799,
			"0.01": 2.29865233285,
			"0.011": 0.00132495541902,
			"0.012": 0.0,
			"0.013": 0.0,
			"0.014": 0.0,
			"0.015": 0.0,
			"0.016": 0.0,
			"0.017": 0.0,
			"0.018": 0.0,
			"0.019": 0.0,
			"0.02": 0.0,
			"0.021": 0.0,
			"0.022": 0.0,
			"0.023": 0.0,
			"0.024": 0.0,
			"0.025": 0.0
		}
	}
}
