{
	 "smiles": "OC(=O)C1=C2C=C(Br)C=CC2=NC(O)=C1", 
	 "Tm": 629.15, 
	 "num_atms": 21, 
	 "gaussian": { 
		 "optdone": 1, 
		 "sigma_profile": "yes", 
		 "theory": "DFT", 
		 "functional": "B3LYP", 
		 "basiset": "6-31G**", 
		 "properties": { 
			 "R2extent": 5396.9833, 
			 "electric_dipole_moment_norm": 1.91541954934, 
			 "electric_quadrupole_moment_norm": 15.9641864099, 
			 "total_energy": -3236.51673964, 
			 "HOMO_LUMO_gap": 0.15402, 
			 "cosmo_polarized_energy": -19.57, 
			 "cosmo_cavitation_energy": 28.57, 
			 "cosmo_dispersion_energy": -21.56, 
			 "cosmo_repulsion_energy": 1.67, 
			 "cosmo_total_nonelectrostatic_energy": 8.68, 
			 "SMD_solvation_energy": 3.55 
		},
		"coords": [
			{
				"x": -0.150314772,
				"y": 3.0168952399,
				"z": 2.4223365303,
				"element": "O" 
			},
			{
				"x": -0.5012892191,
				"y": 3.0356229038,
				"z": 1.1120058389,
				"element": "C" 
			},
			{
				"x": -0.504761291,
				"y": 4.072708186,
				"z": 0.495648975,
				"element": "O" 
			},
			{
				"x": -0.9282280334,
				"y": 1.722687145,
				"z": 0.5046145837,
				"element": "C" 
			},
			{
				"x": -0.3478500599,
				"y": 0.4479769381,
				"z": 0.8124907594,
				"element": "C" 
			},
			{
				"x": 0.7887734441,
				"y": 0.2544896741,
				"z": 1.6451659764,
				"element": "C" 
			},
			{
				"x": 1.2619379404,
				"y": -1.0183263758,
				"z": 1.8747487609,
				"element": "C" 
			},
			{
				"x": 2.7920093213,
				"y": -1.2678813884,
				"z": 2.9872525159,
				"element": "Br" 
			},
			{
				"x": 0.6498065493,
				"y": -2.1523452512,
				"z": 1.2969868097,
				"element": "C" 
			},
			{
				"x": -0.4328478373,
				"y": -1.9844555657,
				"z": 0.4651408992,
				"element": "C" 
			},
			{
				"x": -0.9532937793,
				"y": -0.6929033829,
				"z": 0.1873478506,
				"element": "C" 
			},
			{
				"x": -2.0024955867,
				"y": -0.607349129,
				"z": -0.6747202637,
				"element": "N" 
			},
			{
				"x": -2.4658200168,
				"y": 0.5819728053,
				"z": -0.9678462713,
				"element": "C" 
			},
			{
				"x": -3.493635551,
				"y": 0.6084216244,
				"z": -1.8486749812,
				"element": "O" 
			},
			{
				"x": -1.9589804397,
				"y": 1.7862043781,
				"z": -0.4029025052,
				"element": "C" 
			},
			{
				"x": -0.3137330557,
				"y": 2.1418850235,
				"z": 2.8047117596,
				"element": "H" 
			},
			{
				"x": 1.3142812784,
				"y": 1.1013089225,
				"z": 2.070063639,
				"element": "H" 
			},
			{
				"x": 1.0459295742,
				"y": -3.1401641428,
				"z": 1.502172474,
				"element": "H" 
			},
			{
				"x": -0.9144361005,
				"y": -2.8310663776,
				"z": -0.0120268345,
				"element": "H" 
			},
			{
				"x": -3.7588380307,
				"y": 1.5232560602,
				"z": -2.0113453643,
				"element": "H" 
			},
			{
				"x": -2.3790143344,
				"y": 2.7540627125,
				"z": -0.6598711524,
				"element": "H" 
			}
		],
		 "valence_orbital": [ 
			{
				"type": "occ",
				"energy": -0.30084,
				"method": "rhf"
			},
			{
				"type": "occ",
				"energy": -0.29401,
				"method": "rhf"
			},
			{
				"type": "occ",
				"energy": -0.28307,
				"method": "rhf"
			},
			{
				"type": "occ",
				"energy": -0.26775,
				"method": "rhf"
			},
			{
				"type": "occ",
				"energy": -0.24196,
				"method": "rhf"
			},
			{
				"type": "unocc",
				"energy": -0.08794,
				"method": "rhf"
			},
			{
				"type": "unocc",
				"energy": -0.03805,
				"method": "rhf"
			},
			{
				"type": "unocc",
				"energy": -0.02931,
				"method": "rhf"
			},
			{
				"type": "unocc",
				"energy": -0.00651,
				"method": "rhf"
			},
			{
				"type": "unocc",
				"energy": 0.02805,
				"method": "rhf"
			}
		],
		"cosmo_sigma_profile": { 
			"-0.025": 0.0,
			"-0.024": 0.0,
			"-0.023": 0.0,
			"-0.022": 0.0,
			"-0.021": 0.0,
			"-0.02": 0.215297780687,
			"-0.019": 0.981315600042,
			"-0.018": 2.14567231318,
			"-0.017": 2.01046528073,
			"-0.016": 1.9945130705,
			"-0.015": 2.3052545354,
			"-0.014": 1.96440689624,
			"-0.013": 1.40183505663,
			"-0.012": 2.37708508995,
			"-0.011": 2.11604770622,
			"-0.01": 2.23904425435,
			"-0.009": 2.01818615477,
			"-0.008": 3.90545780638,
			"-0.007": 7.42176371112,
			"-0.006": 9.57555153536,
			"-0.005": 9.78370966904,
			"-0.004": 8.17893031559,
			"-0.003": 11.8290154061,
			"-0.002": 13.3573208752,
			"-0.001": 14.1393957104,
			"0.0": 17.4664865405,
			"0.001": 22.1175274742,
			"0.002": 17.4451540175,
			"0.003": 12.453646746,
			"0.004": 14.5313388326,
			"0.005": 6.46276744046,
			"0.006": 4.48542996568,
			"0.007": 4.15468834379,
			"0.008": 5.9828550176,
			"0.009": 6.39665812615,
			"0.01": 7.24788261136,
			"0.011": 8.37323917706,
			"0.012": 3.73304655533,
			"0.013": 0.954169024422,
			"0.014": 1.24935009927,
			"0.015": 0.496026415074,
			"0.016": 0.0187869941475,
			"0.017": 0.0,
			"0.018": 0.0,
			"0.019": 0.0,
			"0.02": 0.0,
			"0.021": 0.0,
			"0.022": 0.0,
			"0.023": 0.0,
			"0.024": 0.0,
			"0.025": 0.0
		}
	}
}
