{
	 "smiles": "COC1=C(OP(=O)(OC2=C(OC)C=CC=C2)OC2=C(OC)C=CC=C2)C=CC=C1", 
	 "Tm": 364.15, 
	 "num_atms": 50, 
	 "gaussian": { 
		 "optdone": 1, 
		 "sigma_profile": "yes", 
		 "theory": "DFT", 
		 "functional": "B3LYP", 
		 "basiset": "6-31G**", 
		 "properties": { 
			 "R2extent": 11886.2565, 
			 "electric_dipole_moment_norm": 0.505311715677, 
			 "electric_quadrupole_moment_norm": 13.7337125203, 
			 "total_energy": -1680.82768741, 
			 "HOMO_LUMO_gap": 0.21124, 
			 "cosmo_polarized_energy": -20.5, 
			 "cosmo_cavitation_energy": 56.0, 
			 "cosmo_dispersion_energy": -35.46, 
			 "cosmo_repulsion_energy": 2.67, 
			 "cosmo_total_nonelectrostatic_energy": 23.21, 
			 "SMD_solvation_energy": 13.23 
		},
		"coords": [
			{
				"x": -3.7282492245,
				"y": 3.4423052474,
				"z": 1.3127813787,
				"element": "C" 
			},
			{
				"x": -2.6099557629,
				"y": 2.8062840223,
				"z": 0.7131398252,
				"element": "O" 
			},
			{
				"x": -2.7633338409,
				"y": 2.2781784361,
				"z": -0.5273116892,
				"element": "C" 
			},
			{
				"x": -1.6738591161,
				"y": 1.538818822,
				"z": -1.0276215379,
				"element": "C" 
			},
			{
				"x": -0.5195518693,
				"y": 1.4450603494,
				"z": -0.2471641401,
				"element": "O" 
			},
			{
				"x": -0.330315232,
				"y": 0.1950892133,
				"z": 0.7753024078,
				"element": "P" 
			},
			{
				"x": -1.5091941967,
				"y": -0.2593549459,
				"z": 1.526499193,
				"element": "O" 
			},
			{
				"x": 0.9328243328,
				"y": 0.8052491471,
				"z": 1.5718648657,
				"element": "O" 
			},
			{
				"x": 1.1192466124,
				"y": 0.6356097666,
				"z": 2.9453348564,
				"element": "C" 
			},
			{
				"x": 1.4195386754,
				"y": -0.64069117,
				"z": 3.4552028374,
				"element": "C" 
			},
			{
				"x": 1.4376832611,
				"y": -1.6432607713,
				"z": 2.5424189933,
				"element": "O" 
			},
			{
				"x": 1.6364856549,
				"y": -2.9787608342,
				"z": 2.9900106927,
				"element": "C" 
			},
			{
				"x": 1.6681024198,
				"y": -0.7733361841,
				"z": 4.8244688292,
				"element": "C" 
			},
			{
				"x": 1.6259458986,
				"y": 0.3514068901,
				"z": 5.6551437744,
				"element": "C" 
			},
			{
				"x": 1.3358237419,
				"y": 1.6104625791,
				"z": 5.135767608,
				"element": "C" 
			},
			{
				"x": 1.0782579471,
				"y": 1.7496276392,
				"z": 3.7681316175,
				"element": "C" 
			},
			{
				"x": 0.2595524236,
				"y": -0.9870463325,
				"z": -0.1657937536,
				"element": "O" 
			},
			{
				"x": 1.5122792833,
				"y": -1.0773812893,
				"z": -0.7564062567,
				"element": "C" 
			},
			{
				"x": 2.046297595,
				"y": -2.3717636488,
				"z": -0.8916955105,
				"element": "C" 
			},
			{
				"x": 1.4192684911,
				"y": -3.4848390422,
				"z": -0.3849471542,
				"element": "O" 
			},
			{
				"x": 0.1796471658,
				"y": -3.8531586336,
				"z": -1.0026565421,
				"element": "C" 
			},
			{
				"x": 3.291821696,
				"y": -2.5306667545,
				"z": -1.5013051143,
				"element": "C" 
			},
			{
				"x": 4.0018853935,
				"y": -1.4256759239,
				"z": -1.9720900719,
				"element": "C" 
			},
			{
				"x": 3.4575365838,
				"y": -0.1484427749,
				"z": -1.8440755948,
				"element": "C" 
			},
			{
				"x": 2.2104265635,
				"y": 0.0283913734,
				"z": -1.2411629312,
				"element": "C" 
			},
			{
				"x": -1.7100359757,
				"y": 0.9679295173,
				"z": -2.291446384,
				"element": "C" 
			},
			{
				"x": -2.8476306311,
				"y": 1.116584056,
				"z": -3.0910270266,
				"element": "C" 
			},
			{
				"x": -3.9346118677,
				"y": 1.8382471574,
				"z": -2.6057546205,
				"element": "C" 
			},
			{
				"x": -3.8982862241,
				"y": 2.4182939813,
				"z": -1.3335642443,
				"element": "C" 
			},
			{
				"x": -4.5832150258,
				"y": 2.7596628165,
				"z": 1.3909264901,
				"element": "H" 
			},
			{
				"x": -3.4056922353,
				"y": 3.7314191296,
				"z": 2.313669029,
				"element": "H" 
			},
			{
				"x": -4.0298763363,
				"y": 4.3397355214,
				"z": 0.7571006226,
				"element": "H" 
			},
			{
				"x": 1.5817615536,
				"y": -3.5912336901,
				"z": 2.0904902799,
				"element": "H" 
			},
			{
				"x": 2.6204445927,
				"y": -3.0973529088,
				"z": 3.4612631651,
				"element": "H" 
			},
			{
				"x": 0.8555705118,
				"y": -3.2787641685,
				"z": 3.6995304032,
				"element": "H" 
			},
			{
				"x": 1.895613216,
				"y": -1.7463733367,
				"z": 5.2435164637,
				"element": "H" 
			},
			{
				"x": 1.8235695262,
				"y": 0.2318447696,
				"z": 6.716269203,
				"element": "H" 
			},
			{
				"x": 1.3045665816,
				"y": 2.4807857437,
				"z": 5.783114954,
				"element": "H" 
			},
			{
				"x": 0.847175333,
				"y": 2.7128713695,
				"z": 3.3258010402,
				"element": "H" 
			},
			{
				"x": -0.1192635822,
				"y": -4.7953348268,
				"z": -0.538996793,
				"element": "H" 
			},
			{
				"x": 0.3167748956,
				"y": -4.0092310785,
				"z": -2.0801770402,
				"element": "H" 
			},
			{
				"x": -0.5947093054,
				"y": -3.100838026,
				"z": -0.8333359549,
				"element": "H" 
			},
			{
				"x": 3.6883429743,
				"y": -3.5375410059,
				"z": -1.5853447468,
				"element": "H" 
			},
			{
				"x": 4.9719716816,
				"y": -1.5652011102,
				"z": -2.4392313944,
				"element": "H" 
			},
			{
				"x": 3.9985350083,
				"y": 0.7186107123,
				"z": -2.2103399155,
				"element": "H" 
			},
			{
				"x": 1.784499933,
				"y": 1.0190862861,
				"z": -1.1348778381,
				"element": "H" 
			},
			{
				"x": -0.8433464589,
				"y": 0.4150819446,
				"z": -2.6382723147,
				"element": "H" 
			},
			{
				"x": -2.8771017886,
				"y": 0.6699847924,
				"z": -4.0795345555,
				"element": "H" 
			},
			{
				"x": -4.8248784283,
				"y": 1.9595650755,
				"z": -3.2157457171,
				"element": "H" 
			},
			{
				"x": -4.7545424454,
				"y": 2.9773620971,
				"z": -0.9755696879,
				"element": "H" 
			}
		],
		 "valence_orbital": [ 
			{
				"type": "occ",
				"energy": -0.24615,
				"method": "rhf"
			},
			{
				"type": "occ",
				"energy": -0.24317,
				"method": "rhf"
			},
			{
				"type": "occ",
				"energy": -0.22725,
				"method": "rhf"
			},
			{
				"type": "occ",
				"energy": -0.2191,
				"method": "rhf"
			},
			{
				"type": "occ",
				"energy": -0.21538,
				"method": "rhf"
			},
			{
				"type": "unocc",
				"energy": -0.00414,
				"method": "rhf"
			},
			{
				"type": "unocc",
				"energy": -0.00097,
				"method": "rhf"
			},
			{
				"type": "unocc",
				"energy": 0.00104,
				"method": "rhf"
			},
			{
				"type": "unocc",
				"energy": 0.00481,
				"method": "rhf"
			},
			{
				"type": "unocc",
				"energy": 0.0095,
				"method": "rhf"
			}
		],
		"cosmo_sigma_profile": { 
			"-0.025": 0.0,
			"-0.024": 0.0,
			"-0.023": 0.0,
			"-0.022": 0.0,
			"-0.021": 0.0,
			"-0.02": 0.0,
			"-0.019": 0.0,
			"-0.018": 0.0,
			"-0.017": 0.0,
			"-0.016": 0.0,
			"-0.015": 0.0,
			"-0.014": 0.0,
			"-0.013": 0.0,
			"-0.012": 0.0,
			"-0.011": 0.0,
			"-0.01": 0.0,
			"-0.009": 0.0,
			"-0.008": 0.106555908141,
			"-0.007": 6.10354768586,
			"-0.006": 31.2817709869,
			"-0.005": 41.3606189625,
			"-0.004": 46.8364041476,
			"-0.003": 42.8152536278,
			"-0.002": 32.7004207822,
			"-0.001": 25.986807528,
			"0.0": 20.8808998733,
			"0.001": 29.2688683935,
			"0.002": 30.2048320936,
			"0.003": 31.146675961,
			"0.004": 34.8315919859,
			"0.005": 27.581410112,
			"0.006": 9.05402265136,
			"0.007": 8.1482386621,
			"0.008": 5.83774371929,
			"0.009": 4.91457089007,
			"0.01": 3.88663744857,
			"0.011": 2.81944142872,
			"0.012": 4.10947114744,
			"0.013": 5.09881926598,
			"0.014": 0.195136720274,
			"0.015": 0.0,
			"0.016": 0.0,
			"0.017": 0.0,
			"0.018": 0.0,
			"0.019": 0.0,
			"0.02": 0.0,
			"0.021": 0.0,
			"0.022": 0.0,
			"0.023": 0.0,
			"0.024": 0.0,
			"0.025": 0.0
		}
	}
}
