{
	 "smiles": "CC1=CC(=O)N(N)C(=S)N1", 
	 "Tm": 535.15, 
	 "num_atms": 17, 
	 "gaussian": { 
		 "optdone": 1, 
		 "sigma_profile": "yes", 
		 "theory": "DFT", 
		 "functional": "B3LYP", 
		 "basiset": "6-31G**", 
		 "properties": { 
			 "R2extent": 3178.6481, 
			 "electric_dipole_moment_norm": 5.15723043794, 
			 "electric_quadrupole_moment_norm": 20.3649247325, 
			 "total_energy": -832.413661689, 
			 "HOMO_LUMO_gap": 0.17476, 
			 "cosmo_polarized_energy": -18.65, 
			 "cosmo_cavitation_energy": 22.54, 
			 "cosmo_dispersion_energy": -17.51, 
			 "cosmo_repulsion_energy": 1.37, 
			 "cosmo_total_nonelectrostatic_energy": 6.4, 
			 "SMD_solvation_energy": 4.13 
		},
		"coords": [
			{
				"x": -1.826107636,
				"y": 2.1606582191,
				"z": -0.5857760877,
				"element": "C" 
			},
			{
				"x": -0.5780350679,
				"y": 1.4306234189,
				"z": -0.9869921299,
				"element": "C" 
			},
			{
				"x": 0.1309393531,
				"y": 0.6049121796,
				"z": -0.1743912926,
				"element": "C" 
			},
			{
				"x": 1.3240986057,
				"y": -0.058726318,
				"z": -0.6445917216,
				"element": "C" 
			},
			{
				"x": 2.060603572,
				"y": -0.7920856512,
				"z": 0.0036730014,
				"element": "O" 
			},
			{
				"x": 1.6404258961,
				"y": 0.1950104729,
				"z": -2.014281283,
				"element": "N" 
			},
			{
				"x": 2.7103951693,
				"y": -0.5557544152,
				"z": -2.5265419721,
				"element": "N" 
			},
			{
				"x": 0.9771142089,
				"y": 1.0538083847,
				"z": -2.8417142956,
				"element": "C" 
			},
			{
				"x": 1.449913543,
				"y": 1.4233966292,
				"z": -4.4052451675,
				"element": "S" 
			},
			{
				"x": -0.1404727131,
				"y": 1.6339933205,
				"z": -2.273190637,
				"element": "N" 
			},
			{
				"x": -2.0805204888,
				"y": 1.941020314,
				"z": 0.4517272698,
				"element": "H" 
			},
			{
				"x": -2.6708669027,
				"y": 1.8656179707,
				"z": -1.2186205948,
				"element": "H" 
			},
			{
				"x": -1.6956217746,
				"y": 3.2441660295,
				"z": -0.6874896318,
				"element": "H" 
			},
			{
				"x": -0.1655402612,
				"y": 0.4227594611,
				"z": 0.8493331718,
				"element": "H" 
			},
			{
				"x": 3.2239398327,
				"y": 0.0450556629,
				"z": -3.1702217169,
				"element": "H" 
			},
			{
				"x": 3.2640950502,
				"y": -0.8182127758,
				"z": -1.7115102432,
				"element": "H" 
			},
			{
				"x": -0.6297603866,
				"y": 2.2692570972,
				"z": -2.8894666694,
				"element": "H" 
			}
		],
		 "valence_orbital": [ 
			{
				"type": "occ",
				"energy": -0.29112,
				"method": "rhf"
			},
			{
				"type": "occ",
				"energy": -0.28322,
				"method": "rhf"
			},
			{
				"type": "occ",
				"energy": -0.2484,
				"method": "rhf"
			},
			{
				"type": "occ",
				"energy": -0.22758,
				"method": "rhf"
			},
			{
				"type": "occ",
				"energy": -0.22231,
				"method": "rhf"
			},
			{
				"type": "unocc",
				"energy": -0.04755,
				"method": "rhf"
			},
			{
				"type": "unocc",
				"energy": -0.03411,
				"method": "rhf"
			},
			{
				"type": "unocc",
				"energy": 0.04841,
				"method": "rhf"
			},
			{
				"type": "unocc",
				"energy": 0.0845,
				"method": "rhf"
			},
			{
				"type": "unocc",
				"energy": 0.09526,
				"method": "rhf"
			}
		],
		"cosmo_sigma_profile": { 
			"-0.025": 0.0,
			"-0.024": 0.0,
			"-0.023": 0.0,
			"-0.022": 0.0,
			"-0.021": 0.0,
			"-0.02": 0.0,
			"-0.019": 0.0,
			"-0.018": 0.0,
			"-0.017": 0.189475155443,
			"-0.016": 1.00021896965,
			"-0.015": 1.18825273046,
			"-0.014": 0.917217934223,
			"-0.013": 1.10767216193,
			"-0.012": 1.56621715282,
			"-0.011": 3.45786674846,
			"-0.01": 3.00812537871,
			"-0.009": 3.34344307881,
			"-0.008": 5.72903931125,
			"-0.007": 10.9722626733,
			"-0.006": 10.2643734341,
			"-0.005": 10.0222057005,
			"-0.004": 11.5969989338,
			"-0.003": 12.8660753885,
			"-0.002": 14.4339624072,
			"-0.001": 7.40963073323,
			"0.0": 6.84208500779,
			"0.001": 5.43400418429,
			"0.002": 6.18143956186,
			"0.003": 4.82814461632,
			"0.004": 5.43553911873,
			"0.005": 5.33180157883,
			"0.006": 5.40073807036,
			"0.007": 6.03514741584,
			"0.008": 7.7077616919,
			"0.009": 9.40072464463,
			"0.01": 8.02783595422,
			"0.011": 3.90603749522,
			"0.012": 4.35149705377,
			"0.013": 2.87765479279,
			"0.014": 0.930192719657,
			"0.015": 0.38424869004,
			"0.016": 0.00615034628958,
			"0.017": 0.0,
			"0.018": 0.0,
			"0.019": 0.0,
			"0.02": 0.0,
			"0.021": 0.0,
			"0.022": 0.0,
			"0.023": 0.0,
			"0.024": 0.0,
			"0.025": 0.0
		}
	}
}
