{
	 "smiles": "COC1=C(O)C=C(Br)C(C=O)=C1", 
	 "Tm": 449.15, 
	 "num_atms": 19, 
	 "gaussian": { 
		 "optdone": 1, 
		 "sigma_profile": "yes", 
		 "theory": "DFT", 
		 "functional": "B3LYP", 
		 "basiset": "6-31G**", 
		 "properties": { 
			 "R2extent": 3745.9974, 
			 "electric_dipole_moment_norm": 6.25523033069, 
			 "electric_quadrupole_moment_norm": 12.1276587798, 
			 "total_energy": -3106.11519252, 
			 "HOMO_LUMO_gap": 0.16835, 
			 "cosmo_polarized_energy": -13.67, 
			 "cosmo_cavitation_energy": 25.82, 
			 "cosmo_dispersion_energy": -19.49, 
			 "cosmo_repulsion_energy": 1.55, 
			 "cosmo_total_nonelectrostatic_energy": 7.88, 
			 "SMD_solvation_energy": 5.57 
		},
		"coords": [
			{
				"x": -1.0554667144,
				"y": -3.3010067378,
				"z": -1.6967537079,
				"element": "C" 
			},
			{
				"x": -1.8082794084,
				"y": -2.343355957,
				"z": -0.9628155316,
				"element": "O" 
			},
			{
				"x": -1.2865752424,
				"y": -1.0843640067,
				"z": -0.8173106703,
				"element": "C" 
			},
			{
				"x": -2.1115565266,
				"y": -0.2107611715,
				"z": -0.0740735929,
				"element": "C" 
			},
			{
				"x": -3.2929421973,
				"y": -0.6454409815,
				"z": 0.4175839567,
				"element": "O" 
			},
			{
				"x": -1.7065246292,
				"y": 1.101621428,
				"z": 0.1524737329,
				"element": "C" 
			},
			{
				"x": -0.489005914,
				"y": 1.5576279034,
				"z": -0.3515307488,
				"element": "C" 
			},
			{
				"x": -0.0430747607,
				"y": 3.3704554564,
				"z": 0.0223702862,
				"element": "Br" 
			},
			{
				"x": 0.3476196609,
				"y": 0.7061536618,
				"z": -1.093369066,
				"element": "C" 
			},
			{
				"x": 1.6584569864,
				"y": 1.0593119196,
				"z": -1.6825768359,
				"element": "C" 
			},
			{
				"x": 2.2290169742,
				"y": 2.1293407134,
				"z": -1.6276066079,
				"element": "O" 
			},
			{
				"x": -0.0810691939,
				"y": -0.6225137871,
				"z": -1.3127285776,
				"element": "C" 
			},
			{
				"x": -0.0834200032,
				"y": -3.4875200617,
				"z": -1.2243270088,
				"element": "H" 
			},
			{
				"x": -0.9005551832,
				"y": -2.9741921192,
				"z": -2.7321490862,
				"element": "H" 
			},
			{
				"x": -1.6434814122,
				"y": -4.2192977936,
				"z": -1.6906962587,
				"element": "H" 
			},
			{
				"x": -3.3914911072,
				"y": -1.5747763227,
				"z": 0.1551003237,
				"element": "H" 
			},
			{
				"x": -2.3516392804,
				"y": 1.757392591,
				"z": 0.7242239007,
				"element": "H" 
			},
			{
				"x": 2.1222414564,
				"y": 0.2020913747,
				"z": -2.2248123855,
				"element": "H" 
			},
			{
				"x": 0.5673464952,
				"y": -1.2775661095,
				"z": -1.8861021219,
				"element": "H" 
			}
		],
		 "valence_orbital": [ 
			{
				"type": "occ",
				"energy": -0.2971,
				"method": "rhf"
			},
			{
				"type": "occ",
				"energy": -0.28744,
				"method": "rhf"
			},
			{
				"type": "occ",
				"energy": -0.25391,
				"method": "rhf"
			},
			{
				"type": "occ",
				"energy": -0.24221,
				"method": "rhf"
			},
			{
				"type": "occ",
				"energy": -0.22731,
				"method": "rhf"
			},
			{
				"type": "unocc",
				"energy": -0.05896,
				"method": "rhf"
			},
			{
				"type": "unocc",
				"energy": -0.01632,
				"method": "rhf"
			},
			{
				"type": "unocc",
				"energy": 0.01054,
				"method": "rhf"
			},
			{
				"type": "unocc",
				"energy": 0.04563,
				"method": "rhf"
			},
			{
				"type": "unocc",
				"energy": 0.06128,
				"method": "rhf"
			}
		],
		"cosmo_sigma_profile": { 
			"-0.025": 0.0,
			"-0.024": 0.0,
			"-0.023": 0.0,
			"-0.022": 0.0,
			"-0.021": 0.0,
			"-0.02": 0.0,
			"-0.019": 0.0,
			"-0.018": 0.0,
			"-0.017": 0.0,
			"-0.016": 0.0582691591502,
			"-0.015": 0.519520012872,
			"-0.014": 0.660734652123,
			"-0.013": 0.965701523934,
			"-0.012": 0.644026966329,
			"-0.011": 0.316357302582,
			"-0.01": 0.460200305592,
			"-0.009": 1.98541134787,
			"-0.008": 4.51128132629,
			"-0.007": 7.53557318363,
			"-0.006": 14.4033168146,
			"-0.005": 13.3937093044,
			"-0.004": 14.9612843102,
			"-0.003": 13.1223798456,
			"-0.002": 10.9732633303,
			"-0.001": 11.7638562048,
			"0.0": 15.0757678249,
			"0.001": 22.427658801,
			"0.002": 19.0344197702,
			"0.003": 9.08849972786,
			"0.004": 12.0306607451,
			"0.005": 7.32469532173,
			"0.006": 3.61128237431,
			"0.007": 2.80528928926,
			"0.008": 4.46914823155,
			"0.009": 2.90123852609,
			"0.01": 5.07912985972,
			"0.011": 3.99151576299,
			"0.012": 4.63301335111,
			"0.013": 0.912249767908,
			"0.014": 0.0,
			"0.015": 0.0,
			"0.016": 0.0,
			"0.017": 0.0,
			"0.018": 0.0,
			"0.019": 0.0,
			"0.02": 0.0,
			"0.021": 0.0,
			"0.022": 0.0,
			"0.023": 0.0,
			"0.024": 0.0,
			"0.025": 0.0
		}
	}
}
