{
	 "smiles": "ON1C(=O)C2=C(C=CC=C2)C1=O", 
	 "Tm": 507.15, 
	 "num_atms": 17, 
	 "gaussian": { 
		 "optdone": 1, 
		 "sigma_profile": "yes", 
		 "theory": "DFT", 
		 "functional": "B3LYP", 
		 "basiset": "6-31G**", 
		 "properties": { 
			 "R2extent": 1910.6784, 
			 "electric_dipole_moment_norm": 4.10562285774, 
			 "electric_quadrupole_moment_norm": 9.82325241761, 
			 "total_energy": -588.243366812, 
			 "HOMO_LUMO_gap": 0.15786, 
			 "cosmo_polarized_energy": -12.05, 
			 "cosmo_cavitation_energy": 22.49, 
			 "cosmo_dispersion_energy": -16.71, 
			 "cosmo_repulsion_energy": 1.31, 
			 "cosmo_total_nonelectrostatic_energy": 7.09, 
			 "SMD_solvation_energy": 6.25 
		},
		"coords": [
			{
				"x": 2.8989338948,
				"y": -1.3273946781,
				"z": 1.2572101414,
				"element": "O" 
			},
			{
				"x": 1.7389914749,
				"y": -0.6953697808,
				"z": 0.8638905126,
				"element": "N" 
			},
			{
				"x": 1.7429571097,
				"y": 0.228317797,
				"z": -0.1756465489,
				"element": "C" 
			},
			{
				"x": 2.7540843689,
				"y": 0.5276946197,
				"z": -0.7892391251,
				"element": "O" 
			},
			{
				"x": 0.3266687868,
				"y": 0.6741212363,
				"z": -0.2885152724,
				"element": "C" 
			},
			{
				"x": -0.4186272535,
				"y": -0.0080893194,
				"z": 0.6832775472,
				"element": "C" 
			},
			{
				"x": -1.7800954078,
				"y": 0.1999379837,
				"z": 0.8235305677,
				"element": "C" 
			},
			{
				"x": -2.3884082583,
				"y": 1.1206535519,
				"z": -0.0444659334,
				"element": "C" 
			},
			{
				"x": -1.6442727981,
				"y": 1.8006796953,
				"z": -1.0134539086,
				"element": "C" 
			},
			{
				"x": -0.2642057879,
				"y": 1.5845286501,
				"z": -1.1496388624,
				"element": "C" 
			},
			{
				"x": 0.489111745,
				"y": -0.9186686897,
				"z": 1.4584693325,
				"element": "C" 
			},
			{
				"x": 0.2422365147,
				"y": -1.6713300784,
				"z": 2.3726784077,
				"element": "O" 
			},
			{
				"x": 3.5528623907,
				"y": -0.9384197355,
				"z": 0.6412504443,
				"element": "H" 
			},
			{
				"x": -2.3485223186,
				"y": -0.3329008447,
				"z": 1.5787888996,
				"element": "H" 
			},
			{
				"x": -3.4546704945,
				"y": 1.3086164015,
				"z": 0.037249832,
				"element": "H" 
			},
			{
				"x": -2.1426773686,
				"y": 2.5069099899,
				"z": -1.6703925225,
				"element": "H" 
			},
			{
				"x": 0.3221334017,
				"y": 2.1071132011,
				"z": -1.8982935116,
				"element": "H" 
			}
		],
		 "valence_orbital": [ 
			{
				"type": "occ",
				"energy": -0.30718,
				"method": "rhf"
			},
			{
				"type": "occ",
				"energy": -0.29061,
				"method": "rhf"
			},
			{
				"type": "occ",
				"energy": -0.28529,
				"method": "rhf"
			},
			{
				"type": "occ",
				"energy": -0.2798,
				"method": "rhf"
			},
			{
				"type": "occ",
				"energy": -0.25036,
				"method": "rhf"
			},
			{
				"type": "unocc",
				"energy": -0.0925,
				"method": "rhf"
			},
			{
				"type": "unocc",
				"energy": -0.04495,
				"method": "rhf"
			},
			{
				"type": "unocc",
				"energy": 0.0196,
				"method": "rhf"
			},
			{
				"type": "unocc",
				"energy": 0.06106,
				"method": "rhf"
			},
			{
				"type": "unocc",
				"energy": 0.07421,
				"method": "rhf"
			}
		],
		"cosmo_sigma_profile": { 
			"-0.025": 0.0,
			"-0.024": 0.0,
			"-0.023": 0.0,
			"-0.022": 0.0,
			"-0.021": 0.0,
			"-0.02": 0.0,
			"-0.019": 0.0,
			"-0.018": 0.0,
			"-0.017": 0.205171643331,
			"-0.016": 0.568339231594,
			"-0.015": 0.514455652679,
			"-0.014": 0.91190488946,
			"-0.013": 0.787527777382,
			"-0.012": 0.254221047093,
			"-0.011": 0.475181967921,
			"-0.01": 0.476868021308,
			"-0.009": 0.636641925175,
			"-0.008": 5.0980177277,
			"-0.007": 11.4558478801,
			"-0.006": 13.0185543032,
			"-0.005": 11.837733429,
			"-0.004": 11.0091183849,
			"-0.003": 10.0149087374,
			"-0.002": 12.2735039215,
			"-0.001": 12.8425969865,
			"0.0": 11.8386350538,
			"0.001": 14.441597779,
			"0.002": 13.0153751746,
			"0.003": 3.75892499825,
			"0.004": 4.18423493488,
			"0.005": 3.70913331239,
			"0.006": 4.09628039304,
			"0.007": 3.78228136895,
			"0.008": 6.27478984702,
			"0.009": 7.64556371894,
			"0.01": 8.84471250303,
			"0.011": 6.69935095834,
			"0.012": 0.868623410463,
			"0.013": 0.0,
			"0.014": 0.0,
			"0.015": 0.0,
			"0.016": 0.0,
			"0.017": 0.0,
			"0.018": 0.0,
			"0.019": 0.0,
			"0.02": 0.0,
			"0.021": 0.0,
			"0.022": 0.0,
			"0.023": 0.0,
			"0.024": 0.0,
			"0.025": 0.0
		}
	}
}
