{
	 "smiles": "CCOC(=O)C1=CC=C(C=C1)N(C)C", 
	 "Tm": 336.95, 
	 "num_atms": 29, 
	 "gaussian": { 
		 "optdone": 1, 
		 "sigma_profile": "yes", 
		 "theory": "DFT", 
		 "functional": "B3LYP", 
		 "basiset": "6-31G**", 
		 "properties": { 
			 "R2extent": 4637.3194, 
			 "electric_dipole_moment_norm": 4.19232199384, 
			 "electric_quadrupole_moment_norm": 17.7894943174, 
			 "total_energy": -633.427255327, 
			 "HOMO_LUMO_gap": 0.17431, 
			 "cosmo_polarized_energy": -10.78, 
			 "cosmo_cavitation_energy": 32.01, 
			 "cosmo_dispersion_energy": -23.34, 
			 "cosmo_repulsion_energy": 1.84, 
			 "cosmo_total_nonelectrostatic_energy": 10.51, 
			 "SMD_solvation_energy": 6.4 
		},
		"coords": [
			{
				"x": 0.7712830104,
				"y": -0.209692302,
				"z": -5.8469607002,
				"element": "C" 
			},
			{
				"x": -0.3983807658,
				"y": -0.6567663079,
				"z": -4.9896822392,
				"element": "C" 
			},
			{
				"x": -0.0123326536,
				"y": -0.4940480842,
				"z": -3.6106218468,
				"element": "O" 
			},
			{
				"x": -0.9478231418,
				"y": -0.8512492954,
				"z": -2.6924858894,
				"element": "C" 
			},
			{
				"x": -2.0442307396,
				"y": -1.281926148,
				"z": -3.0059871914,
				"element": "O" 
			},
			{
				"x": -0.4823579635,
				"y": -0.6579300241,
				"z": -1.3022365279,
				"element": "C" 
			},
			{
				"x": -1.352123851,
				"y": -0.9881077405,
				"z": -0.2525477846,
				"element": "C" 
			},
			{
				"x": -0.9766326296,
				"y": -0.8294089666,
				"z": 1.0716438889,
				"element": "C" 
			},
			{
				"x": 0.3072039053,
				"y": -0.3298555458,
				"z": 1.407762967,
				"element": "C" 
			},
			{
				"x": 1.1780690869,
				"y": 0.0083728754,
				"z": 0.3415874604,
				"element": "C" 
			},
			{
				"x": 0.7871992961,
				"y": -0.1563981751,
				"z": -0.9791038121,
				"element": "C" 
			},
			{
				"x": 0.6956423954,
				"y": -0.1815619948,
				"z": 2.724271645,
				"element": "N" 
			},
			{
				"x": 1.9804093621,
				"y": 0.4191079699,
				"z": 3.0405979735,
				"element": "C" 
			},
			{
				"x": -0.2493670166,
				"y": -0.4473771281,
				"z": 3.7959572329,
				"element": "C" 
			},
			{
				"x": 0.5196428011,
				"y": -0.3172120241,
				"z": -6.9068217133,
				"element": "H" 
			},
			{
				"x": 1.6600189258,
				"y": -0.8137355167,
				"z": -5.6416683457,
				"element": "H" 
			},
			{
				"x": 1.0172501461,
				"y": 0.8392076367,
				"z": -5.6567493223,
				"element": "H" 
			},
			{
				"x": -1.297878394,
				"y": -0.0624856041,
				"z": -5.1813701824,
				"element": "H" 
			},
			{
				"x": -0.6588677754,
				"y": -1.7055285004,
				"z": -5.1663590055,
				"element": "H" 
			},
			{
				"x": -2.3362781228,
				"y": -1.372297556,
				"z": -0.5004062996,
				"element": "H" 
			},
			{
				"x": -1.6819533987,
				"y": -1.0931333932,
				"z": 1.8497887811,
				"element": "H" 
			},
			{
				"x": 2.1654391245,
				"y": 0.4028271264,
				"z": 0.5468285345,
				"element": "H" 
			},
			{
				"x": 1.4728175029,
				"y": 0.108858416,
				"z": -1.7762237646,
				"element": "H" 
			},
			{
				"x": 2.0617824735,
				"y": 1.4522442395,
				"z": 2.6726600536,
				"element": "H" 
			},
			{
				"x": 2.8097851602,
				"y": -0.1576600648,
				"z": 2.6122641552,
				"element": "H" 
			},
			{
				"x": 2.1122927772,
				"y": 0.434733039,
				"z": 4.1230767236,
				"element": "H" 
			},
			{
				"x": -0.6059122788,
				"y": -1.4846494949,
				"z": 3.7688228943,
				"element": "H" 
			},
			{
				"x": 0.2442082568,
				"y": -0.2918533686,
				"z": 4.755956882,
				"element": "H" 
			},
			{
				"x": -1.1275054928,
				"y": 0.2131259323,
				"z": 3.7534054328,
				"element": "H" 
			}
		],
		 "valence_orbital": [ 
			{
				"type": "occ",
				"energy": -0.28525,
				"method": "rhf"
			},
			{
				"type": "occ",
				"energy": -0.28251,
				"method": "rhf"
			},
			{
				"type": "occ",
				"energy": -0.25443,
				"method": "rhf"
			},
			{
				"type": "occ",
				"energy": -0.24716,
				"method": "rhf"
			},
			{
				"type": "occ",
				"energy": -0.19528,
				"method": "rhf"
			},
			{
				"type": "unocc",
				"energy": -0.02097,
				"method": "rhf"
			},
			{
				"type": "unocc",
				"energy": 0.00492,
				"method": "rhf"
			},
			{
				"type": "unocc",
				"energy": 0.0794,
				"method": "rhf"
			},
			{
				"type": "unocc",
				"energy": 0.08175,
				"method": "rhf"
			},
			{
				"type": "unocc",
				"energy": 0.1013,
				"method": "rhf"
			}
		],
		"cosmo_sigma_profile": { 
			"-0.025": 0.0,
			"-0.024": 0.0,
			"-0.023": 0.0,
			"-0.022": 0.0,
			"-0.021": 0.0,
			"-0.02": 0.0,
			"-0.019": 0.0,
			"-0.018": 0.0,
			"-0.017": 0.0,
			"-0.016": 0.0,
			"-0.015": 0.0,
			"-0.014": 0.0,
			"-0.013": 0.0,
			"-0.012": 0.0,
			"-0.011": 0.0,
			"-0.01": 0.0,
			"-0.009": 0.0,
			"-0.008": 0.225722761714,
			"-0.007": 2.19671505206,
			"-0.006": 4.8135795743,
			"-0.005": 16.7859388459,
			"-0.004": 30.8383919954,
			"-0.003": 32.0762237336,
			"-0.002": 30.0912007593,
			"-0.001": 23.6062280139,
			"0.0": 18.2428429443,
			"0.001": 13.6903207602,
			"0.002": 12.3001192606,
			"0.003": 14.4218055425,
			"0.004": 13.5515503418,
			"0.005": 15.1513418016,
			"0.006": 8.24811750667,
			"0.007": 2.00922746862,
			"0.008": 1.66825887645,
			"0.009": 1.2411078367,
			"0.01": 2.02343802787,
			"0.011": 1.78800459635,
			"0.012": 3.09732553518,
			"0.013": 4.33691320322,
			"0.014": 0.0825440869254,
			"0.015": 0.0,
			"0.016": 0.0,
			"0.017": 0.0,
			"0.018": 0.0,
			"0.019": 0.0,
			"0.02": 0.0,
			"0.021": 0.0,
			"0.022": 0.0,
			"0.023": 0.0,
			"0.024": 0.0,
			"0.025": 0.0
		}
	}
}
