{
	 "smiles": "CC1=C(C=C(N)C(Br)=C1)[N+]([O-])=O", 
	 "Tm": 389.15, 
	 "num_atms": 19, 
	 "gaussian": { 
		 "optdone": 1, 
		 "sigma_profile": "yes", 
		 "theory": "DFT", 
		 "functional": "B3LYP", 
		 "basiset": "6-31G**", 
		 "properties": { 
			 "R2extent": 3501.0855, 
			 "electric_dipole_moment_norm": 3.77922911848, 
			 "electric_quadrupole_moment_norm": 16.6438276259, 
			 "total_energy": -3102.22648042, 
			 "HOMO_LUMO_gap": 0.13901, 
			 "cosmo_polarized_energy": -10.52, 
			 "cosmo_cavitation_energy": 25.53, 
			 "cosmo_dispersion_energy": -19.47, 
			 "cosmo_repulsion_energy": 1.54, 
			 "cosmo_total_nonelectrostatic_energy": 7.6, 
			 "SMD_solvation_energy": 5.32 
		},
		"coords": [
			{
				"x": 2.6555738313,
				"y": -1.0876096804,
				"z": -1.3226344565,
				"element": "C" 
			},
			{
				"x": 1.2598733003,
				"y": -0.7072151336,
				"z": -0.8917370788,
				"element": "C" 
			},
			{
				"x": 0.4030217968,
				"y": -1.4639812656,
				"z": -0.0670073536,
				"element": "C" 
			},
			{
				"x": -0.8749666334,
				"y": -1.0387732157,
				"z": 0.288680978,
				"element": "C" 
			},
			{
				"x": -1.3923169771,
				"y": 0.1819264907,
				"z": -0.1633084646,
				"element": "C" 
			},
			{
				"x": -2.6803638267,
				"y": 0.5700718058,
				"z": 0.1457210615,
				"element": "N" 
			},
			{
				"x": -0.5408930043,
				"y": 0.9494764382,
				"z": -0.982398234,
				"element": "C" 
			},
			{
				"x": -1.1445036504,
				"y": 2.6418700073,
				"z": -1.6337984426,
				"element": "Br" 
			},
			{
				"x": 0.7324357711,
				"y": 0.5151453728,
				"z": -1.3289576902,
				"element": "C" 
			},
			{
				"x": 0.8108383007,
				"y": -2.7708073638,
				"z": 0.4827786106,
				"element": "N" 
			},
			{
				"x": 0.0396369298,
				"y": -3.3333170772,
				"z": 1.2617994914,
				"element": "O" 
			},
			{
				"x": 1.8971202474,
				"y": -3.2369634047,
				"z": 0.1377468663,
				"element": "O" 
			},
			{
				"x": 3.083436891,
				"y": -0.2815068317,
				"z": -1.9247508871,
				"element": "H" 
			},
			{
				"x": 3.3094310325,
				"y": -1.2721014331,
				"z": -0.4666162045,
				"element": "H" 
			},
			{
				"x": 2.6596437613,
				"y": -2.0074873745,
				"z": -1.9127524998,
				"element": "H" 
			},
			{
				"x": -1.4695158675,
				"y": -1.6821210905,
				"z": 0.9253842073,
				"element": "H" 
			},
			{
				"x": -2.8916034315,
				"y": 1.5515255326,
				"z": 0.0356046043,
				"element": "H" 
			},
			{
				"x": -3.0947845929,
				"y": 0.1413971718,
				"z": 0.959592857,
				"element": "H" 
			},
			{
				"x": 1.3426361216,
				"y": 1.1511710515,
				"z": -1.9604473645,
				"element": "H" 
			}
		],
		 "valence_orbital": [ 
			{
				"type": "occ",
				"energy": -0.30641,
				"method": "rhf"
			},
			{
				"type": "occ",
				"energy": -0.30274,
				"method": "rhf"
			},
			{
				"type": "occ",
				"energy": -0.28594,
				"method": "rhf"
			},
			{
				"type": "occ",
				"energy": -0.26706,
				"method": "rhf"
			},
			{
				"type": "occ",
				"energy": -0.22591,
				"method": "rhf"
			},
			{
				"type": "unocc",
				"energy": -0.0869,
				"method": "rhf"
			},
			{
				"type": "unocc",
				"energy": -0.01676,
				"method": "rhf"
			},
			{
				"type": "unocc",
				"energy": -0.00804,
				"method": "rhf"
			},
			{
				"type": "unocc",
				"energy": 0.00225,
				"method": "rhf"
			},
			{
				"type": "unocc",
				"energy": 0.0712,
				"method": "rhf"
			}
		],
		"cosmo_sigma_profile": { 
			"-0.025": 0.0,
			"-0.024": 0.0,
			"-0.023": 0.0,
			"-0.022": 0.0,
			"-0.021": 0.0,
			"-0.02": 0.0,
			"-0.019": 0.0,
			"-0.018": 0.0,
			"-0.017": 0.0,
			"-0.016": 0.0,
			"-0.015": 0.0,
			"-0.014": 0.804667091334,
			"-0.013": 1.77724108925,
			"-0.012": 1.82209503757,
			"-0.011": 2.7804121185,
			"-0.01": 3.55454181131,
			"-0.009": 1.8179375569,
			"-0.008": 2.51168690383,
			"-0.007": 4.4651776205,
			"-0.006": 5.78648761434,
			"-0.005": 8.00560577038,
			"-0.004": 12.4164354227,
			"-0.003": 12.1664319986,
			"-0.002": 14.7620851012,
			"-0.001": 17.2559233613,
			"0.0": 20.382937186,
			"0.001": 22.943197082,
			"0.002": 18.4856710616,
			"0.003": 11.4598764071,
			"0.004": 10.0119723548,
			"0.005": 4.54129838393,
			"0.006": 4.14042264901,
			"0.007": 6.13005280979,
			"0.008": 7.87683455472,
			"0.009": 4.901933799,
			"0.01": 4.28620520722,
			"0.011": 1.38388158375,
			"0.012": 0.352872435453,
			"0.013": 0.0,
			"0.014": 0.0,
			"0.015": 0.0,
			"0.016": 0.0,
			"0.017": 0.0,
			"0.018": 0.0,
			"0.019": 0.0,
			"0.02": 0.0,
			"0.021": 0.0,
			"0.022": 0.0,
			"0.023": 0.0,
			"0.024": 0.0,
			"0.025": 0.0
		}
	}
}
