{
	 "smiles": "CC1=CC=C(N)C=C1F", 
	 "Tm": 305.15, 
	 "num_atms": 17, 
	 "gaussian": { 
		 "optdone": 1, 
		 "sigma_profile": "yes", 
		 "theory": "DFT", 
		 "functional": "B3LYP", 
		 "basiset": "6-31G**", 
		 "properties": { 
			 "R2extent": 1363.6914, 
			 "electric_dipole_moment_norm": 2.29135410838, 
			 "electric_quadrupole_moment_norm": 8.89509456555, 
			 "total_energy": -426.162733711, 
			 "HOMO_LUMO_gap": 0.2064, 
			 "cosmo_polarized_energy": -7.74, 
			 "cosmo_cavitation_energy": 20.9, 
			 "cosmo_dispersion_energy": -15.47, 
			 "cosmo_repulsion_energy": 1.25, 
			 "cosmo_total_nonelectrostatic_energy": 6.68, 
			 "SMD_solvation_energy": 4.09 
		},
		"coords": [
			{
				"x": -3.0834313907,
				"y": -0.3030737123,
				"z": 0.7679720335,
				"element": "C" 
			},
			{
				"x": -1.6895113278,
				"y": 0.2602949305,
				"z": 0.6621032752,
				"element": "C" 
			},
			{
				"x": -1.3083845365,
				"y": 1.4862636025,
				"z": 1.2190859276,
				"element": "C" 
			},
			{
				"x": -0.0112074919,
				"y": 1.9836967378,
				"z": 1.1086293851,
				"element": "C" 
			},
			{
				"x": 0.9736247273,
				"y": 1.2564414139,
				"z": 0.4195179957,
				"element": "C" 
			},
			{
				"x": 2.261503705,
				"y": 1.7696585543,
				"z": 0.2501087706,
				"element": "N" 
			},
			{
				"x": 0.6171889768,
				"y": 0.022225596,
				"z": -0.149142471,
				"element": "C" 
			},
			{
				"x": -0.6846301591,
				"y": -0.4339154548,
				"z": -0.0142389369,
				"element": "C" 
			},
			{
				"x": -0.9996098508,
				"y": -1.6293173682,
				"z": -0.5705090692,
				"element": "F" 
			},
			{
				"x": -3.5322266763,
				"y": -0.4581449522,
				"z": -0.2196746285,
				"element": "H" 
			},
			{
				"x": -3.7321419929,
				"y": 0.3735479916,
				"z": 1.3306718251,
				"element": "H" 
			},
			{
				"x": -3.0891576402,
				"y": -1.2754827716,
				"z": 1.2733064501,
				"element": "H" 
			},
			{
				"x": -2.0520066245,
				"y": 2.0675599117,
				"z": 1.758709475,
				"element": "H" 
			},
			{
				"x": 0.2419093621,
				"y": 2.9427653213,
				"z": 1.5526781441,
				"element": "H" 
			},
			{
				"x": 2.5447459861,
				"y": 2.4458073409,
				"z": 0.9459316261,
				"element": "H" 
			},
			{
				"x": 2.9805305489,
				"y": 1.0786878917,
				"z": 0.0853603831,
				"element": "H" 
			},
			{
				"x": 1.3359043845,
				"y": -0.5793150331,
				"z": -0.6967101858,
				"element": "H" 
			}
		],
		 "valence_orbital": [ 
			{
				"type": "occ",
				"energy": -0.35603,
				"method": "rhf"
			},
			{
				"type": "occ",
				"energy": -0.33876,
				"method": "rhf"
			},
			{
				"type": "occ",
				"energy": -0.29552,
				"method": "rhf"
			},
			{
				"type": "occ",
				"energy": -0.23831,
				"method": "rhf"
			},
			{
				"type": "occ",
				"energy": -0.19908,
				"method": "rhf"
			},
			{
				"type": "unocc",
				"energy": 0.00732,
				"method": "rhf"
			},
			{
				"type": "unocc",
				"energy": 0.02055,
				"method": "rhf"
			},
			{
				"type": "unocc",
				"energy": 0.08061,
				"method": "rhf"
			},
			{
				"type": "unocc",
				"energy": 0.10573,
				"method": "rhf"
			},
			{
				"type": "unocc",
				"energy": 0.11322,
				"method": "rhf"
			}
		],
		"cosmo_sigma_profile": { 
			"-0.025": 0.0,
			"-0.024": 0.0,
			"-0.023": 0.0,
			"-0.022": 0.0,
			"-0.021": 0.0,
			"-0.02": 0.0,
			"-0.019": 0.0,
			"-0.018": 0.0,
			"-0.017": 0.0,
			"-0.016": 0.0,
			"-0.015": 0.0,
			"-0.014": 0.0,
			"-0.013": 0.426053484805,
			"-0.012": 2.41244378786,
			"-0.011": 3.20417491099,
			"-0.01": 2.64154409409,
			"-0.009": 2.83493338512,
			"-0.008": 2.81426633661,
			"-0.007": 3.69712215284,
			"-0.006": 4.83620448233,
			"-0.005": 7.04768139127,
			"-0.004": 10.5263077523,
			"-0.003": 11.3679763282,
			"-0.002": 9.18656716163,
			"-0.001": 9.68910560683,
			"0.0": 14.2381330409,
			"0.001": 10.8703290745,
			"0.002": 11.4772287794,
			"0.003": 10.5245236686,
			"0.004": 13.3736276082,
			"0.005": 17.8506188123,
			"0.006": 8.89072988524,
			"0.007": 1.78418098189,
			"0.008": 1.1714759741,
			"0.009": 1.06565915234,
			"0.01": 0.488697718163,
			"0.011": 0.900178401721,
			"0.012": 0.735758763263,
			"0.013": 0.26989725375,
			"0.014": 0.990464815143,
			"0.015": 0.132800950611,
			"0.016": 0.0,
			"0.017": 0.0,
			"0.018": 0.0,
			"0.019": 0.0,
			"0.02": 0.0,
			"0.021": 0.0,
			"0.022": 0.0,
			"0.023": 0.0,
			"0.024": 0.0,
			"0.025": 0.0
		}
	}
}
