{
	 "smiles": "COCCOC1=CC=C(C=C1)C#N", 
	 "Tm": 318.15, 
	 "num_atms": 24, 
	 "gaussian": { 
		 "optdone": 1, 
		 "sigma_profile": "yes", 
		 "theory": "DFT", 
		 "functional": "B3LYP", 
		 "basiset": "6-31G**", 
		 "properties": { 
			 "R2extent": 3628.6981, 
			 "electric_dipole_moment_norm": 4.50806801302, 
			 "electric_quadrupole_moment_norm": 26.5286819301, 
			 "total_energy": -592.847412643, 
			 "HOMO_LUMO_gap": 0.19566, 
			 "cosmo_polarized_energy": -13.07, 
			 "cosmo_cavitation_energy": 28.89, 
			 "cosmo_dispersion_energy": -20.09, 
			 "cosmo_repulsion_energy": 1.61, 
			 "cosmo_total_nonelectrostatic_energy": 10.4, 
			 "SMD_solvation_energy": 7.17 
		},
		"coords": [
			{
				"x": 0.53584129,
				"y": 1.7071479302,
				"z": -2.3570678325,
				"element": "C" 
			},
			{
				"x": 1.4843687155,
				"y": 2.5176586546,
				"z": -1.6800260368,
				"element": "O" 
			},
			{
				"x": 1.5915427984,
				"y": 2.279015525,
				"z": -0.2937089434,
				"element": "C" 
			},
			{
				"x": 2.4419280539,
				"y": 1.0570413723,
				"z": 0.0618452183,
				"element": "C" 
			},
			{
				"x": 1.7910443745,
				"y": -0.1962258367,
				"z": -0.1852427346,
				"element": "O" 
			},
			{
				"x": 0.9296798434,
				"y": -0.7165762192,
				"z": 0.7279663048,
				"element": "C" 
			},
			{
				"x": 0.5847110138,
				"y": -0.1183969696,
				"z": 1.9498450937,
				"element": "C" 
			},
			{
				"x": -0.3011480678,
				"y": -0.763186335,
				"z": 2.8095696191,
				"element": "C" 
			},
			{
				"x": -0.858997178,
				"y": -2.0038468946,
				"z": 2.4683133787,
				"element": "C" 
			},
			{
				"x": -0.5111239452,
				"y": -2.5961653339,
				"z": 1.2381764789,
				"element": "C" 
			},
			{
				"x": 0.3708025272,
				"y": -1.9597652731,
				"z": 0.3813870507,
				"element": "C" 
			},
			{
				"x": -1.7713231081,
				"y": -2.6575229981,
				"z": 3.3568036095,
				"element": "C" 
			},
			{
				"x": -2.5133609477,
				"y": -3.1894063767,
				"z": 4.0787743125,
				"element": "N" 
			},
			{
				"x": -0.4531449549,
				"y": 1.7617296773,
				"z": -1.8765144561,
				"element": "H" 
			},
			{
				"x": 0.4550459996,
				"y": 2.1023022816,
				"z": -3.3726058767,
				"element": "H" 
			},
			{
				"x": 0.8422701631,
				"y": 0.6552245418,
				"z": -2.4028717832,
				"element": "H" 
			},
			{
				"x": 0.5963025172,
				"y": 2.2012803513,
				"z": 0.1722969588,
				"element": "H" 
			},
			{
				"x": 2.089925675,
				"y": 3.1610666366,
				"z": 0.1268448938,
				"element": "H" 
			},
			{
				"x": 3.3239866838,
				"y": 1.0439705465,
				"z": -0.5833371349,
				"element": "H" 
			},
			{
				"x": 2.7814635185,
				"y": 1.1108496207,
				"z": 1.1039578245,
				"element": "H" 
			},
			{
				"x": 0.9907557422,
				"y": 0.8423656138,
				"z": 2.2403768615,
				"element": "H" 
			},
			{
				"x": -0.5667719794,
				"y": -0.2993176258,
				"z": 3.7537383547,
				"element": "H" 
			},
			{
				"x": -0.9372230426,
				"y": -3.5561111825,
				"z": 0.9663519807,
				"element": "H" 
			},
			{
				"x": 0.6527243075,
				"y": -2.4055317066,
				"z": -0.5663731421,
				"element": "H" 
			}
		],
		 "valence_orbital": [ 
			{
				"type": "occ",
				"energy": -0.32505,
				"method": "rhf"
			},
			{
				"type": "occ",
				"energy": -0.31904,
				"method": "rhf"
			},
			{
				"type": "occ",
				"energy": -0.27833,
				"method": "rhf"
			},
			{
				"type": "occ",
				"energy": -0.26813,
				"method": "rhf"
			},
			{
				"type": "occ",
				"energy": -0.23671,
				"method": "rhf"
			},
			{
				"type": "unocc",
				"energy": -0.04105,
				"method": "rhf"
			},
			{
				"type": "unocc",
				"energy": -0.02704,
				"method": "rhf"
			},
			{
				"type": "unocc",
				"energy": 0.04056,
				"method": "rhf"
			},
			{
				"type": "unocc",
				"energy": 0.07023,
				"method": "rhf"
			},
			{
				"type": "unocc",
				"energy": 0.08098,
				"method": "rhf"
			}
		],
		"cosmo_sigma_profile": { 
			"-0.025": 0.0,
			"-0.024": 0.0,
			"-0.023": 0.0,
			"-0.022": 0.0,
			"-0.021": 0.0,
			"-0.02": 0.0,
			"-0.019": 0.0,
			"-0.018": 0.0,
			"-0.017": 0.0,
			"-0.016": 0.0,
			"-0.015": 0.0,
			"-0.014": 0.0,
			"-0.013": 0.0,
			"-0.012": 0.0,
			"-0.011": 0.0,
			"-0.01": 0.05760957892,
			"-0.009": 1.34122322201,
			"-0.008": 5.33164628664,
			"-0.007": 9.20041150384,
			"-0.006": 16.4724252611,
			"-0.005": 16.692017805,
			"-0.004": 18.9666027889,
			"-0.003": 17.6143239325,
			"-0.002": 18.5466496955,
			"-0.001": 16.6200259248,
			"0.0": 15.9509215511,
			"0.001": 15.7726909479,
			"0.002": 18.7188617481,
			"0.003": 12.7564821032,
			"0.004": 5.50096777597,
			"0.005": 4.36922808759,
			"0.006": 4.16050383627,
			"0.007": 4.66495937438,
			"0.008": 5.24320092575,
			"0.009": 5.38740113024,
			"0.01": 4.28075049343,
			"0.011": 4.56384651927,
			"0.012": 3.67486960438,
			"0.013": 4.01520090013,
			"0.014": 0.681887539023,
			"0.015": 0.0,
			"0.016": 0.0,
			"0.017": 0.0,
			"0.018": 0.0,
			"0.019": 0.0,
			"0.02": 0.0,
			"0.021": 0.0,
			"0.022": 0.0,
			"0.023": 0.0,
			"0.024": 0.0,
			"0.025": 0.0
		}
	}
}
