{
	 "smiles": "CCN(CC)C1=CC=C(NC(=O)CCl)C=C1", 
	 "Tm": 415.15, 
	 "num_atms": 33, 
	 "gaussian": { 
		 "optdone": 1, 
		 "sigma_profile": "yes", 
		 "theory": "DFT", 
		 "functional": "B3LYP", 
		 "basiset": "6-31G**", 
		 "properties": { 
			 "R2extent": 7833.8918, 
			 "electric_dipole_moment_norm": 8.33900527221, 
			 "electric_quadrupole_moment_norm": 43.6538246551, 
			 "total_energy": -1112.45377072, 
			 "HOMO_LUMO_gap": 0.18814, 
			 "cosmo_polarized_energy": -15.61, 
			 "cosmo_cavitation_energy": 36.99, 
			 "cosmo_dispersion_energy": -26.06, 
			 "cosmo_repulsion_energy": 2.08, 
			 "cosmo_total_nonelectrostatic_energy": 13.01, 
			 "SMD_solvation_energy": 6.5 
		},
		"coords": [
			{
				"x": 0.2342492487,
				"y": -3.0937677904,
				"z": -1.2666415248,
				"element": "C" 
			},
			{
				"x": 0.1442724417,
				"y": -1.6828265611,
				"z": -1.8666249768,
				"element": "C" 
			},
			{
				"x": 0.8421110315,
				"y": -0.6426980996,
				"z": -1.1131671372,
				"element": "N" 
			},
			{
				"x": 2.1976631076,
				"y": -0.2880856874,
				"z": -1.5294555457,
				"element": "C" 
			},
			{
				"x": 3.3223691455,
				"y": -0.9946464225,
				"z": -0.7582897225,
				"element": "C" 
			},
			{
				"x": 0.2728881325,
				"y": -0.0783311593,
				"z": 0.0183371112,
				"element": "C" 
			},
			{
				"x": 0.9523755948,
				"y": 0.9043857633,
				"z": 0.7816617768,
				"element": "C" 
			},
			{
				"x": 0.35845795,
				"y": 1.4967341387,
				"z": 1.8901123438,
				"element": "C" 
			},
			{
				"x": -0.927689014,
				"y": 1.1360939616,
				"z": 2.3054822313,
				"element": "C" 
			},
			{
				"x": -1.536160096,
				"y": 1.7573505577,
				"z": 3.4427875543,
				"element": "N" 
			},
			{
				"x": -1.4852096399,
				"y": 1.3433041586,
				"z": 4.7538929955,
				"element": "C" 
			},
			{
				"x": -2.043658208,
				"y": 1.9516569581,
				"z": 5.6474557946,
				"element": "O" 
			},
			{
				"x": -0.6672882724,
				"y": 0.0595227986,
				"z": 4.9663806737,
				"element": "C" 
			},
			{
				"x": -0.6125864507,
				"y": -0.4379204213,
				"z": 6.685483109,
				"element": "Cl" 
			},
			{
				"x": -1.6071446682,
				"y": 0.1613040356,
				"z": 1.5674012577,
				"element": "C" 
			},
			{
				"x": -1.0256502068,
				"y": -0.44033093,
				"z": 0.4573277266,
				"element": "C" 
			},
			{
				"x": -0.3453485731,
				"y": -3.7999426882,
				"z": -1.8712525993,
				"element": "H" 
			},
			{
				"x": 1.2698854118,
				"y": -3.4447313772,
				"z": -1.2369739182,
				"element": "H" 
			},
			{
				"x": -0.157350566,
				"y": -3.1189853608,
				"z": -0.2458885938,
				"element": "H" 
			},
			{
				"x": -0.9063447502,
				"y": -1.3939726388,
				"z": -1.9872131118,
				"element": "H" 
			},
			{
				"x": 0.5675107638,
				"y": -1.6904362248,
				"z": -2.8759747436,
				"element": "H" 
			},
			{
				"x": 2.3213776763,
				"y": 0.7988908313,
				"z": -1.4587424623,
				"element": "H" 
			},
			{
				"x": 2.2822483309,
				"y": -0.5275847282,
				"z": -2.5940903893,
				"element": "H" 
			},
			{
				"x": 3.2803711341,
				"y": -2.078031274,
				"z": -0.9035592392,
				"element": "H" 
			},
			{
				"x": 3.2549628815,
				"y": -0.7977343394,
				"z": 0.3153047812,
				"element": "H" 
			},
			{
				"x": 4.2994725708,
				"y": -0.6437864216,
				"z": -1.1080629042,
				"element": "H" 
			},
			{
				"x": 1.9537010558,
				"y": 1.2145240319,
				"z": 0.5125673727,
				"element": "H" 
			},
			{
				"x": 0.9022380928,
				"y": 2.2540187013,
				"z": 2.4481405994,
				"element": "H" 
			},
			{
				"x": -2.0775492869,
				"y": 2.6043644155,
				"z": 3.3150390521,
				"element": "H" 
			},
			{
				"x": 0.3594617161,
				"y": 0.2024178556,
				"z": 4.6250869499,
				"element": "H" 
			},
			{
				"x": -1.0971943278,
				"y": -0.7633016153,
				"z": 4.392477716,
				"element": "H" 
			},
			{
				"x": -2.6087770085,
				"y": -0.1304440932,
				"z": 1.8710589263,
				"element": "H" 
			},
			{
				"x": -1.5932652176,
				"y": -1.1966103749,
				"z": -0.0690611033,
				"element": "H" 
			}
		],
		 "valence_orbital": [ 
			{
				"type": "occ",
				"energy": -0.28643,
				"method": "rhf"
			},
			{
				"type": "occ",
				"energy": -0.26123,
				"method": "rhf"
			},
			{
				"type": "occ",
				"energy": -0.25563,
				"method": "rhf"
			},
			{
				"type": "occ",
				"energy": -0.25149,
				"method": "rhf"
			},
			{
				"type": "occ",
				"energy": -0.20191,
				"method": "rhf"
			},
			{
				"type": "unocc",
				"energy": -0.01377,
				"method": "rhf"
			},
			{
				"type": "unocc",
				"energy": -0.00266,
				"method": "rhf"
			},
			{
				"type": "unocc",
				"energy": 0.02886,
				"method": "rhf"
			},
			{
				"type": "unocc",
				"energy": 0.03918,
				"method": "rhf"
			},
			{
				"type": "unocc",
				"energy": 0.06529,
				"method": "rhf"
			}
		],
		"cosmo_sigma_profile": { 
			"-0.025": 0.0,
			"-0.024": 0.0,
			"-0.023": 0.0,
			"-0.022": 0.0,
			"-0.021": 0.0,
			"-0.02": 0.0,
			"-0.019": 0.0,
			"-0.018": 0.0,
			"-0.017": 0.0,
			"-0.016": 0.0,
			"-0.015": 0.0,
			"-0.014": 0.73150012708,
			"-0.013": 1.03912056195,
			"-0.012": 0.647104143166,
			"-0.011": 0.798224926863,
			"-0.01": 0.881889174373,
			"-0.009": 1.09129038231,
			"-0.008": 3.07235972345,
			"-0.007": 4.28037263075,
			"-0.006": 10.9814645794,
			"-0.005": 19.4812344201,
			"-0.004": 24.5533112543,
			"-0.003": 28.9098451349,
			"-0.002": 32.5844975549,
			"-0.001": 27.7295308643,
			"0.0": 23.1368807999,
			"0.001": 24.0291195257,
			"0.002": 13.9538949199,
			"0.003": 11.5813655531,
			"0.004": 12.5813479534,
			"0.005": 14.4270063753,
			"0.006": 13.646659198,
			"0.007": 3.10891144637,
			"0.008": 2.02114376966,
			"0.009": 1.55738456271,
			"0.01": 2.1392648992,
			"0.011": 2.23254110407,
			"0.012": 2.49041439565,
			"0.013": 5.91235278336,
			"0.014": 3.22354226269,
			"0.015": 0.750940080061,
			"0.016": 0.0,
			"0.017": 0.0,
			"0.018": 0.0,
			"0.019": 0.0,
			"0.02": 0.0,
			"0.021": 0.0,
			"0.022": 0.0,
			"0.023": 0.0,
			"0.024": 0.0,
			"0.025": 0.0
		}
	}
}
