{
	 "smiles": "NC(=O)C1=CC(=CC=C1)C(F)(F)F", 
	 "Tm": 397.15, 
	 "num_atms": 19, 
	 "gaussian": { 
		 "optdone": 1, 
		 "sigma_profile": "yes", 
		 "theory": "DFT", 
		 "functional": "B3LYP", 
		 "basiset": "6-31G**", 
		 "properties": { 
			 "R2extent": 2951.2217, 
			 "electric_dipole_moment_norm": 5.08607085873, 
			 "electric_quadrupole_moment_norm": 12.58977527, 
			 "total_energy": -737.989345391, 
			 "HOMO_LUMO_gap": 0.20564, 
			 "cosmo_polarized_energy": -13.38, 
			 "cosmo_cavitation_energy": 25.22, 
			 "cosmo_dispersion_energy": -18.02, 
			 "cosmo_repulsion_energy": 1.37, 
			 "cosmo_total_nonelectrostatic_energy": 8.57, 
			 "SMD_solvation_energy": 6.31 
		},
		"coords": [
			{
				"x": 2.0034861821,
				"y": -1.184193602,
				"z": 3.4374405786,
				"element": "N" 
			},
			{
				"x": 1.0733384761,
				"y": -0.2360251876,
				"z": 3.0853404532,
				"element": "C" 
			},
			{
				"x": 0.7323100134,
				"y": 0.6546545979,
				"z": 3.8522769901,
				"element": "O" 
			},
			{
				"x": 0.4745746328,
				"y": -0.3684467118,
				"z": 1.7108275127,
				"element": "C" 
			},
			{
				"x": -0.1768073119,
				"y": 0.7548748266,
				"z": 1.1893013868,
				"element": "C" 
			},
			{
				"x": -0.7563607761,
				"y": 0.7023878423,
				"z": -0.0763827225,
				"element": "C" 
			},
			{
				"x": -0.7068899865,
				"y": -0.4764471708,
				"z": -0.8281664261,
				"element": "C" 
			},
			{
				"x": -0.0770591248,
				"y": -1.6031346619,
				"z": -0.3032084263,
				"element": "C" 
			},
			{
				"x": 0.5130818348,
				"y": -1.5509120465,
				"z": 0.9602722023,
				"element": "C" 
			},
			{
				"x": -1.3946228334,
				"y": 1.9338887706,
				"z": -0.6642616871,
				"element": "C" 
			},
			{
				"x": -2.4229130918,
				"y": 1.6196509098,
				"z": -1.4843292123,
				"element": "F" 
			},
			{
				"x": -1.8696891091,
				"y": 2.7613045972,
				"z": 0.2887165327,
				"element": "F" 
			},
			{
				"x": -0.5095210169,
				"y": 2.644532412,
				"z": -1.4018529642,
				"element": "F" 
			},
			{
				"x": 2.4790510054,
				"y": -1.0162305699,
				"z": 4.312605891,
				"element": "H" 
			},
			{
				"x": 2.5174890438,
				"y": -1.6853108587,
				"z": 2.7297822526,
				"element": "H" 
			},
			{
				"x": -0.2258607703,
				"y": 1.6528419731,
				"z": 1.794306889,
				"element": "H" 
			},
			{
				"x": -1.1722991672,
				"y": -0.5118793047,
				"z": -1.8073133443,
				"element": "H" 
			},
			{
				"x": -0.055156344,
				"y": -2.5262128588,
				"z": -0.8741034404,
				"element": "H" 
			},
			{
				"x": 0.9698483435,
				"y": -2.4463429568,
				"z": 1.3711475343,
				"element": "H" 
			}
		],
		 "valence_orbital": [ 
			{
				"type": "occ",
				"energy": -0.36135,
				"method": "rhf"
			},
			{
				"type": "occ",
				"energy": -0.28271,
				"method": "rhf"
			},
			{
				"type": "occ",
				"energy": -0.27761,
				"method": "rhf"
			},
			{
				"type": "occ",
				"energy": -0.27465,
				"method": "rhf"
			},
			{
				"type": "occ",
				"energy": -0.2587,
				"method": "rhf"
			},
			{
				"type": "unocc",
				"energy": -0.05306,
				"method": "rhf"
			},
			{
				"type": "unocc",
				"energy": -0.03203,
				"method": "rhf"
			},
			{
				"type": "unocc",
				"energy": 0.04131,
				"method": "rhf"
			},
			{
				"type": "unocc",
				"energy": 0.06727,
				"method": "rhf"
			},
			{
				"type": "unocc",
				"energy": 0.09912,
				"method": "rhf"
			}
		],
		"cosmo_sigma_profile": { 
			"-0.025": 0.0,
			"-0.024": 0.0,
			"-0.023": 0.0,
			"-0.022": 0.0,
			"-0.021": 0.0,
			"-0.02": 0.0,
			"-0.019": 0.0,
			"-0.018": 0.0,
			"-0.017": 0.0,
			"-0.016": 0.0,
			"-0.015": 0.38024630287,
			"-0.014": 1.84920562831,
			"-0.013": 2.53457268446,
			"-0.012": 2.85773751443,
			"-0.011": 2.47430405369,
			"-0.01": 2.46476531777,
			"-0.009": 2.77735121419,
			"-0.008": 3.22260392659,
			"-0.007": 6.29366117238,
			"-0.006": 8.27427834438,
			"-0.005": 7.97483703847,
			"-0.004": 6.9164135578,
			"-0.003": 8.48092605461,
			"-0.002": 9.11034538469,
			"-0.001": 12.5223459076,
			"0.0": 15.8572840514,
			"0.001": 18.7261295571,
			"0.002": 31.8948517537,
			"0.003": 31.9165803053,
			"0.004": 3.23850270761,
			"0.005": 1.56881742824,
			"0.006": 2.49603847656,
			"0.007": 2.2254189701,
			"0.008": 2.25419927142,
			"0.009": 0.968710638858,
			"0.01": 0.83402440059,
			"0.011": 2.05826406561,
			"0.012": 2.4645628825,
			"0.013": 5.18186299474,
			"0.014": 2.17407058535,
			"0.015": 0.0500109146544,
			"0.016": 0.0,
			"0.017": 0.0,
			"0.018": 0.0,
			"0.019": 0.0,
			"0.02": 0.0,
			"0.021": 0.0,
			"0.022": 0.0,
			"0.023": 0.0,
			"0.024": 0.0,
			"0.025": 0.0
		}
	}
}
