{
	 "smiles": "ClC1=CC=C(C=C2SC(=S)N(CN3CCCCC3)C2=O)C=C1", 
	 "Tm": 395.15, 
	 "num_atms": 39, 
	 "gaussian": { 
		 "optdone": 1, 
		 "sigma_profile": "yes", 
		 "theory": "DFT", 
		 "functional": "B3LYP", 
		 "basiset": "6-31G**", 
		 "properties": { 
			 "R2extent": 15391.0917, 
			 "electric_dipole_moment_norm": 2.06033295853, 
			 "electric_quadrupole_moment_norm": 8.21481593525, 
			 "total_energy": -2061.25728692, 
			 "HOMO_LUMO_gap": 0.1208, 
			 "cosmo_polarized_energy": -11.12, 
			 "cosmo_cavitation_energy": 46.04, 
			 "cosmo_dispersion_energy": -33.63, 
			 "cosmo_repulsion_energy": 2.47, 
			 "cosmo_total_nonelectrostatic_energy": 14.88, 
			 "SMD_solvation_energy": 4.36 
		},
		"coords": [
			{
				"x": 0.9710375083,
				"y": 2.1329375055,
				"z": 8.8422531982,
				"element": "Cl" 
			},
			{
				"x": 0.8513824234,
				"y": 2.0325743575,
				"z": 7.0974615913,
				"element": "C" 
			},
			{
				"x": 0.3112749785,
				"y": 3.1021815981,
				"z": 6.3815111666,
				"element": "C" 
			},
			{
				"x": 0.222026312,
				"y": 3.0099318817,
				"z": 4.9980175812,
				"element": "C" 
			},
			{
				"x": 0.6626823248,
				"y": 1.8647400196,
				"z": 4.3008307499,
				"element": "C" 
			},
			{
				"x": 0.5261154195,
				"y": 1.8639164167,
				"z": 2.8540351033,
				"element": "C" 
			},
			{
				"x": 0.8459888697,
				"y": 0.936566359,
				"z": 1.9208587388,
				"element": "C" 
			},
			{
				"x": 1.5683528042,
				"y": -0.6640425176,
				"z": 2.0868804547,
				"element": "S" 
			},
			{
				"x": 1.5388400775,
				"y": -0.9461727454,
				"z": 0.3267114474,
				"element": "C" 
			},
			{
				"x": 2.1283825695,
				"y": -2.3283075052,
				"z": -0.3453917255,
				"element": "S" 
			},
			{
				"x": 0.9904487646,
				"y": 0.1359710517,
				"z": -0.3136417221,
				"element": "N" 
			},
			{
				"x": 0.8080964553,
				"y": 0.177855232,
				"z": -1.7871553388,
				"element": "C" 
			},
			{
				"x": -0.3712286341,
				"y": -0.5305249441,
				"z": -2.2128924408,
				"element": "N" 
			},
			{
				"x": -0.1784467574,
				"y": -1.3745527995,
				"z": -3.3971806028,
				"element": "C" 
			},
			{
				"x": -1.3863598525,
				"y": -2.2949946845,
				"z": -3.5979475717,
				"element": "C" 
			},
			{
				"x": -2.6880197675,
				"y": -1.4866938696,
				"z": -3.6877710194,
				"element": "C" 
			},
			{
				"x": -2.8238410203,
				"y": -0.5572591651,
				"z": -2.4741704568,
				"element": "C" 
			},
			{
				"x": -1.5721660692,
				"y": 0.3086110672,
				"z": -2.3057572341,
				"element": "C" 
			},
			{
				"x": 0.5825330841,
				"y": 1.2197026145,
				"z": 0.4851538845,
				"element": "C" 
			},
			{
				"x": 0.0834299052,
				"y": 2.2366464516,
				"z": 0.0341084557,
				"element": "O" 
			},
			{
				"x": 1.2031263522,
				"y": 0.8037947489,
				"z": 5.0574541515,
				"element": "C" 
			},
			{
				"x": 1.2981319077,
				"y": 0.8830937138,
				"z": 6.4423676042,
				"element": "C" 
			},
			{
				"x": -0.0317174914,
				"y": 3.9888752256,
				"z": 6.9025727001,
				"element": "H" 
			},
			{
				"x": -0.1978642371,
				"y": 3.8405459403,
				"z": 4.4378225612,
				"element": "H" 
			},
			{
				"x": 0.0890536679,
				"y": 2.7635802082,
				"z": 2.4231378348,
				"element": "H" 
			},
			{
				"x": 0.79270423,
				"y": 1.2462586299,
				"z": -2.0344463468,
				"element": "H" 
			},
			{
				"x": 1.6973726136,
				"y": -0.2847288367,
				"z": -2.217009877,
				"element": "H" 
			},
			{
				"x": 0.7262538276,
				"y": -1.970999252,
				"z": -3.2460875486,
				"element": "H" 
			},
			{
				"x": -0.0310580236,
				"y": -0.7652208288,
				"z": -4.3116068894,
				"element": "H" 
			},
			{
				"x": -1.439073515,
				"y": -2.9884607534,
				"z": -2.7497696056,
				"element": "H" 
			},
			{
				"x": -1.238054275,
				"y": -2.8952081258,
				"z": -4.5033392595,
				"element": "H" 
			},
			{
				"x": -3.5530019355,
				"y": -2.1559281762,
				"z": -3.7603675226,
				"element": "H" 
			},
			{
				"x": -2.6782443497,
				"y": -0.8833423905,
				"z": -4.6068299933,
				"element": "H" 
			},
			{
				"x": -2.962570571,
				"y": -1.1557924114,
				"z": -1.5651704461,
				"element": "H" 
			},
			{
				"x": -3.7023784692,
				"y": 0.0905974857,
				"z": -2.5758802484,
				"element": "H" 
			},
			{
				"x": -1.6450127062,
				"y": 0.9172641021,
				"z": -1.4005134208,
				"element": "H" 
			},
			{
				"x": -1.4949617386,
				"y": 1.0138348056,
				"z": -3.1579350811,
				"element": "H" 
			},
			{
				"x": 1.5571467501,
				"y": -0.098432825,
				"z": 4.5727537141,
				"element": "H" 
			},
			{
				"x": 1.7153185675,
				"y": 0.0612824153,
				"z": 7.0133334139,
				"element": "H" 
			}
		],
		 "valence_orbital": [ 
			{
				"type": "occ",
				"energy": -0.28092,
				"method": "rhf"
			},
			{
				"type": "occ",
				"energy": -0.2625,
				"method": "rhf"
			},
			{
				"type": "occ",
				"energy": -0.23476,
				"method": "rhf"
			},
			{
				"type": "occ",
				"energy": -0.22921,
				"method": "rhf"
			},
			{
				"type": "occ",
				"energy": -0.21962,
				"method": "rhf"
			},
			{
				"type": "unocc",
				"energy": -0.09882,
				"method": "rhf"
			},
			{
				"type": "unocc",
				"energy": -0.04463,
				"method": "rhf"
			},
			{
				"type": "unocc",
				"energy": -0.02992,
				"method": "rhf"
			},
			{
				"type": "unocc",
				"energy": -0.00397,
				"method": "rhf"
			},
			{
				"type": "unocc",
				"energy": 0.00341,
				"method": "rhf"
			}
		],
		"cosmo_sigma_profile": { 
			"-0.025": 0.0,
			"-0.024": 0.0,
			"-0.023": 0.0,
			"-0.022": 0.0,
			"-0.021": 0.0,
			"-0.02": 0.0,
			"-0.019": 0.0,
			"-0.018": 0.0,
			"-0.017": 0.0,
			"-0.016": 0.0,
			"-0.015": 0.0,
			"-0.014": 0.0,
			"-0.013": 0.0,
			"-0.012": 0.0,
			"-0.011": 0.0,
			"-0.01": 0.11230410213,
			"-0.009": 1.59104094466,
			"-0.008": 5.4359562489,
			"-0.007": 8.74898072834,
			"-0.006": 12.2988410557,
			"-0.005": 14.7361728136,
			"-0.004": 16.7783458861,
			"-0.003": 22.6415638025,
			"-0.002": 42.3472930846,
			"-0.001": 48.6089058725,
			"0.0": 47.7097927925,
			"0.001": 41.112917266,
			"0.002": 31.3823846099,
			"0.003": 18.6745440762,
			"0.004": 19.1770208618,
			"0.005": 9.88809689642,
			"0.006": 10.1902015122,
			"0.007": 4.98208495831,
			"0.008": 4.54611479477,
			"0.009": 4.08624551241,
			"0.01": 3.47217257882,
			"0.011": 3.75532101716,
			"0.012": 0.291866748504,
			"0.013": 0.0,
			"0.014": 0.0,
			"0.015": 0.0,
			"0.016": 0.0,
			"0.017": 0.0,
			"0.018": 0.0,
			"0.019": 0.0,
			"0.02": 0.0,
			"0.021": 0.0,
			"0.022": 0.0,
			"0.023": 0.0,
			"0.024": 0.0,
			"0.025": 0.0
		}
	}
}
