{
	 "smiles": "OC(=O)C1=C2C=CC=CC2=NC2=C1CCCC2=CC1=CC(=CC=C1)[N+]([O-])=O", 
	 "Tm": 573.15, 
	 "num_atms": 43, 
	 "gaussian": { 
		 "optdone": 1, 
		 "sigma_profile": "yes", 
		 "theory": "DFT", 
		 "functional": "B3LYP", 
		 "basiset": "6-31G**", 
		 "properties": { 
			 "R2extent": 12347.7237, 
			 "electric_dipole_moment_norm": 6.5737977783, 
			 "electric_quadrupole_moment_norm": 34.5634593515, 
			 "total_energy": -1220.19458434, 
			 "HOMO_LUMO_gap": 0.13928, 
			 "cosmo_polarized_energy": -17.54, 
			 "cosmo_cavitation_energy": 47.17, 
			 "cosmo_dispersion_energy": -32.8, 
			 "cosmo_repulsion_energy": 2.45, 
			 "cosmo_total_nonelectrostatic_energy": 16.82, 
			 "SMD_solvation_energy": 9.55 
		},
		"coords": [
			{
				"x": 0.3038832831,
				"y": 5.2834000868,
				"z": 1.1034503809,
				"element": "O" 
			},
			{
				"x": -0.413783375,
				"y": 4.2805001823,
				"z": 1.6611933154,
				"element": "C" 
			},
			{
				"x": -1.3968268564,
				"y": 4.490790935,
				"z": 2.3397394464,
				"element": "O" 
			},
			{
				"x": 0.1587038385,
				"y": 2.9228512169,
				"z": 1.3711715379,
				"element": "C" 
			},
			{
				"x": 0.4076415517,
				"y": 2.0495490884,
				"z": 2.474149565,
				"element": "C" 
			},
			{
				"x": 0.1650392284,
				"y": 2.3707717211,
				"z": 3.8380409008,
				"element": "C" 
			},
			{
				"x": 0.4819047979,
				"y": 1.4713737048,
				"z": 4.831785338,
				"element": "C" 
			},
			{
				"x": 1.0528400856,
				"y": 0.2119581701,
				"z": 4.5208372054,
				"element": "C" 
			},
			{
				"x": 1.294581568,
				"y": -0.130918724,
				"z": 3.2121534362,
				"element": "C" 
			},
			{
				"x": 0.9750380005,
				"y": 0.7736368053,
				"z": 2.1615645411,
				"element": "C" 
			},
			{
				"x": 1.2170027007,
				"y": 0.3771724759,
				"z": 0.8899987877,
				"element": "N" 
			},
			{
				"x": 0.9327167756,
				"y": 1.1817843865,
				"z": -0.1220701002,
				"element": "C" 
			},
			{
				"x": 0.414768945,
				"y": 2.5134219432,
				"z": 0.068405157,
				"element": "C" 
			},
			{
				"x": 0.1651662076,
				"y": 3.4313863933,
				"z": -1.1192975592,
				"element": "C" 
			},
			{
				"x": 0.1815792188,
				"y": 2.7130846244,
				"z": -2.4712748288,
				"element": "C" 
			},
			{
				"x": 1.3813193793,
				"y": 1.7606040751,
				"z": -2.5414280665,
				"element": "C" 
			},
			{
				"x": 1.2185407237,
				"y": 0.6795655257,
				"z": -1.4935145764,
				"element": "C" 
			},
			{
				"x": 1.3385587403,
				"y": -0.6159642836,
				"z": -1.8652642611,
				"element": "C" 
			},
			{
				"x": 1.1172913098,
				"y": -1.8884518114,
				"z": -1.1521069655,
				"element": "C" 
			},
			{
				"x": 1.9444130979,
				"y": -2.9744467967,
				"z": -1.4723838217,
				"element": "C" 
			},
			{
				"x": 1.7324349579,
				"y": -4.2100923534,
				"z": -0.8661926554,
				"element": "C" 
			},
			{
				"x": 0.6985175253,
				"y": -4.4269883761,
				"z": 0.0404623246,
				"element": "C" 
			},
			{
				"x": -0.144980384,
				"y": -3.3559157124,
				"z": 0.3353239903,
				"element": "C" 
			},
			{
				"x": 0.0594645066,
				"y": -2.1077978492,
				"z": -0.2490006109,
				"element": "C" 
			},
			{
				"x": 2.6250493457,
				"y": -5.3289714299,
				"z": -1.2082644656,
				"element": "N" 
			},
			{
				"x": 3.5192531755,
				"y": -5.1199314222,
				"z": -2.0283007895,
				"element": "O" 
			},
			{
				"x": 2.4250168522,
				"y": -6.4099920353,
				"z": -0.6539973572,
				"element": "O" 
			},
			{
				"x": -0.1512895445,
				"y": 6.1076759486,
				"z": 1.349183306,
				"element": "H" 
			},
			{
				"x": -0.2864673809,
				"y": 3.3223652884,
				"z": 4.0899531273,
				"element": "H" 
			},
			{
				"x": 0.2895674647,
				"y": 1.7299480861,
				"z": 5.8689004939,
				"element": "H" 
			},
			{
				"x": 1.2959961845,
				"y": -0.4802962492,
				"z": 5.3214969988,
				"element": "H" 
			},
			{
				"x": 1.7270263371,
				"y": -1.0862022012,
				"z": 2.9341543199,
				"element": "H" 
			},
			{
				"x": -0.7816676886,
				"y": 3.9657431704,
				"z": -0.9867765791,
				"element": "H" 
			},
			{
				"x": 0.9425583787,
				"y": 4.2053313673,
				"z": -1.11704262,
				"element": "H" 
			},
			{
				"x": 0.2257359938,
				"y": 3.4542084515,
				"z": -3.2766023439,
				"element": "H" 
			},
			{
				"x": -0.7428805873,
				"y": 2.1396943952,
				"z": -2.6127184013,
				"element": "H" 
			},
			{
				"x": 2.3020171057,
				"y": 2.3346531531,
				"z": -2.3577285257,
				"element": "H" 
			},
			{
				"x": 1.4735435789,
				"y": 1.3146376213,
				"z": -3.5358364597,
				"element": "H" 
			},
			{
				"x": 1.6532549346,
				"y": -0.7676128142,
				"z": -2.8980647412,
				"element": "H" 
			},
			{
				"x": 2.7575163953,
				"y": -2.8702318958,
				"z": -2.1807299569,
				"element": "H" 
			},
			{
				"x": 0.5661719482,
				"y": -5.4070901431,
				"z": 0.4803777181,
				"element": "H" 
			},
			{
				"x": -0.9721821648,
				"y": -3.49842092,
				"z": 1.0237337987,
				"element": "H" 
			},
			{
				"x": -0.6146361556,
				"y": -1.292983799,
				"z": -0.0147800037,
				"element": "H" 
			}
		],
		 "valence_orbital": [ 
			{
				"type": "occ",
				"energy": -0.27437,
				"method": "rhf"
			},
			{
				"type": "occ",
				"energy": -0.26713,
				"method": "rhf"
			},
			{
				"type": "occ",
				"energy": -0.25504,
				"method": "rhf"
			},
			{
				"type": "occ",
				"energy": -0.24211,
				"method": "rhf"
			},
			{
				"type": "occ",
				"energy": -0.22415,
				"method": "rhf"
			},
			{
				"type": "unocc",
				"energy": -0.08487,
				"method": "rhf"
			},
			{
				"type": "unocc",
				"energy": -0.07729,
				"method": "rhf"
			},
			{
				"type": "unocc",
				"energy": -0.05076,
				"method": "rhf"
			},
			{
				"type": "unocc",
				"energy": -0.01641,
				"method": "rhf"
			},
			{
				"type": "unocc",
				"energy": -0.01513,
				"method": "rhf"
			}
		],
		"cosmo_sigma_profile": { 
			"-0.025": 0.0,
			"-0.024": 0.0,
			"-0.023": 0.0,
			"-0.022": 0.0,
			"-0.021": 0.0,
			"-0.02": 0.0,
			"-0.019": 0.313124598158,
			"-0.018": 0.947159928575,
			"-0.017": 0.64671501206,
			"-0.016": 1.13561277384,
			"-0.015": 0.897669119832,
			"-0.014": 0.594526320233,
			"-0.013": 0.441528951513,
			"-0.012": 0.950027502735,
			"-0.011": 0.630937724052,
			"-0.01": 0.712723323598,
			"-0.009": 0.27866684308,
			"-0.008": 1.4658066329,
			"-0.007": 6.96424721029,
			"-0.006": 17.6863648216,
			"-0.005": 22.5967355515,
			"-0.004": 32.526662523,
			"-0.003": 31.0476258925,
			"-0.002": 31.9674695737,
			"-0.001": 32.1325487764,
			"0.0": 32.8965784554,
			"0.001": 29.0040927253,
			"0.002": 29.3071293349,
			"0.003": 24.2921472858,
			"0.004": 17.7316344671,
			"0.005": 7.70744609487,
			"0.006": 7.984366075,
			"0.007": 10.3751798132,
			"0.008": 11.7166912691,
			"0.009": 8.23979571935,
			"0.01": 6.82318426512,
			"0.011": 5.42003951362,
			"0.012": 1.44692387994,
			"0.013": 0.202899392675,
			"0.014": 0.0,
			"0.015": 0.0,
			"0.016": 0.0,
			"0.017": 0.0,
			"0.018": 0.0,
			"0.019": 0.0,
			"0.02": 0.0,
			"0.021": 0.0,
			"0.022": 0.0,
			"0.023": 0.0,
			"0.024": 0.0,
			"0.0": 0.0
		}
	}
}
