{
	 "smiles": "CC1=CC=C(CC(=O)NC2=CC=C(C)C=C2)C=C1", 
	 "Tm": 436.15, 
	 "num_atms": 35, 
	 "gaussian": { 
		 "optdone": 1, 
		 "sigma_profile": "yes", 
		 "theory": "DFT", 
		 "functional": "B3LYP", 
		 "basiset": "6-31G**", 
		 "properties": { 
			 "R2extent": 6877.9459, 
			 "electric_dipole_moment_norm": 3.50831717494, 
			 "electric_quadrupole_moment_norm": 12.8578985118, 
			 "total_energy": -749.957655227, 
			 "HOMO_LUMO_gap": 0.20783, 
			 "cosmo_polarized_energy": -11.61, 
			 "cosmo_cavitation_energy": 38.15, 
			 "cosmo_dispersion_energy": -26.84, 
			 "cosmo_repulsion_energy": 2.08, 
			 "cosmo_total_nonelectrostatic_energy": 13.39, 
			 "SMD_solvation_energy": 6.91 
		},
		"coords": [
			{
				"x": 5.4134928064,
				"y": -2.0824339624,
				"z": -2.5435763652,
				"element": "C" 
			},
			{
				"x": 4.5093981212,
				"y": -0.9819160546,
				"z": -2.0396877333,
				"element": "C" 
			},
			{
				"x": 3.2584752987,
				"y": -0.7457055497,
				"z": -2.6185108483,
				"element": "C" 
			},
			{
				"x": 2.4176968228,
				"y": 0.2586886153,
				"z": -2.1329703386,
				"element": "C" 
			},
			{
				"x": 2.8049804768,
				"y": 1.0617134668,
				"z": -1.0548284315,
				"element": "C" 
			},
			{
				"x": 1.8977208993,
				"y": 2.1802939494,
				"z": -0.5605320019,
				"element": "C" 
			},
			{
				"x": 1.7586524598,
				"y": 2.2294623502,
				"z": 0.958632478,
				"element": "C" 
			},
			{
				"x": 2.6683517872,
				"y": 2.6434248394,
				"z": 1.6685089413,
				"element": "O" 
			},
			{
				"x": 0.5677521464,
				"y": 1.8418258044,
				"z": 1.5382237974,
				"element": "N" 
			},
			{
				"x": -0.6108118703,
				"y": 1.2808654085,
				"z": 0.9859971643,
				"element": "C" 
			},
			{
				"x": -0.5753735524,
				"y": 0.2225544319,
				"z": 0.0703787891,
				"element": "C" 
			},
			{
				"x": -1.765149493,
				"y": -0.3066561536,
				"z": -0.4311611027,
				"element": "C" 
			},
			{
				"x": -3.0137501054,
				"y": 0.1679528093,
				"z": -0.0136424076,
				"element": "C" 
			},
			{
				"x": -4.2980361977,
				"y": -0.4371335146,
				"z": -0.5295579143,
				"element": "C" 
			},
			{
				"x": -3.0339213939,
				"y": 1.2102454205,
				"z": 0.9246652034,
				"element": "C" 
			},
			{
				"x": -1.8554706753,
				"y": 1.766053998,
				"z": 1.4133660189,
				"element": "C" 
			},
			{
				"x": 4.0615439243,
				"y": 0.8334163361,
				"z": -0.47426167,
				"element": "C" 
			},
			{
				"x": 4.8936283307,
				"y": -0.1717556501,
				"z": -0.9605131028,
				"element": "C" 
			},
			{
				"x": 5.0990451567,
				"y": -2.439689505,
				"z": -3.5284407934,
				"element": "H" 
			},
			{
				"x": 6.4515058611,
				"y": -1.7425883703,
				"z": -2.6236063786,
				"element": "H" 
			},
			{
				"x": 5.4092775082,
				"y": -2.9439834606,
				"z": -1.8642332225,
				"element": "H" 
			},
			{
				"x": 2.9344397674,
				"y": -1.3526611457,
				"z": -3.4606686899,
				"element": "H" 
			},
			{
				"x": 1.4528901048,
				"y": 0.4238887263,
				"z": -2.6068871392,
				"element": "H" 
			},
			{
				"x": 2.3402874894,
				"y": 3.1477858115,
				"z": -0.825536066,
				"element": "H" 
			},
			{
				"x": 0.9245281315,
				"y": 2.1171271819,
				"z": -1.051772826,
				"element": "H" 
			},
			{
				"x": 0.5583471654,
				"y": 2.0402212781,
				"z": 2.5319304479,
				"element": "H" 
			},
			{
				"x": 0.3771161091,
				"y": -0.194974452,
				"z": -0.2371448336,
				"element": "H" 
			},
			{
				"x": -1.7166428352,
				"y": -1.1229129178,
				"z": -1.1476359641,
				"element": "H" 
			},
			{
				"x": -4.7465506778,
				"y": -1.1116882869,
				"z": 0.2103976452,
				"element": "H" 
			},
			{
				"x": -5.0423299222,
				"y": 0.3339603974,
				"z": -0.7543431456,
				"element": "H" 
			},
			{
				"x": -4.1285959821,
				"y": -1.0173340341,
				"z": -1.4409748638,
				"element": "H" 
			},
			{
				"x": -3.9877307824,
				"y": 1.6025673386,
				"z": 1.269119984,
				"element": "H" 
			},
			{
				"x": -1.8921179557,
				"y": 2.5894943821,
				"z": 2.1215820314,
				"element": "H" 
			},
			{
				"x": 4.3747782716,
				"y": 1.4489386099,
				"z": 0.3629289315,
				"element": "H" 
			},
			{
				"x": 5.8639728049,
				"y": -0.329248098,
				"z": -0.4948455933,
				"element": "H" 
			}
		],
		 "valence_orbital": [ 
			{
				"type": "occ",
				"energy": -0.25781,
				"method": "rhf"
			},
			{
				"type": "occ",
				"energy": -0.25131,
				"method": "rhf"
			},
			{
				"type": "occ",
				"energy": -0.24404,
				"method": "rhf"
			},
			{
				"type": "occ",
				"energy": -0.22978,
				"method": "rhf"
			},
			{
				"type": "occ",
				"energy": -0.22215,
				"method": "rhf"
			},
			{
				"type": "unocc",
				"energy": -0.01432,
				"method": "rhf"
			},
			{
				"type": "unocc",
				"energy": -0.01052,
				"method": "rhf"
			},
			{
				"type": "unocc",
				"energy": 0.00269,
				"method": "rhf"
			},
			{
				"type": "unocc",
				"energy": 0.00397,
				"method": "rhf"
			},
			{
				"type": "unocc",
				"energy": 0.03508,
				"method": "rhf"
			}
		],
		"cosmo_sigma_profile": { 
			"-0.025": 0.0,
			"-0.024": 0.0,
			"-0.023": 0.0,
			"-0.022": 0.0,
			"-0.021": 0.0,
			"-0.02": 0.0,
			"-0.019": 0.0,
			"-0.018": 0.0,
			"-0.017": 0.0,
			"-0.016": 0.0,
			"-0.015": 0.021861464094,
			"-0.014": 0.789177501923,
			"-0.013": 0.889135420931,
			"-0.012": 0.818840964666,
			"-0.011": 0.769150750549,
			"-0.01": 1.29766260684,
			"-0.009": 1.19293739897,
			"-0.008": 1.09969959136,
			"-0.007": 1.52776936629,
			"-0.006": 5.53609392485,
			"-0.005": 16.2052566019,
			"-0.004": 30.1617590459,
			"-0.003": 36.4516849037,
			"-0.002": 29.8214014714,
			"-0.001": 28.1008019704,
			"0.0": 29.9622522498,
			"0.001": 22.5652489231,
			"0.002": 17.0974344012,
			"0.003": 16.2467214659,
			"0.004": 16.9094101759,
			"0.005": 16.8418126198,
			"0.006": 11.1435926346,
			"0.007": 2.2911810123,
			"0.008": 1.29285862491,
			"0.009": 1.39838911707,
			"0.01": 1.17156832971,
			"0.011": 1.43698812279,
			"0.012": 2.16704545774,
			"0.013": 4.08583982464,
			"0.014": 3.08066450066,
			"0.015": 0.0820362871689,
			"0.016": 0.0,
			"0.017": 0.0,
			"0.018": 0.0,
			"0.019": 0.0,
			"0.02": 0.0,
			"0.021": 0.0,
			"0.022": 0.0,
			"0.023": 0.0,
			"0.024": 0.0,
			"0.025": 0.0
		}
	}
}
