{
	 "smiles": "NC(=O)CSSCC(N)=O", 
	 "Tm": 435.15, 
	 "num_atms": 18, 
	 "gaussian": { 
		 "optdone": 1, 
		 "sigma_profile": "yes", 
		 "theory": "DFT", 
		 "functional": "B3LYP", 
		 "basiset": "6-31G**", 
		 "properties": { 
			 "R2extent": 2463.3202, 
			 "electric_dipole_moment_norm": 8.56791168489, 
			 "electric_quadrupole_moment_norm": 8.84636676778, 
			 "total_energy": -1213.6094025, 
			 "HOMO_LUMO_gap": 0.19386, 
			 "cosmo_polarized_energy": -22.4, 
			 "cosmo_cavitation_energy": 24.86, 
			 "cosmo_dispersion_energy": -19.09, 
			 "cosmo_repulsion_energy": 1.5, 
			 "cosmo_total_nonelectrostatic_energy": 7.26, 
			 "SMD_solvation_energy": 4.53 
		},
		"coords": [
			{
				"x": -0.0812433696,
				"y": -2.4504905292,
				"z": -2.0386089373,
				"element": "N" 
			},
			{
				"x": 0.961596488,
				"y": -2.6164313231,
				"z": -1.1807230301,
				"element": "C" 
			},
			{
				"x": 1.5269864129,
				"y": -3.68143121,
				"z": -0.9793022767,
				"element": "O" 
			},
			{
				"x": 1.3929557448,
				"y": -1.3215517844,
				"z": -0.4885725932,
				"element": "C" 
			},
			{
				"x": 0.6689924541,
				"y": -1.0961915215,
				"z": 1.1988148316,
				"element": "S" 
			},
			{
				"x": -1.3903296118,
				"y": -0.9957468902,
				"z": 0.9323744505,
				"element": "S" 
			},
			{
				"x": -1.7103205542,
				"y": 0.7588765592,
				"z": 0.5168259328,
				"element": "C" 
			},
			{
				"x": -1.6140166637,
				"y": 1.103809888,
				"z": -0.9750927983,
				"element": "C" 
			},
			{
				"x": -2.1357460323,
				"y": 2.3193707999,
				"z": -1.2922665979,
				"element": "N" 
			},
			{
				"x": -1.1069499751,
				"y": 0.3791228439,
				"z": -1.8236636664,
				"element": "O" 
			},
			{
				"x": -0.4814572011,
				"y": -3.2823939102,
				"z": -2.4459688455,
				"element": "H" 
			},
			{
				"x": -0.6005948672,
				"y": -1.5794954436,
				"z": -2.0581940867,
				"element": "H" 
			},
			{
				"x": 2.464946698,
				"y": -1.3883154661,
				"z": -0.2842308604,
				"element": "H" 
			},
			{
				"x": 1.1781779576,
				"y": -0.4361446581,
				"z": -1.0885373412,
				"element": "H" 
			},
			{
				"x": -1.0152364689,
				"y": 1.3890175626,
				"z": 1.0810593646,
				"element": "H" 
			},
			{
				"x": -2.7205995914,
				"y": 0.9777996153,
				"z": 0.8822207923,
				"element": "H" 
			},
			{
				"x": -2.5285296209,
				"y": 2.9402609634,
				"z": -0.6031637504,
				"element": "H" 
			},
			{
				"x": -2.0662317993,
				"y": 2.6335345041,
				"z": -2.2488705877,
				"element": "H" 
			}
		],
		 "valence_orbital": [ 
			{
				"type": "occ",
				"energy": -0.28776,
				"method": "rhf"
			},
			{
				"type": "occ",
				"energy": -0.2572,
				"method": "rhf"
			},
			{
				"type": "occ",
				"energy": -0.25587,
				"method": "rhf"
			},
			{
				"type": "occ",
				"energy": -0.24451,
				"method": "rhf"
			},
			{
				"type": "occ",
				"energy": -0.22514,
				"method": "rhf"
			},
			{
				"type": "unocc",
				"energy": -0.03128,
				"method": "rhf"
			},
			{
				"type": "unocc",
				"energy": -0.0067,
				"method": "rhf"
			},
			{
				"type": "unocc",
				"energy": 0.0143,
				"method": "rhf"
			},
			{
				"type": "unocc",
				"energy": 0.02604,
				"method": "rhf"
			},
			{
				"type": "unocc",
				"energy": 0.06225,
				"method": "rhf"
			}
		],
		"cosmo_sigma_profile": { 
			"-0.025": 0.0,
			"-0.024": 0.0,
			"-0.023": 0.0,
			"-0.022": 0.0,
			"-0.021": 0.0,
			"-0.02": 0.0,
			"-0.019": 0.0,
			"-0.018": 0.0,
			"-0.017": 0.0,
			"-0.016": 0.0391640313546,
			"-0.015": 1.60520373366,
			"-0.014": 3.15937185436,
			"-0.013": 4.0026749801,
			"-0.012": 4.06678567627,
			"-0.011": 3.60601561162,
			"-0.01": 3.73478311978,
			"-0.009": 4.64085020227,
			"-0.008": 8.33343891721,
			"-0.007": 8.79299095166,
			"-0.006": 7.14499558671,
			"-0.005": 6.48569494698,
			"-0.004": 9.72385570245,
			"-0.003": 11.4736115144,
			"-0.002": 7.63814044712,
			"-0.001": 6.43158333159,
			"0.0": 8.43009455812,
			"0.001": 11.2580465061,
			"0.002": 11.9311167199,
			"0.003": 12.7846551289,
			"0.004": 12.2680551389,
			"0.005": 9.96922086395,
			"0.006": 9.34226818431,
			"0.007": 6.10433777521,
			"0.008": 4.50020305364,
			"0.009": 2.98264585641,
			"0.01": 2.06291482159,
			"0.011": 2.46545140744,
			"0.012": 2.98357239361,
			"0.013": 4.14630538678,
			"0.014": 5.9401024296,
			"0.015": 1.92525983993,
			"0.016": 0.0278140470699,
			"0.017": 0.0,
			"0.018": 0.0,
			"0.019": 0.0,
			"0.02": 0.0,
			"0.021": 0.0,
			"0.022": 0.0,
			"0.023": 0.0,
			"0.024": 0.0,
			"0.025": 0.0
		}
	}
}
