{
	 "smiles": "NNC1=C(C=C(C=C1)S(=O)(=O)NC1=CC(Cl)=CC=C1)[N+]([O-])=O", 
	 "Tm": 469.15, 
	 "num_atms": 33, 
	 "gaussian": { 
		 "optdone": 1, 
		 "sigma_profile": "yes", 
		 "theory": "DFT", 
		 "functional": "B3LYP", 
		 "basiset": "6-31G**", 
		 "properties": { 
			 "R2extent": 10006.1869, 
			 "electric_dipole_moment_norm": 4.85297746646, 
			 "electric_quadrupole_moment_norm": 21.9640253135, 
			 "total_energy": -1841.97477636, 
			 "HOMO_LUMO_gap": 0.14196, 
			 "cosmo_polarized_energy": -25.0, 
			 "cosmo_cavitation_energy": 41.73, 
			 "cosmo_dispersion_energy": -29.38, 
			 "cosmo_repulsion_energy": 2.23, 
			 "cosmo_total_nonelectrostatic_energy": 14.58, 
			 "SMD_solvation_energy": 8.26 
		},
		"coords": [
			{
				"x": 2.8528803508,
				"y": -1.7625236932,
				"z": 2.2566372305,
				"element": "N" 
			},
			{
				"x": 1.5174003047,
				"y": -1.60312263,
				"z": 1.8498644768,
				"element": "N" 
			},
			{
				"x": 1.0221564638,
				"y": -0.6243164372,
				"z": 1.0291049055,
				"element": "C" 
			},
			{
				"x": 1.7205684208,
				"y": 0.0367982891,
				"z": -0.019041292,
				"element": "C" 
			},
			{
				"x": 1.1485423581,
				"y": 1.1122382277,
				"z": -0.709076976,
				"element": "C" 
			},
			{
				"x": -0.1499601034,
				"y": 1.5034192004,
				"z": -0.4329887334,
				"element": "C" 
			},
			{
				"x": -0.8963782847,
				"y": 0.8278076512,
				"z": 0.5496158015,
				"element": "C" 
			},
			{
				"x": -0.3152022541,
				"y": -0.2011234627,
				"z": 1.2587247934,
				"element": "C" 
			},
			{
				"x": -0.8806598516,
				"y": 2.8498096009,
				"z": -1.355713678,
				"element": "S" 
			},
			{
				"x": -1.8842179178,
				"y": 3.4668588032,
				"z": -0.4906172754,
				"element": "O" 
			},
			{
				"x": 0.1998179179,
				"y": 3.6029968707,
				"z": -1.9885318054,
				"element": "O" 
			},
			{
				"x": -1.7122126084,
				"y": 2.1564342386,
				"z": -2.6680442845,
				"element": "N" 
			},
			{
				"x": -2.7915616089,
				"y": 1.2450815622,
				"z": -2.5176331091,
				"element": "C" 
			},
			{
				"x": -2.7269456829,
				"y": -0.0003321293,
				"z": -3.157318425,
				"element": "C" 
			},
			{
				"x": -3.8110252268,
				"y": -0.8702804005,
				"z": -3.064528719,
				"element": "C" 
			},
			{
				"x": -3.7268037477,
				"y": -2.4219159146,
				"z": -3.8845886193,
				"element": "Cl" 
			},
			{
				"x": -4.946487732,
				"y": -0.5441448833,
				"z": -2.325269114,
				"element": "C" 
			},
			{
				"x": -4.9883042919,
				"y": 0.6953286435,
				"z": -1.6836401021,
				"element": "C" 
			},
			{
				"x": -3.9325742834,
				"y": 1.5993477028,
				"z": -1.7830496549,
				"element": "C" 
			},
			{
				"x": 3.012512046,
				"y": -0.4141081707,
				"z": -0.5323693031,
				"element": "N" 
			},
			{
				"x": 3.2861574845,
				"y": -1.6176904902,
				"z": -0.4395271531,
				"element": "O" 
			},
			{
				"x": 3.7322079628,
				"y": 0.4139808801,
				"z": -1.0894127284,
				"element": "O" 
			},
			{
				"x": 3.2653815566,
				"y": -0.8483738733,
				"z": 2.445936638,
				"element": "H" 
			},
			{
				"x": 3.3708868218,
				"y": -2.1800406813,
				"z": 1.4858696411,
				"element": "H" 
			},
			{
				"x": 0.8687389206,
				"y": -1.9451748141,
				"z": 2.544974017,
				"element": "H" 
			},
			{
				"x": 1.7376608138,
				"y": 1.6171804413,
				"z": -1.4650399512,
				"element": "H" 
			},
			{
				"x": -1.9081475569,
				"y": 1.1455645574,
				"z": 0.7741629955,
				"element": "H" 
			},
			{
				"x": -0.8753642731,
				"y": -0.6876804209,
				"z": 2.052591913,
				"element": "H" 
			},
			{
				"x": -1.0515475393,
				"y": 1.9312429726,
				"z": -3.4052611615,
				"element": "H" 
			},
			{
				"x": -1.8460096387,
				"y": -0.2883065019,
				"z": -3.7216968072,
				"element": "H" 
			},
			{
				"x": -5.7759038959,
				"y": -1.2389243001,
				"z": -2.2621127933,
				"element": "H" 
			},
			{
				"x": -5.8713839416,
				"y": 0.9693785398,
				"z": -1.114325372,
				"element": "H" 
			},
			{
				"x": -3.9803209834,
				"y": 2.5718906217,
				"z": -1.3096953545,
				"element": "H" 
			}
		],
		 "valence_orbital": [ 
			{
				"type": "occ",
				"energy": -0.29612,
				"method": "rhf"
			},
			{
				"type": "occ",
				"energy": -0.28572,
				"method": "rhf"
			},
			{
				"type": "occ",
				"energy": -0.26673,
				"method": "rhf"
			},
			{
				"type": "occ",
				"energy": -0.25415,
				"method": "rhf"
			},
			{
				"type": "occ",
				"energy": -0.24226,
				"method": "rhf"
			},
			{
				"type": "unocc",
				"energy": -0.1003,
				"method": "rhf"
			},
			{
				"type": "unocc",
				"energy": -0.05473,
				"method": "rhf"
			},
			{
				"type": "unocc",
				"energy": -0.03334,
				"method": "rhf"
			},
			{
				"type": "unocc",
				"energy": -0.02796,
				"method": "rhf"
			},
			{
				"type": "unocc",
				"energy": -0.02365,
				"method": "rhf"
			}
		],
		"cosmo_sigma_profile": { 
			"-0.025": 0.0,
			"-0.024": 0.0,
			"-0.023": 0.0,
			"-0.022": 0.0,
			"-0.021": 0.0,
			"-0.02": 0.0,
			"-0.019": 0.0,
			"-0.018": 0.0,
			"-0.017": 0.020619840569,
			"-0.016": 0.833159070637,
			"-0.015": 2.66703305204,
			"-0.014": 2.89050249446,
			"-0.013": 2.86660901735,
			"-0.012": 5.50307514939,
			"-0.011": 5.55586424686,
			"-0.01": 4.00066816087,
			"-0.009": 5.12884421334,
			"-0.008": 8.96910058472,
			"-0.007": 12.0593537632,
			"-0.006": 13.1306087788,
			"-0.005": 14.4890909014,
			"-0.004": 14.1710142857,
			"-0.003": 15.0575523501,
			"-0.002": 15.993106291,
			"-0.001": 22.0912929001,
			"0.0": 23.8577180738,
			"0.001": 27.0546300471,
			"0.002": 24.262677178,
			"0.003": 24.2162913675,
			"0.004": 19.1234915362,
			"0.005": 12.8274215394,
			"0.006": 9.8098041129,
			"0.007": 10.7812267615,
			"0.008": 10.3885455053,
			"0.009": 9.24173110482,
			"0.01": 10.095998905,
			"0.011": 6.78649692996,
			"0.012": 0.842176494243,
			"0.013": 0.399286851019,
			"0.014": 0.852716469347,
			"0.015": 0.223829402621,
			"0.016": 0.433494698907,
			"0.017": 0.0,
			"0.018": 0.0,
			"0.019": 0.0,
			"0.02": 0.0,
			"0.021": 0.0,
			"0.022": 0.0,
			"0.023": 0.0,
			"0.024": 0.0,
			"0.025": 0.0
		}
	}
}
