{
	 "smiles": "CC1=C(N=CO1)C(O)=O", 
	 "Tm": 401.15, 
	 "num_atms": 14, 
	 "gaussian": { 
		 "optdone": 1, 
		 "sigma_profile": "yes", 
		 "theory": "DFT", 
		 "functional": "B3LYP", 
		 "basiset": "6-31G**", 
		 "properties": { 
			 "R2extent": 1462.0365, 
			 "electric_dipole_moment_norm": 3.89387009799, 
			 "electric_quadrupole_moment_norm": 14.5568157239, 
			 "total_energy": -473.965589977, 
			 "HOMO_LUMO_gap": 0.21889, 
			 "cosmo_polarized_energy": -13.85, 
			 "cosmo_cavitation_energy": 19.16, 
			 "cosmo_dispersion_energy": -14.23, 
			 "cosmo_repulsion_energy": 1.18, 
			 "cosmo_total_nonelectrostatic_energy": 6.11, 
			 "SMD_solvation_energy": 4.27 
		},
		"coords": [
			{
				"x": -0.0843434401,
				"y": 0.1356539257,
				"z": -1.3666562397,
				"element": "C" 
			},
			{
				"x": 0.026598401,
				"y": -0.5328127067,
				"z": -0.0414937606,
				"element": "C" 
			},
			{
				"x": -0.834085775,
				"y": -0.8458951629,
				"z": 0.9802531428,
				"element": "C" 
			},
			{
				"x": -0.1374600429,
				"y": -1.4908971837,
				"z": 1.9996345578,
				"element": "N" 
			},
			{
				"x": 1.0748337943,
				"y": -1.5402198213,
				"z": 1.5681074451,
				"element": "C" 
			},
			{
				"x": 1.2614405165,
				"y": -0.9801955261,
				"z": 0.3352310738,
				"element": "O" 
			},
			{
				"x": -2.2784958399,
				"y": -0.5873901428,
				"z": 1.0837764678,
				"element": "C" 
			},
			{
				"x": -2.7493937258,
				"y": 0.0528294564,
				"z": -0.0254827874,
				"element": "O" 
			},
			{
				"x": -2.9905954095,
				"y": -0.8879882529,
				"z": 2.0148158294,
				"element": "O" 
			},
			{
				"x": 0.8938345853,
				"y": 0.1618545956,
				"z": -1.8506011361,
				"element": "H" 
			},
			{
				"x": -0.7895143131,
				"y": -0.3945478756,
				"z": -2.0130174315,
				"element": "H" 
			},
			{
				"x": -0.4574106097,
				"y": 1.1579671155,
				"z": -1.2577340308,
				"element": "H" 
			},
			{
				"x": 1.9479897479,
				"y": -1.9593037857,
				"z": 2.0455783095,
				"element": "H" 
			},
			{
				"x": -3.6995978889,
				"y": 0.1793453645,
				"z": 0.13228856,
				"element": "H" 
			}
		],
		 "valence_orbital": [ 
			{
				"type": "occ",
				"energy": -0.33489,
				"method": "rhf"
			},
			{
				"type": "occ",
				"energy": -0.31591,
				"method": "rhf"
			},
			{
				"type": "occ",
				"energy": -0.2982,
				"method": "rhf"
			},
			{
				"type": "occ",
				"energy": -0.27695,
				"method": "rhf"
			},
			{
				"type": "occ",
				"energy": -0.25498,
				"method": "rhf"
			},
			{
				"type": "unocc",
				"energy": -0.03609,
				"method": "rhf"
			},
			{
				"type": "unocc",
				"energy": 0.00313,
				"method": "rhf"
			},
			{
				"type": "unocc",
				"energy": 0.0751,
				"method": "rhf"
			},
			{
				"type": "unocc",
				"energy": 0.10044,
				"method": "rhf"
			},
			{
				"type": "unocc",
				"energy": 0.10552,
				"method": "rhf"
			}
		],
		"cosmo_sigma_profile": { 
			"-0.025": 0.0,
			"-0.024": 0.0,
			"-0.023": 0.0,
			"-0.022": 0.0,
			"-0.021": 0.0,
			"-0.02": 0.0,
			"-0.019": 0.12518091367,
			"-0.018": 0.712931840025,
			"-0.017": 0.827758672734,
			"-0.016": 0.802368260247,
			"-0.015": 1.01094026431,
			"-0.014": 0.921122504053,
			"-0.013": 0.443442130653,
			"-0.012": 0.578012106142,
			"-0.011": 2.70333334874,
			"-0.01": 2.84104723373,
			"-0.009": 1.86032543717,
			"-0.008": 2.13064326596,
			"-0.007": 2.73100261832,
			"-0.006": 7.12228343859,
			"-0.005": 8.04821388748,
			"-0.004": 7.49095868897,
			"-0.003": 15.3588148806,
			"-0.002": 19.3954049621,
			"-0.001": 12.0807926999,
			"0.0": 7.28580084947,
			"0.001": 5.67632077869,
			"0.002": 5.77283403795,
			"0.003": 5.36710774005,
			"0.004": 4.67646891213,
			"0.005": 5.91423686519,
			"0.006": 4.90954874132,
			"0.007": 2.32074224301,
			"0.008": 2.05721529774,
			"0.009": 1.81634829808,
			"0.01": 3.50605810348,
			"0.011": 5.26354851471,
			"0.012": 4.70379691465,
			"0.013": 2.8037235226,
			"0.014": 2.47139890941,
			"0.015": 1.42022931944,
			"0.016": 0.143792292616,
			"0.017": 0.0,
			"0.018": 0.0,
			"0.019": 0.0,
			"0.02": 0.0,
			"0.021": 0.0,
			"0.022": 0.0,
			"0.023": 0.0,
			"0.024": 0.0,
			"0.025": 0.0
		}
	}
}
