{
	 "smiles": "CC1=C(OC(CCC(O)=O)=N1)C1=CC=C(Br)C=C1", 
	 "Tm": 453.15, 
	 "num_atms": 30, 
	 "gaussian": { 
		 "optdone": 1, 
		 "sigma_profile": "yes", 
		 "theory": "DFT", 
		 "functional": "B3LYP", 
		 "basiset": "6-31G**", 
		 "properties": { 
			 "R2extent": 10736.8325, 
			 "electric_dipole_moment_norm": 4.08752963414, 
			 "electric_quadrupole_moment_norm": 20.4036642462, 
			 "total_energy": -3354.45812838, 
			 "HOMO_LUMO_gap": 0.16838, 
			 "cosmo_polarized_energy": -18.82, 
			 "cosmo_cavitation_energy": 37.3, 
			 "cosmo_dispersion_energy": -26.39, 
			 "cosmo_repulsion_energy": 2.04, 
			 "cosmo_total_nonelectrostatic_energy": 12.94, 
			 "SMD_solvation_energy": 4.45 
		},
		"coords": [
			{
				"x": 1.074575271,
				"y": 2.4381417535,
				"z": 1.9082026356,
				"element": "C" 
			},
			{
				"x": 0.7571497595,
				"y": 1.4032009555,
				"z": 0.8744612035,
				"element": "C" 
			},
			{
				"x": -0.4500695895,
				"y": 0.9372322313,
				"z": 0.4123203051,
				"element": "C" 
			},
			{
				"x": -0.1635606736,
				"y": -0.0223137,
				"z": -0.5428749096,
				"element": "O" 
			},
			{
				"x": 1.191924846,
				"y": -0.0822808635,
				"z": -0.6033424814,
				"element": "C" 
			},
			{
				"x": 1.7982605217,
				"y": -1.0683686675,
				"z": -1.5478353578,
				"element": "C" 
			},
			{
				"x": 0.9643445198,
				"y": -1.2728462508,
				"z": -2.8251984175,
				"element": "C" 
			},
			{
				"x": -0.2685672013,
				"y": -2.1366956797,
				"z": -2.5514185342,
				"element": "C" 
			},
			{
				"x": -1.4519927053,
				"y": -1.6946759796,
				"z": -3.0505876183,
				"element": "O" 
			},
			{
				"x": -0.2130971902,
				"y": -3.1795652186,
				"z": -1.950590923,
				"element": "O" 
			},
			{
				"x": 1.7831909381,
				"y": 0.7416345848,
				"z": 0.2063218537,
				"element": "N" 
			},
			{
				"x": -1.8570726745,
				"y": 1.2051044891,
				"z": 0.6692949325,
				"element": "C" 
			},
			{
				"x": -2.2607497743,
				"y": 2.1992586893,
				"z": 1.580675897,
				"element": "C" 
			},
			{
				"x": -3.6094284293,
				"y": 2.4482310268,
				"z": 1.8200170554,
				"element": "C" 
			},
			{
				"x": -4.5752591852,
				"y": 1.7030791016,
				"z": 1.1458328083,
				"element": "C" 
			},
			{
				"x": -6.4261667479,
				"y": 2.0437302519,
				"z": 1.4708644049,
				"element": "Br" 
			},
			{
				"x": -4.204730249,
				"y": 0.7130216439,
				"z": 0.2366034501,
				"element": "C" 
			},
			{
				"x": -2.855294178,
				"y": 0.4675760876,
				"z": 0.0019648089,
				"element": "C" 
			},
			{
				"x": 2.15746551,
				"y": 2.4870799289,
				"z": 2.0365120067,
				"element": "H" 
			},
			{
				"x": 0.7217402093,
				"y": 3.4341774775,
				"z": 1.6157772461,
				"element": "H" 
			},
			{
				"x": 0.6250900632,
				"y": 2.1989278545,
				"z": 2.878443086,
				"element": "H" 
			},
			{
				"x": 1.8978002429,
				"y": -2.0442084201,
				"z": -1.0562268755,
				"element": "H" 
			},
			{
				"x": 2.8048252772,
				"y": -0.7185343254,
				"z": -1.7882278915,
				"element": "H" 
			},
			{
				"x": 1.5677272014,
				"y": -1.8229380667,
				"z": -3.5558304658,
				"element": "H" 
			},
			{
				"x": 0.7065803405,
				"y": -0.3090134227,
				"z": -3.2779243493,
				"element": "H" 
			},
			{
				"x": -1.339875045,
				"y": -0.8216740576,
				"z": -3.4511572695,
				"element": "H" 
			},
			{
				"x": -1.5219192191,
				"y": 2.7893284734,
				"z": 2.1092911603,
				"element": "H" 
			},
			{
				"x": -3.9070465357,
				"y": 3.2166599478,
				"z": 2.5243432867,
				"element": "H" 
			},
			{
				"x": -4.9627420308,
				"y": 0.136559616,
				"z": -0.2813883172,
				"element": "H" 
			},
			{
				"x": -2.5719032721,
				"y": -0.3047294611,
				"z": -0.70482273,
				"element": "H" 
			}
		],
		 "valence_orbital": [ 
			{
				"type": "occ",
				"energy": -0.28857,
				"method": "rhf"
			},
			{
				"type": "occ",
				"energy": -0.27985,
				"method": "rhf"
			},
			{
				"type": "occ",
				"energy": -0.27088,
				"method": "rhf"
			},
			{
				"type": "occ",
				"energy": -0.26836,
				"method": "rhf"
			},
			{
				"type": "occ",
				"energy": -0.21485,
				"method": "rhf"
			},
			{
				"type": "unocc",
				"energy": -0.04647,
				"method": "rhf"
			},
			{
				"type": "unocc",
				"energy": -0.0182,
				"method": "rhf"
			},
			{
				"type": "unocc",
				"energy": -0.00082,
				"method": "rhf"
			},
			{
				"type": "unocc",
				"energy": 0.00616,
				"method": "rhf"
			},
			{
				"type": "unocc",
				"energy": 0.01993,
				"method": "rhf"
			}
		],
		"cosmo_sigma_profile": { 
			"-0.025": 0.0,
			"-0.024": 0.0,
			"-0.023": 0.0,
			"-0.022": 0.0,
			"-0.021": 0.0,
			"-0.02": 0.0478030986217,
			"-0.019": 0.683928654115,
			"-0.018": 0.845358958108,
			"-0.017": 1.35668185275,
			"-0.016": 0.930654809394,
			"-0.015": 0.555744988636,
			"-0.014": 0.846741991208,
			"-0.013": 1.22592511277,
			"-0.012": 1.15578928431,
			"-0.011": 0.981302451885,
			"-0.01": 0.803730484164,
			"-0.009": 1.15075485807,
			"-0.008": 2.74115796131,
			"-0.007": 10.1429192137,
			"-0.006": 17.5990762796,
			"-0.005": 20.5414060714,
			"-0.004": 19.5171161171,
			"-0.003": 20.111002962,
			"-0.002": 17.9336599562,
			"-0.001": 21.1211134779,
			"0.0": 21.91062004,
			"0.001": 23.6347725399,
			"0.002": 23.6081895771,
			"0.003": 26.163269846,
			"0.004": 19.31057199,
			"0.005": 9.45084270893,
			"0.006": 4.12328177317,
			"0.007": 2.64004020591,
			"0.008": 3.94688321629,
			"0.009": 3.30935759239,
			"0.01": 5.86088300521,
			"0.011": 6.12116920552,
			"0.012": 6.00157967797,
			"0.013": 1.95433249214,
			"0.014": 0.907917383919,
			"0.015": 1.21854373782,
			"0.016": 0.328625262086,
			"0.017": 0.00435138537614,
			"0.018": 0.0,
			"0.019": 0.0,
			"0.02": 0.0,
			"0.021": 0.0,
			"0.022": 0.0,
			"0.023": 0.0,
			"0.024": 0.0,
			"0.025": 0.0
		}
	}
}
