{
	 "smiles": "OCCC1=CC=CC2=CC=CC=C12", 
	 "Tm": 335.15, 
	 "num_atms": 25, 
	 "gaussian": { 
		 "optdone": 1, 
		 "sigma_profile": "yes", 
		 "theory": "DFT", 
		 "functional": "B3LYP", 
		 "basiset": "6-31G**", 
		 "properties": { 
			 "R2extent": 2774.6672, 
			 "electric_dipole_moment_norm": 1.42123295768, 
			 "electric_quadrupole_moment_norm": 8.40243080424, 
			 "total_energy": -539.738854933, 
			 "HOMO_LUMO_gap": 0.17237, 
			 "cosmo_polarized_energy": -7.64, 
			 "cosmo_cavitation_energy": 27.17, 
			 "cosmo_dispersion_energy": -20.07, 
			 "cosmo_repulsion_energy": 1.57, 
			 "cosmo_total_nonelectrostatic_energy": 8.67, 
			 "SMD_solvation_energy": 4.15 
		},
		"coords": [
			{
				"x": 0.4995320991,
				"y": -0.8024899899,
				"z": -3.0101663674,
				"element": "O" 
			},
			{
				"x": 1.5542204502,
				"y": 0.1438228586,
				"z": -2.9479518785,
				"element": "C" 
			},
			{
				"x": 2.5147120744,
				"y": -0.0615706784,
				"z": -1.7591515701,
				"element": "C" 
			},
			{
				"x": 1.8870872712,
				"y": 0.1954474483,
				"z": -0.4031113271,
				"element": "C" 
			},
			{
				"x": 2.0070452831,
				"y": 1.4526126959,
				"z": 0.1629390831,
				"element": "C" 
			},
			{
				"x": 1.4300126402,
				"y": 1.7719045592,
				"z": 1.4128329969,
				"element": "C" 
			},
			{
				"x": 0.7305558609,
				"y": 0.8173159268,
				"z": 2.1119030082,
				"element": "C" 
			},
			{
				"x": 0.5769494331,
				"y": -0.4920008734,
				"z": 1.5845656842,
				"element": "C" 
			},
			{
				"x": -0.1383456532,
				"y": -1.4910368491,
				"z": 2.2990090635,
				"element": "C" 
			},
			{
				"x": -0.2904762488,
				"y": -2.7593767101,
				"z": 1.7884340659,
				"element": "C" 
			},
			{
				"x": 0.2681221703,
				"y": -3.0825936612,
				"z": 0.5297983026,
				"element": "C" 
			},
			{
				"x": 0.9690862582,
				"y": -2.1395998104,
				"z": -0.1902344115,
				"element": "C" 
			},
			{
				"x": 1.1517297479,
				"y": -0.8154941557,
				"z": 0.3063872351,
				"element": "C" 
			},
			{
				"x": -0.0515518545,
				"y": -0.6859691953,
				"z": -2.2245859246,
				"element": "H" 
			},
			{
				"x": 2.1127581303,
				"y": 0.0258207115,
				"z": -3.8826331016,
				"element": "H" 
			},
			{
				"x": 1.1660152959,
				"y": 1.1745228444,
				"z": -2.9234221816,
				"element": "H" 
			},
			{
				"x": 3.3533400243,
				"y": 0.6323471922,
				"z": -1.8928380761,
				"element": "H" 
			},
			{
				"x": 2.933651306,
				"y": -1.0715952157,
				"z": -1.8175964983,
				"element": "H" 
			},
			{
				"x": 2.5708354314,
				"y": 2.2170397202,
				"z": -0.366586153,
				"element": "H" 
			},
			{
				"x": 1.5510336877,
				"y": 2.7720800853,
				"z": 1.8188691844,
				"element": "H" 
			},
			{
				"x": 0.2884622297,
				"y": 1.0482956678,
				"z": 3.0776121729,
				"element": "H" 
			},
			{
				"x": -0.5664600994,
				"y": -1.2307091452,
				"z": 3.2638094811,
				"element": "H" 
			},
			{
				"x": -0.8394125217,
				"y": -3.5123635122,
				"z": 2.3465022689,
				"element": "H" 
			},
			{
				"x": 0.1422307108,
				"y": -4.083150081,
				"z": 0.1261661163,
				"element": "H" 
			},
			{
				"x": 1.3632662729,
				"y": -2.4013598329,
				"z": -1.1648511731,
				"element": "H" 
			}
		],
		 "valence_orbital": [ 
			{
				"type": "occ",
				"energy": -0.3135,
				"method": "rhf"
			},
			{
				"type": "occ",
				"energy": -0.28169,
				"method": "rhf"
			},
			{
				"type": "occ",
				"energy": -0.26614,
				"method": "rhf"
			},
			{
				"type": "occ",
				"energy": -0.24395,
				"method": "rhf"
			},
			{
				"type": "occ",
				"energy": -0.21199,
				"method": "rhf"
			},
			{
				"type": "unocc",
				"energy": -0.03962,
				"method": "rhf"
			},
			{
				"type": "unocc",
				"energy": -0.01072,
				"method": "rhf"
			},
			{
				"type": "unocc",
				"energy": 0.02822,
				"method": "rhf"
			},
			{
				"type": "unocc",
				"energy": 0.08866,
				"method": "rhf"
			},
			{
				"type": "unocc",
				"energy": 0.09726,
				"method": "rhf"
			}
		],
		"cosmo_sigma_profile": { 
			"-0.025": 0.0,
			"-0.024": 0.0,
			"-0.023": 0.0,
			"-0.022": 0.0,
			"-0.021": 0.0,
			"-0.02": 0.0,
			"-0.019": 0.0,
			"-0.018": 0.0,
			"-0.017": 0.0,
			"-0.016": 0.0,
			"-0.015": 0.0,
			"-0.014": 0.0,
			"-0.013": 0.208049516548,
			"-0.012": 0.930937865711,
			"-0.011": 0.428365928742,
			"-0.01": 0.611434819324,
			"-0.009": 1.05865935437,
			"-0.008": 0.761362590016,
			"-0.007": 1.14626105664,
			"-0.006": 6.44138572718,
			"-0.005": 17.5907698665,
			"-0.004": 23.5119194362,
			"-0.003": 24.9514945307,
			"-0.002": 18.6506364442,
			"-0.001": 16.1507664479,
			"0.0": 13.4562692798,
			"0.001": 11.5844228298,
			"0.002": 10.9649326136,
			"0.003": 13.4750668149,
			"0.004": 19.5607191041,
			"0.005": 17.777453037,
			"0.006": 5.4204938928,
			"0.007": 1.22029047428,
			"0.008": 0.839837078266,
			"0.009": 1.31943796758,
			"0.01": 1.27057497855,
			"0.011": 0.816736300249,
			"0.012": 1.2503378782,
			"0.013": 1.75117570381,
			"0.014": 1.97879828015,
			"0.015": 0.472873130622,
			"0.016": 0.0,
			"0.017": 0.0,
			"0.018": 0.0,
			"0.019": 0.0,
			"0.02": 0.0,
			"0.021": 0.0,
			"0.022": 0.0,
			"0.023": 0.0,
			"0.024": 0.0,
			"0.025": 0.0
		}
	}
}
