{
	 "smiles": "CCCCCC(=O)OC1(CCC2C3CCC4=CC(=O)CCC4C3CCC12C)C(C)=O", 
	 "Tm": 397.15, 
	 "num_atms": 68, 
	 "gaussian": { 
		 "optdone": 1, 
		 "sigma_profile": "yes", 
		 "theory": "DFT", 
		 "functional": "B3LYP", 
		 "basiset": "6-31G**", 
		 "properties": { 
			 "R2extent": 16962.8728, 
			 "electric_dipole_moment_norm": 2.93503579535, 
			 "electric_quadrupole_moment_norm": 43.5561637584, 
			 "total_energy": -1314.59183022, 
			 "HOMO_LUMO_gap": 0.186, 
			 "cosmo_polarized_energy": -19.37, 
			 "cosmo_cavitation_energy": 61.46, 
			 "cosmo_dispersion_energy": -40.47, 
			 "cosmo_repulsion_energy": 3.05, 
			 "cosmo_total_nonelectrostatic_energy": 24.04, 
			 "SMD_solvation_energy": 10.14 
		},
		"coords": [
			{
				"x": 2.3630404504,
				"y": 5.1223381452,
				"z": 1.1581956298,
				"element": "C" 
			},
			{
				"x": 0.8915972889,
				"y": 5.3138387005,
				"z": 0.7719458084,
				"element": "C" 
			},
			{
				"x": -0.0989532569,
				"y": 5.1290516294,
				"z": 1.9357494594,
				"element": "C" 
			},
			{
				"x": -0.1362974194,
				"y": 3.731152437,
				"z": 2.5748767221,
				"element": "C" 
			},
			{
				"x": -0.6067831782,
				"y": 2.6304773066,
				"z": 1.6198879688,
				"element": "C" 
			},
			{
				"x": -0.7676712318,
				"y": 1.2857731651,
				"z": 2.2982369561,
				"element": "C" 
			},
			{
				"x": -0.710166446,
				"y": 1.0888919689,
				"z": 3.4950840468,
				"element": "O" 
			},
			{
				"x": -1.0046663882,
				"y": 0.3111170506,
				"z": 1.3900579389,
				"element": "O" 
			},
			{
				"x": -1.2389406687,
				"y": -1.0419423479,
				"z": 1.8883432323,
				"element": "C" 
			},
			{
				"x": 0.1139807761,
				"y": -1.6430016131,
				"z": 2.2959299297,
				"element": "C" 
			},
			{
				"x": 0.8340418592,
				"y": -1.8531179751,
				"z": 0.9523960412,
				"element": "C" 
			},
			{
				"x": -0.2756683207,
				"y": -2.1695971297,
				"z": -0.0958590374,
				"element": "C" 
			},
			{
				"x": -0.1144471504,
				"y": -1.3525129611,
				"z": -1.3942254204,
				"element": "C" 
			},
			{
				"x": 1.2769863067,
				"y": -1.5446032943,
				"z": -2.045365649,
				"element": "C" 
			},
			{
				"x": 1.2387581203,
				"y": -1.3203108981,
				"z": -3.5727358147,
				"element": "C" 
			},
			{
				"x": 0.3943937111,
				"y": -2.4226242904,
				"z": -4.1457116994,
				"element": "C" 
			},
			{
				"x": 0.9105020275,
				"y": -3.3512027786,
				"z": -4.978524601,
				"element": "C" 
			},
			{
				"x": 0.1816046509,
				"y": -4.5636538005,
				"z": -5.3842947108,
				"element": "C" 
			},
			{
				"x": 0.644685799,
				"y": -5.364388047,
				"z": -6.186037449,
				"element": "O" 
			},
			{
				"x": -1.1820809815,
				"y": -4.7834481173,
				"z": -4.7339942071,
				"element": "C" 
			},
			{
				"x": -1.3522885619,
				"y": -4.0348989281,
				"z": -3.4041299844,
				"element": "C" 
			},
			{
				"x": -1.0256323368,
				"y": -2.5391959369,
				"z": -3.6024296744,
				"element": "C" 
			},
			{
				"x": -1.2838447541,
				"y": -1.550840652,
				"z": -2.4174213923,
				"element": "C" 
			},
			{
				"x": -2.6331082311,
				"y": -1.7962019644,
				"z": -1.7012976757,
				"element": "C" 
			},
			{
				"x": -2.6649755575,
				"y": -1.1811923365,
				"z": -0.2956692364,
				"element": "C" 
			},
			{
				"x": -1.6506346287,
				"y": -1.8941267538,
				"z": 0.6312538999,
				"element": "C" 
			},
			{
				"x": -2.2549453728,
				"y": -3.2384956089,
				"z": 1.1002209259,
				"element": "C" 
			},
			{
				"x": -2.3692460669,
				"y": -0.9739996767,
				"z": 2.9469818354,
				"element": "C" 
			},
			{
				"x": -2.2060914579,
				"y": -1.7175606237,
				"z": 4.2544224678,
				"element": "C" 
			},
			{
				"x": -3.3783576271,
				"y": -0.3472424678,
				"z": 2.6856165184,
				"element": "O" 
			},
			{
				"x": 2.5700028909,
				"y": 4.1012114888,
				"z": 1.4957170578,
				"element": "H" 
			},
			{
				"x": 2.6487378605,
				"y": 5.8008100234,
				"z": 1.970380216,
				"element": "H" 
			},
			{
				"x": 3.0230302157,
				"y": 5.3255750694,
				"z": 0.3085162598,
				"element": "H" 
			},
			{
				"x": 0.7583592195,
				"y": 6.3248725828,
				"z": 0.3668295505,
				"element": "H" 
			},
			{
				"x": 0.6369904925,
				"y": 4.6313051051,
				"z": -0.0497603435,
				"element": "H" 
			},
			{
				"x": 0.142601378,
				"y": 5.8588515992,
				"z": 2.7199206237,
				"element": "H" 
			},
			{
				"x": -1.1082550075,
				"y": 5.3854328658,
				"z": 1.5853088188,
				"element": "H" 
			},
			{
				"x": 0.8497506209,
				"y": 3.4659450874,
				"z": 2.9732454325,
				"element": "H" 
			},
			{
				"x": -0.8072858502,
				"y": 3.7477214515,
				"z": 3.4398006703,
				"element": "H" 
			},
			{
				"x": -1.5828899325,
				"y": 2.8841773475,
				"z": 1.183535875,
				"element": "H" 
			},
			{
				"x": 0.0710093637,
				"y": 2.5016917777,
				"z": 0.7686644619,
				"element": "H" 
			},
			{
				"x": 0.6577324084,
				"y": -0.9973843755,
				"z": 2.9877527868,
				"element": "H" 
			},
			{
				"x": -0.0463936752,
				"y": -2.5987573096,
				"z": 2.8031058119,
				"element": "H" 
			},
			{
				"x": 1.5942918435,
				"y": -2.637158226,
				"z": 1.0110077021,
				"element": "H" 
			},
			{
				"x": 1.3525643793,
				"y": -0.9294791799,
				"z": 0.6762243281,
				"element": "H" 
			},
			{
				"x": -0.2316731229,
				"y": -3.2352684301,
				"z": -0.3578183153,
				"element": "H" 
			},
			{
				"x": -0.1765277121,
				"y": -0.3000774144,
				"z": -1.0902100385,
				"element": "H" 
			},
			{
				"x": 1.6439868856,
				"y": -2.563954586,
				"z": -1.8669005786,
				"element": "H" 
			},
			{
				"x": 2.0072102739,
				"y": -0.8691086629,
				"z": -1.5876026911,
				"element": "H" 
			},
			{
				"x": 2.2467489159,
				"y": -1.3488722247,
				"z": -3.9971794962,
				"element": "H" 
			},
			{
				"x": 0.8184617141,
				"y": -0.3293377669,
				"z": -3.7931596288,
				"element": "H" 
			},
			{
				"x": 1.9255186128,
				"y": -3.2610726622,
				"z": -5.3586750319,
				"element": "H" 
			},
			{
				"x": -1.9410021779,
				"y": -4.4302549688,
				"z": -5.4487434737,
				"element": "H" 
			},
			{
				"x": -1.3340875637,
				"y": -5.8617442934,
				"z": -4.6281407088,
				"element": "H" 
			},
			{
				"x": -0.6870309657,
				"y": -4.4654586489,
				"z": -2.6442842917,
				"element": "H" 
			},
			{
				"x": -2.3774510772,
				"y": -4.1709380696,
				"z": -3.0488505772,
				"element": "H" 
			},
			{
				"x": -1.701261981,
				"y": -2.196126601,
				"z": -4.4042507309,
				"element": "H" 
			},
			{
				"x": -1.3766715757,
				"y": -0.5735079808,
				"z": -2.9082103388,
				"element": "H" 
			},
			{
				"x": -2.8323687727,
				"y": -2.8682470893,
				"z": -1.6150733464,
				"element": "H" 
			},
			{
				"x": -3.4516076834,
				"y": -1.3916876071,
				"z": -2.308456015,
				"element": "H" 
			},
			{
				"x": -3.6686570804,
				"y": -1.2588074277,
				"z": 0.1330839373,
				"element": "H" 
			},
			{
				"x": -2.4396264487,
				"y": -0.1139353214,
				"z": -0.3513933974,
				"element": "H" 
			},
			{
				"x": -3.1886328028,
				"y": -3.0929392321,
				"z": 1.6526324844,
				"element": "H" 
			},
			{
				"x": -1.5658610222,
				"y": -3.8096929752,
				"z": 1.7300207877,
				"element": "H" 
			},
			{
				"x": -2.4836989192,
				"y": -3.8679163648,
				"z": 0.2357310166,
				"element": "H" 
			},
			{
				"x": -3.1115732069,
				"y": -1.5863135993,
				"z": 4.848420131,
				"element": "H" 
			},
			{
				"x": -1.3463036023,
				"y": -1.3126304654,
				"z": 4.7962927457,
				"element": "H" 
			},
			{
				"x": -2.0267282493,
				"y": -2.7855051167,
				"z": 4.0918154772,
				"element": "H" 
			}
		],
		 "valence_orbital": [ 
			{
				"type": "occ",
				"energy": -0.29101,
				"method": "rhf"
			},
			{
				"type": "occ",
				"energy": -0.2773,
				"method": "rhf"
			},
			{
				"type": "occ",
				"energy": -0.25153,
				"method": "rhf"
			},
			{
				"type": "occ",
				"energy": -0.24502,
				"method": "rhf"
			},
			{
				"type": "occ",
				"energy": -0.22888,
				"method": "rhf"
			},
			{
				"type": "unocc",
				"energy": -0.04288,
				"method": "rhf"
			},
			{
				"type": "unocc",
				"energy": -0.02254,
				"method": "rhf"
			},
			{
				"type": "unocc",
				"energy": 0.00551,
				"method": "rhf"
			},
			{
				"type": "unocc",
				"energy": 0.05074,
				"method": "rhf"
			},
			{
				"type": "unocc",
				"energy": 0.06503,
				"method": "rhf"
			}
		],
		"cosmo_sigma_profile": { 
			"-0.025": 0.0,
			"-0.024": 0.0,
			"-0.023": 0.0,
			"-0.022": 0.0,
			"-0.021": 0.0,
			"-0.02": 0.0,
			"-0.019": 0.0,
			"-0.018": 0.0,
			"-0.017": 0.0,
			"-0.016": 0.0,
			"-0.015": 0.0,
			"-0.014": 0.0,
			"-0.013": 0.0,
			"-0.012": 0.0,
			"-0.011": 0.0,
			"-0.01": 0.0,
			"-0.009": 0.0687468059748,
			"-0.008": 0.289465563139,
			"-0.007": 1.04106739075,
			"-0.006": 3.81246594508,
			"-0.005": 15.6927037779,
			"-0.004": 35.589492546,
			"-0.003": 63.1837233547,
			"-0.002": 84.7578350548,
			"-0.001": 76.9852971785,
			"0.0": 57.9660383473,
			"0.001": 40.120447632,
			"0.002": 18.6453707572,
			"0.003": 10.5586809427,
			"0.004": 7.2375824966,
			"0.005": 6.80684957373,
			"0.006": 4.38352493616,
			"0.007": 5.7733290831,
			"0.008": 4.88496054945,
			"0.009": 5.83217481514,
			"0.01": 4.68021801827,
			"0.011": 6.57816610317,
			"0.012": 8.01201303537,
			"0.013": 6.25847075771,
			"0.014": 3.81309615746,
			"0.015": 0.945853255957,
			"0.016": 0.0,
			"0.017": 0.0,
			"0.018": 0.0,
			"0.019": 0.0,
			"0.02": 0.0,
			"0.021": 0.0,
			"0.022": 0.0,
			"0.023": 0.0,
			"0.024": 0.0,
			"0.025": 0.0
		}
	}
}
