{
	 "smiles": "ClCCCN1C(=O)NC2=C1C=CC=C2", 
	 "Tm": 393.15, 
	 "num_atms": 25, 
	 "gaussian": { 
		 "optdone": 1, 
		 "sigma_profile": "yes", 
		 "theory": "DFT", 
		 "functional": "B3LYP", 
		 "basiset": "6-31G**", 
		 "properties": { 
			 "R2extent": 4738.1744, 
			 "electric_dipole_moment_norm": 3.29783144051, 
			 "electric_quadrupole_moment_norm": 17.1500963435, 
			 "total_energy": -1032.65814606, 
			 "HOMO_LUMO_gap": 0.19969, 
			 "cosmo_polarized_energy": -15.02, 
			 "cosmo_cavitation_energy": 30.61, 
			 "cosmo_dispersion_energy": -22.17, 
			 "cosmo_repulsion_energy": 1.77, 
			 "cosmo_total_nonelectrostatic_energy": 10.21, 
			 "SMD_solvation_energy": 4.95 
		},
		"coords": [
			{
				"x": 3.3121152647,
				"y": 2.0411096468,
				"z": -4.2908440736,
				"element": "Cl" 
			},
			{
				"x": 2.3283975648,
				"y": 0.6084429677,
				"z": -3.7635385524,
				"element": "C" 
			},
			{
				"x": 2.0924676381,
				"y": 0.6144639753,
				"z": -2.258951334,
				"element": "C" 
			},
			{
				"x": 1.2363195265,
				"y": -0.5911619596,
				"z": -1.8309506295,
				"element": "C" 
			},
			{
				"x": 0.9928807264,
				"y": -0.6269805566,
				"z": -0.4014727292,
				"element": "N" 
			},
			{
				"x": 1.7471138634,
				"y": -1.4345534312,
				"z": 0.4580248738,
				"element": "C" 
			},
			{
				"x": 2.6474406743,
				"y": -2.1971697038,
				"z": 0.1477394679,
				"element": "O" 
			},
			{
				"x": 1.2402810357,
				"y": -1.1775700447,
				"z": 1.7289239385,
				"element": "N" 
			},
			{
				"x": 0.2117473141,
				"y": -0.2428257349,
				"z": 1.6806591054,
				"element": "C" 
			},
			{
				"x": 0.0579891788,
				"y": 0.1114030019,
				"z": 0.3225364725,
				"element": "C" 
			},
			{
				"x": -0.9032214508,
				"y": 1.034706854,
				"z": -0.0720342739,
				"element": "C" 
			},
			{
				"x": -1.7111936829,
				"y": 1.5996692115,
				"z": 0.9241944436,
				"element": "C" 
			},
			{
				"x": -1.556406066,
				"y": 1.2484545553,
				"z": 2.2682565781,
				"element": "C" 
			},
			{
				"x": -0.5878577101,
				"y": 0.3172523534,
				"z": 2.6673588057,
				"element": "C" 
			},
			{
				"x": 2.8817008488,
				"y": -0.2767454429,
				"z": -4.0835073476,
				"element": "H" 
			},
			{
				"x": 1.3924017557,
				"y": 0.6602610424,
				"z": -4.3241529889,
				"element": "H" 
			},
			{
				"x": 1.5988065653,
				"y": 1.5472034537,
				"z": -1.96677694,
				"element": "H" 
			},
			{
				"x": 3.0517835386,
				"y": 0.5743520311,
				"z": -1.73384747,
				"element": "H" 
			},
			{
				"x": 1.7480737463,
				"y": -1.5262580482,
				"z": -2.0756370313,
				"element": "H" 
			},
			{
				"x": 0.270227203,
				"y": -0.587157398,
				"z": -2.3500298135,
				"element": "H" 
			},
			{
				"x": 1.607364819,
				"y": -1.6381880737,
				"z": 2.545753007,
				"element": "H" 
			},
			{
				"x": -1.0264243668,
				"y": 1.3124244731,
				"z": -1.113759329,
				"element": "H" 
			},
			{
				"x": -2.4687714598,
				"y": 2.3243378716,
				"z": 0.6427794557,
				"element": "H" 
			},
			{
				"x": -2.1950737219,
				"y": 1.7029439876,
				"z": 3.0190687737,
				"element": "H" 
			},
			{
				"x": -0.4685628053,
				"y": 0.0434849681,
				"z": 3.711007591,
				"element": "H" 
			}
		],
		 "valence_orbital": [ 
			{
				"type": "occ",
				"energy": -0.29665,
				"method": "rhf"
			},
			{
				"type": "occ",
				"energy": -0.29535,
				"method": "rhf"
			},
			{
				"type": "occ",
				"energy": -0.27282,
				"method": "rhf"
			},
			{
				"type": "occ",
				"energy": -0.24082,
				"method": "rhf"
			},
			{
				"type": "occ",
				"energy": -0.21008,
				"method": "rhf"
			},
			{
				"type": "unocc",
				"energy": -0.01039,
				"method": "rhf"
			},
			{
				"type": "unocc",
				"energy": 0.00818,
				"method": "rhf"
			},
			{
				"type": "unocc",
				"energy": 0.01849,
				"method": "rhf"
			},
			{
				"type": "unocc",
				"energy": 0.06066,
				"method": "rhf"
			},
			{
				"type": "unocc",
				"energy": 0.07934,
				"method": "rhf"
			}
		],
		"cosmo_sigma_profile": { 
			"-0.025": 0.0,
			"-0.024": 0.0,
			"-0.023": 0.0,
			"-0.022": 0.0,
			"-0.021": 0.0,
			"-0.02": 0.0,
			"-0.019": 0.0,
			"-0.018": 0.0,
			"-0.017": 0.0386564005974,
			"-0.016": 1.28518013555,
			"-0.015": 1.060392342,
			"-0.014": 1.24648033565,
			"-0.013": 0.928507607691,
			"-0.012": 0.934188351137,
			"-0.011": 0.951999726926,
			"-0.01": 0.785657563346,
			"-0.009": 1.20605915378,
			"-0.008": 2.0028026691,
			"-0.007": 11.9024510968,
			"-0.006": 15.8398081663,
			"-0.005": 17.4102799587,
			"-0.004": 19.2501181466,
			"-0.003": 16.4750037392,
			"-0.002": 14.9349876351,
			"-0.001": 15.8665843943,
			"0.0": 14.746563793,
			"0.001": 14.3282250504,
			"0.002": 13.3834029644,
			"0.003": 11.7093025322,
			"0.004": 12.9195253275,
			"0.005": 15.040536757,
			"0.006": 16.1374513533,
			"0.007": 8.15482031266,
			"0.008": 1.48105346586,
			"0.009": 1.25822204201,
			"0.01": 1.07846210629,
			"0.011": 1.15242248856,
			"0.012": 1.71184113035,
			"0.013": 4.37443770581,
			"0.014": 5.1705533733,
			"0.015": 0.363746402629,
			"0.016": 0.0,
			"0.017": 0.0,
			"0.018": 0.0,
			"0.019": 0.0,
			"0.02": 0.0,
			"0.021": 0.0,
			"0.022": 0.0,
			"0.023": 0.0,
			"0.024": 0.0,
			"0.025": 0.0
		}
	}
}
