{
	 "smiles": "OC1=CC=C2OC=C(C2=C1)[N+]([O-])=O", 
	 "Tm": 437.15, 
	 "num_atms": 18, 
	 "gaussian": { 
		 "optdone": 1, 
		 "sigma_profile": "yes", 
		 "theory": "DFT", 
		 "functional": "B3LYP", 
		 "basiset": "6-31G**", 
		 "properties": { 
			 "R2extent": 2478.8088, 
			 "electric_dipole_moment_norm": 5.56425673563, 
			 "electric_quadrupole_moment_norm": 5.48174213093, 
			 "total_energy": -663.385098715, 
			 "HOMO_LUMO_gap": 0.14938, 
			 "cosmo_polarized_energy": -13.67, 
			 "cosmo_cavitation_energy": 23.74, 
			 "cosmo_dispersion_energy": -17.8, 
			 "cosmo_repulsion_energy": 1.38, 
			 "cosmo_total_nonelectrostatic_energy": 7.33, 
			 "SMD_solvation_energy": 7.4 
		},
		"coords": [
			{
				"x": 1.7855538954,
				"y": 1.2536179371,
				"z": -2.3633588199,
				"element": "O" 
			},
			{
				"x": 1.4475997938,
				"y": 0.2747791495,
				"z": -1.4739504092,
				"element": "C" 
			},
			{
				"x": 1.9556417348,
				"y": -1.0374860672,
				"z": -1.590973437,
				"element": "C" 
			},
			{
				"x": 1.607299957,
				"y": -2.0323931722,
				"z": -0.6803804576,
				"element": "C" 
			},
			{
				"x": 0.7414954982,
				"y": -1.6631767568,
				"z": 0.3373705403,
				"element": "C" 
			},
			{
				"x": 0.2678306993,
				"y": -2.4867582056,
				"z": 1.343724929,
				"element": "O" 
			},
			{
				"x": -0.5416599827,
				"y": -1.7311814008,
				"z": 2.1155554898,
				"element": "C" 
			},
			{
				"x": -0.6107392519,
				"y": -0.4502285177,
				"z": 1.6481440201,
				"element": "C" 
			},
			{
				"x": 0.2232114255,
				"y": -0.3634000639,
				"z": 0.4738476437,
				"element": "C" 
			},
			{
				"x": 0.5761752383,
				"y": 0.6306254005,
				"z": -0.4427183213,
				"element": "C" 
			},
			{
				"x": -1.3910211404,
				"y": 0.5830839653,
				"z": 2.2584038264,
				"element": "N" 
			},
			{
				"x": -1.3625461622,
				"y": 1.6979160684,
				"z": 1.7311076311,
				"element": "O" 
			},
			{
				"x": -2.0376103706,
				"y": 0.2892814221,
				"z": 3.2680548989,
				"element": "O" 
			},
			{
				"x": 2.3882190001,
				"y": 0.8938243588,
				"z": -3.0265341966,
				"element": "H" 
			},
			{
				"x": 2.632078417,
				"y": -1.27507896,
				"z": -2.4084207382,
				"element": "H" 
			},
			{
				"x": 1.9921877606,
				"y": -3.0425498297,
				"z": -0.7620369048,
				"element": "H" 
			},
			{
				"x": -1.0096973606,
				"y": -2.2077241257,
				"z": 2.962180693,
				"element": "H" 
			},
			{
				"x": 0.1935808485,
				"y": 1.6395487981,
				"z": -0.3637163876,
				"element": "H" 
			}
		],
		 "valence_orbital": [ 
			{
				"type": "occ",
				"energy": -0.30688,
				"method": "rhf"
			},
			{
				"type": "occ",
				"energy": -0.30593,
				"method": "rhf"
			},
			{
				"type": "occ",
				"energy": -0.29055,
				"method": "rhf"
			},
			{
				"type": "occ",
				"energy": -0.25063,
				"method": "rhf"
			},
			{
				"type": "occ",
				"energy": -0.23507,
				"method": "rhf"
			},
			{
				"type": "unocc",
				"energy": -0.08569,
				"method": "rhf"
			},
			{
				"type": "unocc",
				"energy": -0.037,
				"method": "rhf"
			},
			{
				"type": "unocc",
				"energy": 0.00315,
				"method": "rhf"
			},
			{
				"type": "unocc",
				"energy": 0.05568,
				"method": "rhf"
			},
			{
				"type": "unocc",
				"energy": 0.05697,
				"method": "rhf"
			}
		],
		"cosmo_sigma_profile": { 
			"-0.025": 0.0,
			"-0.024": 0.0,
			"-0.023": 0.0,
			"-0.022": 0.0,
			"-0.021": 0.0,
			"-0.02": 0.0,
			"-0.019": 0.0189979254644,
			"-0.018": 0.706318726573,
			"-0.017": 1.50787036154,
			"-0.016": 1.05638896872,
			"-0.015": 0.803495434827,
			"-0.014": 1.15266771082,
			"-0.013": 0.805610768225,
			"-0.012": 2.47890823575,
			"-0.011": 2.48933779562,
			"-0.01": 2.62246926401,
			"-0.009": 2.44485491509,
			"-0.008": 4.33744647101,
			"-0.007": 5.29231548867,
			"-0.006": 6.67148050266,
			"-0.005": 7.89701136649,
			"-0.004": 8.115235896,
			"-0.003": 11.9886772655,
			"-0.002": 12.3308135616,
			"-0.001": 11.53988117,
			"0.0": 11.3455310411,
			"0.001": 12.9824961611,
			"0.002": 15.9070387728,
			"0.003": 16.7322239917,
			"0.004": 7.04967085513,
			"0.005": 6.57156603077,
			"0.006": 5.58836158156,
			"0.007": 8.01066387746,
			"0.008": 9.84687751544,
			"0.009": 5.80759439649,
			"0.01": 4.99001350622,
			"0.011": 2.135839991,
			"0.012": 0.196887206717,
			"0.013": 0.0,
			"0.014": 0.0,
			"0.015": 0.0,
			"0.016": 0.0,
			"0.017": 0.0,
			"0.018": 0.0,
			"0.019": 0.0,
			"0.02": 0.0,
			"0.021": 0.0,
			"0.022": 0.0,
			"0.023": 0.0,
			"0.024": 0.0,
			"0.025": 0.0
		}
	}
}
