{
	 "smiles": "OCC(O)COP(O)(O)=O", 
	 "Tm": 248.15, 
	 "num_atms": 19, 
	 "gaussian": { 
		 "optdone": 1, 
		 "sigma_profile": "yes", 
		 "theory": "DFT", 
		 "functional": "B3LYP", 
		 "basiset": "6-31G**", 
		 "properties": { 
			 "R2extent": 1939.5602, 
			 "electric_dipole_moment_norm": 8.00621234168, 
			 "electric_quadrupole_moment_norm": 10.6386949717, 
			 "total_energy": -912.506970409, 
			 "HOMO_LUMO_gap": 0.31223, 
			 "cosmo_polarized_energy": -22.98, 
			 "cosmo_cavitation_energy": 23.33, 
			 "cosmo_dispersion_energy": -18.37, 
			 "cosmo_repulsion_energy": 1.52, 
			 "cosmo_total_nonelectrostatic_energy": 6.48, 
			 "SMD_solvation_energy": 6.66 
		},
		"coords": [
			{
				"x": -1.6059001336,
				"y": -2.7960449219,
				"z": -1.132459171,
				"element": "O" 
			},
			{
				"x": -1.0345826978,
				"y": -2.5777365093,
				"z": 0.1561825771,
				"element": "C" 
			},
			{
				"x": -0.1917254171,
				"y": -1.3110872981,
				"z": 0.0358907722,
				"element": "C" 
			},
			{
				"x": 0.7802292123,
				"y": -1.4896519803,
				"z": -0.9986460078,
				"element": "O" 
			},
			{
				"x": -1.0803138521,
				"y": -0.0794602469,
				"z": -0.2201369385,
				"element": "C" 
			},
			{
				"x": -0.3701564807,
				"y": 1.0596728597,
				"z": -0.7171493106,
				"element": "O" 
			},
			{
				"x": 0.9162113834,
				"y": 1.7308287814,
				"z": 0.0063167788,
				"element": "P" 
			},
			{
				"x": 2.1229326508,
				"y": 0.7593842177,
				"z": -0.373206657,
				"element": "O" 
			},
			{
				"x": 0.6660996366,
				"y": 1.4333427474,
				"z": 1.5900632673,
				"element": "O" 
			},
			{
				"x": 1.0866454475,
				"y": 3.1610019978,
				"z": -0.3037535356,
				"element": "O" 
			},
			{
				"x": -1.9723310871,
				"y": -3.6871389974,
				"z": -1.1690633946,
				"element": "H" 
			},
			{
				"x": -0.3815789678,
				"y": -3.4096283994,
				"z": 0.45079623,
				"element": "H" 
			},
			{
				"x": -1.8079082747,
				"y": -2.4521277635,
				"z": 0.9291312116,
				"element": "H" 
			},
			{
				"x": 0.3822660348,
				"y": -1.168278461,
				"z": 0.9562804655,
				"element": "H" 
			},
			{
				"x": 0.2964566299,
				"y": -1.7639123509,
				"z": -1.7933652071,
				"element": "H" 
			},
			{
				"x": -1.8193338252,
				"y": -0.3115252107,
				"z": -0.9903687142,
				"element": "H" 
			},
			{
				"x": -1.6048256952,
				"y": 0.1791010526,
				"z": 0.707062107,
				"element": "H" 
			},
			{
				"x": 1.8051671462,
				"y": -0.0713158955,
				"z": -0.7989598253,
				"element": "H" 
			},
			{
				"x": 0.58134829,
				"y": 2.2788763784,
				"z": 2.0526853521,
				"element": "H" 
			}
		],
		 "valence_orbital": [ 
			{
				"type": "occ",
				"energy": -0.31486,
				"method": "rhf"
			},
			{
				"type": "occ",
				"energy": -0.30687,
				"method": "rhf"
			},
			{
				"type": "occ",
				"energy": -0.29946,
				"method": "rhf"
			},
			{
				"type": "occ",
				"energy": -0.28274,
				"method": "rhf"
			},
			{
				"type": "occ",
				"energy": -0.27774,
				"method": "rhf"
			},
			{
				"type": "unocc",
				"energy": 0.03449,
				"method": "rhf"
			},
			{
				"type": "unocc",
				"energy": 0.05344,
				"method": "rhf"
			},
			{
				"type": "unocc",
				"energy": 0.07559,
				"method": "rhf"
			},
			{
				"type": "unocc",
				"energy": 0.09401,
				"method": "rhf"
			},
			{
				"type": "unocc",
				"energy": 0.10985,
				"method": "rhf"
			}
		],
		"cosmo_sigma_profile": { 
			"-0.025": 0.0,
			"-0.024": 0.0,
			"-0.023": 0.0,
			"-0.022": 0.0,
			"-0.021": 0.0,
			"-0.02": 0.0,
			"-0.019": 0.487537871717,
			"-0.018": 1.05330502679,
			"-0.017": 1.1284636954,
			"-0.016": 1.68391321417,
			"-0.015": 2.31614548869,
			"-0.014": 2.68803627823,
			"-0.013": 1.82527803959,
			"-0.012": 2.08675601178,
			"-0.011": 1.94936253626,
			"-0.01": 2.91323558134,
			"-0.009": 2.36782364798,
			"-0.008": 1.88249406958,
			"-0.007": 5.86276489153,
			"-0.006": 11.9514780235,
			"-0.005": 15.640193083,
			"-0.004": 13.4890459195,
			"-0.003": 10.6225732694,
			"-0.002": 7.08237291422,
			"-0.001": 7.2757644311,
			"0.0": 7.39843189913,
			"0.001": 5.99444518943,
			"0.002": 5.83406580807,
			"0.003": 5.75922922226,
			"0.004": 4.98359194084,
			"0.005": 5.7252797082,
			"0.006": 5.09013529283,
			"0.007": 5.92944603346,
			"0.008": 7.08833974815,
			"0.009": 6.21556212834,
			"0.01": 6.77601767347,
			"0.011": 4.39478414012,
			"0.012": 1.43283345516,
			"0.013": 3.1653391041,
			"0.014": 7.41907818804,
			"0.015": 2.17639689267,
			"0.016": 0.0,
			"0.017": 0.0,
			"0.018": 0.0,
			"0.019": 0.0,
			"0.02": 0.0,
			"0.021": 0.0,
			"0.022": 0.0,
			"0.023": 0.0,
			"0.024": 0.0,
			"0.025": 0.0
		}
	}
}
