{
	 "smiles": "OC(=O)C1=CC=C(OCC2=CC=NC=C2)C=C1", 
	 "Tm": 552.15, 
	 "num_atms": 28, 
	 "gaussian": { 
		 "optdone": 1, 
		 "sigma_profile": "yes", 
		 "theory": "DFT", 
		 "functional": "B3LYP", 
		 "basiset": "6-31G**", 
		 "properties": { 
			 "R2extent": 5788.7214, 
			 "electric_dipole_moment_norm": 2.83488063064, 
			 "electric_quadrupole_moment_norm": 15.9410687355, 
			 "total_energy": -782.440156129, 
			 "HOMO_LUMO_gap": 0.19597, 
			 "cosmo_polarized_energy": -15.37, 
			 "cosmo_cavitation_energy": 33.19, 
			 "cosmo_dispersion_energy": -23.79, 
			 "cosmo_repulsion_energy": 1.84, 
			 "cosmo_total_nonelectrostatic_energy": 11.25, 
			 "SMD_solvation_energy": 5.66 
		},
		"coords": [
			{
				"x": 2.2294957548,
				"y": -0.4763569657,
				"z": 4.6809768791,
				"element": "O" 
			},
			{
				"x": 1.8508995275,
				"y": -1.5314275334,
				"z": 3.912091803,
				"element": "C" 
			},
			{
				"x": 2.0886117016,
				"y": -2.679242478,
				"z": 4.2377810098,
				"element": "O" 
			},
			{
				"x": 1.1404125638,
				"y": -1.1277748336,
				"z": 2.677369111,
				"element": "C" 
			},
			{
				"x": 0.8981895134,
				"y": 0.2114383514,
				"z": 2.3508115716,
				"element": "C" 
			},
			{
				"x": 0.2262371897,
				"y": 0.5504344691,
				"z": 1.1775332278,
				"element": "C" 
			},
			{
				"x": -0.215134268,
				"y": -0.4653278039,
				"z": 0.318732891,
				"element": "C" 
			},
			{
				"x": -0.8916324795,
				"y": -0.2576793983,
				"z": -0.849973929,
				"element": "O" 
			},
			{
				"x": -1.320833399,
				"y": 1.0577099524,
				"z": -1.1872145184,
				"element": "C" 
			},
			{
				"x": -0.2330554102,
				"y": 1.9330036351,
				"z": -1.7774594134,
				"element": "C" 
			},
			{
				"x": -0.3385777112,
				"y": 3.326382489,
				"z": -1.7295628634,
				"element": "C" 
			},
			{
				"x": 0.652952755,
				"y": 4.1001326025,
				"z": -2.3334103899,
				"element": "C" 
			},
			{
				"x": 1.7191349153,
				"y": 3.5876058569,
				"z": -2.9598847789,
				"element": "N" 
			},
			{
				"x": 1.8128371209,
				"y": 2.2522765286,
				"z": -2.9967425886,
				"element": "C" 
			},
			{
				"x": 0.8744288199,
				"y": 1.388148363,
				"z": -2.4314929134,
				"element": "C" 
			},
			{
				"x": 0.0286474716,
				"y": -1.8118015276,
				"z": 0.6364945409,
				"element": "C" 
			},
			{
				"x": 0.6995349733,
				"y": -2.1360227206,
				"z": 1.80381253,
				"element": "C" 
			},
			{
				"x": 2.6799246681,
				"y": -0.8635641647,
				"z": 5.4491315404,
				"element": "H" 
			},
			{
				"x": 1.2434530879,
				"y": 0.9948500505,
				"z": 3.0159031054,
				"element": "H" 
			},
			{
				"x": 0.073436269,
				"y": 1.5946160875,
				"z": 0.9343577514,
				"element": "H" 
			},
			{
				"x": -1.7842508818,
				"y": 1.5470992596,
				"z": -0.3210451864,
				"element": "H" 
			},
			{
				"x": -2.1072371959,
				"y": 0.9018995472,
				"z": -1.9337559851,
				"element": "H" 
			},
			{
				"x": -1.1756493017,
				"y": 3.8079063299,
				"z": -1.2302008741,
				"element": "H" 
			},
			{
				"x": 0.5885130196,
				"y": 5.1866444852,
				"z": -2.3061257822,
				"element": "H" 
			},
			{
				"x": 2.685648633,
				"y": 1.8480290502,
				"z": -3.5066275208,
				"element": "H" 
			},
			{
				"x": 1.0050453932,
				"y": 0.3130918114,
				"z": -2.4919496655,
				"element": "H" 
			},
			{
				"x": -0.3247343325,
				"y": -2.5775675206,
				"z": -0.0458799966,
				"element": "H" 
			},
			{
				"x": 0.8929016021,
				"y": -3.1707039231,
				"z": 2.0658304442,
				"element": "H" 
			}
		],
		 "valence_orbital": [ 
			{
				"type": "occ",
				"energy": -0.27304,
				"method": "rhf"
			},
			{
				"type": "occ",
				"energy": -0.27023,
				"method": "rhf"
			},
			{
				"type": "occ",
				"energy": -0.26417,
				"method": "rhf"
			},
			{
				"type": "occ",
				"energy": -0.25993,
				"method": "rhf"
			},
			{
				"type": "occ",
				"energy": -0.23754,
				"method": "rhf"
			},
			{
				"type": "unocc",
				"energy": -0.04157,
				"method": "rhf"
			},
			{
				"type": "unocc",
				"energy": -0.03393,
				"method": "rhf"
			},
			{
				"type": "unocc",
				"energy": -0.0207,
				"method": "rhf"
			},
			{
				"type": "unocc",
				"energy": -0.01158,
				"method": "rhf"
			},
			{
				"type": "unocc",
				"energy": 0.06325,
				"method": "rhf"
			}
		],
		"cosmo_sigma_profile": { 
			"-0.025": 0.0,
			"-0.024": 0.0,
			"-0.023": 0.0,
			"-0.022": 0.0,
			"-0.021": 0.0,
			"-0.02": 0.0,
			"-0.019": 0.00835511046123,
			"-0.018": 0.515683272313,
			"-0.017": 1.10786397287,
			"-0.016": 0.673017655621,
			"-0.015": 0.605767917519,
			"-0.014": 1.02014566806,
			"-0.013": 0.597418840817,
			"-0.012": 0.824151685346,
			"-0.011": 0.455460668241,
			"-0.01": 0.721583252985,
			"-0.009": 0.620213333129,
			"-0.008": 3.42670227314,
			"-0.007": 12.1493909406,
			"-0.006": 20.9386076129,
			"-0.005": 17.640480286,
			"-0.004": 16.2993439912,
			"-0.003": 14.124848395,
			"-0.002": 13.496120076,
			"-0.001": 16.1128480826,
			"0.0": 17.1556660751,
			"0.001": 21.9197508419,
			"0.002": 28.5951369246,
			"0.003": 22.8764597621,
			"0.004": 11.3583382334,
			"0.005": 7.0558299791,
			"0.006": 5.08064435653,
			"0.007": 4.67676476521,
			"0.008": 5.37292874811,
			"0.009": 2.8036564847,
			"0.01": 3.19342186021,
			"0.011": 3.37396747961,
			"0.012": 6.55415482568,
			"0.013": 1.42523341017,
			"0.014": 1.20755420244,
			"0.015": 0.614272267215,
			"0.016": 0.898558633827,
			"0.017": 0.415037517536,
			"0.018": 0.0,
			"0.019": 0.0,
			"0.02": 0.0,
			"0.021": 0.0,
			"0.022": 0.0,
			"0.023": 0.0,
			"0.024": 0.0,
			"0.025": 0.0
		}
	}
}
