{
	 "smiles": "CC1=CC(C)=C(NS(=O)(=O)C2=CNC(=C2)C(O)=O)C=C1", 
	 "Tm": 492.15, 
	 "num_atms": 34, 
	 "gaussian": { 
		 "optdone": 1, 
		 "sigma_profile": "yes", 
		 "theory": "DFT", 
		 "functional": "B3LYP", 
		 "basiset": "6-31G**", 
		 "properties": { 
			 "R2extent": 8839.6252, 
			 "electric_dipole_moment_norm": 4.83880634971, 
			 "electric_quadrupole_moment_norm": 35.4684218531, 
			 "total_energy": -1312.3584532, 
			 "HOMO_LUMO_gap": 0.17357, 
			 "cosmo_polarized_energy": -25.07, 
			 "cosmo_cavitation_energy": 40.49, 
			 "cosmo_dispersion_energy": -28.81, 
			 "cosmo_repulsion_energy": 2.18, 
			 "cosmo_total_nonelectrostatic_energy": 13.86, 
			 "SMD_solvation_energy": 7.47 
		},
		"coords": [
			{
				"x": -5.2041777509,
				"y": 2.5245323157,
				"z": -2.4736240852,
				"element": "C" 
			},
			{
				"x": -3.8232136993,
				"y": 2.177452838,
				"z": -1.9692911933,
				"element": "C" 
			},
			{
				"x": -2.7548679604,
				"y": 2.0036633648,
				"z": -2.8560158565,
				"element": "C" 
			},
			{
				"x": -1.472542174,
				"y": 1.6411178098,
				"z": -2.428506105,
				"element": "C" 
			},
			{
				"x": -0.357148831,
				"y": 1.4348423001,
				"z": -3.4272276966,
				"element": "C" 
			},
			{
				"x": -1.259426287,
				"y": 1.4814367466,
				"z": -1.0464880283,
				"element": "C" 
			},
			{
				"x": 0.048369938,
				"y": 1.1784195991,
				"z": -0.5281491512,
				"element": "N" 
			},
			{
				"x": 0.3645072631,
				"y": -0.4356267102,
				"z": -0.0418218739,
				"element": "S" 
			},
			{
				"x": 0.749022389,
				"y": -1.276416409,
				"z": -1.1877077609,
				"element": "O" 
			},
			{
				"x": -0.744833076,
				"y": -0.8338600007,
				"z": 0.8227976122,
				"element": "O" 
			},
			{
				"x": 1.8315624629,
				"y": -0.1808824887,
				"z": 0.9004944776,
				"element": "C" 
			},
			{
				"x": 3.0255750977,
				"y": -0.8423007991,
				"z": 0.6397955713,
				"element": "C" 
			},
			{
				"x": 3.9106127391,
				"y": -0.4636434499,
				"z": 1.5933397698,
				"element": "N" 
			},
			{
				"x": 3.3119812493,
				"y": 0.4288803013,
				"z": 2.4680716357,
				"element": "C" 
			},
			{
				"x": 2.0052278892,
				"y": 0.6179237591,
				"z": 2.0570976742,
				"element": "C" 
			},
			{
				"x": 4.0208920967,
				"y": 1.0174278814,
				"z": 3.6009122354,
				"element": "C" 
			},
			{
				"x": 5.3082124988,
				"y": 0.5680110073,
				"z": 3.6700735724,
				"element": "O" 
			},
			{
				"x": 3.5525651599,
				"y": 1.8063978152,
				"z": 4.393635799,
				"element": "O" 
			},
			{
				"x": -2.3100847417,
				"y": 1.6621840101,
				"z": -0.1426521904,
				"element": "C" 
			},
			{
				"x": -3.580168771,
				"y": 1.9958097192,
				"z": -0.6019805104,
				"element": "C" 
			},
			{
				"x": -5.8356117688,
				"y": 1.6301387539,
				"z": -2.5462506166,
				"element": "H" 
			},
			{
				"x": -5.166196981,
				"y": 2.9792328299,
				"z": -3.4677920169,
				"element": "H" 
			},
			{
				"x": -5.7117863506,
				"y": 3.2232597797,
				"z": -1.8009117381,
				"element": "H" 
			},
			{
				"x": -2.9258088969,
				"y": 2.1407740571,
				"z": -3.9216381941,
				"element": "H" 
			},
			{
				"x": 0.4237648806,
				"y": 2.2035390097,
				"z": -3.3407427107,
				"element": "H" 
			},
			{
				"x": -0.7403240042,
				"y": 1.4862579353,
				"z": -4.449234354,
				"element": "H" 
			},
			{
				"x": 0.1218515253,
				"y": 0.4590646892,
				"z": -3.2937299728,
				"element": "H" 
			},
			{
				"x": 0.7919897276,
				"y": 1.4532471184,
				"z": -1.1661748938,
				"element": "H" 
			},
			{
				"x": 3.2672574221,
				"y": -1.5376905516,
				"z": -0.1490381215,
				"element": "H" 
			},
			{
				"x": 4.8680830371,
				"y": -0.7711132239,
				"z": 1.6799912016,
				"element": "H" 
			},
			{
				"x": 1.2778605215,
				"y": 1.2573675018,
				"z": 2.53300282,
				"element": "H" 
			},
			{
				"x": 5.7038142476,
				"y": 1.0007003047,
				"z": 4.4442108681,
				"element": "H" 
			},
			{
				"x": -2.1174399187,
				"y": 1.5353777528,
				"z": 0.9162671288,
				"element": "H" 
			},
			{
				"x": -4.3886189341,
				"y": 2.1287744331,
				"z": 0.1122867039,
				"element": "H" 
			}
		],
		 "valence_orbital": [ 
			{
				"type": "occ",
				"energy": -0.2918,
				"method": "rhf"
			},
			{
				"type": "occ",
				"energy": -0.27419,
				"method": "rhf"
			},
			{
				"type": "occ",
				"energy": -0.25424,
				"method": "rhf"
			},
			{
				"type": "occ",
				"energy": -0.24136,
				"method": "rhf"
			},
			{
				"type": "occ",
				"energy": -0.22184,
				"method": "rhf"
			},
			{
				"type": "unocc",
				"energy": -0.04827,
				"method": "rhf"
			},
			{
				"type": "unocc",
				"energy": -0.01122,
				"method": "rhf"
			},
			{
				"type": "unocc",
				"energy": 0.00384,
				"method": "rhf"
			},
			{
				"type": "unocc",
				"energy": 0.00564,
				"method": "rhf"
			},
			{
				"type": "unocc",
				"energy": 0.04982,
				"method": "rhf"
			}
		],
		"cosmo_sigma_profile": { 
			"-0.025": 0.0,
			"-0.024": 0.0,
			"-0.023": 0.0,
			"-0.022": 0.0,
			"-0.021": 0.0,
			"-0.02": 0.0,
			"-0.019": 0.256739804746,
			"-0.018": 0.877294152734,
			"-0.017": 2.05276577527,
			"-0.016": 2.04783494704,
			"-0.015": 1.91868811637,
			"-0.014": 1.72304331298,
			"-0.013": 2.38118997362,
			"-0.012": 3.13287278128,
			"-0.011": 3.70801019155,
			"-0.01": 4.31147030369,
			"-0.009": 4.48345384555,
			"-0.008": 5.13529804998,
			"-0.007": 5.26548138371,
			"-0.006": 6.830370785,
			"-0.005": 13.1561945997,
			"-0.004": 19.9994189797,
			"-0.003": 22.6979192954,
			"-0.002": 23.7761093052,
			"-0.001": 27.9702052905,
			"0.0": 29.6088213172,
			"0.001": 23.8126271476,
			"0.002": 17.5256037034,
			"0.003": 14.7489694863,
			"0.004": 13.3872533749,
			"0.005": 15.751192875,
			"0.006": 10.1365081549,
			"0.007": 4.79576064487,
			"0.008": 6.49545506787,
			"0.009": 5.74638475889,
			"0.01": 9.8717087116,
			"0.011": 12.081933223,
			"0.012": 6.35635642974,
			"0.013": 0.0868316428088,
			"0.014": 0.0,
			"0.015": 0.0,
			"0.016": 0.0,
			"0.017": 0.0,
			"0.018": 0.0,
			"0.019": 0.0,
			"0.02": 0.0,
			"0.021": 0.0,
			"0.022": 0.0,
			"0.023": 0.0,
			"0.024": 0.0,
			"0.025": 0.0
		}
	}
}
