{
	 "smiles": "CC(C)C1=C(C=NC(C)=N1)C(O)=O", 
	 "Tm": 442.15, 
	 "num_atms": 25, 
	 "gaussian": { 
		 "optdone": 1, 
		 "sigma_profile": "yes", 
		 "theory": "DFT", 
		 "functional": "B3LYP", 
		 "basiset": "6-31G**", 
		 "properties": { 
			 "R2extent": 2540.6429, 
			 "electric_dipole_moment_norm": 3.99864946201, 
			 "electric_quadrupole_moment_norm": 12.4793147104, 
			 "total_energy": -610.161289656, 
			 "HOMO_LUMO_gap": 0.19868, 
			 "cosmo_polarized_energy": -13.91, 
			 "cosmo_cavitation_energy": 28.36, 
			 "cosmo_dispersion_energy": -20.14, 
			 "cosmo_repulsion_energy": 1.62, 
			 "cosmo_total_nonelectrostatic_energy": 9.84, 
			 "SMD_solvation_energy": 3.93 
		},
		"coords": [
			{
				"x": -1.949863579,
				"y": 1.0351253266,
				"z": -1.4806454861,
				"element": "C" 
			},
			{
				"x": -1.1150022366,
				"y": 1.4509397639,
				"z": -0.2517309522,
				"element": "C" 
			},
			{
				"x": -2.0280366472,
				"y": 1.8296709338,
				"z": 0.9284233664,
				"element": "C" 
			},
			{
				"x": -0.1678231212,
				"y": 0.324266212,
				"z": 0.1432385084,
				"element": "C" 
			},
			{
				"x": 1.2327093121,
				"y": 0.3689969192,
				"z": 0.0124482871,
				"element": "C" 
			},
			{
				"x": 1.9401477131,
				"y": -0.7184181934,
				"z": 0.5523347256,
				"element": "C" 
			},
			{
				"x": 1.3538039442,
				"y": -1.7823505973,
				"z": 1.0877765487,
				"element": "N" 
			},
			{
				"x": 0.0059437808,
				"y": -1.7664925946,
				"z": 1.1054157196,
				"element": "C" 
			},
			{
				"x": -0.6791711811,
				"y": -2.9802111748,
				"z": 1.6676907795,
				"element": "C" 
			},
			{
				"x": -0.7593881502,
				"y": -0.7572862988,
				"z": 0.6795726022,
				"element": "N" 
			},
			{
				"x": 2.059418204,
				"y": 1.46979246,
				"z": -0.5820735636,
				"element": "C" 
			},
			{
				"x": 1.5742019019,
				"y": 2.0887333099,
				"z": -1.6923680368,
				"element": "O" 
			},
			{
				"x": 3.136725801,
				"y": 1.7874088035,
				"z": -0.1385678435,
				"element": "O" 
			},
			{
				"x": -1.3253257836,
				"y": 0.8040296627,
				"z": -2.3535110219,
				"element": "H" 
			},
			{
				"x": -2.63581076,
				"y": 1.8382697232,
				"z": -1.7664495279,
				"element": "H" 
			},
			{
				"x": -2.5346342477,
				"y": 0.139751666,
				"z": -1.2517689238,
				"element": "H" 
			},
			{
				"x": -0.5224272628,
				"y": 2.3337800637,
				"z": -0.5098908347,
				"element": "H" 
			},
			{
				"x": -2.6278747922,
				"y": 0.9711549588,
				"z": 1.2390931125,
				"element": "H" 
			},
			{
				"x": -2.6995503972,
				"y": 2.6428175475,
				"z": 0.6354769294,
				"element": "H" 
			},
			{
				"x": -1.4425491532,
				"y": 2.1669789431,
				"z": 1.7892712205,
				"element": "H" 
			},
			{
				"x": 3.0279147527,
				"y": -0.7018371737,
				"z": 0.5328817106,
				"element": "H" 
			},
			{
				"x": -0.3781776772,
				"y": -3.8736376186,
				"z": 1.1112197307,
				"element": "H" 
			},
			{
				"x": -1.7621811011,
				"y": -2.8646009567,
				"z": 1.6209214296,
				"element": "H" 
			},
			{
				"x": -0.3714885634,
				"y": -3.1362971829,
				"z": 2.7068753929,
				"element": "H" 
			},
			{
				"x": 0.7762392437,
				"y": 1.6417154968,
				"z": -2.007633873,
				"element": "H" 
			}
		],
		 "valence_orbital": [ 
			{
				"type": "occ",
				"energy": -0.32077,
				"method": "rhf"
			},
			{
				"type": "occ",
				"energy": -0.318,
				"method": "rhf"
			},
			{
				"type": "occ",
				"energy": -0.29032,
				"method": "rhf"
			},
			{
				"type": "occ",
				"energy": -0.27375,
				"method": "rhf"
			},
			{
				"type": "occ",
				"energy": -0.25833,
				"method": "rhf"
			},
			{
				"type": "unocc",
				"energy": -0.05965,
				"method": "rhf"
			},
			{
				"type": "unocc",
				"energy": -0.05087,
				"method": "rhf"
			},
			{
				"type": "unocc",
				"energy": 0.02088,
				"method": "rhf"
			},
			{
				"type": "unocc",
				"energy": 0.04634,
				"method": "rhf"
			},
			{
				"type": "unocc",
				"energy": 0.10057,
				"method": "rhf"
			}
		],
		"cosmo_sigma_profile": { 
			"-0.025": 0.0,
			"-0.024": 0.0,
			"-0.023": 0.0,
			"-0.022": 0.0,
			"-0.021": 0.0,
			"-0.02": 0.0,
			"-0.019": 0.0,
			"-0.018": 0.0,
			"-0.017": 0.0325877004913,
			"-0.016": 1.00387897595,
			"-0.015": 1.36110388638,
			"-0.014": 1.44089341494,
			"-0.013": 0.9088062082,
			"-0.012": 0.985801983806,
			"-0.011": 1.62794065698,
			"-0.01": 0.694319978583,
			"-0.009": 0.999055228564,
			"-0.008": 1.56844816152,
			"-0.007": 3.75326795796,
			"-0.006": 6.20581134462,
			"-0.005": 9.80761452244,
			"-0.004": 16.9187443609,
			"-0.003": 26.0559696028,
			"-0.002": 25.9402633882,
			"-0.001": 25.6630501685,
			"0.0": 21.6040224622,
			"0.001": 13.8557562501,
			"0.002": 7.85369602682,
			"0.003": 5.98313736818,
			"0.004": 5.29465846366,
			"0.005": 5.39746644308,
			"0.006": 4.419483061,
			"0.007": 4.94292241156,
			"0.008": 5.23557989787,
			"0.009": 4.89274989594,
			"0.01": 7.27248859388,
			"0.011": 6.21556315995,
			"0.012": 3.69662071329,
			"0.013": 1.31229399248,
			"0.014": 0.605050745497,
			"0.015": 0.560329476402,
			"0.016": 0.0229324192473,
			"0.017": 0.0,
			"0.018": 0.0,
			"0.019": 0.0,
			"0.02": 0.0,
			"0.021": 0.0,
			"0.022": 0.0,
			"0.023": 0.0,
			"0.024": 0.0,
			"0.025": 0.0
		}
	}
}
