{
	 "smiles": "COC1=C(OC)C=C(C(O)=O)C(NC(=O)C2CCCC2)=C1", 
	 "Tm": 467.15, 
	 "num_atms": 40, 
	 "gaussian": { 
		 "optdone": 1, 
		 "sigma_profile": "yes", 
		 "theory": "DFT", 
		 "functional": "B3LYP", 
		 "basiset": "6-31G**", 
		 "properties": { 
			 "R2extent": 8313.8678, 
			 "electric_dipole_moment_norm": 2.87434468532, 
			 "electric_quadrupole_moment_norm": 27.0471637147, 
			 "total_energy": -1013.93793464, 
			 "HOMO_LUMO_gap": 0.16772, 
			 "cosmo_polarized_energy": -16.15, 
			 "cosmo_cavitation_energy": 42.43, 
			 "cosmo_dispersion_energy": -30.07, 
			 "cosmo_repulsion_energy": 2.33, 
			 "cosmo_total_nonelectrostatic_energy": 14.69, 
			 "SMD_solvation_energy": 9.43 
		},
		"coords": [
			{
				"x": -3.6645683069,
				"y": -0.7066437403,
				"z": -1.7216954692,
				"element": "C" 
			},
			{
				"x": -3.4465724842,
				"y": -1.7209170684,
				"z": -0.7448761676,
				"element": "O" 
			},
			{
				"x": -2.2218128625,
				"y": -1.8137017373,
				"z": -0.1711674401,
				"element": "C" 
			},
			{
				"x": -2.0498658722,
				"y": -2.8635375782,
				"z": 0.7645642185,
				"element": "C" 
			},
			{
				"x": -3.0493668831,
				"y": -3.7659451468,
				"z": 1.0304453173,
				"element": "O" 
			},
			{
				"x": -4.1630302101,
				"y": -3.2567288391,
				"z": 1.768236054,
				"element": "C" 
			},
			{
				"x": -0.8160840767,
				"y": -3.0135786008,
				"z": 1.3629203893,
				"element": "C" 
			},
			{
				"x": 0.277361731,
				"y": -2.1686655435,
				"z": 1.0802273638,
				"element": "C" 
			},
			{
				"x": 1.5115662613,
				"y": -2.501762927,
				"z": 1.8207339412,
				"element": "C" 
			},
			{
				"x": 2.5900727166,
				"y": -1.6911911192,
				"z": 1.5569838623,
				"element": "O" 
			},
			{
				"x": 1.6291969506,
				"y": -3.4117210504,
				"z": 2.6181258054,
				"element": "O" 
			},
			{
				"x": 0.0913732508,
				"y": -1.1109300769,
				"z": 0.1484019384,
				"element": "C" 
			},
			{
				"x": 1.1449168996,
				"y": -0.2369011751,
				"z": -0.1636886849,
				"element": "N" 
			},
			{
				"x": 1.16215849,
				"y": 0.841856004,
				"z": -1.0231003429,
				"element": "C" 
			},
			{
				"x": 0.2052413295,
				"y": 1.2123350693,
				"z": -1.6964425393,
				"element": "O" 
			},
			{
				"x": 2.490806525,
				"y": 1.5978655962,
				"z": -1.0365494456,
				"element": "C" 
			},
			{
				"x": 2.3625079372,
				"y": 2.9330502239,
				"z": -0.2205272193,
				"element": "C" 
			},
			{
				"x": 2.3445245576,
				"y": 4.0511381565,
				"z": -1.2767923034,
				"element": "C" 
			},
			{
				"x": 3.2849996792,
				"y": 3.5199309283,
				"z": -2.3673807621,
				"element": "C" 
			},
			{
				"x": 2.8897503976,
				"y": 2.0354339666,
				"z": -2.4764890891,
				"element": "C" 
			},
			{
				"x": -1.1646538314,
				"y": -0.9533345305,
				"z": -0.4623419008,
				"element": "C" 
			},
			{
				"x": -2.9874439079,
				"y": -0.8237762122,
				"z": -2.5752321888,
				"element": "H" 
			},
			{
				"x": -4.6956630942,
				"y": -0.8328841563,
				"z": -2.0537932677,
				"element": "H" 
			},
			{
				"x": -3.5360670968,
				"y": 0.295204736,
				"z": -1.2959059619,
				"element": "H" 
			},
			{
				"x": -3.8422084612,
				"y": -2.8676136698,
				"z": 2.7434214966,
				"element": "H" 
			},
			{
				"x": -4.8367152263,
				"y": -4.1019687643,
				"z": 1.9232832075,
				"element": "H" 
			},
			{
				"x": -4.6865100163,
				"y": -2.4706353807,
				"z": 1.2153450963,
				"element": "H" 
			},
			{
				"x": -0.671942014,
				"y": -3.8209888942,
				"z": 2.0710472964,
				"element": "H" 
			},
			{
				"x": 3.3100080224,
				"y": -2.0343401479,
				"z": 2.1113785195,
				"element": "H" 
			},
			{
				"x": 2.008655039,
				"y": -0.4324003226,
				"z": 0.3247624042,
				"element": "H" 
			},
			{
				"x": 3.2727834109,
				"y": 0.9714226879,
				"z": -0.5936544743,
				"element": "H" 
			},
			{
				"x": 1.4820536915,
				"y": 2.9455904692,
				"z": 0.4287890007,
				"element": "H" 
			},
			{
				"x": 3.2413558439,
				"y": 3.0413156255,
				"z": 0.4251184169,
				"element": "H" 
			},
			{
				"x": 1.3322024032,
				"y": 4.158900938,
				"z": -1.683104904,
				"element": "H" 
			},
			{
				"x": 2.647795465,
				"y": 5.0211990577,
				"z": -0.8697120987,
				"element": "H" 
			},
			{
				"x": 4.3288169836,
				"y": 3.6182921696,
				"z": -2.0411219154,
				"element": "H" 
			},
			{
				"x": 3.189491896,
				"y": 4.0507625095,
				"z": -3.3199323782,
				"element": "H" 
			},
			{
				"x": 3.6839339523,
				"y": 1.4069989908,
				"z": -2.8906444684,
				"element": "H" 
			},
			{
				"x": 2.0118116442,
				"y": 1.9376599096,
				"z": -3.1216726527,
				"element": "H" 
			},
			{
				"x": -1.276280734,
				"y": -0.1474903569,
				"z": -1.1705586538,
				"element": "H" 
			}
		],
		 "valence_orbital": [ 
			{
				"type": "occ",
				"energy": -0.282,
				"method": "rhf"
			},
			{
				"type": "occ",
				"energy": -0.27111,
				"method": "rhf"
			},
			{
				"type": "occ",
				"energy": -0.25313,
				"method": "rhf"
			},
			{
				"type": "occ",
				"energy": -0.24016,
				"method": "rhf"
			},
			{
				"type": "occ",
				"energy": -0.21252,
				"method": "rhf"
			},
			{
				"type": "unocc",
				"energy": -0.0448,
				"method": "rhf"
			},
			{
				"type": "unocc",
				"energy": -0.00998,
				"method": "rhf"
			},
			{
				"type": "unocc",
				"energy": 0.04105,
				"method": "rhf"
			},
			{
				"type": "unocc",
				"energy": 0.06319,
				"method": "rhf"
			},
			{
				"type": "unocc",
				"energy": 0.0657,
				"method": "rhf"
			}
		],
		"cosmo_sigma_profile": { 
			"-0.025": 0.0,
			"-0.024": 0.0,
			"-0.023": 0.0,
			"-0.022": 0.0,
			"-0.021": 0.0,
			"-0.02": 0.0,
			"-0.019": 0.125630639557,
			"-0.018": 0.746076983661,
			"-0.017": 0.958900468944,
			"-0.016": 0.804418670363,
			"-0.015": 0.764696889691,
			"-0.014": 0.47825810139,
			"-0.013": 0.628873185436,
			"-0.012": 1.00582339006,
			"-0.011": 0.749637480972,
			"-0.01": 0.658571309242,
			"-0.009": 0.717435906583,
			"-0.008": 1.9446145379,
			"-0.007": 3.55513633912,
			"-0.006": 9.02609959932,
			"-0.005": 14.1914822059,
			"-0.004": 23.4771426425,
			"-0.003": 36.3897557199,
			"-0.002": 40.5242681847,
			"-0.001": 36.5898004777,
			"0.0": 34.0396411683,
			"0.001": 32.2327880093,
			"0.002": 22.997379332,
			"0.003": 15.8819533668,
			"0.004": 7.0238619223,
			"0.005": 6.67524417778,
			"0.006": 5.44819233206,
			"0.007": 3.72696904413,
			"0.008": 4.94304298676,
			"0.009": 6.5483997935,
			"0.01": 5.39776714668,
			"0.011": 7.53402837614,
			"0.012": 6.72976274403,
			"0.013": 1.89835524898,
			"0.014": 0.150238976306,
			"0.015": 0.0,
			"0.016": 0.0,
			"0.017": 0.0,
			"0.018": 0.0,
			"0.019": 0.0,
			"0.02": 0.0,
			"0.021": 0.0,
			"0.022": 0.0,
			"0.023": 0.0,
			"0.024": 0.0,
			"0.025": 0.0
		}
	}
}
