{
	 "smiles": "NC(=O)CCC1=CC=C(C=C1)C(O)=O", 
	 "Tm": 500.15, 
	 "num_atms": 25, 
	 "gaussian": { 
		 "optdone": 1, 
		 "sigma_profile": "yes", 
		 "theory": "DFT", 
		 "functional": "B3LYP", 
		 "basiset": "6-31G**", 
		 "properties": { 
			 "R2extent": 4689.3079, 
			 "electric_dipole_moment_norm": 3.47243167967, 
			 "electric_quadrupole_moment_norm": 16.8482069826, 
			 "total_energy": -668.163328132, 
			 "HOMO_LUMO_gap": 0.20545, 
			 "cosmo_polarized_energy": -18.53, 
			 "cosmo_cavitation_energy": 29.63, 
			 "cosmo_dispersion_energy": -21.24, 
			 "cosmo_repulsion_energy": 1.71, 
			 "cosmo_total_nonelectrostatic_energy": 10.09, 
			 "SMD_solvation_energy": 6.72 
		},
		"coords": [
			{
				"x": 2.1757963852,
				"y": 0.9764070434,
				"z": -0.599232624,
				"element": "N" 
			},
			{
				"x": 1.1108122888,
				"y": 1.6197984319,
				"z": -0.0383599222,
				"element": "C" 
			},
			{
				"x": 1.1363141289,
				"y": 2.0433782128,
				"z": 1.1102972457,
				"element": "O" 
			},
			{
				"x": -0.0881660678,
				"y": 1.8271177007,
				"z": -0.9663034828,
				"element": "C" 
			},
			{
				"x": -1.422077975,
				"y": 1.8872280802,
				"z": -0.1973251325,
				"element": "C" 
			},
			{
				"x": -1.8860819377,
				"y": 0.5382425505,
				"z": 0.3110396535,
				"element": "C" 
			},
			{
				"x": -1.4468705107,
				"y": 0.0422559001,
				"z": 1.5487297191,
				"element": "C" 
			},
			{
				"x": -1.8575474924,
				"y": -1.2091056612,
				"z": 2.0015428918,
				"element": "C" 
			},
			{
				"x": -2.7190330454,
				"y": -1.992732372,
				"z": 1.2208888369,
				"element": "C" 
			},
			{
				"x": -3.1636796899,
				"y": -1.5055713861,
				"z": -0.0154697086,
				"element": "C" 
			},
			{
				"x": -2.7503021378,
				"y": -0.254446829,
				"z": -0.460469905,
				"element": "C" 
			},
			{
				"x": -3.1902462958,
				"y": -3.3320995491,
				"z": 1.653767399,
				"element": "C" 
			},
			{
				"x": -2.705942555,
				"y": -3.7032235702,
				"z": 2.867300162,
				"element": "O" 
			},
			{
				"x": -3.932732733,
				"y": -4.0519975866,
				"z": 1.0134400578,
				"element": "O" 
			},
			{
				"x": 2.1296968533,
				"y": 0.5463396956,
				"z": -1.5082919194,
				"element": "H" 
			},
			{
				"x": 2.9885896068,
				"y": 0.8148440142,
				"z": -0.023666684,
				"element": "H" 
			},
			{
				"x": 0.0746643414,
				"y": 2.783319099,
				"z": -1.4811794681,
				"element": "H" 
			},
			{
				"x": -0.1210991389,
				"y": 1.0524069838,
				"z": -1.7414137352,
				"element": "H" 
			},
			{
				"x": -2.1861648052,
				"y": 2.308443002,
				"z": -0.8592385392,
				"element": "H" 
			},
			{
				"x": -1.2894078793,
				"y": 2.5784424906,
				"z": 0.6398718515,
				"element": "H" 
			},
			{
				"x": -0.77233865,
				"y": 0.6452973827,
				"z": 2.1481962603,
				"element": "H" 
			},
			{
				"x": -1.5156879608,
				"y": -1.5821255625,
				"z": 2.9605092523,
				"element": "H" 
			},
			{
				"x": -3.8345690877,
				"y": -2.1205299231,
				"z": -0.6060165005,
				"element": "H" 
			},
			{
				"x": -3.1076206818,
				"y": 0.1195828344,
				"z": -1.4170942351,
				"element": "H" 
			},
			{
				"x": -3.0804049601,
				"y": -4.5826709823,
				"z": 3.0386785267,
				"element": "H" 
			}
		],
		 "valence_orbital": [ 
			{
				"type": "occ",
				"energy": -0.27396,
				"method": "rhf"
			},
			{
				"type": "occ",
				"energy": -0.27101,
				"method": "rhf"
			},
			{
				"type": "occ",
				"energy": -0.25623,
				"method": "rhf"
			},
			{
				"type": "occ",
				"energy": -0.25361,
				"method": "rhf"
			},
			{
				"type": "occ",
				"energy": -0.24833,
				"method": "rhf"
			},
			{
				"type": "unocc",
				"energy": -0.04288,
				"method": "rhf"
			},
			{
				"type": "unocc",
				"energy": -0.00547,
				"method": "rhf"
			},
			{
				"type": "unocc",
				"energy": 0.02309,
				"method": "rhf"
			},
			{
				"type": "unocc",
				"energy": 0.05822,
				"method": "rhf"
			},
			{
				"type": "unocc",
				"energy": 0.06986,
				"method": "rhf"
			}
		],
		"cosmo_sigma_profile": { 
			"-0.025": 0.0,
			"-0.024": 0.0,
			"-0.023": 0.0,
			"-0.022": 0.0,
			"-0.021": 0.0,
			"-0.02": 0.0,
			"-0.019": 0.00668669487794,
			"-0.018": 0.625089469255,
			"-0.017": 1.10266045498,
			"-0.016": 0.525886633581,
			"-0.015": 1.06879715634,
			"-0.014": 1.98943758793,
			"-0.013": 3.76044635428,
			"-0.012": 2.18486046884,
			"-0.011": 3.69965896249,
			"-0.01": 3.87631311276,
			"-0.009": 3.26500874689,
			"-0.008": 1.90283876581,
			"-0.007": 2.63634872322,
			"-0.006": 8.39195423667,
			"-0.005": 13.2621753362,
			"-0.004": 14.9290551386,
			"-0.003": 17.4746023022,
			"-0.002": 16.6960815456,
			"-0.001": 16.0945980623,
			"0.0": 13.7556366006,
			"0.001": 15.0356280259,
			"0.002": 14.7423335285,
			"0.003": 15.8189822193,
			"0.004": 16.048660158,
			"0.005": 7.07110577319,
			"0.006": 5.38824550819,
			"0.007": 3.95322235079,
			"0.008": 3.97306672793,
			"0.009": 3.45407943265,
			"0.01": 2.61986422384,
			"0.011": 3.99899565395,
			"0.012": 7.10464001201,
			"0.013": 2.9137364931,
			"0.014": 3.94867333615,
			"0.015": 0.940847102961,
			"0.016": 0.0,
			"0.017": 0.0,
			"0.018": 0.0,
			"0.019": 0.0,
			"0.02": 0.0,
			"0.021": 0.0,
			"0.022": 0.0,
			"0.023": 0.0,
			"0.024": 0.0,
			"0.025": 0.0
		}
	}
}
