{
	 "smiles": "ClCCC(Cl)=O", 
	 "Tm": 241.15, 
	 "num_atms": 10, 
	 "gaussian": { 
		 "optdone": 1, 
		 "sigma_profile": "yes", 
		 "theory": "DFT", 
		 "functional": "B3LYP", 
		 "basiset": "6-31G**", 
		 "properties": { 
			 "R2extent": 1882.5555, 
			 "electric_dipole_moment_norm": 3.39000464454, 
			 "electric_quadrupole_moment_norm": 4.86986936786, 
			 "total_energy": -1112.34656369, 
			 "HOMO_LUMO_gap": 0.255, 
			 "cosmo_polarized_energy": -8.61, 
			 "cosmo_cavitation_energy": 17.84, 
			 "cosmo_dispersion_energy": -13.29, 
			 "cosmo_repulsion_energy": 1.18, 
			 "cosmo_total_nonelectrostatic_energy": 5.73, 
			 "SMD_solvation_energy": 3.36 
		},
		"coords": [
			{
				"x": 2.3023144874,
				"y": 1.1821968102,
				"z": 2.5592985568,
				"element": "Cl" 
			},
			{
				"x": 1.5133759928,
				"y": 1.0072615819,
				"z": 0.9388388874,
				"element": "C" 
			},
			{
				"x": 0.2629197619,
				"y": 0.1412039328,
				"z": 1.0098197373,
				"element": "C" 
			},
			{
				"x": 0.5721383484,
				"y": -1.333458962,
				"z": 1.1534683687,
				"element": "C" 
			},
			{
				"x": -0.9322376959,
				"y": -2.3074363684,
				"z": 1.4916872696,
				"element": "Cl" 
			},
			{
				"x": 1.6266173727,
				"y": -1.8664774904,
				"z": 1.0330920831,
				"element": "O" 
			},
			{
				"x": 2.2585830896,
				"y": 0.5753616561,
				"z": 0.2710187118,
				"element": "H" 
			},
			{
				"x": 1.2599286404,
				"y": 2.0141213964,
				"z": 0.6061957532,
				"element": "H" 
			},
			{
				"x": -0.4006815439,
				"y": 0.4531725296,
				"z": 1.8204371277,
				"element": "H" 
			},
			{
				"x": -0.3124584535,
				"y": 0.2490549138,
				"z": 0.0798435045,
				"element": "H" 
			}
		],
		 "valence_orbital": [ 
			{
				"type": "occ",
				"energy": -0.33208,
				"method": "rhf"
			},
			{
				"type": "occ",
				"energy": -0.32978,
				"method": "rhf"
			},
			{
				"type": "occ",
				"energy": -0.31203,
				"method": "rhf"
			},
			{
				"type": "occ",
				"energy": -0.3095,
				"method": "rhf"
			},
			{
				"type": "occ",
				"energy": -0.3036,
				"method": "rhf"
			},
			{
				"type": "unocc",
				"energy": -0.0486,
				"method": "rhf"
			},
			{
				"type": "unocc",
				"energy": 0.00818,
				"method": "rhf"
			},
			{
				"type": "unocc",
				"energy": 0.01097,
				"method": "rhf"
			},
			{
				"type": "unocc",
				"energy": 0.07696,
				"method": "rhf"
			},
			{
				"type": "unocc",
				"energy": 0.11781,
				"method": "rhf"
			}
		],
		"cosmo_sigma_profile": { 
			"-0.025": 0.0,
			"-0.024": 0.0,
			"-0.023": 0.0,
			"-0.022": 0.0,
			"-0.021": 0.0,
			"-0.02": 0.0,
			"-0.019": 0.0,
			"-0.018": 0.0,
			"-0.017": 0.0,
			"-0.016": 0.0,
			"-0.015": 0.0,
			"-0.014": 0.0,
			"-0.013": 0.0,
			"-0.012": 0.0,
			"-0.011": 0.00306384326674,
			"-0.01": 1.86208753532,
			"-0.009": 4.99753349409,
			"-0.008": 9.40515157332,
			"-0.007": 9.20969551044,
			"-0.006": 8.23937079584,
			"-0.005": 7.04005976032,
			"-0.004": 4.81410827546,
			"-0.003": 3.47558645151,
			"-0.002": 4.4832357152,
			"-0.001": 6.87235795331,
			"0.0": 7.48611762271,
			"0.001": 7.24009233051,
			"0.002": 9.42975006654,
			"0.003": 11.490883736,
			"0.004": 16.9130261339,
			"0.005": 12.6240985362,
			"0.006": 11.0006597309,
			"0.007": 4.49983291456,
			"0.008": 4.25250611906,
			"0.009": 0.945005674568,
			"0.01": 0.0,
			"0.011": 0.0,
			"0.012": 0.0,
			"0.013": 0.0,
			"0.014": 0.0,
			"0.015": 0.0,
			"0.016": 0.0,
			"0.017": 0.0,
			"0.018": 0.0,
			"0.019": 0.0,
			"0.02": 0.0,
			"0.021": 0.0,
			"0.022": 0.0,
			"0.023": 0.0,
			"0.024": 0.0,
			"0.025": 0.0
		}
	}
}
