{
	 "smiles": "CC(C)S", 
	 "Tm": 142.15, 
	 "num_atms": 12, 
	 "gaussian": { 
		 "optdone": 1, 
		 "sigma_profile": "yes", 
		 "theory": "DFT", 
		 "functional": "B3LYP", 
		 "basiset": "6-31G**", 
		 "properties": { 
			 "R2extent": 518.0377, 
			 "electric_dipole_moment_norm": 1.8299326545, 
			 "electric_quadrupole_moment_norm": 2.646990714, 
			 "total_energy": -517.336397789, 
			 "HOMO_LUMO_gap": 0.26001, 
			 "cosmo_polarized_energy": -4.08, 
			 "cosmo_cavitation_energy": 15.88, 
			 "cosmo_dispersion_energy": -12.31, 
			 "cosmo_repulsion_energy": 1.06, 
			 "cosmo_total_nonelectrostatic_energy": 4.62, 
			 "SMD_solvation_energy": 2.48 
		},
		"coords": [
			{
				"x": -1.7844214812,
				"y": -0.186176787,
				"z": -1.3165629992,
				"element": "C" 
			},
			{
				"x": -0.4964945134,
				"y": 0.4947782344,
				"z": -0.8449502804,
				"element": "C" 
			},
			{
				"x": -0.7246680129,
				"y": 1.9541296675,
				"z": -0.44996748,
				"element": "C" 
			},
			{
				"x": 0.1713234079,
				"y": -0.5126986043,
				"z": 0.5673110465,
				"element": "S" 
			},
			{
				"x": -2.1941220877,
				"y": 0.3513681393,
				"z": -2.1784483046,
				"element": "H" 
			},
			{
				"x": -1.6053065455,
				"y": -1.2226193657,
				"z": -1.616702506,
				"element": "H" 
			},
			{
				"x": -2.541466829,
				"y": -0.1832609441,
				"z": -0.5252340966,
				"element": "H" 
			},
			{
				"x": 0.245788819,
				"y": 0.4432577074,
				"z": -1.6481932672,
				"element": "H" 
			},
			{
				"x": -1.4471732337,
				"y": 2.0279050789,
				"z": 0.3686640489,
				"element": "H" 
			},
			{
				"x": -1.1136815829,
				"y": 2.5183353005,
				"z": -1.3065194153,
				"element": "H" 
			},
			{
				"x": 0.2039175314,
				"y": 2.4352327718,
				"z": -0.1273172641,
				"element": "H" 
			},
			{
				"x": 1.256804528,
				"y": 0.2492488013,
				"z": 0.812420518,
				"element": "H" 
			}
		],
		 "valence_orbital": [ 
			{
				"type": "occ",
				"energy": -0.36947,
				"method": "rhf"
			},
			{
				"type": "occ",
				"energy": -0.35463,
				"method": "rhf"
			},
			{
				"type": "occ",
				"energy": -0.34976,
				"method": "rhf"
			},
			{
				"type": "occ",
				"energy": -0.31271,
				"method": "rhf"
			},
			{
				"type": "occ",
				"energy": -0.23315,
				"method": "rhf"
			},
			{
				"type": "unocc",
				"energy": 0.02686,
				"method": "rhf"
			},
			{
				"type": "unocc",
				"energy": 0.07135,
				"method": "rhf"
			},
			{
				"type": "unocc",
				"energy": 0.10551,
				"method": "rhf"
			},
			{
				"type": "unocc",
				"energy": 0.13679,
				"method": "rhf"
			},
			{
				"type": "unocc",
				"energy": 0.14535,
				"method": "rhf"
			}
		],
		"cosmo_sigma_profile": { 
			"-0.025": 0.0,
			"-0.024": 0.0,
			"-0.023": 0.0,
			"-0.022": 0.0,
			"-0.021": 0.0,
			"-0.02": 0.0,
			"-0.019": 0.0,
			"-0.018": 0.0,
			"-0.017": 0.0,
			"-0.016": 0.0,
			"-0.015": 0.0,
			"-0.014": 0.0,
			"-0.013": 0.0,
			"-0.012": 0.0,
			"-0.011": 0.0,
			"-0.01": 0.0,
			"-0.009": 0.321839675487,
			"-0.008": 2.07606688563,
			"-0.007": 2.02796611462,
			"-0.006": 2.28186238695,
			"-0.005": 2.75155518197,
			"-0.004": 9.66503878489,
			"-0.003": 16.7394888296,
			"-0.002": 16.0668982711,
			"-0.001": 14.5742947671,
			"0.0": 17.5278258161,
			"0.001": 11.8575310583,
			"0.002": 3.0884968621,
			"0.003": 3.7342960438,
			"0.004": 2.77724566166,
			"0.005": 2.90491310791,
			"0.006": 4.24980965594,
			"0.007": 3.06870624592,
			"0.008": 2.82582486639,
			"0.009": 2.01741241118,
			"0.01": 2.3628469418,
			"0.011": 1.98981307137,
			"0.012": 0.595800296087,
			"0.013": 0.0,
			"0.014": 0.0,
			"0.015": 0.0,
			"0.016": 0.0,
			"0.017": 0.0,
			"0.018": 0.0,
			"0.019": 0.0,
			"0.02": 0.0,
			"0.021": 0.0,
			"0.022": 0.0,
			"0.023": 0.0,
			"0.024": 0.0,
			"0.025": 0.0
		}
	}
}
