{
	 "smiles": "COCC(CCC(=O)OC)N1CC=CC1", 
	 "Tm": 418.15, 
	 "num_atms": 34, 
	 "gaussian": { 
		 "optdone": 1, 
		 "sigma_profile": "yes", 
		 "theory": "DFT", 
		 "functional": "B3LYP", 
		 "basiset": "6-31G**", 
		 "properties": { 
			 "R2extent": 4092.8875, 
			 "electric_dipole_moment_norm": 2.61103761176, 
			 "electric_quadrupole_moment_norm": 12.640535385, 
			 "total_energy": -710.996694334, 
			 "HOMO_LUMO_gap": 0.22371, 
			 "cosmo_polarized_energy": -10.58, 
			 "cosmo_cavitation_energy": 34.44, 
			 "cosmo_dispersion_energy": -23.79, 
			 "cosmo_repulsion_energy": 1.85, 
			 "cosmo_total_nonelectrostatic_energy": 12.5, 
			 "SMD_solvation_energy": 6.64 
		},
		"coords": [
			{
				"x": -1.7594591748,
				"y": -0.2073000156,
				"z": -2.4779271921,
				"element": "C" 
			},
			{
				"x": -1.7448530089,
				"y": 0.7682283709,
				"z": -1.4481548835,
				"element": "O" 
			},
			{
				"x": -0.4748696431,
				"y": 1.3443798303,
				"z": -1.1818059405,
				"element": "C" 
			},
			{
				"x": 0.4385717705,
				"y": 0.4982549551,
				"z": -0.2672227627,
				"element": "C" 
			},
			{
				"x": -0.3338739399,
				"y": -0.0257038305,
				"z": 0.9618035678,
				"element": "C" 
			},
			{
				"x": -0.9177718805,
				"y": 1.0657798304,
				"z": 1.8873673366,
				"element": "C" 
			},
			{
				"x": -2.2137981428,
				"y": 1.6904422081,
				"z": 1.40664864,
				"element": "C" 
			},
			{
				"x": -2.3567207683,
				"y": 2.8506477347,
				"z": 1.0800137813,
				"element": "O" 
			},
			{
				"x": -3.2152893429,
				"y": 0.7861148665,
				"z": 1.4009928194,
				"element": "O" 
			},
			{
				"x": -4.4456060938,
				"y": 1.2453205984,
				"z": 0.8190653168,
				"element": "C" 
			},
			{
				"x": 1.0629243513,
				"y": -0.616513493,
				"z": -0.9910284393,
				"element": "N" 
			},
			{
				"x": 1.8409629432,
				"y": -0.2402974117,
				"z": -2.1877178307,
				"element": "C" 
			},
			{
				"x": 2.8809296796,
				"y": -1.3230493594,
				"z": -2.2886431031,
				"element": "C" 
			},
			{
				"x": 2.9106621812,
				"y": -2.0453478343,
				"z": -1.1708311528,
				"element": "C" 
			},
			{
				"x": 1.8985707163,
				"y": -1.5286278664,
				"z": -0.1845689941,
				"element": "C" 
			},
			{
				"x": -1.1330228261,
				"y": -1.0728070917,
				"z": -2.2340073286,
				"element": "H" 
			},
			{
				"x": -1.4178582013,
				"y": 0.2202295852,
				"z": -3.4342545558,
				"element": "H" 
			},
			{
				"x": -2.7982762337,
				"y": -0.5277185378,
				"z": -2.5951889577,
				"element": "H" 
			},
			{
				"x": -0.6850479543,
				"y": 2.2890098102,
				"z": -0.6742940387,
				"element": "H" 
			},
			{
				"x": 0.0407234318,
				"y": 1.5886797104,
				"z": -2.121640373,
				"element": "H" 
			},
			{
				"x": 1.2238547523,
				"y": 1.197617478,
				"z": 0.0992937554,
				"element": "H" 
			},
			{
				"x": -1.1373656644,
				"y": -0.6863211372,
				"z": 0.6251806487,
				"element": "H" 
			},
			{
				"x": 0.3457086154,
				"y": -0.6289543499,
				"z": 1.569330624,
				"element": "H" 
			},
			{
				"x": -0.2015852622,
				"y": 1.8775149906,
				"z": 2.0426227712,
				"element": "H" 
			},
			{
				"x": -1.1232376258,
				"y": 0.6098558767,
				"z": 2.8624568553,
				"element": "H" 
			},
			{
				"x": -4.8278278704,
				"y": 2.1171887506,
				"z": 1.3555526161,
				"element": "H" 
			},
			{
				"x": -4.2808585088,
				"y": 1.509433651,
				"z": -0.2282020667,
				"element": "H" 
			},
			{
				"x": -5.141167568,
				"y": 0.4097340375,
				"z": 0.9013817899,
				"element": "H" 
			},
			{
				"x": 1.2024792068,
				"y": -0.1850984473,
				"z": -3.0796245809,
				"element": "H" 
			},
			{
				"x": 2.327311434,
				"y": 0.7519321198,
				"z": -2.0876382336,
				"element": "H" 
			},
			{
				"x": 3.5166583716,
				"y": -1.4492198178,
				"z": -3.1582537047,
				"element": "H" 
			},
			{
				"x": 3.5752853186,
				"y": -2.8742664584,
				"z": -0.9529475046,
				"element": "H" 
			},
			{
				"x": 1.2961623697,
				"y": -2.3283504254,
				"z": 0.2665637727,
				"element": "H" 
			},
			{
				"x": 2.4150845675,
				"y": -1.0120883279,
				"z": 0.6504773477,
				"element": "H" 
			}
		],
		 "valence_orbital": [ 
			{
				"type": "occ",
				"energy": -0.28808,
				"method": "rhf"
			},
			{
				"type": "occ",
				"energy": -0.25881,
				"method": "rhf"
			},
			{
				"type": "occ",
				"energy": -0.25684,
				"method": "rhf"
			},
			{
				"type": "occ",
				"energy": -0.24623,
				"method": "rhf"
			},
			{
				"type": "occ",
				"energy": -0.20546,
				"method": "rhf"
			},
			{
				"type": "unocc",
				"energy": 0.01825,
				"method": "rhf"
			},
			{
				"type": "unocc",
				"energy": 0.02013,
				"method": "rhf"
			},
			{
				"type": "unocc",
				"energy": 0.07994,
				"method": "rhf"
			},
			{
				"type": "unocc",
				"energy": 0.10686,
				"method": "rhf"
			},
			{
				"type": "unocc",
				"energy": 0.11089,
				"method": "rhf"
			}
		],
		"cosmo_sigma_profile": { 
			"-0.025": 0.0,
			"-0.024": 0.0,
			"-0.023": 0.0,
			"-0.022": 0.0,
			"-0.021": 0.0,
			"-0.02": 0.0,
			"-0.019": 0.0,
			"-0.018": 0.0,
			"-0.017": 0.0,
			"-0.016": 0.0,
			"-0.015": 0.0,
			"-0.014": 0.0,
			"-0.013": 0.0,
			"-0.012": 0.0,
			"-0.011": 0.0,
			"-0.01": 0.0,
			"-0.009": 0.0,
			"-0.008": 0.0,
			"-0.007": 0.261751842286,
			"-0.006": 5.84899491511,
			"-0.005": 13.3738567393,
			"-0.004": 24.8341599023,
			"-0.003": 44.5461815116,
			"-0.002": 46.4854309678,
			"-0.001": 30.646088385,
			"0.0": 16.2564908783,
			"0.001": 11.7112091332,
			"0.002": 10.6946487364,
			"0.003": 8.13247502002,
			"0.004": 7.68923164861,
			"0.005": 9.13317118884,
			"0.006": 8.98293216599,
			"0.007": 7.23984250642,
			"0.008": 5.09214345915,
			"0.009": 5.33159729424,
			"0.01": 2.7419980368,
			"0.011": 3.01238637486,
			"0.012": 3.91621438194,
			"0.013": 2.05678939207,
			"0.014": 0.0724346168351,
			"0.015": 0.0,
			"0.016": 0.0,
			"0.017": 0.0,
			"0.018": 0.0,
			"0.019": 0.0,
			"0.02": 0.0,
			"0.021": 0.0,
			"0.022": 0.0,
			"0.023": 0.0,
			"0.024": 0.0,
			"0.025": 0.0
		}
	}
}
