{
	 "smiles": "OC1=CC=CC=C1C=C1SC(=S)N(CN(CCCl)CCCl)C1=O", 
	 "Tm": 506.15, 
	 "num_atms": 39, 
	 "gaussian": { 
		 "optdone": 1, 
		 "sigma_profile": "yes", 
		 "theory": "DFT", 
		 "functional": "B3LYP", 
		 "basiset": "6-31G**", 
		 "properties": { 
			 "R2extent": 14252.0118, 
			 "electric_dipole_moment_norm": 1.95100591747, 
			 "electric_quadrupole_moment_norm": 25.39869497, 
			 "total_energy": -2557.94652307, 
			 "HOMO_LUMO_gap": 0.12522, 
			 "cosmo_polarized_energy": -18.79, 
			 "cosmo_cavitation_energy": 48.63, 
			 "cosmo_dispersion_energy": -34.17, 
			 "cosmo_repulsion_energy": 2.55, 
			 "cosmo_total_nonelectrostatic_energy": 17.01, 
			 "SMD_solvation_energy": 6.07 
		},
		"coords": [
			{
				"x": 1.8608155286,
				"y": -4.0577465491,
				"z": 0.9247620848,
				"element": "O" 
			},
			{
				"x": 2.2641934151,
				"y": -3.1858649272,
				"z": 1.8882394005,
				"element": "C" 
			},
			{
				"x": 3.2228986459,
				"y": -3.6625814735,
				"z": 2.7876655544,
				"element": "C" 
			},
			{
				"x": 3.6788611205,
				"y": -2.8492717504,
				"z": 3.8178736797,
				"element": "C" 
			},
			{
				"x": 3.1833372753,
				"y": -1.5470155698,
				"z": 3.9658172825,
				"element": "C" 
			},
			{
				"x": 2.2377987257,
				"y": -1.0692508341,
				"z": 3.0711891141,
				"element": "C" 
			},
			{
				"x": 1.7566039998,
				"y": -1.8640902303,
				"z": 2.0056766854,
				"element": "C" 
			},
			{
				"x": 0.8237217759,
				"y": -1.3717454501,
				"z": 1.0105690715,
				"element": "C" 
			},
			{
				"x": -0.0501913071,
				"y": -0.3364374687,
				"z": 1.0493507448,
				"element": "C" 
			},
			{
				"x": -0.4468832921,
				"y": 0.7740894901,
				"z": 2.3619962865,
				"element": "S" 
			},
			{
				"x": -1.6910181661,
				"y": 1.5982525783,
				"z": 1.3922346052,
				"element": "C" 
			},
			{
				"x": -2.6092467545,
				"y": 2.813492045,
				"z": 2.0141175697,
				"element": "S" 
			},
			{
				"x": -1.7465247394,
				"y": 1.0511137236,
				"z": 0.1291794664,
				"element": "N" 
			},
			{
				"x": -2.7025049545,
				"y": 1.5032948079,
				"z": -0.8992196412,
				"element": "C" 
			},
			{
				"x": -2.2609811705,
				"y": 2.7291464717,
				"z": -1.544293821,
				"element": "N" 
			},
			{
				"x": -3.3300276337,
				"y": 3.5287914915,
				"z": -2.153432488,
				"element": "C" 
			},
			{
				"x": -4.3413629947,
				"y": 4.1229499005,
				"z": -1.171966283,
				"element": "C" 
			},
			{
				"x": -5.8077785913,
				"y": 3.0703529091,
				"z": -0.9048627081,
				"element": "Cl" 
			},
			{
				"x": -1.1210538961,
				"y": 2.5573613285,
				"z": -2.4573534786,
				"element": "C" 
			},
			{
				"x": -0.1011683616,
				"y": 3.669418586,
				"z": -2.2129828194,
				"element": "C" 
			},
			{
				"x": 1.2858129236,
				"y": 3.5428099127,
				"z": -3.3785778073,
				"element": "Cl" 
			},
			{
				"x": -0.8840166653,
				"y": -0.0332240598,
				"z": -0.1363681568,
				"element": "C" 
			},
			{
				"x": -0.8547512932,
				"y": -0.6205029961,
				"z": -1.2057719034,
				"element": "O" 
			},
			{
				"x": 1.0678299859,
				"y": -3.7320142203,
				"z": 0.4807370826,
				"element": "H" 
			},
			{
				"x": 3.5825822172,
				"y": -4.6781594731,
				"z": 2.6625497096,
				"element": "H" 
			},
			{
				"x": 4.4201806295,
				"y": -3.2320405137,
				"z": 4.512994863,
				"element": "H" 
			},
			{
				"x": 3.5442880593,
				"y": -0.9094934765,
				"z": 4.7660300174,
				"element": "H" 
			},
			{
				"x": 1.8942456937,
				"y": -0.0446874304,
				"z": 3.1643307522,
				"element": "H" 
			},
			{
				"x": 0.8059552251,
				"y": -1.8781393234,
				"z": 0.0444905005,
				"element": "H" 
			},
			{
				"x": -3.6537783227,
				"y": 1.6812981182,
				"z": -0.4004335398,
				"element": "H" 
			},
			{
				"x": -2.804021256,
				"y": 0.653691712,
				"z": -1.5866428667,
				"element": "H" 
			},
			{
				"x": -3.8646012899,
				"y": 2.9880385091,
				"z": -2.9539791764,
				"element": "H" 
			},
			{
				"x": -2.8362610505,
				"y": 4.3791756914,
				"z": -2.6368398295,
				"element": "H" 
			},
			{
				"x": -3.8884318283,
				"y": 4.2818752693,
				"z": -0.1931416626,
				"element": "H" 
			},
			{
				"x": -4.7386693424,
				"y": 5.0613074733,
				"z": -1.5590280803,
				"element": "H" 
			},
			{
				"x": -1.4366148521,
				"y": 2.563291085,
				"z": -3.5116637262,
				"element": "H" 
			},
			{
				"x": -0.6478751257,
				"y": 1.588994942,
				"z": -2.2844985245,
				"element": "H" 
			},
			{
				"x": 0.314863133,
				"y": 3.6045342581,
				"z": -1.2074437537,
				"element": "H" 
			},
			{
				"x": -0.5335254662,
				"y": 4.6614854433,
				"z": -2.3523042044,
				"element": "H" 
			}
		],
		 "valence_orbital": [ 
			{
				"type": "occ",
				"energy": -0.27102,
				"method": "rhf"
			},
			{
				"type": "occ",
				"energy": -0.25268,
				"method": "rhf"
			},
			{
				"type": "occ",
				"energy": -0.24653,
				"method": "rhf"
			},
			{
				"type": "occ",
				"energy": -0.23457,
				"method": "rhf"
			},
			{
				"type": "occ",
				"energy": -0.22813,
				"method": "rhf"
			},
			{
				"type": "unocc",
				"energy": -0.10291,
				"method": "rhf"
			},
			{
				"type": "unocc",
				"energy": -0.04956,
				"method": "rhf"
			},
			{
				"type": "unocc",
				"energy": -0.01611,
				"method": "rhf"
			},
			{
				"type": "unocc",
				"energy": -0.0035,
				"method": "rhf"
			},
			{
				"type": "unocc",
				"energy": 0.00443,
				"method": "rhf"
			}
		],
		"cosmo_sigma_profile": { 
			"-0.025": 0.0,
			"-0.024": 0.0,
			"-0.023": 0.0,
			"-0.022": 0.0,
			"-0.021": 0.0,
			"-0.02": 0.0,
			"-0.019": 0.117472930224,
			"-0.018": 0.974315505537,
			"-0.017": 0.722485097889,
			"-0.016": 1.17387505681,
			"-0.015": 0.762434129564,
			"-0.014": 0.923820115436,
			"-0.013": 0.687618084666,
			"-0.012": 0.843263706675,
			"-0.011": 1.29209612967,
			"-0.01": 0.808273355863,
			"-0.009": 1.07810793867,
			"-0.008": 5.01644667784,
			"-0.007": 14.1501200567,
			"-0.006": 22.060614361,
			"-0.005": 29.597407871,
			"-0.004": 30.6150773539,
			"-0.003": 22.7102573875,
			"-0.002": 20.9613966003,
			"-0.001": 23.1753931935,
			"0.0": 29.3793913233,
			"0.001": 27.717805766,
			"0.002": 30.6801146945,
			"0.003": 27.7191331981,
			"0.004": 25.221710268,
			"0.005": 20.8370476518,
			"0.006": 25.1781271362,
			"0.007": 13.9188131877,
			"0.008": 5.72990900921,
			"0.009": 4.78683380822,
			"0.01": 4.94476709001,
			"0.011": 3.02063634704,
			"0.012": 0.00939876728025,
			"0.013": 0.0,
			"0.014": 0.0,
			"0.015": 0.0,
			"0.016": 0.0,
			"0.017": 0.0,
			"0.018": 0.0,
			"0.019": 0.0,
			"0.02": 0.0,
			"0.021": 0.0,
			"0.022": 0.0,
			"0.023": 0.0,
			"0.024": 0.0,
			"0.025": 0.0
		}
	}
}
