{
	 "smiles": "CN1C(=O)NC(=O)C2=C1N=CC(=C2)C(O)=O", 
	 "Tm": 590.15, 
	 "num_atms": 23, 
	 "gaussian": { 
		 "optdone": 1, 
		 "sigma_profile": "yes", 
		 "theory": "DFT", 
		 "functional": "B3LYP", 
		 "basiset": "6-31G**", 
		 "properties": { 
			 "R2extent": 4248.1635, 
			 "electric_dipole_moment_norm": 2.21354205291, 
			 "electric_quadrupole_moment_norm": 22.4496469342, 
			 "total_energy": -812.386586266, 
			 "HOMO_LUMO_gap": 0.17768, 
			 "cosmo_polarized_energy": -21.85, 
			 "cosmo_cavitation_energy": 28.45, 
			 "cosmo_dispersion_energy": -21.22, 
			 "cosmo_repulsion_energy": 1.61, 
			 "cosmo_total_nonelectrostatic_energy": 8.84, 
			 "SMD_solvation_energy": 6.64 
		},
		"coords": [
			{
				"x": 1.8406219851,
				"y": 1.4561733045,
				"z": -1.8797211586,
				"element": "C" 
			},
			{
				"x": 1.952431322,
				"y": 0.8775052158,
				"z": -0.5338325027,
				"element": "N" 
			},
			{
				"x": 3.2064732377,
				"y": 0.8915753835,
				"z": 0.0863811639,
				"element": "C" 
			},
			{
				"x": 4.2067434532,
				"y": 1.3525624824,
				"z": -0.4309396813,
				"element": "O" 
			},
			{
				"x": 3.2427896618,
				"y": 0.3325674726,
				"z": 1.3634197682,
				"element": "N" 
			},
			{
				"x": 2.2031330794,
				"y": -0.232675798,
				"z": 2.0934934062,
				"element": "C" 
			},
			{
				"x": 2.3712758423,
				"y": -0.6926314976,
				"z": 3.211399112,
				"element": "O" 
			},
			{
				"x": 0.9203712871,
				"y": -0.2119558948,
				"z": 1.3729918811,
				"element": "C" 
			},
			{
				"x": 0.8311799665,
				"y": 0.3458619994,
				"z": 0.0800774895,
				"element": "C" 
			},
			{
				"x": -0.3200748778,
				"y": 0.3957851435,
				"z": -0.6096170817,
				"element": "N" 
			},
			{
				"x": -1.4072414636,
				"y": -0.108189718,
				"z": -0.0334353888,
				"element": "C" 
			},
			{
				"x": -1.4323184852,
				"y": -0.7030957489,
				"z": 1.2428481952,
				"element": "C" 
			},
			{
				"x": -0.2314168175,
				"y": -0.7370049204,
				"z": 1.9505728366,
				"element": "C" 
			},
			{
				"x": -2.7454669836,
				"y": -1.2111087956,
				"z": 1.748875999,
				"element": "C" 
			},
			{
				"x": -2.7215194461,
				"y": -2.019617767,
				"z": 2.8379784483,
				"element": "O" 
			},
			{
				"x": -3.7980536504,
				"y": -0.9262085542,
				"z": 1.2274488551,
				"element": "O" 
			},
			{
				"x": 2.8305363646,
				"y": 1.8061705743,
				"z": -2.1616976616,
				"element": "H" 
			},
			{
				"x": 1.4861958812,
				"y": 0.6997409804,
				"z": -2.5820418437,
				"element": "H" 
			},
			{
				"x": 1.1286887483,
				"y": 2.2833458311,
				"z": -1.8718480427,
				"element": "H" 
			},
			{
				"x": 4.1555261446,
				"y": 0.3485817286,
				"z": 1.8032102912,
				"element": "H" 
			},
			{
				"x": -2.3342600563,
				"y": -0.0514017404,
				"z": -0.5978127646,
				"element": "H" 
			},
			{
				"x": -0.1345840731,
				"y": -1.135151066,
				"z": 2.9577634952,
				"element": "H" 
			},
			{
				"x": -1.81723112,
				"y": -2.2717286153,
				"z": 3.0694851841,
				"element": "H" 
			}
		],
		 "valence_orbital": [ 
			{
				"type": "occ",
				"energy": -0.30948,
				"method": "rhf"
			},
			{
				"type": "occ",
				"energy": -0.30565,
				"method": "rhf"
			},
			{
				"type": "occ",
				"energy": -0.28767,
				"method": "rhf"
			},
			{
				"type": "occ",
				"energy": -0.28184,
				"method": "rhf"
			},
			{
				"type": "occ",
				"energy": -0.26227,
				"method": "rhf"
			},
			{
				"type": "unocc",
				"energy": -0.08459,
				"method": "rhf"
			},
			{
				"type": "unocc",
				"energy": -0.07431,
				"method": "rhf"
			},
			{
				"type": "unocc",
				"energy": -0.00529,
				"method": "rhf"
			},
			{
				"type": "unocc",
				"energy": 0.00823,
				"method": "rhf"
			},
			{
				"type": "unocc",
				"energy": 0.04314,
				"method": "rhf"
			}
		],
		"cosmo_sigma_profile": { 
			"-0.025": 0.0,
			"-0.024": 0.0,
			"-0.023": 0.0,
			"-0.022": 0.0,
			"-0.021": 0.0,
			"-0.02": 0.37319209875,
			"-0.019": 1.10761115396,
			"-0.018": 1.32366640426,
			"-0.017": 1.60374838001,
			"-0.016": 1.72938474162,
			"-0.015": 1.29287571697,
			"-0.014": 2.22811070508,
			"-0.013": 1.83228985785,
			"-0.012": 2.1815866923,
			"-0.011": 1.56082323217,
			"-0.01": 1.99572451442,
			"-0.009": 1.77695648167,
			"-0.008": 4.35676353395,
			"-0.007": 5.11068814209,
			"-0.006": 10.1159374445,
			"-0.005": 13.059727318,
			"-0.004": 20.4812326084,
			"-0.003": 25.2242765431,
			"-0.002": 22.0219708968,
			"-0.001": 11.3911731541,
			"0.0": 7.14586837568,
			"0.001": 6.38682351329,
			"0.002": 6.91068756986,
			"0.003": 5.27999068504,
			"0.004": 5.46604197519,
			"0.005": 7.37833681912,
			"0.006": 4.73504310026,
			"0.007": 5.95456783841,
			"0.008": 5.69257161166,
			"0.009": 8.51293504375,
			"0.01": 9.37022698536,
			"0.011": 13.8107650254,
			"0.012": 10.06556965,
			"0.013": 1.12063653192,
			"0.014": 0.0,
			"0.015": 0.0,
			"0.016": 0.0,
			"0.017": 0.0,
			"0.018": 0.0,
			"0.019": 0.0,
			"0.02": 0.0,
			"0.021": 0.0,
			"0.022": 0.0,
			"0.023": 0.0,
			"0.024": 0.0,
			"0.025": 0.0
		}
	}
}
