{
	 "smiles": "O=C1NC(=O)C2=NC=CN=C2N1", 
	 "Tm": 621.15, 
	 "num_atms": 16, 
	 "gaussian": { 
		 "optdone": 1, 
		 "sigma_profile": "yes", 
		 "theory": "DFT", 
		 "functional": "B3LYP", 
		 "basiset": "6-31G**", 
		 "properties": { 
			 "R2extent": 2532.9441, 
			 "electric_dipole_moment_norm": 3.61932032432, 
			 "electric_quadrupole_moment_norm": 12.0154763763, 
			 "total_energy": -600.537184437, 
			 "HOMO_LUMO_gap": 0.17485, 
			 "cosmo_polarized_energy": -18.34, 
			 "cosmo_cavitation_energy": 21.6, 
			 "cosmo_dispersion_energy": -16.55, 
			 "cosmo_repulsion_energy": 1.3, 
			 "cosmo_total_nonelectrostatic_energy": 6.35, 
			 "SMD_solvation_energy": 2.61 
		},
		"coords": [
			{
				"x": -1.2502611772,
				"y": -2.3629048528,
				"z": -2.4475890745,
				"element": "O" 
			},
			{
				"x": -0.3863328645,
				"y": -1.8013626393,
				"z": -1.8042391446,
				"element": "C" 
			},
			{
				"x": 0.2076016934,
				"y": -0.6050111156,
				"z": -2.2014782442,
				"element": "N" 
			},
			{
				"x": 1.2064239743,
				"y": 0.143515635,
				"z": -1.5611112779,
				"element": "C" 
			},
			{
				"x": 1.625134258,
				"y": 1.1777655727,
				"z": -2.0374095687,
				"element": "O" 
			},
			{
				"x": 1.6597080831,
				"y": -0.4706581542,
				"z": -0.2815872186,
				"element": "C" 
			},
			{
				"x": 2.6081371951,
				"y": 0.1363280973,
				"z": 0.4346083587,
				"element": "N" 
			},
			{
				"x": 2.9766919854,
				"y": -0.4554556048,
				"z": 1.5701767224,
				"element": "C" 
			},
			{
				"x": 2.3957708733,
				"y": -1.6595496832,
				"z": 1.9937240645,
				"element": "C" 
			},
			{
				"x": 1.4473739579,
				"y": -2.2816224928,
				"z": 1.2932886642,
				"element": "N" 
			},
			{
				"x": 1.0818361987,
				"y": -1.6822187088,
				"z": 0.1539942619,
				"element": "C" 
			},
			{
				"x": 0.1036762749,
				"y": -2.2917939049,
				"z": -0.6014554349,
				"element": "N" 
			},
			{
				"x": -0.1356856442,
				"y": -0.2289866668,
				"z": -3.0775079049,
				"element": "H" 
			},
			{
				"x": 3.7484146265,
				"y": 0.0312644779,
				"z": 2.1603321497,
				"element": "H" 
			},
			{
				"x": 2.7061851521,
				"y": -2.1317927185,
				"z": 2.9231296322,
				"element": "H" 
			},
			{
				"x": -0.2941745868,
				"y": -3.1599172412,
				"z": -0.2663759852,
				"element": "H" 
			}
		],
		 "valence_orbital": [ 
			{
				"type": "occ",
				"energy": -0.30824,
				"method": "rhf"
			},
			{
				"type": "occ",
				"energy": -0.29782,
				"method": "rhf"
			},
			{
				"type": "occ",
				"energy": -0.28834,
				"method": "rhf"
			},
			{
				"type": "occ",
				"energy": -0.26961,
				"method": "rhf"
			},
			{
				"type": "occ",
				"energy": -0.26444,
				"method": "rhf"
			},
			{
				"type": "unocc",
				"energy": -0.08959,
				"method": "rhf"
			},
			{
				"type": "unocc",
				"energy": -0.0506,
				"method": "rhf"
			},
			{
				"type": "unocc",
				"energy": 0.00051,
				"method": "rhf"
			},
			{
				"type": "unocc",
				"energy": 0.05152,
				"method": "rhf"
			},
			{
				"type": "unocc",
				"energy": 0.07099,
				"method": "rhf"
			}
		],
		"cosmo_sigma_profile": { 
			"-0.025": 0.0,
			"-0.024": 0.0,
			"-0.023": 0.0,
			"-0.022": 0.0,
			"-0.021": 0.0,
			"-0.02": 0.0,
			"-0.019": 0.0,
			"-0.018": 0.0,
			"-0.017": 0.405290328482,
			"-0.016": 2.18364211307,
			"-0.015": 1.44472981137,
			"-0.014": 1.63650880565,
			"-0.013": 1.66463756493,
			"-0.012": 1.4456032237,
			"-0.011": 1.42821774375,
			"-0.01": 1.63104412244,
			"-0.009": 4.70535633896,
			"-0.008": 9.52450174709,
			"-0.007": 8.02300039297,
			"-0.006": 7.47368116132,
			"-0.005": 10.1831613445,
			"-0.004": 10.9188356346,
			"-0.003": 15.1761022061,
			"-0.002": 14.1805334962,
			"-0.001": 7.7565301156,
			"0.0": 4.96517293272,
			"0.001": 5.95198377356,
			"0.002": 4.7904148164,
			"0.003": 3.38860336769,
			"0.004": 4.78592964205,
			"0.005": 3.30968029248,
			"0.006": 2.77392412138,
			"0.007": 4.73530201028,
			"0.008": 4.76521062777,
			"0.009": 4.01867948446,
			"0.01": 4.93598764351,
			"0.011": 9.64531728976,
			"0.012": 11.1129223711,
			"0.013": 2.17293734279,
			"0.014": 1.76564698558,
			"0.015": 1.33388086175,
			"0.016": 0.266869401023,
			"0.017": 0.0,
			"0.018": 0.0,
			"0.019": 0.0,
			"0.02": 0.0,
			"0.021": 0.0,
			"0.022": 0.0,
			"0.023": 0.0,
			"0.024": 0.0,
			"0.025": 0.0
		}
	}
}
