{
	 "smiles": "NC1=C(C=NC=N1)C1=CC=C(Cl)C=C1", 
	 "Tm": 469.15, 
	 "num_atms": 22, 
	 "gaussian": { 
		 "optdone": 1, 
		 "sigma_profile": "yes", 
		 "theory": "DFT", 
		 "functional": "B3LYP", 
		 "basiset": "6-31G**", 
		 "properties": { 
			 "R2extent": 4457.4425, 
			 "electric_dipole_moment_norm": 2.45046296646, 
			 "electric_quadrupole_moment_norm": 13.0970792439, 
			 "total_energy": -1010.34566759, 
			 "HOMO_LUMO_gap": 0.18489, 
			 "cosmo_polarized_energy": -11.89, 
			 "cosmo_cavitation_energy": 28.24, 
			 "cosmo_dispersion_energy": -21.01, 
			 "cosmo_repulsion_energy": 1.65, 
			 "cosmo_total_nonelectrostatic_energy": 8.87, 
			 "SMD_solvation_energy": 1.57 
		},
		"coords": [
			{
				"x": 1.6324164652,
				"y": 2.2187558884,
				"z": 1.2880817375,
				"element": "N" 
			},
			{
				"x": 1.7081443563,
				"y": 0.9140057508,
				"z": 0.8802780146,
				"element": "C" 
			},
			{
				"x": 0.6011434125,
				"y": 0.2207981347,
				"z": 0.3156517033,
				"element": "C" 
			},
			{
				"x": 0.859278923,
				"y": -1.1009559793,
				"z": -0.0438804062,
				"element": "C" 
			},
			{
				"x": 2.0392247757,
				"y": -1.7172780335,
				"z": 0.1212343744,
				"element": "N" 
			},
			{
				"x": 2.9908893352,
				"y": -0.9624823568,
				"z": 0.6744796421,
				"element": "C" 
			},
			{
				"x": 2.8958755006,
				"y": 0.3105917635,
				"z": 1.0571164287,
				"element": "N" 
			},
			{
				"x": -0.732163431,
				"y": 0.8323443593,
				"z": 0.0966818832,
				"element": "C" 
			},
			{
				"x": -1.3927797217,
				"y": 0.6711415656,
				"z": -1.13360433,
				"element": "C" 
			},
			{
				"x": -2.662667984,
				"y": 1.2024685202,
				"z": -1.3503166652,
				"element": "C" 
			},
			{
				"x": -3.2870834177,
				"y": 1.9133607468,
				"z": -0.3261189513,
				"element": "C" 
			},
			{
				"x": -4.8836686939,
				"y": 2.5953958826,
				"z": -0.5923588519,
				"element": "Cl" 
			},
			{
				"x": -2.6592396263,
				"y": 2.0926245043,
				"z": 0.9061070756,
				"element": "C" 
			},
			{
				"x": -1.3908503413,
				"y": 1.5518368031,
				"z": 1.1105148018,
				"element": "C" 
			},
			{
				"x": 0.9049312357,
				"y": 2.8045616758,
				"z": 0.9078835773,
				"element": "H" 
			},
			{
				"x": 2.5223362231,
				"y": 2.6562303455,
				"z": 1.4791020358,
				"element": "H" 
			},
			{
				"x": 0.058296834,
				"y": -1.7000706355,
				"z": -0.4753306605,
				"element": "H" 
			},
			{
				"x": 3.9597932142,
				"y": -1.4351898269,
				"z": 0.8278508,
				"element": "H" 
			},
			{
				"x": -0.8986045375,
				"y": 0.1343630945,
				"z": -1.9378029579,
				"element": "H" 
			},
			{
				"x": -3.1598101306,
				"y": 1.0752023901,
				"z": -2.3056318994,
				"element": "H" 
			},
			{
				"x": -3.1610577575,
				"y": 2.6383448659,
				"z": 1.6976065822,
				"element": "H" 
			},
			{
				"x": -0.914504634,
				"y": 1.673150541,
				"z": 2.0785560657,
				"element": "H" 
			}
		],
		 "valence_orbital": [ 
			{
				"type": "occ",
				"energy": -0.29628,
				"method": "rhf"
			},
			{
				"type": "occ",
				"energy": -0.27516,
				"method": "rhf"
			},
			{
				"type": "occ",
				"energy": -0.26484,
				"method": "rhf"
			},
			{
				"type": "occ",
				"energy": -0.24994,
				"method": "rhf"
			},
			{
				"type": "occ",
				"energy": -0.22927,
				"method": "rhf"
			},
			{
				"type": "unocc",
				"energy": -0.04438,
				"method": "rhf"
			},
			{
				"type": "unocc",
				"energy": -0.02659,
				"method": "rhf"
			},
			{
				"type": "unocc",
				"energy": -0.01898,
				"method": "rhf"
			},
			{
				"type": "unocc",
				"energy": 0.00257,
				"method": "rhf"
			},
			{
				"type": "unocc",
				"energy": 0.02303,
				"method": "rhf"
			}
		],
		"cosmo_sigma_profile": { 
			"-0.025": 0.0,
			"-0.024": 0.0,
			"-0.023": 0.0,
			"-0.022": 0.0,
			"-0.021": 0.0,
			"-0.02": 0.0,
			"-0.019": 0.0,
			"-0.018": 0.0,
			"-0.017": 0.0,
			"-0.016": 0.0,
			"-0.015": 0.0,
			"-0.014": 0.230566803599,
			"-0.013": 1.9917708626,
			"-0.012": 1.63505421085,
			"-0.011": 2.4443579439,
			"-0.01": 2.16493464636,
			"-0.009": 2.25275662117,
			"-0.008": 1.92213783298,
			"-0.007": 9.05370935665,
			"-0.006": 15.3676133289,
			"-0.005": 11.8733787748,
			"-0.004": 10.4973502007,
			"-0.003": 13.0256893458,
			"-0.002": 10.8418787233,
			"-0.001": 15.8021840043,
			"0.0": 20.5141011296,
			"0.001": 21.3743158872,
			"0.002": 20.2115438136,
			"0.003": 19.6136577063,
			"0.004": 16.4657131194,
			"0.005": 8.93310150832,
			"0.006": 3.2104936772,
			"0.007": 2.73291937703,
			"0.008": 3.337378814,
			"0.009": 2.69659363456,
			"0.01": 1.82730129382,
			"0.011": 1.82341608986,
			"0.012": 1.07376912111,
			"0.013": 1.83767285818,
			"0.014": 1.94043030947,
			"0.015": 1.46601902235,
			"0.016": 0.674700568296,
			"0.017": 0.389569586822,
			"0.018": 0.0,
			"0.019": 0.0,
			"0.02": 0.0,
			"0.021": 0.0,
			"0.022": 0.0,
			"0.023": 0.0,
			"0.024": 0.0,
			"0.025": 0.0
		}
	}
}
