{
	 "smiles": "CC(C)(C)C1=NC(CC(O)=O)=CS1", 
	 "Tm": 368.15, 
	 "num_atms": 26, 
	 "gaussian": { 
		 "optdone": 1, 
		 "sigma_profile": "yes", 
		 "theory": "DFT", 
		 "functional": "B3LYP", 
		 "basiset": "6-31G**", 
		 "properties": { 
			 "R2extent": 3560.8305, 
			 "electric_dipole_moment_norm": 6.1638473156, 
			 "electric_quadrupole_moment_norm": 23.1476896115, 
			 "total_energy": -954.205803195, 
			 "HOMO_LUMO_gap": 0.2023, 
			 "cosmo_polarized_energy": -12.38, 
			 "cosmo_cavitation_energy": 30.23, 
			 "cosmo_dispersion_energy": -21.58, 
			 "cosmo_repulsion_energy": 1.67, 
			 "cosmo_total_nonelectrostatic_energy": 10.32, 
			 "SMD_solvation_energy": 5.99 
		},
		"coords": [
			{
				"x": 0.5872008652,
				"y": 2.0306466141,
				"z": -1.8319224997,
				"element": "C" 
			},
			{
				"x": -0.1209176583,
				"y": 1.1180522275,
				"z": -0.8143820078,
				"element": "C" 
			},
			{
				"x": -1.5631980805,
				"y": 0.8326611613,
				"z": -1.2903438536,
				"element": "C" 
			},
			{
				"x": -0.1564370147,
				"y": 1.8148462437,
				"z": 0.5672636943,
				"element": "C" 
			},
			{
				"x": 0.6084168588,
				"y": -0.2080101031,
				"z": -0.6568321263,
				"element": "C" 
			},
			{
				"x": 0.1463272903,
				"y": -1.2109071082,
				"z": 0.0425427151,
				"element": "N" 
			},
			{
				"x": 1.0078347241,
				"y": -2.2921090276,
				"z": 0.073742435,
				"element": "C" 
			},
			{
				"x": 0.5885837952,
				"y": -3.5247707258,
				"z": 0.8279138458,
				"element": "C" 
			},
			{
				"x": 0.0092999137,
				"y": -3.2928661701,
				"z": 2.2368898887,
				"element": "C" 
			},
			{
				"x": -0.770498892,
				"y": -2.2100053126,
				"z": 2.3837164203,
				"element": "O" 
			},
			{
				"x": 0.1962010993,
				"y": -4.0768547317,
				"z": 3.1363619847,
				"element": "O" 
			},
			{
				"x": 2.165814777,
				"y": -2.1116516762,
				"z": -0.6259729574,
				"element": "C" 
			},
			{
				"x": 2.1827863469,
				"y": -0.5411502752,
				"z": -1.3580936163,
				"element": "S" 
			},
			{
				"x": 0.6312195889,
				"y": 1.5714712128,
				"z": -2.8249507432,
				"element": "H" 
			},
			{
				"x": 1.6078271325,
				"y": 2.2747697686,
				"z": -1.5179976632,
				"element": "H" 
			},
			{
				"x": 0.039117404,
				"y": 2.972970362,
				"z": -1.925084884,
				"element": "H" 
			},
			{
				"x": -1.5660066361,
				"y": 0.3512448301,
				"z": -2.2734859454,
				"element": "H" 
			},
			{
				"x": -2.1213507407,
				"y": 1.7714077428,
				"z": -1.3683344993,
				"element": "H" 
			},
			{
				"x": -2.0843570013,
				"y": 0.1767141379,
				"z": -0.5892087774,
				"element": "H" 
			},
			{
				"x": -0.6522535422,
				"y": 1.186110209,
				"z": 1.3114911121,
				"element": "H" 
			},
			{
				"x": 0.8544096843,
				"y": 2.0341003309,
				"z": 0.925678273,
				"element": "H" 
			},
			{
				"x": -0.7046536583,
				"y": 2.7600503276,
				"z": 0.4941100124,
				"element": "H" 
			},
			{
				"x": 1.4183456924,
				"y": -4.2247235611,
				"z": 0.9307354736,
				"element": "H" 
			},
			{
				"x": -0.1995477827,
				"y": -4.041450916,
				"z": 0.2607763914,
				"element": "H" 
			},
			{
				"x": -0.7391563535,
				"y": -1.6671770777,
				"z": 1.5599550097,
				"element": "H" 
			},
			{
				"x": 2.9880921877,
				"y": -2.8007684829,
				"z": -0.7539676824,
				"element": "H" 
			}
		],
		 "valence_orbital": [ 
			{
				"type": "occ",
				"energy": -0.30401,
				"method": "rhf"
			},
			{
				"type": "occ",
				"energy": -0.29765,
				"method": "rhf"
			},
			{
				"type": "occ",
				"energy": -0.29267,
				"method": "rhf"
			},
			{
				"type": "occ",
				"energy": -0.26747,
				"method": "rhf"
			},
			{
				"type": "occ",
				"energy": -0.24406,
				"method": "rhf"
			},
			{
				"type": "unocc",
				"energy": -0.04176,
				"method": "rhf"
			},
			{
				"type": "unocc",
				"energy": 0.00574,
				"method": "rhf"
			},
			{
				"type": "unocc",
				"energy": 0.01833,
				"method": "rhf"
			},
			{
				"type": "unocc",
				"energy": 0.03492,
				"method": "rhf"
			},
			{
				"type": "unocc",
				"energy": 0.06733,
				"method": "rhf"
			}
		],
		"cosmo_sigma_profile": { 
			"-0.025": 0.0,
			"-0.024": 0.0,
			"-0.023": 0.0,
			"-0.022": 0.0,
			"-0.021": 0.0,
			"-0.02": 0.0,
			"-0.019": 0.0,
			"-0.018": 0.0,
			"-0.017": 0.0,
			"-0.016": 0.0,
			"-0.015": 0.0,
			"-0.014": 0.0,
			"-0.013": 0.0,
			"-0.012": 0.0,
			"-0.011": 0.0,
			"-0.01": 0.136446211212,
			"-0.009": 2.10774121751,
			"-0.008": 4.14188338819,
			"-0.007": 7.56271861176,
			"-0.006": 5.24043124404,
			"-0.005": 6.50521046409,
			"-0.004": 20.1374793341,
			"-0.003": 30.4851636781,
			"-0.002": 25.5898828815,
			"-0.001": 24.6039269095,
			"0.0": 31.0507301355,
			"0.001": 25.4098886098,
			"0.002": 11.6242640933,
			"0.003": 8.57041840492,
			"0.004": 3.07165383612,
			"0.005": 2.83171059804,
			"0.006": 3.02681402963,
			"0.007": 2.0923144752,
			"0.008": 2.31771854344,
			"0.009": 2.54246493558,
			"0.01": 4.17544901233,
			"0.011": 5.07396418566,
			"0.012": 6.77840801867,
			"0.013": 3.98888949365,
			"0.014": 0.667548320139,
			"0.015": 0.0,
			"0.016": 0.0,
			"0.017": 0.0,
			"0.018": 0.0,
			"0.019": 0.0,
			"0.02": 0.0,
			"0.021": 0.0,
			"0.022": 0.0,
			"0.023": 0.0,
			"0.024": 0.0,
			"0.025": 0.0
		}
	}
}
