{
	 "smiles": "CC1=NC(=CS1)C1=CC(NC(=O)OCC(F)(F)F)=CC=C1", 
	 "Tm": 368.15, 
	 "num_atms": 32, 
	 "gaussian": { 
		 "optdone": 1, 
		 "sigma_profile": "yes", 
		 "theory": "DFT", 
		 "functional": "B3LYP", 
		 "basiset": "6-31G**", 
		 "properties": { 
			 "R2extent": 11224.1707, 
			 "electric_dipole_moment_norm": 3.38632480427, 
			 "electric_quadrupole_moment_norm": 14.4197162427, 
			 "total_energy": -1459.70332433, 
			 "HOMO_LUMO_gap": 0.17511, 
			 "cosmo_polarized_energy": -13.55, 
			 "cosmo_cavitation_energy": 40.51, 
			 "cosmo_dispersion_energy": -28.93, 
			 "cosmo_repulsion_energy": 2.1, 
			 "cosmo_total_nonelectrostatic_energy": 13.69, 
			 "SMD_solvation_energy": 7.8 
		},
		"coords": [
			{
				"x": 5.0945212689,
				"y": -0.8365180045,
				"z": -4.1437794093,
				"element": "C" 
			},
			{
				"x": 3.9292878623,
				"y": 0.0721183753,
				"z": -3.8962414428,
				"element": "C" 
			},
			{
				"x": 3.0773406288,
				"y": -0.0727426574,
				"z": -2.9276456346,
				"element": "N" 
			},
			{
				"x": 2.0978327745,
				"y": 0.9094093374,
				"z": -2.9312052246,
				"element": "C" 
			},
			{
				"x": 2.2221228722,
				"y": 1.8262993815,
				"z": -3.9445482869,
				"element": "C" 
			},
			{
				"x": 3.5981842787,
				"y": 1.4643320492,
				"z": -4.9288954679,
				"element": "S" 
			},
			{
				"x": 1.0527217767,
				"y": 0.8823846277,
				"z": -1.8889614514,
				"element": "C" 
			},
			{
				"x": 1.0624404294,
				"y": -0.1447757642,
				"z": -0.9379067928,
				"element": "C" 
			},
			{
				"x": 0.0932070629,
				"y": -0.2115709895,
				"z": 0.0706343945,
				"element": "C" 
			},
			{
				"x": 0.2312222419,
				"y": -1.2695462069,
				"z": 1.0033410696,
				"element": "N" 
			},
			{
				"x": -0.6484497168,
				"y": -1.8722799557,
				"z": 1.8594511051,
				"element": "C" 
			},
			{
				"x": -0.3374965685,
				"y": -2.7667703956,
				"z": 2.6211485976,
				"element": "O" 
			},
			{
				"x": -1.9144171444,
				"y": -1.3724448593,
				"z": 1.7321670023,
				"element": "O" 
			},
			{
				"x": -2.8618397109,
				"y": -1.8125684622,
				"z": 2.6958976405,
				"element": "C" 
			},
			{
				"x": -3.1227328431,
				"y": -0.6839317602,
				"z": 3.6779478049,
				"element": "C" 
			},
			{
				"x": -2.0116143326,
				"y": -0.3555762293,
				"z": 4.3610753839,
				"element": "F" 
			},
			{
				"x": -4.0702852085,
				"y": -1.0587781742,
				"z": 4.5610230824,
				"element": "F" 
			},
			{
				"x": -3.55759432,
				"y": 0.4286968557,
				"z": 3.0485086149,
				"element": "F" 
			},
			{
				"x": -0.9062032473,
				"y": 0.7686100887,
				"z": 0.1397742251,
				"element": "C" 
			},
			{
				"x": -0.9198372427,
				"y": 1.7846965929,
				"z": -0.816821335,
				"element": "C" 
			},
			{
				"x": 0.0401156264,
				"y": 1.8530807614,
				"z": -1.8212292283,
				"element": "C" 
			},
			{
				"x": 5.0356887969,
				"y": -1.30483635,
				"z": -5.1319154917,
				"element": "H" 
			},
			{
				"x": 5.0915778635,
				"y": -1.6193798029,
				"z": -3.3832805596,
				"element": "H" 
			},
			{
				"x": 6.0447609438,
				"y": -0.2950216002,
				"z": -4.0884547298,
				"element": "H" 
			},
			{
				"x": 1.5968144412,
				"y": 2.6777443457,
				"z": -4.1681659174,
				"element": "H" 
			},
			{
				"x": 1.8411240578,
				"y": -0.8981027776,
				"z": -1.0001509167,
				"element": "H" 
			},
			{
				"x": 1.1347373627,
				"y": -1.7211324713,
				"z": 1.0285340629,
				"element": "H" 
			},
			{
				"x": -2.4898972823,
				"y": -2.685969461,
				"z": 3.234047117,
				"element": "H" 
			},
			{
				"x": -3.7909939377,
				"y": -2.0478355476,
				"z": 2.1730108589,
				"element": "H" 
			},
			{
				"x": -1.6543517136,
				"y": 0.7428525831,
				"z": 0.9190040637,
				"element": "H" 
			},
			{
				"x": -1.6952605871,
				"y": 2.5434116821,
				"z": -0.7644217975,
				"element": "H" 
			},
			{
				"x": 0.0015735672,
				"y": 2.6611447886,
				"z": -2.5443413371,
				"element": "H" 
			}
		],
		 "valence_orbital": [ 
			{
				"type": "occ",
				"energy": -0.29101,
				"method": "rhf"
			},
			{
				"type": "occ",
				"energy": -0.27791,
				"method": "rhf"
			},
			{
				"type": "occ",
				"energy": -0.27322,
				"method": "rhf"
			},
			{
				"type": "occ",
				"energy": -0.23269,
				"method": "rhf"
			},
			{
				"type": "occ",
				"energy": -0.21698,
				"method": "rhf"
			},
			{
				"type": "unocc",
				"energy": -0.04187,
				"method": "rhf"
			},
			{
				"type": "unocc",
				"energy": -0.01254,
				"method": "rhf"
			},
			{
				"type": "unocc",
				"energy": -0.00563,
				"method": "rhf"
			},
			{
				"type": "unocc",
				"energy": 0.01281,
				"method": "rhf"
			},
			{
				"type": "unocc",
				"energy": 0.04515,
				"method": "rhf"
			}
		],
		"cosmo_sigma_profile": { 
			"-0.025": 0.0,
			"-0.024": 0.0,
			"-0.023": 0.0,
			"-0.022": 0.0,
			"-0.021": 0.0,
			"-0.02": 0.0,
			"-0.019": 0.0,
			"-0.018": 0.0,
			"-0.017": 0.0,
			"-0.016": 0.100913777105,
			"-0.015": 0.825732780505,
			"-0.014": 1.25528598465,
			"-0.013": 1.12692113754,
			"-0.012": 0.986940853818,
			"-0.011": 0.948210318492,
			"-0.01": 2.80543500667,
			"-0.009": 5.92604606607,
			"-0.008": 6.91289913264,
			"-0.007": 6.90352295374,
			"-0.006": 12.814191867,
			"-0.005": 17.8675932377,
			"-0.004": 16.8676259737,
			"-0.003": 17.5164010174,
			"-0.002": 23.5688326189,
			"-0.001": 20.2853441391,
			"0.0": 21.9651356174,
			"0.001": 25.9510375067,
			"0.002": 44.768146504,
			"0.003": 42.776961058,
			"0.004": 17.8719137436,
			"0.005": 12.9661570109,
			"0.006": 4.14681686463,
			"0.007": 2.77601119616,
			"0.008": 2.42964075964,
			"0.009": 3.1563609722,
			"0.01": 2.97727371382,
			"0.011": 3.39973410376,
			"0.012": 4.5190819958,
			"0.013": 0.665132067288,
			"0.014": 0.0,
			"0.015": 0.0,
			"0.016": 0.0,
			"0.017": 0.0,
			"0.018": 0.0,
			"0.019": 0.0,
			"0.02": 0.0,
			"0.021": 0.0,
			"0.022": 0.0,
			"0.023": 0.0,
			"0.024": 0.0,
			"0.025": 0.0
		}
	}
}
