{
	 "smiles": "CC1=C(SC(=N1)C1=NC=CN=C1)C(=O)CBr", 
	 "Tm": 373.15, 
	 "num_atms": 24, 
	 "gaussian": { 
		 "optdone": 1, 
		 "sigma_profile": "yes", 
		 "theory": "DFT", 
		 "functional": "B3LYP", 
		 "basiset": "6-31G**", 
		 "properties": { 
			 "R2extent": 7119.6604, 
			 "electric_dipole_moment_norm": 2.23982488601, 
			 "electric_quadrupole_moment_norm": 23.0459277544, 
			 "total_energy": -3594.94078278, 
			 "HOMO_LUMO_gap": 0.14645, 
			 "cosmo_polarized_energy": -12.8, 
			 "cosmo_cavitation_energy": 32.83, 
			 "cosmo_dispersion_energy": -24.69, 
			 "cosmo_repulsion_energy": 1.87, 
			 "cosmo_total_nonelectrostatic_energy": 10.0, 
			 "SMD_solvation_energy": 1.12 
		},
		"coords": [
			{
				"x": -2.0160177893,
				"y": 1.1954797002,
				"z": -0.8794961947,
				"element": "C" 
			},
			{
				"x": -0.7892127438,
				"y": 0.470742508,
				"z": -0.399647686,
				"element": "C" 
			},
			{
				"x": -0.3406366304,
				"y": -0.8006228109,
				"z": -0.7515753633,
				"element": "C" 
			},
			{
				"x": 1.1334115556,
				"y": -1.1793834778,
				"z": 0.1090721019,
				"element": "S" 
			},
			{
				"x": 1.0373674307,
				"y": 0.384022992,
				"z": 0.8592326872,
				"element": "C" 
			},
			{
				"x": 0.0030088726,
				"y": 1.1177881136,
				"z": 0.5077856294,
				"element": "N" 
			},
			{
				"x": 2.0545100657,
				"y": 0.8308712192,
				"z": 1.8150180082,
				"element": "C" 
			},
			{
				"x": 3.0567143426,
				"y": -0.0200945046,
				"z": 2.08836709,
				"element": "N" 
			},
			{
				"x": 3.9749886671,
				"y": 0.3993576987,
				"z": 2.9587092024,
				"element": "C" 
			},
			{
				"x": 3.9002638223,
				"y": 1.6604554602,
				"z": 3.5581119606,
				"element": "C" 
			},
			{
				"x": 2.9041898956,
				"y": 2.5140413512,
				"z": 3.2907023473,
				"element": "N" 
			},
			{
				"x": 1.9828979605,
				"y": 2.0984066322,
				"z": 2.4194872805,
				"element": "C" 
			},
			{
				"x": -0.8578531974,
				"y": -1.852904616,
				"z": -1.6376995503,
				"element": "C" 
			},
			{
				"x": -0.2993376328,
				"y": -2.9405147367,
				"z": -1.7064360894,
				"element": "O" 
			},
			{
				"x": -2.1085639421,
				"y": -1.6237443231,
				"z": -2.4763183981,
				"element": "C" 
			},
			{
				"x": -1.6586641489,
				"y": -0.6012167189,
				"z": -4.1116513856,
				"element": "Br" 
			},
			{
				"x": -1.9768381204,
				"y": 2.2216932907,
				"z": -0.5115616036,
				"element": "H" 
			},
			{
				"x": -2.932890207,
				"y": 0.7363735543,
				"z": -0.491033936,
				"element": "H" 
			},
			{
				"x": -2.0794950002,
				"y": 1.2129098868,
				"z": -1.9706656862,
				"element": "H" 
			},
			{
				"x": 4.7908755855,
				"y": -0.2829639052,
				"z": 3.1863514329,
				"element": "H" 
			},
			{
				"x": 4.6578236065,
				"y": 1.9874037439,
				"z": 4.2667014396,
				"element": "H" 
			},
			{
				"x": 1.1631831025,
				"y": 2.7700465729,
				"z": 2.182621793,
				"element": "H" 
			},
			{
				"x": -2.8895381429,
				"y": -1.0596793243,
				"z": -1.9709086143,
				"element": "H" 
			},
			{
				"x": -2.472587352,
				"y": -2.5891683066,
				"z": -2.8188664653,
				"element": "H" 
			}
		],
		 "valence_orbital": [ 
			{
				"type": "occ",
				"energy": -0.29307,
				"method": "rhf"
			},
			{
				"type": "occ",
				"energy": -0.28764,
				"method": "rhf"
			},
			{
				"type": "occ",
				"energy": -0.26697,
				"method": "rhf"
			},
			{
				"type": "occ",
				"energy": -0.25935,
				"method": "rhf"
			},
			{
				"type": "occ",
				"energy": -0.24751,
				"method": "rhf"
			},
			{
				"type": "unocc",
				"energy": -0.10106,
				"method": "rhf"
			},
			{
				"type": "unocc",
				"energy": -0.06036,
				"method": "rhf"
			},
			{
				"type": "unocc",
				"energy": -0.04979,
				"method": "rhf"
			},
			{
				"type": "unocc",
				"energy": -0.01265,
				"method": "rhf"
			},
			{
				"type": "unocc",
				"energy": 0.02008,
				"method": "rhf"
			}
		],
		"cosmo_sigma_profile": { 
			"-0.025": 0.0,
			"-0.024": 0.0,
			"-0.023": 0.0,
			"-0.022": 0.0,
			"-0.021": 0.0,
			"-0.02": 0.0,
			"-0.019": 0.0,
			"-0.018": 0.0,
			"-0.017": 0.0,
			"-0.016": 0.0,
			"-0.015": 0.0,
			"-0.014": 0.0,
			"-0.013": 0.0,
			"-0.012": 0.0,
			"-0.011": 0.0277819083981,
			"-0.01": 0.992805075619,
			"-0.009": 4.33878645851,
			"-0.008": 10.7862052502,
			"-0.007": 10.1730495187,
			"-0.006": 10.9818173215,
			"-0.005": 10.7451646648,
			"-0.004": 11.2739788884,
			"-0.003": 18.2214826849,
			"-0.002": 30.9836382319,
			"-0.001": 29.7910041083,
			"0.0": 18.3583570447,
			"0.001": 18.7883087497,
			"0.002": 20.9127651106,
			"0.003": 14.2617955576,
			"0.004": 13.5149312948,
			"0.005": 11.2003279165,
			"0.006": 5.52414442021,
			"0.007": 4.94076402819,
			"0.008": 5.10672866153,
			"0.009": 5.233540233,
			"0.01": 5.25141432067,
			"0.011": 4.78007454689,
			"0.012": 1.70144838256,
			"0.013": 0.841779267434,
			"0.014": 0.784486287041,
			"0.015": 0.138319813371,
			"0.016": 0.0,
			"0.017": 0.0,
			"0.018": 0.0,
			"0.019": 0.0,
			"0.02": 0.0,
			"0.021": 0.0,
			"0.022": 0.0,
			"0.023": 0.0,
			"0.024": 0.0,
			"0.025": 0.0
		}
	}
}
