{
	 "smiles": "CC1=C(SC2=C1C(=O)N1CCCCCC1=N2)C(O)=O", 
	 "Tm": 527.15, 
	 "num_atms": 33, 
	 "gaussian": { 
		 "optdone": 1, 
		 "sigma_profile": "yes", 
		 "theory": "DFT", 
		 "functional": "B3LYP", 
		 "basiset": "6-31G**", 
		 "properties": { 
			 "R2extent": 6812.8911, 
			 "electric_dipole_moment_norm": 4.41228206261, 
			 "electric_quadrupole_moment_norm": 18.6676883652, 
			 "total_energy": -1237.23931847, 
			 "HOMO_LUMO_gap": 0.15942, 
			 "cosmo_polarized_energy": -15.13, 
			 "cosmo_cavitation_energy": 36.21, 
			 "cosmo_dispersion_energy": -27.42, 
			 "cosmo_repulsion_energy": 2.03, 
			 "cosmo_total_nonelectrostatic_energy": 10.83, 
			 "SMD_solvation_energy": 4.98 
		},
		"coords": [
			{
				"x": -2.1036075673,
				"y": -1.8122132881,
				"z": -2.7076444731,
				"element": "C" 
			},
			{
				"x": -1.6992700513,
				"y": -1.962077516,
				"z": -1.2640960686,
				"element": "C" 
			},
			{
				"x": -1.8534030887,
				"y": -3.1064161055,
				"z": -0.5017246988,
				"element": "C" 
			},
			{
				"x": -1.2742439278,
				"y": -2.9395425484,
				"z": 1.1503495869,
				"element": "S" 
			},
			{
				"x": -0.8105045058,
				"y": -1.2994899238,
				"z": 0.8297054283,
				"element": "C" 
			},
			{
				"x": -1.0939870361,
				"y": -0.9184449374,
				"z": -0.4835894533,
				"element": "C" 
			},
			{
				"x": -0.7554488868,
				"y": 0.4339907917,
				"z": -0.8847716385,
				"element": "C" 
			},
			{
				"x": -0.9269598896,
				"y": 0.9374921246,
				"z": -1.99101911,
				"element": "O" 
			},
			{
				"x": -0.16446067,
				"y": 1.2075521854,
				"z": 0.1713135226,
				"element": "N" 
			},
			{
				"x": 0.1943808989,
				"y": 2.5999004261,
				"z": -0.172700279,
				"element": "C" 
			},
			{
				"x": 1.7065149061,
				"y": 2.8627919911,
				"z": -0.2182728048,
				"element": "C" 
			},
			{
				"x": 2.3558903991,
				"y": 3.0963158049,
				"z": 1.1517148208,
				"element": "C" 
			},
			{
				"x": 2.2000064277,
				"y": 1.940712304,
				"z": 2.1479053293,
				"element": "C" 
			},
			{
				"x": 0.7348703575,
				"y": 1.5656507874,
				"z": 2.4686308098,
				"element": "C" 
			},
			{
				"x": 0.0679472031,
				"y": 0.6980033798,
				"z": 1.4291171872,
				"element": "C" 
			},
			{
				"x": -0.2376247797,
				"y": -0.5257984476,
				"z": 1.7833711508,
				"element": "N" 
			},
			{
				"x": -2.412358927,
				"y": -4.4178922919,
				"z": -0.8377582561,
				"element": "C" 
			},
			{
				"x": -2.8522473957,
				"y": -4.5179698664,
				"z": -2.1180340971,
				"element": "O" 
			},
			{
				"x": -2.4852733921,
				"y": -5.3483261632,
				"z": -0.0541092761,
				"element": "O" 
			},
			{
				"x": -3.175222098,
				"y": -1.9949066563,
				"z": -2.8291390373,
				"element": "H" 
			},
			{
				"x": -1.8641206612,
				"y": -0.8108025614,
				"z": -3.060144617,
				"element": "H" 
			},
			{
				"x": -1.5917642545,
				"y": -2.5511468934,
				"z": -3.330758057,
				"element": "H" 
			},
			{
				"x": -0.2985222984,
				"y": 3.2746250518,
				"z": 0.5356075035,
				"element": "H" 
			},
			{
				"x": -0.2446319089,
				"y": 2.7632612995,
				"z": -1.155413384,
				"element": "H" 
			},
			{
				"x": 2.1913950317,
				"y": 2.0297309996,
				"z": -0.7421252019,
				"element": "H" 
			},
			{
				"x": 1.8669498764,
				"y": 3.7520569562,
				"z": -0.8395476659,
				"element": "H" 
			},
			{
				"x": 1.9200993028,
				"y": 4.0031228462,
				"z": 1.595360578,
				"element": "H" 
			},
			{
				"x": 3.4226215134,
				"y": 3.3086635062,
				"z": 1.0124477372,
				"element": "H" 
			},
			{
				"x": 2.7254548518,
				"y": 1.0485667239,
				"z": 1.7844159818,
				"element": "H" 
			},
			{
				"x": 2.6865750802,
				"y": 2.2208147245,
				"z": 3.0890405815,
				"element": "H" 
			},
			{
				"x": 0.1483523884,
				"y": 2.4792271544,
				"z": 2.6352608197,
				"element": "H" 
			},
			{
				"x": 0.6948374413,
				"y": 0.9829281079,
				"z": 3.3902421855,
				"element": "H" 
			},
			{
				"x": -3.1913443394,
				"y": -5.4249799654,
				"z": -2.2004351043,
				"element": "H" 
			}
		],
		 "valence_orbital": [ 
			{
				"type": "occ",
				"energy": -0.28379,
				"method": "rhf"
			},
			{
				"type": "occ",
				"energy": -0.27882,
				"method": "rhf"
			},
			{
				"type": "occ",
				"energy": -0.26553,
				"method": "rhf"
			},
			{
				"type": "occ",
				"energy": -0.25851,
				"method": "rhf"
			},
			{
				"type": "occ",
				"energy": -0.22379,
				"method": "rhf"
			},
			{
				"type": "unocc",
				"energy": -0.06437,
				"method": "rhf"
			},
			{
				"type": "unocc",
				"energy": -0.02528,
				"method": "rhf"
			},
			{
				"type": "unocc",
				"energy": 0.00301,
				"method": "rhf"
			},
			{
				"type": "unocc",
				"energy": 0.02452,
				"method": "rhf"
			},
			{
				"type": "unocc",
				"energy": 0.07342,
				"method": "rhf"
			}
		],
		"cosmo_sigma_profile": { 
			"-0.025": 0.0,
			"-0.024": 0.0,
			"-0.023": 0.0,
			"-0.022": 0.0,
			"-0.021": 0.0,
			"-0.02": 0.0,
			"-0.019": 0.157611728126,
			"-0.018": 0.858776888771,
			"-0.017": 0.95660614281,
			"-0.016": 0.745064320994,
			"-0.015": 0.90956600251,
			"-0.014": 0.522287750498,
			"-0.013": 0.27433185629,
			"-0.012": 0.497291900034,
			"-0.011": 0.989668957022,
			"-0.01": 0.454380819935,
			"-0.009": 0.672587956264,
			"-0.008": 1.7232668916,
			"-0.007": 3.88566734044,
			"-0.006": 5.0555629542,
			"-0.005": 8.11867254069,
			"-0.004": 26.7482828004,
			"-0.003": 34.3118793615,
			"-0.002": 32.2806122551,
			"-0.001": 35.3535796848,
			"0.0": 31.8763928831,
			"0.001": 20.6944540242,
			"0.002": 14.7788375598,
			"0.003": 12.366859646,
			"0.004": 8.44281517346,
			"0.005": 6.77631362539,
			"0.006": 5.94008812591,
			"0.007": 3.84911206725,
			"0.008": 4.31632268393,
			"0.009": 4.52550113382,
			"0.01": 4.21583233875,
			"0.011": 7.1535234877,
			"0.012": 8.3052951421,
			"0.013": 0.646877550719,
			"0.014": 0.0,
			"0.015": 0.0,
			"0.016": 0.0,
			"0.017": 0.0,
			"0.018": 0.0,
			"0.019": 0.0,
			"0.02": 0.0,
			"0.021": 0.0,
			"0.022": 0.0,
			"0.023": 0.0,
			"0.024": 0.0,
			"0.025": 0.0
		}
	}
}
