{
	 "smiles": "CC1=NNC=C1C=O", 
	 "Tm": 378.15, 
	 "num_atms": 14, 
	 "gaussian": { 
		 "optdone": 1, 
		 "sigma_profile": "yes", 
		 "theory": "DFT", 
		 "functional": "B3LYP", 
		 "basiset": "6-31G**", 
		 "properties": { 
			 "R2extent": 1277.0938, 
			 "electric_dipole_moment_norm": 4.30234902931, 
			 "electric_quadrupole_moment_norm": 12.7617372908, 
			 "total_energy": -378.849385901, 
			 "HOMO_LUMO_gap": 0.20689, 
			 "cosmo_polarized_energy": -13.93, 
			 "cosmo_cavitation_energy": 18.49, 
			 "cosmo_dispersion_energy": -13.65, 
			 "cosmo_repulsion_energy": 1.14, 
			 "cosmo_total_nonelectrostatic_energy": 5.98, 
			 "SMD_solvation_energy": 3.76 
		},
		"coords": [
			{
				"x": -1.638330913,
				"y": 1.1987991277,
				"z": -0.0255551927,
				"element": "C" 
			},
			{
				"x": -0.6234121791,
				"y": 0.3427834466,
				"z": 0.6612997525,
				"element": "C" 
			},
			{
				"x": -0.5414831412,
				"y": -0.959623515,
				"z": 0.4154412738,
				"element": "N" 
			},
			{
				"x": 0.4764252388,
				"y": -1.4007491024,
				"z": 1.2063997675,
				"element": "N" 
			},
			{
				"x": 1.0411592605,
				"y": -0.4260169674,
				"z": 1.9431922437,
				"element": "C" 
			},
			{
				"x": 0.3584748913,
				"y": 0.7433231179,
				"z": 1.6261075315,
				"element": "C" 
			},
			{
				"x": 0.6101935403,
				"y": 2.0686735083,
				"z": 2.1722867805,
				"element": "C" 
			},
			{
				"x": -0.0106634228,
				"y": 3.0753058345,
				"z": 1.8696851855,
				"element": "O" 
			},
			{
				"x": -1.1533484635,
				"y": 2.001175179,
				"z": -0.5895545914,
				"element": "H" 
			},
			{
				"x": -2.2941052404,
				"y": 1.6854223987,
				"z": 0.7026378336,
				"element": "H" 
			},
			{
				"x": -2.2388760651,
				"y": 0.5899460416,
				"z": -0.7044946783,
				"element": "H" 
			},
			{
				"x": 0.7195888196,
				"y": -2.3790809985,
				"z": 1.1820599707,
				"element": "H" 
			},
			{
				"x": 1.8616443468,
				"y": -0.6122132014,
				"z": 2.6221552346,
				"element": "H" 
			},
			{
				"x": 1.4385333277,
				"y": 2.1158551304,
				"z": 2.9150388884,
				"element": "H" 
			}
		],
		 "valence_orbital": [ 
			{
				"type": "occ",
				"energy": -0.37486,
				"method": "rhf"
			},
			{
				"type": "occ",
				"energy": -0.3013,
				"method": "rhf"
			},
			{
				"type": "occ",
				"energy": -0.26459,
				"method": "rhf"
			},
			{
				"type": "occ",
				"energy": -0.26018,
				"method": "rhf"
			},
			{
				"type": "occ",
				"energy": -0.24745,
				"method": "rhf"
			},
			{
				"type": "unocc",
				"energy": -0.04056,
				"method": "rhf"
			},
			{
				"type": "unocc",
				"energy": 0.01275,
				"method": "rhf"
			},
			{
				"type": "unocc",
				"energy": 0.06733,
				"method": "rhf"
			},
			{
				"type": "unocc",
				"energy": 0.10117,
				"method": "rhf"
			},
			{
				"type": "unocc",
				"energy": 0.11078,
				"method": "rhf"
			}
		],
		"cosmo_sigma_profile": { 
			"-0.025": 0.0,
			"-0.024": 0.0,
			"-0.023": 0.0,
			"-0.022": 0.0,
			"-0.021": 0.0,
			"-0.02": 0.0,
			"-0.019": 0.0,
			"-0.018": 0.20621691798,
			"-0.017": 1.64479763127,
			"-0.016": 1.84204957434,
			"-0.015": 0.917572515534,
			"-0.014": 0.978854760052,
			"-0.013": 0.593810956999,
			"-0.012": 1.6595174529,
			"-0.011": 1.64216735122,
			"-0.01": 3.51149512861,
			"-0.009": 3.10463613065,
			"-0.008": 2.65542434442,
			"-0.007": 3.80544934459,
			"-0.006": 4.74440849885,
			"-0.005": 5.27810192994,
			"-0.004": 8.3862294339,
			"-0.003": 8.03148948346,
			"-0.002": 9.89030684498,
			"-0.001": 11.3395984596,
			"0.0": 12.7226864265,
			"0.001": 10.9600798483,
			"0.002": 9.94258554094,
			"0.003": 5.15698587507,
			"0.004": 4.34726888043,
			"0.005": 3.97830454026,
			"0.006": 3.35798034949,
			"0.007": 2.31267492805,
			"0.008": 3.58090912479,
			"0.009": 2.92266608009,
			"0.01": 3.06119775569,
			"0.011": 4.18521920927,
			"0.012": 4.92959796481,
			"0.013": 2.93889355387,
			"0.014": 1.56286147168,
			"0.015": 0.936029864868,
			"0.016": 0.241744319623,
			"0.017": 0.0,
			"0.018": 0.0,
			"0.019": 0.0,
			"0.02": 0.0,
			"0.021": 0.0,
			"0.022": 0.0,
			"0.023": 0.0,
			"0.024": 0.0,
			"0.025": 0.0
		}
	}
}
