{
	 "smiles": "N#CC1=C(C=CC=C1)C1=CC=C(CN2CCOCC2)C=C1", 
	 "Tm": 345.15, 
	 "num_atms": 39, 
	 "gaussian": { 
		 "optdone": 1, 
		 "sigma_profile": "yes", 
		 "theory": "DFT", 
		 "functional": "B3LYP", 
		 "basiset": "6-31G**", 
		 "properties": { 
			 "R2extent": 9364.9481, 
			 "electric_dipole_moment_norm": 4.61990704993, 
			 "electric_quadrupole_moment_norm": 17.8573162225, 
			 "total_energy": -881.462789624, 
			 "HOMO_LUMO_gap": 0.16701, 
			 "cosmo_polarized_energy": -13.59, 
			 "cosmo_cavitation_energy": 42.09, 
			 "cosmo_dispersion_energy": -29.27, 
			 "cosmo_repulsion_energy": 2.24, 
			 "cosmo_total_nonelectrostatic_energy": 15.06, 
			 "SMD_solvation_energy": 6.31 
		},
		"coords": [
			{
				"x": -0.4169026346,
				"y": 4.2447111408,
				"z": 1.2875369107,
				"element": "N" 
			},
			{
				"x": 0.6556736998,
				"y": 3.8574355329,
				"z": 1.5191752412,
				"element": "C" 
			},
			{
				"x": 1.998956247,
				"y": 3.4471265878,
				"z": 1.8166069994,
				"element": "C" 
			},
			{
				"x": 2.4212577402,
				"y": 2.1016300547,
				"z": 1.6733180826,
				"element": "C" 
			},
			{
				"x": 3.7699695156,
				"y": 1.8166280966,
				"z": 1.9396214285,
				"element": "C" 
			},
			{
				"x": 4.6646938305,
				"y": 2.8077811477,
				"z": 2.3372244162,
				"element": "C" 
			},
			{
				"x": 4.2326044123,
				"y": 4.1276351874,
				"z": 2.4832332702,
				"element": "C" 
			},
			{
				"x": 2.9042810618,
				"y": 4.444394049,
				"z": 2.2223650022,
				"element": "C" 
			},
			{
				"x": 1.5087373432,
				"y": 1.0069799944,
				"z": 1.2529933722,
				"element": "C" 
			},
			{
				"x": 0.2404500809,
				"y": 0.83820424,
				"z": 1.8284808137,
				"element": "C" 
			},
			{
				"x": -0.5858094904,
				"y": -0.2123678822,
				"z": 1.4317371479,
				"element": "C" 
			},
			{
				"x": -0.1739063754,
				"y": -1.1276292459,
				"z": 0.4580716542,
				"element": "C" 
			},
			{
				"x": -1.0546629594,
				"y": -2.2992837876,
				"z": 0.0654629206,
				"element": "C" 
			},
			{
				"x": -1.0611233713,
				"y": -2.5552055378,
				"z": -1.3728651405,
				"element": "N" 
			},
			{
				"x": -1.6193084718,
				"y": -3.8676952746,
				"z": -1.7031808853,
				"element": "C" 
			},
			{
				"x": -1.5291079985,
				"y": -4.1003597832,
				"z": -3.2102166635,
				"element": "C" 
			},
			{
				"x": -2.2069111286,
				"y": -3.0822798472,
				"z": -3.9319331584,
				"element": "O" 
			},
			{
				"x": -1.6707294377,
				"y": -1.8024630629,
				"z": -3.6215607739,
				"element": "C" 
			},
			{
				"x": -1.7599637338,
				"y": -1.5091132377,
				"z": -2.1263071622,
				"element": "C" 
			},
			{
				"x": 1.0924111288,
				"y": -0.9613888506,
				"z": -0.1189013982,
				"element": "C" 
			},
			{
				"x": 1.9198656828,
				"y": 0.086599071,
				"z": 0.2722564683,
				"element": "C" 
			},
			{
				"x": 4.109313537,
				"y": 0.7893380878,
				"z": 1.8524190908,
				"element": "H" 
			},
			{
				"x": 5.6988856409,
				"y": 2.5470101095,
				"z": 2.5420942436,
				"element": "H" 
			},
			{
				"x": 4.9240760738,
				"y": 4.9035380848,
				"z": 2.7960400705,
				"element": "H" 
			},
			{
				"x": 2.5508640344,
				"y": 5.4657758911,
				"z": 2.3176848174,
				"element": "H" 
			},
			{
				"x": -0.1027975752,
				"y": 1.5247897669,
				"z": 2.5949671209,
				"element": "H" 
			},
			{
				"x": -1.5656922998,
				"y": -0.3207991458,
				"z": 1.8899532318,
				"element": "H" 
			},
			{
				"x": -0.6737062003,
				"y": -3.2069230662,
				"z": 0.5536678449,
				"element": "H" 
			},
			{
				"x": -2.0750900973,
				"y": -2.1399382594,
				"z": 0.4646309378,
				"element": "H" 
			},
			{
				"x": -2.6774902046,
				"y": -3.9564459525,
				"z": -1.3886423077,
				"element": "H" 
			},
			{
				"x": -1.048927473,
				"y": -4.6423796464,
				"z": -1.17626433,
				"element": "H" 
			},
			{
				"x": -0.4683710805,
				"y": -4.1378205294,
				"z": -3.508694753,
				"element": "H" 
			},
			{
				"x": -2.0037108081,
				"y": -5.0476054746,
				"z": -3.4830474835,
				"element": "H" 
			},
			{
				"x": -2.2526985761,
				"y": -1.0730598148,
				"z": -4.1922251806,
				"element": "H" 
			},
			{
				"x": -0.6180950014,
				"y": -1.7434413764,
				"z": -3.9435305715,
				"element": "H" 
			},
			{
				"x": -2.8258150856,
				"y": -1.4463310164,
				"z": -1.8322796412,
				"element": "H" 
			},
			{
				"x": -1.2968621064,
				"y": -0.5408101328,
				"z": -1.9108069288,
				"element": "H" 
			},
			{
				"x": 1.409097368,
				"y": -1.6526379925,
				"z": -0.8937791195,
				"element": "H" 
			},
			{
				"x": 2.8889447127,
				"y": 0.2111018745,
				"z": -0.2027055878,
				"element": "H" 
			}
		],
		 "valence_orbital": [ 
			{
				"type": "occ",
				"energy": -0.26533,
				"method": "rhf"
			},
			{
				"type": "occ",
				"energy": -0.25548,
				"method": "rhf"
			},
			{
				"type": "occ",
				"energy": -0.25321,
				"method": "rhf"
			},
			{
				"type": "occ",
				"energy": -0.23636,
				"method": "rhf"
			},
			{
				"type": "occ",
				"energy": -0.2215,
				"method": "rhf"
			},
			{
				"type": "unocc",
				"energy": -0.05449,
				"method": "rhf"
			},
			{
				"type": "unocc",
				"energy": -0.03316,
				"method": "rhf"
			},
			{
				"type": "unocc",
				"energy": -0.00859,
				"method": "rhf"
			},
			{
				"type": "unocc",
				"energy": 0.00787,
				"method": "rhf"
			},
			{
				"type": "unocc",
				"energy": 0.04231,
				"method": "rhf"
			}
		],
		"cosmo_sigma_profile": { 
			"-0.025": 0.0,
			"-0.024": 0.0,
			"-0.023": 0.0,
			"-0.022": 0.0,
			"-0.021": 0.0,
			"-0.02": 0.0,
			"-0.019": 0.0,
			"-0.018": 0.0,
			"-0.017": 0.0,
			"-0.016": 0.0,
			"-0.015": 0.0,
			"-0.014": 0.0,
			"-0.013": 0.0,
			"-0.012": 0.0,
			"-0.011": 0.0,
			"-0.01": 0.0,
			"-0.009": 0.0,
			"-0.008": 1.10968523238,
			"-0.007": 6.622982264,
			"-0.006": 12.3424037239,
			"-0.005": 26.3183036807,
			"-0.004": 29.4109988804,
			"-0.003": 33.8565760305,
			"-0.002": 41.2470333318,
			"-0.001": 31.827800554,
			"0.0": 24.5839249116,
			"0.001": 21.5168654496,
			"0.002": 22.1249459611,
			"0.003": 20.0799553252,
			"0.004": 13.2727562522,
			"0.005": 12.2588910746,
			"0.006": 5.23093596629,
			"0.007": 4.45993182948,
			"0.008": 5.51746422027,
			"0.009": 4.89903515284,
			"0.01": 4.62408662489,
			"0.011": 3.93974979455,
			"0.012": 3.85915470685,
			"0.013": 4.2152316114,
			"0.014": 0.776593121596,
			"0.015": 0.0,
			"0.016": 0.0,
			"0.017": 0.0,
			"0.018": 0.0,
			"0.019": 0.0,
			"0.02": 0.0,
			"0.021": 0.0,
			"0.022": 0.0,
			"0.023": 0.0,
			"0.024": 0.0,
			"0.025": 0.0
		}
	}
}
