{
	 "smiles": "OCCCCCO", 
	 "Tm": 256.15, 
	 "num_atms": 19, 
	 "gaussian": { 
		 "optdone": 1, 
		 "sigma_profile": "yes", 
		 "theory": "DFT", 
		 "functional": "B3LYP", 
		 "basiset": "6-31G**", 
		 "properties": { 
			 "R2extent": 1615.905, 
			 "electric_dipole_moment_norm": 2.48895820977, 
			 "electric_quadrupole_moment_norm": 10.8373226366, 
			 "total_energy": -348.195704837, 
			 "HOMO_LUMO_gap": 0.32568, 
			 "cosmo_polarized_energy": -10.35, 
			 "cosmo_cavitation_energy": 20.91, 
			 "cosmo_dispersion_energy": -15.53, 
			 "cosmo_repulsion_energy": 1.37, 
			 "cosmo_total_nonelectrostatic_energy": 6.74, 
			 "SMD_solvation_energy": 3.43 
		},
		"coords": [
			{
				"x": 2.1326934686,
				"y": -0.7184342821,
				"z": -1.5618423041,
				"element": "O" 
			},
			{
				"x": 1.7972962952,
				"y": 0.6654554944,
				"z": -1.5985811872,
				"element": "C" 
			},
			{
				"x": 0.6378267325,
				"y": 0.9339971114,
				"z": -0.6433517677,
				"element": "C" 
			},
			{
				"x": -0.7302702895,
				"y": 0.3799632285,
				"z": -1.0778404251,
				"element": "C" 
			},
			{
				"x": -0.8795386497,
				"y": -1.1468527425,
				"z": -1.0077518596,
				"element": "C" 
			},
			{
				"x": -2.2819248842,
				"y": -1.633998797,
				"z": -1.3793991867,
				"element": "C" 
			},
			{
				"x": -2.6375089415,
				"y": -1.3668673259,
				"z": -2.733529788,
				"element": "O" 
			},
			{
				"x": 2.8182136889,
				"y": -0.8799129872,
				"z": -2.2216370557,
				"element": "H" 
			},
			{
				"x": 2.660083227,
				"y": 1.2818009949,
				"z": -1.297212115,
				"element": "H" 
			},
			{
				"x": 1.5134237989,
				"y": 0.9790506613,
				"z": -2.6173367361,
				"element": "H" 
			},
			{
				"x": 0.5577027994,
				"y": 2.0234026343,
				"z": -0.5330004222,
				"element": "H" 
			},
			{
				"x": 0.9067875404,
				"y": 0.5392840799,
				"z": 0.3450023351,
				"element": "H" 
			},
			{
				"x": -1.5034708038,
				"y": 0.8406775855,
				"z": -0.4455415199,
				"element": "H" 
			},
			{
				"x": -0.9307412781,
				"y": 0.7208421643,
				"z": -2.1045686076,
				"element": "H" 
			},
			{
				"x": -0.6563872792,
				"y": -1.484425604,
				"z": 0.0140729207,
				"element": "H" 
			},
			{
				"x": -0.1423240989,
				"y": -1.6219073048,
				"z": -1.6603347258,
				"element": "H" 
			},
			{
				"x": -3.0263308852,
				"y": -1.2054846232,
				"z": -0.6862591826,
				"element": "H" 
			},
			{
				"x": -2.3353638883,
				"y": -2.7225809609,
				"z": -1.2737042625,
				"element": "H" 
			},
			{
				"x": -2.7311665525,
				"y": -0.4113093269,
				"z": -2.82948411,
				"element": "H" 
			}
		],
		 "valence_orbital": [ 
			{
				"type": "occ",
				"energy": -0.32859,
				"method": "rhf"
			},
			{
				"type": "occ",
				"energy": -0.31301,
				"method": "rhf"
			},
			{
				"type": "occ",
				"energy": -0.30447,
				"method": "rhf"
			},
			{
				"type": "occ",
				"energy": -0.26667,
				"method": "rhf"
			},
			{
				"type": "occ",
				"energy": -0.25365,
				"method": "rhf"
			},
			{
				"type": "unocc",
				"energy": 0.07203,
				"method": "rhf"
			},
			{
				"type": "unocc",
				"energy": 0.07994,
				"method": "rhf"
			},
			{
				"type": "unocc",
				"energy": 0.10991,
				"method": "rhf"
			},
			{
				"type": "unocc",
				"energy": 0.11878,
				"method": "rhf"
			},
			{
				"type": "unocc",
				"energy": 0.14426,
				"method": "rhf"
			}
		],
		"cosmo_sigma_profile": { 
			"-0.025": 0.0,
			"-0.024": 0.0,
			"-0.023": 0.0,
			"-0.022": 0.0,
			"-0.021": 0.0,
			"-0.02": 0.0,
			"-0.019": 0.0,
			"-0.018": 0.0,
			"-0.017": 0.0,
			"-0.016": 0.151709854189,
			"-0.015": 1.26553468572,
			"-0.014": 1.39707597631,
			"-0.013": 1.9000786536,
			"-0.012": 1.28790206428,
			"-0.011": 1.51306171153,
			"-0.01": 2.63323855334,
			"-0.009": 1.62922105968,
			"-0.008": 1.23643218965,
			"-0.007": 2.21470278028,
			"-0.006": 2.30482914322,
			"-0.005": 2.25112684827,
			"-0.004": 3.86044137043,
			"-0.003": 17.6689007433,
			"-0.002": 28.6576356059,
			"-0.001": 24.4555673805,
			"0.0": 15.6143463291,
			"0.001": 8.77798939929,
			"0.002": 4.23921688368,
			"0.003": 3.20455284968,
			"0.004": 2.96537075086,
			"0.005": 4.72575255289,
			"0.006": 2.92388126897,
			"0.007": 2.53808132247,
			"0.008": 2.38361678869,
			"0.009": 2.76332363303,
			"0.01": 2.83732395955,
			"0.011": 1.98906208028,
			"0.012": 2.52850094446,
			"0.013": 2.79499468117,
			"0.014": 2.9636025905,
			"0.015": 2.62082886157,
			"0.016": 6.76855350874e-05,
			"0.017": 0.0,
			"0.018": 0.0,
			"0.019": 0.0,
			"0.02": 0.0,
			"0.021": 0.0,
			"0.022": 0.0,
			"0.023": 0.0,
			"0.024": 0.0,
			"0.025": 0.0
		}
	}
}
