{
	 "smiles": "O=C1C2=CC=CC=C2C2=CC=CC=C12", 
	 "Tm": 356.65, 
	 "num_atms": 22, 
	 "gaussian": { 
		 "optdone": 1, 
		 "sigma_profile": "yes", 
		 "theory": "DFT", 
		 "functional": "B3LYP", 
		 "basiset": "6-31G**", 
		 "properties": { 
			 "R2extent": 3387.8585, 
			 "electric_dipole_moment_norm": 3.29590168088, 
			 "electric_quadrupole_moment_norm": 13.0052552116, 
			 "total_energy": -575.437553355, 
			 "HOMO_LUMO_gap": 0.14669, 
			 "cosmo_polarized_energy": -8.61, 
			 "cosmo_cavitation_energy": 26.51, 
			 "cosmo_dispersion_energy": -19.51, 
			 "cosmo_repulsion_energy": 1.48, 
			 "cosmo_total_nonelectrostatic_energy": 8.48, 
			 "SMD_solvation_energy": 4.6 
		},
		"coords": [
			{
				"x": 0.0418337203,
				"y": -2.3944961317,
				"z": -1.7336338981,
				"element": "O" 
			},
			{
				"x": -0.5812390967,
				"y": -1.6729404773,
				"z": -0.9744836486,
				"element": "C" 
			},
			{
				"x": -1.8961065513,
				"y": -1.961463513,
				"z": -0.3142297011,
				"element": "C" 
			},
			{
				"x": -2.6954173245,
				"y": -3.0908952004,
				"z": -0.4075508202,
				"element": "C" 
			},
			{
				"x": -3.8943589226,
				"y": -3.1170072542,
				"z": 0.3176210356,
				"element": "C" 
			},
			{
				"x": -4.2623167895,
				"y": -2.0257865588,
				"z": 1.1102947765,
				"element": "C" 
			},
			{
				"x": -3.4507764012,
				"y": -0.8845261642,
				"z": 1.2020931256,
				"element": "C" 
			},
			{
				"x": -2.2611431286,
				"y": -0.857432868,
				"z": 0.4831165157,
				"element": "C" 
			},
			{
				"x": -1.2037327041,
				"y": 0.1773024608,
				"z": 0.3674655825,
				"element": "C" 
			},
			{
				"x": -1.07857429,
				"y": 1.4368308316,
				"z": 0.9426339194,
				"element": "C" 
			},
			{
				"x": 0.0578382317,
				"y": 2.201765225,
				"z": 0.6377687463,
				"element": "C" 
			},
			{
				"x": 1.0484595417,
				"y": 1.7198320297,
				"z": -0.2229874735,
				"element": "C" 
			},
			{
				"x": 0.9234476048,
				"y": 0.4503530279,
				"z": -0.8033324675,
				"element": "C" 
			},
			{
				"x": -0.200862015,
				"y": -0.3025844586,
				"z": -0.4996262699,
				"element": "C" 
			},
			{
				"x": -2.3881406048,
				"y": -3.9261738439,
				"z": -1.0300139868,
				"element": "H" 
			},
			{
				"x": -4.5421777717,
				"y": -3.9868526268,
				"z": 0.2656449875,
				"element": "H" 
			},
			{
				"x": -5.1948121223,
				"y": -2.0607601846,
				"z": 1.6666686388,
				"element": "H" 
			},
			{
				"x": -3.7546112458,
				"y": -0.0469286745,
				"z": 1.8235193152,
				"element": "H" 
			},
			{
				"x": -1.8371713739,
				"y": 1.8294117584,
				"z": 1.6138002247,
				"element": "H" 
			},
			{
				"x": 0.1688159243,
				"y": 3.1878871012,
				"z": 1.0800018005,
				"element": "H" 
			},
			{
				"x": 1.9170705756,
				"y": 2.3338932912,
				"z": -0.440808213,
				"element": "H" 
			},
			{
				"x": 1.6795747437,
				"y": 0.05427223,
				"z": -1.4748621898,
				"element": "H" 
			}
		],
		 "valence_orbital": [ 
			{
				"type": "occ",
				"energy": -0.29396,
				"method": "rhf"
			},
			{
				"type": "occ",
				"energy": -0.26529,
				"method": "rhf"
			},
			{
				"type": "occ",
				"energy": -0.26074,
				"method": "rhf"
			},
			{
				"type": "occ",
				"energy": -0.24906,
				"method": "rhf"
			},
			{
				"type": "occ",
				"energy": -0.2292,
				"method": "rhf"
			},
			{
				"type": "unocc",
				"energy": -0.08251,
				"method": "rhf"
			},
			{
				"type": "unocc",
				"energy": -0.03834,
				"method": "rhf"
			},
			{
				"type": "unocc",
				"energy": -0.00298,
				"method": "rhf"
			},
			{
				"type": "unocc",
				"energy": 0.02847,
				"method": "rhf"
			},
			{
				"type": "unocc",
				"energy": 0.0604,
				"method": "rhf"
			}
		],
		"cosmo_sigma_profile": { 
			"-0.025": 0.0,
			"-0.024": 0.0,
			"-0.023": 0.0,
			"-0.022": 0.0,
			"-0.021": 0.0,
			"-0.02": 0.0,
			"-0.019": 0.0,
			"-0.018": 0.0,
			"-0.017": 0.0,
			"-0.016": 0.0,
			"-0.015": 0.0,
			"-0.014": 0.0,
			"-0.013": 0.0,
			"-0.012": 0.0,
			"-0.011": 0.0,
			"-0.01": 0.0,
			"-0.009": 0.0,
			"-0.008": 0.0,
			"-0.007": 6.65870688888,
			"-0.006": 18.5559334105,
			"-0.005": 16.8971670097,
			"-0.004": 16.1386452041,
			"-0.003": 11.9967398244,
			"-0.002": 13.1247759306,
			"-0.001": 13.8009400056,
			"0.0": 15.3497572031,
			"0.001": 20.3792189714,
			"0.002": 20.2814729265,
			"0.003": 24.4003812745,
			"0.004": 17.1628449943,
			"0.005": 1.90553114607,
			"0.006": 2.14843306015,
			"0.007": 1.24657982342,
			"0.008": 1.83404152084,
			"0.009": 1.61376081435,
			"0.01": 2.71343336046,
			"0.011": 4.16736280135,
			"0.012": 3.53149403261,
			"0.013": 0.35426952721,
			"0.014": 0.0,
			"0.015": 0.0,
			"0.016": 0.0,
			"0.017": 0.0,
			"0.018": 0.0,
			"0.019": 0.0,
			"0.02": 0.0,
			"0.021": 0.0,
			"0.022": 0.0,
			"0.023": 0.0,
			"0.024": 0.0,
			"0.025": 0.0
		}
	}
}
