{
	 "smiles": "CC1=CC=CC(C(O)=O)=C1N", 
	 "Tm": 448.65, 
	 "num_atms": 20, 
	 "gaussian": { 
		 "optdone": 1, 
		 "sigma_profile": "yes", 
		 "theory": "DFT", 
		 "functional": "B3LYP", 
		 "basiset": "6-31G**", 
		 "properties": { 
			 "R2extent": 2432.2226, 
			 "electric_dipole_moment_norm": 6.96745216561, 
			 "electric_quadrupole_moment_norm": 26.3322060692, 
			 "total_energy": -515.4982454, 
			 "HOMO_LUMO_gap": 0.21059, 
			 "cosmo_polarized_energy": -17.22, 
			 "cosmo_cavitation_energy": 23.32, 
			 "cosmo_dispersion_energy": -17.54, 
			 "cosmo_repulsion_energy": 1.39, 
			 "cosmo_total_nonelectrostatic_energy": 7.18, 
			 "SMD_solvation_energy": 5.55 
		},
		"coords": [
			{
				"x": -0.5921994964,
				"y": 0.7920919305,
				"z": -1.2588442318,
				"element": "C" 
			},
			{
				"x": 0.3963367436,
				"y": 0.1067990161,
				"z": -0.3435445198,
				"element": "C" 
			},
			{
				"x": 1.7353573564,
				"y": -0.0342644892,
				"z": -0.7224187617,
				"element": "C" 
			},
			{
				"x": 2.6552995643,
				"y": -0.6835592287,
				"z": 0.1014684159,
				"element": "C" 
			},
			{
				"x": 2.2454469816,
				"y": -1.1878003872,
				"z": 1.3295199409,
				"element": "C" 
			},
			{
				"x": 0.9173817823,
				"y": -1.0465016718,
				"z": 1.7530107723,
				"element": "C" 
			},
			{
				"x": 0.6030292112,
				"y": -1.5775100469,
				"z": 3.1395517672,
				"element": "C" 
			},
			{
				"x": -0.5937637453,
				"y": -1.2729038701,
				"z": 3.6566397532,
				"element": "O" 
			},
			{
				"x": 1.4152849085,
				"y": -2.2301965894,
				"z": 3.7619522212,
				"element": "O" 
			},
			{
				"x": -0.0078248428,
				"y": -0.4091201358,
				"z": 0.9031788238,
				"element": "C" 
			},
			{
				"x": -1.3823062568,
				"y": -0.2890641051,
				"z": 1.3420866889,
				"element": "N" 
			},
			{
				"x": -0.9792107442,
				"y": 1.7251713823,
				"z": -0.8280839885,
				"element": "H" 
			},
			{
				"x": -0.1225769529,
				"y": 1.0508559245,
				"z": -2.2106770724,
				"element": "H" 
			},
			{
				"x": -1.4573557034,
				"y": 0.15524428,
				"z": -1.4784207134,
				"element": "H" 
			},
			{
				"x": 2.0548526237,
				"y": 0.362344505,
				"z": -1.6827285543,
				"element": "H" 
			},
			{
				"x": 3.6881898483,
				"y": -0.790278139,
				"z": -0.2158974387,
				"element": "H" 
			},
			{
				"x": 2.9336768493,
				"y": -1.691782725,
				"z": 1.998626998,
				"element": "H" 
			},
			{
				"x": -1.1021100608,
				"y": -0.7501129014,
				"z": 2.9807020608,
				"element": "H" 
			},
			{
				"x": -1.9515118467,
				"y": -1.0581899913,
				"z": 0.9907865395,
				"element": "H" 
			},
			{
				"x": -1.8053962197,
				"y": 0.5728772427,
				"z": 1.0109912986,
				"element": "H" 
			}
		],
		 "valence_orbital": [ 
			{
				"type": "occ",
				"energy": -0.29864,
				"method": "rhf"
			},
			{
				"type": "occ",
				"energy": -0.28943,
				"method": "rhf"
			},
			{
				"type": "occ",
				"energy": -0.25892,
				"method": "rhf"
			},
			{
				"type": "occ",
				"energy": -0.25404,
				"method": "rhf"
			},
			{
				"type": "occ",
				"energy": -0.25116,
				"method": "rhf"
			},
			{
				"type": "unocc",
				"energy": -0.04057,
				"method": "rhf"
			},
			{
				"type": "unocc",
				"energy": -0.01545,
				"method": "rhf"
			},
			{
				"type": "unocc",
				"energy": 0.04644,
				"method": "rhf"
			},
			{
				"type": "unocc",
				"energy": 0.06509,
				"method": "rhf"
			},
			{
				"type": "unocc",
				"energy": 0.09105,
				"method": "rhf"
			}
		],
		"cosmo_sigma_profile": { 
			"-0.025": 0.0,
			"-0.024": 0.0,
			"-0.023": 0.0,
			"-0.022": 0.0,
			"-0.021": 0.0,
			"-0.02": 0.0,
			"-0.019": 0.0,
			"-0.018": 0.0,
			"-0.017": 0.0,
			"-0.016": 0.0,
			"-0.015": 0.0,
			"-0.014": 0.171126211332,
			"-0.013": 1.74566894053,
			"-0.012": 2.68705942196,
			"-0.011": 3.35816878253,
			"-0.01": 3.71716217044,
			"-0.009": 2.52848384143,
			"-0.008": 3.33447105549,
			"-0.007": 3.50310749333,
			"-0.006": 8.03284086937,
			"-0.005": 13.0071838926,
			"-0.004": 13.0931074381,
			"-0.003": 13.21585595,
			"-0.002": 13.1914711516,
			"-0.001": 13.4139932593,
			"0.0": 13.8895299905,
			"0.001": 9.9211969171,
			"0.002": 9.26385402601,
			"0.003": 11.4555029016,
			"0.004": 10.9618364352,
			"0.005": 4.2142935646,
			"0.006": 1.88992150772,
			"0.007": 2.77933329777,
			"0.008": 2.09353519787,
			"0.009": 3.04290962776,
			"0.01": 2.88376279692,
			"0.011": 4.21780197384,
			"0.012": 6.70245737464,
			"0.013": 4.83146914355,
			"0.014": 1.80045526447,
			"0.015": 0.198045344458,
			"0.016": 0.0,
			"0.017": 0.0,
			"0.018": 0.0,
			"0.019": 0.0,
			"0.02": 0.0,
			"0.021": 0.0,
			"0.022": 0.0,
			"0.023": 0.0,
			"0.024": 0.0,
			"0.025": 0.0
		}
	}
}
