{
	 "smiles": "CCOC(=O)C1=C(N)N(CC=C)C(=S)S1", 
	 "Tm": 392.15, 
	 "num_atms": 27, 
	 "gaussian": { 
		 "optdone": 1, 
		 "sigma_profile": "yes", 
		 "theory": "DFT", 
		 "functional": "B3LYP", 
		 "basiset": "6-31G**", 
		 "properties": { 
			 "R2extent": 4848.2828, 
			 "electric_dipole_moment_norm": 4.53261873645, 
			 "electric_quadrupole_moment_norm": 22.9286576177, 
			 "total_energy": -1406.51978103, 
			 "HOMO_LUMO_gap": 0.14937, 
			 "cosmo_polarized_energy": -14.03, 
			 "cosmo_cavitation_energy": 33.82, 
			 "cosmo_dispersion_energy": -24.79, 
			 "cosmo_repulsion_energy": 1.89, 
			 "cosmo_total_nonelectrostatic_energy": 10.91, 
			 "SMD_solvation_energy": 6.02 
		},
		"coords": [
			{
				"x": 2.0370457245,
				"y": -1.7696256794,
				"z": -4.0556817429,
				"element": "C" 
			},
			{
				"x": 2.4690615051,
				"y": -2.1972937058,
				"z": -2.6613224813,
				"element": "C" 
			},
			{
				"x": 2.1591889425,
				"y": -1.179642093,
				"z": -1.6790063445,
				"element": "O" 
			},
			{
				"x": 0.9144270228,
				"y": -1.1952122935,
				"z": -1.1548792703,
				"element": "C" 
			},
			{
				"x": 0.0563945834,
				"y": -2.025744361,
				"z": -1.4553697529,
				"element": "O" 
			},
			{
				"x": 0.7087927818,
				"y": -0.1330788545,
				"z": -0.1973687832,
				"element": "C" 
			},
			{
				"x": -0.4573082063,
				"y": 0.0376656609,
				"z": 0.5165682177,
				"element": "C" 
			},
			{
				"x": -1.6150160544,
				"y": -0.6695853793,
				"z": 0.3616265799,
				"element": "N" 
			},
			{
				"x": -0.3947984555,
				"y": 1.0840351805,
				"z": 1.4247408495,
				"element": "N" 
			},
			{
				"x": -1.5598867457,
				"y": 1.5022051538,
				"z": 2.2054227686,
				"element": "C" 
			},
			{
				"x": -1.9065335612,
				"y": 0.5958281109,
				"z": 3.3603778431,
				"element": "C" 
			},
			{
				"x": -1.1770079284,
				"y": -0.4224695336,
				"z": 3.8162213096,
				"element": "C" 
			},
			{
				"x": 0.8143476445,
				"y": 1.7733740822,
				"z": 1.4651259416,
				"element": "C" 
			},
			{
				"x": 1.1812376824,
				"y": 3.0684884552,
				"z": 2.437166714,
				"element": "S" 
			},
			{
				"x": 1.9069271087,
				"y": 1.0679478834,
				"z": 0.2870237412,
				"element": "S" 
			},
			{
				"x": 2.3529184938,
				"y": -2.5203545736,
				"z": -4.7877876435,
				"element": "H" 
			},
			{
				"x": 0.9497208826,
				"y": -1.6751083305,
				"z": -4.1089228607,
				"element": "H" 
			},
			{
				"x": 2.4906050125,
				"y": -0.81209307,
				"z": -4.3275181516,
				"element": "H" 
			},
			{
				"x": 1.9848733901,
				"y": -3.1307763983,
				"z": -2.3656146803,
				"element": "H" 
			},
			{
				"x": 3.5531977261,
				"y": -2.313285207,
				"z": -2.5944675777,
				"element": "H" 
			},
			{
				"x": -2.1322010997,
				"y": -0.8675862638,
				"z": 1.2094914863,
				"element": "H" 
			},
			{
				"x": -1.4868561003,
				"y": -1.4555150941,
				"z": -0.2734894603,
				"element": "H" 
			},
			{
				"x": -1.3333036539,
				"y": 2.5085199927,
				"z": 2.5744306638,
				"element": "H" 
			},
			{
				"x": -2.4109262571,
				"y": 1.5804097245,
				"z": 1.5177046505,
				"element": "H" 
			},
			{
				"x": -2.8470138217,
				"y": 0.8495382348,
				"z": 3.8483336396,
				"element": "H" 
			},
			{
				"x": -0.2235430047,
				"y": -0.6936040727,
				"z": 3.3718470476,
				"element": "H" 
			},
			{
				"x": -1.5029436118,
				"y": -1.0068375685,
				"z": 4.6704472961,
				"element": "H" 
			}
		],
		 "valence_orbital": [ 
			{
				"type": "occ",
				"energy": -0.28748,
				"method": "rhf"
			},
			{
				"type": "occ",
				"energy": -0.28347,
				"method": "rhf"
			},
			{
				"type": "occ",
				"energy": -0.26461,
				"method": "rhf"
			},
			{
				"type": "occ",
				"energy": -0.21951,
				"method": "rhf"
			},
			{
				"type": "occ",
				"energy": -0.20158,
				"method": "rhf"
			},
			{
				"type": "unocc",
				"energy": -0.05221,
				"method": "rhf"
			},
			{
				"type": "unocc",
				"energy": -0.01186,
				"method": "rhf"
			},
			{
				"type": "unocc",
				"energy": -0.00556,
				"method": "rhf"
			},
			{
				"type": "unocc",
				"energy": 0.01416,
				"method": "rhf"
			},
			{
				"type": "unocc",
				"energy": 0.07357,
				"method": "rhf"
			}
		],
		"cosmo_sigma_profile": { 
			"-0.025": 0.0,
			"-0.024": 0.0,
			"-0.023": 0.0,
			"-0.022": 0.0,
			"-0.021": 0.0,
			"-0.02": 0.0,
			"-0.019": 0.0,
			"-0.018": 0.0,
			"-0.017": 0.0,
			"-0.016": 0.0,
			"-0.015": 0.0,
			"-0.014": 0.0,
			"-0.013": 0.218279877159,
			"-0.012": 0.71666668533,
			"-0.011": 1.6114641416,
			"-0.01": 1.91466871663,
			"-0.009": 1.99022991213,
			"-0.008": 2.39763688095,
			"-0.007": 6.8396931319,
			"-0.006": 14.5381717856,
			"-0.005": 16.1130258485,
			"-0.004": 23.1490329475,
			"-0.003": 21.4237927913,
			"-0.002": 19.8078766382,
			"-0.001": 22.76904658,
			"0.0": 26.2353703381,
			"0.001": 19.4407716675,
			"0.002": 18.0958414802,
			"0.003": 14.9071968637,
			"0.004": 11.1216969838,
			"0.005": 10.2185153061,
			"0.006": 8.42912192392,
			"0.007": 8.2192328222,
			"0.008": 9.52061356984,
			"0.009": 6.84606012382,
			"0.01": 3.79135386121,
			"0.011": 2.29549061699,
			"0.012": 1.17115316374,
			"0.013": 0.0,
			"0.014": 0.0,
			"0.015": 0.0,
			"0.016": 0.0,
			"0.017": 0.0,
			"0.018": 0.0,
			"0.019": 0.0,
			"0.02": 0.0,
			"0.021": 0.0,
			"0.022": 0.0,
			"0.023": 0.0,
			"0.024": 0.0,
			"0.025": 0.0
		}
	}
}
