{
	 "smiles": "CCOC(=O)C1=CNC2=C(F)C(F)=C(F)C=C2C1=O", 
	 "Tm": 543.15, 
	 "num_atms": 27, 
	 "gaussian": { 
		 "optdone": 1, 
		 "sigma_profile": "yes", 
		 "theory": "DFT", 
		 "functional": "B3LYP", 
		 "basiset": "6-31G**", 
		 "properties": { 
			 "R2extent": 8663.4843, 
			 "electric_dipole_moment_norm": 6.40110725812, 
			 "electric_quadrupole_moment_norm": 5.81929353358, 
			 "total_energy": -1042.02818348, 
			 "HOMO_LUMO_gap": 0.17489, 
			 "cosmo_polarized_energy": -22.86, 
			 "cosmo_cavitation_energy": 34.06, 
			 "cosmo_dispersion_energy": -24.46, 
			 "cosmo_repulsion_energy": 1.8, 
			 "cosmo_total_nonelectrostatic_energy": 11.4, 
			 "SMD_solvation_energy": 8.81 
		},
		"coords": [
			{
				"x": 1.8134796159,
				"y": -3.6303808571,
				"z": 0.2922213364,
				"element": "C" 
			},
			{
				"x": 1.8089858238,
				"y": -2.31336581,
				"z": 1.0455402093,
				"element": "C" 
			},
			{
				"x": 0.9794376585,
				"y": -1.3920669827,
				"z": 0.30613379,
				"element": "O" 
			},
			{
				"x": 0.8595794652,
				"y": -0.1449322903,
				"z": 0.8532894063,
				"element": "C" 
			},
			{
				"x": 1.4085417454,
				"y": 0.1690238898,
				"z": 1.8848538501,
				"element": "O" 
			},
			{
				"x": -0.0108985369,
				"y": 0.7288728107,
				"z": 0.0224129889,
				"element": "C" 
			},
			{
				"x": -0.5582019534,
				"y": 0.2203301417,
				"z": -1.1279481234,
				"element": "C" 
			},
			{
				"x": -1.362970359,
				"y": 0.9375624302,
				"z": -1.9507828389,
				"element": "N" 
			},
			{
				"x": -1.6863472853,
				"y": 2.2542519992,
				"z": -1.6712784605,
				"element": "C" 
			},
			{
				"x": -2.5197253669,
				"y": 2.9753221896,
				"z": -2.5362505005,
				"element": "C" 
			},
			{
				"x": -2.9981787999,
				"y": 2.3653507974,
				"z": -3.6403733117,
				"element": "F" 
			},
			{
				"x": -2.8470249049,
				"y": 4.2911687959,
				"z": -2.2632132701,
				"element": "C" 
			},
			{
				"x": -3.6418430395,
				"y": 4.9728731854,
				"z": -3.0916708232,
				"element": "F" 
			},
			{
				"x": -2.3339354886,
				"y": 4.9004037278,
				"z": -1.1056921028,
				"element": "C" 
			},
			{
				"x": -2.6725155018,
				"y": 6.1769857127,
				"z": -0.8733209209,
				"element": "F" 
			},
			{
				"x": -1.5121816176,
				"y": 4.2057022398,
				"z": -0.2431749582,
				"element": "C" 
			},
			{
				"x": -1.1776733277,
				"y": 2.8701949805,
				"z": -0.5167295257,
				"element": "C" 
			},
			{
				"x": -0.2856609816,
				"y": 2.1238784629,
				"z": 0.4240541265,
				"element": "C" 
			},
			{
				"x": 0.1506056644,
				"y": 2.6747192002,
				"z": 1.427832772,
				"element": "O" 
			},
			{
				"x": 2.4342356419,
				"y": -4.3592530871,
				"z": 0.8224426849,
				"element": "H" 
			},
			{
				"x": 0.8018346441,
				"y": -4.0388668856,
				"z": 0.2092967958,
				"element": "H" 
			},
			{
				"x": 2.2193671976,
				"y": -3.5048629365,
				"z": -0.7160842247,
				"element": "H" 
			},
			{
				"x": 2.8142258976,
				"y": -1.8901783284,
				"z": 1.1384679268,
				"element": "H" 
			},
			{
				"x": 1.4060382147,
				"y": -2.4204966898,
				"z": 2.0575864721,
				"element": "H" 
			},
			{
				"x": -0.3637437973,
				"y": -0.8003716855,
				"z": -1.4318527132,
				"element": "H" 
			},
			{
				"x": -1.742571185,
				"y": 0.5193484559,
				"z": -2.7874821621,
				"element": "H" 
			},
			{
				"x": -1.1131594236,
				"y": 4.6700865333,
				"z": 0.6514215769,
				"element": "H" 
			}
		],
		 "valence_orbital": [ 
			{
				"type": "occ",
				"energy": -0.28312,
				"method": "rhf"
			},
			{
				"type": "occ",
				"energy": -0.27471,
				"method": "rhf"
			},
			{
				"type": "occ",
				"energy": -0.27108,
				"method": "rhf"
			},
			{
				"type": "occ",
				"energy": -0.23721,
				"method": "rhf"
			},
			{
				"type": "occ",
				"energy": -0.23631,
				"method": "rhf"
			},
			{
				"type": "unocc",
				"energy": -0.06142,
				"method": "rhf"
			},
			{
				"type": "unocc",
				"energy": -0.05237,
				"method": "rhf"
			},
			{
				"type": "unocc",
				"energy": -0.0065,
				"method": "rhf"
			},
			{
				"type": "unocc",
				"energy": 0.02675,
				"method": "rhf"
			},
			{
				"type": "unocc",
				"energy": 0.02861,
				"method": "rhf"
			}
		],
		"cosmo_sigma_profile": { 
			"-0.025": 0.0,
			"-0.024": 0.0,
			"-0.023": 0.0,
			"-0.022": 0.0,
			"-0.021": 0.0,
			"-0.02": 0.0,
			"-0.019": 0.0,
			"-0.018": 0.829440628219,
			"-0.017": 1.22742090881,
			"-0.016": 1.10681178,
			"-0.015": 1.15570060401,
			"-0.014": 1.35770003497,
			"-0.013": 0.990838638102,
			"-0.012": 1.57377718789,
			"-0.011": 1.94923599994,
			"-0.01": 2.20215629003,
			"-0.009": 1.8307385647,
			"-0.008": 2.14355268157,
			"-0.007": 3.29915091536,
			"-0.006": 3.33929518396,
			"-0.005": 9.2759173744,
			"-0.004": 21.3036619669,
			"-0.003": 33.2054415874,
			"-0.002": 28.0541662654,
			"-0.001": 29.2070262781,
			"0.0": 23.2230884292,
			"0.001": 16.6793023631,
			"0.002": 23.7583343255,
			"0.003": 23.0450261465,
			"0.004": 6.12356912272,
			"0.005": 2.92153804511,
			"0.006": 2.46373020856,
			"0.007": 2.25359280385,
			"0.008": 2.01354062729,
			"0.009": 2.56452818045,
			"0.01": 2.49662286487,
			"0.011": 3.08258214863,
			"0.012": 6.26122694316,
			"0.013": 5.47356387801,
			"0.014": 2.3508394334,
			"0.015": 1.32929781144,
			"0.016": 1.40239951059,
			"0.017": 1.32738513241,
			"0.018": 0.764388914682,
			"0.019": 0.164990117698,
			"0.02": 0.0,
			"0.021": 0.0,
			"0.022": 0.0,
			"0.023": 0.0,
			"0.024": 0.0,
			"0.025": 0.0
		}
	}
}
