{
	 "smiles": "CN1C(=O)OC2=C1C=CC=C2C(O)=O", 
	 "Tm": 583.15, 
	 "num_atms": 21, 
	 "gaussian": { 
		 "optdone": 1, 
		 "sigma_profile": "yes", 
		 "theory": "DFT", 
		 "functional": "B3LYP", 
		 "basiset": "6-31G**", 
		 "properties": { 
			 "R2extent": 2999.602, 
			 "electric_dipole_moment_norm": 4.01186863818, 
			 "electric_quadrupole_moment_norm": 21.6783837345, 
			 "total_energy": -702.858744989, 
			 "HOMO_LUMO_gap": 0.17334, 
			 "cosmo_polarized_energy": -16.3, 
			 "cosmo_cavitation_energy": 26.24, 
			 "cosmo_dispersion_energy": -19.42, 
			 "cosmo_repulsion_energy": 1.51, 
			 "cosmo_total_nonelectrostatic_energy": 8.33, 
			 "SMD_solvation_energy": 7.2 
		},
		"coords": [
			{
				"x": 0.4801944301,
				"y": 2.9046201279,
				"z": 2.9154239988,
				"element": "C" 
			},
			{
				"x": 0.2952031531,
				"y": 2.274212752,
				"z": 1.6234535491,
				"element": "N" 
			},
			{
				"x": 0.7398074932,
				"y": 2.8372773045,
				"z": 0.4388622553,
				"element": "C" 
			},
			{
				"x": 1.3206617705,
				"y": 3.8780294865,
				"z": 0.2654168664,
				"element": "O" 
			},
			{
				"x": 0.3904815071,
				"y": 1.9604596824,
				"z": -0.5869250127,
				"element": "O" 
			},
			{
				"x": -0.2542317626,
				"y": 0.8856695454,
				"z": -0.0323426685,
				"element": "C" 
			},
			{
				"x": -0.3270262633,
				"y": 1.0590847579,
				"z": 1.3577993349,
				"element": "C" 
			},
			{
				"x": -0.9315377425,
				"y": 0.1180247032,
				"z": 2.1783791849,
				"element": "C" 
			},
			{
				"x": -1.470182476,
				"y": -1.0204979418,
				"z": 1.5583014771,
				"element": "C" 
			},
			{
				"x": -1.3983644313,
				"y": -1.1931549653,
				"z": 0.1795770911,
				"element": "C" 
			},
			{
				"x": -0.7845581183,
				"y": -0.2388230527,
				"z": -0.658771114,
				"element": "C" 
			},
			{
				"x": -0.7553275371,
				"y": -0.509128027,
				"z": -2.1204409763,
				"element": "C" 
			},
			{
				"x": -0.1476324438,
				"y": 0.4628816217,
				"z": -2.8319903603,
				"element": "O" 
			},
			{
				"x": -1.2289669661,
				"y": -1.502820286,
				"z": -2.6356867193,
				"element": "O" 
			},
			{
				"x": 1.0776588596,
				"y": 2.2677165219,
				"z": 3.5759030592,
				"element": "H" 
			},
			{
				"x": -0.4854944722,
				"y": 3.1090120109,
				"z": 3.3892534565,
				"element": "H" 
			},
			{
				"x": 1.0062806155,
				"y": 3.8446848267,
				"z": 2.746683559,
				"element": "H" 
			},
			{
				"x": -0.9865336778,
				"y": 0.2544517046,
				"z": 3.2531795985,
				"element": "H" 
			},
			{
				"x": -1.9510275934,
				"y": -1.778693417,
				"z": 2.1677390351,
				"element": "H" 
			},
			{
				"x": -1.8155209099,
				"y": -2.0737773396,
				"z": -0.2953792773,
				"element": "H" 
			},
			{
				"x": -0.1890834348,
				"y": 0.1802699839,
				"z": -3.7608363374,
				"element": "H" 
			}
		],
		 "valence_orbital": [ 
			{
				"type": "occ",
				"energy": -0.31577,
				"method": "rhf"
			},
			{
				"type": "occ",
				"energy": -0.2972,
				"method": "rhf"
			},
			{
				"type": "occ",
				"energy": -0.28313,
				"method": "rhf"
			},
			{
				"type": "occ",
				"energy": -0.26597,
				"method": "rhf"
			},
			{
				"type": "occ",
				"energy": -0.23091,
				"method": "rhf"
			},
			{
				"type": "unocc",
				"energy": -0.05757,
				"method": "rhf"
			},
			{
				"type": "unocc",
				"energy": -0.0085,
				"method": "rhf"
			},
			{
				"type": "unocc",
				"energy": 0.03252,
				"method": "rhf"
			},
			{
				"type": "unocc",
				"energy": 0.05697,
				"method": "rhf"
			},
			{
				"type": "unocc",
				"energy": 0.07679,
				"method": "rhf"
			}
		],
		"cosmo_sigma_profile": { 
			"-0.025": 0.0,
			"-0.024": 0.0,
			"-0.023": 0.0,
			"-0.022": 0.0,
			"-0.021": 0.0,
			"-0.02": 0.0,
			"-0.019": 0.298759055802,
			"-0.018": 0.85804674348,
			"-0.017": 1.10112945077,
			"-0.016": 0.597336622403,
			"-0.015": 0.617871344543,
			"-0.014": 0.44035226666,
			"-0.013": 0.95242980378,
			"-0.012": 1.00533731558,
			"-0.011": 0.649929307723,
			"-0.01": 0.522618359542,
			"-0.009": 0.584357452559,
			"-0.008": 2.28765986124,
			"-0.007": 8.45968813481,
			"-0.006": 17.0912717114,
			"-0.005": 15.2065002169,
			"-0.004": 16.6664660083,
			"-0.003": 19.3412736812,
			"-0.002": 11.8363666134,
			"-0.001": 12.277537486,
			"0.0": 12.1705972704,
			"0.001": 12.0920143957,
			"0.002": 11.8123349631,
			"0.003": 10.6384757076,
			"0.004": 5.17017130097,
			"0.005": 4.85426385864,
			"0.006": 4.68849252047,
			"0.007": 3.41806660216,
			"0.008": 4.80284995382,
			"0.009": 6.50268738313,
			"0.01": 5.67565249185,
			"0.011": 10.4675345273,
			"0.012": 7.16360578452,
			"0.013": 0.370543691144,
			"0.014": 0.0,
			"0.015": 0.0,
			"0.016": 0.0,
			"0.017": 0.0,
			"0.018": 0.0,
			"0.019": 0.0,
			"0.02": 0.0,
			"0.021": 0.0,
			"0.022": 0.0,
			"0.023": 0.0,
			"0.024": 0.0,
			"0.025": 0.0
		}
	}
}
