{
	 "smiles": "CC1=CC=C(C=C1)N=C=NC1=CC=C(C)C=C1", 
	 "Tm": 331.65, 
	 "num_atms": 31, 
	 "gaussian": { 
		 "optdone": 1, 
		 "sigma_profile": "yes", 
		 "theory": "DFT", 
		 "functional": "B3LYP", 
		 "basiset": "6-31G**", 
		 "properties": { 
			 "R2extent": 7402.3079, 
			 "electric_dipole_moment_norm": 1.8458464129, 
			 "electric_quadrupole_moment_norm": 13.5890109467, 
			 "total_energy": -689.530466124, 
			 "HOMO_LUMO_gap": 0.19288, 
			 "cosmo_polarized_energy": -6.97, 
			 "cosmo_cavitation_energy": 36.49, 
			 "cosmo_dispersion_energy": -26.15, 
			 "cosmo_repulsion_energy": 2.04, 
			 "cosmo_total_nonelectrostatic_energy": 12.39, 
			 "SMD_solvation_energy": 6.55 
		},
		"coords": [
			{
				"x": -0.1973210006,
				"y": -3.0699064456,
				"z": -5.3936806366,
				"element": "C" 
			},
			{
				"x": -0.5179866344,
				"y": -2.1936805239,
				"z": -4.2059180737,
				"element": "C" 
			},
			{
				"x": -1.8151661176,
				"y": -2.1285445143,
				"z": -3.6811860186,
				"element": "C" 
			},
			{
				"x": -2.1213470385,
				"y": -1.2990737696,
				"z": -2.6044358308,
				"element": "C" 
			},
			{
				"x": -1.1245478762,
				"y": -0.5103430317,
				"z": -2.0193100383,
				"element": "C" 
			},
			{
				"x": 0.1809062464,
				"y": -0.5659493749,
				"z": -2.5315629177,
				"element": "C" 
			},
			{
				"x": 0.4711952453,
				"y": -1.3985188134,
				"z": -3.6079560951,
				"element": "C" 
			},
			{
				"x": -1.4851992559,
				"y": 0.3114230193,
				"z": -0.936579318,
				"element": "N" 
			},
			{
				"x": -0.8144930797,
				"y": 1.0347646439,
				"z": -0.2095754121,
				"element": "C" 
			},
			{
				"x": -0.2891230551,
				"y": 1.8951413457,
				"z": 0.4870888438,
				"element": "N" 
			},
			{
				"x": 0.2922276889,
				"y": 1.8292059573,
				"z": 1.7659101741,
				"element": "C" 
			},
			{
				"x": 0.2797750723,
				"y": 0.6647082849,
				"z": 2.5491359991,
				"element": "C" 
			},
			{
				"x": 0.8650472422,
				"y": 0.6688026724,
				"z": 3.8115037255,
				"element": "C" 
			},
			{
				"x": 1.4777934544,
				"y": 1.8191984822,
				"z": 4.330526447,
				"element": "C" 
			},
			{
				"x": 2.1372593006,
				"y": 1.802371929,
				"z": 5.6892799634,
				"element": "C" 
			},
			{
				"x": 1.4773419218,
				"y": 2.9744748645,
				"z": 3.5382707218,
				"element": "C" 
			},
			{
				"x": 0.8946008453,
				"y": 2.9860715086,
				"z": 2.2728151126,
				"element": "C" 
			},
			{
				"x": -0.2539281586,
				"y": -2.5046312386,
				"z": -6.3326841649,
				"element": "H" 
			},
			{
				"x": -0.8983249372,
				"y": -3.9058644862,
				"z": -5.4750625753,
				"element": "H" 
			},
			{
				"x": 0.8142545297,
				"y": -3.4825223056,
				"z": -5.3262324586,
				"element": "H" 
			},
			{
				"x": -2.6006685787,
				"y": -2.7375439205,
				"z": -4.1216870679,
				"element": "H" 
			},
			{
				"x": -3.1280565112,
				"y": -1.253137178,
				"z": -2.2021451659,
				"element": "H" 
			},
			{
				"x": 0.9605627764,
				"y": 0.0428731698,
				"z": -2.0820986243,
				"element": "H" 
			},
			{
				"x": 1.4881350539,
				"y": -1.4326789759,
				"z": -3.9916149115,
				"element": "H" 
			},
			{
				"x": -0.1949716647,
				"y": -0.2346858532,
				"z": 2.1667012803,
				"element": "H" 
			},
			{
				"x": 0.8436621189,
				"y": -0.240261021,
				"z": 4.4078743155,
				"element": "H" 
			},
			{
				"x": 1.6024796427,
				"y": 1.1497416855,
				"z": 6.3864863229,
				"element": "H" 
			},
			{
				"x": 2.1768056898,
				"y": 2.804117443,
				"z": 6.1272372779,
				"element": "H" 
			},
			{
				"x": 3.168895532,
				"y": 1.433025718,
				"z": 5.6272026137,
				"element": "H" 
			},
			{
				"x": 1.9384155342,
				"y": 3.8827711145,
				"z": 3.9181967416,
				"element": "H" 
			},
			{
				"x": 0.8934760134,
				"y": 3.8853496139,
				"z": 1.6655997701,
				"element": "H" 
			}
		],
		 "valence_orbital": [ 
			{
				"type": "occ",
				"energy": -0.28944,
				"method": "rhf"
			},
			{
				"type": "occ",
				"energy": -0.25226,
				"method": "rhf"
			},
			{
				"type": "occ",
				"energy": -0.25217,
				"method": "rhf"
			},
			{
				"type": "occ",
				"energy": -0.22044,
				"method": "rhf"
			},
			{
				"type": "occ",
				"energy": -0.21547,
				"method": "rhf"
			},
			{
				"type": "unocc",
				"energy": -0.02259,
				"method": "rhf"
			},
			{
				"type": "unocc",
				"energy": -0.01901,
				"method": "rhf"
			},
			{
				"type": "unocc",
				"energy": -0.00271,
				"method": "rhf"
			},
			{
				"type": "unocc",
				"energy": -0.00244,
				"method": "rhf"
			},
			{
				"type": "unocc",
				"energy": 0.05556,
				"method": "rhf"
			}
		],
		"cosmo_sigma_profile": { 
			"-0.025": 0.0,
			"-0.024": 0.0,
			"-0.023": 0.0,
			"-0.022": 0.0,
			"-0.021": 0.0,
			"-0.02": 0.0,
			"-0.019": 0.0,
			"-0.018": 0.0,
			"-0.017": 0.0,
			"-0.016": 0.0,
			"-0.015": 0.0,
			"-0.014": 0.0,
			"-0.013": 0.0,
			"-0.012": 0.0,
			"-0.011": 0.0,
			"-0.01": 0.0,
			"-0.009": 0.0,
			"-0.008": 0.0,
			"-0.007": 0.592951353761,
			"-0.006": 8.6279111716,
			"-0.005": 19.563203787,
			"-0.004": 32.307860831,
			"-0.003": 28.5268441546,
			"-0.002": 23.6849284869,
			"-0.001": 26.3856087774,
			"0.0": 28.8862921805,
			"0.001": 21.660985133,
			"0.002": 18.853468011,
			"0.003": 22.133410588,
			"0.004": 22.6345563443,
			"0.005": 23.8395235338,
			"0.006": 6.59431614616,
			"0.007": 2.50079694528,
			"0.008": 2.71038448292,
			"0.009": 2.22904051045,
			"0.01": 0.364450355291,
			"0.011": 0.0,
			"0.012": 0.0,
			"0.013": 0.0,
			"0.014": 0.0,
			"0.015": 0.0,
			"0.016": 0.0,
			"0.017": 0.0,
			"0.018": 0.0,
			"0.019": 0.0,
			"0.02": 0.0,
			"0.021": 0.0,
			"0.022": 0.0,
			"0.023": 0.0,
			"0.024": 0.0,
			"0.025": 0.0
		}
	}
}
