{
	 "smiles": "CN(C(C)=O)C1=CC=CC=C1", 
	 "Tm": 376.15, 
	 "num_atms": 22, 
	 "gaussian": { 
		 "optdone": 1, 
		 "sigma_profile": "yes", 
		 "theory": "DFT", 
		 "functional": "B3LYP", 
		 "basiset": "6-31G**", 
		 "properties": { 
			 "R2extent": 2023.494, 
			 "electric_dipole_moment_norm": 3.92809864693, 
			 "electric_quadrupole_moment_norm": 5.67263559291, 
			 "total_energy": -479.574930494, 
			 "HOMO_LUMO_gap": 0.21953, 
			 "cosmo_polarized_energy": -9.43, 
			 "cosmo_cavitation_energy": 25.44, 
			 "cosmo_dispersion_energy": -17.91, 
			 "cosmo_repulsion_energy": 1.45, 
			 "cosmo_total_nonelectrostatic_energy": 8.98, 
			 "SMD_solvation_energy": 5.77 
		},
		"coords": [
			{
				"x": 1.5764963577,
				"y": 1.2400777882,
				"z": 0.7922084602,
				"element": "C" 
			},
			{
				"x": 0.4851791243,
				"y": 0.3968843379,
				"z": 0.3060886144,
				"element": "N" 
			},
			{
				"x": -0.1197198783,
				"y": -0.4958957363,
				"z": 1.1748751011,
				"element": "C" 
			},
			{
				"x": -1.248312202,
				"y": -1.3402206352,
				"z": 0.6024844044,
				"element": "C" 
			},
			{
				"x": 0.2335714373,
				"y": -0.6014027777,
				"z": 2.3430974947,
				"element": "O" 
			},
			{
				"x": 0.1048257591,
				"y": 0.5478912285,
				"z": -1.0677031777,
				"element": "C" 
			},
			{
				"x": -0.8530975587,
				"y": 1.5017729685,
				"z": -1.431659248,
				"element": "C" 
			},
			{
				"x": -1.2015646986,
				"y": 1.6687523079,
				"z": -2.7726368563,
				"element": "C" 
			},
			{
				"x": -0.5917889166,
				"y": 0.8886160804,
				"z": -3.7574470814,
				"element": "C" 
			},
			{
				"x": 0.3695567383,
				"y": -0.0585021001,
				"z": -3.3983699385,
				"element": "C" 
			},
			{
				"x": 0.7202180447,
				"y": -0.2268829508,
				"z": -2.0580982573,
				"element": "C" 
			},
			{
				"x": 1.7338460654,
				"y": 1.0015358969,
				"z": 1.8435982748,
				"element": "H" 
			},
			{
				"x": 2.4962737728,
				"y": 1.0476395968,
				"z": 0.2281596724,
				"element": "H" 
			},
			{
				"x": 1.3227787311,
				"y": 2.3011215975,
				"z": 0.6879342693,
				"element": "H" 
			},
			{
				"x": -1.626196108,
				"y": -1.9728839932,
				"z": 1.4050636853,
				"element": "H" 
			},
			{
				"x": -0.8998505092,
				"y": -1.9673991946,
				"z": -0.2235044713,
				"element": "H" 
			},
			{
				"x": -2.0593181745,
				"y": -0.71721471,
				"z": 0.2139649381,
				"element": "H" 
			},
			{
				"x": -1.3201602947,
				"y": 2.1036476785,
				"z": -0.6574399479,
				"element": "H" 
			},
			{
				"x": -1.9489023418,
				"y": 2.4073539925,
				"z": -3.0477037188,
				"element": "H" 
			},
			{
				"x": -0.8639180314,
				"y": 1.0190258614,
				"z": -4.8007106826,
				"element": "H" 
			},
			{
				"x": 0.8474018075,
				"y": -0.6662354374,
				"z": -4.161281581,
				"element": "H" 
			},
			{
				"x": 1.4685808756,
				"y": -0.9585817996,
				"z": -1.767619954,
				"element": "H" 
			}
		],
		 "valence_orbital": [ 
			{
				"type": "occ",
				"energy": -0.34486,
				"method": "rhf"
			},
			{
				"type": "occ",
				"energy": -0.2668,
				"method": "rhf"
			},
			{
				"type": "occ",
				"energy": -0.26377,
				"method": "rhf"
			},
			{
				"type": "occ",
				"energy": -0.2389,
				"method": "rhf"
			},
			{
				"type": "occ",
				"energy": -0.23693,
				"method": "rhf"
			},
			{
				"type": "unocc",
				"energy": -0.0174,
				"method": "rhf"
			},
			{
				"type": "unocc",
				"energy": -0.01528,
				"method": "rhf"
			},
			{
				"type": "unocc",
				"energy": 0.03479,
				"method": "rhf"
			},
			{
				"type": "unocc",
				"energy": 0.08136,
				"method": "rhf"
			},
			{
				"type": "unocc",
				"energy": 0.11469,
				"method": "rhf"
			}
		],
		"cosmo_sigma_profile": { 
			"-0.025": 0.0,
			"-0.024": 0.0,
			"-0.023": 0.0,
			"-0.022": 0.0,
			"-0.021": 0.0,
			"-0.02": 0.0,
			"-0.019": 0.0,
			"-0.018": 0.0,
			"-0.017": 0.0,
			"-0.016": 0.0,
			"-0.015": 0.0,
			"-0.014": 0.0,
			"-0.013": 0.0,
			"-0.012": 0.0,
			"-0.011": 0.0,
			"-0.01": 0.0,
			"-0.009": 0.0,
			"-0.008": 0.0,
			"-0.007": 0.510526084191,
			"-0.006": 8.78424040902,
			"-0.005": 15.7762149827,
			"-0.004": 24.0103081898,
			"-0.003": 23.8967537174,
			"-0.002": 23.6101086773,
			"-0.001": 21.9067801024,
			"0.0": 13.964691264,
			"0.001": 10.8403489423,
			"0.002": 9.66776884352,
			"0.003": 9.08532206114,
			"0.004": 10.4425678663,
			"0.005": 8.74438082525,
			"0.006": 2.05829708795,
			"0.007": 1.04286922376,
			"0.008": 1.91258509648,
			"0.009": 1.52009509186,
			"0.01": 1.11417280609,
			"0.011": 1.56741478526,
			"0.012": 2.00282024871,
			"0.013": 3.07908980262,
			"0.014": 4.75903988538,
			"0.015": 1.41288668698,
			"0.016": 0.040855652547,
			"0.017": 0.0,
			"0.018": 0.0,
			"0.019": 0.0,
			"0.02": 0.0,
			"0.021": 0.0,
			"0.022": 0.0,
			"0.023": 0.0,
			"0.024": 0.0,
			"0.025": 0.0
		}
	}
}
