{
	 "smiles": "BrC1=CC=C(C=C1)N1C(=O)C2ON=C(C2C1=O)C(=O)C1=CC=C2C=CC=CC2=C1", 
	 "Tm": 459.15, 
	 "num_atms": 42, 
	 "gaussian": { 
		 "optdone": 1, 
		 "sigma_profile": "yes", 
		 "theory": "DFT", 
		 "functional": "B3LYP", 
		 "basiset": "6-31G**", 
		 "properties": { 
			 "R2extent": 23690.5614, 
			 "electric_dipole_moment_norm": 2.51538950662, 
			 "electric_quadrupole_moment_norm": 22.3374884058, 
			 "total_energy": -3827.94029007, 
			 "HOMO_LUMO_gap": 0.13598, 
			 "cosmo_polarized_energy": -19.72, 
			 "cosmo_cavitation_energy": 50.47, 
			 "cosmo_dispersion_energy": -36.25, 
			 "cosmo_repulsion_energy": 2.67, 
			 "cosmo_total_nonelectrostatic_energy": 16.89, 
			 "SMD_solvation_energy": 8.37 
		},
		"coords": [
			{
				"x": -8.4419216029,
				"y": -0.8480199757,
				"z": -1.1858688231,
				"element": "Br" 
			},
			{
				"x": -6.7071916331,
				"y": -1.315812112,
				"z": -0.5421036022,
				"element": "C" 
			},
			{
				"x": -5.6254280162,
				"y": -0.4805016363,
				"z": -0.8147145625,
				"element": "C" 
			},
			{
				"x": -4.3583285823,
				"y": -0.8241785954,
				"z": -0.3485430319,
				"element": "C" 
			},
			{
				"x": -4.1834505929,
				"y": -1.9962430755,
				"z": 0.3947291841,
				"element": "C" 
			},
			{
				"x": -5.2753319629,
				"y": -2.8268766826,
				"z": 0.6676988579,
				"element": "C" 
			},
			{
				"x": -6.54085534,
				"y": -2.4876134766,
				"z": 0.1935074257,
				"element": "C" 
			},
			{
				"x": -2.8809315385,
				"y": -2.34698401,
				"z": 0.8765528303,
				"element": "N" 
			},
			{
				"x": -2.3734677992,
				"y": -3.6578564558,
				"z": 0.8642013285,
				"element": "C" 
			},
			{
				"x": -2.9591993368,
				"y": -4.6476034729,
				"z": 0.494219019,
				"element": "O" 
			},
			{
				"x": -0.940544146,
				"y": -3.6093740385,
				"z": 1.4043593413,
				"element": "C" 
			},
			{
				"x": -0.0064181825,
				"y": -3.8550060087,
				"z": 0.3058176978,
				"element": "O" 
			},
			{
				"x": 0.7927696167,
				"y": -2.7442361075,
				"z": 0.1170263592,
				"element": "N" 
			},
			{
				"x": 0.4704672999,
				"y": -1.804470096,
				"z": 0.93284788,
				"element": "C" 
			},
			{
				"x": -0.7000657204,
				"y": -2.166581051,
				"z": 1.8246006718,
				"element": "C" 
			},
			{
				"x": -1.9807137935,
				"y": -1.4116657011,
				"z": 1.429865619,
				"element": "C" 
			},
			{
				"x": -2.1867567472,
				"y": -0.229491939,
				"z": 1.556141008,
				"element": "O" 
			},
			{
				"x": 1.2444090197,
				"y": -0.5360973508,
				"z": 1.1364751351,
				"element": "C" 
			},
			{
				"x": 1.1196300043,
				"y": -0.0137487894,
				"z": 2.2397159303,
				"element": "O" 
			},
			{
				"x": 2.1187171783,
				"y": 0.0413701958,
				"z": 0.0797963478,
				"element": "C" 
			},
			{
				"x": 2.190074007,
				"y": -0.4527039258,
				"z": -1.2552013712,
				"element": "C" 
			},
			{
				"x": 3.0094207044,
				"y": 0.1563629703,
				"z": -2.1750924927,
				"element": "C" 
			},
			{
				"x": 3.801021446,
				"y": 1.2846711863,
				"z": -1.8282755846,
				"element": "C" 
			},
			{
				"x": 4.65634299,
				"y": 1.9323203275,
				"z": -2.7581909261,
				"element": "C" 
			},
			{
				"x": 5.4055907633,
				"y": 3.024510213,
				"z": -2.3804263876,
				"element": "C" 
			},
			{
				"x": 5.3362221515,
				"y": 3.5232297642,
				"z": -1.0548509185,
				"element": "C" 
			},
			{
				"x": 4.5173133859,
				"y": 2.9187645612,
				"z": -0.1295905052,
				"element": "C" 
			},
			{
				"x": 3.7303719253,
				"y": 1.7881677905,
				"z": -0.4870079374,
				"element": "C" 
			},
			{
				"x": 2.8779118252,
				"y": 1.1461877843,
				"z": 0.4392116536,
				"element": "C" 
			},
			{
				"x": -5.7668027471,
				"y": 0.4284444382,
				"z": -1.3875588177,
				"element": "H" 
			},
			{
				"x": -3.5162075734,
				"y": -0.1752728401,
				"z": -0.5511559864,
				"element": "H" 
			},
			{
				"x": -5.1391978513,
				"y": -3.7401852673,
				"z": 1.2319700021,
				"element": "H" 
			},
			{
				"x": -7.3892546627,
				"y": -3.1299373678,
				"z": 0.3983917929,
				"element": "H" 
			},
			{
				"x": -0.7840931209,
				"y": -4.3852487376,
				"z": 2.1565547024,
				"element": "H" 
			},
			{
				"x": -0.4779052868,
				"y": -1.9768435055,
				"z": 2.8764981269,
				"element": "H" 
			},
			{
				"x": 1.6046196392,
				"y": -1.3164933068,
				"z": -1.5418708492,
				"element": "H" 
			},
			{
				"x": 3.0596609468,
				"y": -0.2242280864,
				"z": -3.1917517202,
				"element": "H" 
			},
			{
				"x": 4.7107862829,
				"y": 1.5515363701,
				"z": -3.7745901767,
				"element": "H" 
			},
			{
				"x": 6.0566001828,
				"y": 3.5110865217,
				"z": -3.1009934955,
				"element": "H" 
			},
			{
				"x": 5.9335880102,
				"y": 4.3855780996,
				"z": -0.7744236177,
				"element": "H" 
			},
			{
				"x": 4.4583509814,
				"y": 3.295495098,
				"z": 0.8879665575,
				"element": "H" 
			},
			{
				"x": 2.8062978759,
				"y": 1.5161482914,
				"z": 1.4572633351,
				"element": "H" 
			}
		],
		 "valence_orbital": [ 
			{
				"type": "occ",
				"energy": -0.27305,
				"method": "rhf"
			},
			{
				"type": "occ",
				"energy": -0.26785,
				"method": "rhf"
			},
			{
				"type": "occ",
				"energy": -0.25728,
				"method": "rhf"
			},
			{
				"type": "occ",
				"energy": -0.24576,
				"method": "rhf"
			},
			{
				"type": "occ",
				"energy": -0.22866,
				"method": "rhf"
			},
			{
				"type": "unocc",
				"energy": -0.09268,
				"method": "rhf"
			},
			{
				"type": "unocc",
				"energy": -0.05424,
				"method": "rhf"
			},
			{
				"type": "unocc",
				"energy": -0.04848,
				"method": "rhf"
			},
			{
				"type": "unocc",
				"energy": -0.04083,
				"method": "rhf"
			},
			{
				"type": "unocc",
				"energy": -0.02534,
				"method": "rhf"
			}
		],
		"cosmo_sigma_profile": { 
			"-0.025": 0.0,
			"-0.024": 0.0,
			"-0.023": 0.0,
			"-0.022": 0.0,
			"-0.021": 0.0,
			"-0.02": 0.0,
			"-0.019": 0.0,
			"-0.018": 0.0,
			"-0.017": 0.0,
			"-0.016": 0.0,
			"-0.015": 0.0,
			"-0.014": 0.0,
			"-0.013": 0.161399194642,
			"-0.012": 0.924994243732,
			"-0.011": 2.66568914519,
			"-0.01": 7.97125311416,
			"-0.009": 6.2586815567,
			"-0.008": 6.33404312299,
			"-0.007": 16.7603163845,
			"-0.006": 26.2412132152,
			"-0.005": 24.5846342669,
			"-0.004": 24.9281068443,
			"-0.003": 20.576611904,
			"-0.002": 20.8520284724,
			"-0.001": 20.7985257565,
			"0.0": 24.1037986433,
			"0.001": 29.9747822436,
			"0.002": 46.3590431439,
			"0.003": 38.0371756505,
			"0.004": 30.0448076128,
			"0.005": 10.9385457107,
			"0.006": 8.43018984012,
			"0.007": 8.61543287899,
			"0.008": 9.54153698151,
			"0.009": 9.45444562718,
			"0.01": 11.6769957649,
			"0.011": 4.59181962576,
			"0.012": 0.00806303758999,
			"0.013": 0.0,
			"0.014": 0.0,
			"0.015": 0.0,
			"0.016": 0.0,
			"0.017": 0.0,
			"0.018": 0.0,
			"0.019": 0.0,
			"0.02": 0.0,
			"0.021": 0.0,
			"0.022": 0.0,
			"0.023": 0.0,
			"0.024": 0.0,
			"0.025": 0.0
		}
	}
}
