{
	 "smiles": "COC(=O)C1CCC(C)(OC1(C)C)C(C)(C)O", 
	 "Tm": 412.15, 
	 "num_atms": 41, 
	 "gaussian": { 
		 "optdone": 1, 
		 "sigma_profile": "yes", 
		 "theory": "DFT", 
		 "functional": "B3LYP", 
		 "basiset": "6-31G**", 
		 "properties": { 
			 "R2extent": 4719.0749, 
			 "electric_dipole_moment_norm": 2.77310904582, 
			 "electric_quadrupole_moment_norm": 13.0002359071, 
			 "total_energy": -810.760632224, 
			 "HOMO_LUMO_gap": 0.25085, 
			 "cosmo_polarized_energy": -11.22, 
			 "cosmo_cavitation_energy": 38.47, 
			 "cosmo_dispersion_energy": -26.03, 
			 "cosmo_repulsion_energy": 1.96, 
			 "cosmo_total_nonelectrostatic_energy": 14.4, 
			 "SMD_solvation_energy": 7.8 
		},
		"coords": [
			{
				"x": 3.9689687877,
				"y": 2.1550268867,
				"z": -1.3656419367,
				"element": "C" 
			},
			{
				"x": 2.5804080622,
				"y": 1.9357198405,
				"z": -1.062091997,
				"element": "O" 
			},
			{
				"x": 2.3193038326,
				"y": 0.844498189,
				"z": -0.3022554023,
				"element": "C" 
			},
			{
				"x": 3.1860274435,
				"y": 0.1037547736,
				"z": 0.1101255186,
				"element": "O" 
			},
			{
				"x": 0.8304437688,
				"y": 0.6866927071,
				"z": -0.0419218968,
				"element": "C" 
			},
			{
				"x": 0.5730550227,
				"y": -0.192199067,
				"z": 1.186688358,
				"element": "C" 
			},
			{
				"x": -0.9054108763,
				"y": -0.1019700671,
				"z": 1.5723732504,
				"element": "C" 
			},
			{
				"x": -1.8505803254,
				"y": -0.3275053654,
				"z": 0.3559058039,
				"element": "C" 
			},
			{
				"x": -2.7388886358,
				"y": 0.9048428634,
				"z": 0.1255780708,
				"element": "C" 
			},
			{
				"x": -1.0961695959,
				"y": -0.6300769161,
				"z": -0.8469084171,
				"element": "O" 
			},
			{
				"x": 0.0705970702,
				"y": 0.0997647654,
				"z": -1.2839108488,
				"element": "C" 
			},
			{
				"x": 0.9065134747,
				"y": -0.9673467588,
				"z": -2.008430872,
				"element": "C" 
			},
			{
				"x": -0.3298672559,
				"y": 1.1990589728,
				"z": -2.2791247397,
				"element": "C" 
			},
			{
				"x": -2.7322848465,
				"y": -1.6284009601,
				"z": 0.4937286162,
				"element": "C" 
			},
			{
				"x": -3.7944743037,
				"y": -1.5126425946,
				"z": 1.5914126465,
				"element": "C" 
			},
			{
				"x": -1.8663907048,
				"y": -2.8816839633,
				"z": 0.7267259754,
				"element": "C" 
			},
			{
				"x": -3.4597200285,
				"y": -1.7963683222,
				"z": -0.7271119269,
				"element": "O" 
			},
			{
				"x": 3.9984287983,
				"y": 3.0595734063,
				"z": -1.9728817546,
				"element": "H" 
			},
			{
				"x": 4.5455017891,
				"y": 2.2896770399,
				"z": -0.4472051523,
				"element": "H" 
			},
			{
				"x": 4.3823851949,
				"y": 1.3074055747,
				"z": -1.9179396666,
				"element": "H" 
			},
			{
				"x": 0.436927686,
				"y": 1.693167462,
				"z": 0.1490039952,
				"element": "H" 
			},
			{
				"x": 0.8622558242,
				"y": -1.2243716247,
				"z": 0.9683920643,
				"element": "H" 
			},
			{
				"x": 1.2013533625,
				"y": 0.1347105531,
				"z": 2.0206697576,
				"element": "H" 
			},
			{
				"x": -1.0966145328,
				"y": 0.892166699,
				"z": 1.9940255679,
				"element": "H" 
			},
			{
				"x": -1.1227373934,
				"y": -0.8152982675,
				"z": 2.3719698648,
				"element": "H" 
			},
			{
				"x": -2.1296837164,
				"y": 1.7928368517,
				"z": -0.0609146711,
				"element": "H" 
			},
			{
				"x": -3.4067286231,
				"y": 0.7418386779,
				"z": -0.7224032989,
				"element": "H" 
			},
			{
				"x": -3.344956956,
				"y": 1.1143173219,
				"z": 1.0117514644,
				"element": "H" 
			},
			{
				"x": 0.2777742456,
				"y": -1.4703784195,
				"z": -2.7480803657,
				"element": "H" 
			},
			{
				"x": 1.7551990256,
				"y": -0.5175251215,
				"z": -2.5317681525,
				"element": "H" 
			},
			{
				"x": 1.2874711627,
				"y": -1.7183013306,
				"z": -1.3120386684,
				"element": "H" 
			},
			{
				"x": 0.5601524098,
				"y": 1.6926866319,
				"z": -2.6781789342,
				"element": "H" 
			},
			{
				"x": -0.9551001857,
				"y": 1.9623487045,
				"z": -1.811261839,
				"element": "H" 
			},
			{
				"x": -0.8917491958,
				"y": 0.7599284739,
				"z": -3.1089834365,
				"element": "H" 
			},
			{
				"x": -3.3513704983,
				"y": -1.2965454852,
				"z": 2.5681410986,
				"element": "H" 
			},
			{
				"x": -4.5238986693,
				"y": -0.736109443,
				"z": 1.3529213982,
				"element": "H" 
			},
			{
				"x": -4.3342053021,
				"y": -2.4608783307,
				"z": 1.6669728436,
				"element": "H" 
			},
			{
				"x": -1.0972654456,
				"y": -2.9669109621,
				"z": -0.0440780158,
				"element": "H" 
			},
			{
				"x": -2.5111140054,
				"y": -3.7630477899,
				"z": 0.6713989938,
				"element": "H" 
			},
			{
				"x": -1.3763176742,
				"y": -2.8827983669,
				"z": 1.7054572195,
				"element": "H" 
			},
			{
				"x": -2.7966381902,
				"y": -1.702557239,
				"z": -1.428010515,
				"element": "H" 
			}
		],
		 "valence_orbital": [ 
			{
				"type": "occ",
				"energy": -0.29987,
				"method": "rhf"
			},
			{
				"type": "occ",
				"energy": -0.2931,
				"method": "rhf"
			},
			{
				"type": "occ",
				"energy": -0.27482,
				"method": "rhf"
			},
			{
				"type": "occ",
				"energy": -0.25748,
				"method": "rhf"
			},
			{
				"type": "occ",
				"energy": -0.24561,
				"method": "rhf"
			},
			{
				"type": "unocc",
				"energy": 0.00524,
				"method": "rhf"
			},
			{
				"type": "unocc",
				"energy": 0.06599,
				"method": "rhf"
			},
			{
				"type": "unocc",
				"energy": 0.09131,
				"method": "rhf"
			},
			{
				"type": "unocc",
				"energy": 0.09415,
				"method": "rhf"
			},
			{
				"type": "unocc",
				"energy": 0.10371,
				"method": "rhf"
			}
		],
		"cosmo_sigma_profile": { 
			"-0.025": 0.0,
			"-0.024": 0.0,
			"-0.023": 0.0,
			"-0.022": 0.0,
			"-0.021": 0.0,
			"-0.02": 0.0,
			"-0.019": 0.0,
			"-0.018": 0.0,
			"-0.017": 0.0,
			"-0.016": 0.0,
			"-0.015": 0.0,
			"-0.014": 0.0,
			"-0.013": 0.0,
			"-0.012": 0.0,
			"-0.011": 0.0396146650841,
			"-0.01": 0.371585922864,
			"-0.009": 0.274176108781,
			"-0.008": 0.703351895696,
			"-0.007": 1.31949556439,
			"-0.006": 6.46584386903,
			"-0.005": 13.5834452061,
			"-0.004": 23.7125576596,
			"-0.003": 37.7625192029,
			"-0.002": 39.1033722496,
			"-0.001": 36.6555437288,
			"0.0": 36.1680054095,
			"0.001": 32.1199432382,
			"0.002": 16.2589543701,
			"0.003": 8.53275741526,
			"0.004": 7.28231943221,
			"0.005": 4.58745514069,
			"0.006": 4.30191017491,
			"0.007": 3.25615276514,
			"0.008": 3.37865738502,
			"0.009": 3.31734649611,
			"0.01": 3.24343786387,
			"0.011": 3.77857065126,
			"0.012": 5.40914430251,
			"0.013": 1.17009899056,
			"0.014": 2.12350424844,
			"0.015": 1.44136369951,
			"0.016": 0.0282360957073,
			"0.017": 0.0,
			"0.018": 0.0,
			"0.019": 0.0,
			"0.02": 0.0,
			"0.021": 0.0,
			"0.022": 0.0,
			"0.023": 0.0,
			"0.024": 0.0,
			"0.025": 0.0
		}
	}
}
