{
	 "smiles": "CC(C)(C)OC(=O)NCC1CC2CCCC(C1)N2", 
	 "Tm": 493.15, 
	 "num_atms": 44, 
	 "gaussian": { 
		 "optdone": 1, 
		 "sigma_profile": "yes", 
		 "theory": "DFT", 
		 "functional": "B3LYP", 
		 "basiset": "6-31G**", 
		 "properties": { 
			 "R2extent": 6462.2931, 
			 "electric_dipole_moment_norm": 2.0163138595, 
			 "electric_quadrupole_moment_norm": 13.3538886243, 
			 "total_energy": -809.148787037, 
			 "HOMO_LUMO_gap": 0.26716, 
			 "cosmo_polarized_energy": -11.73, 
			 "cosmo_cavitation_energy": 41.09, 
			 "cosmo_dispersion_energy": -28.56, 
			 "cosmo_repulsion_energy": 2.22, 
			 "cosmo_total_nonelectrostatic_energy": 14.74, 
			 "SMD_solvation_energy": 4.41 
		},
		"coords": [
			{
				"x": -0.6521439204,
				"y": 0.5837268371,
				"z": 4.7062203066,
				"element": "C" 
			},
			{
				"x": -1.0882692234,
				"y": -0.4226567497,
				"z": 3.6357414652,
				"element": "C" 
			},
			{
				"x": -2.5751474195,
				"y": -0.2574120807,
				"z": 3.3101834847,
				"element": "C" 
			},
			{
				"x": -0.7775351403,
				"y": -1.8684352465,
				"z": 4.0382426146,
				"element": "C" 
			},
			{
				"x": -0.4422135633,
				"y": -0.1064473631,
				"z": 2.3530351427,
				"element": "O" 
			},
			{
				"x": 0.9092260684,
				"y": -0.1275520051,
				"z": 2.2334036661,
				"element": "C" 
			},
			{
				"x": 1.7059274059,
				"y": -0.4245893212,
				"z": 3.1105962238,
				"element": "O" 
			},
			{
				"x": 1.2900210424,
				"y": 0.2475119116,
				"z": 0.9737719204,
				"element": "N" 
			},
			{
				"x": 0.4159337168,
				"y": 0.5601718735,
				"z": -0.1497254849,
				"element": "C" 
			},
			{
				"x": -0.1290090584,
				"y": -0.6818686013,
				"z": -0.8949271185,
				"element": "C" 
			},
			{
				"x": 0.9670428319,
				"y": -1.6271513786,
				"z": -1.4703273831,
				"element": "C" 
			},
			{
				"x": 1.1759757884,
				"y": -1.6261117383,
				"z": -3.0079731944,
				"element": "C" 
			},
			{
				"x": 2.045453307,
				"y": -0.4936372898,
				"z": -3.5885040861,
				"element": "C" 
			},
			{
				"x": 1.3560649081,
				"y": 0.879913643,
				"z": -3.576127581,
				"element": "C" 
			},
			{
				"x": -0.1072642903,
				"y": 0.7861100356,
				"z": -4.0367969496,
				"element": "C" 
			},
			{
				"x": -0.8684125249,
				"y": -0.411047674,
				"z": -3.4340981894,
				"element": "C" 
			},
			{
				"x": -1.2359680444,
				"y": -0.3146031204,
				"z": -1.9291936746,
				"element": "C" 
			},
			{
				"x": -0.0997549773,
				"y": -1.628306276,
				"z": -3.7441862174,
				"element": "N" 
			},
			{
				"x": -1.2212700996,
				"y": 0.4121224183,
				"z": 5.6257517631,
				"element": "H" 
			},
			{
				"x": 0.4112268629,
				"y": 0.4835263571,
				"z": 4.9240939765,
				"element": "H" 
			},
			{
				"x": -0.8514978919,
				"y": 1.6061602307,
				"z": 4.3695093356,
				"element": "H" 
			},
			{
				"x": -2.7877435057,
				"y": 0.763882741,
				"z": 2.9806940434,
				"element": "H" 
			},
			{
				"x": -3.1798562929,
				"y": -0.4679830391,
				"z": 4.1973155047,
				"element": "H" 
			},
			{
				"x": -2.8758675634,
				"y": -0.9460859508,
				"z": 2.515058621,
				"element": "H" 
			},
			{
				"x": 0.2852214114,
				"y": -1.9939941279,
				"z": 4.245308657,
				"element": "H" 
			},
			{
				"x": -1.0674715774,
				"y": -2.5561680004,
				"z": 3.2372077905,
				"element": "H" 
			},
			{
				"x": -1.3487895311,
				"y": -2.1317543962,
				"z": 4.9345077751,
				"element": "H" 
			},
			{
				"x": 2.2874175716,
				"y": 0.2037112744,
				"z": 0.8347088451,
				"element": "H" 
			},
			{
				"x": -0.4330729603,
				"y": 1.1338997248,
				"z": 0.2316495455,
				"element": "H" 
			},
			{
				"x": 0.9770955258,
				"y": 1.2233143242,
				"z": -0.8120054935,
				"element": "H" 
			},
			{
				"x": -0.6292540958,
				"y": -1.2431184303,
				"z": -0.0982677884,
				"element": "H" 
			},
			{
				"x": 1.9210915936,
				"y": -1.451793098,
				"z": -0.9568507335,
				"element": "H" 
			},
			{
				"x": 0.6886449752,
				"y": -2.6550870317,
				"z": -1.2050168368,
				"element": "H" 
			},
			{
				"x": 1.6877280433,
				"y": -2.5659417135,
				"z": -3.2511412509,
				"element": "H" 
			},
			{
				"x": 3.0045464578,
				"y": -0.4475761248,
				"z": -3.0579748784,
				"element": "H" 
			},
			{
				"x": 2.2658303985,
				"y": -0.7687924551,
				"z": -4.6267714679,
				"element": "H" 
			},
			{
				"x": 1.9041574414,
				"y": 1.5760922808,
				"z": -4.2221288154,
				"element": "H" 
			},
			{
				"x": 1.4046399639,
				"y": 1.3141418298,
				"z": -2.573932443,
				"element": "H" 
			},
			{
				"x": -0.6400052649,
				"y": 1.7190455185,
				"z": -3.8155829575,
				"element": "H" 
			},
			{
				"x": -0.1273411651,
				"y": 0.6541545051,
				"z": -5.1251236008,
				"element": "H" 
			},
			{
				"x": -1.8172729541,
				"y": -0.4828414245,
				"z": -3.9807656812,
				"element": "H" 
			},
			{
				"x": -1.6401351801,
				"y": 0.6823349872,
				"z": -1.706281217,
				"element": "H" 
			},
			{
				"x": -2.0736951058,
				"y": -1.0071185521,
				"z": -1.7772009154,
				"element": "H" 
			},
			{
				"x": -0.642353964,
				"y": -2.4471473034,
				"z": -3.4737967231,
				"element": "H" 
			}
		],
		 "valence_orbital": [ 
			{
				"type": "occ",
				"energy": -0.29423,
				"method": "rhf"
			},
			{
				"type": "occ",
				"energy": -0.28368,
				"method": "rhf"
			},
			{
				"type": "occ",
				"energy": -0.25631,
				"method": "rhf"
			},
			{
				"type": "occ",
				"energy": -0.2438,
				"method": "rhf"
			},
			{
				"type": "occ",
				"energy": -0.21444,
				"method": "rhf"
			},
			{
				"type": "unocc",
				"energy": 0.05272,
				"method": "rhf"
			},
			{
				"type": "unocc",
				"energy": 0.06071,
				"method": "rhf"
			},
			{
				"type": "unocc",
				"energy": 0.07783,
				"method": "rhf"
			},
			{
				"type": "unocc",
				"energy": 0.08433,
				"method": "rhf"
			},
			{
				"type": "unocc",
				"energy": 0.10591,
				"method": "rhf"
			}
		],
		"cosmo_sigma_profile": { 
			"-0.025": 0.0,
			"-0.024": 0.0,
			"-0.023": 0.0,
			"-0.022": 0.0,
			"-0.021": 0.0,
			"-0.02": 0.0,
			"-0.019": 0.0,
			"-0.018": 0.0,
			"-0.017": 0.0,
			"-0.016": 0.0,
			"-0.015": 0.0,
			"-0.014": 0.0471934883077,
			"-0.013": 0.855446188017,
			"-0.012": 0.966423568719,
			"-0.011": 0.818200395486,
			"-0.01": 1.08257657304,
			"-0.009": 2.05236351769,
			"-0.008": 2.2246058942,
			"-0.007": 2.60461031224,
			"-0.006": 2.75276947373,
			"-0.005": 5.28383432498,
			"-0.004": 15.4737421421,
			"-0.003": 30.9521383301,
			"-0.002": 46.6464408943,
			"-0.001": 48.2623772745,
			"0.0": 49.6863214878,
			"0.001": 44.8107673964,
			"0.002": 15.4396088374,
			"0.003": 7.5446190452,
			"0.004": 6.36946594679,
			"0.005": 4.70947339338,
			"0.006": 4.16806164147,
			"0.007": 2.52050873808,
			"0.008": 2.2214401256,
			"0.009": 1.54162406714,
			"0.01": 2.48507253685,
			"0.011": 2.32260356076,
			"0.012": 2.10372384299,
			"0.013": 3.17901065973,
			"0.014": 4.05041936565,
			"0.015": 0.848165865035,
			"0.016": 0.48047952346,
			"0.017": 0.61682137938,
			"0.018": 0.368256605424,
			"0.019": 0.335104795135,
			"0.02": 0.0,
			"0.021": 0.0,
			"0.022": 0.0,
			"0.023": 0.0,
			"0.024": 0.0,
			"0.025": 0.0
		}
	}
}
