{
	 "smiles": "ClC1=CC(Cl)=C(Cl)C(Cl)=C1", 
	 "Tm": 326.35, 
	 "num_atms": 12, 
	 "gaussian": { 
		 "optdone": 1, 
		 "sigma_profile": "yes", 
		 "theory": "DFT", 
		 "functional": "B3LYP", 
		 "basiset": "6-31G**", 
		 "properties": { 
			 "R2extent": 3414.0553, 
			 "electric_dipole_moment_norm": 0.999574754583, 
			 "electric_quadrupole_moment_norm": 3.27916644286, 
			 "total_energy": -2070.60216272, 
			 "HOMO_LUMO_gap": 0.21423, 
			 "cosmo_polarized_energy": -3.47, 
			 "cosmo_cavitation_energy": 23.71, 
			 "cosmo_dispersion_energy": -18.18, 
			 "cosmo_repulsion_energy": 1.48, 
			 "cosmo_total_nonelectrostatic_energy": 7.0, 
			 "SMD_solvation_energy": 3.04 
		},
		"coords": [
			{
				"x": -0.4160655056,
				"y": -3.0756309576,
				"z": -0.3936121122,
				"element": "Cl" 
			},
			{
				"x": -0.7904881619,
				"y": -1.3685140129,
				"z": -0.3081655221,
				"element": "C" 
			},
			{
				"x": -2.0674724778,
				"y": -0.9686633741,
				"z": 0.0743383921,
				"element": "C" 
			},
			{
				"x": -2.3592581451,
				"y": 0.3933796983,
				"z": 0.1403898741,
				"element": "C" 
			},
			{
				"x": -3.9676325328,
				"y": 0.8619693823,
				"z": 0.6227808447,
				"element": "Cl" 
			},
			{
				"x": -1.3892982056,
				"y": 1.3618514984,
				"z": -0.1715320027,
				"element": "C" 
			},
			{
				"x": -1.7603699309,
				"y": 3.0539887098,
				"z": -0.0867943868,
				"element": "Cl" 
			},
			{
				"x": -0.1103331442,
				"y": 0.9213563928,
				"z": -0.5539684897,
				"element": "C" 
			},
			{
				"x": 1.1450631316,
				"y": 2.0622459629,
				"z": -0.9558124328,
				"element": "Cl" 
			},
			{
				"x": 0.1946330591,
				"y": -0.4375895582,
				"z": -0.6240711927,
				"element": "C" 
			},
			{
				"x": -2.8295137796,
				"y": -1.6976141003,
				"z": 0.3188584291,
				"element": "H" 
			},
			{
				"x": 1.1861356927,
				"y": -0.7548796415,
				"z": -0.920911401,
				"element": "H" 
			}
		],
		 "valence_orbital": [ 
			{
				"type": "occ",
				"energy": -0.33432,
				"method": "rhf"
			},
			{
				"type": "occ",
				"energy": -0.32191,
				"method": "rhf"
			},
			{
				"type": "occ",
				"energy": -0.31623,
				"method": "rhf"
			},
			{
				"type": "occ",
				"energy": -0.27206,
				"method": "rhf"
			},
			{
				"type": "occ",
				"energy": -0.26151,
				"method": "rhf"
			},
			{
				"type": "unocc",
				"energy": -0.04728,
				"method": "rhf"
			},
			{
				"type": "unocc",
				"energy": -0.04607,
				"method": "rhf"
			},
			{
				"type": "unocc",
				"energy": -0.0351,
				"method": "rhf"
			},
			{
				"type": "unocc",
				"energy": 0.01983,
				"method": "rhf"
			},
			{
				"type": "unocc",
				"energy": 0.03557,
				"method": "rhf"
			}
		],
		"cosmo_sigma_profile": { 
			"-0.025": 0.0,
			"-0.024": 0.0,
			"-0.023": 0.0,
			"-0.022": 0.0,
			"-0.021": 0.0,
			"-0.02": 0.0,
			"-0.019": 0.0,
			"-0.018": 0.0,
			"-0.017": 0.0,
			"-0.016": 0.0,
			"-0.015": 0.0,
			"-0.014": 0.0,
			"-0.013": 0.0,
			"-0.012": 0.0,
			"-0.011": 0.0,
			"-0.01": 0.427683879858,
			"-0.009": 3.01863893584,
			"-0.008": 2.24822957757,
			"-0.007": 3.43393374314,
			"-0.006": 2.94781873588,
			"-0.005": 3.86303273043,
			"-0.004": 6.05655690177,
			"-0.003": 10.7590640062,
			"-0.002": 19.7810539279,
			"-0.001": 31.8253778784,
			"0.0": 24.3601255634,
			"0.001": 18.2577100332,
			"0.002": 21.5044418164,
			"0.003": 33.1867589824,
			"0.004": 17.7191708303,
			"0.005": 1.09262906315,
			"0.006": 0.0,
			"0.007": 0.0,
			"0.008": 0.0,
			"0.009": 0.0,
			"0.01": 0.0,
			"0.011": 0.0,
			"0.012": 0.0,
			"0.013": 0.0,
			"0.014": 0.0,
			"0.015": 0.0,
			"0.016": 0.0,
			"0.017": 0.0,
			"0.018": 0.0,
			"0.019": 0.0,
			"0.02": 0.0,
			"0.021": 0.0,
			"0.022": 0.0,
			"0.023": 0.0,
			"0.024": 0.0,
			"0.025": 0.0
		}
	}
}
