{
	 "smiles": "CCCC(CCC)C(N)=O", 
	 "Tm": 398.15, 
	 "num_atms": 27, 
	 "gaussian": { 
		 "optdone": 1, 
		 "sigma_profile": "yes", 
		 "theory": "DFT", 
		 "functional": "B3LYP", 
		 "basiset": "6-31G**", 
		 "properties": { 
			 "R2extent": 2452.1327, 
			 "electric_dipole_moment_norm": 3.45671822109, 
			 "electric_quadrupole_moment_norm": 11.9702850033, 
			 "total_energy": -445.106331954, 
			 "HOMO_LUMO_gap": 0.27174, 
			 "cosmo_polarized_energy": -11.52, 
			 "cosmo_cavitation_energy": 27.53, 
			 "cosmo_dispersion_energy": -19.4, 
			 "cosmo_repulsion_energy": 1.61, 
			 "cosmo_total_nonelectrostatic_energy": 9.74, 
			 "SMD_solvation_energy": 5.17 
		},
		"coords": [
			{
				"x": 3.8957407064,
				"y": 1.4901236752,
				"z": 1.281785906,
				"element": "C" 
			},
			{
				"x": 2.3981055797,
				"y": 1.7981536169,
				"z": 1.4010970839,
				"element": "C" 
			},
			{
				"x": 1.5009417729,
				"y": 0.8886152005,
				"z": 0.535845127,
				"element": "C" 
			},
			{
				"x": 1.4048876092,
				"y": -0.5830596037,
				"z": 0.9877167879,
				"element": "C" 
			},
			{
				"x": 0.9802347554,
				"y": -1.5435831732,
				"z": -0.1559202932,
				"element": "C" 
			},
			{
				"x": -0.3260987719,
				"y": -1.2239829226,
				"z": -0.9043216629,
				"element": "C" 
			},
			{
				"x": -1.6119927359,
				"y": -1.3640010551,
				"z": -0.0796047254,
				"element": "C" 
			},
			{
				"x": 0.5815659347,
				"y": -0.8775388956,
				"z": 2.2559014619,
				"element": "C" 
			},
			{
				"x": -0.0658100452,
				"y": 0.164539636,
				"z": 2.8647144756,
				"element": "N" 
			},
			{
				"x": 0.5321221892,
				"y": -2.009969486,
				"z": 2.7184092484,
				"element": "O" 
			},
			{
				"x": 4.135878017,
				"y": 0.477035303,
				"z": 1.6204355986,
				"element": "H" 
			},
			{
				"x": 4.4870162057,
				"y": 2.1838508728,
				"z": 1.8880579881,
				"element": "H" 
			},
			{
				"x": 4.2352727913,
				"y": 1.582310018,
				"z": 0.2437024539,
				"element": "H" 
			},
			{
				"x": 2.228144287,
				"y": 2.8397084381,
				"z": 1.099767077,
				"element": "H" 
			},
			{
				"x": 2.0992267427,
				"y": 1.7317631074,
				"z": 2.4545757263,
				"element": "H" 
			},
			{
				"x": 1.8943073882,
				"y": 0.900746406,
				"z": -0.489449362,
				"element": "H" 
			},
			{
				"x": 0.4960903885,
				"y": 1.3257820156,
				"z": 0.4552159655,
				"element": "H" 
			},
			{
				"x": 2.4114866569,
				"y": -0.9139811742,
				"z": 1.2746267306,
				"element": "H" 
			},
			{
				"x": 0.9217962094,
				"y": -2.5508584611,
				"z": 0.2696016447,
				"element": "H" 
			},
			{
				"x": 1.7984120359,
				"y": -1.5555283897,
				"z": -0.8874054279,
				"element": "H" 
			},
			{
				"x": -0.3843442204,
				"y": -1.9067063819,
				"z": -1.7618942139,
				"element": "H" 
			},
			{
				"x": -0.2741042961,
				"y": -0.2157331563,
				"z": -1.3363500645,
				"element": "H" 
			},
			{
				"x": -2.4953407914,
				"y": -1.2249406181,
				"z": -0.7121491034,
				"element": "H" 
			},
			{
				"x": -1.6667363885,
				"y": -0.6260868523,
				"z": 0.7264921368,
				"element": "H" 
			},
			{
				"x": -1.679006044,
				"y": -2.3547257955,
				"z": 0.3817892778,
				"element": "H" 
			},
			{
				"x": -0.6407457633,
				"y": -0.0566304555,
				"z": 3.6638580096,
				"element": "H" 
			},
			{
				"x": -0.1290502134,
				"y": 1.083098131,
				"z": 2.4604021536,
				"element": "H" 
			}
		],
		 "valence_orbital": [ 
			{
				"type": "occ",
				"energy": -0.32555,
				"method": "rhf"
			},
			{
				"type": "occ",
				"energy": -0.30855,
				"method": "rhf"
			},
			{
				"type": "occ",
				"energy": -0.30677,
				"method": "rhf"
			},
			{
				"type": "occ",
				"energy": -0.2611,
				"method": "rhf"
			},
			{
				"type": "occ",
				"energy": -0.23889,
				"method": "rhf"
			},
			{
				"type": "unocc",
				"energy": 0.03285,
				"method": "rhf"
			},
			{
				"type": "unocc",
				"energy": 0.06217,
				"method": "rhf"
			},
			{
				"type": "unocc",
				"energy": 0.09513,
				"method": "rhf"
			},
			{
				"type": "unocc",
				"energy": 0.10601,
				"method": "rhf"
			},
			{
				"type": "unocc",
				"energy": 0.11249,
				"method": "rhf"
			}
		],
		"cosmo_sigma_profile": { 
			"-0.025": 0.0,
			"-0.024": 0.0,
			"-0.023": 0.0,
			"-0.022": 0.0,
			"-0.021": 0.0,
			"-0.02": 0.0,
			"-0.019": 0.0,
			"-0.018": 0.0,
			"-0.017": 0.0,
			"-0.016": 0.0,
			"-0.015": 0.0,
			"-0.014": 0.344260570224,
			"-0.013": 1.60870219838,
			"-0.012": 2.1220209507,
			"-0.011": 2.35778607102,
			"-0.01": 2.47162827878,
			"-0.009": 2.34086220767,
			"-0.008": 1.73457336586,
			"-0.007": 1.96432556194,
			"-0.006": 1.95736754774,
			"-0.005": 2.73923559277,
			"-0.004": 5.13640870038,
			"-0.003": 13.0798700626,
			"-0.002": 32.1128287764,
			"-0.001": 34.516144688,
			"0.0": 34.9124185993,
			"0.001": 29.6407036121,
			"0.002": 12.77613532,
			"0.003": 2.60573332165,
			"0.004": 3.34303800551,
			"0.005": 2.74425103245,
			"0.006": 1.96154035363,
			"0.007": 1.52920819787,
			"0.008": 1.26744028772,
			"0.009": 1.79039805512,
			"0.01": 1.27311263846,
			"0.011": 1.66522951591,
			"0.012": 1.12571491258,
			"0.013": 1.77637633333,
			"0.014": 5.05309387771,
			"0.015": 3.61964348313,
			"0.016": 0.253555484,
			"0.017": 0.0,
			"0.018": 0.0,
			"0.019": 0.0,
			"0.02": 0.0,
			"0.021": 0.0,
			"0.022": 0.0,
			"0.023": 0.0,
			"0.024": 0.0,
			"0.025": 0.0
		}
	}
}
