{
	 "smiles": "CC1C2CC(CC1O)C2(C)C", 
	 "Tm": 325.15, 
	 "num_atms": 29, 
	 "gaussian": { 
		 "optdone": 1, 
		 "sigma_profile": "yes", 
		 "theory": "DFT", 
		 "functional": "B3LYP", 
		 "basiset": "6-31G**", 
		 "properties": { 
			 "R2extent": 1991.6843, 
			 "electric_dipole_moment_norm": 1.49942942815, 
			 "electric_quadrupole_moment_norm": 5.09002813155, 
			 "total_energy": -467.106728096, 
			 "HOMO_LUMO_gap": 0.32416, 
			 "cosmo_polarized_energy": -5.03, 
			 "cosmo_cavitation_energy": 26.62, 
			 "cosmo_dispersion_energy": -19.85, 
			 "cosmo_repulsion_energy": 1.56, 
			 "cosmo_total_nonelectrostatic_energy": 8.34, 
			 "SMD_solvation_energy": 4.16 
		},
		"coords": [
			{
				"x": 1.8956158257,
				"y": 1.7702338638,
				"z": -0.8235639508,
				"element": "C" 
			},
			{
				"x": 1.7907077553,
				"y": 1.1915097315,
				"z": 0.5957236098,
				"element": "C" 
			},
			{
				"x": 0.4502632713,
				"y": 1.5035100198,
				"z": 1.2936649077,
				"element": "C" 
			},
			{
				"x": 0.514049336,
				"y": 0.9206550198,
				"z": 2.7334480639,
				"element": "C" 
			},
			{
				"x": -0.0222171226,
				"y": -0.3942302478,
				"z": 2.1103165817,
				"element": "C" 
			},
			{
				"x": 1.1686411381,
				"y": -1.1874656459,
				"z": 1.5557014024,
				"element": "C" 
			},
			{
				"x": 2.1599713405,
				"y": -0.3345242412,
				"z": 0.6915581425,
				"element": "C" 
			},
			{
				"x": 2.2650057308,
				"y": -0.859157604,
				"z": -0.6388942299,
				"element": "O" 
			},
			{
				"x": -0.7063497169,
				"y": 0.4753889173,
				"z": 0.9992787861,
				"element": "C" 
			},
			{
				"x": -0.893191153,
				"y": -0.1266788141,
				"z": -0.3975365621,
				"element": "C" 
			},
			{
				"x": -2.0678585392,
				"y": 1.0250966592,
				"z": 1.4607600987,
				"element": "C" 
			},
			{
				"x": 1.1637771871,
				"y": 1.3384949572,
				"z": -1.5076747837,
				"element": "H" 
			},
			{
				"x": 2.886102336,
				"y": 1.5917659702,
				"z": -1.2501818854,
				"element": "H" 
			},
			{
				"x": 1.7301932511,
				"y": 2.8528513322,
				"z": -0.7852770907,
				"element": "H" 
			},
			{
				"x": 2.5476295046,
				"y": 1.718423948,
				"z": 1.1938817652,
				"element": "H" 
			},
			{
				"x": 0.2056327264,
				"y": 2.5670901532,
				"z": 1.1826527942,
				"element": "H" 
			},
			{
				"x": -0.1851185969,
				"y": 1.3892375002,
				"z": 3.4279461389,
				"element": "H" 
			},
			{
				"x": 1.5009185475,
				"y": 0.8818853867,
				"z": 3.209369901,
				"element": "H" 
			},
			{
				"x": -0.6700000923,
				"y": -1.0349774938,
				"z": 2.7211538416,
				"element": "H" 
			},
			{
				"x": 0.8111660932,
				"y": -2.0191857301,
				"z": 0.9361491546,
				"element": "H" 
			},
			{
				"x": 1.7105637012,
				"y": -1.6351275388,
				"z": 2.3988732449,
				"element": "H" 
			},
			{
				"x": 3.155055969,
				"y": -0.4005548586,
				"z": 1.1546745109,
				"element": "H" 
			},
			{
				"x": 2.5303090111,
				"y": -1.7845910667,
				"z": -0.5634687335,
				"element": "H" 
			},
			{
				"x": -1.27218207,
				"y": 0.630778782,
				"z": -1.0942469244,
				"element": "H" 
			},
			{
				"x": 0.0214135194,
				"y": -0.5449554028,
				"z": -0.8187211365,
				"element": "H" 
			},
			{
				"x": -1.6439036532,
				"y": -0.9268390884,
				"z": -0.357879493,
				"element": "H" 
			},
			{
				"x": -2.8181428385,
				"y": 0.2254759551,
				"z": 1.4733245342,
				"element": "H" 
			},
			{
				"x": -2.4214480019,
				"y": 1.7967754857,
				"z": 0.7668056742,
				"element": "H" 
			},
			{
				"x": -2.0429044601,
				"y": 1.4687140504,
				"z": 2.4595616374,
				"element": "H" 
			}
		],
		 "valence_orbital": [ 
			{
				"type": "occ",
				"energy": -0.29615,
				"method": "rhf"
			},
			{
				"type": "occ",
				"energy": -0.29103,
				"method": "rhf"
			},
			{
				"type": "occ",
				"energy": -0.2813,
				"method": "rhf"
			},
			{
				"type": "occ",
				"energy": -0.26738,
				"method": "rhf"
			},
			{
				"type": "occ",
				"energy": -0.25244,
				"method": "rhf"
			},
			{
				"type": "unocc",
				"energy": 0.07172,
				"method": "rhf"
			},
			{
				"type": "unocc",
				"energy": 0.08952,
				"method": "rhf"
			},
			{
				"type": "unocc",
				"energy": 0.10149,
				"method": "rhf"
			},
			{
				"type": "unocc",
				"energy": 0.11661,
				"method": "rhf"
			},
			{
				"type": "unocc",
				"energy": 0.1227,
				"method": "rhf"
			}
		],
		"cosmo_sigma_profile": { 
			"-0.025": 0.0,
			"-0.024": 0.0,
			"-0.023": 0.0,
			"-0.022": 0.0,
			"-0.021": 0.0,
			"-0.02": 0.0,
			"-0.019": 0.0,
			"-0.018": 0.0,
			"-0.017": 0.0,
			"-0.016": 0.0,
			"-0.015": 0.601373594805,
			"-0.014": 0.952122477349,
			"-0.013": 0.834518735144,
			"-0.012": 1.27654493072,
			"-0.011": 0.581804718474,
			"-0.01": 0.734594470505,
			"-0.009": 0.632897392585,
			"-0.008": 0.878395596622,
			"-0.007": 0.936761370059,
			"-0.006": 1.30204080492,
			"-0.005": 1.35315575289,
			"-0.004": 1.94512887178,
			"-0.003": 10.1816725751,
			"-0.002": 30.3962923583,
			"-0.001": 32.7848956788,
			"0.0": 34.6313428484,
			"0.001": 35.0555830721,
			"0.002": 25.6681363857,
			"0.003": 8.4580231246,
			"0.004": 1.94362654405,
			"0.005": 1.54026995547,
			"0.006": 1.46149258988,
			"0.007": 1.17401952945,
			"0.008": 1.79377933142,
			"0.009": 1.54931441941,
			"0.01": 1.25790926861,
			"0.011": 1.22414218659,
			"0.012": 1.21093273241,
			"0.013": 1.22973081446,
			"0.014": 0.0323277245523,
			"0.015": 0.0,
			"0.016": 0.0,
			"0.017": 0.0,
			"0.018": 0.0,
			"0.019": 0.0,
			"0.02": 0.0,
			"0.021": 0.0,
			"0.022": 0.0,
			"0.023": 0.0,
			"0.024": 0.0,
			"0.025": 0.0
		}
	}
}
