{
	 "smiles": "OC(=O)C1=C(C=C(Cl)C=C1)[N+]([O-])=O", 
	 "Tm": 417.15, 
	 "num_atms": 17, 
	 "gaussian": { 
		 "optdone": 1, 
		 "sigma_profile": "yes", 
		 "theory": "DFT", 
		 "functional": "B3LYP", 
		 "basiset": "6-31G**", 
		 "properties": { 
			 "R2extent": 2935.2998, 
			 "electric_dipole_moment_norm": 3.92895667958, 
			 "electric_quadrupole_moment_norm": 11.7247113274, 
			 "total_energy": -1084.8920776, 
			 "HOMO_LUMO_gap": 0.1528, 
			 "cosmo_polarized_energy": -12.4, 
			 "cosmo_cavitation_energy": 24.46, 
			 "cosmo_dispersion_energy": -18.41, 
			 "cosmo_repulsion_energy": 1.44, 
			 "cosmo_total_nonelectrostatic_energy": 7.49, 
			 "SMD_solvation_energy": 7.21 
		},
		"coords": [
			{
				"x": 1.7262288113,
				"y": 2.6032488557,
				"z": -0.71634855,
				"element": "O" 
			},
			{
				"x": 0.5298479321,
				"y": 2.2751207924,
				"z": -1.1883762051,
				"element": "C" 
			},
			{
				"x": 0.0298602137,
				"y": 2.8753029131,
				"z": -2.1146393938,
				"element": "O" 
			},
			{
				"x": -0.2715148637,
				"y": 1.1486479715,
				"z": -0.5216829134,
				"element": "C" 
			},
			{
				"x": 0.1375926869,
				"y": 0.0067757781,
				"z": 0.2031544649,
				"element": "C" 
			},
			{
				"x": -0.7693028153,
				"y": -0.9616084552,
				"z": 0.6438405601,
				"element": "C" 
			},
			{
				"x": -2.1258393041,
				"y": -0.789162963,
				"z": 0.4009962823,
				"element": "C" 
			},
			{
				"x": -3.261180044,
				"y": -1.979839169,
				"z": 0.9826758698,
				"element": "Cl" 
			},
			{
				"x": -2.5768019376,
				"y": 0.32240548,
				"z": -0.3099214709,
				"element": "C" 
			},
			{
				"x": -1.6507492229,
				"y": 1.2499565688,
				"z": -0.7704574479,
				"element": "C" 
			},
			{
				"x": 1.536476735,
				"y": -0.3089395757,
				"z": 0.5707144954,
				"element": "N" 
			},
			{
				"x": 1.848659097,
				"y": -1.4864447603,
				"z": 0.6516858745,
				"element": "O" 
			},
			{
				"x": 2.3177325215,
				"y": 0.6188154753,
				"z": 0.8350373026,
				"element": "O" 
			},
			{
				"x": 1.9901269015,
				"y": 2.0051350929,
				"z": 0.0180356339,
				"element": "H" 
			},
			{
				"x": -0.4032967883,
				"y": -1.8325327173,
				"z": 1.17058069,
				"element": "H" 
			},
			{
				"x": -3.6344573537,
				"y": 0.452592184,
				"z": -0.509325822,
				"element": "H" 
			},
			{
				"x": -1.9762825691,
				"y": 2.0951265289,
				"z": -1.3650693704,
				"element": "H" 
			}
		],
		 "valence_orbital": [ 
			{
				"type": "occ",
				"energy": -0.33745,
				"method": "rhf"
			},
			{
				"type": "occ",
				"energy": -0.32096,
				"method": "rhf"
			},
			{
				"type": "occ",
				"energy": -0.30914,
				"method": "rhf"
			},
			{
				"type": "occ",
				"energy": -0.29474,
				"method": "rhf"
			},
			{
				"type": "occ",
				"energy": -0.2821,
				"method": "rhf"
			},
			{
				"type": "unocc",
				"energy": -0.1293,
				"method": "rhf"
			},
			{
				"type": "unocc",
				"energy": -0.07349,
				"method": "rhf"
			},
			{
				"type": "unocc",
				"energy": -0.04604,
				"method": "rhf"
			},
			{
				"type": "unocc",
				"energy": -0.00212,
				"method": "rhf"
			},
			{
				"type": "unocc",
				"energy": 0.02232,
				"method": "rhf"
			}
		],
		"cosmo_sigma_profile": { 
			"-0.025": 0.0,
			"-0.024": 0.0,
			"-0.023": 0.0,
			"-0.022": 0.0,
			"-0.021": 0.0,
			"-0.02": 0.0,
			"-0.019": 0.0,
			"-0.018": 0.0,
			"-0.017": 0.0,
			"-0.016": 0.0,
			"-0.015": 0.0,
			"-0.014": 0.118992506975,
			"-0.013": 0.907891584257,
			"-0.012": 0.417079386319,
			"-0.011": 0.796763561645,
			"-0.01": 1.67952732568,
			"-0.009": 6.34532133785,
			"-0.008": 7.46546349556,
			"-0.007": 8.75052352189,
			"-0.006": 7.37914239929,
			"-0.005": 9.6785668148,
			"-0.004": 9.83913816781,
			"-0.003": 13.8558861065,
			"-0.002": 19.7243096645,
			"-0.001": 17.0707032413,
			"0.0": 11.5937013146,
			"0.001": 9.80833451684,
			"0.002": 10.9391868638,
			"0.003": 13.7637010589,
			"0.004": 6.71759377368,
			"0.005": 7.76544588479,
			"0.006": 8.44725850332,
			"0.007": 4.78779926941,
			"0.008": 5.08153522225,
			"0.009": 3.65074983738,
			"0.01": 4.59392973133,
			"0.011": 5.49299055521,
			"0.012": 2.87127725397,
			"0.013": 0.753897382097,
			"0.014": 0.0,
			"0.015": 0.0,
			"0.016": 0.0,
			"0.017": 0.0,
			"0.018": 0.0,
			"0.019": 0.0,
			"0.02": 0.0,
			"0.021": 0.0,
			"0.022": 0.0,
			"0.023": 0.0,
			"0.024": 0.0,
			"0.025": 0.0
		}
	}
}
