{
	 "smiles": "CC1=CC=C(C(O)=O)C(Cl)=N1", 
	 "Tm": 432.65, 
	 "num_atms": 17, 
	 "gaussian": { 
		 "optdone": 1, 
		 "sigma_profile": "yes", 
		 "theory": "DFT", 
		 "functional": "B3LYP", 
		 "basiset": "6-31G**", 
		 "properties": { 
			 "R2extent": 3753.2204, 
			 "electric_dipole_moment_norm": 6.13170332289, 
			 "electric_quadrupole_moment_norm": 16.547726084, 
			 "total_energy": -935.755897273, 
			 "HOMO_LUMO_gap": 0.20398, 
			 "cosmo_polarized_energy": -17.65, 
			 "cosmo_cavitation_energy": 23.71, 
			 "cosmo_dispersion_energy": -17.56, 
			 "cosmo_repulsion_energy": 1.43, 
			 "cosmo_total_nonelectrostatic_energy": 7.58, 
			 "SMD_solvation_energy": 3.77 
		},
		"coords": [
			{
				"x": -2.2112809066,
				"y": 2.0872267421,
				"z": -0.6774458149,
				"element": "C" 
			},
			{
				"x": -0.8607449334,
				"y": 1.4746365275,
				"z": -0.9329330804,
				"element": "C" 
			},
			{
				"x": -0.3675910353,
				"y": 0.4048879636,
				"z": -0.1800942811,
				"element": "C" 
			},
			{
				"x": 0.8882211371,
				"y": -0.1080028288,
				"z": -0.4904101223,
				"element": "C" 
			},
			{
				"x": 1.6348184166,
				"y": 0.4331060879,
				"z": -1.543823566,
				"element": "C" 
			},
			{
				"x": 2.948292098,
				"y": -0.1906085447,
				"z": -1.9265170088,
				"element": "C" 
			},
			{
				"x": 3.7601644063,
				"y": -0.498132176,
				"z": -0.8757832484,
				"element": "O" 
			},
			{
				"x": 3.2743028748,
				"y": -0.4649533289,
				"z": -3.0514777925,
				"element": "O" 
			},
			{
				"x": 1.0405497052,
				"y": 1.5124764302,
				"z": -2.2289776992,
				"element": "C" 
			},
			{
				"x": 1.8999511177,
				"y": 2.3183244781,
				"z": -3.5276396427,
				"element": "Cl" 
			},
			{
				"x": -0.1421345661,
				"y": 2.0147721141,
				"z": -1.9347092139,
				"element": "N" 
			},
			{
				"x": -2.1068696377,
				"y": 3.1550978214,
				"z": -0.4611280687,
				"element": "H" 
			},
			{
				"x": -2.7233300871,
				"y": 1.6044917916,
				"z": 0.1580732237,
				"element": "H" 
			},
			{
				"x": -2.8377188235,
				"y": 2.0032033945,
				"z": -1.571374955,
				"element": "H" 
			},
			{
				"x": -0.9566171129,
				"y": -0.0194456937,
				"z": 0.6258712525,
				"element": "H" 
			},
			{
				"x": 1.2834653679,
				"y": -0.9537604986,
				"z": 0.0662447436,
				"element": "H" 
			},
			{
				"x": 3.4322219789,
				"y": -0.0763202801,
				"z": -0.0688747261,
				"element": "H" 
			}
		],
		 "valence_orbital": [ 
			{
				"type": "occ",
				"energy": -0.31705,
				"method": "rhf"
			},
			{
				"type": "occ",
				"energy": -0.30749,
				"method": "rhf"
			},
			{
				"type": "occ",
				"energy": -0.28849,
				"method": "rhf"
			},
			{
				"type": "occ",
				"energy": -0.2785,
				"method": "rhf"
			},
			{
				"type": "occ",
				"energy": -0.26696,
				"method": "rhf"
			},
			{
				"type": "unocc",
				"energy": -0.06298,
				"method": "rhf"
			},
			{
				"type": "unocc",
				"energy": -0.04786,
				"method": "rhf"
			},
			{
				"type": "unocc",
				"energy": 0.01609,
				"method": "rhf"
			},
			{
				"type": "unocc",
				"energy": 0.03289,
				"method": "rhf"
			},
			{
				"type": "unocc",
				"energy": 0.0632,
				"method": "rhf"
			}
		],
		"cosmo_sigma_profile": { 
			"-0.025": 0.0,
			"-0.024": 0.0,
			"-0.023": 0.0,
			"-0.022": 0.0,
			"-0.021": 0.0,
			"-0.02": 0.00627524393511,
			"-0.019": 0.600066557451,
			"-0.018": 1.18891884122,
			"-0.017": 0.764292363569,
			"-0.016": 0.964289079847,
			"-0.015": 1.11427688287,
			"-0.014": 1.00734405956,
			"-0.013": 1.28656522991,
			"-0.012": 0.939419231218,
			"-0.011": 0.864089437274,
			"-0.01": 1.52537997802,
			"-0.009": 3.12231034924,
			"-0.008": 4.84564031256,
			"-0.007": 7.58305578942,
			"-0.006": 6.53233376319,
			"-0.005": 9.62176162558,
			"-0.004": 8.26980025071,
			"-0.003": 11.3261869032,
			"-0.002": 17.4243963796,
			"-0.001": 21.3833182215,
			"0.0": 12.2312676543,
			"0.001": 9.32347763239,
			"0.002": 7.65631059145,
			"0.003": 7.77078787651,
			"0.004": 9.89032782321,
			"0.005": 6.03421677735,
			"0.006": 4.49557763869,
			"0.007": 5.25642834911,
			"0.008": 4.62471107656,
			"0.009": 5.95573483536,
			"0.01": 6.78976898821,
			"0.011": 6.76194375151,
			"0.012": 3.50731818506,
			"0.013": 1.00460240254,
			"0.014": 0.26688807192,
			"0.015": 0.0,
			"0.016": 0.0,
			"0.017": 0.0,
			"0.018": 0.0,
			"0.019": 0.0,
			"0.02": 0.0,
			"0.021": 0.0,
			"0.022": 0.0,
			"0.023": 0.0,
			"0.024": 0.0,
			"0.025": 0.0
		}
	}
}
