{
	 "smiles": "CS(=O)(=O)OS(C)(=O)=O", 
	 "Tm": 342.65, 
	 "num_atms": 15, 
	 "gaussian": { 
		 "optdone": 1, 
		 "sigma_profile": "yes", 
		 "theory": "DFT", 
		 "functional": "B3LYP", 
		 "basiset": "6-31G**", 
		 "properties": { 
			 "R2extent": 3503.6721, 
			 "electric_dipole_moment_norm": 5.38634367544, 
			 "electric_quadrupole_moment_norm": 23.80682963, 
			 "total_energy": -1252.18459822, 
			 "HOMO_LUMO_gap": 0.2963, 
			 "cosmo_polarized_energy": -18.54, 
			 "cosmo_cavitation_energy": 22.02, 
			 "cosmo_dispersion_energy": -17.28, 
			 "cosmo_repulsion_energy": 1.33, 
			 "cosmo_total_nonelectrostatic_energy": 6.06, 
			 "SMD_solvation_energy": 3.02 
		},
		"coords": [
			{
				"x": 2.6866914258,
				"y": -2.0992748605,
				"z": 0.039042414,
				"element": "C" 
			},
			{
				"x": 2.0128646815,
				"y": -2.2637847144,
				"z": 1.6944532984,
				"element": "S" 
			},
			{
				"x": 2.7488017294,
				"y": -1.4213817819,
				"z": 2.6198208375,
				"element": "O" 
			},
			{
				"x": 1.7158310754,
				"y": -3.6584776166,
				"z": 1.9710187181,
				"element": "O" 
			},
			{
				"x": 0.5449961052,
				"y": -1.4161085811,
				"z": 1.5058594,
				"element": "O" 
			},
			{
				"x": -0.8236849122,
				"y": -2.121138163,
				"z": 0.8017469792,
				"element": "S" 
			},
			{
				"x": -1.7108872884,
				"y": -0.5722766076,
				"z": 0.615114997,
				"element": "C" 
			},
			{
				"x": -0.4329328333,
				"y": -2.6385698719,
				"z": -0.5076565761,
				"element": "O" 
			},
			{
				"x": -1.4989780203,
				"y": -2.9601114204,
				"z": 1.77560755,
				"element": "O" 
			},
			{
				"x": 3.64487103,
				"y": -2.6220277894,
				"z": 0.0421654683,
				"element": "H" 
			},
			{
				"x": 2.8255657852,
				"y": -1.0386538167,
				"z": -0.1700068638,
				"element": "H" 
			},
			{
				"x": 1.9848538705,
				"y": -2.5599393925,
				"z": -0.6564737357,
				"element": "H" 
			},
			{
				"x": -1.1424240595,
				"y": 0.0830293512,
				"z": -0.0437465057,
				"element": "H" 
			},
			{
				"x": -1.8437544294,
				"y": -0.1303704159,
				"z": 1.6023511787,
				"element": "H" 
			},
			{
				"x": -2.6760141598,
				"y": -0.8273143193,
				"z": 0.1733028401,
				"element": "H" 
			}
		],
		 "valence_orbital": [ 
			{
				"type": "occ",
				"energy": -0.34366,
				"method": "rhf"
			},
			{
				"type": "occ",
				"energy": -0.33956,
				"method": "rhf"
			},
			{
				"type": "occ",
				"energy": -0.33478,
				"method": "rhf"
			},
			{
				"type": "occ",
				"energy": -0.32625,
				"method": "rhf"
			},
			{
				"type": "occ",
				"energy": -0.32258,
				"method": "rhf"
			},
			{
				"type": "unocc",
				"energy": -0.02628,
				"method": "rhf"
			},
			{
				"type": "unocc",
				"energy": 0.02584,
				"method": "rhf"
			},
			{
				"type": "unocc",
				"energy": 0.04221,
				"method": "rhf"
			},
			{
				"type": "unocc",
				"energy": 0.04926,
				"method": "rhf"
			},
			{
				"type": "unocc",
				"energy": 0.07204,
				"method": "rhf"
			}
		],
		"cosmo_sigma_profile": { 
			"-0.025": 0.0,
			"-0.024": 0.0,
			"-0.023": 0.0,
			"-0.022": 0.0,
			"-0.021": 0.0,
			"-0.02": 0.0,
			"-0.019": 0.0,
			"-0.018": 0.0,
			"-0.017": 0.0,
			"-0.016": 0.0,
			"-0.015": 0.0,
			"-0.014": 0.0,
			"-0.013": 0.0,
			"-0.012": 0.814644212226,
			"-0.011": 3.48728493056,
			"-0.01": 8.57702925281,
			"-0.009": 8.97907366325,
			"-0.008": 9.78696802005,
			"-0.007": 9.75766342339,
			"-0.006": 12.4560033449,
			"-0.005": 12.1521623619,
			"-0.004": 7.58884516539,
			"-0.003": 3.66365808993,
			"-0.002": 4.63663074806,
			"-0.001": 5.3150480873,
			"0.0": 4.61555887239,
			"0.001": 4.90227911802,
			"0.002": 3.87768136364,
			"0.003": 4.95752592377,
			"0.004": 5.52341118071,
			"0.005": 7.6093806257,
			"0.006": 7.55942218148,
			"0.007": 7.41634720335,
			"0.008": 15.744506776,
			"0.009": 22.1507877315,
			"0.01": 4.00993740469,
			"0.011": 0.0,
			"0.012": 0.0,
			"0.013": 0.0,
			"0.014": 0.0,
			"0.015": 0.0,
			"0.016": 0.0,
			"0.017": 0.0,
			"0.018": 0.0,
			"0.019": 0.0,
			"0.02": 0.0,
			"0.021": 0.0,
			"0.022": 0.0,
			"0.023": 0.0,
			"0.024": 0.0,
			"0.025": 0.0
		}
	}
}
