{
	 "smiles": "CCOC(=O)[C@]12C[C@@H](C3=CC=CC=C3)C3=CC=CC=C3[C@H]1C1=CC=CC=C1OC2=O", 
	 "Tm": 435.0, 
	 "num_atms": 52, 
	 "gaussian": { 
		 "optdone": 1, 
		 "sigma_profile": "yes", 
		 "theory": "DFT", 
		 "functional": "B3LYP", 
		 "basiset": "6-31G**", 
		 "properties": { 
			 "R2extent": 10239.7794, 
			 "electric_dipole_moment_norm": 3.09118566411, 
			 "electric_quadrupole_moment_norm": 16.0654745202, 
			 "total_energy": -1304.94129623, 
			 "HOMO_LUMO_gap": 0.20518, 
			 "cosmo_polarized_energy": -14.99, 
			 "cosmo_cavitation_energy": 52.12, 
			 "cosmo_dispersion_energy": -34.0, 
			 "cosmo_repulsion_energy": 2.57, 
			 "cosmo_total_nonelectrostatic_energy": 20.68, 
			 "SMD_solvation_energy": 10.02 
		},
		"coords": [
			{
				"x": -3.8748095781,
				"y": -3.8053787921,
				"z": -1.3829117962,
				"element": "C" 
			},
			{
				"x": -3.3553703725,
				"y": -3.0604403834,
				"z": -0.1691908819,
				"element": "C" 
			},
			{
				"x": -2.4385817297,
				"y": -2.0430940481,
				"z": -0.6464419659,
				"element": "O" 
			},
			{
				"x": -1.90109431,
				"y": -1.2528555624,
				"z": 0.2877440126,
				"element": "C" 
			},
			{
				"x": -2.0914633757,
				"y": -1.3887688998,
				"z": 1.4788804422,
				"element": "O" 
			},
			{
				"x": -1.038572233,
				"y": -0.1070564859,
				"z": -0.3169363639,
				"element": "C" 
			},
			{
				"x": -0.5122970505,
				"y": -0.5062448993,
				"z": -1.7329110837,
				"element": "C" 
			},
			{
				"x": 0.8583550043,
				"y": 0.1049848241,
				"z": -2.0962456316,
				"element": "C" 
			},
			{
				"x": 0.8651535064,
				"y": 1.6201909879,
				"z": -2.3407177868,
				"element": "C" 
			},
			{
				"x": -0.1978336228,
				"y": 2.2405303828,
				"z": -3.0156275998,
				"element": "C" 
			},
			{
				"x": -0.1649340243,
				"y": 3.6045397753,
				"z": -3.3095156933,
				"element": "C" 
			},
			{
				"x": 0.9370050535,
				"y": 4.3771762943,
				"z": -2.941944904,
				"element": "C" 
			},
			{
				"x": 2.0043996874,
				"y": 3.7715999439,
				"z": -2.2785074622,
				"element": "C" 
			},
			{
				"x": 1.9679243223,
				"y": 2.4084143345,
				"z": -1.9831310885,
				"element": "C" 
			},
			{
				"x": 1.8381479563,
				"y": -0.3972594731,
				"z": -1.049253597,
				"element": "C" 
			},
			{
				"x": 3.0786069404,
				"y": -0.9388831922,
				"z": -1.4004149027,
				"element": "C" 
			},
			{
				"x": 3.9128775606,
				"y": -1.5084685835,
				"z": -0.4366992586,
				"element": "C" 
			},
			{
				"x": 3.4943057898,
				"y": -1.565468749,
				"z": 0.8925610771,
				"element": "C" 
			},
			{
				"x": 2.253425144,
				"y": -1.0347363581,
				"z": 1.2502907758,
				"element": "C" 
			},
			{
				"x": 1.4267430947,
				"y": -0.4321231637,
				"z": 0.2953607016,
				"element": "C" 
			},
			{
				"x": 0.1083383774,
				"y": 0.2057329508,
				"z": 0.708663463,
				"element": "C" 
			},
			{
				"x": 0.2661053346,
				"y": 1.6910766073,
				"z": 1.0238502267,
				"element": "C" 
			},
			{
				"x": 1.3962376749,
				"y": 2.2001204124,
				"z": 1.6789073282,
				"element": "C" 
			},
			{
				"x": 1.4814625939,
				"y": 3.5401080706,
				"z": 2.0517807016,
				"element": "C" 
			},
			{
				"x": 0.4256725419,
				"y": 4.4111756497,
				"z": 1.7737682656,
				"element": "C" 
			},
			{
				"x": -0.7064031194,
				"y": 3.9319356648,
				"z": 1.1225843066,
				"element": "C" 
			},
			{
				"x": -0.7681119025,
				"y": 2.5863508879,
				"z": 0.7634093698,
				"element": "C" 
			},
			{
				"x": -1.9402190082,
				"y": 2.2044273438,
				"z": 0.1254806964,
				"element": "O" 
			},
			{
				"x": -2.0928505221,
				"y": 1.0147073812,
				"z": -0.4990706791,
				"element": "C" 
			},
			{
				"x": -3.0828485843,
				"y": 0.8426500517,
				"z": -1.1692350913,
				"element": "O" 
			},
			{
				"x": -4.5777973056,
				"y": -4.5819247868,
				"z": -1.0658145015,
				"element": "H" 
			},
			{
				"x": -3.0572622065,
				"y": -4.284654297,
				"z": -1.9292476988,
				"element": "H" 
			},
			{
				"x": -4.39446237,
				"y": -3.1251333906,
				"z": -2.0630825103,
				"element": "H" 
			},
			{
				"x": -2.8200607005,
				"y": -3.715800711,
				"z": 0.5246156246,
				"element": "H" 
			},
			{
				"x": -4.1567413208,
				"y": -2.5671455759,
				"z": 0.3885203632,
				"element": "H" 
			},
			{
				"x": -1.2825285565,
				"y": -0.2799244553,
				"z": -2.4708163248,
				"element": "H" 
			},
			{
				"x": -0.3851595814,
				"y": -1.5901267683,
				"z": -1.7558631942,
				"element": "H" 
			},
			{
				"x": 1.1462869685,
				"y": -0.3579031629,
				"z": -3.0512052291,
				"element": "H" 
			},
			{
				"x": -1.0667398412,
				"y": 1.6637295083,
				"z": -3.3165267264,
				"element": "H" 
			},
			{
				"x": -1.0047820423,
				"y": 4.0607852106,
				"z": -3.8258718342,
				"element": "H" 
			},
			{
				"x": 0.9627318083,
				"y": 5.4390576564,
				"z": -3.1691887549,
				"element": "H" 
			},
			{
				"x": 2.8686544964,
				"y": 4.3605762558,
				"z": -1.9843000981,
				"element": "H" 
			},
			{
				"x": 2.8034687515,
				"y": 1.9530768021,
				"z": -1.4619080961,
				"element": "H" 
			},
			{
				"x": 3.3869810666,
				"y": -0.924619846,
				"z": -2.443200962,
				"element": "H" 
			},
			{
				"x": 4.8738800368,
				"y": -1.9231305442,
				"z": -0.7270963656,
				"element": "H" 
			},
			{
				"x": 4.1242884267,
				"y": -2.0277605809,
				"z": 1.6469409291,
				"element": "H" 
			},
			{
				"x": 1.91941933,
				"y": -1.0897845161,
				"z": 2.2836308411,
				"element": "H" 
			},
			{
				"x": -0.2062710739,
				"y": -0.258422698,
				"z": 1.6496131604,
				"element": "H" 
			},
			{
				"x": 2.2236385154,
				"y": 1.5323974361,
				"z": 1.893815953,
				"element": "H" 
			},
			{
				"x": 2.3711901813,
				"y": 3.9020408037,
				"z": 2.5581077036,
				"element": "H" 
			},
			{
				"x": 0.4830545313,
				"y": 5.4572430028,
				"z": 2.058799164,
				"element": "H" 
			},
			{
				"x": -1.5461602632,
				"y": 4.5740816848,
				"z": 0.8799529764,
				"element": "H" 
			}
		],
		 "valence_orbital": [ 
			{
				"type": "occ",
				"energy": -0.25243,
				"method": "rhf"
			},
			{
				"type": "occ",
				"energy": -0.24478,
				"method": "rhf"
			},
			{
				"type": "occ",
				"energy": -0.24416,
				"method": "rhf"
			},
			{
				"type": "occ",
				"energy": -0.23823,
				"method": "rhf"
			},
			{
				"type": "occ",
				"energy": -0.23037,
				"method": "rhf"
			},
			{
				"type": "unocc",
				"energy": -0.02519,
				"method": "rhf"
			},
			{
				"type": "unocc",
				"energy": -0.01428,
				"method": "rhf"
			},
			{
				"type": "unocc",
				"energy": -0.00982,
				"method": "rhf"
			},
			{
				"type": "unocc",
				"energy": -0.00774,
				"method": "rhf"
			},
			{
				"type": "unocc",
				"energy": 0.00371,
				"method": "rhf"
			}
		],
		"cosmo_sigma_profile": { 
			"-0.025": 0.0,
			"-0.024": 0.0,
			"-0.023": 0.0,
			"-0.022": 0.0,
			"-0.021": 0.0,
			"-0.02": 0.0,
			"-0.019": 0.0,
			"-0.018": 0.0,
			"-0.017": 0.0,
			"-0.016": 0.0,
			"-0.015": 0.0,
			"-0.014": 0.0,
			"-0.013": 0.0546470787517,
			"-0.012": 0.0193920142483,
			"-0.011": 0.0,
			"-0.01": 0.0347212778488,
			"-0.009": 0.0874553539229,
			"-0.008": 0.0141514758327,
			"-0.007": 1.69977971798,
			"-0.006": 18.06114318,
			"-0.005": 36.7296185091,
			"-0.004": 48.0113975361,
			"-0.003": 45.3236029793,
			"-0.002": 33.5201852971,
			"-0.001": 30.7919281923,
			"0.0": 29.3129494979,
			"0.001": 25.488022102,
			"0.002": 24.3641399768,
			"0.003": 25.135398275,
			"0.004": 26.2194387477,
			"0.005": 23.1683528108,
			"0.006": 14.8792426094,
			"0.007": 5.1951734439,
			"0.008": 4.83410914028,
			"0.009": 4.08491229821,
			"0.01": 5.43695008712,
			"0.011": 9.2203989247,
			"0.012": 2.52166383795,
			"0.013": 0.0643339408371,
			"0.014": 0.0,
			"0.015": 0.0,
			"0.016": 0.0,
			"0.017": 0.0,
			"0.018": 0.0,
			"0.019": 0.0,
			"0.02": 0.0,
			"0.021": 0.0,
			"0.022": 0.0,
			"0.023": 0.0,
			"0.024": 0.0,
			"0.025": 0.0
		}
	}
}
