{
	 "smiles": "NS(=O)(=O)C1=CC2=C(OCC(C2)C(O)=O)C=C1", 
	 "Tm": 487.15, 
	 "num_atms": 28, 
	 "gaussian": { 
		 "optdone": 1, 
		 "sigma_profile": "yes", 
		 "theory": "DFT", 
		 "functional": "B3LYP", 
		 "basiset": "6-31G**", 
		 "properties": { 
			 "R2extent": 5329.6884, 
			 "electric_dipole_moment_norm": 7.58881069799, 
			 "electric_quadrupole_moment_norm": 22.3451231818, 
			 "total_energy": -1216.69593646, 
			 "HOMO_LUMO_gap": 0.20987, 
			 "cosmo_polarized_energy": -26.25, 
			 "cosmo_cavitation_energy": 33.28, 
			 "cosmo_dispersion_energy": -24.56, 
			 "cosmo_repulsion_energy": 1.87, 
			 "cosmo_total_nonelectrostatic_energy": 10.6, 
			 "SMD_solvation_energy": 6.29 
		},
		"coords": [
			{
				"x": -1.336953185,
				"y": -2.2980017566,
				"z": 3.2777910628,
				"element": "N" 
			},
			{
				"x": -0.9161024665,
				"y": -2.9277595326,
				"z": 1.7718260336,
				"element": "S" 
			},
			{
				"x": 0.3811741161,
				"y": -3.5735549101,
				"z": 1.9697088896,
				"element": "O" 
			},
			{
				"x": -2.1013589626,
				"y": -3.6470073263,
				"z": 1.306651139,
				"element": "O" 
			},
			{
				"x": -0.6642710257,
				"y": -1.5344753801,
				"z": 0.6720464022,
				"element": "C" 
			},
			{
				"x": 0.6051598251,
				"y": -0.9688951106,
				"z": 0.5614588104,
				"element": "C" 
			},
			{
				"x": 0.825608353,
				"y": 0.1371215555,
				"z": -0.262748429,
				"element": "C" 
			},
			{
				"x": -0.2682082886,
				"y": 0.6577094672,
				"z": -0.9766759937,
				"element": "C" 
			},
			{
				"x": -0.1646156328,
				"y": 1.7484256328,
				"z": -1.7944718538,
				"element": "O" 
			},
			{
				"x": 1.1533139122,
				"y": 2.126692719,
				"z": -2.1981394212,
				"element": "C" 
			},
			{
				"x": 2.1205127786,
				"y": 2.1645674731,
				"z": -1.0078842752,
				"element": "C" 
			},
			{
				"x": 2.1990826656,
				"y": 0.767950506,
				"z": -0.378012748,
				"element": "C" 
			},
			{
				"x": 1.7079143674,
				"y": 3.2222595775,
				"z": 0.0101426033,
				"element": "C" 
			},
			{
				"x": 1.6022055966,
				"y": 4.4440042026,
				"z": -0.5634607896,
				"element": "O" 
			},
			{
				"x": 1.5160218484,
				"y": 3.0329521521,
				"z": 1.1896457139,
				"element": "O" 
			},
			{
				"x": -1.5442072302,
				"y": 0.0881108509,
				"z": -0.8665636248,
				"element": "C" 
			},
			{
				"x": -1.7469478234,
				"y": -1.0109796304,
				"z": -0.0438331247,
				"element": "C" 
			},
			{
				"x": -2.2224662677,
				"y": -1.8014917394,
				"z": 3.2548198701,
				"element": "H" 
			},
			{
				"x": -0.5904156096,
				"y": -1.7445497713,
				"z": 3.6873360588,
				"element": "H" 
			},
			{
				"x": 1.4324968122,
				"y": -1.4036639482,
				"z": 1.1147387532,
				"element": "H" 
			},
			{
				"x": 1.047027083,
				"y": 3.1067126262,
				"z": -2.6636200294,
				"element": "H" 
			},
			{
				"x": 1.5252967212,
				"y": 1.4130429949,
				"z": -2.9457051509,
				"element": "H" 
			},
			{
				"x": 3.1030945582,
				"y": 2.4692695712,
				"z": -1.3899488117,
				"element": "H" 
			},
			{
				"x": 2.6597499686,
				"y": 0.8304887692,
				"z": 0.611396532,
				"element": "H" 
			},
			{
				"x": 2.8480347347,
				"y": 0.136838966,
				"z": -0.9979346773,
				"element": "H" 
			},
			{
				"x": 1.3398987251,
				"y": 5.057921547,
				"z": 0.1430257211,
				"element": "H" 
			},
			{
				"x": -2.3545362834,
				"y": 0.5187157659,
				"z": -1.4451366959,
				"element": "H" 
			},
			{
				"x": -2.7222092906,
				"y": -1.4802052715,
				"z": 0.0278480352,
				"element": "H" 
			}
		],
		 "valence_orbital": [ 
			{
				"type": "occ",
				"energy": -0.29714,
				"method": "rhf"
			},
			{
				"type": "occ",
				"energy": -0.29629,
				"method": "rhf"
			},
			{
				"type": "occ",
				"energy": -0.29273,
				"method": "rhf"
			},
			{
				"type": "occ",
				"energy": -0.26532,
				"method": "rhf"
			},
			{
				"type": "occ",
				"energy": -0.23823,
				"method": "rhf"
			},
			{
				"type": "unocc",
				"energy": -0.02836,
				"method": "rhf"
			},
			{
				"type": "unocc",
				"energy": -0.02466,
				"method": "rhf"
			},
			{
				"type": "unocc",
				"energy": -0.0089,
				"method": "rhf"
			},
			{
				"type": "unocc",
				"energy": 0.05702,
				"method": "rhf"
			},
			{
				"type": "unocc",
				"energy": 0.0606,
				"method": "rhf"
			}
		],
		"cosmo_sigma_profile": { 
			"-0.025": 0.0,
			"-0.024": 0.0,
			"-0.023": 0.0,
			"-0.022": 0.0,
			"-0.021": 0.0,
			"-0.02": 0.0,
			"-0.019": 0.0797114696178,
			"-0.018": 0.97278065225,
			"-0.017": 0.706511371749,
			"-0.016": 1.2529305931,
			"-0.015": 2.48506445995,
			"-0.014": 3.39672085244,
			"-0.013": 3.69069617709,
			"-0.012": 3.10443575695,
			"-0.011": 3.32461075547,
			"-0.01": 3.24534450737,
			"-0.009": 2.17149248994,
			"-0.008": 5.70089053785,
			"-0.007": 12.7046091205,
			"-0.006": 19.5714901363,
			"-0.005": 18.6524560972,
			"-0.004": 13.9038424412,
			"-0.003": 12.8901554504,
			"-0.002": 10.9681089087,
			"-0.001": 8.14928645217,
			"0.0": 10.1173616012,
			"0.001": 12.1094304956,
			"0.002": 17.0960917915,
			"0.003": 15.5812179735,
			"0.004": 9.25086188448,
			"0.005": 7.91323971256,
			"0.006": 7.21095891061,
			"0.007": 7.67065928886,
			"0.008": 6.82515384321,
			"0.009": 9.31439193974,
			"0.01": 9.28792689178,
			"0.011": 15.0751242096,
			"0.012": 8.69568059116,
			"0.013": 0.46059228507,
			"0.014": 0.00842805678547,
			"0.015": 0.0,
			"0.016": 0.0,
			"0.017": 0.0,
			"0.018": 0.0,
			"0.019": 0.0,
			"0.02": 0.0,
			"0.021": 0.0,
			"0.022": 0.0,
			"0.023": 0.0,
			"0.024": 0.0,
			"0.025": 0.0
		}
	}
}
