{
	 "smiles": "COC(=O)C1=CC(=C(Br)C=C1)S(Cl)(=O)=O", 
	 "Tm": 376.15, 
	 "num_atms": 21, 
	 "gaussian": { 
		 "optdone": 1, 
		 "sigma_profile": "yes", 
		 "theory": "DFT", 
		 "functional": "B3LYP", 
		 "basiset": "6-31G**", 
		 "properties": { 
			 "R2extent": 6746.5034, 
			 "electric_dipole_moment_norm": 6.68525338488, 
			 "electric_quadrupole_moment_norm": 8.21995844272, 
			 "total_energy": -4039.07001214, 
			 "HOMO_LUMO_gap": 0.1868, 
			 "cosmo_polarized_energy": -12.33, 
			 "cosmo_cavitation_energy": 31.81, 
			 "cosmo_dispersion_energy": -23.84, 
			 "cosmo_repulsion_energy": 1.81, 
			 "cosmo_total_nonelectrostatic_energy": 9.79, 
			 "SMD_solvation_energy": 4.85 
		},
		"coords": [
			{
				"x": -2.2452801155,
				"y": 3.4694558088,
				"z": 2.0990207768,
				"element": "C" 
			},
			{
				"x": -1.8259999483,
				"y": 2.6100843279,
				"z": 1.0229259975,
				"element": "O" 
			},
			{
				"x": -1.436915722,
				"y": 1.3739625999,
				"z": 1.3926880246,
				"element": "C" 
			},
			{
				"x": -1.4284227329,
				"y": 0.9816343265,
				"z": 2.5415783444,
				"element": "O" 
			},
			{
				"x": -1.0172261526,
				"y": 0.543017967,
				"z": 0.2240705798,
				"element": "C" 
			},
			{
				"x": -0.591954333,
				"y": -0.7632481046,
				"z": 0.4863012671,
				"element": "C" 
			},
			{
				"x": -0.1879340613,
				"y": -1.5899996368,
				"z": -0.5565384568,
				"element": "C" 
			},
			{
				"x": -0.2056087057,
				"y": -1.1145588348,
				"z": -1.8811682651,
				"element": "C" 
			},
			{
				"x": 0.3258881737,
				"y": -2.1673489892,
				"z": -3.3662771214,
				"element": "Br" 
			},
			{
				"x": -0.6313729707,
				"y": 0.1906722307,
				"z": -2.134529267,
				"element": "C" 
			},
			{
				"x": -1.0354057216,
				"y": 1.0171439124,
				"z": -1.0906132949,
				"element": "C" 
			},
			{
				"x": 0.3717410824,
				"y": -3.2941498919,
				"z": -0.2591122862,
				"element": "S" 
			},
			{
				"x": 0.2046192411,
				"y": -3.4903633345,
				"z": 1.8570755357,
				"element": "Cl" 
			},
			{
				"x": -0.6008043347,
				"y": -4.2187881221,
				"z": -0.8223120779,
				"element": "O" 
			},
			{
				"x": 1.7935152596,
				"y": -3.3859847369,
				"z": -0.5559547477,
				"element": "O" 
			},
			{
				"x": -2.5213762019,
				"y": 4.4127604586,
				"z": 1.6291213857,
				"element": "H" 
			},
			{
				"x": -1.4288345049,
				"y": 3.616145901,
				"z": 2.8098509732,
				"element": "H" 
			},
			{
				"x": -3.099103092,
				"y": 3.0344646547,
				"z": 2.6235650098,
				"element": "H" 
			},
			{
				"x": -0.5875920792,
				"y": -1.1050462698,
				"z": 1.5131222057,
				"element": "H" 
			},
			{
				"x": -0.6422313848,
				"y": 0.5496596357,
				"z": -3.1569519348,
				"element": "H" 
			},
			{
				"x": -1.3647016958,
				"y": 2.0290860975,
				"z": -1.2947626486,
				"element": "H" 
			}
		],
		 "valence_orbital": [ 
			{
				"type": "occ",
				"energy": -0.31797,
				"method": "rhf"
			},
			{
				"type": "occ",
				"energy": -0.30883,
				"method": "rhf"
			},
			{
				"type": "occ",
				"energy": -0.30084,
				"method": "rhf"
			},
			{
				"type": "occ",
				"energy": -0.2975,
				"method": "rhf"
			},
			{
				"type": "occ",
				"energy": -0.27693,
				"method": "rhf"
			},
			{
				"type": "unocc",
				"energy": -0.09013,
				"method": "rhf"
			},
			{
				"type": "unocc",
				"energy": -0.08354,
				"method": "rhf"
			},
			{
				"type": "unocc",
				"energy": -0.05912,
				"method": "rhf"
			},
			{
				"type": "unocc",
				"energy": -0.02549,
				"method": "rhf"
			},
			{
				"type": "unocc",
				"energy": 0.01521,
				"method": "rhf"
			}
		],
		"cosmo_sigma_profile": { 
			"-0.025": 0.0,
			"-0.024": 0.0,
			"-0.023": 0.0,
			"-0.022": 0.0,
			"-0.021": 0.0,
			"-0.02": 0.0,
			"-0.019": 0.0,
			"-0.018": 0.0,
			"-0.017": 0.0,
			"-0.016": 0.0,
			"-0.015": 0.0,
			"-0.014": 0.0,
			"-0.013": 0.0,
			"-0.012": 0.0,
			"-0.011": 0.0,
			"-0.01": 0.0679001233862,
			"-0.009": 2.41834875115,
			"-0.008": 4.17337395921,
			"-0.007": 6.88520495216,
			"-0.006": 11.6441153039,
			"-0.005": 14.9556034476,
			"-0.004": 21.1776382531,
			"-0.003": 21.2990309398,
			"-0.002": 31.2984781802,
			"-0.001": 24.1293174829,
			"0.0": 17.7710140019,
			"0.001": 16.1540974003,
			"0.002": 19.7628433821,
			"0.003": 15.792297761,
			"0.004": 8.93966715145,
			"0.005": 6.43373726254,
			"0.006": 4.92103662283,
			"0.007": 10.9825860658,
			"0.008": 12.5490069887,
			"0.009": 2.90449443657,
			"0.01": 2.16491014161,
			"0.011": 4.32490364609,
			"0.012": 0.768188072746,
			"0.013": 0.0,
			"0.014": 0.0,
			"0.015": 0.0,
			"0.016": 0.0,
			"0.017": 0.0,
			"0.018": 0.0,
			"0.019": 0.0,
			"0.02": 0.0,
			"0.021": 0.0,
			"0.022": 0.0,
			"0.023": 0.0,
			"0.024": 0.0,
			"0.025": 0.0
		}
	}
}
