{
	 "smiles": "OC(=O)C=C/C(=O)NC1=CC=C(I)C=C1", 
	 "Tm": 466.65, 
	 "num_atms": 23, 
	 "gaussian": { 
		 "optdone": 1, 
		 "sigma_profile": "no", 
		 "theory": "DFT", 
		 "functional": "B3LYP", 
		 "basiset": "6-31G**", 
		 "properties": { 
			 "R2extent": 4042.1033, 
			 "electric_dipole_moment_norm": 4.30862199549, 
			 "electric_quadrupole_moment_norm": 24.0297762099, 
			 "total_energy": -677.679804034, 
			 "HOMO_LUMO_gap": 0.16976, 
			 "cosmo_polarized_energy": -102709.18, 
			 "cosmo_cavitation_energy": 31.57, 
			 "cosmo_dispersion_energy": -23.45, 
			 "cosmo_repulsion_energy": 1.84, 
			 "cosmo_total_nonelectrostatic_energy": 9.96, 
			 "SMD_solvation_energy": 6.7 
		},
		"coords": [
			{
				"x": 2.9171925193,
				"y": -0.9162304535,
				"z": -2.1736767432,
				"element": "O" 
			},
			{
				"x": 3.3325004353,
				"y": -1.1787023816,
				"z": -0.9186461911,
				"element": "C" 
			},
			{
				"x": 4.4862920688,
				"y": -0.9928631572,
				"z": -0.6009129016,
				"element": "O" 
			},
			{
				"x": 2.3756835739,
				"y": -1.7421116348,
				"z": 0.0930393267,
				"element": "C" 
			},
			{
				"x": 1.0761352329,
				"y": -2.0749635029,
				"z": 0.0215781144,
				"element": "C" 
			},
			{
				"x": 0.1552623696,
				"y": -2.053120689,
				"z": -1.159119354,
				"element": "C" 
			},
			{
				"x": -0.4399189043,
				"y": -3.0579575135,
				"z": -1.5048172624,
				"element": "O" 
			},
			{
				"x": 0.0664505574,
				"y": -0.8648738222,
				"z": -1.8965085602,
				"element": "N" 
			},
			{
				"x": 0.0471043949,
				"y": 0.4514941366,
				"z": -1.3124811518,
				"element": "C" 
			},
			{
				"x": 0.6729401749,
				"y": 1.502236863,
				"z": -1.9888699461,
				"element": "C" 
			},
			{
				"x": 0.636412475,
				"y": 2.7950817326,
				"z": -1.467405864,
				"element": "C" 
			},
			{
				"x": -0.0161232517,
				"y": 3.0295525175,
				"z": -0.2551678974,
				"element": "C" 
			},
			{
				"x": -0.0633127416,
				"y": 4.9867936819,
				"z": 0.5488774047,
				"element": "I" 
			},
			{
				"x": -0.6396509478,
				"y": 1.9856378441,
				"z": 0.4315239499,
				"element": "C" 
			},
			{
				"x": -0.6168057591,
				"y": 0.6994015889,
				"z": -0.1067307666,
				"element": "C" 
			},
			{
				"x": 1.9514243492,
				"y": -1.0224028973,
				"z": -2.2685113166,
				"element": "H" 
			},
			{
				"x": 2.8949887623,
				"y": -1.9363678112,
				"z": 1.0268580216,
				"element": "H" 
			},
			{
				"x": 0.6322422074,
				"y": -2.565471829,
				"z": 0.884560827,
				"element": "H" 
			},
			{
				"x": -0.543640082,
				"y": -0.9897166098,
				"z": -2.7013559422,
				"element": "H" 
			},
			{
				"x": 1.2048419554,
				"y": 1.3085514169,
				"z": -2.9147885593,
				"element": "H" 
			},
			{
				"x": 1.1254460063,
				"y": 3.6039193898,
				"z": -1.9978164825,
				"element": "H" 
			},
			{
				"x": -1.1525227009,
				"y": 2.1690184384,
				"z": 1.3687047462,
				"element": "H" 
			},
			{
				"x": -1.1275426951,
				"y": -0.1070053079,
				"z": 0.4102665484,
				"element": "H" 
			}
		],
		 "valence_orbital": [ 
			{
				"type": "occ",
				"energy": -0.28746,
				"method": "rhf"
			},
			{
				"type": "occ",
				"energy": -0.28492,
				"method": "rhf"
			},
			{
				"type": "occ",
				"energy": -0.28148,
				"method": "rhf"
			},
			{
				"type": "occ",
				"energy": -0.27516,
				"method": "rhf"
			},
			{
				"type": "occ",
				"energy": -0.25366,
				"method": "rhf"
			},
			{
				"type": "unocc",
				"energy": -0.0839,
				"method": "rhf"
			},
			{
				"type": "unocc",
				"energy": -0.05233,
				"method": "rhf"
			},
			{
				"type": "unocc",
				"energy": -0.04524,
				"method": "rhf"
			},
			{
				"type": "unocc",
				"energy": -0.038,
				"method": "rhf"
			},
			{
				"type": "unocc",
				"energy": -0.00307,
				"method": "rhf"
			}
		],
		"cosmo_sigma_profile": { 
			"0.0": 0.0,
			"0.0": 0.0,
			"0.0": 0.0,
			"0.0": 0.0,
			"0.0": 0.0,
			"0.0": 0.0,
			"0.0": 0.0,
			"0.0": 0.0,
			"0.0": 0.0,
			"0.0": 0.0,
			"0.0": 0.0,
			"0.0": 0.0,
			"0.0": 0.0,
			"0.0": 0.0,
			"0.0": 0.0,
			"0.0": 0.0,
			"0.0": 0.0,
			"0.0": 0.0,
			"0.0": 0.0,
			"0.0": 0.0,
			"0.0": 0.0,
			"0.0": 0.0,
			"0.0": 0.0,
			"0.0": 0.0,
			"0.0": 0.0,
			"0.0": 0.0,
			"0.0": 0.0,
			"0.0": 0.0,
			"0.0": 0.0,
			"0.0": 0.0,
			"0.0": 0.0,
			"0.0": 0.0,
			"0.0": 0.0,
			"0.0": 0.0,
			"0.0": 0.0,
			"0.0": 0.0,
			"0.0": 0.0,
			"0.0": 0.0,
			"0.0": 0.0,
			"0.0": 0.0,
			"0.0": 0.0,
			"0.0": 0.0,
			"0.0": 0.0,
			"0.0": 0.0,
			"0.0": 0.0,
			"0.0": 0.0,
			"0.0": 0.0,
			"0.0": 0.0,
			"0.0": 0.0,
			"0.0": 0.0,
			"0.0": 0.0
		}
	}
}
