{
	 "smiles": "COC(=O)C1=CSC(=C1OC)S(Cl)(=O)=O", 
	 "Tm": 367.65, 
	 "num_atms": 22, 
	 "gaussian": { 
		 "optdone": 1, 
		 "sigma_profile": "yes", 
		 "theory": "DFT", 
		 "functional": "B3LYP", 
		 "basiset": "6-31G**", 
		 "properties": { 
			 "R2extent": 6673.9076, 
			 "electric_dipole_moment_norm": 6.46933063848, 
			 "electric_quadrupole_moment_norm": 20.1267080796, 
			 "total_energy": -1903.54426829, 
			 "HOMO_LUMO_gap": 0.17944, 
			 "cosmo_polarized_energy": -12.7, 
			 "cosmo_cavitation_energy": 31.9, 
			 "cosmo_dispersion_energy": -23.76, 
			 "cosmo_repulsion_energy": 1.79, 
			 "cosmo_total_nonelectrostatic_energy": 9.93, 
			 "SMD_solvation_energy": 6.51 
		},
		"coords": [
			{
				"x": 0.155506087,
				"y": -2.2621274432,
				"z": -3.3414264054,
				"element": "C" 
			},
			{
				"x": 0.5310984494,
				"y": -1.0020354531,
				"z": -2.7571492691,
				"element": "O" 
			},
			{
				"x": -0.2800918826,
				"y": -0.5597708732,
				"z": -1.7715204246,
				"element": "C" 
			},
			{
				"x": -1.2647857756,
				"y": -1.1618065304,
				"z": -1.3932348048,
				"element": "O" 
			},
			{
				"x": 0.1947010067,
				"y": 0.7346750757,
				"z": -1.2255932927,
				"element": "C" 
			},
			{
				"x": 1.3935821154,
				"y": 1.3114484946,
				"z": -1.5799419928,
				"element": "C" 
			},
			{
				"x": 1.6849372138,
				"y": 2.8252786033,
				"z": -0.826812472,
				"element": "S" 
			},
			{
				"x": 0.1616954184,
				"y": 2.7109944643,
				"z": 0.010368127,
				"element": "C" 
			},
			{
				"x": -0.543162688,
				"y": 1.5612663186,
				"z": -0.3001318019,
				"element": "C" 
			},
			{
				"x": -1.7951737661,
				"y": 1.353012588,
				"z": 0.1390036026,
				"element": "O" 
			},
			{
				"x": -1.9850451307,
				"y": 0.373340371,
				"z": 1.1846377834,
				"element": "C" 
			},
			{
				"x": -0.3374000486,
				"y": 3.9757480397,
				"z": 1.1168611182,
				"element": "S" 
			},
			{
				"x": -1.8013931408,
				"y": 5.0260238851,
				"z": -0.0044033592,
				"element": "Cl" 
			},
			{
				"x": 0.7916633971,
				"y": 4.8868210921,
				"z": 1.269914514,
				"element": "O" 
			},
			{
				"x": -1.0358360422,
				"y": 3.4042830826,
				"z": 2.2595691403,
				"element": "O" 
			},
			{
				"x": 0.9083743787,
				"y": -2.4667645911,
				"z": -4.1019156929,
				"element": "H" 
			},
			{
				"x": 0.1484092526,
				"y": -3.0495091083,
				"z": -2.5839410366,
				"element": "H" 
			},
			{
				"x": -0.837668805,
				"y": -2.1937536914,
				"z": -3.7912100824,
				"element": "H" 
			},
			{
				"x": 2.1242952046,
				"y": 0.8971739712,
				"z": -2.2600512399,
				"element": "H" 
			},
			{
				"x": -1.4617438471,
				"y": 0.6958844142,
				"z": 2.0889055035,
				"element": "H" 
			},
			{
				"x": -3.0591284209,
				"y": 0.357417474,
				"z": 1.3679158929,
				"element": "H" 
			},
			{
				"x": -1.6512329761,
				"y": -0.6099001838,
				"z": 0.850056192,
				"element": "H" 
			}
		],
		 "valence_orbital": [ 
			{
				"type": "occ",
				"energy": -0.31171,
				"method": "rhf"
			},
			{
				"type": "occ",
				"energy": -0.30156,
				"method": "rhf"
			},
			{
				"type": "occ",
				"energy": -0.29689,
				"method": "rhf"
			},
			{
				"type": "occ",
				"energy": -0.28589,
				"method": "rhf"
			},
			{
				"type": "occ",
				"energy": -0.27217,
				"method": "rhf"
			},
			{
				"type": "unocc",
				"energy": -0.09273,
				"method": "rhf"
			},
			{
				"type": "unocc",
				"energy": -0.06693,
				"method": "rhf"
			},
			{
				"type": "unocc",
				"energy": -0.03261,
				"method": "rhf"
			},
			{
				"type": "unocc",
				"energy": -0.01036,
				"method": "rhf"
			},
			{
				"type": "unocc",
				"energy": 0.03811,
				"method": "rhf"
			}
		],
		"cosmo_sigma_profile": { 
			"-0.025": 0.0,
			"-0.024": 0.0,
			"-0.023": 0.0,
			"-0.022": 0.0,
			"-0.021": 0.0,
			"-0.02": 0.0,
			"-0.019": 0.0,
			"-0.018": 0.0,
			"-0.017": 0.0,
			"-0.016": 0.0,
			"-0.015": 0.0,
			"-0.014": 0.0,
			"-0.013": 0.0,
			"-0.012": 0.560046511736,
			"-0.011": 1.88249358628,
			"-0.01": 1.55653295599,
			"-0.009": 1.80374168028,
			"-0.008": 1.38790301666,
			"-0.007": 4.0346615594,
			"-0.006": 10.752679207,
			"-0.005": 16.5029049512,
			"-0.004": 27.0089221557,
			"-0.003": 26.6838711773,
			"-0.002": 21.9858560092,
			"-0.001": 21.5764474144,
			"0.0": 18.0818724372,
			"0.001": 13.1332964845,
			"0.002": 14.4524482918,
			"0.003": 20.0133909821,
			"0.004": 11.5404510699,
			"0.005": 8.10149222588,
			"0.006": 7.21777245053,
			"0.007": 9.5252266399,
			"0.008": 11.1903655071,
			"0.009": 5.88381000908,
			"0.01": 2.75196431352,
			"0.011": 2.46640231642,
			"0.012": 0.384634817913,
			"0.013": 0.0,
			"0.014": 0.0,
			"0.015": 0.0,
			"0.016": 0.0,
			"0.017": 0.0,
			"0.018": 0.0,
			"0.019": 0.0,
			"0.02": 0.0,
			"0.021": 0.0,
			"0.022": 0.0,
			"0.023": 0.0,
			"0.024": 0.0,
			"0.025": 0.0
		}
	}
}
