{
	 "smiles": "CCSC1=CC(=CC=C1)C(O)=O", 
	 "Tm": 369.15, 
	 "num_atms": 22, 
	 "gaussian": { 
		 "optdone": 1, 
		 "sigma_profile": "yes", 
		 "theory": "DFT", 
		 "functional": "B3LYP", 
		 "basiset": "6-31G**", 
		 "properties": { 
			 "R2extent": 3811.1408, 
			 "electric_dipole_moment_norm": 0.98101104479, 
			 "electric_quadrupole_moment_norm": 9.66863860686, 
			 "total_energy": -897.643519976, 
			 "HOMO_LUMO_gap": 0.1653, 
			 "cosmo_polarized_energy": -10.16, 
			 "cosmo_cavitation_energy": 27.45, 
			 "cosmo_dispersion_energy": -20.26, 
			 "cosmo_repulsion_energy": 1.58, 
			 "cosmo_total_nonelectrostatic_energy": 8.78, 
			 "SMD_solvation_energy": 5.63 
		},
		"coords": [
			{
				"x": -1.3653566413,
				"y": 2.0206755686,
				"z": 3.4144649405,
				"element": "C" 
			},
			{
				"x": -2.5436171702,
				"y": 2.3959555622,
				"z": 2.5178743404,
				"element": "C" 
			},
			{
				"x": -2.0968992225,
				"y": 2.7737537562,
				"z": 0.7763494563,
				"element": "S" 
			},
			{
				"x": -1.5698736462,
				"y": 1.2058147667,
				"z": 0.1041445725,
				"element": "C" 
			},
			{
				"x": -1.9439927093,
				"y": -0.0369050742,
				"z": 0.6211359875,
				"element": "C" 
			},
			{
				"x": -1.5168672595,
				"y": -1.2189006889,
				"z": 0.0012047896,
				"element": "C" 
			},
			{
				"x": -0.7250980824,
				"y": -1.1721017616,
				"z": -1.1521579058,
				"element": "C" 
			},
			{
				"x": -0.3596247681,
				"y": 0.0690104916,
				"z": -1.6728150223,
				"element": "C" 
			},
			{
				"x": -0.76723131,
				"y": 1.2467328129,
				"z": -1.0496732698,
				"element": "C" 
			},
			{
				"x": -1.9463861929,
				"y": -2.5034646109,
				"z": 0.6167303333,
				"element": "C" 
			},
			{
				"x": -1.5012482335,
				"y": -3.5926301967,
				"z": -0.0581072089,
				"element": "O" 
			},
			{
				"x": -2.6256171628,
				"y": -2.6015809004,
				"z": 1.6204167193,
				"element": "O" 
			},
			{
				"x": -1.7147833735,
				"y": 1.8452607974,
				"z": 4.438262163,
				"element": "H" 
			},
			{
				"x": -0.8731817335,
				"y": 1.1084851032,
				"z": 3.0669579951,
				"element": "H" 
			},
			{
				"x": -0.6208719212,
				"y": 2.8211060189,
				"z": 3.4358253828,
				"element": "H" 
			},
			{
				"x": -3.0098462122,
				"y": 3.3271521657,
				"z": 2.8548240368,
				"element": "H" 
			},
			{
				"x": -3.3264741904,
				"y": 1.6322328956,
				"z": 2.5319256131,
				"element": "H" 
			},
			{
				"x": -2.5685367396,
				"y": -0.129191094,
				"z": 1.5014791102,
				"element": "H" 
			},
			{
				"x": -0.4024774623,
				"y": -2.0917875297,
				"z": -1.6253174518,
				"element": "H" 
			},
			{
				"x": 0.2580888652,
				"y": 0.1221320816,
				"z": -2.5644193904,
				"element": "H" 
			},
			{
				"x": -0.4604926769,
				"y": 2.2072815777,
				"z": -1.4538128837,
				"element": "H" 
			},
			{
				"x": -1.839812157,
				"y": -4.3607317419,
				"z": 0.4304076924,
				"element": "H" 
			}
		],
		 "valence_orbital": [ 
			{
				"type": "occ",
				"energy": -0.31743,
				"method": "rhf"
			},
			{
				"type": "occ",
				"energy": -0.2896,
				"method": "rhf"
			},
			{
				"type": "occ",
				"energy": -0.27873,
				"method": "rhf"
			},
			{
				"type": "occ",
				"energy": -0.26367,
				"method": "rhf"
			},
			{
				"type": "occ",
				"energy": -0.21592,
				"method": "rhf"
			},
			{
				"type": "unocc",
				"energy": -0.05062,
				"method": "rhf"
			},
			{
				"type": "unocc",
				"energy": -0.01329,
				"method": "rhf"
			},
			{
				"type": "unocc",
				"energy": 0.03803,
				"method": "rhf"
			},
			{
				"type": "unocc",
				"energy": 0.05473,
				"method": "rhf"
			},
			{
				"type": "unocc",
				"energy": 0.06768,
				"method": "rhf"
			}
		],
		"cosmo_sigma_profile": { 
			"-0.025": 0.0,
			"-0.024": 0.0,
			"-0.023": 0.0,
			"-0.022": 0.0,
			"-0.021": 0.0,
			"-0.02": 0.0,
			"-0.019": 0.0570292909966,
			"-0.018": 0.726325558279,
			"-0.017": 0.864273517685,
			"-0.016": 0.737877451117,
			"-0.015": 1.03599966421,
			"-0.014": 1.1438414099,
			"-0.013": 0.410994509813,
			"-0.012": 0.198465446571,
			"-0.011": 0.924384595735,
			"-0.01": 0.666842290187,
			"-0.009": 0.541428935098,
			"-0.008": 0.84368551241,
			"-0.007": 5.1062439944,
			"-0.006": 11.4406419951,
			"-0.005": 12.4289431548,
			"-0.004": 12.4314772246,
			"-0.003": 19.0026038068,
			"-0.002": 19.8258994172,
			"-0.001": 15.4858251615,
			"0.0": 18.782294443,
			"0.001": 15.9075741858,
			"0.002": 14.378615595,
			"0.003": 19.841230152,
			"0.004": 11.8139834733,
			"0.005": 6.55532532352,
			"0.006": 5.477237749,
			"0.007": 5.86004578185,
			"0.008": 5.08484909776,
			"0.009": 2.81439808797,
			"0.01": 1.82875915971,
			"0.011": 3.91267954953,
			"0.012": 3.87564369611,
			"0.013": 0.0691748279891,
			"0.014": 0.0,
			"0.015": 0.0,
			"0.016": 0.0,
			"0.017": 0.0,
			"0.018": 0.0,
			"0.019": 0.0,
			"0.02": 0.0,
			"0.021": 0.0,
			"0.022": 0.0,
			"0.023": 0.0,
			"0.024": 0.0,
			"0.025": 0.0
		}
	}
}
