{
	 "smiles": "CS(=O)(=O)CC1=NOC(=N1)C(Cl)(Cl)Cl", 
	 "Tm": 384.15, 
	 "num_atms": 19, 
	 "gaussian": { 
		 "optdone": 1, 
		 "sigma_profile": "yes", 
		 "theory": "DFT", 
		 "functional": "B3LYP", 
		 "basiset": "6-31G**", 
		 "properties": { 
			 "R2extent": 5757.8628, 
			 "electric_dipole_moment_norm": 3.42801560965, 
			 "electric_quadrupole_moment_norm": 15.2261903127, 
			 "total_energy": -2307.34402759, 
			 "HOMO_LUMO_gap": 0.20786, 
			 "cosmo_polarized_energy": -16.79, 
			 "cosmo_cavitation_energy": 31.24, 
			 "cosmo_dispersion_energy": -22.88, 
			 "cosmo_repulsion_energy": 1.79, 
			 "cosmo_total_nonelectrostatic_energy": 10.15, 
			 "SMD_solvation_energy": 2.24 
		},
		"coords": [
			{
				"x": -3.1301134249,
				"y": 0.1076122546,
				"z": -0.8934262129,
				"element": "C" 
			},
			{
				"x": -2.1318707686,
				"y": 1.6069476408,
				"z": -1.0267126958,
				"element": "S" 
			},
			{
				"x": -1.1624975877,
				"y": 1.4193444718,
				"z": -2.1125935271,
				"element": "O" 
			},
			{
				"x": -3.0269576372,
				"y": 2.7702852623,
				"z": -0.9929155329,
				"element": "O" 
			},
			{
				"x": -1.1985001351,
				"y": 1.6466155939,
				"z": 0.5657634492,
				"element": "C" 
			},
			{
				"x": -0.1124440856,
				"y": 0.6324507186,
				"z": 0.6375280068,
				"element": "C" 
			},
			{
				"x": -0.349138049,
				"y": -0.6311318522,
				"z": 0.9053457642,
				"element": "N" 
			},
			{
				"x": 0.9139858431,
				"y": -1.2211144156,
				"z": 0.838277027,
				"element": "O" 
			},
			{
				"x": 1.7709444096,
				"y": -0.2330337289,
				"z": 0.5405372238,
				"element": "C" 
			},
			{
				"x": 1.2128869374,
				"y": 0.9279916512,
				"z": 0.4037646091,
				"element": "N" 
			},
			{
				"x": 3.2329340847,
				"y": -0.592362507,
				"z": 0.4277007149,
				"element": "C" 
			},
			{
				"x": 3.4212192502,
				"y": -1.8844971451,
				"z": -0.8117091752,
				"element": "Cl" 
			},
			{
				"x": 4.1843803613,
				"y": 0.8388708789,
				"z": -0.0349123908,
				"element": "Cl" 
			},
			{
				"x": 3.7935356922,
				"y": -1.2108044544,
				"z": 2.0284395735,
				"element": "Cl" 
			},
			{
				"x": -3.866862554,
				"y": 0.2386227559,
				"z": -0.099758432,
				"element": "H" 
			},
			{
				"x": -3.626528639,
				"y": -0.004000572,
				"z": -1.8591721598,
				"element": "H" 
			},
			{
				"x": -2.4789091457,
				"y": -0.7445549501,
				"z": -0.6951341115,
				"element": "H" 
			},
			{
				"x": -1.9301831484,
				"y": 1.5279643873,
				"z": 1.3675507651,
				"element": "H" 
			},
			{
				"x": -0.7795814033,
				"y": 2.6538940099,
				"z": 0.5994271045,
				"element": "H" 
			}
		],
		 "valence_orbital": [ 
			{
				"type": "occ",
				"energy": -0.32746,
				"method": "rhf"
			},
			{
				"type": "occ",
				"energy": -0.32591,
				"method": "rhf"
			},
			{
				"type": "occ",
				"energy": -0.32482,
				"method": "rhf"
			},
			{
				"type": "occ",
				"energy": -0.30909,
				"method": "rhf"
			},
			{
				"type": "occ",
				"energy": -0.2962,
				"method": "rhf"
			},
			{
				"type": "unocc",
				"energy": -0.08834,
				"method": "rhf"
			},
			{
				"type": "unocc",
				"energy": -0.06289,
				"method": "rhf"
			},
			{
				"type": "unocc",
				"energy": -0.03042,
				"method": "rhf"
			},
			{
				"type": "unocc",
				"energy": -0.02671,
				"method": "rhf"
			},
			{
				"type": "unocc",
				"energy": 0.02817,
				"method": "rhf"
			}
		],
		"cosmo_sigma_profile": { 
			"-0.025": 0.0,
			"-0.024": 0.0,
			"-0.023": 0.0,
			"-0.022": 0.0,
			"-0.021": 0.0,
			"-0.02": 0.0,
			"-0.019": 0.0,
			"-0.018": 0.0,
			"-0.017": 0.0,
			"-0.016": 0.0,
			"-0.015": 0.0,
			"-0.014": 0.00166501825131,
			"-0.013": 0.444790738902,
			"-0.012": 1.04243996386,
			"-0.011": 3.12549478578,
			"-0.01": 4.77314990368,
			"-0.009": 6.66202053646,
			"-0.008": 6.47610029303,
			"-0.007": 11.0077968227,
			"-0.006": 12.1046480856,
			"-0.005": 15.6479953086,
			"-0.004": 15.4293860654,
			"-0.003": 12.9492660062,
			"-0.002": 12.7504216242,
			"-0.001": 13.0321607061,
			"0.0": 19.7582399976,
			"0.001": 28.6965660329,
			"0.002": 28.5107104543,
			"0.003": 7.90621868166,
			"0.004": 7.53386325588,
			"0.005": 5.09135919351,
			"0.006": 4.61014769443,
			"0.007": 4.63867222248,
			"0.008": 4.87490595949,
			"0.009": 5.24809722854,
			"0.01": 8.47873538435,
			"0.011": 12.2940201719,
			"0.012": 3.92949627016,
			"0.013": 0.0,
			"0.014": 0.0,
			"0.015": 0.0,
			"0.016": 0.0,
			"0.017": 0.0,
			"0.018": 0.0,
			"0.019": 0.0,
			"0.02": 0.0,
			"0.021": 0.0,
			"0.022": 0.0,
			"0.023": 0.0,
			"0.024": 0.0,
			"0.025": 0.0
		}
	}
}
