{
	 "smiles": "CC1=CC(OC(=O)C2=CC=CC=C2)=C(C=C1)C1(C)CC(C)(C)C2=CC=C(C)C=C2O1", 
	 "Tm": 422.15, 
	 "num_atms": 58, 
	 "gaussian": { 
		 "optdone": 1, 
		 "sigma_profile": "yes", 
		 "theory": "DFT", 
		 "functional": "B3LYP", 
		 "basiset": "6-31G**", 
		 "properties": { 
			 "R2extent": 11499.7001, 
			 "electric_dipole_moment_norm": 1.61814934107, 
			 "electric_quadrupole_moment_norm": 19.2050783063, 
			 "total_energy": -1271.45670152, 
			 "HOMO_LUMO_gap": 0.15847, 
			 "cosmo_polarized_energy": -13.0, 
			 "cosmo_cavitation_energy": 56.73, 
			 "cosmo_dispersion_energy": -36.54, 
			 "cosmo_repulsion_energy": 2.71, 
			 "cosmo_total_nonelectrostatic_energy": 22.9, 
			 "SMD_solvation_energy": 10.11 
		},
		"coords": [
			{
				"x": -3.2562185518,
				"y": -4.6682781463,
				"z": 0.3180767735,
				"element": "C" 
			},
			{
				"x": -2.0996743132,
				"y": -3.8080518237,
				"z": -0.1303176313,
				"element": "C" 
			},
			{
				"x": -2.0568909115,
				"y": -2.4442648152,
				"z": 0.1537151923,
				"element": "C" 
			},
			{
				"x": -0.9801116387,
				"y": -1.6451444663,
				"z": -0.237733924,
				"element": "C" 
			},
			{
				"x": -1.086873787,
				"y": -0.3015593027,
				"z": 0.1457434646,
				"element": "O" 
			},
			{
				"x": -1.5449255269,
				"y": 0.5909449742,
				"z": -0.7803953263,
				"element": "C" 
			},
			{
				"x": -1.7525693079,
				"y": 0.3068208835,
				"z": -1.940235624,
				"element": "O" 
			},
			{
				"x": -1.7841015532,
				"y": 1.9354453764,
				"z": -0.1854260517,
				"element": "C" 
			},
			{
				"x": -1.6435157918,
				"y": 2.1892890266,
				"z": 1.186654042,
				"element": "C" 
			},
			{
				"x": -1.9068598134,
				"y": 3.4643372156,
				"z": 1.6863991122,
				"element": "C" 
			},
			{
				"x": -2.3067125541,
				"y": 4.4880367053,
				"z": 0.8231766086,
				"element": "C" 
			},
			{
				"x": -2.4468738285,
				"y": 4.2367698492,
				"z": -0.544469048,
				"element": "C" 
			},
			{
				"x": -2.1895371317,
				"y": 2.9639409446,
				"z": -1.0476212582,
				"element": "C" 
			},
			{
				"x": 0.133026068,
				"y": -2.1748498311,
				"z": -0.9068655445,
				"element": "C" 
			},
			{
				"x": 0.0564379011,
				"y": -3.547369837,
				"z": -1.209445225,
				"element": "C" 
			},
			{
				"x": -1.0185182422,
				"y": -4.3463389506,
				"z": -0.8387679964,
				"element": "C" 
			},
			{
				"x": 1.3507563151,
				"y": -1.3822053633,
				"z": -1.4289788942,
				"element": "C" 
			},
			{
				"x": 1.1608740367,
				"y": -1.1588594724,
				"z": -2.9405840725,
				"element": "C" 
			},
			{
				"x": 2.7058289734,
				"y": -2.0706834883,
				"z": -1.1624772491,
				"element": "C" 
			},
			{
				"x": 3.1915941774,
				"y": -2.0927310384,
				"z": 0.3074037792,
				"element": "C" 
			},
			{
				"x": 4.7081974115,
				"y": -2.3954493562,
				"z": 0.2731026724,
				"element": "C" 
			},
			{
				"x": 2.502708281,
				"y": -3.1918564845,
				"z": 1.1505265973,
				"element": "C" 
			},
			{
				"x": 2.9255103957,
				"y": -0.7185616399,
				"z": 0.9175842616,
				"element": "C" 
			},
			{
				"x": 3.5218170167,
				"y": -0.3095668993,
				"z": 2.1198045951,
				"element": "C" 
			},
			{
				"x": 3.3104587626,
				"y": 0.9540651437,
				"z": 2.6617141941,
				"element": "C" 
			},
			{
				"x": 2.4876621591,
				"y": 1.8781778006,
				"z": 2.0011960671,
				"element": "C" 
			},
			{
				"x": 2.2865505227,
				"y": 3.2741536213,
				"z": 2.5434498849,
				"element": "C" 
			},
			{
				"x": 1.8731918803,
				"y": 1.480943932,
				"z": 0.8147596316,
				"element": "C" 
			},
			{
				"x": 2.0720995376,
				"y": 0.1989682665,
				"z": 0.2854158226,
				"element": "C" 
			},
			{
				"x": 1.4040611069,
				"y": -0.0488194536,
				"z": -0.8864961656,
				"element": "O" 
			},
			{
				"x": -3.506597746,
				"y": -5.4224478588,
				"z": -0.4346618904,
				"element": "H" 
			},
			{
				"x": -3.0158026529,
				"y": -5.2033853883,
				"z": 1.2452484824,
				"element": "H" 
			},
			{
				"x": -4.1510610223,
				"y": -4.0690585733,
				"z": 0.5082701241,
				"element": "H" 
			},
			{
				"x": -2.8734167114,
				"y": -1.9635148883,
				"z": 0.6843953996,
				"element": "H" 
			},
			{
				"x": -1.3259980045,
				"y": 1.3917175932,
				"z": 1.8476382142,
				"element": "H" 
			},
			{
				"x": -1.8027553501,
				"y": 3.6587212067,
				"z": 2.7498551942,
				"element": "H" 
			},
			{
				"x": -2.5103408415,
				"y": 5.4801247709,
				"z": 1.2163633952,
				"element": "H" 
			},
			{
				"x": -2.7579155913,
				"y": 5.0319630493,
				"z": -1.2154830672,
				"element": "H" 
			},
			{
				"x": -2.2968861686,
				"y": 2.7419993408,
				"z": -2.1039264752,
				"element": "H" 
			},
			{
				"x": 0.8696649113,
				"y": -4.0092767582,
				"z": -1.7592908148,
				"element": "H" 
			},
			{
				"x": -1.0151908682,
				"y": -5.400905088,
				"z": -1.1023120984,
				"element": "H" 
			},
			{
				"x": 1.1318572987,
				"y": -2.1154700088,
				"z": -3.4697866154,
				"element": "H" 
			},
			{
				"x": 0.2214437071,
				"y": -0.6319450779,
				"z": -3.1191058337,
				"element": "H" 
			},
			{
				"x": 1.9889189251,
				"y": -0.5609264943,
				"z": -3.3324223799,
				"element": "H" 
			},
			{
				"x": 3.4410723989,
				"y": -1.5085028501,
				"z": -1.7505284778,
				"element": "H" 
			},
			{
				"x": 2.7054617467,
				"y": -3.086791857,
				"z": -1.567326423,
				"element": "H" 
			},
			{
				"x": 5.2585672814,
				"y": -1.6081040227,
				"z": -0.2515000478,
				"element": "H" 
			},
			{
				"x": 5.1263047941,
				"y": -2.4855569943,
				"z": 1.2797830021,
				"element": "H" 
			},
			{
				"x": 4.8929410566,
				"y": -3.3447094148,
				"z": -0.2433400066,
				"element": "H" 
			},
			{
				"x": 2.9335402063,
				"y": -3.2150074022,
				"z": 2.1569901316,
				"element": "H" 
			},
			{
				"x": 1.4300222363,
				"y": -3.022038407,
				"z": 1.2525536702,
				"element": "H" 
			},
			{
				"x": 2.6510865655,
				"y": -4.1803352089,
				"z": 0.6995027514,
				"element": "H" 
			},
			{
				"x": 4.1742198567,
				"y": -1.0014506612,
				"z": 2.6452785317,
				"element": "H" 
			},
			{
				"x": 3.7921567225,
				"y": 1.2288176115,
				"z": 3.596514628,
				"element": "H" 
			},
			{
				"x": 1.3043024441,
				"y": 3.6712646735,
				"z": 2.2700737256,
				"element": "H" 
			},
			{
				"x": 3.0397401621,
				"y": 3.9664863789,
				"z": 2.1462035676,
				"element": "H" 
			},
			{
				"x": 2.3723595109,
				"y": 3.294373324,
				"z": 3.6345005722,
				"element": "H" 
			},
			{
				"x": 1.2202135384,
				"y": 2.1577556347,
				"z": 0.2737040517,
				"element": "H" 
			}
		],
		 "valence_orbital": [ 
			{
				"type": "occ",
				"energy": -0.25764,
				"method": "rhf"
			},
			{
				"type": "occ",
				"energy": -0.24596,
				"method": "rhf"
			},
			{
				"type": "occ",
				"energy": -0.23575,
				"method": "rhf"
			},
			{
				"type": "occ",
				"energy": -0.22586,
				"method": "rhf"
			},
			{
				"type": "occ",
				"energy": -0.2037,
				"method": "rhf"
			},
			{
				"type": "unocc",
				"energy": -0.04523,
				"method": "rhf"
			},
			{
				"type": "unocc",
				"energy": -0.00832,
				"method": "rhf"
			},
			{
				"type": "unocc",
				"energy": -0.00622,
				"method": "rhf"
			},
			{
				"type": "unocc",
				"energy": -0.00201,
				"method": "rhf"
			},
			{
				"type": "unocc",
				"energy": 0.01073,
				"method": "rhf"
			}
		],
		"cosmo_sigma_profile": { 
			"-0.025": 0.0,
			"-0.024": 0.0,
			"-0.023": 0.0,
			"-0.022": 0.0,
			"-0.021": 0.0,
			"-0.02": 0.0,
			"-0.019": 0.0,
			"-0.018": 0.0,
			"-0.017": 0.0,
			"-0.016": 0.0,
			"-0.015": 0.0,
			"-0.014": 0.0,
			"-0.013": 0.0,
			"-0.012": 0.0,
			"-0.011": 0.0,
			"-0.01": 0.0,
			"-0.009": 0.0,
			"-0.008": 0.0277442894225,
			"-0.007": 3.64100958717,
			"-0.006": 13.3381224122,
			"-0.005": 23.3791740896,
			"-0.004": 37.0199872608,
			"-0.003": 43.0127637969,
			"-0.002": 45.1056446081,
			"-0.001": 46.4654178842,
			"0.0": 56.7653219335,
			"0.001": 45.2924616241,
			"0.002": 31.4181960423,
			"0.003": 27.4447621449,
			"0.004": 24.1248920326,
			"0.005": 15.0613193864,
			"0.006": 12.2160485605,
			"0.007": 9.70506523688,
			"0.008": 3.59141582469,
			"0.009": 2.59589367167,
			"0.01": 2.65255845366,
			"0.011": 3.3999723774,
			"0.012": 1.2877367311,
			"0.013": 0.0,
			"0.014": 0.0,
			"0.015": 0.0,
			"0.016": 0.0,
			"0.017": 0.0,
			"0.018": 0.0,
			"0.019": 0.0,
			"0.02": 0.0,
			"0.021": 0.0,
			"0.022": 0.0,
			"0.023": 0.0,
			"0.024": 0.0,
			"0.025": 0.0
		}
	}
}
