{
	 "smiles": "COC1=CC(N)=C(C)C=C1", 
	 "Tm": 317.65, 
	 "num_atms": 21, 
	 "gaussian": { 
		 "optdone": 1, 
		 "sigma_profile": "yes", 
		 "theory": "DFT", 
		 "functional": "B3LYP", 
		 "basiset": "6-31G**", 
		 "properties": { 
			 "R2extent": 1891.0801, 
			 "electric_dipole_moment_norm": 1.08087960939, 
			 "electric_quadrupole_moment_norm": 9.6396630133, 
			 "total_energy": -441.453445498, 
			 "HOMO_LUMO_gap": 0.2097, 
			 "cosmo_polarized_energy": -9.38, 
			 "cosmo_cavitation_energy": 23.81, 
			 "cosmo_dispersion_energy": -17.86, 
			 "cosmo_repulsion_energy": 1.45, 
			 "cosmo_total_nonelectrostatic_energy": 7.4, 
			 "SMD_solvation_energy": 4.78 
		},
		"coords": [
			{
				"x": 0.9552621647,
				"y": -2.1784752041,
				"z": 2.7018124371,
				"element": "C" 
			},
			{
				"x": -0.0543843731,
				"y": -2.021186754,
				"z": 1.7205433875,
				"element": "O" 
			},
			{
				"x": -0.2338506963,
				"y": -0.7774888129,
				"z": 1.1776155399,
				"element": "C" 
			},
			{
				"x": -1.2463197711,
				"y": -0.685846297,
				"z": 0.2165927987,
				"element": "C" 
			},
			{
				"x": -1.5273694963,
				"y": 0.5291120166,
				"z": -0.4143718459,
				"element": "C" 
			},
			{
				"x": -2.4996909181,
				"y": 0.5902013859,
				"z": -1.4188681882,
				"element": "N" 
			},
			{
				"x": -0.7843663181,
				"y": 1.688435122,
				"z": -0.0780653371,
				"element": "C" 
			},
			{
				"x": -1.0665627714,
				"y": 3.0032132897,
				"z": -0.7616235946,
				"element": "C" 
			},
			{
				"x": 0.2122891044,
				"y": 1.5654472161,
				"z": 0.8867892426,
				"element": "C" 
			},
			{
				"x": 0.5067670593,
				"y": 0.3560691288,
				"z": 1.5251691193,
				"element": "C" 
			},
			{
				"x": 0.7661316968,
				"y": -1.5535429468,
				"z": 3.5846647865,
				"element": "H" 
			},
			{
				"x": 1.9503043446,
				"y": -1.9390715734,
				"z": 2.3041508757,
				"element": "H" 
			},
			{
				"x": 0.9311043433,
				"y": -3.2293889353,
				"z": 2.9958823399,
				"element": "H" 
			},
			{
				"x": -1.806093928,
				"y": -1.5832038536,
				"z": -0.0311646739,
				"element": "H" 
			},
			{
				"x": -2.9657312845,
				"y": 1.481992562,
				"z": -1.5131820673,
				"element": "H" 
			},
			{
				"x": -3.1604075841,
				"y": -0.1749194851,
				"z": -1.4103588968,
				"element": "H" 
			},
			{
				"x": -0.9747545942,
				"y": 2.9212590678,
				"z": -1.8521729514,
				"element": "H" 
			},
			{
				"x": -2.0813855276,
				"y": 3.3736403682,
				"z": -0.553273337,
				"element": "H" 
			},
			{
				"x": -0.3703270076,
				"y": 3.7757816247,
				"z": -0.4248239654,
				"element": "H" 
			},
			{
				"x": 0.7881916407,
				"y": 2.4488464102,
				"z": 1.1531695602,
				"element": "H" 
			},
			{
				"x": 1.2943939164,
				"y": 0.3159256703,
				"z": 2.2670147702,
				"element": "H" 
			}
		],
		 "valence_orbital": [ 
			{
				"type": "occ",
				"energy": -0.32589,
				"method": "rhf"
			},
			{
				"type": "occ",
				"energy": -0.31609,
				"method": "rhf"
			},
			{
				"type": "occ",
				"energy": -0.28228,
				"method": "rhf"
			},
			{
				"type": "occ",
				"energy": -0.21012,
				"method": "rhf"
			},
			{
				"type": "occ",
				"energy": -0.19158,
				"method": "rhf"
			},
			{
				"type": "unocc",
				"energy": 0.01812,
				"method": "rhf"
			},
			{
				"type": "unocc",
				"energy": 0.03329,
				"method": "rhf"
			},
			{
				"type": "unocc",
				"energy": 0.0814,
				"method": "rhf"
			},
			{
				"type": "unocc",
				"energy": 0.10326,
				"method": "rhf"
			},
			{
				"type": "unocc",
				"energy": 0.11591,
				"method": "rhf"
			}
		],
		"cosmo_sigma_profile": { 
			"-0.025": 0.0,
			"-0.024": 0.0,
			"-0.023": 0.0,
			"-0.022": 0.0,
			"-0.021": 0.0,
			"-0.02": 0.0,
			"-0.019": 0.0,
			"-0.018": 0.0,
			"-0.017": 0.0,
			"-0.016": 0.0,
			"-0.015": 0.0,
			"-0.014": 0.0,
			"-0.013": 0.0,
			"-0.012": 1.09557978598,
			"-0.011": 2.04081470927,
			"-0.01": 3.09549918606,
			"-0.009": 3.27821782537,
			"-0.008": 2.810320809,
			"-0.007": 2.60359404237,
			"-0.006": 4.17680346451,
			"-0.005": 12.5300411261,
			"-0.004": 19.2873492087,
			"-0.003": 19.4094062418,
			"-0.002": 15.1435850414,
			"-0.001": 12.3873947472,
			"0.0": 12.5137331561,
			"0.001": 9.34056486935,
			"0.002": 7.59368674883,
			"0.003": 7.29554963789,
			"0.004": 8.03621134714,
			"0.005": 9.33216640953,
			"0.006": 12.3737163931,
			"0.007": 10.3894942536,
			"0.008": 4.01751184286,
			"0.009": 1.74226337492,
			"0.01": 2.42305561643,
			"0.011": 1.92036313379,
			"0.012": 1.1245978918,
			"0.013": 0.477897695644,
			"0.014": 0.587845957877,
			"0.015": 0.349073315344,
			"0.016": 0.0218510848962,
			"0.017": 0.0,
			"0.018": 0.0,
			"0.019": 0.0,
			"0.02": 0.0,
			"0.021": 0.0,
			"0.022": 0.0,
			"0.023": 0.0,
			"0.024": 0.0,
			"0.025": 0.0
		}
	}
}
