{
	 "smiles": "O=C1NCC(=O)N2CCCCC12", 
	 "Tm": 427.15, 
	 "num_atms": 24, 
	 "gaussian": { 
		 "optdone": 1, 
		 "sigma_profile": "yes", 
		 "theory": "DFT", 
		 "functional": "B3LYP", 
		 "basiset": "6-31G**", 
		 "properties": { 
			 "R2extent": 2264.2553, 
			 "electric_dipole_moment_norm": 1.07371427298, 
			 "electric_quadrupole_moment_norm": 16.1864050685, 
			 "total_energy": -572.06293477, 
			 "HOMO_LUMO_gap": 0.25024, 
			 "cosmo_polarized_energy": -15.31, 
			 "cosmo_cavitation_energy": 25.14, 
			 "cosmo_dispersion_energy": -19.02, 
			 "cosmo_repulsion_energy": 1.51, 
			 "cosmo_total_nonelectrostatic_energy": 7.64, 
			 "SMD_solvation_energy": 3.88 
		},
		"coords": [
			{
				"x": 1.6041531195,
				"y": -1.4310503151,
				"z": -3.2367495357,
				"element": "O" 
			},
			{
				"x": 0.8645880635,
				"y": -0.7431612171,
				"z": -2.5459119226,
				"element": "C" 
			},
			{
				"x": -0.4796383122,
				"y": -0.6733687383,
				"z": -2.7383749877,
				"element": "N" 
			},
			{
				"x": -1.3659703186,
				"y": 0.2113164355,
				"z": -2.0005003168,
				"element": "C" 
			},
			{
				"x": -0.937689081,
				"y": 0.3991910131,
				"z": -0.5456774683,
				"element": "C" 
			},
			{
				"x": -1.7693095385,
				"y": 0.6579668071,
				"z": 0.3167649384,
				"element": "O" 
			},
			{
				"x": 0.4004134133,
				"y": 0.2661824997,
				"z": -0.3156303728,
				"element": "N" 
			},
			{
				"x": 0.9307917327,
				"y": 0.4349627095,
				"z": 1.0396423866,
				"element": "C" 
			},
			{
				"x": 1.7636296574,
				"y": -0.7929945372,
				"z": 1.4567857111,
				"element": "C" 
			},
			{
				"x": 2.4905992685,
				"y": -1.4195656879,
				"z": 0.2421825584,
				"element": "C" 
			},
			{
				"x": 2.7266898838,
				"y": -0.3797791438,
				"z": -0.8591952516,
				"element": "C" 
			},
			{
				"x": 1.3874515104,
				"y": 0.1514253438,
				"z": -1.4047764474,
				"element": "C" 
			},
			{
				"x": -0.8387610434,
				"y": -1.2060253017,
				"z": -3.5194640073,
				"element": "H" 
			},
			{
				"x": -2.3721598855,
				"y": -0.2102945444,
				"z": -1.9770695172,
				"element": "H" 
			},
			{
				"x": -1.4402144386,
				"y": 1.2058897501,
				"z": -2.4685590405,
				"element": "H" 
			},
			{
				"x": 1.5466739449,
				"y": 1.3440815641,
				"z": 1.065930548,
				"element": "H" 
			},
			{
				"x": 0.0755296146,
				"y": 0.5981202071,
				"z": 1.6953182445,
				"element": "H" 
			},
			{
				"x": 2.4861121663,
				"y": -0.4762820881,
				"z": 2.2178938861,
				"element": "H" 
			},
			{
				"x": 1.1156161026,
				"y": -1.5391858591,
				"z": 1.9279997895,
				"element": "H" 
			},
			{
				"x": 3.4412815812,
				"y": -1.8655089552,
				"z": 0.5509422377,
				"element": "H" 
			},
			{
				"x": 1.8889395704,
				"y": -2.235564833,
				"z": -0.1742338381,
				"element": "H" 
			},
			{
				"x": 3.3232324207,
				"y": 0.4535717546,
				"z": -0.4712447353,
				"element": "H" 
			},
			{
				"x": 3.2687624667,
				"y": -0.8117176554,
				"z": -1.7032341179,
				"element": "H" 
			},
			{
				"x": 1.5566781015,
				"y": 1.1447907915,
				"z": -1.8560387411,
				"element": "H" 
			}
		],
		 "valence_orbital": [ 
			{
				"type": "occ",
				"energy": -0.32533,
				"method": "rhf"
			},
			{
				"type": "occ",
				"energy": -0.27372,
				"method": "rhf"
			},
			{
				"type": "occ",
				"energy": -0.26777,
				"method": "rhf"
			},
			{
				"type": "occ",
				"energy": -0.24882,
				"method": "rhf"
			},
			{
				"type": "occ",
				"energy": -0.23712,
				"method": "rhf"
			},
			{
				"type": "unocc",
				"energy": 0.01312,
				"method": "rhf"
			},
			{
				"type": "unocc",
				"energy": 0.01974,
				"method": "rhf"
			},
			{
				"type": "unocc",
				"energy": 0.07368,
				"method": "rhf"
			},
			{
				"type": "unocc",
				"energy": 0.08475,
				"method": "rhf"
			},
			{
				"type": "unocc",
				"energy": 0.10433,
				"method": "rhf"
			}
		],
		"cosmo_sigma_profile": { 
			"-0.025": 0.0,
			"-0.024": 0.0,
			"-0.023": 0.0,
			"-0.022": 0.0,
			"-0.021": 0.0,
			"-0.02": 0.0,
			"-0.019": 0.0,
			"-0.018": 0.0,
			"-0.017": 0.0,
			"-0.016": 0.0,
			"-0.015": 0.442030938377,
			"-0.014": 1.38297354518,
			"-0.013": 1.24686819436,
			"-0.012": 0.960447741586,
			"-0.011": 0.991363886301,
			"-0.01": 1.11695013646,
			"-0.009": 1.29604703097,
			"-0.008": 2.95568526641,
			"-0.007": 9.13141375909,
			"-0.006": 7.29239827697,
			"-0.005": 11.258051186,
			"-0.004": 15.096049871,
			"-0.003": 21.6451750016,
			"-0.002": 23.6350851952,
			"-0.001": 21.6314046131,
			"0.0": 16.6411016828,
			"0.001": 8.42962422816,
			"0.002": 4.2526177956,
			"0.003": 3.79753746114,
			"0.004": 2.99117594746,
			"0.005": 2.90759478857,
			"0.006": 2.19325784225,
			"0.007": 3.16261185801,
			"0.008": 2.92622359446,
			"0.009": 2.57618880895,
			"0.01": 1.77933800695,
			"0.011": 3.45094593698,
			"0.012": 4.21445427996,
			"0.013": 8.66041113351,
			"0.014": 7.38276948245,
			"0.015": 0.644706422117,
			"0.016": 0.0,
			"0.017": 0.0,
			"0.018": 0.0,
			"0.019": 0.0,
			"0.02": 0.0,
			"0.021": 0.0,
			"0.022": 0.0,
			"0.023": 0.0,
			"0.024": 0.0,
			"0.025": 0.0
		}
	}
}
