{
	 "smiles": "COC1=CC=C(CC2=C3N=C(C)C=C(C)N3N=C2N)C=C1", 
	 "Tm": 433.15, 
	 "num_atms": 39, 
	 "gaussian": { 
		 "optdone": 1, 
		 "sigma_profile": "yes", 
		 "theory": "DFT", 
		 "functional": "B3LYP", 
		 "basiset": "6-31G**", 
		 "properties": { 
			 "R2extent": 8338.6877, 
			 "electric_dipole_moment_norm": 2.83838944826, 
			 "electric_quadrupole_moment_norm": 12.2218068177, 
			 "total_energy": -914.778086007, 
			 "HOMO_LUMO_gap": 0.16392, 
			 "cosmo_polarized_energy": -14.59, 
			 "cosmo_cavitation_energy": 42.46, 
			 "cosmo_dispersion_energy": -29.98, 
			 "cosmo_repulsion_energy": 2.32, 
			 "cosmo_total_nonelectrostatic_energy": 14.8, 
			 "SMD_solvation_energy": 5.42 
		},
		"coords": [
			{
				"x": 4.2688507745,
				"y": -4.3470640307,
				"z": -1.0164386069,
				"element": "C" 
			},
			{
				"x": 4.5524893661,
				"y": -3.062688838,
				"z": -0.4877469808,
				"element": "O" 
			},
			{
				"x": 3.5046112856,
				"y": -2.2906660084,
				"z": -0.0698214524,
				"element": "C" 
			},
			{
				"x": 2.1573831874,
				"y": -2.6706027866,
				"z": -0.1350565492,
				"element": "C" 
			},
			{
				"x": 1.1693112954,
				"y": -1.7948631473,
				"z": 0.3188227218,
				"element": "C" 
			},
			{
				"x": 1.4851049237,
				"y": -0.5390072523,
				"z": 0.8491517151,
				"element": "C" 
			},
			{
				"x": 0.3956055624,
				"y": 0.3983479156,
				"z": 1.3540001345,
				"element": "C" 
			},
			{
				"x": -0.6364502181,
				"y": 0.7590738341,
				"z": 0.3242358153,
				"element": "C" 
			},
			{
				"x": -2.0146429156,
				"y": 0.5805704886,
				"z": 0.4097961186,
				"element": "C" 
			},
			{
				"x": -2.8034849469,
				"y": 0.0465736055,
				"z": 1.3662327272,
				"element": "N" 
			},
			{
				"x": -4.1084560216,
				"y": 0.0298118352,
				"z": 1.1419801796,
				"element": "C" 
			},
			{
				"x": -4.9908670278,
				"y": -0.5656214921,
				"z": 2.2092789177,
				"element": "C" 
			},
			{
				"x": -4.6866340269,
				"y": 0.5477099845,
				"z": -0.0531498553,
				"element": "C" 
			},
			{
				"x": -3.8846298981,
				"y": 1.0923417666,
				"z": -1.0330028778,
				"element": "C" 
			},
			{
				"x": -4.3511826419,
				"y": 1.669832918,
				"z": -2.3301251273,
				"element": "C" 
			},
			{
				"x": -2.5478324538,
				"y": 1.099181044,
				"z": -0.7842764383,
				"element": "N" 
			},
			{
				"x": -1.5884944477,
				"y": 1.5793489326,
				"z": -1.6181933126,
				"element": "N" 
			},
			{
				"x": -0.4457386481,
				"y": 1.3746926248,
				"z": -0.9379190879,
				"element": "C" 
			},
			{
				"x": 0.7588049607,
				"y": 1.8021194848,
				"z": -1.465031037,
				"element": "N" 
			},
			{
				"x": 2.8401258107,
				"y": -0.1782432188,
				"z": 0.90448098,
				"element": "C" 
			},
			{
				"x": 3.840101221,
				"y": -1.0350980138,
				"z": 0.4522449966,
				"element": "C" 
			},
			{
				"x": 5.2330275316,
				"y": -4.7855465656,
				"z": -1.279117468,
				"element": "H" 
			},
			{
				"x": 3.7705055902,
				"y": -4.9897368333,
				"z": -0.2788560414,
				"element": "H" 
			},
			{
				"x": 3.6437137072,
				"y": -4.2877082583,
				"z": -1.9171942314,
				"element": "H" 
			},
			{
				"x": 1.8688395295,
				"y": -3.6360725641,
				"z": -0.534130138,
				"element": "H" 
			},
			{
				"x": 0.1269397037,
				"y": -2.0964422666,
				"z": 0.2560283249,
				"element": "H" 
			},
			{
				"x": 0.8729742758,
				"y": 1.3068692182,
				"z": 1.7452034904,
				"element": "H" 
			},
			{
				"x": -0.1281617929,
				"y": -0.0611538165,
				"z": 2.2006404337,
				"element": "H" 
			},
			{
				"x": -4.3779028434,
				"y": -0.9140949887,
				"z": 3.0416623308,
				"element": "H" 
			},
			{
				"x": -5.5708368818,
				"y": -1.4093508193,
				"z": 1.8171111827,
				"element": "H" 
			},
			{
				"x": -5.7099306951,
				"y": 0.1726650887,
				"z": 2.5834163463,
				"element": "H" 
			},
			{
				"x": -5.7597813922,
				"y": 0.5183520886,
				"z": -0.2025899309,
				"element": "H" 
			},
			{
				"x": -3.8955254478,
				"y": 1.1375534356,
				"z": -3.1714998211,
				"element": "H" 
			},
			{
				"x": -4.0361772368,
				"y": 2.7147574002,
				"z": -2.4176995802,
				"element": "H" 
			},
			{
				"x": -5.4381643315,
				"y": 1.6092523536,
				"z": -2.4068996527,
				"element": "H" 
			},
			{
				"x": 1.5521580272,
				"y": 1.230092107,
				"z": -1.204496966,
				"element": "H" 
			},
			{
				"x": 0.7169087388,
				"y": 1.9899668179,
				"z": -2.4582917429,
				"element": "H" 
			},
			{
				"x": 3.1179925412,
				"y": 0.7896918304,
				"z": 1.3157006761,
				"element": "H" 
			},
			{
				"x": 4.8873458352,
				"y": -0.7536438741,
				"z": 0.4962498068,
				"element": "H" 
			}
		],
		 "valence_orbital": [ 
			{
				"type": "occ",
				"energy": -0.25205,
				"method": "rhf"
			},
			{
				"type": "occ",
				"energy": -0.24806,
				"method": "rhf"
			},
			{
				"type": "occ",
				"energy": -0.21466,
				"method": "rhf"
			},
			{
				"type": "occ",
				"energy": -0.20908,
				"method": "rhf"
			},
			{
				"type": "occ",
				"energy": -0.19163,
				"method": "rhf"
			},
			{
				"type": "unocc",
				"energy": -0.02771,
				"method": "rhf"
			},
			{
				"type": "unocc",
				"energy": -0.00149,
				"method": "rhf"
			},
			{
				"type": "unocc",
				"energy": 0.00759,
				"method": "rhf"
			},
			{
				"type": "unocc",
				"energy": 0.01848,
				"method": "rhf"
			},
			{
				"type": "unocc",
				"energy": 0.07849,
				"method": "rhf"
			}
		],
		"cosmo_sigma_profile": { 
			"-0.025": 0.0,
			"-0.024": 0.0,
			"-0.023": 0.0,
			"-0.022": 0.0,
			"-0.021": 0.0,
			"-0.02": 0.0,
			"-0.019": 0.0,
			"-0.018": 0.0,
			"-0.017": 0.0,
			"-0.016": 0.0,
			"-0.015": 0.0,
			"-0.014": 0.0,
			"-0.013": 0.289314773287,
			"-0.012": 0.978749699895,
			"-0.011": 0.873957814753,
			"-0.01": 1.50346510438,
			"-0.009": 2.05724706167,
			"-0.008": 1.52654230956,
			"-0.007": 2.86200655228,
			"-0.006": 12.4048263765,
			"-0.005": 27.578964863,
			"-0.004": 33.602808817,
			"-0.003": 33.6140288981,
			"-0.002": 30.4223293728,
			"-0.001": 31.1584815927,
			"0.0": 24.7255524999,
			"0.001": 21.6449277217,
			"0.002": 19.2829341534,
			"0.003": 18.2624119603,
			"0.004": 17.5014225459,
			"0.005": 14.5605665977,
			"0.006": 10.7952468095,
			"0.007": 5.74615308705,
			"0.008": 5.09665732804,
			"0.009": 3.76588716696,
			"0.01": 5.03568546119,
			"0.011": 3.5450280827,
			"0.012": 2.82501310087,
			"0.013": 3.35395514294,
			"0.014": 1.37581389759,
			"0.015": 0.187429323387,
			"0.016": 0.0,
			"0.017": 0.0,
			"0.018": 0.0,
			"0.019": 0.0,
			"0.02": 0.0,
			"0.021": 0.0,
			"0.022": 0.0,
			"0.023": 0.0,
			"0.024": 0.0,
			"0.025": 0.0
		}
	}
}
