{
	 "smiles": "COC1=C2OC3C(O)CC=C4C5CC(C=C1)=C2C34CCN5C", 
	 "Tm": 401.15, 
	 "num_atms": 43, 
	 "gaussian": { 
		 "optdone": 1, 
		 "sigma_profile": "yes", 
		 "theory": "DFT", 
		 "functional": "B3LYP", 
		 "basiset": "6-31G**", 
		 "properties": { 
			 "R2extent": 5880.7517, 
			 "electric_dipole_moment_norm": 1.57635055111, 
			 "electric_quadrupole_moment_norm": 11.9157086806, 
			 "total_energy": -978.909570027, 
			 "HOMO_LUMO_gap": 0.20417, 
			 "cosmo_polarized_energy": -11.32, 
			 "cosmo_cavitation_energy": 40.53, 
			 "cosmo_dispersion_energy": -29.1, 
			 "cosmo_repulsion_energy": 2.2, 
			 "cosmo_total_nonelectrostatic_energy": 13.62, 
			 "SMD_solvation_energy": 5.27 
		},
		"coords": [
			{
				"x": 3.6361825217,
				"y": -2.141087211,
				"z": 1.939176145,
				"element": "C" 
			},
			{
				"x": 3.9658121009,
				"y": -0.783697296,
				"z": 1.6563290099,
				"element": "O" 
			},
			{
				"x": 3.0218967003,
				"y": -0.0045598633,
				"z": 1.0531198423,
				"element": "C" 
			},
			{
				"x": 1.658022354,
				"y": -0.2715869396,
				"z": 0.9207415863,
				"element": "C" 
			},
			{
				"x": 0.8766025963,
				"y": -1.2862692136,
				"z": 1.5085144374,
				"element": "O" 
			},
			{
				"x": -0.4244853431,
				"y": -0.6151124844,
				"z": 1.5986417255,
				"element": "C" 
			},
			{
				"x": -1.6797170782,
				"y": -1.333351498,
				"z": 2.0442691594,
				"element": "C" 
			},
			{
				"x": -2.1134886767,
				"y": -2.3994992634,
				"z": 1.2050045278,
				"element": "O" 
			},
			{
				"x": -2.7883678337,
				"y": -0.2212419034,
				"z": 2.0618129328,
				"element": "C" 
			},
			{
				"x": -2.6143733228,
				"y": 1.002588481,
				"z": 1.1560687639,
				"element": "C" 
			},
			{
				"x": -1.5680105008,
				"y": 1.188047382,
				"z": 0.3427983786,
				"element": "C" 
			},
			{
				"x": -1.2650947001,
				"y": 2.2283105153,
				"z": -0.7179591396,
				"element": "C" 
			},
			{
				"x": 0.1286778951,
				"y": 2.9050864991,
				"z": -0.5050191339,
				"element": "C" 
			},
			{
				"x": 1.2318572834,
				"y": 1.917379525,
				"z": -0.1421203906,
				"element": "C" 
			},
			{
				"x": 2.605586057,
				"y": 2.1937871849,
				"z": -0.0006464599,
				"element": "C" 
			},
			{
				"x": 3.4659423139,
				"y": 1.2383221878,
				"z": 0.5426660003,
				"element": "C" 
			},
			{
				"x": 0.8493442429,
				"y": 0.6554403051,
				"z": 0.2581798366,
				"element": "C" 
			},
			{
				"x": -0.5443754219,
				"y": 0.1134501947,
				"z": 0.2690179397,
				"element": "C" 
			},
			{
				"x": -0.8349234375,
				"y": -0.7097773846,
				"z": -1.0372916403,
				"element": "C" 
			},
			{
				"x": -1.6695762218,
				"y": 0.1370208272,
				"z": -2.0169828044,
				"element": "C" 
			},
			{
				"x": -1.2208330759,
				"y": 1.5303449965,
				"z": -2.0415623603,
				"element": "N" 
			},
			{
				"x": -1.8521348732,
				"y": 2.3067373625,
				"z": -3.0943882705,
				"element": "C" 
			},
			{
				"x": 3.2960189919,
				"y": -2.6623509075,
				"z": 1.0360560212,
				"element": "H" 
			},
			{
				"x": 2.8586242881,
				"y": -2.2197480909,
				"z": 2.704070384,
				"element": "H" 
			},
			{
				"x": 4.5578836862,
				"y": -2.6025013912,
				"z": 2.2990399265,
				"element": "H" 
			},
			{
				"x": -0.2890111202,
				"y": 0.1703888286,
				"z": 2.358606967,
				"element": "H" 
			},
			{
				"x": -1.554632812,
				"y": -1.7095847423,
				"z": 3.0712223619,
				"element": "H" 
			},
			{
				"x": -1.3807402569,
				"y": -3.0273716772,
				"z": 1.1402668536,
				"element": "H" 
			},
			{
				"x": -3.7326224858,
				"y": -0.7225831063,
				"z": 1.8156866083,
				"element": "H" 
			},
			{
				"x": -2.9022270003,
				"y": 0.1312107273,
				"z": 3.0954985308,
				"element": "H" 
			},
			{
				"x": -3.4191463898,
				"y": 1.7355254167,
				"z": 1.2103078709,
				"element": "H" 
			},
			{
				"x": -2.0419213982,
				"y": 3.0077992892,
				"z": -0.7220192873,
				"element": "H" 
			},
			{
				"x": 0.3755599127,
				"y": 3.4584645686,
				"z": -1.4188207376,
				"element": "H" 
			},
			{
				"x": 0.0469708127,
				"y": 3.65080166,
				"z": 0.299087501,
				"element": "H" 
			},
			{
				"x": 3.0102054367,
				"y": 3.1589607732,
				"z": -0.2951345031,
				"element": "H" 
			},
			{
				"x": 4.5252770229,
				"y": 1.4523831092,
				"z": 0.6464384319,
				"element": "H" 
			},
			{
				"x": 0.1133265026,
				"y": -0.9957251949,
				"z": -1.5013115159,
				"element": "H" 
			},
			{
				"x": -1.3941849859,
				"y": -1.6137448934,
				"z": -0.7955897539,
				"element": "H" 
			},
			{
				"x": -2.7421378918,
				"y": 0.0507896912,
				"z": -1.7603386486,
				"element": "H" 
			},
			{
				"x": -1.5575422667,
				"y": -0.2644202953,
				"z": -3.0304919611,
				"element": "H" 
			},
			{
				"x": -1.6597492482,
				"y": 1.8399710874,
				"z": -4.0663775521,
				"element": "H" 
			},
			{
				"x": -1.4273212411,
				"y": 3.3157667403,
				"z": -3.1226301285,
				"element": "H" 
			},
			{
				"x": -2.9492731367,
				"y": 2.4053360037,
				"z": -2.9760374552,
				"element": "H" 
			}
		],
		 "valence_orbital": [ 
			{
				"type": "occ",
				"energy": -0.26678,
				"method": "rhf"
			},
			{
				"type": "occ",
				"energy": -0.23993,
				"method": "rhf"
			},
			{
				"type": "occ",
				"energy": -0.21789,
				"method": "rhf"
			},
			{
				"type": "occ",
				"energy": -0.20245,
				"method": "rhf"
			},
			{
				"type": "occ",
				"energy": -0.19843,
				"method": "rhf"
			},
			{
				"type": "unocc",
				"energy": 0.00574,
				"method": "rhf"
			},
			{
				"type": "unocc",
				"energy": 0.01907,
				"method": "rhf"
			},
			{
				"type": "unocc",
				"energy": 0.02287,
				"method": "rhf"
			},
			{
				"type": "unocc",
				"energy": 0.06328,
				"method": "rhf"
			},
			{
				"type": "unocc",
				"energy": 0.08916,
				"method": "rhf"
			}
		],
		"cosmo_sigma_profile": { 
			"-0.025": 0.0,
			"-0.024": 0.0,
			"-0.023": 0.0,
			"-0.022": 0.0,
			"-0.021": 0.0,
			"-0.02": 0.0,
			"-0.019": 0.0,
			"-0.018": 0.0,
			"-0.017": 0.0,
			"-0.016": 0.0203891464746,
			"-0.015": 0.702295318549,
			"-0.014": 0.636295130074,
			"-0.013": 0.917681409981,
			"-0.012": 0.882789213228,
			"-0.011": 0.461804521416,
			"-0.01": 0.809316718331,
			"-0.009": 0.390557109005,
			"-0.008": 0.783563828828,
			"-0.007": 1.56662817681,
			"-0.006": 2.67407028529,
			"-0.005": 15.6844963613,
			"-0.004": 28.7295174647,
			"-0.003": 40.3073755669,
			"-0.002": 37.469454348,
			"-0.001": 37.4319101535,
			"0.0": 33.5604863937,
			"0.001": 20.3302069664,
			"0.002": 15.9527204881,
			"0.003": 13.9378193206,
			"0.004": 12.4549380398,
			"0.005": 13.7417270595,
			"0.006": 11.809451945,
			"0.007": 6.8609935895,
			"0.008": 3.7954790275,
			"0.009": 3.35898625934,
			"0.01": 3.32681420146,
			"0.011": 3.39288246841,
			"0.012": 1.48594838343,
			"0.013": 2.04899801147,
			"0.014": 0.782180527348,
			"0.015": 0.111769697995,
			"0.016": 0.0,
			"0.017": 0.0,
			"0.018": 0.0,
			"0.019": 0.0,
			"0.02": 0.0,
			"0.021": 0.0,
			"0.022": 0.0,
			"0.023": 0.0,
			"0.024": 0.0,
			"0.025": 0.0
		}
	}
}
