{
	 "smiles": "CC1=NC(C)(C)CO1", 
	 "Tm": 387.15, 
	 "num_atms": 19, 
	 "gaussian": { 
		 "optdone": 1, 
		 "sigma_profile": "yes", 
		 "theory": "DFT", 
		 "functional": "B3LYP", 
		 "basiset": "6-31G**", 
		 "properties": { 
			 "R2extent": 1112.9093, 
			 "electric_dipole_moment_norm": 1.03067205745, 
			 "electric_quadrupole_moment_norm": 4.18822516706, 
			 "total_energy": -365.247982296, 
			 "HOMO_LUMO_gap": 0.27155, 
			 "cosmo_polarized_energy": -6.47, 
			 "cosmo_cavitation_energy": 21.23, 
			 "cosmo_dispersion_energy": -15.61, 
			 "cosmo_repulsion_energy": 1.31, 
			 "cosmo_total_nonelectrostatic_energy": 6.93, 
			 "SMD_solvation_energy": 1.8 
		},
		"coords": [
			{
				"x": 1.6473380022,
				"y": -1.0278578637,
				"z": 2.3350622153,
				"element": "C" 
			},
			{
				"x": 0.6383335515,
				"y": -0.2927283423,
				"z": 1.5163207816,
				"element": "C" 
			},
			{
				"x": 0.4923648899,
				"y": -0.3567847733,
				"z": 0.253450357,
				"element": "N" 
			},
			{
				"x": -0.6285145215,
				"y": 0.53932715,
				"z": -0.1081836138,
				"element": "C" 
			},
			{
				"x": -1.7399266561,
				"y": -0.2860415511,
				"z": -0.772074383,
				"element": "C" 
			},
			{
				"x": -0.1173422002,
				"y": 1.6275378398,
				"z": -1.0627913034,
				"element": "C" 
			},
			{
				"x": -1.0799634444,
				"y": 1.1309053333,
				"z": 1.2668061963,
				"element": "C" 
			},
			{
				"x": -0.1962954795,
				"y": 0.5218179666,
				"z": 2.2333098775,
				"element": "O" 
			},
			{
				"x": 2.2807257155,
				"y": -0.3207182397,
				"z": 2.8802437006,
				"element": "H" 
			},
			{
				"x": 1.1465889453,
				"y": -1.6569337734,
				"z": 3.0780328894,
				"element": "H" 
			},
			{
				"x": 2.2647737975,
				"y": -1.6481040257,
				"z": 1.6858704281,
				"element": "H" 
			},
			{
				"x": -1.363532187,
				"y": -0.7693913048,
				"z": -1.6780480281,
				"element": "H" 
			},
			{
				"x": -2.5894434214,
				"y": 0.3501912114,
				"z": -1.0459894516,
				"element": "H" 
			},
			{
				"x": -2.0987923147,
				"y": -1.0678747959,
				"z": -0.0953212335,
				"element": "H" 
			},
			{
				"x": 0.2825407085,
				"y": 1.1749890565,
				"z": -1.9745994565,
				"element": "H" 
			},
			{
				"x": 0.6828974906,
				"y": 2.2091971323,
				"z": -0.5944679128,
				"element": "H" 
			},
			{
				"x": -0.9250670039,
				"y": 2.3138925537,
				"z": -1.3420627567,
				"element": "H" 
			},
			{
				"x": -0.9613495981,
				"y": 2.2177542351,
				"z": 1.3290103533,
				"element": "H" 
			},
			{
				"x": -2.1104362741,
				"y": 0.8715221912,
				"z": 1.5312313403,
				"element": "H" 
			}
		],
		 "valence_orbital": [ 
			{
				"type": "occ",
				"energy": -0.34661,
				"method": "rhf"
			},
			{
				"type": "occ",
				"energy": -0.33724,
				"method": "rhf"
			},
			{
				"type": "occ",
				"energy": -0.32222,
				"method": "rhf"
			},
			{
				"type": "occ",
				"energy": -0.26384,
				"method": "rhf"
			},
			{
				"type": "occ",
				"energy": -0.23986,
				"method": "rhf"
			},
			{
				"type": "unocc",
				"energy": 0.03169,
				"method": "rhf"
			},
			{
				"type": "unocc",
				"energy": 0.09079,
				"method": "rhf"
			},
			{
				"type": "unocc",
				"energy": 0.10519,
				"method": "rhf"
			},
			{
				"type": "unocc",
				"energy": 0.12905,
				"method": "rhf"
			},
			{
				"type": "unocc",
				"energy": 0.14388,
				"method": "rhf"
			}
		],
		"cosmo_sigma_profile": { 
			"-0.025": 0.0,
			"-0.024": 0.0,
			"-0.023": 0.0,
			"-0.022": 0.0,
			"-0.021": 0.0,
			"-0.02": 0.0,
			"-0.019": 0.0,
			"-0.018": 0.0,
			"-0.017": 0.0,
			"-0.016": 0.0,
			"-0.015": 0.0,
			"-0.014": 0.0,
			"-0.013": 0.0,
			"-0.012": 0.0,
			"-0.011": 0.0,
			"-0.01": 0.0,
			"-0.009": 0.0,
			"-0.008": 0.0,
			"-0.007": 0.0,
			"-0.006": 2.38665847777,
			"-0.005": 9.97776156568,
			"-0.004": 18.1269144746,
			"-0.003": 26.2743385552,
			"-0.002": 19.9760529145,
			"-0.001": 20.4183660776,
			"0.0": 17.4233597749,
			"0.001": 14.9538313328,
			"0.002": 4.93556984061,
			"0.003": 3.78776420598,
			"0.004": 3.33373214642,
			"0.005": 2.98367269587,
			"0.006": 2.71527694618,
			"0.007": 2.73426629897,
			"0.008": 2.03175510281,
			"0.009": 3.18354614307,
			"0.01": 2.47264857483,
			"0.011": 1.78473694297,
			"0.012": 1.42761036564,
			"0.013": 1.0358903365,
			"0.014": 0.859441151934,
			"0.015": 0.232651751666,
			"0.016": 1.07479960958,
			"0.017": 0.990540532603,
			"0.018": 0.31282077533,
			"0.019": 0.0,
			"0.02": 0.0,
			"0.021": 0.0,
			"0.022": 0.0,
			"0.023": 0.0,
			"0.024": 0.0,
			"0.025": 0.0
		}
	}
}
