{
	 "smiles": "CCCCCCCCCCCCC1=CC=CC=C1", 
	 "Tm": 276.15, 
	 "num_atms": 48, 
	 "gaussian": { 
		 "optdone": 1, 
		 "sigma_profile": "yes", 
		 "theory": "DFT", 
		 "functional": "B3LYP", 
		 "basiset": "6-31G**", 
		 "properties": { 
			 "R2extent": 7808.46, 
			 "electric_dipole_moment_norm": 0.281007651141, 
			 "electric_quadrupole_moment_norm": 4.17640390288, 
			 "total_energy": -704.028330351, 
			 "HOMO_LUMO_gap": 0.23816, 
			 "cosmo_polarized_energy": -3.51, 
			 "cosmo_cavitation_energy": 46.78, 
			 "cosmo_dispersion_energy": -30.88, 
			 "cosmo_repulsion_energy": 2.47, 
			 "cosmo_total_nonelectrostatic_energy": 18.36, 
			 "SMD_solvation_energy": 6.35 
		},
		"coords": [
			{
				"x": -2.6655317161,
				"y": -2.1361331718,
				"z": 2.2429190315,
				"element": "C" 
			},
			{
				"x": -3.7522066015,
				"y": -1.1053780097,
				"z": 1.90805269,
				"element": "C" 
			},
			{
				"x": -3.9659690838,
				"y": -0.0044094598,
				"z": 2.970374775,
				"element": "C" 
			},
			{
				"x": -3.1130636106,
				"y": 1.2680851789,
				"z": 2.8167731232,
				"element": "C" 
			},
			{
				"x": -1.595031474,
				"y": 1.0966968193,
				"z": 2.9681896419,
				"element": "C" 
			},
			{
				"x": -0.8477219375,
				"y": 2.4401153351,
				"z": 2.9847778579,
				"element": "C" 
			},
			{
				"x": 0.6866981042,
				"y": 2.3418941523,
				"z": 3.1347190635,
				"element": "C" 
			},
			{
				"x": 1.5295954948,
				"y": 2.261652202,
				"z": 1.8455191504,
				"element": "C" 
			},
			{
				"x": 1.3575589041,
				"y": 1.0028940223,
				"z": 0.9636355937,
				"element": "C" 
			},
			{
				"x": 0.3227087713,
				"y": 1.1175424154,
				"z": -0.1741975672,
				"element": "C" 
			},
			{
				"x": 0.7331108691,
				"y": 2.0334340667,
				"z": -1.3414481936,
				"element": "C" 
			},
			{
				"x": 1.8934754446,
				"y": 1.5078273522,
				"z": -2.2192076588,
				"element": "C" 
			},
			{
				"x": 1.5676655245,
				"y": 0.2370880462,
				"z": -2.9776832672,
				"element": "C" 
			},
			{
				"x": 0.7364304114,
				"y": 0.2759025353,
				"z": -4.1076016018,
				"element": "C" 
			},
			{
				"x": 0.4148190957,
				"y": -0.8880375402,
				"z": -4.805179885,
				"element": "C" 
			},
			{
				"x": 0.9214171638,
				"y": -2.1203294641,
				"z": -4.3850490488,
				"element": "C" 
			},
			{
				"x": 1.7515928184,
				"y": -2.1751795343,
				"z": -3.2652396788,
				"element": "C" 
			},
			{
				"x": 2.0704770704,
				"y": -1.00592618,
				"z": -2.5707600656,
				"element": "C" 
			},
			{
				"x": -2.8945205649,
				"y": -2.6503423795,
				"z": 3.183621126,
				"element": "H" 
			},
			{
				"x": -2.5925003568,
				"y": -2.898144439,
				"z": 1.4593282701,
				"element": "H" 
			},
			{
				"x": -1.6778520845,
				"y": -1.679433885,
				"z": 2.3517679813,
				"element": "H" 
			},
			{
				"x": -3.5331807854,
				"y": -0.636986043,
				"z": 0.9385343494,
				"element": "H" 
			},
			{
				"x": -4.6974877292,
				"y": -1.6451463309,
				"z": 1.7689932512,
				"element": "H" 
			},
			{
				"x": -5.0182409383,
				"y": 0.3060806619,
				"z": 2.9423922054,
				"element": "H" 
			},
			{
				"x": -3.8087892136,
				"y": -0.4314297719,
				"z": 3.9713516772,
				"element": "H" 
			},
			{
				"x": -3.3252222039,
				"y": 1.7201013702,
				"z": 1.8367525762,
				"element": "H" 
			},
			{
				"x": -3.4559001809,
				"y": 1.9999133643,
				"z": 3.5620697008,
				"element": "H" 
			},
			{
				"x": -1.3789432945,
				"y": 0.5615325582,
				"z": 3.9040654406,
				"element": "H" 
			},
			{
				"x": -1.2115941351,
				"y": 0.4645688844,
				"z": 2.1607738948,
				"element": "H" 
			},
			{
				"x": -1.2444567262,
				"y": 3.0291651686,
				"z": 3.8227489569,
				"element": "H" 
			},
			{
				"x": -1.0942095616,
				"y": 3.0144552306,
				"z": 2.0805464381,
				"element": "H" 
			},
			{
				"x": 0.9296591388,
				"y": 1.4825187213,
				"z": 3.7761900008,
				"element": "H" 
			},
			{
				"x": 1.0349041982,
				"y": 3.2259218081,
				"z": 3.6842530799,
				"element": "H" 
			},
			{
				"x": 1.3424139157,
				"y": 3.1623619148,
				"z": 1.244913882,
				"element": "H" 
			},
			{
				"x": 2.5814857183,
				"y": 2.3308395624,
				"z": 2.1507657519,
				"element": "H" 
			},
			{
				"x": 1.0961660024,
				"y": 0.150034257,
				"z": 1.6030450686,
				"element": "H" 
			},
			{
				"x": 2.3291473726,
				"y": 0.7437123935,
				"z": 0.5244285119,
				"element": "H" 
			},
			{
				"x": 0.116887861,
				"y": 0.1158398822,
				"z": -0.5714314118,
				"element": "H" 
			},
			{
				"x": -0.628070787,
				"y": 1.4832068833,
				"z": 0.2304912302,
				"element": "H" 
			},
			{
				"x": -0.141112373,
				"y": 2.1929379773,
				"z": -1.9853092402,
				"element": "H" 
			},
			{
				"x": 1.0107402045,
				"y": 3.024470058,
				"z": -0.9597383882,
				"element": "H" 
			},
			{
				"x": 2.7837716035,
				"y": 1.345396867,
				"z": -1.6010257679,
				"element": "H" 
			},
			{
				"x": 2.1603965841,
				"y": 2.2951645017,
				"z": -2.935433385,
				"element": "H" 
			},
			{
				"x": 0.3429486794,
				"y": 1.2316054974,
				"z": -4.4470869702,
				"element": "H" 
			},
			{
				"x": -0.2270950779,
				"y": -0.8333342885,
				"z": -5.6802755784,
				"element": "H" 
			},
			{
				"x": 0.6742362892,
				"y": -3.0276574158,
				"z": -4.9287889874,
				"element": "H" 
			},
			{
				"x": 2.1550901086,
				"y": -3.1274650089,
				"z": -2.9319194211,
				"element": "H" 
			},
			{
				"x": 2.7237030875,
				"y": -1.0575267653,
				"z": -1.7029182036,
				"element": "H" 
			}
		],
		 "valence_orbital": [ 
			{
				"type": "occ",
				"energy": -0.30385,
				"method": "rhf"
			},
			{
				"type": "occ",
				"energy": -0.29708,
				"method": "rhf"
			},
			{
				"type": "occ",
				"energy": -0.29024,
				"method": "rhf"
			},
			{
				"type": "occ",
				"energy": -0.24432,
				"method": "rhf"
			},
			{
				"type": "occ",
				"energy": -0.23573,
				"method": "rhf"
			},
			{
				"type": "unocc",
				"energy": 0.00243,
				"method": "rhf"
			},
			{
				"type": "unocc",
				"energy": 0.00531,
				"method": "rhf"
			},
			{
				"type": "unocc",
				"energy": 0.07511,
				"method": "rhf"
			},
			{
				"type": "unocc",
				"energy": 0.08698,
				"method": "rhf"
			},
			{
				"type": "unocc",
				"energy": 0.09354,
				"method": "rhf"
			}
		],
		"cosmo_sigma_profile": { 
			"-0.025": 0.0,
			"-0.024": 0.0,
			"-0.023": 0.0,
			"-0.022": 0.0,
			"-0.021": 0.0,
			"-0.02": 0.0,
			"-0.019": 0.0,
			"-0.018": 0.0,
			"-0.017": 0.0,
			"-0.016": 0.0,
			"-0.015": 0.0,
			"-0.014": 0.0,
			"-0.013": 0.0,
			"-0.012": 0.0,
			"-0.011": 0.0,
			"-0.01": 0.0,
			"-0.009": 0.0,
			"-0.008": 0.0,
			"-0.007": 0.0,
			"-0.006": 0.732854103163,
			"-0.005": 7.8535904482,
			"-0.004": 11.6056137619,
			"-0.003": 21.5086755589,
			"-0.002": 39.7276650761,
			"-0.001": 70.0381316295,
			"0.0": 77.4752744603,
			"0.001": 63.1435144346,
			"0.002": 32.5112370245,
			"0.003": 8.85924832045,
			"0.004": 7.91265686939,
			"0.005": 7.77641378134,
			"0.006": 8.08582149419,
			"0.007": 4.30740927252,
			"0.008": 0.0137505799688,
			"0.009": 0.0,
			"0.01": 0.0,
			"0.011": 0.0,
			"0.012": 0.0,
			"0.013": 0.0,
			"0.014": 0.0,
			"0.015": 0.0,
			"0.016": 0.0,
			"0.017": 0.0,
			"0.018": 0.0,
			"0.019": 0.0,
			"0.02": 0.0,
			"0.021": 0.0,
			"0.022": 0.0,
			"0.023": 0.0,
			"0.024": 0.0,
			"0.025": 0.0
		}
	}
}
