{
	 "smiles": "O=C1C=C(OC2=C1C=CC=C2)C1=CC=CC=C1", 
	 "Tm": 371.65, 
	 "num_atms": 27, 
	 "gaussian": { 
		 "optdone": 1, 
		 "sigma_profile": "yes", 
		 "theory": "DFT", 
		 "functional": "B3LYP", 
		 "basiset": "6-31G**", 
		 "properties": { 
			 "R2extent": 4728.291, 
			 "electric_dipole_moment_norm": 4.17827659209, 
			 "electric_quadrupole_moment_norm": 18.4167520953, 
			 "total_energy": -728.072636051, 
			 "HOMO_LUMO_gap": 0.16719, 
			 "cosmo_polarized_energy": -11.39, 
			 "cosmo_cavitation_energy": 31.58, 
			 "cosmo_dispersion_energy": -23.31, 
			 "cosmo_repulsion_energy": 1.75, 
			 "cosmo_total_nonelectrostatic_energy": 10.02, 
			 "SMD_solvation_energy": 6.06 
		},
		"coords": [
			{
				"x": -0.2375622354,
				"y": -1.6435210942,
				"z": -3.1342636061,
				"element": "O" 
			},
			{
				"x": -0.1660162514,
				"y": -1.3483863872,
				"z": -1.9412066475,
				"element": "C" 
			},
			{
				"x": -0.7702876695,
				"y": -0.1496545651,
				"z": -1.3722546497,
				"element": "C" 
			},
			{
				"x": -0.6683257141,
				"y": 0.1648584293,
				"z": -0.0545361213,
				"element": "C" 
			},
			{
				"x": -0.0085067537,
				"y": -0.6387303662,
				"z": 0.82925776,
				"element": "O" 
			},
			{
				"x": 0.579664509,
				"y": -1.8004613641,
				"z": 0.3957103868,
				"element": "C" 
			},
			{
				"x": 0.5385382282,
				"y": -2.1925802275,
				"z": -0.9480561617,
				"element": "C" 
			},
			{
				"x": 1.1674453998,
				"y": -3.3920539664,
				"z": -1.3181439596,
				"element": "C" 
			},
			{
				"x": 1.8166076577,
				"y": -4.1687507501,
				"z": -0.3697510629,
				"element": "C" 
			},
			{
				"x": 1.8460779855,
				"y": -3.7544950206,
				"z": 0.9725565171,
				"element": "C" 
			},
			{
				"x": 1.2306803622,
				"y": -2.5720487059,
				"z": 1.3636907312,
				"element": "C" 
			},
			{
				"x": -1.2423619172,
				"y": 1.3560540509,
				"z": 0.6005150324,
				"element": "C" 
			},
			{
				"x": -1.4451288607,
				"y": 1.3750333404,
				"z": 1.9909745278,
				"element": "C" 
			},
			{
				"x": -2.0045722743,
				"y": 2.4921052946,
				"z": 2.6079481476,
				"element": "C" 
			},
			{
				"x": -2.3647063003,
				"y": 3.6082357952,
				"z": 1.8510488801,
				"element": "C" 
			},
			{
				"x": -2.1569414928,
				"y": 3.6026454445,
				"z": 0.4695311949,
				"element": "C" 
			},
			{
				"x": -1.598163831,
				"y": 2.4890486905,
				"z": -0.1514537181,
				"element": "C" 
			},
			{
				"x": -1.3307894546,
				"y": 0.4889626713,
				"z": -2.042763367,
				"element": "H" 
			},
			{
				"x": 1.1215235367,
				"y": -3.6770046682,
				"z": -2.3642573874,
				"element": "H" 
			},
			{
				"x": 2.3020466974,
				"y": -5.0951868752,
				"z": -0.6604708082,
				"element": "H" 
			},
			{
				"x": 2.3545006679,
				"y": -4.3614142988,
				"z": 1.7158921327,
				"element": "H" 
			},
			{
				"x": 1.242798619,
				"y": -2.2327716042,
				"z": 2.3939957243,
				"element": "H" 
			},
			{
				"x": -1.1689043658,
				"y": 0.5088731903,
				"z": 2.5807662636,
				"element": "H" 
			},
			{
				"x": -2.1608043754,
				"y": 2.4891049442,
				"z": 3.6826754817,
				"element": "H" 
			},
			{
				"x": -2.7988332735,
				"y": 4.4788406036,
				"z": 2.3337282688,
				"element": "H" 
			},
			{
				"x": -2.4217857905,
				"y": 4.4716926408,
				"z": -0.1252824986,
				"element": "H" 
			},
			{
				"x": -1.417393103,
				"y": 2.5083047979,
				"z": -1.2209510609,
				"element": "H" 
			}
		],
		 "valence_orbital": [ 
			{
				"type": "occ",
				"energy": -0.26489,
				"method": "rhf"
			},
			{
				"type": "occ",
				"energy": -0.26211,
				"method": "rhf"
			},
			{
				"type": "occ",
				"energy": -0.24921,
				"method": "rhf"
			},
			{
				"type": "occ",
				"energy": -0.23725,
				"method": "rhf"
			},
			{
				"type": "occ",
				"energy": -0.23335,
				"method": "rhf"
			},
			{
				"type": "unocc",
				"energy": -0.06616,
				"method": "rhf"
			},
			{
				"type": "unocc",
				"energy": -0.03108,
				"method": "rhf"
			},
			{
				"type": "unocc",
				"energy": -0.01421,
				"method": "rhf"
			},
			{
				"type": "unocc",
				"energy": -0.00556,
				"method": "rhf"
			},
			{
				"type": "unocc",
				"energy": 0.02531,
				"method": "rhf"
			}
		],
		"cosmo_sigma_profile": { 
			"-0.025": 0.0,
			"-0.024": 0.0,
			"-0.023": 0.0,
			"-0.022": 0.0,
			"-0.021": 0.0,
			"-0.02": 0.0,
			"-0.019": 0.0,
			"-0.018": 0.0,
			"-0.017": 0.0,
			"-0.016": 0.0,
			"-0.015": 0.0,
			"-0.014": 0.0,
			"-0.013": 0.0,
			"-0.012": 0.0,
			"-0.011": 0.0,
			"-0.01": 0.0,
			"-0.009": 0.314908602035,
			"-0.008": 2.43649218612,
			"-0.007": 7.30912105644,
			"-0.006": 17.7898115226,
			"-0.005": 19.8902658508,
			"-0.004": 18.9886584224,
			"-0.003": 16.2552515854,
			"-0.002": 16.7926496589,
			"-0.001": 19.4048158723,
			"0.0": 21.9052386131,
			"0.001": 24.9774399955,
			"0.002": 23.6201366777,
			"0.003": 22.8023462336,
			"0.004": 18.1818698769,
			"0.005": 4.2800285855,
			"0.006": 1.43392891122,
			"0.007": 1.16615007366,
			"0.008": 1.5682256142,
			"0.009": 1.51980036229,
			"0.01": 2.01226540876,
			"0.011": 1.34818363629,
			"0.012": 2.2564807688,
			"0.013": 4.82772561358,
			"0.014": 3.31265928276,
			"0.015": 0.629339221115,
			"0.016": 0.0,
			"0.017": 0.0,
			"0.018": 0.0,
			"0.019": 0.0,
			"0.02": 0.0,
			"0.021": 0.0,
			"0.022": 0.0,
			"0.023": 0.0,
			"0.024": 0.0,
			"0.025": 0.0
		}
	}
}
