{
	 "smiles": "NC(C1=CC=CC=C1)C1=CC=NC=C1", 
	 "Tm": 314.15, 
	 "num_atms": 26, 
	 "gaussian": { 
		 "optdone": 1, 
		 "sigma_profile": "yes", 
		 "theory": "DFT", 
		 "functional": "B3LYP", 
		 "basiset": "6-31G**", 
		 "properties": { 
			 "R2extent": 3244.629, 
			 "electric_dipole_moment_norm": 3.73631112864, 
			 "electric_quadrupole_moment_norm": 5.59570768625, 
			 "total_energy": -574.003742425, 
			 "HOMO_LUMO_gap": 0.21946, 
			 "cosmo_polarized_energy": -10.73, 
			 "cosmo_cavitation_energy": 29.39, 
			 "cosmo_dispersion_energy": -20.97, 
			 "cosmo_repulsion_energy": 1.65, 
			 "cosmo_total_nonelectrostatic_energy": 10.08, 
			 "SMD_solvation_energy": 2.78 
		},
		"coords": [
			{
				"x": -2.5877274872,
				"y": 0.5656284203,
				"z": 0.7365313088,
				"element": "N" 
			},
			{
				"x": -1.215173207,
				"y": 0.030940601,
				"z": 0.6876374563,
				"element": "C" 
			},
			{
				"x": -1.1506472249,
				"y": -1.433904693,
				"z": 0.2549648229,
				"element": "C" 
			},
			{
				"x": -0.8701122295,
				"y": -2.4384016754,
				"z": 1.1880778362,
				"element": "C" 
			},
			{
				"x": -0.8780808568,
				"y": -3.7857146622,
				"z": 0.8169414585,
				"element": "C" 
			},
			{
				"x": -1.1683140848,
				"y": -4.1456159746,
				"z": -0.4986627591,
				"element": "C" 
			},
			{
				"x": -1.4463384466,
				"y": -3.1512100614,
				"z": -1.4413086018,
				"element": "C" 
			},
			{
				"x": -1.4355464599,
				"y": -1.8087634007,
				"z": -1.0673762507,
				"element": "C" 
			},
			{
				"x": -0.3162358833,
				"y": 0.9475551143,
				"z": -0.1424507899,
				"element": "C" 
			},
			{
				"x": -0.6922397807,
				"y": 2.2592754023,
				"z": -0.4475966244,
				"element": "C" 
			},
			{
				"x": 0.1863300842,
				"y": 3.0667607107,
				"z": -1.1722151772,
				"element": "C" 
			},
			{
				"x": 1.3915573302,
				"y": 2.6712585657,
				"z": -1.5992880424,
				"element": "N" 
			},
			{
				"x": 1.7488346151,
				"y": 1.4161865985,
				"z": -1.2950690792,
				"element": "C" 
			},
			{
				"x": 0.9448416871,
				"y": 0.5271219746,
				"z": -0.5836592142,
				"element": "C" 
			},
			{
				"x": -3.1359717125,
				"y": 0.0035173348,
				"z": 1.3833533224,
				"element": "H" 
			},
			{
				"x": -3.0270613357,
				"y": 0.4495643077,
				"z": -0.1754316692,
				"element": "H" 
			},
			{
				"x": -0.8394636361,
				"y": 0.0793053443,
				"z": 1.7193477372,
				"element": "H" 
			},
			{
				"x": -0.6431309107,
				"y": -2.1642932326,
				"z": 2.2160968803,
				"element": "H" 
			},
			{
				"x": -0.6560270892,
				"y": -4.550648309,
				"z": 1.5557591689,
				"element": "H" 
			},
			{
				"x": -1.1746042032,
				"y": -5.1916735486,
				"z": -0.7908940039,
				"element": "H" 
			},
			{
				"x": -1.6663313652,
				"y": -3.4232413838,
				"z": -2.469876785,
				"element": "H" 
			},
			{
				"x": -1.6379495598,
				"y": -1.0418389598,
				"z": -1.8114112959,
				"element": "H" 
			},
			{
				"x": -1.6513256039,
				"y": 2.6387074021,
				"z": -0.1147240976,
				"element": "H" 
			},
			{
				"x": -0.0969923925,
				"y": 4.0887505,
				"z": -1.4204087721,
				"element": "H" 
			},
			{
				"x": 2.731439274,
				"y": 1.1004965893,
				"z": -1.6426691576,
				"element": "H" 
			},
			{
				"x": 1.2969704789,
				"y": -0.4798629644,
				"z": -0.3833676713,
				"element": "H" 
			}
		],
		 "valence_orbital": [ 
			{
				"type": "occ",
				"energy": -0.26211,
				"method": "rhf"
			},
			{
				"type": "occ",
				"energy": -0.25795,
				"method": "rhf"
			},
			{
				"type": "occ",
				"energy": -0.25266,
				"method": "rhf"
			},
			{
				"type": "occ",
				"energy": -0.24612,
				"method": "rhf"
			},
			{
				"type": "occ",
				"energy": -0.23782,
				"method": "rhf"
			},
			{
				"type": "unocc",
				"energy": -0.01836,
				"method": "rhf"
			},
			{
				"type": "unocc",
				"energy": -0.01336,
				"method": "rhf"
			},
			{
				"type": "unocc",
				"energy": -0.0097,
				"method": "rhf"
			},
			{
				"type": "unocc",
				"energy": 0.00116,
				"method": "rhf"
			},
			{
				"type": "unocc",
				"energy": 0.08354,
				"method": "rhf"
			}
		],
		"cosmo_sigma_profile": { 
			"-0.025": 0.0,
			"-0.024": 0.0,
			"-0.023": 0.0,
			"-0.022": 0.0,
			"-0.021": 0.0,
			"-0.02": 0.0,
			"-0.019": 0.0,
			"-0.018": 0.0,
			"-0.017": 0.0,
			"-0.016": 0.0,
			"-0.015": 0.0,
			"-0.014": 0.0,
			"-0.013": 0.0,
			"-0.012": 0.0,
			"-0.011": 0.107489920422,
			"-0.01": 1.44627222776,
			"-0.009": 2.89459418708,
			"-0.008": 2.9277039031,
			"-0.007": 4.39840173638,
			"-0.006": 13.5006429241,
			"-0.005": 21.3849182592,
			"-0.004": 20.8778432107,
			"-0.003": 20.3097998561,
			"-0.002": 14.6113594001,
			"-0.001": 15.4873034571,
			"0.0": 12.8228183506,
			"0.001": 13.6235265103,
			"0.002": 16.8353604495,
			"0.003": 23.9068799071,
			"0.004": 11.8951193407,
			"0.005": 10.3251955022,
			"0.006": 8.24359863489,
			"0.007": 1.93655901826,
			"0.008": 2.46161313564,
			"0.009": 2.80856910556,
			"0.01": 1.52373162233,
			"0.011": 1.71841251168,
			"0.012": 1.34406706592,
			"0.013": 0.978137686521,
			"0.014": 2.32549184833,
			"0.015": 1.15289703092,
			"0.016": 1.33567826729,
			"0.017": 0.695399013905,
			"0.018": 0.0604953052739,
			"0.019": 0.0,
			"0.02": 0.0,
			"0.021": 0.0,
			"0.022": 0.0,
			"0.023": 0.0,
			"0.024": 0.0,
			"0.025": 0.0
		}
	}
}
