{
	 "smiles": "ClCC1=NC2=C(C=C(Cl)C=C2)C(=O)N1", 
	 "Tm": 523.15, 
	 "num_atms": 20, 
	 "gaussian": { 
		 "optdone": 1, 
		 "sigma_profile": "yes", 
		 "theory": "DFT", 
		 "functional": "B3LYP", 
		 "basiset": "6-31G**", 
		 "properties": { 
			 "R2extent": 4934.3417, 
			 "electric_dipole_moment_norm": 3.28416111815, 
			 "electric_quadrupole_moment_norm": 9.74844255817, 
			 "total_energy": -1451.72014096, 
			 "HOMO_LUMO_gap": 0.17912, 
			 "cosmo_polarized_energy": -12.37, 
			 "cosmo_cavitation_energy": 28.48, 
			 "cosmo_dispersion_energy": -21.49, 
			 "cosmo_repulsion_energy": 1.69, 
			 "cosmo_total_nonelectrostatic_energy": 8.68, 
			 "SMD_solvation_energy": 3.25 
		},
		"coords": [
			{
				"x": -1.5125943902,
				"y": -2.5695195716,
				"z": -3.6796660235,
				"element": "Cl" 
			},
			{
				"x": -1.6337552048,
				"y": -1.0142894842,
				"z": -2.7504996472,
				"element": "C" 
			},
			{
				"x": -0.894487398,
				"y": -1.0510473665,
				"z": -1.437988062,
				"element": "C" 
			},
			{
				"x": -0.2036614169,
				"y": -0.0102314811,
				"z": -1.1029534794,
				"element": "N" 
			},
			{
				"x": 0.3982718115,
				"y": -0.0240424094,
				"z": 0.1502433414,
				"element": "C" 
			},
			{
				"x": 0.289223512,
				"y": -1.120529642,
				"z": 1.0373508554,
				"element": "C" 
			},
			{
				"x": 0.9160454726,
				"y": -1.0992183084,
				"z": 2.2908861532,
				"element": "C" 
			},
			{
				"x": 1.6474933348,
				"y": 0.0194291673,
				"z": 2.6549923173,
				"element": "C" 
			},
			{
				"x": 2.4392585983,
				"y": 0.0719933977,
				"z": 4.2192465586,
				"element": "Cl" 
			},
			{
				"x": 1.7697944623,
				"y": 1.1212514503,
				"z": 1.7907489326,
				"element": "C" 
			},
			{
				"x": 1.1508773525,
				"y": 1.0965294184,
				"z": 0.5514884823,
				"element": "C" 
			},
			{
				"x": -0.4854325523,
				"y": -2.3026449273,
				"z": 0.6320919766,
				"element": "C" 
			},
			{
				"x": -0.6512271293,
				"y": -3.3216919112,
				"z": 1.2833257066,
				"element": "O" 
			},
			{
				"x": -1.0559186614,
				"y": -2.1574898294,
				"z": -0.6419319149,
				"element": "N" 
			},
			{
				"x": -1.2153695387,
				"y": -0.2174747934,
				"z": -3.3611541784,
				"element": "H" 
			},
			{
				"x": -2.7007373271,
				"y": -0.8398173497,
				"z": -2.5920507606,
				"element": "H" 
			},
			{
				"x": 0.8150335831,
				"y": -1.9567014188,
				"z": 2.9460605334,
				"element": "H" 
			},
			{
				"x": 2.349233048,
				"y": 1.9836299568,
				"z": 2.1016909749,
				"element": "H" 
			},
			{
				"x": 1.2321121413,
				"y": 1.9346695771,
				"z": -0.1322279289,
				"element": "H" 
			},
			{
				"x": -1.5578596978,
				"y": -2.9656044746,
				"z": -0.9939538373,
				"element": "H" 
			}
		],
		 "valence_orbital": [ 
			{
				"type": "occ",
				"energy": -0.29728,
				"method": "rhf"
			},
			{
				"type": "occ",
				"energy": -0.29565,
				"method": "rhf"
			},
			{
				"type": "occ",
				"energy": -0.27971,
				"method": "rhf"
			},
			{
				"type": "occ",
				"energy": -0.2775,
				"method": "rhf"
			},
			{
				"type": "occ",
				"energy": -0.24119,
				"method": "rhf"
			},
			{
				"type": "unocc",
				"energy": -0.06207,
				"method": "rhf"
			},
			{
				"type": "unocc",
				"energy": -0.05744,
				"method": "rhf"
			},
			{
				"type": "unocc",
				"energy": -0.00138,
				"method": "rhf"
			},
			{
				"type": "unocc",
				"energy": 0.01636,
				"method": "rhf"
			},
			{
				"type": "unocc",
				"energy": 0.02226,
				"method": "rhf"
			}
		],
		"cosmo_sigma_profile": { 
			"-0.025": 0.0,
			"-0.024": 0.0,
			"-0.023": 0.0,
			"-0.022": 0.0,
			"-0.021": 0.0,
			"-0.02": 0.0,
			"-0.019": 0.0,
			"-0.018": 0.0,
			"-0.017": 0.0,
			"-0.016": 0.0,
			"-0.015": 0.393979150787,
			"-0.014": 0.951817579262,
			"-0.013": 0.703359089444,
			"-0.012": 1.16476633171,
			"-0.011": 0.852241102813,
			"-0.01": 3.35375984864,
			"-0.009": 4.76299673648,
			"-0.008": 6.2881599469,
			"-0.007": 9.16674980367,
			"-0.006": 10.1728292416,
			"-0.005": 9.75951129666,
			"-0.004": 11.0405934199,
			"-0.003": 11.2183865562,
			"-0.002": 14.1178190771,
			"-0.001": 15.7992802928,
			"0.0": 21.7109503633,
			"0.001": 27.2178313704,
			"0.002": 17.7192065429,
			"0.003": 13.5634652993,
			"0.004": 17.9068195448,
			"0.005": 11.8123435812,
			"0.006": 3.7600621079,
			"0.007": 2.1991955256,
			"0.008": 1.28161563665,
			"0.009": 2.42421325718,
			"0.01": 2.53664465049,
			"0.011": 3.21701899807,
			"0.012": 6.17958714487,
			"0.013": 2.43247637173,
			"0.014": 0.00166251264199,
			"0.015": 0.0,
			"0.016": 0.0,
			"0.017": 0.0,
			"0.018": 0.0,
			"0.019": 0.0,
			"0.02": 0.0,
			"0.021": 0.0,
			"0.022": 0.0,
			"0.023": 0.0,
			"0.024": 0.0,
			"0.025": 0.0
		}
	}
}
