{
	 "smiles": "CCC1=CC=C(C=C1)C1=CC=C(C=C1)C#N", 
	 "Tm": 348.15, 
	 "num_atms": 29, 
	 "gaussian": { 
		 "optdone": 1, 
		 "sigma_profile": "yes", 
		 "theory": "DFT", 
		 "functional": "B3LYP", 
		 "basiset": "6-31G**", 
		 "properties": { 
			 "R2extent": 5823.2729, 
			 "electric_dipole_moment_norm": 5.82109439453, 
			 "electric_quadrupole_moment_norm": 24.3359396192, 
			 "total_energy": -634.18737199, 
			 "HOMO_LUMO_gap": 0.17368, 
			 "cosmo_polarized_energy": -9.94, 
			 "cosmo_cavitation_energy": 34.0, 
			 "cosmo_dispersion_energy": -23.82, 
			 "cosmo_repulsion_energy": 1.85, 
			 "cosmo_total_nonelectrostatic_energy": 12.03, 
			 "SMD_solvation_energy": 6.89 
		},
		"coords": [
			{
				"x": 4.2408188908,
				"y": -1.2205734754,
				"z": 3.2691062419,
				"element": "C" 
			},
			{
				"x": 3.8150738691,
				"y": 0.1189859082,
				"z": 2.6402794902,
				"element": "C" 
			},
			{
				"x": 2.6543478897,
				"y": -0.0259575322,
				"z": 1.6801903357,
				"element": "C" 
			},
			{
				"x": 1.3293295175,
				"y": 0.0699162048,
				"z": 2.1265363134,
				"element": "C" 
			},
			{
				"x": 0.2585130219,
				"y": -0.0991829389,
				"z": 1.2524315133,
				"element": "C" 
			},
			{
				"x": 0.4732204662,
				"y": -0.3737747315,
				"z": -0.1086635485,
				"element": "C" 
			},
			{
				"x": 1.8014545155,
				"y": -0.4695041306,
				"z": -0.556875214,
				"element": "C" 
			},
			{
				"x": 2.8679553375,
				"y": -0.2969887364,
				"z": 0.3218066422,
				"element": "C" 
			},
			{
				"x": -0.6645200993,
				"y": -0.5518532235,
				"z": -1.0427701078,
				"element": "C" 
			},
			{
				"x": -0.6051091476,
				"y": -1.4959083056,
				"z": -2.0844310515,
				"element": "C" 
			},
			{
				"x": -1.667000212,
				"y": -1.6673826427,
				"z": -2.9640581882,
				"element": "C" 
			},
			{
				"x": -2.8302554503,
				"y": -0.8922041662,
				"z": -2.8209527932,
				"element": "C" 
			},
			{
				"x": -2.9057147185,
				"y": 0.0539753527,
				"z": -1.7848304034,
				"element": "C" 
			},
			{
				"x": -1.8354491146,
				"y": 0.217614218,
				"z": -0.9138779195,
				"element": "C" 
			},
			{
				"x": -3.9297441017,
				"y": -1.0650548261,
				"z": -3.723599162,
				"element": "C" 
			},
			{
				"x": -4.8225435008,
				"y": -1.2055241436,
				"z": -4.4566012087,
				"element": "N" 
			},
			{
				"x": 3.4152248248,
				"y": -1.6710933652,
				"z": 3.8294326229,
				"element": "H" 
			},
			{
				"x": 5.0813845389,
				"y": -1.0798192903,
				"z": 3.9564765703,
				"element": "H" 
			},
			{
				"x": 4.5475469376,
				"y": -1.9356056958,
				"z": 2.4989133277,
				"element": "H" 
			},
			{
				"x": 4.6710015954,
				"y": 0.5585146719,
				"z": 2.1144436986,
				"element": "H" 
			},
			{
				"x": 3.544517819,
				"y": 0.8217094975,
				"z": 3.4372982024,
				"element": "H" 
			},
			{
				"x": 1.1331388831,
				"y": 0.2762480659,
				"z": 3.1760811995,
				"element": "H" 
			},
			{
				"x": -0.7564375642,
				"y": -0.0416773028,
				"z": 1.6348047727,
				"element": "H" 
			},
			{
				"x": 2.0009738668,
				"y": -0.6474669797,
				"z": -1.6095659814,
				"element": "H" 
			},
			{
				"x": 3.8856114739,
				"y": -0.3614058138,
				"z": -0.0561040243,
				"element": "H" 
			},
			{
				"x": 0.2760930361,
				"y": -2.1207553536,
				"z": -2.1889252569,
				"element": "H" 
			},
			{
				"x": -1.6091707693,
				"y": -2.405199197,
				"z": -3.7574284627,
				"element": "H" 
			},
			{
				"x": -3.7987979388,
				"y": 0.6606062781,
				"z": -1.6773388996,
				"element": "H" 
			},
			{
				"x": -1.8957638668,
				"y": 0.9716616538,
				"z": -0.1356787091,
				"element": "H" 
			}
		],
		 "valence_orbital": [ 
			{
				"type": "occ",
				"energy": -0.32579,
				"method": "rhf"
			},
			{
				"type": "occ",
				"energy": -0.27823,
				"method": "rhf"
			},
			{
				"type": "occ",
				"energy": -0.27357,
				"method": "rhf"
			},
			{
				"type": "occ",
				"energy": -0.26035,
				"method": "rhf"
			},
			{
				"type": "occ",
				"energy": -0.23328,
				"method": "rhf"
			},
			{
				"type": "unocc",
				"energy": -0.0596,
				"method": "rhf"
			},
			{
				"type": "unocc",
				"energy": -0.02329,
				"method": "rhf"
			},
			{
				"type": "unocc",
				"energy": -0.01204,
				"method": "rhf"
			},
			{
				"type": "unocc",
				"energy": 0.00058,
				"method": "rhf"
			},
			{
				"type": "unocc",
				"energy": 0.04025,
				"method": "rhf"
			}
		],
		"cosmo_sigma_profile": { 
			"-0.025": 0.0,
			"-0.024": 0.0,
			"-0.023": 0.0,
			"-0.022": 0.0,
			"-0.021": 0.0,
			"-0.02": 0.0,
			"-0.019": 0.0,
			"-0.018": 0.0,
			"-0.017": 0.0,
			"-0.016": 0.0,
			"-0.015": 0.0,
			"-0.014": 0.0,
			"-0.013": 0.0,
			"-0.012": 0.0,
			"-0.011": 0.0,
			"-0.01": 0.0,
			"-0.009": 0.0,
			"-0.008": 2.0555523481,
			"-0.007": 6.99090137576,
			"-0.006": 14.4742445279,
			"-0.005": 16.6913708787,
			"-0.004": 17.9812553355,
			"-0.003": 23.5363374609,
			"-0.002": 23.4842202948,
			"-0.001": 27.4695193109,
			"0.0": 26.1473355791,
			"0.001": 26.8755311878,
			"0.002": 22.4994176493,
			"0.003": 17.2899544837,
			"0.004": 10.0291536455,
			"0.005": 11.4515932928,
			"0.006": 5.06347216511,
			"0.007": 2.84190373993,
			"0.008": 3.26682674424,
			"0.009": 3.64100974342,
			"0.01": 3.06541371459,
			"0.011": 3.07024204974,
			"0.012": 2.36461996407,
			"0.013": 1.80840803273,
			"0.014": 0.173112198515,
			"0.015": 0.0,
			"0.016": 0.0,
			"0.017": 0.0,
			"0.018": 0.0,
			"0.019": 0.0,
			"0.02": 0.0,
			"0.021": 0.0,
			"0.022": 0.0,
			"0.023": 0.0,
			"0.024": 0.0,
			"0.025": 0.0
		}
	}
}
