{
	 "smiles": "C[C@](N)(CC1=CC=C(O)C(O)=C1)C(O)=O", 
	 "Tm": 573.15, 
	 "num_atms": 28, 
	 "gaussian": { 
		 "optdone": 1, 
		 "sigma_profile": "yes", 
		 "theory": "DFT", 
		 "functional": "B3LYP", 
		 "basiset": "6-31G**", 
		 "properties": { 
			 "R2extent": 3822.6029, 
			 "electric_dipole_moment_norm": 2.86181437728, 
			 "electric_quadrupole_moment_norm": 9.48921386154, 
			 "total_energy": -744.559435953, 
			 "HOMO_LUMO_gap": 0.20611, 
			 "cosmo_polarized_energy": -17.94, 
			 "cosmo_cavitation_energy": 31.24, 
			 "cosmo_dispersion_energy": -22.08, 
			 "cosmo_repulsion_energy": 1.74, 
			 "cosmo_total_nonelectrostatic_energy": 10.9, 
			 "SMD_solvation_energy": 6.0 
		},
		"coords": [
			{
				"x": 0.6636818402,
				"y": -2.7537710393,
				"z": 1.8600643846,
				"element": "C" 
			},
			{
				"x": 0.4055141636,
				"y": -1.5793759598,
				"z": 0.8943756249,
				"element": "C" 
			},
			{
				"x": 1.2951509758,
				"y": -0.4781473541,
				"z": 1.2555561933,
				"element": "N" 
			},
			{
				"x": -1.0729196817,
				"y": -1.1145148892,
				"z": 1.0300652587,
				"element": "C" 
			},
			{
				"x": -1.4412307549,
				"y": 0.0954490995,
				"z": 0.1966023861,
				"element": "C" 
			},
			{
				"x": -1.9499341463,
				"y": -0.0403445392,
				"z": -1.1013332535,
				"element": "C" 
			},
			{
				"x": -2.2773808367,
				"y": 1.0803600476,
				"z": -1.8688487627,
				"element": "C" 
			},
			{
				"x": -2.1037263561,
				"y": 2.3611965248,
				"z": -1.3520904969,
				"element": "C" 
			},
			{
				"x": -2.427562318,
				"y": 3.4564409464,
				"z": -2.0963717533,
				"element": "O" 
			},
			{
				"x": -1.5957366042,
				"y": 2.508089305,
				"z": -0.0498893587,
				"element": "C" 
			},
			{
				"x": -1.462252605,
				"y": 3.810786098,
				"z": 0.3786280816,
				"element": "O" 
			},
			{
				"x": -1.2697608695,
				"y": 1.3923497732,
				"z": 0.7123594435,
				"element": "C" 
			},
			{
				"x": 0.6053941538,
				"y": -2.1354559472,
				"z": -0.5316857574,
				"element": "C" 
			},
			{
				"x": 1.744991161,
				"y": -1.696566563,
				"z": -1.1194171818,
				"element": "O" 
			},
			{
				"x": -0.1419368663,
				"y": -2.9168541783,
				"z": -1.0825514516,
				"element": "O" 
			},
			{
				"x": 0.5033167095,
				"y": -2.4152891369,
				"z": 2.8870823505,
				"element": "H" 
			},
			{
				"x": -0.0036603267,
				"y": -3.5907934936,
				"z": 1.6416550035,
				"element": "H" 
			},
			{
				"x": 1.6970553749,
				"y": -3.1088218459,
				"z": 1.7759800577,
				"element": "H" 
			},
			{
				"x": 2.2632494548,
				"y": -0.7749935953,
				"z": 1.1603524414,
				"element": "H" 
			},
			{
				"x": 1.1703672619,
				"y": 0.288848947,
				"z": 0.5989865925,
				"element": "H" 
			},
			{
				"x": -1.2348547469,
				"y": -0.8980205178,
				"z": 2.0909787519,
				"element": "H" 
			},
			{
				"x": -1.7118531223,
				"y": -1.9588753865,
				"z": 0.7586472307,
				"element": "H" 
			},
			{
				"x": -2.0921793179,
				"y": -1.0331478875,
				"z": -1.5164519055,
				"element": "H" 
			},
			{
				"x": -2.6775842275,
				"y": 0.9772728618,
				"z": -2.8723230994,
				"element": "H" 
			},
			{
				"x": -2.2453587308,
				"y": 4.2388906458,
				"z": -1.5548771174,
				"element": "H" 
			},
			{
				"x": -1.1370170341,
				"y": 3.8230107266,
				"z": 1.2870416704,
				"element": "H" 
			},
			{
				"x": -0.8768330826,
				"y": 1.5235466893,
				"z": 1.7188588598,
				"element": "H" 
			},
			{
				"x": 1.7755605321,
				"y": -2.1283693315,
				"z": -1.990294193,
				"element": "H" 
			}
		],
		 "valence_orbital": [ 
			{
				"type": "occ",
				"energy": -0.31293,
				"method": "rhf"
			},
			{
				"type": "occ",
				"energy": -0.29643,
				"method": "rhf"
			},
			{
				"type": "occ",
				"energy": -0.23773,
				"method": "rhf"
			},
			{
				"type": "occ",
				"energy": -0.23488,
				"method": "rhf"
			},
			{
				"type": "occ",
				"energy": -0.20463,
				"method": "rhf"
			},
			{
				"type": "unocc",
				"energy": 0.00148,
				"method": "rhf"
			},
			{
				"type": "unocc",
				"energy": 0.0085,
				"method": "rhf"
			},
			{
				"type": "unocc",
				"energy": 0.01807,
				"method": "rhf"
			},
			{
				"type": "unocc",
				"energy": 0.05464,
				"method": "rhf"
			},
			{
				"type": "unocc",
				"energy": 0.06973,
				"method": "rhf"
			}
		],
		"cosmo_sigma_profile": { 
			"-0.025": 0.0,
			"-0.024": 0.0,
			"-0.023": 0.0,
			"-0.022": 0.0,
			"-0.021": 0.0,
			"-0.02": 0.0,
			"-0.019": 0.126876592469,
			"-0.018": 1.41811813389,
			"-0.017": 2.04394989227,
			"-0.016": 1.99770348085,
			"-0.015": 1.69014806323,
			"-0.014": 1.64122922248,
			"-0.013": 2.16403600768,
			"-0.012": 2.04438949022,
			"-0.011": 2.906481826,
			"-0.01": 2.82968389382,
			"-0.009": 2.81792330446,
			"-0.008": 4.38008203233,
			"-0.007": 4.65591483266,
			"-0.006": 6.71901109151,
			"-0.005": 8.4598187897,
			"-0.004": 15.0585853787,
			"-0.003": 16.7577505268,
			"-0.002": 18.7088295644,
			"-0.001": 18.3574913276,
			"0.0": 17.9244891698,
			"0.001": 12.7988351314,
			"0.002": 13.6094408414,
			"0.003": 15.2433454009,
			"0.004": 14.4019709585,
			"0.005": 13.2027566727,
			"0.006": 11.1188943557,
			"0.007": 5.43759395647,
			"0.008": 4.2681608674,
			"0.009": 4.65596767364,
			"0.01": 3.16639828806,
			"0.011": 5.2630946843,
			"0.012": 5.58686615053,
			"0.013": 1.1626316154,
			"0.014": 0.259580758725,
			"0.015": 0.421814143742,
			"0.016": 0.543044884649,
			"0.017": 0.508967916426,
			"0.018": 0.277522876317,
			"0.019": 0.0,
			"0.02": 0.0,
			"0.021": 0.0,
			"0.022": 0.0,
			"0.023": 0.0,
			"0.024": 0.0,
			"0.025": 0.0
		}
	}
}
