{
	 "smiles": "NC1=NC=C(C=C1)N1CCCC1=O", 
	 "Tm": 439.15, 
	 "num_atms": 24, 
	 "gaussian": { 
		 "optdone": 1, 
		 "sigma_profile": "yes", 
		 "theory": "DFT", 
		 "functional": "B3LYP", 
		 "basiset": "6-31G**", 
		 "properties": { 
			 "R2extent": 3146.0665, 
			 "electric_dipole_moment_norm": 4.85059863728, 
			 "electric_quadrupole_moment_norm": 14.3447954307, 
			 "total_energy": -589.087939865, 
			 "HOMO_LUMO_gap": 0.18073, 
			 "cosmo_polarized_energy": -16.8, 
			 "cosmo_cavitation_energy": 26.91, 
			 "cosmo_dispersion_energy": -20.43, 
			 "cosmo_repulsion_energy": 1.62, 
			 "cosmo_total_nonelectrostatic_energy": 8.1, 
			 "SMD_solvation_energy": 3.12 
		},
		"coords": [
			{
				"x": -2.3732365361,
				"y": -2.2074032996,
				"z": 1.7273347658,
				"element": "N" 
			},
			{
				"x": -1.2755496381,
				"y": -1.6397914057,
				"z": 1.0963044423,
				"element": "C" 
			},
			{
				"x": -1.0808904053,
				"y": -0.3301445886,
				"z": 1.3048470675,
				"element": "N" 
			},
			{
				"x": -0.0769778389,
				"y": 0.2876814405,
				"z": 0.676767642,
				"element": "C" 
			},
			{
				"x": 0.811389428,
				"y": -0.3675450981,
				"z": -0.1944577097,
				"element": "C" 
			},
			{
				"x": 0.6027732428,
				"y": -1.7420543574,
				"z": -0.3973829108,
				"element": "C" 
			},
			{
				"x": -0.4447682729,
				"y": -2.3868549725,
				"z": 0.2426392803,
				"element": "C" 
			},
			{
				"x": 1.8640642759,
				"y": 0.3060529328,
				"z": -0.8616183088,
				"element": "N" 
			},
			{
				"x": 2.6040719665,
				"y": -0.3315014646,
				"z": -1.9553684878,
				"element": "C" 
			},
			{
				"x": 3.4172567591,
				"y": 0.8212986892,
				"z": -2.5711408351,
				"element": "C" 
			},
			{
				"x": 3.6169238461,
				"y": 1.7839838973,
				"z": -1.3959647754,
				"element": "C" 
			},
			{
				"x": 2.4198757918,
				"y": 1.520899196,
				"z": -0.4840124687,
				"element": "C" 
			},
			{
				"x": 2.0382613775,
				"y": 2.2422261739,
				"z": 0.4226575466,
				"element": "O" 
			},
			{
				"x": -2.3097866488,
				"y": -3.1903926681,
				"z": 1.9487916978,
				"element": "H" 
			},
			{
				"x": -2.7355290141,
				"y": -1.6373961972,
				"z": 2.4797175208,
				"element": "H" 
			},
			{
				"x": 0.0492615354,
				"y": 1.3431303012,
				"z": 0.8811371225,
				"element": "H" 
			},
			{
				"x": 1.2546976143,
				"y": -2.3134766313,
				"z": -1.0489838939,
				"element": "H" 
			},
			{
				"x": -0.6213482312,
				"y": -3.4462757163,
				"z": 0.0820213676,
				"element": "H" 
			},
			{
				"x": 3.258993996,
				"y": -1.1268255812,
				"z": -1.5697855718,
				"element": "H" 
			},
			{
				"x": 1.9118091613,
				"y": -0.7866441546,
				"z": -2.6706943849,
				"element": "H" 
			},
			{
				"x": 2.8297276716,
				"y": 1.304937777,
				"z": -3.3578410101,
				"element": "H" 
			},
			{
				"x": 4.3501282883,
				"y": 0.4698200945,
				"z": -3.0183198917,
				"element": "H" 
			},
			{
				"x": 3.6560652797,
				"y": 2.8399797146,
				"z": -1.6708278533,
				"element": "H" 
			},
			{
				"x": 4.5287863511,
				"y": 1.5590959184,
				"z": -0.8283203514,
				"element": "H" 
			}
		],
		 "valence_orbital": [ 
			{
				"type": "occ",
				"energy": -0.27792,
				"method": "rhf"
			},
			{
				"type": "occ",
				"energy": -0.2645,
				"method": "rhf"
			},
			{
				"type": "occ",
				"energy": -0.25422,
				"method": "rhf"
			},
			{
				"type": "occ",
				"energy": -0.23992,
				"method": "rhf"
			},
			{
				"type": "occ",
				"energy": -0.19365,
				"method": "rhf"
			},
			{
				"type": "unocc",
				"energy": -0.01292,
				"method": "rhf"
			},
			{
				"type": "unocc",
				"energy": -0.00085,
				"method": "rhf"
			},
			{
				"type": "unocc",
				"energy": 0.04721,
				"method": "rhf"
			},
			{
				"type": "unocc",
				"energy": 0.07991,
				"method": "rhf"
			},
			{
				"type": "unocc",
				"energy": 0.08894,
				"method": "rhf"
			}
		],
		"cosmo_sigma_profile": { 
			"-0.025": 0.0,
			"-0.024": 0.0,
			"-0.023": 0.0,
			"-0.022": 0.0,
			"-0.021": 0.0,
			"-0.02": 0.0,
			"-0.019": 0.0,
			"-0.018": 0.0,
			"-0.017": 0.0,
			"-0.016": 0.0,
			"-0.015": 0.0,
			"-0.014": 0.0296365476126,
			"-0.013": 1.07017814254,
			"-0.012": 1.8149720895,
			"-0.011": 2.68829474299,
			"-0.01": 2.44740231478,
			"-0.009": 2.43207108585,
			"-0.008": 2.28271072279,
			"-0.007": 5.73695361379,
			"-0.006": 9.82520304175,
			"-0.005": 19.2119517869,
			"-0.004": 25.0524573099,
			"-0.003": 18.2226282946,
			"-0.002": 13.6750482403,
			"-0.001": 13.3110509417,
			"0.0": 8.71467517562,
			"0.001": 9.05863753395,
			"0.002": 10.1592479421,
			"0.003": 14.1688210514,
			"0.004": 9.90494007032,
			"0.005": 5.45787078951,
			"0.006": 4.8798951105,
			"0.007": 4.28107595298,
			"0.008": 3.84676703405,
			"0.009": 4.68369148759,
			"0.01": 3.00786280562,
			"0.011": 3.30115233776,
			"0.012": 4.0948207413,
			"0.013": 4.86460032584,
			"0.014": 3.04996292868,
			"0.015": 1.2625551475,
			"0.016": 0.465794165415,
			"0.017": 0.00751485586902,
			"0.018": 0.0,
			"0.019": 0.0,
			"0.02": 0.0,
			"0.021": 0.0,
			"0.022": 0.0,
			"0.023": 0.0,
			"0.024": 0.0,
			"0.025": 0.0
		}
	}
}
