{
	 "smiles": "CN(C(=S)OC1=CC=C2C3CCC(C3)C2=C1)C1=CC(C)=CC=C1", 
	 "Tm": 366.15, 
	 "num_atms": 44, 
	 "gaussian": { 
		 "optdone": 1, 
		 "sigma_profile": "yes", 
		 "theory": "DFT", 
		 "functional": "B3LYP", 
		 "basiset": "6-31G**", 
		 "properties": { 
			 "R2extent": 10576.7337, 
			 "electric_dipole_moment_norm": 3.42199139245, 
			 "electric_quadrupole_moment_norm": 18.4909749521, 
			 "total_energy": -1302.94825234, 
			 "HOMO_LUMO_gap": 0.18315, 
			 "cosmo_polarized_energy": -12.7, 
			 "cosmo_cavitation_energy": 47.52, 
			 "cosmo_dispersion_energy": -32.72, 
			 "cosmo_repulsion_energy": 2.51, 
			 "cosmo_total_nonelectrostatic_energy": 17.31, 
			 "SMD_solvation_energy": 6.74 
		},
		"coords": [
			{
				"x": 3.1844409649,
				"y": 1.0210620515,
				"z": -2.8544723802,
				"element": "C" 
			},
			{
				"x": 2.1160221315,
				"y": 1.0635965072,
				"z": -1.8498061701,
				"element": "N" 
			},
			{
				"x": 1.5777640954,
				"y": -0.1028698872,
				"z": -1.4033516498,
				"element": "C" 
			},
			{
				"x": 2.0716375071,
				"y": -1.6203321663,
				"z": -1.8844023949,
				"element": "S" 
			},
			{
				"x": 0.5707595389,
				"y": 0.1529033308,
				"z": -0.5270334502,
				"element": "O" 
			},
			{
				"x": -0.1299392696,
				"y": -0.8879716299,
				"z": 0.0926707875,
				"element": "C" 
			},
			{
				"x": -1.4168462483,
				"y": -1.1615644464,
				"z": -0.3578816321,
				"element": "C" 
			},
			{
				"x": -2.195464454,
				"y": -2.1216293011,
				"z": 0.3046883,
				"element": "C" 
			},
			{
				"x": -1.6626714727,
				"y": -2.7621502613,
				"z": 1.4145136349,
				"element": "C" 
			},
			{
				"x": -2.1892589553,
				"y": -3.8583087125,
				"z": 2.3221291248,
				"element": "C" 
			},
			{
				"x": -1.3900003405,
				"y": -5.1555861974,
				"z": 1.9697764972,
				"element": "C" 
			},
			{
				"x": 0.0574842749,
				"y": -4.8253121877,
				"z": 2.4593982681,
				"element": "C" 
			},
			{
				"x": -0.0841495158,
				"y": -3.3795410244,
				"z": 3.0388179623,
				"element": "C" 
			},
			{
				"x": -1.505636288,
				"y": -3.4587030127,
				"z": 3.6570948916,
				"element": "C" 
			},
			{
				"x": -0.3582699077,
				"y": -2.4657198067,
				"z": 1.8591572808,
				"element": "C" 
			},
			{
				"x": 0.4275437969,
				"y": -1.5306338534,
				"z": 1.2031319044,
				"element": "C" 
			},
			{
				"x": 1.6537183762,
				"y": 2.3547835146,
				"z": -1.4076538883,
				"element": "C" 
			},
			{
				"x": 1.0410573548,
				"y": 3.2106902293,
				"z": -2.3270475218,
				"element": "C" 
			},
			{
				"x": 0.6264174616,
				"y": 4.4942521678,
				"z": -1.9511380047,
				"element": "C" 
			},
			{
				"x": -0.0077487378,
				"y": 5.4250101704,
				"z": -2.9584542253,
				"element": "C" 
			},
			{
				"x": 0.8288721803,
				"y": 4.8964370934,
				"z": -0.6246544789,
				"element": "C" 
			},
			{
				"x": 1.4367064113,
				"y": 4.0419997862,
				"z": 0.2960980135,
				"element": "C" 
			},
			{
				"x": 1.8583546726,
				"y": 2.7709555401,
				"z": -0.0896505287,
				"element": "C" 
			},
			{
				"x": 3.5056430468,
				"y": 2.0446756796,
				"z": -3.0475879881,
				"element": "H" 
			},
			{
				"x": 2.8340705865,
				"y": 0.5574625762,
				"z": -3.7813501975,
				"element": "H" 
			},
			{
				"x": 4.0277746222,
				"y": 0.4321973011,
				"z": -2.4843924857,
				"element": "H" 
			},
			{
				"x": -1.8003002769,
				"y": -0.6204810154,
				"z": -1.2162388292,
				"element": "H" 
			},
			{
				"x": -3.1991499666,
				"y": -2.3431315415,
				"z": -0.0480896405,
				"element": "H" 
			},
			{
				"x": -3.2739457308,
				"y": -3.9862251307,
				"z": 2.3351368301,
				"element": "H" 
			},
			{
				"x": -1.4338119929,
				"y": -5.3828408647,
				"z": 0.9016436988,
				"element": "H" 
			},
			{
				"x": -1.8046478549,
				"y": -6.0130801427,
				"z": 2.5102089259,
				"element": "H" 
			},
			{
				"x": 0.3766208832,
				"y": -5.5168503141,
				"z": 3.2462054101,
				"element": "H" 
			},
			{
				"x": 0.7971637829,
				"y": -4.8698959139,
				"z": 1.6562656903,
				"element": "H" 
			},
			{
				"x": 0.7322528305,
				"y": -3.0757631829,
				"z": 3.6976315774,
				"element": "H" 
			},
			{
				"x": -1.5953955214,
				"y": -4.2255197859,
				"z": 4.4348206051,
				"element": "H" 
			},
			{
				"x": -1.8573434971,
				"y": -2.4996176188,
				"z": 4.0487303004,
				"element": "H" 
			},
			{
				"x": 1.4367035834,
				"y": -1.2903627727,
				"z": 1.5212920185,
				"element": "H" 
			},
			{
				"x": 0.8785752627,
				"y": 2.8655790557,
				"z": -3.3447051293,
				"element": "H" 
			},
			{
				"x": -0.7355018077,
				"y": 6.0901622482,
				"z": -2.4841814958,
				"element": "H" 
			},
			{
				"x": 0.7464379326,
				"y": 6.0594171925,
				"z": -3.440865736,
				"element": "H" 
			},
			{
				"x": -0.5207691842,
				"y": 4.8704923705,
				"z": -3.7496562477,
				"element": "H" 
			},
			{
				"x": 0.5057220142,
				"y": 5.8856051243,
				"z": -0.3105517825,
				"element": "H" 
			},
			{
				"x": 1.5863749727,
				"y": 4.3694709091,
				"z": 1.3208255638,
				"element": "H" 
			},
			{
				"x": 2.3349327378,
				"y": 2.1017379213,
				"z": 0.6182285717,
				"element": "H" 
			}
		],
		 "valence_orbital": [ 
			{
				"type": "occ",
				"energy": -0.24979,
				"method": "rhf"
			},
			{
				"type": "occ",
				"energy": -0.24113,
				"method": "rhf"
			},
			{
				"type": "occ",
				"energy": -0.22469,
				"method": "rhf"
			},
			{
				"type": "occ",
				"energy": -0.21648,
				"method": "rhf"
			},
			{
				"type": "occ",
				"energy": -0.20309,
				"method": "rhf"
			},
			{
				"type": "unocc",
				"energy": -0.01994,
				"method": "rhf"
			},
			{
				"type": "unocc",
				"energy": -0.00774,
				"method": "rhf"
			},
			{
				"type": "unocc",
				"energy": 0.00271,
				"method": "rhf"
			},
			{
				"type": "unocc",
				"energy": 0.0054,
				"method": "rhf"
			},
			{
				"type": "unocc",
				"energy": 0.00924,
				"method": "rhf"
			}
		],
		"cosmo_sigma_profile": { 
			"-0.025": 0.0,
			"-0.024": 0.0,
			"-0.023": 0.0,
			"-0.022": 0.0,
			"-0.021": 0.0,
			"-0.02": 0.0,
			"-0.019": 0.0,
			"-0.018": 0.0,
			"-0.017": 0.0,
			"-0.016": 0.0,
			"-0.015": 0.0,
			"-0.014": 0.0,
			"-0.013": 0.0,
			"-0.012": 0.0,
			"-0.011": 0.0,
			"-0.01": 0.0,
			"-0.009": 0.0,
			"-0.008": 0.0,
			"-0.007": 1.03780481143,
			"-0.006": 11.5122760865,
			"-0.005": 20.5876162445,
			"-0.004": 36.0005546796,
			"-0.003": 44.4297386216,
			"-0.002": 42.4397274121,
			"-0.001": 42.1479836217,
			"0.0": 41.7004360872,
			"0.001": 29.6604348929,
			"0.002": 17.8141232451,
			"0.003": 15.9169681436,
			"0.004": 19.7215157964,
			"0.005": 17.2041513326,
			"0.006": 7.26831633786,
			"0.007": 7.22494170665,
			"0.008": 7.50601026578,
			"0.009": 8.23865861937,
			"0.01": 4.94446206522,
			"0.011": 1.96089681351,
			"0.012": 0.78283317446,
			"0.013": 0.0,
			"0.014": 0.0,
			"0.015": 0.0,
			"0.016": 0.0,
			"0.017": 0.0,
			"0.018": 0.0,
			"0.019": 0.0,
			"0.02": 0.0,
			"0.021": 0.0,
			"0.022": 0.0,
			"0.023": 0.0,
			"0.024": 0.0,
			"0.025": 0.0
		}
	}
}
