{
	 "smiles": "OC(=O)C1=CC=C(NC=O)C=C1", 
	 "Tm": 538.15, 
	 "num_atms": 19, 
	 "gaussian": { 
		 "optdone": 1, 
		 "sigma_profile": "yes", 
		 "theory": "DFT", 
		 "functional": "B3LYP", 
		 "basiset": "6-31G**", 
		 "properties": { 
			 "R2extent": 2886.3786, 
			 "electric_dipole_moment_norm": 3.29324961095, 
			 "electric_quadrupole_moment_norm": 26.2338728412, 
			 "total_energy": -589.507426354, 
			 "HOMO_LUMO_gap": 0.1846, 
			 "cosmo_polarized_energy": -22.08, 
			 "cosmo_cavitation_energy": 24.43, 
			 "cosmo_dispersion_energy": -18.02, 
			 "cosmo_repulsion_energy": 1.42, 
			 "cosmo_total_nonelectrostatic_energy": 7.83, 
			 "SMD_solvation_energy": 6.91 
		},
		"coords": [
			{
				"x": -0.988422721,
				"y": -3.3987164418,
				"z": 0.5723807018,
				"element": "O" 
			},
			{
				"x": -1.5965934001,
				"y": -2.2375543146,
				"z": 0.2033416092,
				"element": "C" 
			},
			{
				"x": -2.7951652746,
				"y": -2.2103097808,
				"z": 0.0467434184,
				"element": "O" 
			},
			{
				"x": -0.7172835036,
				"y": -1.0436218701,
				"z": 0.012383893,
				"element": "C" 
			},
			{
				"x": -1.2347136322,
				"y": 0.0407127684,
				"z": -0.7103691614,
				"element": "C" 
			},
			{
				"x": -0.4861967378,
				"y": 1.1890149311,
				"z": -0.9275997774,
				"element": "C" 
			},
			{
				"x": 0.8154149934,
				"y": 1.289508794,
				"z": -0.4019699989,
				"element": "C" 
			},
			{
				"x": 1.6286108134,
				"y": 2.4154961717,
				"z": -0.5781780622,
				"element": "N" 
			},
			{
				"x": 1.3703466683,
				"y": 3.5857115888,
				"z": -1.2577721596,
				"element": "C" 
			},
			{
				"x": 2.1756902475,
				"y": 4.4925697705,
				"z": -1.332284578,
				"element": "O" 
			},
			{
				"x": 1.3303687321,
				"y": 0.2158791234,
				"z": 0.3438150289,
				"element": "C" 
			},
			{
				"x": 0.5740506556,
				"y": -0.9317413128,
				"z": 0.5461952021,
				"element": "C" 
			},
			{
				"x": -0.029018339,
				"y": -3.3189653045,
				"z": 0.4835819035,
				"element": "H" 
			},
			{
				"x": -2.2433090074,
				"y": -0.0385952716,
				"z": -1.1013303672,
				"element": "H" 
			},
			{
				"x": -0.9216786447,
				"y": 1.999157608,
				"z": -1.4999397898,
				"element": "H" 
			},
			{
				"x": 2.5491376664,
				"y": 2.3949494912,
				"z": -0.1544019311,
				"element": "H" 
			},
			{
				"x": 0.3736839076,
				"y": 3.6235685626,
				"z": -1.7253136848,
				"element": "H" 
			},
			{
				"x": 2.3259412578,
				"y": 0.2902436088,
				"z": 0.7728927612,
				"element": "H" 
			},
			{
				"x": 0.9963363184,
				"y": -1.7227081224,
				"z": 1.1612249922,
				"element": "H" 
			}
		],
		 "valence_orbital": [ 
			{
				"type": "occ",
				"energy": -0.31661,
				"method": "rhf"
			},
			{
				"type": "occ",
				"energy": -0.28544,
				"method": "rhf"
			},
			{
				"type": "occ",
				"energy": -0.28017,
				"method": "rhf"
			},
			{
				"type": "occ",
				"energy": -0.27664,
				"method": "rhf"
			},
			{
				"type": "occ",
				"energy": -0.24569,
				"method": "rhf"
			},
			{
				"type": "unocc",
				"energy": -0.06109,
				"method": "rhf"
			},
			{
				"type": "unocc",
				"energy": -0.03507,
				"method": "rhf"
			},
			{
				"type": "unocc",
				"energy": 0.00071,
				"method": "rhf"
			},
			{
				"type": "unocc",
				"energy": 0.04854,
				"method": "rhf"
			},
			{
				"type": "unocc",
				"energy": 0.05627,
				"method": "rhf"
			}
		],
		"cosmo_sigma_profile": { 
			"-0.025": 0.0,
			"-0.024": 0.0,
			"-0.023": 0.0,
			"-0.022": 0.0,
			"-0.021": 0.0,
			"-0.02": 0.0,
			"-0.019": 0.272487980676,
			"-0.018": 0.836488641376,
			"-0.017": 0.710013167072,
			"-0.016": 1.31840221577,
			"-0.015": 2.31651596765,
			"-0.014": 2.23467560561,
			"-0.013": 1.76020007488,
			"-0.012": 2.72802187595,
			"-0.011": 2.93633254837,
			"-0.01": 4.99201302431,
			"-0.009": 5.33812185359,
			"-0.008": 6.37458160646,
			"-0.007": 7.18503619494,
			"-0.006": 9.01434356043,
			"-0.005": 8.57980523023,
			"-0.004": 8.08750060327,
			"-0.003": 8.42336388084,
			"-0.002": 8.81406187391,
			"-0.001": 11.5884242649,
			"0.0": 12.2035962932,
			"0.001": 9.49238274616,
			"0.002": 13.3963092352,
			"0.003": 13.3649543877,
			"0.004": 4.26975207644,
			"0.005": 3.66343340699,
			"0.006": 3.37027711213,
			"0.007": 2.97938938921,
			"0.008": 4.2532904841,
			"0.009": 4.77132613935,
			"0.01": 6.44440858091,
			"0.011": 7.32563076019,
			"0.012": 11.0355516188,
			"0.013": 5.29528649134,
			"0.014": 0.612828049102,
			"0.015": 0.0,
			"0.016": 0.0,
			"0.017": 0.0,
			"0.018": 0.0,
			"0.019": 0.0,
			"0.02": 0.0,
			"0.021": 0.0,
			"0.022": 0.0,
			"0.023": 0.0,
			"0.024": 0.0,
			"0.025": 0.0
		}
	}
}
