{
	 "smiles": "O=CC1=C(OCC2=CC=NC=C2)C=CC=C1", 
	 "Tm": 339.15, 
	 "num_atms": 27, 
	 "gaussian": { 
		 "optdone": 1, 
		 "sigma_profile": "yes", 
		 "theory": "DFT", 
		 "functional": "B3LYP", 
		 "basiset": "6-31G**", 
		 "properties": { 
			 "R2extent": 5719.4718, 
			 "electric_dipole_moment_norm": 4.99751109453, 
			 "electric_quadrupole_moment_norm": 12.9661216167, 
			 "total_energy": -707.185369934, 
			 "HOMO_LUMO_gap": 0.17835, 
			 "cosmo_polarized_energy": -14.15, 
			 "cosmo_cavitation_energy": 32.09, 
			 "cosmo_dispersion_energy": -22.95, 
			 "cosmo_repulsion_energy": 1.76, 
			 "cosmo_total_nonelectrostatic_energy": 10.89, 
			 "SMD_solvation_energy": 5.24 
		},
		"coords": [
			{
				"x": -0.7788013688,
				"y": -2.6306419813,
				"z": -0.3524444693,
				"element": "O" 
			},
			{
				"x": -0.3343310365,
				"y": -1.5794040921,
				"z": 0.0772431921,
				"element": "C" 
			},
			{
				"x": 0.8315967924,
				"y": -0.8838586655,
				"z": -0.5155778279,
				"element": "C" 
			},
			{
				"x": 1.3061199695,
				"y": 0.345694966,
				"z": -0.0023233181,
				"element": "C" 
			},
			{
				"x": 0.6229291731,
				"y": 0.8628289874,
				"z": 1.058916286,
				"element": "O" 
			},
			{
				"x": 1.0525753038,
				"y": 2.0987294322,
				"z": 1.6218907702,
				"element": "C" 
			},
			{
				"x": 0.1071129201,
				"y": 2.4914281205,
				"z": 2.7308892381,
				"element": "C" 
			},
			{
				"x": -1.2536597039,
				"y": 2.1764858922,
				"z": 2.6887959898,
				"element": "C" 
			},
			{
				"x": -2.0759271069,
				"y": 2.6148416099,
				"z": 3.7270669808,
				"element": "C" 
			},
			{
				"x": -1.6451239165,
				"y": 3.333649128,
				"z": 4.771683045,
				"element": "N" 
			},
			{
				"x": -0.340819402,
				"y": 3.6316763296,
				"z": 4.8015289989,
				"element": "C" 
			},
			{
				"x": 0.568224903,
				"y": 3.2353826216,
				"z": 3.8201326887,
				"element": "C" 
			},
			{
				"x": 2.4214920052,
				"y": 0.959593604,
				"z": -0.5862433326,
				"element": "C" 
			},
			{
				"x": 3.0512802392,
				"y": 0.355305408,
				"z": -1.676108018,
				"element": "C" 
			},
			{
				"x": 2.5890144599,
				"y": -0.8557591329,
				"z": -2.1964884431,
				"element": "C" 
			},
			{
				"x": 1.4844463943,
				"y": -1.4643528018,
				"z": -1.6110296253,
				"element": "C" 
			},
			{
				"x": -0.7921456923,
				"y": -1.0877215998,
				"z": 0.9554468656,
				"element": "H" 
			},
			{
				"x": 2.0765196817,
				"y": 2.0068259783,
				"z": 2.0082701247,
				"element": "H" 
			},
			{
				"x": 1.0585129588,
				"y": 2.8771917788,
				"z": 0.8441521339,
				"element": "H" 
			},
			{
				"x": -1.6620652195,
				"y": 1.5949747712,
				"z": 1.8699937717,
				"element": "H" 
			},
			{
				"x": -3.1378213139,
				"y": 2.3753611278,
				"z": 3.7165064455,
				"element": "H" 
			},
			{
				"x": 0.0001383837,
				"y": 4.2115866836,
				"z": 5.6575060729,
				"element": "H" 
			},
			{
				"x": 1.6179801564,
				"y": 3.5012864379,
				"z": 3.9119527696,
				"element": "H" 
			},
			{
				"x": 2.8050878446,
				"y": 1.8975605222,
				"z": -0.204264058,
				"element": "H" 
			},
			{
				"x": 3.9149391056,
				"y": 0.8428974923,
				"z": -2.119509347,
				"element": "H" 
			},
			{
				"x": 3.0873948912,
				"y": -1.3148842203,
				"z": -3.0440808024,
				"element": "H" 
			},
			{
				"x": 1.0915295778,
				"y": -2.407178398,
				"z": -1.9786061321,
				"element": "H" 
			}
		],
		 "valence_orbital": [ 
			{
				"type": "occ",
				"energy": -0.2696,
				"method": "rhf"
			},
			{
				"type": "occ",
				"energy": -0.26634,
				"method": "rhf"
			},
			{
				"type": "occ",
				"energy": -0.25999,
				"method": "rhf"
			},
			{
				"type": "occ",
				"energy": -0.24902,
				"method": "rhf"
			},
			{
				"type": "occ",
				"energy": -0.24107,
				"method": "rhf"
			},
			{
				"type": "unocc",
				"energy": -0.06272,
				"method": "rhf"
			},
			{
				"type": "unocc",
				"energy": -0.03373,
				"method": "rhf"
			},
			{
				"type": "unocc",
				"energy": -0.01943,
				"method": "rhf"
			},
			{
				"type": "unocc",
				"energy": -0.00583,
				"method": "rhf"
			},
			{
				"type": "unocc",
				"energy": 0.03724,
				"method": "rhf"
			}
		],
		"cosmo_sigma_profile": { 
			"-0.025": 0.0,
			"-0.024": 0.0,
			"-0.023": 0.0,
			"-0.022": 0.0,
			"-0.021": 0.0,
			"-0.02": 0.0,
			"-0.019": 0.0,
			"-0.018": 0.0,
			"-0.017": 0.0,
			"-0.016": 0.0,
			"-0.015": 0.0,
			"-0.014": 0.0,
			"-0.013": 0.0,
			"-0.012": 0.0,
			"-0.011": 0.0,
			"-0.01": 0.0,
			"-0.009": 0.0329204107609,
			"-0.008": 3.4634967098,
			"-0.007": 14.0250804124,
			"-0.006": 20.2713004169,
			"-0.005": 21.336201269,
			"-0.004": 18.00068017,
			"-0.003": 17.3801114219,
			"-0.002": 15.4224207576,
			"-0.001": 14.0957493247,
			"0.0": 18.2159591067,
			"0.001": 19.5215627099,
			"0.002": 26.0167126205,
			"0.003": 21.5180441139,
			"0.004": 12.9886290833,
			"0.005": 5.59910324312,
			"0.006": 2.63798377734,
			"0.007": 2.71850942662,
			"0.008": 3.692968244,
			"0.009": 2.59609690266,
			"0.01": 3.15137531421,
			"0.011": 4.84183007763,
			"0.012": 4.9521044415,
			"0.013": 2.31044083708,
			"0.014": 0.924838760386,
			"0.015": 0.586914659643,
			"0.016": 1.1743808314,
			"0.017": 0.266079864154,
			"0.018": 0.0,
			"0.019": 0.0,
			"0.02": 0.0,
			"0.021": 0.0,
			"0.022": 0.0,
			"0.023": 0.0,
			"0.024": 0.0,
			"0.025": 0.0
		}
	}
}
