{
	 "smiles": "OC(=O)C1=C(SC2=CC=C(Cl)C=C2)C=CC(Cl)=C1", 
	 "Tm": 432.15, 
	 "num_atms": 26, 
	 "gaussian": { 
		 "optdone": 1, 
		 "sigma_profile": "yes", 
		 "theory": "DFT", 
		 "functional": "B3LYP", 
		 "basiset": "6-31G**", 
		 "properties": { 
			 "R2extent": 7982.7776, 
			 "electric_dipole_moment_norm": 1.74973066785, 
			 "electric_quadrupole_moment_norm": 16.1067614572, 
			 "total_energy": -1969.23187561, 
			 "HOMO_LUMO_gap": 0.16568, 
			 "cosmo_polarized_energy": -11.43, 
			 "cosmo_cavitation_energy": 36.71, 
			 "cosmo_dispersion_energy": -26.6, 
			 "cosmo_repulsion_energy": 2.03, 
			 "cosmo_total_nonelectrostatic_energy": 12.14, 
			 "SMD_solvation_energy": 6.3 
		},
		"coords": [
			{
				"x": -3.4664501765,
				"y": 2.2034996881,
				"z": 0.031936744,
				"element": "O" 
			},
			{
				"x": -2.4093681668,
				"y": 1.4966465686,
				"z": 0.4961821297,
				"element": "C" 
			},
			{
				"x": -2.4228124224,
				"y": 0.9489470345,
				"z": 1.5780971818,
				"element": "O" 
			},
			{
				"x": -1.2466878094,
				"y": 1.5484550995,
				"z": -0.4469182059,
				"element": "C" 
			},
			{
				"x": -0.3990746057,
				"y": 0.4459783838,
				"z": -0.6791915214,
				"element": "C" 
			},
			{
				"x": -0.7986377717,
				"y": -1.2214246778,
				"z": -0.1233492637,
				"element": "S" 
			},
			{
				"x": 0.3845703146,
				"y": -1.476920735,
				"z": 1.2078049254,
				"element": "C" 
			},
			{
				"x": 1.331270552,
				"y": -2.5004578296,
				"z": 1.0846344906,
				"element": "C" 
			},
			{
				"x": 2.2239421585,
				"y": -2.7656158044,
				"z": 2.1243377606,
				"element": "C" 
			},
			{
				"x": 2.1695638981,
				"y": -1.9871637693,
				"z": 3.2790018179,
				"element": "C" 
			},
			{
				"x": 3.3005626445,
				"y": -2.3036193978,
				"z": 4.5866126349,
				"element": "Cl" 
			},
			{
				"x": 1.2311204584,
				"y": -0.963061868,
				"z": 3.4174888863,
				"element": "C" 
			},
			{
				"x": 0.3288255689,
				"y": -0.7170136935,
				"z": 2.3841252766,
				"element": "C" 
			},
			{
				"x": 0.7270898853,
				"y": 0.6239900812,
				"z": -1.4933084763,
				"element": "C" 
			},
			{
				"x": 1.0314357608,
				"y": 1.8600506295,
				"z": -2.057864539,
				"element": "C" 
			},
			{
				"x": 0.168898847,
				"y": 2.9331596594,
				"z": -1.8367676102,
				"element": "C" 
			},
			{
				"x": 0.5164838503,
				"y": 4.4901517794,
				"z": -2.5638612503,
				"element": "Cl" 
			},
			{
				"x": -0.9687312251,
				"y": 2.7843693669,
				"z": -1.0508870911,
				"element": "C" 
			},
			{
				"x": -4.1424188141,
				"y": 2.1657915614,
				"z": 0.7299470747,
				"element": "H" 
			},
			{
				"x": 1.3727072933,
				"y": -3.091337395,
				"z": 0.1751640876,
				"element": "H" 
			},
			{
				"x": 2.9581565051,
				"y": -3.5585862641,
				"z": 2.0348550824,
				"element": "H" 
			},
			{
				"x": 1.1984302171,
				"y": -0.376422566,
				"z": 4.3290787807,
				"element": "H" 
			},
			{
				"x": -0.4286749424,
				"y": 0.0525820853,
				"z": 2.4860483193,
				"element": "H" 
			},
			{
				"x": 1.3693010001,
				"y": -0.2273688701,
				"z": -1.6920714665,
				"element": "H" 
			},
			{
				"x": 1.9124287414,
				"y": 1.9850949619,
				"z": -2.6775841686,
				"element": "H" 
			},
			{
				"x": -1.6336317613,
				"y": 3.6238759712,
				"z": -0.8895115998,
				"element": "H" 
			}
		],
		 "valence_orbital": [ 
			{
				"type": "occ",
				"energy": -0.28215,
				"method": "rhf"
			},
			{
				"type": "occ",
				"energy": -0.26797,
				"method": "rhf"
			},
			{
				"type": "occ",
				"energy": -0.26508,
				"method": "rhf"
			},
			{
				"type": "occ",
				"energy": -0.26093,
				"method": "rhf"
			},
			{
				"type": "occ",
				"energy": -0.22863,
				"method": "rhf"
			},
			{
				"type": "unocc",
				"energy": -0.06295,
				"method": "rhf"
			},
			{
				"type": "unocc",
				"energy": -0.04065,
				"method": "rhf"
			},
			{
				"type": "unocc",
				"energy": -0.02703,
				"method": "rhf"
			},
			{
				"type": "unocc",
				"energy": -0.01721,
				"method": "rhf"
			},
			{
				"type": "unocc",
				"energy": 0.00959,
				"method": "rhf"
			}
		],
		"cosmo_sigma_profile": { 
			"-0.025": 0.0,
			"-0.024": 0.0,
			"-0.023": 0.0,
			"-0.022": 0.0,
			"-0.021": 0.0,
			"-0.02": 0.0,
			"-0.019": 0.399250687413,
			"-0.018": 0.837897011469,
			"-0.017": 0.924345034757,
			"-0.016": 1.47615412147,
			"-0.015": 0.475523467604,
			"-0.014": 0.259755224294,
			"-0.013": 0.455171181679,
			"-0.012": 1.01909540406,
			"-0.011": 1.05186140681,
			"-0.01": 0.297880740965,
			"-0.009": 0.729784538188,
			"-0.008": 5.2612839207,
			"-0.007": 11.4521102296,
			"-0.006": 11.8458149929,
			"-0.005": 11.4588883998,
			"-0.004": 12.0771848012,
			"-0.003": 14.8794419057,
			"-0.002": 19.2415648099,
			"-0.001": 22.2117289654,
			"0.0": 31.1249580817,
			"0.001": 36.9832515424,
			"0.002": 30.0379129272,
			"0.003": 31.3242017607,
			"0.004": 24.965981228,
			"0.005": 10.786506503,
			"0.006": 4.31134276398,
			"0.007": 4.11025112668,
			"0.008": 3.62290866784,
			"0.009": 2.81088841728,
			"0.01": 2.49556246642,
			"0.011": 2.89934283984,
			"0.012": 0.223345026072,
			"0.013": 0.0,
			"0.014": 0.0,
			"0.015": 0.0,
			"0.016": 0.0,
			"0.017": 0.0,
			"0.018": 0.0,
			"0.019": 0.0,
			"0.02": 0.0,
			"0.021": 0.0,
			"0.022": 0.0,
			"0.023": 0.0,
			"0.024": 0.0,
			"0.025": 0.0
		}
	}
}
