{
	 "smiles": "O=C1C(CCCC1=CC=CC1=CC=CO1)=CC=CC1=CC=CO1", 
	 "Tm": 436.15, 
	 "num_atms": 41, 
	 "gaussian": { 
		 "optdone": 1, 
		 "sigma_profile": "yes", 
		 "theory": "DFT", 
		 "functional": "B3LYP", 
		 "basiset": "6-31G**", 
		 "properties": { 
			 "R2extent": 9465.9106, 
			 "electric_dipole_moment_norm": 1.11915389916, 
			 "electric_quadrupole_moment_norm": 12.1311953797, 
			 "total_energy": -998.53886224, 
			 "HOMO_LUMO_gap": 0.11396, 
			 "cosmo_polarized_energy": -14.05, 
			 "cosmo_cavitation_energy": 45.1, 
			 "cosmo_dispersion_energy": -30.79, 
			 "cosmo_repulsion_energy": 2.36, 
			 "cosmo_total_nonelectrostatic_energy": 16.67, 
			 "SMD_solvation_energy": 9.28 
		},
		"coords": [
			{
				"x": -1.1062122415,
				"y": 0.0597551975,
				"z": 1.2312463027,
				"element": "O" 
			},
			{
				"x": -0.1433586888,
				"y": 0.4127335362,
				"z": 1.9135874462,
				"element": "C" 
			},
			{
				"x": 0.3005965348,
				"y": -0.3656422482,
				"z": 3.1091578652,
				"element": "C" 
			},
			{
				"x": 1.597150337,
				"y": 0.0434700087,
				"z": 3.7822203931,
				"element": "C" 
			},
			{
				"x": 1.7764445242,
				"y": 1.563659517,
				"z": 3.8179069104,
				"element": "C" 
			},
			{
				"x": 1.7965345258,
				"y": 2.1135306268,
				"z": 2.3885944839,
				"element": "C" 
			},
			{
				"x": 0.5833778194,
				"y": 1.6905869231,
				"z": 1.5874415649,
				"element": "C" 
			},
			{
				"x": 0.0942054303,
				"y": 2.3989907978,
				"z": 0.5338203735,
				"element": "C" 
			},
			{
				"x": 0.5922685102,
				"y": 3.6468780698,
				"z": 0.0230189528,
				"element": "C" 
			},
			{
				"x": 0.1881206644,
				"y": 4.2643687142,
				"z": -1.1216364445,
				"element": "C" 
			},
			{
				"x": -0.733222788,
				"y": 3.8063535765,
				"z": -2.1284340321,
				"element": "C" 
			},
			{
				"x": -1.3536211861,
				"y": 2.621182285,
				"z": -2.4658727337,
				"element": "C" 
			},
			{
				"x": -2.1366314845,
				"y": 2.8781712456,
				"z": -3.6281643072,
				"element": "C" 
			},
			{
				"x": -1.943275172,
				"y": 4.1940472145,
				"z": -3.9345375358,
				"element": "C" 
			},
			{
				"x": -1.0969824922,
				"y": 4.7711262784,
				"z": -3.0467104362,
				"element": "O" 
			},
			{
				"x": -0.4520474418,
				"y": -1.3447857567,
				"z": 3.6756093113,
				"element": "C" 
			},
			{
				"x": -1.7123814336,
				"y": -1.9764317315,
				"z": 3.3037378486,
				"element": "C" 
			},
			{
				"x": -2.1130829365,
				"y": -2.5793672653,
				"z": 2.1596036332,
				"element": "C" 
			},
			{
				"x": -1.4038921953,
				"y": -2.842960534,
				"z": 0.9384562124,
				"element": "C" 
			},
			{
				"x": -1.8516443337,
				"y": -3.4010765572,
				"z": -0.2385676867,
				"element": "C" 
			},
			{
				"x": -0.7282622817,
				"y": -3.4881351628,
				"z": -1.1110989776,
				"element": "C" 
			},
			{
				"x": 0.3289256262,
				"y": -2.9908300083,
				"z": -0.405594687,
				"element": "C" 
			},
			{
				"x": -0.0600223675,
				"y": -2.6007021109,
				"z": 0.8346329067,
				"element": "O" 
			},
			{
				"x": 2.4457150168,
				"y": -0.3906910815,
				"z": 3.2300030071,
				"element": "H" 
			},
			{
				"x": 1.6414029998,
				"y": -0.3819876866,
				"z": 4.7910224627,
				"element": "H" 
			},
			{
				"x": 2.707387859,
				"y": 1.8264078276,
				"z": 4.3331541717,
				"element": "H" 
			},
			{
				"x": 0.9541371874,
				"y": 2.0196253229,
				"z": 4.3838974355,
				"element": "H" 
			},
			{
				"x": 1.8798226601,
				"y": 3.2056528151,
				"z": 2.4054923806,
				"element": "H" 
			},
			{
				"x": 2.7083816309,
				"y": 1.7495031496,
				"z": 1.8896590512,
				"element": "H" 
			},
			{
				"x": -0.7789978554,
				"y": 1.9662622737,
				"z": 0.056312531,
				"element": "H" 
			},
			{
				"x": 1.3536064521,
				"y": 4.16403301,
				"z": 0.6015113529,
				"element": "H" 
			},
			{
				"x": 0.6077769946,
				"y": 5.2430237009,
				"z": -1.343390085,
				"element": "H" 
			},
			{
				"x": -1.244895353,
				"y": 1.6730083559,
				"z": -1.9619893408,
				"element": "H" 
			},
			{
				"x": -2.7548075436,
				"y": 2.175014391,
				"z": -4.1673910702,
				"element": "H" 
			},
			{
				"x": -2.3173457431,
				"y": 4.8363945215,
				"z": -4.7169562997,
				"element": "H" 
			},
			{
				"x": -0.0921877752,
				"y": -1.6857058701,
				"z": 4.6506606233,
				"element": "H" 
			},
			{
				"x": -2.4088732024,
				"y": -2.0626634529,
				"z": 4.1391795323,
				"element": "H" 
			},
			{
				"x": -3.1182566021,
				"y": -2.996180771,
				"z": 2.1533478223,
				"element": "H" 
			},
			{
				"x": -2.8678159246,
				"y": -3.7058112951,
				"z": -0.4452455457,
				"element": "H" 
			},
			{
				"x": -0.7058261218,
				"y": -3.869381151,
				"z": -2.1217405114,
				"element": "H" 
			},
			{
				"x": 1.3748883912,
				"y": -2.856126676,
				"z": -0.634844882,
				"element": "H" 
			}
		],
		 "valence_orbital": [ 
			{
				"type": "occ",
				"energy": -0.25426,
				"method": "rhf"
			},
			{
				"type": "occ",
				"energy": -0.24597,
				"method": "rhf"
			},
			{
				"type": "occ",
				"energy": -0.22527,
				"method": "rhf"
			},
			{
				"type": "occ",
				"energy": -0.19859,
				"method": "rhf"
			},
			{
				"type": "occ",
				"energy": -0.19109,
				"method": "rhf"
			},
			{
				"type": "unocc",
				"energy": -0.07713,
				"method": "rhf"
			},
			{
				"type": "unocc",
				"energy": -0.03871,
				"method": "rhf"
			},
			{
				"type": "unocc",
				"energy": 0.00156,
				"method": "rhf"
			},
			{
				"type": "unocc",
				"energy": 0.03339,
				"method": "rhf"
			},
			{
				"type": "unocc",
				"energy": 0.0566,
				"method": "rhf"
			}
		],
		"cosmo_sigma_profile": { 
			"-0.025": 0.0,
			"-0.024": 0.0,
			"-0.023": 0.0,
			"-0.022": 0.0,
			"-0.021": 0.0,
			"-0.02": 0.0,
			"-0.019": 0.0,
			"-0.018": 0.0,
			"-0.017": 0.0,
			"-0.016": 0.0,
			"-0.015": 0.0,
			"-0.014": 0.0,
			"-0.013": 0.0,
			"-0.012": 0.0,
			"-0.011": 0.0,
			"-0.01": 0.10450067202,
			"-0.009": 3.08518306413,
			"-0.008": 3.50090703668,
			"-0.007": 9.42164085453,
			"-0.006": 18.0120926721,
			"-0.005": 23.4847962704,
			"-0.004": 26.4980107168,
			"-0.003": 30.8960864347,
			"-0.002": 31.4767215469,
			"-0.001": 31.9134126869,
			"0.0": 25.8304952076,
			"0.001": 21.3232877108,
			"0.002": 26.4492678346,
			"0.003": 31.26514417,
			"0.004": 28.8432876737,
			"0.005": 17.6796499304,
			"0.006": 7.08481940117,
			"0.007": 4.84156796479,
			"0.008": 5.24551170867,
			"0.009": 3.2336395085,
			"0.01": 2.5249154279,
			"0.011": 1.82043470857,
			"0.012": 1.82212042357,
			"0.013": 3.03862131503,
			"0.014": 1.08402557747,
			"0.015": 0.0,
			"0.016": 0.0,
			"0.017": 0.0,
			"0.018": 0.0,
			"0.019": 0.0,
			"0.02": 0.0,
			"0.021": 0.0,
			"0.022": 0.0,
			"0.023": 0.0,
			"0.024": 0.0,
			"0.025": 0.0
		}
	}
}
