{
	 "smiles": "OCC1=CC=CO1", 
	 "Tm": 258.55, 
	 "num_atms": 13, 
	 "gaussian": { 
		 "optdone": 1, 
		 "sigma_profile": "yes", 
		 "theory": "DFT", 
		 "functional": "B3LYP", 
		 "basiset": "6-31G**", 
		 "properties": { 
			 "R2extent": 1458.8131, 
			 "electric_dipole_moment_norm": 1.63040640332, 
			 "electric_quadrupole_moment_norm": 8.605294031, 
			 "total_energy": -344.552381532, 
			 "HOMO_LUMO_gap": 0.2331, 
			 "cosmo_polarized_energy": -7.32, 
			 "cosmo_cavitation_energy": 17.05, 
			 "cosmo_dispersion_energy": -12.8, 
			 "cosmo_repulsion_energy": 1.1, 
			 "cosmo_total_nonelectrostatic_energy": 5.34, 
			 "SMD_solvation_energy": 4.06 
		},
		"coords": [
			{
				"x": 1.3263535854,
				"y": 2.089542348,
				"z": -2.5441902145,
				"element": "O" 
			},
			{
				"x": 0.6157792893,
				"y": 1.9440699808,
				"z": -1.316572862,
				"element": "C" 
			},
			{
				"x": 1.299152527,
				"y": 1.0536729401,
				"z": -0.3342106184,
				"element": "C" 
			},
			{
				"x": 1.0509161334,
				"y": -0.1918472667,
				"z": 0.161783698,
				"element": "C" 
			},
			{
				"x": 2.1236984787,
				"y": -0.497827916,
				"z": 1.0638894266,
				"element": "C" 
			},
			{
				"x": 2.9506533078,
				"y": 0.5821808562,
				"z": 1.0460550169,
				"element": "C" 
			},
			{
				"x": 2.4647265171,
				"y": 1.540279608,
				"z": 0.204357613,
				"element": "O" 
			},
			{
				"x": 2.204539926,
				"y": 2.427769675,
				"z": -2.3244798388,
				"element": "H" 
			},
			{
				"x": 0.4278877552,
				"y": 2.9268271815,
				"z": -0.8555164355,
				"element": "H" 
			},
			{
				"x": -0.3538034198,
				"y": 1.5081519474,
				"z": -1.5707465898,
				"element": "H" 
			},
			{
				"x": 0.2067375895,
				"y": -0.818752298,
				"z": -0.0877897701,
				"element": "H" 
			},
			{
				"x": 2.2571154595,
				"y": -1.4002935482,
				"z": 1.64292871,
				"element": "H" 
			},
			{
				"x": 3.8755428509,
				"y": 0.8210264921,
				"z": 1.5478918646,
				"element": "H" 
			}
		],
		 "valence_orbital": [ 
			{
				"type": "occ",
				"energy": -0.37289,
				"method": "rhf"
			},
			{
				"type": "occ",
				"energy": -0.34057,
				"method": "rhf"
			},
			{
				"type": "occ",
				"energy": -0.27868,
				"method": "rhf"
			},
			{
				"type": "occ",
				"energy": -0.27224,
				"method": "rhf"
			},
			{
				"type": "occ",
				"energy": -0.22536,
				"method": "rhf"
			},
			{
				"type": "unocc",
				"energy": 0.00774,
				"method": "rhf"
			},
			{
				"type": "unocc",
				"energy": 0.06615,
				"method": "rhf"
			},
			{
				"type": "unocc",
				"energy": 0.09678,
				"method": "rhf"
			},
			{
				"type": "unocc",
				"energy": 0.11569,
				"method": "rhf"
			},
			{
				"type": "unocc",
				"energy": 0.13288,
				"method": "rhf"
			}
		],
		"cosmo_sigma_profile": { 
			"-0.025": 0.0,
			"-0.024": 0.0,
			"-0.023": 0.0,
			"-0.022": 0.0,
			"-0.021": 0.0,
			"-0.02": 0.0,
			"-0.019": 0.0,
			"-0.018": 0.0,
			"-0.017": 0.0,
			"-0.016": 0.0,
			"-0.015": 0.401196861815,
			"-0.014": 0.755619495428,
			"-0.013": 0.762676535714,
			"-0.012": 0.661027299911,
			"-0.011": 1.13066220969,
			"-0.01": 0.729608236687,
			"-0.009": 1.22239405586,
			"-0.008": 2.38918014266,
			"-0.007": 4.4672311541,
			"-0.006": 9.28131426438,
			"-0.005": 9.50102628323,
			"-0.004": 11.1652535027,
			"-0.003": 10.8441737089,
			"-0.002": 8.25478076893,
			"-0.001": 6.24807516575,
			"0.0": 7.09057392225,
			"0.001": 6.52374697139,
			"0.002": 6.27779870094,
			"0.003": 9.23941495036,
			"0.004": 8.76123663922,
			"0.005": 8.92521042524,
			"0.006": 6.27043416687,
			"0.007": 2.70618852726,
			"0.008": 2.06878667839,
			"0.009": 1.35268734611,
			"0.01": 1.41474471499,
			"0.011": 0.822631382347,
			"0.012": 2.0618370295,
			"0.013": 1.62580196235,
			"0.014": 2.41101611212,
			"0.015": 0.147773077968,
			"0.016": 0.0,
			"0.017": 0.0,
			"0.018": 0.0,
			"0.019": 0.0,
			"0.02": 0.0,
			"0.021": 0.0,
			"0.022": 0.0,
			"0.023": 0.0,
			"0.024": 0.0,
			"0.025": 0.0
		}
	}
}
