{
	 "smiles": "CCOC1=C(CN2CCCCC2)C=C(C=C1)C(C)=O", 
	 "Tm": 308.15, 
	 "num_atms": 42, 
	 "gaussian": { 
		 "optdone": 1, 
		 "sigma_profile": "yes", 
		 "theory": "DFT", 
		 "functional": "B3LYP", 
		 "basiset": "6-31G**", 
		 "properties": { 
			 "R2extent": 7089.9896, 
			 "electric_dipole_moment_norm": 4.76700450807, 
			 "electric_quadrupole_moment_norm": 15.0279762992, 
			 "total_energy": -828.761151573, 
			 "HOMO_LUMO_gap": 0.15807, 
			 "cosmo_polarized_energy": -12.07, 
			 "cosmo_cavitation_energy": 42.54, 
			 "cosmo_dispersion_energy": -29.76, 
			 "cosmo_repulsion_energy": 2.35, 
			 "cosmo_total_nonelectrostatic_energy": 15.13, 
			 "SMD_solvation_energy": 6.11 
		},
		"coords": [
			{
				"x": -4.225443374,
				"y": -0.1302351516,
				"z": -1.7743249411,
				"element": "C" 
			},
			{
				"x": -3.3580329959,
				"y": 0.9550723224,
				"z": -1.1613809057,
				"element": "C" 
			},
			{
				"x": -2.0199519152,
				"y": 0.4571836619,
				"z": -1.1077238571,
				"element": "O" 
			},
			{
				"x": -1.0359522736,
				"y": 1.2402387529,
				"z": -0.5823560411,
				"element": "C" 
			},
			{
				"x": 0.2543650122,
				"y": 0.659658837,
				"z": -0.5512461233,
				"element": "C" 
			},
			{
				"x": 0.4607267131,
				"y": -0.7460269941,
				"z": -1.0924025141,
				"element": "C" 
			},
			{
				"x": 1.7204404661,
				"y": -1.3500041003,
				"z": -0.6789743733,
				"element": "N" 
			},
			{
				"x": 2.1777135357,
				"y": -2.3721522773,
				"z": -1.6301353599,
				"element": "C" 
			},
			{
				"x": 3.3087386481,
				"y": -3.20224249,
				"z": -1.0217457934,
				"element": "C" 
			},
			{
				"x": 2.8006849895,
				"y": -4.0283972038,
				"z": 0.1843183134,
				"element": "C" 
			},
			{
				"x": 1.6095046675,
				"y": -3.3247388777,
				"z": 0.8732988986,
				"element": "C" 
			},
			{
				"x": 1.7292103499,
				"y": -1.8013157408,
				"z": 0.7316830568,
				"element": "C" 
			},
			{
				"x": 1.3032553268,
				"y": 1.4175263929,
				"z": -0.0506768565,
				"element": "C" 
			},
			{
				"x": 1.1160946015,
				"y": 2.7256396339,
				"z": 0.4340025719,
				"element": "C" 
			},
			{
				"x": -0.1715323107,
				"y": 3.2723863724,
				"z": 0.401912429,
				"element": "C" 
			},
			{
				"x": -1.2450240378,
				"y": 2.5391865741,
				"z": -0.1026992814,
				"element": "C" 
			},
			{
				"x": 2.3005870062,
				"y": 3.4654341396,
				"z": 0.959677115,
				"element": "C" 
			},
			{
				"x": 2.1092197797,
				"y": 4.8851437892,
				"z": 1.4760676119,
				"element": "C" 
			},
			{
				"x": 3.4101647033,
				"y": 2.949951937,
				"z": 0.9799210109,
				"element": "O" 
			},
			{
				"x": -5.2635276226,
				"y": 0.2100770461,
				"z": -1.8373682448,
				"element": "H" 
			},
			{
				"x": -4.1942511657,
				"y": -1.0386529964,
				"z": -1.16636698,
				"element": "H" 
			},
			{
				"x": -3.8794559201,
				"y": -0.377374955,
				"z": -2.7817794637,
				"element": "H" 
			},
			{
				"x": -3.389327032,
				"y": 1.8713022676,
				"z": -1.7669733623,
				"element": "H" 
			},
			{
				"x": -3.7016487066,
				"y": 1.2081245299,
				"z": -0.1488548962,
				"element": "H" 
			},
			{
				"x": 0.4552226402,
				"y": -0.6954118247,
				"z": -2.1897535009,
				"element": "H" 
			},
			{
				"x": -0.4150345514,
				"y": -1.3659712469,
				"z": -0.8280283051,
				"element": "H" 
			},
			{
				"x": 1.359383222,
				"y": -3.0549709375,
				"z": -1.9356184992,
				"element": "H" 
			},
			{
				"x": 2.5171539383,
				"y": -1.8673710945,
				"z": -2.543472989,
				"element": "H" 
			},
			{
				"x": 4.1039942652,
				"y": -2.5167041887,
				"z": -0.7062679638,
				"element": "H" 
			},
			{
				"x": 3.741637808,
				"y": -3.8562525884,
				"z": -1.7860348999,
				"element": "H" 
			},
			{
				"x": 3.6185244733,
				"y": -4.172882232,
				"z": 0.8995526521,
				"element": "H" 
			},
			{
				"x": 2.4964741745,
				"y": -5.0291251787,
				"z": -0.1440815881,
				"element": "H" 
			},
			{
				"x": 0.665253896,
				"y": -3.651181383,
				"z": 0.4195159379,
				"element": "H" 
			},
			{
				"x": 1.553945446,
				"y": -3.600074194,
				"z": 1.9326531965,
				"element": "H" 
			},
			{
				"x": 0.9116829202,
				"y": -1.3011877115,
				"z": 1.2600275528,
				"element": "H" 
			},
			{
				"x": 2.6562898744,
				"y": -1.4656486188,
				"z": 1.2174627652,
				"element": "H" 
			},
			{
				"x": 2.2991073867,
				"y": 0.9899764749,
				"z": -0.0317994893,
				"element": "H" 
			},
			{
				"x": -0.3553008524,
				"y": 4.2770877142,
				"z": 0.7688861013,
				"element": "H" 
			},
			{
				"x": -2.2323309545,
				"y": 2.9843210879,
				"z": -0.1218269202,
				"element": "H" 
			},
			{
				"x": 1.7157262099,
				"y": 5.5412737734,
				"z": 0.6918075743,
				"element": "H" 
			},
			{
				"x": 1.398716065,
				"y": 4.9101158789,
				"z": 2.3097696047,
				"element": "H" 
			},
			{
				"x": 3.0742955931,
				"y": 5.2643207994,
				"z": 1.8134367571,
				"element": "H" 
			}
		],
		 "valence_orbital": [ 
			{
				"type": "occ",
				"energy": -0.30417,
				"method": "rhf"
			},
			{
				"type": "occ",
				"energy": -0.24585,
				"method": "rhf"
			},
			{
				"type": "occ",
				"energy": -0.23354,
				"method": "rhf"
			},
			{
				"type": "occ",
				"energy": -0.22152,
				"method": "rhf"
			},
			{
				"type": "occ",
				"energy": -0.19547,
				"method": "rhf"
			},
			{
				"type": "unocc",
				"energy": -0.0374,
				"method": "rhf"
			},
			{
				"type": "unocc",
				"energy": 0.00062,
				"method": "rhf"
			},
			{
				"type": "unocc",
				"energy": 0.05588,
				"method": "rhf"
			},
			{
				"type": "unocc",
				"energy": 0.07989,
				"method": "rhf"
			},
			{
				"type": "unocc",
				"energy": 0.0911,
				"method": "rhf"
			}
		],
		"cosmo_sigma_profile": { 
			"-0.025": 0.0,
			"-0.024": 0.0,
			"-0.023": 0.0,
			"-0.022": 0.0,
			"-0.021": 0.0,
			"-0.02": 0.0,
			"-0.019": 0.0,
			"-0.018": 0.0,
			"-0.017": 0.0,
			"-0.016": 0.0,
			"-0.015": 0.0,
			"-0.014": 0.0,
			"-0.013": 0.0,
			"-0.012": 0.0,
			"-0.011": 0.0,
			"-0.01": 0.0,
			"-0.009": 0.0,
			"-0.008": 0.0,
			"-0.007": 1.07794786491,
			"-0.006": 9.31826009686,
			"-0.005": 17.4334598151,
			"-0.004": 22.6314099848,
			"-0.003": 29.0046404652,
			"-0.002": 46.2606098678,
			"-0.001": 53.7034304111,
			"0.0": 42.2859055221,
			"0.001": 27.2494415696,
			"0.002": 15.7764119747,
			"0.003": 14.4353405602,
			"0.004": 15.6550310615,
			"0.005": 8.15322440052,
			"0.006": 5.37542890367,
			"0.007": 4.38036932772,
			"0.008": 3.06586464649,
			"0.009": 1.97541168539,
			"0.01": 2.44428985907,
			"0.011": 2.8337186397,
			"0.012": 4.05345650878,
			"0.013": 3.70292224728,
			"0.014": 0.907614708774,
			"0.015": 0.0059688176738,
			"0.016": 0.0,
			"0.017": 0.0,
			"0.018": 0.0,
			"0.019": 0.0,
			"0.02": 0.0,
			"0.021": 0.0,
			"0.022": 0.0,
			"0.023": 0.0,
			"0.024": 0.0,
			"0.025": 0.0
		}
	}
}
