{
	 "smiles": "CCN(CC1=C(F)C=CC=C1Cl)C1=C(C=C(C=C1N(=O)=O)C(F)(F)F)N(=O)=O", 
	 "Tm": 375.15, 
	 "num_atms": 40, 
	 "gaussian": { 
		 "optdone": 1, 
		 "sigma_profile": "yes", 
		 "theory": "DFT", 
		 "functional": "B3LYP", 
		 "basiset": "6-31G**", 
		 "properties": { 
			 "R2extent": 11428.9042, 
			 "electric_dipole_moment_norm": 3.46150268092, 
			 "electric_quadrupole_moment_norm": 19.4919468481, 
			 "total_energy": -1941.41074832, 
			 "HOMO_LUMO_gap": 0.13298, 
			 "cosmo_polarized_energy": -13.27, 
			 "cosmo_cavitation_energy": 47.29, 
			 "cosmo_dispersion_energy": -30.85, 
			 "cosmo_repulsion_energy": 2.21, 
			 "cosmo_total_nonelectrostatic_energy": 18.65, 
			 "SMD_solvation_energy": 13.51 
		},
		"coords": [
			{
				"x": 1.1550228556,
				"y": -1.4758140167,
				"z": -2.427212455,
				"element": "C" 
			},
			{
				"x": 1.0066538497,
				"y": -1.1860224668,
				"z": -0.9285902353,
				"element": "C" 
			},
			{
				"x": -0.1760598918,
				"y": -0.3650441971,
				"z": -0.6229252726,
				"element": "N" 
			},
			{
				"x": -1.498995127,
				"y": -0.9480349431,
				"z": -0.8920567175,
				"element": "C" 
			},
			{
				"x": -1.7829205996,
				"y": -2.1614870184,
				"z": -0.0233830436,
				"element": "C" 
			},
			{
				"x": -1.6661962815,
				"y": -3.4554484807,
				"z": -0.5404621995,
				"element": "C" 
			},
			{
				"x": -1.2867223045,
				"y": -3.596957551,
				"z": -1.832940859,
				"element": "F" 
			},
			{
				"x": -1.9204216581,
				"y": -4.6081573904,
				"z": 0.1906721798,
				"element": "C" 
			},
			{
				"x": -2.3224129163,
				"y": -4.472753631,
				"z": 1.5175702457,
				"element": "C" 
			},
			{
				"x": -2.4705411393,
				"y": -3.207402033,
				"z": 2.085381414,
				"element": "C" 
			},
			{
				"x": -2.2035795172,
				"y": -2.0773353214,
				"z": 1.3140440094,
				"element": "C" 
			},
			{
				"x": -2.4422386257,
				"y": -0.5027304515,
				"z": 2.0563198148,
				"element": "Cl" 
			},
			{
				"x": -0.0469160022,
				"y": 0.9214829402,
				"z": -0.1614044168,
				"element": "C" 
			},
			{
				"x": 0.8551321658,
				"y": 1.2883887874,
				"z": 0.879926647,
				"element": "C" 
			},
			{
				"x": 1.0075922566,
				"y": 2.5938705097,
				"z": 1.3305988078,
				"element": "C" 
			},
			{
				"x": 0.2020997159,
				"y": 3.61070391,
				"z": 0.8239177798,
				"element": "C" 
			},
			{
				"x": -0.7221359768,
				"y": 3.306792853,
				"z": -0.1705000598,
				"element": "C" 
			},
			{
				"x": -0.8043049275,
				"y": 2.0133575729,
				"z": -0.6747117366,
				"element": "C" 
			},
			{
				"x": -1.6385027068,
				"y": 1.8799704303,
				"z": -1.8843875655,
				"element": "N" 
			},
			{
				"x": -2.6628112625,
				"y": 2.5592837371,
				"z": -1.9360796417,
				"element": "O" 
			},
			{
				"x": -1.2349341008,
				"y": 1.150222231,
				"z": -2.7890209015,
				"element": "O" 
			},
			{
				"x": 0.3705341072,
				"y": 5.0265746211,
				"z": 1.30404578,
				"element": "C" 
			},
			{
				"x": -0.779708972,
				"y": 5.7235588373,
				"z": 1.1976035624,
				"element": "F" 
			},
			{
				"x": 1.3041704801,
				"y": 5.6877602575,
				"z": 0.5842756688,
				"element": "F" 
			},
			{
				"x": 0.764507331,
				"y": 5.0664981225,
				"z": 2.5942548735,
				"element": "F" 
			},
			{
				"x": 1.5972888785,
				"y": 0.2806492972,
				"z": 1.6640696139,
				"element": "N" 
			},
			{
				"x": 2.7084548614,
				"y": 0.6093590728,
				"z": 2.0802261044,
				"element": "O" 
			},
			{
				"x": 1.0512172858,
				"y": -0.7943462841,
				"z": 1.8982511946,
				"element": "O" 
			},
			{
				"x": 2.1041492113,
				"y": -1.9949614103,
				"z": -2.5967568379,
				"element": "H" 
			},
			{
				"x": 0.3574733565,
				"y": -2.1200758004,
				"z": -2.8007768091,
				"element": "H" 
			},
			{
				"x": 1.1551666582,
				"y": -0.5476972565,
				"z": -3.0045893359,
				"element": "H" 
			},
			{
				"x": 0.9722751734,
				"y": -2.1138360035,
				"z": -0.3478601518,
				"element": "H" 
			},
			{
				"x": 1.8900722437,
				"y": -0.6392620279,
				"z": -0.5964402662,
				"element": "H" 
			},
			{
				"x": -2.2566534816,
				"y": -0.1955999199,
				"z": -0.6747566886,
				"element": "H" 
			},
			{
				"x": -1.5947308595,
				"y": -1.2168750365,
				"z": -1.9454399292,
				"element": "H" 
			},
			{
				"x": -1.8038489286,
				"y": -5.5759880838,
				"z": -0.2832877342,
				"element": "H" 
			},
			{
				"x": -2.52666843,
				"y": -5.3564070537,
				"z": 2.113593069,
				"element": "H" 
			},
			{
				"x": -2.7919981844,
				"y": -3.0915299706,
				"z": 3.1136308131,
				"element": "H" 
			},
			{
				"x": 1.7218837943,
				"y": 2.7886049943,
				"z": 2.1208877193,
				"element": "H" 
			},
			{
				"x": -1.3577923316,
				"y": 4.0721881739,
				"z": -0.5981864399,
				"element": "H" 
			}
		],
		 "valence_orbital": [ 
			{
				"type": "occ",
				"energy": -0.29975,
				"method": "rhf"
			},
			{
				"type": "occ",
				"energy": -0.29275,
				"method": "rhf"
			},
			{
				"type": "occ",
				"energy": -0.27397,
				"method": "rhf"
			},
			{
				"type": "occ",
				"energy": -0.26163,
				"method": "rhf"
			},
			{
				"type": "occ",
				"energy": -0.23789,
				"method": "rhf"
			},
			{
				"type": "unocc",
				"energy": -0.10491,
				"method": "rhf"
			},
			{
				"type": "unocc",
				"energy": -0.09706,
				"method": "rhf"
			},
			{
				"type": "unocc",
				"energy": -0.04602,
				"method": "rhf"
			},
			{
				"type": "unocc",
				"energy": -0.03596,
				"method": "rhf"
			},
			{
				"type": "unocc",
				"energy": -0.02907,
				"method": "rhf"
			}
		],
		"cosmo_sigma_profile": { 
			"-0.025": 0.0,
			"-0.024": 0.0,
			"-0.023": 0.0,
			"-0.022": 0.0,
			"-0.021": 0.0,
			"-0.02": 0.0,
			"-0.019": 0.0,
			"-0.018": 0.0,
			"-0.017": 0.0,
			"-0.016": 0.0,
			"-0.015": 0.0,
			"-0.014": 0.0,
			"-0.013": 0.0,
			"-0.012": 0.0,
			"-0.011": 0.0,
			"-0.01": 0.0,
			"-0.009": 2.00464784087,
			"-0.008": 10.7077338632,
			"-0.007": 14.5260428331,
			"-0.006": 14.0933539549,
			"-0.005": 17.7222967137,
			"-0.004": 22.0198864557,
			"-0.003": 29.3466674132,
			"-0.002": 31.7010546664,
			"-0.001": 31.1232727873,
			"0.0": 28.6827632819,
			"0.001": 33.8430379371,
			"0.002": 44.0327833273,
			"0.003": 34.0535704409,
			"0.004": 15.5829644701,
			"0.005": 9.02363429715,
			"0.006": 11.2468564703,
			"0.007": 14.2924863998,
			"0.008": 9.07956901422,
			"0.009": 6.40627407124,
			"0.01": 1.25728005844,
			"0.011": 0.165080737292,
			"0.012": 0.0,
			"0.013": 0.0,
			"0.014": 0.0,
			"0.015": 0.0,
			"0.016": 0.0,
			"0.017": 0.0,
			"0.018": 0.0,
			"0.019": 0.0,
			"0.02": 0.0,
			"0.021": 0.0,
			"0.022": 0.0,
			"0.023": 0.0,
			"0.024": 0.0,
			"0.025": 0.0
		}
	}
}
