{
	 "smiles": "O=C1NC(=O)C(=O)N1C1=CC=CC=C1", 
	 "Tm": 487.15, 
	 "num_atms": 20, 
	 "gaussian": { 
		 "optdone": 1, 
		 "sigma_profile": "yes", 
		 "theory": "DFT", 
		 "functional": "B3LYP", 
		 "basiset": "6-31G**", 
		 "properties": { 
			 "R2extent": 4817.0596, 
			 "electric_dipole_moment_norm": 2.6175557358, 
			 "electric_quadrupole_moment_norm": 18.1065840909, 
			 "total_energy": -681.778643907, 
			 "HOMO_LUMO_gap": 0.16061, 
			 "cosmo_polarized_energy": -15.41, 
			 "cosmo_cavitation_energy": 25.76, 
			 "cosmo_dispersion_energy": -18.91, 
			 "cosmo_repulsion_energy": 1.48, 
			 "cosmo_total_nonelectrostatic_energy": 8.33, 
			 "SMD_solvation_energy": 7.01 
		},
		"coords": [
			{
				"x": -0.1280131904,
				"y": -4.0330471514,
				"z": 1.7798409062,
				"element": "O" 
			},
			{
				"x": 0.4578971453,
				"y": -3.9417022142,
				"z": 0.729020219,
				"element": "C" 
			},
			{
				"x": 0.8954549858,
				"y": -5.0071996278,
				"z": -0.0642936293,
				"element": "N" 
			},
			{
				"x": 1.5334473445,
				"y": -4.5983666364,
				"z": -1.2222843612,
				"element": "C" 
			},
			{
				"x": 2.0123282178,
				"y": -5.2784647183,
				"z": -2.0944159374,
				"element": "O" 
			},
			{
				"x": 1.4947355861,
				"y": -3.053510246,
				"z": -1.1463860596,
				"element": "C" 
			},
			{
				"x": 1.9360038235,
				"y": -2.2843526289,
				"z": -1.9636641305,
				"element": "O" 
			},
			{
				"x": 0.8407538386,
				"y": -2.758108816,
				"z": 0.0564578127,
				"element": "N" 
			},
			{
				"x": 0.5782040711,
				"y": -1.4391440912,
				"z": 0.5528608147,
				"element": "C" 
			},
			{
				"x": 0.1825010187,
				"y": -0.4371034535,
				"z": -0.3389326661,
				"element": "C" 
			},
			{
				"x": -0.0555425437,
				"y": 0.8498647031,
				"z": 0.1417409847,
				"element": "C" 
			},
			{
				"x": 0.0858467236,
				"y": 1.1353844244,
				"z": 1.5004943381,
				"element": "C" 
			},
			{
				"x": 0.4760770533,
				"y": 0.1264533335,
				"z": 2.3825500658,
				"element": "C" 
			},
			{
				"x": 0.7319570011,
				"y": -1.1617577241,
				"z": 1.9150743716,
				"element": "C" 
			},
			{
				"x": 0.7361104917,
				"y": -5.9681724752,
				"z": 0.2058617732,
				"element": "H" 
			},
			{
				"x": 0.0777792076,
				"y": -0.658471217,
				"z": -1.3936159437,
				"element": "H" 
			},
			{
				"x": -0.3571050607,
				"y": 1.6288134259,
				"z": -0.5518410294,
				"element": "H" 
			},
			{
				"x": -0.1060741668,
				"y": 2.1382327045,
				"z": 1.8697718965,
				"element": "H" 
			},
			{
				"x": 0.5888399973,
				"y": 0.3397972571,
				"z": 3.4411329756,
				"element": "H" 
			},
			{
				"x": 1.0321984557,
				"y": -1.9457448487,
				"z": 2.5987275992,
				"element": "H" 
			}
		],
		 "valence_orbital": [ 
			{
				"type": "occ",
				"energy": -0.31878,
				"method": "rhf"
			},
			{
				"type": "occ",
				"energy": -0.3053,
				"method": "rhf"
			},
			{
				"type": "occ",
				"energy": -0.28156,
				"method": "rhf"
			},
			{
				"type": "occ",
				"energy": -0.2642,
				"method": "rhf"
			},
			{
				"type": "occ",
				"energy": -0.25313,
				"method": "rhf"
			},
			{
				"type": "unocc",
				"energy": -0.09252,
				"method": "rhf"
			},
			{
				"type": "unocc",
				"energy": -0.02473,
				"method": "rhf"
			},
			{
				"type": "unocc",
				"energy": -0.01479,
				"method": "rhf"
			},
			{
				"type": "unocc",
				"energy": 0.03427,
				"method": "rhf"
			},
			{
				"type": "unocc",
				"energy": 0.06529,
				"method": "rhf"
			}
		],
		"cosmo_sigma_profile": { 
			"-0.025": 0.0,
			"-0.024": 0.0,
			"-0.023": 0.0,
			"-0.022": 0.0,
			"-0.021": 0.0,
			"-0.02": 0.0,
			"-0.019": 0.118614531813,
			"-0.018": 1.19612132715,
			"-0.017": 1.58504217667,
			"-0.016": 0.835181910295,
			"-0.015": 0.971420196418,
			"-0.014": 0.735596234053,
			"-0.013": 1.10069594269,
			"-0.012": 0.926245883744,
			"-0.011": 1.63919235365,
			"-0.01": 2.64056709574,
			"-0.009": 3.0577345286,
			"-0.008": 3.4527338499,
			"-0.007": 6.00124941494,
			"-0.006": 15.6313949312,
			"-0.005": 16.1301618966,
			"-0.004": 16.425415237,
			"-0.003": 9.90323424576,
			"-0.002": 9.5795662286,
			"-0.001": 8.5088119982,
			"0.0": 9.54359560662,
			"0.001": 8.68908475871,
			"0.002": 10.0414365981,
			"0.003": 11.0834338172,
			"0.004": 15.706859207,
			"0.005": 8.69743444736,
			"0.006": 4.28112349746,
			"0.007": 4.61505817911,
			"0.008": 7.36852840172,
			"0.009": 10.8146424696,
			"0.01": 13.8029330632,
			"0.011": 2.88257969699,
			"0.012": 0.0,
			"0.013": 0.0,
			"0.014": 0.0,
			"0.015": 0.0,
			"0.016": 0.0,
			"0.017": 0.0,
			"0.018": 0.0,
			"0.019": 0.0,
			"0.02": 0.0,
			"0.021": 0.0,
			"0.022": 0.0,
			"0.023": 0.0,
			"0.024": 0.0,
			"0.025": 0.0
		}
	}
}
