{
	 "smiles": "COC1=CC=C(C(=C1)C(O)=O)[N+]([O-])=O", 
	 "Tm": 406.15, 
	 "num_atms": 21, 
	 "gaussian": { 
		 "optdone": 1, 
		 "sigma_profile": "yes", 
		 "theory": "DFT", 
		 "functional": "B3LYP", 
		 "basiset": "6-31G**", 
		 "properties": { 
			 "R2extent": 3395.0901, 
			 "electric_dipole_moment_norm": 5.25453788073, 
			 "electric_quadrupole_moment_norm": 13.05427706, 
			 "total_energy": -739.833897935, 
			 "HOMO_LUMO_gap": 0.16683, 
			 "cosmo_polarized_energy": -15.4, 
			 "cosmo_cavitation_energy": 26.86, 
			 "cosmo_dispersion_energy": -19.39, 
			 "cosmo_repulsion_energy": 1.54, 
			 "cosmo_total_nonelectrostatic_energy": 9.01, 
			 "SMD_solvation_energy": 8.8 
		},
		"coords": [
			{
				"x": 2.3965610297,
				"y": 1.0963893436,
				"z": 1.2023323791,
				"element": "C" 
			},
			{
				"x": 1.7622560577,
				"y": -0.1355956718,
				"z": 1.536342219,
				"element": "O" 
			},
			{
				"x": 0.7087037267,
				"y": -0.548434767,
				"z": 0.7957700672,
				"element": "C" 
			},
			{
				"x": 0.1144376567,
				"y": -1.757783803,
				"z": 1.1959869769,
				"element": "C" 
			},
			{
				"x": -0.9822667392,
				"y": -2.2497558498,
				"z": 0.5097372027,
				"element": "C" 
			},
			{
				"x": -1.4926114717,
				"y": -1.5481129132,
				"z": -0.5860358376,
				"element": "C" 
			},
			{
				"x": -0.8935294752,
				"y": -0.3602349871,
				"z": -1.0217904865,
				"element": "C" 
			},
			{
				"x": 0.2006067365,
				"y": 0.1424005514,
				"z": -0.3134544656,
				"element": "C" 
			},
			{
				"x": -1.3031039548,
				"y": 0.4168978748,
				"z": -2.2421035168,
				"element": "C" 
			},
			{
				"x": -1.3268270371,
				"y": -0.3484054637,
				"z": -3.3502643315,
				"element": "O" 
			},
			{
				"x": -1.4782002752,
				"y": 1.6145958784,
				"z": -2.2457235939,
				"element": "O" 
			},
			{
				"x": -2.725395526,
				"y": -2.0460101866,
				"z": -1.1977929279,
				"element": "N" 
			},
			{
				"x": -2.9925066168,
				"y": -3.239136163,
				"z": -1.0506427494,
				"element": "O" 
			},
			{
				"x": -3.4371817133,
				"y": -1.2342725569,
				"z": -1.7899537109,
				"element": "O" 
			},
			{
				"x": 1.6964421727,
				"y": 1.9371365899,
				"z": 1.2696100833,
				"element": "H" 
			},
			{
				"x": 3.1927096076,
				"y": 1.2276144157,
				"z": 1.9353622417,
				"element": "H" 
			},
			{
				"x": 2.831020156,
				"y": 1.0621818758,
				"z": 0.1962683074,
				"element": "H" 
			},
			{
				"x": 0.520957674,
				"y": -2.2789159184,
				"z": 2.0555723824,
				"element": "H" 
			},
			{
				"x": -1.4724913911,
				"y": -3.1662003099,
				"z": 0.8142100629,
				"element": "H" 
			},
			{
				"x": 0.6430687995,
				"y": 1.0700525228,
				"z": -0.6526013842,
				"element": "H" 
			},
			{
				"x": -1.6194494169,
				"y": 0.2269895382,
				"z": -4.0772289183,
				"element": "H" 
			}
		],
		 "valence_orbital": [ 
			{
				"type": "occ",
				"energy": -0.30599,
				"method": "rhf"
			},
			{
				"type": "occ",
				"energy": -0.29806,
				"method": "rhf"
			},
			{
				"type": "occ",
				"energy": -0.29099,
				"method": "rhf"
			},
			{
				"type": "occ",
				"energy": -0.27745,
				"method": "rhf"
			},
			{
				"type": "occ",
				"energy": -0.2539,
				"method": "rhf"
			},
			{
				"type": "unocc",
				"energy": -0.08707,
				"method": "rhf"
			},
			{
				"type": "unocc",
				"energy": -0.04588,
				"method": "rhf"
			},
			{
				"type": "unocc",
				"energy": -0.00681,
				"method": "rhf"
			},
			{
				"type": "unocc",
				"energy": 0.02299,
				"method": "rhf"
			},
			{
				"type": "unocc",
				"energy": 0.07082,
				"method": "rhf"
			}
		],
		"cosmo_sigma_profile": { 
			"-0.025": 0.0,
			"-0.024": 0.0,
			"-0.023": 0.0,
			"-0.022": 0.0,
			"-0.021": 0.0,
			"-0.02": 0.0,
			"-0.019": 0.479929940035,
			"-0.018": 1.242115878,
			"-0.017": 0.523148574564,
			"-0.016": 0.661033063672,
			"-0.015": 0.790262523091,
			"-0.014": 1.33209054713,
			"-0.013": 0.574083301782,
			"-0.012": 0.335196925792,
			"-0.011": 0.531635111878,
			"-0.01": 0.740577813554,
			"-0.009": 0.999614920578,
			"-0.008": 5.91405870253,
			"-0.007": 11.3861453068,
			"-0.006": 14.5088826505,
			"-0.005": 13.7421321395,
			"-0.004": 14.133933936,
			"-0.003": 10.9015276589,
			"-0.002": 10.2804678047,
			"-0.001": 14.6092204571,
			"0.0": 18.8756323437,
			"0.001": 13.8671500475,
			"0.002": 7.52264949918,
			"0.003": 7.03422068907,
			"0.004": 6.65833038263,
			"0.005": 7.57383468149,
			"0.006": 8.22457152134,
			"0.007": 11.7634890648,
			"0.008": 10.9601149851,
			"0.009": 7.01748922299,
			"0.01": 5.31029406155,
			"0.011": 5.04034031887,
			"0.012": 1.15772277971,
			"0.013": 0.0,
			"0.014": 0.0,
			"0.015": 0.0,
			"0.016": 0.0,
			"0.017": 0.0,
			"0.018": 0.0,
			"0.019": 0.0,
			"0.02": 0.0,
			"0.021": 0.0,
			"0.022": 0.0,
			"0.023": 0.0,
			"0.024": 0.0,
			"0.025": 0.0
		}
	}
}
