{
	 "smiles": "COC1=CC=C(C=C1)C1C2=C(CC(C)(C)CC2=O)NC2=C1C1=C(C=CC=C1)C=C2", 
	 "Tm": 561.15, 
	 "num_atms": 54, 
	 "gaussian": { 
		 "optdone": 1, 
		 "sigma_profile": "yes", 
		 "theory": "DFT", 
		 "functional": "B3LYP", 
		 "basiset": "6-31G**", 
		 "properties": { 
			 "R2extent": 12004.6467, 
			 "electric_dipole_moment_norm": 5.82299247982, 
			 "electric_quadrupole_moment_norm": 14.7172944341, 
			 "total_energy": -1211.06263524, 
			 "HOMO_LUMO_gap": 0.15008, 
			 "cosmo_polarized_energy": -21.07, 
			 "cosmo_cavitation_energy": 53.66, 
			 "cosmo_dispersion_energy": -36.38, 
			 "cosmo_repulsion_energy": 2.71, 
			 "cosmo_total_nonelectrostatic_energy": 19.99, 
			 "SMD_solvation_energy": 9.09 
		},
		"coords": [
			{
				"x": 3.4714313689,
				"y": -4.7962119086,
				"z": 1.1403574704,
				"element": "C" 
			},
			{
				"x": 2.0664010698,
				"y": -4.8740784106,
				"z": 1.3017016544,
				"element": "O" 
			},
			{
				"x": 1.3191283401,
				"y": -3.7734367519,
				"z": 0.9818853095,
				"element": "C" 
			},
			{
				"x": -0.0664687587,
				"y": -3.9046275172,
				"z": 1.1526871289,
				"element": "C" 
			},
			{
				"x": -0.9122814386,
				"y": -2.8445946907,
				"z": 0.8519756233,
				"element": "C" 
			},
			{
				"x": -0.4069308036,
				"y": -1.6239212379,
				"z": 0.3712564221,
				"element": "C" 
			},
			{
				"x": 0.9755293211,
				"y": -1.5083306536,
				"z": 0.2092553877,
				"element": "C" 
			},
			{
				"x": 1.8412114224,
				"y": -2.5655070989,
				"z": 0.5084279215,
				"element": "C" 
			},
			{
				"x": -1.365969891,
				"y": -0.4584653802,
				"z": 0.0717588147,
				"element": "C" 
			},
			{
				"x": -1.6063024143,
				"y": 0.3883098466,
				"z": 1.3155588333,
				"element": "C" 
			},
			{
				"x": -0.9524584975,
				"y": 1.5695511339,
				"z": 1.5039795338,
				"element": "C" 
			},
			{
				"x": -1.0620048167,
				"y": 2.4001701698,
				"z": 2.7576489414,
				"element": "C" 
			},
			{
				"x": -1.5269289244,
				"y": 1.5909376914,
				"z": 3.9891868384,
				"element": "C" 
			},
			{
				"x": -0.4003625943,
				"y": 0.6586948204,
				"z": 4.4799969204,
				"element": "C" 
			},
			{
				"x": -1.9043302085,
				"y": 2.5607967521,
				"z": 5.1216733146,
				"element": "C" 
			},
			{
				"x": -2.7623850346,
				"y": 0.76954368,
				"z": 3.5660708566,
				"element": "C" 
			},
			{
				"x": -2.5638821577,
				"y": -0.0829968964,
				"z": 2.3124729892,
				"element": "C" 
			},
			{
				"x": -3.2382264635,
				"y": -1.0999048535,
				"z": 2.1468571869,
				"element": "O" 
			},
			{
				"x": -0.1817112639,
				"y": 2.0947570553,
				"z": 0.4957993324,
				"element": "N" 
			},
			{
				"x": -0.2794189889,
				"y": 1.6308496727,
				"z": -0.8252436973,
				"element": "C" 
			},
			{
				"x": -0.8923087672,
				"y": 0.4129073666,
				"z": -1.0855087325,
				"element": "C" 
			},
			{
				"x": -1.025191373,
				"y": -0.0087510697,
				"z": -2.4471417685,
				"element": "C" 
			},
			{
				"x": -0.5283803031,
				"y": 0.8263438939,
				"z": -3.5042458053,
				"element": "C" 
			},
			{
				"x": -0.6711889965,
				"y": 0.4095610566,
				"z": -4.85303978,
				"element": "C" 
			},
			{
				"x": -1.2748006705,
				"y": -0.7878958844,
				"z": -5.1647797724,
				"element": "C" 
			},
			{
				"x": -1.7534412776,
				"y": -1.6214547031,
				"z": -4.1277296959,
				"element": "C" 
			},
			{
				"x": -1.6292567239,
				"y": -1.2462776815,
				"z": -2.8074438649,
				"element": "C" 
			},
			{
				"x": 0.1064592948,
				"y": 2.0541354447,
				"z": -3.1739018567,
				"element": "C" 
			},
			{
				"x": 0.2305846776,
				"y": 2.4491061548,
				"z": -1.8680229052,
				"element": "C" 
			},
			{
				"x": 3.912001132,
				"y": -4.0148774095,
				"z": 1.7741057369,
				"element": "H" 
			},
			{
				"x": 3.7518225538,
				"y": -4.6055815264,
				"z": 0.0958289419,
				"element": "H" 
			},
			{
				"x": 3.8661117216,
				"y": -5.767257628,
				"z": 1.4447054209,
				"element": "H" 
			},
			{
				"x": -0.4562059294,
				"y": -4.8480727774,
				"z": 1.5217755357,
				"element": "H" 
			},
			{
				"x": -1.9812108165,
				"y": -2.9449683092,
				"z": 1.0108922141,
				"element": "H" 
			},
			{
				"x": 1.397700088,
				"y": -0.5832401455,
				"z": -0.1722633825,
				"element": "H" 
			},
			{
				"x": 2.9072976482,
				"y": -2.4357185199,
				"z": 0.3620358607,
				"element": "H" 
			},
			{
				"x": -2.3326996288,
				"y": -0.9050591154,
				"z": -0.18464272,
				"element": "H" 
			},
			{
				"x": -1.771355892,
				"y": 3.2211537174,
				"z": 2.5721929777,
				"element": "H" 
			},
			{
				"x": -0.0916682281,
				"y": 2.8745120177,
				"z": 2.9627636706,
				"element": "H" 
			},
			{
				"x": -0.7377498443,
				"y": 0.0731598355,
				"z": 5.3417905882,
				"element": "H" 
			},
			{
				"x": -0.0800693671,
				"y": -0.0418739486,
				"z": 3.704221803,
				"element": "H" 
			},
			{
				"x": 0.4743800861,
				"y": 1.2396040092,
				"z": 4.7945125313,
				"element": "H" 
			},
			{
				"x": -1.0446478315,
				"y": 3.1714022035,
				"z": 5.4219422635,
				"element": "H" 
			},
			{
				"x": -2.7097610608,
				"y": 3.2389079368,
				"z": 4.8175038666,
				"element": "H" 
			},
			{
				"x": -2.2457522661,
				"y": 2.0112038115,
				"z": 6.0053474158,
				"element": "H" 
			},
			{
				"x": -3.6004490789,
				"y": 1.45239808,
				"z": 3.3610286812,
				"element": "H" 
			},
			{
				"x": -3.0943233974,
				"y": 0.1029118264,
				"z": 4.3682717103,
				"element": "H" 
			},
			{
				"x": 0.2326281337,
				"y": 3.003859467,
				"z": 0.6386205186,
				"element": "H" 
			},
			{
				"x": -0.2921169665,
				"y": 1.0576477394,
				"z": -5.6395052129,
				"element": "H" 
			},
			{
				"x": -1.3789127454,
				"y": -1.0968566926,
				"z": -6.2007044575,
				"element": "H" 
			},
			{
				"x": -2.219298288,
				"y": -2.5713306935,
				"z": -4.3741613514,
				"element": "H" 
			},
			{
				"x": -1.9834682986,
				"y": -1.9133015322,
				"z": -2.0304237296,
				"element": "H" 
			},
			{
				"x": 0.4900623639,
				"y": 2.6814002091,
				"z": -3.9740005352,
				"element": "H" 
			},
			{
				"x": 0.7073707852,
				"y": 3.3943674442,
				"z": -1.6185309486,
				"element": "H" 
			}
		],
		 "valence_orbital": [ 
			{
				"type": "occ",
				"energy": -0.23622,
				"method": "rhf"
			},
			{
				"type": "occ",
				"energy": -0.22612,
				"method": "rhf"
			},
			{
				"type": "occ",
				"energy": -0.22012,
				"method": "rhf"
			},
			{
				"type": "occ",
				"energy": -0.20145,
				"method": "rhf"
			},
			{
				"type": "occ",
				"energy": -0.19282,
				"method": "rhf"
			},
			{
				"type": "unocc",
				"energy": -0.04274,
				"method": "rhf"
			},
			{
				"type": "unocc",
				"energy": -0.02556,
				"method": "rhf"
			},
			{
				"type": "unocc",
				"energy": 0.00242,
				"method": "rhf"
			},
			{
				"type": "unocc",
				"energy": 0.01228,
				"method": "rhf"
			},
			{
				"type": "unocc",
				"energy": 0.02335,
				"method": "rhf"
			}
		],
		"cosmo_sigma_profile": { 
			"-0.025": 0.0,
			"-0.024": 0.0,
			"-0.023": 0.0,
			"-0.022": 0.0,
			"-0.021": 0.0,
			"-0.02": 0.0,
			"-0.019": 0.0,
			"-0.018": 0.0,
			"-0.017": 0.0,
			"-0.016": 0.0337505412482,
			"-0.015": 0.726528118031,
			"-0.014": 1.53420500968,
			"-0.013": 1.5143614482,
			"-0.012": 1.533492006,
			"-0.011": 1.50000519834,
			"-0.01": 1.93708173644,
			"-0.009": 1.47678031127,
			"-0.008": 2.00755225705,
			"-0.007": 2.87845657348,
			"-0.006": 12.3268422096,
			"-0.005": 30.6472306131,
			"-0.004": 35.4352038303,
			"-0.003": 48.8578851576,
			"-0.002": 35.5219283518,
			"-0.001": 32.1299240122,
			"0.0": 31.8163838097,
			"0.001": 32.6546385448,
			"0.002": 26.8983329335,
			"0.003": 23.286042026,
			"0.004": 32.0663209918,
			"0.005": 27.2119554083,
			"0.006": 15.7023626103,
			"0.007": 3.85378353827,
			"0.008": 3.74488230018,
			"0.009": 3.57155439449,
			"0.01": 2.24866233799,
			"0.011": 2.46488102039,
			"0.012": 1.58094696595,
			"0.013": 2.67051514481,
			"0.014": 2.482345904,
			"0.015": 1.62566888929,
			"0.016": 0.265029751771,
			"0.017": 0.0,
			"0.018": 0.0,
			"0.019": 0.0,
			"0.02": 0.0,
			"0.021": 0.0,
			"0.022": 0.0,
			"0.023": 0.0,
			"0.024": 0.0,
			"0.025": 0.0
		}
	}
}
