{
	 "smiles": "NC1=CC(=NO1)C1=C(F)C=C(F)C=C1", 
	 "Tm": 384.15, 
	 "num_atms": 20, 
	 "gaussian": { 
		 "optdone": 1, 
		 "sigma_profile": "yes", 
		 "theory": "DFT", 
		 "functional": "B3LYP", 
		 "basiset": "6-31G**", 
		 "properties": { 
			 "R2extent": 3325.6613, 
			 "electric_dipole_moment_norm": 3.15903644962, 
			 "electric_quadrupole_moment_norm": 16.4206114853, 
			 "total_energy": -730.921313925, 
			 "HOMO_LUMO_gap": 0.1828, 
			 "cosmo_polarized_energy": -12.29, 
			 "cosmo_cavitation_energy": 26.02, 
			 "cosmo_dispersion_energy": -19.34, 
			 "cosmo_repulsion_energy": 1.46, 
			 "cosmo_total_nonelectrostatic_energy": 8.15, 
			 "SMD_solvation_energy": 5.55 
		},
		"coords": [
			{
				"x": 4.1966598651,
				"y": 0.9839669718,
				"z": -0.8146691304,
				"element": "N" 
			},
			{
				"x": 2.9793308566,
				"y": 0.5812032077,
				"z": -0.3224397804,
				"element": "C" 
			},
			{
				"x": 1.782893697,
				"y": 0.2653282683,
				"z": -0.9094697776,
				"element": "C" 
			},
			{
				"x": 0.9279156948,
				"y": 0.009937014,
				"z": 0.2033903762,
				"element": "C" 
			},
			{
				"x": 1.556638119,
				"y": 0.1563386133,
				"z": 1.3582192696,
				"element": "N" 
			},
			{
				"x": 2.8740585104,
				"y": 0.5221603783,
				"z": 1.0166392008,
				"element": "O" 
			},
			{
				"x": -0.4946811576,
				"y": -0.3752054393,
				"z": 0.2235346158,
				"element": "C" 
			},
			{
				"x": -1.2471880362,
				"y": -0.5830743653,
				"z": -0.9386215552,
				"element": "C" 
			},
			{
				"x": -0.6704518395,
				"y": -0.4322523129,
				"z": -2.1523372115,
				"element": "F" 
			},
			{
				"x": -2.5887191153,
				"y": -0.946297335,
				"z": -0.9203358504,
				"element": "C" 
			},
			{
				"x": -3.1983502063,
				"y": -1.1072158397,
				"z": 0.3160997325,
				"element": "C" 
			},
			{
				"x": -4.4970962867,
				"y": -1.4585096834,
				"z": 0.3563505625,
				"element": "F" 
			},
			{
				"x": -2.5058844416,
				"y": -0.9157012725,
				"z": 1.5088345586,
				"element": "C" 
			},
			{
				"x": -1.1658127049,
				"y": -0.552742642,
				"z": 1.4487188531,
				"element": "C" 
			},
			{
				"x": 4.3959536434,
				"y": 0.6906091561,
				"z": -1.7599337939,
				"element": "H" 
			},
			{
				"x": 4.971744684,
				"y": 0.8514662453,
				"z": -0.1787950177,
				"element": "H" 
			},
			{
				"x": 1.5439452081,
				"y": 0.2284674302,
				"z": -1.9572329087,
				"element": "H" 
			},
			{
				"x": -3.1331420807,
				"y": -1.0968965499,
				"z": -1.844274656,
				"element": "H" 
			},
			{
				"x": -3.0166873586,
				"y": -1.0501533991,
				"z": 2.4553671554,
				"element": "H" 
			},
			{
				"x": -0.6033270511,
				"y": -0.3962284458,
				"z": 2.3620553572,
				"element": "H" 
			}
		],
		 "valence_orbital": [ 
			{
				"type": "occ",
				"energy": -0.30788,
				"method": "rhf"
			},
			{
				"type": "occ",
				"energy": -0.29792,
				"method": "rhf"
			},
			{
				"type": "occ",
				"energy": -0.26184,
				"method": "rhf"
			},
			{
				"type": "occ",
				"energy": -0.23849,
				"method": "rhf"
			},
			{
				"type": "occ",
				"energy": -0.21838,
				"method": "rhf"
			},
			{
				"type": "unocc",
				"energy": -0.03558,
				"method": "rhf"
			},
			{
				"type": "unocc",
				"energy": -0.01083,
				"method": "rhf"
			},
			{
				"type": "unocc",
				"energy": 0.03008,
				"method": "rhf"
			},
			{
				"type": "unocc",
				"energy": 0.06011,
				"method": "rhf"
			},
			{
				"type": "unocc",
				"energy": 0.07961,
				"method": "rhf"
			}
		],
		"cosmo_sigma_profile": { 
			"-0.025": 0.0,
			"-0.024": 0.0,
			"-0.023": 0.0,
			"-0.022": 0.0,
			"-0.021": 0.0,
			"-0.02": 0.0,
			"-0.019": 0.0,
			"-0.018": 0.0,
			"-0.017": 0.0,
			"-0.016": 0.0,
			"-0.015": 0.809446560626,
			"-0.014": 2.91455540299,
			"-0.013": 2.47123309533,
			"-0.012": 2.96181248584,
			"-0.011": 2.69568387756,
			"-0.01": 2.13782938903,
			"-0.009": 2.61714514004,
			"-0.008": 5.14252029558,
			"-0.007": 6.39730477982,
			"-0.006": 7.12406656709,
			"-0.005": 7.03490256065,
			"-0.004": 6.56081007577,
			"-0.003": 6.39696200346,
			"-0.002": 7.20369088841,
			"-0.001": 13.7281098452,
			"0.0": 23.8737606495,
			"0.001": 22.1658794748,
			"0.002": 21.0340861687,
			"0.003": 22.1446102637,
			"0.004": 17.5721018177,
			"0.005": 2.8683075614,
			"0.006": 3.40623030735,
			"0.007": 3.17280908536,
			"0.008": 5.38880429903,
			"0.009": 3.95041604247,
			"0.01": 2.16596988129,
			"0.011": 2.48977959545,
			"0.012": 1.46430126197,
			"0.013": 1.5147590656,
			"0.014": 0.395760747201,
			"0.015": 0.0,
			"0.016": 0.0,
			"0.017": 0.0,
			"0.018": 0.0,
			"0.019": 0.0,
			"0.02": 0.0,
			"0.021": 0.0,
			"0.022": 0.0,
			"0.023": 0.0,
			"0.024": 0.0,
			"0.025": 0.0
		}
	}
}
