{
	 "smiles": "CC1=C(C=O)C=NN1C1=CC=CC=C1C", 
	 "Tm": 372.65, 
	 "num_atms": 27, 
	 "gaussian": { 
		 "optdone": 1, 
		 "sigma_profile": "yes", 
		 "theory": "DFT", 
		 "functional": "B3LYP", 
		 "basiset": "6-31G**", 
		 "properties": { 
			 "R2extent": 3549.7666, 
			 "electric_dipole_moment_norm": 3.28769265747, 
			 "electric_quadrupole_moment_norm": 18.3294740636, 
			 "total_energy": -649.221032543, 
			 "HOMO_LUMO_gap": 0.20263, 
			 "cosmo_polarized_energy": -10.77, 
			 "cosmo_cavitation_energy": 30.99, 
			 "cosmo_dispersion_energy": -21.52, 
			 "cosmo_repulsion_energy": 1.67, 
			 "cosmo_total_nonelectrostatic_energy": 11.14, 
			 "SMD_solvation_energy": 6.09 
		},
		"coords": [
			{
				"x": 2.4284995816,
				"y": 1.0376220203,
				"z": 0.8698622178,
				"element": "C" 
			},
			{
				"x": 1.9846937628,
				"y": 0.0399615892,
				"z": -0.1500598515,
				"element": "C" 
			},
			{
				"x": 2.7369772118,
				"y": -0.708088266,
				"z": -1.0640171311,
				"element": "C" 
			},
			{
				"x": 4.1788710755,
				"y": -0.7082194469,
				"z": -1.2621108606,
				"element": "C" 
			},
			{
				"x": 4.9863260072,
				"y": -0.027957297,
				"z": -0.6447723218,
				"element": "O" 
			},
			{
				"x": 1.7810008931,
				"y": -1.5031334671,
				"z": -1.7519541359,
				"element": "C" 
			},
			{
				"x": 0.5501661991,
				"y": -1.2866871828,
				"z": -1.3233001154,
				"element": "N" 
			},
			{
				"x": 0.6914009852,
				"y": -0.335994172,
				"z": -0.3420098612,
				"element": "N" 
			},
			{
				"x": -0.4725168605,
				"y": 0.1490644612,
				"z": 0.3395301428,
				"element": "C" 
			},
			{
				"x": -0.831669921,
				"y": 1.4886626942,
				"z": 0.1791433811,
				"element": "C" 
			},
			{
				"x": -1.9546910563,
				"y": 1.9931395645,
				"z": 0.8330954467,
				"element": "C" 
			},
			{
				"x": -2.7181634404,
				"y": 1.1456439762,
				"z": 1.6350658943,
				"element": "C" 
			},
			{
				"x": -2.3542080182,
				"y": -0.1936149758,
				"z": 1.7816605637,
				"element": "C" 
			},
			{
				"x": -1.2256649145,
				"y": -0.7245708232,
				"z": 1.144979472,
				"element": "C" 
			},
			{
				"x": -0.8401695244,
				"y": -2.1718007987,
				"z": 1.3233387094,
				"element": "C" 
			},
			{
				"x": 2.1901950323,
				"y": 2.0615474094,
				"z": 0.5608052077,
				"element": "H" 
			},
			{
				"x": 1.9406931759,
				"y": 0.8655575438,
				"z": 1.8342888522,
				"element": "H" 
			},
			{
				"x": 3.5105019255,
				"y": 0.9636237763,
				"z": 0.9794550223,
				"element": "H" 
			},
			{
				"x": 4.5263487862,
				"y": -1.4088141563,
				"z": -2.0537768951,
				"element": "H" 
			},
			{
				"x": 1.9571831698,
				"y": -2.222119602,
				"z": -2.5425105394,
				"element": "H" 
			},
			{
				"x": -0.2367408661,
				"y": 2.1225076099,
				"z": -0.4706493132,
				"element": "H" 
			},
			{
				"x": -2.2333196145,
				"y": 3.0347039796,
				"z": 0.7071757668,
				"element": "H" 
			},
			{
				"x": -3.5981336415,
				"y": 1.5243301149,
				"z": 2.1466709604,
				"element": "H" 
			},
			{
				"x": -2.9536398783,
				"y": -0.8470903226,
				"z": 2.4097197351,
				"element": "H" 
			},
			{
				"x": -1.4876984462,
				"y": -2.6555497627,
				"z": 2.058746709,
				"element": "H" 
			},
			{
				"x": -0.9121001373,
				"y": -2.7157205553,
				"z": 0.3773833968,
				"element": "H" 
			},
			{
				"x": 0.1963585133,
				"y": -2.2690039112,
				"z": 1.6646395473,
				"element": "H" 
			}
		],
		 "valence_orbital": [ 
			{
				"type": "occ",
				"energy": -0.2801,
				"method": "rhf"
			},
			{
				"type": "occ",
				"energy": -0.25932,
				"method": "rhf"
			},
			{
				"type": "occ",
				"energy": -0.2532,
				"method": "rhf"
			},
			{
				"type": "occ",
				"energy": -0.24727,
				"method": "rhf"
			},
			{
				"type": "occ",
				"energy": -0.24509,
				"method": "rhf"
			},
			{
				"type": "unocc",
				"energy": -0.04246,
				"method": "rhf"
			},
			{
				"type": "unocc",
				"energy": -0.02095,
				"method": "rhf"
			},
			{
				"type": "unocc",
				"energy": -0.01355,
				"method": "rhf"
			},
			{
				"type": "unocc",
				"energy": 0.01633,
				"method": "rhf"
			},
			{
				"type": "unocc",
				"energy": 0.08121,
				"method": "rhf"
			}
		],
		"cosmo_sigma_profile": { 
			"-0.025": 0.0,
			"-0.024": 0.0,
			"-0.023": 0.0,
			"-0.022": 0.0,
			"-0.021": 0.0,
			"-0.02": 0.0,
			"-0.019": 0.0,
			"-0.018": 0.0,
			"-0.017": 0.0,
			"-0.016": 0.0,
			"-0.015": 0.0,
			"-0.014": 0.0,
			"-0.013": 0.0,
			"-0.012": 0.0,
			"-0.011": 0.0,
			"-0.01": 0.0,
			"-0.009": 0.111036042196,
			"-0.008": 2.14802656603,
			"-0.007": 5.74388538721,
			"-0.006": 16.0374534202,
			"-0.005": 19.8727705691,
			"-0.004": 21.3911780007,
			"-0.003": 19.7560080821,
			"-0.002": 20.1911894659,
			"-0.001": 23.7838742919,
			"0.0": 21.6113449131,
			"0.001": 16.8177576832,
			"0.002": 15.5186464011,
			"0.003": 12.5139945404,
			"0.004": 14.4919222511,
			"0.005": 9.36115027233,
			"0.006": 3.91322340334,
			"0.007": 3.30887875273,
			"0.008": 2.9551751054,
			"0.009": 2.22758601435,
			"0.01": 3.62673587001,
			"0.011": 3.56774006087,
			"0.012": 4.18505826352,
			"0.013": 2.75476334272,
			"0.014": 1.12446635998,
			"0.015": 0.328062968711,
			"0.016": 0.0,
			"0.017": 0.0,
			"0.018": 0.0,
			"0.019": 0.0,
			"0.02": 0.0,
			"0.021": 0.0,
			"0.022": 0.0,
			"0.023": 0.0,
			"0.024": 0.0,
			"0.025": 0.0
		}
	}
}
