{
	 "smiles": "CS(=O)(=O)NC1=C(F)C=C(C=C1)S(N)(=O)=O", 
	 "Tm": 464.15, 
	 "num_atms": 25, 
	 "gaussian": { 
		 "optdone": 1, 
		 "sigma_profile": "yes", 
		 "theory": "DFT", 
		 "functional": "B3LYP", 
		 "basiset": "6-31G**", 
		 "properties": { 
			 "R2extent": 5994.2989, 
			 "electric_dipole_moment_norm": 1.39518945309, 
			 "electric_quadrupole_moment_norm": 32.388531122, 
			 "total_energy": -1578.63996574, 
			 "HOMO_LUMO_gap": 0.20224, 
			 "cosmo_polarized_energy": -24.42, 
			 "cosmo_cavitation_energy": 32.78, 
			 "cosmo_dispersion_energy": -24.66, 
			 "cosmo_repulsion_energy": 1.81, 
			 "cosmo_total_nonelectrostatic_energy": 9.93, 
			 "SMD_solvation_energy": 5.33 
		},
		"coords": [
			{
				"x": -2.5171855907,
				"y": -2.7210446141,
				"z": 2.1287380174,
				"element": "C" 
			},
			{
				"x": -3.0503468803,
				"y": -2.7110810433,
				"z": 0.4051876136,
				"element": "S" 
			},
			{
				"x": -2.3255132947,
				"y": -3.7752686825,
				"z": -0.2848572489,
				"element": "O" 
			},
			{
				"x": -4.5049723822,
				"y": -2.6016642061,
				"z": 0.3615515875,
				"element": "O" 
			},
			{
				"x": -2.5066269058,
				"y": -1.2255281906,
				"z": -0.2030903283,
				"element": "N" 
			},
			{
				"x": -1.1682826278,
				"y": -0.8088647095,
				"z": -0.2815903614,
				"element": "C" 
			},
			{
				"x": -0.9077518705,
				"y": 0.5642157535,
				"z": -0.1335060935,
				"element": "C" 
			},
			{
				"x": -1.9675782755,
				"y": 1.3750494652,
				"z": 0.103304536,
				"element": "F" 
			},
			{
				"x": 0.3619198234,
				"y": 1.0985966362,
				"z": -0.2164330094,
				"element": "C" 
			},
			{
				"x": 1.4246056211,
				"y": 0.2211207426,
				"z": -0.4489137558,
				"element": "C" 
			},
			{
				"x": 1.2101184546,
				"y": -1.1487337038,
				"z": -0.5922704535,
				"element": "C" 
			},
			{
				"x": -0.0837807314,
				"y": -1.6646560295,
				"z": -0.5215999444,
				"element": "C" 
			},
			{
				"x": 3.0854788047,
				"y": 0.8793185685,
				"z": -0.5516634726,
				"element": "S" 
			},
			{
				"x": 3.2256222699,
				"y": 1.3467361892,
				"z": -2.1736683254,
				"element": "N" 
			},
			{
				"x": 4.0097066492,
				"y": -0.2337558989,
				"z": -0.3171506953,
				"element": "O" 
			},
			{
				"x": 3.1245053081,
				"y": 2.1156981983,
				"z": 0.2343477537,
				"element": "O" 
			},
			{
				"x": -2.7972518522,
				"y": -3.6927727858,
				"z": 2.5392734436,
				"element": "H" 
			},
			{
				"x": -3.0289946528,
				"y": -1.9191321646,
				"z": 2.661903118,
				"element": "H" 
			},
			{
				"x": -1.4341186255,
				"y": -2.5943576619,
				"z": 2.1665641787,
				"element": "H" 
			},
			{
				"x": -3.1884328169,
				"y": -0.4870959227,
				"z": -0.0670530991,
				"element": "H" 
			},
			{
				"x": 0.5194677138,
				"y": 2.161374539,
				"z": -0.0755021469,
				"element": "H" 
			},
			{
				"x": 2.0534059149,
				"y": -1.8100404955,
				"z": -0.7550729825,
				"element": "H" 
			},
			{
				"x": -0.2641253007,
				"y": -2.7238083843,
				"z": -0.658548294,
				"element": "H" 
			},
			{
				"x": 3.5301212696,
				"y": 2.3161491925,
				"z": -2.2109592345,
				"element": "H" 
			},
			{
				"x": 3.8779099779,
				"y": 0.7336452084,
				"z": -2.6556908029,
				"element": "H" 
			}
		],
		 "valence_orbital": [ 
			{
				"type": "occ",
				"energy": -0.32,
				"method": "rhf"
			},
			{
				"type": "occ",
				"energy": -0.31368,
				"method": "rhf"
			},
			{
				"type": "occ",
				"energy": -0.30128,
				"method": "rhf"
			},
			{
				"type": "occ",
				"energy": -0.2808,
				"method": "rhf"
			},
			{
				"type": "occ",
				"energy": -0.2524,
				"method": "rhf"
			},
			{
				"type": "unocc",
				"energy": -0.05016,
				"method": "rhf"
			},
			{
				"type": "unocc",
				"energy": -0.03112,
				"method": "rhf"
			},
			{
				"type": "unocc",
				"energy": 0.03348,
				"method": "rhf"
			},
			{
				"type": "unocc",
				"energy": 0.05057,
				"method": "rhf"
			},
			{
				"type": "unocc",
				"energy": 0.05548,
				"method": "rhf"
			}
		],
		"cosmo_sigma_profile": { 
			"-0.025": 0.0,
			"-0.024": 0.0,
			"-0.023": 0.0,
			"-0.022": 0.0,
			"-0.021": 0.0,
			"-0.02": 0.0,
			"-0.019": 0.0,
			"-0.018": 0.0,
			"-0.017": 0.0,
			"-0.016": 0.0,
			"-0.015": 1.18901235552,
			"-0.014": 3.74861893848,
			"-0.013": 3.83975260971,
			"-0.012": 3.26095192682,
			"-0.011": 3.43503070064,
			"-0.01": 5.04447372712,
			"-0.009": 7.00373436817,
			"-0.008": 9.71214226536,
			"-0.007": 12.8770292051,
			"-0.006": 12.345707404,
			"-0.005": 15.6190233111,
			"-0.004": 12.9345146211,
			"-0.003": 11.2565119062,
			"-0.002": 9.39476287305,
			"-0.001": 14.3384755376,
			"0.0": 15.2257713173,
			"0.001": 14.9656627919,
			"0.002": 14.8029943136,
			"0.003": 13.048262593,
			"0.004": 6.45990398063,
			"0.005": 6.8150350927,
			"0.006": 5.40953998134,
			"0.007": 7.40752689866,
			"0.008": 6.73263708371,
			"0.009": 8.65753116827,
			"0.01": 17.8843244878,
			"0.011": 15.8258585585,
			"0.012": 2.72505593468,
			"0.013": 0.0,
			"0.014": 0.0,
			"0.015": 0.0,
			"0.016": 0.0,
			"0.017": 0.0,
			"0.018": 0.0,
			"0.019": 0.0,
			"0.02": 0.0,
			"0.021": 0.0,
			"0.022": 0.0,
			"0.023": 0.0,
			"0.024": 0.0,
			"0.025": 0.0
		}
	}
}
