{
	 "smiles": "COC1=CC=C2C(=O)CC(OC2=C1)C1=CC=CC=C1", 
	 "Tm": 361.15, 
	 "num_atms": 33, 
	 "gaussian": { 
		 "optdone": 1, 
		 "sigma_profile": "yes", 
		 "theory": "DFT", 
		 "functional": "B3LYP", 
		 "basiset": "6-31G**", 
		 "properties": { 
			 "R2extent": 5549.8838, 
			 "electric_dipole_moment_norm": 2.45814561001, 
			 "electric_quadrupole_moment_norm": 19.4951370757, 
			 "total_energy": -843.801301525, 
			 "HOMO_LUMO_gap": 0.17854, 
			 "cosmo_polarized_energy": -12.57, 
			 "cosmo_cavitation_energy": 36.18, 
			 "cosmo_dispersion_energy": -25.86, 
			 "cosmo_repulsion_energy": 1.98, 
			 "cosmo_total_nonelectrostatic_energy": 12.3, 
			 "SMD_solvation_energy": 7.16 
		},
		"coords": [
			{
				"x": -5.2401999494,
				"y": 2.2062148594,
				"z": -1.2832822675,
				"element": "C" 
			},
			{
				"x": -3.8918967669,
				"y": 2.2924466488,
				"z": -1.7254301076,
				"element": "O" 
			},
			{
				"x": -2.9052086081,
				"y": 1.8572384305,
				"z": -0.8994404204,
				"element": "C" 
			},
			{
				"x": -3.1268734954,
				"y": 1.3293031464,
				"z": 0.3883086338,
				"element": "C" 
			},
			{
				"x": -2.0357758928,
				"y": 0.9200950139,
				"z": 1.1400324533,
				"element": "C" 
			},
			{
				"x": -0.7242562867,
				"y": 1.0197873091,
				"z": 0.6538374967,
				"element": "C" 
			},
			{
				"x": 0.4255640303,
				"y": 0.6508653613,
				"z": 1.4949603154,
				"element": "C" 
			},
			{
				"x": 0.3237689531,
				"y": 0.152324619,
				"z": 2.6084083517,
				"element": "O" 
			},
			{
				"x": 1.7797524186,
				"y": 0.9953969816,
				"z": 0.8848603628,
				"element": "C" 
			},
			{
				"x": 1.7716102838,
				"y": 0.8461390874,
				"z": -0.6361112831,
				"element": "C" 
			},
			{
				"x": 0.7129136752,
				"y": 1.6657515215,
				"z": -1.202994059,
				"element": "O" 
			},
			{
				"x": -0.5253532722,
				"y": 1.5343801278,
				"z": -0.6486318665,
				"element": "C" 
			},
			{
				"x": -1.6080642136,
				"y": 1.9524618174,
				"z": -1.4163835554,
				"element": "C" 
			},
			{
				"x": 1.6688983055,
				"y": -0.5793565384,
				"z": -1.1700119739,
				"element": "C" 
			},
			{
				"x": 1.5872960412,
				"y": -0.7579660809,
				"z": -2.5597644514,
				"element": "C" 
			},
			{
				"x": 1.5166521402,
				"y": -2.0340929599,
				"z": -3.1122285352,
				"element": "C" 
			},
			{
				"x": 1.5298413794,
				"y": -3.1583342759,
				"z": -2.2814471106,
				"element": "C" 
			},
			{
				"x": 1.6102670699,
				"y": -2.9922291191,
				"z": -0.9002862092,
				"element": "C" 
			},
			{
				"x": 1.6789039451,
				"y": -1.7104169403,
				"z": -0.3459800232,
				"element": "C" 
			},
			{
				"x": -5.8472443097,
				"y": 2.6001904754,
				"z": -2.0994390467,
				"element": "H" 
			},
			{
				"x": -5.5333431564,
				"y": 1.1685197541,
				"z": -1.0826121604,
				"element": "H" 
			},
			{
				"x": -5.409179266,
				"y": 2.8099602803,
				"z": -0.3832717137,
				"element": "H" 
			},
			{
				"x": -4.1266748516,
				"y": 1.2457834055,
				"z": 0.7951279697,
				"element": "H" 
			},
			{
				"x": -2.1682524237,
				"y": 0.5204965209,
				"z": 2.1406197804,
				"element": "H" 
			},
			{
				"x": 1.9868391929,
				"y": 2.047262654,
				"z": 1.1224943967,
				"element": "H" 
			},
			{
				"x": 2.5630869757,
				"y": 0.3967566518,
				"z": 1.3545467908,
				"element": "H" 
			},
			{
				"x": 2.6763645171,
				"y": 1.3042819915,
				"z": -1.048049056,
				"element": "H" 
			},
			{
				"x": -1.4522971333,
				"y": 2.3407216541,
				"z": -2.4158775072,
				"element": "H" 
			},
			{
				"x": 1.5679953699,
				"y": 0.1154916054,
				"z": -3.2052808245,
				"element": "H" 
			},
			{
				"x": 1.4532177097,
				"y": -2.1533717197,
				"z": -4.1901536546,
				"element": "H" 
			},
			{
				"x": 1.4767430572,
				"y": -4.1549842169,
				"z": -2.710140124,
				"element": "H" 
			},
			{
				"x": 1.615394489,
				"y": -3.8588776489,
				"z": -0.2455378737,
				"element": "H" 
			},
			{
				"x": 1.7298100718,
				"y": -1.6084404173,
				"z": 0.7328572724,
				"element": "H" 
			}
		],
		 "valence_orbital": [ 
			{
				"type": "occ",
				"energy": -0.25275,
				"method": "rhf"
			},
			{
				"type": "occ",
				"energy": -0.25069,
				"method": "rhf"
			},
			{
				"type": "occ",
				"energy": -0.23899,
				"method": "rhf"
			},
			{
				"type": "occ",
				"energy": -0.23339,
				"method": "rhf"
			},
			{
				"type": "occ",
				"energy": -0.22497,
				"method": "rhf"
			},
			{
				"type": "unocc",
				"energy": -0.04643,
				"method": "rhf"
			},
			{
				"type": "unocc",
				"energy": -0.0092,
				"method": "rhf"
			},
			{
				"type": "unocc",
				"energy": -0.00175,
				"method": "rhf"
			},
			{
				"type": "unocc",
				"energy": 0.00292,
				"method": "rhf"
			},
			{
				"type": "unocc",
				"energy": 0.05273,
				"method": "rhf"
			}
		],
		"cosmo_sigma_profile": { 
			"-0.025": 0.0,
			"-0.024": 0.0,
			"-0.023": 0.0,
			"-0.022": 0.0,
			"-0.021": 0.0,
			"-0.02": 0.0,
			"-0.019": 0.0,
			"-0.018": 0.0,
			"-0.017": 0.0,
			"-0.016": 0.0,
			"-0.015": 0.0,
			"-0.014": 0.0,
			"-0.013": 0.0,
			"-0.012": 0.0,
			"-0.011": 0.0,
			"-0.01": 0.0,
			"-0.009": 0.0,
			"-0.008": 0.0101431658072,
			"-0.007": 6.4425908075,
			"-0.006": 24.9703814326,
			"-0.005": 28.8843146655,
			"-0.004": 29.4230859264,
			"-0.003": 22.6478597069,
			"-0.002": 17.1589528754,
			"-0.001": 15.0703468229,
			"0.0": 13.4709924295,
			"0.001": 15.4817248457,
			"0.002": 21.8089937855,
			"0.003": 29.5160250796,
			"0.004": 17.9186572114,
			"0.005": 14.598324842,
			"0.006": 7.96499978864,
			"0.007": 3.3407867748,
			"0.008": 3.1128500481,
			"0.009": 3.70612243858,
			"0.01": 2.99485521949,
			"0.011": 2.22491079815,
			"0.012": 4.30394291938,
			"0.013": 2.80645005014,
			"0.014": 0.604812756102,
			"0.015": 0.0,
			"0.016": 0.0,
			"0.017": 0.0,
			"0.018": 0.0,
			"0.019": 0.0,
			"0.02": 0.0,
			"0.021": 0.0,
			"0.022": 0.0,
			"0.023": 0.0,
			"0.024": 0.0,
			"0.025": 0.0
		}
	}
}
