{
	 "smiles": "NC1=NC(=CN=N1)C1=CC(F)=CC=C1", 
	 "Tm": 498.15, 
	 "num_atms": 21, 
	 "gaussian": { 
		 "optdone": 1, 
		 "sigma_profile": "yes", 
		 "theory": "DFT", 
		 "functional": "B3LYP", 
		 "basiset": "6-31G**", 
		 "properties": { 
			 "R2extent": 3868.2921, 
			 "electric_dipole_moment_norm": 1.93554220052, 
			 "electric_quadrupole_moment_norm": 19.8088763432, 
			 "total_energy": -665.990349418, 
			 "HOMO_LUMO_gap": 0.15239, 
			 "cosmo_polarized_energy": -13.25, 
			 "cosmo_cavitation_energy": 26.58, 
			 "cosmo_dispersion_energy": -19.75, 
			 "cosmo_repulsion_energy": 1.51, 
			 "cosmo_total_nonelectrostatic_energy": 8.34, 
			 "SMD_solvation_energy": 2.28 
		},
		"coords": [
			{
				"x": -1.4676251202,
				"y": -2.8324288444,
				"z": 2.5084011732,
				"element": "N" 
			},
			{
				"x": -0.8026909558,
				"y": -1.8401389915,
				"z": 1.8611776321,
				"element": "C" 
			},
			{
				"x": -1.286207776,
				"y": -1.4392107881,
				"z": 0.6717561108,
				"element": "N" 
			},
			{
				"x": -0.6285582197,
				"y": -0.4372704852,
				"z": 0.0849069988,
				"element": "C" 
			},
			{
				"x": 0.5058691882,
				"y": 0.1043490862,
				"z": 0.7215200531,
				"element": "C" 
			},
			{
				"x": 0.9329943854,
				"y": -0.3510680401,
				"z": 1.8993709656,
				"element": "N" 
			},
			{
				"x": 0.2805656524,
				"y": -1.3341697542,
				"z": 2.4986035775,
				"element": "N" 
			},
			{
				"x": -1.1268683428,
				"y": 0.0400196132,
				"z": -1.2285298258,
				"element": "C" 
			},
			{
				"x": -2.0741007714,
				"y": -0.7337059886,
				"z": -1.9173932102,
				"element": "C" 
			},
			{
				"x": -2.5385356572,
				"y": -0.2962998817,
				"z": -3.1475418828,
				"element": "C" 
			},
			{
				"x": -3.4435104983,
				"y": -1.0488334602,
				"z": -3.8067259981,
				"element": "F" 
			},
			{
				"x": -2.1045355526,
				"y": 0.8914828949,
				"z": -3.7284929184,
				"element": "C" 
			},
			{
				"x": -1.1702806035,
				"y": 1.662078071,
				"z": -3.0358360298,
				"element": "C" 
			},
			{
				"x": -0.6819872891,
				"y": 1.2449195096,
				"z": -1.798198295,
				"element": "C" 
			},
			{
				"x": -2.1625046071,
				"y": -3.3541074049,
				"z": 2.0003701949,
				"element": "H" 
			},
			{
				"x": -1.0259335115,
				"y": -3.2436419616,
				"z": 3.3147724585,
				"element": "H" 
			},
			{
				"x": 1.103895092,
				"y": 0.8948574048,
				"z": 0.2837777102,
				"element": "H" 
			},
			{
				"x": -2.4361267587,
				"y": -1.6602751056,
				"z": -1.4895789323,
				"element": "H" 
			},
			{
				"x": -2.4971211414,
				"y": 1.1935907045,
				"z": -4.6932380365,
				"element": "H" 
			},
			{
				"x": -0.8238718225,
				"y": 2.5974165243,
				"z": -3.4643613817,
				"element": "H" 
			},
			{
				"x": 0.0287343098,
				"y": 1.8726368976,
				"z": -1.2730603641,
				"element": "H" 
			}
		],
		 "valence_orbital": [ 
			{
				"type": "occ",
				"energy": -0.31622,
				"method": "rhf"
			},
			{
				"type": "occ",
				"energy": -0.26541,
				"method": "rhf"
			},
			{
				"type": "occ",
				"energy": -0.25751,
				"method": "rhf"
			},
			{
				"type": "occ",
				"energy": -0.23791,
				"method": "rhf"
			},
			{
				"type": "occ",
				"energy": -0.2282,
				"method": "rhf"
			},
			{
				"type": "unocc",
				"energy": -0.07581,
				"method": "rhf"
			},
			{
				"type": "unocc",
				"energy": -0.0283,
				"method": "rhf"
			},
			{
				"type": "unocc",
				"energy": -0.01139,
				"method": "rhf"
			},
			{
				"type": "unocc",
				"energy": 0.02038,
				"method": "rhf"
			},
			{
				"type": "unocc",
				"energy": 0.07931,
				"method": "rhf"
			}
		],
		"cosmo_sigma_profile": { 
			"-0.025": 0.0,
			"-0.024": 0.0,
			"-0.023": 0.0,
			"-0.022": 0.0,
			"-0.021": 0.0,
			"-0.02": 0.0,
			"-0.019": 0.0,
			"-0.018": 0.0,
			"-0.017": 0.0,
			"-0.016": 0.0,
			"-0.015": 0.247942995819,
			"-0.014": 2.03890019415,
			"-0.013": 2.47811359726,
			"-0.012": 1.48211151458,
			"-0.011": 2.17174827188,
			"-0.01": 1.97050412155,
			"-0.009": 3.90558851853,
			"-0.008": 5.15210813919,
			"-0.007": 7.91680398256,
			"-0.006": 8.61113494841,
			"-0.005": 9.92312879266,
			"-0.004": 8.0917835288,
			"-0.003": 10.6905335699,
			"-0.002": 13.6397670568,
			"-0.001": 13.0894902489,
			"0.0": 20.5146281947,
			"0.001": 18.7354260435,
			"0.002": 18.5118098033,
			"0.003": 16.5780034181,
			"0.004": 15.6710370289,
			"0.005": 6.92175354048,
			"0.006": 4.4711356446,
			"0.007": 2.85107156736,
			"0.008": 2.93687191238,
			"0.009": 2.01709880854,
			"0.01": 1.9247102061,
			"0.011": 2.6718573181,
			"0.012": 2.00635180243,
			"0.013": 2.51644701073,
			"0.014": 2.93078936283,
			"0.015": 1.39370705797,
			"0.016": 0.232704198955,
			"0.017": 0.0,
			"0.018": 0.0,
			"0.019": 0.0,
			"0.02": 0.0,
			"0.021": 0.0,
			"0.022": 0.0,
			"0.023": 0.0,
			"0.024": 0.0,
			"0.025": 0.0
		}
	}
}
