{
	 "smiles": "CC1=CC(C)=C(C)C(Br)=C1C", 
	 "Tm": 331.15, 
	 "num_atms": 24, 
	 "gaussian": { 
		 "optdone": 1, 
		 "sigma_profile": "yes", 
		 "theory": "DFT", 
		 "functional": "B3LYP", 
		 "basiset": "6-31G**", 
		 "properties": { 
			 "R2extent": 2888.9114, 
			 "electric_dipole_moment_norm": 1.6951754157, 
			 "electric_quadrupole_moment_norm": 4.75256561975, 
			 "total_energy": -2960.32980854, 
			 "HOMO_LUMO_gap": 0.22695, 
			 "cosmo_polarized_energy": -3.57, 
			 "cosmo_cavitation_energy": 27.58, 
			 "cosmo_dispersion_energy": -20.58, 
			 "cosmo_repulsion_energy": 1.63, 
			 "cosmo_total_nonelectrostatic_energy": 8.63, 
			 "SMD_solvation_energy": 3.81 
		},
		"coords": [
			{
				"x": -0.0876638007,
				"y": -2.112082037,
				"z": 2.6711710934,
				"element": "C" 
			},
			{
				"x": -0.2513364053,
				"y": -1.3024860697,
				"z": 1.4028490546,
				"element": "C" 
			},
			{
				"x": -1.3729032539,
				"y": -0.4826735289,
				"z": 1.2591135144,
				"element": "C" 
			},
			{
				"x": -1.6071158086,
				"y": 0.2987551276,
				"z": 0.1254558749,
				"element": "C" 
			},
			{
				"x": -2.8537411021,
				"y": 1.154969352,
				"z": 0.0649834378,
				"element": "C" 
			},
			{
				"x": -0.6743242636,
				"y": 0.2673223174,
				"z": -0.9310557885,
				"element": "C" 
			},
			{
				"x": -0.8682054019,
				"y": 1.0878799434,
				"z": -2.1834218736,
				"element": "C" 
			},
			{
				"x": 0.4464613964,
				"y": -0.5612520215,
				"z": -0.7703712133,
				"element": "C" 
			},
			{
				"x": 1.7349473026,
				"y": -0.6167717726,
				"z": -2.207485671,
				"element": "Br" 
			},
			{
				"x": 0.6970150483,
				"y": -1.3523158223,
				"z": 0.3609813702,
				"element": "C" 
			},
			{
				"x": 1.9305803927,
				"y": -2.2177691001,
				"z": 0.4535977668,
				"element": "C" 
			},
			{
				"x": 0.8319751574,
				"y": -1.8534413211,
				"z": 3.2084622444,
				"element": "H" 
			},
			{
				"x": -0.0507364036,
				"y": -3.1888474859,
				"z": 2.4698555762,
				"element": "H" 
			},
			{
				"x": -0.9258170437,
				"y": -1.9334219286,
				"z": 3.3497663567,
				"element": "H" 
			},
			{
				"x": -2.0984877782,
				"y": -0.4513280206,
				"z": 2.0684822401,
				"element": "H" 
			},
			{
				"x": -3.4426131688,
				"y": 1.0381762551,
				"z": 0.9785027503,
				"element": "H" 
			},
			{
				"x": -2.6166006776,
				"y": 2.2198887769,
				"z": -0.0400191904,
				"element": "H" 
			},
			{
				"x": -3.4982311607,
				"y": 0.8840461896,
				"z": -0.7791426466,
				"element": "H" 
			},
			{
				"x": -0.0317290611,
				"y": 1.7781900746,
				"z": -2.3363259326,
				"element": "H" 
			},
			{
				"x": -1.7868279883,
				"y": 1.6732641302,
				"z": -2.1455301694,
				"element": "H" 
			},
			{
				"x": -0.9094170706,
				"y": 0.4484896091,
				"z": -3.0717289748,
				"element": "H" 
			},
			{
				"x": 2.8419759071,
				"y": -1.6159227063,
				"z": 0.3714695552,
				"element": "H" 
			},
			{
				"x": 1.9709215682,
				"y": -2.765362614,
				"z": 1.3951271522,
				"element": "H" 
			},
			{
				"x": 1.9643736158,
				"y": -2.945507347,
				"z": -0.3642365269,
				"element": "H" 
			}
		],
		 "valence_orbital": [ 
			{
				"type": "occ",
				"energy": -0.33043,
				"method": "rhf"
			},
			{
				"type": "occ",
				"energy": -0.29664,
				"method": "rhf"
			},
			{
				"type": "occ",
				"energy": -0.27563,
				"method": "rhf"
			},
			{
				"type": "occ",
				"energy": -0.22888,
				"method": "rhf"
			},
			{
				"type": "occ",
				"energy": -0.22787,
				"method": "rhf"
			},
			{
				"type": "unocc",
				"energy": -0.00092,
				"method": "rhf"
			},
			{
				"type": "unocc",
				"energy": -0.0003,
				"method": "rhf"
			},
			{
				"type": "unocc",
				"energy": 0.01844,
				"method": "rhf"
			},
			{
				"type": "unocc",
				"energy": 0.0985,
				"method": "rhf"
			},
			{
				"type": "unocc",
				"energy": 0.1059,
				"method": "rhf"
			}
		],
		"cosmo_sigma_profile": { 
			"-0.025": 0.0,
			"-0.024": 0.0,
			"-0.023": 0.0,
			"-0.022": 0.0,
			"-0.021": 0.0,
			"-0.02": 0.0,
			"-0.019": 0.0,
			"-0.018": 0.0,
			"-0.017": 0.0,
			"-0.016": 0.0,
			"-0.015": 0.0,
			"-0.014": 0.0,
			"-0.013": 0.0,
			"-0.012": 0.0,
			"-0.011": 0.0,
			"-0.01": 0.0,
			"-0.009": 0.0,
			"-0.008": 0.0,
			"-0.007": 0.0,
			"-0.006": 0.0,
			"-0.005": 3.85423784289,
			"-0.004": 19.9085671158,
			"-0.003": 26.1909946119,
			"-0.002": 25.1774070206,
			"-0.001": 25.1967404303,
			"0.0": 35.3085649515,
			"0.001": 21.7751236621,
			"0.002": 13.4352339295,
			"0.003": 15.1652932905,
			"0.004": 16.1183838579,
			"0.005": 13.5914076891,
			"0.006": 4.16420801389,
			"0.007": 0.0,
			"0.008": 0.0,
			"0.009": 0.0,
			"0.01": 0.0,
			"0.011": 0.0,
			"0.012": 0.0,
			"0.013": 0.0,
			"0.014": 0.0,
			"0.015": 0.0,
			"0.016": 0.0,
			"0.017": 0.0,
			"0.018": 0.0,
			"0.019": 0.0,
			"0.02": 0.0,
			"0.021": 0.0,
			"0.022": 0.0,
			"0.023": 0.0,
			"0.024": 0.0,
			"0.025": 0.0
		}
	}
}
