{
	 "smiles": "COC1=CC=C(C=C1)C(=O)C1=CC=C(F)C=C1", 
	 "Tm": 364.15, 
	 "num_atms": 28, 
	 "gaussian": { 
		 "optdone": 1, 
		 "sigma_profile": "yes", 
		 "theory": "DFT", 
		 "functional": "B3LYP", 
		 "basiset": "6-31G**", 
		 "properties": { 
			 "R2extent": 6258.225, 
			 "electric_dipole_moment_norm": 4.29305175953, 
			 "electric_quadrupole_moment_norm": 11.2553097359, 
			 "total_energy": -790.393052785, 
			 "HOMO_LUMO_gap": 0.17184, 
			 "cosmo_polarized_energy": -11.1, 
			 "cosmo_cavitation_energy": 33.12, 
			 "cosmo_dispersion_energy": -23.92, 
			 "cosmo_repulsion_energy": 1.81, 
			 "cosmo_total_nonelectrostatic_energy": 11.01, 
			 "SMD_solvation_energy": 7.34 
		},
		"coords": [
			{
				"x": 0.8444193002,
				"y": -4.0707380436,
				"z": 2.9869406698,
				"element": "C" 
			},
			{
				"x": 0.377218419,
				"y": -2.9046715081,
				"z": 3.6509516061,
				"element": "O" 
			},
			{
				"x": 0.0661757219,
				"y": -1.8127432292,
				"z": 2.904422954,
				"element": "C" 
			},
			{
				"x": 0.1705610851,
				"y": -1.7458112686,
				"z": 1.5090573063,
				"element": "C" 
			},
			{
				"x": -0.1913821682,
				"y": -0.5713311364,
				"z": 0.8471153736,
				"element": "C" 
			},
			{
				"x": -0.6493602176,
				"y": 0.5499431473,
				"z": 1.5515187245,
				"element": "C" 
			},
			{
				"x": -0.7191463591,
				"y": 0.4722314275,
				"z": 2.9570330269,
				"element": "C" 
			},
			{
				"x": -0.3819415706,
				"y": -0.6905436518,
				"z": 3.6253055494,
				"element": "C" 
			},
			{
				"x": -0.978332525,
				"y": 1.8562477823,
				"z": 0.9074838272,
				"element": "C" 
			},
			{
				"x": -0.8864101037,
				"y": 2.8990766685,
				"z": 1.5503073415,
				"element": "O" 
			},
			{
				"x": -1.4229587349,
				"y": 1.9147572149,
				"z": -0.5253023075,
				"element": "C" 
			},
			{
				"x": -2.1486007625,
				"y": 0.888937566,
				"z": -1.1514730169,
				"element": "C" 
			},
			{
				"x": -2.5986514593,
				"y": 1.0314971826,
				"z": -2.463665078,
				"element": "C" 
			},
			{
				"x": -2.3061687085,
				"y": 2.2079044998,
				"z": -3.1441886841,
				"element": "C" 
			},
			{
				"x": -2.7278934405,
				"y": 2.3472580801,
				"z": -4.4159593365,
				"element": "F" 
			},
			{
				"x": -1.5981131097,
				"y": 3.2506398859,
				"z": -2.5512557736,
				"element": "C" 
			},
			{
				"x": -1.172416002,
				"y": 3.1006494409,
				"z": -1.2364985083,
				"element": "C" 
			},
			{
				"x": 0.0963377364,
				"y": -4.4628788572,
				"z": 2.2866523481,
				"element": "H" 
			},
			{
				"x": 1.779492023,
				"y": -3.8793163786,
				"z": 2.445966679,
				"element": "H" 
			},
			{
				"x": 1.0264155034,
				"y": -4.8087195246,
				"z": 3.7692496241,
				"element": "H" 
			},
			{
				"x": 0.5349853563,
				"y": -2.5891837121,
				"z": 0.9349684222,
				"element": "H" 
			},
			{
				"x": -0.0835875805,
				"y": -0.5273089952,
				"z": -0.2314346479,
				"element": "H" 
			},
			{
				"x": -1.044536082,
				"y": 1.3506337734,
				"z": 3.5041323816,
				"element": "H" 
			},
			{
				"x": -0.4468673571,
				"y": -0.7638065606,
				"z": 4.7059367069,
				"element": "H" 
			},
			{
				"x": -2.3893596447,
				"y": -0.0162004962,
				"z": -0.6047746796,
				"element": "H" 
			},
			{
				"x": -3.1723072293,
				"y": 0.2550100144,
				"z": -2.9578601929,
				"element": "H" 
			},
			{
				"x": -1.4004038658,
				"y": 4.1538715584,
				"z": -3.1183181539,
				"element": "H" 
			},
			{
				"x": -0.6407682245,
				"y": 3.9002951204,
				"z": -0.7321121621,
				"element": "H" 
			}
		],
		 "valence_orbital": [ 
			{
				"type": "occ",
				"energy": -0.26787,
				"method": "rhf"
			},
			{
				"type": "occ",
				"energy": -0.2619,
				"method": "rhf"
			},
			{
				"type": "occ",
				"energy": -0.25499,
				"method": "rhf"
			},
			{
				"type": "occ",
				"energy": -0.24288,
				"method": "rhf"
			},
			{
				"type": "occ",
				"energy": -0.22963,
				"method": "rhf"
			},
			{
				"type": "unocc",
				"energy": -0.05779,
				"method": "rhf"
			},
			{
				"type": "unocc",
				"energy": -0.01913,
				"method": "rhf"
			},
			{
				"type": "unocc",
				"energy": -0.00993,
				"method": "rhf"
			},
			{
				"type": "unocc",
				"energy": -0.00342,
				"method": "rhf"
			},
			{
				"type": "unocc",
				"energy": 0.0628,
				"method": "rhf"
			}
		],
		"cosmo_sigma_profile": { 
			"-0.025": 0.0,
			"-0.024": 0.0,
			"-0.023": 0.0,
			"-0.022": 0.0,
			"-0.021": 0.0,
			"-0.02": 0.0,
			"-0.019": 0.0,
			"-0.018": 0.0,
			"-0.017": 0.0,
			"-0.016": 0.0,
			"-0.015": 0.0,
			"-0.014": 0.0,
			"-0.013": 0.0,
			"-0.012": 0.0,
			"-0.011": 0.0,
			"-0.01": 0.0,
			"-0.009": 0.0,
			"-0.008": 1.33673120437,
			"-0.007": 7.61511688497,
			"-0.006": 18.5774134856,
			"-0.005": 22.0988519179,
			"-0.004": 22.5093564315,
			"-0.003": 19.7310823399,
			"-0.002": 16.1590139252,
			"-0.001": 17.0203379307,
			"0.0": 20.1601086639,
			"0.001": 19.2066889391,
			"0.002": 24.0878699957,
			"0.003": 26.3077880556,
			"0.004": 22.8769434871,
			"0.005": 4.86888511683,
			"0.006": 2.84854319223,
			"0.007": 2.77318909064,
			"0.008": 3.33388244702,
			"0.009": 3.32841826893,
			"0.01": 2.44591069278,
			"0.011": 2.68314683466,
			"0.012": 3.84235879126,
			"0.013": 2.10653926132,
			"0.014": 0.0,
			"0.015": 0.0,
			"0.016": 0.0,
			"0.017": 0.0,
			"0.018": 0.0,
			"0.019": 0.0,
			"0.02": 0.0,
			"0.021": 0.0,
			"0.022": 0.0,
			"0.023": 0.0,
			"0.024": 0.0,
			"0.025": 0.0
		}
	}
}
