{
	 "smiles": "CC(C)S(=O)(=O)NC1=C(F)C=C(C=C1)S(N)(=O)=O", 
	 "Tm": 408.15, 
	 "num_atms": 31, 
	 "gaussian": { 
		 "optdone": 1, 
		 "sigma_profile": "yes", 
		 "theory": "DFT", 
		 "functional": "B3LYP", 
		 "basiset": "6-31G**", 
		 "properties": { 
			 "R2extent": 7931.0619, 
			 "electric_dipole_moment_norm": 6.85816921489, 
			 "electric_quadrupole_moment_norm": 32.7409827382, 
			 "total_energy": -1657.2728963, 
			 "HOMO_LUMO_gap": 0.20013, 
			 "cosmo_polarized_energy": -28.07, 
			 "cosmo_cavitation_energy": 37.36, 
			 "cosmo_dispersion_energy": -26.86, 
			 "cosmo_repulsion_energy": 1.97, 
			 "cosmo_total_nonelectrostatic_energy": 12.46, 
			 "SMD_solvation_energy": 5.59 
		},
		"coords": [
			{
				"x": 1.3931862748,
				"y": 1.820273474,
				"z": 2.0156323731,
				"element": "C" 
			},
			{
				"x": 2.3950942965,
				"y": 1.8854525976,
				"z": 0.862973535,
				"element": "C" 
			},
			{
				"x": 1.8165894779,
				"y": 2.4539816193,
				"z": -0.4341214133,
				"element": "C" 
			},
			{
				"x": 3.1812476784,
				"y": 0.2481804971,
				"z": 0.548300224,
				"element": "S" 
			},
			{
				"x": 4.1927015874,
				"y": 0.444112977,
				"z": -0.489099829,
				"element": "O" 
			},
			{
				"x": 3.4938373689,
				"y": -0.3682296581,
				"z": 1.838538905,
				"element": "O" 
			},
			{
				"x": 2.0059211593,
				"y": -0.7296851202,
				"z": -0.2034458996,
				"element": "N" 
			},
			{
				"x": 0.8798646334,
				"y": -1.2915695312,
				"z": 0.4263417622,
				"element": "C" 
			},
			{
				"x": -0.3665815292,
				"y": -1.1700900004,
				"z": -0.2067342204,
				"element": "C" 
			},
			{
				"x": -0.4118278329,
				"y": -0.4620994985,
				"z": -1.3635023933,
				"element": "F" 
			},
			{
				"x": -1.5222932385,
				"y": -1.740471919,
				"z": 0.2940464212,
				"element": "C" 
			},
			{
				"x": -1.430459059,
				"y": -2.4486177929,
				"z": 1.4951253547,
				"element": "C" 
			},
			{
				"x": -0.2072308423,
				"y": -2.5954429732,
				"z": 2.1543019833,
				"element": "C" 
			},
			{
				"x": 0.9468782725,
				"y": -2.0286936527,
				"z": 1.6178877246,
				"element": "C" 
			},
			{
				"x": -2.9194353843,
				"y": -3.178660226,
				"z": 2.1920837313,
				"element": "S" 
			},
			{
				"x": -3.5561573906,
				"y": -2.0595946063,
				"z": 3.2701149113,
				"element": "N" 
			},
			{
				"x": -3.8951699754,
				"y": -3.2793002984,
				"z": 1.1088344084,
				"element": "O" 
			},
			{
				"x": -2.5019051811,
				"y": -4.3157652068,
				"z": 3.0081833763,
				"element": "O" 
			},
			{
				"x": 1.0734221467,
				"y": 2.837376232,
				"z": 2.2640952612,
				"element": "H" 
			},
			{
				"x": 1.8390644109,
				"y": 1.369815371,
				"z": 2.9042551766,
				"element": "H" 
			},
			{
				"x": 0.502277763,
				"y": 1.2481037285,
				"z": 1.7414280913,
				"element": "H" 
			},
			{
				"x": 3.2712921809,
				"y": 2.4718645244,
				"z": 1.1652212217,
				"element": "H" 
			},
			{
				"x": 0.961723321,
				"y": 1.8637556995,
				"z": -0.7800318485,
				"element": "H" 
			},
			{
				"x": 1.4645777091,
				"y": 3.4741396846,
				"z": -0.2534310074,
				"element": "H" 
			},
			{
				"x": 2.5697581843,
				"y": 2.488107097,
				"z": -1.2246466754,
				"element": "H" 
			},
			{
				"x": 1.8640985698,
				"y": -0.4573384342,
				"z": -1.1701529947,
				"element": "H" 
			},
			{
				"x": -2.4600533559,
				"y": -1.6512104322,
				"z": -0.2421238623,
				"element": "H" 
			},
			{
				"x": -0.1530289208,
				"y": -3.1888613424,
				"z": 3.0604297182,
				"element": "H" 
			},
			{
				"x": 1.9067172128,
				"y": -2.1504307958,
				"z": 2.1039128929,
				"element": "H" 
			},
			{
				"x": -3.8818344673,
				"y": -1.2094234374,
				"z": 2.8222131158,
				"element": "H" 
			},
			{
				"x": -2.9620750706,
				"y": -1.8940785762,
				"z": 4.0758699559,
				"element": "H" 
			}
		],
		 "valence_orbital": [ 
			{
				"type": "occ",
				"energy": -0.31346,
				"method": "rhf"
			},
			{
				"type": "occ",
				"energy": -0.31222,
				"method": "rhf"
			},
			{
				"type": "occ",
				"energy": -0.31057,
				"method": "rhf"
			},
			{
				"type": "occ",
				"energy": -0.28382,
				"method": "rhf"
			},
			{
				"type": "occ",
				"energy": -0.25581,
				"method": "rhf"
			},
			{
				"type": "unocc",
				"energy": -0.05568,
				"method": "rhf"
			},
			{
				"type": "unocc",
				"energy": -0.03454,
				"method": "rhf"
			},
			{
				"type": "unocc",
				"energy": 0.02769,
				"method": "rhf"
			},
			{
				"type": "unocc",
				"energy": 0.04244,
				"method": "rhf"
			},
			{
				"type": "unocc",
				"energy": 0.05439,
				"method": "rhf"
			}
		],
		"cosmo_sigma_profile": { 
			"-0.025": 0.0,
			"-0.024": 0.0,
			"-0.023": 0.0,
			"-0.022": 0.0,
			"-0.021": 0.0,
			"-0.02": 0.0,
			"-0.019": 0.0,
			"-0.018": 0.0,
			"-0.017": 0.0,
			"-0.016": 0.341042364078,
			"-0.015": 2.88449178138,
			"-0.014": 2.9949776861,
			"-0.013": 2.99551588496,
			"-0.012": 3.88129019157,
			"-0.011": 3.46416374406,
			"-0.01": 4.40631846768,
			"-0.009": 5.56905914049,
			"-0.008": 6.780162338,
			"-0.007": 9.08544709373,
			"-0.006": 11.854512917,
			"-0.005": 15.4666335898,
			"-0.004": 17.8643199187,
			"-0.003": 19.4377158453,
			"-0.002": 22.6367881373,
			"-0.001": 25.1175462121,
			"0.0": 20.1299981103,
			"0.001": 15.1086112577,
			"0.002": 12.580832941,
			"0.003": 10.5499669788,
			"0.004": 6.95906659953,
			"0.005": 7.16414713442,
			"0.006": 7.34057011211,
			"0.007": 8.14320354209,
			"0.008": 7.96611739779,
			"0.009": 7.63799678418,
			"0.01": 15.4251320832,
			"0.011": 18.4610341993,
			"0.012": 4.07663154235,
			"0.013": 0.0298480369263,
			"0.014": 0.0,
			"0.015": 0.0,
			"0.016": 0.0,
			"0.017": 0.0,
			"0.018": 0.0,
			"0.019": 0.0,
			"0.02": 0.0,
			"0.021": 0.0,
			"0.022": 0.0,
			"0.023": 0.0,
			"0.024": 0.0,
			"0.025": 0.0
		}
	}
}
