{
	 "smiles": "NC1=C(SC2=C1C(=CC(=N2)C1=CC=CC=C1)C(F)(F)F)C(O)=O", 
	 "Tm": 433.15, 
	 "num_atms": 32, 
	 "gaussian": { 
		 "optdone": 1, 
		 "sigma_profile": "yes", 
		 "theory": "DFT", 
		 "functional": "B3LYP", 
		 "basiset": "6-31G**", 
		 "properties": { 
			 "R2extent": 9776.8301, 
			 "electric_dipole_moment_norm": 5.34724085487, 
			 "electric_quadrupole_moment_norm": 11.9930354456, 
			 "total_energy": -1534.70922386, 
			 "HOMO_LUMO_gap": 0.12498, 
			 "cosmo_polarized_energy": -14.8, 
			 "cosmo_cavitation_energy": 38.99, 
			 "cosmo_dispersion_energy": -29.06, 
			 "cosmo_repulsion_energy": 2.05, 
			 "cosmo_total_nonelectrostatic_energy": 11.97, 
			 "SMD_solvation_energy": 6.65 
		},
		"coords": [
			{
				"x": 3.7136651951,
				"y": -1.048201163,
				"z": 0.4946379025,
				"element": "N" 
			},
			{
				"x": 2.6592018056,
				"y": -0.3287074992,
				"z": 0.9559504402,
				"element": "C" 
			},
			{
				"x": 2.4294033262,
				"y": -0.1095043404,
				"z": 2.3157243674,
				"element": "C" 
			},
			{
				"x": 0.9401610916,
				"y": 0.7908155047,
				"z": 2.6375511909,
				"element": "S" 
			},
			{
				"x": 0.6345201425,
				"y": 0.9288708188,
				"z": 0.9193162002,
				"element": "C" 
			},
			{
				"x": 1.6171047631,
				"y": 0.2705840936,
				"z": 0.1332680477,
				"element": "C" 
			},
			{
				"x": 1.3782233794,
				"y": 0.3111551088,
				"z": -1.2619735271,
				"element": "C" 
			},
			{
				"x": 0.265995988,
				"y": 0.9868783245,
				"z": -1.7373129662,
				"element": "C" 
			},
			{
				"x": -0.6272769577,
				"y": 1.6301993992,
				"z": -0.8487098122,
				"element": "C" 
			},
			{
				"x": -0.4345485053,
				"y": 1.5749177862,
				"z": 0.4761935154,
				"element": "N" 
			},
			{
				"x": -1.8209559635,
				"y": 2.36782113,
				"z": -1.3282813164,
				"element": "C" 
			},
			{
				"x": -2.8559614294,
				"y": 2.6716812816,
				"z": -0.4265977781,
				"element": "C" 
			},
			{
				"x": -3.9900480976,
				"y": 3.3564523701,
				"z": -0.8535110151,
				"element": "C" 
			},
			{
				"x": -4.1108194566,
				"y": 3.75773994,
				"z": -2.186408485,
				"element": "C" 
			},
			{
				"x": -3.0848939184,
				"y": 3.4715947231,
				"z": -3.0887739378,
				"element": "C" 
			},
			{
				"x": -1.9499931321,
				"y": 2.7828907171,
				"z": -2.6647652487,
				"element": "C" 
			},
			{
				"x": 2.2672543566,
				"y": -0.3902773799,
				"z": -2.2625450223,
				"element": "C" 
			},
			{
				"x": 1.8669923687,
				"y": -0.1970435942,
				"z": -3.5312358894,
				"element": "F" 
			},
			{
				"x": 3.5509916998,
				"y": 0.0632739178,
				"z": -2.1843466175,
				"element": "F" 
			},
			{
				"x": 2.3098692481,
				"y": -1.7187851574,
				"z": -2.0467854271,
				"element": "F" 
			},
			{
				"x": 3.3548153845,
				"y": -0.5273816636,
				"z": 3.3608835913,
				"element": "C" 
			},
			{
				"x": 3.0964647334,
				"y": -0.1574064062,
				"z": 4.6428003108,
				"element": "O" 
			},
			{
				"x": 4.3586878061,
				"y": -1.1911136117,
				"z": 3.1374227499,
				"element": "O" 
			},
			{
				"x": 4.0455269594,
				"y": -0.9019722592,
				"z": -0.4436298851,
				"element": "H" 
			},
			{
				"x": 4.3750354303,
				"y": -1.3284080111,
				"z": 1.2139938134,
				"element": "H" 
			},
			{
				"x": 0.0738051379,
				"y": 0.9933392752,
				"z": -2.8006549038,
				"element": "H" 
			},
			{
				"x": -2.7530089928,
				"y": 2.3597414293,
				"z": 0.6063363665,
				"element": "H" 
			},
			{
				"x": -4.7830778704,
				"y": 3.576833476,
				"z": -0.1448948749,
				"element": "H" 
			},
			{
				"x": -4.9956919333,
				"y": 4.2928348868,
				"z": -2.5183848889,
				"element": "H" 
			},
			{
				"x": -3.1640740837,
				"y": 3.7901159061,
				"z": -4.1239610418,
				"element": "H" 
			},
			{
				"x": -1.1548669997,
				"y": 2.5934122711,
				"z": -3.3785998514,
				"element": "H" 
			},
			{
				"x": 2.3343985241,
				"y": 0.436648726,
				"z": 4.6991939926,
				"element": "H" 
			}
		],
		 "valence_orbital": [ 
			{
				"type": "occ",
				"energy": -0.28371,
				"method": "rhf"
			},
			{
				"type": "occ",
				"energy": -0.27658,
				"method": "rhf"
			},
			{
				"type": "occ",
				"energy": -0.26425,
				"method": "rhf"
			},
			{
				"type": "occ",
				"energy": -0.24648,
				"method": "rhf"
			},
			{
				"type": "occ",
				"energy": -0.2138,
				"method": "rhf"
			},
			{
				"type": "unocc",
				"energy": -0.08882,
				"method": "rhf"
			},
			{
				"type": "unocc",
				"energy": -0.04983,
				"method": "rhf"
			},
			{
				"type": "unocc",
				"energy": -0.02239,
				"method": "rhf"
			},
			{
				"type": "unocc",
				"energy": -0.0129,
				"method": "rhf"
			},
			{
				"type": "unocc",
				"energy": -0.01067,
				"method": "rhf"
			}
		],
		"cosmo_sigma_profile": { 
			"-0.025": 0.0,
			"-0.024": 0.0,
			"-0.023": 0.0,
			"-0.022": 0.0,
			"-0.021": 0.0,
			"-0.02": 0.0,
			"-0.019": 0.0,
			"-0.018": 0.213154878771,
			"-0.017": 0.767215697619,
			"-0.016": 0.783336315464,
			"-0.015": 0.85691466121,
			"-0.014": 0.714978045878,
			"-0.013": 0.598186825125,
			"-0.012": 1.42291802615,
			"-0.011": 2.13505735047,
			"-0.01": 2.93394868605,
			"-0.009": 3.68125701939,
			"-0.008": 4.13746858205,
			"-0.007": 4.96181210172,
			"-0.006": 11.4597307992,
			"-0.005": 14.2902428119,
			"-0.004": 18.4896707237,
			"-0.003": 17.1793349784,
			"-0.002": 27.081416213,
			"-0.001": 27.8002516507,
			"0.0": 26.3688065123,
			"0.001": 33.6643999701,
			"0.002": 37.3381305737,
			"0.003": 20.5693840812,
			"0.004": 19.4455315788,
			"0.005": 10.6828336277,
			"0.006": 4.54743210376,
			"0.007": 4.0824559546,
			"0.008": 4.3356684555,
			"0.009": 3.77412496578,
			"0.01": 3.50155064434,
			"0.011": 4.46637277679,
			"0.012": 2.50539918981,
			"0.013": 2.12291665279,
			"0.014": 0.376866561034,
			"0.015": 0.0,
			"0.016": 0.0,
			"0.017": 0.0,
			"0.018": 0.0,
			"0.019": 0.0,
			"0.02": 0.0,
			"0.021": 0.0,
			"0.022": 0.0,
			"0.023": 0.0,
			"0.024": 0.0,
			"0.025": 0.0
		}
	}
}
