{
	 "smiles": "NC1=CC=C(C=C1)C(=O)N1CCOCC1", 
	 "Tm": 408.15, 
	 "num_atms": 29, 
	 "gaussian": { 
		 "optdone": 1, 
		 "sigma_profile": "yes", 
		 "theory": "DFT", 
		 "functional": "B3LYP", 
		 "basiset": "6-31G**", 
		 "properties": { 
			 "R2extent": 4393.5367, 
			 "electric_dipole_moment_norm": 4.7746337336, 
			 "electric_quadrupole_moment_norm": 21.1376462857, 
			 "total_energy": -687.552584767, 
			 "HOMO_LUMO_gap": 0.19192, 
			 "cosmo_polarized_energy": -17.96, 
			 "cosmo_cavitation_energy": 31.2, 
			 "cosmo_dispersion_energy": -23.13, 
			 "cosmo_repulsion_energy": 1.82, 
			 "cosmo_total_nonelectrostatic_energy": 9.89, 
			 "SMD_solvation_energy": 4.73 
		},
		"coords": [
			{
				"x": 3.2551786383,
				"y": 3.7277306409,
				"z": 2.8637978002,
				"element": "N" 
			},
			{
				"x": 2.5228607087,
				"y": 2.8022358203,
				"z": 2.130997431,
				"element": "C" 
			},
			{
				"x": 2.6882761576,
				"y": 1.4200239304,
				"z": 2.346498979,
				"element": "C" 
			},
			{
				"x": 1.999337232,
				"y": 0.4986091857,
				"z": 1.5720316238,
				"element": "C" 
			},
			{
				"x": 1.097956039,
				"y": 0.9103943076,
				"z": 0.5771608257,
				"element": "C" 
			},
			{
				"x": 0.9474950868,
				"y": 2.2874462549,
				"z": 0.3544660242,
				"element": "C" 
			},
			{
				"x": 1.6470432767,
				"y": 3.2200871276,
				"z": 1.1126082622,
				"element": "C" 
			},
			{
				"x": 0.453374851,
				"y": -0.1549349565,
				"z": -0.2538791003,
				"element": "C" 
			},
			{
				"x": 1.0499809633,
				"y": -1.2031174951,
				"z": -0.50487838,
				"element": "O" 
			},
			{
				"x": -0.8121360982,
				"y": 0.0610973582,
				"z": -0.7636116274,
				"element": "N" 
			},
			{
				"x": -1.8090404798,
				"y": 0.982359652,
				"z": -0.2037722847,
				"element": "C" 
			},
			{
				"x": -3.1580208681,
				"y": 0.2737309898,
				"z": -0.0875300456,
				"element": "C" 
			},
			{
				"x": -3.6528229773,
				"y": -0.177788771,
				"z": -1.3431173903,
				"element": "O" 
			},
			{
				"x": -2.6361079679,
				"y": -0.5198699047,
				"z": -2.2860794156,
				"element": "C" 
			},
			{
				"x": -1.3473968137,
				"y": -0.9980495922,
				"z": -1.6303430986,
				"element": "C" 
			},
			{
				"x": 3.6094589671,
				"y": 3.4095656417,
				"z": 3.7542987686,
				"element": "H" 
			},
			{
				"x": 2.8795736669,
				"y": 4.6642621379,
				"z": 2.9024020349,
				"element": "H" 
			},
			{
				"x": 3.3738460062,
				"y": 1.0777911278,
				"z": 3.1179344422,
				"element": "H" 
			},
			{
				"x": 2.1522844486,
				"y": -0.5653981983,
				"z": 1.7195708481,
				"element": "H" 
			},
			{
				"x": 0.2987428026,
				"y": 2.6424841047,
				"z": -0.4400392324,
				"element": "H" 
			},
			{
				"x": 1.529459942,
				"y": 4.2817594785,
				"z": 0.9098639424,
				"element": "H" 
			},
			{
				"x": -1.4870135654,
				"y": 1.318088223,
				"z": 0.7841292306,
				"element": "H" 
			},
			{
				"x": -1.9266029033,
				"y": 1.8745745574,
				"z": -0.8351627066,
				"element": "H" 
			},
			{
				"x": -3.0640340672,
				"y": -0.570116662,
				"z": 0.6138943408,
				"element": "H" 
			},
			{
				"x": -3.9049933082,
				"y": 0.9642734196,
				"z": 0.319005336,
				"element": "H" 
			},
			{
				"x": -2.4199104137,
				"y": 0.3441462848,
				"z": -2.9339110349,
				"element": "H" 
			},
			{
				"x": -3.0455646547,
				"y": -1.3137870218,
				"z": -2.9189592435,
				"element": "H" 
			},
			{
				"x": -0.6003847349,
				"y": -1.2446630181,
				"z": -2.3894897745,
				"element": "H" 
			},
			{
				"x": -1.5258399345,
				"y": -1.9173346231,
				"z": -1.0561865553,
				"element": "H" 
			}
		],
		 "valence_orbital": [ 
			{
				"type": "occ",
				"energy": -0.25523,
				"method": "rhf"
			},
			{
				"type": "occ",
				"energy": -0.25149,
				"method": "rhf"
			},
			{
				"type": "occ",
				"energy": -0.24157,
				"method": "rhf"
			},
			{
				"type": "occ",
				"energy": -0.22952,
				"method": "rhf"
			},
			{
				"type": "occ",
				"energy": -0.20735,
				"method": "rhf"
			},
			{
				"type": "unocc",
				"energy": -0.01543,
				"method": "rhf"
			},
			{
				"type": "unocc",
				"energy": -0.0024,
				"method": "rhf"
			},
			{
				"type": "unocc",
				"energy": 0.06208,
				"method": "rhf"
			},
			{
				"type": "unocc",
				"energy": 0.0767,
				"method": "rhf"
			},
			{
				"type": "unocc",
				"energy": 0.08262,
				"method": "rhf"
			}
		],
		"cosmo_sigma_profile": { 
			"-0.025": 0.0,
			"-0.024": 0.0,
			"-0.023": 0.0,
			"-0.022": 0.0,
			"-0.021": 0.0,
			"-0.02": 0.0,
			"-0.019": 0.0,
			"-0.018": 0.0,
			"-0.017": 0.0,
			"-0.016": 0.0,
			"-0.015": 0.0,
			"-0.014": 0.0,
			"-0.013": 1.28857106111,
			"-0.012": 3.0161652561,
			"-0.011": 2.42821573702,
			"-0.01": 3.56985098307,
			"-0.009": 3.19241717671,
			"-0.008": 2.51233633824,
			"-0.007": 3.39584139308,
			"-0.006": 9.14378562985,
			"-0.005": 23.0023701028,
			"-0.004": 31.7212989937,
			"-0.003": 23.502785384,
			"-0.002": 17.0385027469,
			"-0.001": 13.3101369016,
			"0.0": 10.5540542998,
			"0.001": 10.4870077924,
			"0.002": 10.119279464,
			"0.003": 10.4709269583,
			"0.004": 9.77260051556,
			"0.005": 13.8957386606,
			"0.006": 9.19577490264,
			"0.007": 3.17542718057,
			"0.008": 3.96459932553,
			"0.009": 3.57052570921,
			"0.01": 3.44600525207,
			"0.011": 3.64381674806,
			"0.012": 3.76310089375,
			"0.013": 4.5082590836,
			"0.014": 5.1960507258,
			"0.015": 2.37480365721,
			"0.016": 0.0799019348098,
			"0.017": 0.0,
			"0.018": 0.0,
			"0.019": 0.0,
			"0.02": 0.0,
			"0.021": 0.0,
			"0.022": 0.0,
			"0.023": 0.0,
			"0.024": 0.0,
			"0.025": 0.0
		}
	}
}
