{
	 "smiles": "O=C1NNC2=C1C=CC=N2", 
	 "Tm": 534.15, 
	 "num_atms": 15, 
	 "gaussian": { 
		 "optdone": 1, 
		 "sigma_profile": "yes", 
		 "theory": "DFT", 
		 "functional": "B3LYP", 
		 "basiset": "6-31G**", 
		 "properties": { 
			 "R2extent": 1498.969, 
			 "electric_dipole_moment_norm": 2.19806024713, 
			 "electric_quadrupole_moment_norm": 14.8802153865, 
			 "total_energy": -471.107772969, 
			 "HOMO_LUMO_gap": 0.17293, 
			 "cosmo_polarized_energy": -14.32, 
			 "cosmo_cavitation_energy": 19.65, 
			 "cosmo_dispersion_energy": -15.07, 
			 "cosmo_repulsion_energy": 1.21, 
			 "cosmo_total_nonelectrostatic_energy": 5.79, 
			 "SMD_solvation_energy": 2.35 
		},
		"coords": [
			{
				"x": 1.9305525675,
				"y": 2.3641186426,
				"z": -1.2839977494,
				"element": "O" 
			},
			{
				"x": 1.1642029768,
				"y": 1.6509538711,
				"z": -0.6598039229,
				"element": "C" 
			},
			{
				"x": -0.2250993295,
				"y": 1.8731020987,
				"z": -0.5425510357,
				"element": "N" 
			},
			{
				"x": -0.7839770961,
				"y": 1.0577577217,
				"z": 0.4834979743,
				"element": "N" 
			},
			{
				"x": 0.1912172435,
				"y": 0.1002609422,
				"z": 0.7640537226,
				"element": "C" 
			},
			{
				"x": 1.3979651892,
				"y": 0.4355019338,
				"z": 0.1358784,
				"element": "C" 
			},
			{
				"x": 2.5118962501,
				"y": -0.3683813319,
				"z": 0.3592029052,
				"element": "C" 
			},
			{
				"x": 2.3280057898,
				"y": -1.4807916579,
				"z": 1.1790015584,
				"element": "C" 
			},
			{
				"x": 1.0536652194,
				"y": -1.738433856,
				"z": 1.7143713263,
				"element": "C" 
			},
			{
				"x": -0.0284271959,
				"y": -0.9718627499,
				"z": 1.5228091878,
				"element": "N" 
			},
			{
				"x": -0.5275514375,
				"y": 2.8402979165,
				"z": -0.5171841183,
				"element": "H" 
			},
			{
				"x": -1.6903267977,
				"y": 0.6741198417,
				"z": 0.2259252544,
				"element": "H" 
			},
			{
				"x": 3.4685370197,
				"y": -0.1376030786,
				"z": -0.0995243374,
				"element": "H" 
			},
			{
				"x": 3.1463941392,
				"y": -2.1581320199,
				"z": 1.3974899197,
				"element": "H" 
			},
			{
				"x": 0.9010454616,
				"y": -2.619108274,
				"z": 2.3352309149,
				"element": "H" 
			}
		],
		 "valence_orbital": [ 
			{
				"type": "occ",
				"energy": -0.29929,
				"method": "rhf"
			},
			{
				"type": "occ",
				"energy": -0.28833,
				"method": "rhf"
			},
			{
				"type": "occ",
				"energy": -0.27984,
				"method": "rhf"
			},
			{
				"type": "occ",
				"energy": -0.25483,
				"method": "rhf"
			},
			{
				"type": "occ",
				"energy": -0.22999,
				"method": "rhf"
			},
			{
				"type": "unocc",
				"energy": -0.05706,
				"method": "rhf"
			},
			{
				"type": "unocc",
				"energy": -0.01666,
				"method": "rhf"
			},
			{
				"type": "unocc",
				"energy": 0.04535,
				"method": "rhf"
			},
			{
				"type": "unocc",
				"energy": 0.0844,
				"method": "rhf"
			},
			{
				"type": "unocc",
				"energy": 0.09317,
				"method": "rhf"
			}
		],
		"cosmo_sigma_profile": { 
			"-0.025": 0.0,
			"-0.024": 0.0,
			"-0.023": 0.0,
			"-0.022": 0.0,
			"-0.021": 0.0,
			"-0.02": 0.0,
			"-0.019": 0.0,
			"-0.018": 0.0,
			"-0.017": 0.0,
			"-0.016": 0.75699449797,
			"-0.015": 2.93130322579,
			"-0.014": 1.91366302511,
			"-0.013": 2.30055307144,
			"-0.012": 2.26401981141,
			"-0.011": 1.38009471554,
			"-0.01": 2.1682818172,
			"-0.009": 2.20906836572,
			"-0.008": 3.69134910602,
			"-0.007": 7.69786223561,
			"-0.006": 8.67479579598,
			"-0.005": 7.34372703703,
			"-0.004": 6.9141083364,
			"-0.003": 6.20887853498,
			"-0.002": 8.10234034465,
			"-0.001": 9.74951410348,
			"0.0": 12.9399411799,
			"0.001": 12.7997596828,
			"0.002": 10.123557314,
			"0.003": 5.36853814133,
			"0.004": 3.62441287564,
			"0.005": 3.92770715843,
			"0.006": 4.00940785015,
			"0.007": 4.30718836887,
			"0.008": 4.3121332264,
			"0.009": 2.8593136656,
			"0.01": 1.55164415299,
			"0.011": 2.62311008154,
			"0.012": 4.35036285983,
			"0.013": 6.90955305674,
			"0.014": 3.32255715419,
			"0.015": 0.523627451276,
			"0.016": 0.0,
			"0.017": 0.0,
			"0.018": 0.0,
			"0.019": 0.0,
			"0.02": 0.0,
			"0.021": 0.0,
			"0.022": 0.0,
			"0.023": 0.0,
			"0.024": 0.0,
			"0.025": 0.0
		}
	}
}
