{
	 "smiles": "CN(C)C=CC(=O)C(F)(F)F", 
	 "Tm": 326.15, 
	 "num_atms": 19, 
	 "gaussian": { 
		 "optdone": 1, 
		 "sigma_profile": "yes", 
		 "theory": "DFT", 
		 "functional": "B3LYP", 
		 "basiset": "6-31G**", 
		 "properties": { 
			 "R2extent": 3729.0673, 
			 "electric_dipole_moment_norm": 7.14327531879, 
			 "electric_quadrupole_moment_norm": 18.1428020851, 
			 "total_energy": -662.936730972, 
			 "HOMO_LUMO_gap": 0.17574, 
			 "cosmo_polarized_energy": -12.57, 
			 "cosmo_cavitation_energy": 24.89, 
			 "cosmo_dispersion_energy": -17.31, 
			 "cosmo_repulsion_energy": 1.36, 
			 "cosmo_total_nonelectrostatic_energy": 8.94, 
			 "SMD_solvation_energy": 6.57 
		},
		"coords": [
			{
				"x": 2.3030985975,
				"y": 1.1604125315,
				"z": 1.0240694196,
				"element": "C" 
			},
			{
				"x": 1.0644758479,
				"y": 0.4826125177,
				"z": 0.668283685,
				"element": "N" 
			},
			{
				"x": -0.1765775406,
				"y": 1.2307310043,
				"z": 0.807482671,
				"element": "C" 
			},
			{
				"x": 1.0430479318,
				"y": -0.8417198884,
				"z": 0.4161783006,
				"element": "C" 
			},
			{
				"x": -0.0523169206,
				"y": -1.6406745902,
				"z": 0.231467349,
				"element": "C" 
			},
			{
				"x": 0.1686193784,
				"y": -3.0370662098,
				"z": -0.0685259906,
				"element": "C" 
			},
			{
				"x": 1.2504653135,
				"y": -3.5932562872,
				"z": -0.2219279819,
				"element": "O" 
			},
			{
				"x": -1.1106016777,
				"y": -3.9090716235,
				"z": -0.1429480408,
				"element": "C" 
			},
			{
				"x": -0.910752326,
				"y": -5.0196563852,
				"z": -0.8591143699,
				"element": "F" 
			},
			{
				"x": -2.1492063615,
				"y": -3.2352129203,
				"z": -0.6961443425,
				"element": "F" 
			},
			{
				"x": -1.4921521608,
				"y": -4.2737245542,
				"z": 1.1025518308,
				"element": "F" 
			},
			{
				"x": 2.4188881597,
				"y": 2.0784532185,
				"z": 0.4374126001,
				"element": "H" 
			},
			{
				"x": 3.1508955797,
				"y": 0.5058724115,
				"z": 0.8149926241,
				"element": "H" 
			},
			{
				"x": 2.3253017178,
				"y": 1.4263188302,
				"z": 2.0893497591,
				"element": "H" 
			},
			{
				"x": 0.0406515385,
				"y": 2.3000418289,
				"z": 0.7697997571,
				"element": "H" 
			},
			{
				"x": -0.6819960302,
				"y": 1.0077012698,
				"z": 1.7566397728,
				"element": "H" 
			},
			{
				"x": -0.8565455919,
				"y": 0.9859224648,
				"z": -0.0135668783,
				"element": "H" 
			},
			{
				"x": 2.0181635682,
				"y": -1.3180945978,
				"z": 0.3412319997,
				"element": "H" 
			},
			{
				"x": -1.0672590237,
				"y": -1.2746890206,
				"z": 0.313267835,
				"element": "H" 
			}
		],
		 "valence_orbital": [ 
			{
				"type": "occ",
				"energy": -0.37628,
				"method": "rhf"
			},
			{
				"type": "occ",
				"energy": -0.37331,
				"method": "rhf"
			},
			{
				"type": "occ",
				"energy": -0.33135,
				"method": "rhf"
			},
			{
				"type": "occ",
				"energy": -0.24638,
				"method": "rhf"
			},
			{
				"type": "occ",
				"energy": -0.22076,
				"method": "rhf"
			},
			{
				"type": "unocc",
				"energy": -0.04502,
				"method": "rhf"
			},
			{
				"type": "unocc",
				"energy": 0.06652,
				"method": "rhf"
			},
			{
				"type": "unocc",
				"energy": 0.07081,
				"method": "rhf"
			},
			{
				"type": "unocc",
				"energy": 0.09679,
				"method": "rhf"
			},
			{
				"type": "unocc",
				"energy": 0.11014,
				"method": "rhf"
			}
		],
		"cosmo_sigma_profile": { 
			"-0.025": 0.0,
			"-0.024": 0.0,
			"-0.023": 0.0,
			"-0.022": 0.0,
			"-0.021": 0.0,
			"-0.02": 0.0,
			"-0.019": 0.0,
			"-0.018": 0.0,
			"-0.017": 0.0,
			"-0.016": 0.0,
			"-0.015": 0.0,
			"-0.014": 0.0,
			"-0.013": 0.0,
			"-0.012": 0.0,
			"-0.011": 0.0,
			"-0.01": 0.0534339365472,
			"-0.009": 1.26133705605,
			"-0.008": 2.06234396294,
			"-0.007": 4.35236399432,
			"-0.006": 12.8558833309,
			"-0.005": 16.8681933809,
			"-0.004": 19.4444272857,
			"-0.003": 20.7919383038,
			"-0.002": 10.9943183529,
			"-0.001": 7.28733751602,
			"0.0": 7.92064414409,
			"0.001": 11.3676198018,
			"0.002": 23.0534130801,
			"0.003": 31.1803710685,
			"0.004": 6.10421298232,
			"0.005": 2.60380241083,
			"0.006": 1.98483613783,
			"0.007": 1.9536854508,
			"0.008": 1.1885191118,
			"0.009": 1.54451024589,
			"0.01": 2.22477835915,
			"0.011": 1.97085020813,
			"0.012": 3.85578669513,
			"0.013": 4.17265962878,
			"0.014": 0.390797022758,
			"0.015": 0.0,
			"0.016": 0.0,
			"0.017": 0.0,
			"0.018": 0.0,
			"0.019": 0.0,
			"0.02": 0.0,
			"0.021": 0.0,
			"0.022": 0.0,
			"0.023": 0.0,
			"0.024": 0.0,
			"0.025": 0.0
		}
	}
}
