{
	 "smiles": "ClC1=CC=C(OCC2CO2)C=C1", 
	 "Tm": 305.15, 
	 "num_atms": 21, 
	 "gaussian": { 
		 "optdone": 1, 
		 "sigma_profile": "yes", 
		 "theory": "DFT", 
		 "functional": "B3LYP", 
		 "basiset": "6-31G**", 
		 "properties": { 
			 "R2extent": 3976.8045, 
			 "electric_dipole_moment_norm": 1.78400262892, 
			 "electric_quadrupole_moment_norm": 13.2315207531, 
			 "total_energy": -958.960958547, 
			 "HOMO_LUMO_gap": 0.20828, 
			 "cosmo_polarized_energy": -8.56, 
			 "cosmo_cavitation_energy": 27.24, 
			 "cosmo_dispersion_energy": -20.2, 
			 "cosmo_repulsion_energy": 1.63, 
			 "cosmo_total_nonelectrostatic_energy": 8.68, 
			 "SMD_solvation_energy": 4.55 
		},
		"coords": [
			{
				"x": -4.784494887,
				"y": 0.2533895403,
				"z": -1.0427046099,
				"element": "Cl" 
			},
			{
				"x": -3.1270500178,
				"y": 0.1528456758,
				"z": -0.4599503813,
				"element": "C" 
			},
			{
				"x": -2.721481434,
				"y": 0.9559696579,
				"z": 0.6092493985,
				"element": "C" 
			},
			{
				"x": -1.4126522346,
				"y": 0.8742758023,
				"z": 1.0681029696,
				"element": "C" 
			},
			{
				"x": -0.5019334777,
				"y": -0.0058525511,
				"z": 0.4651092821,
				"element": "C" 
			},
			{
				"x": 0.7589600845,
				"y": -0.0038433428,
				"z": 0.9898227419,
				"element": "O" 
			},
			{
				"x": 1.7182590015,
				"y": -0.9122978997,
				"z": 0.4600066524,
				"element": "C" 
			},
			{
				"x": 2.9807888976,
				"y": -0.7509778822,
				"z": 1.2708887793,
				"element": "C" 
			},
			{
				"x": 4.0736067137,
				"y": 0.1178249979,
				"z": 0.8162535391,
				"element": "C" 
			},
			{
				"x": 4.1513199731,
				"y": -1.3076022674,
				"z": 0.6689378724,
				"element": "O" 
			},
			{
				"x": -0.9161341539,
				"y": -0.805190782,
				"z": -0.6061849656,
				"element": "C" 
			},
			{
				"x": -2.2337600982,
				"y": -0.7232987419,
				"z": -1.066704607,
				"element": "C" 
			},
			{
				"x": -3.4252371814,
				"y": 1.6362103332,
				"z": 1.0760721017,
				"element": "H" 
			},
			{
				"x": -1.0732925859,
				"y": 1.4862330803,
				"z": 1.8971432461,
				"element": "H" 
			},
			{
				"x": 1.9280384752,
				"y": -0.700522898,
				"z": -0.5973047421,
				"element": "H" 
			},
			{
				"x": 1.3516800402,
				"y": -1.9459924401,
				"z": 0.5357262953,
				"element": "H" 
			},
			{
				"x": 2.872128476,
				"y": -0.9412185239,
				"z": 2.3397654843,
				"element": "H" 
			},
			{
				"x": 4.7567757135,
				"y": 0.5500749692,
				"z": 1.5463390655,
				"element": "H" 
			},
			{
				"x": 3.9620165935,
				"y": 0.6794655925,
				"z": -0.111180656,
				"element": "H" 
			},
			{
				"x": -0.2325005772,
				"y": -1.4905757566,
				"z": -1.0925392694,
				"element": "H" 
			},
			{
				"x": -2.5576373212,
				"y": -1.3416165635,
				"z": -1.896648197,
				"element": "H" 
			}
		],
		 "valence_orbital": [ 
			{
				"type": "occ",
				"energy": -0.30998,
				"method": "rhf"
			},
			{
				"type": "occ",
				"energy": -0.30551,
				"method": "rhf"
			},
			{
				"type": "occ",
				"energy": -0.28099,
				"method": "rhf"
			},
			{
				"type": "occ",
				"energy": -0.26593,
				"method": "rhf"
			},
			{
				"type": "occ",
				"energy": -0.22467,
				"method": "rhf"
			},
			{
				"type": "unocc",
				"energy": -0.01639,
				"method": "rhf"
			},
			{
				"type": "unocc",
				"energy": -0.00146,
				"method": "rhf"
			},
			{
				"type": "unocc",
				"energy": 0.03145,
				"method": "rhf"
			},
			{
				"type": "unocc",
				"energy": 0.07584,
				"method": "rhf"
			},
			{
				"type": "unocc",
				"energy": 0.09386,
				"method": "rhf"
			}
		],
		"cosmo_sigma_profile": { 
			"-0.025": 0.0,
			"-0.024": 0.0,
			"-0.023": 0.0,
			"-0.022": 0.0,
			"-0.021": 0.0,
			"-0.02": 0.0,
			"-0.019": 0.0,
			"-0.018": 0.0,
			"-0.017": 0.0,
			"-0.016": 0.0,
			"-0.015": 0.0,
			"-0.014": 0.0,
			"-0.013": 0.0,
			"-0.012": 0.0,
			"-0.011": 0.0,
			"-0.01": 0.0,
			"-0.009": 0.0,
			"-0.008": 0.632990772477,
			"-0.007": 10.8984117534,
			"-0.006": 22.0688059419,
			"-0.005": 18.764501136,
			"-0.004": 14.7778289064,
			"-0.003": 12.5888549599,
			"-0.002": 10.6753051839,
			"-0.001": 11.4513245062,
			"0.0": 11.4379407184,
			"0.001": 12.670658576,
			"0.002": 17.9875102823,
			"0.003": 22.2054556088,
			"0.004": 20.3343810085,
			"0.005": 12.9699373507,
			"0.006": 4.78887358195,
			"0.007": 2.15086976405,
			"0.008": 2.93966654906,
			"0.009": 2.55948963278,
			"0.01": 2.21109620891,
			"0.011": 3.43119964997,
			"0.012": 1.79156413356,
			"0.013": 0.12079310777,
			"0.014": 0.0,
			"0.015": 0.0,
			"0.016": 0.0,
			"0.017": 0.0,
			"0.018": 0.0,
			"0.019": 0.0,
			"0.02": 0.0,
			"0.021": 0.0,
			"0.022": 0.0,
			"0.023": 0.0,
			"0.024": 0.0,
			"0.025": 0.0
		}
	}
}
