{
	 "smiles": "O=C(NC1=C(C=CC=C1)C(=O)C1=CC=CC=C1)C1CCCN1CC1=CC=CC=C1", 
	 "Tm": 375.15, 
	 "num_atms": 53, 
	 "gaussian": { 
		 "optdone": 1, 
		 "sigma_profile": "yes", 
		 "theory": "DFT", 
		 "functional": "B3LYP", 
		 "basiset": "6-31G**", 
		 "properties": { 
			 "R2extent": 12832.4514, 
			 "electric_dipole_moment_norm": 3.36466047916, 
			 "electric_quadrupole_moment_norm": 16.9919068547, 
			 "total_energy": -1227.10445486, 
			 "HOMO_LUMO_gap": 0.14568, 
			 "cosmo_polarized_energy": -13.93, 
			 "cosmo_cavitation_energy": 54.79, 
			 "cosmo_dispersion_energy": -36.26, 
			 "cosmo_repulsion_energy": 2.71, 
			 "cosmo_total_nonelectrostatic_energy": 21.24, 
			 "SMD_solvation_energy": 8.95 
		},
		"coords": [
			{
				"x": 1.1263019445,
				"y": 3.7621801234,
				"z": -2.3265180189,
				"element": "O" 
			},
			{
				"x": 1.0810396273,
				"y": 2.5742123569,
				"z": -2.0314575056,
				"element": "C" 
			},
			{
				"x": 0.2405329078,
				"y": 2.0068686955,
				"z": -1.1016127361,
				"element": "N" 
			},
			{
				"x": -0.7139570921,
				"y": 2.6316791396,
				"z": -0.2968721924,
				"element": "C" 
			},
			{
				"x": -1.2930340054,
				"y": 1.9156493773,
				"z": 0.7958860276,
				"element": "C" 
			},
			{
				"x": -2.3065008177,
				"y": 2.5403859279,
				"z": 1.5493698354,
				"element": "C" 
			},
			{
				"x": -2.7254199537,
				"y": 3.8361872075,
				"z": 1.2806964314,
				"element": "C" 
			},
			{
				"x": -2.1086531353,
				"y": 4.5448355818,
				"z": 0.2461696614,
				"element": "C" 
			},
			{
				"x": -1.1175882144,
				"y": 3.9592657453,
				"z": -0.5332627165,
				"element": "C" 
			},
			{
				"x": -0.8819067023,
				"y": 0.5258744489,
				"z": 1.1257726273,
				"element": "C" 
			},
			{
				"x": -0.391768157,
				"y": -0.2276699174,
				"z": 0.2754076099,
				"element": "O" 
			},
			{
				"x": -1.0395357118,
				"y": -0.0039162111,
				"z": 2.5222501741,
				"element": "C" 
			},
			{
				"x": -0.8642332711,
				"y": 0.7905819598,
				"z": 3.6664960444,
				"element": "C" 
			},
			{
				"x": -0.9338403868,
				"y": 0.2190261084,
				"z": 4.9374888522,
				"element": "C" 
			},
			{
				"x": -1.1922495162,
				"y": -1.1452543143,
				"z": 5.0792584602,
				"element": "C" 
			},
			{
				"x": -1.3606106346,
				"y": -1.9449019443,
				"z": 3.9447017594,
				"element": "C" 
			},
			{
				"x": -1.2692986756,
				"y": -1.3809531637,
				"z": 2.675685727,
				"element": "C" 
			},
			{
				"x": 2.0631515286,
				"y": 1.5732331474,
				"z": -2.6590667257,
				"element": "C" 
			},
			{
				"x": 3.3755228139,
				"y": 1.4521110341,
				"z": -1.8195880568,
				"element": "C" 
			},
			{
				"x": 3.404274645,
				"y": -0.0185381442,
				"z": -1.3597446292,
				"element": "C" 
			},
			{
				"x": 2.6305128913,
				"y": -0.7285427539,
				"z": -2.4693048739,
				"element": "C" 
			},
			{
				"x": 1.5294612997,
				"y": 0.2052021789,
				"z": -2.7346286349,
				"element": "N" 
			},
			{
				"x": 0.7526598865,
				"y": -0.055763232,
				"z": -3.9447719023,
				"element": "C" 
			},
			{
				"x": 0.0495906745,
				"y": -1.4005259981,
				"z": -3.9453269148,
				"element": "C" 
			},
			{
				"x": -0.6718407816,
				"y": -1.841668577,
				"z": -2.8262394796,
				"element": "C" 
			},
			{
				"x": -1.3470253234,
				"y": -3.0619133523,
				"z": -2.8601115245,
				"element": "C" 
			},
			{
				"x": -1.3174353675,
				"y": -3.8569019252,
				"z": -4.0088521174,
				"element": "C" 
			},
			{
				"x": -0.6009327948,
				"y": -3.4255505528,
				"z": -5.1252419282,
				"element": "C" 
			},
			{
				"x": 0.0808557927,
				"y": -2.2071978596,
				"z": -5.0887026038,
				"element": "C" 
			},
			{
				"x": 0.3101002264,
				"y": 0.9928761527,
				"z": -1.0090223937,
				"element": "H" 
			},
			{
				"x": -2.7821585912,
				"y": 1.9798723148,
				"z": 2.3459028105,
				"element": "H" 
			},
			{
				"x": -3.5177395251,
				"y": 4.2884354832,
				"z": 1.8685382298,
				"element": "H" 
			},
			{
				"x": -2.411783872,
				"y": 5.5656596429,
				"z": 0.0303978087,
				"element": "H" 
			},
			{
				"x": -0.6432494512,
				"y": 4.5051663797,
				"z": -1.336072137,
				"element": "H" 
			},
			{
				"x": -0.6494560836,
				"y": 1.8487407563,
				"z": 3.5622267432,
				"element": "H" 
			},
			{
				"x": -0.7830460691,
				"y": 0.8395334065,
				"z": 5.8159711174,
				"element": "H" 
			},
			{
				"x": -1.2553984044,
				"y": -1.5864633373,
				"z": 6.0698962966,
				"element": "H" 
			},
			{
				"x": -1.55543484,
				"y": -3.0079674505,
				"z": 4.0521281374,
				"element": "H" 
			},
			{
				"x": -1.3713459814,
				"y": -1.992002788,
				"z": 1.785177955,
				"element": "H" 
			},
			{
				"x": 2.2962412271,
				"y": 1.9877830545,
				"z": -3.6513822333,
				"element": "H" 
			},
			{
				"x": 3.4050570735,
				"y": 2.1621993425,
				"z": -0.9891474882,
				"element": "H" 
			},
			{
				"x": 4.2335129394,
				"y": 1.6718332539,
				"z": -2.4615768636,
				"element": "H" 
			},
			{
				"x": 2.8720625416,
				"y": -0.1391011504,
				"z": -0.4106240059,
				"element": "H" 
			},
			{
				"x": 4.42013601,
				"y": -0.4028603832,
				"z": -1.2331223122,
				"element": "H" 
			},
			{
				"x": 2.2394742373,
				"y": -1.7063356727,
				"z": -2.1771204765,
				"element": "H" 
			},
			{
				"x": 3.271224772,
				"y": -0.87252607,
				"z": -3.3605028551,
				"element": "H" 
			},
			{
				"x": 0.0021997267,
				"y": 0.7420723644,
				"z": -4.02787992,
				"element": "H" 
			},
			{
				"x": 1.3865180921,
				"y": 0.020368244,
				"z": -4.8489797928,
				"element": "H" 
			},
			{
				"x": -0.6920427357,
				"y": -1.2341664219,
				"z": -1.9267933134,
				"element": "H" 
			},
			{
				"x": -1.8997157671,
				"y": -3.3931267226,
				"z": -1.9850220152,
				"element": "H" 
			},
			{
				"x": -1.8456711391,
				"y": -4.8060418259,
				"z": -4.0313335972,
				"element": "H" 
			},
			{
				"x": -0.5658049012,
				"y": -4.0376721751,
				"z": -6.0222804392,
				"element": "H" 
			},
			{
				"x": 0.6439470448,
				"y": -1.8785714845,
				"z": -5.9592599051,
				"element": "H" 
			}
		],
		 "valence_orbital": [ 
			{
				"type": "occ",
				"energy": -0.24844,
				"method": "rhf"
			},
			{
				"type": "occ",
				"energy": -0.24192,
				"method": "rhf"
			},
			{
				"type": "occ",
				"energy": -0.23654,
				"method": "rhf"
			},
			{
				"type": "occ",
				"energy": -0.22321,
				"method": "rhf"
			},
			{
				"type": "occ",
				"energy": -0.21638,
				"method": "rhf"
			},
			{
				"type": "unocc",
				"energy": -0.0707,
				"method": "rhf"
			},
			{
				"type": "unocc",
				"energy": -0.01886,
				"method": "rhf"
			},
			{
				"type": "unocc",
				"energy": -0.01669,
				"method": "rhf"
			},
			{
				"type": "unocc",
				"energy": -0.00789,
				"method": "rhf"
			},
			{
				"type": "unocc",
				"energy": 0.00358,
				"method": "rhf"
			}
		],
		"cosmo_sigma_profile": { 
			"-0.025": 0.0,
			"-0.024": 0.0,
			"-0.023": 0.0,
			"-0.022": 0.0,
			"-0.021": 0.0,
			"-0.02": 0.0,
			"-0.019": 0.0,
			"-0.018": 0.0,
			"-0.017": 0.0,
			"-0.016": 0.0,
			"-0.015": 0.0,
			"-0.014": 0.0,
			"-0.013": 0.0,
			"-0.012": 0.0,
			"-0.011": 0.0,
			"-0.01": 0.0,
			"-0.009": 0.0,
			"-0.008": 0.0,
			"-0.007": 2.05774202487,
			"-0.006": 15.545480837,
			"-0.005": 28.5491758456,
			"-0.004": 40.9597048708,
			"-0.003": 50.242812329,
			"-0.002": 45.3751292285,
			"-0.001": 40.4062529012,
			"0.0": 36.3629482916,
			"0.001": 31.5153527908,
			"0.002": 31.2821631391,
			"0.003": 30.2266118764,
			"0.004": 32.8291676623,
			"0.005": 15.1109835707,
			"0.006": 12.4986716997,
			"0.007": 5.77461436021,
			"0.008": 2.86892787007,
			"0.009": 3.04993916283,
			"0.01": 1.67694270431,
			"0.011": 2.81612985988,
			"0.012": 2.85836845565,
			"0.013": 2.84521085686,
			"0.014": 1.49863314489,
			"0.015": 0.0641212457615,
			"0.016": 0.0,
			"0.017": 0.0,
			"0.018": 0.0,
			"0.019": 0.0,
			"0.02": 0.0,
			"0.021": 0.0,
			"0.022": 0.0,
			"0.023": 0.0,
			"0.024": 0.0,
			"0.025": 0.0
		}
	}
}
