{
	 "smiles": "[O-][N+](=O)C1=CC(=C(C=C1)C(Cl)=CC1=CC(C=C(Cl)C2=CC=C(C=C2[N+]([O-])=O)[N+]([O-])=O)=CC=C1)[N+]([O-])=O", 
	 "Tm": 488.15, 
	 "num_atms": 48, 
	 "gaussian": { 
		 "optdone": 1, 
		 "sigma_profile": "yes", 
		 "theory": "DFT", 
		 "functional": "B3LYP", 
		 "basiset": "6-31G**", 
		 "properties": { 
			 "R2extent": 20705.5715, 
			 "electric_dipole_moment_norm": 7.1283751683, 
			 "electric_quadrupole_moment_norm": 26.6263533885, 
			 "total_energy": -2586.29919192, 
			 "HOMO_LUMO_gap": 0.1216, 
			 "cosmo_polarized_energy": -23.05, 
			 "cosmo_cavitation_energy": 60.69, 
			 "cosmo_dispersion_energy": -38.11, 
			 "cosmo_repulsion_energy": 2.83, 
			 "cosmo_total_nonelectrostatic_energy": 25.41, 
			 "SMD_solvation_energy": 17.63 
		},
		"coords": [
			{
				"x": 1.7665265775,
				"y": -5.6590508602,
				"z": -1.2930936944,
				"element": "O" 
			},
			{
				"x": 1.8622791825,
				"y": -4.4663441365,
				"z": -1.5727947927,
				"element": "N" 
			},
			{
				"x": 2.9165595565,
				"y": -3.8573886167,
				"z": -1.7383202369,
				"element": "O" 
			},
			{
				"x": 0.6102844393,
				"y": -3.7017899019,
				"z": -1.7217833183,
				"element": "C" 
			},
			{
				"x": -0.5996750011,
				"y": -4.3622429126,
				"z": -1.5489068444,
				"element": "C" 
			},
			{
				"x": -1.7701525982,
				"y": -3.624847877,
				"z": -1.6754190804,
				"element": "C" 
			},
			{
				"x": -1.7693878208,
				"y": -2.2558866905,
				"z": -2.0070606081,
				"element": "C" 
			},
			{
				"x": -0.5188022274,
				"y": -1.6383316508,
				"z": -2.1758535172,
				"element": "C" 
			},
			{
				"x": 0.6708129294,
				"y": -2.3439117378,
				"z": -2.0209041439,
				"element": "C" 
			},
			{
				"x": -2.9880533529,
				"y": -1.4517012561,
				"z": -2.2893460557,
				"element": "C" 
			},
			{
				"x": -3.9127284758,
				"y": -2.0174429297,
				"z": -3.6823751845,
				"element": "Cl" 
			},
			{
				"x": -3.3435388911,
				"y": -0.3063006718,
				"z": -1.6899954225,
				"element": "C" 
			},
			{
				"x": -2.692635329,
				"y": 0.2654898903,
				"z": -0.4958992769,
				"element": "C" 
			},
			{
				"x": -2.405981402,
				"y": 1.6369551408,
				"z": -0.4624585875,
				"element": "C" 
			},
			{
				"x": -1.720737373,
				"y": 2.2108384602,
				"z": 0.6187014307,
				"element": "C" 
			},
			{
				"x": -1.3811092061,
				"y": 3.6454950282,
				"z": 0.5522404643,
				"element": "C" 
			},
			{
				"x": -0.1925720532,
				"y": 4.1929266345,
				"z": 0.8447337257,
				"element": "C" 
			},
			{
				"x": -0.0010758939,
				"y": 5.9436573537,
				"z": 0.7144240828,
				"element": "Cl" 
			},
			{
				"x": 1.0403180326,
				"y": 3.4971653014,
				"z": 1.2981491968,
				"element": "C" 
			},
			{
				"x": 1.6027078848,
				"y": 3.8551414686,
				"z": 2.5363893568,
				"element": "C" 
			},
			{
				"x": 2.7316013374,
				"y": 3.2217008387,
				"z": 3.0424924496,
				"element": "C" 
			},
			{
				"x": 3.3127191303,
				"y": 2.1977384459,
				"z": 2.298880878,
				"element": "C" 
			},
			{
				"x": 2.800812365,
				"y": 1.8041257431,
				"z": 1.0706015199,
				"element": "C" 
			},
			{
				"x": 1.6849903353,
				"y": 2.4718504916,
				"z": 0.5770776459,
				"element": "C" 
			},
			{
				"x": 1.2348738827,
				"y": 2.0553660272,
				"z": -0.7674926978,
				"element": "N" 
			},
			{
				"x": 0.7945532559,
				"y": 2.9150353354,
				"z": -1.5196677657,
				"element": "O" 
			},
			{
				"x": 1.3676645527,
				"y": 0.862930925,
				"z": -1.0489855952,
				"element": "O" 
			},
			{
				"x": 4.5058352323,
				"y": 1.5095557253,
				"z": 2.8253793897,
				"element": "N" 
			},
			{
				"x": 4.9932838475,
				"y": 0.617620699,
				"z": 2.1362092476,
				"element": "O" 
			},
			{
				"x": 4.9279862386,
				"y": 1.8771108472,
				"z": 3.9193402556,
				"element": "O" 
			},
			{
				"x": -1.3869182438,
				"y": 1.399700785,
				"z": 1.7166912073,
				"element": "C" 
			},
			{
				"x": -1.7183252183,
				"y": 0.0453695706,
				"z": 1.7155223031,
				"element": "C" 
			},
			{
				"x": -2.3578032603,
				"y": -0.5253520343,
				"z": 0.6168538055,
				"element": "C" 
			},
			{
				"x": -3.0264834124,
				"y": -4.3361619548,
				"z": -1.3712569916,
				"element": "N" 
			},
			{
				"x": -3.9519242112,
				"y": -3.6706684424,
				"z": -0.9098775694,
				"element": "O" 
			},
			{
				"x": -3.0500111715,
				"y": -5.54790752,
				"z": -1.563886734,
				"element": "O" 
			},
			{
				"x": -0.6315337076,
				"y": -5.4160744494,
				"z": -1.3074740273,
				"element": "H" 
			},
			{
				"x": -0.4785401199,
				"y": -0.5850246641,
				"z": -2.4264971506,
				"element": "H" 
			},
			{
				"x": 1.6304877944,
				"y": -1.8567829007,
				"z": -2.1366345869,
				"element": "H" 
			},
			{
				"x": -4.1716296917,
				"y": 0.2528249531,
				"z": -2.1182996696,
				"element": "H" 
			},
			{
				"x": -2.6729635136,
				"y": 2.2588772962,
				"z": -1.3128906099,
				"element": "H" 
			},
			{
				"x": -2.1547672183,
				"y": 4.3112272397,
				"z": 0.1775008543,
				"element": "H" 
			},
			{
				"x": 1.1311032972,
				"y": 4.6463381915,
				"z": 3.1086362559,
				"element": "H" 
			},
			{
				"x": 3.1607188905,
				"y": 3.4992317134,
				"z": 3.9971330705,
				"element": "H" 
			},
			{
				"x": 3.2657449077,
				"y": 1.0065644034,
				"z": 0.5068396537,
				"element": "H" 
			},
			{
				"x": -0.8972320222,
				"y": 1.8376478351,
				"z": 2.5802759022,
				"element": "H" 
			},
			{
				"x": -1.4841046356,
				"y": -0.5671856394,
				"z": 2.5809699262,
				"element": "H" 
			},
			{
				"x": -2.633077619,
				"y": -1.5747894973,
				"z": 0.6233315394,
				"element": "H" 
			}
		],
		 "valence_orbital": [ 
			{
				"type": "occ",
				"energy": -0.30354,
				"method": "rhf"
			},
			{
				"type": "occ",
				"energy": -0.29792,
				"method": "rhf"
			},
			{
				"type": "occ",
				"energy": -0.294,
				"method": "rhf"
			},
			{
				"type": "occ",
				"energy": -0.2614,
				"method": "rhf"
			},
			{
				"type": "occ",
				"energy": -0.24834,
				"method": "rhf"
			},
			{
				"type": "unocc",
				"energy": -0.12674,
				"method": "rhf"
			},
			{
				"type": "unocc",
				"energy": -0.11657,
				"method": "rhf"
			},
			{
				"type": "unocc",
				"energy": -0.11125,
				"method": "rhf"
			},
			{
				"type": "unocc",
				"energy": -0.10018,
				"method": "rhf"
			},
			{
				"type": "unocc",
				"energy": -0.06752,
				"method": "rhf"
			}
		],
		"cosmo_sigma_profile": { 
			"-0.025": 0.0,
			"-0.024": 0.0,
			"-0.023": 0.0,
			"-0.022": 0.0,
			"-0.021": 0.0,
			"-0.02": 0.0,
			"-0.019": 0.0,
			"-0.018": 0.0,
			"-0.017": 0.0,
			"-0.016": 0.0,
			"-0.015": 0.0,
			"-0.014": 0.0,
			"-0.013": 0.0,
			"-0.012": 0.0,
			"-0.011": 0.0,
			"-0.01": 0.378473929003,
			"-0.009": 4.34756931575,
			"-0.008": 13.6508359879,
			"-0.007": 20.4612831444,
			"-0.006": 23.8683017752,
			"-0.005": 30.8664855305,
			"-0.004": 34.3968170639,
			"-0.003": 42.2412826725,
			"-0.002": 37.3363322502,
			"-0.001": 31.2696828415,
			"0.0": 32.0146570972,
			"0.001": 32.9595837079,
			"0.002": 29.7319480068,
			"0.003": 33.1227643141,
			"0.004": 29.8320535813,
			"0.005": 18.2147903354,
			"0.006": 24.9263307667,
			"0.007": 28.1798919407,
			"0.008": 15.7008108073,
			"0.009": 9.21944957088,
			"0.01": 0.841343208883,
			"0.011": 0.0,
			"0.012": 0.0,
			"0.013": 0.0,
			"0.014": 0.0,
			"0.015": 0.0,
			"0.016": 0.0,
			"0.017": 0.0,
			"0.018": 0.0,
			"0.019": 0.0,
			"0.02": 0.0,
			"0.021": 0.0,
			"0.022": 0.0,
			"0.023": 0.0,
			"0.024": 0.0,
			"0.025": 0.0
		}
	}
}
