{
	 "smiles": "CCN(CC)S(=O)(=O)C1=C(Cl)C=CC(N)=C1", 
	 "Tm": 370.15, 
	 "num_atms": 31, 
	 "gaussian": { 
		 "optdone": 1, 
		 "sigma_profile": "yes", 
		 "theory": "DFT", 
		 "functional": "B3LYP", 
		 "basiset": "6-31G**", 
		 "properties": { 
			 "R2extent": 5721.0614, 
			 "electric_dipole_moment_norm": 7.03236993339, 
			 "electric_quadrupole_moment_norm": 22.9677832833, 
			 "total_energy": -1508.36010728, 
			 "HOMO_LUMO_gap": 0.18517, 
			 "cosmo_polarized_energy": -20.46, 
			 "cosmo_cavitation_energy": 36.05, 
			 "cosmo_dispersion_energy": -25.13, 
			 "cosmo_repulsion_energy": 1.92, 
			 "cosmo_total_nonelectrostatic_energy": 12.84, 
			 "SMD_solvation_energy": 5.44 
		},
		"coords": [
			{
				"x": 2.7273227467,
				"y": 2.1083509803,
				"z": 0.4404466907,
				"element": "C" 
			},
			{
				"x": 2.7248945516,
				"y": 1.5004818079,
				"z": -0.9600309801,
				"element": "C" 
			},
			{
				"x": 1.4522957891,
				"y": 0.8241566044,
				"z": -1.3203490303,
				"element": "N" 
			},
			{
				"x": 1.5834978868,
				"y": -0.4661772144,
				"z": -2.0329335428,
				"element": "C" 
			},
			{
				"x": 1.9331863956,
				"y": -1.613987148,
				"z": -1.0858496227,
				"element": "C" 
			},
			{
				"x": 0.1929928331,
				"y": 1.846997652,
				"z": -1.8189625731,
				"element": "S" 
			},
			{
				"x": -0.4555823887,
				"y": 1.2546349012,
				"z": -2.9935571187,
				"element": "O" 
			},
			{
				"x": 0.7236300649,
				"y": 3.2126630777,
				"z": -1.8598829083,
				"element": "O" 
			},
			{
				"x": -1.007220715,
				"y": 1.7640383149,
				"z": -0.4597080356,
				"element": "C" 
			},
			{
				"x": -2.1851948156,
				"y": 2.5257051504,
				"z": -0.508981778,
				"element": "C" 
			},
			{
				"x": -2.5718284937,
				"y": 3.5940299788,
				"z": -1.8400846061,
				"element": "Cl" 
			},
			{
				"x": -3.0958772269,
				"y": 2.4308638622,
				"z": 0.544064604,
				"element": "C" 
			},
			{
				"x": -2.8531276443,
				"y": 1.5956284103,
				"z": 1.6283156031,
				"element": "C" 
			},
			{
				"x": -1.6810430726,
				"y": 0.8255627737,
				"z": 1.6873406492,
				"element": "C" 
			},
			{
				"x": -1.3996693784,
				"y": 0.0272502328,
				"z": 2.7926981302,
				"element": "N" 
			},
			{
				"x": -0.7654159974,
				"y": 0.9253897827,
				"z": 0.6267989297,
				"element": "C" 
			},
			{
				"x": 1.9749327788,
				"y": 2.8952351734,
				"z": 0.5289660413,
				"element": "H" 
			},
			{
				"x": 3.705532437,
				"y": 2.556549721,
				"z": 0.6446134961,
				"element": "H" 
			},
			{
				"x": 2.5336559302,
				"y": 1.3489669094,
				"z": 1.2044970444,
				"element": "H" 
			},
			{
				"x": 3.494142936,
				"y": 0.7256723696,
				"z": -1.0233073146,
				"element": "H" 
			},
			{
				"x": 2.9705111309,
				"y": 2.2659441342,
				"z": -1.7032480513,
				"element": "H" 
			},
			{
				"x": 0.6394094257,
				"y": -0.6693746065,
				"z": -2.5382944793,
				"element": "H" 
			},
			{
				"x": 2.3458646585,
				"y": -0.375605411,
				"z": -2.8195909085,
				"element": "H" 
			},
			{
				"x": 2.0504064443,
				"y": -2.5418205291,
				"z": -1.6556255895,
				"element": "H" 
			},
			{
				"x": 2.8705143082,
				"y": -1.43551399,
				"z": -0.5487697434,
				"element": "H" 
			},
			{
				"x": 1.1409645151,
				"y": -1.7676664832,
				"z": -0.3465358641,
				"element": "H" 
			},
			{
				"x": -4.0055720983,
				"y": 3.0201269596,
				"z": 0.5056448549,
				"element": "H" 
			},
			{
				"x": -3.5769458694,
				"y": 1.5433241054,
				"z": 2.4371298631,
				"element": "H" 
			},
			{
				"x": -0.7465386888,
				"y": -0.726857643,
				"z": 2.6343172026,
				"element": "H" 
			},
			{
				"x": -2.199895791,
				"y": -0.2662917578,
				"z": 3.3349721064,
				"element": "H" 
			},
			{
				"x": 0.1547573477,
				"y": 0.3535218809,
				"z": 0.6440069308,
				"element": "H" 
			}
		],
		 "valence_orbital": [ 
			{
				"type": "occ",
				"energy": -0.29348,
				"method": "rhf"
			},
			{
				"type": "occ",
				"energy": -0.29022,
				"method": "rhf"
			},
			{
				"type": "occ",
				"energy": -0.26691,
				"method": "rhf"
			},
			{
				"type": "occ",
				"energy": -0.25183,
				"method": "rhf"
			},
			{
				"type": "occ",
				"energy": -0.21566,
				"method": "rhf"
			},
			{
				"type": "unocc",
				"energy": -0.03049,
				"method": "rhf"
			},
			{
				"type": "unocc",
				"energy": -0.00943,
				"method": "rhf"
			},
			{
				"type": "unocc",
				"energy": 0.02397,
				"method": "rhf"
			},
			{
				"type": "unocc",
				"energy": 0.05942,
				"method": "rhf"
			},
			{
				"type": "unocc",
				"energy": 0.06648,
				"method": "rhf"
			}
		],
		"cosmo_sigma_profile": { 
			"-0.025": 0.0,
			"-0.024": 0.0,
			"-0.023": 0.0,
			"-0.022": 0.0,
			"-0.021": 0.0,
			"-0.02": 0.0,
			"-0.019": 0.0,
			"-0.018": 0.0,
			"-0.017": 0.0,
			"-0.016": 0.0,
			"-0.015": 0.0,
			"-0.014": 0.116819621104,
			"-0.013": 2.20517973958,
			"-0.012": 2.97986383911,
			"-0.011": 3.73011995338,
			"-0.01": 2.76564563764,
			"-0.009": 3.5739635144,
			"-0.008": 3.55132347708,
			"-0.007": 5.44498546546,
			"-0.006": 7.67407164065,
			"-0.005": 11.9071175823,
			"-0.004": 21.3833706588,
			"-0.003": 31.0704912809,
			"-0.002": 26.6582727388,
			"-0.001": 21.8978274182,
			"0.0": 23.2718781036,
			"0.001": 18.5997289665,
			"0.002": 18.6939702268,
			"0.003": 19.1597751059,
			"0.004": 11.4292524914,
			"0.005": 7.7582751728,
			"0.006": 4.36398267021,
			"0.007": 4.60848685892,
			"0.008": 5.45541237923,
			"0.009": 6.33093391062,
			"0.01": 7.53432278813,
			"0.011": 10.4429136469,
			"0.012": 3.14183755102,
			"0.013": 0.463745443305,
			"0.014": 0.0916012533053,
			"0.015": 0.0,
			"0.016": 0.0,
			"0.017": 0.0,
			"0.018": 0.0,
			"0.019": 0.0,
			"0.02": 0.0,
			"0.021": 0.0,
			"0.022": 0.0,
			"0.023": 0.0,
			"0.024": 0.0,
			"0.025": 0.0
		}
	}
}
