{
	 "smiles": "CC1=CC=CC(C(O)=O)=C1O", 
	 "Tm": 438.15, 
	 "num_atms": 19, 
	 "gaussian": { 
		 "optdone": 1, 
		 "sigma_profile": "yes", 
		 "theory": "DFT", 
		 "functional": "B3LYP", 
		 "basiset": "6-31G**", 
		 "properties": { 
			 "R2extent": 1799.0, 
			 "electric_dipole_moment_norm": 6.95576219476, 
			 "electric_quadrupole_moment_norm": 13.0976429097, 
			 "total_energy": -535.361945044, 
			 "HOMO_LUMO_gap": 0.20129, 
			 "cosmo_polarized_energy": -16.26, 
			 "cosmo_cavitation_energy": 22.66, 
			 "cosmo_dispersion_energy": -17.25, 
			 "cosmo_repulsion_energy": 1.37, 
			 "cosmo_total_nonelectrostatic_energy": 6.77, 
			 "SMD_solvation_energy": 5.28 
		},
		"coords": [
			{
				"x": -1.9248761382,
				"y": -2.538291488,
				"z": -0.6584688656,
				"element": "C" 
			},
			{
				"x": -0.8777743939,
				"y": -1.4609041631,
				"z": -0.8227932079,
				"element": "C" 
			},
			{
				"x": 0.1784848423,
				"y": -1.5965625961,
				"z": -1.7265075632,
				"element": "C" 
			},
			{
				"x": 1.142472179,
				"y": -0.5971943766,
				"z": -1.8733396295,
				"element": "C" 
			},
			{
				"x": 1.053315347,
				"y": 0.5575956866,
				"z": -1.1069373703,
				"element": "C" 
			},
			{
				"x": 0.0113916469,
				"y": 0.7401022333,
				"z": -0.1860912657,
				"element": "C" 
			},
			{
				"x": 0.0207769463,
				"y": 2.0353523101,
				"z": 0.5885008001,
				"element": "C" 
			},
			{
				"x": -0.96311196,
				"y": 2.2495683301,
				"z": 1.4835334731,
				"element": "O" 
			},
			{
				"x": 0.8847582576,
				"y": 2.8684117034,
				"z": 0.4190381126,
				"element": "O" 
			},
			{
				"x": -0.9454635524,
				"y": -0.2828694702,
				"z": -0.0590788786,
				"element": "C" 
			},
			{
				"x": -1.968647324,
				"y": -0.1010647684,
				"z": 0.8466970814,
				"element": "O" 
			},
			{
				"x": -1.9501121566,
				"y": -2.9413254729,
				"z": 0.3635048235,
				"element": "H" 
			},
			{
				"x": -1.720728227,
				"y": -3.3792666368,
				"z": -1.3246359404,
				"element": "H" 
			},
			{
				"x": -2.934072402,
				"y": -2.1779390234,
				"z": -0.9016992154,
				"element": "H" 
			},
			{
				"x": 0.241343951,
				"y": -2.5032767365,
				"z": -2.3227122467,
				"element": "H" 
			},
			{
				"x": 1.9549204363,
				"y": -0.7233141822,
				"z": -2.5815992042,
				"element": "H" 
			},
			{
				"x": 1.7816575064,
				"y": 1.3563197955,
				"z": -1.1915219707,
				"element": "H" 
			},
			{
				"x": -1.5749505539,
				"y": 1.4924162637,
				"z": 1.5025317858,
				"element": "H" 
			},
			{
				"x": -2.5631844047,
				"y": -0.8609574085,
				"z": 0.8508792816,
				"element": "H" 
			}
		],
		 "valence_orbital": [ 
			{
				"type": "occ",
				"energy": -0.34261,
				"method": "rhf"
			},
			{
				"type": "occ",
				"energy": -0.2981,
				"method": "rhf"
			},
			{
				"type": "occ",
				"energy": -0.26099,
				"method": "rhf"
			},
			{
				"type": "occ",
				"energy": -0.26052,
				"method": "rhf"
			},
			{
				"type": "occ",
				"energy": -0.24424,
				"method": "rhf"
			},
			{
				"type": "unocc",
				"energy": -0.04295,
				"method": "rhf"
			},
			{
				"type": "unocc",
				"energy": -0.00901,
				"method": "rhf"
			},
			{
				"type": "unocc",
				"energy": 0.03666,
				"method": "rhf"
			},
			{
				"type": "unocc",
				"energy": 0.06091,
				"method": "rhf"
			},
			{
				"type": "unocc",
				"energy": 0.09016,
				"method": "rhf"
			}
		],
		"cosmo_sigma_profile": { 
			"-0.025": 0.0,
			"-0.024": 0.0,
			"-0.023": 0.0,
			"-0.022": 0.0,
			"-0.021": 0.0,
			"-0.02": 0.0,
			"-0.019": 0.0,
			"-0.018": 0.17448178124,
			"-0.017": 1.0938785427,
			"-0.016": 0.721653043637,
			"-0.015": 0.584300798841,
			"-0.014": 1.13057731151,
			"-0.013": 0.925476775937,
			"-0.012": 1.13370409576,
			"-0.011": 1.73893091693,
			"-0.01": 1.24105676422,
			"-0.009": 1.67303511265,
			"-0.008": 2.25891849413,
			"-0.007": 3.12163331781,
			"-0.006": 9.85811276444,
			"-0.005": 13.1934610023,
			"-0.004": 13.1143437796,
			"-0.003": 12.7302099688,
			"-0.002": 13.5423446122,
			"-0.001": 12.3624207753,
			"0.0": 12.3472252938,
			"0.001": 11.9673969719,
			"0.002": 11.9446531627,
			"0.003": 11.2861322329,
			"0.004": 10.0805906676,
			"0.005": 3.6184287034,
			"0.006": 2.67730390869,
			"0.007": 2.14070457807,
			"0.008": 2.50918732966,
			"0.009": 2.65615259323,
			"0.01": 3.5753246537,
			"0.011": 4.86857760805,
			"0.012": 6.18193680797,
			"0.013": 3.27515138923,
			"0.014": 0.912878961201,
			"0.015": 0.0,
			"0.016": 0.0,
			"0.017": 0.0,
			"0.018": 0.0,
			"0.019": 0.0,
			"0.02": 0.0,
			"0.021": 0.0,
			"0.022": 0.0,
			"0.023": 0.0,
			"0.024": 0.0,
			"0.025": 0.0
		}
	}
}
