{
	 "smiles": "CC(=O)NC1=CC(=CC(=C1)C(F)(F)F)C(F)(F)F", 
	 "Tm": 434.15, 
	 "num_atms": 25, 
	 "gaussian": { 
		 "optdone": 1, 
		 "sigma_profile": "yes", 
		 "theory": "DFT", 
		 "functional": "B3LYP", 
		 "basiset": "6-31G**", 
		 "properties": { 
			 "R2extent": 5512.5511, 
			 "electric_dipole_moment_norm": 4.90783227912, 
			 "electric_quadrupole_moment_norm": 14.986916011, 
			 "total_energy": -1114.3363967, 
			 "HOMO_LUMO_gap": 0.2022, 
			 "cosmo_polarized_energy": -13.09, 
			 "cosmo_cavitation_energy": 32.98, 
			 "cosmo_dispersion_energy": -22.65, 
			 "cosmo_repulsion_energy": 1.64, 
			 "cosmo_total_nonelectrostatic_energy": 11.96, 
			 "SMD_solvation_energy": 8.73 
		},
		"coords": [
			{
				"x": -2.3700296381,
				"y": 2.902161161,
				"z": -2.572649225,
				"element": "C" 
			},
			{
				"x": -2.0021447654,
				"y": 2.0719930203,
				"z": -1.3529843163,
				"element": "C" 
			},
			{
				"x": -2.5613978488,
				"y": 2.2172340198,
				"z": -0.277876592,
				"element": "O" 
			},
			{
				"x": -0.9733284914,
				"y": 1.1706196575,
				"z": -1.5678779857,
				"element": "N" 
			},
			{
				"x": -0.3694495974,
				"y": 0.2944302242,
				"z": -0.6492415994,
				"element": "C" 
			},
			{
				"x": -0.7698573002,
				"y": 0.191073238,
				"z": 0.691591385,
				"element": "C" 
			},
			{
				"x": -0.1107797339,
				"y": -0.7063569096,
				"z": 1.5327525038,
				"element": "C" 
			},
			{
				"x": 0.9341903894,
				"y": -1.5073855221,
				"z": 1.0750597798,
				"element": "C" 
			},
			{
				"x": 1.3227540118,
				"y": -1.3990556232,
				"z": -0.2603809885,
				"element": "C" 
			},
			{
				"x": 0.6819512663,
				"y": -0.5083144388,
				"z": -1.1167502759,
				"element": "C" 
			},
			{
				"x": 2.4032345903,
				"y": -2.2995266909,
				"z": -0.8004815512,
				"element": "C" 
			},
			{
				"x": 3.0535880006,
				"y": -1.7331052317,
				"z": -1.8421381698,
				"element": "F" 
			},
			{
				"x": 3.3215628693,
				"y": -2.5995755588,
				"z": 0.1409544111,
				"element": "F" 
			},
			{
				"x": 1.894121781,
				"y": -3.4706676282,
				"z": -1.2452264597,
				"element": "F" 
			},
			{
				"x": -0.5042753781,
				"y": -0.759014114,
				"z": 2.9883400846,
				"element": "C" 
			},
			{
				"x": 0.1561927387,
				"y": 0.1753448133,
				"z": 3.7088275095,
				"element": "F" 
			},
			{
				"x": -1.8225671614,
				"y": -0.533321388,
				"z": 3.1606727245,
				"element": "F" 
			},
			{
				"x": -0.2182679397,
				"y": -1.9587390155,
				"z": 3.5400129682,
				"element": "F" 
			},
			{
				"x": -3.4557989015,
				"y": 3.0089493038,
				"z": -2.6014530553,
				"element": "H" 
			},
			{
				"x": -1.9420343932,
				"y": 3.9039977971,
				"z": -2.4626184919,
				"element": "H" 
			},
			{
				"x": -2.023304316,
				"y": 2.4778372789,
				"z": -3.5191288263,
				"element": "H" 
			},
			{
				"x": -0.5917005868,
				"y": 1.141673134,
				"z": -2.5021458858,
				"element": "H" 
			},
			{
				"x": -1.5833464238,
				"y": 0.8026709066,
				"z": 1.0538382609,
				"element": "H" 
			},
			{
				"x": 1.4341404007,
				"y": -2.1990860864,
				"z": 1.7413016715,
				"element": "H" 
			},
			{
				"x": 1.0075464277,
				"y": -0.4348363476,
				"z": -2.150097876,
				"element": "H" 
			}
		],
		 "valence_orbital": [ 
			{
				"type": "occ",
				"energy": -0.36556,
				"method": "rhf"
			},
			{
				"type": "occ",
				"energy": -0.33,
				"method": "rhf"
			},
			{
				"type": "occ",
				"energy": -0.28509,
				"method": "rhf"
			},
			{
				"type": "occ",
				"energy": -0.27164,
				"method": "rhf"
			},
			{
				"type": "occ",
				"energy": -0.24808,
				"method": "rhf"
			},
			{
				"type": "unocc",
				"energy": -0.04588,
				"method": "rhf"
			},
			{
				"type": "unocc",
				"energy": -0.04101,
				"method": "rhf"
			},
			{
				"type": "unocc",
				"energy": 0.0172,
				"method": "rhf"
			},
			{
				"type": "unocc",
				"energy": 0.04794,
				"method": "rhf"
			},
			{
				"type": "unocc",
				"energy": 0.0968,
				"method": "rhf"
			}
		],
		"cosmo_sigma_profile": { 
			"-0.025": 0.0,
			"-0.024": 0.0,
			"-0.023": 0.0,
			"-0.022": 0.0,
			"-0.021": 0.0,
			"-0.02": 0.0,
			"-0.019": 0.0,
			"-0.018": 0.0,
			"-0.017": 0.0670213064996,
			"-0.016": 1.08550390636,
			"-0.015": 1.73703120753,
			"-0.014": 1.40490455071,
			"-0.013": 1.40666731233,
			"-0.012": 1.79153775535,
			"-0.011": 1.53441729838,
			"-0.01": 2.03784155252,
			"-0.009": 1.36744725629,
			"-0.008": 2.3729171851,
			"-0.007": 4.37513311889,
			"-0.006": 8.3258363037,
			"-0.005": 8.75559441798,
			"-0.004": 12.1954324221,
			"-0.003": 13.1512711849,
			"-0.002": 17.0243932033,
			"-0.001": 17.602208605,
			"0.0": 25.2415509681,
			"0.001": 35.362329494,
			"0.002": 43.4211734951,
			"0.003": 45.1865655289,
			"0.004": 2.16393846909,
			"0.005": 1.73175020171,
			"0.006": 1.35945359677,
			"0.007": 1.38885755632,
			"0.008": 0.846670316656,
			"0.009": 2.50929453944,
			"0.01": 1.45627932817,
			"0.011": 1.58850321921,
			"0.012": 3.0402055796,
			"0.013": 2.26322094446,
			"0.014": 0.723842752564,
			"0.015": 0.0,
			"0.016": 0.0,
			"0.017": 0.0,
			"0.018": 0.0,
			"0.019": 0.0,
			"0.02": 0.0,
			"0.021": 0.0,
			"0.022": 0.0,
			"0.023": 0.0,
			"0.024": 0.0,
			"0.025": 0.0
		}
	}
}
