{
	 "smiles": "CN1C=NC2=C1C=CC=C2", 
	 "Tm": 334.15, 
	 "num_atms": 18, 
	 "gaussian": { 
		 "optdone": 1, 
		 "sigma_profile": "yes", 
		 "theory": "DFT", 
		 "functional": "B3LYP", 
		 "basiset": "6-31G**", 
		 "properties": { 
			 "R2extent": 1900.2081, 
			 "electric_dipole_moment_norm": 3.75588739182, 
			 "electric_quadrupole_moment_norm": 14.0937171871, 
			 "total_energy": -419.182353786, 
			 "HOMO_LUMO_gap": 0.20746, 
			 "cosmo_polarized_energy": -10.76, 
			 "cosmo_cavitation_energy": 21.53, 
			 "cosmo_dispersion_energy": -16.15, 
			 "cosmo_repulsion_energy": 1.28, 
			 "cosmo_total_nonelectrostatic_energy": 6.67, 
			 "SMD_solvation_energy": 2.13 
		},
		"coords": [
			{
				"x": 2.24918955,
				"y": 1.2345006364,
				"z": 3.0015848117,
				"element": "C" 
			},
			{
				"x": 2.0654023924,
				"y": 0.6592433453,
				"z": 1.6843474174,
				"element": "N" 
			},
			{
				"x": 2.71208339,
				"y": -0.4368774466,
				"z": 1.1555623734,
				"element": "C" 
			},
			{
				"x": 2.3506086894,
				"y": -0.7402080326,
				"z": -0.0648946053,
				"element": "N" 
			},
			{
				"x": 1.3942479356,
				"y": 0.2132072677,
				"z": -0.3876641269,
				"element": "C" 
			},
			{
				"x": 1.1993557867,
				"y": 1.1033612927,
				"z": 0.6980814613,
				"element": "C" 
			},
			{
				"x": 0.2913436255,
				"y": 2.1641586107,
				"z": 0.6488334666,
				"element": "C" 
			},
			{
				"x": -0.4295051464,
				"y": 2.315600759,
				"z": -0.5332921061,
				"element": "C" 
			},
			{
				"x": -0.2491736439,
				"y": 1.4401090834,
				"z": -1.6236749939,
				"element": "C" 
			},
			{
				"x": 0.6572059797,
				"y": 0.3861795616,
				"z": -1.5663133129,
				"element": "C" 
			},
			{
				"x": 3.0021650448,
				"y": 0.656043747,
				"z": 3.5405201538,
				"element": "H" 
			},
			{
				"x": 1.3145701143,
				"y": 1.2097579074,
				"z": 3.5718739052,
				"element": "H" 
			},
			{
				"x": 2.5906860337,
				"y": 2.272560768,
				"z": 2.9296946022,
				"element": "H" 
			},
			{
				"x": 3.4519078038,
				"y": -0.9736237896,
				"z": 1.7375801713,
				"element": "H" 
			},
			{
				"x": 0.1486702511,
				"y": 2.8412293705,
				"z": 1.485711171,
				"element": "H" 
			},
			{
				"x": -1.1468742996,
				"y": 3.1267766949,
				"z": -0.6167434976,
				"element": "H" 
			},
			{
				"x": -0.8328402702,
				"y": 1.5957099634,
				"z": -2.5262604446,
				"element": "H" 
			},
			{
				"x": 0.799756763,
				"y": -0.2904297391,
				"z": -2.4027464466,
				"element": "H" 
			}
		],
		 "valence_orbital": [ 
			{
				"type": "occ",
				"energy": -0.33264,
				"method": "rhf"
			},
			{
				"type": "occ",
				"energy": -0.29232,
				"method": "rhf"
			},
			{
				"type": "occ",
				"energy": -0.26572,
				"method": "rhf"
			},
			{
				"type": "occ",
				"energy": -0.22384,
				"method": "rhf"
			},
			{
				"type": "occ",
				"energy": -0.21911,
				"method": "rhf"
			},
			{
				"type": "unocc",
				"energy": -0.01165,
				"method": "rhf"
			},
			{
				"type": "unocc",
				"energy": 0.02372,
				"method": "rhf"
			},
			{
				"type": "unocc",
				"energy": 0.05963,
				"method": "rhf"
			},
			{
				"type": "unocc",
				"energy": 0.08148,
				"method": "rhf"
			},
			{
				"type": "unocc",
				"energy": 0.10883,
				"method": "rhf"
			}
		],
		"cosmo_sigma_profile": { 
			"-0.025": 0.0,
			"-0.024": 0.0,
			"-0.023": 0.0,
			"-0.022": 0.0,
			"-0.021": 0.0,
			"-0.02": 0.0,
			"-0.019": 0.0,
			"-0.018": 0.0,
			"-0.017": 0.0,
			"-0.016": 0.0,
			"-0.015": 0.0,
			"-0.014": 0.0,
			"-0.013": 0.0,
			"-0.012": 0.0,
			"-0.011": 0.0,
			"-0.01": 0.340000426165,
			"-0.009": 3.31677090031,
			"-0.008": 2.78571298026,
			"-0.007": 3.81345904851,
			"-0.006": 10.7494185026,
			"-0.005": 18.4046739855,
			"-0.004": 16.4417368199,
			"-0.003": 18.2713080033,
			"-0.002": 10.0551526336,
			"-0.001": 8.66012689193,
			"0.0": 6.72162420374,
			"0.001": 9.42069331378,
			"0.002": 7.57268946993,
			"0.003": 8.49846971979,
			"0.004": 9.97394307619,
			"0.005": 12.2373007662,
			"0.006": 9.52372072779,
			"0.007": 2.96285474641,
			"0.008": 1.4838650555,
			"0.009": 1.68004953854,
			"0.01": 1.15126367436,
			"0.011": 1.20808700201,
			"0.012": 1.25614969639,
			"0.013": 1.33472409774,
			"0.014": 0.59526647088,
			"0.015": 1.52280315301,
			"0.016": 0.96544141188,
			"0.017": 0.982407068282,
			"0.018": 0.56709985656,
			"0.019": 0.0,
			"0.02": 0.0,
			"0.021": 0.0,
			"0.022": 0.0,
			"0.023": 0.0,
			"0.024": 0.0,
			"0.025": 0.0
		}
	}
}
