{
	 "smiles": "OC1=CC=C(C=C1)C1=CC=C(I)C=C1", 
	 "Tm": 391.15, 
	 "num_atms": 23, 
	 "gaussian": { 
		 "optdone": 1, 
		 "sigma_profile": "no", 
		 "theory": "DFT", 
		 "functional": "B3LYP", 
		 "basiset": "6-31G**", 
		 "properties": { 
			 "R2extent": 3856.4556, 
			 "electric_dipole_moment_norm": 2.88983093796, 
			 "electric_quadrupole_moment_norm": 12.502616221, 
			 "total_energy": -549.314340444, 
			 "HOMO_LUMO_gap": 0.17657, 
			 "cosmo_polarized_energy": -105144.28, 
			 "cosmo_cavitation_energy": 30.52, 
			 "cosmo_dispersion_energy": -23.93, 
			 "cosmo_repulsion_energy": 1.83, 
			 "cosmo_total_nonelectrostatic_energy": 8.43, 
			 "SMD_solvation_energy": 4.39 
		},
		"coords": [
			{
				"x": -3.9330940783,
				"y": -0.0430659343,
				"z": 3.1048691521,
				"element": "O" 
			},
			{
				"x": -2.82704179,
				"y": 0.0740159164,
				"z": 2.3139018274,
				"element": "C" 
			},
			{
				"x": -1.9305256855,
				"y": 1.1430189846,
				"z": 2.4148851306,
				"element": "C" 
			},
			{
				"x": -0.8200232527,
				"y": 1.2021481515,
				"z": 1.575956953,
				"element": "C" 
			},
			{
				"x": -0.5720018942,
				"y": 0.2052783864,
				"z": 0.6190778205,
				"element": "C" 
			},
			{
				"x": -1.4875299927,
				"y": -0.8600698125,
				"z": 0.5362396178,
				"element": "C" 
			},
			{
				"x": -2.5994153272,
				"y": -0.9312868423,
				"z": 1.3669963456,
				"element": "C" 
			},
			{
				"x": 0.6114991149,
				"y": 0.2729595779,
				"z": -0.2718423959,
				"element": "C" 
			},
			{
				"x": 1.8448979685,
				"y": 0.7599498674,
				"z": 0.1932542251,
				"element": "C" 
			},
			{
				"x": 2.9615189243,
				"y": 0.8304973975,
				"z": -0.6385433518,
				"element": "C" 
			},
			{
				"x": 2.8559748774,
				"y": 0.4027816251,
				"z": -1.9627833639,
				"element": "C" 
			},
			{
				"x": 4.5488616005,
				"y": 0.5006625342,
				"z": -3.2380232449,
				"element": "I" 
			},
			{
				"x": 1.6462072187,
				"y": -0.0891056675,
				"z": -2.4549325063,
				"element": "C" 
			},
			{
				"x": 0.538174318,
				"y": -0.1474094523,
				"z": -1.6107619822,
				"element": "C" 
			},
			{
				"x": -3.9702080232,
				"y": 0.706592459,
				"z": 3.7130556056,
				"element": "H" 
			},
			{
				"x": -2.106166036,
				"y": 1.9345651289,
				"z": 3.1406229443,
				"element": "H" 
			},
			{
				"x": -0.1500804736,
				"y": 2.0536017627,
				"z": 1.649813866,
				"element": "H" 
			},
			{
				"x": -1.3105938367,
				"y": -1.6618093206,
				"z": -0.1745714109,
				"element": "H" 
			},
			{
				"x": -3.2958127895,
				"y": -1.7609804793,
				"z": 1.3055095842,
				"element": "H" 
			},
			{
				"x": 1.943788822,
				"y": 1.06564788,
				"z": 1.2305848203,
				"element": "H" 
			},
			{
				"x": 3.9033781784,
				"y": 1.2034308059,
				"z": -0.2517980443,
				"element": "H" 
			},
			{
				"x": 1.5600441748,
				"y": -0.4130837577,
				"z": -3.4861210497,
				"element": "H" 
			},
			{
				"x": -0.4069520179,
				"y": -0.5030392113,
				"z": -2.0100905426,
				"element": "H" 
			}
		],
		 "valence_orbital": [ 
			{
				"type": "occ",
				"energy": -0.26588,
				"method": "rhf"
			},
			{
				"type": "occ",
				"energy": -0.26221,
				"method": "rhf"
			},
			{
				"type": "occ",
				"energy": -0.25931,
				"method": "rhf"
			},
			{
				"type": "occ",
				"energy": -0.24838,
				"method": "rhf"
			},
			{
				"type": "occ",
				"energy": -0.2125,
				"method": "rhf"
			},
			{
				"type": "unocc",
				"energy": -0.03593,
				"method": "rhf"
			},
			{
				"type": "unocc",
				"energy": -0.03216,
				"method": "rhf"
			},
			{
				"type": "unocc",
				"energy": -0.01454,
				"method": "rhf"
			},
			{
				"type": "unocc",
				"energy": -0.00881,
				"method": "rhf"
			},
			{
				"type": "unocc",
				"energy": 0.02606,
				"method": "rhf"
			}
		],
		"cosmo_sigma_profile": { 
			"0.0": 0.0,
			"0.0": 0.0,
			"0.0": 0.0,
			"0.0": 0.0,
			"0.0": 0.0,
			"0.0": 0.0,
			"0.0": 0.0,
			"0.0": 0.0,
			"0.0": 0.0,
			"0.0": 0.0,
			"0.0": 0.0,
			"0.0": 0.0,
			"0.0": 0.0,
			"0.0": 0.0,
			"0.0": 0.0,
			"0.0": 0.0,
			"0.0": 0.0,
			"0.0": 0.0,
			"0.0": 0.0,
			"0.0": 0.0,
			"0.0": 0.0,
			"0.0": 0.0,
			"0.0": 0.0,
			"0.0": 0.0,
			"0.0": 0.0,
			"0.0": 0.0,
			"0.0": 0.0,
			"0.0": 0.0,
			"0.0": 0.0,
			"0.0": 0.0,
			"0.0": 0.0,
			"0.0": 0.0,
			"0.0": 0.0,
			"0.0": 0.0,
			"0.0": 0.0,
			"0.0": 0.0,
			"0.0": 0.0,
			"0.0": 0.0,
			"0.0": 0.0,
			"0.0": 0.0,
			"0.0": 0.0,
			"0.0": 0.0,
			"0.0": 0.0,
			"0.0": 0.0,
			"0.0": 0.0,
			"0.0": 0.0,
			"0.0": 0.0,
			"0.0": 0.0,
			"0.0": 0.0,
			"0.0": 0.0,
			"0.0": 0.0
		}
	}
}
