{
	 "smiles": "BrCCCBr", 
	 "Tm": 239.05, 
	 "num_atms": 11, 
	 "gaussian": { 
		 "optdone": 1, 
		 "sigma_profile": "yes", 
		 "theory": "DFT", 
		 "functional": "B3LYP", 
		 "basiset": "6-31G**", 
		 "properties": { 
			 "R2extent": 3081.5698, 
			 "electric_dipole_moment_norm": 2.0876993318, 
			 "electric_quadrupole_moment_norm": 6.45904181981, 
			 "total_energy": -5260.75506998, 
			 "HOMO_LUMO_gap": 0.26316, 
			 "cosmo_polarized_energy": -6.19, 
			 "cosmo_cavitation_energy": 18.53, 
			 "cosmo_dispersion_energy": -14.66, 
			 "cosmo_repulsion_energy": 1.3, 
			 "cosmo_total_nonelectrostatic_energy": 5.17, 
			 "SMD_solvation_energy": 0.75 
		},
		"coords": [
			{
				"x": -1.6801905066,
				"y": 3.2023390643,
				"z": -1.288149459,
				"element": "Br" 
			},
			{
				"x": -1.2328165694,
				"y": 1.4471392588,
				"z": -0.4956455813,
				"element": "C" 
			},
			{
				"x": -0.2145234447,
				"y": 1.5990550092,
				"z": 0.6261395633,
				"element": "C" 
			},
			{
				"x": 0.2178893375,
				"y": 0.2656595876,
				"z": 1.2254963471,
				"element": "C" 
			},
			{
				"x": -1.2719423612,
				"y": -0.6846289741,
				"z": 2.1307713615,
				"element": "Br" 
			},
			{
				"x": -2.1741895892,
				"y": 1.0316199055,
				"z": -0.1407745085,
				"element": "H" 
			},
			{
				"x": -0.8531981343,
				"y": 0.842292241,
				"z": -1.3199754811,
				"element": "H" 
			},
			{
				"x": -0.6160977753,
				"y": 2.2484410751,
				"z": 1.4094003066,
				"element": "H" 
			},
			{
				"x": 0.6877462621,
				"y": 2.0868567246,
				"z": 0.2350963315,
				"element": "H" 
			},
			{
				"x": 0.9751908656,
				"y": 0.4027599602,
				"z": 1.9962870083,
				"element": "H" 
			},
			{
				"x": 0.5870319155,
				"y": -0.4326338521,
				"z": 0.4735541116,
				"element": "H" 
			}
		],
		 "valence_orbital": [ 
			{
				"type": "occ",
				"energy": -0.35719,
				"method": "rhf"
			},
			{
				"type": "occ",
				"energy": -0.28731,
				"method": "rhf"
			},
			{
				"type": "occ",
				"energy": -0.28128,
				"method": "rhf"
			},
			{
				"type": "occ",
				"energy": -0.27628,
				"method": "rhf"
			},
			{
				"type": "occ",
				"energy": -0.27211,
				"method": "rhf"
			},
			{
				"type": "unocc",
				"energy": -0.00895,
				"method": "rhf"
			},
			{
				"type": "unocc",
				"energy": -0.00247,
				"method": "rhf"
			},
			{
				"type": "unocc",
				"energy": 0.09155,
				"method": "rhf"
			},
			{
				"type": "unocc",
				"energy": 0.11572,
				"method": "rhf"
			},
			{
				"type": "unocc",
				"energy": 0.12287,
				"method": "rhf"
			}
		],
		"cosmo_sigma_profile": { 
			"-0.025": 0.0,
			"-0.024": 0.0,
			"-0.023": 0.0,
			"-0.022": 0.0,
			"-0.021": 0.0,
			"-0.02": 0.0,
			"-0.019": 0.0,
			"-0.018": 0.0,
			"-0.017": 0.0,
			"-0.016": 0.0,
			"-0.015": 0.0,
			"-0.014": 0.0,
			"-0.013": 0.0,
			"-0.012": 0.0,
			"-0.011": 0.0,
			"-0.01": 0.0,
			"-0.009": 0.0,
			"-0.008": 2.63617894602,
			"-0.007": 8.49167373869,
			"-0.006": 10.1448208571,
			"-0.005": 12.8083789681,
			"-0.004": 11.4203571383,
			"-0.003": 8.99218782632,
			"-0.002": 9.858979493,
			"-0.001": 8.85996014952,
			"0.0": 7.20319277802,
			"0.001": 8.04444036777,
			"0.002": 7.91913662436,
			"0.003": 8.83893128257,
			"0.004": 9.45986020812,
			"0.005": 13.5275008683,
			"0.006": 19.913002743,
			"0.007": 4.22336467389,
			"0.008": 0.0,
			"0.009": 0.0,
			"0.01": 0.0,
			"0.011": 0.0,
			"0.012": 0.0,
			"0.013": 0.0,
			"0.014": 0.0,
			"0.015": 0.0,
			"0.016": 0.0,
			"0.017": 0.0,
			"0.018": 0.0,
			"0.019": 0.0,
			"0.02": 0.0,
			"0.021": 0.0,
			"0.022": 0.0,
			"0.023": 0.0,
			"0.024": 0.0,
			"0.025": 0.0
		}
	}
}
