{
	 "smiles": "CC(=C)C(=O)OCCOC(=O)C1=CC(=CC(=C1)[N+]([O-])=O)[N+]([O-])=O", 
	 "Tm": 344.15, 
	 "num_atms": 35, 
	 "gaussian": { 
		 "optdone": 1, 
		 "sigma_profile": "yes", 
		 "theory": "DFT", 
		 "functional": "B3LYP", 
		 "basiset": "6-31G**", 
		 "properties": { 
			 "R2extent": 14540.1623, 
			 "electric_dipole_moment_norm": 5.40953165256, 
			 "electric_quadrupole_moment_norm": 22.136033963, 
			 "total_energy": -1213.705558, 
			 "HOMO_LUMO_gap": 0.15833, 
			 "cosmo_polarized_energy": -18.56, 
			 "cosmo_cavitation_energy": 43.67, 
			 "cosmo_dispersion_energy": -30.16, 
			 "cosmo_repulsion_energy": 2.3, 
			 "cosmo_total_nonelectrostatic_energy": 15.82, 
			 "SMD_solvation_energy": 14.61 
		},
		"coords": [
			{
				"x": 0.2549098636,
				"y": -6.0897360117,
				"z": -0.8213549412,
				"element": "C" 
			},
			{
				"x": 1.4066844291,
				"y": -5.2811624081,
				"z": -1.3595627779,
				"element": "C" 
			},
			{
				"x": 2.5164426897,
				"y": -5.8148081856,
				"z": -1.885500823,
				"element": "C" 
			},
			{
				"x": 1.333809882,
				"y": -3.7873060813,
				"z": -1.314368303,
				"element": "C" 
			},
			{
				"x": 2.1901245402,
				"y": -3.0212395828,
				"z": -1.7066191488,
				"element": "O" 
			},
			{
				"x": 0.1599561762,
				"y": -3.3650052852,
				"z": -0.7659855783,
				"element": "O" 
			},
			{
				"x": 0.0058052625,
				"y": -1.9444070692,
				"z": -0.6101565868,
				"element": "C" 
			},
			{
				"x": -0.4113015746,
				"y": -1.3024299544,
				"z": -1.9342563877,
				"element": "C" 
			},
			{
				"x": -1.0141279499,
				"y": -0.0087959865,
				"z": -1.6958969128,
				"element": "O" 
			},
			{
				"x": -0.1751349766,
				"y": 1.0394098567,
				"z": -1.56883173,
				"element": "C" 
			},
			{
				"x": 1.0340710237,
				"y": 0.9637364676,
				"z": -1.603186676,
				"element": "O" 
			},
			{
				"x": -0.9176715369,
				"y": 2.3267422406,
				"z": -1.379262582,
				"element": "C" 
			},
			{
				"x": -0.1610740186,
				"y": 3.494376674,
				"z": -1.2299894236,
				"element": "C" 
			},
			{
				"x": -0.821128443,
				"y": 4.7053718317,
				"z": -1.0534884472,
				"element": "C" 
			},
			{
				"x": -2.2084395559,
				"y": 4.8014828788,
				"z": -1.0186968446,
				"element": "C" 
			},
			{
				"x": -2.9293433308,
				"y": 3.6222947271,
				"z": -1.169417775,
				"element": "C" 
			},
			{
				"x": -2.3148014973,
				"y": 2.3861516684,
				"z": -1.3493632462,
				"element": "C" 
			},
			{
				"x": -4.4052917505,
				"y": 3.6867823374,
				"z": -1.1367094016,
				"element": "N" 
			},
			{
				"x": -4.9173608208,
				"y": 4.7913701685,
				"z": -0.9787820672,
				"element": "O" 
			},
			{
				"x": -5.0175325978,
				"y": 2.6300382968,
				"z": -1.2694669034,
				"element": "O" 
			},
			{
				"x": -0.0241248632,
				"y": 5.9403469724,
				"z": -0.8955497808,
				"element": "N" 
			},
			{
				"x": -0.6410625539,
				"y": 6.9911308431,
				"z": -0.7423365837,
				"element": "O" 
			},
			{
				"x": 1.1978407753,
				"y": 5.8286580303,
				"z": -0.9283633017,
				"element": "O" 
			},
			{
				"x": 0.4544693767,
				"y": -7.1590665554,
				"z": -0.925396454,
				"element": "H" 
			},
			{
				"x": 0.0765298878,
				"y": -5.8701774027,
				"z": 0.2364334841,
				"element": "H" 
			},
			{
				"x": -0.6754524771,
				"y": -5.8566812524,
				"z": -1.349697891,
				"element": "H" 
			},
			{
				"x": 3.3118256855,
				"y": -5.1771177989,
				"z": -2.2557324251,
				"element": "H" 
			},
			{
				"x": 2.6494274004,
				"y": -6.89011018,
				"z": -1.9529596077,
				"element": "H" 
			},
			{
				"x": -0.788068891,
				"y": -1.8208848715,
				"z": 0.1297382202,
				"element": "H" 
			},
			{
				"x": 0.9365755297,
				"y": -1.5029781559,
				"z": -0.2484192967,
				"element": "H" 
			},
			{
				"x": 0.4458135041,
				"y": -1.1955704623,
				"z": -2.5997366088,
				"element": "H" 
			},
			{
				"x": -1.1958512861,
				"y": -1.8949982654,
				"z": -2.4083882647,
				"element": "H" 
			},
			{
				"x": 0.9207559838,
				"y": 3.4508422292,
				"z": -1.2528791043,
				"element": "H" 
			},
			{
				"x": -2.7044567172,
				"y": 5.7525507523,
				"z": -0.8801205184,
				"element": "H" 
			},
			{
				"x": -2.9183171691,
				"y": 1.4957895341,
				"z": -1.4629953111,
				"element": "H" 
			}
		],
		 "valence_orbital": [ 
			{
				"type": "occ",
				"energy": -0.31318,
				"method": "rhf"
			},
			{
				"type": "occ",
				"energy": -0.30948,
				"method": "rhf"
			},
			{
				"type": "occ",
				"energy": -0.30557,
				"method": "rhf"
			},
			{
				"type": "occ",
				"energy": -0.28478,
				"method": "rhf"
			},
			{
				"type": "occ",
				"energy": -0.27697,
				"method": "rhf"
			},
			{
				"type": "unocc",
				"energy": -0.11864,
				"method": "rhf"
			},
			{
				"type": "unocc",
				"energy": -0.112,
				"method": "rhf"
			},
			{
				"type": "unocc",
				"energy": -0.07669,
				"method": "rhf"
			},
			{
				"type": "unocc",
				"energy": -0.05125,
				"method": "rhf"
			},
			{
				"type": "unocc",
				"energy": -0.01556,
				"method": "rhf"
			}
		],
		"cosmo_sigma_profile": { 
			"-0.025": 0.0,
			"-0.024": 0.0,
			"-0.023": 0.0,
			"-0.022": 0.0,
			"-0.021": 0.0,
			"-0.02": 0.0,
			"-0.019": 0.0,
			"-0.018": 0.0,
			"-0.017": 0.0,
			"-0.016": 0.0,
			"-0.015": 0.0,
			"-0.014": 0.0,
			"-0.013": 0.0,
			"-0.012": 0.0,
			"-0.011": 0.0,
			"-0.01": 0.0,
			"-0.009": 0.967151735601,
			"-0.008": 3.77936004392,
			"-0.007": 9.88707876914,
			"-0.006": 20.3717868908,
			"-0.005": 32.4133232767,
			"-0.004": 43.4186919129,
			"-0.003": 35.8191578514,
			"-0.002": 22.5068261495,
			"-0.001": 22.2443881188,
			"0.0": 19.4681759329,
			"0.001": 14.7220512553,
			"0.002": 15.9659118815,
			"0.003": 14.4567181377,
			"0.004": 11.985066732,
			"0.005": 11.7070197092,
			"0.006": 18.7092062004,
			"0.007": 18.5342918121,
			"0.008": 11.8994534808,
			"0.009": 7.83577646972,
			"0.01": 5.90870946929,
			"0.011": 4.64319700294,
			"0.012": 2.20318205253,
			"0.013": 0.0,
			"0.014": 0.0,
			"0.015": 0.0,
			"0.016": 0.0,
			"0.017": 0.0,
			"0.018": 0.0,
			"0.019": 0.0,
			"0.02": 0.0,
			"0.021": 0.0,
			"0.022": 0.0,
			"0.023": 0.0,
			"0.024": 0.0,
			"0.025": 0.0
		}
	}
}
