{
	 "smiles": "COC1=CC=C(C)C=C1N", 
	 "Tm": 326.15, 
	 "num_atms": 21, 
	 "gaussian": { 
		 "optdone": 1, 
		 "sigma_profile": "yes", 
		 "theory": "DFT", 
		 "functional": "B3LYP", 
		 "basiset": "6-31G**", 
		 "properties": { 
			 "R2extent": 1861.5476, 
			 "electric_dipole_moment_norm": 1.02769871558, 
			 "electric_quadrupole_moment_norm": 7.4958309386, 
			 "total_energy": -441.450419887, 
			 "HOMO_LUMO_gap": 0.20443, 
			 "cosmo_polarized_energy": -7.77, 
			 "cosmo_cavitation_energy": 24.07, 
			 "cosmo_dispersion_energy": -17.65, 
			 "cosmo_repulsion_energy": 1.44, 
			 "cosmo_total_nonelectrostatic_energy": 7.87, 
			 "SMD_solvation_energy": 4.86 
		},
		"coords": [
			{
				"x": -0.3942006938,
				"y": 2.2371935046,
				"z": -3.092476859,
				"element": "C" 
			},
			{
				"x": -0.1899323635,
				"y": 0.8222710532,
				"z": -3.0672692957,
				"element": "O" 
			},
			{
				"x": -0.4159245925,
				"y": 0.2466762714,
				"z": -1.8244444653,
				"element": "C" 
			},
			{
				"x": -1.6782898132,
				"y": -0.202165658,
				"z": -1.4579639242,
				"element": "C" 
			},
			{
				"x": -1.8770081535,
				"y": -0.8194929699,
				"z": -0.2201235092,
				"element": "C" 
			},
			{
				"x": -0.8045608537,
				"y": -0.9908117581,
				"z": 0.6626044947,
				"element": "C" 
			},
			{
				"x": -1.006174931,
				"y": -1.6335582578,
				"z": 2.0159690195,
				"element": "C" 
			},
			{
				"x": 0.4661871352,
				"y": -0.5437989639,
				"z": 0.2784740543,
				"element": "C" 
			},
			{
				"x": 0.6834036648,
				"y": 0.0795796741,
				"z": -0.9569744178,
				"element": "C" 
			},
			{
				"x": 1.93193555,
				"y": 0.5710739717,
				"z": -1.3434621643,
				"element": "N" 
			},
			{
				"x": -1.4326765134,
				"y": 2.4916239985,
				"z": -2.845519248,
				"element": "H" 
			},
			{
				"x": 0.2745534114,
				"y": 2.7499883533,
				"z": -2.3898647539,
				"element": "H" 
			},
			{
				"x": -0.1753946106,
				"y": 2.5678598567,
				"z": -4.1107331813,
				"element": "H" 
			},
			{
				"x": -2.4979099053,
				"y": -0.0780107675,
				"z": -2.1598829613,
				"element": "H" 
			},
			{
				"x": -2.8670173007,
				"y": -1.1715073307,
				"z": 0.055645442,
				"element": "H" 
			},
			{
				"x": -0.2031886576,
				"y": -2.3409319597,
				"z": 2.2493683492,
				"element": "H" 
			},
			{
				"x": -1.9551826331,
				"y": -2.1752787454,
				"z": 2.062115934,
				"element": "H" 
			},
			{
				"x": -1.0167403251,
				"y": -0.8832627015,
				"z": 2.8165398755,
				"element": "H" 
			},
			{
				"x": 1.3096429499,
				"y": -0.6795524005,
				"z": 0.953188624,
				"element": "H" 
			},
			{
				"x": 2.7197334496,
				"y": 0.1123843211,
				"z": -0.9063320439,
				"element": "H" 
			},
			{
				"x": 2.0299451861,
				"y": 0.6312205086,
				"z": -2.3494589694,
				"element": "H" 
			}
		],
		 "valence_orbital": [ 
			{
				"type": "occ",
				"energy": -0.32979,
				"method": "rhf"
			},
			{
				"type": "occ",
				"energy": -0.29631,
				"method": "rhf"
			},
			{
				"type": "occ",
				"energy": -0.26686,
				"method": "rhf"
			},
			{
				"type": "occ",
				"energy": -0.22762,
				"method": "rhf"
			},
			{
				"type": "occ",
				"energy": -0.19443,
				"method": "rhf"
			},
			{
				"type": "unocc",
				"energy": 0.01,
				"method": "rhf"
			},
			{
				"type": "unocc",
				"energy": 0.02534,
				"method": "rhf"
			},
			{
				"type": "unocc",
				"energy": 0.08637,
				"method": "rhf"
			},
			{
				"type": "unocc",
				"energy": 0.10469,
				"method": "rhf"
			},
			{
				"type": "unocc",
				"energy": 0.12105,
				"method": "rhf"
			}
		],
		"cosmo_sigma_profile": { 
			"-0.025": 0.0,
			"-0.024": 0.0,
			"-0.023": 0.0,
			"-0.022": 0.0,
			"-0.021": 0.0,
			"-0.02": 0.0,
			"-0.019": 0.0,
			"-0.018": 0.0,
			"-0.017": 0.0,
			"-0.016": 0.0,
			"-0.015": 0.0,
			"-0.014": 0.0,
			"-0.013": 0.0691239220188,
			"-0.012": 1.23107005563,
			"-0.011": 1.32359277677,
			"-0.01": 2.02363487379,
			"-0.009": 2.2294096742,
			"-0.008": 2.667612345,
			"-0.007": 2.58167844091,
			"-0.006": 2.84295379111,
			"-0.005": 8.07834523449,
			"-0.004": 16.3870143911,
			"-0.003": 22.3963815677,
			"-0.002": 20.9629473074,
			"-0.001": 16.9528121385,
			"0.0": 15.1513521728,
			"0.001": 12.6009313798,
			"0.002": 8.65280666525,
			"0.003": 7.30729396581,
			"0.004": 8.12748023414,
			"0.005": 9.34597905587,
			"0.006": 9.74399329112,
			"0.007": 8.5291897378,
			"0.008": 2.13872433835,
			"0.009": 1.51734736897,
			"0.01": 1.19458608117,
			"0.011": 1.97838755338,
			"0.012": 1.95920944433,
			"0.013": 0.867234823848,
			"0.014": 0.413880303142,
			"0.015": 0.181356040672,
			"0.016": 0.0,
			"0.017": 0.0,
			"0.018": 0.0,
			"0.019": 0.0,
			"0.02": 0.0,
			"0.021": 0.0,
			"0.022": 0.0,
			"0.023": 0.0,
			"0.024": 0.0,
			"0.025": 0.0
		}
	}
}
