{
	 "smiles": "CC1=C(Br)C(C)=NN1", 
	 "Tm": 394.15, 
	 "num_atms": 15, 
	 "gaussian": { 
		 "optdone": 1, 
		 "sigma_profile": "yes", 
		 "theory": "DFT", 
		 "functional": "B3LYP", 
		 "basiset": "6-31G**", 
		 "properties": { 
			 "R2extent": 1981.044, 
			 "electric_dipole_moment_norm": 2.50722525115, 
			 "electric_quadrupole_moment_norm": 13.8769974609, 
			 "total_energy": -2875.64780524, 
			 "HOMO_LUMO_gap": 0.24652, 
			 "cosmo_polarized_energy": -8.97, 
			 "cosmo_cavitation_energy": 21.01, 
			 "cosmo_dispersion_energy": -15.89, 
			 "cosmo_repulsion_energy": 1.33, 
			 "cosmo_total_nonelectrostatic_energy": 6.46, 
			 "SMD_solvation_energy": 1.79 
		},
		"coords": [
			{
				"x": 0.8615511996,
				"y": 3.2889300617,
				"z": 1.0201968121,
				"element": "C" 
			},
			{
				"x": 0.5584342833,
				"y": 2.195975298,
				"z": 0.0496198773,
				"element": "C" 
			},
			{
				"x": 0.9602812232,
				"y": 0.872644735,
				"z": -0.0107814171,
				"element": "C" 
			},
			{
				"x": 2.0989005482,
				"y": 0.0096475445,
				"z": 1.221754622,
				"element": "Br" 
			},
			{
				"x": 0.3561687825,
				"y": 0.3075398864,
				"z": -1.1611241502,
				"element": "C" 
			},
			{
				"x": 0.4650131995,
				"y": -1.089258388,
				"z": -1.6817541115,
				"element": "C" 
			},
			{
				"x": -0.3815105169,
				"y": 1.2273969594,
				"z": -1.7840695227,
				"element": "N" 
			},
			{
				"x": -0.2428264535,
				"y": 2.3487988841,
				"z": -1.0378878557,
				"element": "N" 
			},
			{
				"x": 0.5381429396,
				"y": 3.0187082299,
				"z": 2.0306692382,
				"element": "H" 
			},
			{
				"x": 1.9371622173,
				"y": 3.4882416532,
				"z": 1.0650746266,
				"element": "H" 
			},
			{
				"x": 0.3560402078,
				"y": 4.2175765107,
				"z": 0.7393051144,
				"element": "H" 
			},
			{
				"x": 0.1057476396,
				"y": -1.8163010405,
				"z": -0.9454101024,
				"element": "H" 
			},
			{
				"x": 1.5046668967,
				"y": -1.3476319531,
				"z": -1.9102771011,
				"element": "H" 
			},
			{
				"x": -0.1294813584,
				"y": -1.1888593046,
				"z": -2.5920459565,
				"element": "H" 
			},
			{
				"x": -0.7221908086,
				"y": 3.1881909234,
				"z": -1.3249700736,
				"element": "H" 
			}
		],
		 "valence_orbital": [ 
			{
				"type": "occ",
				"energy": -0.31931,
				"method": "rhf"
			},
			{
				"type": "occ",
				"energy": -0.30038,
				"method": "rhf"
			},
			{
				"type": "occ",
				"energy": -0.27527,
				"method": "rhf"
			},
			{
				"type": "occ",
				"energy": -0.24617,
				"method": "rhf"
			},
			{
				"type": "occ",
				"energy": -0.22647,
				"method": "rhf"
			},
			{
				"type": "unocc",
				"energy": 0.02005,
				"method": "rhf"
			},
			{
				"type": "unocc",
				"energy": 0.02248,
				"method": "rhf"
			},
			{
				"type": "unocc",
				"energy": 0.06051,
				"method": "rhf"
			},
			{
				"type": "unocc",
				"energy": 0.07971,
				"method": "rhf"
			},
			{
				"type": "unocc",
				"energy": 0.11782,
				"method": "rhf"
			}
		],
		"cosmo_sigma_profile": { 
			"-0.025": 0.0,
			"-0.024": 0.0,
			"-0.023": 0.0,
			"-0.022": 0.0,
			"-0.021": 0.0,
			"-0.02": 0.0,
			"-0.019": 0.0,
			"-0.018": 0.0,
			"-0.017": 0.142167313453,
			"-0.016": 1.44500040062,
			"-0.015": 1.14177225632,
			"-0.014": 1.28567810937,
			"-0.013": 1.49448194676,
			"-0.012": 0.76080837017,
			"-0.011": 1.17815107997,
			"-0.01": 1.42211514777,
			"-0.009": 0.862929812555,
			"-0.008": 1.45241756936,
			"-0.007": 1.48858431731,
			"-0.006": 2.51133891463,
			"-0.005": 6.65182090161,
			"-0.004": 12.6393801238,
			"-0.003": 12.6494426937,
			"-0.002": 16.4475528564,
			"-0.001": 18.1150970531,
			"0.0": 13.3218668943,
			"0.001": 10.2460539498,
			"0.002": 10.0074700255,
			"0.003": 13.6535781402,
			"0.004": 16.6355819696,
			"0.005": 9.83025674102,
			"0.006": 2.86717816243,
			"0.007": 1.20444001136,
			"0.008": 1.38223291693,
			"0.009": 1.22079725689,
			"0.01": 1.36135083365,
			"0.011": 1.45804157394,
			"0.012": 0.938224419574,
			"0.013": 1.09319944358,
			"0.014": 0.877886603087,
			"0.015": 1.23917180815,
			"0.016": 0.685439659006,
			"0.017": 0.0154280750035,
			"0.018": 0.0,
			"0.019": 0.0,
			"0.02": 0.0,
			"0.021": 0.0,
			"0.022": 0.0,
			"0.023": 0.0,
			"0.024": 0.0,
			"0.025": 0.0
		}
	}
}
