{
	 "smiles": "CC(=O)C1=CN=CS1", 
	 "Tm": 338.15, 
	 "num_atms": 13, 
	 "gaussian": { 
		 "optdone": 1, 
		 "sigma_profile": "yes", 
		 "theory": "DFT", 
		 "functional": "B3LYP", 
		 "basiset": "6-31G**", 
		 "properties": { 
			 "R2extent": 1413.6559, 
			 "electric_dipole_moment_norm": 3.20818302782, 
			 "electric_quadrupole_moment_norm": 3.68523298992, 
			 "total_energy": -721.691548666, 
			 "HOMO_LUMO_gap": 0.18602, 
			 "cosmo_polarized_energy": -9.31, 
			 "cosmo_cavitation_energy": 19.15, 
			 "cosmo_dispersion_energy": -14.64, 
			 "cosmo_repulsion_energy": 1.16, 
			 "cosmo_total_nonelectrostatic_energy": 5.67, 
			 "SMD_solvation_energy": 2.78 
		},
		"coords": [
			{
				"x": -0.8135225437,
				"y": 2.9313619807,
				"z": 0.0006826101,
				"element": "C" 
			},
			{
				"x": 0.2331397874,
				"y": 1.8466978486,
				"z": 0.1652239773,
				"element": "C" 
			},
			{
				"x": 1.3722222948,
				"y": 1.9772362346,
				"z": -0.2550271446,
				"element": "O" 
			},
			{
				"x": -0.1517056939,
				"y": 0.5941363183,
				"z": 0.861172826,
				"element": "C" 
			},
			{
				"x": 0.6771884869,
				"y": -0.4806122159,
				"z": 1.0912762587,
				"element": "C" 
			},
			{
				"x": 0.1323852516,
				"y": -1.5468174269,
				"z": 1.7521653784,
				"element": "N" 
			},
			{
				"x": -1.118713652,
				"y": -1.310438337,
				"z": 2.0393311941,
				"element": "C" 
			},
			{
				"x": -1.7293829392,
				"y": 0.2375592852,
				"z": 1.5252056649,
				"element": "S" 
			},
			{
				"x": -1.6742942619,
				"y": 2.556916166,
				"z": -0.5652550822,
				"element": "H" 
			},
			{
				"x": -0.3711500747,
				"y": 3.7769992399,
				"z": -0.5266560493,
				"element": "H" 
			},
			{
				"x": -1.185219167,
				"y": 3.2628813817,
				"z": 0.9770856502,
				"element": "H" 
			},
			{
				"x": 1.7126943532,
				"y": -0.5049742724,
				"z": 0.7745216755,
				"element": "H" 
			},
			{
				"x": -1.7623418414,
				"y": -2.0081462028,
				"z": 2.5626730408,
				"element": "H" 
			}
		],
		 "valence_orbital": [ 
			{
				"type": "occ",
				"energy": -0.36902,
				"method": "rhf"
			},
			{
				"type": "occ",
				"energy": -0.30036,
				"method": "rhf"
			},
			{
				"type": "occ",
				"energy": -0.29001,
				"method": "rhf"
			},
			{
				"type": "occ",
				"energy": -0.26388,
				"method": "rhf"
			},
			{
				"type": "occ",
				"energy": -0.26057,
				"method": "rhf"
			},
			{
				"type": "unocc",
				"energy": -0.07455,
				"method": "rhf"
			},
			{
				"type": "unocc",
				"energy": -0.00044,
				"method": "rhf"
			},
			{
				"type": "unocc",
				"energy": 0.00181,
				"method": "rhf"
			},
			{
				"type": "unocc",
				"energy": 0.06528,
				"method": "rhf"
			},
			{
				"type": "unocc",
				"energy": 0.08126,
				"method": "rhf"
			}
		],
		"cosmo_sigma_profile": { 
			"-0.025": 0.0,
			"-0.024": 0.0,
			"-0.023": 0.0,
			"-0.022": 0.0,
			"-0.021": 0.0,
			"-0.02": 0.0,
			"-0.019": 0.0,
			"-0.018": 0.0,
			"-0.017": 0.0,
			"-0.016": 0.0,
			"-0.015": 0.0,
			"-0.014": 0.0,
			"-0.013": 0.0,
			"-0.012": 0.0,
			"-0.011": 0.84765322664,
			"-0.01": 2.58140036952,
			"-0.009": 2.30250993578,
			"-0.008": 2.89306941394,
			"-0.007": 5.56109597971,
			"-0.006": 9.04557243125,
			"-0.005": 9.92641711819,
			"-0.004": 10.7090860097,
			"-0.003": 10.5892121781,
			"-0.002": 11.5643774343,
			"-0.001": 16.1777080922,
			"0.0": 15.0603514406,
			"0.001": 13.603555585,
			"0.002": 7.36950402078,
			"0.003": 4.58682229392,
			"0.004": 2.66498836764,
			"0.005": 3.69343346333,
			"0.006": 2.94788543307,
			"0.007": 2.68240625975,
			"0.008": 2.28677088513,
			"0.009": 2.80665438457,
			"0.01": 4.03777379691,
			"0.011": 4.20349442621,
			"0.012": 4.57002223786,
			"0.013": 1.89879911182,
			"0.014": 0.798567548537,
			"0.015": 0.394419221517,
			"0.016": 0.0,
			"0.017": 0.0,
			"0.018": 0.0,
			"0.019": 0.0,
			"0.02": 0.0,
			"0.021": 0.0,
			"0.022": 0.0,
			"0.023": 0.0,
			"0.024": 0.0,
			"0.025": 0.0
		}
	}
}
