{
	 "smiles": "N=C1OC2=C(C=CC=C2)C=C1C1=NC2=C(C=CC=C2)C(=O)N1", 
	 "Tm": 548.15, 
	 "num_atms": 33, 
	 "gaussian": { 
		 "optdone": 1, 
		 "sigma_profile": "yes", 
		 "theory": "DFT", 
		 "functional": "B3LYP", 
		 "basiset": "6-31G**", 
		 "properties": { 
			 "R2extent": 8489.5288, 
			 "electric_dipole_moment_norm": 5.32159476661, 
			 "electric_quadrupole_moment_norm": 24.5891923037, 
			 "total_energy": -969.158284198, 
			 "HOMO_LUMO_gap": 0.13791, 
			 "cosmo_polarized_energy": -18.53, 
			 "cosmo_cavitation_energy": 38.08, 
			 "cosmo_dispersion_energy": -28.05, 
			 "cosmo_repulsion_energy": 2.07, 
			 "cosmo_total_nonelectrostatic_energy": 12.1, 
			 "SMD_solvation_energy": 4.9 
		},
		"coords": [
			{
				"x": -2.3940889279,
				"y": 1.6426481941,
				"z": -0.5168846831,
				"element": "N" 
			},
			{
				"x": -1.1885748734,
				"y": 2.0540094864,
				"z": -0.5618831641,
				"element": "C" 
			},
			{
				"x": -1.058403187,
				"y": 3.3669961897,
				"z": -0.9865581633,
				"element": "O" 
			},
			{
				"x": 0.1310911187,
				"y": 3.9030316148,
				"z": -1.3740697709,
				"element": "C" 
			},
			{
				"x": 1.3330140845,
				"y": 3.1804510136,
				"z": -1.2515014736,
				"element": "C" 
			},
			{
				"x": 2.5312227188,
				"y": 3.7842369112,
				"z": -1.6778089196,
				"element": "C" 
			},
			{
				"x": 2.5227679879,
				"y": 5.0665556818,
				"z": -2.2091658113,
				"element": "C" 
			},
			{
				"x": 1.3128396751,
				"y": 5.7701772769,
				"z": -2.3118133211,
				"element": "C" 
			},
			{
				"x": 0.1145186061,
				"y": 5.1977882175,
				"z": -1.8938773963,
				"element": "C" 
			},
			{
				"x": 1.2604078009,
				"y": 1.8880371856,
				"z": -0.6298140322,
				"element": "C" 
			},
			{
				"x": 0.0715476557,
				"y": 1.352590026,
				"z": -0.2432261558,
				"element": "C" 
			},
			{
				"x": 0.0735308234,
				"y": 0.0645357534,
				"z": 0.491846948,
				"element": "C" 
			},
			{
				"x": 1.0073740414,
				"y": -0.8062653696,
				"z": 0.2533816243,
				"element": "N" 
			},
			{
				"x": 1.0155080941,
				"y": -1.9721467597,
				"z": 1.0045363881,
				"element": "C" 
			},
			{
				"x": 0.0506096501,
				"y": -2.2480085991,
				"z": 2.0043985011,
				"element": "C" 
			},
			{
				"x": 0.0983589364,
				"y": -3.4464981256,
				"z": 2.7318441216,
				"element": "C" 
			},
			{
				"x": 1.0965785664,
				"y": -4.3736364428,
				"z": 2.4723273351,
				"element": "C" 
			},
			{
				"x": 2.0586762048,
				"y": -4.1077095956,
				"z": 1.4810116727,
				"element": "C" 
			},
			{
				"x": 2.0223148757,
				"y": -2.9266448589,
				"z": 0.7556471823,
				"element": "C" 
			},
			{
				"x": -0.9929542711,
				"y": -1.2566686949,
				"z": 2.2827295753,
				"element": "C" 
			},
			{
				"x": -1.8715198929,
				"y": -1.3360262628,
				"z": 3.1284273508,
				"element": "O" 
			},
			{
				"x": -0.8995114517,
				"y": -0.1249289977,
				"z": 1.4545340644,
				"element": "N" 
			},
			{
				"x": -2.4401377595,
				"y": 0.6626083295,
				"z": -0.2472468153,
				"element": "H" 
			},
			{
				"x": 3.4607391172,
				"y": 3.2300466876,
				"z": -1.5815899005,
				"element": "H" 
			},
			{
				"x": 3.4484163537,
				"y": 5.5259950717,
				"z": -2.5400567175,
				"element": "H" 
			},
			{
				"x": 1.3060727852,
				"y": 6.7745536752,
				"z": -2.7243615224,
				"element": "H" 
			},
			{
				"x": -0.8304026873,
				"y": 5.7244795711,
				"z": -1.9682261767,
				"element": "H" 
			},
			{
				"x": 2.1715823441,
				"y": 1.3316014393,
				"z": -0.4318947154,
				"element": "H" 
			},
			{
				"x": -0.6584499023,
				"y": -3.6173372402,
				"z": 3.4903871482,
				"element": "H" 
			},
			{
				"x": 1.1371142461,
				"y": -5.3031355381,
				"z": 3.0317168155,
				"element": "H" 
			},
			{
				"x": 2.8388558208,
				"y": -4.8365622412,
				"z": 1.2804785558,
				"element": "H" 
			},
			{
				"x": 2.7552382009,
				"y": -2.7080565737,
				"z": -0.01387196,
				"element": "H" 
			},
			{
				"x": -1.5713367549,
				"y": 0.6086829746,
				"z": 1.6518834159,
				"element": "H" 
			}
		],
		 "valence_orbital": [ 
			{
				"type": "occ",
				"energy": -0.26759,
				"method": "rhf"
			},
			{
				"type": "occ",
				"energy": -0.2648,
				"method": "rhf"
			},
			{
				"type": "occ",
				"energy": -0.2641,
				"method": "rhf"
			},
			{
				"type": "occ",
				"energy": -0.24119,
				"method": "rhf"
			},
			{
				"type": "occ",
				"energy": -0.22362,
				"method": "rhf"
			},
			{
				"type": "unocc",
				"energy": -0.08571,
				"method": "rhf"
			},
			{
				"type": "unocc",
				"energy": -0.04566,
				"method": "rhf"
			},
			{
				"type": "unocc",
				"energy": -0.03436,
				"method": "rhf"
			},
			{
				"type": "unocc",
				"energy": -0.01581,
				"method": "rhf"
			},
			{
				"type": "unocc",
				"energy": -0.00288,
				"method": "rhf"
			}
		],
		"cosmo_sigma_profile": { 
			"-0.025": 0.0,
			"-0.024": 0.0,
			"-0.023": 0.0,
			"-0.022": 0.0,
			"-0.021": 0.0,
			"-0.02": 0.0,
			"-0.019": 0.0,
			"-0.018": 0.0,
			"-0.017": 0.0,
			"-0.016": 0.0,
			"-0.015": 0.3831757347,
			"-0.014": 0.67493764477,
			"-0.013": 0.821543411262,
			"-0.012": 1.61172856352,
			"-0.011": 2.74707215669,
			"-0.01": 2.5772813151,
			"-0.009": 2.68386264388,
			"-0.008": 4.32895003792,
			"-0.007": 12.380762986,
			"-0.006": 19.1882985405,
			"-0.005": 21.8892869688,
			"-0.004": 22.074296136,
			"-0.003": 19.2290805362,
			"-0.002": 20.2414694983,
			"-0.001": 20.6455961383,
			"0.0": 19.9995187737,
			"0.001": 23.4498580838,
			"0.002": 25.9224905206,
			"0.003": 26.6176607815,
			"0.004": 13.2353664236,
			"0.005": 4.9396509589,
			"0.006": 4.63543396879,
			"0.007": 3.89435165911,
			"0.008": 3.73261523998,
			"0.009": 3.85452239864,
			"0.01": 3.72817863941,
			"0.011": 4.50361720319,
			"0.012": 6.80962565087,
			"0.013": 5.79015423289,
			"0.014": 1.22875101894,
			"0.015": 1.41570529508,
			"0.016": 1.51762214591,
			"0.017": 0.911979748791,
			"0.018": 0.110179638259,
			"0.019": 0.0,
			"0.02": 0.0,
			"0.021": 0.0,
			"0.022": 0.0,
			"0.023": 0.0,
			"0.024": 0.0,
			"0.025": 0.0
		}
	}
}
