{
	 "smiles": "CC1=NC(C(O)=O)=C(C)O1", 
	 "Tm": 505.15, 
	 "num_atms": 17, 
	 "gaussian": { 
		 "optdone": 1, 
		 "sigma_profile": "yes", 
		 "theory": "DFT", 
		 "functional": "B3LYP", 
		 "basiset": "6-31G**", 
		 "properties": { 
			 "R2extent": 1588.9804, 
			 "electric_dipole_moment_norm": 5.21587742762, 
			 "electric_quadrupole_moment_norm": 10.912697803, 
			 "total_energy": -513.297078173, 
			 "HOMO_LUMO_gap": 0.21756, 
			 "cosmo_polarized_energy": -11.53, 
			 "cosmo_cavitation_energy": 21.83, 
			 "cosmo_dispersion_energy": -16.22, 
			 "cosmo_repulsion_energy": 1.34, 
			 "cosmo_total_nonelectrostatic_energy": 6.95, 
			 "SMD_solvation_energy": 4.52 
		},
		"coords": [
			{
				"x": -1.6159704989,
				"y": -2.6353569442,
				"z": 0.7639275039,
				"element": "C" 
			},
			{
				"x": -0.7271231995,
				"y": -1.5220286404,
				"z": 0.3395922658,
				"element": "C" 
			},
			{
				"x": 0.1205276058,
				"y": -1.4769716967,
				"z": -0.6395401308,
				"element": "N" 
			},
			{
				"x": 0.674812907,
				"y": -0.1995293143,
				"z": -0.5745469807,
				"element": "C" 
			},
			{
				"x": 1.6998587546,
				"y": 0.2528886509,
				"z": -1.5335878254,
				"element": "C" 
			},
			{
				"x": 2.0350819516,
				"y": -0.6747444238,
				"z": -2.4556629679,
				"element": "O" 
			},
			{
				"x": 2.2033122887,
				"y": 1.3556709502,
				"z": -1.507669534,
				"element": "O" 
			},
			{
				"x": 0.1247692862,
				"y": 0.4893739286,
				"z": 0.466552995,
				"element": "C" 
			},
			{
				"x": 0.3021207574,
				"y": 1.8538905029,
				"z": 1.0273376212,
				"element": "C" 
			},
			{
				"x": -0.777299528,
				"y": -0.3563528433,
				"z": 1.0577708547,
				"element": "O" 
			},
			{
				"x": -1.3988270109,
				"y": -2.9409459181,
				"z": 1.7926461887,
				"element": "H" 
			},
			{
				"x": -1.4602114581,
				"y": -3.4854838765,
				"z": 0.0991757253,
				"element": "H" 
			},
			{
				"x": -2.6682366966,
				"y": -2.3358226551,
				"z": 0.7213243835,
				"element": "H" 
			},
			{
				"x": 1.5054638397,
				"y": -1.473760612,
				"z": -2.2794696646,
				"element": "H" 
			},
			{
				"x": 0.079657481,
				"y": 2.6124085108,
				"z": 0.2711035958,
				"element": "H" 
			},
			{
				"x": 1.3401273786,
				"y": 2.011485712,
				"z": 1.334639622,
				"element": "H" 
			},
			{
				"x": -0.3547638587,
				"y": 1.9980786689,
				"z": 1.8873063476,
				"element": "H" 
			}
		],
		 "valence_orbital": [ 
			{
				"type": "occ",
				"energy": -0.3364,
				"method": "rhf"
			},
			{
				"type": "occ",
				"energy": -0.31563,
				"method": "rhf"
			},
			{
				"type": "occ",
				"energy": -0.30611,
				"method": "rhf"
			},
			{
				"type": "occ",
				"energy": -0.26777,
				"method": "rhf"
			},
			{
				"type": "occ",
				"energy": -0.25042,
				"method": "rhf"
			},
			{
				"type": "unocc",
				"energy": -0.03286,
				"method": "rhf"
			},
			{
				"type": "unocc",
				"energy": -0.00235,
				"method": "rhf"
			},
			{
				"type": "unocc",
				"energy": 0.0942,
				"method": "rhf"
			},
			{
				"type": "unocc",
				"energy": 0.10386,
				"method": "rhf"
			},
			{
				"type": "unocc",
				"energy": 0.1046,
				"method": "rhf"
			}
		],
		"cosmo_sigma_profile": { 
			"-0.025": 0.0,
			"-0.024": 0.0,
			"-0.023": 0.0,
			"-0.022": 0.0,
			"-0.021": 0.0,
			"-0.02": 0.0,
			"-0.019": 0.0,
			"-0.018": 0.0,
			"-0.017": 0.0,
			"-0.016": 0.0,
			"-0.015": 0.120548383397,
			"-0.014": 0.58422402141,
			"-0.013": 0.394374291694,
			"-0.012": 0.345116359266,
			"-0.011": 0.743544972656,
			"-0.01": 0.612595201813,
			"-0.009": 0.406167407236,
			"-0.008": 0.623756155355,
			"-0.007": 3.64287885727,
			"-0.006": 12.890379805,
			"-0.005": 12.1594508955,
			"-0.004": 15.1866574239,
			"-0.003": 21.7574117228,
			"-0.002": 23.7345980137,
			"-0.001": 12.2560539084,
			"0.0": 8.11731861823,
			"0.001": 7.2599935472,
			"0.002": 4.98294498431,
			"0.003": 4.75835651807,
			"0.004": 4.24500687944,
			"0.005": 5.2994713692,
			"0.006": 4.69059784431,
			"0.007": 4.12358833771,
			"0.008": 3.53871179133,
			"0.009": 4.70470550937,
			"0.01": 5.37190776575,
			"0.011": 4.05298103209,
			"0.012": 4.72642666075,
			"0.013": 2.20672602458,
			"0.014": 0.302865626293,
			"0.015": 0.0,
			"0.016": 0.0,
			"0.017": 0.0,
			"0.018": 0.0,
			"0.019": 0.0,
			"0.02": 0.0,
			"0.021": 0.0,
			"0.022": 0.0,
			"0.023": 0.0,
			"0.024": 0.0,
			"0.025": 0.0
		}
	}
}
