{
	 "smiles": "NC1=C(Cl)C=CN=C1", 
	 "Tm": 334.15, 
	 "num_atms": 13, 
	 "gaussian": { 
		 "optdone": 1, 
		 "sigma_profile": "yes", 
		 "theory": "DFT", 
		 "functional": "B3LYP", 
		 "basiset": "6-31G**", 
		 "properties": { 
			 "R2extent": 2971.7432, 
			 "electric_dipole_moment_norm": 2.0822983936, 
			 "electric_quadrupole_moment_norm": 8.37007224043, 
			 "total_energy": -763.236569348, 
			 "HOMO_LUMO_gap": 0.19545, 
			 "cosmo_polarized_energy": -9.25, 
			 "cosmo_cavitation_energy": 18.67, 
			 "cosmo_dispersion_energy": -14.4, 
			 "cosmo_repulsion_energy": 1.19, 
			 "cosmo_total_nonelectrostatic_energy": 5.46, 
			 "SMD_solvation_energy": 1.63 
		},
		"coords": [
			{
				"x": -1.8304278717,
				"y": 1.6304780925,
				"z": -1.4203267898,
				"element": "N" 
			},
			{
				"x": -0.6839079915,
				"y": 2.0954226868,
				"z": -0.8038199145,
				"element": "C" 
			},
			{
				"x": -0.6718960884,
				"y": 3.2103842079,
				"z": 0.0501965361,
				"element": "C" 
			},
			{
				"x": -2.1537620802,
				"y": 4.125751121,
				"z": 0.2991653376,
				"element": "Cl" 
			},
			{
				"x": 0.5005206462,
				"y": 3.595870183,
				"z": 0.6898830183,
				"element": "C" 
			},
			{
				"x": 1.6563424468,
				"y": 2.8515768135,
				"z": 0.4590593641,
				"element": "C" 
			},
			{
				"x": 1.684660685,
				"y": 1.7866387642,
				"z": -0.3530230402,
				"element": "N" 
			},
			{
				"x": 0.5539003758,
				"y": 1.4324253825,
				"z": -0.9553146987,
				"element": "C" 
			},
			{
				"x": -2.5814486274,
				"y": 2.2979012417,
				"z": -1.5257402976,
				"element": "H" 
			},
			{
				"x": -1.6873144951,
				"y": 1.048065231,
				"z": -2.2326915604,
				"element": "H" 
			},
			{
				"x": 0.5085059619,
				"y": 4.4574872295,
				"z": 1.3478756812,
				"element": "H" 
			},
			{
				"x": 2.5904714283,
				"y": 3.1242686605,
				"z": 0.9438110433,
				"element": "H" 
			},
			{
				"x": 0.5991556103,
				"y": 0.5615303858,
				"z": -1.6102746794,
				"element": "H" 
			}
		],
		 "valence_orbital": [ 
			{
				"type": "occ",
				"energy": -0.33812,
				"method": "rhf"
			},
			{
				"type": "occ",
				"energy": -0.32592,
				"method": "rhf"
			},
			{
				"type": "occ",
				"energy": -0.27103,
				"method": "rhf"
			},
			{
				"type": "occ",
				"energy": -0.25761,
				"method": "rhf"
			},
			{
				"type": "occ",
				"energy": -0.22115,
				"method": "rhf"
			},
			{
				"type": "unocc",
				"energy": -0.0257,
				"method": "rhf"
			},
			{
				"type": "unocc",
				"energy": -0.00261,
				"method": "rhf"
			},
			{
				"type": "unocc",
				"energy": 0.02194,
				"method": "rhf"
			},
			{
				"type": "unocc",
				"energy": 0.07557,
				"method": "rhf"
			},
			{
				"type": "unocc",
				"energy": 0.12348,
				"method": "rhf"
			}
		],
		"cosmo_sigma_profile": { 
			"-0.025": 0.0,
			"-0.024": 0.0,
			"-0.023": 0.0,
			"-0.022": 0.0,
			"-0.021": 0.0,
			"-0.02": 0.0,
			"-0.019": 0.0,
			"-0.018": 0.0,
			"-0.017": 0.0,
			"-0.016": 0.0,
			"-0.015": 0.0,
			"-0.014": 0.423595708038,
			"-0.013": 1.69046610615,
			"-0.012": 2.56065181396,
			"-0.011": 2.63354675954,
			"-0.01": 2.13035370859,
			"-0.009": 3.07400099795,
			"-0.008": 2.91130396757,
			"-0.007": 5.43367522482,
			"-0.006": 6.7869411262,
			"-0.005": 8.15406951782,
			"-0.004": 5.12470519043,
			"-0.003": 5.70807397371,
			"-0.002": 6.83395591211,
			"-0.001": 8.61214440156,
			"0.0": 9.82210210459,
			"0.001": 15.1116654215,
			"0.002": 18.0806094252,
			"0.003": 13.7559763095,
			"0.004": 10.0765506181,
			"0.005": 5.16917681795,
			"0.006": 2.20915269176,
			"0.007": 2.55659902116,
			"0.008": 2.10383234982,
			"0.009": 1.93321143877,
			"0.01": 1.14093842167,
			"0.011": 1.86241406439,
			"0.012": 1.86123851846,
			"0.013": 1.18875125236,
			"0.014": 0.609966738465,
			"0.015": 0.97037073772,
			"0.016": 0.907798044534,
			"0.017": 0.243194592553,
			"0.018": 0.0,
			"0.019": 0.0,
			"0.02": 0.0,
			"0.021": 0.0,
			"0.022": 0.0,
			"0.023": 0.0,
			"0.024": 0.0,
			"0.025": 0.0
		}
	}
}
