{
	 "smiles": "CSC1=NC=CC(=N1)C1=CC=C(S1)S(Cl)(=O)=O", 
	 "Tm": 403.15, 
	 "num_atms": 24, 
	 "gaussian": { 
		 "optdone": 1, 
		 "sigma_profile": "yes", 
		 "theory": "DFT", 
		 "functional": "B3LYP", 
		 "basiset": "6-31G**", 
		 "properties": { 
			 "R2extent": 8444.6756, 
			 "electric_dipole_moment_norm": 4.52603095217, 
			 "electric_quadrupole_moment_norm": 33.5298608363, 
			 "total_energy": -2261.7962086, 
			 "HOMO_LUMO_gap": 0.1302, 
			 "cosmo_polarized_energy": -14.78, 
			 "cosmo_cavitation_energy": 36.25, 
			 "cosmo_dispersion_energy": -27.19, 
			 "cosmo_repulsion_energy": 1.97, 
			 "cosmo_total_nonelectrostatic_energy": 11.03, 
			 "SMD_solvation_energy": 2.49 
		},
		"coords": [
			{
				"x": -1.7194662728,
				"y": -3.0161482892,
				"z": -0.0744432147,
				"element": "C" 
			},
			{
				"x": -1.6200393334,
				"y": -2.8155214069,
				"z": -1.8843641393,
				"element": "S" 
			},
			{
				"x": -0.9533502413,
				"y": -1.185750446,
				"z": -2.0319527349,
				"element": "C" 
			},
			{
				"x": -0.7786592283,
				"y": -0.7866317084,
				"z": -3.305080995,
				"element": "N" 
			},
			{
				"x": -0.2787338865,
				"y": 0.4376532076,
				"z": -3.4635100457,
				"element": "C" 
			},
			{
				"x": 0.0505805958,
				"y": 1.2730391916,
				"z": -2.3952438331,
				"element": "C" 
			},
			{
				"x": -0.1703950336,
				"y": 0.7576114153,
				"z": -1.1141080901,
				"element": "C" 
			},
			{
				"x": -0.6747525893,
				"y": -0.4787302044,
				"z": -0.9350904028,
				"element": "N" 
			},
			{
				"x": 0.1262929325,
				"y": 1.5075645031,
				"z": 0.109014243,
				"element": "C" 
			},
			{
				"x": 0.635974099,
				"y": 2.7838868412,
				"z": 0.2556595849,
				"element": "C" 
			},
			{
				"x": 0.7745818566,
				"y": 3.1739147845,
				"z": 1.6081524653,
				"element": "C" 
			},
			{
				"x": 0.3566707532,
				"y": 2.179092688,
				"z": 2.4616435255,
				"element": "C" 
			},
			{
				"x": -0.2050933568,
				"y": 0.7540353546,
				"z": 1.645046554,
				"element": "S" 
			},
			{
				"x": 0.3825525027,
				"y": 2.2953005471,
				"z": 4.2154129072,
				"element": "S" 
			},
			{
				"x": 2.2951337003,
				"y": 1.4817640355,
				"z": 4.6871156357,
				"element": "Cl" 
			},
			{
				"x": -0.5945389458,
				"y": 1.3669731859,
				"z": 4.7672158933,
				"element": "O" 
			},
			{
				"x": 0.4431926845,
				"y": 3.7015812764,
				"z": 4.588572624,
				"element": "O" 
			},
			{
				"x": -0.7308219955,
				"y": -2.9459445703,
				"z": 0.3801845531,
				"element": "H" 
			},
			{
				"x": -2.1307392728,
				"y": -4.0147940635,
				"z": 0.0874064384,
				"element": "H" 
			},
			{
				"x": -2.3811330858,
				"y": -2.2688023579,
				"z": 0.3645317735,
				"element": "H" 
			},
			{
				"x": -0.133775359,
				"y": 0.769562021,
				"z": -4.4900154072,
				"element": "H" 
			},
			{
				"x": 0.4546753857,
				"y": 2.2637505505,
				"z": -2.5621858471,
				"element": "H" 
			},
			{
				"x": 0.8972949765,
				"y": 3.4241176984,
				"z": -0.578155895,
				"element": "H" 
			},
			{
				"x": 1.1527491139,
				"y": 4.1304757458,
				"z": 1.9466944069,
				"element": "H" 
			}
		],
		 "valence_orbital": [ 
			{
				"type": "occ",
				"energy": -0.3177,
				"method": "rhf"
			},
			{
				"type": "occ",
				"energy": -0.29431,
				"method": "rhf"
			},
			{
				"type": "occ",
				"energy": -0.27661,
				"method": "rhf"
			},
			{
				"type": "occ",
				"energy": -0.27201,
				"method": "rhf"
			},
			{
				"type": "occ",
				"energy": -0.24141,
				"method": "rhf"
			},
			{
				"type": "unocc",
				"energy": -0.11121,
				"method": "rhf"
			},
			{
				"type": "unocc",
				"energy": -0.07689,
				"method": "rhf"
			},
			{
				"type": "unocc",
				"energy": -0.04637,
				"method": "rhf"
			},
			{
				"type": "unocc",
				"energy": -0.02806,
				"method": "rhf"
			},
			{
				"type": "unocc",
				"energy": -0.00053,
				"method": "rhf"
			}
		],
		"cosmo_sigma_profile": { 
			"-0.025": 0.0,
			"-0.024": 0.0,
			"-0.023": 0.0,
			"-0.022": 0.0,
			"-0.021": 0.0,
			"-0.02": 0.0,
			"-0.019": 0.0,
			"-0.018": 0.0,
			"-0.017": 0.0,
			"-0.016": 0.0,
			"-0.015": 0.0,
			"-0.014": 0.0,
			"-0.013": 0.0,
			"-0.012": 0.00323063230421,
			"-0.011": 1.22838349371,
			"-0.01": 3.38573357565,
			"-0.009": 5.11975922721,
			"-0.008": 8.14753117987,
			"-0.007": 9.84532288161,
			"-0.006": 10.9094238528,
			"-0.005": 11.9080136987,
			"-0.004": 12.3662281933,
			"-0.003": 16.9014710008,
			"-0.002": 29.143483844,
			"-0.001": 33.2354284859,
			"0.0": 29.5255677842,
			"0.001": 22.1518475294,
			"0.002": 18.6841844606,
			"0.003": 21.272232278,
			"0.004": 14.7849769572,
			"0.005": 10.8968778406,
			"0.006": 8.64167560995,
			"0.007": 12.2304498815,
			"0.008": 11.1589683852,
			"0.009": 3.44876050342,
			"0.01": 1.02396349343,
			"0.011": 0.91028898928,
			"0.012": 0.670303971708,
			"0.013": 0.872607191038,
			"0.014": 0.447433541066,
			"0.015": 0.0174879925959,
			"0.016": 0.0,
			"0.017": 0.0,
			"0.018": 0.0,
			"0.019": 0.0,
			"0.02": 0.0,
			"0.021": 0.0,
			"0.022": 0.0,
			"0.023": 0.0,
			"0.024": 0.0,
			"0.025": 0.0
		}
	}
}
