{
	 "smiles": "CCC(CC)C(C)C", 
	 "Tm": 158.15, 
	 "num_atms": 26, 
	 "gaussian": { 
		 "optdone": 1, 
		 "sigma_profile": "yes", 
		 "theory": "DFT", 
		 "functional": "B3LYP", 
		 "basiset": "6-31G**", 
		 "properties": { 
			 "R2extent": 1699.6011, 
			 "electric_dipole_moment_norm": 0.10526124643, 
			 "electric_quadrupole_moment_norm": 0.36567867042, 
			 "total_energy": -315.722019777, 
			 "HOMO_LUMO_gap": 0.372, 
			 "cosmo_polarized_energy": -0.74, 
			 "cosmo_cavitation_energy": 25.24, 
			 "cosmo_dispersion_energy": -18.1, 
			 "cosmo_repulsion_energy": 1.5, 
			 "cosmo_total_nonelectrostatic_energy": 8.64, 
			 "SMD_solvation_energy": 4.41 
		},
		"coords": [
			{
				"x": -2.3164681327,
				"y": 0.1894914854,
				"z": -2.3618223313,
				"element": "C" 
			},
			{
				"x": -2.1344513489,
				"y": -0.8305816681,
				"z": -1.2300272916,
				"element": "C" 
			},
			{
				"x": -1.4651688273,
				"y": -0.3276892424,
				"z": 0.0697979231,
				"element": "C" 
			},
			{
				"x": -1.5443696265,
				"y": -1.4124014874,
				"z": 1.1733225698,
				"element": "C" 
			},
			{
				"x": -2.9590094607,
				"y": -1.7931406777,
				"z": 1.6281946334,
				"element": "C" 
			},
			{
				"x": 0.0075820178,
				"y": 0.1745257456,
				"z": -0.073878743,
				"element": "C" 
			},
			{
				"x": 0.1225786414,
				"y": 1.6362176391,
				"z": -0.542001138,
				"element": "C" 
			},
			{
				"x": 0.8983974096,
				"y": -0.7457573369,
				"z": -0.9251165053,
				"element": "C" 
			},
			{
				"x": -2.8046797607,
				"y": 1.1024576308,
				"z": -2.0021822731,
				"element": "H" 
			},
			{
				"x": -1.3679818112,
				"y": 0.480160674,
				"z": -2.8216034782,
				"element": "H" 
			},
			{
				"x": -2.9450924076,
				"y": -0.229158626,
				"z": -3.1554112631,
				"element": "H" 
			},
			{
				"x": -1.5799634901,
				"y": -1.6994301086,
				"z": -1.6090286703,
				"element": "H" 
			},
			{
				"x": -3.1281721597,
				"y": -1.2102227585,
				"z": -0.9671383306,
				"element": "H" 
			},
			{
				"x": -2.0554097414,
				"y": 0.5304762867,
				"z": 0.4294795659,
				"element": "H" 
			},
			{
				"x": -1.0173775656,
				"y": -2.3162674269,
				"z": 0.8371354931,
				"element": "H" 
			},
			{
				"x": -0.9899559755,
				"y": -1.0498913281,
				"z": 2.0484994792,
				"element": "H" 
			},
			{
				"x": -2.9186061223,
				"y": -2.4760188891,
				"z": 2.4834805427,
				"element": "H" 
			},
			{
				"x": -3.5325790635,
				"y": -2.2941080529,
				"z": 0.842523442,
				"element": "H" 
			},
			{
				"x": -3.5255597192,
				"y": -0.9074391064,
				"z": 1.9394057473,
				"element": "H" 
			},
			{
				"x": 0.4219091573,
				"y": 0.1571049849,
				"z": 0.9446634624,
				"element": "H" 
			},
			{
				"x": -0.4857044236,
				"y": 2.3001966763,
				"z": 0.0823178391,
				"element": "H" 
			},
			{
				"x": -0.1964206398,
				"y": 1.7721189967,
				"z": -1.5788618383,
				"element": "H" 
			},
			{
				"x": 1.1617388494,
				"y": 1.9782456898,
				"z": -0.4735230753,
				"element": "H" 
			},
			{
				"x": 1.9448770762,
				"y": -0.4272424459,
				"z": -0.8648032535,
				"element": "H" 
			},
			{
				"x": 0.8524655499,
				"y": -1.7867458655,
				"z": -0.5882730567,
				"element": "H" 
			},
			{
				"x": 0.6130215751,
				"y": -0.7249007889,
				"z": -1.98254945,
				"element": "H" 
			}
		],
		 "valence_orbital": [ 
			{
				"type": "occ",
				"energy": -0.33334,
				"method": "rhf"
			},
			{
				"type": "occ",
				"energy": -0.32079,
				"method": "rhf"
			},
			{
				"type": "occ",
				"energy": -0.304,
				"method": "rhf"
			},
			{
				"type": "occ",
				"energy": -0.29688,
				"method": "rhf"
			},
			{
				"type": "occ",
				"energy": -0.29151,
				"method": "rhf"
			},
			{
				"type": "unocc",
				"energy": 0.08049,
				"method": "rhf"
			},
			{
				"type": "unocc",
				"energy": 0.10266,
				"method": "rhf"
			},
			{
				"type": "unocc",
				"energy": 0.11555,
				"method": "rhf"
			},
			{
				"type": "unocc",
				"energy": 0.11745,
				"method": "rhf"
			},
			{
				"type": "unocc",
				"energy": 0.13557,
				"method": "rhf"
			}
		],
		"cosmo_sigma_profile": { 
			"-0.025": 0.0,
			"-0.024": 0.0,
			"-0.023": 0.0,
			"-0.022": 0.0,
			"-0.021": 0.0,
			"-0.02": 0.0,
			"-0.019": 0.0,
			"-0.018": 0.0,
			"-0.017": 0.0,
			"-0.016": 0.0,
			"-0.015": 0.0,
			"-0.014": 0.0,
			"-0.013": 0.0,
			"-0.012": 0.0,
			"-0.011": 0.0,
			"-0.01": 0.0,
			"-0.009": 0.0,
			"-0.008": 0.0,
			"-0.007": 0.0,
			"-0.006": 0.0,
			"-0.005": 0.0,
			"-0.004": 0.0,
			"-0.003": 5.38312892328,
			"-0.002": 27.6587457427,
			"-0.001": 39.2933858543,
			"0.0": 44.2087994305,
			"0.001": 45.666940371,
			"0.002": 28.4506724551,
			"0.003": 2.40709377915,
			"0.004": 0.0,
			"0.005": 0.0,
			"0.006": 0.0,
			"0.007": 0.0,
			"0.008": 0.0,
			"0.009": 0.0,
			"0.01": 0.0,
			"0.011": 0.0,
			"0.012": 0.0,
			"0.013": 0.0,
			"0.014": 0.0,
			"0.015": 0.0,
			"0.016": 0.0,
			"0.017": 0.0,
			"0.018": 0.0,
			"0.019": 0.0,
			"0.02": 0.0,
			"0.021": 0.0,
			"0.022": 0.0,
			"0.023": 0.0,
			"0.024": 0.0,
			"0.025": 0.0
		}
	}
}
