{
	 "smiles": "CCCCCCCCCCCC(N)=O", 
	 "Tm": 383.15, 
	 "num_atms": 39, 
	 "gaussian": { 
		 "optdone": 1, 
		 "sigma_profile": "yes", 
		 "theory": "DFT", 
		 "functional": "B3LYP", 
		 "basiset": "6-31G**", 
		 "properties": { 
			 "R2extent": 4973.3509, 
			 "electric_dipole_moment_norm": 3.82709790572, 
			 "electric_quadrupole_moment_norm": 14.8821426021, 
			 "total_energy": -602.370035297, 
			 "HOMO_LUMO_gap": 0.2777, 
			 "cosmo_polarized_energy": -11.71, 
			 "cosmo_cavitation_energy": 38.86, 
			 "cosmo_dispersion_energy": -26.35, 
			 "cosmo_repulsion_energy": 2.18, 
			 "cosmo_total_nonelectrostatic_energy": 14.69, 
			 "SMD_solvation_energy": 6.05 
		},
		"coords": [
			{
				"x": -3.6796770337,
				"y": 0.3659345852,
				"z": -3.4181345864,
				"element": "C" 
			},
			{
				"x": -3.8947512489,
				"y": -1.088700352,
				"z": -2.9824738856,
				"element": "C" 
			},
			{
				"x": -3.2831720352,
				"y": -1.4406578747,
				"z": -1.6158665126,
				"element": "C" 
			},
			{
				"x": -1.7483795807,
				"y": -1.3820532614,
				"z": -1.5746402219,
				"element": "C" 
			},
			{
				"x": -1.1257758062,
				"y": -1.8793023129,
				"z": -0.2580818296,
				"element": "C" 
			},
			{
				"x": -1.435452757,
				"y": -0.998444488,
				"z": 0.9621547335,
				"element": "C" 
			},
			{
				"x": -0.7864602667,
				"y": -1.4791558497,
				"z": 2.272696581,
				"element": "C" 
			},
			{
				"x": 0.7515260887,
				"y": -1.415633474,
				"z": 2.3617795432,
				"element": "C" 
			},
			{
				"x": 1.3567135281,
				"y": 0.0008101768,
				"z": 2.232943997,
				"element": "C" 
			},
			{
				"x": 1.8240366482,
				"y": 0.3647713158,
				"z": 0.8149287318,
				"element": "C" 
			},
			{
				"x": 2.2819942938,
				"y": 1.8200365927,
				"z": 0.6791371365,
				"element": "C" 
			},
			{
				"x": 1.1143557694,
				"y": 2.808475866,
				"z": 0.7233533116,
				"element": "C" 
			},
			{
				"x": 1.4490588789,
				"y": 4.0843240833,
				"z": 1.0832959726,
				"element": "N" 
			},
			{
				"x": -0.0352074386,
				"y": 2.5000061294,
				"z": 0.4359229476,
				"element": "O" 
			},
			{
				"x": -4.0830420584,
				"y": 1.0632524665,
				"z": -2.6745931011,
				"element": "H" 
			},
			{
				"x": -2.6184170135,
				"y": 0.6013773161,
				"z": -3.5467399168,
				"element": "H" 
			},
			{
				"x": -4.1794812162,
				"y": 0.5702495781,
				"z": -4.3711153903,
				"element": "H" 
			},
			{
				"x": -4.9728221478,
				"y": -1.293361786,
				"z": -2.9482513845,
				"element": "H" 
			},
			{
				"x": -3.4829659002,
				"y": -1.7633000101,
				"z": -3.7462750518,
				"element": "H" 
			},
			{
				"x": -3.6028976063,
				"y": -2.4548604365,
				"z": -1.33729986,
				"element": "H" 
			},
			{
				"x": -3.7040029848,
				"y": -0.7692061742,
				"z": -0.8558377039,
				"element": "H" 
			},
			{
				"x": -1.3548680368,
				"y": -1.9892193608,
				"z": -2.4024324191,
				"element": "H" 
			},
			{
				"x": -1.4086400048,
				"y": -0.3547464062,
				"z": -1.7601876221,
				"element": "H" 
			},
			{
				"x": -0.0388456744,
				"y": -1.9456886746,
				"z": -0.3951630645,
				"element": "H" 
			},
			{
				"x": -1.4667133282,
				"y": -2.9065590878,
				"z": -0.0599486896,
				"element": "H" 
			},
			{
				"x": -2.5212222644,
				"y": -0.9741173822,
				"z": 1.1194491238,
				"element": "H" 
			},
			{
				"x": -1.1408337404,
				"y": 0.0382632442,
				"z": 0.7547250279,
				"element": "H" 
			},
			{
				"x": -1.195853658,
				"y": -0.8824536968,
				"z": 3.099453403,
				"element": "H" 
			},
			{
				"x": -1.1016499555,
				"y": -2.5146438438,
				"z": 2.4653609416,
				"element": "H" 
			},
			{
				"x": 1.0373254197,
				"y": -1.838193378,
				"z": 3.3331936911,
				"element": "H" 
			},
			{
				"x": 1.2045652412,
				"y": -2.0773863528,
				"z": 1.6112523021,
				"element": "H" 
			},
			{
				"x": 0.6202721768,
				"y": 0.7400394748,
				"z": 2.5728020301,
				"element": "H" 
			},
			{
				"x": 2.2173733379,
				"y": 0.0936143101,
				"z": 2.9095214299,
				"element": "H" 
			},
			{
				"x": 2.6504699298,
				"y": -0.2974578562,
				"z": 0.527492468,
				"element": "H" 
			},
			{
				"x": 1.0177055051,
				"y": 0.1990710224,
				"z": 0.0957809275,
				"element": "H" 
			},
			{
				"x": 2.7850492445,
				"y": 1.9669321392,
				"z": -0.2866375669,
				"element": "H" 
			},
			{
				"x": 3.0189968404,
				"y": 2.0753547883,
				"z": 1.4522290093,
				"element": "H" 
			},
			{
				"x": 2.3970912406,
				"y": 4.3591474766,
				"z": 1.2811815807,
				"element": "H" 
			},
			{
				"x": 0.7302976137,
				"y": 4.791381493,
				"z": 1.052723917,
				"element": "H" 
			}
		],
		 "valence_orbital": [ 
			{
				"type": "occ",
				"energy": -0.29624,
				"method": "rhf"
			},
			{
				"type": "occ",
				"energy": -0.29054,
				"method": "rhf"
			},
			{
				"type": "occ",
				"energy": -0.28752,
				"method": "rhf"
			},
			{
				"type": "occ",
				"energy": -0.26679,
				"method": "rhf"
			},
			{
				"type": "occ",
				"energy": -0.24739,
				"method": "rhf"
			},
			{
				"type": "unocc",
				"energy": 0.03031,
				"method": "rhf"
			},
			{
				"type": "unocc",
				"energy": 0.07225,
				"method": "rhf"
			},
			{
				"type": "unocc",
				"energy": 0.09262,
				"method": "rhf"
			},
			{
				"type": "unocc",
				"energy": 0.10266,
				"method": "rhf"
			},
			{
				"type": "unocc",
				"energy": 0.11096,
				"method": "rhf"
			}
		],
		"cosmo_sigma_profile": { 
			"-0.025": 0.0,
			"-0.024": 0.0,
			"-0.023": 0.0,
			"-0.022": 0.0,
			"-0.021": 0.0,
			"-0.02": 0.0,
			"-0.019": 0.0,
			"-0.018": 0.0,
			"-0.017": 0.0,
			"-0.016": 0.0,
			"-0.015": 0.0182965416437,
			"-0.014": 1.03280411689,
			"-0.013": 2.4936800057,
			"-0.012": 2.30051465034,
			"-0.011": 2.42759101747,
			"-0.01": 2.55006888146,
			"-0.009": 2.57585403664,
			"-0.008": 1.75425846032,
			"-0.007": 2.31448181278,
			"-0.006": 2.1551662997,
			"-0.005": 4.14964137425,
			"-0.004": 6.2454496375,
			"-0.003": 6.83313543273,
			"-0.002": 30.887945243,
			"-0.001": 57.0366438487,
			"0.0": 58.76425791,
			"0.001": 54.4935637253,
			"0.002": 26.0087030875,
			"0.003": 5.37699669717,
			"0.004": 3.89623131184,
			"0.005": 2.87799939112,
			"0.006": 3.14182603179,
			"0.007": 1.98031438011,
			"0.008": 2.05969344354,
			"0.009": 2.45461060012,
			"0.01": 1.86588569835,
			"0.011": 1.48432658093,
			"0.012": 2.09287780392,
			"0.013": 2.12055831808,
			"0.014": 2.87755174276,
			"0.015": 1.57147333707,
			"0.016": 0.0706978933917,
			"0.017": 0.0,
			"0.018": 0.0,
			"0.019": 0.0,
			"0.02": 0.0,
			"0.021": 0.0,
			"0.022": 0.0,
			"0.023": 0.0,
			"0.024": 0.0,
			"0.025": 0.0
		}
	}
}
