{
	 "smiles": "CC1=C(N)C=C(C=C1)S(=O)(=O)NC1=CC=C(Cl)C=C1", 
	 "Tm": 378.15, 
	 "num_atms": 32, 
	 "gaussian": { 
		 "optdone": 1, 
		 "sigma_profile": "yes", 
		 "theory": "DFT", 
		 "functional": "B3LYP", 
		 "basiset": "6-31G**", 
		 "properties": { 
			 "R2extent": 8120.9698, 
			 "electric_dipole_moment_norm": 6.16832089551, 
			 "electric_quadrupole_moment_norm": 19.5290961803, 
			 "total_energy": -1621.49275398, 
			 "HOMO_LUMO_gap": 0.18433, 
			 "cosmo_polarized_energy": -20.13, 
			 "cosmo_cavitation_energy": 39.24, 
			 "cosmo_dispersion_energy": -27.9, 
			 "cosmo_repulsion_energy": 2.13, 
			 "cosmo_total_nonelectrostatic_energy": 13.47, 
			 "SMD_solvation_energy": 5.37 
		},
		"coords": [
			{
				"x": 2.2311431232,
				"y": 2.8879510876,
				"z": 0.2921111373,
				"element": "C" 
			},
			{
				"x": 1.6727174222,
				"y": 1.4893870426,
				"z": 0.228212441,
				"element": "C" 
			},
			{
				"x": 2.1229012667,
				"y": 0.59265561,
				"z": -0.7725931495,
				"element": "C" 
			},
			{
				"x": 3.0520633891,
				"y": 1.0094218295,
				"z": -1.7245310686,
				"element": "N" 
			},
			{
				"x": 1.5840230646,
				"y": -0.7005133152,
				"z": -0.8325130185,
				"element": "C" 
			},
			{
				"x": 0.6205164528,
				"y": -1.0926000024,
				"z": 0.0953480858,
				"element": "C" 
			},
			{
				"x": 0.1727728791,
				"y": -0.2340330971,
				"z": 1.0988560027,
				"element": "C" 
			},
			{
				"x": 0.7125161554,
				"y": 1.0517779556,
				"z": 1.1431405889,
				"element": "C" 
			},
			{
				"x": -0.0761559896,
				"y": -2.7380235892,
				"z": -0.0421404975,
				"element": "S" 
			},
			{
				"x": -0.503414841,
				"y": -3.1613732829,
				"z": 1.2905306209,
				"element": "O" 
			},
			{
				"x": 0.8125858473,
				"y": -3.5462491521,
				"z": -0.8782208877,
				"element": "O" 
			},
			{
				"x": -1.4879501749,
				"y": -2.5895603114,
				"z": -0.9894523432,
				"element": "N" 
			},
			{
				"x": -2.6065273146,
				"y": -1.8049037075,
				"z": -0.6030757449,
				"element": "C" 
			},
			{
				"x": -3.0967928965,
				"y": -0.8178173976,
				"z": -1.4684273423,
				"element": "C" 
			},
			{
				"x": -4.2334409516,
				"y": -0.0831681432,
				"z": -1.1365865401,
				"element": "C" 
			},
			{
				"x": -4.8650066398,
				"y": -0.3197846731,
				"z": 0.0829324204,
				"element": "C" 
			},
			{
				"x": -6.2893722194,
				"y": 0.6146803609,
				"z": 0.5175582662,
				"element": "Cl" 
			},
			{
				"x": -4.3836617858,
				"y": -1.2920514621,
				"z": 0.9600458042,
				"element": "C" 
			},
			{
				"x": -3.2651071515,
				"y": -2.0455329211,
				"z": 0.6118368082,
				"element": "C" 
			},
			{
				"x": 1.7435906942,
				"y": 3.4717144747,
				"z": 1.0761263878,
				"element": "H" 
			},
			{
				"x": 3.3089062627,
				"y": 2.8893605913,
				"z": 0.5088699492,
				"element": "H" 
			},
			{
				"x": 2.0940610228,
				"y": 3.4157322131,
				"z": -0.6597107939,
				"element": "H" 
			},
			{
				"x": 3.7004754452,
				"y": 1.7241625546,
				"z": -1.4260768763,
				"element": "H" 
			},
			{
				"x": 3.5145685945,
				"y": 0.2645471653,
				"z": -2.2272432429,
				"element": "H" 
			},
			{
				"x": 1.9296660202,
				"y": -1.4081802929,
				"z": -1.5796542967,
				"element": "H" 
			},
			{
				"x": -0.5566496471,
				"y": -0.5656844296,
				"z": 1.827201848,
				"element": "H" 
			},
			{
				"x": 0.3797166644,
				"y": 1.7393257894,
				"z": 1.9162169609,
				"element": "H" 
			},
			{
				"x": -1.2237596497,
				"y": -2.5051281446,
				"z": -1.9659983256,
				"element": "H" 
			},
			{
				"x": -2.5882454552,
				"y": -0.6214602557,
				"z": -2.4086489584,
				"element": "H" 
			},
			{
				"x": -4.615366016,
				"y": 0.6743771643,
				"z": -1.8117657244,
				"element": "H" 
			},
			{
				"x": -4.8923395972,
				"y": -1.4736758572,
				"z": 1.9003401944,
				"element": "H" 
			},
			{
				"x": -2.8960339744,
				"y": -2.8199538037,
				"z": 1.2729112946,
				"element": "H" 
			}
		],
		 "valence_orbital": [ 
			{
				"type": "occ",
				"energy": -0.30218,
				"method": "rhf"
			},
			{
				"type": "occ",
				"energy": -0.26825,
				"method": "rhf"
			},
			{
				"type": "occ",
				"energy": -0.26409,
				"method": "rhf"
			},
			{
				"type": "occ",
				"energy": -0.23004,
				"method": "rhf"
			},
			{
				"type": "occ",
				"energy": -0.2219,
				"method": "rhf"
			},
			{
				"type": "unocc",
				"energy": -0.03757,
				"method": "rhf"
			},
			{
				"type": "unocc",
				"energy": -0.01927,
				"method": "rhf"
			},
			{
				"type": "unocc",
				"energy": -0.01578,
				"method": "rhf"
			},
			{
				"type": "unocc",
				"energy": -0.00365,
				"method": "rhf"
			},
			{
				"type": "unocc",
				"energy": 0.02798,
				"method": "rhf"
			}
		],
		"cosmo_sigma_profile": { 
			"-0.025": 0.0,
			"-0.024": 0.0,
			"-0.023": 0.0,
			"-0.022": 0.0,
			"-0.021": 0.0,
			"-0.02": 0.0,
			"-0.019": 0.0,
			"-0.018": 0.0,
			"-0.017": 0.0,
			"-0.016": 0.315451613127,
			"-0.015": 1.09662237741,
			"-0.014": 1.43101634141,
			"-0.013": 1.98507532118,
			"-0.012": 3.32230053703,
			"-0.011": 5.13564268921,
			"-0.01": 4.31866353101,
			"-0.009": 5.50374150317,
			"-0.008": 5.24604770103,
			"-0.007": 9.24381107549,
			"-0.006": 13.1182074912,
			"-0.005": 16.6639980245,
			"-0.004": 17.4508656431,
			"-0.003": 14.5940635559,
			"-0.002": 16.7120287217,
			"-0.001": 20.8246377455,
			"0.0": 20.7807712617,
			"0.001": 21.4649809931,
			"0.002": 26.1023876022,
			"0.003": 32.1183205124,
			"0.004": 25.3223870739,
			"0.005": 14.8838858235,
			"0.006": 5.35145395596,
			"0.007": 4.26349882801,
			"0.008": 4.83278010283,
			"0.009": 4.13339454923,
			"0.01": 7.54365786232,
			"0.011": 8.83082497179,
			"0.012": 1.94954773733,
			"0.013": 0.551724624909,
			"0.014": 0.147099964978,
			"0.015": 0.0,
			"0.016": 0.0,
			"0.017": 0.0,
			"0.018": 0.0,
			"0.019": 0.0,
			"0.02": 0.0,
			"0.021": 0.0,
			"0.022": 0.0,
			"0.023": 0.0,
			"0.024": 0.0,
			"0.025": 0.0
		}
	}
}
