{
	 "smiles": "CC1=C(SC(=N1)C1=CC(Cl)=CC=C1)C(O)=O", 
	 "Tm": 465.15, 
	 "num_atms": 24, 
	 "gaussian": { 
		 "optdone": 1, 
		 "sigma_profile": "yes", 
		 "theory": "DFT", 
		 "functional": "B3LYP", 
		 "basiset": "6-31G**", 
		 "properties": { 
			 "R2extent": 6065.6231, 
			 "electric_dipole_moment_norm": 3.78076182931, 
			 "electric_quadrupole_moment_norm": 18.2714512686, 
			 "total_energy": -1487.58425761, 
			 "HOMO_LUMO_gap": 0.15342, 
			 "cosmo_polarized_energy": -13.83, 
			 "cosmo_cavitation_energy": 32.41, 
			 "cosmo_dispersion_energy": -24.4, 
			 "cosmo_repulsion_energy": 1.85, 
			 "cosmo_total_nonelectrostatic_energy": 9.85, 
			 "SMD_solvation_energy": 4.88 
		},
		"coords": [
			{
				"x": -2.0909085069,
				"y": 2.9613697473,
				"z": 0.9566389479,
				"element": "C" 
			},
			{
				"x": -1.0516591278,
				"y": 2.1353330227,
				"z": 0.2590319022,
				"element": "C" 
			},
			{
				"x": -0.2912879495,
				"y": 2.5256768963,
				"z": -0.8323375799,
				"element": "C" 
			},
			{
				"x": 0.783587045,
				"y": 1.224706644,
				"z": -1.2929270262,
				"element": "S" 
			},
			{
				"x": 0.1284609827,
				"y": 0.2529200867,
				"z": 0.0186749999,
				"element": "C" 
			},
			{
				"x": -0.7976751772,
				"y": 0.8684359592,
				"z": 0.710610803,
				"element": "N" 
			},
			{
				"x": 0.5842942615,
				"y": -1.1138557795,
				"z": 0.2997926212,
				"element": "C" 
			},
			{
				"x": 1.5823162548,
				"y": -1.7327318311,
				"z": -0.4695992468,
				"element": "C" 
			},
			{
				"x": 1.979160738,
				"y": -3.0300975476,
				"z": -0.1619999603,
				"element": "C" 
			},
			{
				"x": 3.228596909,
				"y": -3.7941904241,
				"z": -1.1313319075,
				"element": "Cl" 
			},
			{
				"x": 1.4066241736,
				"y": -3.734308066,
				"z": 0.8975666782,
				"element": "C" 
			},
			{
				"x": 0.4143938436,
				"y": -3.1126490024,
				"z": 1.658774875,
				"element": "C" 
			},
			{
				"x": 0.0016300398,
				"y": -1.8158603298,
				"z": 1.3695394268,
				"element": "C" 
			},
			{
				"x": -0.3656803426,
				"y": 3.8339677544,
				"z": -1.5122246405,
				"element": "C" 
			},
			{
				"x": 0.4571173923,
				"y": 4.0486345812,
				"z": -2.5735865787,
				"element": "O" 
			},
			{
				"x": -1.1254145218,
				"y": 4.7092873736,
				"z": -1.1596801812,
				"element": "O" 
			},
			{
				"x": -2.5159244949,
				"y": 2.382185795,
				"z": 1.7776908959,
				"element": "H" 
			},
			{
				"x": -2.8830637731,
				"y": 3.2600643909,
				"z": 0.2647774874,
				"element": "H" 
			},
			{
				"x": -1.6597997037,
				"y": 3.88934251,
				"z": 1.3418639904,
				"element": "H" 
			},
			{
				"x": 2.0513872931,
				"y": -1.2177899468,
				"z": -1.3012905888,
				"element": "H" 
			},
			{
				"x": 1.7324866401,
				"y": -4.7445267993,
				"z": 1.118029052,
				"element": "H" 
			},
			{
				"x": -0.038544412,
				"y": -3.6506712914,
				"z": 2.4858567468,
				"element": "H" 
			},
			{
				"x": -0.7675674059,
				"y": -1.3270707116,
				"z": 1.9555972901,
				"element": "H" 
			},
			{
				"x": 1.0172698419,
				"y": 3.2830269684,
				"z": -2.7640680068,
				"element": "H" 
			}
		],
		 "valence_orbital": [ 
			{
				"type": "occ",
				"energy": -0.29569,
				"method": "rhf"
			},
			{
				"type": "occ",
				"energy": -0.29476,
				"method": "rhf"
			},
			{
				"type": "occ",
				"energy": -0.28132,
				"method": "rhf"
			},
			{
				"type": "occ",
				"energy": -0.2663,
				"method": "rhf"
			},
			{
				"type": "occ",
				"energy": -0.24297,
				"method": "rhf"
			},
			{
				"type": "unocc",
				"energy": -0.08955,
				"method": "rhf"
			},
			{
				"type": "unocc",
				"energy": -0.03125,
				"method": "rhf"
			},
			{
				"type": "unocc",
				"energy": -0.0244,
				"method": "rhf"
			},
			{
				"type": "unocc",
				"energy": -0.02113,
				"method": "rhf"
			},
			{
				"type": "unocc",
				"energy": 0.01631,
				"method": "rhf"
			}
		],
		"cosmo_sigma_profile": { 
			"-0.025": 0.0,
			"-0.024": 0.0,
			"-0.023": 0.0,
			"-0.022": 0.0,
			"-0.021": 0.0,
			"-0.02": 0.0,
			"-0.019": 0.000629635095481,
			"-0.018": 0.613880718258,
			"-0.017": 1.13723658056,
			"-0.016": 0.535731315186,
			"-0.015": 0.961937515103,
			"-0.014": 1.05286724446,
			"-0.013": 1.07061120049,
			"-0.012": 1.05379832224,
			"-0.011": 0.799098592606,
			"-0.01": 1.38986769966,
			"-0.009": 1.09752131925,
			"-0.008": 4.02293155139,
			"-0.007": 7.28481025791,
			"-0.006": 9.54433175787,
			"-0.005": 12.0368068449,
			"-0.004": 12.9689021144,
			"-0.003": 15.4622262492,
			"-0.002": 20.6371738263,
			"-0.001": 29.554276738,
			"0.0": 26.8422192386,
			"0.001": 26.2493768842,
			"0.002": 24.0122327507,
			"0.003": 14.7012209347,
			"0.004": 14.57406059,
			"0.005": 6.39132276985,
			"0.006": 3.37876267815,
			"0.007": 5.01912910886,
			"0.008": 3.18948781008,
			"0.009": 5.00938787689,
			"0.01": 4.98802537132,
			"0.011": 4.43047069882,
			"0.012": 3.5386981517,
			"0.013": 1.30500076181,
			"0.014": 0.00797415837017,
			"0.015": 0.0,
			"0.016": 0.0,
			"0.017": 0.0,
			"0.018": 0.0,
			"0.019": 0.0,
			"0.02": 0.0,
			"0.021": 0.0,
			"0.022": 0.0,
			"0.023": 0.0,
			"0.024": 0.0,
			"0.025": 0.0
		}
	}
}
