{
	 "smiles": "CC(CO)(CO)[N+]([O-])=O", 
	 "Tm": 423.15, 
	 "num_atms": 18, 
	 "gaussian": { 
		 "optdone": 1, 
		 "sigma_profile": "yes", 
		 "theory": "DFT", 
		 "functional": "B3LYP", 
		 "basiset": "6-31G**", 
		 "properties": { 
			 "R2extent": 1413.58, 
			 "electric_dipole_moment_norm": 3.67611194198, 
			 "electric_quadrupole_moment_norm": 10.540633757, 
			 "total_energy": -513.378530336, 
			 "HOMO_LUMO_gap": 0.21609, 
			 "cosmo_polarized_energy": -13.62, 
			 "cosmo_cavitation_energy": 21.31, 
			 "cosmo_dispersion_energy": -15.33, 
			 "cosmo_repulsion_energy": 1.28, 
			 "cosmo_total_nonelectrostatic_energy": 7.26, 
			 "SMD_solvation_energy": 6.18 
		},
		"coords": [
			{
				"x": 0.5656669831,
				"y": -1.2681062471,
				"z": -0.6276363043,
				"element": "C" 
			},
			{
				"x": 0.7411503538,
				"y": 0.2392861392,
				"z": -0.4182049585,
				"element": "C" 
			},
			{
				"x": 1.5521579011,
				"y": 0.8600599297,
				"z": -1.5583639402,
				"element": "C" 
			},
			{
				"x": 1.7183562111,
				"y": 2.2415606216,
				"z": -1.2788077294,
				"element": "O" 
			},
			{
				"x": -0.6056201891,
				"y": 0.9531537612,
				"z": -0.2292300003,
				"element": "C" 
			},
			{
				"x": -1.3419661805,
				"y": 0.7315884647,
				"z": -1.4288781127,
				"element": "O" 
			},
			{
				"x": 1.5687098456,
				"y": 0.4212045488,
				"z": 0.8647418066,
				"element": "N" 
			},
			{
				"x": 2.7111282939,
				"y": -0.0259105571,
				"z": 0.8514970824,
				"element": "O" 
			},
			{
				"x": 1.0394753262,
				"y": 0.9724865599,
				"z": 1.8241518788,
				"element": "O" 
			},
			{
				"x": -0.0536720554,
				"y": -1.4312709057,
				"z": -1.5116370176,
				"element": "H" 
			},
			{
				"x": 1.5330949102,
				"y": -1.7572661991,
				"z": -0.7580832843,
				"element": "H" 
			},
			{
				"x": 0.0583441691,
				"y": -1.7175900351,
				"z": 0.2311290911,
				"element": "H" 
			},
			{
				"x": 0.9873566702,
				"y": 0.6950598364,
				"z": -2.4854622301,
				"element": "H" 
			},
			{
				"x": 2.5147834282,
				"y": 0.3388162161,
				"z": -1.62314411,
				"element": "H" 
			},
			{
				"x": 2.3666890598,
				"y": 2.6017672113,
				"z": -1.8948994467,
				"element": "H" 
			},
			{
				"x": -0.4245061115,
				"y": 2.0174224803,
				"z": -0.0501335984,
				"element": "H" 
			},
			{
				"x": -1.1210864781,
				"y": 0.5359900557,
				"z": 0.6447144725,
				"element": "H" 
			},
			{
				"x": -2.1019621376,
				"y": 1.3248481192,
				"z": -1.422253599,
				"element": "H" 
			}
		],
		 "valence_orbital": [ 
			{
				"type": "occ",
				"energy": -0.30742,
				"method": "rhf"
			},
			{
				"type": "occ",
				"energy": -0.29545,
				"method": "rhf"
			},
			{
				"type": "occ",
				"energy": -0.29184,
				"method": "rhf"
			},
			{
				"type": "occ",
				"energy": -0.28259,
				"method": "rhf"
			},
			{
				"type": "occ",
				"energy": -0.27508,
				"method": "rhf"
			},
			{
				"type": "unocc",
				"energy": -0.05899,
				"method": "rhf"
			},
			{
				"type": "unocc",
				"energy": 0.05689,
				"method": "rhf"
			},
			{
				"type": "unocc",
				"energy": 0.06773,
				"method": "rhf"
			},
			{
				"type": "unocc",
				"energy": 0.10767,
				"method": "rhf"
			},
			{
				"type": "unocc",
				"energy": 0.11247,
				"method": "rhf"
			}
		],
		"cosmo_sigma_profile": { 
			"-0.025": 0.0,
			"-0.024": 0.0,
			"-0.023": 0.0,
			"-0.022": 0.0,
			"-0.021": 0.0,
			"-0.02": 0.0,
			"-0.019": 0.0,
			"-0.018": 0.0,
			"-0.017": 0.550312427281,
			"-0.016": 2.50373399408,
			"-0.015": 1.84339647325,
			"-0.014": 2.19514556042,
			"-0.013": 1.64682917163,
			"-0.012": 2.13540117627,
			"-0.011": 1.10125618814,
			"-0.01": 0.747141396263,
			"-0.009": 2.57589794249,
			"-0.008": 2.02863924372,
			"-0.007": 3.35297387668,
			"-0.006": 5.14895451485,
			"-0.005": 11.4446682166,
			"-0.004": 15.3759024352,
			"-0.003": 11.6343637006,
			"-0.002": 10.1697924986,
			"-0.001": 10.0637296366,
			"0.0": 5.69390230167,
			"0.001": 4.33563994306,
			"0.002": 6.24583708958,
			"0.003": 6.33117002505,
			"0.004": 7.49486679187,
			"0.005": 5.4812676159,
			"0.006": 6.92972982041,
			"0.007": 13.0730890353,
			"0.008": 10.1885230591,
			"0.009": 6.6246044837,
			"0.01": 5.23797914959,
			"0.011": 2.97881508647,
			"0.012": 0.145974874562,
			"0.013": 0.0,
			"0.014": 0.0,
			"0.015": 0.0,
			"0.016": 0.0,
			"0.017": 0.0,
			"0.018": 0.0,
			"0.019": 0.0,
			"0.02": 0.0,
			"0.021": 0.0,
			"0.022": 0.0,
			"0.023": 0.0,
			"0.024": 0.0,
			"0.025": 0.0
		}
	}
}
