{
	 "smiles": "CCN(CC)CC1=C(N)C2=CC=CC=C2OC1=O", 
	 "Tm": 406.15, 
	 "num_atms": 36, 
	 "gaussian": { 
		 "optdone": 1, 
		 "sigma_profile": "yes", 
		 "theory": "DFT", 
		 "functional": "B3LYP", 
		 "basiset": "6-31G**", 
		 "properties": { 
			 "R2extent": 5820.0436, 
			 "electric_dipole_moment_norm": 5.28506355875, 
			 "electric_quadrupole_moment_norm": 14.398208741, 
			 "total_energy": -804.309031133, 
			 "HOMO_LUMO_gap": 0.16382, 
			 "cosmo_polarized_energy": -15.02, 
			 "cosmo_cavitation_energy": 37.27, 
			 "cosmo_dispersion_energy": -26.36, 
			 "cosmo_repulsion_energy": 2.02, 
			 "cosmo_total_nonelectrostatic_energy": 12.93, 
			 "SMD_solvation_energy": 7.1 
		},
		"coords": [
			{
				"x": 1.2585658012,
				"y": -1.8667348761,
				"z": 2.2121196952,
				"element": "C" 
			},
			{
				"x": 0.1107745507,
				"y": -1.0461170681,
				"z": 1.6236219455,
				"element": "C" 
			},
			{
				"x": -0.5403214065,
				"y": -1.689471404,
				"z": 0.4699480326,
				"element": "N" 
			},
			{
				"x": -1.2238287238,
				"y": -2.9572752185,
				"z": 0.783063792,
				"element": "C" 
			},
			{
				"x": -2.4090363881,
				"y": -2.8920954205,
				"z": 1.7602296045,
				"element": "C" 
			},
			{
				"x": -1.4247237915,
				"y": -0.7477498991,
				"z": -0.2559312143,
				"element": "C" 
			},
			{
				"x": -0.6833498921,
				"y": 0.3598570074,
				"z": -0.9757875904,
				"element": "C" 
			},
			{
				"x": 0.4054876186,
				"y": 0.107971265,
				"z": -1.7891713071,
				"element": "C" 
			},
			{
				"x": 0.8911478578,
				"y": -1.1632388487,
				"z": -1.9216993994,
				"element": "N" 
			},
			{
				"x": 1.0144439844,
				"y": 1.2041033333,
				"z": -2.5371598422,
				"element": "C" 
			},
			{
				"x": 2.0866327547,
				"y": 1.0545905828,
				"z": -3.4373697712,
				"element": "C" 
			},
			{
				"x": 2.6185657535,
				"y": 2.1484118896,
				"z": -4.1067137211,
				"element": "C" 
			},
			{
				"x": 2.0833613921,
				"y": 3.4261130222,
				"z": -3.8903851667,
				"element": "C" 
			},
			{
				"x": 1.0175613774,
				"y": 3.6007514759,
				"z": -3.0173570725,
				"element": "C" 
			},
			{
				"x": 0.4835317879,
				"y": 2.4930572484,
				"z": -2.3497894876,
				"element": "C" 
			},
			{
				"x": -0.564625219,
				"y": 2.7273457189,
				"z": -1.5200945739,
				"element": "O" 
			},
			{
				"x": -1.21346105,
				"y": 1.696841588,
				"z": -0.8230062157,
				"element": "C" 
			},
			{
				"x": -2.1630110652,
				"y": 2.0267826709,
				"z": -0.1410202446,
				"element": "O" 
			},
			{
				"x": 0.9146145775,
				"y": -2.791155905,
				"z": 2.6862573963,
				"element": "H" 
			},
			{
				"x": 1.7778926461,
				"y": -1.2825516213,
				"z": 2.9783620811,
				"element": "H" 
			},
			{
				"x": 1.9844309654,
				"y": -2.1329997956,
				"z": 1.4365892115,
				"element": "H" 
			},
			{
				"x": -0.6177034487,
				"y": -0.7998602126,
				"z": 2.4148468225,
				"element": "H" 
			},
			{
				"x": 0.505274752,
				"y": -0.0896054746,
				"z": 1.2670827457,
				"element": "H" 
			},
			{
				"x": -1.5674648248,
				"y": -3.3766321297,
				"z": -0.1703439616,
				"element": "H" 
			},
			{
				"x": -0.4747760028,
				"y": -3.6562115843,
				"z": 1.169614961,
				"element": "H" 
			},
			{
				"x": -3.2037090744,
				"y": -2.2344079862,
				"z": 1.3956597833,
				"element": "H" 
			},
			{
				"x": -2.8375878774,
				"y": -3.892023016,
				"z": 1.8855978296,
				"element": "H" 
			},
			{
				"x": -2.107150525,
				"y": -2.5379010043,
				"z": 2.750646901,
				"element": "H" 
			},
			{
				"x": -2.170269016,
				"y": -0.2791842492,
				"z": 0.3990715048,
				"element": "H" 
			},
			{
				"x": -1.9755698773,
				"y": -1.3463247998,
				"z": -0.9951258676,
				"element": "H" 
			},
			{
				"x": 0.6284741218,
				"y": -1.7706812391,
				"z": -1.1393894438,
				"element": "H" 
			},
			{
				"x": 1.8280560829,
				"y": -1.2733162492,
				"z": -2.2770635589,
				"element": "H" 
			},
			{
				"x": 2.4975364152,
				"y": 0.0689411625,
				"z": -3.6342094535,
				"element": "H" 
			},
			{
				"x": 3.443407037,
				"y": 2.0116801314,
				"z": -4.7986683572,
				"element": "H" 
			},
			{
				"x": 2.4975126303,
				"y": 4.2845270716,
				"z": -4.4106562486,
				"element": "H" 
			},
			{
				"x": 0.5769160761,
				"y": 4.5750638342,
				"z": -2.8362698088,
				"element": "H" 
			}
		],
		 "valence_orbital": [ 
			{
				"type": "occ",
				"energy": -0.2661,
				"method": "rhf"
			},
			{
				"type": "occ",
				"energy": -0.2585,
				"method": "rhf"
			},
			{
				"type": "occ",
				"energy": -0.23959,
				"method": "rhf"
			},
			{
				"type": "occ",
				"energy": -0.2217,
				"method": "rhf"
			},
			{
				"type": "occ",
				"energy": -0.21128,
				"method": "rhf"
			},
			{
				"type": "unocc",
				"energy": -0.04746,
				"method": "rhf"
			},
			{
				"type": "unocc",
				"energy": -0.00583,
				"method": "rhf"
			},
			{
				"type": "unocc",
				"energy": 0.02068,
				"method": "rhf"
			},
			{
				"type": "unocc",
				"energy": 0.06504,
				"method": "rhf"
			},
			{
				"type": "unocc",
				"energy": 0.07821,
				"method": "rhf"
			}
		],
		"cosmo_sigma_profile": { 
			"-0.025": 0.0,
			"-0.024": 0.0,
			"-0.023": 0.0,
			"-0.022": 0.0,
			"-0.021": 0.0,
			"-0.02": 0.0,
			"-0.019": 0.0,
			"-0.018": 0.0,
			"-0.017": 0.0,
			"-0.016": 0.0,
			"-0.015": 0.204236980042,
			"-0.014": 1.07713138747,
			"-0.013": 1.29760970617,
			"-0.012": 1.04396906102,
			"-0.011": 1.37144094286,
			"-0.01": 1.0237947052,
			"-0.009": 1.41466096037,
			"-0.008": 2.23894813333,
			"-0.007": 4.49946858261,
			"-0.006": 8.51629697598,
			"-0.005": 10.4658889689,
			"-0.004": 14.5547996007,
			"-0.003": 25.6068895776,
			"-0.002": 38.7613843667,
			"-0.001": 37.4702879985,
			"0.0": 35.5986824784,
			"0.001": 31.9065280051,
			"0.002": 18.381870113,
			"0.003": 13.5738125588,
			"0.004": 11.1199395006,
			"0.005": 4.24095329473,
			"0.006": 2.76241397542,
			"0.007": 2.35177723333,
			"0.008": 2.90101248215,
			"0.009": 2.7925633781,
			"0.01": 3.40240893118,
			"0.011": 2.39224791016,
			"0.012": 3.21482677058,
			"0.013": 5.83458042001,
			"0.014": 3.33594401639,
			"0.015": 0.571394862588,
			"0.016": 0.0,
			"0.017": 0.0,
			"0.018": 0.0,
			"0.019": 0.0,
			"0.02": 0.0,
			"0.021": 0.0,
			"0.022": 0.0,
			"0.023": 0.0,
			"0.024": 0.0,
			"0.025": 0.0
		}
	}
}
