{
	 "smiles": "[O-][N+](=O)C1=C(C=CC(C=O)=C1)N1CCCC1", 
	 "Tm": 377.15, 
	 "num_atms": 28, 
	 "gaussian": { 
		 "optdone": 1, 
		 "sigma_profile": "yes", 
		 "theory": "DFT", 
		 "functional": "B3LYP", 
		 "basiset": "6-31G**", 
		 "properties": { 
			 "R2extent": 6620.166, 
			 "electric_dipole_moment_norm": 5.98400668699, 
			 "electric_quadrupole_moment_norm": 19.8452462424, 
			 "total_energy": -761.460857529, 
			 "HOMO_LUMO_gap": 0.14242, 
			 "cosmo_polarized_energy": -14.27, 
			 "cosmo_cavitation_energy": 31.24, 
			 "cosmo_dispersion_energy": -22.77, 
			 "cosmo_repulsion_energy": 1.76, 
			 "cosmo_total_nonelectrostatic_energy": 10.22, 
			 "SMD_solvation_energy": 7.23 
		},
		"coords": [
			{
				"x": -4.2770672628,
				"y": 0.3788218412,
				"z": 2.9094563965,
				"element": "O" 
			},
			{
				"x": -4.0466057391,
				"y": 0.1050095605,
				"z": 1.7251176712,
				"element": "N" 
			},
			{
				"x": -4.8659481105,
				"y": -0.4085984519,
				"z": 0.9608918898,
				"element": "O" 
			},
			{
				"x": -2.7549049739,
				"y": 0.5118002045,
				"z": 1.179908798,
				"element": "C" 
			},
			{
				"x": -1.5159981047,
				"y": 0.4260028838,
				"z": 1.8983100861,
				"element": "C" 
			},
			{
				"x": -0.4504404739,
				"y": 1.206442777,
				"z": 1.3443243582,
				"element": "C" 
			},
			{
				"x": -0.5609092484,
				"y": 1.8607043173,
				"z": 0.1381498173,
				"element": "C" 
			},
			{
				"x": -1.7484327992,
				"y": 1.8014038988,
				"z": -0.6170384844,
				"element": "C" 
			},
			{
				"x": -1.8564237222,
				"y": 2.4723827223,
				"z": -1.9212793476,
				"element": "C" 
			},
			{
				"x": -0.9551654312,
				"y": 3.0982063505,
				"z": -2.4518884742,
				"element": "O" 
			},
			{
				"x": -2.8355179324,
				"y": 1.1304106968,
				"z": -0.0677200756,
				"element": "C" 
			},
			{
				"x": -1.2687968849,
				"y": -0.3701309593,
				"z": 2.9782433496,
				"element": "N" 
			},
			{
				"x": 0.0994477451,
				"y": -0.5218104701,
				"z": 3.5203025142,
				"element": "C" 
			},
			{
				"x": 0.0805346499,
				"y": -1.8660092448,
				"z": 4.2581849589,
				"element": "C" 
			},
			{
				"x": -1.3814731925,
				"y": -2.0163293411,
				"z": 4.6890463311,
				"element": "C" 
			},
			{
				"x": -2.1668634292,
				"y": -1.4089376002,
				"z": 3.522852239,
				"element": "C" 
			},
			{
				"x": 0.4801370298,
				"y": 1.2841836141,
				"z": 1.8892876764,
				"element": "H" 
			},
			{
				"x": 0.2736781602,
				"y": 2.4313925138,
				"z": -0.2571746428,
				"element": "H" 
			},
			{
				"x": -2.8485298445,
				"y": 2.3681327288,
				"z": -2.4146767718,
				"element": "H" 
			},
			{
				"x": -3.7927852151,
				"y": 1.1107661465,
				"z": -0.5788216036,
				"element": "H" 
			},
			{
				"x": 0.8375645572,
				"y": -0.5226460429,
				"z": 2.7137539097,
				"element": "H" 
			},
			{
				"x": 0.336878547,
				"y": 0.3126270428,
				"z": 4.1939818783,
				"element": "H" 
			},
			{
				"x": 0.3567495615,
				"y": -2.6704132795,
				"z": 3.5676238776,
				"element": "H" 
			},
			{
				"x": 0.7857781804,
				"y": -1.8854195832,
				"z": 5.0929011482,
				"element": "H" 
			},
			{
				"x": -1.6728128905,
				"y": -3.0517113484,
				"z": 4.8820567604,
				"element": "H" 
			},
			{
				"x": -1.5712869671,
				"y": -1.4400738401,
				"z": 5.6012831437,
				"element": "H" 
			},
			{
				"x": -2.382937882,
				"y": -2.1535839151,
				"z": 2.7419336437,
				"element": "H" 
			},
			{
				"x": -3.1127683268,
				"y": -0.9804232222,
				"z": 3.848388952,
				"element": "H" 
			}
		],
		 "valence_orbital": [ 
			{
				"type": "occ",
				"energy": -0.30208,
				"method": "rhf"
			},
			{
				"type": "occ",
				"energy": -0.29896,
				"method": "rhf"
			},
			{
				"type": "occ",
				"energy": -0.27162,
				"method": "rhf"
			},
			{
				"type": "occ",
				"energy": -0.25194,
				"method": "rhf"
			},
			{
				"type": "occ",
				"energy": -0.22298,
				"method": "rhf"
			},
			{
				"type": "unocc",
				"energy": -0.08056,
				"method": "rhf"
			},
			{
				"type": "unocc",
				"energy": -0.05791,
				"method": "rhf"
			},
			{
				"type": "unocc",
				"energy": -0.01717,
				"method": "rhf"
			},
			{
				"type": "unocc",
				"energy": 0.03335,
				"method": "rhf"
			},
			{
				"type": "unocc",
				"energy": 0.06581,
				"method": "rhf"
			}
		],
		"cosmo_sigma_profile": { 
			"-0.025": 0.0,
			"-0.024": 0.0,
			"-0.023": 0.0,
			"-0.022": 0.0,
			"-0.021": 0.0,
			"-0.02": 0.0,
			"-0.019": 0.0,
			"-0.018": 0.0,
			"-0.017": 0.0,
			"-0.016": 0.0,
			"-0.015": 0.0,
			"-0.014": 0.0,
			"-0.013": 0.0,
			"-0.012": 0.0,
			"-0.011": 0.0,
			"-0.01": 0.0,
			"-0.009": 0.58658820759,
			"-0.008": 3.60162917036,
			"-0.007": 6.41917701935,
			"-0.006": 12.3498848383,
			"-0.005": 18.9226054197,
			"-0.004": 29.1963545728,
			"-0.003": 30.8436594599,
			"-0.002": 20.4325467639,
			"-0.001": 17.6263314013,
			"0.0": 16.7274966759,
			"0.001": 15.9151728035,
			"0.002": 12.166026885,
			"0.003": 7.55501487641,
			"0.004": 5.73075143971,
			"0.005": 4.65833470686,
			"0.006": 4.43856477013,
			"0.007": 6.79491232394,
			"0.008": 11.3645962151,
			"0.009": 6.55538406782,
			"0.01": 5.57851871924,
			"0.011": 4.56192909517,
			"0.012": 4.2161098366,
			"0.013": 1.64921977068,
			"0.014": 0.152592362705,
			"0.015": 0.0,
			"0.016": 0.0,
			"0.017": 0.0,
			"0.018": 0.0,
			"0.019": 0.0,
			"0.02": 0.0,
			"0.021": 0.0,
			"0.022": 0.0,
			"0.023": 0.0,
			"0.024": 0.0,
			"0.025": 0.0
		}
	}
}
