{
	 "smiles": "CC1=CC=C(C=C1)N1C=C(N=N1)C(O)=O", 
	 "Tm": 434.15, 
	 "num_atms": 24, 
	 "gaussian": { 
		 "optdone": 1, 
		 "sigma_profile": "yes", 
		 "theory": "DFT", 
		 "functional": "B3LYP", 
		 "basiset": "6-31G**", 
		 "properties": { 
			 "R2extent": 5454.5285, 
			 "electric_dipole_moment_norm": 6.7205523032, 
			 "electric_quadrupole_moment_norm": 24.4678894366, 
			 "total_energy": -701.167571992, 
			 "HOMO_LUMO_gap": 0.19696, 
			 "cosmo_polarized_energy": -18.3, 
			 "cosmo_cavitation_energy": 29.78, 
			 "cosmo_dispersion_energy": -21.73, 
			 "cosmo_repulsion_energy": 1.69, 
			 "cosmo_total_nonelectrostatic_energy": 9.74, 
			 "SMD_solvation_energy": 5.31 
		},
		"coords": [
			{
				"x": -2.4464453337,
				"y": -0.2490243946,
				"z": -2.9366582987,
				"element": "C" 
			},
			{
				"x": -1.5593892001,
				"y": -0.2125411524,
				"z": -1.7154251504,
				"element": "C" 
			},
			{
				"x": -0.9695176249,
				"y": -1.3844114454,
				"z": -1.2187694591,
				"element": "C" 
			},
			{
				"x": -0.1761881901,
				"y": -1.3729855207,
				"z": -0.0757098519,
				"element": "C" 
			},
			{
				"x": 0.0501518118,
				"y": -0.1631631637,
				"z": 0.5869447839,
				"element": "C" 
			},
			{
				"x": -0.5089945264,
				"y": 1.0215119997,
				"z": 0.1041544176,
				"element": "C" 
			},
			{
				"x": -1.3125431238,
				"y": 0.9858660405,
				"z": -1.0342879839,
				"element": "C" 
			},
			{
				"x": 0.8627941377,
				"y": -0.1495455161,
				"z": 1.7562995435,
				"element": "N" 
			},
			{
				"x": 0.8370889768,
				"y": 0.6978656079,
				"z": 2.8108053716,
				"element": "C" 
			},
			{
				"x": 1.8387429947,
				"y": 0.2404764443,
				"z": 3.6450810264,
				"element": "C" 
			},
			{
				"x": 2.4202644869,
				"y": -0.8555322431,
				"z": 3.0673249333,
				"element": "N" 
			},
			{
				"x": 1.8429027146,
				"y": -1.0946648683,
				"z": 1.9354392694,
				"element": "N" 
			},
			{
				"x": 2.2680456366,
				"y": 0.7711707399,
				"z": 4.9494671067,
				"element": "C" 
			},
			{
				"x": 1.5292997806,
				"y": 1.8626702815,
				"z": 5.2943455228,
				"element": "O" 
			},
			{
				"x": 3.1501988687,
				"y": 0.3252585195,
				"z": 5.6465665456,
				"element": "O" 
			},
			{
				"x": -2.5395304434,
				"y": 0.7401115833,
				"z": -3.3935489012,
				"element": "H" 
			},
			{
				"x": -2.0563345424,
				"y": -0.9368472197,
				"z": -3.6932518379,
				"element": "H" 
			},
			{
				"x": -3.4574300897,
				"y": -0.5891866032,
				"z": -2.6803927476,
				"element": "H" 
			},
			{
				"x": -1.1387194521,
				"y": -2.3271098824,
				"z": -1.7323672666,
				"element": "H" 
			},
			{
				"x": 0.2740889674,
				"y": -2.2813788256,
				"z": 0.3059818785,
				"element": "H" 
			},
			{
				"x": -0.3024478179,
				"y": 1.9676359079,
				"z": 0.5938857135,
				"element": "H" 
			},
			{
				"x": -1.7424763811,
				"y": 1.9119858563,
				"z": -1.4059062513,
				"element": "H" 
			},
			{
				"x": 0.1339811663,
				"y": 1.5076994637,
				"z": 2.9108367028,
				"element": "H" 
			},
			{
				"x": 1.8695571835,
				"y": 2.1480383908,
				"z": 6.158284933,
				"element": "H" 
			}
		],
		 "valence_orbital": [ 
			{
				"type": "occ",
				"energy": -0.28054,
				"method": "rhf"
			},
			{
				"type": "occ",
				"energy": -0.27878,
				"method": "rhf"
			},
			{
				"type": "occ",
				"energy": -0.27755,
				"method": "rhf"
			},
			{
				"type": "occ",
				"energy": -0.27083,
				"method": "rhf"
			},
			{
				"type": "occ",
				"energy": -0.24675,
				"method": "rhf"
			},
			{
				"type": "unocc",
				"energy": -0.04979,
				"method": "rhf"
			},
			{
				"type": "unocc",
				"energy": -0.02728,
				"method": "rhf"
			},
			{
				"type": "unocc",
				"energy": -0.02173,
				"method": "rhf"
			},
			{
				"type": "unocc",
				"energy": 0.0121,
				"method": "rhf"
			},
			{
				"type": "unocc",
				"energy": 0.07601,
				"method": "rhf"
			}
		],
		"cosmo_sigma_profile": { 
			"-0.025": 0.0,
			"-0.024": 0.0,
			"-0.023": 0.0,
			"-0.022": 0.0,
			"-0.021": 0.0,
			"-0.02": 0.0,
			"-0.019": 0.217095233428,
			"-0.018": 0.838058222349,
			"-0.017": 0.936599242765,
			"-0.016": 1.11472312792,
			"-0.015": 0.361430528676,
			"-0.014": 1.04849823865,
			"-0.013": 0.549797229676,
			"-0.012": 1.02541343628,
			"-0.011": 3.27061468084,
			"-0.01": 2.38493995694,
			"-0.009": 2.60829206261,
			"-0.008": 2.97627393827,
			"-0.007": 4.62725498992,
			"-0.006": 9.66542091515,
			"-0.005": 13.3302192039,
			"-0.004": 16.9913960188,
			"-0.003": 19.7550547014,
			"-0.002": 22.1868733831,
			"-0.001": 20.7579767176,
			"0.0": 17.203880872,
			"0.001": 12.2390019913,
			"0.002": 13.0957677961,
			"0.003": 13.5603887493,
			"0.004": 12.4202721555,
			"0.005": 4.45240844567,
			"0.006": 5.06117613397,
			"0.007": 4.31970795457,
			"0.008": 4.49630293889,
			"0.009": 5.20319803368,
			"0.01": 5.21580549421,
			"0.011": 8.08300152653,
			"0.012": 4.4169014099,
			"0.013": 2.62649616836,
			"0.014": 1.38193636511,
			"0.015": 0.263440887554,
			"0.016": 0.0,
			"0.017": 0.0,
			"0.018": 0.0,
			"0.019": 0.0,
			"0.02": 0.0,
			"0.021": 0.0,
			"0.022": 0.0,
			"0.023": 0.0,
			"0.024": 0.0,
			"0.025": 0.0
		}
	}
}
