{
	 "smiles": "OC(=O)C1=C(C=CC=C1)N1C=NN=N1", 
	 "Tm": 465.15, 
	 "num_atms": 20, 
	 "gaussian": { 
		 "optdone": 1, 
		 "sigma_profile": "yes", 
		 "theory": "DFT", 
		 "functional": "B3LYP", 
		 "basiset": "6-31G**", 
		 "properties": { 
			 "R2extent": 4158.2598, 
			 "electric_dipole_moment_norm": 8.77514253218, 
			 "electric_quadrupole_moment_norm": 31.8247496026, 
			 "total_energy": -677.855837769, 
			 "HOMO_LUMO_gap": 0.20624, 
			 "cosmo_polarized_energy": -25.26, 
			 "cosmo_cavitation_energy": 26.06, 
			 "cosmo_dispersion_energy": -18.42, 
			 "cosmo_repulsion_energy": 1.44, 
			 "cosmo_total_nonelectrostatic_energy": 9.07, 
			 "SMD_solvation_energy": 4.51 
		},
		"coords": [
			{
				"x": -2.2474646753,
				"y": 2.8751491245,
				"z": -2.3598708067,
				"element": "O" 
			},
			{
				"x": -1.8539480109,
				"y": 2.1679498621,
				"z": -1.2717148921,
				"element": "C" 
			},
			{
				"x": -1.7666580518,
				"y": 2.6873771969,
				"z": -0.188689967,
				"element": "O" 
			},
			{
				"x": -1.4570611637,
				"y": 0.7381699825,
				"z": -1.5365524082,
				"element": "C" 
			},
			{
				"x": -1.8174213335,
				"y": -0.2957760012,
				"z": -0.6561904167,
				"element": "C" 
			},
			{
				"x": -1.3317250452,
				"y": -1.5904690075,
				"z": -0.8362137436,
				"element": "C" 
			},
			{
				"x": -0.4612653037,
				"y": -1.8658656774,
				"z": -1.891675948,
				"element": "C" 
			},
			{
				"x": -0.1032909434,
				"y": -0.8539417272,
				"z": -2.7817389854,
				"element": "C" 
			},
			{
				"x": -0.6063865719,
				"y": 0.43598105,
				"z": -2.6074141746,
				"element": "C" 
			},
			{
				"x": -2.7325275182,
				"y": -0.0431049879,
				"z": 0.4034463783,
				"element": "N" 
			},
			{
				"x": -2.6069428303,
				"y": -0.2104807107,
				"z": 1.7388350402,
				"element": "C" 
			},
			{
				"x": -3.7264201968,
				"y": 0.1544349613,
				"z": 2.3232112699,
				"element": "N" 
			},
			{
				"x": -4.5525323925,
				"y": 0.5570966577,
				"z": 1.3164684299,
				"element": "N" 
			},
			{
				"x": -3.9808297875,
				"y": 0.4513436984,
				"z": 0.1662811598,
				"element": "N" 
			},
			{
				"x": -2.4216948716,
				"y": 2.2757754642,
				"z": -3.0999139091,
				"element": "H" 
			},
			{
				"x": -1.6551701309,
				"y": -2.3773812689,
				"z": -0.1625575063,
				"element": "H" 
			},
			{
				"x": -0.0797337095,
				"y": -2.8731810831,
				"z": -2.0243864265,
				"element": "H" 
			},
			{
				"x": 0.5690704854,
				"y": -1.0644646986,
				"z": -3.6073242859,
				"element": "H" 
			},
			{
				"x": -0.3029822014,
				"y": 1.2295731761,
				"z": -3.2842519838,
				"element": "H" 
			},
			{
				"x": -1.7121157472,
				"y": -0.5698860112,
				"z": 2.2230531757,
				"element": "H" 
			}
		],
		 "valence_orbital": [ 
			{
				"type": "occ",
				"energy": -0.30403,
				"method": "rhf"
			},
			{
				"type": "occ",
				"energy": -0.29731,
				"method": "rhf"
			},
			{
				"type": "occ",
				"energy": -0.29556,
				"method": "rhf"
			},
			{
				"type": "occ",
				"energy": -0.28376,
				"method": "rhf"
			},
			{
				"type": "occ",
				"energy": -0.27497,
				"method": "rhf"
			},
			{
				"type": "unocc",
				"energy": -0.06873,
				"method": "rhf"
			},
			{
				"type": "unocc",
				"energy": -0.05375,
				"method": "rhf"
			},
			{
				"type": "unocc",
				"energy": -0.01541,
				"method": "rhf"
			},
			{
				"type": "unocc",
				"energy": 0.01499,
				"method": "rhf"
			},
			{
				"type": "unocc",
				"energy": 0.02107,
				"method": "rhf"
			}
		],
		"cosmo_sigma_profile": { 
			"-0.025": 0.0,
			"-0.024": 0.0,
			"-0.023": 0.0,
			"-0.022": 0.0,
			"-0.021": 0.0,
			"-0.02": 0.0,
			"-0.019": 0.584397050206,
			"-0.018": 1.40796945764,
			"-0.017": 0.479296308232,
			"-0.016": 0.586488207011,
			"-0.015": 1.1161437937,
			"-0.014": 1.29751099193,
			"-0.013": 1.70108634631,
			"-0.012": 3.50830729728,
			"-0.011": 3.23023467628,
			"-0.01": 2.85649928201,
			"-0.009": 4.58836389231,
			"-0.008": 10.3912116188,
			"-0.007": 12.580570571,
			"-0.006": 11.4728074679,
			"-0.005": 8.68229099248,
			"-0.004": 9.16752585971,
			"-0.003": 7.22987186495,
			"-0.002": 8.59243402851,
			"-0.001": 9.26141539379,
			"0.0": 13.5725901753,
			"0.001": 13.7133162527,
			"0.002": 11.3884658486,
			"0.003": 5.54461448114,
			"0.004": 5.50496405274,
			"0.005": 6.2265227931,
			"0.006": 6.21161254759,
			"0.007": 7.43628893305,
			"0.008": 8.25210937678,
			"0.009": 7.78110042992,
			"0.01": 10.3833750978,
			"0.011": 7.0233979108,
			"0.012": 4.86736281656,
			"0.013": 2.35183921049,
			"0.014": 1.28469987399,
			"0.015": 0.178335335428,
			"0.016": 0.0,
			"0.017": 0.0,
			"0.018": 0.0,
			"0.019": 0.0,
			"0.02": 0.0,
			"0.021": 0.0,
			"0.022": 0.0,
			"0.023": 0.0,
			"0.024": 0.0,
			"0.025": 0.0
		}
	}
}
