{
	 "smiles": "CC1=CC=C(OC(C)(C)C(O)=O)C2=C1CCC2", 
	 "Tm": 362.65, 
	 "num_atms": 35, 
	 "gaussian": { 
		 "optdone": 1, 
		 "sigma_profile": "yes", 
		 "theory": "DFT", 
		 "functional": "B3LYP", 
		 "basiset": "6-31G**", 
		 "properties": { 
			 "R2extent": 4657.7244, 
			 "electric_dipole_moment_norm": 2.2353273966, 
			 "electric_quadrupole_moment_norm": 10.2620572109, 
			 "total_energy": -770.034135493, 
			 "HOMO_LUMO_gap": 0.22273, 
			 "cosmo_polarized_energy": -11.19, 
			 "cosmo_cavitation_energy": 36.42, 
			 "cosmo_dispersion_energy": -25.19, 
			 "cosmo_repulsion_energy": 1.96, 
			 "cosmo_total_nonelectrostatic_energy": 13.18, 
			 "SMD_solvation_energy": 6.83 
		},
		"coords": [
			{
				"x": -3.591723292,
				"y": 2.7749866516,
				"z": 0.3354051657,
				"element": "C" 
			},
			{
				"x": -2.2635704631,
				"y": 2.0839868601,
				"z": 0.1414073851,
				"element": "C" 
			},
			{
				"x": -1.1617878031,
				"y": 2.7583917677,
				"z": -0.4025369986,
				"element": "C" 
			},
			{
				"x": 0.0717752468,
				"y": 2.128087949,
				"z": -0.5848715663,
				"element": "C" 
			},
			{
				"x": 0.2320783695,
				"y": 0.7807182096,
				"z": -0.2415798873,
				"element": "C" 
			},
			{
				"x": 1.4545434981,
				"y": 0.1394527213,
				"z": -0.3363709456,
				"element": "O" 
			},
			{
				"x": 1.9697780027,
				"y": -0.2750957146,
				"z": -1.6203704254,
				"element": "C" 
			},
			{
				"x": 2.7837180304,
				"y": 0.8481562479,
				"z": -2.2688685674,
				"element": "C" 
			},
			{
				"x": 0.8693955108,
				"y": -0.7912975748,
				"z": -2.5635786089,
				"element": "C" 
			},
			{
				"x": 2.9025056888,
				"y": -1.4594304493,
				"z": -1.3053678962,
				"element": "C" 
			},
			{
				"x": 2.3632073799,
				"y": -2.330942862,
				"z": -0.4268577987,
				"element": "O" 
			},
			{
				"x": 3.9823897129,
				"y": -1.6407328928,
				"z": -1.8242028291,
				"element": "O" 
			},
			{
				"x": -0.8490474869,
				"y": 0.0959556799,
				"z": 0.3175784805,
				"element": "C" 
			},
			{
				"x": -2.0743054229,
				"y": 0.7455962868,
				"z": 0.5111194551,
				"element": "C" 
			},
			{
				"x": -3.0754268106,
				"y": -0.2092867437,
				"z": 1.1313105544,
				"element": "C" 
			},
			{
				"x": -2.1841336746,
				"y": -1.354294903,
				"z": 1.6758344602,
				"element": "C" 
			},
			{
				"x": -0.9133376657,
				"y": -1.3391327078,
				"z": 0.7899570856,
				"element": "C" 
			},
			{
				"x": -3.5467302578,
				"y": 3.819044461,
				"z": 0.0133129006,
				"element": "H" 
			},
			{
				"x": -3.9033446212,
				"y": 2.7633765951,
				"z": 1.3869686399,
				"element": "H" 
			},
			{
				"x": -4.3893422401,
				"y": 2.2840473481,
				"z": -0.2355206545,
				"element": "H" 
			},
			{
				"x": -1.26392177,
				"y": 3.8056013357,
				"z": -0.6770388802,
				"element": "H" 
			},
			{
				"x": 0.9180714834,
				"y": 2.6884123255,
				"z": -0.9668242899,
				"element": "H" 
			},
			{
				"x": 2.120389879,
				"y": 1.6531142784,
				"z": -2.594142919,
				"element": "H" 
			},
			{
				"x": 3.331764999,
				"y": 0.4708348786,
				"z": -3.1344712087,
				"element": "H" 
			},
			{
				"x": 3.5063177338,
				"y": 1.2493293722,
				"z": -1.5541153013,
				"element": "H" 
			},
			{
				"x": 0.1738074527,
				"y": 0.0152210302,
				"z": -2.8080385445,
				"element": "H" 
			},
			{
				"x": 0.3127946194,
				"y": -1.6104510337,
				"z": -2.1031339356,
				"element": "H" 
			},
			{
				"x": 1.3200288863,
				"y": -1.1516670229,
				"z": -3.4929119758,
				"element": "H" 
			},
			{
				"x": 3.0138854057,
				"y": -3.0474931126,
				"z": -0.3358422587,
				"element": "H" 
			},
			{
				"x": -3.774801015,
				"y": -0.5800052254,
				"z": 0.3669840776,
				"element": "H" 
			},
			{
				"x": -3.6885431323,
				"y": 0.2552578286,
				"z": 1.9116170128,
				"element": "H" 
			},
			{
				"x": -1.9039690275,
				"y": -1.1287097895,
				"z": 2.7109420512,
				"element": "H" 
			},
			{
				"x": -2.6908389417,
				"y": -2.3236644082,
				"z": 1.6787916451,
				"element": "H" 
			},
			{
				"x": -1.0250569733,
				"y": -2.019586665,
				"z": -0.0664449027,
				"element": "H" 
			},
			{
				"x": -0.0078713014,
				"y": -1.653580722,
				"z": 1.3155614806,
				"element": "H" 
			}
		],
		 "valence_orbital": [ 
			{
				"type": "occ",
				"energy": -0.31436,
				"method": "rhf"
			},
			{
				"type": "occ",
				"energy": -0.27988,
				"method": "rhf"
			},
			{
				"type": "occ",
				"energy": -0.26361,
				"method": "rhf"
			},
			{
				"type": "occ",
				"energy": -0.22984,
				"method": "rhf"
			},
			{
				"type": "occ",
				"energy": -0.22144,
				"method": "rhf"
			},
			{
				"type": "unocc",
				"energy": 0.00129,
				"method": "rhf"
			},
			{
				"type": "unocc",
				"energy": 0.00541,
				"method": "rhf"
			},
			{
				"type": "unocc",
				"energy": 0.00953,
				"method": "rhf"
			},
			{
				"type": "unocc",
				"energy": 0.07166,
				"method": "rhf"
			},
			{
				"type": "unocc",
				"energy": 0.09376,
				"method": "rhf"
			}
		],
		"cosmo_sigma_profile": { 
			"-0.025": 0.0,
			"-0.024": 0.0,
			"-0.023": 0.0,
			"-0.022": 0.0,
			"-0.021": 0.0,
			"-0.02": 0.0,
			"-0.019": 0.07902715837,
			"-0.018": 0.935049424843,
			"-0.017": 0.727489384638,
			"-0.016": 1.19885396307,
			"-0.015": 0.309101688126,
			"-0.014": 0.756737570707,
			"-0.013": 0.515067547982,
			"-0.012": 1.07035233501,
			"-0.011": 0.942757898118,
			"-0.01": 0.55867915849,
			"-0.009": 0.536407306487,
			"-0.008": 0.445636414209,
			"-0.007": 1.10602089214,
			"-0.006": 2.05134727399,
			"-0.005": 7.40835117021,
			"-0.004": 21.2710310051,
			"-0.003": 34.4791210447,
			"-0.002": 36.1688728844,
			"-0.001": 39.1695825425,
			"0.0": 33.9881558738,
			"0.001": 22.4055188437,
			"0.002": 11.5083601501,
			"0.003": 10.5526139787,
			"0.004": 10.8395146021,
			"0.005": 12.4065918599,
			"0.006": 9.88581154181,
			"0.007": 4.50011011596,
			"0.008": 3.36824140504,
			"0.009": 2.75046643403,
			"0.01": 4.15909533777,
			"0.011": 5.94380433105,
			"0.012": 2.78606567897,
			"0.013": 0.0,
			"0.014": 0.0,
			"0.015": 0.0,
			"0.016": 0.0,
			"0.017": 0.0,
			"0.018": 0.0,
			"0.019": 0.0,
			"0.02": 0.0,
			"0.021": 0.0,
			"0.022": 0.0,
			"0.023": 0.0,
			"0.024": 0.0,
			"0.025": 0.0
		}
	}
}
