{
	 "smiles": "CCOC(=O)C1=C(Cl)C2=C(S1)C=C(Cl)C=C2", 
	 "Tm": 349.15, 
	 "num_atms": 24, 
	 "gaussian": { 
		 "optdone": 1, 
		 "sigma_profile": "yes", 
		 "theory": "DFT", 
		 "functional": "B3LYP", 
		 "basiset": "6-31G**", 
		 "properties": { 
			 "R2extent": 6603.9626, 
			 "electric_dipole_moment_norm": 1.49873124008, 
			 "electric_quadrupole_moment_norm": 17.359580162, 
			 "total_energy": -1893.02650675, 
			 "HOMO_LUMO_gap": 0.15992, 
			 "cosmo_polarized_energy": -8.22, 
			 "cosmo_cavitation_energy": 33.86, 
			 "cosmo_dispersion_energy": -25.33, 
			 "cosmo_repulsion_energy": 1.94, 
			 "cosmo_total_nonelectrostatic_energy": 10.47, 
			 "SMD_solvation_energy": 5.78 
		},
		"coords": [
			{
				"x": 3.8411097594,
				"y": 3.4420751889,
				"z": -2.5901420687,
				"element": "C" 
			},
			{
				"x": 3.5707334684,
				"y": 3.7052722651,
				"z": -1.1167185684,
				"element": "C" 
			},
			{
				"x": 2.4288856996,
				"y": 2.9466206337,
				"z": -0.6475104502,
				"element": "O" 
			},
			{
				"x": 2.6699552812,
				"y": 1.6766211484,
				"z": -0.2427594408,
				"element": "C" 
			},
			{
				"x": 3.7639082687,
				"y": 1.1518846801,
				"z": -0.2424729252,
				"element": "O" 
			},
			{
				"x": 1.4159391576,
				"y": 1.0341009312,
				"z": 0.1985849316,
				"element": "C" 
			},
			{
				"x": 1.2347205574,
				"y": -0.2384338277,
				"z": 0.6774256369,
				"element": "C" 
			},
			{
				"x": 2.4861731207,
				"y": -1.4189142159,
				"z": 0.87900035,
				"element": "Cl" 
			},
			{
				"x": -0.1291609316,
				"y": -0.5449298725,
				"z": 1.0182098329,
				"element": "C" 
			},
			{
				"x": -0.9795322915,
				"y": 0.5593442024,
				"z": 0.7741951922,
				"element": "C" 
			},
			{
				"x": -0.1008450707,
				"y": 1.9327868189,
				"z": 0.1407902934,
				"element": "S" 
			},
			{
				"x": -2.3537559104,
				"y": 0.4945466925,
				"z": 1.0311929582,
				"element": "C" 
			},
			{
				"x": -2.8557705128,
				"y": -0.6966719949,
				"z": 1.5363197009,
				"element": "C" 
			},
			{
				"x": -4.5732941125,
				"y": -0.8225090239,
				"z": 1.873365121,
				"element": "Cl" 
			},
			{
				"x": -2.032822768,
				"y": -1.8111354301,
				"z": 1.7886518366,
				"element": "C" 
			},
			{
				"x": -0.6745617223,
				"y": -1.7361202675,
				"z": 1.5307586526,
				"element": "C" 
			},
			{
				"x": 4.1318062828,
				"y": 2.4007137018,
				"z": -2.7481901549,
				"element": "H" 
			},
			{
				"x": 4.6595242336,
				"y": 4.0826700769,
				"z": -2.93508132,
				"element": "H" 
			},
			{
				"x": 2.9557697896,
				"y": 3.6600636772,
				"z": -3.1944035635,
				"element": "H" 
			},
			{
				"x": 4.4366629559,
				"y": 3.4475512478,
				"z": -0.5025712979,
				"element": "H" 
			},
			{
				"x": 3.2933597242,
				"y": 4.7463380644,
				"z": -0.9371810003,
				"element": "H" 
			},
			{
				"x": -3.0084998878,
				"y": 1.3382852856,
				"z": 0.8456870696,
				"element": "H" 
			},
			{
				"x": -2.4725220875,
				"y": -2.7195970669,
				"z": 2.1836278588,
				"element": "H" 
			},
			{
				"x": -0.0292830037,
				"y": -2.5871629154,
				"z": 1.7206213552,
				"element": "H" 
			}
		],
		 "valence_orbital": [ 
			{
				"type": "occ",
				"energy": -0.30686,
				"method": "rhf"
			},
			{
				"type": "occ",
				"energy": -0.28922,
				"method": "rhf"
			},
			{
				"type": "occ",
				"energy": -0.28011,
				"method": "rhf"
			},
			{
				"type": "occ",
				"energy": -0.25507,
				"method": "rhf"
			},
			{
				"type": "occ",
				"energy": -0.23479,
				"method": "rhf"
			},
			{
				"type": "unocc",
				"energy": -0.07487,
				"method": "rhf"
			},
			{
				"type": "unocc",
				"energy": -0.02709,
				"method": "rhf"
			},
			{
				"type": "unocc",
				"energy": -0.00595,
				"method": "rhf"
			},
			{
				"type": "unocc",
				"energy": 0.00077,
				"method": "rhf"
			},
			{
				"type": "unocc",
				"energy": 0.01693,
				"method": "rhf"
			}
		],
		"cosmo_sigma_profile": { 
			"-0.025": 0.0,
			"-0.024": 0.0,
			"-0.023": 0.0,
			"-0.022": 0.0,
			"-0.021": 0.0,
			"-0.02": 0.0,
			"-0.019": 0.0,
			"-0.018": 0.0,
			"-0.017": 0.0,
			"-0.016": 0.0,
			"-0.015": 0.0,
			"-0.014": 0.0,
			"-0.013": 0.0,
			"-0.012": 0.0,
			"-0.011": 0.0,
			"-0.01": 0.266818753949,
			"-0.009": 2.07423234009,
			"-0.008": 3.27914213162,
			"-0.007": 5.50567122624,
			"-0.006": 7.87282792963,
			"-0.005": 11.0311273435,
			"-0.004": 17.4143371517,
			"-0.003": 20.953412341,
			"-0.002": 24.1577118466,
			"-0.001": 30.5826933091,
			"0.0": 34.2151029352,
			"0.001": 34.2819405738,
			"0.002": 25.1103348785,
			"0.003": 21.7302141863,
			"0.004": 17.1079392122,
			"0.005": 6.48846531082,
			"0.006": 1.58951005633,
			"0.007": 2.28627187997,
			"0.008": 2.22888763539,
			"0.009": 1.37813436454,
			"0.01": 2.69225238761,
			"0.011": 4.15885622101,
			"0.012": 1.77652252092,
			"0.013": 0.0,
			"0.014": 0.0,
			"0.015": 0.0,
			"0.016": 0.0,
			"0.017": 0.0,
			"0.018": 0.0,
			"0.019": 0.0,
			"0.02": 0.0,
			"0.021": 0.0,
			"0.022": 0.0,
			"0.023": 0.0,
			"0.024": 0.0,
			"0.025": 0.0
		}
	}
}
