{
	 "smiles": "COC(=O)C1=CC=C(O1)[N+]([O-])=O", 
	 "Tm": 353.15, 
	 "num_atms": 17, 
	 "gaussian": { 
		 "optdone": 1, 
		 "sigma_profile": "yes", 
		 "theory": "DFT", 
		 "functional": "B3LYP", 
		 "basiset": "6-31G**", 
		 "properties": { 
			 "R2extent": 3034.3683, 
			 "electric_dipole_moment_norm": 3.24825639074, 
			 "electric_quadrupole_moment_norm": 22.9795341948, 
			 "total_energy": -662.387702947, 
			 "HOMO_LUMO_gap": 0.16971, 
			 "cosmo_polarized_energy": -12.03, 
			 "cosmo_cavitation_energy": 23.95, 
			 "cosmo_dispersion_energy": -17.33, 
			 "cosmo_repulsion_energy": 1.4, 
			 "cosmo_total_nonelectrostatic_energy": 8.03, 
			 "SMD_solvation_energy": 9.15 
		},
		"coords": [
			{
				"x": -1.5561763068,
				"y": -1.5976832518,
				"z": -1.175294902,
				"element": "C" 
			},
			{
				"x": -0.7085530031,
				"y": -0.7328068791,
				"z": -0.3964476017,
				"element": "O" 
			},
			{
				"x": -0.1982706162,
				"y": 0.3141202549,
				"z": -1.0601840478,
				"element": "C" 
			},
			{
				"x": -0.3955857992,
				"y": 0.5713685966,
				"z": -2.2309253691,
				"element": "O" 
			},
			{
				"x": 0.6595074534,
				"y": 1.1572553406,
				"z": -0.207484759,
				"element": "C" 
			},
			{
				"x": 1.3488821921,
				"y": 2.3017918267,
				"z": -0.5284201242,
				"element": "C" 
			},
			{
				"x": 2.0148233076,
				"y": 2.7144337173,
				"z": 0.6549215119,
				"element": "C" 
			},
			{
				"x": 1.6713298484,
				"y": 1.7813659928,
				"z": 1.5963565871,
				"element": "C" 
			},
			{
				"x": 0.8547681486,
				"y": 0.8313594923,
				"z": 1.1020451839,
				"element": "O" 
			},
			{
				"x": 2.0454776023,
				"y": 1.6805307582,
				"z": 2.9779187113,
				"element": "N" 
			},
			{
				"x": 2.7939762685,
				"y": 2.5699510443,
				"z": 3.3910629557,
				"element": "O" 
			},
			{
				"x": 1.6019575761,
				"y": 0.7382527487,
				"z": 3.6281488261,
				"element": "O" 
			},
			{
				"x": -2.4154592282,
				"y": -1.0435996108,
				"z": -1.5604036106,
				"element": "H" 
			},
			{
				"x": -1.0000595075,
				"y": -2.0216017077,
				"z": -2.0147690803,
				"element": "H" 
			},
			{
				"x": -1.8776225128,
				"y": -2.3810669097,
				"z": -0.4904774316,
				"element": "H" 
			},
			{
				"x": 1.3613689504,
				"y": 2.7710384712,
				"z": -1.5006449737,
				"element": "H" 
			},
			{
				"x": 2.6558356263,
				"y": 3.5675901155,
				"z": 0.811498124,
				"element": "H" 
			}
		],
		 "valence_orbital": [ 
			{
				"type": "occ",
				"energy": -0.32032,
				"method": "rhf"
			},
			{
				"type": "occ",
				"energy": -0.31597,
				"method": "rhf"
			},
			{
				"type": "occ",
				"energy": -0.30406,
				"method": "rhf"
			},
			{
				"type": "occ",
				"energy": -0.29963,
				"method": "rhf"
			},
			{
				"type": "occ",
				"energy": -0.2775,
				"method": "rhf"
			},
			{
				"type": "unocc",
				"energy": -0.10779,
				"method": "rhf"
			},
			{
				"type": "unocc",
				"energy": -0.04655,
				"method": "rhf"
			},
			{
				"type": "unocc",
				"energy": 0.03589,
				"method": "rhf"
			},
			{
				"type": "unocc",
				"energy": 0.07885,
				"method": "rhf"
			},
			{
				"type": "unocc",
				"energy": 0.08639,
				"method": "rhf"
			}
		],
		"cosmo_sigma_profile": { 
			"-0.025": 0.0,
			"-0.024": 0.0,
			"-0.023": 0.0,
			"-0.022": 0.0,
			"-0.021": 0.0,
			"-0.02": 0.0,
			"-0.019": 0.0,
			"-0.018": 0.0,
			"-0.017": 0.0,
			"-0.016": 0.0,
			"-0.015": 0.0,
			"-0.014": 0.0,
			"-0.013": 0.0,
			"-0.012": 0.0,
			"-0.011": 0.349969188137,
			"-0.01": 2.61617887583,
			"-0.009": 3.14457821102,
			"-0.008": 4.39458329824,
			"-0.007": 8.82850358612,
			"-0.006": 11.6425276625,
			"-0.005": 16.8465444121,
			"-0.004": 19.4429371722,
			"-0.003": 14.7031395136,
			"-0.002": 13.8082610644,
			"-0.001": 13.0627358635,
			"0.0": 7.38087901521,
			"0.001": 5.42485674419,
			"0.002": 5.50436720417,
			"0.003": 5.41968679763,
			"0.004": 4.96515170114,
			"0.005": 6.04366173751,
			"0.006": 8.26048097296,
			"0.007": 14.7110729718,
			"0.008": 11.0716659057,
			"0.009": 6.61553134529,
			"0.01": 3.70220933002,
			"0.011": 4.40305840357,
			"0.012": 0.3062638023,
			"0.013": 0.0,
			"0.014": 0.0,
			"0.015": 0.0,
			"0.016": 0.0,
			"0.017": 0.0,
			"0.018": 0.0,
			"0.019": 0.0,
			"0.02": 0.0,
			"0.021": 0.0,
			"0.022": 0.0,
			"0.023": 0.0,
			"0.024": 0.0,
			"0.025": 0.0
		}
	}
}
