{
	 "smiles": "NC1=C2C3=C(CCCC3)SC2=NC=N1", 
	 "Tm": 513.15, 
	 "num_atms": 25, 
	 "gaussian": { 
		 "optdone": 1, 
		 "sigma_profile": "yes", 
		 "theory": "DFT", 
		 "functional": "B3LYP", 
		 "basiset": "6-31G**", 
		 "properties": { 
			 "R2extent": 3630.7327, 
			 "electric_dipole_moment_norm": 4.89964923336, 
			 "electric_quadrupole_moment_norm": 10.0765158458, 
			 "total_energy": -950.163959452, 
			 "HOMO_LUMO_gap": 0.18379, 
			 "cosmo_polarized_energy": -12.06, 
			 "cosmo_cavitation_energy": 28.26, 
			 "cosmo_dispersion_energy": -22.15, 
			 "cosmo_repulsion_energy": 1.68, 
			 "cosmo_total_nonelectrostatic_energy": 7.78, 
			 "SMD_solvation_energy": 0.32 
		},
		"coords": [
			{
				"x": 3.517538499,
				"y": -0.5841547159,
				"z": -2.2964366573,
				"element": "N" 
			},
			{
				"x": 3.3038935596,
				"y": 0.0527696771,
				"z": -1.0998722081,
				"element": "C" 
			},
			{
				"x": 2.0397521704,
				"y": 0.0867875813,
				"z": -0.4519515044,
				"element": "C" 
			},
			{
				"x": 0.7420982883,
				"y": -0.4650266704,
				"z": -0.7813289485,
				"element": "C" 
			},
			{
				"x": -0.1897751771,
				"y": -0.1917000556,
				"z": 0.1796704879,
				"element": "C" 
			},
			{
				"x": -1.6309741068,
				"y": -0.6215917637,
				"z": 0.1478069402,
				"element": "C" 
			},
			{
				"x": -1.8401786666,
				"y": -1.7219130966,
				"z": -0.9072191298,
				"element": "C" 
			},
			{
				"x": -1.1340204774,
				"y": -1.3630604725,
				"z": -2.2209142292,
				"element": "C" 
			},
			{
				"x": 0.3885382315,
				"y": -1.2452044434,
				"z": -2.0290632311,
				"element": "C" 
			},
			{
				"x": 0.4499371725,
				"y": 0.7617538928,
				"z": 1.5149612275,
				"element": "S" 
			},
			{
				"x": 2.0365825356,
				"y": 0.797172484,
				"z": 0.7648712566,
				"element": "C" 
			},
			{
				"x": 3.0803251438,
				"y": 1.4312053369,
				"z": 1.3090958047,
				"element": "N" 
			},
			{
				"x": 4.1922784837,
				"y": 1.3392058444,
				"z": 0.581405193,
				"element": "C" 
			},
			{
				"x": 4.3630416764,
				"y": 0.6866800866,
				"z": -0.5754657961,
				"element": "N" 
			},
			{
				"x": 2.9182687399,
				"y": -1.3501561285,
				"z": -2.5566732284,
				"element": "H" 
			},
			{
				"x": 4.491702575,
				"y": -0.6708216766,
				"z": -2.5501350996,
				"element": "H" 
			},
			{
				"x": -2.2707585695,
				"y": 0.2427130949,
				"z": -0.0824956049,
				"element": "H" 
			},
			{
				"x": -1.9468524138,
				"y": -0.9776730004,
				"z": 1.1358993043,
				"element": "H" 
			},
			{
				"x": -2.9120432407,
				"y": -1.8723033849,
				"z": -1.0756713882,
				"element": "H" 
			},
			{
				"x": -1.4414619544,
				"y": -2.6712029557,
				"z": -0.526481045,
				"element": "H" 
			},
			{
				"x": -1.3515121393,
				"y": -2.1104446014,
				"z": -2.9917358841,
				"element": "H" 
			},
			{
				"x": -1.524678777,
				"y": -0.4056113404,
				"z": -2.5892391589,
				"element": "H" 
			},
			{
				"x": 0.8296837676,
				"y": -0.7631470168,
				"z": -2.9099299781,
				"element": "H" 
			},
			{
				"x": 0.8251813136,
				"y": -2.255359106,
				"z": -1.9722901195,
				"element": "H" 
			},
			{
				"x": 5.0712333658,
				"y": 1.8458824306,
				"z": 0.9751929972,
				"element": "H" 
			}
		],
		 "valence_orbital": [ 
			{
				"type": "occ",
				"energy": -0.28953,
				"method": "rhf"
			},
			{
				"type": "occ",
				"energy": -0.26537,
				"method": "rhf"
			},
			{
				"type": "occ",
				"energy": -0.25121,
				"method": "rhf"
			},
			{
				"type": "occ",
				"energy": -0.24824,
				"method": "rhf"
			},
			{
				"type": "occ",
				"energy": -0.20848,
				"method": "rhf"
			},
			{
				"type": "unocc",
				"energy": -0.02469,
				"method": "rhf"
			},
			{
				"type": "unocc",
				"energy": -0.00884,
				"method": "rhf"
			},
			{
				"type": "unocc",
				"energy": 0.0239,
				"method": "rhf"
			},
			{
				"type": "unocc",
				"energy": 0.03753,
				"method": "rhf"
			},
			{
				"type": "unocc",
				"energy": 0.0723,
				"method": "rhf"
			}
		],
		"cosmo_sigma_profile": { 
			"-0.025": 0.0,
			"-0.024": 0.0,
			"-0.023": 0.0,
			"-0.022": 0.0,
			"-0.021": 0.0,
			"-0.02": 0.0,
			"-0.019": 0.0,
			"-0.018": 0.0,
			"-0.017": 0.0,
			"-0.016": 0.0,
			"-0.015": 0.0,
			"-0.014": 0.113499176937,
			"-0.013": 1.79830655822,
			"-0.012": 1.57257868123,
			"-0.011": 2.60462813792,
			"-0.01": 3.37106078995,
			"-0.009": 2.09688523221,
			"-0.008": 1.95155975683,
			"-0.007": 3.16273315451,
			"-0.006": 4.83718665188,
			"-0.005": 5.03657524337,
			"-0.004": 12.8566213796,
			"-0.003": 22.1321640823,
			"-0.002": 26.2772897646,
			"-0.001": 24.8734140645,
			"0.0": 20.6794456446,
			"0.001": 17.4525626501,
			"0.002": 17.5349309584,
			"0.003": 15.7317019024,
			"0.004": 10.7749284433,
			"0.005": 6.88750800608,
			"0.006": 3.81030350147,
			"0.007": 3.09110261641,
			"0.008": 3.56647301369,
			"0.009": 2.32662417572,
			"0.01": 2.59867896502,
			"0.011": 1.97705701808,
			"0.012": 1.60022547155,
			"0.013": 1.65610810474,
			"0.014": 1.83392477388,
			"0.015": 1.45719196372,
			"0.016": 0.144106627753,
			"0.017": 0.0,
			"0.018": 0.0,
			"0.019": 0.0,
			"0.02": 0.0,
			"0.021": 0.0,
			"0.022": 0.0,
			"0.023": 0.0,
			"0.024": 0.0,
			"0.025": 0.0
		}
	}
}
