{
	 "smiles": "ClC1=CC(NC(=O)CC(=O)NC2=C(Cl)C=CC(Cl)=C2)=C(Cl)C=C1", 
	 "Tm": 500.15, 
	 "num_atms": 33, 
	 "gaussian": { 
		 "optdone": 1, 
		 "sigma_profile": "yes", 
		 "theory": "DFT", 
		 "functional": "B3LYP", 
		 "basiset": "6-31G**", 
		 "properties": { 
			 "R2extent": 10872.1034, 
			 "electric_dipole_moment_norm": 4.3844078152, 
			 "electric_quadrupole_moment_norm": 14.0055519188, 
			 "total_energy": -2678.36290822, 
			 "HOMO_LUMO_gap": 0.19808, 
			 "cosmo_polarized_energy": -19.92, 
			 "cosmo_cavitation_energy": 45.95, 
			 "cosmo_dispersion_energy": -29.87, 
			 "cosmo_repulsion_energy": 2.29, 
			 "cosmo_total_nonelectrostatic_energy": 18.37, 
			 "SMD_solvation_energy": 7.48 
		},
		"coords": [
			{
				"x": -1.3686489939,
				"y": 2.4897894276,
				"z": -2.5347895978,
				"element": "Cl" 
			},
			{
				"x": -1.8684653262,
				"y": 0.807469669,
				"z": -2.5317663399,
				"element": "C" 
			},
			{
				"x": -0.9795981321,
				"y": -0.1600701522,
				"z": -2.0710622282,
				"element": "C" 
			},
			{
				"x": -1.354557338,
				"y": -1.5110482202,
				"z": -2.0466724566,
				"element": "C" 
			},
			{
				"x": -0.4663516844,
				"y": -2.5043225851,
				"z": -1.5966123716,
				"element": "N" 
			},
			{
				"x": 0.186516986,
				"y": -2.6323520154,
				"z": -0.3794761577,
				"element": "C" 
			},
			{
				"x": 0.835679579,
				"y": -3.6354255439,
				"z": -0.143211044,
				"element": "O" 
			},
			{
				"x": 0.0977724782,
				"y": -1.4990287678,
				"z": 0.6428870237,
				"element": "C" 
			},
			{
				"x": -1.3223465116,
				"y": -1.3060625121,
				"z": 1.1650598239,
				"element": "C" 
			},
			{
				"x": -2.1859767121,
				"y": -2.1534714543,
				"z": 1.0112064533,
				"element": "O" 
			},
			{
				"x": -1.6365921142,
				"y": -0.1321939152,
				"z": 1.83580571,
				"element": "N" 
			},
			{
				"x": -0.894129794,
				"y": 1.0263930301,
				"z": 2.1089659156,
				"element": "C" 
			},
			{
				"x": -1.5227607296,
				"y": 2.2879159038,
				"z": 2.0531529974,
				"element": "C" 
			},
			{
				"x": -3.2195264376,
				"y": 2.399726628,
				"z": 1.617693804,
				"element": "Cl" 
			},
			{
				"x": -0.8255764013,
				"y": 3.4561435743,
				"z": 2.3454931379,
				"element": "C" 
			},
			{
				"x": 0.5226125519,
				"y": 3.4055843134,
				"z": 2.6943365871,
				"element": "C" 
			},
			{
				"x": 1.1445075023,
				"y": 2.1613910512,
				"z": 2.7690359985,
				"element": "C" 
			},
			{
				"x": 2.8309111859,
				"y": 2.0639583583,
				"z": 3.239864491,
				"element": "Cl" 
			},
			{
				"x": 0.4522449907,
				"y": 0.9827798576,
				"z": 2.5033209852,
				"element": "C" 
			},
			{
				"x": -2.6196133513,
				"y": -1.8576207533,
				"z": -2.5594287212,
				"element": "C" 
			},
			{
				"x": -3.1117539903,
				"y": -3.5374439102,
				"z": -2.605531692,
				"element": "Cl" 
			},
			{
				"x": -3.4897995437,
				"y": -0.88337994,
				"z": -3.0416825973,
				"element": "C" 
			},
			{
				"x": -3.1270182948,
				"y": 0.4622078167,
				"z": -3.0190361726,
				"element": "C" 
			},
			{
				"x": 0.0185515582,
				"y": 0.1265500016,
				"z": -1.7650985437,
				"element": "H" 
			},
			{
				"x": -0.511077305,
				"y": -3.3955108474,
				"z": -2.0780785126,
				"element": "H" 
			},
			{
				"x": 0.5127198977,
				"y": -0.5626614592,
				"z": 0.2617927292,
				"element": "H" 
			},
			{
				"x": 0.7395215054,
				"y": -1.828478483,
				"z": 1.4644211158,
				"element": "H" 
			},
			{
				"x": -2.6345404093,
				"y": -0.0703896191,
				"z": 2.0061957637,
				"element": "H" 
			},
			{
				"x": -1.3399936289,
				"y": 4.4087456857,
				"z": 2.2880392505,
				"element": "H" 
			},
			{
				"x": 1.0737630336,
				"y": 4.3129086179,
				"z": 2.9106187455,
				"element": "H" 
			},
			{
				"x": 0.951276799,
				"y": 0.0323381299,
				"z": 2.6319033185,
				"element": "H" 
			},
			{
				"x": -4.459484012,
				"y": -1.1808375902,
				"z": -3.4247056944,
				"element": "H" 
			},
			{
				"x": -3.8061673575,
				"y": 1.2245957035,
				"z": -3.3818417213,
				"element": "H" 
			}
		],
		 "valence_orbital": [ 
			{
				"type": "occ",
				"energy": -0.27048,
				"method": "rhf"
			},
			{
				"type": "occ",
				"energy": -0.26891,
				"method": "rhf"
			},
			{
				"type": "occ",
				"energy": -0.26305,
				"method": "rhf"
			},
			{
				"type": "occ",
				"energy": -0.24809,
				"method": "rhf"
			},
			{
				"type": "occ",
				"energy": -0.24339,
				"method": "rhf"
			},
			{
				"type": "unocc",
				"energy": -0.04531,
				"method": "rhf"
			},
			{
				"type": "unocc",
				"energy": -0.04144,
				"method": "rhf"
			},
			{
				"type": "unocc",
				"energy": -0.03803,
				"method": "rhf"
			},
			{
				"type": "unocc",
				"energy": -0.03437,
				"method": "rhf"
			},
			{
				"type": "unocc",
				"energy": -0.00013,
				"method": "rhf"
			}
		],
		"cosmo_sigma_profile": { 
			"-0.025": 0.0,
			"-0.024": 0.0,
			"-0.023": 0.0,
			"-0.022": 0.0,
			"-0.021": 0.0,
			"-0.02": 0.0,
			"-0.019": 0.0,
			"-0.018": 0.0,
			"-0.017": 0.0,
			"-0.016": 0.0,
			"-0.015": 0.0,
			"-0.014": 0.0702117231036,
			"-0.013": 0.732948505024,
			"-0.012": 2.05815457349,
			"-0.011": 4.44940027127,
			"-0.01": 5.51010811141,
			"-0.009": 6.80018401343,
			"-0.008": 13.3422397786,
			"-0.007": 14.0686645656,
			"-0.006": 13.3650616434,
			"-0.005": 14.4756871603,
			"-0.004": 12.7936129147,
			"-0.003": 16.2955706267,
			"-0.002": 20.8546652729,
			"-0.001": 27.4149914129,
			"0.0": 37.0022711082,
			"0.001": 46.084289571,
			"0.002": 37.6133859014,
			"0.003": 31.7207391393,
			"0.004": 29.9837901486,
			"0.005": 7.60371264205,
			"0.006": 5.54259417231,
			"0.007": 3.57586707748,
			"0.008": 3.04152319404,
			"0.009": 3.09470776131,
			"0.01": 3.37796927301,
			"0.011": 5.05698358058,
			"0.012": 8.62537255826,
			"0.013": 3.46038173969,
			"0.014": 0.116115175072,
			"0.015": 0.0,
			"0.016": 0.0,
			"0.017": 0.0,
			"0.018": 0.0,
			"0.019": 0.0,
			"0.02": 0.0,
			"0.021": 0.0,
			"0.022": 0.0,
			"0.023": 0.0,
			"0.024": 0.0,
			"0.0": 0.0
		}
	}
}
