{
	 "smiles": "CCC1=C(O)N=C(S)N(C2=CC(OC)=CC=C2)C1=O", 
	 "Tm": 415.15, 
	 "num_atms": 33, 
	 "gaussian": { 
		 "optdone": 1, 
		 "sigma_profile": "yes", 
		 "theory": "DFT", 
		 "functional": "B3LYP", 
		 "basiset": "6-31G**", 
		 "properties": { 
			 "R2extent": 6425.6617, 
			 "electric_dipole_moment_norm": 4.63828130885, 
			 "electric_quadrupole_moment_norm": 22.5185288125, 
			 "total_energy": -1237.18585955, 
			 "HOMO_LUMO_gap": 0.18317, 
			 "cosmo_polarized_energy": -17.02, 
			 "cosmo_cavitation_energy": 38.81, 
			 "cosmo_dispersion_energy": -27.41, 
			 "cosmo_repulsion_energy": 2.1, 
			 "cosmo_total_nonelectrostatic_energy": 13.5, 
			 "SMD_solvation_energy": 6.66 
		},
		"coords": [
			{
				"x": -3.5871185496,
				"y": 1.6260423552,
				"z": -2.9388890973,
				"element": "C" 
			},
			{
				"x": -2.2784708823,
				"y": 2.4362653491,
				"z": -2.9517721406,
				"element": "C" 
			},
			{
				"x": -1.0951661895,
				"y": 1.6585205805,
				"z": -2.4345477429,
				"element": "C" 
			},
			{
				"x": -0.1697907051,
				"y": 1.0450891327,
				"z": -3.2428025225,
				"element": "C" 
			},
			{
				"x": -0.2798204691,
				"y": 1.1251778327,
				"z": -4.5859185863,
				"element": "O" 
			},
			{
				"x": 0.9054797722,
				"y": 0.3296153242,
				"z": -2.8065227261,
				"element": "N" 
			},
			{
				"x": 1.0740189457,
				"y": 0.2058461784,
				"z": -1.5201232818,
				"element": "C" 
			},
			{
				"x": 2.5105401056,
				"y": -0.7404749372,
				"z": -1.0641756097,
				"element": "S" 
			},
			{
				"x": 0.2299732945,
				"y": 0.7526372241,
				"z": -0.5950465795,
				"element": "N" 
			},
			{
				"x": 0.4226192392,
				"y": 0.6150054776,
				"z": 0.8292207053,
				"element": "C" 
			},
			{
				"x": -0.1451548309,
				"y": -0.4690765628,
				"z": 1.4881735303,
				"element": "C" 
			},
			{
				"x": 0.0264065047,
				"y": -0.6052970894,
				"z": 2.8740950633,
				"element": "C" 
			},
			{
				"x": -0.5610901633,
				"y": -1.6996468161,
				"z": 3.4301509971,
				"element": "O" 
			},
			{
				"x": -0.4586393921,
				"y": -1.8803514217,
				"z": 4.8354202535,
				"element": "C" 
			},
			{
				"x": 0.7658350903,
				"y": 0.3518202884,
				"z": 3.5807017464,
				"element": "C" 
			},
			{
				"x": 1.3209312038,
				"y": 1.4374096136,
				"z": 2.8966478589,
				"element": "C" 
			},
			{
				"x": 1.156426894,
				"y": 1.5833644167,
				"z": 1.5226016269,
				"element": "C" 
			},
			{
				"x": -0.9360754083,
				"y": 1.5261071792,
				"z": -1.010657731,
				"element": "C" 
			},
			{
				"x": -1.6649354513,
				"y": 1.9929061519,
				"z": -0.1462193629,
				"element": "O" 
			},
			{
				"x": -3.8237456547,
				"y": 1.2991052429,
				"z": -1.9224517563,
				"element": "H" 
			},
			{
				"x": -4.4223960484,
				"y": 2.2333896408,
				"z": -3.3037123912,
				"element": "H" 
			},
			{
				"x": -3.5074865811,
				"y": 0.7404477527,
				"z": -3.5777434777,
				"element": "H" 
			},
			{
				"x": -2.0642438157,
				"y": 2.7798288289,
				"z": -3.9679113582,
				"element": "H" 
			},
			{
				"x": -2.4053613032,
				"y": 3.3226630225,
				"z": -2.3208564201,
				"element": "H" 
			},
			{
				"x": 0.4770195161,
				"y": 0.6392599755,
				"z": -4.9488455667,
				"element": "H" 
			},
			{
				"x": 2.3447285196,
				"y": -0.6682172508,
				"z": 0.2692853844,
				"element": "H" 
			},
			{
				"x": -0.7283871532,
				"y": -1.2080111052,
				"z": 0.9504655096,
				"element": "H" 
			},
			{
				"x": -0.9093403085,
				"y": -1.0434927512,
				"z": 5.3833681125,
				"element": "H" 
			},
			{
				"x": -1.0082974254,
				"y": -2.7951331625,
				"z": 5.0604553342,
				"element": "H" 
			},
			{
				"x": 0.5851682285,
				"y": -1.9994310833,
				"z": 5.1529477781,
				"element": "H" 
			},
			{
				"x": 0.9090626037,
				"y": 0.2655066153,
				"z": 4.6509083811,
				"element": "H" 
			},
			{
				"x": 1.8866257516,
				"y": 2.1793138764,
				"z": 3.4519761934,
				"element": "H" 
			},
			{
				"x": 1.576084662,
				"y": 2.4292101209,
				"z": 0.9897778758,
				"element": "H" 
			}
		],
		 "valence_orbital": [ 
			{
				"type": "occ",
				"energy": -0.27623,
				"method": "rhf"
			},
			{
				"type": "occ",
				"energy": -0.2676,
				"method": "rhf"
			},
			{
				"type": "occ",
				"energy": -0.2526,
				"method": "rhf"
			},
			{
				"type": "occ",
				"energy": -0.23649,
				"method": "rhf"
			},
			{
				"type": "occ",
				"energy": -0.21318,
				"method": "rhf"
			},
			{
				"type": "unocc",
				"energy": -0.03001,
				"method": "rhf"
			},
			{
				"type": "unocc",
				"energy": -0.025,
				"method": "rhf"
			},
			{
				"type": "unocc",
				"energy": -0.00801,
				"method": "rhf"
			},
			{
				"type": "unocc",
				"energy": 0.01095,
				"method": "rhf"
			},
			{
				"type": "unocc",
				"energy": 0.01222,
				"method": "rhf"
			}
		],
		"cosmo_sigma_profile": { 
			"-0.025": 0.0,
			"-0.024": 0.0,
			"-0.023": 0.0,
			"-0.022": 0.0,
			"-0.021": 0.0,
			"-0.02": 0.0,
			"-0.019": 0.0,
			"-0.018": 0.179357430214,
			"-0.017": 0.71654767458,
			"-0.016": 0.695689617499,
			"-0.015": 1.07355537561,
			"-0.014": 0.312997423409,
			"-0.013": 0.645557449853,
			"-0.012": 1.01449973056,
			"-0.011": 1.11729875865,
			"-0.01": 1.77309148181,
			"-0.009": 1.43633538564,
			"-0.008": 1.91912602585,
			"-0.007": 8.06274500387,
			"-0.006": 17.8889401877,
			"-0.005": 21.2302133482,
			"-0.004": 20.6757877374,
			"-0.003": 24.1735845135,
			"-0.002": 22.1313019225,
			"-0.001": 23.3031315627,
			"0.0": 26.8173021235,
			"0.001": 29.5250462654,
			"0.002": 21.2494213988,
			"0.003": 16.5916098395,
			"0.004": 15.0466527686,
			"0.005": 11.3265526769,
			"0.006": 8.92778474625,
			"0.007": 6.36082994918,
			"0.008": 5.27881782913,
			"0.009": 6.58107807359,
			"0.01": 3.71641446817,
			"0.011": 1.76474175882,
			"0.012": 2.22507342735,
			"0.013": 4.74337831844,
			"0.014": 2.46160158187,
			"0.015": 0.0,
			"0.016": 0.0,
			"0.017": 0.0,
			"0.018": 0.0,
			"0.019": 0.0,
			"0.02": 0.0,
			"0.021": 0.0,
			"0.022": 0.0,
			"0.023": 0.0,
			"0.024": 0.0,
			"0.025": 0.0
		}
	}
}
