{
	 "smiles": "CC1=CC=C(Cl)C(N)=C1", 
	 "Tm": 303.95, 
	 "num_atms": 17, 
	 "gaussian": { 
		 "optdone": 1, 
		 "sigma_profile": "yes", 
		 "theory": "DFT", 
		 "functional": "B3LYP", 
		 "basiset": "6-31G**", 
		 "properties": { 
			 "R2extent": 1792.8694, 
			 "electric_dipole_moment_norm": 2.21608764041, 
			 "electric_quadrupole_moment_norm": 7.92009881693, 
			 "total_energy": -786.522795508, 
			 "HOMO_LUMO_gap": 0.20304, 
			 "cosmo_polarized_energy": -7.15, 
			 "cosmo_cavitation_energy": 22.02, 
			 "cosmo_dispersion_energy": -16.68, 
			 "cosmo_repulsion_energy": 1.37, 
			 "cosmo_total_nonelectrostatic_energy": 6.71, 
			 "SMD_solvation_energy": 3.51 
		},
		"coords": [
			{
				"x": 0.575986734,
				"y": -2.7055050181,
				"z": -0.1880114201,
				"element": "C" 
			},
			{
				"x": 0.5471602281,
				"y": -1.2023766293,
				"z": -0.3395664504,
				"element": "C" 
			},
			{
				"x": 0.1826261194,
				"y": -0.6136570233,
				"z": -1.5593552095,
				"element": "C" 
			},
			{
				"x": 0.132557621,
				"y": 0.772629777,
				"z": -1.680435354,
				"element": "C" 
			},
			{
				"x": 0.4450665665,
				"y": 1.5798813653,
				"z": -0.5910081735,
				"element": "C" 
			},
			{
				"x": 0.3929028101,
				"y": 3.3365247923,
				"z": -0.7727527547,
				"element": "Cl" 
			},
			{
				"x": 0.8151725058,
				"y": 1.0292065093,
				"z": 0.649450453,
				"element": "C" 
			},
			{
				"x": 1.0774451838,
				"y": 1.8223803414,
				"z": 1.7568773116,
				"element": "N" 
			},
			{
				"x": 0.8595681038,
				"y": -0.3750672793,
				"z": 0.7390339295,
				"element": "C" 
			},
			{
				"x": -0.4300737878,
				"y": -3.1034898508,
				"z": -0.0061056707,
				"element": "H" 
			},
			{
				"x": 1.2064055058,
				"y": -3.0138681771,
				"z": 0.6509892796,
				"element": "H" 
			},
			{
				"x": 0.9558836953,
				"y": -3.189946137,
				"z": -1.0930176196,
				"element": "H" 
			},
			{
				"x": -0.0598830701,
				"y": -1.2368515316,
				"z": -2.4151323599,
				"element": "H" 
			},
			{
				"x": -0.1417383156,
				"y": 1.2377482375,
				"z": -2.621344842,
				"element": "H" 
			},
			{
				"x": 1.6548515954,
				"y": 1.397501929,
				"z": 2.4677339403,
				"element": "H" 
			},
			{
				"x": 1.3246272993,
				"y": 2.781863815,
				"z": 1.5591791416,
				"element": "H" 
			},
			{
				"x": 1.1426412053,
				"y": -0.8196751202,
				"z": 1.6909657987,
				"element": "H" 
			}
		],
		 "valence_orbital": [ 
			{
				"type": "occ",
				"energy": -0.32916,
				"method": "rhf"
			},
			{
				"type": "occ",
				"energy": -0.31102,
				"method": "rhf"
			},
			{
				"type": "occ",
				"energy": -0.30585,
				"method": "rhf"
			},
			{
				"type": "occ",
				"energy": -0.2373,
				"method": "rhf"
			},
			{
				"type": "occ",
				"energy": -0.20431,
				"method": "rhf"
			},
			{
				"type": "unocc",
				"energy": -0.00127,
				"method": "rhf"
			},
			{
				"type": "unocc",
				"energy": 0.01186,
				"method": "rhf"
			},
			{
				"type": "unocc",
				"energy": 0.0351,
				"method": "rhf"
			},
			{
				"type": "unocc",
				"energy": 0.08617,
				"method": "rhf"
			},
			{
				"type": "unocc",
				"energy": 0.11287,
				"method": "rhf"
			}
		],
		"cosmo_sigma_profile": { 
			"-0.025": 0.0,
			"-0.024": 0.0,
			"-0.023": 0.0,
			"-0.022": 0.0,
			"-0.021": 0.0,
			"-0.02": 0.0,
			"-0.019": 0.0,
			"-0.018": 0.0,
			"-0.017": 0.0,
			"-0.016": 0.0,
			"-0.015": 0.0,
			"-0.014": 0.0,
			"-0.013": 0.769049177896,
			"-0.012": 1.59630885747,
			"-0.011": 2.07153940402,
			"-0.01": 2.61040475858,
			"-0.009": 3.09809656026,
			"-0.008": 1.79097365988,
			"-0.007": 2.38583458352,
			"-0.006": 4.66275224641,
			"-0.005": 8.11438255442,
			"-0.004": 12.6201172042,
			"-0.003": 12.2602874223,
			"-0.002": 12.4318880937,
			"-0.001": 12.9742201316,
			"0.0": 16.1451703269,
			"0.001": 12.5548869825,
			"0.002": 9.97413841617,
			"0.003": 14.0453655817,
			"0.004": 15.1361502683,
			"0.005": 17.3063352351,
			"0.006": 8.82043753822,
			"0.007": 0.836633147543,
			"0.008": 1.22977419418,
			"0.009": 0.556410423266,
			"0.01": 0.674815139763,
			"0.011": 0.733808900258,
			"0.012": 0.634582916772,
			"0.013": 0.542402020239,
			"0.014": 0.175734190843,
			"0.015": 0.0,
			"0.016": 0.0,
			"0.017": 0.0,
			"0.018": 0.0,
			"0.019": 0.0,
			"0.02": 0.0,
			"0.021": 0.0,
			"0.022": 0.0,
			"0.023": 0.0,
			"0.024": 0.0,
			"0.025": 0.0
		}
	}
}
