{
	 "smiles": "CC(C)C1=CC(=CC(=C1)C(C)C)C(C)C", 
	 "Tm": 265.95, 
	 "num_atms": 39, 
	 "gaussian": { 
		 "optdone": 1, 
		 "sigma_profile": "yes", 
		 "theory": "DFT", 
		 "functional": "B3LYP", 
		 "basiset": "6-31G**", 
		 "properties": { 
			 "R2extent": 4671.52, 
			 "electric_dipole_moment_norm": 0.0187077524037, 
			 "electric_quadrupole_moment_norm": 4.90221286666, 
			 "total_energy": -586.104561419, 
			 "HOMO_LUMO_gap": 0.23348, 
			 "cosmo_polarized_energy": -3.47, 
			 "cosmo_cavitation_energy": 39.14, 
			 "cosmo_dispersion_energy": -26.03, 
			 "cosmo_repulsion_energy": 2.13, 
			 "cosmo_total_nonelectrostatic_energy": 15.23, 
			 "SMD_solvation_energy": 6.86 
		},
		"coords": [
			{
				"x": -0.1112140097,
				"y": -2.8521144991,
				"z": -2.3073750979,
				"element": "C" 
			},
			{
				"x": 1.0962911023,
				"y": -1.8960387028,
				"z": -2.2842594243,
				"element": "C" 
			},
			{
				"x": 2.3194693717,
				"y": -2.5665694932,
				"z": -1.630891824,
				"element": "C" 
			},
			{
				"x": 0.7561201715,
				"y": -0.5656709377,
				"z": -1.622854682,
				"element": "C" 
			},
			{
				"x": 0.8199946254,
				"y": 0.6265938002,
				"z": -2.3551764377,
				"element": "C" 
			},
			{
				"x": 0.5149295813,
				"y": 1.8641248908,
				"z": -1.7789184555,
				"element": "C" 
			},
			{
				"x": 0.1368343199,
				"y": 1.8905972541,
				"z": -0.4298339337,
				"element": "C" 
			},
			{
				"x": 0.0610178604,
				"y": 0.7216588865,
				"z": 0.3349981037,
				"element": "C" 
			},
			{
				"x": 0.3744106704,
				"y": -0.4990657888,
				"z": -0.2779895123,
				"element": "C" 
			},
			{
				"x": -0.3540436327,
				"y": 0.7845139592,
				"z": 1.8003383092,
				"element": "C" 
			},
			{
				"x": 0.7675596306,
				"y": 0.2974270676,
				"z": 2.7370699786,
				"element": "C" 
			},
			{
				"x": -1.6634385673,
				"y": 0.0159854718,
				"z": 2.0602346583,
				"element": "C" 
			},
			{
				"x": 0.5948309164,
				"y": 3.1425011812,
				"z": -2.6043227015,
				"element": "C" 
			},
			{
				"x": 1.6538379716,
				"y": 4.1165081042,
				"z": -2.0542400874,
				"element": "C" 
			},
			{
				"x": -0.7768829353,
				"y": 3.8318987467,
				"z": -2.7305577596,
				"element": "C" 
			},
			{
				"x": 0.1365919543,
				"y": -3.777072725,
				"z": -2.8400121615,
				"element": "H" 
			},
			{
				"x": -0.4205702422,
				"y": -3.126230626,
				"z": -1.2927566044,
				"element": "H" 
			},
			{
				"x": -0.9710322279,
				"y": -2.3919915871,
				"z": -2.8042231812,
				"element": "H" 
			},
			{
				"x": 1.36080365,
				"y": -1.6769492092,
				"z": -3.3272388361,
				"element": "H" 
			},
			{
				"x": 3.1898759573,
				"y": -1.9032349336,
				"z": -1.6463437422,
				"element": "H" 
			},
			{
				"x": 2.1185801509,
				"y": -2.8276994598,
				"z": -0.5860280328,
				"element": "H" 
			},
			{
				"x": 2.5838763009,
				"y": -3.4896768796,
				"z": -2.1587337896,
				"element": "H" 
			},
			{
				"x": 1.1155613981,
				"y": 0.5887761182,
				"z": -3.402251037,
				"element": "H" 
			},
			{
				"x": -0.1055098696,
				"y": 2.8403980512,
				"z": 0.042254025,
				"element": "H" 
			},
			{
				"x": 0.3197234795,
				"y": -1.4153091716,
				"z": 0.304954665,
				"element": "H" 
			},
			{
				"x": -0.5417391504,
				"y": 1.8406158037,
				"z": 2.0353239045,
				"element": "H" 
			},
			{
				"x": 1.6891427893,
				"y": 0.8667243761,
				"z": 2.5807104858,
				"element": "H" 
			},
			{
				"x": 0.4716638953,
				"y": 0.4076257265,
				"z": 3.7863243572,
				"element": "H" 
			},
			{
				"x": 0.9967206328,
				"y": -0.7602391842,
				"z": 2.5663913376,
				"element": "H" 
			},
			{
				"x": -1.9758324084,
				"y": 0.12419342,
				"z": 3.1049038481,
				"element": "H" 
			},
			{
				"x": -1.5427462327,
				"y": -1.0542033293,
				"z": 1.8591909691,
				"element": "H" 
			},
			{
				"x": -2.4724036465,
				"y": 0.3849855422,
				"z": 1.4220468673,
				"element": "H" 
			},
			{
				"x": 0.9101193423,
				"y": 2.851930766,
				"z": -3.615249553,
				"element": "H" 
			},
			{
				"x": 1.3926251002,
				"y": 4.46001548,
				"z": -1.0472510684,
				"element": "H" 
			},
			{
				"x": 1.7374097641,
				"y": 5.0010756583,
				"z": -2.6954994762,
				"element": "H" 
			},
			{
				"x": 2.6380645944,
				"y": 3.6410310643,
				"z": -1.9986236987,
				"element": "H" 
			},
			{
				"x": -1.1463357336,
				"y": 4.1633875906,
				"z": -1.7538876674,
				"element": "H" 
			},
			{
				"x": -1.5231937551,
				"y": 3.1536126253,
				"z": -3.1557852499,
				"element": "H" 
			},
			{
				"x": -0.7094128196,
				"y": 4.7141849424,
				"z": -3.376837495,
				"element": "H" 
			}
		],
		 "valence_orbital": [ 
			{
				"type": "occ",
				"energy": -0.31729,
				"method": "rhf"
			},
			{
				"type": "occ",
				"energy": -0.30499,
				"method": "rhf"
			},
			{
				"type": "occ",
				"energy": -0.30219,
				"method": "rhf"
			},
			{
				"type": "occ",
				"energy": -0.22947,
				"method": "rhf"
			},
			{
				"type": "occ",
				"energy": -0.22722,
				"method": "rhf"
			},
			{
				"type": "unocc",
				"energy": 0.00626,
				"method": "rhf"
			},
			{
				"type": "unocc",
				"energy": 0.01113,
				"method": "rhf"
			},
			{
				"type": "unocc",
				"energy": 0.08279,
				"method": "rhf"
			},
			{
				"type": "unocc",
				"energy": 0.09747,
				"method": "rhf"
			},
			{
				"type": "unocc",
				"energy": 0.10338,
				"method": "rhf"
			}
		],
		"cosmo_sigma_profile": { 
			"-0.025": 0.0,
			"-0.024": 0.0,
			"-0.023": 0.0,
			"-0.022": 0.0,
			"-0.021": 0.0,
			"-0.02": 0.0,
			"-0.019": 0.0,
			"-0.018": 0.0,
			"-0.017": 0.0,
			"-0.016": 0.0,
			"-0.015": 0.0,
			"-0.014": 0.0,
			"-0.013": 0.0,
			"-0.012": 0.0,
			"-0.011": 0.0,
			"-0.01": 0.0,
			"-0.009": 0.0,
			"-0.008": 0.0,
			"-0.007": 0.0,
			"-0.006": 0.0,
			"-0.005": 0.203354759436,
			"-0.004": 11.1914443238,
			"-0.003": 33.1230716051,
			"-0.002": 45.9851877182,
			"-0.001": 46.3522543346,
			"0.0": 47.8059884454,
			"0.001": 53.9910576666,
			"0.002": 30.02897255,
			"0.003": 7.57826885899,
			"0.004": 7.73046397156,
			"0.005": 5.83032018662,
			"0.006": 5.95878985274,
			"0.007": 5.63947920157,
			"0.008": 1.27316409434,
			"0.009": 0.0,
			"0.01": 0.0,
			"0.011": 0.0,
			"0.012": 0.0,
			"0.013": 0.0,
			"0.014": 0.0,
			"0.015": 0.0,
			"0.016": 0.0,
			"0.017": 0.0,
			"0.018": 0.0,
			"0.019": 0.0,
			"0.02": 0.0,
			"0.021": 0.0,
			"0.022": 0.0,
			"0.023": 0.0,
			"0.024": 0.0,
			"0.025": 0.0
		}
	}
}
