{
	 "smiles": "CN1C(Cl)=C(C=O)C2=C1C=CC=C2", 
	 "Tm": 366.15, 
	 "num_atms": 21, 
	 "gaussian": { 
		 "optdone": 1, 
		 "sigma_profile": "yes", 
		 "theory": "DFT", 
		 "functional": "B3LYP", 
		 "basiset": "6-31G**", 
		 "properties": { 
			 "R2extent": 3617.0043, 
			 "electric_dipole_moment_norm": 5.06976590584, 
			 "electric_quadrupole_moment_norm": 18.554332223, 
			 "total_energy": -976.043626589, 
			 "HOMO_LUMO_gap": 0.17245, 
			 "cosmo_polarized_energy": -11.92, 
			 "cosmo_cavitation_energy": 26.76, 
			 "cosmo_dispersion_energy": -19.69, 
			 "cosmo_repulsion_energy": 1.52, 
			 "cosmo_total_nonelectrostatic_energy": 8.6, 
			 "SMD_solvation_energy": 5.24 
		},
		"coords": [
			{
				"x": -0.1886325604,
				"y": 3.5435965418,
				"z": 0.9945334395,
				"element": "C" 
			},
			{
				"x": 0.3388346767,
				"y": 2.3963034495,
				"z": 0.2721633413,
				"element": "N" 
			},
			{
				"x": -0.0305370526,
				"y": 2.0099185687,
				"z": -0.9904409654,
				"element": "C" 
			},
			{
				"x": -1.2119905244,
				"y": 2.9135867948,
				"z": -1.849423391,
				"element": "Cl" 
			},
			{
				"x": 0.6586436097,
				"y": 0.874892438,
				"z": -1.3928095153,
				"element": "C" 
			},
			{
				"x": 0.5445559928,
				"y": 0.165403209,
				"z": -2.6597948218,
				"element": "C" 
			},
			{
				"x": -0.192537379,
				"y": 0.4666543173,
				"z": -3.5853969072,
				"element": "O" 
			},
			{
				"x": 1.5240600691,
				"y": 0.5359129034,
				"z": -0.2837997645,
				"element": "C" 
			},
			{
				"x": 1.3028383558,
				"y": 1.4982212746,
				"z": 0.7340329615,
				"element": "C" 
			},
			{
				"x": 1.984104269,
				"y": 1.4651282925,
				"z": 1.9544473894,
				"element": "C" 
			},
			{
				"x": 2.9047036034,
				"y": 0.4405689984,
				"z": 2.1474726965,
				"element": "C" 
			},
			{
				"x": 3.1398067308,
				"y": -0.5251633131,
				"z": 1.150463967,
				"element": "C" 
			},
			{
				"x": 2.4599247147,
				"y": -0.487624325,
				"z": -0.0607751315,
				"element": "C" 
			},
			{
				"x": 0.0137302731,
				"y": 4.4705369003,
				"z": 0.4510564317,
				"element": "H" 
			},
			{
				"x": 0.2939915396,
				"y": 3.5947060965,
				"z": 1.9692855582,
				"element": "H" 
			},
			{
				"x": -1.2681676186,
				"y": 3.4478060317,
				"z": 1.1393618325,
				"element": "H" 
			},
			{
				"x": 1.2107662452,
				"y": -0.7219708994,
				"z": -2.7371601669,
				"element": "H" 
			},
			{
				"x": 1.8106646043,
				"y": 2.2043417392,
				"z": 2.7297836031,
				"element": "H" 
			},
			{
				"x": 3.4506584435,
				"y": 0.3863823608,
				"z": 3.0843318665,
				"element": "H" 
			},
			{
				"x": 3.8653848831,
				"y": -1.3119541328,
				"z": 1.3333577396,
				"element": "H" 
			},
			{
				"x": 2.6513971242,
				"y": -1.2389472461,
				"z": -0.820490163,
				"element": "H" 
			}
		],
		 "valence_orbital": [ 
			{
				"type": "occ",
				"energy": -0.32816,
				"method": "rhf"
			},
			{
				"type": "occ",
				"energy": -0.28667,
				"method": "rhf"
			},
			{
				"type": "occ",
				"energy": -0.23938,
				"method": "rhf"
			},
			{
				"type": "occ",
				"energy": -0.23554,
				"method": "rhf"
			},
			{
				"type": "occ",
				"energy": -0.21903,
				"method": "rhf"
			},
			{
				"type": "unocc",
				"energy": -0.04658,
				"method": "rhf"
			},
			{
				"type": "unocc",
				"energy": -0.01239,
				"method": "rhf"
			},
			{
				"type": "unocc",
				"energy": 0.0109,
				"method": "rhf"
			},
			{
				"type": "unocc",
				"energy": 0.03007,
				"method": "rhf"
			},
			{
				"type": "unocc",
				"energy": 0.07666,
				"method": "rhf"
			}
		],
		"cosmo_sigma_profile": { 
			"-0.025": 0.0,
			"-0.024": 0.0,
			"-0.023": 0.0,
			"-0.022": 0.0,
			"-0.021": 0.0,
			"-0.02": 0.0,
			"-0.019": 0.0,
			"-0.018": 0.0,
			"-0.017": 0.0,
			"-0.016": 0.0,
			"-0.015": 0.0,
			"-0.014": 0.0,
			"-0.013": 0.0,
			"-0.012": 0.0,
			"-0.011": 0.0,
			"-0.01": 0.221649901344,
			"-0.009": 1.69511779621,
			"-0.008": 2.29165108746,
			"-0.007": 6.6434064134,
			"-0.006": 14.1470984487,
			"-0.005": 18.124784441,
			"-0.004": 21.05662304,
			"-0.003": 17.4003326503,
			"-0.002": 13.172976124,
			"-0.001": 13.8261387205,
			"0.0": 14.5232233434,
			"0.001": 17.4085672938,
			"0.002": 15.0149890266,
			"0.003": 13.6242706132,
			"0.004": 11.5389005167,
			"0.005": 10.9197531228,
			"0.006": 5.9902369801,
			"0.007": 1.33295542649,
			"0.008": 2.25258112304,
			"0.009": 2.35891555051,
			"0.01": 1.72209515421,
			"0.011": 3.2874256396,
			"0.012": 4.79280582086,
			"0.013": 2.90797051268,
			"0.014": 0.872480366138,
			"0.015": 0.0,
			"0.016": 0.0,
			"0.017": 0.0,
			"0.018": 0.0,
			"0.019": 0.0,
			"0.02": 0.0,
			"0.021": 0.0,
			"0.022": 0.0,
			"0.023": 0.0,
			"0.024": 0.0,
			"0.025": 0.0
		}
	}
}
