{
	 "smiles": "CC(OC1=CC=C(C=C1)C1=CC=CC=C1)C(O)=O", 
	 "Tm": 433.15, 
	 "num_atms": 32, 
	 "gaussian": { 
		 "optdone": 1, 
		 "sigma_profile": "yes", 
		 "theory": "DFT", 
		 "functional": "B3LYP", 
		 "basiset": "6-31G**", 
		 "properties": { 
			 "R2extent": 7591.013, 
			 "electric_dipole_moment_norm": 2.46899016401, 
			 "electric_quadrupole_moment_norm": 15.845179603, 
			 "total_energy": -805.714211678, 
			 "HOMO_LUMO_gap": 0.19088, 
			 "cosmo_polarized_energy": -12.86, 
			 "cosmo_cavitation_energy": 36.14, 
			 "cosmo_dispersion_energy": -25.81, 
			 "cosmo_repulsion_energy": 1.99, 
			 "cosmo_total_nonelectrostatic_energy": 12.33, 
			 "SMD_solvation_energy": 7.16 
		},
		"coords": [
			{
				"x": 0.0775114558,
				"y": 1.6466016009,
				"z": -2.7730710836,
				"element": "C" 
			},
			{
				"x": -0.1216790158,
				"y": 0.4922896839,
				"z": -3.7636970217,
				"element": "C" 
			},
			{
				"x": 0.3584940148,
				"y": -0.7692033141,
				"z": -3.3159837875,
				"element": "O" 
			},
			{
				"x": 0.2732475777,
				"y": -1.1378027815,
				"z": -1.9849275089,
				"element": "C" 
			},
			{
				"x": 1.4722256117,
				"y": -1.458504823,
				"z": -1.3420397367,
				"element": "C" 
			},
			{
				"x": 1.461287649,
				"y": -1.9048501635,
				"z": -0.0233858751,
				"element": "C" 
			},
			{
				"x": 0.2581252412,
				"y": -2.0308620082,
				"z": 0.6917022805,
				"element": "C" 
			},
			{
				"x": -0.9346748257,
				"y": -1.7066238721,
				"z": 0.0236853226,
				"element": "C" 
			},
			{
				"x": -0.9390981424,
				"y": -1.2731992946,
				"z": -1.3011775839,
				"element": "C" 
			},
			{
				"x": 0.2479914283,
				"y": -2.4971537007,
				"z": 2.1015930747,
				"element": "C" 
			},
			{
				"x": 1.2540272611,
				"y": -2.1028782689,
				"z": 3.0007133853,
				"element": "C" 
			},
			{
				"x": 1.2463407326,
				"y": -2.5411589744,
				"z": 4.3242319855,
				"element": "C" 
			},
			{
				"x": 0.2298022872,
				"y": -3.3820595367,
				"z": 4.7811918367,
				"element": "C" 
			},
			{
				"x": -0.7774371144,
				"y": -3.7814449574,
				"z": 3.9006539985,
				"element": "C" 
			},
			{
				"x": -0.7673376682,
				"y": -3.3454816094,
				"z": 2.5763987661,
				"element": "C" 
			},
			{
				"x": -1.5756278736,
				"y": 0.4137411665,
				"z": -4.2406854911,
				"element": "C" 
			},
			{
				"x": -1.8622037253,
				"y": 1.4789584561,
				"z": -5.0287872708,
				"element": "O" 
			},
			{
				"x": -2.3856273581,
				"y": -0.4462193229,
				"z": -3.983913956,
				"element": "O" 
			},
			{
				"x": 1.1283874736,
				"y": 1.6969068363,
				"z": -2.4769103361,
				"element": "H" 
			},
			{
				"x": -0.2010876647,
				"y": 2.5891260514,
				"z": -3.2498466371,
				"element": "H" 
			},
			{
				"x": -0.5278190357,
				"y": 1.5148349323,
				"z": -1.8733134139,
				"element": "H" 
			},
			{
				"x": 0.4707567178,
				"y": 0.7042429675,
				"z": -4.6612432775,
				"element": "H" 
			},
			{
				"x": 2.4016280372,
				"y": -1.3690365247,
				"z": -1.8954478653,
				"element": "H" 
			},
			{
				"x": 2.3984093343,
				"y": -2.1779699053,
				"z": 0.4525654582,
				"element": "H" 
			},
			{
				"x": -1.8794913849,
				"y": -1.7827019085,
				"z": 0.5539328644,
				"element": "H" 
			},
			{
				"x": -1.8683302676,
				"y": -1.0582886515,
				"z": -1.8145918384,
				"element": "H" 
			},
			{
				"x": 2.0345979399,
				"y": -1.4269453191,
				"z": 2.6636890998,
				"element": "H" 
			},
			{
				"x": 2.0310789101,
				"y": -2.2171244682,
				"z": 5.0022792199,
				"element": "H" 
			},
			{
				"x": 0.2228099064,
				"y": -3.7228247565,
				"z": 5.8124942557,
				"element": "H" 
			},
			{
				"x": -1.5687230566,
				"y": -4.4429373436,
				"z": 4.2424095241,
				"element": "H" 
			},
			{
				"x": -1.5401013477,
				"y": -3.6857545241,
				"z": 1.8933324557,
				"element": "H" 
			},
			{
				"x": -2.793583098,
				"y": 1.383024334,
				"z": -5.2901508445,
				"element": "H" 
			}
		],
		 "valence_orbital": [ 
			{
				"type": "occ",
				"energy": -0.27724,
				"method": "rhf"
			},
			{
				"type": "occ",
				"energy": -0.25939,
				"method": "rhf"
			},
			{
				"type": "occ",
				"energy": -0.24905,
				"method": "rhf"
			},
			{
				"type": "occ",
				"energy": -0.24703,
				"method": "rhf"
			},
			{
				"type": "occ",
				"energy": -0.2127,
				"method": "rhf"
			},
			{
				"type": "unocc",
				"energy": -0.02182,
				"method": "rhf"
			},
			{
				"type": "unocc",
				"energy": -0.00317,
				"method": "rhf"
			},
			{
				"type": "unocc",
				"energy": -0.002,
				"method": "rhf"
			},
			{
				"type": "unocc",
				"energy": 0.00257,
				"method": "rhf"
			},
			{
				"type": "unocc",
				"energy": 0.03417,
				"method": "rhf"
			}
		],
		"cosmo_sigma_profile": { 
			"-0.025": 0.0,
			"-0.024": 0.0,
			"-0.023": 0.0,
			"-0.022": 0.0,
			"-0.021": 0.0,
			"-0.02": 0.0,
			"-0.019": 0.326128199859,
			"-0.018": 0.844597395024,
			"-0.017": 0.813725753096,
			"-0.016": 1.15320754163,
			"-0.015": 0.363884172468,
			"-0.014": 0.780439307658,
			"-0.013": 0.612187599155,
			"-0.012": 1.05260520089,
			"-0.011": 0.698360792171,
			"-0.01": 0.394190609934,
			"-0.009": 0.661951331971,
			"-0.008": 1.09492457071,
			"-0.007": 3.45761366551,
			"-0.006": 8.72109467266,
			"-0.005": 24.2405601114,
			"-0.004": 27.7640366562,
			"-0.003": 26.7058892634,
			"-0.002": 21.8809677763,
			"-0.001": 20.4911651003,
			"0.0": 18.1130528791,
			"0.001": 15.780478152,
			"0.002": 15.792810488,
			"0.003": 20.8693265562,
			"0.004": 21.9267317005,
			"0.005": 20.7024257837,
			"0.006": 10.7200277839,
			"0.007": 3.48299353156,
			"0.008": 4.18900230037,
			"0.009": 4.51779222668,
			"0.01": 4.97704340941,
			"0.011": 4.44792466869,
			"0.012": 0.440975241441,
			"0.013": 0.0,
			"0.014": 0.0,
			"0.015": 0.0,
			"0.016": 0.0,
			"0.017": 0.0,
			"0.018": 0.0,
			"0.019": 0.0,
			"0.02": 0.0,
			"0.021": 0.0,
			"0.022": 0.0,
			"0.023": 0.0,
			"0.024": 0.0,
			"0.025": 0.0
		}
	}
}
