{
	 "smiles": "CC1=CC=C(SC2(CCCC2)C(O)=O)C=C1", 
	 "Tm": 354.15, 
	 "num_atms": 32, 
	 "gaussian": { 
		 "optdone": 1, 
		 "sigma_profile": "yes", 
		 "theory": "DFT", 
		 "functional": "B3LYP", 
		 "basiset": "6-31G**", 
		 "properties": { 
			 "R2extent": 4951.3955, 
			 "electric_dipole_moment_norm": 3.39263511448, 
			 "electric_quadrupole_moment_norm": 15.2825611142, 
			 "total_energy": -1053.68457607, 
			 "HOMO_LUMO_gap": 0.20168, 
			 "cosmo_polarized_energy": -11.55, 
			 "cosmo_cavitation_energy": 35.16, 
			 "cosmo_dispersion_energy": -24.9, 
			 "cosmo_repulsion_energy": 1.91, 
			 "cosmo_total_nonelectrostatic_energy": 12.17, 
			 "SMD_solvation_energy": 6.09 
		},
		"coords": [
			{
				"x": -2.6564051397,
				"y": -1.8245089594,
				"z": -4.809189641,
				"element": "C" 
			},
			{
				"x": -1.9679932619,
				"y": -0.9626563418,
				"z": -3.7779035366,
				"element": "C" 
			},
			{
				"x": -2.4251857395,
				"y": -0.9170667235,
				"z": -2.4544536398,
				"element": "C" 
			},
			{
				"x": -1.7763915316,
				"y": -0.1408284805,
				"z": -1.4944716592,
				"element": "C" 
			},
			{
				"x": -0.6414398154,
				"y": 0.6082267017,
				"z": -1.8360005738,
				"element": "C" 
			},
			{
				"x": 0.1298700058,
				"y": 1.6837385067,
				"z": -0.62836471,
				"element": "S" 
			},
			{
				"x": 1.4725868376,
				"y": 0.6481177019,
				"z": 0.2026259748,
				"element": "C" 
			},
			{
				"x": 0.975748121,
				"y": -0.7312839567,
				"z": 0.6724105409,
				"element": "C" 
			},
			{
				"x": 0.1903475658,
				"y": -0.4563787262,
				"z": 1.9728460765,
				"element": "C" 
			},
			{
				"x": 0.7419747415,
				"y": 0.8865531325,
				"z": 2.5359661611,
				"element": "C" 
			},
			{
				"x": 1.7993646174,
				"y": 1.3780786612,
				"z": 1.5215567414,
				"element": "C" 
			},
			{
				"x": 2.6632313396,
				"y": 0.6072647476,
				"z": -0.7366052849,
				"element": "C" 
			},
			{
				"x": 2.5323309054,
				"y": -0.3458048612,
				"z": -1.6936376858,
				"element": "O" 
			},
			{
				"x": 3.6377524122,
				"y": 1.3250103176,
				"z": -0.6694248245,
				"element": "O" 
			},
			{
				"x": -0.1856663303,
				"y": 0.5783501952,
				"z": -3.1615454776,
				"element": "C" 
			},
			{
				"x": -0.8422641159,
				"y": -0.1974303285,
				"z": -4.1143289453,
				"element": "C" 
			},
			{
				"x": -2.2009735761,
				"y": -2.8217848192,
				"z": -4.8563479491,
				"element": "H" 
			},
			{
				"x": -3.7159582859,
				"y": -1.962092467,
				"z": -4.5743076315,
				"element": "H" 
			},
			{
				"x": -2.5835793854,
				"y": -1.3877345435,
				"z": -5.8097349892,
				"element": "H" 
			},
			{
				"x": -3.3056640293,
				"y": -1.4891775275,
				"z": -2.1722392567,
				"element": "H" 
			},
			{
				"x": -2.1572038732,
				"y": -0.1013264057,
				"z": -0.4788085852,
				"element": "H" 
			},
			{
				"x": 1.8587307651,
				"y": -1.348489325,
				"z": 0.8831888817,
				"element": "H" 
			},
			{
				"x": 0.3973991063,
				"y": -1.2573928706,
				"z": -0.0898683231,
				"element": "H" 
			},
			{
				"x": 0.30252412,
				"y": -1.282650924,
				"z": 2.6811846181,
				"element": "H" 
			},
			{
				"x": -0.8787804131,
				"y": -0.3662780615,
				"z": 1.7602599635,
				"element": "H" 
			},
			{
				"x": 1.1839585834,
				"y": 0.7652140915,
				"z": 3.5294027117,
				"element": "H" 
			},
			{
				"x": -0.0651469398,
				"y": 1.6171699164,
				"z": 2.6347940442,
				"element": "H" 
			},
			{
				"x": 2.8078114164,
				"y": 1.0758381312,
				"z": 1.8231616784,
				"element": "H" 
			},
			{
				"x": 1.8241449554,
				"y": 2.4651139029,
				"z": 1.4066527309,
				"element": "H" 
			},
			{
				"x": 3.3284880821,
				"y": -0.2764584066,
				"z": -2.2471606545,
				"element": "H" 
			},
			{
				"x": 0.6788743944,
				"y": 1.1704967034,
				"z": -3.441506287,
				"element": "H" 
			},
			{
				"x": -0.4782855324,
				"y": -0.2051289814,
				"z": -5.1389504685,
				"element": "H" 
			}
		],
		 "valence_orbital": [ 
			{
				"type": "occ",
				"energy": -0.30613,
				"method": "rhf"
			},
			{
				"type": "occ",
				"energy": -0.27448,
				"method": "rhf"
			},
			{
				"type": "occ",
				"energy": -0.25518,
				"method": "rhf"
			},
			{
				"type": "occ",
				"energy": -0.24234,
				"method": "rhf"
			},
			{
				"type": "occ",
				"energy": -0.22935,
				"method": "rhf"
			},
			{
				"type": "unocc",
				"energy": -0.02767,
				"method": "rhf"
			},
			{
				"type": "unocc",
				"energy": -0.00693,
				"method": "rhf"
			},
			{
				"type": "unocc",
				"energy": 0.00907,
				"method": "rhf"
			},
			{
				"type": "unocc",
				"energy": 0.05499,
				"method": "rhf"
			},
			{
				"type": "unocc",
				"energy": 0.06871,
				"method": "rhf"
			}
		],
		"cosmo_sigma_profile": { 
			"-0.025": 0.0,
			"-0.024": 0.0,
			"-0.023": 0.0,
			"-0.022": 0.0,
			"-0.021": 0.0,
			"-0.02": 0.0,
			"-0.019": 0.0,
			"-0.018": 0.557746320639,
			"-0.017": 1.03353741472,
			"-0.016": 1.05524825941,
			"-0.015": 0.650652713927,
			"-0.014": 0.608685598964,
			"-0.013": 0.548007422752,
			"-0.012": 0.358803699474,
			"-0.011": 0.939751733112,
			"-0.01": 0.776167918779,
			"-0.009": 0.842900751112,
			"-0.008": 0.494158516393,
			"-0.007": 1.03077800916,
			"-0.006": 5.08689378819,
			"-0.005": 13.5804780044,
			"-0.004": 23.3912919084,
			"-0.003": 25.7821455968,
			"-0.002": 31.9862624045,
			"-0.001": 34.3202430645,
			"0.0": 28.800834328,
			"0.001": 21.2169760505,
			"0.002": 13.878115311,
			"0.003": 11.776439981,
			"0.004": 13.5949453958,
			"0.005": 13.2111244103,
			"0.006": 6.85161531112,
			"0.007": 6.3724273278,
			"0.008": 4.65427296705,
			"0.009": 3.12915904828,
			"0.01": 2.81303269712,
			"0.011": 3.39942122552,
			"0.012": 4.3799896047,
			"0.013": 0.36797839852,
			"0.014": 0.0,
			"0.015": 0.0,
			"0.016": 0.0,
			"0.017": 0.0,
			"0.018": 0.0,
			"0.019": 0.0,
			"0.02": 0.0,
			"0.021": 0.0,
			"0.022": 0.0,
			"0.023": 0.0,
			"0.024": 0.0,
			"0.025": 0.0
		}
	}
}
