{
	 "smiles": "NCCC1=CC=C(CO)C=C1", 
	 "Tm": 309.15, 
	 "num_atms": 24, 
	 "gaussian": { 
		 "optdone": 1, 
		 "sigma_profile": "yes", 
		 "theory": "DFT", 
		 "functional": "B3LYP", 
		 "basiset": "6-31G**", 
		 "properties": { 
			 "R2extent": 2750.8023, 
			 "electric_dipole_moment_norm": 2.71232889783, 
			 "electric_quadrupole_moment_norm": 10.9897017225, 
			 "total_energy": -480.756734978, 
			 "HOMO_LUMO_gap": 0.21686, 
			 "cosmo_polarized_energy": -11.4, 
			 "cosmo_cavitation_energy": 27.24, 
			 "cosmo_dispersion_energy": -19.5, 
			 "cosmo_repulsion_energy": 1.61, 
			 "cosmo_total_nonelectrostatic_energy": 9.35, 
			 "SMD_solvation_energy": 3.05 
		},
		"coords": [
			{
				"x": -5.1256285947,
				"y": -0.7997216453,
				"z": -0.4650641202,
				"element": "N" 
			},
			{
				"x": -3.7629996476,
				"y": -0.2901370741,
				"z": -0.3282787152,
				"element": "C" 
			},
			{
				"x": -2.6453032122,
				"y": -1.3603362112,
				"z": -0.2466970525,
				"element": "C" 
			},
			{
				"x": -1.2657787707,
				"y": -0.7588541003,
				"z": -0.1065959367,
				"element": "C" 
			},
			{
				"x": -0.5066257945,
				"y": -0.4232817945,
				"z": -1.2366924648,
				"element": "C" 
			},
			{
				"x": 0.7465333726,
				"y": 0.1738985999,
				"z": -1.1094019027,
				"element": "C" 
			},
			{
				"x": 1.2845589844,
				"y": 0.4535652246,
				"z": 0.1543317462,
				"element": "C" 
			},
			{
				"x": 2.6134435059,
				"y": 1.1566308917,
				"z": 0.2917894736,
				"element": "C" 
			},
			{
				"x": 2.4891675829,
				"y": 2.5833068283,
				"z": 0.3125269819,
				"element": "O" 
			},
			{
				"x": 0.525602711,
				"y": 0.1232166017,
				"z": 1.2855158785,
				"element": "C" 
			},
			{
				"x": -0.7274241759,
				"y": -0.4738525826,
				"z": 1.1563338801,
				"element": "C" 
			},
			{
				"x": -5.2011521783,
				"y": -1.3747877261,
				"z": -1.3014822592,
				"element": "H" 
			},
			{
				"x": -5.3511520655,
				"y": -1.4085572388,
				"z": 0.3188106946,
				"element": "H" 
			},
			{
				"x": -3.5590890493,
				"y": 0.3749091543,
				"z": -1.1761422063,
				"element": "H" 
			},
			{
				"x": -3.7208350778,
				"y": 0.3389678941,
				"z": 0.5690441518,
				"element": "H" 
			},
			{
				"x": -2.8539406839,
				"y": -2.0204230463,
				"z": 0.6052969826,
				"element": "H" 
			},
			{
				"x": -2.6914483463,
				"y": -1.9844152674,
				"z": -1.1486616783,
				"element": "H" 
			},
			{
				"x": -0.8986779879,
				"y": -0.6421526256,
				"z": -2.2272917093,
				"element": "H" 
			},
			{
				"x": 1.3212756334,
				"y": 0.4176093147,
				"z": -1.9998088021,
				"element": "H" 
			},
			{
				"x": 3.1097503887,
				"y": 0.8385803705,
				"z": 1.2188453309,
				"element": "H" 
			},
			{
				"x": 3.2709248941,
				"y": 0.8782413285,
				"z": -0.5431353943,
				"element": "H" 
			},
			{
				"x": 1.5509781481,
				"y": 2.7926660541,
				"z": 0.232133359,
				"element": "H" 
			},
			{
				"x": 0.9268761132,
				"y": 0.3270864847,
				"z": 2.2754499658,
				"element": "H" 
			},
			{
				"x": -1.2931557497,
				"y": -0.7325594347,
				"z": 2.0484737968,
				"element": "H" 
			}
		],
		 "valence_orbital": [ 
			{
				"type": "occ",
				"energy": -0.32057,
				"method": "rhf"
			},
			{
				"type": "occ",
				"energy": -0.26226,
				"method": "rhf"
			},
			{
				"type": "occ",
				"energy": -0.25359,
				"method": "rhf"
			},
			{
				"type": "occ",
				"energy": -0.25305,
				"method": "rhf"
			},
			{
				"type": "occ",
				"energy": -0.22958,
				"method": "rhf"
			},
			{
				"type": "unocc",
				"energy": -0.01272,
				"method": "rhf"
			},
			{
				"type": "unocc",
				"energy": -0.0074,
				"method": "rhf"
			},
			{
				"type": "unocc",
				"energy": 0.07699,
				"method": "rhf"
			},
			{
				"type": "unocc",
				"energy": 0.09303,
				"method": "rhf"
			},
			{
				"type": "unocc",
				"energy": 0.10695,
				"method": "rhf"
			}
		],
		"cosmo_sigma_profile": { 
			"-0.025": 0.0,
			"-0.024": 0.0,
			"-0.023": 0.0,
			"-0.022": 0.0,
			"-0.021": 0.0,
			"-0.02": 0.0,
			"-0.019": 0.0,
			"-0.018": 0.0,
			"-0.017": 0.0,
			"-0.016": 0.0,
			"-0.015": 0.0807668076321,
			"-0.014": 0.492952205478,
			"-0.013": 0.50586938606,
			"-0.012": 0.962851773685,
			"-0.011": 0.802649680911,
			"-0.01": 0.978963275901,
			"-0.009": 2.75334687774,
			"-0.008": 3.6479308396,
			"-0.007": 3.66652945527,
			"-0.006": 5.43747869801,
			"-0.005": 14.1598539286,
			"-0.004": 21.2279351561,
			"-0.003": 26.8937684872,
			"-0.002": 20.724013448,
			"-0.001": 18.6539802917,
			"0.0": 13.4848847867,
			"0.001": 12.5593778077,
			"0.002": 9.52655612881,
			"0.003": 8.63498038259,
			"0.004": 8.52950434066,
			"0.005": 10.055068258,
			"0.006": 7.12799498613,
			"0.007": 1.61934983092,
			"0.008": 1.55669238882,
			"0.009": 2.21862029876,
			"0.01": 2.37789549601,
			"0.011": 1.82799700529,
			"0.012": 1.52632578591,
			"0.013": 2.56105094178,
			"0.014": 3.17618655838,
			"0.015": 2.24804763943,
			"0.016": 0.423382661482,
			"0.017": 0.339181539256,
			"0.018": 0.959429545833,
			"0.019": 0.615018994577,
			"0.02": 0.361915336894,
			"0.021": 0.0063432241971,
			"0.022": 0.0,
			"0.023": 0.0,
			"0.024": 0.0,
			"0.025": 0.0
		}
	}
}
