{
	 "smiles": "CCC1(C)NC(=O)N(N)C1=O", 
	 "Tm": 427.15, 
	 "num_atms": 22, 
	 "gaussian": { 
		 "optdone": 1, 
		 "sigma_profile": "yes", 
		 "theory": "DFT", 
		 "functional": "B3LYP", 
		 "basiset": "6-31G**", 
		 "properties": { 
			 "R2extent": 1973.3215, 
			 "electric_dipole_moment_norm": 2.77394477595, 
			 "electric_quadrupole_moment_norm": 13.3491655058, 
			 "total_energy": -549.984458403, 
			 "HOMO_LUMO_gap": 0.25062, 
			 "cosmo_polarized_energy": -17.97, 
			 "cosmo_cavitation_energy": 25.08, 
			 "cosmo_dispersion_energy": -17.89, 
			 "cosmo_repulsion_energy": 1.46, 
			 "cosmo_total_nonelectrostatic_energy": 8.65, 
			 "SMD_solvation_energy": 6.07 
		},
		"coords": [
			{
				"x": -2.2535397213,
				"y": -1.415992449,
				"z": 1.0396402778,
				"element": "C" 
			},
			{
				"x": -0.7508851182,
				"y": -1.2063137367,
				"z": 0.824968657,
				"element": "C" 
			},
			{
				"x": -0.3578889787,
				"y": 0.0243916049,
				"z": -0.035273237,
				"element": "C" 
			},
			{
				"x": -0.9373998287,
				"y": 1.3375443838,
				"z": 0.5069999693,
				"element": "C" 
			},
			{
				"x": 1.1027132564,
				"y": 0.0942048827,
				"z": -0.1761658157,
				"element": "N" 
			},
			{
				"x": 1.5404779414,
				"y": -0.2019080363,
				"z": -1.4364205044,
				"element": "C" 
			},
			{
				"x": 2.6739463414,
				"y": -0.3465966769,
				"z": -1.8517978702,
				"element": "O" 
			},
			{
				"x": 0.3746466953,
				"y": -0.3206507791,
				"z": -2.2333965336,
				"element": "N" 
			},
			{
				"x": 0.4149789408,
				"y": -0.5724526598,
				"z": -3.6075627489,
				"element": "N" 
			},
			{
				"x": -0.7950693684,
				"y": -0.1810790976,
				"z": -1.5046057342,
				"element": "C" 
			},
			{
				"x": -1.9326602716,
				"y": -0.2049417224,
				"z": -1.9213417732,
				"element": "O" 
			},
			{
				"x": -2.7846174766,
				"y": -1.4689113205,
				"z": 0.0866107468,
				"element": "H" 
			},
			{
				"x": -2.424317404,
				"y": -2.3495404529,
				"z": 1.5845786672,
				"element": "H" 
			},
			{
				"x": -2.6949780863,
				"y": -0.6063056281,
				"z": 1.6283448275,
				"element": "H" 
			},
			{
				"x": -0.2502267373,
				"y": -1.0921189808,
				"z": 1.7966114333,
				"element": "H" 
			},
			{
				"x": -0.3137275297,
				"y": -2.0963609492,
				"z": 0.35594558,
				"element": "H" 
			},
			{
				"x": -0.6756876195,
				"y": 1.4665339993,
				"z": 1.562673862,
				"element": "H" 
			},
			{
				"x": -0.5398743545,
				"y": 2.1881489694,
				"z": -0.0528778832,
				"element": "H" 
			},
			{
				"x": -2.0251207132,
				"y": 1.3381533048,
				"z": 0.4109349445,
				"element": "H" 
			},
			{
				"x": 1.7371937045,
				"y": 0.0045156836,
				"z": 0.6037709023,
				"element": "H" 
			},
			{
				"x": 0.8091383129,
				"y": 0.2464462641,
				"z": -4.0683780187,
				"element": "H" 
			},
			{
				"x": 1.0748980153,
				"y": -1.3344666033,
				"z": -3.7526597485,
				"element": "H" 
			}
		],
		 "valence_orbital": [ 
			{
				"type": "occ",
				"energy": -0.29695,
				"method": "rhf"
			},
			{
				"type": "occ",
				"energy": -0.28838,
				"method": "rhf"
			},
			{
				"type": "occ",
				"energy": -0.27634,
				"method": "rhf"
			},
			{
				"type": "occ",
				"energy": -0.26565,
				"method": "rhf"
			},
			{
				"type": "occ",
				"energy": -0.2564,
				"method": "rhf"
			},
			{
				"type": "unocc",
				"energy": -0.00578,
				"method": "rhf"
			},
			{
				"type": "unocc",
				"energy": 0.05398,
				"method": "rhf"
			},
			{
				"type": "unocc",
				"energy": 0.07059,
				"method": "rhf"
			},
			{
				"type": "unocc",
				"energy": 0.07516,
				"method": "rhf"
			},
			{
				"type": "unocc",
				"energy": 0.09671,
				"method": "rhf"
			}
		],
		"cosmo_sigma_profile": { 
			"-0.025": 0.0,
			"-0.024": 0.0,
			"-0.023": 0.0,
			"-0.022": 0.0,
			"-0.021": 0.0,
			"-0.02": 0.0,
			"-0.019": 0.0,
			"-0.018": 0.0,
			"-0.017": 0.0,
			"-0.016": 0.0,
			"-0.015": 0.856113147559,
			"-0.014": 0.997808920321,
			"-0.013": 2.96746097217,
			"-0.012": 4.04634414523,
			"-0.011": 3.65492161328,
			"-0.01": 3.75429765119,
			"-0.009": 3.45541867514,
			"-0.008": 3.18493614957,
			"-0.007": 2.9850971834,
			"-0.006": 6.05703223738,
			"-0.005": 10.3500654536,
			"-0.004": 14.8264884627,
			"-0.003": 16.8568642901,
			"-0.002": 17.8680808525,
			"-0.001": 19.3075303081,
			"0.0": 14.7281521769,
			"0.001": 10.253843336,
			"0.002": 5.97836290137,
			"0.003": 4.50133160853,
			"0.004": 4.73432561838,
			"0.005": 2.90637297113,
			"0.006": 2.58032872055,
			"0.007": 3.21831073216,
			"0.008": 2.89232169171,
			"0.009": 3.58695411931,
			"0.01": 3.62446827838,
			"0.011": 4.38621829294,
			"0.012": 8.97832968151,
			"0.013": 7.16596176035,
			"0.014": 1.82352887414,
			"0.015": 1.80377467262,
			"0.016": 1.10937146052,
			"0.017": 0.274160420272,
			"0.018": 0.0,
			"0.019": 0.0,
			"0.02": 0.0,
			"0.021": 0.0,
			"0.022": 0.0,
			"0.023": 0.0,
			"0.024": 0.0,
			"0.025": 0.0
		}
	}
}
