{
	 "smiles": "CC1=CC=C(C=C1)S(=O)(=O)NC1=C(O)C=CC(Cl)=C1", 
	 "Tm": 463.15, 
	 "num_atms": 31, 
	 "gaussian": { 
		 "optdone": 1, 
		 "sigma_profile": "yes", 
		 "theory": "DFT", 
		 "functional": "B3LYP", 
		 "basiset": "6-31G**", 
		 "properties": { 
			 "R2extent": 7252.6587, 
			 "electric_dipole_moment_norm": 5.06886234573, 
			 "electric_quadrupole_moment_norm": 12.793559636, 
			 "total_energy": -1641.35517395, 
			 "HOMO_LUMO_gap": 0.1806, 
			 "cosmo_polarized_energy": -16.18, 
			 "cosmo_cavitation_energy": 38.65, 
			 "cosmo_dispersion_energy": -27.06, 
			 "cosmo_repulsion_energy": 2.06, 
			 "cosmo_total_nonelectrostatic_energy": 13.65, 
			 "SMD_solvation_energy": 5.87 
		},
		"coords": [
			{
				"x": -0.1185943524,
				"y": -3.9173645871,
				"z": 2.048842507,
				"element": "C" 
			},
			{
				"x": -0.2735811136,
				"y": -2.4205828582,
				"z": 1.9340029061,
				"element": "C" 
			},
			{
				"x": 0.8215509516,
				"y": -1.6063344681,
				"z": 1.6155220141,
				"element": "C" 
			},
			{
				"x": 0.6807694036,
				"y": -0.2256534541,
				"z": 1.4807587087,
				"element": "C" 
			},
			{
				"x": -0.5792096341,
				"y": 0.343520193,
				"z": 1.6654853908,
				"element": "C" 
			},
			{
				"x": -1.6882703188,
				"y": -0.4392617402,
				"z": 1.9984544241,
				"element": "C" 
			},
			{
				"x": -1.5255089104,
				"y": -1.8150470813,
				"z": 2.1298735699,
				"element": "C" 
			},
			{
				"x": -0.7798918333,
				"y": 2.1093545809,
				"z": 1.4898475906,
				"element": "S" 
			},
			{
				"x": 0.5427811804,
				"y": 2.7300992996,
				"z": 1.5993580435,
				"element": "O" 
			},
			{
				"x": -1.9082891807,
				"y": 2.566715711,
				"z": 2.3052596467,
				"element": "O" 
			},
			{
				"x": -1.3823710371,
				"y": 2.2465066609,
				"z": -0.1262374159,
				"element": "N" 
			},
			{
				"x": -0.460849023,
				"y": 2.1970957106,
				"z": -1.22893181,
				"element": "C" 
			},
			{
				"x": -0.5864084046,
				"y": 1.0867331294,
				"z": -2.0862979184,
				"element": "C" 
			},
			{
				"x": -1.5166919039,
				"y": 0.1319049662,
				"z": -1.8590794826,
				"element": "O" 
			},
			{
				"x": 0.2551272409,
				"y": 0.9762990222,
				"z": -3.1987588446,
				"element": "C" 
			},
			{
				"x": 1.2090392029,
				"y": 1.9567815494,
				"z": -3.4515611048,
				"element": "C" 
			},
			{
				"x": 1.3263314018,
				"y": 3.053420127,
				"z": -2.5928728449,
				"element": "C" 
			},
			{
				"x": 2.5350498354,
				"y": 4.2878515662,
				"z": -2.9227100811,
				"element": "Cl" 
			},
			{
				"x": 0.5000230584,
				"y": 3.181595465,
				"z": -1.481069318,
				"element": "C" 
			},
			{
				"x": 0.9145196607,
				"y": -4.1976043673,
				"z": 2.2712288515,
				"element": "H" 
			},
			{
				"x": -0.3980618811,
				"y": -4.410393441,
				"z": 1.1095722712,
				"element": "H" 
			},
			{
				"x": -0.7611935808,
				"y": -4.3270464455,
				"z": 2.8338089467,
				"element": "H" 
			},
			{
				"x": 1.8004186835,
				"y": -2.0567213133,
				"z": 1.476219003,
				"element": "H" 
			},
			{
				"x": 1.5312799898,
				"y": 0.4065506993,
				"z": 1.2517680366,
				"element": "H" 
			},
			{
				"x": -2.6510686399,
				"y": 0.0298019711,
				"z": 2.1721902681,
				"element": "H" 
			},
			{
				"x": -2.3807974921,
				"y": -2.4297742871,
				"z": 2.3972825356,
				"element": "H" 
			},
			{
				"x": -2.0008534957,
				"y": 3.0570578591,
				"z": -0.1193374415,
				"element": "H" 
			},
			{
				"x": -1.9961572199,
				"y": 0.4054541029,
				"z": -1.0566769384,
				"element": "H" 
			},
			{
				"x": 0.1449293936,
				"y": 0.1209289236,
				"z": -3.8562820837,
				"element": "H" 
			},
			{
				"x": 1.8613404467,
				"y": 1.8750782172,
				"z": -4.3140433832,
				"element": "H" 
			},
			{
				"x": 0.6042375721,
				"y": 4.0206342884,
				"z": -0.803716047,
				"element": "H" 
			}
		],
		 "valence_orbital": [ 
			{
				"type": "occ",
				"energy": -0.29681,
				"method": "rhf"
			},
			{
				"type": "occ",
				"energy": -0.27672,
				"method": "rhf"
			},
			{
				"type": "occ",
				"energy": -0.26912,
				"method": "rhf"
			},
			{
				"type": "occ",
				"energy": -0.2676,
				"method": "rhf"
			},
			{
				"type": "occ",
				"energy": -0.22692,
				"method": "rhf"
			},
			{
				"type": "unocc",
				"energy": -0.04632,
				"method": "rhf"
			},
			{
				"type": "unocc",
				"energy": -0.03137,
				"method": "rhf"
			},
			{
				"type": "unocc",
				"energy": -0.02642,
				"method": "rhf"
			},
			{
				"type": "unocc",
				"energy": -0.00415,
				"method": "rhf"
			},
			{
				"type": "unocc",
				"energy": 0.02811,
				"method": "rhf"
			}
		],
		"cosmo_sigma_profile": { 
			"-0.025": 0.0,
			"-0.024": 0.0,
			"-0.023": 0.0,
			"-0.022": 0.0,
			"-0.021": 0.0,
			"-0.02": 0.0,
			"-0.019": 0.0,
			"-0.018": 0.0,
			"-0.017": 0.0,
			"-0.016": 0.274245453738,
			"-0.015": 1.07431307694,
			"-0.014": 1.09673684848,
			"-0.013": 1.33656119674,
			"-0.012": 1.19685526578,
			"-0.011": 1.44753392339,
			"-0.01": 1.46413088376,
			"-0.009": 2.32459673078,
			"-0.008": 3.00143666148,
			"-0.007": 11.2892016224,
			"-0.006": 17.4851531896,
			"-0.005": 20.4173660631,
			"-0.004": 18.3623849466,
			"-0.003": 18.2734111367,
			"-0.002": 20.6548892518,
			"-0.001": 23.3360393722,
			"0.0": 23.1797201084,
			"0.001": 24.2882374082,
			"0.002": 30.2895383762,
			"0.003": 26.5771164555,
			"0.004": 13.8052133885,
			"0.005": 12.3911378079,
			"0.006": 4.78721728629,
			"0.007": 4.34077502039,
			"0.008": 4.24916220886,
			"0.009": 6.20995653964,
			"0.01": 9.6550954598,
			"0.011": 7.8916217979,
			"0.012": 0.536472478062,
			"0.013": 0.0,
			"0.014": 0.0,
			"0.015": 0.0,
			"0.016": 0.0,
			"0.017": 0.0,
			"0.018": 0.0,
			"0.019": 0.0,
			"0.02": 0.0,
			"0.021": 0.0,
			"0.022": 0.0,
			"0.023": 0.0,
			"0.024": 0.0,
			"0.025": 0.0
		}
	}
}
