{
	 "smiles": "CN1N=CC=C1C1CCNCC1", 
	 "Tm": 340.15, 
	 "num_atms": 27, 
	 "gaussian": { 
		 "optdone": 1, 
		 "sigma_profile": "yes", 
		 "theory": "DFT", 
		 "functional": "B3LYP", 
		 "basiset": "6-31G**", 
		 "properties": { 
			 "R2extent": 2685.1899, 
			 "electric_dipole_moment_norm": 3.13162034417, 
			 "electric_quadrupole_moment_norm": 8.57319244972, 
			 "total_energy": -516.220591951, 
			 "HOMO_LUMO_gap": 0.23747, 
			 "cosmo_polarized_energy": -10.58, 
			 "cosmo_cavitation_energy": 27.86, 
			 "cosmo_dispersion_energy": -20.29, 
			 "cosmo_repulsion_energy": 1.61, 
			 "cosmo_total_nonelectrostatic_energy": 9.17, 
			 "SMD_solvation_energy": 1.03 
		},
		"coords": [
			{
				"x": 1.0769404912,
				"y": -2.0499608554,
				"z": -1.7724414484,
				"element": "C" 
			},
			{
				"x": 0.692071804,
				"y": -2.4763546278,
				"z": -0.4400682472,
				"element": "N" 
			},
			{
				"x": 0.6241337334,
				"y": -3.8042961223,
				"z": -0.1734244858,
				"element": "N" 
			},
			{
				"x": 0.2812621902,
				"y": -3.8696800552,
				"z": 1.1108326779,
				"element": "C" 
			},
			{
				"x": 0.1304714734,
				"y": -2.5886699704,
				"z": 1.6808590192,
				"element": "C" 
			},
			{
				"x": 0.4051853177,
				"y": -1.6995999963,
				"z": 0.6505236057,
				"element": "C" 
			},
			{
				"x": 0.3785444558,
				"y": -0.1956767251,
				"z": 0.5788528953,
				"element": "C" 
			},
			{
				"x": 0.6793324977,
				"y": 0.4530129785,
				"z": 1.9538228139,
				"element": "C" 
			},
			{
				"x": 0.1686429354,
				"y": 1.8933509763,
				"z": 2.0035760393,
				"element": "C" 
			},
			{
				"x": -1.3033677776,
				"y": 1.9016642422,
				"z": 1.9585711082,
				"element": "N" 
			},
			{
				"x": -1.8891393876,
				"y": 0.8196885554,
				"z": 1.1481995528,
				"element": "C" 
			},
			{
				"x": -0.974765029,
				"y": 0.3508296733,
				"z": 0.008652565,
				"element": "C" 
			},
			{
				"x": 0.3036105691,
				"y": -1.4247799182,
				"z": -2.2296224226,
				"element": "H" 
			},
			{
				"x": 1.2073674439,
				"y": -2.9533501966,
				"z": -2.3669077061,
				"element": "H" 
			},
			{
				"x": 2.0193729513,
				"y": -1.4919374817,
				"z": -1.7557378296,
				"element": "H" 
			},
			{
				"x": 0.1566577176,
				"y": -4.8357922362,
				"z": 1.5820709957,
				"element": "H" 
			},
			{
				"x": -0.1375343374,
				"y": -2.3476458875,
				"z": 2.6983821264,
				"element": "H" 
			},
			{
				"x": 1.1726635414,
				"y": 0.120109401,
				"z": -0.1106908305,
				"element": "H" 
			},
			{
				"x": 0.1899740475,
				"y": -0.1083477427,
				"z": 2.7564494815,
				"element": "H" 
			},
			{
				"x": 1.754289279,
				"y": 0.4188136799,
				"z": 2.1565230166,
				"element": "H" 
			},
			{
				"x": 0.6292897429,
				"y": 2.4583612513,
				"z": 1.172145077,
				"element": "H" 
			},
			{
				"x": 0.4996282742,
				"y": 2.3788270654,
				"z": 2.9301509055,
				"element": "H" 
			},
			{
				"x": -1.625428541,
				"y": 2.7994802156,
				"z": 1.6133045938,
				"element": "H" 
			},
			{
				"x": -2.851266252,
				"y": 1.1637445607,
				"z": 0.7549910568,
				"element": "H" 
			},
			{
				"x": -2.1148576128,
				"y": -0.0399817029,
				"z": 1.7944608778,
				"element": "H" 
			},
			{
				"x": -1.4760229929,
				"y": -0.4178138703,
				"z": -0.5895439083,
				"element": "H" 
			},
			{
				"x": -0.7753565355,
				"y": 1.197204789,
				"z": -0.66053153,
				"element": "H" 
			}
		],
		 "valence_orbital": [ 
			{
				"type": "occ",
				"energy": -0.32116,
				"method": "rhf"
			},
			{
				"type": "occ",
				"energy": -0.27359,
				"method": "rhf"
			},
			{
				"type": "occ",
				"energy": -0.23671,
				"method": "rhf"
			},
			{
				"type": "occ",
				"energy": -0.22737,
				"method": "rhf"
			},
			{
				"type": "occ",
				"energy": -0.21146,
				"method": "rhf"
			},
			{
				"type": "unocc",
				"energy": 0.02601,
				"method": "rhf"
			},
			{
				"type": "unocc",
				"energy": 0.06766,
				"method": "rhf"
			},
			{
				"type": "unocc",
				"energy": 0.07986,
				"method": "rhf"
			},
			{
				"type": "unocc",
				"energy": 0.09667,
				"method": "rhf"
			},
			{
				"type": "unocc",
				"energy": 0.10483,
				"method": "rhf"
			}
		],
		"cosmo_sigma_profile": { 
			"-0.025": 0.0,
			"-0.024": 0.0,
			"-0.023": 0.0,
			"-0.022": 0.0,
			"-0.021": 0.0,
			"-0.02": 0.0,
			"-0.019": 0.0,
			"-0.018": 0.0,
			"-0.017": 0.0,
			"-0.016": 0.0,
			"-0.015": 0.0,
			"-0.014": 0.0,
			"-0.013": 0.0,
			"-0.012": 0.0,
			"-0.011": 0.0,
			"-0.01": 0.435455579901,
			"-0.009": 1.34370704741,
			"-0.008": 1.08093890612,
			"-0.007": 1.50755407567,
			"-0.006": 8.1356576371,
			"-0.005": 13.9085835369,
			"-0.004": 19.3954876474,
			"-0.003": 28.3768447365,
			"-0.002": 33.181370011,
			"-0.001": 23.6670833141,
			"0.0": 19.7262070418,
			"0.001": 10.3967026118,
			"0.002": 5.9705709491,
			"0.003": 5.9633544707,
			"0.004": 6.51170507024,
			"0.005": 6.19507666967,
			"0.006": 7.06206189041,
			"0.007": 5.51971658859,
			"0.008": 2.13638066531,
			"0.009": 2.48621041255,
			"0.01": 2.46957294268,
			"0.011": 1.81003406114,
			"0.012": 1.54984213108,
			"0.013": 1.70451472475,
			"0.014": 2.27981175479,
			"0.015": 1.15678678665,
			"0.016": 1.30728972999,
			"0.017": 0.955925590773,
			"0.018": 0.510984488994,
			"0.019": 0.345997817671,
			"0.02": 0.00293492732252,
			"0.021": 0.0,
			"0.022": 0.0,
			"0.023": 0.0,
			"0.024": 0.0,
			"0.025": 0.0
		}
	}
}
