{
	 "smiles": "OC(=O)C1CCN(CC1)C1=NS(=O)(=O)C2=C1C=CC=C2", 
	 "Tm": 553.15, 
	 "num_atms": 34, 
	 "gaussian": { 
		 "optdone": 1, 
		 "sigma_profile": "yes", 
		 "theory": "DFT", 
		 "functional": "B3LYP", 
		 "basiset": "6-31G**", 
		 "properties": { 
			 "R2extent": 7006.7228, 
			 "electric_dipole_moment_norm": 8.56833548946, 
			 "electric_quadrupole_moment_norm": 25.5350721632, 
			 "total_energy": -1312.34990957, 
			 "HOMO_LUMO_gap": 0.1697, 
			 "cosmo_polarized_energy": -26.85, 
			 "cosmo_cavitation_energy": 37.63, 
			 "cosmo_dispersion_energy": -27.56, 
			 "cosmo_repulsion_energy": 2.05, 
			 "cosmo_total_nonelectrostatic_energy": 12.12, 
			 "SMD_solvation_energy": 4.16 
		},
		"coords": [
			{
				"x": 3.5674054449,
				"y": -0.8117593711,
				"z": 3.5763737171,
				"element": "O" 
			},
			{
				"x": 3.080076643,
				"y": 0.324252054,
				"z": 3.0183669154,
				"element": "C" 
			},
			{
				"x": 2.7606559393,
				"y": 1.2837609025,
				"z": 3.6875009265,
				"element": "O" 
			},
			{
				"x": 3.0101495851,
				"y": 0.2165921239,
				"z": 1.5005534138,
				"element": "C" 
			},
			{
				"x": 2.5878295082,
				"y": 1.5453962866,
				"z": 0.8498854936,
				"element": "C" 
			},
			{
				"x": 1.0901335688,
				"y": 1.8194560148,
				"z": 1.0391659347,
				"element": "C" 
			},
			{
				"x": 0.2537832452,
				"y": 0.6984867665,
				"z": 0.5702288907,
				"element": "N" 
			},
			{
				"x": 0.579977517,
				"y": -0.5673081578,
				"z": 1.2441316462,
				"element": "C" 
			},
			{
				"x": 2.065481263,
				"y": -0.9274340296,
				"z": 1.0599025882,
				"element": "C" 
			},
			{
				"x": -0.2323812188,
				"y": 0.7390284424,
				"z": -0.7040894482,
				"element": "C" 
			},
			{
				"x": 0.1762612194,
				"y": 1.663170354,
				"z": -1.5361163584,
				"element": "N" 
			},
			{
				"x": -0.5920207225,
				"y": 1.5164401661,
				"z": -3.0299909508,
				"element": "S" 
			},
			{
				"x": 0.3996373256,
				"y": 1.1359527428,
				"z": -4.037884561,
				"element": "O" 
			},
			{
				"x": -1.4663445844,
				"y": 2.6642969446,
				"z": -3.2791331299,
				"element": "O" 
			},
			{
				"x": -1.5901412778,
				"y": 0.103793462,
				"z": -2.5397786176,
				"element": "C" 
			},
			{
				"x": -1.3100911485,
				"y": -0.1864840239,
				"z": -1.2031077042,
				"element": "C" 
			},
			{
				"x": -2.0961406736,
				"y": -1.1381601264,
				"z": -0.5453771474,
				"element": "C" 
			},
			{
				"x": -3.0861737286,
				"y": -1.8144214168,
				"z": -1.2651469489,
				"element": "C" 
			},
			{
				"x": -3.314024924,
				"y": -1.537820013,
				"z": -2.6162307263,
				"element": "C" 
			},
			{
				"x": -2.5718382829,
				"y": -0.5480085797,
				"z": -3.2683350405,
				"element": "C" 
			},
			{
				"x": 3.5879791023,
				"y": -0.6560042666,
				"z": 4.5358080962,
				"element": "H" 
			},
			{
				"x": 4.0250703665,
				"y": -0.0491757535,
				"z": 1.1788956215,
				"element": "H" 
			},
			{
				"x": 2.808230649,
				"y": 1.504822649,
				"z": -0.2216492288,
				"element": "H" 
			},
			{
				"x": 3.1587717538,
				"y": 2.3743562157,
				"z": 1.2779782769,
				"element": "H" 
			},
			{
				"x": 0.872581489,
				"y": 1.9582943888,
				"z": 2.1028489361,
				"element": "H" 
			},
			{
				"x": 0.790647476,
				"y": 2.7149326393,
				"z": 0.4963051665,
				"element": "H" 
			},
			{
				"x": -0.0289883028,
				"y": -1.3743751864,
				"z": 0.8437384506,
				"element": "H" 
			},
			{
				"x": 0.3370907277,
				"y": -0.4591690002,
				"z": 2.3089466575,
				"element": "H" 
			},
			{
				"x": 2.2902449912,
				"y": -1.8438692066,
				"z": 1.6138885107,
				"element": "H" 
			},
			{
				"x": 2.2451076116,
				"y": -1.1328798928,
				"z": -0.0015475264,
				"element": "H" 
			},
			{
				"x": -1.9790435727,
				"y": -1.3412970029,
				"z": 0.5121948873,
				"element": "H" 
			},
			{
				"x": -3.695106759,
				"y": -2.5572564273,
				"z": -0.7591436506,
				"element": "H" 
			},
			{
				"x": -4.0881498347,
				"y": -2.0754632792,
				"z": -3.1550439017,
				"element": "H" 
			},
			{
				"x": -2.7656703961,
				"y": -0.2870464189,
				"z": -4.303539189,
				"element": "H" 
			}
		],
		 "valence_orbital": [ 
			{
				"type": "occ",
				"energy": -0.28874,
				"method": "rhf"
			},
			{
				"type": "occ",
				"energy": -0.28462,
				"method": "rhf"
			},
			{
				"type": "occ",
				"energy": -0.27723,
				"method": "rhf"
			},
			{
				"type": "occ",
				"energy": -0.26959,
				"method": "rhf"
			},
			{
				"type": "occ",
				"energy": -0.24085,
				"method": "rhf"
			},
			{
				"type": "unocc",
				"energy": -0.07115,
				"method": "rhf"
			},
			{
				"type": "unocc",
				"energy": -0.04106,
				"method": "rhf"
			},
			{
				"type": "unocc",
				"energy": -0.01072,
				"method": "rhf"
			},
			{
				"type": "unocc",
				"energy": 0.0232,
				"method": "rhf"
			},
			{
				"type": "unocc",
				"energy": 0.05886,
				"method": "rhf"
			}
		],
		"cosmo_sigma_profile": { 
			"-0.025": 0.0,
			"-0.024": 0.0,
			"-0.023": 0.0,
			"-0.022": 0.0,
			"-0.021": 0.0,
			"-0.02": 0.0,
			"-0.019": 0.0172325669204,
			"-0.018": 0.741049864035,
			"-0.017": 0.791526644958,
			"-0.016": 0.740347618766,
			"-0.015": 0.982626289687,
			"-0.014": 0.793581736968,
			"-0.013": 0.823789498883,
			"-0.012": 0.549265150336,
			"-0.011": 0.565413962806,
			"-0.01": 0.906261650843,
			"-0.009": 2.63224951026,
			"-0.008": 7.42761591846,
			"-0.007": 13.5406660912,
			"-0.006": 20.478075666,
			"-0.005": 22.7536802668,
			"-0.004": 29.1885058665,
			"-0.003": 21.9796862329,
			"-0.002": 21.7379990306,
			"-0.001": 17.7749828799,
			"0.0": 15.5343107503,
			"0.001": 18.5180777006,
			"0.002": 16.4602822245,
			"0.003": 6.41712636017,
			"0.004": 5.78401974839,
			"0.005": 6.30830156563,
			"0.006": 4.87891569775,
			"0.007": 6.69232393584,
			"0.008": 7.05215936837,
			"0.009": 7.60360296739,
			"0.01": 11.5476751787,
			"0.011": 18.6467588053,
			"0.012": 8.97053758383,
			"0.013": 0.00209785928773,
			"0.014": 0.0,
			"0.015": 0.0,
			"0.016": 0.0,
			"0.017": 0.0,
			"0.018": 0.0,
			"0.019": 0.0,
			"0.02": 0.0,
			"0.021": 0.0,
			"0.022": 0.0,
			"0.023": 0.0,
			"0.024": 0.0,
			"0.025": 0.0
		}
	}
}
