{
	 "smiles": "COC1=CC=CC=C1C1(C)CCC2=C(C3=C1C=C(C)O3)C1=C(O2)C=CC=C1", 
	 "Tm": 431.15, 
	 "num_atms": 49, 
	 "gaussian": { 
		 "optdone": 1, 
		 "sigma_profile": "yes", 
		 "theory": "DFT", 
		 "functional": "B3LYP", 
		 "basiset": "6-31G**", 
		 "properties": { 
			 "R2extent": 9905.6189, 
			 "electric_dipole_moment_norm": 2.77308470119, 
			 "electric_quadrupole_moment_norm": 15.495071458, 
			 "total_energy": -1153.47006078, 
			 "HOMO_LUMO_gap": 0.16404, 
			 "cosmo_polarized_energy": -9.39, 
			 "cosmo_cavitation_energy": 49.02, 
			 "cosmo_dispersion_energy": -33.95, 
			 "cosmo_repulsion_energy": 2.54, 
			 "cosmo_total_nonelectrostatic_energy": 17.61, 
			 "SMD_solvation_energy": 9.16 
		},
		"coords": [
			{
				"x": -2.2236904441,
				"y": 4.3020867072,
				"z": 2.6211166893,
				"element": "C" 
			},
			{
				"x": -1.9362978777,
				"y": 3.0473109223,
				"z": 2.0258694013,
				"element": "O" 
			},
			{
				"x": -1.698702098,
				"y": 2.9888733897,
				"z": 0.6736842792,
				"element": "C" 
			},
			{
				"x": -1.7247358809,
				"y": 4.1336651469,
				"z": -0.1305649187,
				"element": "C" 
			},
			{
				"x": -1.4711053399,
				"y": 4.0427313611,
				"z": -1.5003290298,
				"element": "C" 
			},
			{
				"x": -1.1888424653,
				"y": 2.8066398692,
				"z": -2.0665675578,
				"element": "C" 
			},
			{
				"x": -1.1650558343,
				"y": 1.6686241224,
				"z": -1.2556155934,
				"element": "C" 
			},
			{
				"x": -1.4179233325,
				"y": 1.7114035239,
				"z": 0.119864655,
				"element": "C" 
			},
			{
				"x": -1.4088438046,
				"y": 0.4170910255,
				"z": 0.9770070508,
				"element": "C" 
			},
			{
				"x": -2.8189954944,
				"y": 0.20489885,
				"z": 1.5941366399,
				"element": "C" 
			},
			{
				"x": -0.3983141832,
				"y": 0.5230989106,
				"z": 2.1672961677,
				"element": "C" 
			},
			{
				"x": 1.0231501502,
				"y": 1.0183660573,
				"z": 1.8525653745,
				"element": "C" 
			},
			{
				"x": 1.8444507891,
				"y": 0.0725428457,
				"z": 1.0486975738,
				"element": "C" 
			},
			{
				"x": 1.5058623961,
				"y": -0.9499419532,
				"z": 0.20364123,
				"element": "C" 
			},
			{
				"x": 0.1586530278,
				"y": -1.3398920945,
				"z": -0.1428931525,
				"element": "C" 
			},
			{
				"x": -1.0827119119,
				"y": -0.8103403778,
				"z": 0.1309819051,
				"element": "C" 
			},
			{
				"x": -2.0171522473,
				"y": -1.6710980096,
				"z": -0.5464887149,
				"element": "C" 
			},
			{
				"x": -1.3031274516,
				"y": -2.646668059,
				"z": -1.1741166103,
				"element": "C" 
			},
			{
				"x": -1.672874518,
				"y": -3.8156858881,
				"z": -2.0168359425,
				"element": "C" 
			},
			{
				"x": 0.0302644717,
				"y": -2.4561805039,
				"z": -0.9340725865,
				"element": "O" 
			},
			{
				"x": 2.7599582531,
				"y": -1.5115892621,
				"z": -0.2714452715,
				"element": "C" 
			},
			{
				"x": 3.7658735713,
				"y": -0.7475683447,
				"z": 0.3460922316,
				"element": "C" 
			},
			{
				"x": 3.2103111685,
				"y": 0.2144513777,
				"z": 1.1483511218,
				"element": "O" 
			},
			{
				"x": 5.1249616437,
				"y": -0.9599622601,
				"z": 0.1557348135,
				"element": "C" 
			},
			{
				"x": 5.4777942619,
				"y": -1.9993104591,
				"z": -0.7054778683,
				"element": "C" 
			},
			{
				"x": 4.4959256026,
				"y": -2.7818227656,
				"z": -1.3393955757,
				"element": "C" 
			},
			{
				"x": 3.1370804919,
				"y": -2.5520184547,
				"z": -1.1336866432,
				"element": "C" 
			},
			{
				"x": -3.1351704912,
				"y": 4.7500764677,
				"z": 2.2054626147,
				"element": "H" 
			},
			{
				"x": -1.3918507852,
				"y": 5.0081466242,
				"z": 2.5033961559,
				"element": "H" 
			},
			{
				"x": -2.3755029797,
				"y": 4.1015426655,
				"z": 3.683028861,
				"element": "H" 
			},
			{
				"x": -1.9415503391,
				"y": 5.1016009563,
				"z": 0.3042754435,
				"element": "H" 
			},
			{
				"x": -1.4950065822,
				"y": 4.9418421029,
				"z": -2.1094467474,
				"element": "H" 
			},
			{
				"x": -0.9851967244,
				"y": 2.716754426,
				"z": -3.1291812803,
				"element": "H" 
			},
			{
				"x": -0.9441425147,
				"y": 0.7092006294,
				"z": -1.7072174183,
				"element": "H" 
			},
			{
				"x": -2.843818088,
				"y": -0.7279210423,
				"z": 2.1670865087,
				"element": "H" 
			},
			{
				"x": -3.5841111436,
				"y": 0.1472421001,
				"z": 0.8152918112,
				"element": "H" 
			},
			{
				"x": -3.0769569208,
				"y": 1.0307047955,
				"z": 2.2569739003,
				"element": "H" 
			},
			{
				"x": -0.3413427089,
				"y": -0.4628633278,
				"z": 2.6426528004,
				"element": "H" 
			},
			{
				"x": -0.8195705341,
				"y": 1.2099380642,
				"z": 2.9018497594,
				"element": "H" 
			},
			{
				"x": 1.5503373593,
				"y": 1.1966273546,
				"z": 2.7981447768,
				"element": "H" 
			},
			{
				"x": 0.9777938324,
				"y": 1.9931591125,
				"z": 1.3474543913,
				"element": "H" 
			},
			{
				"x": -3.0928158749,
				"y": -1.5763233866,
				"z": -0.5647466611,
				"element": "H" 
			},
			{
				"x": -2.7577232559,
				"y": -3.8560053353,
				"z": -2.1394422314,
				"element": "H" 
			},
			{
				"x": -1.2181106742,
				"y": -3.7549474061,
				"z": -3.0128232909,
				"element": "H" 
			},
			{
				"x": -1.3444488279,
				"y": -4.7590373754,
				"z": -1.5643736877,
				"element": "H" 
			},
			{
				"x": 5.8657660379,
				"y": -0.3443587165,
				"z": 0.6544745186,
				"element": "H" 
			},
			{
				"x": 6.5280344301,
				"y": -2.2063735656,
				"z": -0.8881054407,
				"element": "H" 
			},
			{
				"x": 4.8055751184,
				"y": -3.5832975494,
				"z": -2.003921881,
				"element": "H" 
			},
			{
				"x": 2.3850987225,
				"y": -3.1591132708,
				"z": -1.623482571,
				"element": "H" 
			}
		],
		 "valence_orbital": [ 
			{
				"type": "occ",
				"energy": -0.24248,
				"method": "rhf"
			},
			{
				"type": "occ",
				"energy": -0.23315,
				"method": "rhf"
			},
			{
				"type": "occ",
				"energy": -0.22353,
				"method": "rhf"
			},
			{
				"type": "occ",
				"energy": -0.21656,
				"method": "rhf"
			},
			{
				"type": "occ",
				"energy": -0.17969,
				"method": "rhf"
			},
			{
				"type": "unocc",
				"energy": -0.01565,
				"method": "rhf"
			},
			{
				"type": "unocc",
				"energy": 0.00243,
				"method": "rhf"
			},
			{
				"type": "unocc",
				"energy": 0.00845,
				"method": "rhf"
			},
			{
				"type": "unocc",
				"energy": 0.0159,
				"method": "rhf"
			},
			{
				"type": "unocc",
				"energy": 0.02348,
				"method": "rhf"
			}
		],
		"cosmo_sigma_profile": { 
			"-0.025": 0.0,
			"-0.024": 0.0,
			"-0.023": 0.0,
			"-0.022": 0.0,
			"-0.021": 0.0,
			"-0.02": 0.0,
			"-0.019": 0.0,
			"-0.018": 0.0,
			"-0.017": 0.0,
			"-0.016": 0.0,
			"-0.015": 0.0,
			"-0.014": 0.0,
			"-0.013": 0.0,
			"-0.012": 0.0,
			"-0.011": 0.0,
			"-0.01": 0.0,
			"-0.009": 0.0,
			"-0.008": 0.0,
			"-0.007": 1.12039889153,
			"-0.006": 10.4059493294,
			"-0.005": 28.2601994405,
			"-0.004": 33.14324475,
			"-0.003": 38.7083544575,
			"-0.002": 35.4671960828,
			"-0.001": 34.9587577704,
			"0.0": 31.2445399353,
			"0.001": 34.5121660964,
			"0.002": 33.462165669,
			"0.003": 37.5680491045,
			"0.004": 28.5725386399,
			"0.005": 21.1702192893,
			"0.006": 15.2753577638,
			"0.007": 4.23551345809,
			"0.008": 0.888840522198,
			"0.009": 0.676538228272,
			"0.01": 0.0,
			"0.011": 0.0,
			"0.012": 0.0,
			"0.013": 0.0,
			"0.014": 0.0,
			"0.015": 0.0,
			"0.016": 0.0,
			"0.017": 0.0,
			"0.018": 0.0,
			"0.019": 0.0,
			"0.02": 0.0,
			"0.021": 0.0,
			"0.022": 0.0,
			"0.023": 0.0,
			"0.024": 0.0,
			"0.025": 0.0
		}
	}
}
