{
	 "smiles": "OC(=O)C1=CC(=CC=C1)S(=O)(=O)NC1=C(Cl)C=CC=C1", 
	 "Tm": 460.15, 
	 "num_atms": 30, 
	 "gaussian": { 
		 "optdone": 1, 
		 "sigma_profile": "yes", 
		 "theory": "DFT", 
		 "functional": "B3LYP", 
		 "basiset": "6-31G**", 
		 "properties": { 
			 "R2extent": 8331.064, 
			 "electric_dipole_moment_norm": 3.48764541919, 
			 "electric_quadrupole_moment_norm": 37.22511204, 
			 "total_energy": -1715.36883669, 
			 "HOMO_LUMO_gap": 0.16465, 
			 "cosmo_polarized_energy": -23.9, 
			 "cosmo_cavitation_energy": 38.67, 
			 "cosmo_dispersion_energy": -27.75, 
			 "cosmo_repulsion_energy": 2.08, 
			 "cosmo_total_nonelectrostatic_energy": 13.0, 
			 "SMD_solvation_energy": 6.64 
		},
		"coords": [
			{
				"x": -0.9930102015,
				"y": -4.8796950602,
				"z": 1.3094812368,
				"element": "O" 
			},
			{
				"x": -0.3001903135,
				"y": -3.8780664898,
				"z": 0.7083511451,
				"element": "C" 
			},
			{
				"x": 0.5396281163,
				"y": -4.129879101,
				"z": -0.1211059031,
				"element": "O" 
			},
			{
				"x": -0.6320487095,
				"y": -2.4750537141,
				"z": 1.1336795835,
				"element": "C" 
			},
			{
				"x": -0.2916220425,
				"y": -1.44077532,
				"z": 0.2555346352,
				"element": "C" 
			},
			{
				"x": -0.5694366723,
				"y": -0.1251755868,
				"z": 0.6181823277,
				"element": "C" 
			},
			{
				"x": -1.1719978051,
				"y": 0.1904362542,
				"z": 1.8374033847,
				"element": "C" 
			},
			{
				"x": -1.4901513505,
				"y": -0.8437040066,
				"z": 2.7187540745,
				"element": "C" 
			},
			{
				"x": -1.2223614975,
				"y": -2.1666871383,
				"z": 2.3690167654,
				"element": "C" 
			},
			{
				"x": -0.2047070633,
				"y": 1.2052829936,
				"z": -0.5345622202,
				"element": "S" 
			},
			{
				"x": -0.6727730305,
				"y": 0.8385761904,
				"z": -1.8710759848,
				"element": "O" 
			},
			{
				"x": -0.6412853257,
				"y": 2.4604441592,
				"z": 0.0858492595,
				"element": "O" 
			},
			{
				"x": 1.508330181,
				"y": 1.0699539718,
				"z": -0.547643997,
				"element": "N" 
			},
			{
				"x": 2.2671986818,
				"y": 1.7876987533,
				"z": -1.5149482916,
				"element": "C" 
			},
			{
				"x": 3.2807635903,
				"y": 2.6777577866,
				"z": -1.1181786665,
				"element": "C" 
			},
			{
				"x": 3.5784825241,
				"y": 2.9647651099,
				"z": 0.5966583807,
				"element": "Cl" 
			},
			{
				"x": 4.0804183493,
				"y": 3.3315301057,
				"z": -2.0526512866,
				"element": "C" 
			},
			{
				"x": 3.861686702,
				"y": 3.1210839011,
				"z": -3.4126591853,
				"element": "C" 
			},
			{
				"x": 2.8572264743,
				"y": 2.2436548292,
				"z": -3.8243012565,
				"element": "C" 
			},
			{
				"x": 2.0766466137,
				"y": 1.5715809839,
				"z": -2.8881605073,
				"element": "C" 
			},
			{
				"x": -1.7433397759,
				"y": -4.5251382298,
				"z": 1.8060994126,
				"element": "H" 
			},
			{
				"x": 0.1828308029,
				"y": -1.6805847444,
				"z": -0.6892219331,
				"element": "H" 
			},
			{
				"x": -1.3786537159,
				"y": 1.2270881844,
				"z": 2.0794362699,
				"element": "H" 
			},
			{
				"x": -1.9417086669,
				"y": -0.6165451572,
				"z": 3.679067233,
				"element": "H" 
			},
			{
				"x": -1.4456747626,
				"y": -2.9540073962,
				"z": 3.0846499114,
				"element": "H" 
			},
			{
				"x": 1.8455263513,
				"y": 1.2515471863,
				"z": 0.3971947994,
				"element": "H" 
			},
			{
				"x": 4.8586211088,
				"y": 4.0033011021,
				"z": -1.7080295268,
				"element": "H" 
			},
			{
				"x": 4.4782159323,
				"y": 3.6366994978,
				"z": -4.1419888713,
				"element": "H" 
			},
			{
				"x": 2.6862967878,
				"y": 2.0673630917,
				"z": -4.8816060694,
				"element": "H" 
			},
			{
				"x": 1.3067887171,
				"y": 0.8784478433,
				"z": -3.20182472,
				"element": "H" 
			}
		],
		 "valence_orbital": [ 
			{
				"type": "occ",
				"energy": -0.29798,
				"method": "rhf"
			},
			{
				"type": "occ",
				"energy": -0.29433,
				"method": "rhf"
			},
			{
				"type": "occ",
				"energy": -0.28409,
				"method": "rhf"
			},
			{
				"type": "occ",
				"energy": -0.25806,
				"method": "rhf"
			},
			{
				"type": "occ",
				"energy": -0.23922,
				"method": "rhf"
			},
			{
				"type": "unocc",
				"energy": -0.07457,
				"method": "rhf"
			},
			{
				"type": "unocc",
				"energy": -0.05966,
				"method": "rhf"
			},
			{
				"type": "unocc",
				"energy": -0.02066,
				"method": "rhf"
			},
			{
				"type": "unocc",
				"energy": -0.01827,
				"method": "rhf"
			},
			{
				"type": "unocc",
				"energy": 0.0141,
				"method": "rhf"
			}
		],
		"cosmo_sigma_profile": { 
			"-0.025": 0.0,
			"-0.024": 0.0,
			"-0.023": 0.0,
			"-0.022": 0.0,
			"-0.021": 0.0,
			"-0.02": 0.0721206319439,
			"-0.019": 0.94067035203,
			"-0.018": 1.22525379919,
			"-0.017": 0.729884825066,
			"-0.016": 1.12387389921,
			"-0.015": 0.724652135907,
			"-0.014": 2.02172908253,
			"-0.013": 1.8390917436,
			"-0.012": 1.29096791562,
			"-0.011": 2.37672972996,
			"-0.01": 2.31673426596,
			"-0.009": 3.78473373926,
			"-0.008": 6.53304124278,
			"-0.007": 13.4842131608,
			"-0.006": 15.119825476,
			"-0.005": 15.7177783061,
			"-0.004": 16.9510560072,
			"-0.003": 15.9320889667,
			"-0.002": 17.2062082933,
			"-0.001": 20.6223005406,
			"0.0": 29.9495734762,
			"0.001": 25.949345585,
			"0.002": 19.2600220701,
			"0.003": 22.1707306061,
			"0.004": 16.9676463249,
			"0.005": 6.33374962487,
			"0.006": 5.07773093606,
			"0.007": 5.58488808373,
			"0.008": 6.95073466075,
			"0.009": 9.42651634095,
			"0.01": 12.9391852877,
			"0.011": 9.36010384318,
			"0.012": 3.04641724375,
			"0.013": 0.51503589501,
			"0.014": 0.0,
			"0.015": 0.0,
			"0.016": 0.0,
			"0.017": 0.0,
			"0.018": 0.0,
			"0.019": 0.0,
			"0.02": 0.0,
			"0.021": 0.0,
			"0.022": 0.0,
			"0.023": 0.0,
			"0.024": 0.0,
			"0.0": 0.0
		}
	}
}
