{
	 "smiles": "COC1=CC2=C(NC3=C2CCC3)C=C1", 
	 "Tm": 393.15, 
	 "num_atms": 27, 
	 "gaussian": { 
		 "optdone": 1, 
		 "sigma_profile": "yes", 
		 "theory": "DFT", 
		 "functional": "B3LYP", 
		 "basiset": "6-31G**", 
		 "properties": { 
			 "R2extent": 3309.8575, 
			 "electric_dipole_moment_norm": 2.07879609871, 
			 "electric_quadrupole_moment_norm": 12.6025355338, 
			 "total_energy": -595.077490467, 
			 "HOMO_LUMO_gap": 0.18831, 
			 "cosmo_polarized_energy": -9.68, 
			 "cosmo_cavitation_energy": 29.28, 
			 "cosmo_dispersion_energy": -22.13, 
			 "cosmo_repulsion_energy": 1.75, 
			 "cosmo_total_nonelectrostatic_energy": 8.9, 
			 "SMD_solvation_energy": 4.58 
		},
		"coords": [
			{
				"x": -0.9985527846,
				"y": 4.0452809798,
				"z": 2.1983128134,
				"element": "C" 
			},
			{
				"x": -0.7584184318,
				"y": 3.9403994973,
				"z": 0.8083496534,
				"element": "O" 
			},
			{
				"x": -0.4854491181,
				"y": 2.6955869837,
				"z": 0.2961040044,
				"element": "C" 
			},
			{
				"x": -0.4299601898,
				"y": 1.5277114598,
				"z": 1.0518145638,
				"element": "C" 
			},
			{
				"x": -0.1388152628,
				"y": 0.3131298924,
				"z": 0.3984241333,
				"element": "C" 
			},
			{
				"x": 0.0837338741,
				"y": 0.3118180897,
				"z": -1.0110656034,
				"element": "C" 
			},
			{
				"x": 0.3378021146,
				"y": -0.9980998327,
				"z": -1.410160346,
				"element": "N" 
			},
			{
				"x": 0.3014044159,
				"y": -1.7951838298,
				"z": -0.2888701957,
				"element": "C" 
			},
			{
				"x": 0.0131666341,
				"y": -1.0492277969,
				"z": 0.8206980262,
				"element": "C" 
			},
			{
				"x": -0.106705623,
				"y": -1.9206672277,
				"z": 2.0407599167,
				"element": "C" 
			},
			{
				"x": 0.4873133677,
				"y": -3.2779955625,
				"z": 1.5335397354,
				"element": "C" 
			},
			{
				"x": 0.422825978,
				"y": -3.263952769,
				"z": -0.0297955882,
				"element": "C" 
			},
			{
				"x": 0.030343654,
				"y": 1.4896292739,
				"z": -1.7613988364,
				"element": "C" 
			},
			{
				"x": -0.2553531651,
				"y": 2.6746505364,
				"z": -1.0993036013,
				"element": "C" 
			},
			{
				"x": -1.872966582,
				"y": 3.4561112832,
				"z": 2.5071830037,
				"element": "H" 
			},
			{
				"x": -0.1298321821,
				"y": 3.7220853595,
				"z": 2.7882242856,
				"element": "H" 
			},
			{
				"x": -1.1915577891,
				"y": 5.1015226611,
				"z": 2.395684263,
				"element": "H" 
			},
			{
				"x": -0.6035417508,
				"y": 1.5365184845,
				"z": 2.1212866097,
				"element": "H" 
			},
			{
				"x": 0.5751204745,
				"y": -1.2856809058,
				"z": -2.3450191895,
				"element": "H" 
			},
			{
				"x": -1.1530656001,
				"y": -2.0371373898,
				"z": 2.3580485499,
				"element": "H" 
			},
			{
				"x": 0.4428224363,
				"y": -1.5483624161,
				"z": 2.9136874239,
				"element": "H" 
			},
			{
				"x": 1.5360878695,
				"y": -3.3434207136,
				"z": 1.8399669749,
				"element": "H" 
			},
			{
				"x": -0.0280554884,
				"y": -4.1444945242,
				"z": 1.9576224736,
				"element": "H" 
			},
			{
				"x": 1.3073058125,
				"y": -3.7304688652,
				"z": -0.4807859756,
				"element": "H" 
			},
			{
				"x": -0.4516350223,
				"y": -3.8143586758,
				"z": -0.4066380388,
				"element": "H" 
			},
			{
				"x": 0.2033030688,
				"y": 1.4863597816,
				"z": -2.8342273367,
				"element": "H" 
			},
			{
				"x": -0.31072071,
				"y": 3.6152462261,
				"z": -1.6367417194,
				"element": "H" 
			}
		],
		 "valence_orbital": [ 
			{
				"type": "occ",
				"energy": -0.30987,
				"method": "rhf"
			},
			{
				"type": "occ",
				"energy": -0.28231,
				"method": "rhf"
			},
			{
				"type": "occ",
				"energy": -0.25967,
				"method": "rhf"
			},
			{
				"type": "occ",
				"energy": -0.18908,
				"method": "rhf"
			},
			{
				"type": "occ",
				"energy": -0.18609,
				"method": "rhf"
			},
			{
				"type": "unocc",
				"energy": 0.00222,
				"method": "rhf"
			},
			{
				"type": "unocc",
				"energy": 0.0454,
				"method": "rhf"
			},
			{
				"type": "unocc",
				"energy": 0.0812,
				"method": "rhf"
			},
			{
				"type": "unocc",
				"energy": 0.08769,
				"method": "rhf"
			},
			{
				"type": "unocc",
				"energy": 0.09815,
				"method": "rhf"
			}
		],
		"cosmo_sigma_profile": { 
			"-0.025": 0.0,
			"-0.024": 0.0,
			"-0.023": 0.0,
			"-0.022": 0.0,
			"-0.021": 0.0,
			"-0.02": 0.0,
			"-0.019": 0.0,
			"-0.018": 0.0,
			"-0.017": 0.0,
			"-0.016": 0.0103480553166,
			"-0.015": 1.00110444657,
			"-0.014": 1.41959581553,
			"-0.013": 1.30471907418,
			"-0.012": 0.839542012851,
			"-0.011": 1.42560129739,
			"-0.01": 1.13544874262,
			"-0.009": 1.0899834584,
			"-0.008": 1.40683016717,
			"-0.007": 1.29098831339,
			"-0.006": 4.07584158594,
			"-0.005": 10.4500714346,
			"-0.004": 17.055296481,
			"-0.003": 26.2446316066,
			"-0.002": 25.7389568029,
			"-0.001": 25.2306616804,
			"0.0": 20.3307938443,
			"0.001": 15.8632365215,
			"0.002": 8.32102186954,
			"0.003": 7.6543478722,
			"0.004": 10.0133155967,
			"0.005": 12.6890339544,
			"0.006": 15.8808556903,
			"0.007": 14.2681614318,
			"0.008": 1.76542218633,
			"0.009": 1.20843353411,
			"0.01": 1.95893723017,
			"0.011": 1.53467228943,
			"0.012": 0.219214346415,
			"0.013": 0.0,
			"0.014": 0.0,
			"0.015": 0.0,
			"0.016": 0.0,
			"0.017": 0.0,
			"0.018": 0.0,
			"0.019": 0.0,
			"0.02": 0.0,
			"0.021": 0.0,
			"0.022": 0.0,
			"0.023": 0.0,
			"0.024": 0.0,
			"0.025": 0.0
		}
	}
}
