{
	 "smiles": "N1C=CN=N1", 
	 "Tm": 296.65, 
	 "num_atms": 8, 
	 "gaussian": { 
		 "optdone": 1, 
		 "sigma_profile": "yes", 
		 "theory": "DFT", 
		 "functional": "B3LYP", 
		 "basiset": "6-31G**", 
		 "properties": { 
			 "R2extent": 726.3544, 
			 "electric_dipole_moment_norm": 4.38128522924, 
			 "electric_quadrupole_moment_norm": 15.2112543743, 
			 "total_energy": -242.223098708, 
			 "HOMO_LUMO_gap": 0.26087, 
			 "cosmo_polarized_energy": -13.92, 
			 "cosmo_cavitation_energy": 12.12, 
			 "cosmo_dispersion_energy": -9.37, 
			 "cosmo_repulsion_energy": 0.83, 
			 "cosmo_total_nonelectrostatic_energy": 3.58, 
			 "SMD_solvation_energy": 1.6 
		},
		"coords": [
			{
				"x": -0.54532183,
				"y": -1.6529215472,
				"z": -1.0519414393,
				"element": "N" 
			},
			{
				"x": 0.3320237429,
				"y": -0.6686201979,
				"z": -0.7321992387,
				"element": "C" 
			},
			{
				"x": 1.2813958092,
				"y": -1.3185627108,
				"z": 0.0229996533,
				"element": "C" 
			},
			{
				"x": 0.939359508,
				"y": -2.6371714707,
				"z": 0.121118462,
				"element": "N" 
			},
			{
				"x": -0.170500589,
				"y": -2.842550957,
				"z": -0.5306995919,
				"element": "N" 
			},
			{
				"x": -1.3914978819,
				"y": -1.5972224547,
				"z": -1.6000917746,
				"element": "H" 
			},
			{
				"x": 0.2132373348,
				"y": 0.3546752221,
				"z": -1.0514853396,
				"element": "H" 
			},
			{
				"x": 2.171103906,
				"y": -0.9263258836,
				"z": 0.4916992688,
				"element": "H" 
			}
		],
		 "valence_orbital": [ 
			{
				"type": "occ",
				"energy": -0.4487,
				"method": "rhf"
			},
			{
				"type": "occ",
				"energy": -0.32986,
				"method": "rhf"
			},
			{
				"type": "occ",
				"energy": -0.30321,
				"method": "rhf"
			},
			{
				"type": "occ",
				"energy": -0.26725,
				"method": "rhf"
			},
			{
				"type": "occ",
				"energy": -0.26454,
				"method": "rhf"
			},
			{
				"type": "unocc",
				"energy": -0.00367,
				"method": "rhf"
			},
			{
				"type": "unocc",
				"energy": 0.04966,
				"method": "rhf"
			},
			{
				"type": "unocc",
				"energy": 0.06795,
				"method": "rhf"
			},
			{
				"type": "unocc",
				"energy": 0.1205,
				"method": "rhf"
			},
			{
				"type": "unocc",
				"energy": 0.15012,
				"method": "rhf"
			}
		],
		"cosmo_sigma_profile": { 
			"-0.025": 0.0,
			"-0.024": 0.0,
			"-0.023": 0.0,
			"-0.022": 0.0,
			"-0.021": 0.0,
			"-0.02": 0.0,
			"-0.019": 0.0,
			"-0.018": 1.11604382662,
			"-0.017": 1.81249905547,
			"-0.016": 1.52691026587,
			"-0.015": 0.933511015665,
			"-0.014": 0.759503761257,
			"-0.013": 1.22130190989,
			"-0.012": 1.36328996071,
			"-0.011": 1.65173739822,
			"-0.01": 3.14870152566,
			"-0.009": 2.74455507751,
			"-0.008": 4.28951672125,
			"-0.007": 3.55743982848,
			"-0.006": 3.42739571311,
			"-0.005": 3.63728254314,
			"-0.004": 3.97367848171,
			"-0.003": 3.04151073784,
			"-0.002": 3.24071063787,
			"-0.001": 3.8726009942,
			"0.0": 4.14018019083,
			"0.001": 6.21640326759,
			"0.002": 5.35117517448,
			"0.003": 4.8716949261,
			"0.004": 3.03147342925,
			"0.005": 2.22093825982,
			"0.006": 1.49742482068,
			"0.007": 2.84258006207,
			"0.008": 2.5118765175,
			"0.009": 1.89828663205,
			"0.01": 3.53488112002,
			"0.011": 3.72547363429,
			"0.012": 3.4610651069,
			"0.013": 2.5420967474,
			"0.014": 2.03000998647,
			"0.015": 1.48875829277,
			"0.016": 0.877293709515,
			"0.017": 0.0981246408232,
			"0.018": 0.0,
			"0.019": 0.0,
			"0.02": 0.0,
			"0.021": 0.0,
			"0.022": 0.0,
			"0.023": 0.0,
			"0.024": 0.0,
			"0.025": 0.0
		}
	}
}
