{
	 "smiles": "OC1CCC2=C1C=C(F)C=C2", 
	 "Tm": 315.15, 
	 "num_atms": 20, 
	 "gaussian": { 
		 "optdone": 1, 
		 "sigma_profile": "yes", 
		 "theory": "DFT", 
		 "functional": "B3LYP", 
		 "basiset": "6-31G**", 
		 "properties": { 
			 "R2extent": 1796.8343, 
			 "electric_dipole_moment_norm": 2.30417170801, 
			 "electric_quadrupole_moment_norm": 5.11850086646, 
			 "total_energy": -523.437229049, 
			 "HOMO_LUMO_gap": 0.21842, 
			 "cosmo_polarized_energy": -7.43, 
			 "cosmo_cavitation_energy": 23.39, 
			 "cosmo_dispersion_energy": -17.23, 
			 "cosmo_repulsion_energy": 1.37, 
			 "cosmo_total_nonelectrostatic_energy": 7.52, 
			 "SMD_solvation_energy": 3.94 
		},
		"coords": [
			{
				"x": 2.3917678693,
				"y": 1.0748340337,
				"z": -0.8388907587,
				"element": "O" 
			},
			{
				"x": 1.686382766,
				"y": -0.1656157742,
				"z": -0.9334342932,
				"element": "C" 
			},
			{
				"x": 1.3936183272,
				"y": -0.6149538232,
				"z": -2.3896724201,
				"element": "C" 
			},
			{
				"x": -0.0654937221,
				"y": -0.1878511612,
				"z": -2.6944701113,
				"element": "C" 
			},
			{
				"x": -0.6863433947,
				"y": -0.0709558405,
				"z": -1.3164482929,
				"element": "C" 
			},
			{
				"x": 0.3002605746,
				"y": -0.0823152039,
				"z": -0.3216468932,
				"element": "C" 
			},
			{
				"x": -0.0302759345,
				"y": 0.0444452566,
				"z": 1.0277206761,
				"element": "C" 
			},
			{
				"x": -1.3774666601,
				"y": 0.1621798385,
				"z": 1.3499665923,
				"element": "C" 
			},
			{
				"x": -1.7316815226,
				"y": 0.2720397999,
				"z": 2.6493293761,
				"element": "F" 
			},
			{
				"x": -2.381877258,
				"y": 0.1691878013,
				"z": 0.3828075976,
				"element": "C" 
			},
			{
				"x": -2.0315996074,
				"y": 0.0550281565,
				"z": -0.9641978532,
				"element": "C" 
			},
			{
				"x": 1.7853097321,
				"y": 1.7778404413,
				"z": -1.1092922617,
				"element": "H" 
			},
			{
				"x": 2.3335810181,
				"y": -0.8814172283,
				"z": -0.4171379603,
				"element": "H" 
			},
			{
				"x": 2.1307696776,
				"y": -0.1952417915,
				"z": -3.0789904038,
				"element": "H" 
			},
			{
				"x": 1.4701598589,
				"y": -1.7063712852,
				"z": -2.44669313,
				"element": "H" 
			},
			{
				"x": -0.5852893103,
				"y": -0.9100769932,
				"z": -3.3329114226,
				"element": "H" 
			},
			{
				"x": -0.1063947341,
				"y": 0.775124371,
				"z": -3.2217585999,
				"element": "H" 
			},
			{
				"x": 0.7202534534,
				"y": 0.0498213629,
				"z": 1.811447772,
				"element": "H" 
			},
			{
				"x": -3.4162466261,
				"y": 0.2603491324,
				"z": 0.6967478269,
				"element": "H" 
			},
			{
				"x": -2.8082345074,
				"y": 0.061148907,
				"z": -1.7243754403,
				"element": "H" 
			}
		],
		 "valence_orbital": [ 
			{
				"type": "occ",
				"energy": -0.33729,
				"method": "rhf"
			},
			{
				"type": "occ",
				"energy": -0.32059,
				"method": "rhf"
			},
			{
				"type": "occ",
				"energy": -0.27128,
				"method": "rhf"
			},
			{
				"type": "occ",
				"energy": -0.25395,
				"method": "rhf"
			},
			{
				"type": "occ",
				"energy": -0.23736,
				"method": "rhf"
			},
			{
				"type": "unocc",
				"energy": -0.01894,
				"method": "rhf"
			},
			{
				"type": "unocc",
				"energy": 0.00114,
				"method": "rhf"
			},
			{
				"type": "unocc",
				"energy": 0.0801,
				"method": "rhf"
			},
			{
				"type": "unocc",
				"energy": 0.09385,
				"method": "rhf"
			},
			{
				"type": "unocc",
				"energy": 0.11383,
				"method": "rhf"
			}
		],
		"cosmo_sigma_profile": { 
			"-0.025": 0.0,
			"-0.024": 0.0,
			"-0.023": 0.0,
			"-0.022": 0.0,
			"-0.021": 0.0,
			"-0.02": 0.0,
			"-0.019": 0.0,
			"-0.018": 0.0,
			"-0.017": 0.0,
			"-0.016": 0.0,
			"-0.015": 0.252939062647,
			"-0.014": 1.05416243695,
			"-0.013": 0.561209977006,
			"-0.012": 0.658208196412,
			"-0.011": 0.831144915307,
			"-0.01": 1.28728003777,
			"-0.009": 1.2617709366,
			"-0.008": 1.08458096516,
			"-0.007": 3.08004818477,
			"-0.006": 5.77559130347,
			"-0.005": 7.94385053844,
			"-0.004": 15.4025229326,
			"-0.003": 17.8518743244,
			"-0.002": 17.8695050591,
			"-0.001": 14.5941307713,
			"0.0": 15.303080443,
			"0.001": 14.481808853,
			"0.002": 11.8763122611,
			"0.003": 13.1082950302,
			"0.004": 17.5237575233,
			"0.005": 10.4243389108,
			"0.006": 1.22607989832,
			"0.007": 0.798109035983,
			"0.008": 1.36611811713,
			"0.009": 1.36400665725,
			"0.01": 1.12710421242,
			"0.011": 0.927640210437,
			"0.012": 1.45144811947,
			"0.013": 1.36559802011,
			"0.014": 2.52257500097,
			"0.015": 0.566182203456,
			"0.016": 0.0,
			"0.017": 0.0,
			"0.018": 0.0,
			"0.019": 0.0,
			"0.02": 0.0,
			"0.021": 0.0,
			"0.022": 0.0,
			"0.023": 0.0,
			"0.024": 0.0,
			"0.025": 0.0
		}
	}
}
