{
	 "smiles": "CC1=CC(C)=C(O1)C(O)=O", 
	 "Tm": 419.15, 
	 "num_atms": 18, 
	 "gaussian": { 
		 "optdone": 1, 
		 "sigma_profile": "yes", 
		 "theory": "DFT", 
		 "functional": "B3LYP", 
		 "basiset": "6-31G**", 
		 "properties": { 
			 "R2extent": 2445.6033, 
			 "electric_dipole_moment_norm": 2.49265842024, 
			 "electric_quadrupole_moment_norm": 2.62543637325, 
			 "total_energy": -497.245424053, 
			 "HOMO_LUMO_gap": 0.19096, 
			 "cosmo_polarized_energy": -10.12, 
			 "cosmo_cavitation_energy": 22.64, 
			 "cosmo_dispersion_energy": -16.58, 
			 "cosmo_repulsion_energy": 1.37, 
			 "cosmo_total_nonelectrostatic_energy": 7.43, 
			 "SMD_solvation_energy": 5.9 
		},
		"coords": [
			{
				"x": -2.5811351403,
				"y": -2.2237328565,
				"z": -0.5256824735,
				"element": "C" 
			},
			{
				"x": -1.797627721,
				"y": -0.958756045,
				"z": -0.5040361107,
				"element": "C" 
			},
			{
				"x": -0.598390591,
				"y": -0.6076305713,
				"z": 0.0586663102,
				"element": "C" 
			},
			{
				"x": -0.3616283706,
				"y": 0.7627511352,
				"z": -0.2648176895,
				"element": "C" 
			},
			{
				"x": 0.8192278385,
				"y": 1.5987763955,
				"z": 0.125549029,
				"element": "C" 
			},
			{
				"x": -1.4517511589,
				"y": 1.1511319488,
				"z": -1.0125063058,
				"element": "C" 
			},
			{
				"x": -2.3290974431,
				"y": 0.1025086344,
				"z": -1.1598425592,
				"element": "O" 
			},
			{
				"x": -1.7581921707,
				"y": 2.4371880425,
				"z": -1.6155304883,
				"element": "C" 
			},
			{
				"x": -2.9347000999,
				"y": 2.4540545692,
				"z": -2.2895243165,
				"element": "O" 
			},
			{
				"x": -1.0317220659,
				"y": 3.4142305261,
				"z": -1.5308104759,
				"element": "O" 
			},
			{
				"x": -2.0538251803,
				"y": -3.000153831,
				"z": 0.0325701572,
				"element": "H" 
			},
			{
				"x": -3.5705550791,
				"y": -2.0841118618,
				"z": -0.0760501819,
				"element": "H" 
			},
			{
				"x": -2.7341529688,
				"y": -2.5769392277,
				"z": -1.5515684337,
				"element": "H" 
			},
			{
				"x": 0.046060633,
				"y": -1.2529057442,
				"z": 0.6395630866,
				"element": "H" 
			},
			{
				"x": 0.5082260574,
				"y": 2.4732385197,
				"z": 0.7047542471,
				"element": "H" 
			},
			{
				"x": 1.5266848548,
				"y": 1.0164054534,
				"z": 0.7213836238,
				"element": "H" 
			},
			{
				"x": 1.3374772001,
				"y": 1.9847423319,
				"z": -0.7572520279,
				"element": "H" 
			},
			{
				"x": -3.015698594,
				"y": 3.357202581,
				"z": -2.6376653911,
				"element": "H" 
			}
		],
		 "valence_orbital": [ 
			{
				"type": "occ",
				"energy": -0.35693,
				"method": "rhf"
			},
			{
				"type": "occ",
				"energy": -0.30998,
				"method": "rhf"
			},
			{
				"type": "occ",
				"energy": -0.27478,
				"method": "rhf"
			},
			{
				"type": "occ",
				"energy": -0.27088,
				"method": "rhf"
			},
			{
				"type": "occ",
				"energy": -0.22655,
				"method": "rhf"
			},
			{
				"type": "unocc",
				"energy": -0.03559,
				"method": "rhf"
			},
			{
				"type": "unocc",
				"energy": 0.04856,
				"method": "rhf"
			},
			{
				"type": "unocc",
				"energy": 0.08608,
				"method": "rhf"
			},
			{
				"type": "unocc",
				"energy": 0.10409,
				"method": "rhf"
			},
			{
				"type": "unocc",
				"energy": 0.10799,
				"method": "rhf"
			}
		],
		"cosmo_sigma_profile": { 
			"-0.025": 0.0,
			"-0.024": 0.0,
			"-0.023": 0.0,
			"-0.022": 0.0,
			"-0.021": 0.0,
			"-0.02": 0.0,
			"-0.019": 0.0,
			"-0.018": 0.558840210212,
			"-0.017": 1.16566548826,
			"-0.016": 0.72599731368,
			"-0.015": 0.458966449716,
			"-0.014": 0.769742763544,
			"-0.013": 0.855664937194,
			"-0.012": 0.290895933444,
			"-0.011": 1.10146985028,
			"-0.01": 0.935109900609,
			"-0.009": 0.404216849215,
			"-0.008": 0.657462225087,
			"-0.007": 2.20354036212,
			"-0.006": 6.49576696256,
			"-0.005": 12.4761583259,
			"-0.004": 13.5481583861,
			"-0.003": 13.3554272171,
			"-0.002": 17.8608284507,
			"-0.001": 18.9314705777,
			"0.0": 16.2762792128,
			"0.001": 12.5923015718,
			"0.002": 10.0080759009,
			"0.003": 9.45547504557,
			"0.004": 5.68888787642,
			"0.005": 4.15137085154,
			"0.006": 3.69382704634,
			"0.007": 3.69649338529,
			"0.008": 3.28143833124,
			"0.009": 4.27643327711,
			"0.01": 3.67186078563,
			"0.011": 3.7834895995,
			"0.012": 4.58542505512,
			"0.013": 1.47885224927,
			"0.014": 0.0,
			"0.015": 0.0,
			"0.016": 0.0,
			"0.017": 0.0,
			"0.018": 0.0,
			"0.019": 0.0,
			"0.02": 0.0,
			"0.021": 0.0,
			"0.022": 0.0,
			"0.023": 0.0,
			"0.024": 0.0,
			"0.025": 0.0
		}
	}
}
