{
	 "smiles": "NC1=C(C=C(C=C1)C(O)=O)[N+]([O-])=O", 
	 "Tm": 563.15, 
	 "num_atms": 19, 
	 "gaussian": { 
		 "optdone": 1, 
		 "sigma_profile": "yes", 
		 "theory": "DFT", 
		 "functional": "B3LYP", 
		 "basiset": "6-31G**", 
		 "properties": { 
			 "R2extent": 2911.5176, 
			 "electric_dipole_moment_norm": 7.87811258424, 
			 "electric_quadrupole_moment_norm": 17.1863354404, 
			 "total_energy": -680.674692625, 
			 "HOMO_LUMO_gap": 0.14598, 
			 "cosmo_polarized_energy": -23.05, 
			 "cosmo_cavitation_energy": 24.38, 
			 "cosmo_dispersion_energy": -18.35, 
			 "cosmo_repulsion_energy": 1.44, 
			 "cosmo_total_nonelectrostatic_energy": 7.47, 
			 "SMD_solvation_energy": 7.36 
		},
		"coords": [
			{
				"x": 3.1102342061,
				"y": 0.4589803786,
				"z": 1.6297446063,
				"element": "N" 
			},
			{
				"x": 1.7782497358,
				"y": 0.5717888923,
				"z": 1.4354832358,
				"element": "C" 
			},
			{
				"x": 1.1707609167,
				"y": 0.7637001504,
				"z": 0.1579717236,
				"element": "C" 
			},
			{
				"x": -0.2135851574,
				"y": 0.873995776,
				"z": 0.0215451816,
				"element": "C" 
			},
			{
				"x": -1.0542581509,
				"y": 0.8241374685,
				"z": 1.127455303,
				"element": "C" 
			},
			{
				"x": -0.469893531,
				"y": 0.6210983803,
				"z": 2.3964053425,
				"element": "C" 
			},
			{
				"x": 0.8947393684,
				"y": 0.4982568112,
				"z": 2.5453064902,
				"element": "C" 
			},
			{
				"x": -2.5242729157,
				"y": 0.9447287281,
				"z": 0.8904808332,
				"element": "C" 
			},
			{
				"x": -3.2989191196,
				"y": 1.240936572,
				"z": 1.9716902533,
				"element": "O" 
			},
			{
				"x": -3.037820649,
				"y": 0.7913280108,
				"z": -0.1925529796,
				"element": "O" 
			},
			{
				"x": 1.9620172866,
				"y": 0.8462124739,
				"z": -1.0616459443,
				"element": "N" 
			},
			{
				"x": 3.1995947726,
				"y": 0.7376892099,
				"z": -0.9772283409,
				"element": "O" 
			},
			{
				"x": 1.3786102955,
				"y": 1.020671995,
				"z": -2.1276279056,
				"element": "O" 
			},
			{
				"x": 3.4717968108,
				"y": 0.306375773,
				"z": 2.5564243453,
				"element": "H" 
			},
			{
				"x": 3.7185619195,
				"y": 0.4911770773,
				"z": 0.8234957112,
				"element": "H" 
			},
			{
				"x": -0.6359225916,
				"y": 1.0027530803,
				"z": -0.9669599093,
				"element": "H" 
			},
			{
				"x": -1.0908107074,
				"y": 0.5199081698,
				"z": 3.2834140737,
				"element": "H" 
			},
			{
				"x": 1.3217946832,
				"y": 0.3305537031,
				"z": 3.5298477816,
				"element": "H" 
			},
			{
				"x": -2.7503771729,
				"y": 1.5202073495,
				"z": 2.7169501985,
				"element": "H" 
			}
		],
		 "valence_orbital": [ 
			{
				"type": "occ",
				"energy": -0.31566,
				"method": "rhf"
			},
			{
				"type": "occ",
				"energy": -0.29915,
				"method": "rhf"
			},
			{
				"type": "occ",
				"energy": -0.2959,
				"method": "rhf"
			},
			{
				"type": "occ",
				"energy": -0.27763,
				"method": "rhf"
			},
			{
				"type": "occ",
				"energy": -0.24192,
				"method": "rhf"
			},
			{
				"type": "unocc",
				"energy": -0.09594,
				"method": "rhf"
			},
			{
				"type": "unocc",
				"energy": -0.05085,
				"method": "rhf"
			},
			{
				"type": "unocc",
				"energy": -0.01783,
				"method": "rhf"
			},
			{
				"type": "unocc",
				"energy": 0.04577,
				"method": "rhf"
			},
			{
				"type": "unocc",
				"energy": 0.05336,
				"method": "rhf"
			}
		],
		"cosmo_sigma_profile": { 
			"-0.025": 0.0,
			"-0.024": 0.0,
			"-0.023": 0.0,
			"-0.022": 0.0,
			"-0.021": 0.0,
			"-0.02": 0.0,
			"-0.019": 0.538029626534,
			"-0.018": 0.53615642824,
			"-0.017": 1.21884390871,
			"-0.016": 1.52184357212,
			"-0.015": 2.54492959973,
			"-0.014": 2.94303794949,
			"-0.013": 1.82199473896,
			"-0.012": 2.90876904986,
			"-0.011": 4.15146047784,
			"-0.01": 3.00266556137,
			"-0.009": 4.4334857824,
			"-0.008": 4.438255211,
			"-0.007": 5.46797522576,
			"-0.006": 5.67048888594,
			"-0.005": 6.18553767583,
			"-0.004": 7.02122837988,
			"-0.003": 10.4450623247,
			"-0.002": 11.9126451302,
			"-0.001": 14.0984383838,
			"0.0": 16.4753140435,
			"0.001": 12.7523596046,
			"0.002": 9.83511642795,
			"0.003": 5.60938482431,
			"0.004": 5.36279592739,
			"0.005": 4.74009132762,
			"0.006": 5.31601018989,
			"0.007": 6.76682263827,
			"0.008": 9.11705304386,
			"0.009": 7.52166002291,
			"0.01": 7.94549040409,
			"0.011": 6.20373129707,
			"0.012": 5.16639520964,
			"0.013": 1.77536128711,
			"0.014": 0.098087548517,
			"0.015": 0.0,
			"0.016": 0.0,
			"0.017": 0.0,
			"0.018": 0.0,
			"0.019": 0.0,
			"0.02": 0.0,
			"0.021": 0.0,
			"0.022": 0.0,
			"0.023": 0.0,
			"0.024": 0.0,
			"0.025": 0.0
		}
	}
}
