{
	 "smiles": "NC(=S)CC1=NN=C2CCCCCN12", 
	 "Tm": 501.15, 
	 "num_atms": 28, 
	 "gaussian": { 
		 "optdone": 1, 
		 "sigma_profile": "yes", 
		 "theory": "DFT", 
		 "functional": "B3LYP", 
		 "basiset": "6-31G**", 
		 "properties": { 
			 "R2extent": 4535.5939, 
			 "electric_dipole_moment_norm": 6.56264210437, 
			 "electric_quadrupole_moment_norm": 23.5492084347, 
			 "total_energy": -968.602725018, 
			 "HOMO_LUMO_gap": 0.17885, 
			 "cosmo_polarized_energy": -20.84, 
			 "cosmo_cavitation_energy": 31.08, 
			 "cosmo_dispersion_energy": -23.56, 
			 "cosmo_repulsion_energy": 1.83, 
			 "cosmo_total_nonelectrostatic_energy": 9.35, 
			 "SMD_solvation_energy": 1.48 
		},
		"coords": [
			{
				"x": -2.4923505717,
				"y": 3.2294985251,
				"z": 2.0279117224,
				"element": "N" 
			},
			{
				"x": -3.1317375867,
				"y": 2.3193409656,
				"z": 1.2914852802,
				"element": "C" 
			},
			{
				"x": -4.7701435173,
				"y": 2.0094315038,
				"z": 1.3952087385,
				"element": "S" 
			},
			{
				"x": -2.2868567202,
				"y": 1.580544655,
				"z": 0.2458805929,
				"element": "C" 
			},
			{
				"x": -0.8059028579,
				"y": 1.4798579101,
				"z": 0.4841080173,
				"element": "C" 
			},
			{
				"x": -0.0666985878,
				"y": 2.3655482033,
				"z": 1.1169989019,
				"element": "N" 
			},
			{
				"x": 1.2391168415,
				"y": 1.9342625833,
				"z": 1.1070052028,
				"element": "N" 
			},
			{
				"x": 1.2657389074,
				"y": 0.7971928986,
				"z": 0.4506730135,
				"element": "C" 
			},
			{
				"x": 2.4876277497,
				"y": -0.0273528777,
				"z": 0.2052381741,
				"element": "C" 
			},
			{
				"x": 2.4112159595,
				"y": -1.4635834503,
				"z": 0.7621252033,
				"element": "C" 
			},
			{
				"x": 1.48500369,
				"y": -2.4091486517,
				"z": -0.0187513927,
				"element": "C" 
			},
			{
				"x": -0.0103019379,
				"y": -2.050792155,
				"z": -0.0146512741,
				"element": "C" 
			},
			{
				"x": -0.3729333738,
				"y": -0.73960087,
				"z": -0.7257178588,
				"element": "C" 
			},
			{
				"x": -0.0027460357,
				"y": 0.457380025,
				"z": 0.0325382541,
				"element": "N" 
			},
			{
				"x": -3.02461862,
				"y": 3.7423362656,
				"z": 2.7162939127,
				"element": "H" 
			},
			{
				"x": -1.4733077917,
				"y": 3.3205726622,
				"z": 1.959465327,
				"element": "H" 
			},
			{
				"x": -2.4665843061,
				"y": 2.094313119,
				"z": -0.7090864623,
				"element": "H" 
			},
			{
				"x": -2.7306934567,
				"y": 0.5903115703,
				"z": 0.1364573809,
				"element": "H" 
			},
			{
				"x": 3.3128624738,
				"y": 0.5155786406,
				"z": 0.6731065521,
				"element": "H" 
			},
			{
				"x": 2.7051925408,
				"y": -0.066737027,
				"z": -0.8722510828,
				"element": "H" 
			},
			{
				"x": 2.1064869068,
				"y": -1.424827231,
				"z": 1.8155470487,
				"element": "H" 
			},
			{
				"x": 3.4226750571,
				"y": -1.8857151903,
				"z": 0.747518301,
				"element": "H" 
			},
			{
				"x": 1.5928439932,
				"y": -3.4197454357,
				"z": 0.3925496646,
				"element": "H" 
			},
			{
				"x": 1.8311941545,
				"y": -2.4682511642,
				"z": -1.0609249777,
				"element": "H" 
			},
			{
				"x": -0.3925154845,
				"y": -2.0122032956,
				"z": 1.0130758633,
				"element": "H" 
			},
			{
				"x": -0.5599835603,
				"y": -2.8526544251,
				"z": -0.522129381,
				"element": "H" 
			},
			{
				"x": 0.1081616495,
				"y": -0.6938630152,
				"z": -1.710840204,
				"element": "H" 
			},
			{
				"x": -1.4496455154,
				"y": -0.6952947385,
				"z": -0.8968345179,
				"element": "H" 
			}
		],
		 "valence_orbital": [ 
			{
				"type": "occ",
				"energy": -0.29605,
				"method": "rhf"
			},
			{
				"type": "occ",
				"energy": -0.26555,
				"method": "rhf"
			},
			{
				"type": "occ",
				"energy": -0.2595,
				"method": "rhf"
			},
			{
				"type": "occ",
				"energy": -0.21838,
				"method": "rhf"
			},
			{
				"type": "occ",
				"energy": -0.1995,
				"method": "rhf"
			},
			{
				"type": "unocc",
				"energy": -0.02065,
				"method": "rhf"
			},
			{
				"type": "unocc",
				"energy": 0.00631,
				"method": "rhf"
			},
			{
				"type": "unocc",
				"energy": 0.03074,
				"method": "rhf"
			},
			{
				"type": "unocc",
				"energy": 0.05679,
				"method": "rhf"
			},
			{
				"type": "unocc",
				"energy": 0.08044,
				"method": "rhf"
			}
		],
		"cosmo_sigma_profile": { 
			"-0.025": 0.0,
			"-0.024": 0.0,
			"-0.023": 0.0,
			"-0.022": 0.0,
			"-0.021": 0.0,
			"-0.02": 0.0,
			"-0.019": 0.0,
			"-0.018": 0.0,
			"-0.017": 0.0,
			"-0.016": 0.0,
			"-0.015": 0.323526845851,
			"-0.014": 1.28546109785,
			"-0.013": 1.09865030539,
			"-0.012": 1.19973637229,
			"-0.011": 1.04758274512,
			"-0.01": 1.91397210775,
			"-0.009": 3.23305800396,
			"-0.008": 6.80019717701,
			"-0.007": 8.53685506688,
			"-0.006": 11.7086839791,
			"-0.005": 13.9921792714,
			"-0.004": 23.1700703087,
			"-0.003": 28.2435186308,
			"-0.002": 26.8466931376,
			"-0.001": 21.5750368568,
			"0.0": 13.5184807537,
			"0.001": 7.57678660377,
			"0.002": 6.12553480735,
			"0.003": 4.85534831406,
			"0.004": 4.43896219494,
			"0.005": 4.64387674614,
			"0.006": 5.40152250696,
			"0.007": 6.27622092547,
			"0.008": 6.09024769255,
			"0.009": 8.35449044398,
			"0.01": 8.26117416272,
			"0.011": 6.69200131036,
			"0.012": 5.93348557342,
			"0.013": 2.87668453254,
			"0.014": 1.59622357697,
			"0.015": 1.25694453976,
			"0.016": 1.12628006924,
			"0.017": 0.859233430304,
			"0.018": 0.0286948032726,
			"0.019": 0.0,
			"0.02": 0.0,
			"0.021": 0.0,
			"0.022": 0.0,
			"0.023": 0.0,
			"0.024": 0.0,
			"0.025": 0.0
		}
	}
}
