{
	 "smiles": "ClC1=CC=C(Cl)C(=C1)C1=CC(Cl)=C(Cl)C(Cl)=C1", 
	 "Tm": 378.15, 
	 "num_atms": 22, 
	 "gaussian": { 
		 "optdone": 1, 
		 "sigma_profile": "yes", 
		 "theory": "DFT", 
		 "functional": "B3LYP", 
		 "basiset": "6-31G**", 
		 "properties": { 
			 "R2extent": 9085.6343, 
			 "electric_dipole_moment_norm": 2.69506352059, 
			 "electric_quadrupole_moment_norm": 9.96657311617, 
			 "total_energy": -2761.24811798, 
			 "HOMO_LUMO_gap": 0.19187, 
			 "cosmo_polarized_energy": -6.2, 
			 "cosmo_cavitation_energy": 35.91, 
			 "cosmo_dispersion_energy": -26.2, 
			 "cosmo_repulsion_energy": 2.05, 
			 "cosmo_total_nonelectrostatic_energy": 11.77, 
			 "SMD_solvation_energy": 4.55 
		},
		"coords": [
			{
				"x": -1.2473403523,
				"y": 2.1759728666,
				"z": -3.6442493956,
				"element": "Cl" 
			},
			{
				"x": -1.8515920139,
				"y": 0.9407223125,
				"z": -2.5559724953,
				"element": "C" 
			},
			{
				"x": -3.2155587465,
				"y": 0.6564303077,
				"z": -2.5240286492,
				"element": "C" 
			},
			{
				"x": -3.6769850143,
				"y": -0.3272925276,
				"z": -1.6533591152,
				"element": "C" 
			},
			{
				"x": -2.785785206,
				"y": -1.0191003841,
				"z": -0.8320410295,
				"element": "C" 
			},
			{
				"x": -3.4600248148,
				"y": -2.2048724102,
				"z": 0.2753193391,
				"element": "Cl" 
			},
			{
				"x": -1.405723769,
				"y": -0.7474609601,
				"z": -0.8603515331,
				"element": "C" 
			},
			{
				"x": -0.9584465542,
				"y": 0.2529311984,
				"z": -1.7402485699,
				"element": "C" 
			},
			{
				"x": -0.3996532224,
				"y": -1.4455667009,
				"z": -0.0125416363,
				"element": "C" 
			},
			{
				"x": -0.2736502149,
				"y": -2.839367086,
				"z": -0.0257704482,
				"element": "C" 
			},
			{
				"x": 0.7065007588,
				"y": -3.4673017823,
				"z": 0.7382321228,
				"element": "C" 
			},
			{
				"x": 0.8165349796,
				"y": -5.2078392274,
				"z": 0.6679225032,
				"element": "Cl" 
			},
			{
				"x": 1.5902360585,
				"y": -2.7230453116,
				"z": 1.5394096582,
				"element": "C" 
			},
			{
				"x": 2.807686627,
				"y": -3.5080536588,
				"z": 2.4930379091,
				"element": "Cl" 
			},
			{
				"x": 1.4579417348,
				"y": -1.3250860152,
				"z": 1.5440394071,
				"element": "C" 
			},
			{
				"x": 2.5120799971,
				"y": -0.3285564469,
				"z": 2.5147772968,
				"element": "Cl" 
			},
			{
				"x": 0.4789427877,
				"y": -0.6958350019,
				"z": 0.7772308509,
				"element": "C" 
			},
			{
				"x": -3.9054142479,
				"y": 1.194706655,
				"z": -3.1638556843,
				"element": "H" 
			},
			{
				"x": -4.7354888822,
				"y": -0.5558688583,
				"z": -1.6014186351,
				"element": "H" 
			},
			{
				"x": 0.1012710718,
				"y": 0.4752338344,
				"z": -1.7944712972,
				"element": "H" 
			},
			{
				"x": -0.9283212299,
				"y": -3.4465344841,
				"z": -0.6381389906,
				"element": "H" 
			},
			{
				"x": 0.396690253,
				"y": 0.384183681,
				"z": 0.8146783924,
				"element": "H" 
			}
		],
		 "valence_orbital": [ 
			{
				"type": "occ",
				"energy": -0.3117,
				"method": "rhf"
			},
			{
				"type": "occ",
				"energy": -0.29038,
				"method": "rhf"
			},
			{
				"type": "occ",
				"energy": -0.26444,
				"method": "rhf"
			},
			{
				"type": "occ",
				"energy": -0.26327,
				"method": "rhf"
			},
			{
				"type": "occ",
				"energy": -0.25186,
				"method": "rhf"
			},
			{
				"type": "unocc",
				"energy": -0.05999,
				"method": "rhf"
			},
			{
				"type": "unocc",
				"energy": -0.04126,
				"method": "rhf"
			},
			{
				"type": "unocc",
				"energy": -0.03638,
				"method": "rhf"
			},
			{
				"type": "unocc",
				"energy": -0.02259,
				"method": "rhf"
			},
			{
				"type": "unocc",
				"energy": -0.01972,
				"method": "rhf"
			}
		],
		"cosmo_sigma_profile": { 
			"-0.025": 0.0,
			"-0.024": 0.0,
			"-0.023": 0.0,
			"-0.022": 0.0,
			"-0.021": 0.0,
			"-0.02": 0.0,
			"-0.019": 0.0,
			"-0.018": 0.0,
			"-0.017": 0.0,
			"-0.016": 0.0,
			"-0.015": 0.0,
			"-0.014": 0.0,
			"-0.013": 0.0,
			"-0.012": 0.0,
			"-0.011": 0.0,
			"-0.01": 0.0,
			"-0.009": 0.432083943193,
			"-0.008": 6.86340224114,
			"-0.007": 9.04390128476,
			"-0.006": 9.53739407259,
			"-0.005": 8.48828765298,
			"-0.004": 10.3234104549,
			"-0.003": 13.8052573813,
			"-0.002": 20.0507083031,
			"-0.001": 34.9540029883,
			"0.0": 39.3454365301,
			"0.001": 39.999849726,
			"0.002": 31.7747161662,
			"0.003": 36.9825042366,
			"0.004": 34.2998228123,
			"0.005": 5.11540171037,
			"0.006": 0.0,
			"0.007": 0.0,
			"0.008": 0.0,
			"0.009": 0.0,
			"0.01": 0.0,
			"0.011": 0.0,
			"0.012": 0.0,
			"0.013": 0.0,
			"0.014": 0.0,
			"0.015": 0.0,
			"0.016": 0.0,
			"0.017": 0.0,
			"0.018": 0.0,
			"0.019": 0.0,
			"0.02": 0.0,
			"0.021": 0.0,
			"0.022": 0.0,
			"0.023": 0.0,
			"0.024": 0.0,
			"0.025": 0.0
		}
	}
}
