{
	 "smiles": "O=C1C2(CCCCC2)C(=O)C11CCCCC1", 
	 "Tm": 439.15, 
	 "num_atms": 36, 
	 "gaussian": { 
		 "optdone": 1, 
		 "sigma_profile": "yes", 
		 "theory": "DFT", 
		 "functional": "B3LYP", 
		 "basiset": "6-31G**", 
		 "properties": { 
			 "R2extent": 3850.1436, 
			 "electric_dipole_moment_norm": 0.247223340322, 
			 "electric_quadrupole_moment_norm": 12.5046388225, 
			 "total_energy": -695.982805853, 
			 "HOMO_LUMO_gap": 0.17972, 
			 "cosmo_polarized_energy": -8.74, 
			 "cosmo_cavitation_energy": 34.88, 
			 "cosmo_dispersion_energy": -24.47, 
			 "cosmo_repulsion_energy": 1.91, 
			 "cosmo_total_nonelectrostatic_energy": 12.31, 
			 "SMD_solvation_energy": 5.46 
		},
		"coords": [
			{
				"x": -0.6880121452,
				"y": 1.2733684859,
				"z": 1.6392564642,
				"element": "O" 
			},
			{
				"x": -0.369857187,
				"y": 0.4240310283,
				"z": 0.8403094687,
				"element": "C" 
			},
			{
				"x": -0.936472167,
				"y": -0.969473235,
				"z": 0.487348587,
				"element": "C" 
			},
			{
				"x": -0.8702005014,
				"y": -1.9883828475,
				"z": 1.6501879002,
				"element": "C" 
			},
			{
				"x": -1.9892102592,
				"y": -1.7511245746,
				"z": 2.675210074,
				"element": "C" 
			},
			{
				"x": -3.3737782828,
				"y": -1.7654526029,
				"z": 2.0119260623,
				"element": "C" 
			},
			{
				"x": -3.4480198247,
				"y": -0.7477991313,
				"z": 0.8646288896,
				"element": "C" 
			},
			{
				"x": -2.3354403153,
				"y": -0.9816332985,
				"z": -0.1687479428,
				"element": "C" 
			},
			{
				"x": 0.2530130762,
				"y": -1.0764878211,
				"z": -0.4945884294,
				"element": "C" 
			},
			{
				"x": 0.6282749736,
				"y": -1.9663485995,
				"z": -1.2206047152,
				"element": "O" 
			},
			{
				"x": 0.7906057316,
				"y": 0.3400952179,
				"z": -0.1777590585,
				"element": "C" 
			},
			{
				"x": 2.2163309686,
				"y": 0.4388261342,
				"z": 0.4294089494,
				"element": "C" 
			},
			{
				"x": 3.2783741789,
				"y": 0.889914108,
				"z": -0.5983911433,
				"element": "C" 
			},
			{
				"x": 2.931869931,
				"y": 0.3773092917,
				"z": -2.0017188396,
				"element": "C" 
			},
			{
				"x": 1.6161437355,
				"y": 1.0106416522,
				"z": -2.5069775105,
				"element": "C" 
			},
			{
				"x": 0.6357118377,
				"y": 1.3335115226,
				"z": -1.3554331354,
				"element": "C" 
			},
			{
				"x": -0.9557073837,
				"y": -2.9915215257,
				"z": 1.2111418116,
				"element": "H" 
			},
			{
				"x": 0.1103386363,
				"y": -1.9432421328,
				"z": 2.1394407444,
				"element": "H" 
			},
			{
				"x": -1.8275211039,
				"y": -0.7808570259,
				"z": 3.1607777569,
				"element": "H" 
			},
			{
				"x": -1.9316408367,
				"y": -2.5150006899,
				"z": 3.4597565321,
				"element": "H" 
			},
			{
				"x": -3.5803619182,
				"y": -2.7718494714,
				"z": 1.6200660381,
				"element": "H" 
			},
			{
				"x": -4.1507620334,
				"y": -1.5533735124,
				"z": 2.7553918811,
				"element": "H" 
			},
			{
				"x": -3.350873525,
				"y": 0.2666925679,
				"z": 1.270936923,
				"element": "H" 
			},
			{
				"x": -4.4238624774,
				"y": -0.8005717887,
				"z": 0.3674290298,
				"element": "H" 
			},
			{
				"x": -2.389976394,
				"y": -0.2285187969,
				"z": -0.96376063,
				"element": "H" 
			},
			{
				"x": -2.4632263388,
				"y": -1.9592433239,
				"z": -0.6530889026,
				"element": "H" 
			},
			{
				"x": 2.4958120866,
				"y": -0.5364295476,
				"z": 0.8446256347,
				"element": "H" 
			},
			{
				"x": 2.1738402881,
				"y": 1.1420879501,
				"z": 1.2696236751,
				"element": "H" 
			},
			{
				"x": 4.2640605853,
				"y": 0.5306393793,
				"z": -0.2833484873,
				"element": "H" 
			},
			{
				"x": 3.3413037282,
				"y": 1.9857035121,
				"z": -0.6149957148,
				"element": "H" 
			},
			{
				"x": 3.7453739937,
				"y": 0.5870264215,
				"z": -2.7045724796,
				"element": "H" 
			},
			{
				"x": 2.8141648545,
				"y": -0.711856924,
				"z": -1.9632583284,
				"element": "H" 
			},
			{
				"x": 1.8270497183,
				"y": 1.9408673087,
				"z": -3.048198965,
				"element": "H" 
			},
			{
				"x": 1.1377051569,
				"y": 0.3332173243,
				"z": -3.2213214449,
				"element": "H" 
			},
			{
				"x": -0.3956660695,
				"y": 1.3454634542,
				"z": -1.7252267539,
				"element": "H" 
			},
			{
				"x": 0.824415282,
				"y": 2.3342714908,
				"z": -0.948873941,
				"element": "H" 
			}
		],
		 "valence_orbital": [ 
			{
				"type": "occ",
				"energy": -0.31496,
				"method": "rhf"
			},
			{
				"type": "occ",
				"energy": -0.30976,
				"method": "rhf"
			},
			{
				"type": "occ",
				"energy": -0.30717,
				"method": "rhf"
			},
			{
				"type": "occ",
				"energy": -0.24757,
				"method": "rhf"
			},
			{
				"type": "occ",
				"energy": -0.22741,
				"method": "rhf"
			},
			{
				"type": "unocc",
				"energy": -0.04769,
				"method": "rhf"
			},
			{
				"type": "unocc",
				"energy": -0.00449,
				"method": "rhf"
			},
			{
				"type": "unocc",
				"energy": 0.06607,
				"method": "rhf"
			},
			{
				"type": "unocc",
				"energy": 0.08144,
				"method": "rhf"
			},
			{
				"type": "unocc",
				"energy": 0.10466,
				"method": "rhf"
			}
		],
		"cosmo_sigma_profile": { 
			"-0.025": 0.0,
			"-0.024": 0.0,
			"-0.023": 0.0,
			"-0.022": 0.0,
			"-0.021": 0.0,
			"-0.02": 0.0,
			"-0.019": 0.0,
			"-0.018": 0.0,
			"-0.017": 0.0,
			"-0.016": 0.0,
			"-0.015": 0.0,
			"-0.014": 0.0,
			"-0.013": 0.0,
			"-0.012": 0.0,
			"-0.011": 0.0,
			"-0.01": 0.0,
			"-0.009": 0.168262579384,
			"-0.008": 0.947835939517,
			"-0.007": 1.81933694197,
			"-0.006": 3.58484550469,
			"-0.005": 5.68508865206,
			"-0.004": 13.7039050381,
			"-0.003": 34.9468423982,
			"-0.002": 44.3611678594,
			"-0.001": 50.9553780007,
			"0.0": 39.706630546,
			"0.001": 23.7943628209,
			"0.002": 5.24143198617,
			"0.003": 3.89548173886,
			"0.004": 5.40280700052,
			"0.005": 4.48401977729,
			"0.006": 3.42421646917,
			"0.007": 2.97326232381,
			"0.008": 3.2549754984,
			"0.009": 4.59700642002,
			"0.01": 5.38726170931,
			"0.011": 7.46099434003,
			"0.012": 3.04407343356,
			"0.013": 0.233551592046,
			"0.014": 0.0,
			"0.015": 0.0,
			"0.016": 0.0,
			"0.017": 0.0,
			"0.018": 0.0,
			"0.019": 0.0,
			"0.02": 0.0,
			"0.021": 0.0,
			"0.022": 0.0,
			"0.023": 0.0,
			"0.024": 0.0,
			"0.025": 0.0
		}
	}
}
