{
	 "smiles": "OCCNC(=S)C(=S)NCCO", 
	 "Tm": 366.45, 
	 "num_atms": 24, 
	 "gaussian": { 
		 "optdone": 1, 
		 "sigma_profile": "yes", 
		 "theory": "DFT", 
		 "functional": "B3LYP", 
		 "basiset": "6-31G**", 
		 "properties": { 
			 "R2extent": 3517.3212, 
			 "electric_dipole_moment_norm": 4.97560059289, 
			 "electric_quadrupole_moment_norm": 16.6728471282, 
			 "total_energy": -1292.17867168, 
			 "HOMO_LUMO_gap": 0.14548, 
			 "cosmo_polarized_energy": -24.29, 
			 "cosmo_cavitation_energy": 31.01, 
			 "cosmo_dispersion_energy": -21.46, 
			 "cosmo_repulsion_energy": 1.68, 
			 "cosmo_total_nonelectrostatic_energy": 11.23, 
			 "SMD_solvation_energy": 3.03 
		},
		"coords": [
			{
				"x": -0.4051516625,
				"y": -1.2384521438,
				"z": -1.9274723116,
				"element": "O" 
			},
			{
				"x": -1.7898728388,
				"y": -1.2290329375,
				"z": -1.5943470283,
				"element": "C" 
			},
			{
				"x": -2.2044622212,
				"y": 0.2282237244,
				"z": -1.408531557,
				"element": "C" 
			},
			{
				"x": -1.3898774718,
				"y": 0.8956868033,
				"z": -0.4030895876,
				"element": "N" 
			},
			{
				"x": -1.6189075918,
				"y": 0.8887164561,
				"z": 0.9164888288,
				"element": "C" 
			},
			{
				"x": -2.9449216927,
				"y": 0.2114420729,
				"z": 1.6742104413,
				"element": "S" 
			},
			{
				"x": -0.5554498923,
				"y": 1.6206544268,
				"z": 1.7057329461,
				"element": "C" 
			},
			{
				"x": -0.34946597,
				"y": 3.263099092,
				"z": 1.4686171323,
				"element": "S" 
			},
			{
				"x": 0.1850593169,
				"y": 0.9116342677,
				"z": 2.5740998741,
				"element": "N" 
			},
			{
				"x": 0.2544243117,
				"y": -0.5422356072,
				"z": 2.756457664,
				"element": "C" 
			},
			{
				"x": 1.159604694,
				"y": -1.2206396869,
				"z": 1.7200100146,
				"element": "C" 
			},
			{
				"x": 2.4989762244,
				"y": -0.7570618521,
				"z": 1.7843844474,
				"element": "O" 
			},
			{
				"x": -0.1165123209,
				"y": -2.1558570334,
				"z": -2.005539378,
				"element": "H" 
			},
			{
				"x": -1.9869379279,
				"y": -1.7821896628,
				"z": -0.6663919366,
				"element": "H" 
			},
			{
				"x": -2.4062585137,
				"y": -1.6684409403,
				"z": -2.3933649636,
				"element": "H" 
			},
			{
				"x": -3.252689493,
				"y": 0.2803174591,
				"z": -1.1041694122,
				"element": "H" 
			},
			{
				"x": -2.0750550072,
				"y": 0.7725239628,
				"z": -2.3481473257,
				"element": "H" 
			},
			{
				"x": -0.569116603,
				"y": 1.3941180373,
				"z": -0.7231109604,
				"element": "H" 
			},
			{
				"x": 0.8422234876,
				"y": 1.4755835808,
				"z": 3.1002053154,
				"element": "H" 
			},
			{
				"x": 0.6623711266,
				"y": -0.7119513231,
				"z": 3.7564652318,
				"element": "H" 
			},
			{
				"x": -0.7551102197,
				"y": -0.9568731816,
				"z": 2.7214180448,
				"element": "H" 
			},
			{
				"x": 1.1913330179,
				"y": -2.2931178908,
				"z": 1.9412713844,
				"element": "H" 
			},
			{
				"x": 0.73719089,
				"y": -1.1021091105,
				"z": 0.7106046127,
				"element": "H" 
			},
			{
				"x": 2.5261063576,
				"y": 0.1243614865,
				"z": 1.3904985234,
				"element": "H" 
			}
		],
		 "valence_orbital": [ 
			{
				"type": "occ",
				"energy": -0.28639,
				"method": "rhf"
			},
			{
				"type": "occ",
				"energy": -0.24252,
				"method": "rhf"
			},
			{
				"type": "occ",
				"energy": -0.238,
				"method": "rhf"
			},
			{
				"type": "occ",
				"energy": -0.22965,
				"method": "rhf"
			},
			{
				"type": "occ",
				"energy": -0.2125,
				"method": "rhf"
			},
			{
				"type": "unocc",
				"energy": -0.06702,
				"method": "rhf"
			},
			{
				"type": "unocc",
				"energy": -0.02581,
				"method": "rhf"
			},
			{
				"type": "unocc",
				"energy": 0.04407,
				"method": "rhf"
			},
			{
				"type": "unocc",
				"energy": 0.05753,
				"method": "rhf"
			},
			{
				"type": "unocc",
				"energy": 0.07866,
				"method": "rhf"
			}
		],
		"cosmo_sigma_profile": { 
			"-0.025": 0.0,
			"-0.024": 0.0,
			"-0.023": 0.0,
			"-0.022": 0.0,
			"-0.021": 0.0,
			"-0.02": 0.0,
			"-0.019": 0.0,
			"-0.018": 0.0,
			"-0.017": 0.0443017297746,
			"-0.016": 0.917226573535,
			"-0.015": 2.9106468323,
			"-0.014": 4.53938825776,
			"-0.013": 3.35748910315,
			"-0.012": 3.63831586727,
			"-0.011": 5.11226966826,
			"-0.01": 4.07913537641,
			"-0.009": 4.64398333958,
			"-0.008": 3.87736535232,
			"-0.007": 6.44785211034,
			"-0.006": 9.33288161615,
			"-0.005": 20.0462507315,
			"-0.004": 17.0853470445,
			"-0.003": 16.1613934926,
			"-0.002": 12.2342598239,
			"-0.001": 9.22019884115,
			"0.0": 7.87862442419,
			"0.001": 7.16457097937,
			"0.002": 10.1501538234,
			"0.003": 9.35934018582,
			"0.004": 11.0568174897,
			"0.005": 12.3259833236,
			"0.006": 11.5433421792,
			"0.007": 13.7156356026,
			"0.008": 12.9004870592,
			"0.009": 8.66193953143,
			"0.01": 7.75675724189,
			"0.011": 4.70099792996,
			"0.012": 2.26938969649,
			"0.013": 2.91792386349,
			"0.014": 2.09447955186,
			"0.015": 0.125459590156,
			"0.016": 0.0,
			"0.017": 0.0,
			"0.018": 0.0,
			"0.019": 0.0,
			"0.02": 0.0,
			"0.021": 0.0,
			"0.022": 0.0,
			"0.023": 0.0,
			"0.024": 0.0,
			"0.025": 0.0
		}
	}
}
