{
	 "smiles": "CC12CC(=O)C3C(CCC4CC(O)CCC34C)C1CCC2(O)C(=O)CO", 
	 "Tm": 486.15, 
	 "num_atms": 58, 
	 "gaussian": { 
		 "optdone": 1, 
		 "sigma_profile": "yes", 
		 "theory": "DFT", 
		 "functional": "B3LYP", 
		 "basiset": "6-31G**", 
		 "properties": { 
			 "R2extent": 10991.9318, 
			 "electric_dipole_moment_norm": 3.47859915771, 
			 "electric_quadrupole_moment_norm": 28.4736581269, 
			 "total_energy": -1195.6075787, 
			 "HOMO_LUMO_gap": 0.19706, 
			 "cosmo_polarized_energy": -22.26, 
			 "cosmo_cavitation_energy": 49.24, 
			 "cosmo_dispersion_energy": -34.68, 
			 "cosmo_repulsion_energy": 2.52, 
			 "cosmo_total_nonelectrostatic_energy": 17.08, 
			 "SMD_solvation_energy": 7.56 
		},
		"coords": [
			{
				"x": 0.3578183393,
				"y": -0.0713427912,
				"z": 2.2275220047,
				"element": "C" 
			},
			{
				"x": 1.2877165606,
				"y": -0.1441941418,
				"z": 0.9986231353,
				"element": "C" 
			},
			{
				"x": 0.9871738895,
				"y": -1.436986071,
				"z": 0.2222299656,
				"element": "C" 
			},
			{
				"x": -0.4043677249,
				"y": -1.404824437,
				"z": -0.4163146837,
				"element": "C" 
			},
			{
				"x": -1.098711147,
				"y": -2.4050463615,
				"z": -0.3793943412,
				"element": "O" 
			},
			{
				"x": -0.8117252725,
				"y": -0.140839777,
				"z": -1.2000899702,
				"element": "C" 
			},
			{
				"x": -0.2577355085,
				"y": 1.2184391768,
				"z": -0.6379138587,
				"element": "C" 
			},
			{
				"x": -1.3483635843,
				"y": 1.9729726894,
				"z": 0.1371007887,
				"element": "C" 
			},
			{
				"x": -2.4617866794,
				"y": 2.3865018102,
				"z": -0.843520531,
				"element": "C" 
			},
			{
				"x": -2.7130020803,
				"y": 1.3612392544,
				"z": -1.9894208361,
				"element": "C" 
			},
			{
				"x": -4.1676771545,
				"y": 1.4694977754,
				"z": -2.5169089704,
				"element": "C" 
			},
			{
				"x": -5.1860520393,
				"y": 0.5444109116,
				"z": -1.80091239,
				"element": "C" 
			},
			{
				"x": -6.4829309441,
				"y": 1.1356898377,
				"z": -1.7298721988,
				"element": "O" 
			},
			{
				"x": -4.6798057758,
				"y": 0.1036212981,
				"z": -0.4250363203,
				"element": "C" 
			},
			{
				"x": -3.30590888,
				"y": -0.6078808384,
				"z": -0.4733545918,
				"element": "C" 
			},
			{
				"x": -2.3399914323,
				"y": -0.1018049352,
				"z": -1.6023008149,
				"element": "C" 
			},
			{
				"x": -2.4944561154,
				"y": -1.0135288839,
				"z": -2.8449376226,
				"element": "C" 
			},
			{
				"x": 1.1275036704,
				"y": 1.0418898915,
				"z": 0.0182846821,
				"element": "C" 
			},
			{
				"x": 1.7633605145,
				"y": 2.2316872827,
				"z": 0.755840927,
				"element": "C" 
			},
			{
				"x": 2.9685380089,
				"y": 1.6109686202,
				"z": 1.5086913961,
				"element": "C" 
			},
			{
				"x": 2.7846345776,
				"y": 0.0563936764,
				"z": 1.4851918829,
				"element": "C" 
			},
			{
				"x": 3.0382378075,
				"y": -0.4304615491,
				"z": 2.8011211444,
				"element": "O" 
			},
			{
				"x": 3.803950926,
				"y": -0.5613550981,
				"z": 0.5179017879,
				"element": "C" 
			},
			{
				"x": 3.8967115732,
				"y": -0.2199639321,
				"z": -0.6535169653,
				"element": "O" 
			},
			{
				"x": 4.7665667764,
				"y": -1.6236404568,
				"z": 1.0357735224,
				"element": "C" 
			},
			{
				"x": 5.6225738515,
				"y": -2.065484208,
				"z": 0.0240814316,
				"element": "O" 
			},
			{
				"x": -0.6881384701,
				"y": -0.1599936141,
				"z": 1.9254583242,
				"element": "H" 
			},
			{
				"x": 0.4735518584,
				"y": 0.8590853356,
				"z": 2.7878676988,
				"element": "H" 
			},
			{
				"x": 0.5550358547,
				"y": -0.893140167,
				"z": 2.9217331219,
				"element": "H" 
			},
			{
				"x": 1.706556546,
				"y": -1.5590509589,
				"z": -0.5978695473,
				"element": "H" 
			},
			{
				"x": 1.0283988461,
				"y": -2.3394029653,
				"z": 0.8418129257,
				"element": "H" 
			},
			{
				"x": -0.2551259973,
				"y": -0.2959470269,
				"z": -2.1403798382,
				"element": "H" 
			},
			{
				"x": -0.0627233979,
				"y": 1.846219767,
				"z": -1.5186842985,
				"element": "H" 
			},
			{
				"x": -1.762249686,
				"y": 1.3605842433,
				"z": 0.9433863395,
				"element": "H" 
			},
			{
				"x": -0.9340671074,
				"y": 2.8665761074,
				"z": 0.6154316913,
				"element": "H" 
			},
			{
				"x": -3.3838913812,
				"y": 2.5792203719,
				"z": -0.2873219516,
				"element": "H" 
			},
			{
				"x": -2.1946470111,
				"y": 3.3438251769,
				"z": -1.309526282,
				"element": "H" 
			},
			{
				"x": -2.0484812888,
				"y": 1.641451294,
				"z": -2.817527448,
				"element": "H" 
			},
			{
				"x": -4.2039305334,
				"y": 1.2747323283,
				"z": -3.5935582392,
				"element": "H" 
			},
			{
				"x": -4.5070942067,
				"y": 2.5063292607,
				"z": -2.3942500536,
				"element": "H" 
			},
			{
				"x": -5.3489039103,
				"y": -0.3520141581,
				"z": -2.4088638781,
				"element": "H" 
			},
			{
				"x": -6.4157170043,
				"y": 1.9103599526,
				"z": -1.1548168047,
				"element": "H" 
			},
			{
				"x": -4.6304022327,
				"y": 0.9874109017,
				"z": 0.2252808541,
				"element": "H" 
			},
			{
				"x": -5.4245881756,
				"y": -0.5595716175,
				"z": 0.0275988351,
				"element": "H" 
			},
			{
				"x": -2.8374636872,
				"y": -0.513275365,
				"z": 0.5103671889,
				"element": "H" 
			},
			{
				"x": -3.4571774637,
				"y": -1.6801760412,
				"z": -0.6103265182,
				"element": "H" 
			},
			{
				"x": -3.5341039901,
				"y": -1.1061400615,
				"z": -3.1676446541,
				"element": "H" 
			},
			{
				"x": -2.1312919986,
				"y": -2.0181491234,
				"z": -2.6166162025,
				"element": "H" 
			},
			{
				"x": -1.9201389673,
				"y": -0.6214502321,
				"z": -3.6931134159,
				"element": "H" 
			},
			{
				"x": 1.8106805157,
				"y": 0.8073696808,
				"z": -0.8076068105,
				"element": "H" 
			},
			{
				"x": 1.0649291906,
				"y": 2.6804874028,
				"z": 1.4684556333,
				"element": "H" 
			},
			{
				"x": 2.0705224947,
				"y": 3.0244869797,
				"z": 0.0671400861,
				"element": "H" 
			},
			{
				"x": 3.9156407844,
				"y": 1.8941242811,
				"z": 1.0434328039,
				"element": "H" 
			},
			{
				"x": 3.012098063,
				"y": 1.9189182808,
				"z": 2.555900692,
				"element": "H" 
			},
			{
				"x": 2.7169523733,
				"y": -1.3396492105,
				"z": 2.8703445121,
				"element": "H" 
			},
			{
				"x": 4.1756337402,
				"y": -2.4607862559,
				"z": 1.4477292039,
				"element": "H" 
			},
			{
				"x": 5.3188967698,
				"y": -1.1988860328,
				"z": 1.8875395238,
				"element": "H" 
			},
			{
				"x": 5.3730673157,
				"y": -1.5525072778,
				"z": -0.7655420659,
				"element": "H" 
			}
		],
		 "valence_orbital": [ 
			{
				"type": "occ",
				"energy": -0.28404,
				"method": "rhf"
			},
			{
				"type": "occ",
				"energy": -0.27323,
				"method": "rhf"
			},
			{
				"type": "occ",
				"energy": -0.2636,
				"method": "rhf"
			},
			{
				"type": "occ",
				"energy": -0.25468,
				"method": "rhf"
			},
			{
				"type": "occ",
				"energy": -0.23967,
				"method": "rhf"
			},
			{
				"type": "unocc",
				"energy": -0.04261,
				"method": "rhf"
			},
			{
				"type": "unocc",
				"energy": -0.02357,
				"method": "rhf"
			},
			{
				"type": "unocc",
				"energy": 0.03502,
				"method": "rhf"
			},
			{
				"type": "unocc",
				"energy": 0.06077,
				"method": "rhf"
			},
			{
				"type": "unocc",
				"energy": 0.06777,
				"method": "rhf"
			}
		],
		"cosmo_sigma_profile": { 
			"-0.025": 0.0,
			"-0.024": 0.0,
			"-0.023": 0.0,
			"-0.022": 0.0,
			"-0.021": 0.0,
			"-0.02": 0.0,
			"-0.019": 0.0,
			"-0.018": 0.0,
			"-0.017": 0.0,
			"-0.016": 0.187029459461,
			"-0.015": 0.749049721744,
			"-0.014": 2.59997779825,
			"-0.013": 2.90920387737,
			"-0.012": 1.98925507731,
			"-0.011": 2.70620001389,
			"-0.01": 3.00994315385,
			"-0.009": 3.20294561743,
			"-0.008": 3.59364904473,
			"-0.007": 5.26266479358,
			"-0.006": 10.1417327951,
			"-0.005": 14.8336391235,
			"-0.004": 23.3242526801,
			"-0.003": 36.0828655745,
			"-0.002": 48.2603173778,
			"-0.001": 48.6505647037,
			"0.0": 43.2547621381,
			"0.001": 30.126161632,
			"0.002": 14.1119029678,
			"0.003": 8.38577188452,
			"0.004": 7.44090206776,
			"0.005": 7.74585136251,
			"0.006": 5.84212787559,
			"0.007": 6.79054881182,
			"0.008": 7.09348429883,
			"0.009": 6.94390596161,
			"0.01": 5.79393641766,
			"0.011": 7.27954524238,
			"0.012": 6.6151577859,
			"0.013": 5.73809537714,
			"0.014": 4.52680075228,
			"0.015": 2.52211980806,
			"0.016": 0.0455586856206,
			"0.017": 0.0,
			"0.018": 0.0,
			"0.019": 0.0,
			"0.02": 0.0,
			"0.021": 0.0,
			"0.022": 0.0,
			"0.023": 0.0,
			"0.024": 0.0,
			"0.025": 0.0
		}
	}
}
