{
	 "smiles": "ClC1=CC(NC2CCOCC2)=C(C=C1)C#N", 
	 "Tm": 417.15, 
	 "num_atms": 29, 
	 "gaussian": { 
		 "optdone": 1, 
		 "sigma_profile": "yes", 
		 "theory": "DFT", 
		 "functional": "B3LYP", 
		 "basiset": "6-31G**", 
		 "properties": { 
			 "R2extent": 5272.5946, 
			 "electric_dipole_moment_norm": 2.48646378819, 
			 "electric_quadrupole_moment_norm": 11.6071850295, 
			 "total_energy": -1109.99817692, 
			 "HOMO_LUMO_gap": 0.17211, 
			 "cosmo_polarized_energy": -14.11, 
			 "cosmo_cavitation_energy": 33.72, 
			 "cosmo_dispersion_energy": -24.02, 
			 "cosmo_repulsion_energy": 1.87, 
			 "cosmo_total_nonelectrostatic_energy": 11.56, 
			 "SMD_solvation_energy": 5.26 
		},
		"coords": [
			{
				"x": 2.0773869765,
				"y": -2.104267947,
				"z": -4.2669180382,
				"element": "Cl" 
			},
			{
				"x": 0.8748428235,
				"y": -1.362046069,
				"z": -3.2271119293,
				"element": "C" 
			},
			{
				"x": 0.9863323212,
				"y": -1.5224575628,
				"z": -1.8579104776,
				"element": "C" 
			},
			{
				"x": 0.0459475774,
				"y": -0.9459808309,
				"z": -0.970078568,
				"element": "C" 
			},
			{
				"x": 0.2089046537,
				"y": -1.2043493609,
				"z": 0.3731293284,
				"element": "N" 
			},
			{
				"x": -0.300341147,
				"y": -0.4310512537,
				"z": 1.5144337699,
				"element": "C" 
			},
			{
				"x": -0.0082780966,
				"y": -1.211823806,
				"z": 2.8207169505,
				"element": "C" 
			},
			{
				"x": 1.2614871739,
				"y": -0.7052802391,
				"z": 3.5040036322,
				"element": "C" 
			},
			{
				"x": 1.1597182211,
				"y": 0.6597188177,
				"z": 3.8951618736,
				"element": "O" 
			},
			{
				"x": 0.3446238077,
				"y": 1.4767622988,
				"z": 3.0509296026,
				"element": "C" 
			},
			{
				"x": 0.319886019,
				"y": 0.9897336688,
				"z": 1.6035561033,
				"element": "C" 
			},
			{
				"x": -1.0166921397,
				"y": -0.1944518478,
				"z": -1.5506584151,
				"element": "C" 
			},
			{
				"x": -1.0891961775,
				"y": -0.0475885141,
				"z": -2.9527169762,
				"element": "C" 
			},
			{
				"x": -0.1607340397,
				"y": -0.6182795829,
				"z": -3.8051668935,
				"element": "C" 
			},
			{
				"x": -2.0607948353,
				"y": 0.421097215,
				"z": -0.7943862287,
				"element": "C" 
			},
			{
				"x": -2.9358190642,
				"y": 0.9439075243,
				"z": -0.2294774217,
				"element": "N" 
			},
			{
				"x": 1.8100839861,
				"y": -2.1016155852,
				"z": -1.453167561,
				"element": "H" 
			},
			{
				"x": 1.0815543708,
				"y": -1.6750886404,
				"z": 0.575023566,
				"element": "H" 
			},
			{
				"x": -1.3812806089,
				"y": -0.3432506811,
				"z": 1.404755645,
				"element": "H" 
			},
			{
				"x": -0.8483791524,
				"y": -1.0855974097,
				"z": 3.5111311967,
				"element": "H" 
			},
			{
				"x": 0.0648945,
				"y": -2.284763346,
				"z": 2.6105797288,
				"element": "H" 
			},
			{
				"x": 1.4646120805,
				"y": -1.274744564,
				"z": 4.4169320979,
				"element": "H" 
			},
			{
				"x": 2.1320154561,
				"y": -0.8465620188,
				"z": 2.8389063405,
				"element": "H" 
			},
			{
				"x": -0.6828318745,
				"y": 1.5196707169,
				"z": 3.4469263247,
				"element": "H" 
			},
			{
				"x": 0.7575115177,
				"y": 2.4887029366,
				"z": 3.1126582558,
				"element": "H" 
			},
			{
				"x": -0.2431871876,
				"y": 1.6934888152,
				"z": 0.9833556382,
				"element": "H" 
			},
			{
				"x": 1.3465057481,
				"y": 0.9643287465,
				"z": 1.21825331,
				"element": "H" 
			},
			{
				"x": -1.9101750024,
				"y": 0.5326282717,
				"z": -3.3609909532,
				"element": "H" 
			},
			{
				"x": -0.2291979076,
				"y": -0.499039752,
				"z": -4.8790699016,
				"element": "H" 
			}
		],
		 "valence_orbital": [ 
			{
				"type": "occ",
				"energy": -0.31285,
				"method": "rhf"
			},
			{
				"type": "occ",
				"energy": -0.29924,
				"method": "rhf"
			},
			{
				"type": "occ",
				"energy": -0.26149,
				"method": "rhf"
			},
			{
				"type": "occ",
				"energy": -0.25063,
				"method": "rhf"
			},
			{
				"type": "occ",
				"energy": -0.22294,
				"method": "rhf"
			},
			{
				"type": "unocc",
				"energy": -0.05083,
				"method": "rhf"
			},
			{
				"type": "unocc",
				"energy": -0.01744,
				"method": "rhf"
			},
			{
				"type": "unocc",
				"energy": 0.01638,
				"method": "rhf"
			},
			{
				"type": "unocc",
				"energy": 0.028,
				"method": "rhf"
			},
			{
				"type": "unocc",
				"energy": 0.05712,
				"method": "rhf"
			}
		],
		"cosmo_sigma_profile": { 
			"-0.025": 0.0,
			"-0.024": 0.0,
			"-0.023": 0.0,
			"-0.022": 0.0,
			"-0.021": 0.0,
			"-0.02": 0.0,
			"-0.019": 0.0,
			"-0.018": 0.0,
			"-0.017": 0.0,
			"-0.016": 0.0,
			"-0.015": 0.0,
			"-0.014": 0.447523905997,
			"-0.013": 1.31946784559,
			"-0.012": 1.61382718558,
			"-0.011": 1.47993558535,
			"-0.01": 2.73257274236,
			"-0.009": 1.86883062846,
			"-0.008": 4.33752020689,
			"-0.007": 6.4849160407,
			"-0.006": 6.90140556768,
			"-0.005": 10.8528195467,
			"-0.004": 22.5688821049,
			"-0.003": 28.9441663388,
			"-0.002": 24.4498667343,
			"-0.001": 23.3937261677,
			"0.0": 18.8732498062,
			"0.001": 21.7265467405,
			"0.002": 21.8572937845,
			"0.003": 17.2565357588,
			"0.004": 13.9592884192,
			"0.005": 5.38163846406,
			"0.006": 4.09034547851,
			"0.007": 3.58650991231,
			"0.008": 4.15051060727,
			"0.009": 4.26095722929,
			"0.01": 3.17803017136,
			"0.011": 3.67947146182,
			"0.012": 4.37893287402,
			"0.013": 3.89204805786,
			"0.014": 1.86876110418,
			"0.015": 0.0628185631186,
			"0.016": 0.0,
			"0.017": 0.0,
			"0.018": 0.0,
			"0.019": 0.0,
			"0.02": 0.0,
			"0.021": 0.0,
			"0.022": 0.0,
			"0.023": 0.0,
			"0.024": 0.0,
			"0.025": 0.0
		}
	}
}
