{
	 "smiles": "NC1=CC(=NO1)C1=CC=C(Cl)C=C1", 
	 "Tm": 438.15, 
	 "num_atms": 20, 
	 "gaussian": { 
		 "optdone": 1, 
		 "sigma_profile": "yes", 
		 "theory": "DFT", 
		 "functional": "B3LYP", 
		 "basiset": "6-31G**", 
		 "properties": { 
			 "R2extent": 4144.4818, 
			 "electric_dipole_moment_norm": 4.71881727767, 
			 "electric_quadrupole_moment_norm": 17.1836411904, 
			 "total_energy": -992.050562407, 
			 "HOMO_LUMO_gap": 0.18282, 
			 "cosmo_polarized_energy": -14.05, 
			 "cosmo_cavitation_energy": 26.84, 
			 "cosmo_dispersion_energy": -20.26, 
			 "cosmo_repulsion_energy": 1.6, 
			 "cosmo_total_nonelectrostatic_energy": 8.18, 
			 "SMD_solvation_energy": 4.41 
		},
		"coords": [
			{
				"x": 2.8867752806,
				"y": -0.6702990785,
				"z": -3.7499721721,
				"element": "N" 
			},
			{
				"x": 2.2962045721,
				"y": -0.6502869982,
				"z": -2.5108251137,
				"element": "C" 
			},
			{
				"x": 1.0334204127,
				"y": -0.9322474729,
				"z": -2.061654565,
				"element": "C" 
			},
			{
				"x": 1.1009291024,
				"y": -0.6259776452,
				"z": -0.6699438688,
				"element": "C" 
			},
			{
				"x": 2.2985492667,
				"y": -0.1981537504,
				"z": -0.3124092272,
				"element": "N" 
			},
			{
				"x": 3.0658639591,
				"y": -0.216709095,
				"z": -1.497170971,
				"element": "O" 
			},
			{
				"x": 0.0341339333,
				"y": -0.7360861356,
				"z": 0.3416525575,
				"element": "C" 
			},
			{
				"x": 0.3034407064,
				"y": -0.4523538094,
				"z": 1.6912041742,
				"element": "C" 
			},
			{
				"x": -0.6943309684,
				"y": -0.5521372202,
				"z": 2.6550518307,
				"element": "C" 
			},
			{
				"x": -1.9788904523,
				"y": -0.9408860537,
				"z": 2.270471166,
				"element": "C" 
			},
			{
				"x": -3.2436679281,
				"y": -1.0707633973,
				"z": 3.4838677315,
				"element": "Cl" 
			},
			{
				"x": -2.2735706688,
				"y": -1.2276435896,
				"z": 0.9391601499,
				"element": "C" 
			},
			{
				"x": -1.2645326593,
				"y": -1.1228334077,
				"z": -0.0169169822,
				"element": "C" 
			},
			{
				"x": 3.8975563366,
				"y": -0.6953369968,
				"z": -3.7340042516,
				"element": "H" 
			},
			{
				"x": 2.4773383752,
				"y": -1.3108208905,
				"z": -4.4141784769,
				"element": "H" 
			},
			{
				"x": 0.1972758416,
				"y": -1.2957722253,
				"z": -2.6364339751,
				"element": "H" 
			},
			{
				"x": 1.3058193385,
				"y": -0.1523782748,
				"z": 1.9762658252,
				"element": "H" 
			},
			{
				"x": -0.4819408136,
				"y": -0.3325542383,
				"z": 3.6954770126,
				"element": "H" 
			},
			{
				"x": -3.2763390772,
				"y": -1.5267708551,
				"z": 0.655281749,
				"element": "H" 
			},
			{
				"x": -1.5011345577,
				"y": -1.3432888656,
				"z": -1.0528225931,
				"element": "H" 
			}
		],
		 "valence_orbital": [ 
			{
				"type": "occ",
				"energy": -0.29984,
				"method": "rhf"
			},
			{
				"type": "occ",
				"energy": -0.29883,
				"method": "rhf"
			},
			{
				"type": "occ",
				"energy": -0.2647,
				"method": "rhf"
			},
			{
				"type": "occ",
				"energy": -0.23693,
				"method": "rhf"
			},
			{
				"type": "occ",
				"energy": -0.22151,
				"method": "rhf"
			},
			{
				"type": "unocc",
				"energy": -0.03869,
				"method": "rhf"
			},
			{
				"type": "unocc",
				"energy": -0.01391,
				"method": "rhf"
			},
			{
				"type": "unocc",
				"energy": 0.02657,
				"method": "rhf"
			},
			{
				"type": "unocc",
				"energy": 0.03041,
				"method": "rhf"
			},
			{
				"type": "unocc",
				"energy": 0.05736,
				"method": "rhf"
			}
		],
		"cosmo_sigma_profile": { 
			"-0.025": 0.0,
			"-0.024": 0.0,
			"-0.023": 0.0,
			"-0.022": 0.0,
			"-0.021": 0.0,
			"-0.02": 0.0,
			"-0.019": 0.0,
			"-0.018": 0.0,
			"-0.017": 0.0,
			"-0.016": 0.0,
			"-0.015": 0.68109919351,
			"-0.014": 3.13814472294,
			"-0.013": 2.42812439271,
			"-0.012": 2.37768969325,
			"-0.011": 3.14249349102,
			"-0.01": 2.68057094117,
			"-0.009": 2.94392931201,
			"-0.008": 5.17870100207,
			"-0.007": 9.23171083356,
			"-0.006": 8.34097817719,
			"-0.005": 9.93246003239,
			"-0.004": 6.95532997492,
			"-0.003": 8.00690239308,
			"-0.002": 9.13221730311,
			"-0.001": 10.4606310011,
			"0.0": 10.9371211222,
			"0.001": 19.0175737176,
			"0.002": 25.9339449533,
			"0.003": 26.3936851382,
			"0.004": 18.1769475864,
			"0.005": 8.99623726795,
			"0.006": 3.19744341915,
			"0.007": 2.94986054938,
			"0.008": 5.54800180105,
			"0.009": 3.75166711661,
			"0.01": 2.28652560678,
			"0.011": 2.36703385333,
			"0.012": 1.53504403329,
			"0.013": 1.26609445165,
			"0.014": 0.958764415804,
			"0.015": 0.0237993363605,
			"0.016": 0.0,
			"0.017": 0.0,
			"0.018": 0.0,
			"0.019": 0.0,
			"0.02": 0.0,
			"0.021": 0.0,
			"0.022": 0.0,
			"0.023": 0.0,
			"0.024": 0.0,
			"0.025": 0.0
		}
	}
}
