{
	 "smiles": "CN(C)S(=O)(=O)C1=CC2=C(NCCC2)C=C1", 
	 "Tm": 434.15, 
	 "num_atms": 32, 
	 "gaussian": { 
		 "optdone": 1, 
		 "sigma_profile": "yes", 
		 "theory": "DFT", 
		 "functional": "B3LYP", 
		 "basiset": "6-31G**", 
		 "properties": { 
			 "R2extent": 5074.1108, 
			 "electric_dipole_moment_norm": 8.01866529792, 
			 "electric_quadrupole_moment_norm": 20.3515920913, 
			 "total_energy": -1086.89254327, 
			 "HOMO_LUMO_gap": 0.19108, 
			 "cosmo_polarized_energy": -18.0, 
			 "cosmo_cavitation_energy": 34.38, 
			 "cosmo_dispersion_energy": -25.37, 
			 "cosmo_repulsion_energy": 1.93, 
			 "cosmo_total_nonelectrostatic_energy": 10.94, 
			 "SMD_solvation_energy": 2.78 
		},
		"coords": [
			{
				"x": -0.006606943,
				"y": -3.0230307162,
				"z": -1.9453740062,
				"element": "C" 
			},
			{
				"x": -0.0985313288,
				"y": -3.3665509761,
				"z": -0.5260344338,
				"element": "N" 
			},
			{
				"x": 1.1769001926,
				"y": -3.3440449209,
				"z": 0.1911015206,
				"element": "C" 
			},
			{
				"x": -1.4246359248,
				"y": -2.7060525154,
				"z": 0.3074304594,
				"element": "S" 
			},
			{
				"x": -2.5853205725,
				"y": -2.9249202344,
				"z": -0.5607121208,
				"element": "O" 
			},
			{
				"x": -1.3529307512,
				"y": -3.2568930474,
				"z": 1.663789322,
				"element": "O" 
			},
			{
				"x": -1.1572928861,
				"y": -0.9451171008,
				"z": 0.4230317088,
				"element": "C" 
			},
			{
				"x": -1.6289262633,
				"y": -0.0994806792,
				"z": -0.5866255373,
				"element": "C" 
			},
			{
				"x": -1.4029038018,
				"y": 1.2733683834,
				"z": -0.5425457118,
				"element": "C" 
			},
			{
				"x": -0.6922437156,
				"y": 1.8151349113,
				"z": 0.5588445161,
				"element": "C" 
			},
			{
				"x": -0.4943206691,
				"y": 3.1767495039,
				"z": 0.6642102459,
				"element": "N" 
			},
			{
				"x": -0.7712583898,
				"y": 4.0828885265,
				"z": -0.4404746607,
				"element": "C" 
			},
			{
				"x": -2.0486552586,
				"y": 3.6378995739,
				"z": -1.1560722467,
				"element": "C" 
			},
			{
				"x": -1.9024371965,
				"y": 2.1898709125,
				"z": -1.64402557,
				"element": "C" 
			},
			{
				"x": -0.2306542539,
				"y": 0.953752496,
				"z": 1.5763830187,
				"element": "C" 
			},
			{
				"x": -0.4564993685,
				"y": -0.4127359127,
				"z": 1.5118270655,
				"element": "C" 
			},
			{
				"x": 0.368455472,
				"y": -2.0010433106,
				"z": -2.1154362875,
				"element": "H" 
			},
			{
				"x": -0.9877006816,
				"y": -3.1326657481,
				"z": -2.4068364415,
				"element": "H" 
			},
			{
				"x": 0.6824309665,
				"y": -3.7274337716,
				"z": -2.4211131883,
				"element": "H" 
			},
			{
				"x": 1.8556351526,
				"y": -4.0466753467,
				"z": -0.3017591522,
				"element": "H" 
			},
			{
				"x": 1.0192592981,
				"y": -3.6762943465,
				"z": 1.2169001176,
				"element": "H" 
			},
			{
				"x": 1.6490659673,
				"y": -2.3485906602,
				"z": 0.1946152596,
				"element": "H" 
			},
			{
				"x": -2.2036529706,
				"y": -0.5225178887,
				"z": -1.4051316869,
				"element": "H" 
			},
			{
				"x": 0.1744116365,
				"y": 3.4822287487,
				"z": 1.3548554826,
				"element": "H" 
			},
			{
				"x": 0.0632640583,
				"y": 4.1137188803,
				"z": -1.1614415624,
				"element": "H" 
			},
			{
				"x": -0.8875555974,
				"y": 5.0935523367,
				"z": -0.0354140938,
				"element": "H" 
			},
			{
				"x": -2.2533186165,
				"y": 4.3085916949,
				"z": -1.9966549983,
				"element": "H" 
			},
			{
				"x": -2.8907235861,
				"y": 3.7147793314,
				"z": -0.458847562,
				"element": "H" 
			},
			{
				"x": -1.2007895935,
				"y": 2.1654084726,
				"z": -2.4903177784,
				"element": "H" 
			},
			{
				"x": -2.8581756511,
				"y": 1.8191413466,
				"z": -2.0304170687,
				"element": "H" 
			},
			{
				"x": 0.2945890906,
				"y": 1.3757001948,
				"z": 2.4298607476,
				"element": "H" 
			},
			{
				"x": -0.1240778144,
				"y": -1.0656381377,
				"z": 2.3112846429,
				"element": "H" 
			}
		],
		 "valence_orbital": [ 
			{
				"type": "occ",
				"energy": -0.28557,
				"method": "rhf"
			},
			{
				"type": "occ",
				"energy": -0.2839,
				"method": "rhf"
			},
			{
				"type": "occ",
				"energy": -0.25477,
				"method": "rhf"
			},
			{
				"type": "occ",
				"energy": -0.24894,
				"method": "rhf"
			},
			{
				"type": "occ",
				"energy": -0.20543,
				"method": "rhf"
			},
			{
				"type": "unocc",
				"energy": -0.01435,
				"method": "rhf"
			},
			{
				"type": "unocc",
				"energy": -0.01151,
				"method": "rhf"
			},
			{
				"type": "unocc",
				"energy": 0.06696,
				"method": "rhf"
			},
			{
				"type": "unocc",
				"energy": 0.0785,
				"method": "rhf"
			},
			{
				"type": "unocc",
				"energy": 0.0857,
				"method": "rhf"
			}
		],
		"cosmo_sigma_profile": { 
			"-0.025": 0.0,
			"-0.024": 0.0,
			"-0.023": 0.0,
			"-0.022": 0.0,
			"-0.021": 0.0,
			"-0.02": 0.0,
			"-0.019": 0.0,
			"-0.018": 0.0,
			"-0.017": 0.0,
			"-0.016": 0.0,
			"-0.015": 0.0,
			"-0.014": 0.135975975772,
			"-0.013": 1.17393622058,
			"-0.012": 1.65869365609,
			"-0.011": 1.36856139684,
			"-0.01": 1.32939786445,
			"-0.009": 1.36869883239,
			"-0.008": 1.90077155897,
			"-0.007": 2.31010592379,
			"-0.006": 8.0327679382,
			"-0.005": 14.6109214737,
			"-0.004": 25.4599940917,
			"-0.003": 37.7197608537,
			"-0.002": 41.9294225861,
			"-0.001": 24.3053060342,
			"0.0": 13.5647549985,
			"0.001": 8.67139665282,
			"0.002": 8.79847933513,
			"0.003": 11.3197197982,
			"0.004": 12.9290976929,
			"0.005": 10.8893978329,
			"0.006": 4.1353784096,
			"0.007": 4.5736061881,
			"0.008": 5.40286227686,
			"0.009": 4.72323568464,
			"0.01": 5.31947020911,
			"0.011": 8.02386746213,
			"0.012": 7.51627393575,
			"0.013": 0.95273025487,
			"0.014": 0.0,
			"0.015": 0.0,
			"0.016": 0.0,
			"0.017": 0.0,
			"0.018": 0.0,
			"0.019": 0.0,
			"0.02": 0.0,
			"0.021": 0.0,
			"0.022": 0.0,
			"0.023": 0.0,
			"0.024": 0.0,
			"0.025": 0.0
		}
	}
}
