{
	 "smiles": "CCCCCCCCBr", 
	 "Tm": 218.15, 
	 "num_atms": 26, 
	 "gaussian": { 
		 "optdone": 1, 
		 "sigma_profile": "yes", 
		 "theory": "DFT", 
		 "functional": "B3LYP", 
		 "basiset": "6-31G**", 
		 "properties": { 
			 "R2extent": 3729.2162, 
			 "electric_dipole_moment_norm": 2.27272463356, 
			 "electric_quadrupole_moment_norm": 8.20460239134, 
			 "total_energy": -2886.52301809, 
			 "HOMO_LUMO_gap": 0.27193, 
			 "cosmo_polarized_energy": -3.88, 
			 "cosmo_cavitation_energy": 28.6, 
			 "cosmo_dispersion_energy": -20.75, 
			 "cosmo_repulsion_energy": 1.74, 
			 "cosmo_total_nonelectrostatic_energy": 9.59, 
			 "SMD_solvation_energy": 3.06 
		},
		"coords": [
			{
				"x": 2.3924605346,
				"y": -2.7809823799,
				"z": -0.4112080808,
				"element": "C" 
			},
			{
				"x": 2.957430742,
				"y": -1.4555093504,
				"z": 0.1173234643,
				"element": "C" 
			},
			{
				"x": 3.234502091,
				"y": -0.380703318,
				"z": -0.9568747887,
				"element": "C" 
			},
			{
				"x": 2.0856976041,
				"y": 0.5795046752,
				"z": -1.3259125032,
				"element": "C" 
			},
			{
				"x": 0.8376466089,
				"y": -0.0368633591,
				"z": -2.0005453828,
				"element": "C" 
			},
			{
				"x": -0.3200940384,
				"y": -0.4121933036,
				"z": -1.0559583473,
				"element": "C" 
			},
			{
				"x": -1.0826327166,
				"y": 0.8042377621,
				"z": -0.5152723509,
				"element": "C" 
			},
			{
				"x": -2.1999267408,
				"y": 0.4724592351,
				"z": 0.4624624329,
				"element": "C" 
			},
			{
				"x": -3.687560605,
				"y": -0.5441184053,
				"z": -0.3825041061,
				"element": "Br" 
			},
			{
				"x": 3.0762434089,
				"y": -3.228243522,
				"z": -1.141814522,
				"element": "H" 
			},
			{
				"x": 1.4232057763,
				"y": -2.659044125,
				"z": -0.9022943837,
				"element": "H" 
			},
			{
				"x": 2.2603394973,
				"y": -3.5033311059,
				"z": 0.4016448889,
				"element": "H" 
			},
			{
				"x": 3.8999034559,
				"y": -1.6764475651,
				"z": 0.6342793304,
				"element": "H" 
			},
			{
				"x": 2.2906328112,
				"y": -1.0424847772,
				"z": 0.8866339489,
				"element": "H" 
			},
			{
				"x": 3.5968717879,
				"y": -0.8739657606,
				"z": -1.8703213862,
				"element": "H" 
			},
			{
				"x": 4.0675225294,
				"y": 0.2438350069,
				"z": -0.6091569466,
				"element": "H" 
			},
			{
				"x": 1.7855330566,
				"y": 1.1325477507,
				"z": -0.4248464893,
				"element": "H" 
			},
			{
				"x": 2.5080317268,
				"y": 1.3346426195,
				"z": -2.0006851578,
				"element": "H" 
			},
			{
				"x": 0.4456380876,
				"y": 0.6708106182,
				"z": -2.743231324,
				"element": "H" 
			},
			{
				"x": 1.1396911721,
				"y": -0.9223060364,
				"z": -2.5731101296,
				"element": "H" 
			},
			{
				"x": 0.0536747417,
				"y": -1.0042129386,
				"z": -0.2109943047,
				"element": "H" 
			},
			{
				"x": -1.0301554872,
				"y": -1.0533321342,
				"z": -1.5903119297,
				"element": "H" 
			},
			{
				"x": -1.4900108751,
				"y": 1.3911176575,
				"z": -1.3472962665,
				"element": "H" 
			},
			{
				"x": -0.3936021371,
				"y": 1.4702022611,
				"z": 0.0249730511,
				"element": "H" 
			},
			{
				"x": -2.6753932833,
				"y": 1.3665599297,
				"z": 0.8642500331,
				"element": "H" 
			},
			{
				"x": -1.8607497487,
				"y": -0.1601794349,
				"z": 1.2836712504,
				"element": "H" 
			}
		],
		 "valence_orbital": [ 
			{
				"type": "occ",
				"energy": -0.31675,
				"method": "rhf"
			},
			{
				"type": "occ",
				"energy": -0.30702,
				"method": "rhf"
			},
			{
				"type": "occ",
				"energy": -0.30521,
				"method": "rhf"
			},
			{
				"type": "occ",
				"energy": -0.26857,
				"method": "rhf"
			},
			{
				"type": "occ",
				"energy": -0.26612,
				"method": "rhf"
			},
			{
				"type": "unocc",
				"energy": 0.00581,
				"method": "rhf"
			},
			{
				"type": "unocc",
				"energy": 0.07804,
				"method": "rhf"
			},
			{
				"type": "unocc",
				"energy": 0.09158,
				"method": "rhf"
			},
			{
				"type": "unocc",
				"energy": 0.1069,
				"method": "rhf"
			},
			{
				"type": "unocc",
				"energy": 0.11507,
				"method": "rhf"
			}
		],
		"cosmo_sigma_profile": { 
			"-0.025": 0.0,
			"-0.024": 0.0,
			"-0.023": 0.0,
			"-0.022": 0.0,
			"-0.021": 0.0,
			"-0.02": 0.0,
			"-0.019": 0.0,
			"-0.018": 0.0,
			"-0.017": 0.0,
			"-0.016": 0.0,
			"-0.015": 0.0,
			"-0.014": 0.0,
			"-0.013": 0.0,
			"-0.012": 0.0,
			"-0.011": 0.0,
			"-0.01": 0.0,
			"-0.009": 0.0,
			"-0.008": 0.0,
			"-0.007": 1.21883334633,
			"-0.006": 4.28100328624,
			"-0.005": 5.14571578234,
			"-0.004": 9.86918849891,
			"-0.003": 12.7471907525,
			"-0.002": 28.8633503764,
			"-0.001": 39.9380503933,
			"0.0": 40.3836713736,
			"0.001": 32.3943068586,
			"0.002": 16.383996566,
			"0.003": 5.6217364222,
			"0.004": 4.92893112892,
			"0.005": 6.42169924549,
			"0.006": 8.58633826464,
			"0.007": 6.97194755529,
			"0.008": 0.0199355383182,
			"0.009": 0.0,
			"0.01": 0.0,
			"0.011": 0.0,
			"0.012": 0.0,
			"0.013": 0.0,
			"0.014": 0.0,
			"0.015": 0.0,
			"0.016": 0.0,
			"0.017": 0.0,
			"0.018": 0.0,
			"0.019": 0.0,
			"0.02": 0.0,
			"0.021": 0.0,
			"0.022": 0.0,
			"0.023": 0.0,
			"0.024": 0.0,
			"0.025": 0.0
		}
	}
}
