{
	 "smiles": "CC1=C(Cl)C(=CC(=C1)S(Cl)(=O)=O)C(O)=O", 
	 "Tm": 443.15, 
	 "num_atms": 21, 
	 "gaussian": { 
		 "optdone": 1, 
		 "sigma_profile": "yes", 
		 "theory": "DFT", 
		 "functional": "B3LYP", 
		 "basiset": "6-31G**", 
		 "properties": { 
			 "R2extent": 4935.02, 
			 "electric_dipole_moment_norm": 6.80738325644, 
			 "electric_quadrupole_moment_norm": 12.1047675087, 
			 "total_energy": -1927.87283342, 
			 "HOMO_LUMO_gap": 0.19006, 
			 "cosmo_polarized_energy": -15.98, 
			 "cosmo_cavitation_energy": 30.9, 
			 "cosmo_dispersion_energy": -23.06, 
			 "cosmo_repulsion_energy": 1.76, 
			 "cosmo_total_nonelectrostatic_energy": 9.6, 
			 "SMD_solvation_energy": 4.97 
		},
		"coords": [
			{
				"x": -2.3330460636,
				"y": 0.1029768354,
				"z": 1.9520207625,
				"element": "C" 
			},
			{
				"x": -1.0800578213,
				"y": 0.0230566806,
				"z": 1.1173825655,
				"element": "C" 
			},
			{
				"x": -0.3677293162,
				"y": 1.1701921847,
				"z": 0.7136798333,
				"element": "C" 
			},
			{
				"x": -1.045803271,
				"y": 2.7203146303,
				"z": 1.2281611232,
				"element": "Cl" 
			},
			{
				"x": 0.801569581,
				"y": 1.1138749553,
				"z": -0.0677148281,
				"element": "C" 
			},
			{
				"x": 1.2580849793,
				"y": -0.1531831221,
				"z": -0.4608651757,
				"element": "C" 
			},
			{
				"x": 0.5688267862,
				"y": -1.286614726,
				"z": -0.0626178682,
				"element": "C" 
			},
			{
				"x": -0.5833224355,
				"y": -1.218872319,
				"z": 0.716947545,
				"element": "C" 
			},
			{
				"x": 1.1872997636,
				"y": -2.8979983634,
				"z": -0.5437021834,
				"element": "S" 
			},
			{
				"x": 0.1816401197,
				"y": -3.1835125041,
				"z": -2.3957646997,
				"element": "Cl" 
			},
			{
				"x": 2.606173371,
				"y": -2.7963219209,
				"z": -0.852170842,
				"element": "O" 
			},
			{
				"x": 0.6513651944,
				"y": -3.8974556733,
				"z": 0.3718315322,
				"element": "O" 
			},
			{
				"x": 1.6708974795,
				"y": 2.254784725,
				"z": -0.5851839156,
				"element": "C" 
			},
			{
				"x": 1.5723987948,
				"y": 3.471364107,
				"z": -0.0286245032,
				"element": "O" 
			},
			{
				"x": 2.4694435066,
				"y": 2.0522985672,
				"z": -1.4693051075,
				"element": "O" 
			},
			{
				"x": -3.1162446062,
				"y": 0.6714471841,
				"z": 1.4400682674,
				"element": "H" 
			},
			{
				"x": -2.7173314517,
				"y": -0.897683574,
				"z": 2.1587562483,
				"element": "H" 
			},
			{
				"x": -2.1447022657,
				"y": 0.6026820233,
				"z": 2.9076086818,
				"element": "H" 
			},
			{
				"x": 2.1502640892,
				"y": -0.2101201907,
				"z": -1.0731929229,
				"element": "H" 
			},
			{
				"x": -1.0901762661,
				"y": -2.1292967479,
				"z": 1.0174403704,
				"element": "H" 
			},
			{
				"x": 0.8830498319,
				"y": 3.5036672485,
				"z": 0.6535451166,
				"element": "H" 
			}
		],
		 "valence_orbital": [ 
			{
				"type": "occ",
				"energy": -0.33347,
				"method": "rhf"
			},
			{
				"type": "occ",
				"energy": -0.32275,
				"method": "rhf"
			},
			{
				"type": "occ",
				"energy": -0.30589,
				"method": "rhf"
			},
			{
				"type": "occ",
				"energy": -0.29836,
				"method": "rhf"
			},
			{
				"type": "occ",
				"energy": -0.29359,
				"method": "rhf"
			},
			{
				"type": "unocc",
				"energy": -0.10353,
				"method": "rhf"
			},
			{
				"type": "unocc",
				"energy": -0.08304,
				"method": "rhf"
			},
			{
				"type": "unocc",
				"energy": -0.06111,
				"method": "rhf"
			},
			{
				"type": "unocc",
				"energy": -0.02037,
				"method": "rhf"
			},
			{
				"type": "unocc",
				"energy": 0.0107,
				"method": "rhf"
			}
		],
		"cosmo_sigma_profile": { 
			"-0.025": 0.0,
			"-0.024": 0.0,
			"-0.023": 0.0,
			"-0.022": 0.0,
			"-0.021": 0.0,
			"-0.02": 0.0,
			"-0.019": 0.0,
			"-0.018": 0.0,
			"-0.017": 0.0,
			"-0.016": 0.0,
			"-0.015": 0.00140160433722,
			"-0.014": 0.376297180975,
			"-0.013": 1.14420730275,
			"-0.012": 1.67227881936,
			"-0.011": 0.943194164698,
			"-0.01": 1.42824230574,
			"-0.009": 3.14993019054,
			"-0.008": 3.42812594007,
			"-0.007": 6.14924170664,
			"-0.006": 10.0765557826,
			"-0.005": 15.3001001125,
			"-0.004": 18.3950416762,
			"-0.003": 23.2492081349,
			"-0.002": 32.9628975552,
			"-0.001": 20.0824403838,
			"0.0": 12.2013902124,
			"0.001": 13.9920666073,
			"0.002": 14.1838181659,
			"0.003": 16.2731411034,
			"0.004": 8.0409490396,
			"0.005": 4.19124396847,
			"0.006": 6.34828729875,
			"0.007": 9.83083224303,
			"0.008": 11.9640741472,
			"0.009": 6.29037411999,
			"0.01": 5.06324002603,
			"0.011": 4.2073184266,
			"0.012": 1.92291512945,
			"0.013": 0.153627700326,
			"0.014": 0.0,
			"0.015": 0.0,
			"0.016": 0.0,
			"0.017": 0.0,
			"0.018": 0.0,
			"0.019": 0.0,
			"0.02": 0.0,
			"0.021": 0.0,
			"0.022": 0.0,
			"0.023": 0.0,
			"0.024": 0.0,
			"0.025": 0.0
		}
	}
}
