{
	 "smiles": "CC(=O)NC1CCCN(C1)C(=O)CCl", 
	 "Tm": 384.15, 
	 "num_atms": 29, 
	 "gaussian": { 
		 "optdone": 1, 
		 "sigma_profile": "yes", 
		 "theory": "DFT", 
		 "functional": "B3LYP", 
		 "basiset": "6-31G**", 
		 "properties": { 
			 "R2extent": 6620.2334, 
			 "electric_dipole_moment_norm": 3.08408776302, 
			 "electric_quadrupole_moment_norm": 33.4919004155, 
			 "total_energy": -1072.15823343, 
			 "HOMO_LUMO_gap": 0.25885, 
			 "cosmo_polarized_energy": -24.24, 
			 "cosmo_cavitation_energy": 32.15, 
			 "cosmo_dispersion_energy": -23.25, 
			 "cosmo_repulsion_energy": 1.86, 
			 "cosmo_total_nonelectrostatic_energy": 10.76, 
			 "SMD_solvation_energy": 5.14 
		},
		"coords": [
			{
				"x": -1.9811824459,
				"y": 2.1282969371,
				"z": -2.2414784725,
				"element": "C" 
			},
			{
				"x": -2.6749108954,
				"y": 0.8885577666,
				"z": -1.6978886798,
				"element": "C" 
			},
			{
				"x": -3.6924594705,
				"y": 0.4574952151,
				"z": -2.2236409807,
				"element": "O" 
			},
			{
				"x": -2.170121462,
				"y": 0.2727549283,
				"z": -0.5726064763,
				"element": "N" 
			},
			{
				"x": -0.9710871679,
				"y": 0.521377505,
				"z": 0.2274860065,
				"element": "C" 
			},
			{
				"x": 0.3770223168,
				"y": 0.3179800201,
				"z": -0.5302465196,
				"element": "C" 
			},
			{
				"x": 1.4035943789,
				"y": 1.4077318959,
				"z": -0.1792096353,
				"element": "C" 
			},
			{
				"x": 1.4693294246,
				"y": 1.6695540596,
				"z": 1.3247123198,
				"element": "C" 
			},
			{
				"x": 0.1330620067,
				"y": 2.0073026174,
				"z": 1.8548637877,
				"element": "N" 
			},
			{
				"x": -1.0157542588,
				"y": 1.8842064525,
				"z": 0.9578827461,
				"element": "C" 
			},
			{
				"x": 0.0939947545,
				"y": 2.4389319569,
				"z": 3.1580154631,
				"element": "C" 
			},
			{
				"x": 1.1052461573,
				"y": 2.5044805653,
				"z": 3.8383234574,
				"element": "O" 
			},
			{
				"x": -1.2942694386,
				"y": 2.8355963182,
				"z": 3.6960816232,
				"element": "C" 
			},
			{
				"x": -1.2165674167,
				"y": 3.4516354372,
				"z": 5.3743419738,
				"element": "Cl" 
			},
			{
				"x": -0.9070717866,
				"y": 2.1675934992,
				"z": -2.0537478869,
				"element": "H" 
			},
			{
				"x": -2.1649087616,
				"y": 2.1638441668,
				"z": -3.3161116764,
				"element": "H" 
			},
			{
				"x": -2.439873379,
				"y": 3.0189019834,
				"z": -1.7979058278,
				"element": "H" 
			},
			{
				"x": -2.7383688358,
				"y": -0.5214055608,
				"z": -0.3087379059,
				"element": "H" 
			},
			{
				"x": -1.0171464363,
				"y": -0.2266282758,
				"z": 1.0248948025,
				"element": "H" 
			},
			{
				"x": 0.782574398,
				"y": -0.6660531344,
				"z": -0.27036139,
				"element": "H" 
			},
			{
				"x": 0.200609797,
				"y": 0.2981294046,
				"z": -1.6088150737,
				"element": "H" 
			},
			{
				"x": 2.3987304897,
				"y": 1.1150149651,
				"z": -0.5286022866,
				"element": "H" 
			},
			{
				"x": 1.158923823,
				"y": 2.3411018284,
				"z": -0.7014225277,
				"element": "H" 
			},
			{
				"x": 2.155563641,
				"y": 2.4890563016,
				"z": 1.5574703988,
				"element": "H" 
			},
			{
				"x": 1.8524309447,
				"y": 0.7867860319,
				"z": 1.8530502209,
				"element": "H" 
			},
			{
				"x": -1.9430351327,
				"y": 1.9316578271,
				"z": 1.5283191556,
				"element": "H" 
			},
			{
				"x": -1.0400503982,
				"y": 2.7123587419,
				"z": 0.2384905792,
				"element": "H" 
			},
			{
				"x": -1.7418828818,
				"y": 3.6203922519,
				"z": 3.0825208792,
				"element": "H" 
			},
			{
				"x": -1.9689919643,
				"y": 1.9761482938,
				"z": 3.7013219252,
				"element": "H" 
			}
		],
		 "valence_orbital": [ 
			{
				"type": "occ",
				"energy": -0.29792,
				"method": "rhf"
			},
			{
				"type": "occ",
				"energy": -0.26891,
				"method": "rhf"
			},
			{
				"type": "occ",
				"energy": -0.25948,
				"method": "rhf"
			},
			{
				"type": "occ",
				"energy": -0.25513,
				"method": "rhf"
			},
			{
				"type": "occ",
				"energy": -0.24737,
				"method": "rhf"
			},
			{
				"type": "unocc",
				"energy": 0.01148,
				"method": "rhf"
			},
			{
				"type": "unocc",
				"energy": 0.01603,
				"method": "rhf"
			},
			{
				"type": "unocc",
				"energy": 0.02051,
				"method": "rhf"
			},
			{
				"type": "unocc",
				"energy": 0.04716,
				"method": "rhf"
			},
			{
				"type": "unocc",
				"energy": 0.06298,
				"method": "rhf"
			}
		],
		"cosmo_sigma_profile": { 
			"-0.025": 0.0,
			"-0.024": 0.0,
			"-0.023": 0.0,
			"-0.022": 0.0,
			"-0.021": 0.0,
			"-0.02": 0.0,
			"-0.019": 0.0,
			"-0.018": 0.0,
			"-0.017": 0.0,
			"-0.016": 0.0,
			"-0.015": 0.0,
			"-0.014": 0.0149436987149,
			"-0.013": 1.16116104588,
			"-0.012": 1.28351131202,
			"-0.011": 0.724645624137,
			"-0.01": 1.78149682259,
			"-0.009": 7.18259178841,
			"-0.008": 8.44225963923,
			"-0.007": 7.52382273353,
			"-0.006": 13.9449306573,
			"-0.005": 18.545623818,
			"-0.004": 25.7504304744,
			"-0.003": 24.9460673621,
			"-0.002": 21.1029667225,
			"-0.001": 21.0497463707,
			"0.0": 12.458733316,
			"0.001": 7.37673449527,
			"0.002": 7.04324661573,
			"0.003": 7.18311557363,
			"0.004": 6.3853834371,
			"0.005": 7.4919381215,
			"0.006": 9.75443589635,
			"0.007": 3.81973360937,
			"0.008": 3.47960697295,
			"0.009": 3.30957861776,
			"0.01": 2.45940337285,
			"0.011": 3.63286392567,
			"0.012": 4.2766047797,
			"0.013": 7.39249861503,
			"0.014": 9.16758380268,
			"0.015": 4.4057640297,
			"0.016": 0.23819959729,
			"0.017": 0.0,
			"0.018": 0.0,
			"0.019": 0.0,
			"0.02": 0.0,
			"0.021": 0.0,
			"0.022": 0.0,
			"0.023": 0.0,
			"0.024": 0.0,
			"0.025": 0.0
		}
	}
}
