{
	 "smiles": "CC1CC(=O)NC2=C(N1)C=CC=C2", 
	 "Tm": 455.15, 
	 "num_atms": 25, 
	 "gaussian": { 
		 "optdone": 1, 
		 "sigma_profile": "yes", 
		 "theory": "DFT", 
		 "functional": "B3LYP", 
		 "basiset": "6-31G**", 
		 "properties": { 
			 "R2extent": 2373.9452, 
			 "electric_dipole_moment_norm": 3.4724778977, 
			 "electric_quadrupole_moment_norm": 13.8429547702, 
			 "total_energy": -573.040808437, 
			 "HOMO_LUMO_gap": 0.18428, 
			 "cosmo_polarized_energy": -13.4, 
			 "cosmo_cavitation_energy": 26.93, 
			 "cosmo_dispersion_energy": -20.04, 
			 "cosmo_repulsion_energy": 1.57, 
			 "cosmo_total_nonelectrostatic_energy": 8.46, 
			 "SMD_solvation_energy": 4.21 
		},
		"coords": [
			{
				"x": 1.882831107,
				"y": -2.194727669,
				"z": 0.5657736206,
				"element": "C" 
			},
			{
				"x": 1.416903407,
				"y": -1.1844676241,
				"z": 1.6286370278,
				"element": "C" 
			},
			{
				"x": 0.0890948283,
				"y": -1.578653791,
				"z": 2.2932955417,
				"element": "C" 
			},
			{
				"x": -1.0756556911,
				"y": -1.8550955526,
				"z": 1.3646282581,
				"element": "C" 
			},
			{
				"x": -1.855292766,
				"y": -2.778083181,
				"z": 1.5724200205,
				"element": "O" 
			},
			{
				"x": -1.2776630515,
				"y": -1.0455012397,
				"z": 0.2663129285,
				"element": "N" 
			},
			{
				"x": -0.659818375,
				"y": 0.0969912377,
				"z": -0.2952157755,
				"element": "C" 
			},
			{
				"x": 0.585644205,
				"y": 0.6510238006,
				"z": 0.0922221337,
				"element": "C" 
			},
			{
				"x": 1.3650804194,
				"y": 0.2003163837,
				"z": 1.1616448377,
				"element": "N" 
			},
			{
				"x": 1.0398393006,
				"y": 1.7880257041,
				"z": -0.6066508096,
				"element": "C" 
			},
			{
				"x": 0.3216363802,
				"y": 2.3729940474,
				"z": -1.6403439031,
				"element": "C" 
			},
			{
				"x": -0.9004872064,
				"y": 1.8191870869,
				"z": -2.0235410551,
				"element": "C" 
			},
			{
				"x": -1.3685822387,
				"y": 0.6984686666,
				"z": -1.3502561787,
				"element": "C" 
			},
			{
				"x": 1.9550836209,
				"y": -3.2002190254,
				"z": 0.9934764944,
				"element": "H" 
			},
			{
				"x": 2.868945097,
				"y": -1.9174390981,
				"z": 0.1797277064,
				"element": "H" 
			},
			{
				"x": 1.1889631374,
				"y": -2.2353337993,
				"z": -0.2786572099,
				"element": "H" 
			},
			{
				"x": 2.1628109728,
				"y": -1.1741657345,
				"z": 2.4319873798,
				"element": "H" 
			},
			{
				"x": 0.2139760198,
				"y": -2.4934091334,
				"z": 2.8772874962,
				"element": "H" 
			},
			{
				"x": -0.2013980612,
				"y": -0.7799741258,
				"z": 2.9854821491,
				"element": "H" 
			},
			{
				"x": -2.1116684651,
				"y": -1.3457957963,
				"z": -0.2246695304,
				"element": "H" 
			},
			{
				"x": 2.2735634584,
				"y": 0.6439310184,
				"z": 1.1698198725,
				"element": "H" 
			},
			{
				"x": 1.9959379583,
				"y": 2.2145945587,
				"z": -0.3102802658,
				"element": "H" 
			},
			{
				"x": 0.7189396877,
				"y": 3.2481626886,
				"z": -2.1450807718,
				"element": "H" 
			},
			{
				"x": -1.4829755917,
				"y": 2.25015214,
				"z": -2.8311552896,
				"element": "H" 
			},
			{
				"x": -2.3221081533,
				"y": 0.2612184374,
				"z": -1.6380646775,
				"element": "H" 
			}
		],
		 "valence_orbital": [ 
			{
				"type": "occ",
				"energy": -0.30313,
				"method": "rhf"
			},
			{
				"type": "occ",
				"energy": -0.29792,
				"method": "rhf"
			},
			{
				"type": "occ",
				"energy": -0.24826,
				"method": "rhf"
			},
			{
				"type": "occ",
				"energy": -0.22777,
				"method": "rhf"
			},
			{
				"type": "occ",
				"energy": -0.19264,
				"method": "rhf"
			},
			{
				"type": "unocc",
				"energy": -0.00836,
				"method": "rhf"
			},
			{
				"type": "unocc",
				"energy": 0.00605,
				"method": "rhf"
			},
			{
				"type": "unocc",
				"energy": 0.04431,
				"method": "rhf"
			},
			{
				"type": "unocc",
				"energy": 0.06263,
				"method": "rhf"
			},
			{
				"type": "unocc",
				"energy": 0.08633,
				"method": "rhf"
			}
		],
		"cosmo_sigma_profile": { 
			"-0.025": 0.0,
			"-0.024": 0.0,
			"-0.023": 0.0,
			"-0.022": 0.0,
			"-0.021": 0.0,
			"-0.02": 0.0,
			"-0.019": 0.0,
			"-0.018": 0.0,
			"-0.017": 0.0,
			"-0.016": 0.0,
			"-0.015": 0.0,
			"-0.014": 0.480762837334,
			"-0.013": 1.35016749683,
			"-0.012": 2.41980264657,
			"-0.011": 2.99473631225,
			"-0.01": 2.36550881406,
			"-0.009": 1.934640257,
			"-0.008": 3.25819637345,
			"-0.007": 3.23953859027,
			"-0.006": 7.29295730711,
			"-0.005": 14.5609090395,
			"-0.004": 20.3321303853,
			"-0.003": 18.3172410924,
			"-0.002": 17.1920152129,
			"-0.001": 15.6284675274,
			"0.0": 15.3504642417,
			"0.001": 13.2414436331,
			"0.002": 9.67356828272,
			"0.003": 7.89675816938,
			"0.004": 9.2763502868,
			"0.005": 10.5250951534,
			"0.006": 9.64211476515,
			"0.007": 6.28591135131,
			"0.008": 1.64139373396,
			"0.009": 2.18584431471,
			"0.01": 1.48884213799,
			"0.011": 1.27637676619,
			"0.012": 2.04204949847,
			"0.013": 4.4851851422,
			"0.014": 4.90375490851,
			"0.015": 0.975730887036,
			"0.016": 0.0,
			"0.017": 0.0,
			"0.018": 0.0,
			"0.019": 0.0,
			"0.02": 0.0,
			"0.021": 0.0,
			"0.022": 0.0,
			"0.023": 0.0,
			"0.024": 0.0,
			"0.025": 0.0
		}
	}
}
