{
	 "smiles": "FC(F)(F)C1=CC=C(I)C=C1", 
	 "Tm": 265.15, 
	 "num_atms": 15, 
	 "gaussian": { 
		 "optdone": 1, 
		 "sigma_profile": "no", 
		 "theory": "DFT", 
		 "functional": "B3LYP", 
		 "basiset": "6-31G**", 
		 "properties": { 
			 "R2extent": 2279.9481, 
			 "electric_dipole_moment_norm": 0.936545620886, 
			 "electric_quadrupole_moment_norm": 7.87633463421, 
			 "total_energy": -580.067824022, 
			 "HOMO_LUMO_gap": 0.20552, 
			 "cosmo_polarized_energy": -97720.26, 
			 "cosmo_cavitation_energy": 24.05, 
			 "cosmo_dispersion_energy": -18.7, 
			 "cosmo_repulsion_energy": 1.41, 
			 "cosmo_total_nonelectrostatic_energy": 6.76, 
			 "SMD_solvation_energy": 4.4 
		},
		"coords": [
			{
				"x": -1.9881178708,
				"y": -1.3684032707,
				"z": 2.0419549172,
				"element": "F" 
			},
			{
				"x": -1.2920390316,
				"y": -0.3607874351,
				"z": 1.475758373,
				"element": "C" 
			},
			{
				"x": -0.9277544054,
				"y": 0.4863782938,
				"z": 2.4651977186,
				"element": "F" 
			},
			{
				"x": -2.1435715375,
				"y": 0.3212218087,
				"z": 0.6763188006,
				"element": "F" 
			},
			{
				"x": -0.0953381642,
				"y": -0.855018514,
				"z": 0.7080877866,
				"element": "C" 
			},
			{
				"x": 0.7221583381,
				"y": 0.0773565759,
				"z": 0.061720077,
				"element": "C" 
			},
			{
				"x": 1.8375830908,
				"y": -0.3460708503,
				"z": -0.6566582513,
				"element": "C" 
			},
			{
				"x": 2.1287357355,
				"y": -1.7117968912,
				"z": -0.7230797848,
				"element": "C" 
			},
			{
				"x": 3.8229208177,
				"y": -2.3641390732,
				"z": -1.8133018653,
				"element": "I" 
			},
			{
				"x": 1.319651531,
				"y": -2.6505712111,
				"z": -0.0818757709,
				"element": "C" 
			},
			{
				"x": 0.2041156651,
				"y": -2.215330541,
				"z": 0.6354454651,
				"element": "C" 
			},
			{
				"x": 0.4893037655,
				"y": 1.1360381999,
				"z": 0.1179611134,
				"element": "H" 
			},
			{
				"x": 2.4696178316,
				"y": 0.3786881909,
				"z": -1.1568241852,
				"element": "H" 
			},
			{
				"x": 1.5500539529,
				"y": -3.7083214424,
				"z": -0.1367281162,
				"element": "H" 
			},
			{
				"x": -0.4308197185,
				"y": -2.9365438402,
				"z": 1.1371237223,
				"element": "H" 
			}
		],
		 "valence_orbital": [ 
			{
				"type": "occ",
				"energy": -0.35491,
				"method": "rhf"
			},
			{
				"type": "occ",
				"energy": -0.3117,
				"method": "rhf"
			},
			{
				"type": "occ",
				"energy": -0.28109,
				"method": "rhf"
			},
			{
				"type": "occ",
				"energy": -0.27838,
				"method": "rhf"
			},
			{
				"type": "occ",
				"energy": -0.25415,
				"method": "rhf"
			},
			{
				"type": "unocc",
				"energy": -0.04863,
				"method": "rhf"
			},
			{
				"type": "unocc",
				"energy": -0.04353,
				"method": "rhf"
			},
			{
				"type": "unocc",
				"energy": -0.03069,
				"method": "rhf"
			},
			{
				"type": "unocc",
				"energy": 0.03713,
				"method": "rhf"
			},
			{
				"type": "unocc",
				"energy": 0.04448,
				"method": "rhf"
			}
		],
		"cosmo_sigma_profile": { 
			"0.0": 0.0,
			"0.0": 0.0,
			"0.0": 0.0,
			"0.0": 0.0,
			"0.0": 0.0,
			"0.0": 0.0,
			"0.0": 0.0,
			"0.0": 0.0,
			"0.0": 0.0,
			"0.0": 0.0,
			"0.0": 0.0,
			"0.0": 0.0,
			"0.0": 0.0,
			"0.0": 0.0,
			"0.0": 0.0,
			"0.0": 0.0,
			"0.0": 0.0,
			"0.0": 0.0,
			"0.0": 0.0,
			"0.0": 0.0,
			"0.0": 0.0,
			"0.0": 0.0,
			"0.0": 0.0,
			"0.0": 0.0,
			"0.0": 0.0,
			"0.0": 0.0,
			"0.0": 0.0,
			"0.0": 0.0,
			"0.0": 0.0,
			"0.0": 0.0,
			"0.0": 0.0,
			"0.0": 0.0,
			"0.0": 0.0,
			"0.0": 0.0,
			"0.0": 0.0,
			"0.0": 0.0,
			"0.0": 0.0,
			"0.0": 0.0,
			"0.0": 0.0,
			"0.0": 0.0,
			"0.0": 0.0,
			"0.0": 0.0,
			"0.0": 0.0,
			"0.0": 0.0,
			"0.0": 0.0,
			"0.0": 0.0,
			"0.0": 0.0,
			"0.0": 0.0,
			"0.0": 0.0,
			"0.0": 0.0,
			"0.0": 0.0
		}
	}
}
