{
	 "smiles": "OC(=O)C(CC#N)C1=CC=CC=C1", 
	 "Tm": 338.15, 
	 "num_atms": 22, 
	 "gaussian": { 
		 "optdone": 1, 
		 "sigma_profile": "yes", 
		 "theory": "DFT", 
		 "functional": "B3LYP", 
		 "basiset": "6-31G**", 
		 "properties": { 
			 "R2extent": 2582.8653, 
			 "electric_dipole_moment_norm": 6.26131247903, 
			 "electric_quadrupole_moment_norm": 15.4300754956, 
			 "total_energy": -591.678053111, 
			 "HOMO_LUMO_gap": 0.23363, 
			 "cosmo_polarized_energy": -18.54, 
			 "cosmo_cavitation_energy": 26.87, 
			 "cosmo_dispersion_energy": -18.48, 
			 "cosmo_repulsion_energy": 1.48, 
			 "cosmo_total_nonelectrostatic_energy": 9.87, 
			 "SMD_solvation_energy": 6.86 
		},
		"coords": [
			{
				"x": -1.6006168957,
				"y": 0.6475500358,
				"z": -1.3359318126,
				"element": "O" 
			},
			{
				"x": -1.5446084195,
				"y": -0.4357901795,
				"z": -0.5344497649,
				"element": "C" 
			},
			{
				"x": -2.4721839437,
				"y": -1.2031616935,
				"z": -0.4583293746,
				"element": "O" 
			},
			{
				"x": -0.2745085479,
				"y": -0.5786304878,
				"z": 0.3340157404,
				"element": "C" 
			},
			{
				"x": -0.097543211,
				"y": -2.0625249684,
				"z": 0.7541163311,
				"element": "C" 
			},
			{
				"x": 0.2782744752,
				"y": -2.9543571838,
				"z": -0.3454373855,
				"element": "C" 
			},
			{
				"x": 0.5843429628,
				"y": -3.6572664637,
				"z": -1.216733973,
				"element": "N" 
			},
			{
				"x": 0.9758470028,
				"y": 0.0701993764,
				"z": -0.2390023789,
				"element": "C" 
			},
			{
				"x": 1.7104679875,
				"y": 0.9776067845,
				"z": 0.5392303339,
				"element": "C" 
			},
			{
				"x": 2.872355357,
				"y": 1.5696708915,
				"z": 0.0436074961,
				"element": "C" 
			},
			{
				"x": 3.3159875763,
				"y": 1.264996299,
				"z": -1.2442930085,
				"element": "C" 
			},
			{
				"x": 2.5918724898,
				"y": 0.3682418794,
				"z": -2.0318063442,
				"element": "C" 
			},
			{
				"x": 1.4301170326,
				"y": -0.2256986458,
				"z": -1.5365687027,
				"element": "C" 
			},
			{
				"x": -0.7455038276,
				"y": 1.1073589814,
				"z": -1.3249439131,
				"element": "H" 
			},
			{
				"x": -0.5255151742,
				"y": -0.0451972571,
				"z": 1.2611613882,
				"element": "H" 
			},
			{
				"x": 0.6690867769,
				"y": -2.1307943408,
				"z": 1.5325726478,
				"element": "H" 
			},
			{
				"x": -1.0458646261,
				"y": -2.4162044274,
				"z": 1.1688180996,
				"element": "H" 
			},
			{
				"x": 1.3697785582,
				"y": 1.2198344933,
				"z": 1.543201128,
				"element": "H" 
			},
			{
				"x": 3.4274303576,
				"y": 2.2689753057,
				"z": 0.6618254648,
				"element": "H" 
			},
			{
				"x": 4.2191945837,
				"y": 1.7256288332,
				"z": -1.6331696522,
				"element": "H" 
			},
			{
				"x": 2.9304231214,
				"y": 0.1258093475,
				"z": -3.0345540588,
				"element": "H" 
			},
			{
				"x": 0.8828663641,
				"y": -0.9288465801,
				"z": -2.156728261,
				"element": "H" 
			}
		],
		 "valence_orbital": [ 
			{
				"type": "occ",
				"energy": -0.32582,
				"method": "rhf"
			},
			{
				"type": "occ",
				"energy": -0.32259,
				"method": "rhf"
			},
			{
				"type": "occ",
				"energy": -0.29032,
				"method": "rhf"
			},
			{
				"type": "occ",
				"energy": -0.27455,
				"method": "rhf"
			},
			{
				"type": "occ",
				"energy": -0.26685,
				"method": "rhf"
			},
			{
				"type": "unocc",
				"energy": -0.03322,
				"method": "rhf"
			},
			{
				"type": "unocc",
				"energy": -0.02747,
				"method": "rhf"
			},
			{
				"type": "unocc",
				"energy": -0.006,
				"method": "rhf"
			},
			{
				"type": "unocc",
				"energy": 0.02534,
				"method": "rhf"
			},
			{
				"type": "unocc",
				"energy": 0.03953,
				"method": "rhf"
			}
		],
		"cosmo_sigma_profile": { 
			"-0.025": 0.0,
			"-0.024": 0.0,
			"-0.023": 0.0,
			"-0.022": 0.0,
			"-0.021": 0.0,
			"-0.02": 0.0,
			"-0.019": 0.0,
			"-0.018": 0.0,
			"-0.017": 0.0,
			"-0.016": 0.185984121533,
			"-0.015": 0.619894086022,
			"-0.014": 0.485454056553,
			"-0.013": 0.638367022371,
			"-0.012": 0.723670551145,
			"-0.011": 1.26242643652,
			"-0.01": 1.58197094721,
			"-0.009": 7.55771038861,
			"-0.008": 10.5689570166,
			"-0.007": 9.61105807696,
			"-0.006": 15.4508067096,
			"-0.005": 16.8441142534,
			"-0.004": 14.708083851,
			"-0.003": 10.4031484444,
			"-0.002": 9.56744916816,
			"-0.001": 7.9560119655,
			"0.0": 9.10522787476,
			"0.001": 10.5157261077,
			"0.002": 9.18511761367,
			"0.003": 12.4040482821,
			"0.004": 13.6390692377,
			"0.005": 7.56319798438,
			"0.006": 4.72670360521,
			"0.007": 4.40368942744,
			"0.008": 5.5988909158,
			"0.009": 7.73866970964,
			"0.01": 7.42547158759,
			"0.011": 7.31193242336,
			"0.012": 4.90956884652,
			"0.013": 2.22343666675,
			"0.014": 0.119970733823,
			"0.015": 0.0,
			"0.016": 0.0,
			"0.017": 0.0,
			"0.018": 0.0,
			"0.019": 0.0,
			"0.02": 0.0,
			"0.021": 0.0,
			"0.022": 0.0,
			"0.023": 0.0,
			"0.024": 0.0,
			"0.025": 0.0
		}
	}
}
