{
	 "smiles": "CCCC(=O)NC1=CC=C(CN)C=C1", 
	 "Tm": 359.15, 
	 "num_atms": 30, 
	 "gaussian": { 
		 "optdone": 1, 
		 "sigma_profile": "yes", 
		 "theory": "DFT", 
		 "functional": "B3LYP", 
		 "basiset": "6-31G**", 
		 "properties": { 
			 "R2extent": 4783.9666, 
			 "electric_dipole_moment_norm": 1.96901745548, 
			 "electric_quadrupole_moment_norm": 23.3521493863, 
			 "total_energy": -613.560888069, 
			 "HOMO_LUMO_gap": 0.20419, 
			 "cosmo_polarized_energy": -14.71, 
			 "cosmo_cavitation_energy": 33.24, 
			 "cosmo_dispersion_energy": -23.32, 
			 "cosmo_repulsion_energy": 1.89, 
			 "cosmo_total_nonelectrostatic_energy": 11.81, 
			 "SMD_solvation_energy": 4.67 
		},
		"coords": [
			{
				"x": -0.6360237376,
				"y": 1.9626294284,
				"z": -2.7161510933,
				"element": "C" 
			},
			{
				"x": 0.0560302454,
				"y": 2.1505131587,
				"z": -1.3638227956,
				"element": "C" 
			},
			{
				"x": -0.692527454,
				"y": 1.455048023,
				"z": -0.2132357849,
				"element": "C" 
			},
			{
				"x": -0.088429658,
				"y": 1.7993429779,
				"z": 1.1403036103,
				"element": "C" 
			},
			{
				"x": -0.054517626,
				"y": 2.9548416691,
				"z": 1.5434731518,
				"element": "O" 
			},
			{
				"x": 0.3889555102,
				"y": 0.7838635385,
				"z": 1.9515687825,
				"element": "N" 
			},
			{
				"x": 0.5613886615,
				"y": -0.6020566754,
				"z": 1.7218563769,
				"element": "C" 
			},
			{
				"x": 0.1899295646,
				"y": -1.5076388966,
				"z": 2.7266604986,
				"element": "C" 
			},
			{
				"x": 0.385132193,
				"y": -2.8747941887,
				"z": 2.5507110975,
				"element": "C" 
			},
			{
				"x": 0.9392871895,
				"y": -3.3852554168,
				"z": 1.3682975532,
				"element": "C" 
			},
			{
				"x": 1.1949568885,
				"y": -4.8733335621,
				"z": 1.2020715398,
				"element": "C" 
			},
			{
				"x": 2.4914814184,
				"y": -5.3575749235,
				"z": 1.7048014648,
				"element": "N" 
			},
			{
				"x": 1.3050831544,
				"y": -2.4717558841,
				"z": 0.3715837279,
				"element": "C" 
			},
			{
				"x": 1.1410578545,
				"y": -1.0981836976,
				"z": 0.5458556592,
				"element": "C" 
			},
			{
				"x": -0.712238405,
				"y": 0.9026456298,
				"z": -2.9845705974,
				"element": "H" 
			},
			{
				"x": -1.6518979448,
				"y": 2.3732223169,
				"z": -2.7001130758,
				"element": "H" 
			},
			{
				"x": -0.0851340061,
				"y": 2.4690314824,
				"z": -3.5152039229,
				"element": "H" 
			},
			{
				"x": 0.1370449452,
				"y": 3.2148688222,
				"z": -1.1202039671,
				"element": "H" 
			},
			{
				"x": 1.0841261963,
				"y": 1.7673407398,
				"z": -1.4188728043,
				"element": "H" 
			},
			{
				"x": -0.7555542399,
				"y": 0.377350167,
				"z": -0.3809415915,
				"element": "H" 
			},
			{
				"x": -1.7189010732,
				"y": 1.8404709232,
				"z": -0.1778477947,
				"element": "H" 
			},
			{
				"x": 0.6257378745,
				"y": 1.1275771873,
				"z": 2.874939912,
				"element": "H" 
			},
			{
				"x": -0.2674842545,
				"y": -1.1319874208,
				"z": 3.6379783945,
				"element": "H" 
			},
			{
				"x": 0.0836986818,
				"y": -3.5597517487,
				"z": 3.3403745933,
				"element": "H" 
			},
			{
				"x": 0.4100045141,
				"y": -5.4408665612,
				"z": 1.7150491176,
				"element": "H" 
			},
			{
				"x": 1.1313648061,
				"y": -5.1404787272,
				"z": 0.1410986109,
				"element": "H" 
			},
			{
				"x": 2.5737955114,
				"y": -5.1305519593,
				"z": 2.6941447959,
				"element": "H" 
			},
			{
				"x": 3.2418078723,
				"y": -4.8452154993,
				"z": 1.244733159,
				"element": "H" 
			},
			{
				"x": 1.7440398944,
				"y": -2.8377407816,
				"z": -0.5540618031,
				"element": "H" 
			},
			{
				"x": 1.4778854231,
				"y": -0.4091601212,
				"z": -0.2215768148,
				"element": "H" 
			}
		],
		 "valence_orbital": [ 
			{
				"type": "occ",
				"energy": -0.29163,
				"method": "rhf"
			},
			{
				"type": "occ",
				"energy": -0.2632,
				"method": "rhf"
			},
			{
				"type": "occ",
				"energy": -0.24854,
				"method": "rhf"
			},
			{
				"type": "occ",
				"energy": -0.24691,
				"method": "rhf"
			},
			{
				"type": "occ",
				"energy": -0.22321,
				"method": "rhf"
			},
			{
				"type": "unocc",
				"energy": -0.01902,
				"method": "rhf"
			},
			{
				"type": "unocc",
				"energy": -0.01584,
				"method": "rhf"
			},
			{
				"type": "unocc",
				"energy": 0.0293,
				"method": "rhf"
			},
			{
				"type": "unocc",
				"energy": 0.07793,
				"method": "rhf"
			},
			{
				"type": "unocc",
				"energy": 0.08625,
				"method": "rhf"
			}
		],
		"cosmo_sigma_profile": { 
			"-0.025": 0.0,
			"-0.024": 0.0,
			"-0.023": 0.0,
			"-0.022": 0.0,
			"-0.021": 0.0,
			"-0.02": 0.0,
			"-0.019": 0.0,
			"-0.018": 0.0,
			"-0.017": 0.0,
			"-0.016": 0.0,
			"-0.015": 0.0,
			"-0.014": 0.45462325131,
			"-0.013": 0.888514171443,
			"-0.012": 1.12498494055,
			"-0.011": 1.16081562131,
			"-0.01": 0.992624712215,
			"-0.009": 3.50546499627,
			"-0.008": 3.6430183565,
			"-0.007": 4.83379886776,
			"-0.006": 10.2084274494,
			"-0.005": 17.0426791593,
			"-0.004": 20.3481755784,
			"-0.003": 25.3271180076,
			"-0.002": 26.0409809537,
			"-0.001": 25.3300861954,
			"0.0": 24.7616726981,
			"0.001": 20.7494273944,
			"0.002": 12.0137183683,
			"0.003": 10.5980359476,
			"0.004": 9.72711424665,
			"0.005": 10.0197935387,
			"0.006": 3.15916978354,
			"0.007": 2.35381197149,
			"0.008": 2.96447928181,
			"0.009": 1.95178123613,
			"0.01": 1.63526134076,
			"0.011": 2.13657714134,
			"0.012": 2.61159709529,
			"0.013": 4.30556092057,
			"0.014": 5.89864826754,
			"0.015": 1.51091337623,
			"0.016": 0.535012164997,
			"0.017": 0.798313280265,
			"0.018": 0.710473708621,
			"0.019": 0.629735484082,
			"0.02": 0.281706702452,
			"0.021": 0.0,
			"0.022": 0.0,
			"0.023": 0.0,
			"0.024": 0.0,
			"0.025": 0.0
		}
	}
}
