{
	 "smiles": "NCC1=CC=NC=C1", 
	 "Tm": 265.35, 
	 "num_atms": 16, 
	 "gaussian": { 
		 "optdone": 1, 
		 "sigma_profile": "yes", 
		 "theory": "DFT", 
		 "functional": "B3LYP", 
		 "basiset": "6-31G**", 
		 "properties": { 
			 "R2extent": 1102.4389, 
			 "electric_dipole_moment_norm": 1.13185399235, 
			 "electric_quadrupole_moment_norm": 13.1382738558, 
			 "total_energy": -342.951129781, 
			 "HOMO_LUMO_gap": 0.2152, 
			 "cosmo_polarized_energy": -9.85, 
			 "cosmo_cavitation_energy": 19.64, 
			 "cosmo_dispersion_energy": -14.46, 
			 "cosmo_repulsion_energy": 1.21, 
			 "cosmo_total_nonelectrostatic_energy": 6.39, 
			 "SMD_solvation_energy": 0.63 
		},
		"coords": [
			{
				"x": 1.3966921336,
				"y": -1.8790182899,
				"z": 0.6264419252,
				"element": "N" 
			},
			{
				"x": 0.16927334,
				"y": -1.4623468602,
				"z": -0.0686468715,
				"element": "C" 
			},
			{
				"x": -0.3147746283,
				"y": -0.0625730981,
				"z": 0.2663164755,
				"element": "C" 
			},
			{
				"x": 0.1290866742,
				"y": 1.0562342008,
				"z": -0.4484358497,
				"element": "C" 
			},
			{
				"x": -0.2957738348,
				"y": 2.3276590603,
				"z": -0.0628823159,
				"element": "C" 
			},
			{
				"x": -1.1211362114,
				"y": 2.5576321549,
				"z": 0.9665567489,
				"element": "N" 
			},
			{
				"x": -1.5482405644,
				"y": 1.4854737328,
				"z": 1.6461954954,
				"element": "C" 
			},
			{
				"x": -1.1813526518,
				"y": 0.1750891507,
				"z": 1.3397162369,
				"element": "C" 
			},
			{
				"x": 2.1451736295,
				"y": -1.2215506164,
				"z": 0.4163799821,
				"element": "H" 
			},
			{
				"x": 1.2526984265,
				"y": -1.8215593748,
				"z": 1.6327140912,
				"element": "H" 
			},
			{
				"x": 0.3530093655,
				"y": -1.5391460861,
				"z": -1.1461479085,
				"element": "H" 
			},
			{
				"x": -0.6143960122,
				"y": -2.1892273299,
				"z": 0.1725462077,
				"element": "H" 
			},
			{
				"x": 0.7935577888,
				"y": 0.9404641574,
				"z": -1.3014491564,
				"element": "H" 
			},
			{
				"x": 0.0390872881,
				"y": 3.2058199664,
				"z": -0.6130502643,
				"element": "H" 
			},
			{
				"x": -2.2248946513,
				"y": 1.6835211998,
				"z": 2.4761929072,
				"element": "H" 
			},
			{
				"x": -1.5733100921,
				"y": -0.6510719678,
				"z": 1.9282522963,
				"element": "H" 
			}
		],
		 "valence_orbital": [ 
			{
				"type": "occ",
				"energy": -0.35264,
				"method": "rhf"
			},
			{
				"type": "occ",
				"energy": -0.28605,
				"method": "rhf"
			},
			{
				"type": "occ",
				"energy": -0.26305,
				"method": "rhf"
			},
			{
				"type": "occ",
				"energy": -0.25635,
				"method": "rhf"
			},
			{
				"type": "occ",
				"energy": -0.24073,
				"method": "rhf"
			},
			{
				"type": "unocc",
				"energy": -0.02553,
				"method": "rhf"
			},
			{
				"type": "unocc",
				"energy": -0.01279,
				"method": "rhf"
			},
			{
				"type": "unocc",
				"energy": 0.08187,
				"method": "rhf"
			},
			{
				"type": "unocc",
				"energy": 0.10707,
				"method": "rhf"
			},
			{
				"type": "unocc",
				"energy": 0.11738,
				"method": "rhf"
			}
		],
		"cosmo_sigma_profile": { 
			"-0.025": 0.0,
			"-0.024": 0.0,
			"-0.023": 0.0,
			"-0.022": 0.0,
			"-0.021": 0.0,
			"-0.02": 0.0,
			"-0.019": 0.0,
			"-0.018": 0.0,
			"-0.017": 0.0,
			"-0.016": 0.0,
			"-0.015": 0.0,
			"-0.014": 0.0,
			"-0.013": 0.0,
			"-0.012": 0.0,
			"-0.011": 0.0,
			"-0.01": 0.94157135232,
			"-0.009": 2.60704056039,
			"-0.008": 3.07174858386,
			"-0.007": 4.39489817505,
			"-0.006": 13.7434797088,
			"-0.005": 15.5356026584,
			"-0.004": 14.2061922934,
			"-0.003": 10.3502397103,
			"-0.002": 11.147966952,
			"-0.001": 8.30205659543,
			"0.0": 7.82277553637,
			"0.001": 7.68462515369,
			"0.002": 9.97322887826,
			"0.003": 15.1677729007,
			"0.004": 4.52318831293,
			"0.005": 3.41165622346,
			"0.006": 2.25421243711,
			"0.007": 1.72250913136,
			"0.008": 2.11509411032,
			"0.009": 2.12303344418,
			"0.01": 2.30580265285,
			"0.011": 1.43390706267,
			"0.012": 1.93868655995,
			"0.013": 0.762897778741,
			"0.014": 1.82368940814,
			"0.015": 1.89712213767,
			"0.016": 1.44888619733,
			"0.017": 1.15719176028,
			"0.018": 0.866928843053,
			"0.019": 0.520986266931,
			"0.02": 0.0691471820998,
			"0.021": 0.0,
			"0.022": 0.0,
			"0.023": 0.0,
			"0.024": 0.0,
			"0.025": 0.0
		}
	}
}
