{
	 "smiles": "CC1(C)C2CCC1(C)C(=O)C(=NNC1=CC=CC=C1)C2=O", 
	 "Tm": 390.15, 
	 "num_atms": 41, 
	 "gaussian": { 
		 "optdone": 1, 
		 "sigma_profile": "yes", 
		 "theory": "DFT", 
		 "functional": "B3LYP", 
		 "basiset": "6-31G**", 
		 "properties": { 
			 "R2extent": 7711.5143, 
			 "electric_dipole_moment_norm": 2.05866506504, 
			 "electric_quadrupole_moment_norm": 19.2329305879, 
			 "total_energy": -919.798217146, 
			 "HOMO_LUMO_gap": 0.13625, 
			 "cosmo_polarized_energy": -13.96, 
			 "cosmo_cavitation_energy": 41.06, 
			 "cosmo_dispersion_energy": -29.12, 
			 "cosmo_repulsion_energy": 2.18, 
			 "cosmo_total_nonelectrostatic_energy": 14.11, 
			 "SMD_solvation_energy": 6.95 
		},
		"coords": [
			{
				"x": 2.4967931138,
				"y": 1.929857845,
				"z": -0.319953942,
				"element": "C" 
			},
			{
				"x": 1.6076519097,
				"y": 2.7247757892,
				"z": 0.6546694197,
				"element": "C" 
			},
			{
				"x": 2.4203555468,
				"y": 3.9489837542,
				"z": 1.1256101636,
				"element": "C" 
			},
			{
				"x": 1.1400183003,
				"y": 1.9002896404,
				"z": 1.8887154459,
				"element": "C" 
			},
			{
				"x": 0.0264122976,
				"y": 2.7858075136,
				"z": 2.5262861216,
				"element": "C" 
			},
			{
				"x": -0.5937144375,
				"y": 3.5661475692,
				"z": 1.3373405669,
				"element": "C" 
			},
			{
				"x": 0.2106021052,
				"y": 3.1367752164,
				"z": 0.062503738,
				"element": "C" 
			},
			{
				"x": 0.2400447219,
				"y": 4.2267443766,
				"z": -1.0092190186,
				"element": "C" 
			},
			{
				"x": -0.5024184788,
				"y": 1.8846982922,
				"z": -0.4993404882,
				"element": "C" 
			},
			{
				"x": -1.1571932467,
				"y": 1.9300401854,
				"z": -1.5282089735,
				"element": "O" 
			},
			{
				"x": -0.3807923345,
				"y": 0.630438819,
				"z": 0.304750636,
				"element": "C" 
			},
			{
				"x": -1.080239497,
				"y": -0.4056501043,
				"z": -0.1360024255,
				"element": "N" 
			},
			{
				"x": -1.009917894,
				"y": -1.5495274036,
				"z": 0.4805663635,
				"element": "N" 
			},
			{
				"x": -1.7553209403,
				"y": -2.658749306,
				"z": 0.0412601015,
				"element": "C" 
			},
			{
				"x": -2.5978998932,
				"y": -2.5798006664,
				"z": -1.0759649352,
				"element": "C" 
			},
			{
				"x": -3.3106532109,
				"y": -3.7096305953,
				"z": -1.4664838509,
				"element": "C" 
			},
			{
				"x": -3.193944892,
				"y": -4.9110062064,
				"z": -0.7596378619,
				"element": "C" 
			},
			{
				"x": -2.3517235822,
				"y": -4.9783569872,
				"z": 0.3516487759,
				"element": "C" 
			},
			{
				"x": -1.6306470564,
				"y": -3.8566848542,
				"z": 0.7565175167,
				"element": "C" 
			},
			{
				"x": 0.5025926308,
				"y": 0.5889096096,
				"z": 1.4743710533,
				"element": "C" 
			},
			{
				"x": 0.6887429787,
				"y": -0.4502492628,
				"z": 2.1290892401,
				"element": "O" 
			},
			{
				"x": 3.4275891633,
				"y": 1.628694422,
				"z": 0.1732085912,
				"element": "H" 
			},
			{
				"x": 2.7682832124,
				"y": 2.5471188225,
				"z": -1.1824682421,
				"element": "H" 
			},
			{
				"x": 2.0180815426,
				"y": 1.0246570957,
				"z": -0.7025430116,
				"element": "H" 
			},
			{
				"x": 1.8519146852,
				"y": 4.6215096528,
				"z": 1.7731052815,
				"element": "H" 
			},
			{
				"x": 3.3023114086,
				"y": 3.6168220183,
				"z": 1.6845907599,
				"element": "H" 
			},
			{
				"x": 2.7754151071,
				"y": 4.5333617786,
				"z": 0.2717120125,
				"element": "H" 
			},
			{
				"x": 1.9462571205,
				"y": 1.6678352786,
				"z": 2.5903232668,
				"element": "H" 
			},
			{
				"x": 0.4731794613,
				"y": 3.464897114,
				"z": 3.2577932934,
				"element": "H" 
			},
			{
				"x": -0.7079669645,
				"y": 2.1831258734,
				"z": 3.0685913123,
				"element": "H" 
			},
			{
				"x": -0.4935073402,
				"y": 4.6464387618,
				"z": 1.4808857065,
				"element": "H" 
			},
			{
				"x": -1.6632646932,
				"y": 3.3686427799,
				"z": 1.2171148321,
				"element": "H" 
			},
			{
				"x": 0.8461129623,
				"y": 3.9270445715,
				"z": -1.8695893334,
				"element": "H" 
			},
			{
				"x": -0.7687970141,
				"y": 4.4137842506,
				"z": -1.3831627567,
				"element": "H" 
			},
			{
				"x": 0.6429365725,
				"y": 5.1605247214,
				"z": -0.6075659091,
				"element": "H" 
			},
			{
				"x": -0.3849460918,
				"y": -1.6093499649,
				"z": 1.2982041535,
				"element": "H" 
			},
			{
				"x": -2.676516873,
				"y": -1.6422186052,
				"z": -1.6134934978,
				"element": "H" 
			},
			{
				"x": -3.9639429766,
				"y": -3.6513099493,
				"z": -2.3321546993,
				"element": "H" 
			},
			{
				"x": -3.7548547963,
				"y": -5.7859321839,
				"z": -1.0733597442,
				"element": "H" 
			},
			{
				"x": -2.2532122184,
				"y": -5.905784536,
				"z": 0.9078122154,
				"element": "H" 
			},
			{
				"x": -0.9740204088,
				"y": -3.9051751262,
				"z": 1.621178122,
				"element": "H" 
			}
		],
		 "valence_orbital": [ 
			{
				"type": "occ",
				"energy": -0.28501,
				"method": "rhf"
			},
			{
				"type": "occ",
				"energy": -0.26016,
				"method": "rhf"
			},
			{
				"type": "occ",
				"energy": -0.24939,
				"method": "rhf"
			},
			{
				"type": "occ",
				"energy": -0.23066,
				"method": "rhf"
			},
			{
				"type": "occ",
				"energy": -0.21894,
				"method": "rhf"
			},
			{
				"type": "unocc",
				"energy": -0.08269,
				"method": "rhf"
			},
			{
				"type": "unocc",
				"energy": -0.01458,
				"method": "rhf"
			},
			{
				"type": "unocc",
				"energy": -0.00971,
				"method": "rhf"
			},
			{
				"type": "unocc",
				"energy": 0.01164,
				"method": "rhf"
			},
			{
				"type": "unocc",
				"energy": 0.06984,
				"method": "rhf"
			}
		],
		"cosmo_sigma_profile": { 
			"-0.025": 0.0,
			"-0.024": 0.0,
			"-0.023": 0.0,
			"-0.022": 0.0,
			"-0.021": 0.0,
			"-0.02": 0.0,
			"-0.019": 0.0,
			"-0.018": 0.0,
			"-0.017": 0.0,
			"-0.016": 0.0,
			"-0.015": 0.0,
			"-0.014": 0.0,
			"-0.013": 0.0,
			"-0.012": 0.153698458784,
			"-0.011": 0.917750619626,
			"-0.01": 0.969529271887,
			"-0.009": 1.02112635368,
			"-0.008": 1.31877168548,
			"-0.007": 3.07491570357,
			"-0.006": 9.33342272068,
			"-0.005": 13.384663529,
			"-0.004": 31.1390773819,
			"-0.003": 44.4620755725,
			"-0.002": 36.6384373396,
			"-0.001": 35.6331380722,
			"0.0": 33.9862589376,
			"0.001": 25.0052105539,
			"0.002": 14.6637651161,
			"0.003": 13.7500545636,
			"0.004": 14.1414526779,
			"0.005": 9.30261498515,
			"0.006": 3.1385629062,
			"0.007": 3.54707434206,
			"0.008": 2.70502220723,
			"0.009": 2.91098092103,
			"0.01": 4.52382232051,
			"0.011": 3.64618523905,
			"0.012": 5.64791611091,
			"0.013": 4.97443274232,
			"0.014": 1.71364993869,
			"0.015": 1.29054822373,
			"0.016": 0.0178688381071,
			"0.017": 0.0,
			"0.018": 0.0,
			"0.019": 0.0,
			"0.02": 0.0,
			"0.021": 0.0,
			"0.022": 0.0,
			"0.023": 0.0,
			"0.024": 0.0,
			"0.025": 0.0
		}
	}
}
