{
	 "smiles": "OCC1=CC(CO)=CC=C1", 
	 "Tm": 330.65, 
	 "num_atms": 20, 
	 "gaussian": { 
		 "optdone": 1, 
		 "sigma_profile": "yes", 
		 "theory": "DFT", 
		 "functional": "B3LYP", 
		 "basiset": "6-31G**", 
		 "properties": { 
			 "R2extent": 1780.3267, 
			 "electric_dipole_moment_norm": 2.28603517689, 
			 "electric_quadrupole_moment_norm": 4.96754664296, 
			 "total_energy": -461.306240983, 
			 "HOMO_LUMO_gap": 0.23274, 
			 "cosmo_polarized_energy": -11.12, 
			 "cosmo_cavitation_energy": 23.4, 
			 "cosmo_dispersion_energy": -17.25, 
			 "cosmo_repulsion_energy": 1.43, 
			 "cosmo_total_nonelectrostatic_energy": 7.58, 
			 "SMD_solvation_energy": 4.05 
		},
		"coords": [
			{
				"x": 0.7394394889,
				"y": -2.4039739287,
				"z": 1.3377653378,
				"element": "O" 
			},
			{
				"x": 1.304228666,
				"y": -2.1949585689,
				"z": 0.0528484988,
				"element": "C" 
			},
			{
				"x": 0.9007682649,
				"y": -0.8823233786,
				"z": -0.5946431838,
				"element": "C" 
			},
			{
				"x": 0.5379307603,
				"y": 0.2147120438,
				"z": 0.1942916033,
				"element": "C" 
			},
			{
				"x": 0.1936947564,
				"y": 1.4396371514,
				"z": -0.387703658,
				"element": "C" 
			},
			{
				"x": -0.2304331043,
				"y": 2.6107975703,
				"z": 0.4803173442,
				"element": "C" 
			},
			{
				"x": 0.3011650272,
				"y": 2.5784266859,
				"z": 1.7956698974,
				"element": "O" 
			},
			{
				"x": 0.2235127967,
				"y": 1.5636960872,
				"z": -1.7816422959,
				"element": "C" 
			},
			{
				"x": 0.5755803956,
				"y": 0.4732517422,
				"z": -2.5776282608,
				"element": "C" 
			},
			{
				"x": 0.9087974842,
				"y": -0.7464209036,
				"z": -1.9878088387,
				"element": "C" 
			},
			{
				"x": -0.2214934411,
				"y": -2.3551005453,
				"z": 1.2445620166,
				"element": "H" 
			},
			{
				"x": 2.3895202817,
				"y": -2.2140618811,
				"z": 0.2121300143,
				"element": "H" 
			},
			{
				"x": 1.0730921501,
				"y": -3.0270907972,
				"z": -0.6316896221,
				"element": "H" 
			},
			{
				"x": 0.5233525042,
				"y": 0.1140159915,
				"z": 1.2746776936,
				"element": "H" 
			},
			{
				"x": 0.0149842427,
				"y": 3.5546489893,
				"z": -0.0328669119,
				"element": "H" 
			},
			{
				"x": -1.3194379872,
				"y": 2.6015696598,
				"z": 0.6129000739,
				"element": "H" 
			},
			{
				"x": 1.2642808782,
				"y": 2.5457629167,
				"z": 1.719436015,
				"element": "H" 
			},
			{
				"x": -0.0304964692,
				"y": 2.5143143294,
				"z": -2.2453614194,
				"element": "H" 
			},
			{
				"x": 0.5902644206,
				"y": 0.5741477544,
				"z": -3.6593580287,
				"element": "H" 
			},
			{
				"x": 1.1775488842,
				"y": -1.5955509182,
				"z": -2.6122962754,
				"element": "H" 
			}
		],
		 "valence_orbital": [ 
			{
				"type": "occ",
				"energy": -0.32284,
				"method": "rhf"
			},
			{
				"type": "occ",
				"energy": -0.28027,
				"method": "rhf"
			},
			{
				"type": "occ",
				"energy": -0.27433,
				"method": "rhf"
			},
			{
				"type": "occ",
				"energy": -0.24638,
				"method": "rhf"
			},
			{
				"type": "occ",
				"energy": -0.24051,
				"method": "rhf"
			},
			{
				"type": "unocc",
				"energy": -0.00777,
				"method": "rhf"
			},
			{
				"type": "unocc",
				"energy": -0.00389,
				"method": "rhf"
			},
			{
				"type": "unocc",
				"energy": 0.08544,
				"method": "rhf"
			},
			{
				"type": "unocc",
				"energy": 0.08726,
				"method": "rhf"
			},
			{
				"type": "unocc",
				"energy": 0.10389,
				"method": "rhf"
			}
		],
		"cosmo_sigma_profile": { 
			"-0.025": 0.0,
			"-0.024": 0.0,
			"-0.023": 0.0,
			"-0.022": 0.0,
			"-0.021": 0.0,
			"-0.02": 0.0,
			"-0.019": 0.0,
			"-0.018": 0.0,
			"-0.017": 0.0,
			"-0.016": 0.166611300188,
			"-0.015": 1.73981141093,
			"-0.014": 1.8654552716,
			"-0.013": 1.25142592381,
			"-0.012": 1.56632671695,
			"-0.011": 1.44068637523,
			"-0.01": 1.93355091833,
			"-0.009": 1.53677992713,
			"-0.008": 1.7097540726,
			"-0.007": 2.3733277853,
			"-0.006": 3.66834192876,
			"-0.005": 15.5658686782,
			"-0.004": 18.7082970076,
			"-0.003": 18.3733294817,
			"-0.002": 13.0678150692,
			"-0.001": 12.2560764842,
			"0.0": 9.71865189615,
			"0.001": 9.19259776531,
			"0.002": 10.1613316799,
			"0.003": 7.95902411793,
			"0.004": 8.81398603207,
			"0.005": 9.08491108434,
			"0.006": 9.42152075084,
			"0.007": 3.0101302705,
			"0.008": 1.92325412089,
			"0.009": 2.60951974921,
			"0.01": 2.63848054832,
			"0.011": 1.67303489403,
			"0.012": 2.74939536978,
			"0.013": 3.54750234265,
			"0.014": 3.97170707852,
			"0.015": 0.325599641823,
			"0.016": 0.0,
			"0.017": 0.0,
			"0.018": 0.0,
			"0.019": 0.0,
			"0.02": 0.0,
			"0.021": 0.0,
			"0.022": 0.0,
			"0.023": 0.0,
			"0.024": 0.0,
			"0.025": 0.0
		}
	}
}
