{
	 "smiles": "ClC1=CC(OCC2CCNCC2)=CC(Cl)=C1", 
	 "Tm": 333.15, 
	 "num_atms": 31, 
	 "gaussian": { 
		 "optdone": 1, 
		 "sigma_profile": "yes", 
		 "theory": "DFT", 
		 "functional": "B3LYP", 
		 "basiset": "6-31G**", 
		 "properties": { 
			 "R2extent": 8290.8596, 
			 "electric_dipole_moment_norm": 3.66008053053, 
			 "electric_quadrupole_moment_norm": 8.46153786495, 
			 "total_energy": -1516.66306495, 
			 "HOMO_LUMO_gap": 0.18614, 
			 "cosmo_polarized_energy": -8.5, 
			 "cosmo_cavitation_energy": 36.39, 
			 "cosmo_dispersion_energy": -26.48, 
			 "cosmo_repulsion_energy": 2.08, 
			 "cosmo_total_nonelectrostatic_energy": 12.0, 
			 "SMD_solvation_energy": 2.59 
		},
		"coords": [
			{
				"x": -4.0133805509,
				"y": -4.0337801756,
				"z": 0.1936771135,
				"element": "Cl" 
			},
			{
				"x": -3.5625307071,
				"y": -2.5376202606,
				"z": -0.6078583779,
				"element": "C" 
			},
			{
				"x": -2.5663713261,
				"y": -1.7491336422,
				"z": -0.0508118587,
				"element": "C" 
			},
			{
				"x": -2.2069276277,
				"y": -0.5529409551,
				"z": -0.6923658624,
				"element": "C" 
			},
			{
				"x": -1.2248553668,
				"y": 0.162764187,
				"z": -0.085662158,
				"element": "O" 
			},
			{
				"x": -0.7994446617,
				"y": 1.399640479,
				"z": -0.6685771323,
				"element": "C" 
			},
			{
				"x": 0.2977575394,
				"y": 2.0003576574,
				"z": 0.2072984185,
				"element": "C" 
			},
			{
				"x": 1.5720621514,
				"y": 1.123691312,
				"z": 0.2089414688,
				"element": "C" 
			},
			{
				"x": 2.5033197513,
				"y": 1.5108568826,
				"z": 1.3593472443,
				"element": "C" 
			},
			{
				"x": 1.8710266548,
				"y": 1.2161145014,
				"z": 2.657358768,
				"element": "N" 
			},
			{
				"x": 0.4003699091,
				"y": 1.2622415144,
				"z": 2.6479801578,
				"element": "C" 
			},
			{
				"x": -0.1817378451,
				"y": 2.2867441486,
				"z": 1.6609792135,
				"element": "C" 
			},
			{
				"x": -2.8463326717,
				"y": -0.1650846133,
				"z": -1.8766981418,
				"element": "C" 
			},
			{
				"x": -3.8423853403,
				"y": -0.9934409265,
				"z": -2.3968313733,
				"element": "C" 
			},
			{
				"x": -4.6455376268,
				"y": -0.5076647101,
				"z": -3.8829317174,
				"element": "Cl" 
			},
			{
				"x": -4.2233933793,
				"y": -2.1840135682,
				"z": -1.7877776568,
				"element": "C" 
			},
			{
				"x": -2.0618997947,
				"y": -2.0349557803,
				"z": 0.86379553,
				"element": "H" 
			},
			{
				"x": -1.6555735601,
				"y": 2.0856824487,
				"z": -0.7341289956,
				"element": "H" 
			},
			{
				"x": -0.4250873637,
				"y": 1.217188617,
				"z": -1.6862462986,
				"element": "H" 
			},
			{
				"x": 0.5486955804,
				"y": 2.9589490467,
				"z": -0.267410521,
				"element": "H" 
			},
			{
				"x": 1.2975499078,
				"y": 0.0681308945,
				"z": 0.3107660197,
				"element": "H" 
			},
			{
				"x": 2.098838498,
				"y": 1.225128088,
				"z": -0.7466861644,
				"element": "H" 
			},
			{
				"x": 2.7635818224,
				"y": 2.5793021463,
				"z": 1.2482757115,
				"element": "H" 
			},
			{
				"x": 3.4457126793,
				"y": 0.9531039374,
				"z": 1.2824499714,
				"element": "H" 
			},
			{
				"x": 2.2272479096,
				"y": 1.8572303812,
				"z": 3.3579078778,
				"element": "H" 
			},
			{
				"x": 0.0071699601,
				"y": 0.2702760314,
				"z": 2.3941598329,
				"element": "H" 
			},
			{
				"x": 0.0606186937,
				"y": 1.4759882544,
				"z": 3.6667493522,
				"element": "H" 
			},
			{
				"x": 0.1378042705,
				"y": 3.2922273548,
				"z": 1.9611518195,
				"element": "H" 
			},
			{
				"x": -1.2768862622,
				"y": 2.2760712628,
				"z": 1.7148792369,
				"element": "H" 
			},
			{
				"x": -2.589484199,
				"y": 0.7499837092,
				"z": -2.3917873043,
				"element": "H" 
			},
			{
				"x": -4.9983270449,
				"y": -2.810838223,
				"z": -2.2086441738,
				"element": "H" 
			}
		],
		 "valence_orbital": [ 
			{
				"type": "occ",
				"energy": -0.31185,
				"method": "rhf"
			},
			{
				"type": "occ",
				"energy": -0.30096,
				"method": "rhf"
			},
			{
				"type": "occ",
				"energy": -0.25194,
				"method": "rhf"
			},
			{
				"type": "occ",
				"energy": -0.23767,
				"method": "rhf"
			},
			{
				"type": "occ",
				"energy": -0.20933,
				"method": "rhf"
			},
			{
				"type": "unocc",
				"energy": -0.02319,
				"method": "rhf"
			},
			{
				"type": "unocc",
				"energy": -0.01004,
				"method": "rhf"
			},
			{
				"type": "unocc",
				"energy": 0.00521,
				"method": "rhf"
			},
			{
				"type": "unocc",
				"energy": 0.05107,
				"method": "rhf"
			},
			{
				"type": "unocc",
				"energy": 0.0664,
				"method": "rhf"
			}
		],
		"cosmo_sigma_profile": { 
			"-0.025": 0.0,
			"-0.024": 0.0,
			"-0.023": 0.0,
			"-0.022": 0.0,
			"-0.021": 0.0,
			"-0.02": 0.0,
			"-0.019": 0.0,
			"-0.018": 0.0,
			"-0.017": 0.0,
			"-0.016": 0.0,
			"-0.015": 0.0,
			"-0.014": 0.0,
			"-0.013": 0.0,
			"-0.012": 0.0,
			"-0.011": 0.0,
			"-0.01": 0.299493794898,
			"-0.009": 1.19810181015,
			"-0.008": 3.7657318886,
			"-0.007": 6.10468384612,
			"-0.006": 6.77081938038,
			"-0.005": 11.6122507093,
			"-0.004": 16.1507685003,
			"-0.003": 23.5951717621,
			"-0.002": 32.7592414454,
			"-0.001": 29.7109717499,
			"0.0": 27.3905293529,
			"0.001": 34.5834959605,
			"0.002": 32.749303796,
			"0.003": 20.2829668442,
			"0.004": 24.5166778177,
			"0.005": 9.70437084768,
			"0.006": 1.37806216347,
			"0.007": 0.865320349828,
			"0.008": 0.566742489666,
			"0.009": 0.982613305289,
			"0.01": 0.560166483012,
			"0.011": 0.162642682479,
			"0.012": 0.828185565724,
			"0.013": 1.07330952504,
			"0.014": 0.593177042921,
			"0.015": 0.691638171693,
			"0.016": 0.198688987832,
			"0.017": 0.172620121656,
			"0.018": 0.85622161865,
			"0.019": 0.435148301185,
			"0.02": 0.00428798250915,
			"0.021": 0.0,
			"0.022": 0.0,
			"0.023": 0.0,
			"0.024": 0.0,
			"0.025": 0.0
		}
	}
}
