{
	 "smiles": "CC1=CC=C(N=C=S)C(C)=C1", 
	 "Tm": 300.15, 
	 "num_atms": 20, 
	 "gaussian": { 
		 "optdone": 1, 
		 "sigma_profile": "yes", 
		 "theory": "DFT", 
		 "functional": "B3LYP", 
		 "basiset": "6-31G**", 
		 "properties": { 
			 "R2extent": 3893.098, 
			 "electric_dipole_moment_norm": 4.36972554516, 
			 "electric_quadrupole_moment_norm": 19.3575320986, 
			 "total_energy": -801.332445596, 
			 "HOMO_LUMO_gap": 0.17998, 
			 "cosmo_polarized_energy": -5.53, 
			 "cosmo_cavitation_energy": 26.77, 
			 "cosmo_dispersion_energy": -19.51, 
			 "cosmo_repulsion_energy": 1.54, 
			 "cosmo_total_nonelectrostatic_energy": 8.81, 
			 "SMD_solvation_energy": 5.25 
		},
		"coords": [
			{
				"x": -0.3472780584,
				"y": -2.339666104,
				"z": 0.7850166883,
				"element": "C" 
			},
			{
				"x": -0.4413441496,
				"y": -0.8897902711,
				"z": 0.3743224078,
				"element": "C" 
			},
			{
				"x": -1.5096362886,
				"y": -0.0874910006,
				"z": 0.7955749499,
				"element": "C" 
			},
			{
				"x": -1.6086446005,
				"y": 1.2389894855,
				"z": 0.3908726228,
				"element": "C" 
			},
			{
				"x": -0.6285785873,
				"y": 1.7886768961,
				"z": -0.4484815051,
				"element": "C" 
			},
			{
				"x": -0.7321226517,
				"y": 3.1027031485,
				"z": -0.8410291684,
				"element": "N" 
			},
			{
				"x": -0.8214274219,
				"y": 4.2360254003,
				"z": -1.179593861,
				"element": "C" 
			},
			{
				"x": -0.9418560358,
				"y": 5.7617620956,
				"z": -1.6337267328,
				"element": "S" 
			},
			{
				"x": 0.4647686215,
				"y": 1.0110386087,
				"z": -0.8897097024,
				"element": "C" 
			},
			{
				"x": 1.5198336309,
				"y": 1.605228537,
				"z": -1.7860010412,
				"element": "C" 
			},
			{
				"x": 0.5271014568,
				"y": -0.3162041894,
				"z": -0.4607585501,
				"element": "C" 
			},
			{
				"x": -0.8519215012,
				"y": -2.9897964772,
				"z": 0.0591623598,
				"element": "H" 
			},
			{
				"x": -0.8187932638,
				"y": -2.5113658831,
				"z": 1.7571192095,
				"element": "H" 
			},
			{
				"x": 0.6932670306,
				"y": -2.6715759772,
				"z": 0.8488999991,
				"element": "H" 
			},
			{
				"x": -2.2722033207,
				"y": -0.5032758191,
				"z": 1.4485361612,
				"element": "H" 
			},
			{
				"x": -2.4336931176,
				"y": 1.8631365062,
				"z": 0.7175626021,
				"element": "H" 
			},
			{
				"x": 1.088169853,
				"y": 1.966688909,
				"z": -2.7261830927,
				"element": "H" 
			},
			{
				"x": 2.0093745934,
				"y": 2.463864501,
				"z": -1.3126235396,
				"element": "H" 
			},
			{
				"x": 2.2879225785,
				"y": 0.8665023413,
				"z": -2.0267141164,
				"element": "H" 
			},
			{
				"x": 1.3658612325,
				"y": -0.9250507077,
				"z": -0.7907456909,
				"element": "H" 
			}
		],
		 "valence_orbital": [ 
			{
				"type": "occ",
				"energy": -0.35082,
				"method": "rhf"
			},
			{
				"type": "occ",
				"energy": -0.28156,
				"method": "rhf"
			},
			{
				"type": "occ",
				"energy": -0.25926,
				"method": "rhf"
			},
			{
				"type": "occ",
				"energy": -0.2473,
				"method": "rhf"
			},
			{
				"type": "occ",
				"energy": -0.22185,
				"method": "rhf"
			},
			{
				"type": "unocc",
				"energy": -0.04187,
				"method": "rhf"
			},
			{
				"type": "unocc",
				"energy": -0.01322,
				"method": "rhf"
			},
			{
				"type": "unocc",
				"energy": 0.00917,
				"method": "rhf"
			},
			{
				"type": "unocc",
				"energy": 0.04902,
				"method": "rhf"
			},
			{
				"type": "unocc",
				"energy": 0.08377,
				"method": "rhf"
			}
		],
		"cosmo_sigma_profile": { 
			"-0.025": 0.0,
			"-0.024": 0.0,
			"-0.023": 0.0,
			"-0.022": 0.0,
			"-0.021": 0.0,
			"-0.02": 0.0,
			"-0.019": 0.0,
			"-0.018": 0.0,
			"-0.017": 0.0,
			"-0.016": 0.0,
			"-0.015": 0.0,
			"-0.014": 0.0,
			"-0.013": 0.0,
			"-0.012": 0.0,
			"-0.011": 0.0,
			"-0.01": 0.0,
			"-0.009": 0.0,
			"-0.008": 0.0216052362559,
			"-0.007": 1.55750357193,
			"-0.006": 4.96457415076,
			"-0.005": 12.9401090765,
			"-0.004": 19.5345531732,
			"-0.003": 18.3083300651,
			"-0.002": 19.6001282141,
			"-0.001": 28.963040221,
			"0.0": 27.6875818759,
			"0.001": 14.7464308036,
			"0.002": 12.5689562936,
			"0.003": 13.760169672,
			"0.004": 14.9397245745,
			"0.005": 8.78180869796,
			"0.006": 12.0854532967,
			"0.007": 6.71570456988,
			"0.008": 0.0,
			"0.009": 0.0,
			"0.01": 0.0,
			"0.011": 0.0,
			"0.012": 0.0,
			"0.013": 0.0,
			"0.014": 0.0,
			"0.015": 0.0,
			"0.016": 0.0,
			"0.017": 0.0,
			"0.018": 0.0,
			"0.019": 0.0,
			"0.02": 0.0,
			"0.021": 0.0,
			"0.022": 0.0,
			"0.023": 0.0,
			"0.024": 0.0,
			"0.025": 0.0
		}
	}
}
