{
	 "smiles": "CC(C)(C)C1=NC(=CC(=O)N1)C(C)(C)C", 
	 "Tm": 437.15, 
	 "num_atms": 35, 
	 "gaussian": { 
		 "optdone": 1, 
		 "sigma_profile": "yes", 
		 "theory": "DFT", 
		 "functional": "B3LYP", 
		 "basiset": "6-31G**", 
		 "properties": { 
			 "R2extent": 3858.879, 
			 "electric_dipole_moment_norm": 3.48616677025, 
			 "electric_quadrupole_moment_norm": 22.6671026276, 
			 "total_energy": -654.105038417, 
			 "HOMO_LUMO_gap": 0.19679, 
			 "cosmo_polarized_energy": -12.19, 
			 "cosmo_cavitation_energy": 35.55, 
			 "cosmo_dispersion_energy": -23.99, 
			 "cosmo_repulsion_energy": 1.88, 
			 "cosmo_total_nonelectrostatic_energy": 13.44, 
			 "SMD_solvation_energy": 6.8 
		},
		"coords": [
			{
				"x": -0.3637905275,
				"y": 1.5505211189,
				"z": 2.6805844007,
				"element": "C" 
			},
			{
				"x": 0.0915090967,
				"y": 0.1623791881,
				"z": 2.1693509163,
				"element": "C" 
			},
			{
				"x": -0.2301228456,
				"y": -0.9169599402,
				"z": 3.2309871618,
				"element": "C" 
			},
			{
				"x": 1.6083330195,
				"y": 0.1888150931,
				"z": 1.9197323617,
				"element": "C" 
			},
			{
				"x": -0.6498075231,
				"y": -0.1676031151,
				"z": 0.8695828974,
				"element": "C" 
			},
			{
				"x": -0.0012114664,
				"y": -0.3781462125,
				"z": -0.2396196482,
				"element": "N" 
			},
			{
				"x": -0.7236114891,
				"y": -0.6729396855,
				"z": -1.3850054902,
				"element": "C" 
			},
			{
				"x": -2.0887952235,
				"y": -0.7492612775,
				"z": -1.3862229283,
				"element": "C" 
			},
			{
				"x": -2.8486724798,
				"y": -0.5224506192,
				"z": -0.1759193316,
				"element": "C" 
			},
			{
				"x": -4.0641925861,
				"y": -0.5579184174,
				"z": -0.0310539911,
				"element": "O" 
			},
			{
				"x": -2.0125924795,
				"y": -0.2304614847,
				"z": 0.9271456425,
				"element": "N" 
			},
			{
				"x": 0.1443467085,
				"y": -0.900345021,
				"z": -2.6258982379,
				"element": "C" 
			},
			{
				"x": 0.9690734627,
				"y": 0.3820809995,
				"z": -2.885750222,
				"element": "C" 
			},
			{
				"x": 1.1065258314,
				"y": -2.0768992834,
				"z": -2.338991339,
				"element": "C" 
			},
			{
				"x": -0.6915880396,
				"y": -1.2249118154,
				"z": -3.8751555409,
				"element": "C" 
			},
			{
				"x": -1.4333614189,
				"y": 1.582990862,
				"z": 2.9140898621,
				"element": "H" 
			},
			{
				"x": -0.1575406512,
				"y": 2.3295692322,
				"z": 1.9400661998,
				"element": "H" 
			},
			{
				"x": 0.1782367698,
				"y": 1.8024889116,
				"z": 3.5975924265,
				"element": "H" 
			},
			{
				"x": 0.3140428908,
				"y": -0.6994452322,
				"z": 4.1555040169,
				"element": "H" 
			},
			{
				"x": -1.2956675265,
				"y": -0.9570148392,
				"z": 3.4810836036,
				"element": "H" 
			},
			{
				"x": 0.0717819825,
				"y": -1.9107053584,
				"z": 2.8858130259,
				"element": "H" 
			},
			{
				"x": 2.1261896204,
				"y": 0.4254679103,
				"z": 2.8550256742,
				"element": "H" 
			},
			{
				"x": 1.8749813673,
				"y": 0.9405506349,
				"z": 1.1734595924,
				"element": "H" 
			},
			{
				"x": 1.9678836488,
				"y": -0.7765700946,
				"z": 1.5565322052,
				"element": "H" 
			},
			{
				"x": -2.6615619892,
				"y": -0.9786448532,
				"z": -2.274156809,
				"element": "H" 
			},
			{
				"x": -2.5060607475,
				"y": -0.065006118,
				"z": 1.7958158651,
				"element": "H" 
			},
			{
				"x": 0.3151683723,
				"y": 1.2297777711,
				"z": -3.1179547388,
				"element": "H" 
			},
			{
				"x": 1.6414368147,
				"y": 0.2302842239,
				"z": -3.7371634033,
				"element": "H" 
			},
			{
				"x": 1.5683625913,
				"y": 0.6416335571,
				"z": -2.0102131438,
				"element": "H" 
			},
			{
				"x": 1.7786841719,
				"y": -2.2287837205,
				"z": -3.1905563258,
				"element": "H" 
			},
			{
				"x": 0.5519745458,
				"y": -3.0074214145,
				"z": -2.1755637166,
				"element": "H" 
			},
			{
				"x": 1.7093457921,
				"y": -1.8769025091,
				"z": -1.4503454726,
				"element": "H" 
			},
			{
				"x": -1.3763676818,
				"y": -0.4095200694,
				"z": -4.1304838714,
				"element": "H" 
			},
			{
				"x": -0.027564926,
				"y": -1.3785869451,
				"z": -4.7317266656,
				"element": "H" 
			},
			{
				"x": -1.2800670853,
				"y": -2.1391614764,
				"z": -3.745484976,
				"element": "H" 
			}
		],
		 "valence_orbital": [ 
			{
				"type": "occ",
				"energy": -0.32827,
				"method": "rhf"
			},
			{
				"type": "occ",
				"energy": -0.29656,
				"method": "rhf"
			},
			{
				"type": "occ",
				"energy": -0.26847,
				"method": "rhf"
			},
			{
				"type": "occ",
				"energy": -0.2491,
				"method": "rhf"
			},
			{
				"type": "occ",
				"energy": -0.23185,
				"method": "rhf"
			},
			{
				"type": "unocc",
				"energy": -0.03506,
				"method": "rhf"
			},
			{
				"type": "unocc",
				"energy": 0.00638,
				"method": "rhf"
			},
			{
				"type": "unocc",
				"energy": 0.05378,
				"method": "rhf"
			},
			{
				"type": "unocc",
				"energy": 0.0899,
				"method": "rhf"
			},
			{
				"type": "unocc",
				"energy": 0.09937,
				"method": "rhf"
			}
		],
		"cosmo_sigma_profile": { 
			"-0.025": 0.0,
			"-0.024": 0.0,
			"-0.023": 0.0,
			"-0.022": 0.0,
			"-0.021": 0.0,
			"-0.02": 0.0,
			"-0.019": 0.0,
			"-0.018": 0.0,
			"-0.017": 0.0,
			"-0.016": 0.0,
			"-0.015": 0.300673312909,
			"-0.014": 0.855251956692,
			"-0.013": 1.11838203701,
			"-0.012": 1.75994875964,
			"-0.011": 1.51152147243,
			"-0.01": 0.923755947152,
			"-0.009": 0.873748967374,
			"-0.008": 0.900939452869,
			"-0.007": 1.40483534113,
			"-0.006": 2.23481081102,
			"-0.005": 3.44758816252,
			"-0.004": 12.5056229527,
			"-0.003": 35.1939118516,
			"-0.002": 39.8433010518,
			"-0.001": 39.2554248755,
			"0.0": 38.8406497032,
			"0.001": 38.82359851,
			"0.002": 15.4048418519,
			"0.003": 6.33086565785,
			"0.004": 3.9388858565,
			"0.005": 3.65824420781,
			"0.006": 4.21893928046,
			"0.007": 2.19663867674,
			"0.008": 2.2631417887,
			"0.009": 2.04943156828,
			"0.01": 1.69766787863,
			"0.011": 1.3268807324,
			"0.012": 1.29110405424,
			"0.013": 3.74385210118,
			"0.014": 6.09493582383,
			"0.015": 1.73730163322,
			"0.016": 0.095865003694,
			"0.017": 0.0,
			"0.018": 0.0,
			"0.019": 0.0,
			"0.02": 0.0,
			"0.021": 0.0,
			"0.022": 0.0,
			"0.023": 0.0,
			"0.024": 0.0,
			"0.025": 0.0
		}
	}
}
