{
	 "smiles": "CCCCC(C)CCC", 
	 "Tm": 160.15, 
	 "num_atms": 29, 
	 "gaussian": { 
		 "optdone": 1, 
		 "sigma_profile": "yes", 
		 "theory": "DFT", 
		 "functional": "B3LYP", 
		 "basiset": "6-31G**", 
		 "properties": { 
			 "R2extent": 1934.1353, 
			 "electric_dipole_moment_norm": 0.100378533562, 
			 "electric_quadrupole_moment_norm": 0.448867062726, 
			 "total_energy": -355.037242071, 
			 "HOMO_LUMO_gap": 0.36174, 
			 "cosmo_polarized_energy": -0.75, 
			 "cosmo_cavitation_energy": 28.21, 
			 "cosmo_dispersion_energy": -19.82, 
			 "cosmo_repulsion_energy": 1.64, 
			 "cosmo_total_nonelectrostatic_energy": 10.03, 
			 "SMD_solvation_energy": 4.41 
		},
		"coords": [
			{
				"x": -1.9874330567,
				"y": 3.0141836246,
				"z": -0.5249393742,
				"element": "C" 
			},
			{
				"x": -1.792408523,
				"y": 1.8091521547,
				"z": 0.4024325184,
				"element": "C" 
			},
			{
				"x": -1.609722612,
				"y": 0.4643926738,
				"z": -0.3264949433,
				"element": "C" 
			},
			{
				"x": -0.4162157349,
				"y": 0.3153347371,
				"z": -1.2944794661,
				"element": "C" 
			},
			{
				"x": 1.0165266769,
				"y": 0.1825386133,
				"z": -0.7156398116,
				"element": "C" 
			},
			{
				"x": 1.600362865,
				"y": 1.50339839,
				"z": -0.1840734175,
				"element": "C" 
			},
			{
				"x": 1.160548736,
				"y": -0.9278456562,
				"z": 0.3468590886,
				"element": "C" 
			},
			{
				"x": 0.7672582552,
				"y": -2.3500079084,
				"z": -0.090215108,
				"element": "C" 
			},
			{
				"x": 1.6185537729,
				"y": -2.9216540031,
				"z": -1.2305912672,
				"element": "C" 
			},
			{
				"x": -2.8312765165,
				"y": 2.8548813406,
				"z": -1.2068359753,
				"element": "H" 
			},
			{
				"x": -1.1009965839,
				"y": 3.2084857753,
				"z": -1.1371095922,
				"element": "H" 
			},
			{
				"x": -2.1930904115,
				"y": 3.9233447966,
				"z": 0.0498620185,
				"element": "H" 
			},
			{
				"x": -0.9486167674,
				"y": 1.9986749295,
				"z": 1.0751165312,
				"element": "H" 
			},
			{
				"x": -2.6735213979,
				"y": 1.7188251053,
				"z": 1.0515624013,
				"element": "H" 
			},
			{
				"x": -2.5229437112,
				"y": 0.2786554261,
				"z": -0.9095148027,
				"element": "H" 
			},
			{
				"x": -1.5743118385,
				"y": -0.3374408658,
				"z": 0.421650378,
				"element": "H" 
			},
			{
				"x": -0.4194326625,
				"y": 1.1478527839,
				"z": -2.0101208752,
				"element": "H" 
			},
			{
				"x": -0.6100704286,
				"y": -0.5798951646,
				"z": -1.8993429892,
				"element": "H" 
			},
			{
				"x": 1.6452866252,
				"y": -0.1013140777,
				"z": -1.5720897984,
				"element": "H" 
			},
			{
				"x": 2.6717288749,
				"y": 1.3954774707,
				"z": 0.0202311143,
				"element": "H" 
			},
			{
				"x": 1.4823488525,
				"y": 2.3142696819,
				"z": -0.9112398104,
				"element": "H" 
			},
			{
				"x": 1.1247585565,
				"y": 1.8201405303,
				"z": 0.7493419767,
				"element": "H" 
			},
			{
				"x": 0.5729717574,
				"y": -0.6537082409,
				"z": 1.2335297062,
				"element": "H" 
			},
			{
				"x": 2.2077283262,
				"y": -0.9446209963,
				"z": 0.6812601365,
				"element": "H" 
			},
			{
				"x": -0.2912977464,
				"y": -2.3753657532,
				"z": -0.3782178962,
				"element": "H" 
			},
			{
				"x": 0.8537059311,
				"y": -3.0111567385,
				"z": 0.7817287301,
				"element": "H" 
			},
			{
				"x": 2.6837467029,
				"y": -2.9122484484,
				"z": -0.9709322527,
				"element": "H" 
			},
			{
				"x": 1.339653862,
				"y": -3.9579352785,
				"z": -1.4486802023,
				"element": "H" 
			},
			{
				"x": 1.5006581963,
				"y": -2.3499149019,
				"z": -2.1570570174,
				"element": "H" 
			}
		],
		 "valence_orbital": [ 
			{
				"type": "occ",
				"energy": -0.32558,
				"method": "rhf"
			},
			{
				"type": "occ",
				"energy": -0.31814,
				"method": "rhf"
			},
			{
				"type": "occ",
				"energy": -0.30259,
				"method": "rhf"
			},
			{
				"type": "occ",
				"energy": -0.29559,
				"method": "rhf"
			},
			{
				"type": "occ",
				"energy": -0.291,
				"method": "rhf"
			},
			{
				"type": "unocc",
				"energy": 0.07074,
				"method": "rhf"
			},
			{
				"type": "unocc",
				"energy": 0.10027,
				"method": "rhf"
			},
			{
				"type": "unocc",
				"energy": 0.10408,
				"method": "rhf"
			},
			{
				"type": "unocc",
				"energy": 0.11767,
				"method": "rhf"
			},
			{
				"type": "unocc",
				"energy": 0.12996,
				"method": "rhf"
			}
		],
		"cosmo_sigma_profile": { 
			"-0.025": 0.0,
			"-0.024": 0.0,
			"-0.023": 0.0,
			"-0.022": 0.0,
			"-0.021": 0.0,
			"-0.02": 0.0,
			"-0.019": 0.0,
			"-0.018": 0.0,
			"-0.017": 0.0,
			"-0.016": 0.0,
			"-0.015": 0.0,
			"-0.014": 0.0,
			"-0.013": 0.0,
			"-0.012": 0.0,
			"-0.011": 0.0,
			"-0.01": 0.0,
			"-0.009": 0.0,
			"-0.008": 0.0,
			"-0.007": 0.0,
			"-0.006": 0.0,
			"-0.005": 0.0,
			"-0.004": 0.0741546140695,
			"-0.003": 3.80116868907,
			"-0.002": 27.0796895258,
			"-0.001": 50.8439715669,
			"0.0": 51.3312691603,
			"0.001": 50.6445267314,
			"0.002": 30.3009451636,
			"0.003": 1.53117372091,
			"0.004": 0.0,
			"0.005": 0.0,
			"0.006": 0.0,
			"0.007": 0.0,
			"0.008": 0.0,
			"0.009": 0.0,
			"0.01": 0.0,
			"0.011": 0.0,
			"0.012": 0.0,
			"0.013": 0.0,
			"0.014": 0.0,
			"0.015": 0.0,
			"0.016": 0.0,
			"0.017": 0.0,
			"0.018": 0.0,
			"0.019": 0.0,
			"0.02": 0.0,
			"0.021": 0.0,
			"0.022": 0.0,
			"0.023": 0.0,
			"0.024": 0.0,
			"0.025": 0.0
		}
	}
}
