{
	 "smiles": "NC1=CC(CN2C=NC3=C2C=CC=C3)=CC=C1", 
	 "Tm": 442.15, 
	 "num_atms": 30, 
	 "gaussian": { 
		 "optdone": 1, 
		 "sigma_profile": "yes", 
		 "theory": "DFT", 
		 "functional": "B3LYP", 
		 "basiset": "6-31G**", 
		 "properties": { 
			 "R2extent": 4806.7399, 
			 "electric_dipole_moment_norm": 3.49694960358, 
			 "electric_quadrupole_moment_norm": 15.2175746688, 
			 "total_energy": -705.592742571, 
			 "HOMO_LUMO_gap": 0.19876, 
			 "cosmo_polarized_energy": -15.96, 
			 "cosmo_cavitation_energy": 33.87, 
			 "cosmo_dispersion_energy": -23.89, 
			 "cosmo_repulsion_energy": 1.85, 
			 "cosmo_total_nonelectrostatic_energy": 11.83, 
			 "SMD_solvation_energy": 3.77 
		},
		"coords": [
			{
				"x": 4.0135374502,
				"y": -2.7912314246,
				"z": 0.6967001679,
				"element": "N" 
			},
			{
				"x": 2.7752514432,
				"y": -2.681451605,
				"z": 0.0660984396,
				"element": "C" 
			},
			{
				"x": 1.6988633286,
				"y": -2.0523173046,
				"z": 0.7125078092,
				"element": "C" 
			},
			{
				"x": 0.4429052939,
				"y": -1.9794469488,
				"z": 0.1081952836,
				"element": "C" 
			},
			{
				"x": -0.7284172143,
				"y": -1.3370016354,
				"z": 0.8349012486,
				"element": "C" 
			},
			{
				"x": -0.3900488769,
				"y": -0.1370464328,
				"z": 1.585470533,
				"element": "N" 
			},
			{
				"x": -0.433734852,
				"y": 0.0211044825,
				"z": 2.9550561736,
				"element": "C" 
			},
			{
				"x": -0.0987003368,
				"y": 1.2144652013,
				"z": 3.3731788118,
				"element": "N" 
			},
			{
				"x": 0.1896795109,
				"y": 1.9179704331,
				"z": 2.2100868766,
				"element": "C" 
			},
			{
				"x": 0.0153155131,
				"y": 1.0882303121,
				"z": 1.0751285527,
				"element": "C" 
			},
			{
				"x": 0.2380319263,
				"y": 1.5405012109,
				"z": -0.228347142,
				"element": "C" 
			},
			{
				"x": 0.6390219696,
				"y": 2.8665649675,
				"z": -0.3692120415,
				"element": "C" 
			},
			{
				"x": 0.8150391224,
				"y": 3.7079148886,
				"z": 0.7488512457,
				"element": "C" 
			},
			{
				"x": 0.5960028696,
				"y": 3.2483816704,
				"z": 2.0433566215,
				"element": "C" 
			},
			{
				"x": 0.2451033363,
				"y": -2.5386477123,
				"z": -1.1588147661,
				"element": "C" 
			},
			{
				"x": 1.3094003241,
				"y": -3.173833707,
				"z": -1.8026844706,
				"element": "C" 
			},
			{
				"x": 2.5629776272,
				"y": -3.2475128946,
				"z": -1.204517186,
				"element": "C" 
			},
			{
				"x": 4.8030161035,
				"y": -2.9259677009,
				"z": 0.0805771566,
				"element": "H" 
			},
			{
				"x": 4.200546312,
				"y": -2.0970082631,
				"z": 1.40698966,
				"element": "H" 
			},
			{
				"x": 1.8522272267,
				"y": -1.6070585467,
				"z": 1.6924685584,
				"element": "H" 
			},
			{
				"x": -1.1598215104,
				"y": -2.043690361,
				"z": 1.5536457188,
				"element": "H" 
			},
			{
				"x": -1.5202067448,
				"y": -1.096963723,
				"z": 0.1158198417,
				"element": "H" 
			},
			{
				"x": -0.7315939159,
				"y": -0.8028575119,
				"z": 3.5930335885,
				"element": "H" 
			},
			{
				"x": 0.118001922,
				"y": 0.8908819508,
				"z": -1.0891983097,
				"element": "H" 
			},
			{
				"x": 0.8240873799,
				"y": 3.2611304678,
				"z": -1.3640885774,
				"element": "H" 
			},
			{
				"x": 1.1298870944,
				"y": 4.7353844765,
				"z": 0.5911488375,
				"element": "H" 
			},
			{
				"x": 0.7302692181,
				"y": 3.8901620288,
				"z": 2.9082205982,
				"element": "H" 
			},
			{
				"x": -0.7286457804,
				"y": -2.4785182158,
				"z": -1.6371190466,
				"element": "H" 
			},
			{
				"x": 1.1630668466,
				"y": -3.6075825268,
				"z": -2.7880043359,
				"element": "H" 
			},
			{
				"x": 3.385737413,
				"y": -3.740755576,
				"z": -1.7160498479,
				"element": "H" 
			}
		],
		 "valence_orbital": [ 
			{
				"type": "occ",
				"energy": -0.26418,
				"method": "rhf"
			},
			{
				"type": "occ",
				"energy": -0.24895,
				"method": "rhf"
			},
			{
				"type": "occ",
				"energy": -0.22198,
				"method": "rhf"
			},
			{
				"type": "occ",
				"energy": -0.21691,
				"method": "rhf"
			},
			{
				"type": "occ",
				"energy": -0.20847,
				"method": "rhf"
			},
			{
				"type": "unocc",
				"energy": -0.00971,
				"method": "rhf"
			},
			{
				"type": "unocc",
				"energy": -0.00795,
				"method": "rhf"
			},
			{
				"type": "unocc",
				"energy": 0.00959,
				"method": "rhf"
			},
			{
				"type": "unocc",
				"energy": 0.02581,
				"method": "rhf"
			},
			{
				"type": "unocc",
				"energy": 0.06006,
				"method": "rhf"
			}
		],
		"cosmo_sigma_profile": { 
			"-0.025": 0.0,
			"-0.024": 0.0,
			"-0.023": 0.0,
			"-0.022": 0.0,
			"-0.021": 0.0,
			"-0.02": 0.0,
			"-0.019": 0.0,
			"-0.018": 0.0,
			"-0.017": 0.0,
			"-0.016": 0.0,
			"-0.015": 0.0,
			"-0.014": 0.0,
			"-0.013": 0.331938138269,
			"-0.012": 2.32652310766,
			"-0.011": 2.85933247006,
			"-0.01": 3.85978297814,
			"-0.009": 6.11580530798,
			"-0.008": 6.01644229183,
			"-0.007": 6.15577320791,
			"-0.006": 13.1789483677,
			"-0.005": 21.8166890947,
			"-0.004": 22.0233352319,
			"-0.003": 22.0161987652,
			"-0.002": 14.4618631882,
			"-0.001": 14.2135911438,
			"0.0": 12.5513591935,
			"0.001": 12.849882098,
			"0.002": 14.0855053511,
			"0.003": 14.0713795948,
			"0.004": 17.5648285533,
			"0.005": 20.1087052797,
			"0.006": 18.0024575275,
			"0.007": 7.28973924164,
			"0.008": 2.92829051199,
			"0.009": 3.29762491244,
			"0.01": 1.28671838436,
			"0.011": 1.78709356317,
			"0.012": 1.85898562671,
			"0.013": 1.63977774838,
			"0.014": 1.86831110108,
			"0.015": 1.30458597794,
			"0.016": 1.1095999592,
			"0.017": 1.03393608307,
			"0.018": 0.373645771573,
			"0.019": 0.0,
			"0.02": 0.0,
			"0.021": 0.0,
			"0.022": 0.0,
			"0.023": 0.0,
			"0.024": 0.0,
			"0.025": 0.0
		}
	}
}
