{
	 "smiles": "FC(F)(F)C1=NC2=C(N1)C=CC(NC(=O)CCl)=C2", 
	 "Tm": 491.15, 
	 "num_atms": 25, 
	 "gaussian": { 
		 "optdone": 1, 
		 "sigma_profile": "yes", 
		 "theory": "DFT", 
		 "functional": "B3LYP", 
		 "basiset": "6-31G**", 
		 "properties": { 
			 "R2extent": 7058.4664, 
			 "electric_dipole_moment_norm": 6.6296577966, 
			 "electric_quadrupole_moment_norm": 19.9643610301, 
			 "total_energy": -1384.49242661, 
			 "HOMO_LUMO_gap": 0.18457, 
			 "cosmo_polarized_energy": -20.24, 
			 "cosmo_cavitation_energy": 33.61, 
			 "cosmo_dispersion_energy": -24.0, 
			 "cosmo_repulsion_energy": 1.8, 
			 "cosmo_total_nonelectrostatic_energy": 11.41, 
			 "SMD_solvation_energy": 5.01 
		},
		"coords": [
			{
				"x": 4.3685600018,
				"y": 0.5663339551,
				"z": -2.3074767484,
				"element": "F" 
			},
			{
				"x": 4.0178622502,
				"y": -0.1895751335,
				"z": -1.2339305042,
				"element": "C" 
			},
			{
				"x": 4.5886295446,
				"y": -1.3945682228,
				"z": -1.3749246233,
				"element": "F" 
			},
			{
				"x": 4.5349814005,
				"y": 0.3871050509,
				"z": -0.1390224784,
				"element": "F" 
			},
			{
				"x": 2.5194973249,
				"y": -0.2853189373,
				"z": -1.1609303914,
				"element": "C" 
			},
			{
				"x": 1.8549169788,
				"y": -0.9459277173,
				"z": -0.2503885079,
				"element": "N" 
			},
			{
				"x": 0.5246817251,
				"y": -0.7448612865,
				"z": -0.5823774678,
				"element": "C" 
			},
			{
				"x": 0.4206936848,
				"y": 0.0662324237,
				"z": -1.7390845254,
				"element": "C" 
			},
			{
				"x": 1.7272037276,
				"y": 0.3483788456,
				"z": -2.0882979271,
				"element": "N" 
			},
			{
				"x": -0.8142134297,
				"y": 0.4099254445,
				"z": -2.2952482645,
				"element": "C" 
			},
			{
				"x": -1.9454173289,
				"y": -0.065689439,
				"z": -1.6478211716,
				"element": "C" 
			},
			{
				"x": -1.8622627841,
				"y": -0.8827216492,
				"z": -0.4904932233,
				"element": "C" 
			},
			{
				"x": -3.0853641559,
				"y": -1.3461193354,
				"z": 0.0635117241,
				"element": "N" 
			},
			{
				"x": -3.5512738926,
				"y": -1.388792505,
				"z": 1.3603244982,
				"element": "C" 
			},
			{
				"x": -4.6700655715,
				"y": -1.8097838337,
				"z": 1.6070404255,
				"element": "O" 
			},
			{
				"x": -2.652824488,
				"y": -0.8527870244,
				"z": 2.4711317474,
				"element": "C" 
			},
			{
				"x": -1.7965634805,
				"y": -2.2068315507,
				"z": 3.3210040247,
				"element": "Cl" 
			},
			{
				"x": -0.6263562207,
				"y": -1.2469657611,
				"z": 0.0405526419,
				"element": "C" 
			},
			{
				"x": 2.0605353014,
				"y": 0.9018487713,
				"z": -2.8626220754,
				"element": "H" 
			},
			{
				"x": -0.8977941143,
				"y": 1.0278086491,
				"z": -3.1834198851,
				"element": "H" 
			},
			{
				"x": -2.928633662,
				"y": 0.1963795151,
				"z": -2.0271428261,
				"element": "H" 
			},
			{
				"x": -3.8035698493,
				"y": -1.6306076075,
				"z": -0.5924014815,
				"element": "H" 
			},
			{
				"x": -3.2983128712,
				"y": -0.3825944627,
				"z": 3.2109723331,
				"element": "H" 
			},
			{
				"x": -1.8901474298,
				"y": -0.1577850942,
				"z": 2.1227481096,
				"element": "H" 
			},
			{
				"x": -0.5427626611,
				"y": -1.9099830952,
				"z": 0.8935965967,
				"element": "H" 
			}
		],
		 "valence_orbital": [ 
			{
				"type": "occ",
				"energy": -0.30089,
				"method": "rhf"
			},
			{
				"type": "occ",
				"energy": -0.29625,
				"method": "rhf"
			},
			{
				"type": "occ",
				"energy": -0.26481,
				"method": "rhf"
			},
			{
				"type": "occ",
				"energy": -0.25495,
				"method": "rhf"
			},
			{
				"type": "occ",
				"energy": -0.23623,
				"method": "rhf"
			},
			{
				"type": "unocc",
				"energy": -0.05166,
				"method": "rhf"
			},
			{
				"type": "unocc",
				"energy": -0.03201,
				"method": "rhf"
			},
			{
				"type": "unocc",
				"energy": -0.002,
				"method": "rhf"
			},
			{
				"type": "unocc",
				"energy": 0.01515,
				"method": "rhf"
			},
			{
				"type": "unocc",
				"energy": 0.05807,
				"method": "rhf"
			}
		],
		"cosmo_sigma_profile": { 
			"-0.025": 0.0,
			"-0.024": 0.0,
			"-0.023": 0.0,
			"-0.022": 0.0,
			"-0.021": 0.0,
			"-0.02": 0.0,
			"-0.019": 0.0,
			"-0.018": 0.311377142199,
			"-0.017": 1.05049957305,
			"-0.016": 0.901102031525,
			"-0.015": 1.61221006615,
			"-0.014": 2.08803454447,
			"-0.013": 2.52921932035,
			"-0.012": 2.09534986566,
			"-0.011": 1.86760608178,
			"-0.01": 3.03492442655,
			"-0.009": 3.58653572076,
			"-0.008": 7.08201725933,
			"-0.007": 12.2300024531,
			"-0.006": 11.117565779,
			"-0.005": 10.4044902501,
			"-0.004": 9.4731942976,
			"-0.003": 10.0458976643,
			"-0.002": 14.21328499,
			"-0.001": 15.4386904474,
			"0.0": 17.5576958791,
			"0.001": 25.4009313969,
			"0.002": 44.7908017996,
			"0.003": 21.4222801392,
			"0.004": 11.2515010387,
			"0.005": 10.7488990636,
			"0.006": 6.1152660032,
			"0.007": 1.90690097665,
			"0.008": 2.823503483,
			"0.009": 3.18816649058,
			"0.01": 2.07178997255,
			"0.011": 3.2670825063,
			"0.012": 4.69604211713,
			"0.013": 5.63807041801,
			"0.014": 1.55057106224,
			"0.015": 0.695475363824,
			"0.016": 0.080425121099,
			"0.017": 0.0,
			"0.018": 0.0,
			"0.019": 0.0,
			"0.02": 0.0,
			"0.021": 0.0,
			"0.022": 0.0,
			"0.023": 0.0,
			"0.024": 0.0,
			"0.025": 0.0
		}
	}
}
