{
	 "smiles": "CC1=C(C)C(Cl)=C(O)C=C1", 
	 "Tm": 300.15, 
	 "num_atms": 19, 
	 "gaussian": { 
		 "optdone": 1, 
		 "sigma_profile": "yes", 
		 "theory": "DFT", 
		 "functional": "B3LYP", 
		 "basiset": "6-31G**", 
		 "properties": { 
			 "R2extent": 2768.4118, 
			 "electric_dipole_moment_norm": 2.72966165486, 
			 "electric_quadrupole_moment_norm": 13.1949237402, 
			 "total_energy": -845.697541935, 
			 "HOMO_LUMO_gap": 0.20966, 
			 "cosmo_polarized_energy": -9.3, 
			 "cosmo_cavitation_energy": 23.58, 
			 "cosmo_dispersion_energy": -17.72, 
			 "cosmo_repulsion_energy": 1.43, 
			 "cosmo_total_nonelectrostatic_energy": 7.29, 
			 "SMD_solvation_energy": 4.23 
		},
		"coords": [
			{
				"x": 1.16214795,
				"y": 0.8199608962,
				"z": -0.9666465367,
				"element": "C" 
			},
			{
				"x": 0.9653449807,
				"y": 0.1406480518,
				"z": 0.3715027787,
				"element": "C" 
			},
			{
				"x": -0.1575612779,
				"y": 0.4118889782,
				"z": 1.1853820838,
				"element": "C" 
			},
			{
				"x": -1.2252974815,
				"y": 1.3945390117,
				"z": 0.7672651688,
				"element": "C" 
			},
			{
				"x": -0.272802641,
				"y": -0.2563446829,
				"z": 2.4136433614,
				"element": "C" 
			},
			{
				"x": -1.6520617145,
				"y": 0.049861668,
				"z": 3.457722568,
				"element": "Cl" 
			},
			{
				"x": 0.686687052,
				"y": -1.1797542782,
				"z": 2.8556381486,
				"element": "C" 
			},
			{
				"x": 0.4998845953,
				"y": -1.7851951228,
				"z": 4.0608895527,
				"element": "O" 
			},
			{
				"x": 1.7891162155,
				"y": -1.4358169918,
				"z": 2.0397535392,
				"element": "C" 
			},
			{
				"x": 1.9170133842,
				"y": -0.7806204137,
				"z": 0.8187610003,
				"element": "C" 
			},
			{
				"x": 2.0871423706,
				"y": 0.4751283105,
				"z": -1.4366046924,
				"element": "H" 
			},
			{
				"x": 1.229517247,
				"y": 1.9099204881,
				"z": -0.8715134302,
				"element": "H" 
			},
			{
				"x": 0.3422802765,
				"y": 0.6082418464,
				"z": -1.6627750811,
				"element": "H" 
			},
			{
				"x": -1.322005143,
				"y": 2.2039764651,
				"z": 1.4987401901,
				"element": "H" 
			},
			{
				"x": -2.2054051704,
				"y": 0.9089142561,
				"z": 0.711064713,
				"element": "H" 
			},
			{
				"x": -1.010275286,
				"y": 1.8387614001,
				"z": -0.2042932131,
				"element": "H" 
			},
			{
				"x": 1.2380719951,
				"y": -2.3868571169,
				"z": 4.222255761,
				"element": "H" 
			},
			{
				"x": 2.5440221174,
				"y": -2.1485532905,
				"z": 2.3648497832,
				"element": "H" 
			},
			{
				"x": 2.78198053,
				"y": -0.9921994755,
				"z": 0.196164305,
				"element": "H" 
			}
		],
		 "valence_orbital": [ 
			{
				"type": "occ",
				"energy": -0.33774,
				"method": "rhf"
			},
			{
				"type": "occ",
				"energy": -0.31649,
				"method": "rhf"
			},
			{
				"type": "occ",
				"energy": -0.29921,
				"method": "rhf"
			},
			{
				"type": "occ",
				"energy": -0.23869,
				"method": "rhf"
			},
			{
				"type": "occ",
				"energy": -0.21703,
				"method": "rhf"
			},
			{
				"type": "unocc",
				"energy": -0.00737,
				"method": "rhf"
			},
			{
				"type": "unocc",
				"energy": 0.01071,
				"method": "rhf"
			},
			{
				"type": "unocc",
				"energy": 0.04144,
				"method": "rhf"
			},
			{
				"type": "unocc",
				"energy": 0.0673,
				"method": "rhf"
			},
			{
				"type": "unocc",
				"energy": 0.09957,
				"method": "rhf"
			}
		],
		"cosmo_sigma_profile": { 
			"-0.025": 0.0,
			"-0.024": 0.0,
			"-0.023": 0.0,
			"-0.022": 0.0,
			"-0.021": 0.0,
			"-0.02": 0.0,
			"-0.019": 0.0158162453709,
			"-0.018": 0.789809866228,
			"-0.017": 1.37044475091,
			"-0.016": 0.949475297629,
			"-0.015": 0.998326168227,
			"-0.014": 1.05598158206,
			"-0.013": 0.652791964952,
			"-0.012": 0.982496520453,
			"-0.011": 0.995089400047,
			"-0.01": 0.981460919449,
			"-0.009": 1.47836559918,
			"-0.008": 0.938324796258,
			"-0.007": 1.48226819594,
			"-0.006": 3.06182129212,
			"-0.005": 5.95525644149,
			"-0.004": 14.023080887,
			"-0.003": 14.7437412261,
			"-0.002": 14.507201525,
			"-0.001": 16.7296057697,
			"0.0": 21.3008724005,
			"0.001": 12.3026894539,
			"0.002": 12.0528778708,
			"0.003": 16.4889399786,
			"0.004": 14.9066111741,
			"0.005": 13.4160249794,
			"0.006": 4.8830402509,
			"0.007": 2.5999417106,
			"0.008": 2.04156002115,
			"0.009": 1.91416996553,
			"0.01": 1.63054646625,
			"0.011": 2.54213493934,
			"0.012": 0.837201740738,
			"0.013": 0.0,
			"0.014": 0.0,
			"0.015": 0.0,
			"0.016": 0.0,
			"0.017": 0.0,
			"0.018": 0.0,
			"0.019": 0.0,
			"0.02": 0.0,
			"0.021": 0.0,
			"0.022": 0.0,
			"0.023": 0.0,
			"0.024": 0.0,
			"0.025": 0.0
		}
	}
}
