{
	 "smiles": "CC1=CC(=CC=C1)N1C(=O)NC(CCC(O)=O)C1=O", 
	 "Tm": 432.15, 
	 "num_atms": 33, 
	 "gaussian": { 
		 "optdone": 1, 
		 "sigma_profile": "yes", 
		 "theory": "DFT", 
		 "functional": "B3LYP", 
		 "basiset": "6-31G**", 
		 "properties": { 
			 "R2extent": 6818.8843, 
			 "electric_dipole_moment_norm": 3.24824274647, 
			 "electric_quadrupole_moment_norm": 21.5380238058, 
			 "total_energy": -914.287077451, 
			 "HOMO_LUMO_gap": 0.20792, 
			 "cosmo_polarized_energy": -18.73, 
			 "cosmo_cavitation_energy": 37.15, 
			 "cosmo_dispersion_energy": -26.52, 
			 "cosmo_repulsion_energy": 2.05, 
			 "cosmo_total_nonelectrostatic_energy": 12.69, 
			 "SMD_solvation_energy": 7.99 
		},
		"coords": [
			{
				"x": 1.2722833119,
				"y": 3.5598559513,
				"z": 3.9173722731,
				"element": "C" 
			},
			{
				"x": 1.209152723,
				"y": 2.0855412328,
				"z": 3.5907626568,
				"element": "C" 
			},
			{
				"x": 0.7865037767,
				"y": 1.6617955923,
				"z": 2.3260184756,
				"element": "C" 
			},
			{
				"x": 0.7087924115,
				"y": 0.2988377816,
				"z": 2.0218881696,
				"element": "C" 
			},
			{
				"x": 1.0454254383,
				"y": -0.6620338587,
				"z": 2.9820033674,
				"element": "C" 
			},
			{
				"x": 1.4564261092,
				"y": -0.2391191954,
				"z": 4.2442818461,
				"element": "C" 
			},
			{
				"x": 1.5430251835,
				"y": 1.1193400924,
				"z": 4.5476753887,
				"element": "C" 
			},
			{
				"x": 0.2782085484,
				"y": -0.1154024573,
				"z": 0.7228207006,
				"element": "N" 
			},
			{
				"x": 0.6007008043,
				"y": 0.583993397,
				"z": -0.4838395403,
				"element": "C" 
			},
			{
				"x": 1.33448084,
				"y": 1.5444863178,
				"z": -0.576879284,
				"element": "O" 
			},
			{
				"x": -0.0944727301,
				"y": -0.0385891461,
				"z": -1.4926426011,
				"element": "N" 
			},
			{
				"x": -0.7078204501,
				"y": -1.2802868355,
				"z": -1.0600011846,
				"element": "C" 
			},
			{
				"x": -2.1981575167,
				"y": -1.4177093059,
				"z": -1.4185965844,
				"element": "C" 
			},
			{
				"x": -2.5228258831,
				"y": -1.1105566136,
				"z": -2.8981104437,
				"element": "C" 
			},
			{
				"x": -1.6258754652,
				"y": -1.8418090224,
				"z": -3.8716150495,
				"element": "C" 
			},
			{
				"x": -2.2551592717,
				"y": -2.8374026929,
				"z": -4.5268376623,
				"element": "O" 
			},
			{
				"x": -0.4494395741,
				"y": -1.5849271376,
				"z": -4.0515911499,
				"element": "O" 
			},
			{
				"x": -0.499088748,
				"y": -1.2388357116,
				"z": 0.4556468856,
				"element": "C" 
			},
			{
				"x": -0.9471505048,
				"y": -2.0372303662,
				"z": 1.2536258965,
				"element": "O" 
			},
			{
				"x": 1.5586843208,
				"y": 4.1508399382,
				"z": 3.0423531406,
				"element": "H" 
			},
			{
				"x": 0.2980630191,
				"y": 3.9326734546,
				"z": 4.2579650862,
				"element": "H" 
			},
			{
				"x": 1.9942684371,
				"y": 3.7609169994,
				"z": 4.714277313,
				"element": "H" 
			},
			{
				"x": 0.5399990131,
				"y": 2.3931434499,
				"z": 1.5661732347,
				"element": "H" 
			},
			{
				"x": 0.9720972991,
				"y": -1.7156877642,
				"z": 2.7475775073,
				"element": "H" 
			},
			{
				"x": 1.7186524024,
				"y": -0.9797530379,
				"z": 4.9941931099,
				"element": "H" 
			},
			{
				"x": 1.8742698055,
				"y": 1.4335817052,
				"z": 5.5341264156,
				"element": "H" 
			},
			{
				"x": 0.2361803027,
				"y": 0.0518417989,
				"z": -2.444687108,
				"element": "H" 
			},
			{
				"x": -0.1558880197,
				"y": -2.1428556744,
				"z": -1.4563501023,
				"element": "H" 
			},
			{
				"x": -2.7848860563,
				"y": -0.7277685825,
				"z": -0.8033644637,
				"element": "H" 
			},
			{
				"x": -2.5160110828,
				"y": -2.430259905,
				"z": -1.1525377469,
				"element": "H" 
			},
			{
				"x": -2.37051232,
				"y": -0.0417704424,
				"z": -3.0771484024,
				"element": "H" 
			},
			{
				"x": -3.5688556716,
				"y": -1.3489931865,
				"z": -3.1017252153,
				"element": "H" 
			},
			{
				"x": -1.5944704523,
				"y": -3.2459567755,
				"z": -5.1129349289,
				"element": "H" 
			}
		],
		 "valence_orbital": [ 
			{
				"type": "occ",
				"energy": -0.28612,
				"method": "rhf"
			},
			{
				"type": "occ",
				"energy": -0.27102,
				"method": "rhf"
			},
			{
				"type": "occ",
				"energy": -0.26142,
				"method": "rhf"
			},
			{
				"type": "occ",
				"energy": -0.23962,
				"method": "rhf"
			},
			{
				"type": "occ",
				"energy": -0.22882,
				"method": "rhf"
			},
			{
				"type": "unocc",
				"energy": -0.0209,
				"method": "rhf"
			},
			{
				"type": "unocc",
				"energy": -0.0137,
				"method": "rhf"
			},
			{
				"type": "unocc",
				"energy": 0.00108,
				"method": "rhf"
			},
			{
				"type": "unocc",
				"energy": 0.00533,
				"method": "rhf"
			},
			{
				"type": "unocc",
				"energy": 0.05975,
				"method": "rhf"
			}
		],
		"cosmo_sigma_profile": { 
			"-0.025": 0.0,
			"-0.024": 0.0,
			"-0.023": 0.0,
			"-0.022": 0.0,
			"-0.021": 0.0,
			"-0.02": 0.0,
			"-0.019": 0.0880611432944,
			"-0.018": 0.934730236117,
			"-0.017": 1.08534140586,
			"-0.016": 0.55498346236,
			"-0.015": 0.878769817457,
			"-0.014": 0.675480630967,
			"-0.013": 0.675967050212,
			"-0.012": 0.903260838102,
			"-0.011": 1.89473853122,
			"-0.01": 1.10369273838,
			"-0.009": 1.33553216485,
			"-0.008": 4.43508428266,
			"-0.007": 6.64488358105,
			"-0.006": 13.8967304645,
			"-0.005": 23.1073778471,
			"-0.004": 33.645891938,
			"-0.003": 26.6391153152,
			"-0.002": 20.9256805651,
			"-0.001": 17.8742350012,
			"0.0": 19.4051597861,
			"0.001": 13.3086989471,
			"0.002": 11.702653151,
			"0.003": 13.0308191301,
			"0.004": 13.3168096093,
			"0.005": 15.2080519057,
			"0.006": 6.69570526019,
			"0.007": 6.1183968525,
			"0.008": 6.19778737606,
			"0.009": 5.85273848103,
			"0.01": 5.86947657783,
			"0.011": 8.54603861642,
			"0.012": 9.14749830975,
			"0.013": 2.49708694702,
			"0.014": 0.0307109693506,
			"0.015": 0.0,
			"0.016": 0.0,
			"0.017": 0.0,
			"0.018": 0.0,
			"0.019": 0.0,
			"0.02": 0.0,
			"0.021": 0.0,
			"0.022": 0.0,
			"0.023": 0.0,
			"0.024": 0.0,
			"0.025": 0.0
		}
	}
}
