{
	 "smiles": "OC(=O)C1=NOC(=N1)C1=C(F)C=CC(F)=C1", 
	 "Tm": 393.15, 
	 "num_atms": 20, 
	 "gaussian": { 
		 "optdone": 1, 
		 "sigma_profile": "yes", 
		 "theory": "DFT", 
		 "functional": "B3LYP", 
		 "basiset": "6-31G**", 
		 "properties": { 
			 "R2extent": 5453.7219, 
			 "electric_dipole_moment_norm": 5.40968612583, 
			 "electric_quadrupole_moment_norm": 11.8372837074, 
			 "total_energy": -880.166336685, 
			 "HOMO_LUMO_gap": 0.17329, 
			 "cosmo_polarized_energy": -14.83, 
			 "cosmo_cavitation_energy": 27.83, 
			 "cosmo_dispersion_energy": -20.36, 
			 "cosmo_repulsion_energy": 1.53, 
			 "cosmo_total_nonelectrostatic_energy": 8.99, 
			 "SMD_solvation_energy": 5.69 
		},
		"coords": [
			{
				"x": -1.9657670308,
				"y": 4.1830253926,
				"z": -1.4233156164,
				"element": "O" 
			},
			{
				"x": -1.666724682,
				"y": 3.2502932787,
				"z": -0.4961247388,
				"element": "C" 
			},
			{
				"x": -2.3425418078,
				"y": 3.0578758108,
				"z": 0.4788422809,
				"element": "O" 
			},
			{
				"x": -0.4128280073,
				"y": 2.4754943062,
				"z": -0.7943516574,
				"element": "C" 
			},
			{
				"x": 0.2804903869,
				"y": 2.7353490623,
				"z": -1.8781950727,
				"element": "N" 
			},
			{
				"x": 1.3385326254,
				"y": 1.8417239677,
				"z": -1.8095301927,
				"element": "O" 
			},
			{
				"x": 1.1636789628,
				"y": 1.124312008,
				"z": -0.6658904766,
				"element": "C" 
			},
			{
				"x": 0.0943715165,
				"y": 1.4811057555,
				"z": -0.0057765101,
				"element": "N" 
			},
			{
				"x": 2.1598538104,
				"y": 0.1040320688,
				"z": -0.3623104294,
				"element": "C" 
			},
			{
				"x": 2.0721080435,
				"y": -0.6912377222,
				"z": 0.7926612674,
				"element": "C" 
			},
			{
				"x": 1.0584664854,
				"y": -0.5251817949,
				"z": 1.6480512079,
				"element": "F" 
			},
			{
				"x": 3.0248779331,
				"y": -1.663874706,
				"z": 1.0788176147,
				"element": "C" 
			},
			{
				"x": 4.0934044784,
				"y": -1.8628390747,
				"z": 0.2090790457,
				"element": "C" 
			},
			{
				"x": 4.1833495217,
				"y": -1.0757644209,
				"z": -0.9372530781,
				"element": "C" 
			},
			{
				"x": 5.2152460004,
				"y": -1.2657759902,
				"z": -1.779980441,
				"element": "F" 
			},
			{
				"x": 3.24365811,
				"y": -0.1041411724,
				"z": -1.2359593956,
				"element": "C" 
			},
			{
				"x": -1.2954631346,
				"y": 4.1774706233,
				"z": -2.1281899495,
				"element": "H" 
			},
			{
				"x": 2.9131373108,
				"y": -2.2519077642,
				"z": 1.982604049,
				"element": "H" 
			},
			{
				"x": 4.8506800633,
				"y": -2.6133110262,
				"z": 0.4063477697,
				"element": "H" 
			},
			{
				"x": 3.348869414,
				"y": 0.4872513978,
				"z": -2.1372256769,
				"element": "H" 
			}
		],
		 "valence_orbital": [ 
			{
				"type": "occ",
				"energy": -0.32634,
				"method": "rhf"
			},
			{
				"type": "occ",
				"energy": -0.32268,
				"method": "rhf"
			},
			{
				"type": "occ",
				"energy": -0.29144,
				"method": "rhf"
			},
			{
				"type": "occ",
				"energy": -0.28767,
				"method": "rhf"
			},
			{
				"type": "occ",
				"energy": -0.2659,
				"method": "rhf"
			},
			{
				"type": "unocc",
				"energy": -0.09261,
				"method": "rhf"
			},
			{
				"type": "unocc",
				"energy": -0.05821,
				"method": "rhf"
			},
			{
				"type": "unocc",
				"energy": -0.02934,
				"method": "rhf"
			},
			{
				"type": "unocc",
				"energy": 0.02105,
				"method": "rhf"
			},
			{
				"type": "unocc",
				"energy": 0.04508,
				"method": "rhf"
			}
		],
		"cosmo_sigma_profile": { 
			"-0.025": 0.0,
			"-0.024": 0.0,
			"-0.023": 0.0,
			"-0.022": 0.0,
			"-0.021": 0.0,
			"-0.02": 0.0,
			"-0.019": 0.0,
			"-0.018": 0.00103958728868,
			"-0.017": 0.512742490344,
			"-0.016": 0.441725219367,
			"-0.015": 0.398962479758,
			"-0.014": 0.795248699715,
			"-0.013": 0.781085096908,
			"-0.012": 1.20296938068,
			"-0.011": 0.853087367497,
			"-0.01": 1.19616193229,
			"-0.009": 4.55484208099,
			"-0.008": 7.58534968527,
			"-0.007": 9.16174416357,
			"-0.006": 10.5847427791,
			"-0.005": 11.2921567051,
			"-0.004": 11.7323009163,
			"-0.003": 11.9645404081,
			"-0.002": 16.3393634847,
			"-0.001": 23.6209246403,
			"0.0": 17.3253767609,
			"0.001": 10.6914774909,
			"0.002": 9.16919263563,
			"0.003": 18.0184328917,
			"0.004": 14.7113853288,
			"0.005": 4.87443044878,
			"0.006": 5.57480840492,
			"0.007": 5.42313962502,
			"0.008": 6.53844254468,
			"0.009": 5.68363758045,
			"0.01": 7.12541444111,
			"0.011": 5.7814275641,
			"0.012": 1.82769148861,
			"0.013": 0.32462427519,
			"0.014": 0.0,
			"0.015": 0.0,
			"0.016": 0.0,
			"0.017": 0.0,
			"0.018": 0.0,
			"0.019": 0.0,
			"0.02": 0.0,
			"0.021": 0.0,
			"0.022": 0.0,
			"0.023": 0.0,
			"0.024": 0.0,
			"0.025": 0.0
		}
	}
}
