{
	 "smiles": "ClC1=CC2=C(OC3=C2C=C(Cl)C(Cl)=C3Cl)C(Cl)=C1", 
	 "Tm": 492.15, 
	 "num_atms": 21, 
	 "gaussian": { 
		 "optdone": 1, 
		 "sigma_profile": "yes", 
		 "theory": "DFT", 
		 "functional": "B3LYP", 
		 "basiset": "6-31G**", 
		 "properties": { 
			 "R2extent": 11055.6274, 
			 "electric_dipole_moment_norm": 1.71921610334, 
			 "electric_quadrupole_moment_norm": 7.47760597518, 
			 "total_energy": -2835.26133673, 
			 "HOMO_LUMO_gap": 0.1742, 
			 "cosmo_polarized_energy": -6.46, 
			 "cosmo_cavitation_energy": 35.42, 
			 "cosmo_dispersion_energy": -26.53, 
			 "cosmo_repulsion_energy": 2.04, 
			 "cosmo_total_nonelectrostatic_energy": 10.93, 
			 "SMD_solvation_energy": 4.58 
		},
		"coords": [
			{
				"x": -2.3208285924,
				"y": 2.6126733442,
				"z": -0.5926307027,
				"element": "Cl" 
			},
			{
				"x": -1.0789670324,
				"y": 1.3735598298,
				"z": -0.5676558391,
				"element": "C" 
			},
			{
				"x": -0.2066088836,
				"y": 1.3081438417,
				"z": 0.5151154767,
				"element": "C" 
			},
			{
				"x": 0.7679296143,
				"y": 0.3062635607,
				"z": 0.4956381057,
				"element": "C" 
			},
			{
				"x": 0.8423191991,
				"y": -0.5880056162,
				"z": -0.5880425037,
				"element": "C" 
			},
			{
				"x": 1.8555398724,
				"y": -1.4998691957,
				"z": -0.4366140056,
				"element": "O" 
			},
			{
				"x": 2.4486903979,
				"y": -1.196899796,
				"z": 0.7594053306,
				"element": "C" 
			},
			{
				"x": 1.8374481048,
				"y": -0.1009786483,
				"z": 1.3903648717,
				"element": "C" 
			},
			{
				"x": 2.3198719544,
				"y": 0.3411731664,
				"z": 2.6222532827,
				"element": "C" 
			},
			{
				"x": 3.4017306729,
				"y": -0.3250950502,
				"z": 3.1908530586,
				"element": "C" 
			},
			{
				"x": 3.9943528621,
				"y": 0.2402193525,
				"z": 4.7335948985,
				"element": "Cl" 
			},
			{
				"x": 4.0140274688,
				"y": -1.4292829939,
				"z": 2.5503245107,
				"element": "C" 
			},
			{
				"x": 5.3610610895,
				"y": -2.2379008883,
				"z": 3.2859963673,
				"element": "Cl" 
			},
			{
				"x": 3.5301389231,
				"y": -1.8773343725,
				"z": 1.3086169996,
				"element": "C" 
			},
			{
				"x": 4.2211050852,
				"y": -3.2194896912,
				"z": 0.4585418742,
				"element": "Cl" 
			},
			{
				"x": -0.0330220019,
				"y": -0.5160519541,
				"z": -1.666101252,
				"element": "C" 
			},
			{
				"x": 0.0845039611,
				"y": -1.6369284561,
				"z": -2.9916358144,
				"element": "Cl" 
			},
			{
				"x": -1.0063470929,
				"y": 0.4824028132,
				"z": -1.6495386048,
				"element": "C" 
			},
			{
				"x": -0.2889971128,
				"y": 2.0114408752,
				"z": 1.3353382629,
				"element": "H" 
			},
			{
				"x": 1.8759219312,
				"y": 1.1826790296,
				"z": 3.1407402316,
				"element": "H" 
			},
			{
				"x": -1.7043704209,
				"y": 0.5669808492,
				"z": -2.4732645485,
				"element": "H" 
			}
		],
		 "valence_orbital": [ 
			{
				"type": "occ",
				"energy": -0.31631,
				"method": "rhf"
			},
			{
				"type": "occ",
				"energy": -0.29203,
				"method": "rhf"
			},
			{
				"type": "occ",
				"energy": -0.27339,
				"method": "rhf"
			},
			{
				"type": "occ",
				"energy": -0.25176,
				"method": "rhf"
			},
			{
				"type": "occ",
				"energy": -0.24865,
				"method": "rhf"
			},
			{
				"type": "unocc",
				"energy": -0.07445,
				"method": "rhf"
			},
			{
				"type": "unocc",
				"energy": -0.03921,
				"method": "rhf"
			},
			{
				"type": "unocc",
				"energy": -0.02847,
				"method": "rhf"
			},
			{
				"type": "unocc",
				"energy": -0.02573,
				"method": "rhf"
			},
			{
				"type": "unocc",
				"energy": -0.00563,
				"method": "rhf"
			}
		],
		"cosmo_sigma_profile": { 
			"-0.025": 0.0,
			"-0.024": 0.0,
			"-0.023": 0.0,
			"-0.022": 0.0,
			"-0.021": 0.0,
			"-0.02": 0.0,
			"-0.019": 0.0,
			"-0.018": 0.0,
			"-0.017": 0.0,
			"-0.016": 0.0,
			"-0.015": 0.0,
			"-0.014": 0.0,
			"-0.013": 0.0,
			"-0.012": 0.0,
			"-0.011": 0.0,
			"-0.01": 0.612522872226,
			"-0.009": 5.46683002057,
			"-0.008": 5.23231529812,
			"-0.007": 4.3517927297,
			"-0.006": 4.70076766085,
			"-0.005": 5.08436414371,
			"-0.004": 10.0553637281,
			"-0.003": 15.8199300509,
			"-0.002": 32.7096006202,
			"-0.001": 37.1193649223,
			"0.0": 41.3143864177,
			"0.001": 29.3375752052,
			"0.002": 27.8864823223,
			"0.003": 41.8699895292,
			"0.004": 29.1362006833,
			"0.005": 5.55827135385,
			"0.006": 2.03274701063,
			"0.007": 0.421615276116,
			"0.008": 0.0,
			"0.009": 0.0,
			"0.01": 0.0,
			"0.011": 0.0,
			"0.012": 0.0,
			"0.013": 0.0,
			"0.014": 0.0,
			"0.015": 0.0,
			"0.016": 0.0,
			"0.017": 0.0,
			"0.018": 0.0,
			"0.019": 0.0,
			"0.02": 0.0,
			"0.021": 0.0,
			"0.022": 0.0,
			"0.023": 0.0,
			"0.024": 0.0,
			"0.025": 0.0
		}
	}
}
