{
	 "smiles": "CC1=CC(OP(=O)(OC2=CC(C)=CC=C2C)OC2=C(C)C=CC(C)=C2)=C(C)C=C1", 
	 "Tm": 352.95, 
	 "num_atms": 56, 
	 "gaussian": { 
		 "optdone": 1, 
		 "sigma_profile": "yes", 
		 "theory": "DFT", 
		 "functional": "B3LYP", 
		 "basiset": "6-31G**", 
		 "properties": { 
			 "R2extent": 12725.4839, 
			 "electric_dipole_moment_norm": 3.1925741354, 
			 "electric_quadrupole_moment_norm": 11.784653462, 
			 "total_energy": -1573.19417262, 
			 "HOMO_LUMO_gap": 0.22206, 
			 "cosmo_polarized_energy": -12.57, 
			 "cosmo_cavitation_energy": 59.84, 
			 "cosmo_dispersion_energy": -37.64, 
			 "cosmo_repulsion_energy": 2.82, 
			 "cosmo_total_nonelectrostatic_energy": 25.03, 
			 "SMD_solvation_energy": 11.47 
		},
		"coords": [
			{
				"x": 2.2796420656,
				"y": 1.9247637141,
				"z": 5.4554021548,
				"element": "C" 
			},
			{
				"x": 2.4235948321,
				"y": 1.2825495417,
				"z": 4.0955756025,
				"element": "C" 
			},
			{
				"x": 1.3126949672,
				"y": 1.1880297042,
				"z": 3.2440573438,
				"element": "C" 
			},
			{
				"x": 1.4509521281,
				"y": 0.6100391332,
				"z": 1.9857619362,
				"element": "C" 
			},
			{
				"x": 0.3798514151,
				"y": 0.4766997214,
				"z": 1.0904288513,
				"element": "O" 
			},
			{
				"x": -1.0196595327,
				"y": 1.2924142744,
				"z": 1.1152318806,
				"element": "P" 
			},
			{
				"x": -1.6987450114,
				"y": 1.4067605325,
				"z": 2.4199806846,
				"element": "O" 
			},
			{
				"x": -1.799129566,
				"y": 0.5385131917,
				"z": -0.0767534347,
				"element": "O" 
			},
			{
				"x": -2.2682419081,
				"y": -0.785117582,
				"z": 0.057141473,
				"element": "C" 
			},
			{
				"x": -1.4324928109,
				"y": -1.8183177613,
				"z": -0.3504842428,
				"element": "C" 
			},
			{
				"x": -1.8790707143,
				"y": -3.1448053324,
				"z": -0.3089956202,
				"element": "C" 
			},
			{
				"x": -0.9674805313,
				"y": -4.2781418961,
				"z": -0.7169622744,
				"element": "C" 
			},
			{
				"x": -3.1826770945,
				"y": -3.3816961147,
				"z": 0.1404102203,
				"element": "C" 
			},
			{
				"x": -4.0086577061,
				"y": -2.3293535492,
				"z": 0.5364677244,
				"element": "C" 
			},
			{
				"x": -3.5778733952,
				"y": -0.9978394219,
				"z": 0.5056526801,
				"element": "C" 
			},
			{
				"x": -4.4699238376,
				"y": 0.1429235701,
				"z": 0.9237060995,
				"element": "C" 
			},
			{
				"x": -0.7323583919,
				"y": 2.7315902821,
				"z": 0.4588355253,
				"element": "O" 
			},
			{
				"x": -0.0801739665,
				"y": 2.9753025595,
				"z": -0.7617067608,
				"element": "C" 
			},
			{
				"x": -0.8583716162,
				"y": 3.315838961,
				"z": -1.8745890504,
				"element": "C" 
			},
			{
				"x": -2.3632880178,
				"y": 3.3537333424,
				"z": -1.806446606,
				"element": "C" 
			},
			{
				"x": -0.1597903256,
				"y": 3.6240007874,
				"z": -3.0483233933,
				"element": "C" 
			},
			{
				"x": 1.233356792,
				"y": 3.6025812798,
				"z": -3.1043404428,
				"element": "C" 
			},
			{
				"x": 1.9936179261,
				"y": 3.2824691521,
				"z": -1.9734844671,
				"element": "C" 
			},
			{
				"x": 3.5038117639,
				"y": 3.3122615888,
				"z": -2.0085633717,
				"element": "C" 
			},
			{
				"x": 1.311180681,
				"y": 2.9690861098,
				"z": -0.7916833807,
				"element": "C" 
			},
			{
				"x": 2.6712434546,
				"y": 0.0886755371,
				"z": 1.5252235571,
				"element": "C" 
			},
			{
				"x": 2.7812904835,
				"y": -0.559872423,
				"z": 0.1687769514,
				"element": "C" 
			},
			{
				"x": 3.7629197488,
				"y": 0.1903746147,
				"z": 2.391119751,
				"element": "C" 
			},
			{
				"x": 3.6486568672,
				"y": 0.7775462566,
				"z": 3.6526725506,
				"element": "C" 
			},
			{
				"x": 1.4351973546,
				"y": 1.5006967172,
				"z": 6.0090589657,
				"element": "H" 
			},
			{
				"x": 2.0968912689,
				"y": 3.0024515107,
				"z": 5.3684590342,
				"element": "H" 
			},
			{
				"x": 3.1819862757,
				"y": 1.7880524748,
				"z": 6.0576919595,
				"element": "H" 
			},
			{
				"x": 0.3407206614,
				"y": 1.5473101842,
				"z": 3.564118672,
				"element": "H" 
			},
			{
				"x": -0.4356051785,
				"y": -1.5744076474,
				"z": -0.7025834812,
				"element": "H" 
			},
			{
				"x": -0.3368042803,
				"y": -3.9997931825,
				"z": -1.5672490691,
				"element": "H" 
			},
			{
				"x": -0.2978141789,
				"y": -4.5639884198,
				"z": 0.1038116152,
				"element": "H" 
			},
			{
				"x": -1.5389112163,
				"y": -5.1678207997,
				"z": -0.9968361108,
				"element": "H" 
			},
			{
				"x": -3.5597965258,
				"y": -4.4004613115,
				"z": 0.1774555822,
				"element": "H" 
			},
			{
				"x": -5.019430293,
				"y": -2.5411935469,
				"z": 0.8752792153,
				"element": "H" 
			},
			{
				"x": -5.4593075409,
				"y": -0.2268647111,
				"z": 1.2047903989,
				"element": "H" 
			},
			{
				"x": -4.0432858773,
				"y": 0.6843544572,
				"z": 1.7734500044,
				"element": "H" 
			},
			{
				"x": -4.5959057112,
				"y": 0.8669322519,
				"z": 0.1107362392,
				"element": "H" 
			},
			{
				"x": -2.7056659923,
				"y": 3.96520343,
				"z": -0.9653522736,
				"element": "H" 
			},
			{
				"x": -2.7781677573,
				"y": 2.3510845118,
				"z": -1.6628852221,
				"element": "H" 
			},
			{
				"x": -2.780148459,
				"y": 3.7696835421,
				"z": -2.7272636838,
				"element": "H" 
			},
			{
				"x": -0.7270778957,
				"y": 3.8886763432,
				"z": -3.9369527959,
				"element": "H" 
			},
			{
				"x": 1.7355749432,
				"y": 3.8470730958,
				"z": -4.0368379731,
				"element": "H" 
			},
			{
				"x": 3.8847568908,
				"y": 3.0424422849,
				"z": -2.9982356054,
				"element": "H" 
			},
			{
				"x": 3.9363495233,
				"y": 2.6226349136,
				"z": -1.2778429693,
				"element": "H" 
			},
			{
				"x": 3.8851682101,
				"y": 4.3143150639,
				"z": -1.7754927293,
				"element": "H" 
			},
			{
				"x": 1.8576473944,
				"y": 2.7309812032,
				"z": 0.1152563918,
				"element": "H" 
			},
			{
				"x": 3.8151591409,
				"y": -0.8490017036,
				"z": -0.0377314839,
				"element": "H" 
			},
			{
				"x": 2.4429731225,
				"y": 0.1117744326,
				"z": -0.6272417609,
				"element": "H" 
			},
			{
				"x": 2.1596185941,
				"y": -1.460536269,
				"z": 0.1070246131,
				"element": "H" 
			},
			{
				"x": 4.7230021407,
				"y": -0.2038400742,
				"z": 2.0675800163,
				"element": "H" 
			},
			{
				"x": 4.5207966867,
				"y": 0.8380314747,
				"z": 4.2980805091,
				"element": "H" 
			}
		],
		 "valence_orbital": [ 
			{
				"type": "occ",
				"energy": -0.24555,
				"method": "rhf"
			},
			{
				"type": "occ",
				"energy": -0.24237,
				"method": "rhf"
			},
			{
				"type": "occ",
				"energy": -0.23475,
				"method": "rhf"
			},
			{
				"type": "occ",
				"energy": -0.23187,
				"method": "rhf"
			},
			{
				"type": "occ",
				"energy": -0.22845,
				"method": "rhf"
			},
			{
				"type": "unocc",
				"energy": -0.00639,
				"method": "rhf"
			},
			{
				"type": "unocc",
				"energy": -0.00326,
				"method": "rhf"
			},
			{
				"type": "unocc",
				"energy": -0.00133,
				"method": "rhf"
			},
			{
				"type": "unocc",
				"energy": -0.00038,
				"method": "rhf"
			},
			{
				"type": "unocc",
				"energy": 0.00181,
				"method": "rhf"
			}
		],
		"cosmo_sigma_profile": { 
			"-0.025": 0.0,
			"-0.024": 0.0,
			"-0.023": 0.0,
			"-0.022": 0.0,
			"-0.021": 0.0,
			"-0.02": 0.0,
			"-0.019": 0.0,
			"-0.018": 0.0,
			"-0.017": 0.0,
			"-0.016": 0.0,
			"-0.015": 0.0,
			"-0.014": 0.0,
			"-0.013": 0.0,
			"-0.012": 0.0,
			"-0.011": 0.0,
			"-0.01": 0.0,
			"-0.009": 0.0,
			"-0.008": 0.0,
			"-0.007": 0.0126297418983,
			"-0.006": 5.02800698531,
			"-0.005": 23.592471675,
			"-0.004": 46.1715469768,
			"-0.003": 47.0143465641,
			"-0.002": 49.9306619671,
			"-0.001": 57.6999905756,
			"0.0": 66.3323817131,
			"0.001": 39.5281537214,
			"0.002": 30.5932429574,
			"0.003": 30.3884556523,
			"0.004": 29.8068446267,
			"0.005": 23.0732278077,
			"0.006": 6.02002939153,
			"0.007": 3.00440018467,
			"0.008": 2.53239036567,
			"0.009": 1.78717889538,
			"0.01": 1.37344851856,
			"0.011": 1.72961905826,
			"0.012": 3.11662729507,
			"0.013": 2.59054832574,
			"0.014": 0.220802247834,
			"0.015": 0.0,
			"0.016": 0.0,
			"0.017": 0.0,
			"0.018": 0.0,
			"0.019": 0.0,
			"0.02": 0.0,
			"0.021": 0.0,
			"0.022": 0.0,
			"0.023": 0.0,
			"0.024": 0.0,
			"0.025": 0.0
		}
	}
}
