{
	 "smiles": "OC1=CN=C(C=C1)C(F)(F)F", 
	 "Tm": 448.15, 
	 "num_atms": 15, 
	 "gaussian": { 
		 "optdone": 1, 
		 "sigma_profile": "yes", 
		 "theory": "DFT", 
		 "functional": "B3LYP", 
		 "basiset": "6-31G**", 
		 "properties": { 
			 "R2extent": 4080.3, 
			 "electric_dipole_moment_norm": 5.09033076528, 
			 "electric_quadrupole_moment_norm": 13.474157934, 
			 "total_energy": -660.537312056, 
			 "HOMO_LUMO_gap": 0.2113, 
			 "cosmo_polarized_energy": -11.91, 
			 "cosmo_cavitation_energy": 21.27, 
			 "cosmo_dispersion_energy": -15.44, 
			 "cosmo_repulsion_energy": 1.18, 
			 "cosmo_total_nonelectrostatic_energy": 7.01, 
			 "SMD_solvation_energy": 4.14 
		},
		"coords": [
			{
				"x": -1.9126408199,
				"y": -2.7508299071,
				"z": 0.0978052302,
				"element": "O" 
			},
			{
				"x": -2.0750302006,
				"y": -1.4240136405,
				"z": 0.3371795221,
				"element": "C" 
			},
			{
				"x": -3.1322719039,
				"y": -0.7716401948,
				"z": -0.3230012014,
				"element": "C" 
			},
			{
				"x": -3.3906569632,
				"y": 0.5213894853,
				"z": -0.1693693629,
				"element": "N" 
			},
			{
				"x": -2.6059675249,
				"y": 1.2305686478,
				"z": 0.6521660708,
				"element": "C" 
			},
			{
				"x": -1.5347548703,
				"y": 0.6810004172,
				"z": 1.3520960391,
				"element": "C" 
			},
			{
				"x": -1.2631903776,
				"y": -0.6770173926,
				"z": 1.190908958,
				"element": "C" 
			},
			{
				"x": -2.9617348311,
				"y": 2.6946502865,
				"z": 0.7760087551,
				"element": "C" 
			},
			{
				"x": -4.2122453654,
				"y": 2.8639286691,
				"z": 1.2478341455,
				"element": "F" 
			},
			{
				"x": -2.1189221756,
				"y": 3.3333893216,
				"z": 1.6233271289,
				"element": "F" 
			},
			{
				"x": -2.892741779,
				"y": 3.3251369046,
				"z": -0.4125736446,
				"element": "F" 
			},
			{
				"x": -1.1600358306,
				"y": -3.0854549845,
				"z": 0.6034830818,
				"element": "H" 
			},
			{
				"x": -3.7729906667,
				"y": -1.3422047769,
				"z": -0.9913914306,
				"element": "H" 
			},
			{
				"x": -0.9288537845,
				"y": 1.2967915642,
				"z": 2.0055375459,
				"element": "H" 
			},
			{
				"x": -0.4353629067,
				"y": -1.1433943999,
				"z": 1.7201891621,
				"element": "H" 
			}
		],
		 "valence_orbital": [ 
			{
				"type": "occ",
				"energy": -0.37723,
				"method": "rhf"
			},
			{
				"type": "occ",
				"energy": -0.36914,
				"method": "rhf"
			},
			{
				"type": "occ",
				"energy": -0.30137,
				"method": "rhf"
			},
			{
				"type": "occ",
				"energy": -0.27414,
				"method": "rhf"
			},
			{
				"type": "occ",
				"energy": -0.25335,
				"method": "rhf"
			},
			{
				"type": "unocc",
				"energy": -0.04205,
				"method": "rhf"
			},
			{
				"type": "unocc",
				"energy": -0.02465,
				"method": "rhf"
			},
			{
				"type": "unocc",
				"energy": 0.04821,
				"method": "rhf"
			},
			{
				"type": "unocc",
				"energy": 0.08855,
				"method": "rhf"
			},
			{
				"type": "unocc",
				"energy": 0.12176,
				"method": "rhf"
			}
		],
		"cosmo_sigma_profile": { 
			"-0.025": 0.0,
			"-0.024": 0.0,
			"-0.023": 0.0,
			"-0.022": 0.0,
			"-0.021": 0.0,
			"-0.02": 0.0,
			"-0.019": 0.492147990397,
			"-0.018": 1.42785031207,
			"-0.017": 1.38378661946,
			"-0.016": 1.09316770671,
			"-0.015": 1.0133655141,
			"-0.014": 1.0934016345,
			"-0.013": 0.769682372467,
			"-0.012": 1.04573298279,
			"-0.011": 1.60312093904,
			"-0.01": 0.838093078779,
			"-0.009": 1.70999183051,
			"-0.008": 3.06454276867,
			"-0.007": 6.05140264453,
			"-0.006": 5.87869480265,
			"-0.005": 4.57161889906,
			"-0.004": 4.18492159331,
			"-0.003": 6.24040938511,
			"-0.002": 7.4425748338,
			"-0.001": 9.27812757411,
			"0.0": 18.2187846274,
			"0.001": 13.7327676023,
			"0.002": 19.183993362,
			"0.003": 30.9719850513,
			"0.004": 7.52519990331,
			"0.005": 3.90240211209,
			"0.006": 3.05310143983,
			"0.007": 3.8376575548,
			"0.008": 3.01123959072,
			"0.009": 2.81320449959,
			"0.01": 2.5265714478,
			"0.011": 0.77705282056,
			"0.012": 0.820132484521,
			"0.013": 1.01967082998,
			"0.014": 0.391369017688,
			"0.015": 0.0194548660491,
			"0.016": 0.0,
			"0.017": 0.0,
			"0.018": 0.0,
			"0.019": 0.0,
			"0.02": 0.0,
			"0.021": 0.0,
			"0.022": 0.0,
			"0.023": 0.0,
			"0.024": 0.0,
			"0.025": 0.0
		}
	}
}
