{
	 "smiles": "CN(C(=O)N(C)C1=CC=CC=C1)C1=CC=CC=C1", 
	 "Tm": 395.15, 
	 "num_atms": 34, 
	 "gaussian": { 
		 "optdone": 1, 
		 "sigma_profile": "yes", 
		 "theory": "DFT", 
		 "functional": "B3LYP", 
		 "basiset": "6-31G**", 
		 "properties": { 
			 "R2extent": 6085.7239, 
			 "electric_dipole_moment_norm": 3.53110431735, 
			 "electric_quadrupole_moment_norm": 5.64656741393, 
			 "total_energy": -765.967506605, 
			 "HOMO_LUMO_gap": 0.19093, 
			 "cosmo_polarized_energy": -13.04, 
			 "cosmo_cavitation_energy": 36.18, 
			 "cosmo_dispersion_energy": -26.04, 
			 "cosmo_repulsion_energy": 1.98, 
			 "cosmo_total_nonelectrostatic_energy": 12.11, 
			 "SMD_solvation_energy": 7.09 
		},
		"coords": [
			{
				"x": 1.2951974249,
				"y": 0.2599309951,
				"z": -1.3730450228,
				"element": "C" 
			},
			{
				"x": -0.0317945068,
				"y": 0.8038362443,
				"z": -1.0783817419,
				"element": "N" 
			},
			{
				"x": -0.5872087622,
				"y": 0.6052419344,
				"z": 0.2023133494,
				"element": "C" 
			},
			{
				"x": -1.1662904695,
				"y": 1.4835296283,
				"z": 0.8182959402,
				"element": "O" 
			},
			{
				"x": -0.4130184423,
				"y": -0.6997442831,
				"z": 0.7070667119,
				"element": "N" 
			},
			{
				"x": -0.6274174442,
				"y": -1.8433177076,
				"z": -0.1816781151,
				"element": "C" 
			},
			{
				"x": -0.4159575317,
				"y": -0.9338460371,
				"z": 2.1107800915,
				"element": "C" 
			},
			{
				"x": -0.74989667,
				"y": -2.198742951,
				"z": 2.6213979699,
				"element": "C" 
			},
			{
				"x": -0.6883798412,
				"y": -2.451365363,
				"z": 3.9940825588,
				"element": "C" 
			},
			{
				"x": -0.2936495417,
				"y": -1.4574067652,
				"z": 4.8842621439,
				"element": "C" 
			},
			{
				"x": 0.0459322664,
				"y": -0.1991484634,
				"z": 4.3791943907,
				"element": "C" 
			},
			{
				"x": -0.0073856926,
				"y": 0.0653821807,
				"z": 3.015289036,
				"element": "C" 
			},
			{
				"x": -0.5439769183,
				"y": 1.8185721756,
				"z": -1.9346253961,
				"element": "C" 
			},
			{
				"x": 0.2596652528,
				"y": 2.3702863604,
				"z": -2.9455786151,
				"element": "C" 
			},
			{
				"x": -0.2602749737,
				"y": 3.3176862969,
				"z": -3.8309843869,
				"element": "C" 
			},
			{
				"x": -1.5844271121,
				"y": 3.7336736566,
				"z": -3.7322139447,
				"element": "C" 
			},
			{
				"x": -2.3893008132,
				"y": 3.1818647489,
				"z": -2.7315667615,
				"element": "C" 
			},
			{
				"x": -1.8862367004,
				"y": 2.2356762847,
				"z": -1.8457202848,
				"element": "C" 
			},
			{
				"x": 1.3204760468,
				"y": -0.2032147259,
				"z": -2.365206401,
				"element": "H" 
			},
			{
				"x": 1.5539797011,
				"y": -0.4848368774,
				"z": -0.6241580941,
				"element": "H" 
			},
			{
				"x": 2.0576050904,
				"y": 1.0475980944,
				"z": -1.337495797,
				"element": "H" 
			},
			{
				"x": -1.6025242175,
				"y": -2.308454376,
				"z": 0.0074944028,
				"element": "H" 
			},
			{
				"x": 0.1512627791,
				"y": -2.6011417003,
				"z": -0.0443689286,
				"element": "H" 
			},
			{
				"x": -0.6177192666,
				"y": -1.5039521501,
				"z": -1.2147310995,
				"element": "H" 
			},
			{
				"x": -1.0603128444,
				"y": -2.9995619818,
				"z": 1.962351453,
				"element": "H" 
			},
			{
				"x": -0.9545723293,
				"y": -3.4394253831,
				"z": 4.3591121106,
				"element": "H" 
			},
			{
				"x": -0.2486411889,
				"y": -1.6554407578,
				"z": 5.9507299753,
				"element": "H" 
			},
			{
				"x": 0.3609348037,
				"y": 0.5912875382,
				"z": 5.0546848596,
				"element": "H" 
			},
			{
				"x": 0.2493685885,
				"y": 1.0512197727,
				"z": 2.6520876433,
				"element": "H" 
			},
			{
				"x": 1.2944285543,
				"y": 2.0723597537,
				"z": -3.0573616237,
				"element": "H" 
			},
			{
				"x": 0.3866774297,
				"y": 3.7276305172,
				"z": -4.601547703,
				"element": "H" 
			},
			{
				"x": -1.9856222982,
				"y": 4.4715960689,
				"z": -4.4200434416,
				"element": "H" 
			},
			{
				"x": -3.4273567155,
				"y": 3.4883319394,
				"z": -2.6376623404,
				"element": "H" 
			},
			{
				"x": -2.5273636572,
				"y": 1.8333953323,
				"z": -1.0731729394,
				"element": "H" 
			}
		],
		 "valence_orbital": [ 
			{
				"type": "occ",
				"energy": -0.2651,
				"method": "rhf"
			},
			{
				"type": "occ",
				"energy": -0.24577,
				"method": "rhf"
			},
			{
				"type": "occ",
				"energy": -0.24325,
				"method": "rhf"
			},
			{
				"type": "occ",
				"energy": -0.21578,
				"method": "rhf"
			},
			{
				"type": "occ",
				"energy": -0.20669,
				"method": "rhf"
			},
			{
				"type": "unocc",
				"energy": -0.01576,
				"method": "rhf"
			},
			{
				"type": "unocc",
				"energy": 0.00386,
				"method": "rhf"
			},
			{
				"type": "unocc",
				"energy": 0.00528,
				"method": "rhf"
			},
			{
				"type": "unocc",
				"energy": 0.01352,
				"method": "rhf"
			},
			{
				"type": "unocc",
				"energy": 0.04145,
				"method": "rhf"
			}
		],
		"cosmo_sigma_profile": { 
			"-0.025": 0.0,
			"-0.024": 0.0,
			"-0.023": 0.0,
			"-0.022": 0.0,
			"-0.021": 0.0,
			"-0.02": 0.0,
			"-0.019": 0.0,
			"-0.018": 0.0,
			"-0.017": 0.0,
			"-0.016": 0.0,
			"-0.015": 0.0,
			"-0.014": 0.0,
			"-0.013": 0.0,
			"-0.012": 0.0,
			"-0.011": 0.0,
			"-0.01": 0.0,
			"-0.009": 0.0,
			"-0.008": 0.0,
			"-0.007": 0.669853165307,
			"-0.006": 11.8723258596,
			"-0.005": 32.1903026024,
			"-0.004": 37.3149005706,
			"-0.003": 39.2993484976,
			"-0.002": 23.8403702076,
			"-0.001": 15.0203358055,
			"0.0": 12.9594823141,
			"0.001": 13.5205357728,
			"0.002": 12.9173223089,
			"0.003": 14.4740722245,
			"0.004": 14.831373327,
			"0.005": 17.3463856024,
			"0.006": 20.5183784065,
			"0.007": 5.6350544019,
			"0.008": 2.67489833377,
			"0.009": 1.82592637817,
			"0.01": 2.3662496808,
			"0.011": 1.91009535637,
			"0.012": 3.20483008619,
			"0.013": 3.54386593602,
			"0.014": 0.502319497094,
			"0.015": 0.0,
			"0.016": 0.0,
			"0.017": 0.0,
			"0.018": 0.0,
			"0.019": 0.0,
			"0.02": 0.0,
			"0.021": 0.0,
			"0.022": 0.0,
			"0.023": 0.0,
			"0.024": 0.0,
			"0.025": 0.0
		}
	}
}
