{
	 "smiles": "CN1N=CN=C1COC1=CC=C(C=C1)S(Cl)(=O)=O", 
	 "Tm": 388.15, 
	 "num_atms": 28, 
	 "gaussian": { 
		 "optdone": 1, 
		 "sigma_profile": "yes", 
		 "theory": "DFT", 
		 "functional": "B3LYP", 
		 "basiset": "6-31G**", 
		 "properties": { 
			 "R2extent": 10925.1153, 
			 "electric_dipole_moment_norm": 4.91608272713, 
			 "electric_quadrupole_moment_norm": 33.7968375325, 
			 "total_energy": -1635.30355339, 
			 "HOMO_LUMO_gap": 0.17724, 
			 "cosmo_polarized_energy": -18.62, 
			 "cosmo_cavitation_energy": 36.86, 
			 "cosmo_dispersion_energy": -26.89, 
			 "cosmo_repulsion_energy": 2.03, 
			 "cosmo_total_nonelectrostatic_energy": 11.99, 
			 "SMD_solvation_energy": 2.81 
		},
		"coords": [
			{
				"x": -0.8948664361,
				"y": -2.2215208264,
				"z": 1.5557563311,
				"element": "C" 
			},
			{
				"x": -1.5375045403,
				"y": -1.0904558403,
				"z": 2.2055259359,
				"element": "N" 
			},
			{
				"x": -2.5976680303,
				"y": -1.2898141802,
				"z": 3.0270021425,
				"element": "N" 
			},
			{
				"x": -2.8748057585,
				"y": -0.0609541934,
				"z": 3.4412543448,
				"element": "C" 
			},
			{
				"x": -2.0709711072,
				"y": 0.9132420896,
				"z": 2.9380289326,
				"element": "N" 
			},
			{
				"x": -1.2365223478,
				"y": 0.2320388646,
				"z": 2.1642563678,
				"element": "C" 
			},
			{
				"x": -0.110770063,
				"y": 0.8439355593,
				"z": 1.3978689748,
				"element": "C" 
			},
			{
				"x": -0.284130656,
				"y": 0.5475699363,
				"z": 0.0037142238,
				"element": "O" 
			},
			{
				"x": 0.6095748466,
				"y": 1.0522913336,
				"z": -0.8862574607,
				"element": "C" 
			},
			{
				"x": 0.3770335314,
				"y": 0.7084038726,
				"z": -2.2303418832,
				"element": "C" 
			},
			{
				"x": 1.2287310382,
				"y": 1.163454137,
				"z": -3.2232065382,
				"element": "C" 
			},
			{
				"x": 2.3156694856,
				"y": 1.9703475441,
				"z": -2.8648561296,
				"element": "C" 
			},
			{
				"x": 2.5585856714,
				"y": 2.3233137455,
				"z": -1.5389490143,
				"element": "C" 
			},
			{
				"x": 1.6999059304,
				"y": 1.865299151,
				"z": -0.5415119448,
				"element": "C" 
			},
			{
				"x": 3.4095388102,
				"y": 2.5650295027,
				"z": -4.1317153225,
				"element": "S" 
			},
			{
				"x": 4.8483524363,
				"y": 0.9819780626,
				"z": -4.2402071279,
				"element": "Cl" 
			},
			{
				"x": 4.1364271493,
				"y": 3.7293942589,
				"z": -3.6406302771,
				"element": "O" 
			},
			{
				"x": 2.7165168265,
				"y": 2.5591860716,
				"z": -5.4141397158,
				"element": "O" 
			},
			{
				"x": -1.6686775346,
				"y": -2.9036119419,
				"z": 1.2012157148,
				"element": "H" 
			},
			{
				"x": -0.2466419094,
				"y": -2.7522613846,
				"z": 2.2593831416,
				"element": "H" 
			},
			{
				"x": -0.3124161579,
				"y": -1.8610705054,
				"z": 0.7083762044,
				"element": "H" 
			},
			{
				"x": -3.6897273909,
				"y": 0.1365050126,
				"z": 4.123714941,
				"element": "H" 
			},
			{
				"x": -0.1446160292,
				"y": 1.922853188,
				"z": 1.5764495899,
				"element": "H" 
			},
			{
				"x": 0.8620220064,
				"y": 0.4587802417,
				"z": 1.7338530267,
				"element": "H" 
			},
			{
				"x": -0.4817602646,
				"y": 0.0899126802,
				"z": -2.4669627062,
				"element": "H" 
			},
			{
				"x": 1.0551661348,
				"y": 0.9121947664,
				"z": -4.2634541162,
				"element": "H" 
			},
			{
				"x": 3.4021105484,
				"y": 2.9575550683,
				"z": -1.2904626383,
				"element": "H" 
			},
			{
				"x": 1.8859438104,
				"y": 2.1510037854,
				"z": 0.4860950035,
				"element": "H" 
			}
		],
		 "valence_orbital": [ 
			{
				"type": "occ",
				"energy": -0.30083,
				"method": "rhf"
			},
			{
				"type": "occ",
				"energy": -0.29519,
				"method": "rhf"
			},
			{
				"type": "occ",
				"energy": -0.28758,
				"method": "rhf"
			},
			{
				"type": "occ",
				"energy": -0.27481,
				"method": "rhf"
			},
			{
				"type": "occ",
				"energy": -0.26606,
				"method": "rhf"
			},
			{
				"type": "unocc",
				"energy": -0.08882,
				"method": "rhf"
			},
			{
				"type": "unocc",
				"energy": -0.04415,
				"method": "rhf"
			},
			{
				"type": "unocc",
				"energy": -0.0382,
				"method": "rhf"
			},
			{
				"type": "unocc",
				"energy": -0.01949,
				"method": "rhf"
			},
			{
				"type": "unocc",
				"energy": 0.03789,
				"method": "rhf"
			}
		],
		"cosmo_sigma_profile": { 
			"-0.025": 0.0,
			"-0.024": 0.0,
			"-0.023": 0.0,
			"-0.022": 0.0,
			"-0.021": 0.0,
			"-0.02": 0.0,
			"-0.019": 0.0,
			"-0.018": 0.0,
			"-0.017": 0.0,
			"-0.016": 0.0,
			"-0.015": 0.0,
			"-0.014": 0.0,
			"-0.013": 0.0,
			"-0.012": 0.0,
			"-0.011": 0.0,
			"-0.01": 0.650718776552,
			"-0.009": 5.55915054032,
			"-0.008": 14.7952704499,
			"-0.007": 17.1651602844,
			"-0.006": 18.3552821456,
			"-0.005": 16.6541379059,
			"-0.004": 17.3342756975,
			"-0.003": 15.0792218932,
			"-0.002": 14.6769458842,
			"-0.001": 17.7065716529,
			"0.0": 24.0498410421,
			"0.001": 27.254622491,
			"0.002": 19.5687322356,
			"0.003": 16.3134063456,
			"0.004": 18.5132805803,
			"0.005": 7.30184274456,
			"0.006": 7.29769383575,
			"0.007": 7.63804088133,
			"0.008": 11.7816937054,
			"0.009": 8.78549410269,
			"0.01": 1.98574274245,
			"0.011": 2.33857357485,
			"0.012": 2.09198297356,
			"0.013": 1.78436613136,
			"0.014": 1.73103603708,
			"0.015": 1.40003898299,
			"0.016": 0.693269427052,
			"0.017": 0.0269584837189,
			"0.018": 0.0,
			"0.019": 0.0,
			"0.02": 0.0,
			"0.021": 0.0,
			"0.022": 0.0,
			"0.023": 0.0,
			"0.024": 0.0,
			"0.025": 0.0
		}
	}
}
