{
	 "smiles": "CC1=CN2N=C(Br)SC2=N1", 
	 "Tm": 394.15, 
	 "num_atms": 14, 
	 "gaussian": { 
		 "optdone": 1, 
		 "sigma_profile": "yes", 
		 "theory": "DFT", 
		 "functional": "B3LYP", 
		 "basiset": "6-31G**", 
		 "properties": { 
			 "R2extent": 5314.8669, 
			 "electric_dipole_moment_norm": 0.996581782896, 
			 "electric_quadrupole_moment_norm": 9.42309612495, 
			 "total_energy": -3326.73448954, 
			 "HOMO_LUMO_gap": 0.18437, 
			 "cosmo_polarized_energy": -6.35, 
			 "cosmo_cavitation_energy": 22.77, 
			 "cosmo_dispersion_energy": -18.22, 
			 "cosmo_repulsion_energy": 1.43, 
			 "cosmo_total_nonelectrostatic_energy": 5.97, 
			 "SMD_solvation_energy": 0.08 
		},
		"coords": [
			{
				"x": -1.3586555364,
				"y": -1.5537895801,
				"z": -1.58498705,
				"element": "C" 
			},
			{
				"x": -0.3211417601,
				"y": -1.1983243008,
				"z": -0.5678438658,
				"element": "C" 
			},
			{
				"x": 0.6786324579,
				"y": -0.2543040593,
				"z": -0.6735218443,
				"element": "C" 
			},
			{
				"x": 1.3517966082,
				"y": -0.3269037126,
				"z": 0.5338999066,
				"element": "N" 
			},
			{
				"x": 2.4216130603,
				"y": 0.3264395494,
				"z": 1.0651804284,
				"element": "N" 
			},
			{
				"x": 2.6298272225,
				"y": -0.1448172734,
				"z": 2.2492100417,
				"element": "C" 
			},
			{
				"x": 4.0202548701,
				"y": 0.4818047813,
				"z": 3.3415322534,
				"element": "Br" 
			},
			{
				"x": 1.5476830146,
				"y": -1.4250577093,
				"z": 2.8303438053,
				"element": "S" 
			},
			{
				"x": 0.7239949039,
				"y": -1.2977941614,
				"z": 1.2830366649,
				"element": "C" 
			},
			{
				"x": -0.2849425562,
				"y": -1.8482982832,
				"z": 0.6637801654,
				"element": "N" 
			},
			{
				"x": -2.3659699036,
				"y": -1.3913805683,
				"z": -1.1870436907,
				"element": "H" 
			},
			{
				"x": -1.2861483537,
				"y": -2.6107642121,
				"z": -1.8624061209,
				"element": "H" 
			},
			{
				"x": -1.2441054783,
				"y": -0.9511615695,
				"z": -2.4898617079,
				"element": "H" 
			},
			{
				"x": 0.9662614508,
				"y": 0.4319510993,
				"z": -1.4527189861,
				"element": "H" 
			}
		],
		 "valence_orbital": [ 
			{
				"type": "occ",
				"energy": -0.32189,
				"method": "rhf"
			},
			{
				"type": "occ",
				"energy": -0.31585,
				"method": "rhf"
			},
			{
				"type": "occ",
				"energy": -0.28312,
				"method": "rhf"
			},
			{
				"type": "occ",
				"energy": -0.25377,
				"method": "rhf"
			},
			{
				"type": "occ",
				"energy": -0.22892,
				"method": "rhf"
			},
			{
				"type": "unocc",
				"energy": -0.04455,
				"method": "rhf"
			},
			{
				"type": "unocc",
				"energy": -0.03536,
				"method": "rhf"
			},
			{
				"type": "unocc",
				"energy": -0.00538,
				"method": "rhf"
			},
			{
				"type": "unocc",
				"energy": 0.02901,
				"method": "rhf"
			},
			{
				"type": "unocc",
				"energy": 0.05202,
				"method": "rhf"
			}
		],
		"cosmo_sigma_profile": { 
			"-0.025": 0.0,
			"-0.024": 0.0,
			"-0.023": 0.0,
			"-0.022": 0.0,
			"-0.021": 0.0,
			"-0.02": 0.0,
			"-0.019": 0.0,
			"-0.018": 0.0,
			"-0.017": 0.0,
			"-0.016": 0.0,
			"-0.015": 0.0,
			"-0.014": 0.0,
			"-0.013": 0.0,
			"-0.012": 0.0,
			"-0.011": 0.0,
			"-0.01": 0.139404380321,
			"-0.009": 1.77522957126,
			"-0.008": 1.95990128877,
			"-0.007": 3.00657774704,
			"-0.006": 3.72450513386,
			"-0.005": 9.4254779714,
			"-0.004": 14.3463077237,
			"-0.003": 18.036525317,
			"-0.002": 19.702858743,
			"-0.001": 22.3332775,
			"0.0": 22.453953232,
			"0.001": 19.6575451334,
			"0.002": 17.7572552522,
			"0.003": 9.42544044181,
			"0.004": 5.0965818601,
			"0.005": 2.51474618823,
			"0.006": 2.8242345744,
			"0.007": 2.80206947736,
			"0.008": 2.05224260069,
			"0.009": 2.27691645226,
			"0.01": 1.94622410284,
			"0.011": 1.1768563049,
			"0.012": 1.10090419684,
			"0.013": 1.11833947676,
			"0.014": 0.9144636162,
			"0.015": 0.795892401846,
			"0.016": 1.01875245702,
			"0.017": 0.112385832658,
			"0.018": 0.0,
			"0.019": 0.0,
			"0.02": 0.0,
			"0.021": 0.0,
			"0.022": 0.0,
			"0.023": 0.0,
			"0.024": 0.0,
			"0.025": 0.0
		}
	}
}
