{
	 "smiles": "CC1=C(C)C=C(C=C1)C(=O)CBr", 
	 "Tm": 337.15, 
	 "num_atms": 23, 
	 "gaussian": { 
		 "optdone": 1, 
		 "sigma_profile": "yes", 
		 "theory": "DFT", 
		 "functional": "B3LYP", 
		 "basiset": "6-31G**", 
		 "properties": { 
			 "R2extent": 5573.4285, 
			 "electric_dipole_moment_norm": 5.20507495623, 
			 "electric_quadrupole_moment_norm": 11.8592784932, 
			 "total_energy": -3034.33408525, 
			 "HOMO_LUMO_gap": 0.19151, 
			 "cosmo_polarized_energy": -11.55, 
			 "cosmo_cavitation_energy": 28.78, 
			 "cosmo_dispersion_energy": -21.3, 
			 "cosmo_repulsion_energy": 1.69, 
			 "cosmo_total_nonelectrostatic_energy": 9.17, 
			 "SMD_solvation_energy": 4.25 
		},
		"coords": [
			{
				"x": -2.6470546865,
				"y": 2.0093653569,
				"z": -0.6339525896,
				"element": "C" 
			},
			{
				"x": -1.43451664,
				"y": 1.1770083292,
				"z": -0.2991918878,
				"element": "C" 
			},
			{
				"x": -1.0685053739,
				"y": 0.0728072153,
				"z": -1.1047088697,
				"element": "C" 
			},
			{
				"x": -1.8818427186,
				"y": -0.301797783,
				"z": -2.3206741473,
				"element": "C" 
			},
			{
				"x": 0.059146252,
				"y": -0.66954225,
				"z": -0.7596584089,
				"element": "C" 
			},
			{
				"x": 0.8421664648,
				"y": -0.3546758286,
				"z": 0.3623125341,
				"element": "C" 
			},
			{
				"x": 0.4725394715,
				"y": 0.7404092945,
				"z": 1.1543918574,
				"element": "C" 
			},
			{
				"x": -0.652921204,
				"y": 1.4896236631,
				"z": 0.8189916686,
				"element": "C" 
			},
			{
				"x": 2.0328397286,
				"y": -1.2176322575,
				"z": 0.642611886,
				"element": "C" 
			},
			{
				"x": 2.3199107505,
				"y": -2.1605150562,
				"z": -0.0699371658,
				"element": "O" 
			},
			{
				"x": 2.8660253258,
				"y": -0.8462827506,
				"z": 1.873956378,
				"element": "C" 
			},
			{
				"x": 4.395302841,
				"y": -2.0245777058,
				"z": 2.160094964,
				"element": "Br" 
			},
			{
				"x": -2.7854450535,
				"y": 2.8175204578,
				"z": 0.0884679127,
				"element": "H" 
			},
			{
				"x": -3.561040314,
				"y": 1.4033736635,
				"z": -0.6404462485,
				"element": "H" 
			},
			{
				"x": -2.5627191722,
				"y": 2.4594213441,
				"z": -1.6304619943,
				"element": "H" 
			},
			{
				"x": -1.4569768846,
				"y": -1.1741491607,
				"z": -2.8227570727,
				"element": "H" 
			},
			{
				"x": -2.9191715398,
				"y": -0.5394170213,
				"z": -2.0556884025,
				"element": "H" 
			},
			{
				"x": -1.9219891489,
				"y": 0.5176730969,
				"z": -3.0483705049,
				"element": "H" 
			},
			{
				"x": 0.3602597657,
				"y": -1.5211007337,
				"z": -1.361820479,
				"element": "H" 
			},
			{
				"x": 1.0485908941,
				"y": 1.0199157515,
				"z": 2.0306531343,
				"element": "H" 
			},
			{
				"x": -0.9331623458,
				"y": 2.3375498298,
				"z": 1.4384394559,
				"element": "H" 
			},
			{
				"x": 3.2612120825,
				"y": 0.1666616197,
				"z": 1.77827882,
				"element": "H" 
			},
			{
				"x": 2.2565515053,
				"y": -0.894539075,
				"z": 2.7781691599,
				"element": "H" 
			}
		],
		 "valence_orbital": [ 
			{
				"type": "occ",
				"energy": -0.27153,
				"method": "rhf"
			},
			{
				"type": "occ",
				"energy": -0.27008,
				"method": "rhf"
			},
			{
				"type": "occ",
				"energy": -0.25929,
				"method": "rhf"
			},
			{
				"type": "occ",
				"energy": -0.25819,
				"method": "rhf"
			},
			{
				"type": "occ",
				"energy": -0.2521,
				"method": "rhf"
			},
			{
				"type": "unocc",
				"energy": -0.06059,
				"method": "rhf"
			},
			{
				"type": "unocc",
				"energy": -0.01085,
				"method": "rhf"
			},
			{
				"type": "unocc",
				"energy": 0.0047,
				"method": "rhf"
			},
			{
				"type": "unocc",
				"energy": 0.03239,
				"method": "rhf"
			},
			{
				"type": "unocc",
				"energy": 0.08287,
				"method": "rhf"
			}
		],
		"cosmo_sigma_profile": { 
			"-0.025": 0.0,
			"-0.024": 0.0,
			"-0.023": 0.0,
			"-0.022": 0.0,
			"-0.021": 0.0,
			"-0.02": 0.0,
			"-0.019": 0.0,
			"-0.018": 0.0,
			"-0.017": 0.0,
			"-0.016": 0.0,
			"-0.015": 0.0,
			"-0.014": 0.0,
			"-0.013": 0.0,
			"-0.012": 0.0,
			"-0.011": 0.0,
			"-0.01": 0.0861968485755,
			"-0.009": 5.43474213705,
			"-0.008": 7.58633387602,
			"-0.007": 5.1624173347,
			"-0.006": 5.27666587989,
			"-0.005": 13.2870155197,
			"-0.004": 21.3431821855,
			"-0.003": 18.2951676676,
			"-0.002": 17.2888202685,
			"-0.001": 20.3011532733,
			"0.0": 21.8291983187,
			"0.001": 14.0863378344,
			"0.002": 13.3226343451,
			"0.003": 13.3637192495,
			"0.004": 16.5245577187,
			"0.005": 10.9771987988,
			"0.006": 8.60874419313,
			"0.007": 2.43219743219,
			"0.008": 2.75209123935,
			"0.009": 2.12645290011,
			"0.01": 2.98888646678,
			"0.011": 3.98509445856,
			"0.012": 3.09982763876,
			"0.013": 1.14155768521,
			"0.014": 0.0225719430174,
			"0.015": 0.0,
			"0.016": 0.0,
			"0.017": 0.0,
			"0.018": 0.0,
			"0.019": 0.0,
			"0.02": 0.0,
			"0.021": 0.0,
			"0.022": 0.0,
			"0.023": 0.0,
			"0.024": 0.0,
			"0.025": 0.0
		}
	}
}
