{
	 "smiles": "OC(=O)CCC(=O)C1=C(Cl)C=CC(Cl)=C1", 
	 "Tm": 371.15, 
	 "num_atms": 23, 
	 "gaussian": { 
		 "optdone": 1, 
		 "sigma_profile": "yes", 
		 "theory": "DFT", 
		 "functional": "B3LYP", 
		 "basiset": "6-31G**", 
		 "properties": { 
			 "R2extent": 6452.9051, 
			 "electric_dipole_moment_norm": 4.10863300138, 
			 "electric_quadrupole_moment_norm": 15.0958700349, 
			 "total_energy": -1531.95303362, 
			 "HOMO_LUMO_gap": 0.18215, 
			 "cosmo_polarized_energy": -13.82, 
			 "cosmo_cavitation_energy": 31.49, 
			 "cosmo_dispersion_energy": -22.79, 
			 "cosmo_repulsion_energy": 1.81, 
			 "cosmo_total_nonelectrostatic_energy": 10.5, 
			 "SMD_solvation_energy": 6.25 
		},
		"coords": [
			{
				"x": -0.7595535215,
				"y": -3.2677588723,
				"z": 3.0299872189,
				"element": "O" 
			},
			{
				"x": -2.0324579506,
				"y": -3.225935445,
				"z": 2.5577444567,
				"element": "C" 
			},
			{
				"x": -2.8094581248,
				"y": -4.1402968149,
				"z": 2.7062677706,
				"element": "O" 
			},
			{
				"x": -2.3666678578,
				"y": -1.9019730615,
				"z": 1.8987830737,
				"element": "C" 
			},
			{
				"x": -1.1776105947,
				"y": -1.1083618827,
				"z": 1.3542583517,
				"element": "C" 
			},
			{
				"x": -0.4568332657,
				"y": -1.8538393672,
				"z": 0.2423429448,
				"element": "C" 
			},
			{
				"x": -0.9304763305,
				"y": -2.8933942632,
				"z": -0.1892794032,
				"element": "O" 
			},
			{
				"x": 0.8658489264,
				"y": -1.3749121972,
				"z": -0.3313699146,
				"element": "C" 
			},
			{
				"x": 1.4985181225,
				"y": -0.1264797742,
				"z": -0.1785685066,
				"element": "C" 
			},
			{
				"x": 0.8101631161,
				"y": 1.2149919637,
				"z": 0.7299505024,
				"element": "Cl" 
			},
			{
				"x": 2.7330334265,
				"y": 0.1346600445,
				"z": -0.7807556049,
				"element": "C" 
			},
			{
				"x": 3.3707455989,
				"y": -0.8363902713,
				"z": -1.5438535659,
				"element": "C" 
			},
			{
				"x": 2.7521232252,
				"y": -2.0762304101,
				"z": -1.7087496228,
				"element": "C" 
			},
			{
				"x": 3.5375585525,
				"y": -3.3135164136,
				"z": -2.6712264757,
				"element": "Cl" 
			},
			{
				"x": 1.525190097,
				"y": -2.3380517158,
				"z": -1.1197529314,
				"element": "C" 
			},
			{
				"x": -0.6578494026,
				"y": -4.1431760716,
				"z": 3.4397321488,
				"element": "H" 
			},
			{
				"x": -2.8831044263,
				"y": -1.2962490457,
				"z": 2.6538699528,
				"element": "H" 
			},
			{
				"x": -3.0924852468,
				"y": -2.1223259377,
				"z": 1.1141106029,
				"element": "H" 
			},
			{
				"x": -0.4664884845,
				"y": -0.8661711763,
				"z": 2.1493803233,
				"element": "H" 
			},
			{
				"x": -1.5269698901,
				"y": -0.1465299571,
				"z": 0.9632477609,
				"element": "H" 
			},
			{
				"x": 3.1902773522,
				"y": 1.1085689028,
				"z": -0.6483321856,
				"element": "H" 
			},
			{
				"x": 4.3305277354,
				"y": -0.6323945201,
				"z": -2.005105508,
				"element": "H" 
			},
			{
				"x": 1.0347689431,
				"y": -3.2950337137,
				"z": -1.2505813888,
				"element": "H" 
			}
		],
		 "valence_orbital": [ 
			{
				"type": "occ",
				"energy": -0.31519,
				"method": "rhf"
			},
			{
				"type": "occ",
				"energy": -0.28627,
				"method": "rhf"
			},
			{
				"type": "occ",
				"energy": -0.27128,
				"method": "rhf"
			},
			{
				"type": "occ",
				"energy": -0.27057,
				"method": "rhf"
			},
			{
				"type": "occ",
				"energy": -0.25943,
				"method": "rhf"
			},
			{
				"type": "unocc",
				"energy": -0.07728,
				"method": "rhf"
			},
			{
				"type": "unocc",
				"energy": -0.03579,
				"method": "rhf"
			},
			{
				"type": "unocc",
				"energy": 0.00319,
				"method": "rhf"
			},
			{
				"type": "unocc",
				"energy": 0.01332,
				"method": "rhf"
			},
			{
				"type": "unocc",
				"energy": 0.01474,
				"method": "rhf"
			}
		],
		"cosmo_sigma_profile": { 
			"-0.025": 0.0,
			"-0.024": 0.0,
			"-0.023": 0.0,
			"-0.022": 0.0,
			"-0.021": 0.0,
			"-0.02": 0.0,
			"-0.019": 0.0121100252544,
			"-0.018": 0.582129842125,
			"-0.017": 1.13541388297,
			"-0.016": 0.670926645792,
			"-0.015": 0.976006057735,
			"-0.014": 0.62836018177,
			"-0.013": 0.419298054351,
			"-0.012": 0.135594688628,
			"-0.011": 1.2907182305,
			"-0.01": 0.482135243308,
			"-0.009": 1.55517162496,
			"-0.008": 4.83354680793,
			"-0.007": 9.89581141502,
			"-0.006": 11.3715053899,
			"-0.005": 14.7727651162,
			"-0.004": 14.2081502181,
			"-0.003": 14.6538294089,
			"-0.002": 17.274186618,
			"-0.001": 18.3755174922,
			"0.0": 30.3256890992,
			"0.001": 24.4653608104,
			"0.002": 14.2860998433,
			"0.003": 17.1324524303,
			"0.004": 17.9800088922,
			"0.005": 5.66715534037,
			"0.006": 4.32787819434,
			"0.007": 4.63892516023,
			"0.008": 3.75838174579,
			"0.009": 3.81836077653,
			"0.01": 4.29493177793,
			"0.011": 5.22130911559,
			"0.012": 5.12902955405,
			"0.013": 1.34950760309,
			"0.014": 0.0,
			"0.015": 0.0,
			"0.016": 0.0,
			"0.017": 0.0,
			"0.018": 0.0,
			"0.019": 0.0,
			"0.02": 0.0,
			"0.021": 0.0,
			"0.022": 0.0,
			"0.023": 0.0,
			"0.024": 0.0,
			"0.025": 0.0
		}
	}
}
