{
	 "smiles": "BrC1=CC=C(C=C1)N1CCCC1", 
	 "Tm": 379.15, 
	 "num_atms": 24, 
	 "gaussian": { 
		 "optdone": 1, 
		 "sigma_profile": "yes", 
		 "theory": "DFT", 
		 "functional": "B3LYP", 
		 "basiset": "6-31G**", 
		 "properties": { 
			 "R2extent": 9451.9127, 
			 "electric_dipole_moment_norm": 4.65457164517, 
			 "electric_quadrupole_moment_norm": 18.64341276, 
			 "total_energy": -3014.45476277, 
			 "HOMO_LUMO_gap": 0.18489, 
			 "cosmo_polarized_energy": -5.91, 
			 "cosmo_cavitation_energy": 28.13, 
			 "cosmo_dispersion_energy": -21.59, 
			 "cosmo_repulsion_energy": 1.72, 
			 "cosmo_total_nonelectrostatic_energy": 8.25, 
			 "SMD_solvation_energy": 2.27 
		},
		"coords": [
			{
				"x": 3.2714327704,
				"y": -1.9845602178,
				"z": 5.6131573878,
				"element": "Br" 
			},
			{
				"x": 2.7336686929,
				"y": -0.9460298802,
				"z": 4.0966343527,
				"element": "C" 
			},
			{
				"x": 3.5530033554,
				"y": -0.8816944406,
				"z": 2.9718797216,
				"element": "C" 
			},
			{
				"x": 3.163561045,
				"y": -0.1289884212,
				"z": 1.8680458292,
				"element": "C" 
			},
			{
				"x": 1.941681812,
				"y": 0.5828664313,
				"z": 1.8639083184,
				"element": "C" 
			},
			{
				"x": 1.1313156861,
				"y": 0.5003493306,
				"z": 3.0198708476,
				"element": "C" 
			},
			{
				"x": 1.5236850317,
				"y": -0.256176399,
				"z": 4.120035159,
				"element": "C" 
			},
			{
				"x": 1.554768189,
				"y": 1.3296841057,
				"z": 0.7733111382,
				"element": "N" 
			},
			{
				"x": 0.2556536394,
				"y": 1.988773774,
				"z": 0.6641537787,
				"element": "C" 
			},
			{
				"x": 0.1916725674,
				"y": 2.4222926514,
				"z": -0.8081607218,
				"element": "C" 
			},
			{
				"x": 1.666843894,
				"y": 2.6552217926,
				"z": -1.1717068034,
				"element": "C" 
			},
			{
				"x": 2.3995999476,
				"y": 1.5486792596,
				"z": -0.3981848195,
				"element": "C" 
			},
			{
				"x": 4.49348919,
				"y": -1.4214222801,
				"z": 2.9521054686,
				"element": "H" 
			},
			{
				"x": 3.8112546676,
				"y": -0.1048051424,
				"z": 0.9992880928,
				"element": "H" 
			},
			{
				"x": 0.1919921212,
				"y": 1.0391631418,
				"z": 3.0665078516,
				"element": "H" 
			},
			{
				"x": 0.8872200707,
				"y": -0.3033678096,
				"z": 4.996890106,
				"element": "H" 
			},
			{
				"x": 0.1860335557,
				"y": 2.8554543185,
				"z": 1.341541831,
				"element": "H" 
			},
			{
				"x": -0.5593628013,
				"y": 1.3030176242,
				"z": 0.9277253854,
				"element": "H" 
			},
			{
				"x": -0.4352969809,
				"y": 3.3054704601,
				"z": -0.9566585162,
				"element": "H" 
			},
			{
				"x": -0.2227144697,
				"y": 1.610768597,
				"z": -1.4167801298,
				"element": "H" 
			},
			{
				"x": 1.8597433937,
				"y": 2.6112344621,
				"z": -2.2468836654,
				"element": "H" 
			},
			{
				"x": 1.992710234,
				"y": 3.6378148502,
				"z": -0.8125115914,
				"element": "H" 
			},
			{
				"x": 3.4123013059,
				"y": 1.8523338822,
				"z": -0.1045703166,
				"element": "H" 
			},
			{
				"x": 2.4951430823,
				"y": 0.6318199094,
				"z": -1.0023987045,
				"element": "H" 
			}
		],
		 "valence_orbital": [ 
			{
				"type": "occ",
				"energy": -0.31223,
				"method": "rhf"
			},
			{
				"type": "occ",
				"energy": -0.2727,
				"method": "rhf"
			},
			{
				"type": "occ",
				"energy": -0.26022,
				"method": "rhf"
			},
			{
				"type": "occ",
				"energy": -0.25041,
				"method": "rhf"
			},
			{
				"type": "occ",
				"energy": -0.18574,
				"method": "rhf"
			},
			{
				"type": "unocc",
				"energy": -0.00085,
				"method": "rhf"
			},
			{
				"type": "unocc",
				"energy": 0.01444,
				"method": "rhf"
			},
			{
				"type": "unocc",
				"energy": 0.02209,
				"method": "rhf"
			},
			{
				"type": "unocc",
				"energy": 0.07524,
				"method": "rhf"
			},
			{
				"type": "unocc",
				"energy": 0.10737,
				"method": "rhf"
			}
		],
		"cosmo_sigma_profile": { 
			"-0.025": 0.0,
			"-0.024": 0.0,
			"-0.023": 0.0,
			"-0.022": 0.0,
			"-0.021": 0.0,
			"-0.02": 0.0,
			"-0.019": 0.0,
			"-0.018": 0.0,
			"-0.017": 0.0,
			"-0.016": 0.0,
			"-0.015": 0.0,
			"-0.014": 0.0,
			"-0.013": 0.0,
			"-0.012": 0.0,
			"-0.011": 0.0,
			"-0.01": 0.0,
			"-0.009": 0.0,
			"-0.008": 0.0,
			"-0.007": 0.246120624963,
			"-0.006": 4.47663231448,
			"-0.005": 9.20073765799,
			"-0.004": 19.7254332474,
			"-0.003": 30.5571308968,
			"-0.002": 32.9840662923,
			"-0.001": 22.6920076532,
			"0.0": 16.7878752098,
			"0.001": 11.4039218009,
			"0.002": 10.935475129,
			"0.003": 12.9332106196,
			"0.004": 19.2556407301,
			"0.005": 22.6298254886,
			"0.006": 11.5975083509,
			"0.007": 0.000223245934597,
			"0.008": 0.0,
			"0.009": 0.0,
			"0.01": 0.0,
			"0.011": 0.0,
			"0.012": 0.0,
			"0.013": 0.0,
			"0.014": 0.0,
			"0.015": 0.0,
			"0.016": 0.0,
			"0.017": 0.0,
			"0.018": 0.0,
			"0.019": 0.0,
			"0.02": 0.0,
			"0.021": 0.0,
			"0.022": 0.0,
			"0.023": 0.0,
			"0.024": 0.0,
			"0.025": 0.0
		}
	}
}
