{
	 "smiles": "CCN(CC)C1=NC2=CC=CC=C2C(=O)N1C1=CC=CC=C1", 
	 "Tm": 382.15, 
	 "num_atms": 41, 
	 "gaussian": { 
		 "optdone": 1, 
		 "sigma_profile": "yes", 
		 "theory": "DFT", 
		 "functional": "B3LYP", 
		 "basiset": "6-31G**", 
		 "properties": { 
			 "R2extent": 6727.7556, 
			 "electric_dipole_moment_norm": 3.06074392918, 
			 "electric_quadrupole_moment_norm": 11.8561184706, 
			 "total_energy": -936.875010113, 
			 "HOMO_LUMO_gap": 0.17076, 
			 "cosmo_polarized_energy": -12.07, 
			 "cosmo_cavitation_energy": 42.42, 
			 "cosmo_dispersion_energy": -28.81, 
			 "cosmo_repulsion_energy": 2.18, 
			 "cosmo_total_nonelectrostatic_energy": 15.8, 
			 "SMD_solvation_energy": 6.9 
		},
		"coords": [
			{
				"x": 1.0966043519,
				"y": -3.514305749,
				"z": -0.5380922523,
				"element": "C" 
			},
			{
				"x": -0.142433836,
				"y": -2.628043822,
				"z": -0.4215169646,
				"element": "C" 
			},
			{
				"x": 0.0512278485,
				"y": -1.4598985312,
				"z": 0.4686613247,
				"element": "N" 
			},
			{
				"x": -0.0564327635,
				"y": -1.7901921636,
				"z": 1.9029550992,
				"element": "C" 
			},
			{
				"x": 0.8499607992,
				"y": -0.9311897678,
				"z": 2.7823529587,
				"element": "C" 
			},
			{
				"x": -0.5287774583,
				"y": -0.2529796698,
				"z": 0.0880708004,
				"element": "C" 
			},
			{
				"x": -1.3491128069,
				"y": 0.3492884769,
				"z": 0.8968523056,
				"element": "N" 
			},
			{
				"x": -1.9160255128,
				"y": 1.5467408362,
				"z": 0.5120940718,
				"element": "C" 
			},
			{
				"x": -2.7592758913,
				"y": 2.2294301004,
				"z": 1.4132542182,
				"element": "C" 
			},
			{
				"x": -3.3814748165,
				"y": 3.4070449326,
				"z": 1.0289882974,
				"element": "C" 
			},
			{
				"x": -3.1866931707,
				"y": 3.9389592531,
				"z": -0.259444845,
				"element": "C" 
			},
			{
				"x": -2.3588914089,
				"y": 3.2813092366,
				"z": -1.1558332028,
				"element": "C" 
			},
			{
				"x": -1.7212984957,
				"y": 2.0887343273,
				"z": -0.7756939537,
				"element": "C" 
			},
			{
				"x": -0.8015036868,
				"y": 1.4256740677,
				"z": -1.7006779094,
				"element": "C" 
			},
			{
				"x": -0.5363383369,
				"y": 1.8222796158,
				"z": -2.8259196125,
				"element": "O" 
			},
			{
				"x": -0.1593954838,
				"y": 0.2664704544,
				"z": -1.1650122903,
				"element": "N" 
			},
			{
				"x": 1.0119662211,
				"y": -0.193380886,
				"z": -1.8756409836,
				"element": "C" 
			},
			{
				"x": 2.268870479,
				"y": -0.0707904969,
				"z": -1.2777501505,
				"element": "C" 
			},
			{
				"x": 3.4087491622,
				"y": -0.4764951297,
				"z": -1.9719732327,
				"element": "C" 
			},
			{
				"x": 3.2973391195,
				"y": -0.9915609421,
				"z": -3.2654010227,
				"element": "C" 
			},
			{
				"x": 2.0404038292,
				"y": -1.0963424983,
				"z": -3.8639604754,
				"element": "C" 
			},
			{
				"x": 0.8962171681,
				"y": -0.695980588,
				"z": -3.1733617265,
				"element": "C" 
			},
			{
				"x": 0.8754969338,
				"y": -4.3780413802,
				"z": -1.1739475083,
				"element": "H" 
			},
			{
				"x": 1.9298905625,
				"y": -2.962540022,
				"z": -0.9785690575,
				"element": "H" 
			},
			{
				"x": 1.4161382182,
				"y": -3.8967017229,
				"z": 0.4365165988,
				"element": "H" 
			},
			{
				"x": -0.429032572,
				"y": -2.2711274544,
				"z": -1.4106511377,
				"element": "H" 
			},
			{
				"x": -0.9949558243,
				"y": -3.2139100221,
				"z": -0.0443988552,
				"element": "H" 
			},
			{
				"x": 0.2391249975,
				"y": -2.8381693244,
				"z": 1.9985807969,
				"element": "H" 
			},
			{
				"x": -1.0988287387,
				"y": -1.7050724492,
				"z": 2.2333433327,
				"element": "H" 
			},
			{
				"x": 0.5629389845,
				"y": 0.1212471386,
				"z": 2.7289214326,
				"element": "H" 
			},
			{
				"x": 1.8965036217,
				"y": -1.028758434,
				"z": 2.4768570011,
				"element": "H" 
			},
			{
				"x": 0.7664298989,
				"y": -1.2500955703,
				"z": 3.8266370528,
				"element": "H" 
			},
			{
				"x": -2.9077510235,
				"y": 1.8026027795,
				"z": 2.3998213732,
				"element": "H" 
			},
			{
				"x": -4.0299961437,
				"y": 3.9242440353,
				"z": 1.7309361285,
				"element": "H" 
			},
			{
				"x": -3.6829702921,
				"y": 4.8605062917,
				"z": -0.5476984835,
				"element": "H" 
			},
			{
				"x": -2.1781247979,
				"y": 3.6635690824,
				"z": -2.1550039052,
				"element": "H" 
			},
			{
				"x": 2.3478903714,
				"y": 0.3356783572,
				"z": -0.2752934372,
				"element": "H" 
			},
			{
				"x": 4.3839653055,
				"y": -0.3814195243,
				"z": -1.5036610915,
				"element": "H" 
			},
			{
				"x": 4.1861725839,
				"y": -1.3028765266,
				"z": -3.8061824051,
				"element": "H" 
			},
			{
				"x": 1.9475784385,
				"y": -1.4841618364,
				"z": -4.8739658937,
				"element": "H" 
			},
			{
				"x": -0.0807558347,
				"y": -0.7560444746,
				"z": -3.6387923955,
				"element": "H" 
			}
		],
		 "valence_orbital": [ 
			{
				"type": "occ",
				"energy": -0.26027,
				"method": "rhf"
			},
			{
				"type": "occ",
				"energy": -0.25203,
				"method": "rhf"
			},
			{
				"type": "occ",
				"energy": -0.24985,
				"method": "rhf"
			},
			{
				"type": "occ",
				"energy": -0.23696,
				"method": "rhf"
			},
			{
				"type": "occ",
				"energy": -0.20841,
				"method": "rhf"
			},
			{
				"type": "unocc",
				"energy": -0.03765,
				"method": "rhf"
			},
			{
				"type": "unocc",
				"energy": -0.02305,
				"method": "rhf"
			},
			{
				"type": "unocc",
				"energy": -0.0079,
				"method": "rhf"
			},
			{
				"type": "unocc",
				"energy": -0.00645,
				"method": "rhf"
			},
			{
				"type": "unocc",
				"energy": 0.03961,
				"method": "rhf"
			}
		],
		"cosmo_sigma_profile": { 
			"-0.025": 0.0,
			"-0.024": 0.0,
			"-0.023": 0.0,
			"-0.022": 0.0,
			"-0.021": 0.0,
			"-0.02": 0.0,
			"-0.019": 0.0,
			"-0.018": 0.0,
			"-0.017": 0.0,
			"-0.016": 0.0,
			"-0.015": 0.0,
			"-0.014": 0.0,
			"-0.013": 0.0,
			"-0.012": 0.0,
			"-0.011": 0.0,
			"-0.01": 0.0,
			"-0.009": 0.0,
			"-0.008": 0.0,
			"-0.007": 1.15787361106,
			"-0.006": 14.4425140088,
			"-0.005": 24.1774988701,
			"-0.004": 32.616891898,
			"-0.003": 32.9659722152,
			"-0.002": 35.361808404,
			"-0.001": 29.8603067195,
			"0.0": 27.5352947234,
			"0.001": 31.5798943964,
			"0.002": 25.0343561106,
			"0.003": 24.4205875334,
			"0.004": 19.746218824,
			"0.005": 10.0686164219,
			"0.006": 4.50640725235,
			"0.007": 4.15725269129,
			"0.008": 2.71341500247,
			"0.009": 2.71540404312,
			"0.01": 3.13501687341,
			"0.011": 3.15839543143,
			"0.012": 3.68774382397,
			"0.013": 3.94161574623,
			"0.014": 0.0175457973738,
			"0.015": 0.0,
			"0.016": 0.0,
			"0.017": 0.0,
			"0.018": 0.0,
			"0.019": 0.0,
			"0.02": 0.0,
			"0.021": 0.0,
			"0.022": 0.0,
			"0.023": 0.0,
			"0.024": 0.0,
			"0.025": 0.0
		}
	}
}
