{
	 "smiles": "COC(=O)C1(CC2=CC=C(C)C=C2C(=O)O1)C(=O)OC", 
	 "Tm": 393.15, 
	 "num_atms": 34, 
	 "gaussian": { 
		 "optdone": 1, 
		 "sigma_profile": "yes", 
		 "theory": "DFT", 
		 "functional": "B3LYP", 
		 "basiset": "6-31G**", 
		 "properties": { 
			 "R2extent": 5742.8513, 
			 "electric_dipole_moment_norm": 2.99274144556, 
			 "electric_quadrupole_moment_norm": 26.9961418951, 
			 "total_energy": -993.294202783, 
			 "HOMO_LUMO_gap": 0.1985, 
			 "cosmo_polarized_energy": -16.53, 
			 "cosmo_cavitation_energy": 38.7, 
			 "cosmo_dispersion_energy": -26.15, 
			 "cosmo_repulsion_energy": 2.05, 
			 "cosmo_total_nonelectrostatic_energy": 14.6, 
			 "SMD_solvation_energy": 10.32 
		},
		"coords": [
			{
				"x": -5.0660722141,
				"y": 1.2642148934,
				"z": 0.2585029931,
				"element": "C" 
			},
			{
				"x": -3.6321845337,
				"y": 1.239036764,
				"z": 0.1197247142,
				"element": "O" 
			},
			{
				"x": -3.0802094171,
				"y": 0.0220555117,
				"z": 0.0479148496,
				"element": "C" 
			},
			{
				"x": -3.6870331024,
				"y": -1.0214326185,
				"z": 0.107679065,
				"element": "O" 
			},
			{
				"x": -1.5504976098,
				"y": 0.1304092479,
				"z": -0.1560553155,
				"element": "C" 
			},
			{
				"x": -0.8882455508,
				"y": -1.2359494249,
				"z": 0.0324682262,
				"element": "C" 
			},
			{
				"x": 0.5344851592,
				"y": -1.1843838923,
				"z": -0.4609580257,
				"element": "C" 
			},
			{
				"x": 1.5510570878,
				"y": -1.9820341497,
				"z": 0.0724376401,
				"element": "C" 
			},
			{
				"x": 2.8439118312,
				"y": -1.9162277936,
				"z": -0.441290346,
				"element": "C" 
			},
			{
				"x": 3.1680847966,
				"y": -1.0548315523,
				"z": -1.5036244207,
				"element": "C" 
			},
			{
				"x": 4.5773092821,
				"y": -0.9929168048,
				"z": -2.0439585872,
				"element": "C" 
			},
			{
				"x": 2.1511623914,
				"y": -0.2613889549,
				"z": -2.033789561,
				"element": "C" 
			},
			{
				"x": 0.8494590004,
				"y": -0.3182277495,
				"z": -1.5182013762,
				"element": "C" 
			},
			{
				"x": -0.1986130293,
				"y": 0.5299278789,
				"z": -2.14510253,
				"element": "C" 
			},
			{
				"x": -0.0671814757,
				"y": 1.1206001556,
				"z": -3.1903996793,
				"element": "O" 
			},
			{
				"x": -1.4107782808,
				"y": 0.6118204722,
				"z": -1.5001664904,
				"element": "O" 
			},
			{
				"x": -0.9964702478,
				"y": 1.1262021295,
				"z": 0.8845630659,
				"element": "C" 
			},
			{
				"x": -1.0848380708,
				"y": 0.9127300026,
				"z": 2.0747281082,
				"element": "O" 
			},
			{
				"x": -0.4212117195,
				"y": 2.1979522874,
				"z": 0.335037241,
				"element": "O" 
			},
			{
				"x": 0.1145544707,
				"y": 3.1563239772,
				"z": 1.2678942556,
				"element": "C" 
			},
			{
				"x": -5.3359892787,
				"y": 2.3184609119,
				"z": 0.301843315,
				"element": "H" 
			},
			{
				"x": -5.3674597209,
				"y": 0.7484573473,
				"z": 1.1730383337,
				"element": "H" 
			},
			{
				"x": -5.5372031358,
				"y": 0.7801250115,
				"z": -0.5998208588,
				"element": "H" 
			},
			{
				"x": -1.4777376756,
				"y": -1.9747042082,
				"z": -0.5218497972,
				"element": "H" 
			},
			{
				"x": -0.9398579987,
				"y": -1.5082438844,
				"z": 1.0892205639,
				"element": "H" 
			},
			{
				"x": 1.3277524819,
				"y": -2.6565886981,
				"z": 0.894691032,
				"element": "H" 
			},
			{
				"x": 3.6199470784,
				"y": -2.5440260886,
				"z": -0.0095591359,
				"element": "H" 
			},
			{
				"x": 5.2723711189,
				"y": -0.5916478023,
				"z": -1.2969344878,
				"element": "H" 
			},
			{
				"x": 4.9420379416,
				"y": -1.9881751175,
				"z": -2.3208930626,
				"element": "H" 
			},
			{
				"x": 4.6358747605,
				"y": -0.3550015472,
				"z": -2.9295076189,
				"element": "H" 
			},
			{
				"x": 2.3446431842,
				"y": 0.4146431625,
				"z": -2.860803189,
				"element": "H" 
			},
			{
				"x": -0.6809361845,
				"y": 3.5458394996,
				"z": 1.9070189917,
				"element": "H" 
			},
			{
				"x": 0.5422503929,
				"y": 3.9490832336,
				"z": 0.6558295878,
				"element": "H" 
			},
			{
				"x": 0.8803182682,
				"y": 2.6913977997,
				"z": 1.8930224991,
				"element": "H" 
			}
		],
		 "valence_orbital": [ 
			{
				"type": "occ",
				"energy": -0.29788,
				"method": "rhf"
			},
			{
				"type": "occ",
				"energy": -0.27418,
				"method": "rhf"
			},
			{
				"type": "occ",
				"energy": -0.27073,
				"method": "rhf"
			},
			{
				"type": "occ",
				"energy": -0.26178,
				"method": "rhf"
			},
			{
				"type": "occ",
				"energy": -0.24976,
				"method": "rhf"
			},
			{
				"type": "unocc",
				"energy": -0.05126,
				"method": "rhf"
			},
			{
				"type": "unocc",
				"energy": -0.02109,
				"method": "rhf"
			},
			{
				"type": "unocc",
				"energy": -0.00816,
				"method": "rhf"
			},
			{
				"type": "unocc",
				"energy": 0.00161,
				"method": "rhf"
			},
			{
				"type": "unocc",
				"energy": 0.04997,
				"method": "rhf"
			}
		],
		"cosmo_sigma_profile": { 
			"-0.025": 0.0,
			"-0.024": 0.0,
			"-0.023": 0.0,
			"-0.022": 0.0,
			"-0.021": 0.0,
			"-0.02": 0.0,
			"-0.019": 0.0,
			"-0.018": 0.0,
			"-0.017": 0.0,
			"-0.016": 0.0,
			"-0.015": 0.0,
			"-0.014": 0.0,
			"-0.013": 0.0,
			"-0.012": 0.0,
			"-0.011": 0.0,
			"-0.01": 0.0,
			"-0.009": 0.0,
			"-0.008": 0.382862766263,
			"-0.007": 11.2967075579,
			"-0.006": 24.7146492367,
			"-0.005": 27.8908768507,
			"-0.004": 35.535040409,
			"-0.003": 24.5883416117,
			"-0.002": 20.8654422647,
			"-0.001": 20.1201778468,
			"0.0": 21.5694610029,
			"0.001": 16.6068563598,
			"0.002": 17.8910330374,
			"0.003": 17.03293606,
			"0.004": 8.76578019234,
			"0.005": 6.89870854303,
			"0.006": 6.9911660765,
			"0.007": 7.46808511362,
			"0.008": 7.0156535512,
			"0.009": 6.72077743204,
			"0.01": 10.8517949077,
			"0.011": 10.3361793318,
			"0.012": 2.98203843736,
			"0.013": 0.520511787638,
			"0.014": 0.0,
			"0.015": 0.0,
			"0.016": 0.0,
			"0.017": 0.0,
			"0.018": 0.0,
			"0.019": 0.0,
			"0.02": 0.0,
			"0.021": 0.0,
			"0.022": 0.0,
			"0.023": 0.0,
			"0.024": 0.0,
			"0.025": 0.0
		}
	}
}
