{
	 "smiles": "CCOC(=O)C(=O)NC1=CC=CC=C1", 
	 "Tm": 339.35, 
	 "num_atms": 25, 
	 "gaussian": { 
		 "optdone": 1, 
		 "sigma_profile": "yes", 
		 "theory": "DFT", 
		 "functional": "B3LYP", 
		 "basiset": "6-31G**", 
		 "properties": { 
			 "R2extent": 3606.8527, 
			 "electric_dipole_moment_norm": 4.0356202361, 
			 "electric_quadrupole_moment_norm": 16.0297559036, 
			 "total_energy": -668.128792628, 
			 "HOMO_LUMO_gap": 0.21322, 
			 "cosmo_polarized_energy": -13.33, 
			 "cosmo_cavitation_energy": 30.02, 
			 "cosmo_dispersion_energy": -20.9, 
			 "cosmo_repulsion_energy": 1.7, 
			 "cosmo_total_nonelectrostatic_energy": 10.82, 
			 "SMD_solvation_energy": 6.92 
		},
		"coords": [
			{
				"x": 1.3015693369,
				"y": 0.6371500114,
				"z": -3.210109863,
				"element": "C" 
			},
			{
				"x": 0.515247418,
				"y": 0.7747522987,
				"z": -1.9165672921,
				"element": "C" 
			},
			{
				"x": 1.0910322666,
				"y": -0.050569878,
				"z": -0.8651381785,
				"element": "O" 
			},
			{
				"x": 0.7045475888,
				"y": -1.3319866432,
				"z": -0.8295112641,
				"element": "C" 
			},
			{
				"x": -0.0942284304,
				"y": -1.8568204902,
				"z": -1.5741069532,
				"element": "O" 
			},
			{
				"x": 1.5076093888,
				"y": -2.0964816872,
				"z": 0.2304987251,
				"element": "C" 
			},
			{
				"x": 2.5380076936,
				"y": -2.6563802694,
				"z": -0.1073941348,
				"element": "O" 
			},
			{
				"x": 1.0346244663,
				"y": -2.1206823844,
				"z": 1.5150647642,
				"element": "N" 
			},
			{
				"x": -0.1292269625,
				"y": -1.5215536337,
				"z": 2.0652735092,
				"element": "C" 
			},
			{
				"x": -1.3695713727,
				"y": -1.5950460819,
				"z": 1.4181787062,
				"element": "C" 
			},
			{
				"x": -2.4881864029,
				"y": -1.0003458921,
				"z": 2.0038764128,
				"element": "C" 
			},
			{
				"x": -2.3918688512,
				"y": -0.3661145128,
				"z": 3.2428950471,
				"element": "C" 
			},
			{
				"x": -1.159264744,
				"y": -0.3207223267,
				"z": 3.8985073616,
				"element": "C" 
			},
			{
				"x": -0.0300234392,
				"y": -0.8866273299,
				"z": 3.3109193591,
				"element": "C" 
			},
			{
				"x": 0.8967027714,
				"y": 1.323001115,
				"z": -3.9616905197,
				"element": "H" 
			},
			{
				"x": 1.2283183595,
				"y": -0.3810118599,
				"z": -3.5996272741,
				"element": "H" 
			},
			{
				"x": 2.3559092871,
				"y": 0.8808864478,
				"z": -3.0526860973,
				"element": "H" 
			},
			{
				"x": 0.5668168507,
				"y": 1.7888678145,
				"z": -1.5152548652,
				"element": "H" 
			},
			{
				"x": -0.530125723,
				"y": 0.4877192801,
				"z": -2.0507154411,
				"element": "H" 
			},
			{
				"x": 1.6795002294,
				"y": -2.5687421617,
				"z": 2.1561676256,
				"element": "H" 
			},
			{
				"x": -1.4590500625,
				"y": -2.1226528627,
				"z": 0.4757967394,
				"element": "H" 
			},
			{
				"x": -3.4453552175,
				"y": -1.0565987484,
				"z": 1.4937720435,
				"element": "H" 
			},
			{
				"x": -3.2697643428,
				"y": 0.0819799666,
				"z": 3.6981058368,
				"element": "H" 
			},
			{
				"x": -1.0721724259,
				"y": 0.1658258572,
				"z": 4.8655485442,
				"element": "H" 
			},
			{
				"x": 0.9346523174,
				"y": -0.8319460293,
				"z": 3.8079972084,
				"element": "H" 
			}
		],
		 "valence_orbital": [ 
			{
				"type": "occ",
				"energy": -0.3054,
				"method": "rhf"
			},
			{
				"type": "occ",
				"energy": -0.30168,
				"method": "rhf"
			},
			{
				"type": "occ",
				"energy": -0.2634,
				"method": "rhf"
			},
			{
				"type": "occ",
				"energy": -0.25537,
				"method": "rhf"
			},
			{
				"type": "occ",
				"energy": -0.23645,
				"method": "rhf"
			},
			{
				"type": "unocc",
				"energy": -0.02323,
				"method": "rhf"
			},
			{
				"type": "unocc",
				"energy": -0.01729,
				"method": "rhf"
			},
			{
				"type": "unocc",
				"energy": 0.00304,
				"method": "rhf"
			},
			{
				"type": "unocc",
				"energy": 0.0194,
				"method": "rhf"
			},
			{
				"type": "unocc",
				"energy": 0.08374,
				"method": "rhf"
			}
		],
		"cosmo_sigma_profile": { 
			"-0.025": 0.0,
			"-0.024": 0.0,
			"-0.023": 0.0,
			"-0.022": 0.0,
			"-0.021": 0.0,
			"-0.02": 0.0,
			"-0.019": 0.0,
			"-0.018": 0.0,
			"-0.017": 0.0,
			"-0.016": 0.0953147990765,
			"-0.015": 1.06599923358,
			"-0.014": 1.32865835404,
			"-0.013": 1.11314450625,
			"-0.012": 0.929099652736,
			"-0.011": 0.996494489091,
			"-0.01": 1.39951159428,
			"-0.009": 0.981150129773,
			"-0.008": 1.20380543818,
			"-0.007": 3.5113935221,
			"-0.006": 12.3828180766,
			"-0.005": 17.2897313009,
			"-0.004": 23.9167953408,
			"-0.003": 19.8524340526,
			"-0.002": 16.5504122366,
			"-0.001": 19.1971766199,
			"0.0": 19.478136899,
			"0.001": 13.8096604435,
			"0.002": 12.4288917502,
			"0.003": 14.1331200009,
			"0.004": 13.7164781253,
			"0.005": 11.5030923199,
			"0.006": 4.42976452348,
			"0.007": 3.26552395229,
			"0.008": 3.32761837316,
			"0.009": 2.46189778278,
			"0.01": 5.32835946259,
			"0.011": 6.35609053505,
			"0.012": 5.60257571935,
			"0.013": 1.04245255199,
			"0.014": 0.0,
			"0.015": 0.0,
			"0.016": 0.0,
			"0.017": 0.0,
			"0.018": 0.0,
			"0.019": 0.0,
			"0.02": 0.0,
			"0.021": 0.0,
			"0.022": 0.0,
			"0.023": 0.0,
			"0.024": 0.0,
			"0.025": 0.0
		}
	}
}
