{
	 "smiles": "COC1=CC=C(OCC(O)CN)C=C1", 
	 "Tm": 384.15, 
	 "num_atms": 29, 
	 "gaussian": { 
		 "optdone": 1, 
		 "sigma_profile": "yes", 
		 "theory": "DFT", 
		 "functional": "B3LYP", 
		 "basiset": "6-31G**", 
		 "properties": { 
			 "R2extent": 4637.4271, 
			 "electric_dipole_moment_norm": 2.39314992844, 
			 "electric_quadrupole_moment_norm": 12.6044542754, 
			 "total_energy": -670.4919357, 
			 "HOMO_LUMO_gap": 0.19773, 
			 "cosmo_polarized_energy": -13.13, 
			 "cosmo_cavitation_energy": 32.08, 
			 "cosmo_dispersion_energy": -23.15, 
			 "cosmo_repulsion_energy": 1.86, 
			 "cosmo_total_nonelectrostatic_energy": 10.78, 
			 "SMD_solvation_energy": 5.11 
		},
		"coords": [
			{
				"x": -1.4223581497,
				"y": -4.7214041832,
				"z": -0.9409678734,
				"element": "C" 
			},
			{
				"x": -1.6039426,
				"y": -3.6221149955,
				"z": -1.8154958991,
				"element": "O" 
			},
			{
				"x": -1.2034044281,
				"y": -2.3862129322,
				"z": -1.3836835908,
				"element": "C" 
			},
			{
				"x": -0.6302431206,
				"y": -2.1190949284,
				"z": -0.1399304203,
				"element": "C" 
			},
			{
				"x": -0.2554138162,
				"y": -0.8109172825,
				"z": 0.2005822238,
				"element": "C" 
			},
			{
				"x": -0.452633597,
				"y": 0.2329751072,
				"z": -0.7023018191,
				"element": "C" 
			},
			{
				"x": -0.1259127102,
				"y": 1.545005261,
				"z": -0.4646189647,
				"element": "O" 
			},
			{
				"x": 0.5049057917,
				"y": 1.8853860351,
				"z": 0.7719316338,
				"element": "C" 
			},
			{
				"x": 0.8160283018,
				"y": 3.3776605198,
				"z": 0.7098224245,
				"element": "C" 
			},
			{
				"x": 1.7163083622,
				"y": 3.6557056703,
				"z": -0.3546558896,
				"element": "O" 
			},
			{
				"x": -0.4414854363,
				"y": 4.2567008034,
				"z": 0.5942236303,
				"element": "C" 
			},
			{
				"x": -1.3716274742,
				"y": 4.0037726785,
				"z": 1.7012587336,
				"element": "N" 
			},
			{
				"x": -1.0301883589,
				"y": -0.0386577369,
				"z": -1.9529806445,
				"element": "C" 
			},
			{
				"x": -1.4007891966,
				"y": -1.3304553372,
				"z": -2.2891595626,
				"element": "C" 
			},
			{
				"x": -1.986635366,
				"y": -4.5962375232,
				"z": -0.0069638657,
				"element": "H" 
			},
			{
				"x": -0.3627202257,
				"y": -4.877238671,
				"z": -0.6976013249,
				"element": "H" 
			},
			{
				"x": -1.7996555467,
				"y": -5.5972342179,
				"z": -1.4715372004,
				"element": "H" 
			},
			{
				"x": -0.4650309554,
				"y": -2.9111778714,
				"z": 0.5807893516,
				"element": "H" 
			},
			{
				"x": 0.1859823617,
				"y": -0.6309295377,
				"z": 1.1735486248,
				"element": "H" 
			},
			{
				"x": -0.1536793289,
				"y": 1.661831411,
				"z": 1.6212065636,
				"element": "H" 
			},
			{
				"x": 1.4383914124,
				"y": 1.3189542868,
				"z": 0.886631783,
				"element": "H" 
			},
			{
				"x": 1.3349915885,
				"y": 3.6402596338,
				"z": 1.6385339349,
				"element": "H" 
			},
			{
				"x": 1.3436226928,
				"y": 3.2284854074,
				"z": -1.1394483799,
				"element": "H" 
			},
			{
				"x": -0.8816790981,
				"y": 4.1053477938,
				"z": -0.4042228553,
				"element": "H" 
			},
			{
				"x": -0.1088648162,
				"y": 5.2981299328,
				"z": 0.640474528,
				"element": "H" 
			},
			{
				"x": -1.9778760296,
				"y": 4.8068801526,
				"z": 1.8391608189,
				"element": "H" 
			},
			{
				"x": -1.9839291639,
				"y": 3.2259604244,
				"z": 1.4692952857,
				"element": "H" 
			},
			{
				"x": -1.179303076,
				"y": 0.7820258364,
				"z": -2.6474549308,
				"element": "H" 
			},
			{
				"x": -1.8472580168,
				"y": -1.5507057373,
				"z": -3.2533363155,
				"element": "H" 
			}
		],
		 "valence_orbital": [ 
			{
				"type": "occ",
				"energy": -0.28988,
				"method": "rhf"
			},
			{
				"type": "occ",
				"energy": -0.26844,
				"method": "rhf"
			},
			{
				"type": "occ",
				"energy": -0.25197,
				"method": "rhf"
			},
			{
				"type": "occ",
				"energy": -0.23445,
				"method": "rhf"
			},
			{
				"type": "occ",
				"energy": -0.20113,
				"method": "rhf"
			},
			{
				"type": "unocc",
				"energy": -0.0034,
				"method": "rhf"
			},
			{
				"type": "unocc",
				"energy": 0.02403,
				"method": "rhf"
			},
			{
				"type": "unocc",
				"energy": 0.07599,
				"method": "rhf"
			},
			{
				"type": "unocc",
				"energy": 0.08763,
				"method": "rhf"
			},
			{
				"type": "unocc",
				"energy": 0.09715,
				"method": "rhf"
			}
		],
		"cosmo_sigma_profile": { 
			"-0.025": 0.0,
			"-0.024": 0.0,
			"-0.023": 0.0,
			"-0.022": 0.0,
			"-0.021": 0.0,
			"-0.02": 0.0,
			"-0.019": 0.0,
			"-0.018": 0.0,
			"-0.017": 0.0,
			"-0.016": 0.0,
			"-0.015": 0.0,
			"-0.014": 0.0,
			"-0.013": 0.273524979205,
			"-0.012": 0.574976027363,
			"-0.011": 0.603670760621,
			"-0.01": 1.76988270691,
			"-0.009": 3.19364825624,
			"-0.008": 3.25689338917,
			"-0.007": 3.67659238534,
			"-0.006": 12.5897955399,
			"-0.005": 24.6748246063,
			"-0.004": 27.7800365679,
			"-0.003": 24.7032422247,
			"-0.002": 17.1530908332,
			"-0.001": 16.5995769958,
			"0.0": 13.9745452657,
			"0.001": 10.1446023951,
			"0.002": 11.2887865162,
			"0.003": 12.5064501419,
			"0.004": 14.9855513751,
			"0.005": 16.4623264239,
			"0.006": 8.81928153448,
			"0.007": 3.43658938318,
			"0.008": 3.49418683536,
			"0.009": 3.80665614086,
			"0.01": 2.98350703478,
			"0.011": 2.84674862986,
			"0.012": 1.45186933595,
			"0.013": 2.27467511082,
			"0.014": 2.79560040754,
			"0.015": 1.26070441088,
			"0.016": 0.684064077977,
			"0.017": 0.389096784697,
			"0.018": 0.432698100165,
			"0.019": 0.299258167758,
			"0.02": 0.0311338772339,
			"0.021": 0.0,
			"0.022": 0.0,
			"0.023": 0.0,
			"0.024": 0.0,
			"0.025": 0.0
		}
	}
}
