{
	 "smiles": "CN1CCN(C)C2=CC(=CC=C12)C#N", 
	 "Tm": 354.15, 
	 "num_atms": 27, 
	 "gaussian": { 
		 "optdone": 1, 
		 "sigma_profile": "yes", 
		 "theory": "DFT", 
		 "functional": "B3LYP", 
		 "basiset": "6-31G**", 
		 "properties": { 
			 "R2extent": 3181.4168, 
			 "electric_dipole_moment_norm": 7.96414650857, 
			 "electric_quadrupole_moment_norm": 27.790873994, 
			 "total_energy": -591.23980597, 
			 "HOMO_LUMO_gap": 0.16374, 
			 "cosmo_polarized_energy": -13.3, 
			 "cosmo_cavitation_energy": 29.54, 
			 "cosmo_dispersion_energy": -21.38, 
			 "cosmo_repulsion_energy": 1.65, 
			 "cosmo_total_nonelectrostatic_energy": 9.82, 
			 "SMD_solvation_energy": 4.67 
		},
		"coords": [
			{
				"x": -2.5885727116,
				"y": -0.8942077104,
				"z": 1.346468936,
				"element": "C" 
			},
			{
				"x": -1.6929109303,
				"y": -0.6855159618,
				"z": 0.2242758499,
				"element": "N" 
			},
			{
				"x": -2.1947633446,
				"y": 0.1027791939,
				"z": -0.8896792063,
				"element": "C" 
			},
			{
				"x": -1.3451482699,
				"y": -0.1617703153,
				"z": -2.1268717038,
				"element": "C" 
			},
			{
				"x": 0.0418069327,
				"y": 0.158531345,
				"z": -1.8342115426,
				"element": "N" 
			},
			{
				"x": 0.9179873563,
				"y": 0.3534027145,
				"z": -2.9742940933,
				"element": "C" 
			},
			{
				"x": 0.5701875159,
				"y": -0.3745976166,
				"z": -0.6513791562,
				"element": "C" 
			},
			{
				"x": 1.9443189227,
				"y": -0.5269450019,
				"z": -0.4645152597,
				"element": "C" 
			},
			{
				"x": 2.4768253325,
				"y": -0.9953683135,
				"z": 0.7529481235,
				"element": "C" 
			},
			{
				"x": 1.613380474,
				"y": -1.3308706296,
				"z": 1.7990311546,
				"element": "C" 
			},
			{
				"x": 0.2387848103,
				"y": -1.203388965,
				"z": 1.6213154876,
				"element": "C" 
			},
			{
				"x": -0.3161174818,
				"y": -0.7514832811,
				"z": 0.4128498833,
				"element": "C" 
			},
			{
				"x": 3.8929994611,
				"y": -1.1260806058,
				"z": 0.9044239877,
				"element": "C" 
			},
			{
				"x": 5.0466325752,
				"y": -1.2320161634,
				"z": 1.025301449,
				"element": "N" 
			},
			{
				"x": -2.4796150378,
				"y": -0.1317747962,
				"z": 2.1340550709,
				"element": "H" 
			},
			{
				"x": -3.6182616182,
				"y": -0.8658841655,
				"z": 0.9833052734,
				"element": "H" 
			},
			{
				"x": -2.4233753954,
				"y": -1.8776561036,
				"z": 1.7984892011,
				"element": "H" 
			},
			{
				"x": -3.2295660816,
				"y": -0.1954718557,
				"z": -1.0883642395,
				"element": "H" 
			},
			{
				"x": -2.1929060607,
				"y": 1.1826563284,
				"z": -0.6692283131,
				"element": "H" 
			},
			{
				"x": -1.4782127538,
				"y": -1.2091527211,
				"z": -2.4469497596,
				"element": "H" 
			},
			{
				"x": -1.6869545423,
				"y": 0.4819762494,
				"z": -2.9436337152,
				"element": "H" 
			},
			{
				"x": 0.3466161447,
				"y": 0.8214511749,
				"z": -3.7793947678,
				"element": "H" 
			},
			{
				"x": 1.7401983175,
				"y": 1.02831957,
				"z": -2.7168142047,
				"element": "H" 
			},
			{
				"x": 1.3515615893,
				"y": -0.5850767227,
				"z": -3.3574675438,
				"element": "H" 
			},
			{
				"x": 2.6315028673,
				"y": -0.2798850486,
				"z": -1.2626440828,
				"element": "H" 
			},
			{
				"x": 2.0109273373,
				"y": -1.6847381407,
				"z": 2.743658782,
				"element": "H" 
			},
			{
				"x": -0.4145254087,
				"y": -1.4617324576,
				"z": 2.4449243896,
				"element": "H" 
			}
		],
		 "valence_orbital": [ 
			{
				"type": "occ",
				"energy": -0.30895,
				"method": "rhf"
			},
			{
				"type": "occ",
				"energy": -0.2903,
				"method": "rhf"
			},
			{
				"type": "occ",
				"energy": -0.28212,
				"method": "rhf"
			},
			{
				"type": "occ",
				"energy": -0.22481,
				"method": "rhf"
			},
			{
				"type": "occ",
				"energy": -0.18518,
				"method": "rhf"
			},
			{
				"type": "unocc",
				"energy": -0.02144,
				"method": "rhf"
			},
			{
				"type": "unocc",
				"energy": 0.00396,
				"method": "rhf"
			},
			{
				"type": "unocc",
				"energy": 0.05725,
				"method": "rhf"
			},
			{
				"type": "unocc",
				"energy": 0.07186,
				"method": "rhf"
			},
			{
				"type": "unocc",
				"energy": 0.08994,
				"method": "rhf"
			}
		],
		"cosmo_sigma_profile": { 
			"-0.025": 0.0,
			"-0.024": 0.0,
			"-0.023": 0.0,
			"-0.022": 0.0,
			"-0.021": 0.0,
			"-0.02": 0.0,
			"-0.019": 0.0,
			"-0.018": 0.0,
			"-0.017": 0.0,
			"-0.016": 0.0,
			"-0.015": 0.0,
			"-0.014": 0.0,
			"-0.013": 0.0,
			"-0.012": 0.0,
			"-0.011": 0.0,
			"-0.01": 0.0,
			"-0.009": 0.0,
			"-0.008": 0.0,
			"-0.007": 2.11439714878,
			"-0.006": 14.5694588049,
			"-0.005": 18.3846547723,
			"-0.004": 25.3606849546,
			"-0.003": 28.8469966216,
			"-0.002": 31.4627114774,
			"-0.001": 17.4965228985,
			"0.0": 9.99336424064,
			"0.001": 10.3123739072,
			"0.002": 10.2254734167,
			"0.003": 10.795621355,
			"0.004": 11.7848604849,
			"0.005": 13.6154029385,
			"0.006": 4.25355590355,
			"0.007": 4.07625654706,
			"0.008": 3.10712248949,
			"0.009": 3.96944442121,
			"0.01": 3.28349597587,
			"0.011": 3.65063359341,
			"0.012": 2.70573165711,
			"0.013": 2.74494019503,
			"0.014": 1.68878326407,
			"0.015": 0.0415256830517,
			"0.016": 0.0,
			"0.017": 0.0,
			"0.018": 0.0,
			"0.019": 0.0,
			"0.02": 0.0,
			"0.021": 0.0,
			"0.022": 0.0,
			"0.023": 0.0,
			"0.024": 0.0,
			"0.025": 0.0
		}
	}
}
