{
	 "smiles": "CC12CCC3C(CC=C4CC(O)CCC34C)C1CC[C@@]2(O)C#C", 
	 "Tm": 521.15, 
	 "num_atms": 53, 
	 "gaussian": { 
		 "optdone": 1, 
		 "sigma_profile": "yes", 
		 "theory": "DFT", 
		 "functional": "B3LYP", 
		 "basiset": "6-31G**", 
		 "properties": { 
			 "R2extent": 8544.3317, 
			 "electric_dipole_moment_norm": 1.30058225807, 
			 "electric_quadrupole_moment_norm": 16.2461416583, 
			 "total_energy": -968.672670285, 
			 "HOMO_LUMO_gap": 0.25527, 
			 "cosmo_polarized_energy": -12.9, 
			 "cosmo_cavitation_energy": 47.02, 
			 "cosmo_dispersion_energy": -31.69, 
			 "cosmo_repulsion_energy": 2.34, 
			 "cosmo_total_nonelectrostatic_energy": 17.67, 
			 "SMD_solvation_energy": 7.88 
		},
		"coords": [
			{
				"x": -2.0290791052,
				"y": 1.2570760706,
				"z": 2.291726032,
				"element": "C" 
			},
			{
				"x": -2.3148109601,
				"y": -0.148033256,
				"z": 1.7381188918,
				"element": "C" 
			},
			{
				"x": -3.0510855403,
				"y": -0.0310018416,
				"z": 0.3570701452,
				"element": "C" 
			},
			{
				"x": -2.2065083109,
				"y": -0.4618471723,
				"z": -0.8581787203,
				"element": "C" 
			},
			{
				"x": -0.7571083207,
				"y": 0.0216474632,
				"z": -0.7089471338,
				"element": "C" 
			},
			{
				"x": -0.0888755402,
				"y": -0.7629706065,
				"z": 0.443658418,
				"element": "C" 
			},
			{
				"x": 1.2213253074,
				"y": -0.0746127684,
				"z": 0.8452520312,
				"element": "C" 
			},
			{
				"x": 2.0287613433,
				"y": 0.3271794242,
				"z": -0.3596668924,
				"element": "C" 
			},
			{
				"x": 1.5684469384,
				"y": 0.3441313157,
				"z": -1.6178717745,
				"element": "C" 
			},
			{
				"x": 2.4064832254,
				"y": 0.8689189666,
				"z": -2.7593687798,
				"element": "C" 
			},
			{
				"x": 1.8608341663,
				"y": 2.224024904,
				"z": -3.2762917605,
				"element": "C" 
			},
			{
				"x": 2.6697572364,
				"y": 3.2519519079,
				"z": -2.7049469418,
				"element": "O" 
			},
			{
				"x": 0.3794402628,
				"y": 2.389789257,
				"z": -2.8952216283,
				"element": "C" 
			},
			{
				"x": -0.3742535346,
				"y": 1.0600824468,
				"z": -3.0272804441,
				"element": "C" 
			},
			{
				"x": 0.1227661277,
				"y": -0.0150462712,
				"z": -1.9965512138,
				"element": "C" 
			},
			{
				"x": 0.0737520751,
				"y": -1.4008702617,
				"z": -2.6831070244,
				"element": "C" 
			},
			{
				"x": -1.0399801611,
				"y": -1.0406038901,
				"z": 1.6433483051,
				"element": "C" 
			},
			{
				"x": -1.5661508059,
				"y": -2.5116266921,
				"z": 1.714745135,
				"element": "C" 
			},
			{
				"x": -3.0232634776,
				"y": -2.4377919745,
				"z": 2.2245929185,
				"element": "C" 
			},
			{
				"x": -3.1983836327,
				"y": -0.9823623068,
				"z": 2.7332920981,
				"element": "C" 
			},
			{
				"x": -4.547413555,
				"y": -0.5136917821,
				"z": 2.6720333561,
				"element": "O" 
			},
			{
				"x": -2.7150765993,
				"y": -0.8897552018,
				"z": 4.1252693496,
				"element": "C" 
			},
			{
				"x": -2.3731316363,
				"y": -0.8692444458,
				"z": 5.2848240695,
				"element": "C" 
			},
			{
				"x": -1.4502904801,
				"y": 1.8535065842,
				"z": 1.5804396995,
				"element": "H" 
			},
			{
				"x": -2.9718434079,
				"y": 1.7820553692,
				"z": 2.4789702682,
				"element": "H" 
			},
			{
				"x": -1.4728261749,
				"y": 1.2143224258,
				"z": 3.2324034871,
				"element": "H" 
			},
			{
				"x": -3.9899334289,
				"y": -0.5891575045,
				"z": 0.3725636715,
				"element": "H" 
			},
			{
				"x": -3.342223194,
				"y": 1.0165646206,
				"z": 0.2214125877,
				"element": "H" 
			},
			{
				"x": -2.2198401698,
				"y": -1.5538697186,
				"z": -0.9650740053,
				"element": "H" 
			},
			{
				"x": -2.6758385855,
				"y": -0.0666638492,
				"z": -1.7665574283,
				"element": "H" 
			},
			{
				"x": -0.7973014622,
				"y": 1.0808821988,
				"z": -0.4117699838,
				"element": "H" 
			},
			{
				"x": 0.1927178487,
				"y": -1.743452831,
				"z": 0.0377063546,
				"element": "H" 
			},
			{
				"x": 1.0119807585,
				"y": 0.8179002247,
				"z": 1.4561759127,
				"element": "H" 
			},
			{
				"x": 1.8120042451,
				"y": -0.7374406359,
				"z": 1.4937459165,
				"element": "H" 
			},
			{
				"x": 3.0523677501,
				"y": 0.6532384694,
				"z": -0.1769645682,
				"element": "H" 
			},
			{
				"x": 2.4073867861,
				"y": 0.1523098211,
				"z": -3.590651993,
				"element": "H" 
			},
			{
				"x": 3.4476721275,
				"y": 1.0140097279,
				"z": -2.4588595157,
				"element": "H" 
			},
			{
				"x": 1.9552826279,
				"y": 2.2465821599,
				"z": -4.3750974599,
				"element": "H" 
			},
			{
				"x": 2.2810378375,
				"y": 4.1021086863,
				"z": -2.9499881353,
				"element": "H" 
			},
			{
				"x": 0.345045959,
				"y": 2.7367933905,
				"z": -1.8552462825,
				"element": "H" 
			},
			{
				"x": -0.0898783902,
				"y": 3.1668267445,
				"z": -3.5123611596,
				"element": "H" 
			},
			{
				"x": -1.4505111252,
				"y": 1.2207142925,
				"z": -2.9096084306,
				"element": "H" 
			},
			{
				"x": -0.2406137347,
				"y": 0.6793235199,
				"z": -4.0485337234,
				"element": "H" 
			},
			{
				"x": 0.7708699893,
				"y": -1.440838859,
				"z": -3.5262314665,
				"element": "H" 
			},
			{
				"x": -0.9269178834,
				"y": -1.6062873657,
				"z": -3.0788146547,
				"element": "H" 
			},
			{
				"x": 0.3423754542,
				"y": -2.2114578506,
				"z": -2.0000318357,
				"element": "H" 
			},
			{
				"x": -0.4703226142,
				"y": -0.8635339042,
				"z": 2.5635516665,
				"element": "H" 
			},
			{
				"x": -0.9342232892,
				"y": -3.1077293582,
				"z": 2.3804839244,
				"element": "H" 
			},
			{
				"x": -1.5268197144,
				"y": -2.9960430693,
				"z": 0.7344412681,
				"element": "H" 
			},
			{
				"x": -3.7383620013,
				"y": -2.5864578229,
				"z": 1.4099219335,
				"element": "H" 
			},
			{
				"x": -3.2519799501,
				"y": -3.172496144,
				"z": 3.0016559133,
				"element": "H" 
			},
			{
				"x": -5.0269838026,
				"y": -0.9042398399,
				"z": 3.4142947284,
				"element": "H" 
			},
			{
				"x": -2.0608774783,
				"y": -0.8324127671,
				"z": 6.3029248741,
				"element": "H" 
			}
		],
		 "valence_orbital": [ 
			{
				"type": "occ",
				"energy": -0.27468,
				"method": "rhf"
			},
			{
				"type": "occ",
				"energy": -0.26746,
				"method": "rhf"
			},
			{
				"type": "occ",
				"energy": -0.25501,
				"method": "rhf"
			},
			{
				"type": "occ",
				"energy": -0.25283,
				"method": "rhf"
			},
			{
				"type": "occ",
				"energy": -0.22353,
				"method": "rhf"
			},
			{
				"type": "unocc",
				"energy": 0.03174,
				"method": "rhf"
			},
			{
				"type": "unocc",
				"energy": 0.03362,
				"method": "rhf"
			},
			{
				"type": "unocc",
				"energy": 0.05181,
				"method": "rhf"
			},
			{
				"type": "unocc",
				"energy": 0.07455,
				"method": "rhf"
			},
			{
				"type": "unocc",
				"energy": 0.08216,
				"method": "rhf"
			}
		],
		"cosmo_sigma_profile": { 
			"-0.025": 0.0,
			"-0.024": 0.0,
			"-0.023": 0.0,
			"-0.022": 0.0,
			"-0.021": 0.0,
			"-0.02": 0.0,
			"-0.019": 0.0,
			"-0.018": 0.0,
			"-0.017": 0.0,
			"-0.016": 0.251256088289,
			"-0.015": 1.19786577922,
			"-0.014": 2.05124884643,
			"-0.013": 1.30211064307,
			"-0.012": 1.93723363438,
			"-0.011": 2.57713953086,
			"-0.01": 2.7329039512,
			"-0.009": 2.74423845646,
			"-0.008": 2.56108048893,
			"-0.007": 3.36645077004,
			"-0.006": 2.31083289122,
			"-0.005": 3.48956688563,
			"-0.004": 7.48690267807,
			"-0.003": 30.3278590277,
			"-0.002": 53.3485892609,
			"-0.001": 61.4566819476,
			"0.0": 54.0789781516,
			"0.001": 37.954228018,
			"0.002": 20.6714995164,
			"0.003": 11.9970608963,
			"0.004": 11.4099658296,
			"0.005": 10.8419747082,
			"0.006": 10.3330828042,
			"0.007": 6.34583819097,
			"0.008": 3.69939047095,
			"0.009": 2.71153184389,
			"0.01": 3.22822049195,
			"0.011": 2.24502476433,
			"0.012": 2.69957570628,
			"0.013": 2.5948055343,
			"0.014": 1.83479846476,
			"0.015": 0.829602002262,
			"0.016": 0.0,
			"0.017": 0.0,
			"0.018": 0.0,
			"0.019": 0.0,
			"0.02": 0.0,
			"0.021": 0.0,
			"0.022": 0.0,
			"0.023": 0.0,
			"0.024": 0.0,
			"0.025": 0.0
		}
	}
}
