{
	 "smiles": "CCCC#CCCC", 
	 "Tm": 171.15, 
	 "num_atms": 22, 
	 "gaussian": { 
		 "optdone": 1, 
		 "sigma_profile": "yes", 
		 "theory": "DFT", 
		 "functional": "B3LYP", 
		 "basiset": "6-31G**", 
		 "properties": { 
			 "R2extent": 1959.5391, 
			 "electric_dipole_moment_norm": 0.117397998279, 
			 "electric_quadrupole_moment_norm": 3.87414235928, 
			 "total_energy": -313.247130712, 
			 "HOMO_LUMO_gap": 0.29803, 
			 "cosmo_polarized_energy": -3.01, 
			 "cosmo_cavitation_energy": 24.88, 
			 "cosmo_dispersion_energy": -17.39, 
			 "cosmo_repulsion_energy": 1.52, 
			 "cosmo_total_nonelectrostatic_energy": 9.02, 
			 "SMD_solvation_energy": 4.42 
		},
		"coords": [
			{
				"x": -3.002278718,
				"y": 2.0631609219,
				"z": -1.8602827345,
				"element": "C" 
			},
			{
				"x": -2.8591301888,
				"y": 2.6514837851,
				"z": -0.4549296316,
				"element": "C" 
			},
			{
				"x": -2.7624568358,
				"y": 1.5793302874,
				"z": 0.6539030448,
				"element": "C" 
			},
			{
				"x": -1.5861217629,
				"y": 0.7133098207,
				"z": 0.5378828626,
				"element": "C" 
			},
			{
				"x": -0.6128849056,
				"y": 0.000517788,
				"z": 0.4302061055,
				"element": "C" 
			},
			{
				"x": 0.5744712779,
				"y": -0.8512684561,
				"z": 0.3203606206,
				"element": "C" 
			},
			{
				"x": 1.9022167478,
				"y": -0.1057907428,
				"z": 0.5849106569,
				"element": "C" 
			},
			{
				"x": 2.1865044127,
				"y": 1.0083876924,
				"z": -0.4247466328,
				"element": "C" 
			},
			{
				"x": -3.9116272247,
				"y": 1.45665676,
				"z": -1.9442451509,
				"element": "H" 
			},
			{
				"x": -2.1500434409,
				"y": 1.4207051848,
				"z": -2.1022250518,
				"element": "H" 
			},
			{
				"x": -3.0577293352,
				"y": 2.8535643526,
				"z": -2.6157510058,
				"element": "H" 
			},
			{
				"x": -1.9681841885,
				"y": 3.2889319242,
				"z": -0.407490274,
				"element": "H" 
			},
			{
				"x": -3.7187113282,
				"y": 3.2952188597,
				"z": -0.2302780904,
				"element": "H" 
			},
			{
				"x": -2.7532333881,
				"y": 2.0741060026,
				"z": 1.6342745844,
				"element": "H" 
			},
			{
				"x": -3.6711983919,
				"y": 0.9608551231,
				"z": 0.6359251905,
				"element": "H" 
			},
			{
				"x": 0.6087222584,
				"y": -1.3023313075,
				"z": -0.6815751039,
				"element": "H" 
			},
			{
				"x": 0.4842059592,
				"y": -1.6883305402,
				"z": 1.0255125984,
				"element": "H" 
			},
			{
				"x": 1.8772688235,
				"y": 0.3090801999,
				"z": 1.5995038622,
				"element": "H" 
			},
			{
				"x": 2.7146909718,
				"y": -0.8428531085,
				"z": 0.565930726,
				"element": "H" 
			},
			{
				"x": 2.2612566129,
				"y": 0.609589889,
				"z": -1.4431991134,
				"element": "H" 
			},
			{
				"x": 1.3857324525,
				"y": 1.7542784676,
				"z": -0.4170258672,
				"element": "H" 
			},
			{
				"x": 3.1281301919,
				"y": 1.5179970961,
				"z": -0.1963615955,
				"element": "H" 
			}
		],
		 "valence_orbital": [ 
			{
				"type": "occ",
				"energy": -0.34279,
				"method": "rhf"
			},
			{
				"type": "occ",
				"energy": -0.33432,
				"method": "rhf"
			},
			{
				"type": "occ",
				"energy": -0.33244,
				"method": "rhf"
			},
			{
				"type": "occ",
				"energy": -0.24009,
				"method": "rhf"
			},
			{
				"type": "occ",
				"energy": -0.23918,
				"method": "rhf"
			},
			{
				"type": "unocc",
				"energy": 0.05885,
				"method": "rhf"
			},
			{
				"type": "unocc",
				"energy": 0.06279,
				"method": "rhf"
			},
			{
				"type": "unocc",
				"energy": 0.10184,
				"method": "rhf"
			},
			{
				"type": "unocc",
				"energy": 0.11596,
				"method": "rhf"
			},
			{
				"type": "unocc",
				"energy": 0.13592,
				"method": "rhf"
			}
		],
		"cosmo_sigma_profile": { 
			"-0.025": 0.0,
			"-0.024": 0.0,
			"-0.023": 0.0,
			"-0.022": 0.0,
			"-0.021": 0.0,
			"-0.02": 0.0,
			"-0.019": 0.0,
			"-0.018": 0.0,
			"-0.017": 0.0,
			"-0.016": 0.0,
			"-0.015": 0.0,
			"-0.014": 0.0,
			"-0.013": 0.0,
			"-0.012": 0.0,
			"-0.011": 0.0,
			"-0.01": 0.0,
			"-0.009": 0.0,
			"-0.008": 0.0,
			"-0.007": 0.0,
			"-0.006": 0.0,
			"-0.005": 2.46227200042,
			"-0.004": 9.10661380317,
			"-0.003": 20.168247607,
			"-0.002": 31.9895304225,
			"-0.001": 33.0878761393,
			"0.0": 28.0617759172,
			"0.001": 25.3292218849,
			"0.002": 13.8241942255,
			"0.003": 6.7202305652,
			"0.004": 4.75580629969,
			"0.005": 6.17831706526,
			"0.006": 3.84962637656,
			"0.007": 4.46004431676,
			"0.008": 3.75723942052,
			"0.009": 0.00231033496391,
			"0.01": 0.0,
			"0.011": 0.0,
			"0.012": 0.0,
			"0.013": 0.0,
			"0.014": 0.0,
			"0.015": 0.0,
			"0.016": 0.0,
			"0.017": 0.0,
			"0.018": 0.0,
			"0.019": 0.0,
			"0.02": 0.0,
			"0.021": 0.0,
			"0.022": 0.0,
			"0.023": 0.0,
			"0.024": 0.0,
			"0.025": 0.0
		}
	}
}
