{
	 "smiles": "CC(=O)NCCC1=CC=C(C=C1)C(C)=O", 
	 "Tm": 368.15, 
	 "num_atms": 30, 
	 "gaussian": { 
		 "optdone": 1, 
		 "sigma_profile": "yes", 
		 "theory": "DFT", 
		 "functional": "B3LYP", 
		 "basiset": "6-31G**", 
		 "properties": { 
			 "R2extent": 4874.7933, 
			 "electric_dipole_moment_norm": 3.28814848357, 
			 "electric_quadrupole_moment_norm": 26.5047122935, 
			 "total_energy": -671.544447132, 
			 "HOMO_LUMO_gap": 0.18555, 
			 "cosmo_polarized_energy": -17.69, 
			 "cosmo_cavitation_energy": 34.03, 
			 "cosmo_dispersion_energy": -23.45, 
			 "cosmo_repulsion_energy": 1.85, 
			 "cosmo_total_nonelectrostatic_energy": 12.43, 
			 "SMD_solvation_energy": 6.72 
		},
		"coords": [
			{
				"x": 1.9527389845,
				"y": 1.3922013081,
				"z": 4.1007732403,
				"element": "C" 
			},
			{
				"x": 2.0923097254,
				"y": 0.5391919185,
				"z": 2.8477328564,
				"element": "C" 
			},
			{
				"x": 3.162709037,
				"y": 0.4081090014,
				"z": 2.268545667,
				"element": "O" 
			},
			{
				"x": 0.9658397791,
				"y": -0.111759906,
				"z": 2.400963272,
				"element": "N" 
			},
			{
				"x": -0.409610824,
				"y": 0.079461103,
				"z": 2.8246659468,
				"element": "C" 
			},
			{
				"x": -1.2045443225,
				"y": 1.0914099897,
				"z": 1.9605215056,
				"element": "C" 
			},
			{
				"x": -1.3520722007,
				"y": 0.6518970154,
				"z": 0.5216330956,
				"element": "C" 
			},
			{
				"x": -0.3893674234,
				"y": 0.9907664706,
				"z": -0.4399426496,
				"element": "C" 
			},
			{
				"x": -0.504257059,
				"y": 0.5442528225,
				"z": -1.7561079489,
				"element": "C" 
			},
			{
				"x": -1.5892346466,
				"y": -0.2536282645,
				"z": -2.1457273697,
				"element": "C" 
			},
			{
				"x": -2.5559681474,
				"y": -0.5926536893,
				"z": -1.1856642382,
				"element": "C" 
			},
			{
				"x": -2.4372555212,
				"y": -0.1473368341,
				"z": 0.1250405706,
				"element": "C" 
			},
			{
				"x": -1.770367295,
				"y": -0.7611815356,
				"z": -3.5449819977,
				"element": "C" 
			},
			{
				"x": -0.7331155726,
				"y": -0.4026975593,
				"z": -4.5958246349,
				"element": "C" 
			},
			{
				"x": -2.7357431225,
				"y": -1.4522003394,
				"z": -3.8348136813,
				"element": "O" 
			},
			{
				"x": 1.2331713376,
				"y": 2.2063814506,
				"z": 3.9631068969,
				"element": "H" 
			},
			{
				"x": 1.6202779529,
				"y": 0.7948870656,
				"z": 4.9564753538,
				"element": "H" 
			},
			{
				"x": 2.9317571124,
				"y": 1.8163119601,
				"z": 4.3212490135,
				"element": "H" 
			},
			{
				"x": 1.1218500598,
				"y": -0.6165408093,
				"z": 1.5373560674,
				"element": "H" 
			},
			{
				"x": -0.4155565112,
				"y": 0.4124363487,
				"z": 3.865243036,
				"element": "H" 
			},
			{
				"x": -0.9189852147,
				"y": -0.8910486732,
				"z": 2.8016018206,
				"element": "H" 
			},
			{
				"x": -2.1950938043,
				"y": 1.2170849444,
				"z": 2.4140289672,
				"element": "H" 
			},
			{
				"x": -0.7010074296,
				"y": 2.0637408031,
				"z": 2.0079673039,
				"element": "H" 
			},
			{
				"x": 0.45524267,
				"y": 1.6128692349,
				"z": -0.1567513963,
				"element": "H" 
			},
			{
				"x": 0.2572840743,
				"y": 0.826067437,
				"z": -2.4761210179,
				"element": "H" 
			},
			{
				"x": -3.394363235,
				"y": -1.2058796433,
				"z": -1.4989823436,
				"element": "H" 
			},
			{
				"x": -3.198154507,
				"y": -0.4147018816,
				"z": 0.8547007437,
				"element": "H" 
			},
			{
				"x": 0.2597861232,
				"y": -0.7667102971,
				"z": -4.3094172358,
				"element": "H" 
			},
			{
				"x": -1.0254692492,
				"y": -0.8563843335,
				"z": -5.5431042586,
				"element": "H" 
			},
			{
				"x": -0.6586007701,
				"y": 0.6832548928,
				"z": -4.7206665849,
				"element": "H" 
			}
		],
		 "valence_orbital": [ 
			{
				"type": "occ",
				"energy": -0.26694,
				"method": "rhf"
			},
			{
				"type": "occ",
				"energy": -0.26022,
				"method": "rhf"
			},
			{
				"type": "occ",
				"energy": -0.24957,
				"method": "rhf"
			},
			{
				"type": "occ",
				"energy": -0.24827,
				"method": "rhf"
			},
			{
				"type": "occ",
				"energy": -0.24383,
				"method": "rhf"
			},
			{
				"type": "unocc",
				"energy": -0.05828,
				"method": "rhf"
			},
			{
				"type": "unocc",
				"energy": -0.01599,
				"method": "rhf"
			},
			{
				"type": "unocc",
				"energy": 0.02687,
				"method": "rhf"
			},
			{
				"type": "unocc",
				"energy": 0.03296,
				"method": "rhf"
			},
			{
				"type": "unocc",
				"energy": 0.07541,
				"method": "rhf"
			}
		],
		"cosmo_sigma_profile": { 
			"-0.025": 0.0,
			"-0.024": 0.0,
			"-0.023": 0.0,
			"-0.022": 0.0,
			"-0.021": 0.0,
			"-0.02": 0.0,
			"-0.019": 0.0,
			"-0.018": 0.0,
			"-0.017": 0.0,
			"-0.016": 0.0,
			"-0.015": 0.0,
			"-0.014": 0.0,
			"-0.013": 0.0,
			"-0.012": 0.306243890503,
			"-0.011": 0.537099695217,
			"-0.01": 0.812648298623,
			"-0.009": 0.875318308516,
			"-0.008": 1.13586922426,
			"-0.007": 1.90429826312,
			"-0.006": 17.4633968719,
			"-0.005": 32.5827356014,
			"-0.004": 30.9453400104,
			"-0.003": 25.6615963756,
			"-0.002": 22.3530302339,
			"-0.001": 25.002998094,
			"0.0": 16.0814720026,
			"0.001": 10.4609359955,
			"0.002": 11.8411910047,
			"0.003": 12.3784389511,
			"0.004": 13.9254374978,
			"0.005": 4.34684367377,
			"0.006": 4.32126544496,
			"0.007": 2.62468234538,
			"0.008": 2.53951844926,
			"0.009": 2.95021705191,
			"0.01": 3.31823997511,
			"0.011": 4.20798620928,
			"0.012": 5.69672319637,
			"0.013": 4.34618154419,
			"0.014": 6.51054851945,
			"0.015": 2.94117081912,
			"0.016": 0.259395367988,
			"0.017": 0.0,
			"0.018": 0.0,
			"0.019": 0.0,
			"0.02": 0.0,
			"0.021": 0.0,
			"0.022": 0.0,
			"0.023": 0.0,
			"0.024": 0.0,
			"0.025": 0.0
		}
	}
}
