{
	 "smiles": "COC1=CC(CCC(O)=O)=CN=C1", 
	 "Tm": 376.15, 
	 "num_atms": 24, 
	 "gaussian": { 
		 "optdone": 1, 
		 "sigma_profile": "yes", 
		 "theory": "DFT", 
		 "functional": "B3LYP", 
		 "basiset": "6-31G**", 
		 "properties": { 
			 "R2extent": 4046.6572, 
			 "electric_dipole_moment_norm": 3.89091942219, 
			 "electric_quadrupole_moment_norm": 23.6518416112, 
			 "total_energy": -630.002953815, 
			 "HOMO_LUMO_gap": 0.20733, 
			 "cosmo_polarized_energy": -20.27, 
			 "cosmo_cavitation_energy": 28.75, 
			 "cosmo_dispersion_energy": -20.54, 
			 "cosmo_repulsion_energy": 1.65, 
			 "cosmo_total_nonelectrostatic_energy": 9.87, 
			 "SMD_solvation_energy": 5.31 
		},
		"coords": [
			{
				"x": -0.8299957703,
				"y": 2.4656478001,
				"z": -3.6985003771,
				"element": "C" 
			},
			{
				"x": 0.0265122595,
				"y": 1.397398441,
				"z": -4.0748757741,
				"element": "O" 
			},
			{
				"x": 0.7898286569,
				"y": 0.8159529654,
				"z": -3.110003666,
				"element": "C" 
			},
			{
				"x": 0.8004822219,
				"y": 1.1695180268,
				"z": -1.7596779321,
				"element": "C" 
			},
			{
				"x": 1.6507544006,
				"y": 0.4791939323,
				"z": -0.8835640239,
				"element": "C" 
			},
			{
				"x": 1.6750365171,
				"y": 0.7970813053,
				"z": 0.5942296625,
				"element": "C" 
			},
			{
				"x": 0.6447015039,
				"y": -0.0247623652,
				"z": 1.3854487506,
				"element": "C" 
			},
			{
				"x": 0.6173665634,
				"y": 0.3377890879,
				"z": 2.8654812172,
				"element": "C" 
			},
			{
				"x": -0.2147698763,
				"y": -0.4167892672,
				"z": 3.6341718267,
				"element": "O" 
			},
			{
				"x": 1.2596504224,
				"y": 1.2269803961,
				"z": 3.3643975466,
				"element": "O" 
			},
			{
				"x": 2.4518224552,
				"y": -0.5330674316,
				"z": -1.4178518953,
				"element": "C" 
			},
			{
				"x": 2.446143856,
				"y": -0.8839382937,
				"z": -2.7121650019,
				"element": "N" 
			},
			{
				"x": 1.6340291609,
				"y": -0.2261703657,
				"z": -3.5338856217,
				"element": "C" 
			},
			{
				"x": -0.2643077323,
				"y": 3.3111885532,
				"z": -3.2866498792,
				"element": "H" 
			},
			{
				"x": -1.3356527356,
				"y": 2.7826033102,
				"z": -4.6114648175,
				"element": "H" 
			},
			{
				"x": -1.5798441723,
				"y": 2.1433738839,
				"z": -2.9643511706,
				"element": "H" 
			},
			{
				"x": 0.1734200251,
				"y": 1.9703729781,
				"z": -1.3814325944,
				"element": "H" 
			},
			{
				"x": 1.4779754087,
				"y": 1.8600167214,
				"z": 0.7633585839,
				"element": "H" 
			},
			{
				"x": 2.6698671444,
				"y": 0.6021833306,
				"z": 1.0065483666,
				"element": "H" 
			},
			{
				"x": 0.852199365,
				"y": -1.0984500486,
				"z": 1.2825290413,
				"element": "H" 
			},
			{
				"x": -0.3633748578,
				"y": 0.1276727197,
				"z": 0.9751517404,
				"element": "H" 
			},
			{
				"x": -0.6511617909,
				"y": -1.0916255363,
				"z": 3.0947587083,
				"element": "H" 
			},
			{
				"x": 3.1365908914,
				"y": -1.0833956797,
				"z": -0.773788005,
				"element": "H" 
			},
			{
				"x": 1.631626083,
				"y": -0.5094744641,
				"z": -4.5844646854,
				"element": "H" 
			}
		],
		 "valence_orbital": [ 
			{
				"type": "occ",
				"energy": -0.32111,
				"method": "rhf"
			},
			{
				"type": "occ",
				"energy": -0.28359,
				"method": "rhf"
			},
			{
				"type": "occ",
				"energy": -0.27279,
				"method": "rhf"
			},
			{
				"type": "occ",
				"energy": -0.25359,
				"method": "rhf"
			},
			{
				"type": "occ",
				"energy": -0.23234,
				"method": "rhf"
			},
			{
				"type": "unocc",
				"energy": -0.02501,
				"method": "rhf"
			},
			{
				"type": "unocc",
				"energy": -0.00482,
				"method": "rhf"
			},
			{
				"type": "unocc",
				"energy": 0.00635,
				"method": "rhf"
			},
			{
				"type": "unocc",
				"energy": 0.05,
				"method": "rhf"
			},
			{
				"type": "unocc",
				"energy": 0.07975,
				"method": "rhf"
			}
		],
		"cosmo_sigma_profile": { 
			"-0.025": 0.0,
			"-0.024": 0.0,
			"-0.023": 0.0,
			"-0.022": 0.0,
			"-0.021": 0.0,
			"-0.02": 0.0,
			"-0.019": 0.74787945892,
			"-0.018": 1.2149659077,
			"-0.017": 0.738898315764,
			"-0.016": 1.34623393773,
			"-0.015": 0.778528911463,
			"-0.014": 1.06495662131,
			"-0.013": 0.856694598828,
			"-0.012": 1.43747379913,
			"-0.011": 1.53133070218,
			"-0.01": 0.974728324004,
			"-0.009": 1.67106334307,
			"-0.008": 2.05655844735,
			"-0.007": 6.31711147951,
			"-0.006": 15.9675068941,
			"-0.005": 24.4454736416,
			"-0.004": 20.3630679858,
			"-0.003": 15.4316702859,
			"-0.002": 11.0653153219,
			"-0.001": 11.1020772625,
			"0.0": 9.98031314417,
			"0.001": 10.5714856889,
			"0.002": 15.643676661,
			"0.003": 11.2288298179,
			"0.004": 7.05581349005,
			"0.005": 5.61263586174,
			"0.006": 5.23391991349,
			"0.007": 5.7052984027,
			"0.008": 5.34408182792,
			"0.009": 5.80958063089,
			"0.01": 7.09188602489,
			"0.011": 6.70676077179,
			"0.012": 6.4545708927,
			"0.013": 2.6379663387,
			"0.014": 1.01915666487,
			"0.015": 0.629259219692,
			"0.016": 1.21870382532,
			"0.017": 0.35290749259,
			"0.018": 0.0,
			"0.019": 0.0,
			"0.02": 0.0,
			"0.021": 0.0,
			"0.022": 0.0,
			"0.023": 0.0,
			"0.024": 0.0,
			"0.025": 0.0
		}
	}
}
