{
	 "smiles": "OC(=O)C1=CC(=CC=C1)N1CC=CC1", 
	 "Tm": 467.15, 
	 "num_atms": 25, 
	 "gaussian": { 
		 "optdone": 1, 
		 "sigma_profile": "yes", 
		 "theory": "DFT", 
		 "functional": "B3LYP", 
		 "basiset": "6-31G**", 
		 "properties": { 
			 "R2extent": 3481.6378, 
			 "electric_dipole_moment_norm": 7.00360951296, 
			 "electric_quadrupole_moment_norm": 11.1707683948, 
			 "total_energy": -630.980774747, 
			 "HOMO_LUMO_gap": 0.16262, 
			 "cosmo_polarized_energy": -15.53, 
			 "cosmo_cavitation_energy": 28.54, 
			 "cosmo_dispersion_energy": -21.03, 
			 "cosmo_repulsion_energy": 1.64, 
			 "cosmo_total_nonelectrostatic_energy": 9.14, 
			 "SMD_solvation_energy": 4.98 
		},
		"coords": [
			{
				"x": -1.5082627987,
				"y": 0.4936549674,
				"z": -2.9553662681,
				"element": "O" 
			},
			{
				"x": -1.9088690892,
				"y": -0.6472912093,
				"z": -2.3254123496,
				"element": "C" 
			},
			{
				"x": -2.4497928394,
				"y": -1.5248922966,
				"z": -2.9557150359,
				"element": "O" 
			},
			{
				"x": -1.6421970272,
				"y": -0.7215911432,
				"z": -0.8514629905,
				"element": "C" 
			},
			{
				"x": -0.6137063116,
				"y": 0.0175202022,
				"z": -0.2540640062,
				"element": "C" 
			},
			{
				"x": -0.3717935354,
				"y": -0.0674467844,
				"z": 1.1346822339,
				"element": "C" 
			},
			{
				"x": -1.2088609169,
				"y": -0.9146311062,
				"z": 1.8972291067,
				"element": "C" 
			},
			{
				"x": -2.2199462424,
				"y": -1.6517960857,
				"z": 1.2874254246,
				"element": "C" 
			},
			{
				"x": -2.4440159838,
				"y": -1.5743803325,
				"z": -0.0858513512,
				"element": "C" 
			},
			{
				"x": 0.6459598955,
				"y": 0.6464267284,
				"z": 1.7238711898,
				"element": "N" 
			},
			{
				"x": 0.9614804966,
				"y": 0.5868266111,
				"z": 3.1488234819,
				"element": "C" 
			},
			{
				"x": 2.1384554607,
				"y": 1.5178666211,
				"z": 3.2612642438,
				"element": "C" 
			},
			{
				"x": 2.4619562734,
				"y": 2.0351005316,
				"z": 2.0771108158,
				"element": "C" 
			},
			{
				"x": 1.5509045506,
				"y": 1.5275823602,
				"z": 0.9919738354,
				"element": "C" 
			},
			{
				"x": -1.263430281,
				"y": 1.1557396571,
				"z": -2.2936591682,
				"element": "H" 
			},
			{
				"x": 0.046790246,
				"y": 0.619858567,
				"z": -0.8690992392,
				"element": "H" 
			},
			{
				"x": -1.059290639,
				"y": -1.0015219489,
				"z": 2.9674120442,
				"element": "H" 
			},
			{
				"x": -2.8412758075,
				"y": -2.2990611656,
				"z": 1.8999824578,
				"element": "H" 
			},
			{
				"x": -3.2215843684,
				"y": -2.1496541803,
				"z": -0.5740879981,
				"element": "H" 
			},
			{
				"x": 0.1131711445,
				"y": 0.9156233153,
				"z": 3.7720976305,
				"element": "H" 
			},
			{
				"x": 1.2120096354,
				"y": -0.4374210173,
				"z": 3.4722988913,
				"element": "H" 
			},
			{
				"x": 2.6326269729,
				"y": 1.7147113242,
				"z": 4.2055694583,
				"element": "H" 
			},
			{
				"x": 3.2684291754,
				"y": 2.7310136737,
				"z": 1.8773277459,
				"element": "H" 
			},
			{
				"x": 1.0096446247,
				"y": 2.3471197593,
				"z": 0.4888238125,
				"element": "H" 
			},
			{
				"x": 2.1065973647,
				"y": 0.9879429515,
				"z": 0.2063260346,
				"element": "H" 
			}
		],
		 "valence_orbital": [ 
			{
				"type": "occ",
				"energy": -0.30119,
				"method": "rhf"
			},
			{
				"type": "occ",
				"energy": -0.26725,
				"method": "rhf"
			},
			{
				"type": "occ",
				"energy": -0.26417,
				"method": "rhf"
			},
			{
				"type": "occ",
				"energy": -0.25707,
				"method": "rhf"
			},
			{
				"type": "occ",
				"energy": -0.20153,
				"method": "rhf"
			},
			{
				"type": "unocc",
				"energy": -0.03891,
				"method": "rhf"
			},
			{
				"type": "unocc",
				"energy": -0.00038,
				"method": "rhf"
			},
			{
				"type": "unocc",
				"energy": 0.00483,
				"method": "rhf"
			},
			{
				"type": "unocc",
				"energy": 0.05865,
				"method": "rhf"
			},
			{
				"type": "unocc",
				"energy": 0.0682,
				"method": "rhf"
			}
		],
		"cosmo_sigma_profile": { 
			"-0.025": 0.0,
			"-0.024": 0.0,
			"-0.023": 0.0,
			"-0.022": 0.0,
			"-0.021": 0.0,
			"-0.02": 0.0,
			"-0.019": 0.0,
			"-0.018": 0.318049721433,
			"-0.017": 0.677044772031,
			"-0.016": 0.381849741022,
			"-0.015": 1.25828442104,
			"-0.014": 1.05053253633,
			"-0.013": 0.814127238439,
			"-0.012": 1.09748842942,
			"-0.011": 1.12771180695,
			"-0.01": 0.987122985951,
			"-0.009": 0.905203934842,
			"-0.008": 1.71232419294,
			"-0.007": 3.13158549409,
			"-0.006": 10.3024112576,
			"-0.005": 18.3655976321,
			"-0.004": 25.1532359794,
			"-0.003": 22.2727808956,
			"-0.002": 14.9965243851,
			"-0.001": 12.2853495704,
			"0.0": 12.6243204067,
			"0.001": 11.6188460893,
			"0.002": 11.7366062336,
			"0.003": 15.078671841,
			"0.004": 14.5934315544,
			"0.005": 13.2325480274,
			"0.006": 4.69649833507,
			"0.007": 2.8662187581,
			"0.008": 3.14466189306,
			"0.009": 2.74002060459,
			"0.01": 4.60844480713,
			"0.011": 5.57504093182,
			"0.012": 5.5302182052,
			"0.013": 2.1795092474,
			"0.014": 0.156163318592,
			"0.015": 0.0,
			"0.016": 0.0,
			"0.017": 0.0,
			"0.018": 0.0,
			"0.019": 0.0,
			"0.02": 0.0,
			"0.021": 0.0,
			"0.022": 0.0,
			"0.023": 0.0,
			"0.024": 0.0,
			"0.025": 0.0
		}
	}
}
