{
	 "smiles": "BrC1=CN=CC2=CC=CC=C12", 
	 "Tm": 314.35, 
	 "num_atms": 17, 
	 "gaussian": { 
		 "optdone": 1, 
		 "sigma_profile": "yes", 
		 "theory": "DFT", 
		 "functional": "B3LYP", 
		 "basiset": "6-31G**", 
		 "properties": { 
			 "R2extent": 3763.8838, 
			 "electric_dipole_moment_norm": 2.87388463582, 
			 "electric_quadrupole_moment_norm": 3.47445317424, 
			 "total_energy": -2972.73169553, 
			 "HOMO_LUMO_gap": 0.17014, 
			 "cosmo_polarized_energy": -6.15, 
			 "cosmo_cavitation_energy": 23.13, 
			 "cosmo_dispersion_energy": -17.87, 
			 "cosmo_repulsion_energy": 1.39, 
			 "cosmo_total_nonelectrostatic_energy": 6.65, 
			 "SMD_solvation_energy": 1.27 
		},
		"coords": [
			{
				"x": -2.0387055938,
				"y": -1.6545428923,
				"z": -3.4205406124,
				"element": "Br" 
			},
			{
				"x": -0.697200983,
				"y": -0.8933185424,
				"z": -2.2914812067,
				"element": "C" 
			},
			{
				"x": 0.623345772,
				"y": -1.0343111432,
				"z": -2.6548591345,
				"element": "C" 
			},
			{
				"x": 1.651515128,
				"y": -0.5322019037,
				"z": -1.9241792862,
				"element": "N" 
			},
			{
				"x": 1.358917685,
				"y": 0.1183038133,
				"z": -0.8178428538,
				"element": "C" 
			},
			{
				"x": 0.0381465644,
				"y": 0.3288972679,
				"z": -0.3391263175,
				"element": "C" 
			},
			{
				"x": -0.2278178663,
				"y": 1.0376348753,
				"z": 0.8610693849,
				"element": "C" 
			},
			{
				"x": -1.521758682,
				"y": 1.2203961614,
				"z": 1.2910698635,
				"element": "C" 
			},
			{
				"x": -2.6001190002,
				"y": 0.6994430634,
				"z": 0.5341757588,
				"element": "C" 
			},
			{
				"x": -2.3769252538,
				"y": 0.0067988925,
				"z": -0.635168913,
				"element": "C" 
			},
			{
				"x": -1.0534514267,
				"y": -0.1975006092,
				"z": -1.103790321,
				"element": "C" 
			},
			{
				"x": 0.8883689941,
				"y": -1.5670457687,
				"z": -3.5633427903,
				"element": "H" 
			},
			{
				"x": 2.1971066096,
				"y": 0.5144984037,
				"z": -0.2439902013,
				"element": "H" 
			},
			{
				"x": 0.609178463,
				"y": 1.4316660448,
				"z": 1.431390216,
				"element": "H" 
			},
			{
				"x": -1.7215843772,
				"y": 1.7632258097,
				"z": 2.2098730852,
				"element": "H" 
			},
			{
				"x": -3.6179811432,
				"y": 0.8491063204,
				"z": 0.8822266531,
				"element": "H" 
			},
			{
				"x": -3.2053348898,
				"y": -0.389949793,
				"z": -1.2107833248,
				"element": "H" 
			}
		],
		 "valence_orbital": [ 
			{
				"type": "occ",
				"energy": -0.29698,
				"method": "rhf"
			},
			{
				"type": "occ",
				"energy": -0.28081,
				"method": "rhf"
			},
			{
				"type": "occ",
				"energy": -0.27327,
				"method": "rhf"
			},
			{
				"type": "occ",
				"energy": -0.26261,
				"method": "rhf"
			},
			{
				"type": "occ",
				"energy": -0.23287,
				"method": "rhf"
			},
			{
				"type": "unocc",
				"energy": -0.06273,
				"method": "rhf"
			},
			{
				"type": "unocc",
				"energy": -0.0337,
				"method": "rhf"
			},
			{
				"type": "unocc",
				"energy": 0.00472,
				"method": "rhf"
			},
			{
				"type": "unocc",
				"energy": 0.01487,
				"method": "rhf"
			},
			{
				"type": "unocc",
				"energy": 0.07529,
				"method": "rhf"
			}
		],
		"cosmo_sigma_profile": { 
			"-0.025": 0.0,
			"-0.024": 0.0,
			"-0.023": 0.0,
			"-0.022": 0.0,
			"-0.021": 0.0,
			"-0.02": 0.0,
			"-0.019": 0.0,
			"-0.018": 0.0,
			"-0.017": 0.0,
			"-0.016": 0.0,
			"-0.015": 0.0,
			"-0.014": 0.0,
			"-0.013": 0.0,
			"-0.012": 0.0,
			"-0.011": 0.0,
			"-0.01": 0.0,
			"-0.009": 0.0,
			"-0.008": 1.19958484956,
			"-0.007": 9.00199610671,
			"-0.006": 10.7246113022,
			"-0.005": 11.7828647239,
			"-0.004": 11.7026176494,
			"-0.003": 9.70373015713,
			"-0.002": 9.97798126099,
			"-0.001": 11.7453810692,
			"0.0": 20.987851502,
			"0.001": 26.7799296951,
			"0.002": 21.2270213468,
			"0.003": 18.9864772418,
			"0.004": 12.7571987562,
			"0.005": 2.62682936129,
			"0.006": 0.948469354044,
			"0.007": 1.88916401924,
			"0.008": 2.06996608869,
			"0.009": 0.462122063529,
			"0.01": 0.438212402762,
			"0.011": 0.692295299314,
			"0.012": 1.26477656507,
			"0.013": 0.908127435033,
			"0.014": 0.981835306436,
			"0.015": 0.733901108107,
			"0.016": 0.532109039543,
			"0.017": 0.0,
			"0.018": 0.0,
			"0.019": 0.0,
			"0.02": 0.0,
			"0.021": 0.0,
			"0.022": 0.0,
			"0.023": 0.0,
			"0.024": 0.0,
			"0.025": 0.0
		}
	}
}
