{
	 "smiles": "OC1=CC=C(C=C1)C1=NC=CN1", 
	 "Tm": 539.15, 
	 "num_atms": 20, 
	 "gaussian": { 
		 "optdone": 1, 
		 "sigma_profile": "yes", 
		 "theory": "DFT", 
		 "functional": "B3LYP", 
		 "basiset": "6-31G**", 
		 "properties": { 
			 "R2extent": 2557.5853, 
			 "electric_dipole_moment_norm": 1.86910732972, 
			 "electric_quadrupole_moment_norm": 17.5841470095, 
			 "total_energy": -532.503156292, 
			 "HOMO_LUMO_gap": 0.17756, 
			 "cosmo_polarized_energy": -17.15, 
			 "cosmo_cavitation_energy": 24.38, 
			 "cosmo_dispersion_energy": -18.45, 
			 "cosmo_repulsion_energy": 1.44, 
			 "cosmo_total_nonelectrostatic_energy": 7.37, 
			 "SMD_solvation_energy": 3.32 
		},
		"coords": [
			{
				"x": -3.2459466807,
				"y": -1.6009443034,
				"z": 0.1348108628,
				"element": "O" 
			},
			{
				"x": -2.014573686,
				"y": -1.0243633097,
				"z": 0.0072898549,
				"element": "C" 
			},
			{
				"x": -1.0480963417,
				"y": -1.0646755679,
				"z": 1.0198477614,
				"element": "C" 
			},
			{
				"x": 0.1880194586,
				"y": -0.4585333231,
				"z": 0.829988336,
				"element": "C" 
			},
			{
				"x": 0.4930775456,
				"y": 0.2024486312,
				"z": -0.3714074972,
				"element": "C" 
			},
			{
				"x": -0.4885059463,
				"y": 0.2331574717,
				"z": -1.3766062332,
				"element": "C" 
			},
			{
				"x": -1.7279471989,
				"y": -0.3703878633,
				"z": -1.1958106883,
				"element": "C" 
			},
			{
				"x": 1.8102599636,
				"y": 0.8249567465,
				"z": -0.5211452092,
				"element": "C" 
			},
			{
				"x": 2.7665922363,
				"y": 0.8213751484,
				"z": 0.3967853812,
				"element": "N" 
			},
			{
				"x": 3.8202053879,
				"y": 1.5089804485,
				"z": -0.1503914176,
				"element": "C" 
			},
			{
				"x": 3.5133644015,
				"y": 1.9414005479,
				"z": -1.4171158176,
				"element": "C" 
			},
			{
				"x": 2.2267273171,
				"y": 1.498992126,
				"z": -1.6440370879,
				"element": "N" 
			},
			{
				"x": -3.3118338684,
				"y": -2.0144779781,
				"z": 1.0053359147,
				"element": "H" 
			},
			{
				"x": -1.265279964,
				"y": -1.5719293506,
				"z": 1.9579707175,
				"element": "H" 
			},
			{
				"x": 0.9421894642,
				"y": -0.4849617888,
				"z": 1.6087160379,
				"element": "H" 
			},
			{
				"x": -0.2975763218,
				"y": 0.732968381,
				"z": -2.3230662552,
				"element": "H" 
			},
			{
				"x": -2.4840470304,
				"y": -0.3453415332,
				"z": -1.9733096826,
				"element": "H" 
			},
			{
				"x": 4.7421806585,
				"y": 1.6562666516,
				"z": 0.3949076265,
				"element": "H" 
			},
			{
				"x": 4.0672101632,
				"y": 2.5021087963,
				"z": -2.1539632807,
				"element": "H" 
			},
			{
				"x": 1.6952804415,
				"y": 1.6486600688,
				"z": -2.4867993235,
				"element": "H" 
			}
		],
		 "valence_orbital": [ 
			{
				"type": "occ",
				"energy": -0.27727,
				"method": "rhf"
			},
			{
				"type": "occ",
				"energy": -0.26152,
				"method": "rhf"
			},
			{
				"type": "occ",
				"energy": -0.25541,
				"method": "rhf"
			},
			{
				"type": "occ",
				"energy": -0.25179,
				"method": "rhf"
			},
			{
				"type": "occ",
				"energy": -0.19479,
				"method": "rhf"
			},
			{
				"type": "unocc",
				"energy": -0.01723,
				"method": "rhf"
			},
			{
				"type": "unocc",
				"energy": -0.00409,
				"method": "rhf"
			},
			{
				"type": "unocc",
				"energy": 0.05887,
				"method": "rhf"
			},
			{
				"type": "unocc",
				"energy": 0.06067,
				"method": "rhf"
			},
			{
				"type": "unocc",
				"energy": 0.0704,
				"method": "rhf"
			}
		],
		"cosmo_sigma_profile": { 
			"-0.025": 0.0,
			"-0.024": 0.0,
			"-0.023": 0.0,
			"-0.022": 0.0,
			"-0.021": 0.0,
			"-0.02": 0.0,
			"-0.019": 0.0,
			"-0.018": 0.636869631463,
			"-0.017": 1.32015966892,
			"-0.016": 2.51251938865,
			"-0.015": 1.85883748158,
			"-0.014": 2.43350127235,
			"-0.013": 2.7956987618,
			"-0.012": 1.2940352895,
			"-0.011": 3.22941269373,
			"-0.01": 2.31499829952,
			"-0.009": 2.76783726219,
			"-0.008": 5.02677660075,
			"-0.007": 4.86768600739,
			"-0.006": 8.63940867478,
			"-0.005": 8.9241853921,
			"-0.004": 10.1958012074,
			"-0.003": 8.03968952548,
			"-0.002": 8.56388176122,
			"-0.001": 7.53376017205,
			"0.0": 8.16894028519,
			"0.001": 8.98207788772,
			"0.002": 12.5702505283,
			"0.003": 15.1551374578,
			"0.004": 19.8649249102,
			"0.005": 17.1865513148,
			"0.006": 7.36838127131,
			"0.007": 4.063922691,
			"0.008": 3.12663569896,
			"0.009": 3.1583844107,
			"0.01": 3.72501765476,
			"0.011": 2.91883696832,
			"0.012": 1.41141406037,
			"0.013": 1.55770823531,
			"0.014": 1.08138164328,
			"0.015": 1.18016667939,
			"0.016": 0.776782858865,
			"0.017": 0.298048523919,
			"0.018": 0.0,
			"0.019": 0.0,
			"0.02": 0.0,
			"0.021": 0.0,
			"0.022": 0.0,
			"0.023": 0.0,
			"0.024": 0.0,
			"0.025": 0.0
		}
	}
}
