{
	 "smiles": "CC1(C)C2=CC=CC=C2[N+](CC2=CC=CC=C2)=C1C=CC1=CC(Br)=CC(=C1[O-])[N+]([O-])=O", 
	 "Tm": 481.15, 
	 "num_atms": 52, 
	 "gaussian": { 
		 "optdone": 1, 
		 "sigma_profile": "yes", 
		 "theory": "DFT", 
		 "functional": "B3LYP", 
		 "basiset": "6-31G**", 
		 "properties": { 
			 "R2extent": 19192.024, 
			 "electric_dipole_moment_norm": 13.3938932286, 
			 "electric_quadrupole_moment_norm": 36.7863556341, 
			 "total_energy": -3871.77084404, 
			 "HOMO_LUMO_gap": 0.0938, 
			 "cosmo_polarized_energy": -28.07, 
			 "cosmo_cavitation_energy": 58.14, 
			 "cosmo_dispersion_energy": -38.06, 
			 "cosmo_repulsion_energy": 2.85, 
			 "cosmo_total_nonelectrostatic_energy": 22.94, 
			 "SMD_solvation_energy": 11.13 
		},
		"coords": [
			{
				"x": -3.4825503559,
				"y": -2.2277446294,
				"z": -0.4380332197,
				"element": "C" 
			},
			{
				"x": -2.036499329,
				"y": -2.5076361758,
				"z": -0.9165581084,
				"element": "C" 
			},
			{
				"x": -1.9755399977,
				"y": -2.5014808517,
				"z": -2.4610254525,
				"element": "C" 
			},
			{
				"x": -1.5003459356,
				"y": -3.8009485445,
				"z": -0.3338348021,
				"element": "C" 
			},
			{
				"x": -1.9181206352,
				"y": -5.1155130679,
				"z": -0.486204712,
				"element": "C" 
			},
			{
				"x": -1.2252067065,
				"y": -6.1315985281,
				"z": 0.1870413661,
				"element": "C" 
			},
			{
				"x": -0.1287902243,
				"y": -5.8251869582,
				"z": 0.9963342136,
				"element": "C" 
			},
			{
				"x": 0.3034871562,
				"y": -4.5035498839,
				"z": 1.1592595565,
				"element": "C" 
			},
			{
				"x": -0.4070981358,
				"y": -3.5119214261,
				"z": 0.4881932458,
				"element": "C" 
			},
			{
				"x": -0.1826326492,
				"y": -2.1133501676,
				"z": 0.4967089646,
				"element": "N" 
			},
			{
				"x": 0.7305934927,
				"y": -1.4873840146,
				"z": 1.44661969,
				"element": "C" 
			},
			{
				"x": 2.1474192863,
				"y": -1.2443369512,
				"z": 0.9460566355,
				"element": "C" 
			},
			{
				"x": 2.6636715147,
				"y": -1.889415305,
				"z": -0.1819251822,
				"element": "C" 
			},
			{
				"x": 3.980792542,
				"y": -1.6576773024,
				"z": -0.5860493154,
				"element": "C" 
			},
			{
				"x": 4.7940412768,
				"y": -0.7816449656,
				"z": 0.1324845619,
				"element": "C" 
			},
			{
				"x": 4.2841638864,
				"y": -0.1331753574,
				"z": 1.2600224923,
				"element": "C" 
			},
			{
				"x": 2.969023044,
				"y": -0.3624420139,
				"z": 1.66259498,
				"element": "C" 
			},
			{
				"x": -1.0659217032,
				"y": -1.4705513091,
				"z": -0.3271462191,
				"element": "C" 
			},
			{
				"x": -1.1739276323,
				"y": -0.1212097964,
				"z": -0.6298009006,
				"element": "C" 
			},
			{
				"x": -0.2500638154,
				"y": 0.906932655,
				"z": -0.3856894701,
				"element": "C" 
			},
			{
				"x": -0.4040149765,
				"y": 2.2707550805,
				"z": -0.6796794648,
				"element": "C" 
			},
			{
				"x": 0.7077011923,
				"y": 3.124357659,
				"z": -0.4098520648,
				"element": "C" 
			},
			{
				"x": 0.6587622066,
				"y": 4.4670590688,
				"z": -0.6708097452,
				"element": "C" 
			},
			{
				"x": 2.161732655,
				"y": 5.5873091352,
				"z": -0.3024876701,
				"element": "Br" 
			},
			{
				"x": -0.5122556242,
				"y": 5.0529691153,
				"z": -1.2092414807,
				"element": "C" 
			},
			{
				"x": -1.6194569491,
				"y": 4.2873619738,
				"z": -1.4601722791,
				"element": "C" 
			},
			{
				"x": -1.6600914277,
				"y": 2.8279825311,
				"z": -1.2546290962,
				"element": "C" 
			},
			{
				"x": -2.6281879667,
				"y": 2.123662312,
				"z": -1.5646318924,
				"element": "O" 
			},
			{
				"x": -2.7995957656,
				"y": 4.9924485502,
				"z": -1.9628277214,
				"element": "N" 
			},
			{
				"x": -3.9052698042,
				"y": 4.5344507145,
				"z": -1.6919078285,
				"element": "O" 
			},
			{
				"x": -2.6082594084,
				"y": 6.0301025005,
				"z": -2.6096564478,
				"element": "O" 
			},
			{
				"x": -3.5450737379,
				"y": -2.2211578095,
				"z": 0.6536471228,
				"element": "H" 
			},
			{
				"x": -3.8373709939,
				"y": -1.2633289696,
				"z": -0.8113210405,
				"element": "H" 
			},
			{
				"x": -4.15181549,
				"y": -3.0081276318,
				"z": -0.8134380095,
				"element": "H" 
			},
			{
				"x": -2.6316938732,
				"y": -3.2800567981,
				"z": -2.8624157837,
				"element": "H" 
			},
			{
				"x": -0.9601355051,
				"y": -2.6929380755,
				"z": -2.8192273234,
				"element": "H" 
			},
			{
				"x": -2.3052450973,
				"y": -1.5372468757,
				"z": -2.8570295271,
				"element": "H" 
			},
			{
				"x": -2.7687911937,
				"y": -5.3584675857,
				"z": -1.1167650604,
				"element": "H" 
			},
			{
				"x": -1.5398664425,
				"y": -7.1642432374,
				"z": 0.0741618979,
				"element": "H" 
			},
			{
				"x": 0.4047779525,
				"y": -6.6222453201,
				"z": 1.5049873788,
				"element": "H" 
			},
			{
				"x": 1.1697819869,
				"y": -4.2762700278,
				"z": 1.771200609,
				"element": "H" 
			},
			{
				"x": 0.2764129659,
				"y": -0.544763612,
				"z": 1.7674785954,
				"element": "H" 
			},
			{
				"x": 0.7562870214,
				"y": -2.1350180238,
				"z": 2.3307496737,
				"element": "H" 
			},
			{
				"x": 2.0374862064,
				"y": -2.5693771559,
				"z": -0.7508436383,
				"element": "H" 
			},
			{
				"x": 4.3678830623,
				"y": -2.161897977,
				"z": -1.4666133856,
				"element": "H" 
			},
			{
				"x": 5.8163040614,
				"y": -0.6001012528,
				"z": -0.1852540412,
				"element": "H" 
			},
			{
				"x": 4.9077159024,
				"y": 0.555502545,
				"z": 1.8223955104,
				"element": "H" 
			},
			{
				"x": 2.5768930785,
				"y": 0.1489121646,
				"z": 2.5390644031,
				"element": "H" 
			},
			{
				"x": -2.0639799698,
				"y": 0.1735401331,
				"z": -1.1719731334,
				"element": "H" 
			},
			{
				"x": 0.723007315,
				"y": 0.6429104573,
				"z": 0.0198942901,
				"element": "H" 
			},
			{
				"x": 1.6088266639,
				"y": 2.686325478,
				"z": 0.0094733154,
				"element": "H" 
			},
			{
				"x": -0.5515631237,
				"y": 6.1142255278,
				"z": -1.4236244864,
				"element": "H" 
			}
		],
		 "valence_orbital": [ 
			{
				"type": "occ",
				"energy": -0.26802,
				"method": "rhf"
			},
			{
				"type": "occ",
				"energy": -0.25867,
				"method": "rhf"
			},
			{
				"type": "occ",
				"energy": -0.24,
				"method": "rhf"
			},
			{
				"type": "occ",
				"energy": -0.22733,
				"method": "rhf"
			},
			{
				"type": "occ",
				"energy": -0.19735,
				"method": "rhf"
			},
			{
				"type": "unocc",
				"energy": -0.10355,
				"method": "rhf"
			},
			{
				"type": "unocc",
				"energy": -0.05141,
				"method": "rhf"
			},
			{
				"type": "unocc",
				"energy": -0.03415,
				"method": "rhf"
			},
			{
				"type": "unocc",
				"energy": -0.02732,
				"method": "rhf"
			},
			{
				"type": "unocc",
				"energy": -0.02477,
				"method": "rhf"
			}
		],
		"cosmo_sigma_profile": { 
			"-0.025": 0.0,
			"-0.024": 0.0,
			"-0.023": 0.0,
			"-0.022": 0.0,
			"-0.021": 0.0,
			"-0.02": 0.0,
			"-0.019": 0.0,
			"-0.018": 0.0,
			"-0.017": 0.0,
			"-0.016": 0.0,
			"-0.015": 0.0,
			"-0.014": 0.0,
			"-0.013": 0.0,
			"-0.012": 0.0,
			"-0.011": 0.0,
			"-0.01": 0.000300306811054,
			"-0.009": 0.683896695934,
			"-0.008": 4.81823550453,
			"-0.007": 11.1848149851,
			"-0.006": 28.5513298475,
			"-0.005": 40.4156743895,
			"-0.004": 42.4818524341,
			"-0.003": 34.3549434953,
			"-0.002": 34.9919561852,
			"-0.001": 38.8709578544,
			"0.0": 38.412563599,
			"0.001": 34.8339539947,
			"0.002": 32.1320619318,
			"0.003": 26.6007820744,
			"0.004": 29.9546022768,
			"0.005": 20.301199739,
			"0.006": 5.77924072227,
			"0.007": 4.96730772825,
			"0.008": 7.7754424969,
			"0.009": 9.39014144205,
			"0.01": 6.9168814517,
			"0.011": 4.54926756892,
			"0.012": 2.5316932636,
			"0.013": 2.12291478378,
			"0.014": 2.28514292777,
			"0.015": 1.82875648622,
			"0.016": 1.37066681008,
			"0.017": 0.115833257474,
			"0.018": 0.0,
			"0.019": 0.0,
			"0.02": 0.0,
			"0.021": 0.0,
			"0.022": 0.0,
			"0.023": 0.0,
			"0.024": 0.0,
			"0.025": 0.0
		}
	}
}
