{
	 "smiles": "COC1=C(C=C(C)C=C1)C1=CSC(N)=N1", 
	 "Tm": 479.15, 
	 "num_atms": 27, 
	 "gaussian": { 
		 "optdone": 1, 
		 "sigma_profile": "yes", 
		 "theory": "DFT", 
		 "functional": "B3LYP", 
		 "basiset": "6-31G**", 
		 "properties": { 
			 "R2extent": 4662.6685, 
			 "electric_dipole_moment_norm": 1.08616343614, 
			 "electric_quadrupole_moment_norm": 15.4499241432, 
			 "total_energy": -1009.30866932, 
			 "HOMO_LUMO_gap": 0.17288, 
			 "cosmo_polarized_energy": -11.93, 
			 "cosmo_cavitation_energy": 32.27, 
			 "cosmo_dispersion_energy": -23.88, 
			 "cosmo_repulsion_energy": 1.84, 
			 "cosmo_total_nonelectrostatic_energy": 10.23, 
			 "SMD_solvation_energy": 4.77 
		},
		"coords": [
			{
				"x": -0.3425451542,
				"y": -2.5698040758,
				"z": 3.0564308257,
				"element": "C" 
			},
			{
				"x": 0.6940826121,
				"y": -1.6173983838,
				"z": 2.8145739928,
				"element": "O" 
			},
			{
				"x": 0.2785625488,
				"y": -0.4811392347,
				"z": 2.1407866468,
				"element": "C" 
			},
			{
				"x": 0.5686844583,
				"y": -0.3079947292,
				"z": 0.7729771901,
				"element": "C" 
			},
			{
				"x": 0.1289090558,
				"y": 0.881396912,
				"z": 0.1612956407,
				"element": "C" 
			},
			{
				"x": -0.5653521483,
				"y": 1.8740249414,
				"z": 0.8537461962,
				"element": "C" 
			},
			{
				"x": -0.999277184,
				"y": 3.1458092071,
				"z": 0.1617214932,
				"element": "C" 
			},
			{
				"x": -0.8307740465,
				"y": 1.6711717122,
				"z": 2.2154209595,
				"element": "C" 
			},
			{
				"x": -0.4120272094,
				"y": 0.5046971644,
				"z": 2.8481639559,
				"element": "C" 
			},
			{
				"x": 1.3058250437,
				"y": -1.2963750673,
				"z": -0.040596063,
				"element": "C" 
			},
			{
				"x": 2.0157903594,
				"y": -2.3783229781,
				"z": 0.4087940992,
				"element": "C" 
			},
			{
				"x": 2.7407095709,
				"y": -3.2352095862,
				"z": -0.9274353156,
				"element": "S" 
			},
			{
				"x": 2.0308600253,
				"y": -2.0312195232,
				"z": -2.0118332458,
				"element": "C" 
			},
			{
				"x": 2.1603359888,
				"y": -2.1429414335,
				"z": -3.3803122937,
				"element": "N" 
			},
			{
				"x": 1.3319314531,
				"y": -1.1120406839,
				"z": -1.4208778644,
				"element": "N" 
			},
			{
				"x": 0.1100201364,
				"y": -3.3890436213,
				"z": 3.619653221,
				"element": "H" 
			},
			{
				"x": -1.1572934804,
				"y": -2.1338826472,
				"z": 3.6478944548,
				"element": "H" 
			},
			{
				"x": -0.7528232992,
				"y": -2.9573117001,
				"z": 2.1154755716,
				"element": "H" 
			},
			{
				"x": 0.3456845514,
				"y": 1.0087773847,
				"z": -0.8937172622,
				"element": "H" 
			},
			{
				"x": -2.0334478545,
				"y": 3.405832132,
				"z": 0.4124583602,
				"element": "H" 
			},
			{
				"x": -0.3728675678,
				"y": 3.9960465777,
				"z": 0.4590054468,
				"element": "H" 
			},
			{
				"x": -0.9301755692,
				"y": 3.0508557366,
				"z": -0.9254230501,
				"element": "H" 
			},
			{
				"x": -1.3640309938,
				"y": 2.429529915,
				"z": 2.7835870374,
				"element": "H" 
			},
			{
				"x": -0.6042638802,
				"y": 0.3450879736,
				"z": 3.9050741973,
				"element": "H" 
			},
			{
				"x": 2.1783077738,
				"y": -2.6915660524,
				"z": 1.425970045,
				"element": "H" 
			},
			{
				"x": 1.8696844429,
				"y": -1.3042082778,
				"z": -3.8663246607,
				"element": "H" 
			},
			{
				"x": 3.0313903667,
				"y": -2.525271662,
				"z": -3.7207095787,
				"element": "H" 
			}
		],
		 "valence_orbital": [ 
			{
				"type": "occ",
				"energy": -0.27044,
				"method": "rhf"
			},
			{
				"type": "occ",
				"energy": -0.26596,
				"method": "rhf"
			},
			{
				"type": "occ",
				"energy": -0.24301,
				"method": "rhf"
			},
			{
				"type": "occ",
				"energy": -0.22672,
				"method": "rhf"
			},
			{
				"type": "occ",
				"energy": -0.19514,
				"method": "rhf"
			},
			{
				"type": "unocc",
				"energy": -0.02226,
				"method": "rhf"
			},
			{
				"type": "unocc",
				"energy": 0.00697,
				"method": "rhf"
			},
			{
				"type": "unocc",
				"energy": 0.01601,
				"method": "rhf"
			},
			{
				"type": "unocc",
				"energy": 0.02305,
				"method": "rhf"
			},
			{
				"type": "unocc",
				"energy": 0.07469,
				"method": "rhf"
			}
		],
		"cosmo_sigma_profile": { 
			"-0.025": 0.0,
			"-0.024": 0.0,
			"-0.023": 0.0,
			"-0.022": 0.0,
			"-0.021": 0.0,
			"-0.02": 0.0,
			"-0.019": 0.0,
			"-0.018": 0.0,
			"-0.017": 0.0,
			"-0.016": 0.0,
			"-0.015": 0.119065553561,
			"-0.014": 1.67387729716,
			"-0.013": 2.81230495312,
			"-0.012": 2.20695231296,
			"-0.011": 3.37793633188,
			"-0.01": 2.31761733518,
			"-0.009": 2.15799907804,
			"-0.008": 1.07097449907,
			"-0.007": 2.50979030123,
			"-0.006": 5.51560964594,
			"-0.005": 11.0324676602,
			"-0.004": 21.529110839,
			"-0.003": 22.5205017027,
			"-0.002": 22.541809703,
			"-0.001": 18.515004127,
			"0.0": 19.450925967,
			"0.001": 16.3471170172,
			"0.002": 16.9464164239,
			"0.003": 19.2647136992,
			"0.004": 23.8089429226,
			"0.005": 17.5798412906,
			"0.006": 8.2038618235,
			"0.007": 3.91105380885,
			"0.008": 3.29665833399,
			"0.009": 3.3620265413,
			"0.01": 2.64424942833,
			"0.011": 2.40900007596,
			"0.012": 1.42612018068,
			"0.013": 0.210320776699,
			"0.014": 0.0,
			"0.015": 0.0,
			"0.016": 0.0,
			"0.017": 0.0,
			"0.018": 0.0,
			"0.019": 0.0,
			"0.02": 0.0,
			"0.021": 0.0,
			"0.022": 0.0,
			"0.023": 0.0,
			"0.024": 0.0,
			"0.025": 0.0
		}
	}
}
