{
	 "smiles": "CC(=C)C#C", 
	 "Tm": 160.15, 
	 "num_atms": 11, 
	 "gaussian": { 
		 "optdone": 1, 
		 "sigma_profile": "yes", 
		 "theory": "DFT", 
		 "functional": "B3LYP", 
		 "basiset": "6-31G**", 
		 "properties": { 
			 "R2extent": 518.9022, 
			 "electric_dipole_moment_norm": 0.449729351944, 
			 "electric_quadrupole_moment_norm": 4.53886900119, 
			 "total_energy": -194.057867153, 
			 "HOMO_LUMO_gap": 0.21711, 
			 "cosmo_polarized_energy": -3.63, 
			 "cosmo_cavitation_energy": 15.71, 
			 "cosmo_dispersion_energy": -10.62, 
			 "cosmo_repulsion_energy": 0.93, 
			 "cosmo_total_nonelectrostatic_energy": 6.02, 
			 "SMD_solvation_energy": 5.09 
		},
		"coords": [
			{
				"x": -0.1464349638,
				"y": -1.7032918062,
				"z": 1.2831866212,
				"element": "C" 
			},
			{
				"x": 0.6659246661,
				"y": -0.9133874524,
				"z": 0.2795106301,
				"element": "C" 
			},
			{
				"x": 1.8342872595,
				"y": -1.3516364362,
				"z": -0.2189315991,
				"element": "C" 
			},
			{
				"x": 0.1208632661,
				"y": 0.3489478781,
				"z": -0.1229809432,
				"element": "C" 
			},
			{
				"x": -0.3810374039,
				"y": 1.4068743989,
				"z": -0.4309502699,
				"element": "C" 
			},
			{
				"x": -1.144926078,
				"y": -1.9218555139,
				"z": 0.8887560137,
				"element": "H" 
			},
			{
				"x": 0.3465060909,
				"y": -2.6473851189,
				"z": 1.528567143,
				"element": "H" 
			},
			{
				"x": -0.2857647644,
				"y": -1.1306972161,
				"z": 2.2067952894,
				"element": "H" 
			},
			{
				"x": 2.24679985,
				"y": -2.3083622725,
				"z": 0.0865351806,
				"element": "H" 
			},
			{
				"x": 2.400188494,
				"y": -0.7689716928,
				"z": -0.9375204473,
				"element": "H" 
			},
			{
				"x": -0.8067064166,
				"y": 2.341165232,
				"z": -0.7146676185,
				"element": "H" 
			}
		],
		 "valence_orbital": [ 
			{
				"type": "occ",
				"energy": -0.38651,
				"method": "rhf"
			},
			{
				"type": "occ",
				"energy": -0.36781,
				"method": "rhf"
			},
			{
				"type": "occ",
				"energy": -0.31374,
				"method": "rhf"
			},
			{
				"type": "occ",
				"energy": -0.26953,
				"method": "rhf"
			},
			{
				"type": "occ",
				"energy": -0.23522,
				"method": "rhf"
			},
			{
				"type": "unocc",
				"energy": -0.01811,
				"method": "rhf"
			},
			{
				"type": "unocc",
				"energy": 0.05434,
				"method": "rhf"
			},
			{
				"type": "unocc",
				"energy": 0.11238,
				"method": "rhf"
			},
			{
				"type": "unocc",
				"energy": 0.11283,
				"method": "rhf"
			},
			{
				"type": "unocc",
				"energy": 0.12505,
				"method": "rhf"
			}
		],
		"cosmo_sigma_profile": { 
			"-0.025": 0.0,
			"-0.024": 0.0,
			"-0.023": 0.0,
			"-0.022": 0.0,
			"-0.021": 0.0,
			"-0.02": 0.0,
			"-0.019": 0.0,
			"-0.018": 0.0,
			"-0.017": 0.0,
			"-0.016": 0.0,
			"-0.015": 0.0,
			"-0.014": 0.0,
			"-0.013": 0.0,
			"-0.012": 0.48901464449,
			"-0.011": 1.29318664951,
			"-0.01": 0.897363872927,
			"-0.009": 1.00403738335,
			"-0.008": 1.44942218239,
			"-0.007": 0.952138941788,
			"-0.006": 2.44400191513,
			"-0.005": 7.70152138379,
			"-0.004": 10.7639258521,
			"-0.003": 9.24490749564,
			"-0.002": 10.2056645839,
			"-0.001": 12.9754017023,
			"0.0": 12.226061908,
			"0.001": 8.20493482087,
			"0.002": 6.90046803511,
			"0.003": 7.68254869616,
			"0.004": 9.41372012147,
			"0.005": 8.44236728896,
			"0.006": 8.64647062512,
			"0.007": 5.09285361945,
			"0.008": 0.00607341655237,
			"0.009": 0.0,
			"0.01": 0.0,
			"0.011": 0.0,
			"0.012": 0.0,
			"0.013": 0.0,
			"0.014": 0.0,
			"0.015": 0.0,
			"0.016": 0.0,
			"0.017": 0.0,
			"0.018": 0.0,
			"0.019": 0.0,
			"0.02": 0.0,
			"0.021": 0.0,
			"0.022": 0.0,
			"0.023": 0.0,
			"0.024": 0.0,
			"0.025": 0.0
		}
	}
}
