{
	 "smiles": "CC1=CC(Br)=C(C=C1)C(O)=O", 
	 "Tm": 418.15, 
	 "num_atms": 18, 
	 "gaussian": { 
		 "optdone": 1, 
		 "sigma_profile": "yes", 
		 "theory": "DFT", 
		 "functional": "B3LYP", 
		 "basiset": "6-31G**", 
		 "properties": { 
			 "R2extent": 3262.13, 
			 "electric_dipole_moment_norm": 5.44126437604, 
			 "electric_quadrupole_moment_norm": 17.522820033, 
			 "total_energy": -3030.93592156, 
			 "HOMO_LUMO_gap": 0.20582, 
			 "cosmo_polarized_energy": -10.57, 
			 "cosmo_cavitation_energy": 24.2, 
			 "cosmo_dispersion_energy": -18.51, 
			 "cosmo_repulsion_energy": 1.47, 
			 "cosmo_total_nonelectrostatic_energy": 7.16, 
			 "SMD_solvation_energy": 4.38 
		},
		"coords": [
			{
				"x": 1.3689226776,
				"y": -2.4397560148,
				"z": 0.1588980054,
				"element": "C" 
			},
			{
				"x": 0.7268863835,
				"y": -1.1167056587,
				"z": 0.4947665878,
				"element": "C" 
			},
			{
				"x": -0.542216433,
				"y": -0.7893483266,
				"z": 0.0121027244,
				"element": "C" 
			},
			{
				"x": -1.1349692658,
				"y": 0.4350811752,
				"z": 0.3227387192,
				"element": "C" 
			},
			{
				"x": -2.8907288199,
				"y": 0.6840441088,
				"z": -0.4475238554,
				"element": "Br" 
			},
			{
				"x": -0.4943010957,
				"y": 1.3903723033,
				"z": 1.127002607,
				"element": "C" 
			},
			{
				"x": 0.784748567,
				"y": 1.0374949373,
				"z": 1.6018381459,
				"element": "C" 
			},
			{
				"x": 1.3833006463,
				"y": -0.1751565686,
				"z": 1.3001931568,
				"element": "C" 
			},
			{
				"x": -0.9599818513,
				"y": 2.7639854919,
				"z": 1.5770871022,
				"element": "C" 
			},
			{
				"x": -2.1644201334,
				"y": 3.2210504067,
				"z": 1.1987299661,
				"element": "O" 
			},
			{
				"x": -0.2517696879,
				"y": 3.4536333079,
				"z": 2.2778036369,
				"element": "O" 
			},
			{
				"x": 0.7199973929,
				"y": -3.0558673751,
				"z": -0.4683273882,
				"element": "H" 
			},
			{
				"x": 2.314242474,
				"y": -2.2922415763,
				"z": -0.3751613734,
				"element": "H" 
			},
			{
				"x": 1.5979030253,
				"y": -3.0065167022,
				"z": 1.0681749297,
				"element": "H" 
			},
			{
				"x": -1.0800232681,
				"y": -1.4928519799,
				"z": -0.6138144399,
				"element": "H" 
			},
			{
				"x": 1.2870512656,
				"y": 1.769530068,
				"z": 2.2237278022,
				"element": "H" 
			},
			{
				"x": 2.3718559816,
				"y": -0.3968385666,
				"z": 1.6929675847,
				"element": "H" 
			},
			{
				"x": -2.6390978583,
				"y": 2.5807909697,
				"z": 0.6397960887,
				"element": "H" 
			}
		],
		 "valence_orbital": [ 
			{
				"type": "occ",
				"energy": -0.31695,
				"method": "rhf"
			},
			{
				"type": "occ",
				"energy": -0.30907,
				"method": "rhf"
			},
			{
				"type": "occ",
				"energy": -0.27289,
				"method": "rhf"
			},
			{
				"type": "occ",
				"energy": -0.27031,
				"method": "rhf"
			},
			{
				"type": "occ",
				"energy": -0.2638,
				"method": "rhf"
			},
			{
				"type": "unocc",
				"energy": -0.05798,
				"method": "rhf"
			},
			{
				"type": "unocc",
				"energy": -0.02841,
				"method": "rhf"
			},
			{
				"type": "unocc",
				"energy": -0.02419,
				"method": "rhf"
			},
			{
				"type": "unocc",
				"energy": 0.04703,
				"method": "rhf"
			},
			{
				"type": "unocc",
				"energy": 0.09096,
				"method": "rhf"
			}
		],
		"cosmo_sigma_profile": { 
			"-0.025": 0.0,
			"-0.024": 0.0,
			"-0.023": 0.0,
			"-0.022": 0.0,
			"-0.021": 0.0,
			"-0.02": 0.0,
			"-0.019": 0.0,
			"-0.018": 0.0,
			"-0.017": 0.0,
			"-0.016": 0.0,
			"-0.015": 0.0,
			"-0.014": 0.0,
			"-0.013": 0.0,
			"-0.012": 0.0,
			"-0.011": 0.0,
			"-0.01": 0.410880319558,
			"-0.009": 1.22176218645,
			"-0.008": 1.83124305242,
			"-0.007": 5.85767095741,
			"-0.006": 8.96779452004,
			"-0.005": 16.1905998315,
			"-0.004": 16.873234945,
			"-0.003": 16.1614474393,
			"-0.002": 15.9673900029,
			"-0.001": 17.8805743257,
			"0.0": 17.5681367094,
			"0.001": 17.2036069429,
			"0.002": 20.2376686802,
			"0.003": 9.95534015909,
			"0.004": 2.55372681705,
			"0.005": 2.03064559357,
			"0.006": 2.06336811254,
			"0.007": 2.5693081405,
			"0.008": 2.60708726114,
			"0.009": 3.07330565952,
			"0.01": 3.49547747152,
			"0.011": 5.87364199127,
			"0.012": 4.25366461594,
			"0.013": 1.98650792579,
			"0.014": 0.212898099176,
			"0.015": 0.0,
			"0.016": 0.0,
			"0.017": 0.0,
			"0.018": 0.0,
			"0.019": 0.0,
			"0.02": 0.0,
			"0.021": 0.0,
			"0.022": 0.0,
			"0.023": 0.0,
			"0.024": 0.0,
			"0.025": 0.0
		}
	}
}
