{
	 "smiles": "CCOC(=O)C1=C(C)NC2=CC3=C(C=C12)C(C(=O)OCC)=C(C)N3", 
	 "Tm": 615.15, 
	 "num_atms": 44, 
	 "gaussian": { 
		 "optdone": 1, 
		 "sigma_profile": "yes", 
		 "theory": "DFT", 
		 "functional": "B3LYP", 
		 "basiset": "6-31G**", 
		 "properties": { 
			 "R2extent": 9502.0707, 
			 "electric_dipole_moment_norm": 4.3249962104, 
			 "electric_quadrupole_moment_norm": 32.6366822366, 
			 "total_energy": -1108.44362305, 
			 "HOMO_LUMO_gap": 0.15996, 
			 "cosmo_polarized_energy": -24.48, 
			 "cosmo_cavitation_energy": 47.68, 
			 "cosmo_dispersion_energy": -32.39, 
			 "cosmo_repulsion_energy": 2.44, 
			 "cosmo_total_nonelectrostatic_energy": 17.73, 
			 "SMD_solvation_energy": 9.23 
		},
		"coords": [
			{
				"x": -2.0022645023,
				"y": 4.4071141747,
				"z": 0.0119603007,
				"element": "C" 
			},
			{
				"x": -1.0077983232,
				"y": 3.8671022628,
				"z": 1.0301492888,
				"element": "C" 
			},
			{
				"x": -0.8437299845,
				"y": 2.4390554011,
				"z": 0.9026530951,
				"element": "O" 
			},
			{
				"x": -1.7503465194,
				"y": 1.6656812468,
				"z": 1.5603847262,
				"element": "C" 
			},
			{
				"x": -2.6569472244,
				"y": 2.1372313317,
				"z": 2.2341298689,
				"element": "O" 
			},
			{
				"x": -1.5070711459,
				"y": 0.2413131222,
				"z": 1.367886479,
				"element": "C" 
			},
			{
				"x": -2.3071928583,
				"y": -0.7329113666,
				"z": 1.9493311871,
				"element": "C" 
			},
			{
				"x": -3.5046950667,
				"y": -0.6053171133,
				"z": 2.8336772312,
				"element": "C" 
			},
			{
				"x": -1.8277398021,
				"y": -1.9654088789,
				"z": 1.5828631836,
				"element": "N" 
			},
			{
				"x": -0.7154154576,
				"y": -1.834964079,
				"z": 0.7620644303,
				"element": "C" 
			},
			{
				"x": 0.0661150676,
				"y": -2.8264144876,
				"z": 0.1744116797,
				"element": "C" 
			},
			{
				"x": 1.121807876,
				"y": -2.3535569142,
				"z": -0.6009101612,
				"element": "C" 
			},
			{
				"x": 1.4036829037,
				"y": -0.9663397793,
				"z": -0.7946314868,
				"element": "C" 
			},
			{
				"x": 0.5955516165,
				"y": 0.0014891348,
				"z": -0.1877738923,
				"element": "C" 
			},
			{
				"x": -0.4755898208,
				"y": -0.4361109338,
				"z": 0.5990711081,
				"element": "C" 
			},
			{
				"x": 2.5720445355,
				"y": -0.9097165573,
				"z": -1.657910107,
				"element": "C" 
			},
			{
				"x": 3.2984099488,
				"y": 0.241376811,
				"z": -2.1814197157,
				"element": "C" 
			},
			{
				"x": 4.2789589078,
				"y": 0.1820693751,
				"z": -2.9108147975,
				"element": "O" 
			},
			{
				"x": 2.7689429278,
				"y": 1.4244885833,
				"z": -1.7706586632,
				"element": "O" 
			},
			{
				"x": 3.4395646799,
				"y": 2.6062235706,
				"z": -2.2507276871,
				"element": "C" 
			},
			{
				"x": 2.7156089295,
				"y": 3.8089518412,
				"z": -1.6737852315,
				"element": "C" 
			},
			{
				"x": 2.9451082636,
				"y": -2.214947242,
				"z": -1.9476920711,
				"element": "C" 
			},
			{
				"x": 4.0664342865,
				"y": -2.7413534012,
				"z": -2.7830958114,
				"element": "C" 
			},
			{
				"x": 2.0756851152,
				"y": -3.067175749,
				"z": -1.3138235123,
				"element": "N" 
			},
			{
				"x": -2.048659279,
				"y": 5.4996779855,
				"z": 0.0767498273,
				"element": "H" 
			},
			{
				"x": -3.0005886339,
				"y": 4.0082668176,
				"z": 0.2068496435,
				"element": "H" 
			},
			{
				"x": -1.7045244244,
				"y": 4.1348200291,
				"z": -1.0051668658,
				"element": "H" 
			},
			{
				"x": -0.0066942655,
				"y": 4.272902619,
				"z": 0.8624813372,
				"element": "H" 
			},
			{
				"x": -1.327481334,
				"y": 4.098810376,
				"z": 2.0489533308,
				"element": "H" 
			},
			{
				"x": -3.2659930645,
				"y": -0.0250024559,
				"z": 3.7286646817,
				"element": "H" 
			},
			{
				"x": -3.8780595979,
				"y": -1.5893928972,
				"z": 3.1351003493,
				"element": "H" 
			},
			{
				"x": -4.307112735,
				"y": -0.0624776813,
				"z": 2.3261912723,
				"element": "H" 
			},
			{
				"x": -2.2343454634,
				"y": -2.8397812621,
				"z": 1.8756414499,
				"element": "H" 
			},
			{
				"x": -0.1322941384,
				"y": -3.8855883835,
				"z": 0.309947715,
				"element": "H" 
			},
			{
				"x": 0.792069929,
				"y": 1.055117244,
				"z": -0.3227863317,
				"element": "H" 
			},
			{
				"x": 4.4892011974,
				"y": 2.5733840545,
				"z": -1.9408984823,
				"element": "H" 
			},
			{
				"x": 3.4245341174,
				"y": 2.6067034366,
				"z": -3.3456877523,
				"element": "H" 
			},
			{
				"x": 1.6691591654,
				"y": 3.8246804812,
				"z": -1.9926029789,
				"element": "H" 
			},
			{
				"x": 2.7421733813,
				"y": 3.7920520016,
				"z": -0.5801148782,
				"element": "H" 
			},
			{
				"x": 3.194090698,
				"y": 4.7322044098,
				"z": -2.015951738,
				"element": "H" 
			},
			{
				"x": 4.0735025472,
				"y": -3.8361688335,
				"z": -2.7877432211,
				"element": "H" 
			},
			{
				"x": 5.0295945246,
				"y": -2.3810010419,
				"z": -2.4120139729,
				"element": "H" 
			},
			{
				"x": 3.9857733456,
				"y": -2.3825136091,
				"z": -3.8128202669,
				"element": "H" 
			},
			{
				"x": 2.1311296771,
				"y": -4.0720736437,
				"z": -1.3652325606,
				"element": "H" 
			}
		],
		 "valence_orbital": [ 
			{
				"type": "occ",
				"energy": -0.25401,
				"method": "rhf"
			},
			{
				"type": "occ",
				"energy": -0.25268,
				"method": "rhf"
			},
			{
				"type": "occ",
				"energy": -0.24627,
				"method": "rhf"
			},
			{
				"type": "occ",
				"energy": -0.20121,
				"method": "rhf"
			},
			{
				"type": "occ",
				"energy": -0.18573,
				"method": "rhf"
			},
			{
				"type": "unocc",
				"energy": -0.02577,
				"method": "rhf"
			},
			{
				"type": "unocc",
				"energy": -0.00324,
				"method": "rhf"
			},
			{
				"type": "unocc",
				"energy": 0.02051,
				"method": "rhf"
			},
			{
				"type": "unocc",
				"energy": 0.03947,
				"method": "rhf"
			},
			{
				"type": "unocc",
				"energy": 0.07249,
				"method": "rhf"
			}
		],
		"cosmo_sigma_profile": { 
			"-0.025": 0.0,
			"-0.024": 0.0,
			"-0.023": 0.0,
			"-0.022": 0.0,
			"-0.021": 0.0,
			"-0.02": 0.0,
			"-0.019": 0.0,
			"-0.018": 0.0,
			"-0.017": 0.0,
			"-0.016": 1.54817128702,
			"-0.015": 2.78787356751,
			"-0.014": 2.80163738775,
			"-0.013": 2.90603238877,
			"-0.012": 2.77103538514,
			"-0.011": 3.30530787275,
			"-0.01": 3.11091349336,
			"-0.009": 2.91151672337,
			"-0.008": 3.40892582956,
			"-0.007": 5.01471274624,
			"-0.006": 4.56915776439,
			"-0.005": 13.3333383673,
			"-0.004": 27.5595413211,
			"-0.003": 35.1810663561,
			"-0.002": 37.7813119608,
			"-0.001": 37.8580644236,
			"0.0": 30.4918130889,
			"0.001": 22.0832797952,
			"0.002": 20.9236865121,
			"0.003": 22.689056381,
			"0.004": 22.3534721005,
			"0.005": 24.7598506886,
			"0.006": 16.7784311209,
			"0.007": 5.26093163238,
			"0.008": 3.20074345243,
			"0.009": 3.74531936037,
			"0.01": 3.23501735428,
			"0.011": 2.68063356366,
			"0.012": 4.3217784717,
			"0.013": 6.1011155313,
			"0.014": 1.49958489484,
			"0.015": 0.0,
			"0.016": 0.0,
			"0.017": 0.0,
			"0.018": 0.0,
			"0.019": 0.0,
			"0.02": 0.0,
			"0.021": 0.0,
			"0.022": 0.0,
			"0.023": 0.0,
			"0.024": 0.0,
			"0.025": 0.0
		}
	}
}
