{
	 "smiles": "O=C(C=NNC1=CC=CC=C1)C1=CC=C(C=C1)C(=O)C=NNC1=CC=CC=C1", 
	 "Tm": 483.15, 
	 "num_atms": 46, 
	 "gaussian": { 
		 "optdone": 1, 
		 "sigma_profile": "yes", 
		 "theory": "DFT", 
		 "functional": "B3LYP", 
		 "basiset": "6-31G**", 
		 "properties": { 
			 "R2extent": 14531.3603, 
			 "electric_dipole_moment_norm": 6.98347132163, 
			 "electric_quadrupole_moment_norm": 33.5513037581, 
			 "total_energy": -1218.56875035, 
			 "HOMO_LUMO_gap": 0.13323, 
			 "cosmo_polarized_energy": -25.51, 
			 "cosmo_cavitation_energy": 53.63, 
			 "cosmo_dispersion_energy": -35.19, 
			 "cosmo_repulsion_energy": 2.57, 
			 "cosmo_total_nonelectrostatic_energy": 21.0, 
			 "SMD_solvation_energy": 9.97 
		},
		"coords": [
			{
				"x": -0.9204382565,
				"y": 6.0198759069,
				"z": 1.4405797217,
				"element": "O" 
			},
			{
				"x": -0.4932433864,
				"y": 4.9214694063,
				"z": 1.0906689749,
				"element": "C" 
			},
			{
				"x": 0.8623309119,
				"y": 4.5336103577,
				"z": 1.5336943085,
				"element": "C" 
			},
			{
				"x": 1.2868669874,
				"y": 3.3143105486,
				"z": 1.4743731783,
				"element": "N" 
			},
			{
				"x": 2.4891129294,
				"y": 3.0218361171,
				"z": 1.9532095073,
				"element": "N" 
			},
			{
				"x": 2.9737022066,
				"y": 1.7063673557,
				"z": 1.9822618896,
				"element": "C" 
			},
			{
				"x": 4.2804227446,
				"y": 1.483288804,
				"z": 2.4386037097,
				"element": "C" 
			},
			{
				"x": 4.7883422238,
				"y": 0.18657286,
				"z": 2.4831002334,
				"element": "C" 
			},
			{
				"x": 4.0057044664,
				"y": -0.8952114921,
				"z": 2.0755440259,
				"element": "C" 
			},
			{
				"x": 2.7032717021,
				"y": -0.6642333952,
				"z": 1.6238432386,
				"element": "C" 
			},
			{
				"x": 2.1791246053,
				"y": 0.6254398094,
				"z": 1.5732020029,
				"element": "C" 
			},
			{
				"x": -1.3422544253,
				"y": 3.9959449314,
				"z": 0.2709085718,
				"element": "C" 
			},
			{
				"x": -0.8185072933,
				"y": 3.0680314631,
				"z": -0.640939082,
				"element": "C" 
			},
			{
				"x": -1.6669711592,
				"y": 2.2577108142,
				"z": -1.3923483785,
				"element": "C" 
			},
			{
				"x": -3.0586783547,
				"y": 2.3500103596,
				"z": -1.2396068725,
				"element": "C" 
			},
			{
				"x": -3.581696458,
				"y": 3.3083593079,
				"z": -0.3539556353,
				"element": "C" 
			},
			{
				"x": -2.736406906,
				"y": 4.1232533864,
				"z": 0.3862038077,
				"element": "C" 
			},
			{
				"x": -4.0499982712,
				"y": 1.5211587483,
				"z": -2.0032994516,
				"element": "C" 
			},
			{
				"x": -5.212801735,
				"y": 1.9032678029,
				"z": -2.1293998313,
				"element": "O" 
			},
			{
				"x": -3.7046521339,
				"y": 0.2138979123,
				"z": -2.6012727516,
				"element": "C" 
			},
			{
				"x": -2.5865682598,
				"y": -0.3986465326,
				"z": -2.3899537935,
				"element": "N" 
			},
			{
				"x": -2.3975835711,
				"y": -1.5961774691,
				"z": -2.9300217309,
				"element": "N" 
			},
			{
				"x": -1.2060959384,
				"y": -2.3128051129,
				"z": -2.7538776026,
				"element": "C" 
			},
			{
				"x": -1.0775175732,
				"y": -3.5609000997,
				"z": -3.3798149454,
				"element": "C" 
			},
			{
				"x": 0.0973906478,
				"y": -4.2947453552,
				"z": -3.2308076139,
				"element": "C" 
			},
			{
				"x": 1.151679828,
				"y": -3.7965771317,
				"z": -2.4631823447,
				"element": "C" 
			},
			{
				"x": 1.0152049594,
				"y": -2.5524773646,
				"z": -1.8413028333,
				"element": "C" 
			},
			{
				"x": -0.1539586819,
				"y": -1.8075269282,
				"z": -1.9762183386,
				"element": "C" 
			},
			{
				"x": 1.4419690569,
				"y": 5.3412933614,
				"z": 1.99595832,
				"element": "H" 
			},
			{
				"x": 3.0648302244,
				"y": 3.7588739512,
				"z": 2.3562374831,
				"element": "H" 
			},
			{
				"x": 4.8953753214,
				"y": 2.3226725242,
				"z": 2.7547893466,
				"element": "H" 
			},
			{
				"x": 5.8017869042,
				"y": 0.0248456876,
				"z": 2.8384477217,
				"element": "H" 
			},
			{
				"x": 4.4028540531,
				"y": -1.9045880756,
				"z": 2.114112852,
				"element": "H" 
			},
			{
				"x": 2.079222396,
				"y": -1.4987596641,
				"z": 1.3160570718,
				"element": "H" 
			},
			{
				"x": 1.1672272315,
				"y": 0.8093009985,
				"z": 1.2331432244,
				"element": "H" 
			},
			{
				"x": 0.2529078939,
				"y": 2.9845416329,
				"z": -0.772733801,
				"element": "H" 
			},
			{
				"x": -1.2461325134,
				"y": 1.5572902803,
				"z": -2.1011582292,
				"element": "H" 
			},
			{
				"x": -4.6594030656,
				"y": 3.3941060588,
				"z": -0.2667255302,
				"element": "H" 
			},
			{
				"x": -3.1338852532,
				"y": 4.8685058445,
				"z": 1.0670707971,
				"element": "H" 
			},
			{
				"x": -4.5127907367,
				"y": -0.2270917731,
				"z": -3.197088081,
				"element": "H" 
			},
			{
				"x": -3.131186474,
				"y": -2.0108166198,
				"z": -3.5019075762,
				"element": "H" 
			},
			{
				"x": -1.8940268371,
				"y": -3.9523443863,
				"z": -3.9821386593,
				"element": "H" 
			},
			{
				"x": 0.1863195246,
				"y": -5.2600658009,
				"z": -3.7204711553,
				"element": "H" 
			},
			{
				"x": 2.067028622,
				"y": -4.3690306215,
				"z": -2.351619264,
				"element": "H" 
			},
			{
				"x": 1.8289869206,
				"y": -2.1505507449,
				"z": -1.2440965719,
				"element": "H" 
			},
			{
				"x": -0.2657650772,
				"y": -0.8462876639,
				"z": -1.489869913,
				"element": "H" 
			}
		],
		 "valence_orbital": [ 
			{
				"type": "occ",
				"energy": -0.254,
				"method": "rhf"
			},
			{
				"type": "occ",
				"energy": -0.24878,
				"method": "rhf"
			},
			{
				"type": "occ",
				"energy": -0.24517,
				"method": "rhf"
			},
			{
				"type": "occ",
				"energy": -0.21602,
				"method": "rhf"
			},
			{
				"type": "occ",
				"energy": -0.21547,
				"method": "rhf"
			},
			{
				"type": "unocc",
				"energy": -0.08224,
				"method": "rhf"
			},
			{
				"type": "unocc",
				"energy": -0.0623,
				"method": "rhf"
			},
			{
				"type": "unocc",
				"energy": -0.02317,
				"method": "rhf"
			},
			{
				"type": "unocc",
				"energy": -0.01278,
				"method": "rhf"
			},
			{
				"type": "unocc",
				"energy": -0.01135,
				"method": "rhf"
			}
		],
		"cosmo_sigma_profile": { 
			"-0.025": 0.0,
			"-0.024": 0.0,
			"-0.023": 0.0,
			"-0.022": 0.0,
			"-0.021": 0.0,
			"-0.02": 0.0,
			"-0.019": 0.0,
			"-0.018": 0.0,
			"-0.017": 0.0,
			"-0.016": 0.571208479193,
			"-0.015": 3.77665515761,
			"-0.014": 3.72010120558,
			"-0.013": 3.77888881978,
			"-0.012": 3.25751021399,
			"-0.011": 2.63873049619,
			"-0.01": 2.78808827325,
			"-0.009": 3.5534202642,
			"-0.008": 4.73954362663,
			"-0.007": 5.5909764773,
			"-0.006": 13.1318200201,
			"-0.005": 22.3929617287,
			"-0.004": 32.2824131402,
			"-0.003": 32.6621525094,
			"-0.002": 31.0305269515,
			"-0.001": 30.7012895601,
			"0.0": 31.4426843441,
			"0.001": 32.9382843077,
			"0.002": 36.0717702204,
			"0.003": 36.1024848285,
			"0.004": 26.4252553918,
			"0.005": 25.4794406163,
			"0.006": 13.4623205052,
			"0.007": 3.27685000401,
			"0.008": 3.24115747375,
			"0.009": 2.89331823163,
			"0.01": 3.71094624232,
			"0.011": 4.94760872181,
			"0.012": 8.58791221021,
			"0.013": 5.35790926529,
			"0.014": 0.428745568208,
			"0.015": 0.0,
			"0.016": 0.0,
			"0.017": 0.0,
			"0.018": 0.0,
			"0.019": 0.0,
			"0.02": 0.0,
			"0.021": 0.0,
			"0.022": 0.0,
			"0.023": 0.0,
			"0.024": 0.0,
			"0.025": 0.0
		}
	}
}
