{
	 "smiles": "NC(=O)C1=C(N)SC2=C1CCCC2", 
	 "Tm": 427.15, 
	 "num_atms": 25, 
	 "gaussian": { 
		 "optdone": 1, 
		 "sigma_profile": "yes", 
		 "theory": "DFT", 
		 "functional": "B3LYP", 
		 "basiset": "6-31G**", 
		 "properties": { 
			 "R2extent": 3472.8349, 
			 "electric_dipole_moment_norm": 2.37838430242, 
			 "electric_quadrupole_moment_norm": 13.8264374038, 
			 "total_energy": -933.134312049, 
			 "HOMO_LUMO_gap": 0.17867, 
			 "cosmo_polarized_energy": -12.47, 
			 "cosmo_cavitation_energy": 27.77, 
			 "cosmo_dispersion_energy": -21.84, 
			 "cosmo_repulsion_energy": 1.69, 
			 "cosmo_total_nonelectrostatic_energy": 7.62, 
			 "SMD_solvation_energy": 3.94 
		},
		"coords": [
			{
				"x": 3.039346552,
				"y": 0.9044692219,
				"z": -1.8685171321,
				"element": "N" 
			},
			{
				"x": 2.998535154,
				"y": -0.4368932424,
				"z": -1.5530774803,
				"element": "C" 
			},
			{
				"x": 3.7914469829,
				"y": -1.2080774092,
				"z": -2.1194245899,
				"element": "O" 
			},
			{
				"x": 2.0007386406,
				"y": -0.9047803898,
				"z": -0.5789004084,
				"element": "C" 
			},
			{
				"x": 2.0599811615,
				"y": -2.2313561047,
				"z": -0.1474594977,
				"element": "C" 
			},
			{
				"x": 2.9857673052,
				"y": -3.167637664,
				"z": -0.489091199,
				"element": "N" 
			},
			{
				"x": 0.8043841618,
				"y": -2.589437997,
				"z": 1.0172254791,
				"element": "S" 
			},
			{
				"x": 0.1652998357,
				"y": -0.9496247134,
				"z": 0.9024819504,
				"element": "C" 
			},
			{
				"x": 0.8863041099,
				"y": -0.1895391486,
				"z": 0.030588778,
				"element": "C" 
			},
			{
				"x": 0.4703580169,
				"y": 1.2399231957,
				"z": -0.2534065384,
				"element": "C" 
			},
			{
				"x": -0.9553273476,
				"y": 1.5409016606,
				"z": 0.2410342756,
				"element": "C" 
			},
			{
				"x": -1.188881746,
				"y": 1.0002240993,
				"z": 1.6564578688,
				"element": "C" 
			},
			{
				"x": -1.0501481356,
				"y": -0.531451374,
				"z": 1.6818493807,
				"element": "C" 
			},
			{
				"x": 3.8454981063,
				"y": 1.168140878,
				"z": -2.4175318974,
				"element": "H" 
			},
			{
				"x": 2.6943725813,
				"y": 1.5903031223,
				"z": -1.2167168392,
				"element": "H" 
			},
			{
				"x": 3.5474638183,
				"y": -2.8824522702,
				"z": -1.2912421974,
				"element": "H" 
			},
			{
				"x": 2.7583612862,
				"y": -4.1425862251,
				"z": -0.3719347378,
				"element": "H" 
			},
			{
				"x": 0.5334692496,
				"y": 1.4422219463,
				"z": -1.3282439379,
				"element": "H" 
			},
			{
				"x": 1.1695379654,
				"y": 1.9374424518,
				"z": 0.2376257809,
				"element": "H" 
			},
			{
				"x": -1.1339755534,
				"y": 2.6214769015,
				"z": 0.206476461,
				"element": "H" 
			},
			{
				"x": -1.677942876,
				"y": 1.078968103,
				"z": -0.44430834,
				"element": "H" 
			},
			{
				"x": -2.1807965903,
				"y": 1.2888155376,
				"z": 2.0214761065,
				"element": "H" 
			},
			{
				"x": -0.4546702525,
				"y": 1.4439767247,
				"z": 2.3414553256,
				"element": "H" 
			},
			{
				"x": -1.9542013954,
				"y": -0.9918295072,
				"z": 1.2554674607,
				"element": "H" 
			},
			{
				"x": -0.9891210308,
				"y": -0.8864977969,
				"z": 2.7185159282,
				"element": "H" 
			}
		],
		 "valence_orbital": [ 
			{
				"type": "occ",
				"energy": -0.2945,
				"method": "rhf"
			},
			{
				"type": "occ",
				"energy": -0.26391,
				"method": "rhf"
			},
			{
				"type": "occ",
				"energy": -0.24681,
				"method": "rhf"
			},
			{
				"type": "occ",
				"energy": -0.24039,
				"method": "rhf"
			},
			{
				"type": "occ",
				"energy": -0.1851,
				"method": "rhf"
			},
			{
				"type": "unocc",
				"energy": -0.00643,
				"method": "rhf"
			},
			{
				"type": "unocc",
				"energy": 0.01658,
				"method": "rhf"
			},
			{
				"type": "unocc",
				"energy": 0.02439,
				"method": "rhf"
			},
			{
				"type": "unocc",
				"energy": 0.07773,
				"method": "rhf"
			},
			{
				"type": "unocc",
				"energy": 0.09088,
				"method": "rhf"
			}
		],
		"cosmo_sigma_profile": { 
			"-0.025": 0.0,
			"-0.024": 0.0,
			"-0.023": 0.0,
			"-0.022": 0.0,
			"-0.021": 0.0,
			"-0.02": 0.0,
			"-0.019": 0.0,
			"-0.018": 0.0,
			"-0.017": 0.0,
			"-0.016": 0.0,
			"-0.015": 0.0887484634745,
			"-0.014": 0.890248748528,
			"-0.013": 2.47550093817,
			"-0.012": 2.38227833069,
			"-0.011": 4.15187979476,
			"-0.01": 3.27299688209,
			"-0.009": 3.96230000276,
			"-0.008": 5.1414806262,
			"-0.007": 2.96068225912,
			"-0.006": 3.2751571488,
			"-0.005": 4.04191576038,
			"-0.004": 7.60584423929,
			"-0.003": 17.876625007,
			"-0.002": 26.7026197164,
			"-0.001": 24.1822849543,
			"0.0": 20.3219199899,
			"0.001": 12.9113676338,
			"0.002": 10.4138473459,
			"0.003": 12.1419992106,
			"0.004": 13.9060116634,
			"0.005": 14.7112256789,
			"0.006": 7.52121343814,
			"0.007": 2.33410190276,
			"0.008": 2.3383992086,
			"0.009": 3.16131369103,
			"0.01": 2.48975877821,
			"0.011": 1.70495439888,
			"0.012": 1.43949328713,
			"0.013": 2.35961967072,
			"0.014": 2.27529366708,
			"0.015": 1.06857067899,
			"0.016": 0.0,
			"0.017": 0.0,
			"0.018": 0.0,
			"0.019": 0.0,
			"0.02": 0.0,
			"0.021": 0.0,
			"0.022": 0.0,
			"0.023": 0.0,
			"0.024": 0.0,
			"0.025": 0.0
		}
	}
}
