{
	 "smiles": "O=C(CCCC1=CC=CC=C1)C1=CC=CC=C1", 
	 "Tm": 330.15, 
	 "num_atms": 33, 
	 "gaussian": { 
		 "optdone": 1, 
		 "sigma_profile": "yes", 
		 "theory": "DFT", 
		 "functional": "B3LYP", 
		 "basiset": "6-31G**", 
		 "properties": { 
			 "R2extent": 6503.7651, 
			 "electric_dipole_moment_norm": 3.12592640668, 
			 "electric_quadrupole_moment_norm": 11.7757598086, 
			 "total_energy": -694.582548344, 
			 "HOMO_LUMO_gap": 0.1741, 
			 "cosmo_polarized_energy": -9.14, 
			 "cosmo_cavitation_energy": 35.74, 
			 "cosmo_dispersion_energy": -25.4, 
			 "cosmo_repulsion_energy": 1.95, 
			 "cosmo_total_nonelectrostatic_energy": 12.29, 
			 "SMD_solvation_energy": 5.92 
		},
		"coords": [
			{
				"x": -0.812449974,
				"y": 0.5768282111,
				"z": 1.762824258,
				"element": "O" 
			},
			{
				"x": 0.1510115793,
				"y": -0.1602013782,
				"z": 1.5833989287,
				"element": "C" 
			},
			{
				"x": 0.4447920242,
				"y": -0.7064705245,
				"z": 0.1935040874,
				"element": "C" 
			},
			{
				"x": -0.2269379694,
				"y": -2.0801447719,
				"z": -0.0487787795,
				"element": "C" 
			},
			{
				"x": -1.7724177153,
				"y": -2.0474732525,
				"z": -0.0621924234,
				"element": "C" 
			},
			{
				"x": -2.3631723182,
				"y": -1.2903990513,
				"z": -1.2348872849,
				"element": "C" 
			},
			{
				"x": -2.6735878501,
				"y": 0.0742457847,
				"z": -1.1347765711,
				"element": "C" 
			},
			{
				"x": -3.2007703634,
				"y": 0.7666518116,
				"z": -2.2270199039,
				"element": "C" 
			},
			{
				"x": -3.4275329788,
				"y": 0.1078121713,
				"z": -3.4366278721,
				"element": "C" 
			},
			{
				"x": -3.1231018086,
				"y": -1.250447994,
				"z": -3.5480584588,
				"element": "C" 
			},
			{
				"x": -2.5964853784,
				"y": -1.9403129573,
				"z": -2.4554372142,
				"element": "C" 
			},
			{
				"x": 1.01325401,
				"y": -0.5597258228,
				"z": 2.7458913724,
				"element": "C" 
			},
			{
				"x": 2.1197241423,
				"y": -1.4154989712,
				"z": 2.6261750831,
				"element": "C" 
			},
			{
				"x": 2.8762289341,
				"y": -1.7536825251,
				"z": 3.748611419,
				"element": "C" 
			},
			{
				"x": 2.5384686289,
				"y": -1.238198565,
				"z": 5.0009701815,
				"element": "C" 
			},
			{
				"x": 1.4384947304,
				"y": -0.3842332003,
				"z": 5.1309516216,
				"element": "C" 
			},
			{
				"x": 0.6816530014,
				"y": -0.0502605085,
				"z": 4.012788325,
				"element": "C" 
			},
			{
				"x": 1.5229172693,
				"y": -0.7967810937,
				"z": 0.029090203,
				"element": "H" 
			},
			{
				"x": 0.0585184224,
				"y": 0.020731494,
				"z": -0.5252000271,
				"element": "H" 
			},
			{
				"x": 0.1054961285,
				"y": -2.7892024779,
				"z": 0.7196857871,
				"element": "H" 
			},
			{
				"x": 0.1306805941,
				"y": -2.4684075748,
				"z": -1.0099472464,
				"element": "H" 
			},
			{
				"x": -2.1344389154,
				"y": -1.6141261501,
				"z": 0.8759954966,
				"element": "H" 
			},
			{
				"x": -2.1281301236,
				"y": -3.0844875108,
				"z": -0.0877062977,
				"element": "H" 
			},
			{
				"x": -2.4887699734,
				"y": 0.590259709,
				"z": -0.1964959167,
				"element": "H" 
			},
			{
				"x": -3.4373561144,
				"y": 1.8228513803,
				"z": -2.1301829148,
				"element": "H" 
			},
			{
				"x": -3.8414241553,
				"y": 0.6464561691,
				"z": -4.2844968862,
				"element": "H" 
			},
			{
				"x": -3.3016654359,
				"y": -1.7742968775,
				"z": -4.4832865949,
				"element": "H" 
			},
			{
				"x": -2.3708942079,
				"y": -3.0008428229,
				"z": -2.5471067667,
				"element": "H" 
			},
			{
				"x": 2.3967666124,
				"y": -1.8250058187,
				"z": 1.6606414277,
				"element": "H" 
			},
			{
				"x": 3.7294447973,
				"y": -2.4175618915,
				"z": 3.6446813773,
				"element": "H" 
			},
			{
				"x": 3.1301774948,
				"y": -1.5002378346,
				"z": 5.8735460795,
				"element": "H" 
			},
			{
				"x": 1.1742337569,
				"y": 0.0176485179,
				"z": 6.1048249283,
				"element": "H" 
			},
			{
				"x": -0.1772268444,
				"y": 0.6080143258,
				"z": 4.0881205825,
				"element": "H" 
			}
		],
		 "valence_orbital": [ 
			{
				"type": "occ",
				"energy": -0.2628,
				"method": "rhf"
			},
			{
				"type": "occ",
				"energy": -0.25925,
				"method": "rhf"
			},
			{
				"type": "occ",
				"energy": -0.24766,
				"method": "rhf"
			},
			{
				"type": "occ",
				"energy": -0.23925,
				"method": "rhf"
			},
			{
				"type": "occ",
				"energy": -0.23255,
				"method": "rhf"
			},
			{
				"type": "unocc",
				"energy": -0.05845,
				"method": "rhf"
			},
			{
				"type": "unocc",
				"energy": -0.01162,
				"method": "rhf"
			},
			{
				"type": "unocc",
				"energy": 0.00707,
				"method": "rhf"
			},
			{
				"type": "unocc",
				"energy": 0.00845,
				"method": "rhf"
			},
			{
				"type": "unocc",
				"energy": 0.03684,
				"method": "rhf"
			}
		],
		"cosmo_sigma_profile": { 
			"-0.025": 0.0,
			"-0.024": 0.0,
			"-0.023": 0.0,
			"-0.022": 0.0,
			"-0.021": 0.0,
			"-0.02": 0.0,
			"-0.019": 0.0,
			"-0.018": 0.0,
			"-0.017": 0.0,
			"-0.016": 0.0,
			"-0.015": 0.0,
			"-0.014": 0.0,
			"-0.013": 0.0,
			"-0.012": 0.0,
			"-0.011": 0.0,
			"-0.01": 0.0,
			"-0.009": 0.0,
			"-0.008": 0.376881699572,
			"-0.007": 2.84310048762,
			"-0.006": 10.3934660777,
			"-0.005": 18.9632671786,
			"-0.004": 24.7989273934,
			"-0.003": 32.9289448469,
			"-0.002": 29.9746845616,
			"-0.001": 26.0569920879,
			"0.0": 22.3571016681,
			"0.001": 16.6017172325,
			"0.002": 19.515420606,
			"0.003": 19.6764517113,
			"0.004": 21.5318934635,
			"0.005": 12.7467839548,
			"0.006": 10.3642611478,
			"0.007": 5.38319526576,
			"0.008": 1.51755998647,
			"0.009": 1.70600389534,
			"0.01": 2.10705896604,
			"0.011": 2.36589050156,
			"0.012": 1.92433528307,
			"0.013": 0.11881457245,
			"0.014": 0.0,
			"0.015": 0.0,
			"0.016": 0.0,
			"0.017": 0.0,
			"0.018": 0.0,
			"0.019": 0.0,
			"0.02": 0.0,
			"0.021": 0.0,
			"0.022": 0.0,
			"0.023": 0.0,
			"0.024": 0.0,
			"0.025": 0.0
		}
	}
}
