{
	 "smiles": "NC(CN1C=CC=N1)=NO", 
	 "Tm": 354.15, 
	 "num_atms": 18, 
	 "gaussian": { 
		 "optdone": 1, 
		 "sigma_profile": "yes", 
		 "theory": "DFT", 
		 "functional": "B3LYP", 
		 "basiset": "6-31G**", 
		 "properties": { 
			 "R2extent": 2065.2515, 
			 "electric_dipole_moment_norm": 1.47892671218, 
			 "electric_quadrupole_moment_norm": 5.98007215843, 
			 "total_energy": -489.507394537, 
			 "HOMO_LUMO_gap": 0.21918, 
			 "cosmo_polarized_energy": -11.79, 
			 "cosmo_cavitation_energy": 22.27, 
			 "cosmo_dispersion_energy": -16.57, 
			 "cosmo_repulsion_energy": 1.37, 
			 "cosmo_total_nonelectrostatic_energy": 7.07, 
			 "SMD_solvation_energy": 3.62 
		},
		"coords": [
			{
				"x": -1.526313182,
				"y": -0.3911630146,
				"z": 1.9640940355,
				"element": "N" 
			},
			{
				"x": -1.6700119704,
				"y": 0.762999115,
				"z": 1.2423301459,
				"element": "C" 
			},
			{
				"x": -0.6297911871,
				"y": 1.8401024932,
				"z": 1.4413502164,
				"element": "C" 
			},
			{
				"x": 0.7106286913,
				"y": 1.4047172986,
				"z": 1.062167691,
				"element": "N" 
			},
			{
				"x": 1.4429466724,
				"y": 1.7742988866,
				"z": -0.0209175026,
				"element": "C" 
			},
			{
				"x": 2.6208051148,
				"y": 1.0510947772,
				"z": 0.025056386,
				"element": "C" 
			},
			{
				"x": 2.499225928,
				"y": 0.2549551299,
				"z": 1.1826368446,
				"element": "C" 
			},
			{
				"x": 1.3416196249,
				"y": 0.4695444079,
				"z": 1.8111648673,
				"element": "N" 
			},
			{
				"x": -2.6447242976,
				"y": 1.0584674893,
				"z": 0.4498468033,
				"element": "N" 
			},
			{
				"x": -3.5485059101,
				"y": -0.0440277535,
				"z": 0.3924569565,
				"element": "O" 
			},
			{
				"x": -2.1083898485,
				"y": -1.1585691396,
				"z": 1.6594541406,
				"element": "H" 
			},
			{
				"x": -0.5760969336,
				"y": -0.6136611553,
				"z": 2.2392538754,
				"element": "H" 
			},
			{
				"x": -0.9023022726,
				"y": 2.701944153,
				"z": 0.8326223522,
				"element": "H" 
			},
			{
				"x": -0.5979416047,
				"y": 2.1379266963,
				"z": 2.4946012553,
				"element": "H" 
			},
			{
				"x": 1.0774798762,
				"y": 2.5102296893,
				"z": -0.722105017,
				"element": "H" 
			},
			{
				"x": 3.4448224,
				"y": 1.0981141739,
				"z": -0.6706647366,
				"element": "H" 
			},
			{
				"x": 3.2036554976,
				"y": -0.4585739541,
				"z": 1.5889293404,
				"element": "H" 
			},
			{
				"x": -4.2045065987,
				"y": 0.2698007068,
				"z": -0.241277654,
				"element": "H" 
			}
		],
		 "valence_orbital": [ 
			{
				"type": "occ",
				"energy": -0.29815,
				"method": "rhf"
			},
			{
				"type": "occ",
				"energy": -0.27367,
				"method": "rhf"
			},
			{
				"type": "occ",
				"energy": -0.25653,
				"method": "rhf"
			},
			{
				"type": "occ",
				"energy": -0.24889,
				"method": "rhf"
			},
			{
				"type": "occ",
				"energy": -0.211,
				"method": "rhf"
			},
			{
				"type": "unocc",
				"energy": 0.00818,
				"method": "rhf"
			},
			{
				"type": "unocc",
				"energy": 0.0396,
				"method": "rhf"
			},
			{
				"type": "unocc",
				"energy": 0.06535,
				"method": "rhf"
			},
			{
				"type": "unocc",
				"energy": 0.07848,
				"method": "rhf"
			},
			{
				"type": "unocc",
				"energy": 0.1003,
				"method": "rhf"
			}
		],
		"cosmo_sigma_profile": { 
			"-0.025": 0.0,
			"-0.024": 0.0,
			"-0.023": 0.0,
			"-0.022": 0.0,
			"-0.021": 0.0,
			"-0.02": 0.0,
			"-0.019": 0.0,
			"-0.018": 0.0,
			"-0.017": 0.225868627735,
			"-0.016": 0.996604055168,
			"-0.015": 1.11220865162,
			"-0.014": 0.670265747848,
			"-0.013": 0.579164723152,
			"-0.012": 1.08275720866,
			"-0.011": 1.46800425396,
			"-0.01": 2.34345853641,
			"-0.009": 4.8977110636,
			"-0.008": 6.44020813198,
			"-0.007": 8.74306561153,
			"-0.006": 10.1984004176,
			"-0.005": 9.59730952608,
			"-0.004": 9.68599279241,
			"-0.003": 8.53425014887,
			"-0.002": 9.26803447958,
			"-0.001": 8.36104059655,
			"0.0": 9.12154720391,
			"0.001": 9.35128848941,
			"0.002": 8.9162705656,
			"0.003": 9.21456465689,
			"0.004": 8.88391415045,
			"0.005": 12.3502984114,
			"0.006": 6.40540518821,
			"0.007": 4.86845514218,
			"0.008": 5.98551626477,
			"0.009": 6.26314444053,
			"0.01": 3.63394666065,
			"0.011": 2.76371935028,
			"0.012": 1.79519090909,
			"0.013": 1.9015133326,
			"0.014": 0.861637559472,
			"0.015": 0.368863702783,
			"0.016": 0.0,
			"0.017": 0.0,
			"0.018": 0.0,
			"0.019": 0.0,
			"0.02": 0.0,
			"0.021": 0.0,
			"0.022": 0.0,
			"0.023": 0.0,
			"0.024": 0.0,
			"0.025": 0.0
		}
	}
}
