{
	 "smiles": "C[C@]12CCC3C(CCC4=CC(=O)CC[C@]34C)C1CC[C@@H]2OCC1=CC=CC=C1", 
	 "Tm": 471.15, 
	 "num_atms": 62, 
	 "gaussian": { 
		 "optdone": 1, 
		 "sigma_profile": "yes", 
		 "theory": "DFT", 
		 "functional": "B3LYP", 
		 "basiset": "6-31G**", 
		 "properties": { 
			 "R2extent": 14120.799, 
			 "electric_dipole_moment_norm": 4.57921422189, 
			 "electric_quadrupole_moment_norm": 30.3872518782, 
			 "total_energy": -1161.70592676, 
			 "HOMO_LUMO_gap": 0.18574, 
			 "cosmo_polarized_energy": -13.75, 
			 "cosmo_cavitation_energy": 55.57, 
			 "cosmo_dispersion_energy": -37.64, 
			 "cosmo_repulsion_energy": 2.78, 
			 "cosmo_total_nonelectrostatic_energy": 20.71, 
			 "SMD_solvation_energy": 8.37 
		},
		"coords": [
			{
				"x": 0.7262918456,
				"y": -0.7735462144,
				"z": 3.2323702862,
				"element": "C" 
			},
			{
				"x": 0.8708270921,
				"y": 0.1194507666,
				"z": 1.9838933489,
				"element": "C" 
			},
			{
				"x": -0.1389337825,
				"y": -0.3120836287,
				"z": 0.9050619002,
				"element": "C" 
			},
			{
				"x": 0.1723543363,
				"y": -1.6798567808,
				"z": 0.2556528785,
				"element": "C" 
			},
			{
				"x": 1.6877527089,
				"y": -2.0261003872,
				"z": 0.1485095484,
				"element": "C" 
			},
			{
				"x": 2.5428609856,
				"y": -0.7348422857,
				"z": 0.1056122112,
				"element": "C" 
			},
			{
				"x": 2.3059304052,
				"y": 0.0151389621,
				"z": -1.2196079595,
				"element": "C" 
			},
			{
				"x": 2.6092537561,
				"y": -0.9006254168,
				"z": -2.4211512019,
				"element": "C" 
			},
			{
				"x": 1.9291411377,
				"y": -2.2502442034,
				"z": -2.3615043994,
				"element": "C" 
			},
			{
				"x": 1.3278921737,
				"y": -2.7652179612,
				"z": -3.4550282949,
				"element": "C" 
			},
			{
				"x": 0.7991895526,
				"y": -4.1395351201,
				"z": -3.5383906447,
				"element": "C" 
			},
			{
				"x": 0.2409865871,
				"y": -4.5551141375,
				"z": -4.5451481078,
				"element": "O" 
			},
			{
				"x": 1.054444219,
				"y": -5.0249980035,
				"z": -2.3269690143,
				"element": "C" 
			},
			{
				"x": 1.0407718871,
				"y": -4.2111078877,
				"z": -1.0277023248,
				"element": "C" 
			},
			{
				"x": 2.0195418129,
				"y": -3.0077510085,
				"z": -1.0365901233,
				"element": "C" 
			},
			{
				"x": 3.4636671849,
				"y": -3.5549665273,
				"z": -0.8671167247,
				"element": "C" 
			},
			{
				"x": 2.3475402229,
				"y": 0.056383109,
				"z": 1.4285548802,
				"element": "C" 
			},
			{
				"x": 2.8752653796,
				"y": 1.5107389896,
				"z": 1.4509790594,
				"element": "C" 
			},
			{
				"x": 2.0983580497,
				"y": 2.1649396222,
				"z": 2.5995578285,
				"element": "C" 
			},
			{
				"x": 0.6786232851,
				"y": 1.6230106663,
				"z": 2.3650415238,
				"element": "C" 
			},
			{
				"x": -0.2074469781,
				"y": 1.7521313954,
				"z": 3.470991256,
				"element": "O" 
			},
			{
				"x": -0.6926667779,
				"y": 3.0683123099,
				"z": 3.701602704,
				"element": "C" 
			},
			{
				"x": -1.7041091345,
				"y": 3.5426763606,
				"z": 2.6728441174,
				"element": "C" 
			},
			{
				"x": -1.6589730137,
				"y": 4.8463075545,
				"z": 2.1677753115,
				"element": "C" 
			},
			{
				"x": -2.6203914681,
				"y": 5.292845989,
				"z": 1.2577430063,
				"element": "C" 
			},
			{
				"x": -3.6337073571,
				"y": 4.4322589074,
				"z": 0.8348303203,
				"element": "C" 
			},
			{
				"x": -3.6820298359,
				"y": 3.125111961,
				"z": 1.3278043525,
				"element": "C" 
			},
			{
				"x": -2.7256481658,
				"y": 2.6851988252,
				"z": 2.241727618,
				"element": "C" 
			},
			{
				"x": 1.4196108799,
				"y": -0.4697154271,
				"z": 4.0232711549,
				"element": "H" 
			},
			{
				"x": 0.940544287,
				"y": -1.8193787006,
				"z": 2.989668173,
				"element": "H" 
			},
			{
				"x": -0.2851217573,
				"y": -0.713632249,
				"z": 3.6413490938,
				"element": "H" 
			},
			{
				"x": -1.1479031234,
				"y": -0.3334099021,
				"z": 1.3341379513,
				"element": "H" 
			},
			{
				"x": -0.1688675754,
				"y": 0.4605313747,
				"z": 0.129359027,
				"element": "H" 
			},
			{
				"x": -0.3281735172,
				"y": -2.4717719167,
				"z": 0.821690904,
				"element": "H" 
			},
			{
				"x": -0.2840323553,
				"y": -1.6912953051,
				"z": -0.7412597405,
				"element": "H" 
			},
			{
				"x": 1.9700847295,
				"y": -2.5637349648,
				"z": 1.0644381358,
				"element": "H" 
			},
			{
				"x": 3.6014292654,
				"y": -1.0268990041,
				"z": 0.095661473,
				"element": "H" 
			},
			{
				"x": 1.2767400794,
				"y": 0.3793593708,
				"z": -1.2962868656,
				"element": "H" 
			},
			{
				"x": 2.9522246053,
				"y": 0.8967365542,
				"z": -1.2844413113,
				"element": "H" 
			},
			{
				"x": 2.355100329,
				"y": -0.4006301838,
				"z": -3.3615259191,
				"element": "H" 
			},
			{
				"x": 3.6956959747,
				"y": -1.0743220034,
				"z": -2.4526884687,
				"element": "H" 
			},
			{
				"x": 1.2587470961,
				"y": -2.1875223625,
				"z": -4.374519277,
				"element": "H" 
			},
			{
				"x": 2.0256905711,
				"y": -5.5153061633,
				"z": -2.4801702995,
				"element": "H" 
			},
			{
				"x": 0.3029941034,
				"y": -5.8196509161,
				"z": -2.3147037738,
				"element": "H" 
			},
			{
				"x": 0.0195334667,
				"y": -3.8513708361,
				"z": -0.8799893204,
				"element": "H" 
			},
			{
				"x": 1.2708058585,
				"y": -4.8548711423,
				"z": -0.169732665,
				"element": "H" 
			},
			{
				"x": 3.6970631408,
				"y": -4.2929832013,
				"z": -1.6397587974,
				"element": "H" 
			},
			{
				"x": 3.5670700278,
				"y": -4.0429104808,
				"z": 0.1083984423,
				"element": "H" 
			},
			{
				"x": 4.2238150139,
				"y": -2.7735445924,
				"z": -0.9298324103,
				"element": "H" 
			},
			{
				"x": 2.9301336516,
				"y": -0.4978349976,
				"z": 2.1763572883,
				"element": "H" 
			},
			{
				"x": 3.9620869338,
				"y": 1.5610362403,
				"z": 1.574946746,
				"element": "H" 
			},
			{
				"x": 2.6357626775,
				"y": 2.0318394696,
				"z": 0.5168366158,
				"element": "H" 
			},
			{
				"x": 2.1561855167,
				"y": 3.2579571702,
				"z": 2.5890469335,
				"element": "H" 
			},
			{
				"x": 2.4650921639,
				"y": 1.8186007576,
				"z": 3.5737268767,
				"element": "H" 
			},
			{
				"x": 0.2495884137,
				"y": 2.1501776415,
				"z": 1.4985738358,
				"element": "H" 
			},
			{
				"x": -1.1633054311,
				"y": 3.021366652,
				"z": 4.6908848553,
				"element": "H" 
			},
			{
				"x": 0.1329369902,
				"y": 3.7914786698,
				"z": 3.7718372947,
				"element": "H" 
			},
			{
				"x": -0.8663575451,
				"y": 5.5185248312,
				"z": 2.4891932509,
				"element": "H" 
			},
			{
				"x": -2.57205544,
				"y": 6.3083864058,
				"z": 0.8746557896,
				"element": "H" 
			},
			{
				"x": -4.3799525748,
				"y": 4.7752272654,
				"z": 0.1238447219,
				"element": "H" 
			},
			{
				"x": -4.4679079474,
				"y": 2.4499237251,
				"z": 1.0005121518,
				"element": "H" 
			},
			{
				"x": -2.7573446171,
				"y": 1.6694223647,
				"z": 2.6248747769,
				"element": "H" 
			}
		],
		 "valence_orbital": [ 
			{
				"type": "occ",
				"energy": -0.25348,
				"method": "rhf"
			},
			{
				"type": "occ",
				"energy": -0.2524,
				"method": "rhf"
			},
			{
				"type": "occ",
				"energy": -0.25071,
				"method": "rhf"
			},
			{
				"type": "occ",
				"energy": -0.24437,
				"method": "rhf"
			},
			{
				"type": "occ",
				"energy": -0.22806,
				"method": "rhf"
			},
			{
				"type": "unocc",
				"energy": -0.04232,
				"method": "rhf"
			},
			{
				"type": "unocc",
				"energy": -0.0067,
				"method": "rhf"
			},
			{
				"type": "unocc",
				"energy": -0.0022,
				"method": "rhf"
			},
			{
				"type": "unocc",
				"energy": 0.05514,
				"method": "rhf"
			},
			{
				"type": "unocc",
				"energy": 0.07659,
				"method": "rhf"
			}
		],
		"cosmo_sigma_profile": { 
			"-0.025": 0.0,
			"-0.024": 0.0,
			"-0.023": 0.0,
			"-0.022": 0.0,
			"-0.021": 0.0,
			"-0.02": 0.0,
			"-0.019": 0.0,
			"-0.018": 0.0,
			"-0.017": 0.0,
			"-0.016": 0.0,
			"-0.015": 0.0,
			"-0.014": 0.0,
			"-0.013": 0.0,
			"-0.012": 0.0,
			"-0.011": 0.0,
			"-0.01": 0.0,
			"-0.009": 0.0,
			"-0.008": 0.0,
			"-0.007": 0.0,
			"-0.006": 3.23696133012,
			"-0.005": 19.3527805633,
			"-0.004": 29.1346714651,
			"-0.003": 54.4059127343,
			"-0.002": 67.5711612574,
			"-0.001": 69.211237415,
			"0.0": 50.0225198323,
			"0.001": 35.9843370846,
			"0.002": 23.3410854546,
			"0.003": 16.6474514263,
			"0.004": 12.3893956568,
			"0.005": 11.5298923799,
			"0.006": 10.473053521,
			"0.007": 3.90781449172,
			"0.008": 3.15533034332,
			"0.009": 2.82006713235,
			"0.01": 2.88869551536,
			"0.011": 3.00717190399,
			"0.012": 3.14774626471,
			"0.013": 4.98934219588,
			"0.014": 3.25911587687,
			"0.015": 0.644054960936,
			"0.016": 0.0,
			"0.017": 0.0,
			"0.018": 0.0,
			"0.019": 0.0,
			"0.02": 0.0,
			"0.021": 0.0,
			"0.022": 0.0,
			"0.023": 0.0,
			"0.024": 0.0,
			"0.025": 0.0
		}
	}
}
