{
	 "smiles": "ClC1=CC=C(C=C1)C1=C(C(=CO1)C(=O)C1=CC=CS1)S(=O)(=O)C1=CC=CC=C1", 
	 "Tm": 388.15, 
	 "num_atms": 41, 
	 "gaussian": { 
		 "optdone": 1, 
		 "sigma_profile": "yes", 
		 "theory": "DFT", 
		 "functional": "B3LYP", 
		 "basiset": "6-31G**", 
		 "properties": { 
			 "R2extent": 14090.201, 
			 "electric_dipole_moment_norm": 3.31550858391, 
			 "electric_quadrupole_moment_norm": 21.4392516518, 
			 "total_energy": -2365.41738115, 
			 "HOMO_LUMO_gap": 0.15548, 
			 "cosmo_polarized_energy": -18.8, 
			 "cosmo_cavitation_energy": 50.43, 
			 "cosmo_dispersion_energy": -34.42, 
			 "cosmo_repulsion_energy": 2.5, 
			 "cosmo_total_nonelectrostatic_energy": 18.51, 
			 "SMD_solvation_energy": 8.62 
		},
		"coords": [
			{
				"x": 1.7980669754,
				"y": 2.0764137543,
				"z": -7.4308371004,
				"element": "Cl" 
			},
			{
				"x": 1.1111394077,
				"y": 1.3955986418,
				"z": -5.9665010702,
				"element": "C" 
			},
			{
				"x": -0.272279167,
				"y": 1.2472142963,
				"z": -5.8634261164,
				"element": "C" 
			},
			{
				"x": -0.8105716805,
				"y": 0.7069929758,
				"z": -4.6999849146,
				"element": "C" 
			},
			{
				"x": 0.0198782318,
				"y": 0.317073199,
				"z": -3.6344401067,
				"element": "C" 
			},
			{
				"x": 1.4102288397,
				"y": 0.4629665995,
				"z": -3.7692754304,
				"element": "C" 
			},
			{
				"x": 1.9568852442,
				"y": 1.0048059964,
				"z": -4.9283976589,
				"element": "C" 
			},
			{
				"x": -0.5792575971,
				"y": -0.2831132841,
				"z": -2.4421649508,
				"element": "C" 
			},
			{
				"x": -0.2900664008,
				"y": -0.3371216837,
				"z": -1.0912702275,
				"element": "C" 
			},
			{
				"x": -1.3024371958,
				"y": -1.1700938543,
				"z": -0.473287876,
				"element": "C" 
			},
			{
				"x": -2.1410245899,
				"y": -1.518042216,
				"z": -1.488890288,
				"element": "C" 
			},
			{
				"x": -1.7132339114,
				"y": -1.0145927269,
				"z": -2.6716926122,
				"element": "O" 
			},
			{
				"x": -1.5795700752,
				"y": -1.6441775594,
				"z": 0.9246788182,
				"element": "C" 
			},
			{
				"x": -2.7042124816,
				"y": -1.4964000665,
				"z": 1.393866627,
				"element": "O" 
			},
			{
				"x": -0.5410294178,
				"y": -2.3785082771,
				"z": 1.6503574112,
				"element": "C" 
			},
			{
				"x": 0.7101544663,
				"y": -2.8022906187,
				"z": 1.2474870411,
				"element": "C" 
			},
			{
				"x": 1.3894229089,
				"y": -3.5447113369,
				"z": 2.2484673044,
				"element": "C" 
			},
			{
				"x": 0.6438064477,
				"y": -3.6819435162,
				"z": 3.3942526059,
				"element": "C" 
			},
			{
				"x": -0.8980386293,
				"y": -2.9168534379,
				"z": 3.2767362773,
				"element": "S" 
			},
			{
				"x": 0.9916878664,
				"y": 0.6240317642,
				"z": -0.287275596,
				"element": "S" 
			},
			{
				"x": 2.1189939589,
				"y": -0.2680276056,
				"z": 0.0392186844,
				"element": "O" 
			},
			{
				"x": 1.2249832405,
				"y": 1.8169855078,
				"z": -1.1138660702,
				"element": "O" 
			},
			{
				"x": 0.2350672519,
				"y": 1.1679830149,
				"z": 1.2485386329,
				"element": "C" 
			},
			{
				"x": 0.7626169728,
				"y": 0.7197029239,
				"z": 2.4595054328,
				"element": "C" 
			},
			{
				"x": 0.2180722661,
				"y": 1.2046704622,
				"z": 3.6499975394,
				"element": "C" 
			},
			{
				"x": -0.8369728251,
				"y": 2.1178731099,
				"z": 3.6170655416,
				"element": "C" 
			},
			{
				"x": -1.3495410166,
				"y": 2.5639031142,
				"z": 2.3950949647,
				"element": "C" 
			},
			{
				"x": -0.808661778,
				"y": 2.0968157197,
				"z": 1.1992698303,
				"element": "C" 
			},
			{
				"x": -0.9157728708,
				"y": 1.5539292943,
				"z": -6.6802204643,
				"element": "H" 
			},
			{
				"x": -1.8852724072,
				"y": 0.5908846455,
				"z": -4.6120272879,
				"element": "H" 
			},
			{
				"x": 2.0727045771,
				"y": 0.1415297061,
				"z": -2.9749970342,
				"element": "H" 
			},
			{
				"x": 3.0303967507,
				"y": 1.1158275226,
				"z": -5.0292947311,
				"element": "H" 
			},
			{
				"x": -3.0350882304,
				"y": -2.1208467121,
				"z": -1.5114414736,
				"element": "H" 
			},
			{
				"x": 1.1336391323,
				"y": -2.5703245874,
				"z": 0.2791254019,
				"element": "H" 
			},
			{
				"x": 2.383590629,
				"y": -3.9577506932,
				"z": 2.1248058287,
				"element": "H" 
			},
			{
				"x": 0.9211046511,
				"y": -4.1992099561,
				"z": 4.303346925,
				"element": "H" 
			},
			{
				"x": 1.5820298532,
				"y": 0.0102590959,
				"z": 2.4577819569,
				"element": "H" 
			},
			{
				"x": 0.6174434081,
				"y": 0.8658447717,
				"z": 4.6007908654,
				"element": "H" 
			},
			{
				"x": -1.2610824002,
				"y": 2.4869700333,
				"z": 4.5461529275,
				"element": "H" 
			},
			{
				"x": -2.1657049551,
				"y": 3.2792601019,
				"z": 2.3741870543,
				"element": "H" 
			},
			{
				"x": -1.1818954501,
				"y": 2.451071881,
				"z": 0.2441633386,
				"element": "H" 
			}
		],
		 "valence_orbital": [ 
			{
				"type": "occ",
				"energy": -0.26748,
				"method": "rhf"
			},
			{
				"type": "occ",
				"energy": -0.26564,
				"method": "rhf"
			},
			{
				"type": "occ",
				"energy": -0.26254,
				"method": "rhf"
			},
			{
				"type": "occ",
				"energy": -0.2503,
				"method": "rhf"
			},
			{
				"type": "occ",
				"energy": -0.2313,
				"method": "rhf"
			},
			{
				"type": "unocc",
				"energy": -0.07582,
				"method": "rhf"
			},
			{
				"type": "unocc",
				"energy": -0.05761,
				"method": "rhf"
			},
			{
				"type": "unocc",
				"energy": -0.04036,
				"method": "rhf"
			},
			{
				"type": "unocc",
				"energy": -0.02203,
				"method": "rhf"
			},
			{
				"type": "unocc",
				"energy": -0.01757,
				"method": "rhf"
			}
		],
		"cosmo_sigma_profile": { 
			"-0.025": 0.0,
			"-0.024": 0.0,
			"-0.023": 0.0,
			"-0.022": 0.0,
			"-0.021": 0.0,
			"-0.02": 0.0,
			"-0.019": 0.0,
			"-0.018": 0.0,
			"-0.017": 0.0,
			"-0.016": 0.0,
			"-0.015": 0.0,
			"-0.014": 0.0,
			"-0.013": 0.0,
			"-0.012": 0.00230135938536,
			"-0.011": 1.447600979,
			"-0.01": 2.07544060751,
			"-0.009": 3.96696232937,
			"-0.008": 7.81266011548,
			"-0.007": 18.3266596081,
			"-0.006": 25.3149349459,
			"-0.005": 26.1108694902,
			"-0.004": 19.4275709052,
			"-0.003": 21.2510447723,
			"-0.002": 28.7528371701,
			"-0.001": 30.1916152489,
			"0.0": 28.7107124956,
			"0.001": 39.0698125466,
			"0.002": 50.9882009484,
			"0.003": 35.9758385855,
			"0.004": 18.3865541365,
			"0.005": 9.15865476391,
			"0.006": 5.59578974856,
			"0.007": 4.42738917027,
			"0.008": 5.78602125804,
			"0.009": 6.11539344199,
			"0.01": 8.22669644209,
			"0.011": 10.253847862,
			"0.012": 3.89437559734,
			"0.013": 0.199036498871,
			"0.014": 0.0,
			"0.015": 0.0,
			"0.016": 0.0,
			"0.017": 0.0,
			"0.018": 0.0,
			"0.019": 0.0,
			"0.02": 0.0,
			"0.021": 0.0,
			"0.022": 0.0,
			"0.023": 0.0,
			"0.024": 0.0,
			"0.025": 0.0
		}
	}
}
