{
	 "smiles": "OCC1=CC=C(C=C1)N1CCOCC1", 
	 "Tm": 370.15, 
	 "num_atms": 29, 
	 "gaussian": { 
		 "optdone": 1, 
		 "sigma_profile": "yes", 
		 "theory": "DFT", 
		 "functional": "B3LYP", 
		 "basiset": "6-31G**", 
		 "properties": { 
			 "R2extent": 4477.6837, 
			 "electric_dipole_moment_norm": 1.94772280625, 
			 "electric_quadrupole_moment_norm": 16.384622328, 
			 "total_energy": -633.372937504, 
			 "HOMO_LUMO_gap": 0.19061, 
			 "cosmo_polarized_energy": -11.11, 
			 "cosmo_cavitation_energy": 30.4, 
			 "cosmo_dispersion_energy": -22.82, 
			 "cosmo_repulsion_energy": 1.8, 
			 "cosmo_total_nonelectrostatic_energy": 9.38, 
			 "SMD_solvation_energy": 4.05 
		},
		"coords": [
			{
				"x": 2.7345276389,
				"y": 3.3300561331,
				"z": -3.9410057045,
				"element": "O" 
			},
			{
				"x": 1.3850005439,
				"y": 2.9103135818,
				"z": -4.1198119622,
				"element": "C" 
			},
			{
				"x": 0.8152742245,
				"y": 2.1859018742,
				"z": -2.9196444403,
				"element": "C" 
			},
			{
				"x": 1.1108575671,
				"y": 2.611437645,
				"z": -1.6182182028,
				"element": "C" 
			},
			{
				"x": 0.574478116,
				"y": 1.976104449,
				"z": -0.5036168861,
				"element": "C" 
			},
			{
				"x": -0.2913012997,
				"y": 0.867497432,
				"z": -0.6461415105,
				"element": "C" 
			},
			{
				"x": -0.5816770281,
				"y": 0.4340144423,
				"z": -1.9585729871,
				"element": "C" 
			},
			{
				"x": -0.0352860162,
				"y": 1.0853285367,
				"z": -3.0614860784,
				"element": "C" 
			},
			{
				"x": -0.8304092679,
				"y": 0.2262824766,
				"z": 0.4605284035,
				"element": "N" 
			},
			{
				"x": -0.3224421848,
				"y": 0.458476749,
				"z": 1.807032013,
				"element": "C" 
			},
			{
				"x": -0.5891337066,
				"y": -0.766764356,
				"z": 2.6795964436,
				"element": "C" 
			},
			{
				"x": -1.9688362436,
				"y": -1.1053948063,
				"z": 2.7738924666,
				"element": "O" 
			},
			{
				"x": -2.7448688397,
				"y": -0.7274403586,
				"z": 1.6419079377,
				"element": "C" 
			},
			{
				"x": -1.9466234428,
				"y": -0.7037310308,
				"z": 0.3396503811,
				"element": "C" 
			},
			{
				"x": 3.2386034904,
				"y": 2.5515508783,
				"z": -3.6681992844,
				"element": "H" 
			},
			{
				"x": 0.8298057965,
				"y": 3.8361006365,
				"z": -4.3160463143,
				"element": "H" 
			},
			{
				"x": 1.2738416571,
				"y": 2.2793455589,
				"z": -5.016828884,
				"element": "H" 
			},
			{
				"x": 1.7749917782,
				"y": 3.4603575423,
				"z": -1.4813877472,
				"element": "H" 
			},
			{
				"x": 0.8094698054,
				"y": 2.3615645797,
				"z": 0.4820862113,
				"element": "H" 
			},
			{
				"x": -1.2071539696,
				"y": -0.4364597367,
				"z": -2.1205843239,
				"element": "H" 
			},
			{
				"x": -0.2710639598,
				"y": 0.7152138238,
				"z": -4.0573514312,
				"element": "H" 
			},
			{
				"x": 0.7611276073,
				"y": 0.6178659276,
				"z": 1.7686437904,
				"element": "H" 
			},
			{
				"x": -0.7664537253,
				"y": 1.3542975755,
				"z": 2.2716580445,
				"element": "H" 
			},
			{
				"x": -0.0192290646,
				"y": -1.6193614778,
				"z": 2.2785891138,
				"element": "H" 
			},
			{
				"x": -0.2361205241,
				"y": -0.5789210595,
				"z": 3.6991718337,
				"element": "H" 
			},
			{
				"x": -3.1897237497,
				"y": 0.2666463083,
				"z": 1.8044822746,
				"element": "H" 
			},
			{
				"x": -3.5634555488,
				"y": -1.4504143032,
				"z": 1.5613101987,
				"element": "H" 
			},
			{
				"x": -1.6134712754,
				"y": -1.7234850528,
				"z": 0.0854306297,
				"element": "H" 
			},
			{
				"x": -2.6155283788,
				"y": -0.3723839691,
				"z": -0.4628839852,
				"element": "H" 
			}
		],
		 "valence_orbital": [ 
			{
				"type": "occ",
				"energy": -0.28373,
				"method": "rhf"
			},
			{
				"type": "occ",
				"energy": -0.26213,
				"method": "rhf"
			},
			{
				"type": "occ",
				"energy": -0.25339,
				"method": "rhf"
			},
			{
				"type": "occ",
				"energy": -0.24452,
				"method": "rhf"
			},
			{
				"type": "occ",
				"energy": -0.18796,
				"method": "rhf"
			},
			{
				"type": "unocc",
				"energy": 0.00265,
				"method": "rhf"
			},
			{
				"type": "unocc",
				"energy": 0.0146,
				"method": "rhf"
			},
			{
				"type": "unocc",
				"energy": 0.07742,
				"method": "rhf"
			},
			{
				"type": "unocc",
				"energy": 0.09711,
				"method": "rhf"
			},
			{
				"type": "unocc",
				"energy": 0.10395,
				"method": "rhf"
			}
		],
		"cosmo_sigma_profile": { 
			"-0.025": 0.0,
			"-0.024": 0.0,
			"-0.023": 0.0,
			"-0.022": 0.0,
			"-0.021": 0.0,
			"-0.02": 0.0,
			"-0.019": 0.0,
			"-0.018": 0.0,
			"-0.017": 0.0,
			"-0.016": 0.0,
			"-0.015": 0.405895144073,
			"-0.014": 0.807678888922,
			"-0.013": 0.912528017442,
			"-0.012": 0.681410327333,
			"-0.011": 0.717213953241,
			"-0.01": 1.06660293035,
			"-0.009": 0.612809642176,
			"-0.008": 0.645247642382,
			"-0.007": 0.455030095358,
			"-0.006": 3.49043410486,
			"-0.005": 20.6789847328,
			"-0.004": 32.9218007786,
			"-0.003": 36.1774523901,
			"-0.002": 23.1299973679,
			"-0.001": 15.9708646727,
			"0.0": 10.7772781298,
			"0.001": 11.7719300091,
			"0.002": 8.45347548589,
			"0.003": 10.0613676323,
			"0.004": 10.1341004583,
			"0.005": 8.94573299604,
			"0.006": 9.44771904842,
			"0.007": 10.0013227685,
			"0.008": 3.57506210219,
			"0.009": 1.60046690852,
			"0.01": 2.46317679471,
			"0.011": 2.51973933748,
			"0.012": 2.88998212901,
			"0.013": 2.98845425764,
			"0.014": 3.06049726358,
			"0.015": 0.731150434242,
			"0.016": 0.0,
			"0.017": 0.0,
			"0.018": 0.0,
			"0.019": 0.0,
			"0.02": 0.0,
			"0.021": 0.0,
			"0.022": 0.0,
			"0.023": 0.0,
			"0.024": 0.0,
			"0.025": 0.0
		}
	}
}
