{
	 "smiles": "C1OC2(CCCCC2)OC1C1OC2(CCCCC2)OC1C1COC2(CCCCC2)O1", 
	 "Tm": 356.15, 
	 "num_atms": 68, 
	 "gaussian": { 
		 "optdone": 1, 
		 "sigma_profile": "yes", 
		 "theory": "DFT", 
		 "functional": "B3LYP", 
		 "basiset": "6-31G**", 
		 "properties": { 
			 "R2extent": 15330.1874, 
			 "electric_dipole_moment_norm": 1.2330216462, 
			 "electric_quadrupole_moment_norm": 9.16319176706, 
			 "total_energy": -1388.81271032, 
			 "HOMO_LUMO_gap": 0.30374, 
			 "cosmo_polarized_energy": -11.75, 
			 "cosmo_cavitation_energy": 61.65, 
			 "cosmo_dispersion_energy": -40.63, 
			 "cosmo_repulsion_energy": 3.09, 
			 "cosmo_total_nonelectrostatic_energy": 24.11, 
			 "SMD_solvation_energy": 6.83 
		},
		"coords": [
			{
				"x": -2.0779599604,
				"y": -0.7226041838,
				"z": -3.3266150596,
				"element": "C" 
			},
			{
				"x": -1.1666946624,
				"y": -1.0831991128,
				"z": -4.3569061729,
				"element": "O" 
			},
			{
				"x": 0.0022111137,
				"y": -1.5913127032,
				"z": -3.7229047939,
				"element": "C" 
			},
			{
				"x": 1.2416996096,
				"y": -1.1889228985,
				"z": -4.5386810775,
				"element": "C" 
			},
			{
				"x": 1.6670455,
				"y": -2.2910622738,
				"z": -5.5166007228,
				"element": "C" 
			},
			{
				"x": 2.0873828536,
				"y": -3.5765875842,
				"z": -4.7637094133,
				"element": "C" 
			},
			{
				"x": 1.3012288056,
				"y": -3.7589259452,
				"z": -3.4417045806,
				"element": "C" 
			},
			{
				"x": -0.0912735776,
				"y": -3.121669253,
				"z": -3.5337151682,
				"element": "C" 
			},
			{
				"x": 0.0553840776,
				"y": -0.9404709008,
				"z": -2.4330860086,
				"element": "O" 
			},
			{
				"x": -1.1483634445,
				"y": -0.2017836966,
				"z": -2.2241716762,
				"element": "C" 
			},
			{
				"x": -1.6538528184,
				"y": -0.4390370384,
				"z": -0.8063919863,
				"element": "C" 
			},
			{
				"x": -2.8822575098,
				"y": 0.2648274119,
				"z": -0.6451103452,
				"element": "O" 
			},
			{
				"x": -2.9332385924,
				"y": 0.8459132659,
				"z": 0.6699663129,
				"element": "C" 
			},
			{
				"x": -3.0035220236,
				"y": 2.3737121516,
				"z": 0.5413785702,
				"element": "C" 
			},
			{
				"x": -3.1652136617,
				"y": 3.0498335856,
				"z": 1.9119267081,
				"element": "C" 
			},
			{
				"x": -4.378746594,
				"y": 2.4947765812,
				"z": 2.673217537,
				"element": "C" 
			},
			{
				"x": -4.2954175217,
				"y": 0.9670245115,
				"z": 2.812817418,
				"element": "C" 
			},
			{
				"x": -4.1287798679,
				"y": 0.2881556594,
				"z": 1.4438753257,
				"element": "C" 
			},
			{
				"x": -1.7308584699,
				"y": 0.440212228,
				"z": 1.324366359,
				"element": "O" 
			},
			{
				"x": -0.7700037586,
				"y": 0.1278603295,
				"z": 0.3167138746,
				"element": "C" 
			},
			{
				"x": 0.305323619,
				"y": -0.815073238,
				"z": 0.8481144553,
				"element": "C" 
			},
			{
				"x": -0.2052944652,
				"y": -2.0443739279,
				"z": 1.6241658523,
				"element": "C" 
			},
			{
				"x": 0.7557776132,
				"y": -2.20757651,
				"z": 2.6583189994,
				"element": "O" 
			},
			{
				"x": 1.2370370805,
				"y": -0.9125560845,
				"z": 2.9939030564,
				"element": "C" 
			},
			{
				"x": 0.3950389343,
				"y": -0.2613511254,
				"z": 4.1027883349,
				"element": "C" 
			},
			{
				"x": 0.974576556,
				"y": 1.0995010856,
				"z": 4.5205266326,
				"element": "C" 
			},
			{
				"x": 2.4501566825,
				"y": 0.9797934845,
				"z": 4.9315719818,
				"element": "C" 
			},
			{
				"x": 3.2865594508,
				"y": 0.3324471157,
				"z": 3.816711436,
				"element": "C" 
			},
			{
				"x": 2.7076997199,
				"y": -1.0267273629,
				"z": 3.3945030814,
				"element": "C" 
			},
			{
				"x": 1.1331449512,
				"y": -0.1317595968,
				"z": 1.7904054142,
				"element": "O" 
			},
			{
				"x": -2.6634005148,
				"y": -1.5877029108,
				"z": -2.9800984674,
				"element": "H" 
			},
			{
				"x": -2.7623895081,
				"y": 0.0340777066,
				"z": -3.7135681981,
				"element": "H" 
			},
			{
				"x": 2.0509680502,
				"y": -0.9868163594,
				"z": -3.828434093,
				"element": "H" 
			},
			{
				"x": 1.0158936879,
				"y": -0.2506730232,
				"z": -5.0536906922,
				"element": "H" 
			},
			{
				"x": 0.8304974439,
				"y": -2.5066284379,
				"z": -6.1923468737,
				"element": "H" 
			},
			{
				"x": 2.4864462183,
				"y": -1.9368497241,
				"z": -6.1509988141,
				"element": "H" 
			},
			{
				"x": 1.9311651325,
				"y": -4.4443814623,
				"z": -5.4150180736,
				"element": "H" 
			},
			{
				"x": 3.1610690187,
				"y": -3.5467013155,
				"z": -4.5446067469,
				"element": "H" 
			},
			{
				"x": 1.8452666015,
				"y": -3.2914023696,
				"z": -2.611916903,
				"element": "H" 
			},
			{
				"x": 1.2179281239,
				"y": -4.8216447177,
				"z": -3.1907531068,
				"element": "H" 
			},
			{
				"x": -0.633475993,
				"y": -3.5308539069,
				"z": -4.3942041492,
				"element": "H" 
			},
			{
				"x": -0.6858324474,
				"y": -3.3358842625,
				"z": -2.6402440225,
				"element": "H" 
			},
			{
				"x": -0.9556468657,
				"y": 0.8725654761,
				"z": -2.3600023633,
				"element": "H" 
			},
			{
				"x": -1.8131926533,
				"y": -1.5204109654,
				"z": -0.6649290006,
				"element": "H" 
			},
			{
				"x": -3.8555200032,
				"y": 2.6148854089,
				"z": -0.1064869245,
				"element": "H" 
			},
			{
				"x": -2.1027623281,
				"y": 2.7302428408,
				"z": 0.0297229951,
				"element": "H" 
			},
			{
				"x": -2.2558848987,
				"y": 2.8752043782,
				"z": 2.5002166344,
				"element": "H" 
			},
			{
				"x": -3.2563427057,
				"y": 4.1343682651,
				"z": 1.7820584886,
				"element": "H" 
			},
			{
				"x": -5.2995961503,
				"y": 2.7611074104,
				"z": 2.1344341336,
				"element": "H" 
			},
			{
				"x": -4.4500815466,
				"y": 2.9611913503,
				"z": 3.6627706176,
				"element": "H" 
			},
			{
				"x": -5.1902971886,
				"y": 0.5771890964,
				"z": 3.3115086101,
				"element": "H" 
			},
			{
				"x": -3.4404432842,
				"y": 0.7051672587,
				"z": 3.4484848555,
				"element": "H" 
			},
			{
				"x": -4.0003296933,
				"y": -0.794331958,
				"z": 1.5473728202,
				"element": "H" 
			},
			{
				"x": -5.0223205696,
				"y": 0.4547732911,
				"z": 0.8299649235,
				"element": "H" 
			},
			{
				"x": -0.2710612248,
				"y": 1.0461350033,
				"z": -0.0287168745,
				"element": "H" 
			},
			{
				"x": 0.9175688588,
				"y": -1.1185436352,
				"z": -0.0107025571,
				"element": "H" 
			},
			{
				"x": -1.2093362638,
				"y": -1.8665812341,
				"z": 2.0284392893,
				"element": "H" 
			},
			{
				"x": -0.2142927229,
				"y": -2.9567130745,
				"z": 1.0222709135,
				"element": "H" 
			},
			{
				"x": 0.3823131853,
				"y": -0.9475332837,
				"z": 4.9592531346,
				"element": "H" 
			},
			{
				"x": -0.6336897898,
				"y": -0.1482501998,
				"z": 3.7473748659,
				"element": "H" 
			},
			{
				"x": 0.886362182,
				"y": 1.7909725364,
				"z": 3.673462394,
				"element": "H" 
			},
			{
				"x": 0.3813090542,
				"y": 1.5219207756,
				"z": 5.3401375341,
				"element": "H" 
			},
			{
				"x": 2.8556209952,
				"y": 1.9672440651,
				"z": 5.1829354196,
				"element": "H" 
			},
			{
				"x": 2.5250105658,
				"y": 0.3694560693,
				"z": 5.8433740854,
				"element": "H" 
			},
			{
				"x": 3.3025170195,
				"y": 0.9949257651,
				"z": 2.942421363,
				"element": "H" 
			},
			{
				"x": 4.3266943314,
				"y": 0.2080449623,
				"z": 4.1400034818,
				"element": "H" 
			},
			{
				"x": 2.7730499332,
				"y": -1.7419072162,
				"z": 4.2240576651,
				"element": "H" 
			},
			{
				"x": 3.2592263103,
				"y": -1.4515255775,
				"z": 2.5498792911,
				"element": "H" 
			}
		],
		 "valence_orbital": [ 
			{
				"type": "occ",
				"energy": -0.26776,
				"method": "rhf"
			},
			{
				"type": "occ",
				"energy": -0.2571,
				"method": "rhf"
			},
			{
				"type": "occ",
				"energy": -0.25485,
				"method": "rhf"
			},
			{
				"type": "occ",
				"energy": -0.25085,
				"method": "rhf"
			},
			{
				"type": "occ",
				"energy": -0.2368,
				"method": "rhf"
			},
			{
				"type": "unocc",
				"energy": 0.06694,
				"method": "rhf"
			},
			{
				"type": "unocc",
				"energy": 0.07164,
				"method": "rhf"
			},
			{
				"type": "unocc",
				"energy": 0.07947,
				"method": "rhf"
			},
			{
				"type": "unocc",
				"energy": 0.08539,
				"method": "rhf"
			},
			{
				"type": "unocc",
				"energy": 0.09423,
				"method": "rhf"
			}
		],
		"cosmo_sigma_profile": { 
			"-0.025": 0.0,
			"-0.024": 0.0,
			"-0.023": 0.0,
			"-0.022": 0.0,
			"-0.021": 0.0,
			"-0.02": 0.0,
			"-0.019": 0.0,
			"-0.018": 0.0,
			"-0.017": 0.0,
			"-0.016": 0.0,
			"-0.015": 0.0,
			"-0.014": 0.0,
			"-0.013": 0.0,
			"-0.012": 0.0,
			"-0.011": 0.0,
			"-0.01": 0.0,
			"-0.009": 0.0,
			"-0.008": 0.0,
			"-0.007": 0.0850033889289,
			"-0.006": 5.69841903506,
			"-0.005": 16.6164215171,
			"-0.004": 18.8185163449,
			"-0.003": 49.056489016,
			"-0.002": 72.5216130576,
			"-0.001": 82.764392367,
			"0.0": 79.8482923645,
			"0.001": 55.9704335849,
			"0.002": 18.2010814105,
			"0.003": 11.3728959552,
			"0.004": 10.7399235749,
			"0.005": 10.4270779846,
			"0.006": 8.55794521511,
			"0.007": 7.20602393679,
			"0.008": 6.12734910508,
			"0.009": 5.82277695552,
			"0.01": 5.13566965494,
			"0.011": 4.10408323098,
			"0.012": 3.32079486501,
			"0.013": 0.947387739399,
			"0.014": 0.0,
			"0.015": 0.0,
			"0.016": 0.0,
			"0.017": 0.0,
			"0.018": 0.0,
			"0.019": 0.0,
			"0.02": 0.0,
			"0.021": 0.0,
			"0.022": 0.0,
			"0.023": 0.0,
			"0.024": 0.0,
			"0.025": 0.0
		}
	}
}
