{
	 "smiles": "OC(=O)C1=C(Cl)C=C(F)C=C1", 
	 "Tm": 458.15, 
	 "num_atms": 15, 
	 "gaussian": { 
		 "optdone": 1, 
		 "sigma_profile": "yes", 
		 "theory": "DFT", 
		 "functional": "B3LYP", 
		 "basiset": "6-31G**", 
		 "properties": { 
			 "R2extent": 2359.5799, 
			 "electric_dipole_moment_norm": 3.59897919277, 
			 "electric_quadrupole_moment_norm": 12.4394387562, 
			 "total_energy": -979.633387745, 
			 "HOMO_LUMO_gap": 0.21219, 
			 "cosmo_polarized_energy": -9.99, 
			 "cosmo_cavitation_energy": 21.89, 
			 "cosmo_dispersion_energy": -16.53, 
			 "cosmo_repulsion_energy": 1.28, 
			 "cosmo_total_nonelectrostatic_energy": 6.65, 
			 "SMD_solvation_energy": 5.25 
		},
		"coords": [
			{
				"x": 1.3894916173,
				"y": 3.0810394031,
				"z": -0.3427276322,
				"element": "O" 
			},
			{
				"x": 0.503091031,
				"y": 2.1477362308,
				"z": -0.7275696597,
				"element": "C" 
			},
			{
				"x": -0.1444201776,
				"y": 2.3150826081,
				"z": -1.737002101,
				"element": "O" 
			},
			{
				"x": 0.320985221,
				"y": 0.8919958277,
				"z": 0.1048719688,
				"element": "C" 
			},
			{
				"x": 0.9613332827,
				"y": 0.5081179528,
				"z": 1.2975270944,
				"element": "C" 
			},
			{
				"x": 2.1890243263,
				"y": 1.5034763765,
				"z": 2.099097839,
				"element": "Cl" 
			},
			{
				"x": 0.6727346512,
				"y": -0.69419708,
				"z": 1.9404890721,
				"element": "C" 
			},
			{
				"x": -0.279156003,
				"y": -1.5353464145,
				"z": 1.3792728558,
				"element": "C" 
			},
			{
				"x": -0.5563524838,
				"y": -2.6925092144,
				"z": 1.998623741,
				"element": "F" 
			},
			{
				"x": -0.9445299135,
				"y": -1.2093394971,
				"z": 0.2027853342,
				"element": "C" 
			},
			{
				"x": -0.6339327609,
				"y": -0.0052614742,
				"z": -0.4118431728,
				"element": "C" 
			},
			{
				"x": 1.844615067,
				"y": 2.8334394774,
				"z": 0.4785253822,
				"element": "H" 
			},
			{
				"x": 1.1739305794,
				"y": -0.9759529265,
				"z": 2.858110373,
				"element": "H" 
			},
			{
				"x": -1.6825058472,
				"y": -1.8877813484,
				"z": -0.209523352,
				"element": "H" 
			},
			{
				"x": -1.1268085899,
				"y": 0.2915000786,
				"z": -1.3303377429,
				"element": "H" 
			}
		],
		 "valence_orbital": [ 
			{
				"type": "occ",
				"energy": -0.34811,
				"method": "rhf"
			},
			{
				"type": "occ",
				"energy": -0.31829,
				"method": "rhf"
			},
			{
				"type": "occ",
				"energy": -0.28443,
				"method": "rhf"
			},
			{
				"type": "occ",
				"energy": -0.28193,
				"method": "rhf"
			},
			{
				"type": "occ",
				"energy": -0.27549,
				"method": "rhf"
			},
			{
				"type": "unocc",
				"energy": -0.0633,
				"method": "rhf"
			},
			{
				"type": "unocc",
				"energy": -0.04276,
				"method": "rhf"
			},
			{
				"type": "unocc",
				"energy": -0.01139,
				"method": "rhf"
			},
			{
				"type": "unocc",
				"energy": 0.04393,
				"method": "rhf"
			},
			{
				"type": "unocc",
				"energy": 0.09071,
				"method": "rhf"
			}
		],
		"cosmo_sigma_profile": { 
			"-0.025": 0.0,
			"-0.024": 0.0,
			"-0.023": 0.0,
			"-0.022": 0.0,
			"-0.021": 0.0,
			"-0.02": 0.0,
			"-0.019": 0.0,
			"-0.018": 0.0,
			"-0.017": 0.0,
			"-0.016": 0.0,
			"-0.015": 0.0,
			"-0.014": 0.0,
			"-0.013": 0.0,
			"-0.012": 0.236364926254,
			"-0.011": 0.847746143171,
			"-0.01": 1.46065164022,
			"-0.009": 4.19639909032,
			"-0.008": 5.52336301269,
			"-0.007": 6.60693145313,
			"-0.006": 7.53394409607,
			"-0.005": 7.67987538381,
			"-0.004": 8.77125006867,
			"-0.003": 9.18392280602,
			"-0.002": 14.3023979111,
			"-0.001": 21.5009729492,
			"0.0": 21.0275340822,
			"0.001": 13.8351961497,
			"0.002": 11.8325544962,
			"0.003": 13.3450873046,
			"0.004": 4.29435498698,
			"0.005": 1.33028581573,
			"0.006": 2.70015648234,
			"0.007": 2.28611892885,
			"0.008": 3.23365191915,
			"0.009": 2.6009449715,
			"0.01": 4.91591810763,
			"0.011": 5.41236392179,
			"0.012": 3.10202213467,
			"0.013": 1.4525116024,
			"0.014": 0.0139318855699,
			"0.015": 0.0,
			"0.016": 0.0,
			"0.017": 0.0,
			"0.018": 0.0,
			"0.019": 0.0,
			"0.02": 0.0,
			"0.021": 0.0,
			"0.022": 0.0,
			"0.023": 0.0,
			"0.024": 0.0,
			"0.025": 0.0
		}
	}
}
