{
	 "smiles": "NCC(O)COC1=CC2=C(NC(=O)CC2)C=C1", 
	 "Tm": 377.15, 
	 "num_atms": 33, 
	 "gaussian": { 
		 "optdone": 1, 
		 "sigma_profile": "yes", 
		 "theory": "DFT", 
		 "functional": "B3LYP", 
		 "basiset": "6-31G**", 
		 "properties": { 
			 "R2extent": 7248.6155, 
			 "electric_dipole_moment_norm": 5.65161824348, 
			 "electric_quadrupole_moment_norm": 24.9219424917, 
			 "total_energy": -802.105818543, 
			 "HOMO_LUMO_gap": 0.19067, 
			 "cosmo_polarized_energy": -20.26, 
			 "cosmo_cavitation_energy": 35.7, 
			 "cosmo_dispersion_energy": -26.33, 
			 "cosmo_repulsion_energy": 2.08, 
			 "cosmo_total_nonelectrostatic_energy": 11.45, 
			 "SMD_solvation_energy": 5.58 
		},
		"coords": [
			{
				"x": 4.3313120935,
				"y": 1.7353539283,
				"z": -1.3421852781,
				"element": "N" 
			},
			{
				"x": 3.3125657348,
				"y": 0.925594151,
				"z": -0.6594834558,
				"element": "C" 
			},
			{
				"x": 2.8382119965,
				"y": -0.1654822201,
				"z": -1.6340530884,
				"element": "C" 
			},
			{
				"x": 2.512827063,
				"y": 0.41282873,
				"z": -2.8782538639,
				"element": "O" 
			},
			{
				"x": 1.640776324,
				"y": -0.9507324175,
				"z": -1.1159622488,
				"element": "C" 
			},
			{
				"x": 0.6167826774,
				"y": -0.0447217544,
				"z": -0.7258943837,
				"element": "O" 
			},
			{
				"x": -0.5706502191,
				"y": -0.5525051182,
				"z": -0.2810435704,
				"element": "C" 
			},
			{
				"x": -1.5491439498,
				"y": 0.3951849707,
				"z": 0.0571804595,
				"element": "C" 
			},
			{
				"x": -2.7990881742,
				"y": 0.0062163364,
				"z": 0.5216035991,
				"element": "C" 
			},
			{
				"x": -3.0765786206,
				"y": -1.3672679364,
				"z": 0.6719398255,
				"element": "C" 
			},
			{
				"x": -4.3446587161,
				"y": -1.7587858279,
				"z": 1.1477777374,
				"element": "N" 
			},
			{
				"x": -5.2364518348,
				"y": -0.9495583742,
				"z": 1.8201024257,
				"element": "C" 
			},
			{
				"x": -6.3000486975,
				"y": -1.378959734,
				"z": 2.2408573572,
				"element": "O" 
			},
			{
				"x": -4.7604463477,
				"y": 0.4842702486,
				"z": 2.0137174425,
				"element": "C" 
			},
			{
				"x": -3.9047787904,
				"y": 0.9860241109,
				"z": 0.840771823,
				"element": "C" 
			},
			{
				"x": -2.1083966531,
				"y": -2.312121368,
				"z": 0.3373795091,
				"element": "C" 
			},
			{
				"x": -0.8579483915,
				"y": -1.9141474482,
				"z": -0.1449939377,
				"element": "C" 
			},
			{
				"x": 5.2366179202,
				"y": 1.2722739189,
				"z": -1.3225182337,
				"element": "H" 
			},
			{
				"x": 4.4471203473,
				"y": 2.6355483998,
				"z": -0.8880933777,
				"element": "H" 
			},
			{
				"x": 3.6508604008,
				"y": 0.4697649,
				"z": 0.2847236208,
				"element": "H" 
			},
			{
				"x": 2.4605099783,
				"y": 1.570962717,
				"z": -0.4323380177,
				"element": "H" 
			},
			{
				"x": 3.655591745,
				"y": -0.905550395,
				"z": -1.7515604379,
				"element": "H" 
			},
			{
				"x": 3.1362244403,
				"y": 1.1574995308,
				"z": -2.9619424361,
				"element": "H" 
			},
			{
				"x": 1.281645924,
				"y": -1.6134005608,
				"z": -1.9142337489,
				"element": "H" 
			},
			{
				"x": 1.9480289655,
				"y": -1.5707884327,
				"z": -0.2600610682,
				"element": "H" 
			},
			{
				"x": -1.3100396353,
				"y": 1.4474786869,
				"z": -0.064894865,
				"element": "H" 
			},
			{
				"x": -4.6159488289,
				"y": -2.7315910055,
				"z": 1.085737535,
				"element": "H" 
			},
			{
				"x": -5.6447686875,
				"y": 1.1038388259,
				"z": 2.175502533,
				"element": "H" 
			},
			{
				"x": -4.1719611583,
				"y": 0.5059204002,
				"z": 2.9413633688,
				"element": "H" 
			},
			{
				"x": -4.5463427898,
				"y": 1.1056554608,
				"z": -0.0444520407,
				"element": "H" 
			},
			{
				"x": -3.4927164746,
				"y": 1.9755363415,
				"z": 1.0617803924,
				"element": "H" 
			},
			{
				"x": -2.3235674355,
				"y": -3.3710727448,
				"z": 0.4555758742,
				"element": "H" 
			},
			{
				"x": -0.1258402059,
				"y": -2.6707663201,
				"z": -0.3987494504,
				"element": "H" 
			}
		],
		 "valence_orbital": [ 
			{
				"type": "occ",
				"energy": -0.26789,
				"method": "rhf"
			},
			{
				"type": "occ",
				"energy": -0.25205,
				"method": "rhf"
			},
			{
				"type": "occ",
				"energy": -0.24927,
				"method": "rhf"
			},
			{
				"type": "occ",
				"energy": -0.24567,
				"method": "rhf"
			},
			{
				"type": "occ",
				"energy": -0.19804,
				"method": "rhf"
			},
			{
				"type": "unocc",
				"energy": -0.00737,
				"method": "rhf"
			},
			{
				"type": "unocc",
				"energy": 0.00039,
				"method": "rhf"
			},
			{
				"type": "unocc",
				"energy": 0.04592,
				"method": "rhf"
			},
			{
				"type": "unocc",
				"energy": 0.06621,
				"method": "rhf"
			},
			{
				"type": "unocc",
				"energy": 0.08891,
				"method": "rhf"
			}
		],
		"cosmo_sigma_profile": { 
			"-0.025": 0.0,
			"-0.024": 0.0,
			"-0.023": 0.0,
			"-0.022": 0.0,
			"-0.021": 0.0,
			"-0.02": 0.0,
			"-0.019": 0.0,
			"-0.018": 0.0,
			"-0.017": 0.0,
			"-0.016": 0.0,
			"-0.015": 0.144235333615,
			"-0.014": 1.13656868158,
			"-0.013": 1.12353910047,
			"-0.012": 0.9532041307,
			"-0.011": 1.63087777262,
			"-0.01": 4.12374555018,
			"-0.009": 3.99872267672,
			"-0.008": 5.11940571002,
			"-0.007": 5.87436402651,
			"-0.006": 11.614748839,
			"-0.005": 25.7246085634,
			"-0.004": 30.5876375688,
			"-0.003": 26.8819455486,
			"-0.002": 21.2549680679,
			"-0.001": 15.9905894957,
			"0.0": 12.9611358754,
			"0.001": 12.1313908319,
			"0.002": 11.9646703256,
			"0.003": 12.0823665413,
			"0.004": 14.399278336,
			"0.005": 14.4412015931,
			"0.006": 6.7330419625,
			"0.007": 4.06492030934,
			"0.008": 4.19657215707,
			"0.009": 3.36252013002,
			"0.01": 3.30766276982,
			"0.011": 3.0444114824,
			"0.012": 3.89510910257,
			"0.013": 7.0600085619,
			"0.014": 7.2210447463,
			"0.015": 2.56975979675,
			"0.016": 0.0265551581841,
			"0.017": 0.0,
			"0.018": 0.0,
			"0.019": 0.0,
			"0.02": 0.0,
			"0.021": 0.0,
			"0.022": 0.0,
			"0.023": 0.0,
			"0.024": 0.0,
			"0.025": 0.0
		}
	}
}
