{
	 "smiles": "[O-][N+](=O)C1=C(Cl)C(=C(Cl)C(=C1)C(F)(F)F)[N+]([O-])=O", 
	 "Tm": 349.15, 
	 "num_atms": 19, 
	 "gaussian": { 
		 "optdone": 1, 
		 "sigma_profile": "yes", 
		 "theory": "DFT", 
		 "functional": "B3LYP", 
		 "basiset": "6-31G**", 
		 "properties": { 
			 "R2extent": 5806.8462, 
			 "electric_dipole_moment_norm": 1.66763207573, 
			 "electric_quadrupole_moment_norm": 7.44038854899, 
			 "total_energy": -1897.40550728, 
			 "HOMO_LUMO_gap": 0.17957, 
			 "cosmo_polarized_energy": -9.76, 
			 "cosmo_cavitation_energy": 30.98, 
			 "cosmo_dispersion_energy": -21.5, 
			 "cosmo_repulsion_energy": 1.59, 
			 "cosmo_total_nonelectrostatic_energy": 11.06, 
			 "SMD_solvation_energy": 10.88 
		},
		"coords": [
			{
				"x": -3.0942897229,
				"y": -0.8184535358,
				"z": 0.3993536561,
				"element": "O" 
			},
			{
				"x": -2.4368444815,
				"y": 0.2101312094,
				"z": 0.4911692191,
				"element": "N" 
			},
			{
				"x": -2.7087111167,
				"y": 1.1769493706,
				"z": 1.1994313832,
				"element": "O" 
			},
			{
				"x": -1.1810465155,
				"y": 0.3004892405,
				"z": -0.2821253819,
				"element": "C" 
			},
			{
				"x": -0.996859667,
				"y": -0.3339753591,
				"z": -1.5182116472,
				"element": "C" 
			},
			{
				"x": -2.225909141,
				"y": -1.2268507766,
				"z": -2.340125216,
				"element": "Cl" 
			},
			{
				"x": 0.2502603275,
				"y": -0.1815013645,
				"z": -2.1350902176,
				"element": "C" 
			},
			{
				"x": 1.2889567052,
				"y": 0.5521494479,
				"z": -1.5600047944,
				"element": "C" 
			},
			{
				"x": 2.8019273884,
				"y": 0.6655340825,
				"z": -2.3977619595,
				"element": "Cl" 
			},
			{
				"x": 1.0770645836,
				"y": 1.1843826112,
				"z": -0.3238760976,
				"element": "C" 
			},
			{
				"x": -0.1628954854,
				"y": 1.0575107747,
				"z": 0.2903236507,
				"element": "C" 
			},
			{
				"x": 2.158068603,
				"y": 2.0034543438,
				"z": 0.3570526426,
				"element": "C" 
			},
			{
				"x": 3.2444630139,
				"y": 1.2562997527,
				"z": 0.622147499,
				"element": "F" 
			},
			{
				"x": 2.543551925,
				"y": 3.0393924466,
				"z": -0.4086690372,
				"element": "F" 
			},
			{
				"x": 1.7126355847,
				"y": 2.5040063498,
				"z": 1.526059761,
				"element": "F" 
			},
			{
				"x": 0.4734398868,
				"y": -0.8206465725,
				"z": -3.4532569394,
				"element": "N" 
			},
			{
				"x": 0.9175182898,
				"y": -1.9594554256,
				"z": -3.4346892315,
				"element": "O" 
			},
			{
				"x": 0.1949133639,
				"y": -0.1480992118,
				"z": -4.4354763664,
				"element": "O" 
			},
			{
				"x": -0.357043542,
				"y": 1.5500826163,
				"z": 1.2336490767,
				"element": "H" 
			}
		],
		 "valence_orbital": [ 
			{
				"type": "occ",
				"energy": -0.33921,
				"method": "rhf"
			},
			{
				"type": "occ",
				"energy": -0.33393,
				"method": "rhf"
			},
			{
				"type": "occ",
				"energy": -0.32338,
				"method": "rhf"
			},
			{
				"type": "occ",
				"energy": -0.30839,
				"method": "rhf"
			},
			{
				"type": "occ",
				"energy": -0.30417,
				"method": "rhf"
			},
			{
				"type": "unocc",
				"energy": -0.1246,
				"method": "rhf"
			},
			{
				"type": "unocc",
				"energy": -0.10498,
				"method": "rhf"
			},
			{
				"type": "unocc",
				"energy": -0.08798,
				"method": "rhf"
			},
			{
				"type": "unocc",
				"energy": -0.06023,
				"method": "rhf"
			},
			{
				"type": "unocc",
				"energy": -0.04139,
				"method": "rhf"
			}
		],
		"cosmo_sigma_profile": { 
			"-0.025": 0.0,
			"-0.024": 0.0,
			"-0.023": 0.0,
			"-0.022": 0.0,
			"-0.021": 0.0,
			"-0.02": 0.0,
			"-0.019": 0.0,
			"-0.018": 0.0,
			"-0.017": 0.0,
			"-0.016": 0.0,
			"-0.015": 0.0,
			"-0.014": 0.0,
			"-0.013": 0.0,
			"-0.012": 0.000139558267367,
			"-0.011": 0.487327059791,
			"-0.01": 1.6452201504,
			"-0.009": 2.82146697044,
			"-0.008": 3.20241851027,
			"-0.007": 7.33658647782,
			"-0.006": 13.5789305015,
			"-0.005": 17.6028770462,
			"-0.004": 14.4088207406,
			"-0.003": 13.398439758,
			"-0.002": 15.7709722928,
			"-0.001": 17.4987264556,
			"0.0": 22.9310939501,
			"0.001": 30.746490197,
			"0.002": 30.4949685106,
			"0.003": 6.77801515066,
			"0.004": 8.38132459131,
			"0.005": 13.5237535938,
			"0.006": 19.358083593,
			"0.007": 10.1020828739,
			"0.008": 4.18417872236,
			"0.009": 0.772213806588,
			"0.01": 0.0,
			"0.011": 0.0,
			"0.012": 0.0,
			"0.013": 0.0,
			"0.014": 0.0,
			"0.015": 0.0,
			"0.016": 0.0,
			"0.017": 0.0,
			"0.018": 0.0,
			"0.019": 0.0,
			"0.02": 0.0,
			"0.021": 0.0,
			"0.022": 0.0,
			"0.023": 0.0,
			"0.024": 0.0,
			"0.025": 0.0
		}
	}
}
