{
	 "smiles": "CNC(=O)N1C=C(F)C(=O)NC1=O", 
	 "Tm": 499.15, 
	 "num_atms": 19, 
	 "gaussian": { 
		 "optdone": 1, 
		 "sigma_profile": "yes", 
		 "theory": "DFT", 
		 "functional": "B3LYP", 
		 "basiset": "6-31G**", 
		 "properties": { 
			 "R2extent": 2753.4719, 
			 "electric_dipole_moment_norm": 4.60219834101, 
			 "electric_quadrupole_moment_norm": 7.01061822024, 
			 "total_energy": -722.039645354, 
			 "HOMO_LUMO_gap": 0.19807, 
			 "cosmo_polarized_energy": -18.24, 
			 "cosmo_cavitation_energy": 24.64, 
			 "cosmo_dispersion_energy": -18.0, 
			 "cosmo_repulsion_energy": 1.41, 
			 "cosmo_total_nonelectrostatic_energy": 8.04, 
			 "SMD_solvation_energy": 7.36 
		},
		"coords": [
			{
				"x": 0.6761880041,
				"y": 0.7229808855,
				"z": -2.0590099915,
				"element": "C" 
			},
			{
				"x": 0.2760889004,
				"y": 1.8033435113,
				"z": -1.1669036474,
				"element": "N" 
			},
			{
				"x": -0.1676822306,
				"y": 1.763401264,
				"z": 0.1080338675,
				"element": "C" 
			},
			{
				"x": -0.7103489155,
				"y": 2.6952486518,
				"z": 0.6755123445,
				"element": "O" 
			},
			{
				"x": -0.0455265346,
				"y": 0.4844291257,
				"z": 0.8006574909,
				"element": "N" 
			},
			{
				"x": -1.093590377,
				"y": 0.1763617943,
				"z": 1.6699029571,
				"element": "C" 
			},
			{
				"x": -1.0536813411,
				"y": -0.8911384819,
				"z": 2.4834193424,
				"element": "C" 
			},
			{
				"x": -2.0834623226,
				"y": -1.1952254066,
				"z": 3.2811783161,
				"element": "F" 
			},
			{
				"x": 0.1173537957,
				"y": -1.7641947028,
				"z": 2.5528475307,
				"element": "C" 
			},
			{
				"x": 0.2449522488,
				"y": -2.7499795789,
				"z": 3.2524425859,
				"element": "O" 
			},
			{
				"x": 1.1419578926,
				"y": -1.3197617878,
				"z": 1.697696104,
				"element": "N" 
			},
			{
				"x": 1.1815672844,
				"y": -0.2029971762,
				"z": 0.8748149602,
				"element": "C" 
			},
			{
				"x": 2.1883290502,
				"y": 0.1319709953,
				"z": 0.279119766,
				"element": "O" 
			},
			{
				"x": 0.3422694245,
				"y": 0.972927659,
				"z": -3.0692932099,
				"element": "H" 
			},
			{
				"x": 1.756756062,
				"y": 0.5675852395,
				"z": -2.0498957292,
				"element": "H" 
			},
			{
				"x": 0.1880582472,
				"y": -0.2077312543,
				"z": -1.7634277735,
				"element": "H" 
			},
			{
				"x": 0.2140802416,
				"y": 2.7352026001,
				"z": -1.5527231388,
				"element": "H" 
			},
			{
				"x": -1.9356863074,
				"y": 0.854349846,
				"z": 1.6398961514,
				"element": "H" 
			},
			{
				"x": 2.0139768773,
				"y": -1.833673184,
				"z": 1.7520320736,
				"element": "H" 
			}
		],
		 "valence_orbital": [ 
			{
				"type": "occ",
				"energy": -0.30166,
				"method": "rhf"
			},
			{
				"type": "occ",
				"energy": -0.29784,
				"method": "rhf"
			},
			{
				"type": "occ",
				"energy": -0.28112,
				"method": "rhf"
			},
			{
				"type": "occ",
				"energy": -0.27567,
				"method": "rhf"
			},
			{
				"type": "occ",
				"energy": -0.25383,
				"method": "rhf"
			},
			{
				"type": "unocc",
				"energy": -0.05576,
				"method": "rhf"
			},
			{
				"type": "unocc",
				"energy": -0.01474,
				"method": "rhf"
			},
			{
				"type": "unocc",
				"energy": 0.01757,
				"method": "rhf"
			},
			{
				"type": "unocc",
				"energy": 0.06081,
				"method": "rhf"
			},
			{
				"type": "unocc",
				"energy": 0.07843,
				"method": "rhf"
			}
		],
		"cosmo_sigma_profile": { 
			"-0.025": 0.0,
			"-0.024": 0.0,
			"-0.023": 0.0,
			"-0.022": 0.0,
			"-0.021": 0.0,
			"-0.02": 0.0,
			"-0.019": 0.0,
			"-0.018": 0.0,
			"-0.017": 0.336259848586,
			"-0.016": 0.888849225245,
			"-0.015": 2.47512596073,
			"-0.014": 1.5686079843,
			"-0.013": 2.30101064915,
			"-0.012": 1.96491696746,
			"-0.011": 1.44178017863,
			"-0.01": 3.09234531391,
			"-0.009": 3.50681008627,
			"-0.008": 4.16096436173,
			"-0.007": 9.09870721671,
			"-0.006": 10.6906330168,
			"-0.005": 11.3638192021,
			"-0.004": 13.378869138,
			"-0.003": 17.0938799563,
			"-0.002": 15.3642884173,
			"-0.001": 7.91705150725,
			"0.0": 6.40324038606,
			"0.001": 6.31436031758,
			"0.002": 7.63486832567,
			"0.003": 11.6512947683,
			"0.004": 6.51421669929,
			"0.005": 4.82143433083,
			"0.006": 3.98212457223,
			"0.007": 4.69814236886,
			"0.008": 4.04553677986,
			"0.009": 5.29004920397,
			"0.01": 5.40066786529,
			"0.011": 11.2962932152,
			"0.012": 11.018562739,
			"0.013": 1.24297169838,
			"0.014": 0.0,
			"0.015": 0.0,
			"0.016": 0.0,
			"0.017": 0.0,
			"0.018": 0.0,
			"0.019": 0.0,
			"0.02": 0.0,
			"0.021": 0.0,
			"0.022": 0.0,
			"0.023": 0.0,
			"0.024": 0.0,
			"0.025": 0.0
		}
	}
}
