{
	 "smiles": "OC(=O)C(S)C1=CC=CC=C1", 
	 "Tm": 332.15, 
	 "num_atms": 19, 
	 "gaussian": { 
		 "optdone": 1, 
		 "sigma_profile": "yes", 
		 "theory": "DFT", 
		 "functional": "B3LYP", 
		 "basiset": "6-31G**", 
		 "properties": { 
			 "R2extent": 2677.7558, 
			 "electric_dipole_moment_norm": 4.35723035655, 
			 "electric_quadrupole_moment_norm": 11.9009232474, 
			 "total_energy": -858.310079156, 
			 "HOMO_LUMO_gap": 0.20674, 
			 "cosmo_polarized_energy": -12.5, 
			 "cosmo_cavitation_energy": 24.56, 
			 "cosmo_dispersion_energy": -18.24, 
			 "cosmo_repulsion_energy": 1.43, 
			 "cosmo_total_nonelectrostatic_energy": 7.75, 
			 "SMD_solvation_energy": 4.71 
		},
		"coords": [
			{
				"x": -1.3821490609,
				"y": -1.041082198,
				"z": -1.6138871962,
				"element": "O" 
			},
			{
				"x": -0.5353504429,
				"y": -0.0982261179,
				"z": -2.0743534036,
				"element": "C" 
			},
			{
				"x": -0.2246652015,
				"y": -0.0610969084,
				"z": -3.239034472,
				"element": "O" 
			},
			{
				"x": 0.0582543601,
				"y": 0.8364214675,
				"z": -0.9911208357,
				"element": "C" 
			},
			{
				"x": 0.6410623864,
				"y": 2.4246088594,
				"z": -1.7351002356,
				"element": "S" 
			},
			{
				"x": -0.8770463811,
				"y": 1.0830301689,
				"z": 0.1790901048,
				"element": "C" 
			},
			{
				"x": -2.067600016,
				"y": 1.8110403176,
				"z": 0.0151478825,
				"element": "C" 
			},
			{
				"x": -2.933187801,
				"y": 1.9987730038,
				"z": 1.0904940102,
				"element": "C" 
			},
			{
				"x": -2.6240188986,
				"y": 1.466495206,
				"z": 2.345896358,
				"element": "C" 
			},
			{
				"x": -1.4445262132,
				"y": 0.7434672538,
				"z": 2.5201482387,
				"element": "C" 
			},
			{
				"x": -0.5764406383,
				"y": 0.552974393,
				"z": 1.4420221095,
				"element": "C" 
			},
			{
				"x": -1.575686159,
				"y": -0.8773644508,
				"z": -0.6762336994,
				"element": "H" 
			},
			{
				"x": 0.9395573414,
				"y": 0.3006646791,
				"z": -0.6175874435,
				"element": "H" 
			},
			{
				"x": 0.8688609138,
				"y": 1.8821431542,
				"z": -2.9493734057,
				"element": "H" 
			},
			{
				"x": -2.3013965233,
				"y": 2.2382753787,
				"z": -0.9555119611,
				"element": "H" 
			},
			{
				"x": -3.8496323723,
				"y": 2.5641944207,
				"z": 0.9501206405,
				"element": "H" 
			},
			{
				"x": -3.2993423065,
				"y": 1.6178852584,
				"z": 3.1827326326,
				"element": "H" 
			},
			{
				"x": -1.1937451234,
				"y": 0.3315767855,
				"z": 3.4931191971,
				"element": "H" 
			},
			{
				"x": 0.3471521364,
				"y": -0.0028806717,
				"z": 1.5842314788,
				"element": "H" 
			}
		],
		 "valence_orbital": [ 
			{
				"type": "occ",
				"energy": -0.32503,
				"method": "rhf"
			},
			{
				"type": "occ",
				"energy": -0.29459,
				"method": "rhf"
			},
			{
				"type": "occ",
				"energy": -0.27346,
				"method": "rhf"
			},
			{
				"type": "occ",
				"energy": -0.26637,
				"method": "rhf"
			},
			{
				"type": "occ",
				"energy": -0.24143,
				"method": "rhf"
			},
			{
				"type": "unocc",
				"energy": -0.03469,
				"method": "rhf"
			},
			{
				"type": "unocc",
				"energy": -0.02624,
				"method": "rhf"
			},
			{
				"type": "unocc",
				"energy": -0.0041,
				"method": "rhf"
			},
			{
				"type": "unocc",
				"energy": 0.02658,
				"method": "rhf"
			},
			{
				"type": "unocc",
				"energy": 0.07903,
				"method": "rhf"
			}
		],
		"cosmo_sigma_profile": { 
			"-0.025": 0.0,
			"-0.024": 0.0,
			"-0.023": 0.0,
			"-0.022": 0.0,
			"-0.021": 0.0,
			"-0.02": 0.0,
			"-0.019": 0.0,
			"-0.018": 0.0,
			"-0.017": 0.0,
			"-0.016": 0.0479243162663,
			"-0.015": 0.581698208312,
			"-0.014": 0.325897067258,
			"-0.013": 0.247066611385,
			"-0.012": 1.14536617187,
			"-0.011": 1.9956362374,
			"-0.01": 2.21218454728,
			"-0.009": 4.1224875403,
			"-0.008": 4.48029012292,
			"-0.007": 6.35082237832,
			"-0.006": 13.6246052084,
			"-0.005": 13.6157175135,
			"-0.004": 13.473771675,
			"-0.003": 13.0045590265,
			"-0.002": 10.5913533436,
			"-0.001": 8.87508569735,
			"0.0": 10.1356967694,
			"0.001": 12.1644899188,
			"0.002": 11.5447055595,
			"0.003": 14.3628976131,
			"0.004": 14.4234154673,
			"0.005": 7.56063612588,
			"0.006": 5.67961591247,
			"0.007": 5.05938564168,
			"0.008": 5.50279989683,
			"0.009": 6.26545437426,
			"0.01": 5.08472724305,
			"0.011": 3.80661256894,
			"0.012": 1.90470299219,
			"0.013": 0.137877780975,
			"0.014": 0.0,
			"0.015": 0.0,
			"0.016": 0.0,
			"0.017": 0.0,
			"0.018": 0.0,
			"0.019": 0.0,
			"0.02": 0.0,
			"0.021": 0.0,
			"0.022": 0.0,
			"0.023": 0.0,
			"0.024": 0.0,
			"0.025": 0.0
		}
	}
}
