{
	 "smiles": "COC(=O)C1=NNC(N)=N1", 
	 "Tm": 493.15, 
	 "num_atms": 16, 
	 "gaussian": { 
		 "optdone": 1, 
		 "sigma_profile": "yes", 
		 "theory": "DFT", 
		 "functional": "B3LYP", 
		 "basiset": "6-31G**", 
		 "properties": { 
			 "R2extent": 2627.3358, 
			 "electric_dipole_moment_norm": 4.83373319599, 
			 "electric_quadrupole_moment_norm": 24.3470036756, 
			 "total_energy": -525.483245549, 
			 "HOMO_LUMO_gap": 0.21089, 
			 "cosmo_polarized_energy": -23.58, 
			 "cosmo_cavitation_energy": 21.56, 
			 "cosmo_dispersion_energy": -16.24, 
			 "cosmo_repulsion_energy": 1.36, 
			 "cosmo_total_nonelectrostatic_energy": 6.68, 
			 "SMD_solvation_energy": 2.94 
		},
		"coords": [
			{
				"x": -0.9230828348,
				"y": 2.1627672412,
				"z": -2.8789447206,
				"element": "C" 
			},
			{
				"x": -0.5514447797,
				"y": 1.9031475869,
				"z": -1.5176152293,
				"element": "O" 
			},
			{
				"x": 0.7463733321,
				"y": 2.130305978,
				"z": -1.2340851786,
				"element": "C" 
			},
			{
				"x": 1.5632780085,
				"y": 2.5213661189,
				"z": -2.0396522303,
				"element": "O" 
			},
			{
				"x": 1.0455353964,
				"y": 1.8398623436,
				"z": 0.1946843576,
				"element": "C" 
			},
			{
				"x": 2.2713649999,
				"y": 2.0222529429,
				"z": 0.6651746797,
				"element": "N" 
			},
			{
				"x": 2.1227325028,
				"y": 1.6549004617,
				"z": 1.9658814676,
				"element": "N" 
			},
			{
				"x": 0.8390980152,
				"y": 1.270457377,
				"z": 2.206742018,
				"element": "C" 
			},
			{
				"x": 0.3674165698,
				"y": 0.9026671864,
				"z": 3.4509262778,
				"element": "N" 
			},
			{
				"x": 0.1281659934,
				"y": 1.372818329,
				"z": 1.0998023605,
				"element": "N" 
			},
			{
				"x": -1.9868634473,
				"y": 1.9339333066,
				"z": -2.9408367108,
				"element": "H" 
			},
			{
				"x": -0.7390947095,
				"y": 3.2090269832,
				"z": -3.1370395559,
				"element": "H" 
			},
			{
				"x": -0.3527260469,
				"y": 1.5288305985,
				"z": -3.5630446078,
				"element": "H" 
			},
			{
				"x": 2.8993592704,
				"y": 1.7438860014,
				"z": 2.6037176172,
				"element": "H" 
			},
			{
				"x": 0.9768038906,
				"y": 0.2999463478,
				"z": 3.9890306949,
				"element": "H" 
			},
			{
				"x": -0.5743161609,
				"y": 0.536731197,
				"z": 3.39285876,
				"element": "H" 
			}
		],
		 "valence_orbital": [ 
			{
				"type": "occ",
				"energy": -0.29665,
				"method": "rhf"
			},
			{
				"type": "occ",
				"energy": -0.29217,
				"method": "rhf"
			},
			{
				"type": "occ",
				"energy": -0.28256,
				"method": "rhf"
			},
			{
				"type": "occ",
				"energy": -0.26429,
				"method": "rhf"
			},
			{
				"type": "occ",
				"energy": -0.23793,
				"method": "rhf"
			},
			{
				"type": "unocc",
				"energy": -0.02704,
				"method": "rhf"
			},
			{
				"type": "unocc",
				"energy": 0.0324,
				"method": "rhf"
			},
			{
				"type": "unocc",
				"energy": 0.05439,
				"method": "rhf"
			},
			{
				"type": "unocc",
				"energy": 0.08701,
				"method": "rhf"
			},
			{
				"type": "unocc",
				"energy": 0.11651,
				"method": "rhf"
			}
		],
		"cosmo_sigma_profile": { 
			"-0.025": 0.0,
			"-0.024": 0.0,
			"-0.023": 0.0,
			"-0.022": 0.0,
			"-0.021": 0.0,
			"-0.02": 0.0,
			"-0.019": 0.0,
			"-0.018": 1.12347465831,
			"-0.017": 2.36295012646,
			"-0.016": 2.05003577336,
			"-0.015": 2.65258723994,
			"-0.014": 3.12059820127,
			"-0.013": 3.45634232019,
			"-0.012": 3.86519242201,
			"-0.011": 3.08783081168,
			"-0.01": 2.32990074983,
			"-0.009": 1.89499325768,
			"-0.008": 2.48990321836,
			"-0.007": 2.95383488638,
			"-0.006": 7.41136044761,
			"-0.005": 8.22019848585,
			"-0.004": 11.5156674014,
			"-0.003": 11.9726690631,
			"-0.002": 9.63041954762,
			"-0.001": 8.18292912079,
			"0.0": 7.71797453685,
			"0.001": 6.27598558446,
			"0.002": 6.55140803541,
			"0.003": 5.21093429967,
			"0.004": 4.63111033805,
			"0.005": 5.20399102148,
			"0.006": 4.1097664657,
			"0.007": 4.83316282407,
			"0.008": 4.67766228005,
			"0.009": 4.40861405136,
			"0.01": 5.22092811344,
			"0.011": 6.37720034382,
			"0.012": 6.25823225874,
			"0.013": 4.69431576312,
			"0.014": 3.60089681861,
			"0.015": 1.82628438178,
			"0.016": 1.3224340429,
			"0.017": 0.216974094623,
			"0.018": 0.0,
			"0.019": 0.0,
			"0.02": 0.0,
			"0.021": 0.0,
			"0.022": 0.0,
			"0.023": 0.0,
			"0.024": 0.0,
			"0.025": 0.0
		}
	}
}
