{
	 "smiles": "CCC(=O)NC1=CC=C(O)C=C1", 
	 "Tm": 443.15, 
	 "num_atms": 23, 
	 "gaussian": { 
		 "optdone": 1, 
		 "sigma_profile": "yes", 
		 "theory": "DFT", 
		 "functional": "B3LYP", 
		 "basiset": "6-31G**", 
		 "properties": { 
			 "R2extent": 2920.2741, 
			 "electric_dipole_moment_norm": 3.9014099195, 
			 "electric_quadrupole_moment_norm": 12.1512589582, 
			 "total_energy": -554.801322186, 
			 "HOMO_LUMO_gap": 0.19953, 
			 "cosmo_polarized_energy": -15.23, 
			 "cosmo_cavitation_energy": 26.93, 
			 "cosmo_dispersion_energy": -19.58, 
			 "cosmo_repulsion_energy": 1.59, 
			 "cosmo_total_nonelectrostatic_energy": 8.94, 
			 "SMD_solvation_energy": 5.69 
		},
		"coords": [
			{
				"x": 0.3117233634,
				"y": 1.5166283788,
				"z": 3.7656967297,
				"element": "C" 
			},
			{
				"x": 0.0628279775,
				"y": 0.5692141607,
				"z": 2.5908243497,
				"element": "C" 
			},
			{
				"x": 1.1444486543,
				"y": 0.7015130569,
				"z": 1.5233844985,
				"element": "C" 
			},
			{
				"x": 2.2528709587,
				"y": 1.1599654325,
				"z": 1.7678190703,
				"element": "O" 
			},
			{
				"x": 0.8460218162,
				"y": 0.2874120172,
				"z": 0.2378783231,
				"element": "N" 
			},
			{
				"x": -0.3610390586,
				"y": -0.2211493582,
				"z": -0.3110022786,
				"element": "C" 
			},
			{
				"x": -0.8984841359,
				"y": 0.3748549565,
				"z": -1.4626341545,
				"element": "C" 
			},
			{
				"x": -2.0523580015,
				"y": -0.1242047998,
				"z": -2.0557246873,
				"element": "C" 
			},
			{
				"x": -2.7079413953,
				"y": -1.2245015583,
				"z": -1.4904882339,
				"element": "C" 
			},
			{
				"x": -3.845904417,
				"y": -1.6634939481,
				"z": -2.1050444123,
				"element": "O" 
			},
			{
				"x": -2.1820268731,
				"y": -1.8261056531,
				"z": -0.3432054084,
				"element": "C" 
			},
			{
				"x": -1.0073421988,
				"y": -1.3386600591,
				"z": 0.2292076479,
				"element": "C" 
			},
			{
				"x": -0.4268671141,
				"y": 1.3503216655,
				"z": 4.5555481798,
				"element": "H" 
			},
			{
				"x": 1.3117538495,
				"y": 1.3627047165,
				"z": 4.1757607377,
				"element": "H" 
			},
			{
				"x": 0.244581736,
				"y": 2.5616621758,
				"z": 3.4492169614,
				"element": "H" 
			},
			{
				"x": 0.0656021386,
				"y": -0.4698130861,
				"z": 2.9462993382,
				"element": "H" 
			},
			{
				"x": -0.925027092,
				"y": 0.7322480668,
				"z": 2.1474300518,
				"element": "H" 
			},
			{
				"x": 1.5963309512,
				"y": 0.5006569092,
				"z": -0.4084180338,
				"element": "H" 
			},
			{
				"x": -0.4043396124,
				"y": 1.2426396553,
				"z": -1.8904907525,
				"element": "H" 
			},
			{
				"x": -2.467341893,
				"y": 0.3329182211,
				"z": -2.9477326265,
				"element": "H" 
			},
			{
				"x": -4.1956911422,
				"y": -2.4237797031,
				"z": -1.6228059452,
				"element": "H" 
			},
			{
				"x": -2.6757924374,
				"y": -2.6914946282,
				"z": 0.0937487426,
				"element": "H" 
			},
			{
				"x": -0.5842060743,
				"y": -1.8403366188,
				"z": 1.0926319025,
				"element": "H" 
			}
		],
		 "valence_orbital": [ 
			{
				"type": "occ",
				"energy": -0.33715,
				"method": "rhf"
			},
			{
				"type": "occ",
				"energy": -0.27327,
				"method": "rhf"
			},
			{
				"type": "occ",
				"energy": -0.26435,
				"method": "rhf"
			},
			{
				"type": "occ",
				"energy": -0.24689,
				"method": "rhf"
			},
			{
				"type": "occ",
				"energy": -0.21511,
				"method": "rhf"
			},
			{
				"type": "unocc",
				"energy": -0.01558,
				"method": "rhf"
			},
			{
				"type": "unocc",
				"energy": -0.00462,
				"method": "rhf"
			},
			{
				"type": "unocc",
				"energy": 0.03769,
				"method": "rhf"
			},
			{
				"type": "unocc",
				"energy": 0.0622,
				"method": "rhf"
			},
			{
				"type": "unocc",
				"energy": 0.08305,
				"method": "rhf"
			}
		],
		"cosmo_sigma_profile": { 
			"-0.025": 0.0,
			"-0.024": 0.0,
			"-0.023": 0.0,
			"-0.022": 0.0,
			"-0.021": 0.0,
			"-0.02": 0.0,
			"-0.019": 0.0,
			"-0.018": 0.445052381932,
			"-0.017": 1.1727391562,
			"-0.016": 0.669693656604,
			"-0.015": 1.30023676286,
			"-0.014": 1.4128201861,
			"-0.013": 2.02583600605,
			"-0.012": 1.87483810915,
			"-0.011": 1.89715668424,
			"-0.01": 1.88454361473,
			"-0.009": 2.5889247487,
			"-0.008": 2.42844819569,
			"-0.007": 5.14549090845,
			"-0.006": 10.405051697,
			"-0.005": 9.91001744438,
			"-0.004": 11.7279318903,
			"-0.003": 15.0994610958,
			"-0.002": 16.4742917426,
			"-0.001": 17.5284534679,
			"0.0": 15.3035519401,
			"0.001": 15.669971944,
			"0.002": 10.3917063086,
			"0.003": 13.3052582233,
			"0.004": 13.7821685242,
			"0.005": 10.3332789429,
			"0.006": 2.46402095596,
			"0.007": 3.17100270046,
			"0.008": 2.53496022234,
			"0.009": 3.01831224401,
			"0.01": 3.36885180049,
			"0.011": 3.13614947854,
			"0.012": 2.47746266243,
			"0.013": 3.98959724087,
			"0.014": 5.10316564423,
			"0.015": 0.556075033759,
			"0.016": 0.0,
			"0.017": 0.0,
			"0.018": 0.0,
			"0.019": 0.0,
			"0.02": 0.0,
			"0.021": 0.0,
			"0.022": 0.0,
			"0.023": 0.0,
			"0.024": 0.0,
			"0.025": 0.0
		}
	}
}
