{
	 "smiles": "OC(=O)C1=CC=C(NC(=O)C2=CC(Cl)=CC(Cl)=C2)C=C1", 
	 "Tm": 579.15, 
	 "num_atms": 29, 
	 "gaussian": { 
		 "optdone": 1, 
		 "sigma_profile": "yes", 
		 "theory": "DFT", 
		 "functional": "B3LYP", 
		 "basiset": "6-31G**", 
		 "properties": { 
			 "R2extent": 8792.8328, 
			 "electric_dipole_moment_norm": 3.77608963347, 
			 "electric_quadrupole_moment_norm": 32.6204495988, 
			 "total_energy": -1739.74239781, 
			 "HOMO_LUMO_gap": 0.17619, 
			 "cosmo_polarized_energy": -22.47, 
			 "cosmo_cavitation_energy": 38.78, 
			 "cosmo_dispersion_energy": -27.16, 
			 "cosmo_repulsion_energy": 2.11, 
			 "cosmo_total_nonelectrostatic_energy": 13.74, 
			 "SMD_solvation_energy": 7.7 
		},
		"coords": [
			{
				"x": -4.813902104,
				"y": 1.4464683365,
				"z": -2.5149187155,
				"element": "O" 
			},
			{
				"x": -3.7841023265,
				"y": 0.560921147,
				"z": -2.5989130121,
				"element": "C" 
			},
			{
				"x": -3.8814799488,
				"y": -0.4113223871,
				"z": -3.3102118401,
				"element": "O" 
			},
			{
				"x": -2.5655959141,
				"y": 0.8589192985,
				"z": -1.7815243319,
				"element": "C" 
			},
			{
				"x": -1.3709712753,
				"y": 0.214743958,
				"z": -2.1331521451,
				"element": "C" 
			},
			{
				"x": -0.1975369874,
				"y": 0.4446657877,
				"z": -1.4269708739,
				"element": "C" 
			},
			{
				"x": -0.2048596603,
				"y": 1.300169373,
				"z": -0.3124654664,
				"element": "C" 
			},
			{
				"x": 0.9574044327,
				"y": 1.5938329432,
				"z": 0.4325156309,
				"element": "N" 
			},
			{
				"x": 2.1431502519,
				"y": 0.891478018,
				"z": 0.6022767171,
				"element": "C" 
			},
			{
				"x": 3.167501623,
				"y": 1.4938677979,
				"z": 0.8911046163,
				"element": "O" 
			},
			{
				"x": 2.1306284662,
				"y": -0.6086400486,
				"z": 0.5185318644,
				"element": "C" 
			},
			{
				"x": 3.3106091448,
				"y": -1.2291773098,
				"z": 0.091143831,
				"element": "C" 
			},
			{
				"x": 3.3759137918,
				"y": -2.619007233,
				"z": 0.0701538713,
				"element": "C" 
			},
			{
				"x": 4.8387081621,
				"y": -3.4063254935,
				"z": -0.4883419147,
				"element": "Cl" 
			},
			{
				"x": 2.3047538059,
				"y": -3.4069954316,
				"z": 0.4936822037,
				"element": "C" 
			},
			{
				"x": 1.15049428,
				"y": -2.765299914,
				"z": 0.9422933473,
				"element": "C" 
			},
			{
				"x": -0.1966122507,
				"y": -3.7356798127,
				"z": 1.5046026116,
				"element": "Cl" 
			},
			{
				"x": 1.0439853265,
				"y": -1.3761762275,
				"z": 0.955748369,
				"element": "C" 
			},
			{
				"x": -1.4016518608,
				"y": 1.9331876445,
				"z": 0.0569659291,
				"element": "C" 
			},
			{
				"x": -2.5649009232,
				"y": 1.7196153779,
				"z": -0.6749423953,
				"element": "C" 
			},
			{
				"x": -4.5312165902,
				"y": 2.2499249377,
				"z": -2.057392538,
				"element": "H" 
			},
			{
				"x": -1.3793351027,
				"y": -0.4541950776,
				"z": -2.9868201266,
				"element": "H" 
			},
			{
				"x": 0.7246466159,
				"y": -0.0279941819,
				"z": -1.7432841036,
				"element": "H" 
			},
			{
				"x": 1.0695838156,
				"y": 2.5608905164,
				"z": 0.7150669223,
				"element": "H" 
			},
			{
				"x": 4.1577128787,
				"y": -0.622818261,
				"z": -0.2053521291,
				"element": "H" 
			},
			{
				"x": 2.3700756554,
				"y": -4.487931431,
				"z": 0.4808841011,
				"element": "H" 
			},
			{
				"x": 0.1362460114,
				"y": -0.9083753874,
				"z": 1.3154698392,
				"element": "H" 
			},
			{
				"x": -1.4168762843,
				"y": 2.5786010266,
				"z": 0.930377159,
				"element": "H" 
			},
			{
				"x": -3.4813730335,
				"y": 2.1974520335,
				"z": -0.3373274207,
				"element": "H" 
			}
		],
		 "valence_orbital": [ 
			{
				"type": "occ",
				"energy": -0.28559,
				"method": "rhf"
			},
			{
				"type": "occ",
				"energy": -0.27995,
				"method": "rhf"
			},
			{
				"type": "occ",
				"energy": -0.27317,
				"method": "rhf"
			},
			{
				"type": "occ",
				"energy": -0.26504,
				"method": "rhf"
			},
			{
				"type": "occ",
				"energy": -0.25104,
				"method": "rhf"
			},
			{
				"type": "unocc",
				"energy": -0.07485,
				"method": "rhf"
			},
			{
				"type": "unocc",
				"energy": -0.05316,
				"method": "rhf"
			},
			{
				"type": "unocc",
				"energy": -0.04376,
				"method": "rhf"
			},
			{
				"type": "unocc",
				"energy": -0.03041,
				"method": "rhf"
			},
			{
				"type": "unocc",
				"energy": -0.00334,
				"method": "rhf"
			}
		],
		"cosmo_sigma_profile": { 
			"-0.025": 0.0,
			"-0.024": 0.0,
			"-0.023": 0.0,
			"-0.022": 0.0,
			"-0.021": 0.0,
			"-0.02": 0.0,
			"-0.019": 0.339278004834,
			"-0.018": 0.695019198477,
			"-0.017": 1.25107754139,
			"-0.016": 0.765284794866,
			"-0.015": 2.4255160482,
			"-0.014": 1.78748024911,
			"-0.013": 1.88671987004,
			"-0.012": 2.37383221714,
			"-0.011": 1.89240231064,
			"-0.01": 2.44454504536,
			"-0.009": 4.63994756253,
			"-0.008": 5.54027585012,
			"-0.007": 11.6279145441,
			"-0.006": 13.5475310953,
			"-0.005": 13.2334300468,
			"-0.004": 13.5782374109,
			"-0.003": 16.6041008883,
			"-0.002": 20.025657662,
			"-0.001": 23.4993608956,
			"0.0": 35.2966674122,
			"0.001": 25.7930377389,
			"0.002": 25.4490590223,
			"0.003": 23.1780191573,
			"0.004": 20.5623476903,
			"0.005": 3.62381323336,
			"0.006": 4.27783351589,
			"0.007": 4.0519756435,
			"0.008": 3.46433912884,
			"0.009": 5.12436734119,
			"0.01": 5.97038217507,
			"0.011": 7.89895412528,
			"0.012": 10.3175645341,
			"0.013": 3.18088257534,
			"0.014": 0.0656113846728,
			"0.015": 0.0,
			"0.016": 0.0,
			"0.017": 0.0,
			"0.018": 0.0,
			"0.019": 0.0,
			"0.02": 0.0,
			"0.021": 0.0,
			"0.022": 0.0,
			"0.023": 0.0,
			"0.024": 0.0,
			"0.025": 0.0
		}
	}
}
