{
	 "smiles": "C1=CC2=CC=CC(N=NC3=C4C=CC=CC4=CC=C3)=C2C=C1", 
	 "Tm": 463.15, 
	 "num_atms": 36, 
	 "gaussian": { 
		 "optdone": 1, 
		 "sigma_profile": "yes", 
		 "theory": "DFT", 
		 "functional": "B3LYP", 
		 "basiset": "6-31G**", 
		 "properties": { 
			 "R2extent": 8861.0079, 
			 "electric_dipole_moment_norm": 0.0898813662557, 
			 "electric_quadrupole_moment_norm": 17.1695582398, 
			 "total_energy": -880.050181668, 
			 "HOMO_LUMO_gap": 0.11457, 
			 "cosmo_polarized_energy": -8.19, 
			 "cosmo_cavitation_energy": 40.41, 
			 "cosmo_dispersion_energy": -29.34, 
			 "cosmo_repulsion_energy": 2.16, 
			 "cosmo_total_nonelectrostatic_energy": 13.24, 
			 "SMD_solvation_energy": 5.32 
		},
		"coords": [
			{
				"x": -2.1077273374,
				"y": -3.158120928,
				"z": -4.2485664274,
				"element": "C" 
			},
			{
				"x": -2.1891120076,
				"y": -1.829505269,
				"z": -4.5955332099,
				"element": "C" 
			},
			{
				"x": -1.7267212207,
				"y": -0.8158347273,
				"z": -3.7119929087,
				"element": "C" 
			},
			{
				"x": -1.8006764352,
				"y": 0.5597134524,
				"z": -4.0522610059,
				"element": "C" 
			},
			{
				"x": -1.3449821134,
				"y": 1.5300581497,
				"z": -3.1826134563,
				"element": "C" 
			},
			{
				"x": -0.8026813326,
				"y": 1.1705433697,
				"z": -1.9356367829,
				"element": "C" 
			},
			{
				"x": -0.7172460129,
				"y": -0.1635070102,
				"z": -1.5587556421,
				"element": "C" 
			},
			{
				"x": -0.1573913347,
				"y": -0.593548867,
				"z": -0.3357107443,
				"element": "N" 
			},
			{
				"x": -0.0133459022,
				"y": 0.3081036982,
				"z": 0.5372029962,
				"element": "N" 
			},
			{
				"x": 0.6262970661,
				"y": -0.1028341882,
				"z": 1.72725302,
				"element": "C" 
			},
			{
				"x": 0.5342636082,
				"y": 0.7991372102,
				"z": 2.840247686,
				"element": "C" 
			},
			{
				"x": -0.182696912,
				"y": 2.0234141627,
				"z": 2.7789451034,
				"element": "C" 
			},
			{
				"x": -0.2496406274,
				"y": 2.853237688,
				"z": 3.8764236588,
				"element": "C" 
			},
			{
				"x": 0.391742165,
				"y": 2.5010665782,
				"z": 5.0889208616,
				"element": "C" 
			},
			{
				"x": 1.0934588178,
				"y": 1.3213905915,
				"z": 5.1793900435,
				"element": "C" 
			},
			{
				"x": 1.1858389546,
				"y": 0.4411191167,
				"z": 4.0664762325,
				"element": "C" 
			},
			{
				"x": 1.9061246122,
				"y": -0.7792170797,
				"z": 4.1395112383,
				"element": "C" 
			},
			{
				"x": 1.9867286473,
				"y": -1.6206089393,
				"z": 3.0481372611,
				"element": "C" 
			},
			{
				"x": 1.3478407784,
				"y": -1.2841252219,
				"z": 1.8411290974,
				"element": "C" 
			},
			{
				"x": -1.1711209865,
				"y": -1.1967070911,
				"z": -2.4460473122,
				"element": "C" 
			},
			{
				"x": -1.1015303713,
				"y": -2.5764059881,
				"z": -2.1170683186,
				"element": "C" 
			},
			{
				"x": -1.5573270938,
				"y": -3.5319249881,
				"z": -2.9984183164,
				"element": "C" 
			},
			{
				"x": -2.4638780422,
				"y": -3.9238906395,
				"z": -4.9315904781,
				"element": "H" 
			},
			{
				"x": -2.6099748152,
				"y": -1.5331689924,
				"z": -5.5529108576,
				"element": "H" 
			},
			{
				"x": -2.217614338,
				"y": 0.8379972325,
				"z": -5.0167296717,
				"element": "H" 
			},
			{
				"x": -1.3978096026,
				"y": 2.5787409426,
				"z": -3.4603648526,
				"element": "H" 
			},
			{
				"x": -0.4322452535,
				"y": 1.9253928553,
				"z": -1.2516084966,
				"element": "H" 
			},
			{
				"x": -0.6732474379,
				"y": 2.2881120241,
				"z": 1.8500679955,
				"element": "H" 
			},
			{
				"x": -0.7998167534,
				"y": 3.787821169,
				"z": 3.8135398116,
				"element": "H" 
			},
			{
				"x": 0.3281119651,
				"y": 3.1659005408,
				"z": 5.945492737,
				"element": "H" 
			},
			{
				"x": 1.5890078869,
				"y": 1.0428391567,
				"z": 6.1058623872,
				"element": "H" 
			},
			{
				"x": 2.4018774374,
				"y": -1.0387140797,
				"z": 5.0713729357,
				"element": "H" 
			},
			{
				"x": 2.5504696129,
				"y": -2.5465926504,
				"z": 3.1146400663,
				"element": "H" 
			},
			{
				"x": 1.4154238114,
				"y": -1.933665974,
				"z": 0.9760000132,
				"element": "H" 
			},
			{
				"x": -0.6813399943,
				"y": -2.8578438318,
				"z": -1.1590732223,
				"element": "H" 
			},
			{
				"x": -1.4951594384,
				"y": -4.5836714725,
				"z": -2.7337314418,
				"element": "H" 
			}
		],
		 "valence_orbital": [ 
			{
				"type": "occ",
				"energy": -0.24625,
				"method": "rhf"
			},
			{
				"type": "occ",
				"energy": -0.24614,
				"method": "rhf"
			},
			{
				"type": "occ",
				"energy": -0.22559,
				"method": "rhf"
			},
			{
				"type": "occ",
				"energy": -0.22463,
				"method": "rhf"
			},
			{
				"type": "occ",
				"energy": -0.20276,
				"method": "rhf"
			},
			{
				"type": "unocc",
				"energy": -0.08819,
				"method": "rhf"
			},
			{
				"type": "unocc",
				"energy": -0.03503,
				"method": "rhf"
			},
			{
				"type": "unocc",
				"energy": -0.01695,
				"method": "rhf"
			},
			{
				"type": "unocc",
				"energy": -0.00973,
				"method": "rhf"
			},
			{
				"type": "unocc",
				"energy": -0.00806,
				"method": "rhf"
			}
		],
		"cosmo_sigma_profile": { 
			"-0.025": 0.0,
			"-0.024": 0.0,
			"-0.023": 0.0,
			"-0.022": 0.0,
			"-0.021": 0.0,
			"-0.02": 0.0,
			"-0.019": 0.0,
			"-0.018": 0.0,
			"-0.017": 0.0,
			"-0.016": 0.0,
			"-0.015": 0.0,
			"-0.014": 0.0,
			"-0.013": 0.0,
			"-0.012": 0.0,
			"-0.011": 0.0,
			"-0.01": 0.0,
			"-0.009": 0.0,
			"-0.008": 0.0,
			"-0.007": 3.1383821291,
			"-0.006": 21.5551400899,
			"-0.005": 24.9893315611,
			"-0.004": 27.7567867327,
			"-0.003": 21.9792740007,
			"-0.002": 19.2792265861,
			"-0.001": 15.8023325657,
			"0.0": 18.5475210748,
			"0.001": 24.7799361048,
			"0.002": 37.9477565513,
			"0.003": 52.1623009485,
			"0.004": 39.3499508161,
			"0.005": 17.4158363092,
			"0.006": 1.44315705486,
			"0.007": 0.0282935542282,
			"0.008": 0.0,
			"0.009": 0.0,
			"0.01": 0.0,
			"0.011": 0.0,
			"0.012": 0.0,
			"0.013": 0.0,
			"0.014": 0.0,
			"0.015": 0.0,
			"0.016": 0.0,
			"0.017": 0.0,
			"0.018": 0.0,
			"0.019": 0.0,
			"0.02": 0.0,
			"0.021": 0.0,
			"0.022": 0.0,
			"0.023": 0.0,
			"0.024": 0.0,
			"0.025": 0.0
		}
	}
}
