{
	 "smiles": "CN1N=C(C=C1N)C1CC1", 
	 "Tm": 395.15, 
	 "num_atms": 21, 
	 "gaussian": { 
		 "optdone": 1, 
		 "sigma_profile": "yes", 
		 "theory": "DFT", 
		 "functional": "B3LYP", 
		 "basiset": "6-31G**", 
		 "properties": { 
			 "R2extent": 1712.219, 
			 "electric_dipole_moment_norm": 3.06267649124, 
			 "electric_quadrupole_moment_norm": 7.8574058919, 
			 "total_energy": -437.579066657, 
			 "HOMO_LUMO_gap": 0.23619, 
			 "cosmo_polarized_energy": -11.76, 
			 "cosmo_cavitation_energy": 24.17, 
			 "cosmo_dispersion_energy": -17.81, 
			 "cosmo_repulsion_energy": 1.48, 
			 "cosmo_total_nonelectrostatic_energy": 7.84, 
			 "SMD_solvation_energy": 3.23 
		},
		"coords": [
			{
				"x": 1.5970994504,
				"y": 2.4120511526,
				"z": 0.0724395598,
				"element": "C" 
			},
			{
				"x": 0.9798266167,
				"y": 1.1905184421,
				"z": -0.393833179,
				"element": "N" 
			},
			{
				"x": 0.2719818754,
				"y": 0.4062796761,
				"z": 0.467097391,
				"element": "N" 
			},
			{
				"x": -0.1578516857,
				"y": -0.6169532274,
				"z": -0.2733860239,
				"element": "C" 
			},
			{
				"x": 0.2943583069,
				"y": -0.5139645965,
				"z": -1.6116024797,
				"element": "C" 
			},
			{
				"x": 1.0308184859,
				"y": 0.6606789975,
				"z": -1.6473617618,
				"element": "C" 
			},
			{
				"x": 1.6797711591,
				"y": 1.3406730314,
				"z": -2.6907758439,
				"element": "N" 
			},
			{
				"x": -0.9950332984,
				"y": -1.6912888405,
				"z": 0.3120195888,
				"element": "C" 
			},
			{
				"x": -0.786768461,
				"y": -2.1206470527,
				"z": 1.7517589982,
				"element": "C" 
			},
			{
				"x": -2.0260748005,
				"y": -1.3605827256,
				"z": 1.3750841875,
				"element": "C" 
			},
			{
				"x": 0.9662527383,
				"y": 2.8370851811,
				"z": 0.8543138615,
				"element": "H" 
			},
			{
				"x": 1.6715901086,
				"y": 3.1126049539,
				"z": -0.7627658587,
				"element": "H" 
			},
			{
				"x": 2.5977056257,
				"y": 2.2346817571,
				"z": 0.4864195489,
				"element": "H" 
			},
			{
				"x": 0.1175697479,
				"y": -1.197919949,
				"z": -2.4291460769,
				"element": "H" 
			},
			{
				"x": 1.5071337403,
				"y": 0.8905570866,
				"z": -3.5814594996,
				"element": "H" 
			},
			{
				"x": 2.6833503851,
				"y": 1.4193961715,
				"z": -2.5534965964,
				"element": "H" 
			},
			{
				"x": -1.2614713379,
				"y": -2.4734866643,
				"z": -0.3935892031,
				"element": "H" 
			},
			{
				"x": -0.8745221788,
				"y": -3.1775582008,
				"z": 1.9868635834,
				"element": "H" 
			},
			{
				"x": -0.0188572184,
				"y": -1.5876770215,
				"z": 2.3031412817,
				"element": "H" 
			},
			{
				"x": -2.0876640809,
				"y": -0.3193326525,
				"z": 1.6746619236,
				"element": "H" 
			},
			{
				"x": -2.9744151787,
				"y": -1.889715519,
				"z": 1.3481165985,
				"element": "H" 
			}
		],
		 "valence_orbital": [ 
			{
				"type": "occ",
				"energy": -0.29101,
				"method": "rhf"
			},
			{
				"type": "occ",
				"energy": -0.28591,
				"method": "rhf"
			},
			{
				"type": "occ",
				"energy": -0.2644,
				"method": "rhf"
			},
			{
				"type": "occ",
				"energy": -0.21599,
				"method": "rhf"
			},
			{
				"type": "occ",
				"energy": -0.20055,
				"method": "rhf"
			},
			{
				"type": "unocc",
				"energy": 0.03564,
				"method": "rhf"
			},
			{
				"type": "unocc",
				"energy": 0.07096,
				"method": "rhf"
			},
			{
				"type": "unocc",
				"energy": 0.08634,
				"method": "rhf"
			},
			{
				"type": "unocc",
				"energy": 0.10785,
				"method": "rhf"
			},
			{
				"type": "unocc",
				"energy": 0.11961,
				"method": "rhf"
			}
		],
		"cosmo_sigma_profile": { 
			"-0.025": 0.0,
			"-0.024": 0.0,
			"-0.023": 0.0,
			"-0.022": 0.0,
			"-0.021": 0.0,
			"-0.02": 0.0,
			"-0.019": 0.0,
			"-0.018": 0.0,
			"-0.017": 0.0,
			"-0.016": 0.0,
			"-0.015": 0.0,
			"-0.014": 0.0,
			"-0.013": 0.822858244851,
			"-0.012": 2.8994970745,
			"-0.011": 2.551326504,
			"-0.01": 3.21923369912,
			"-0.009": 2.98581413535,
			"-0.008": 2.56111231959,
			"-0.007": 2.16188724991,
			"-0.006": 4.43912016163,
			"-0.005": 12.198524696,
			"-0.004": 16.4399280262,
			"-0.003": 19.2801141239,
			"-0.002": 17.0029827799,
			"-0.001": 10.7313335537,
			"0.0": 11.2667425057,
			"0.001": 10.1590028552,
			"0.002": 9.44938792849,
			"0.003": 8.389310215,
			"0.004": 9.29593854652,
			"0.005": 11.4546978295,
			"0.006": 10.0780241014,
			"0.007": 7.11687188146,
			"0.008": 3.86500091967,
			"0.009": 3.35349154639,
			"0.01": 1.91282791244,
			"0.011": 1.67617086921,
			"0.012": 1.6601527675,
			"0.013": 0.931805661387,
			"0.014": 1.45116590388,
			"0.015": 0.709533260606,
			"0.016": 0.271880436968,
			"0.017": 0.0,
			"0.018": 0.0,
			"0.019": 0.0,
			"0.02": 0.0,
			"0.021": 0.0,
			"0.022": 0.0,
			"0.023": 0.0,
			"0.024": 0.0,
			"0.025": 0.0
		}
	}
}
