{
	 "smiles": "CN(C(=O)C1CC1)C1=C(C=CC=C1)C(O)=O", 
	 "Tm": 440.15, 
	 "num_atms": 29, 
	 "gaussian": { 
		 "optdone": 1, 
		 "sigma_profile": "yes", 
		 "theory": "DFT", 
		 "functional": "B3LYP", 
		 "basiset": "6-31G**", 
		 "properties": { 
			 "R2extent": 3668.7, 
			 "electric_dipole_moment_norm": 4.41314427025, 
			 "electric_quadrupole_moment_norm": 9.93852420584, 
			 "total_energy": -745.526174329, 
			 "HOMO_LUMO_gap": 0.18701, 
			 "cosmo_polarized_energy": -16.99, 
			 "cosmo_cavitation_energy": 32.53, 
			 "cosmo_dispersion_energy": -22.52, 
			 "cosmo_repulsion_energy": 1.77, 
			 "cosmo_total_nonelectrostatic_energy": 11.77, 
			 "SMD_solvation_energy": 7.11 
		},
		"coords": [
			{
				"x": -2.0570281486,
				"y": -0.0103346199,
				"z": -1.8075925524,
				"element": "C" 
			},
			{
				"x": -0.9822746511,
				"y": 0.3960139207,
				"z": -0.8992786402,
				"element": "N" 
			},
			{
				"x": -1.033178898,
				"y": 0.2438176015,
				"z": 0.4751736547,
				"element": "C" 
			},
			{
				"x": -0.0597987723,
				"y": 0.4976429496,
				"z": 1.1793945684,
				"element": "O" 
			},
			{
				"x": -2.3227158076,
				"y": -0.2181950745,
				"z": 1.0818871642,
				"element": "C" 
			},
			{
				"x": -2.6849499529,
				"y": 0.3847804104,
				"z": 2.4311278599,
				"element": "C" 
			},
			{
				"x": -2.2027751009,
				"y": -1.0261874233,
				"z": 2.3644859803,
				"element": "C" 
			},
			{
				"x": 0.2863085456,
				"y": 0.7193606503,
				"z": -1.4871291571,
				"element": "C" 
			},
			{
				"x": 1.3738842403,
				"y": -0.1788894012,
				"z": -1.5175936444,
				"element": "C" 
			},
			{
				"x": 2.5832230264,
				"y": 0.2351689916,
				"z": -2.0954299783,
				"element": "C" 
			},
			{
				"x": 2.7145753071,
				"y": 1.4951737337,
				"z": -2.6702301755,
				"element": "C" 
			},
			{
				"x": 1.6307813519,
				"y": 2.3736404191,
				"z": -2.6561302592,
				"element": "C" 
			},
			{
				"x": 0.4326308333,
				"y": 1.9868394038,
				"z": -2.0573265367,
				"element": "C" 
			},
			{
				"x": 1.370986474,
				"y": -1.5690909721,
				"z": -0.9724116635,
				"element": "C" 
			},
			{
				"x": 0.1406353855,
				"y": -2.1126771757,
				"z": -0.7991238802,
				"element": "O" 
			},
			{
				"x": 2.3793865412,
				"y": -2.2069471359,
				"z": -0.7441595383,
				"element": "O" 
			},
			{
				"x": -1.8156789225,
				"y": 0.3529022102,
				"z": -2.8076285642,
				"element": "H" 
			},
			{
				"x": -3.0124265166,
				"y": 0.4330414751,
				"z": -1.5160354897,
				"element": "H" 
			},
			{
				"x": -2.1584453431,
				"y": -1.1012527083,
				"z": -1.8538114975,
				"element": "H" 
			},
			{
				"x": -3.1448720328,
				"y": -0.4743565953,
				"z": 0.4257705836,
				"element": "H" 
			},
			{
				"x": -3.7361944519,
				"y": 0.5753219378,
				"z": 2.6234984224,
				"element": "H" 
			},
			{
				"x": -1.9930705186,
				"y": 1.126987853,
				"z": 2.8145091803,
				"element": "H" 
			},
			{
				"x": -2.9144341016,
				"y": -1.8331133043,
				"z": 2.5091892725,
				"element": "H" 
			},
			{
				"x": -1.1904883918,
				"y": -1.219912587,
				"z": 2.7021632233,
				"element": "H" 
			},
			{
				"x": 3.4126425517,
				"y": -0.4633032093,
				"z": -2.0843259511,
				"element": "H" 
			},
			{
				"x": 3.6568805476,
				"y": 1.7909329009,
				"z": -3.1209070062,
				"element": "H" 
			},
			{
				"x": 1.7200298724,
				"y": 3.3635603781,
				"z": -3.0940385726,
				"element": "H" 
			},
			{
				"x": -0.4061908029,
				"y": 2.6741563873,
				"z": -2.0071034217,
				"element": "H" 
			},
			{
				"x": 0.3066577362,
				"y": -3.0023810165,
				"z": -0.4445433808,
				"element": "H" 
			}
		],
		 "valence_orbital": [ 
			{
				"type": "occ",
				"energy": -0.27857,
				"method": "rhf"
			},
			{
				"type": "occ",
				"energy": -0.26636,
				"method": "rhf"
			},
			{
				"type": "occ",
				"energy": -0.26042,
				"method": "rhf"
			},
			{
				"type": "occ",
				"energy": -0.24579,
				"method": "rhf"
			},
			{
				"type": "occ",
				"energy": -0.2348,
				"method": "rhf"
			},
			{
				"type": "unocc",
				"energy": -0.04779,
				"method": "rhf"
			},
			{
				"type": "unocc",
				"energy": -0.01349,
				"method": "rhf"
			},
			{
				"type": "unocc",
				"energy": 0.02518,
				"method": "rhf"
			},
			{
				"type": "unocc",
				"energy": 0.05242,
				"method": "rhf"
			},
			{
				"type": "unocc",
				"energy": 0.07629,
				"method": "rhf"
			}
		],
		"cosmo_sigma_profile": { 
			"-0.025": 0.0,
			"-0.024": 0.0,
			"-0.023": 0.0,
			"-0.022": 0.0,
			"-0.021": 0.0,
			"-0.02": 0.0,
			"-0.019": 0.147563192769,
			"-0.018": 0.65544914084,
			"-0.017": 0.693134945362,
			"-0.016": 1.3147461219,
			"-0.015": 0.770657313589,
			"-0.014": 0.181851075539,
			"-0.013": 0.215878305203,
			"-0.012": 0.55087401366,
			"-0.011": 1.0329837572,
			"-0.01": 0.960706816121,
			"-0.009": 0.626713183631,
			"-0.008": 0.65934736353,
			"-0.007": 4.80181144737,
			"-0.006": 13.8372915138,
			"-0.005": 20.9889299439,
			"-0.004": 23.5788281795,
			"-0.003": 22.4413415186,
			"-0.002": 20.8828771477,
			"-0.001": 16.2436370722,
			"0.0": 17.9374485573,
			"0.001": 18.2384499371,
			"0.002": 18.4064362649,
			"0.003": 19.29461588,
			"0.004": 12.5249029098,
			"0.005": 5.57982331771,
			"0.006": 4.94714136177,
			"0.007": 3.0157776837,
			"0.008": 2.89204505965,
			"0.009": 2.97190990608,
			"0.01": 4.85923260848,
			"0.011": 5.01342701013,
			"0.012": 4.68173298007,
			"0.013": 2.69399261713,
			"0.014": 3.880398162,
			"0.015": 0.50628540972,
			"0.016": 0.0,
			"0.017": 0.0,
			"0.018": 0.0,
			"0.019": 0.0,
			"0.02": 0.0,
			"0.021": 0.0,
			"0.022": 0.0,
			"0.023": 0.0,
			"0.024": 0.0,
			"0.025": 0.0
		}
	}
}
