{
	 "smiles": "CC(C)CC(N1C(=O)C2CC=CCC2C1=O)C(O)=O", 
	 "Tm": 409.15, 
	 "num_atms": 38, 
	 "gaussian": { 
		 "optdone": 1, 
		 "sigma_profile": "yes", 
		 "theory": "DFT", 
		 "functional": "B3LYP", 
		 "basiset": "6-31G**", 
		 "properties": { 
			 "R2extent": 5141.3184, 
			 "electric_dipole_moment_norm": 6.00636042542, 
			 "electric_quadrupole_moment_norm": 25.8118157585, 
			 "total_energy": -900.625373954, 
			 "HOMO_LUMO_gap": 0.21978, 
			 "cosmo_polarized_energy": -16.64, 
			 "cosmo_cavitation_energy": 37.92, 
			 "cosmo_dispersion_energy": -25.71, 
			 "cosmo_repulsion_energy": 1.98, 
			 "cosmo_total_nonelectrostatic_energy": 14.19, 
			 "SMD_solvation_energy": 7.89 
		},
		"coords": [
			{
				"x": 0.7531132914,
				"y": -0.601058516,
				"z": 2.716135942,
				"element": "C" 
			},
			{
				"x": 0.8715489719,
				"y": -1.6316970161,
				"z": 1.5816573273,
				"element": "C" 
			},
			{
				"x": 1.8622500143,
				"y": -1.1596397447,
				"z": 0.5069066214,
				"element": "C" 
			},
			{
				"x": -0.5030980037,
				"y": -2.0740969441,
				"z": 1.0272065623,
				"element": "C" 
			},
			{
				"x": -1.4184181214,
				"y": -0.9797414176,
				"z": 0.4590986053,
				"element": "C" 
			},
			{
				"x": -1.0990234946,
				"y": -0.4902410808,
				"z": -0.9085493099,
				"element": "N" 
			},
			{
				"x": -0.5498321001,
				"y": -1.2133425968,
				"z": -1.9853566718,
				"element": "C" 
			},
			{
				"x": -0.2174729455,
				"y": -2.3771544196,
				"z": -1.9640106045,
				"element": "O" 
			},
			{
				"x": -0.4456332745,
				"y": -0.2770741846,
				"z": -3.1949383946,
				"element": "C" 
			},
			{
				"x": 1.0097036983,
				"y": -0.232930517,
				"z": -3.721715207,
				"element": "C" 
			},
			{
				"x": 1.8717511328,
				"y": 0.69824159,
				"z": -2.9056466917,
				"element": "C" 
			},
			{
				"x": 1.386832673,
				"y": 1.8641545873,
				"z": -2.4657303066,
				"element": "C" 
			},
			{
				"x": -0.0293324482,
				"y": 2.2739515402,
				"z": -2.7847826194,
				"element": "C" 
			},
			{
				"x": -1.0103732762,
				"y": 1.0751421525,
				"z": -2.7074498491,
				"element": "C" 
			},
			{
				"x": -1.4294786371,
				"y": 0.8051298712,
				"z": -1.2710127728,
				"element": "C" 
			},
			{
				"x": -2.0110311834,
				"y": 1.5895833681,
				"z": -0.5289354766,
				"element": "O" 
			},
			{
				"x": -2.9115553122,
				"y": -1.4073638944,
				"z": 0.4874457732,
				"element": "C" 
			},
			{
				"x": -3.7858408028,
				"y": -0.4048503126,
				"z": 0.2728447795,
				"element": "O" 
			},
			{
				"x": -3.2813457239,
				"y": -2.5361281997,
				"z": 0.69169629,
				"element": "O" 
			},
			{
				"x": 0.4072229023,
				"y": 0.3740834801,
				"z": 2.3522049239,
				"element": "H" 
			},
			{
				"x": 0.0569982587,
				"y": -0.9353161905,
				"z": 3.4936026057,
				"element": "H" 
			},
			{
				"x": 1.726407892,
				"y": -0.4351753289,
				"z": 3.1899048444,
				"element": "H" 
			},
			{
				"x": 1.2934154344,
				"y": -2.5453679912,
				"z": 2.0238028485,
				"element": "H" 
			},
			{
				"x": 1.5528933702,
				"y": -0.2116593102,
				"z": 0.0533606155,
				"element": "H" 
			},
			{
				"x": 1.9604222967,
				"y": -1.8979139188,
				"z": -0.2945817986,
				"element": "H" 
			},
			{
				"x": 2.8541345149,
				"y": -0.9999360808,
				"z": 0.9441355308,
				"element": "H" 
			},
			{
				"x": -0.3774046498,
				"y": -2.8645054865,
				"z": 0.2874229492,
				"element": "H" 
			},
			{
				"x": -1.0747322709,
				"y": -2.5164527395,
				"z": 1.8492473169,
				"element": "H" 
			},
			{
				"x": -1.3467769699,
				"y": -0.0809099807,
				"z": 1.0814699661,
				"element": "H" 
			},
			{
				"x": -1.0848182638,
				"y": -0.7150812588,
				"z": -3.9690671955,
				"element": "H" 
			},
			{
				"x": 1.4068712269,
				"y": -1.2518485141,
				"z": -3.727029445,
				"element": "H" 
			},
			{
				"x": 0.9903917478,
				"y": 0.1005502421,
				"z": -4.7687367882,
				"element": "H" 
			},
			{
				"x": 2.8973648106,
				"y": 0.4065480962,
				"z": -2.6955194661,
				"element": "H" 
			},
			{
				"x": 2.0080883733,
				"y": 2.5463757414,
				"z": -1.8912089339,
				"element": "H" 
			},
			{
				"x": -0.3855112532,
				"y": 3.061361618,
				"z": -2.1141251935,
				"element": "H" 
			},
			{
				"x": -0.0751509988,
				"y": 2.688611458,
				"z": -3.8013280368,
				"element": "H" 
			},
			{
				"x": -1.9272128989,
				"y": 1.3432619433,
				"z": -3.2433488372,
				"element": "H" 
			},
			{
				"x": -3.3153679808,
				"y": 0.4490899557,
				"z": 0.1713300968,
				"element": "H" 
			}
		],
		 "valence_orbital": [ 
			{
				"type": "occ",
				"energy": -0.30685,
				"method": "rhf"
			},
			{
				"type": "occ",
				"energy": -0.29868,
				"method": "rhf"
			},
			{
				"type": "occ",
				"energy": -0.2749,
				"method": "rhf"
			},
			{
				"type": "occ",
				"energy": -0.26569,
				"method": "rhf"
			},
			{
				"type": "occ",
				"energy": -0.26299,
				"method": "rhf"
			},
			{
				"type": "unocc",
				"energy": -0.04321,
				"method": "rhf"
			},
			{
				"type": "unocc",
				"energy": -0.00756,
				"method": "rhf"
			},
			{
				"type": "unocc",
				"energy": -0.00454,
				"method": "rhf"
			},
			{
				"type": "unocc",
				"energy": 0.01285,
				"method": "rhf"
			},
			{
				"type": "unocc",
				"energy": 0.06885,
				"method": "rhf"
			}
		],
		"cosmo_sigma_profile": { 
			"-0.025": 0.0,
			"-0.024": 0.0,
			"-0.023": 0.0,
			"-0.022": 0.0,
			"-0.021": 0.0,
			"-0.02": 0.0,
			"-0.019": 0.0,
			"-0.018": 0.0,
			"-0.017": 0.0,
			"-0.016": 0.0,
			"-0.015": 0.0,
			"-0.014": 0.0,
			"-0.013": 0.0,
			"-0.012": 0.00136168582037,
			"-0.011": 0.328701472431,
			"-0.01": 1.27666900523,
			"-0.009": 2.29792250451,
			"-0.008": 5.93006559351,
			"-0.007": 10.2256970138,
			"-0.006": 9.48105499775,
			"-0.005": 20.7842011784,
			"-0.004": 22.1081825931,
			"-0.003": 26.6972164417,
			"-0.002": 33.6373556177,
			"-0.001": 31.2477734105,
			"0.0": 24.182521896,
			"0.001": 23.2891157408,
			"0.002": 15.1825498981,
			"0.003": 8.83369503042,
			"0.004": 6.42528282089,
			"0.005": 6.89010263283,
			"0.006": 5.2090928032,
			"0.007": 4.40778626496,
			"0.008": 6.51511152421,
			"0.009": 6.37580633427,
			"0.01": 9.21532914438,
			"0.011": 10.4384639139,
			"0.012": 4.95669449365,
			"0.013": 0.559470710834,
			"0.014": 0.0,
			"0.015": 0.0,
			"0.016": 0.0,
			"0.017": 0.0,
			"0.018": 0.0,
			"0.019": 0.0,
			"0.02": 0.0,
			"0.021": 0.0,
			"0.022": 0.0,
			"0.023": 0.0,
			"0.024": 0.0,
			"0.0": 0.0
		}
	}
}
