{
	 "smiles": "ClC1=C2C=CC=CC2=C(N=N1)C1=CC=CS1", 
	 "Tm": 402.15, 
	 "num_atms": 23, 
	 "gaussian": { 
		 "optdone": 1, 
		 "sigma_profile": "yes", 
		 "theory": "DFT", 
		 "functional": "B3LYP", 
		 "basiset": "6-31G**", 
		 "properties": { 
			 "R2extent": 4600.1948, 
			 "electric_dipole_moment_norm": 5.08102843428, 
			 "electric_quadrupole_moment_norm": 14.7294241731, 
			 "total_energy": -1429.33184439, 
			 "HOMO_LUMO_gap": 0.1502, 
			 "cosmo_polarized_energy": -11.87, 
			 "cosmo_cavitation_energy": 30.58, 
			 "cosmo_dispersion_energy": -23.48, 
			 "cosmo_repulsion_energy": 1.74, 
			 "cosmo_total_nonelectrostatic_energy": 8.84, 
			 "SMD_solvation_energy": 3.09 
		},
		"coords": [
			{
				"x": -2.7052684374,
				"y": -1.110458586,
				"z": -2.8363553979,
				"element": "Cl" 
			},
			{
				"x": -1.454389407,
				"y": -0.4701281746,
				"z": -1.778186183,
				"element": "C" 
			},
			{
				"x": -1.4867137405,
				"y": -0.7769423459,
				"z": -0.383937253,
				"element": "C" 
			},
			{
				"x": -2.4864736374,
				"y": -1.5548022957,
				"z": 0.2445694197,
				"element": "C" 
			},
			{
				"x": -2.4627142101,
				"y": -1.7331863016,
				"z": 1.6117373622,
				"element": "C" 
			},
			{
				"x": -1.4548973519,
				"y": -1.1265860218,
				"z": 2.3908127971,
				"element": "C" 
			},
			{
				"x": -0.4648641999,
				"y": -0.3711887989,
				"z": 1.7956930707,
				"element": "C" 
			},
			{
				"x": -0.4380907971,
				"y": -0.1983303623,
				"z": 0.3897055843,
				"element": "C" 
			},
			{
				"x": 0.5609624747,
				"y": 0.5519231968,
				"z": -0.3321500584,
				"element": "C" 
			},
			{
				"x": 0.4703418351,
				"y": 0.775839222,
				"z": -1.637728575,
				"element": "N" 
			},
			{
				"x": -0.5664048951,
				"y": 0.2849539888,
				"z": -2.3579418295,
				"element": "N" 
			},
			{
				"x": 1.7564834851,
				"y": 1.1601658562,
				"z": 0.277356078,
				"element": "C" 
			},
			{
				"x": 2.3744624172,
				"y": 2.3058764113,
				"z": -0.1730082075,
				"element": "C" 
			},
			{
				"x": 3.5760996096,
				"y": 2.6159057313,
				"z": 0.5200514436,
				"element": "C" 
			},
			{
				"x": 3.8835688677,
				"y": 1.6945125565,
				"z": 1.48508213,
				"element": "C" 
			},
			{
				"x": 2.7010391504,
				"y": 0.4345484851,
				"z": 1.5667298685,
				"element": "S" 
			},
			{
				"x": -3.2702087628,
				"y": -1.995187628,
				"z": -0.3600015644,
				"element": "H" 
			},
			{
				"x": -3.2319710648,
				"y": -2.3290267417,
				"z": 2.0934259265,
				"element": "H" 
			},
			{
				"x": -1.4623407155,
				"y": -1.2483432539,
				"z": 3.4697289234,
				"element": "H" 
			},
			{
				"x": 0.2867048768,
				"y": 0.1077765283,
				"z": 2.4099789795,
				"element": "H" 
			},
			{
				"x": 1.9641551403,
				"y": 2.8880581542,
				"z": -0.9882216697,
				"element": "H" 
			},
			{
				"x": 4.187025612,
				"y": 3.4861863837,
				"z": 0.3100549898,
				"element": "H" 
			},
			{
				"x": 4.7290937506,
				"y": 1.6809339962,
				"z": 2.159004165,
				"element": "H" 
			}
		],
		 "valence_orbital": [ 
			{
				"type": "occ",
				"energy": -0.28774,
				"method": "rhf"
			},
			{
				"type": "occ",
				"energy": -0.26601,
				"method": "rhf"
			},
			{
				"type": "occ",
				"energy": -0.26135,
				"method": "rhf"
			},
			{
				"type": "occ",
				"energy": -0.24241,
				"method": "rhf"
			},
			{
				"type": "occ",
				"energy": -0.22895,
				"method": "rhf"
			},
			{
				"type": "unocc",
				"energy": -0.07875,
				"method": "rhf"
			},
			{
				"type": "unocc",
				"energy": -0.05478,
				"method": "rhf"
			},
			{
				"type": "unocc",
				"energy": -0.029,
				"method": "rhf"
			},
			{
				"type": "unocc",
				"energy": 0.01538,
				"method": "rhf"
			},
			{
				"type": "unocc",
				"energy": 0.02219,
				"method": "rhf"
			}
		],
		"cosmo_sigma_profile": { 
			"-0.025": 0.0,
			"-0.024": 0.0,
			"-0.023": 0.0,
			"-0.022": 0.0,
			"-0.021": 0.0,
			"-0.02": 0.0,
			"-0.019": 0.0,
			"-0.018": 0.0,
			"-0.017": 0.0,
			"-0.016": 0.0,
			"-0.015": 0.0,
			"-0.014": 0.0,
			"-0.013": 0.0,
			"-0.012": 0.0,
			"-0.011": 0.0,
			"-0.01": 0.0017438798502,
			"-0.009": 1.53898739038,
			"-0.008": 3.88308379728,
			"-0.007": 11.2517134997,
			"-0.006": 14.0070471548,
			"-0.005": 12.0844776371,
			"-0.004": 13.6401285187,
			"-0.003": 17.6313824475,
			"-0.002": 21.760803347,
			"-0.001": 22.8608052633,
			"0.0": 23.5352003035,
			"0.001": 25.3680667506,
			"0.002": 22.4357082893,
			"0.003": 19.0434912062,
			"0.004": 15.4186919127,
			"0.005": 5.48087877051,
			"0.006": 3.22428811574,
			"0.007": 2.48013353402,
			"0.008": 1.63161847978,
			"0.009": 3.02969760536,
			"0.01": 2.09040499623,
			"0.011": 2.2722405341,
			"0.012": 1.87567582974,
			"0.013": 3.05552410513,
			"0.014": 2.02600750783,
			"0.015": 0.701501034702,
			"0.016": 0.0,
			"0.017": 0.0,
			"0.018": 0.0,
			"0.019": 0.0,
			"0.02": 0.0,
			"0.021": 0.0,
			"0.022": 0.0,
			"0.023": 0.0,
			"0.024": 0.0,
			"0.025": 0.0
		}
	}
}
