{
	 "smiles": "CCCCCCCOC(=O)CC", 
	 "Tm": 222.25, 
	 "num_atms": 32, 
	 "gaussian": { 
		 "optdone": 1, 
		 "sigma_profile": "yes", 
		 "theory": "DFT", 
		 "functional": "B3LYP", 
		 "basiset": "6-31G**", 
		 "properties": { 
			 "R2extent": 3829.8902, 
			 "electric_dipole_moment_norm": 1.91249765751, 
			 "electric_quadrupole_moment_norm": 12.3247716186, 
			 "total_energy": -543.604410256, 
			 "HOMO_LUMO_gap": 0.27856, 
			 "cosmo_polarized_energy": -6.19, 
			 "cosmo_cavitation_energy": 33.74, 
			 "cosmo_dispersion_energy": -23.04, 
			 "cosmo_repulsion_energy": 1.93, 
			 "cosmo_total_nonelectrostatic_energy": 12.63, 
			 "SMD_solvation_energy": 6.24 
		},
		"coords": [
			{
				"x": -1.852407986,
				"y": -3.757624563,
				"z": 0.0473353845,
				"element": "C" 
			},
			{
				"x": -2.8202845723,
				"y": -2.842559707,
				"z": -0.7126479959,
				"element": "C" 
			},
			{
				"x": -2.6116211885,
				"y": -1.3405002083,
				"z": -0.458072133,
				"element": "C" 
			},
			{
				"x": -1.2792271702,
				"y": -0.7796432032,
				"z": -0.9756954974,
				"element": "C" 
			},
			{
				"x": -1.145047107,
				"y": 0.7339996809,
				"z": -0.7561648856,
				"element": "C" 
			},
			{
				"x": 0.1411401874,
				"y": 1.3565260633,
				"z": -1.3227712065,
				"element": "C" 
			},
			{
				"x": 1.4344596214,
				"y": 0.908969696,
				"z": -0.6446956822,
				"element": "C" 
			},
			{
				"x": 1.4309962295,
				"y": 1.2022069416,
				"z": 0.7741695509,
				"element": "O" 
			},
			{
				"x": 1.8465884404,
				"y": 2.4388888817,
				"z": 1.140148225,
				"element": "C" 
			},
			{
				"x": 2.2100697256,
				"y": 3.2883408856,
				"z": 0.3545454645,
				"element": "O" 
			},
			{
				"x": 1.8235611821,
				"y": 2.6024016772,
				"z": 2.6484667277,
				"element": "C" 
			},
			{
				"x": 0.4845402582,
				"y": 2.2275254529,
				"z": 3.2992928054,
				"element": "C" 
			},
			{
				"x": -1.9130805509,
				"y": -3.5843602755,
				"z": 1.1282575609,
				"element": "H" 
			},
			{
				"x": -0.8125906231,
				"y": -3.5960602642,
				"z": -0.2549992992,
				"element": "H" 
			},
			{
				"x": -2.0845431272,
				"y": -4.8125277795,
				"z": -0.1325982149,
				"element": "H" 
			},
			{
				"x": -3.8489331826,
				"y": -3.1047197163,
				"z": -0.4338200618,
				"element": "H" 
			},
			{
				"x": -2.7400372514,
				"y": -3.0401511993,
				"z": -1.7905792399,
				"element": "H" 
			},
			{
				"x": -3.4336644127,
				"y": -0.7848469011,
				"z": -0.9297585961,
				"element": "H" 
			},
			{
				"x": -2.692476522,
				"y": -1.1422796644,
				"z": 0.6205398771,
				"element": "H" 
			},
			{
				"x": -0.447663984,
				"y": -1.2997097337,
				"z": -0.4844048791,
				"element": "H" 
			},
			{
				"x": -1.1879238279,
				"y": -1.0006761481,
				"z": -2.0495792703,
				"element": "H" 
			},
			{
				"x": -2.0037508486,
				"y": 1.2370366795,
				"z": -1.2200242221,
				"element": "H" 
			},
			{
				"x": -1.2075199404,
				"y": 0.953495162,
				"z": 0.3172381314,
				"element": "H" 
			},
			{
				"x": 0.2324600441,
				"y": 1.1129382214,
				"z": -2.3906022077,
				"element": "H" 
			},
			{
				"x": 0.0862967161,
				"y": 2.4486218477,
				"z": -1.2584647903,
				"element": "H" 
			},
			{
				"x": 1.5684182647,
				"y": -0.1741246408,
				"z": -0.6969871123,
				"element": "H" 
			},
			{
				"x": 2.2948196636,
				"y": 1.4025131229,
				"z": -1.1027007288,
				"element": "H" 
			},
			{
				"x": 2.0908248243,
				"y": 3.6412798006,
				"z": 2.8549590876,
				"element": "H" 
			},
			{
				"x": 2.620266216,
				"y": 1.9687989841,
				"z": 3.0588919587,
				"element": "H" 
			},
			{
				"x": 0.2356117279,
				"y": 1.1814621548,
				"z": 3.1066479475,
				"element": "H" 
			},
			{
				"x": -0.3303652709,
				"y": 2.8484022287,
				"z": 2.9135154724,
				"element": "H" 
			},
			{
				"x": 0.5338844642,
				"y": 2.3761765233,
				"z": 4.3820578294,
				"element": "H" 
			}
		],
		 "valence_orbital": [ 
			{
				"type": "occ",
				"energy": -0.31893,
				"method": "rhf"
			},
			{
				"type": "occ",
				"energy": -0.3165,
				"method": "rhf"
			},
			{
				"type": "occ",
				"energy": -0.30607,
				"method": "rhf"
			},
			{
				"type": "occ",
				"energy": -0.29065,
				"method": "rhf"
			},
			{
				"type": "occ",
				"energy": -0.26342,
				"method": "rhf"
			},
			{
				"type": "unocc",
				"energy": 0.01514,
				"method": "rhf"
			},
			{
				"type": "unocc",
				"energy": 0.08075,
				"method": "rhf"
			},
			{
				"type": "unocc",
				"energy": 0.09651,
				"method": "rhf"
			},
			{
				"type": "unocc",
				"energy": 0.10725,
				"method": "rhf"
			},
			{
				"type": "unocc",
				"energy": 0.10942,
				"method": "rhf"
			}
		],
		"cosmo_sigma_profile": { 
			"-0.025": 0.0,
			"-0.024": 0.0,
			"-0.023": 0.0,
			"-0.022": 0.0,
			"-0.021": 0.0,
			"-0.02": 0.0,
			"-0.019": 0.0,
			"-0.018": 0.0,
			"-0.017": 0.0,
			"-0.016": 0.0,
			"-0.015": 0.0,
			"-0.014": 0.0,
			"-0.013": 0.0,
			"-0.012": 0.0,
			"-0.011": 0.0,
			"-0.01": 0.0,
			"-0.009": 0.0,
			"-0.008": 0.0,
			"-0.007": 0.0,
			"-0.006": 1.73476236884,
			"-0.005": 6.00930365733,
			"-0.004": 13.7376737391,
			"-0.003": 23.9166875568,
			"-0.002": 40.3056058593,
			"-0.001": 46.7189409602,
			"0.0": 48.0423271415,
			"0.001": 35.5710998348,
			"0.002": 13.8993338138,
			"0.003": 4.35830624703,
			"0.004": 3.58527876285,
			"0.005": 2.5187265971,
			"0.006": 2.63684945354,
			"0.007": 3.18385659453,
			"0.008": 2.18262814092,
			"0.009": 1.24316592807,
			"0.01": 1.7509639559,
			"0.011": 2.31202159121,
			"0.012": 4.37450945814,
			"0.013": 2.23019650216,
			"0.014": 0.106658400942,
			"0.015": 0.0,
			"0.016": 0.0,
			"0.017": 0.0,
			"0.018": 0.0,
			"0.019": 0.0,
			"0.02": 0.0,
			"0.021": 0.0,
			"0.022": 0.0,
			"0.023": 0.0,
			"0.024": 0.0,
			"0.025": 0.0
		}
	}
}
