{
	 "smiles": "NC(=NO)C1=CC=C(CN2CCOCC2)C=C1", 
	 "Tm": 432.15, 
	 "num_atms": 34, 
	 "gaussian": { 
		 "optdone": 1, 
		 "sigma_profile": "yes", 
		 "theory": "DFT", 
		 "functional": "B3LYP", 
		 "basiset": "6-31G**", 
		 "properties": { 
			 "R2extent": 6915.711, 
			 "electric_dipole_moment_norm": 0.662326913238, 
			 "electric_quadrupole_moment_norm": 15.7396404158, 
			 "total_energy": -782.145333974, 
			 "HOMO_LUMO_gap": 0.18006, 
			 "cosmo_polarized_energy": -15.22, 
			 "cosmo_cavitation_energy": 36.08, 
			 "cosmo_dispersion_energy": -26.37, 
			 "cosmo_repulsion_energy": 2.08, 
			 "cosmo_total_nonelectrostatic_energy": 11.78, 
			 "SMD_solvation_energy": 4.36 
		},
		"coords": [
			{
				"x": -1.5781934266,
				"y": 0.4467859678,
				"z": 4.3718352912,
				"element": "N" 
			},
			{
				"x": -0.7420039549,
				"y": 1.4039284957,
				"z": 3.8259029447,
				"element": "C" 
			},
			{
				"x": -0.4701287594,
				"y": 2.5345088363,
				"z": 4.394999225,
				"element": "N" 
			},
			{
				"x": -1.244219077,
				"y": 2.6688523653,
				"z": 5.5827281208,
				"element": "O" 
			},
			{
				"x": -0.0675632743,
				"y": 1.0960410097,
				"z": 2.5427447454,
				"element": "C" 
			},
			{
				"x": 0.1116675494,
				"y": -0.2317291329,
				"z": 2.1229156264,
				"element": "C" 
			},
			{
				"x": 0.7399887255,
				"y": -0.5158618126,
				"z": 0.91246842,
				"element": "C" 
			},
			{
				"x": 1.2113128127,
				"y": 0.5148391909,
				"z": 0.0903809211,
				"element": "C" 
			},
			{
				"x": 1.9442280329,
				"y": 0.2049941561,
				"z": -1.2015885148,
				"element": "C" 
			},
			{
				"x": 1.3660191478,
				"y": -0.909914834,
				"z": -1.9450958978,
				"element": "N" 
			},
			{
				"x": 0.0232584823,
				"y": -0.639884775,
				"z": -2.5038091909,
				"element": "C" 
			},
			{
				"x": 0.0556507913,
				"y": -0.4271941258,
				"z": -4.0163381201,
				"element": "C" 
			},
			{
				"x": 0.5791253079,
				"y": -1.5625723011,
				"z": -4.7040629365,
				"element": "O" 
			},
			{
				"x": 1.5403177283,
				"y": -2.3041672573,
				"z": -3.9536222904,
				"element": "C" 
			},
			{
				"x": 2.292745175,
				"y": -1.4322968212,
				"z": -2.9565762844,
				"element": "C" 
			},
			{
				"x": 1.0312701364,
				"y": 1.8387542596,
				"z": 0.5124927995,
				"element": "C" 
			},
			{
				"x": 0.4019506301,
				"y": 2.1301894627,
				"z": 1.7193951124,
				"element": "C" 
			},
			{
				"x": -2.1194037796,
				"y": 0.788632181,
				"z": 5.1547478855,
				"element": "H" 
			},
			{
				"x": -2.1061149568,
				"y": -0.1013034907,
				"z": 3.7080221376,
				"element": "H" 
			},
			{
				"x": -0.9488497586,
				"y": 3.5244189108,
				"z": 5.9158174366,
				"element": "H" 
			},
			{
				"x": -0.2164888017,
				"y": -1.0463664653,
				"z": 2.761427738,
				"element": "H" 
			},
			{
				"x": 0.8705266455,
				"y": -1.5439949325,
				"z": 0.5892978846,
				"element": "H" 
			},
			{
				"x": 2.9785316407,
				"y": -0.0769188594,
				"z": -0.9591924613,
				"element": "H" 
			},
			{
				"x": 2.0199517862,
				"y": 1.1288347492,
				"z": -1.8086075753,
				"element": "H" 
			},
			{
				"x": -0.6454249043,
				"y": -1.4815961511,
				"z": -2.2798676075,
				"element": "H" 
			},
			{
				"x": -0.4053524294,
				"y": 0.2403605725,
				"z": -2.0146822856,
				"element": "H" 
			},
			{
				"x": 0.6499766072,
				"y": 0.4692199948,
				"z": -4.2570700799,
				"element": "H" 
			},
			{
				"x": -0.9564298456,
				"y": -0.2626979973,
				"z": -4.402451963,
				"element": "H" 
			},
			{
				"x": 1.0494901997,
				"y": -3.1302813781,
				"z": -3.4154487565,
				"element": "H" 
			},
			{
				"x": 2.237460425,
				"y": -2.7424922001,
				"z": -4.6753895052,
				"element": "H" 
			},
			{
				"x": 2.8034490131,
				"y": -0.6258476799,
				"z": -3.5163736034,
				"element": "H" 
			},
			{
				"x": 3.0760040727,
				"y": -2.0223418787,
				"z": -2.4629474846,
				"element": "H" 
			},
			{
				"x": 1.3814981106,
				"y": 2.6532194957,
				"z": -0.1174911988,
				"element": "H" 
			},
			{
				"x": 0.257649948,
				"y": 3.1571824447,
				"z": 2.0358394672,
				"element": "H" 
			}
		],
		 "valence_orbital": [ 
			{
				"type": "occ",
				"energy": -0.25122,
				"method": "rhf"
			},
			{
				"type": "occ",
				"energy": -0.25088,
				"method": "rhf"
			},
			{
				"type": "occ",
				"energy": -0.24534,
				"method": "rhf"
			},
			{
				"type": "occ",
				"energy": -0.2127,
				"method": "rhf"
			},
			{
				"type": "occ",
				"energy": -0.20498,
				"method": "rhf"
			},
			{
				"type": "unocc",
				"energy": -0.02492,
				"method": "rhf"
			},
			{
				"type": "unocc",
				"energy": -0.00307,
				"method": "rhf"
			},
			{
				"type": "unocc",
				"energy": 0.05958,
				"method": "rhf"
			},
			{
				"type": "unocc",
				"energy": 0.07526,
				"method": "rhf"
			},
			{
				"type": "unocc",
				"energy": 0.08078,
				"method": "rhf"
			}
		],
		"cosmo_sigma_profile": { 
			"-0.025": 0.0,
			"-0.024": 0.0,
			"-0.023": 0.0,
			"-0.022": 0.0,
			"-0.021": 0.0,
			"-0.02": 0.0,
			"-0.019": 0.0,
			"-0.018": 0.0,
			"-0.017": 0.300358456995,
			"-0.016": 1.06032107462,
			"-0.015": 0.932153299787,
			"-0.014": 0.748722974082,
			"-0.013": 1.33968842661,
			"-0.012": 2.12652767159,
			"-0.011": 2.86369624086,
			"-0.01": 2.38585568872,
			"-0.009": 2.86067547014,
			"-0.008": 3.08363053776,
			"-0.007": 3.20310362715,
			"-0.006": 3.5856153854,
			"-0.005": 12.6803814539,
			"-0.004": 26.2959655229,
			"-0.003": 37.1225688178,
			"-0.002": 32.1343642312,
			"-0.001": 22.1606136425,
			"0.0": 13.5357629482,
			"0.001": 12.731317657,
			"0.002": 14.4112646583,
			"0.003": 14.209702972,
			"0.004": 14.9825997716,
			"0.005": 14.3852083525,
			"0.006": 7.00740167739,
			"0.007": 7.15539144641,
			"0.008": 7.96098392378,
			"0.009": 6.91083094489,
			"0.01": 4.29869378438,
			"0.011": 2.40936624489,
			"0.012": 2.65189375224,
			"0.013": 2.8623997298,
			"0.014": 2.10523251319,
			"0.015": 0.113241334548,
			"0.016": 0.0,
			"0.017": 0.0,
			"0.018": 0.0,
			"0.019": 0.0,
			"0.02": 0.0,
			"0.021": 0.0,
			"0.022": 0.0,
			"0.023": 0.0,
			"0.024": 0.0,
			"0.025": 0.0
		}
	}
}
