{
	 "smiles": "OC(=O)CC1NC(=O)NC1=O", 
	 "Tm": 487.15, 
	 "num_atms": 17, 
	 "gaussian": { 
		 "optdone": 1, 
		 "sigma_profile": "yes", 
		 "theory": "DFT", 
		 "functional": "B3LYP", 
		 "basiset": "6-31G**", 
		 "properties": { 
			 "R2extent": 1926.9468, 
			 "electric_dipole_moment_norm": 1.39057065265, 
			 "electric_quadrupole_moment_norm": 12.8860920441, 
			 "total_energy": -604.596611269, 
			 "HOMO_LUMO_gap": 0.25179, 
			 "cosmo_polarized_energy": -22.04, 
			 "cosmo_cavitation_energy": 22.12, 
			 "cosmo_dispersion_energy": -16.1, 
			 "cosmo_repulsion_energy": 1.35, 
			 "cosmo_total_nonelectrostatic_energy": 7.37, 
			 "SMD_solvation_energy": 6.21 
		},
		"coords": [
			{
				"x": -1.4558354931,
				"y": 1.3781693667,
				"z": 1.8682227982,
				"element": "O" 
			},
			{
				"x": -1.2972568697,
				"y": 0.0374301595,
				"z": 1.9571848485,
				"element": "C" 
			},
			{
				"x": -2.0802651758,
				"y": -0.6822795821,
				"z": 2.5325146924,
				"element": "O" 
			},
			{
				"x": -0.0250291805,
				"y": -0.4312980571,
				"z": 1.2779147856,
				"element": "C" 
			},
			{
				"x": 0.1680685265,
				"y": 0.1006550856,
				"z": -0.1515812535,
				"element": "C" 
			},
			{
				"x": -1.020780353,
				"y": 0.0802711278,
				"z": -0.9877224343,
				"element": "N" 
			},
			{
				"x": -1.2585668689,
				"y": 1.2835455367,
				"z": -1.6157015972,
				"element": "C" 
			},
			{
				"x": -2.1119572429,
				"y": 1.5487059124,
				"z": -2.4338522244,
				"element": "O" 
			},
			{
				"x": -0.2888679977,
				"y": 2.1724693118,
				"z": -1.1064915673,
				"element": "N" 
			},
			{
				"x": 0.5650759187,
				"y": 1.5909299249,
				"z": -0.1962088167,
				"element": "C" 
			},
			{
				"x": 1.4632252514,
				"y": 2.1140112502,
				"z": 0.4252993663,
				"element": "O" 
			},
			{
				"x": -2.2898222703,
				"y": 1.5900188111,
				"z": 2.3205329317,
				"element": "H" 
			},
			{
				"x": -0.0412061462,
				"y": -1.5227573374,
				"z": 1.288703054,
				"element": "H" 
			},
			{
				"x": 0.8359251065,
				"y": -0.0958308961,
				"z": 1.8689078722,
				"element": "H" 
			},
			{
				"x": 0.9961806709,
				"y": -0.4594002814,
				"z": -0.609967777,
				"element": "H" 
			},
			{
				"x": -1.4467423141,
				"y": -0.7581201082,
				"z": -1.3521402227,
				"element": "H" 
			},
			{
				"x": -0.2909455617,
				"y": 3.1558797756,
				"z": -1.3356144557,
				"element": "H" 
			}
		],
		 "valence_orbital": [ 
			{
				"type": "occ",
				"energy": -0.29835,
				"method": "rhf"
			},
			{
				"type": "occ",
				"energy": -0.29497,
				"method": "rhf"
			},
			{
				"type": "occ",
				"energy": -0.29013,
				"method": "rhf"
			},
			{
				"type": "occ",
				"energy": -0.27688,
				"method": "rhf"
			},
			{
				"type": "occ",
				"energy": -0.27051,
				"method": "rhf"
			},
			{
				"type": "unocc",
				"energy": -0.01872,
				"method": "rhf"
			},
			{
				"type": "unocc",
				"energy": -0.00387,
				"method": "rhf"
			},
			{
				"type": "unocc",
				"energy": 0.04989,
				"method": "rhf"
			},
			{
				"type": "unocc",
				"energy": 0.06884,
				"method": "rhf"
			},
			{
				"type": "unocc",
				"energy": 0.07319,
				"method": "rhf"
			}
		],
		"cosmo_sigma_profile": { 
			"-0.025": 0.0,
			"-0.024": 0.0,
			"-0.023": 0.0,
			"-0.022": 0.0,
			"-0.021": 0.0,
			"-0.02": 0.0,
			"-0.019": 0.138923455883,
			"-0.018": 1.16853123966,
			"-0.017": 1.40322813042,
			"-0.016": 2.8093899771,
			"-0.015": 3.40010976214,
			"-0.014": 2.51551577482,
			"-0.013": 2.71370544019,
			"-0.012": 2.29548543515,
			"-0.011": 3.48724485316,
			"-0.01": 2.39942605345,
			"-0.009": 3.51894062867,
			"-0.008": 9.83028615432,
			"-0.007": 10.0771526759,
			"-0.006": 8.95097285707,
			"-0.005": 6.46760595839,
			"-0.004": 5.68758057612,
			"-0.003": 6.11078983847,
			"-0.002": 6.94195471678,
			"-0.001": 6.92445795133,
			"0.0": 6.07905758889,
			"0.001": 6.2608965734,
			"0.002": 6.77902188637,
			"0.003": 5.10428735256,
			"0.004": 4.10911807962,
			"0.005": 4.53561806993,
			"0.006": 4.91916065169,
			"0.007": 3.78145036366,
			"0.008": 5.65622056069,
			"0.009": 5.15334344088,
			"0.01": 5.25887772653,
			"0.011": 11.5306654529,
			"0.012": 12.97603224,
			"0.013": 5.61605981719,
			"0.014": 0.207112167771,
			"0.015": 0.0,
			"0.016": 0.0,
			"0.017": 0.0,
			"0.018": 0.0,
			"0.019": 0.0,
			"0.02": 0.0,
			"0.021": 0.0,
			"0.022": 0.0,
			"0.023": 0.0,
			"0.024": 0.0,
			"0.025": 0.0
		}
	}
}
