{
	 "smiles": "OC1=CC=C(OCC=C)C=C1", 
	 "Tm": 310.15, 
	 "num_atms": 21, 
	 "gaussian": { 
		 "optdone": 1, 
		 "sigma_profile": "yes", 
		 "theory": "DFT", 
		 "functional": "B3LYP", 
		 "basiset": "6-31G**", 
		 "properties": { 
			 "R2extent": 2728.1062, 
			 "electric_dipole_moment_norm": 0.265530148947, 
			 "electric_quadrupole_moment_norm": 15.9392010233, 
			 "total_energy": -499.38821885, 
			 "HOMO_LUMO_gap": 0.19563, 
			 "cosmo_polarized_energy": -10.41, 
			 "cosmo_cavitation_energy": 25.21, 
			 "cosmo_dispersion_energy": -18.44, 
			 "cosmo_repulsion_energy": 1.48, 
			 "cosmo_total_nonelectrostatic_energy": 8.25, 
			 "SMD_solvation_energy": 5.58 
		},
		"coords": [
			{
				"x": -2.648739745,
				"y": 1.3129211981,
				"z": 1.7471581004,
				"element": "O" 
			},
			{
				"x": -1.8420963325,
				"y": 0.7567641519,
				"z": 0.7879462235,
				"element": "C" 
			},
			{
				"x": -0.4619781447,
				"y": 0.8301068264,
				"z": 0.9759364734,
				"element": "C" 
			},
			{
				"x": 0.4126166969,
				"y": 0.2824819234,
				"z": 0.0346562201,
				"element": "C" 
			},
			{
				"x": -0.0917771353,
				"y": -0.3469786048,
				"z": -1.1096454524,
				"element": "C" 
			},
			{
				"x": 0.6733052054,
				"y": -0.9164855262,
				"z": -2.0944541661,
				"element": "O" 
			},
			{
				"x": 2.0822245481,
				"y": -0.8742072429,
				"z": -1.9626788522,
				"element": "C" 
			},
			{
				"x": 2.7299635131,
				"y": -1.547613077,
				"z": -3.1372098571,
				"element": "C" 
			},
			{
				"x": 2.0875528184,
				"y": -2.1077238556,
				"z": -4.1596948387,
				"element": "C" 
			},
			{
				"x": -1.4776073592,
				"y": -0.4194983743,
				"z": -1.2963929271,
				"element": "C" 
			},
			{
				"x": -2.3457714768,
				"y": 0.1269741786,
				"z": -0.3569408902,
				"element": "C" 
			},
			{
				"x": -3.5714144033,
				"y": 1.1906252893,
				"z": 1.4904041715,
				"element": "H" 
			},
			{
				"x": -0.0790874685,
				"y": 1.3196117457,
				"z": 1.8653923156,
				"element": "H" 
			},
			{
				"x": 1.4795322011,
				"y": 0.3551259401,
				"z": 0.208353795,
				"element": "H" 
			},
			{
				"x": 2.4306943234,
				"y": 0.1701242277,
				"z": -1.8942998271,
				"element": "H" 
			},
			{
				"x": 2.3961542069,
				"y": -1.3716557503,
				"z": -1.0295491064,
				"element": "H" 
			},
			{
				"x": 3.8188333868,
				"y": -1.5512043366,
				"z": -3.1013334817,
				"element": "H" 
			},
			{
				"x": 1.004349119,
				"y": -2.111869486,
				"z": -4.2089983135,
				"element": "H" 
			},
			{
				"x": 2.6303064095,
				"y": -2.576859817,
				"z": -4.9742383099,
				"element": "H" 
			},
			{
				"x": -1.8575207988,
				"y": -0.9095715889,
				"z": -2.1868190671,
				"element": "H" 
			},
			{
				"x": -3.4204395643,
				"y": 0.0628321783,
				"z": -0.5158922099,
				"element": "H" 
			}
		],
		 "valence_orbital": [ 
			{
				"type": "occ",
				"energy": -0.32417,
				"method": "rhf"
			},
			{
				"type": "occ",
				"energy": -0.2953,
				"method": "rhf"
			},
			{
				"type": "occ",
				"energy": -0.25748,
				"method": "rhf"
			},
			{
				"type": "occ",
				"energy": -0.25047,
				"method": "rhf"
			},
			{
				"type": "occ",
				"energy": -0.1985,
				"method": "rhf"
			},
			{
				"type": "unocc",
				"energy": -0.00287,
				"method": "rhf"
			},
			{
				"type": "unocc",
				"energy": 0.02154,
				"method": "rhf"
			},
			{
				"type": "unocc",
				"energy": 0.02827,
				"method": "rhf"
			},
			{
				"type": "unocc",
				"energy": 0.073,
				"method": "rhf"
			},
			{
				"type": "unocc",
				"energy": 0.09518,
				"method": "rhf"
			}
		],
		"cosmo_sigma_profile": { 
			"-0.025": 0.0,
			"-0.024": 0.0,
			"-0.023": 0.0,
			"-0.022": 0.0,
			"-0.021": 0.0,
			"-0.02": 0.0,
			"-0.019": 0.0,
			"-0.018": 0.126790040502,
			"-0.017": 1.07560305584,
			"-0.016": 0.725923794141,
			"-0.015": 1.16394943373,
			"-0.014": 1.1634463348,
			"-0.013": 0.886974064084,
			"-0.012": 1.24584945072,
			"-0.011": 0.709670574161,
			"-0.01": 0.793625770811,
			"-0.009": 1.54375399419,
			"-0.008": 1.00377269457,
			"-0.007": 2.34097653325,
			"-0.006": 11.0630762124,
			"-0.005": 19.8087110044,
			"-0.004": 15.2951420723,
			"-0.003": 13.3620063324,
			"-0.002": 9.68814101935,
			"-0.001": 11.0616267508,
			"0.0": 11.5945582968,
			"0.001": 9.04609594268,
			"0.002": 10.2424726937,
			"0.003": 12.5157146014,
			"0.004": 16.326457923,
			"0.005": 19.314103432,
			"0.006": 12.9617911486,
			"0.007": 5.26345743425,
			"0.008": 2.60027782914,
			"0.009": 2.15255618395,
			"0.01": 1.62559487709,
			"0.011": 2.05599410097,
			"0.012": 1.53482666452,
			"0.013": 0.0757711772578,
			"0.014": 0.0,
			"0.015": 0.0,
			"0.016": 0.0,
			"0.017": 0.0,
			"0.018": 0.0,
			"0.019": 0.0,
			"0.02": 0.0,
			"0.021": 0.0,
			"0.022": 0.0,
			"0.023": 0.0,
			"0.024": 0.0,
			"0.025": 0.0
		}
	}
}
