{
	 "smiles": "CCCCCCCCCCCCO", 
	 "Tm": 298.15, 
	 "num_atms": 39, 
	 "gaussian": { 
		 "optdone": 1, 
		 "sigma_profile": "yes", 
		 "theory": "DFT", 
		 "functional": "B3LYP", 
		 "basiset": "6-31G**", 
		 "properties": { 
			 "R2extent": 5917.0919, 
			 "electric_dipole_moment_norm": 1.5915915902, 
			 "electric_quadrupole_moment_norm": 11.1731340975, 
			 "total_energy": -548.195196994, 
			 "HOMO_LUMO_gap": 0.33229, 
			 "cosmo_polarized_energy": -5.93, 
			 "cosmo_cavitation_energy": 38.61, 
			 "cosmo_dispersion_energy": -26.44, 
			 "cosmo_repulsion_energy": 2.19, 
			 "cosmo_total_nonelectrostatic_energy": 14.36, 
			 "SMD_solvation_energy": 5.23 
		},
		"coords": [
			{
				"x": -2.3692373195,
				"y": 1.8010004056,
				"z": -4.5236366621,
				"element": "C" 
			},
			{
				"x": -1.2722312617,
				"y": 1.7760055068,
				"z": -3.4539431177,
				"element": "C" 
			},
			{
				"x": -1.7641546829,
				"y": 2.257281998,
				"z": -2.0818187477,
				"element": "C" 
			},
			{
				"x": -0.6743672918,
				"y": 2.3355227764,
				"z": -0.9978903484,
				"element": "C" 
			},
			{
				"x": -0.0089115544,
				"y": 1.0022479816,
				"z": -0.6114465868,
				"element": "C" 
			},
			{
				"x": -0.9661940421,
				"y": -0.0245394775,
				"z": 0.0129384304,
				"element": "C" 
			},
			{
				"x": -0.2767107152,
				"y": -1.2864885802,
				"z": 0.5594936252,
				"element": "C" 
			},
			{
				"x": 0.3766896407,
				"y": -2.1685412393,
				"z": -0.5154770218,
				"element": "C" 
			},
			{
				"x": 0.9068164347,
				"y": -3.5160580599,
				"z": 0.0062931741,
				"element": "C" 
			},
			{
				"x": 2.0282908238,
				"y": -3.4365049186,
				"z": 1.057513881,
				"element": "C" 
			},
			{
				"x": 3.3233737811,
				"y": -2.7772993751,
				"z": 0.5632650164,
				"element": "C" 
			},
			{
				"x": 4.4545277642,
				"y": -2.8061393047,
				"z": 1.5954637306,
				"element": "C" 
			},
			{
				"x": 4.1671930882,
				"y": -2.0531153269,
				"z": 2.768878983,
				"element": "O" 
			},
			{
				"x": -1.9943027595,
				"y": 1.4541618234,
				"z": -5.4922858724,
				"element": "H" 
			},
			{
				"x": -3.2105685942,
				"y": 1.1566359468,
				"z": -4.2432980774,
				"element": "H" 
			},
			{
				"x": -2.7638837255,
				"y": 2.8140846066,
				"z": -4.6629135,
				"element": "H" 
			},
			{
				"x": -0.873259835,
				"y": 0.7569681687,
				"z": -3.3717756297,
				"element": "H" 
			},
			{
				"x": -0.4312754365,
				"y": 2.4056590765,
				"z": -3.7764777579,
				"element": "H" 
			},
			{
				"x": -2.5836657478,
				"y": 1.608461887,
				"z": -1.7441088671,
				"element": "H" 
			},
			{
				"x": -2.2064086126,
				"y": 3.2563071949,
				"z": -2.1984667478,
				"element": "H" 
			},
			{
				"x": 0.1057664608,
				"y": 3.0319670121,
				"z": -1.3348553639,
				"element": "H" 
			},
			{
				"x": -1.1099335213,
				"y": 2.7844442925,
				"z": -0.0945589263,
				"element": "H" 
			},
			{
				"x": 0.4844727833,
				"y": 0.5685475099,
				"z": -1.4898824127,
				"element": "H" 
			},
			{
				"x": 0.7944506244,
				"y": 1.2145385241,
				"z": 0.107699902,
				"element": "H" 
			},
			{
				"x": -1.7257892321,
				"y": -0.3246405685,
				"z": -0.7217065761,
				"element": "H" 
			},
			{
				"x": -1.5135678086,
				"y": 0.4604535388,
				"z": 0.8331872571,
				"element": "H" 
			},
			{
				"x": 0.473072705,
				"y": -0.9861278089,
				"z": 1.303972068,
				"element": "H" 
			},
			{
				"x": -1.0201308805,
				"y": -1.8875462542,
				"z": 1.101843579,
				"element": "H" 
			},
			{
				"x": 1.1879613115,
				"y": -1.6192448501,
				"z": -1.0082234733,
				"element": "H" 
			},
			{
				"x": -0.3649526213,
				"y": -2.3735420494,
				"z": -1.3000837539,
				"element": "H" 
			},
			{
				"x": 1.2685183241,
				"y": -4.1067286719,
				"z": -0.8464928541,
				"element": "H" 
			},
			{
				"x": 0.0677971732,
				"y": -4.082530159,
				"z": 0.4331447061,
				"element": "H" 
			},
			{
				"x": 1.6606798444,
				"y": -2.8972204433,
				"z": 1.9408151128,
				"element": "H" 
			},
			{
				"x": 2.2567638403,
				"y": -4.4576687094,
				"z": 1.3953473285,
				"element": "H" 
			},
			{
				"x": 3.6706896067,
				"y": -3.2891235009,
				"z": -0.3456729053,
				"element": "H" 
			},
			{
				"x": 3.1373014639,
				"y": -1.732403758,
				"z": 0.2881715219,
				"element": "H" 
			},
			{
				"x": 4.7039894514,
				"y": -3.8508793722,
				"z": 1.8470239478,
				"element": "H" 
			},
			{
				"x": 5.3566901471,
				"y": -2.3536496427,
				"z": 1.1707779867,
				"element": "H" 
			},
			{
				"x": 3.4642003736,
				"y": -2.5092961792,
				"z": 3.2473849518,
				"element": "H" 
			}
		],
		 "valence_orbital": [ 
			{
				"type": "occ",
				"energy": -0.30804,
				"method": "rhf"
			},
			{
				"type": "occ",
				"energy": -0.30594,
				"method": "rhf"
			},
			{
				"type": "occ",
				"energy": -0.30054,
				"method": "rhf"
			},
			{
				"type": "occ",
				"energy": -0.29973,
				"method": "rhf"
			},
			{
				"type": "occ",
				"energy": -0.26102,
				"method": "rhf"
			},
			{
				"type": "unocc",
				"energy": 0.07127,
				"method": "rhf"
			},
			{
				"type": "unocc",
				"energy": 0.08101,
				"method": "rhf"
			},
			{
				"type": "unocc",
				"energy": 0.09479,
				"method": "rhf"
			},
			{
				"type": "unocc",
				"energy": 0.10605,
				"method": "rhf"
			},
			{
				"type": "unocc",
				"energy": 0.11047,
				"method": "rhf"
			}
		],
		"cosmo_sigma_profile": { 
			"-0.025": 0.0,
			"-0.024": 0.0,
			"-0.023": 0.0,
			"-0.022": 0.0,
			"-0.021": 0.0,
			"-0.02": 0.0,
			"-0.019": 0.0,
			"-0.018": 0.0,
			"-0.017": 0.0,
			"-0.016": 0.0,
			"-0.015": 0.0389233642318,
			"-0.014": 0.732197006813,
			"-0.013": 0.538003433187,
			"-0.012": 1.27535473916,
			"-0.011": 0.898057430663,
			"-0.01": 0.677917777106,
			"-0.009": 0.916370992952,
			"-0.008": 0.906283636592,
			"-0.007": 1.3908697934,
			"-0.006": 1.29309193216,
			"-0.005": 1.32539877135,
			"-0.004": 2.20349492822,
			"-0.003": 10.2448027473,
			"-0.002": 39.7416429337,
			"-0.001": 66.9017350228,
			"0.0": 68.7796819693,
			"0.001": 56.4689127488,
			"0.002": 22.1464341816,
			"0.003": 1.62463910577,
			"0.004": 0.627919338326,
			"0.005": 1.49307193686,
			"0.006": 1.52885398453,
			"0.007": 0.939445499453,
			"0.008": 1.50357241128,
			"0.009": 1.2261635954,
			"0.01": 1.12055948318,
			"0.011": 0.949272890644,
			"0.012": 1.21250269699,
			"0.013": 2.19490419812,
			"0.014": 1.804133327,
			"0.015": 1.92963993093,
			"0.016": 0.0353445731006,
			"0.017": 0.0,
			"0.018": 0.0,
			"0.019": 0.0,
			"0.02": 0.0,
			"0.021": 0.0,
			"0.022": 0.0,
			"0.023": 0.0,
			"0.024": 0.0,
			"0.025": 0.0
		}
	}
}
