{
	 "smiles": "CC1=CC(Br)=C(C)C=C1S(N)(=O)=O", 
	 "Tm": 481.15, 
	 "num_atms": 23, 
	 "gaussian": { 
		 "optdone": 1, 
		 "sigma_profile": "yes", 
		 "theory": "DFT", 
		 "functional": "B3LYP", 
		 "basiset": "6-31G**", 
		 "properties": { 
			 "R2extent": 5248.7746, 
			 "electric_dipole_moment_norm": 2.9971534979, 
			 "electric_quadrupole_moment_norm": 15.7022412945, 
			 "total_energy": -3485.61536776, 
			 "HOMO_LUMO_gap": 0.20715, 
			 "cosmo_polarized_energy": -13.66, 
			 "cosmo_cavitation_energy": 29.6, 
			 "cosmo_dispersion_energy": -22.58, 
			 "cosmo_repulsion_energy": 1.73, 
			 "cosmo_total_nonelectrostatic_energy": 8.75, 
			 "SMD_solvation_energy": 3.8 
		},
		"coords": [
			{
				"x": 1.4106717776,
				"y": 0.0590956421,
				"z": 2.1817888301,
				"element": "C" 
			},
			{
				"x": 1.3039719852,
				"y": 0.2423433338,
				"z": 0.6888039455,
				"element": "C" 
			},
			{
				"x": 2.2785509836,
				"y": 0.9787874215,
				"z": 0.0080765017,
				"element": "C" 
			},
			{
				"x": 2.2170241617,
				"y": 1.170007982,
				"z": -1.3712767208,
				"element": "C" 
			},
			{
				"x": 3.6101266604,
				"y": 2.1953484296,
				"z": -2.1884577928,
				"element": "Br" 
			},
			{
				"x": 1.1859183096,
				"y": 0.6414543277,
				"z": -2.1573439861,
				"element": "C" 
			},
			{
				"x": 1.1076593312,
				"y": 0.8335169675,
				"z": -3.6489774521,
				"element": "C" 
			},
			{
				"x": 0.2078970357,
				"y": -0.0927699555,
				"z": -1.4764354616,
				"element": "C" 
			},
			{
				"x": 0.259650424,
				"y": -0.2842931722,
				"z": -0.0958332321,
				"element": "C" 
			},
			{
				"x": -1.0490511067,
				"y": -1.2912910204,
				"z": 0.613514643,
				"element": "S" 
			},
			{
				"x": -1.8220704577,
				"y": -0.208692797,
				"z": 1.670199969,
				"element": "N" 
			},
			{
				"x": -1.9700780937,
				"y": -1.6434047845,
				"z": -0.4729804821,
				"element": "O" 
			},
			{
				"x": -0.4670652472,
				"y": -2.3261826692,
				"z": 1.4737271605,
				"element": "O" 
			},
			{
				"x": 1.4414367426,
				"y": -1.0010197031,
				"z": 2.4462825616,
				"element": "H" 
			},
			{
				"x": 0.5416661844,
				"y": 0.4927011007,
				"z": 2.6869379037,
				"element": "H" 
			},
			{
				"x": 2.3114895109,
				"y": 0.5456262042,
				"z": 2.5626218127,
				"element": "H" 
			},
			{
				"x": 3.1029244607,
				"y": 1.4093490956,
				"z": 0.5656715413,
				"element": "H" 
			},
			{
				"x": 1.0581639129,
				"y": 1.8959072306,
				"z": -3.9103201545,
				"element": "H" 
			},
			{
				"x": 0.2241863687,
				"y": 0.3366095996,
				"z": -4.0562473012,
				"element": "H" 
			},
			{
				"x": 1.9932774749,
				"y": 0.4257544343,
				"z": -4.1476665776,
				"element": "H" 
			},
			{
				"x": -0.6153390542,
				"y": -0.5307269183,
				"z": -2.0301728916,
				"element": "H" 
			},
			{
				"x": -2.0737773757,
				"y": -0.7206474088,
				"z": 2.513022015,
				"element": "H" 
			},
			{
				"x": -2.6499339891,
				"y": 0.1791266601,
				"z": 1.2232651681,
				"element": "H" 
			}
		],
		 "valence_orbital": [ 
			{
				"type": "occ",
				"energy": -0.30825,
				"method": "rhf"
			},
			{
				"type": "occ",
				"energy": -0.29625,
				"method": "rhf"
			},
			{
				"type": "occ",
				"energy": -0.29428,
				"method": "rhf"
			},
			{
				"type": "occ",
				"energy": -0.26319,
				"method": "rhf"
			},
			{
				"type": "occ",
				"energy": -0.2519,
				"method": "rhf"
			},
			{
				"type": "unocc",
				"energy": -0.04475,
				"method": "rhf"
			},
			{
				"type": "unocc",
				"energy": -0.02023,
				"method": "rhf"
			},
			{
				"type": "unocc",
				"energy": 0.00014,
				"method": "rhf"
			},
			{
				"type": "unocc",
				"energy": 0.05295,
				"method": "rhf"
			},
			{
				"type": "unocc",
				"energy": 0.07944,
				"method": "rhf"
			}
		],
		"cosmo_sigma_profile": { 
			"-0.025": 0.0,
			"-0.024": 0.0,
			"-0.023": 0.0,
			"-0.022": 0.0,
			"-0.021": 0.0,
			"-0.02": 0.0,
			"-0.019": 0.0,
			"-0.018": 0.0,
			"-0.017": 0.0,
			"-0.016": 0.0,
			"-0.015": 1.11551414177,
			"-0.014": 2.94549899173,
			"-0.013": 2.21810100183,
			"-0.012": 2.69021800506,
			"-0.011": 2.45982199378,
			"-0.01": 2.36926583607,
			"-0.009": 1.45681543412,
			"-0.008": 1.84720412204,
			"-0.007": 5.2963947686,
			"-0.006": 5.84163048706,
			"-0.005": 9.44320976988,
			"-0.004": 12.0331476014,
			"-0.003": 16.6541142807,
			"-0.002": 18.7166015505,
			"-0.001": 27.2652260542,
			"0.0": 21.7857115605,
			"0.001": 20.8601455604,
			"0.002": 21.1490577183,
			"0.003": 12.9096069525,
			"0.004": 11.5822257745,
			"0.005": 4.33913292547,
			"0.006": 3.85515539225,
			"0.007": 2.95384380414,
			"0.008": 4.04994186641,
			"0.009": 4.13046723137,
			"0.01": 6.60345320106,
			"0.011": 8.63119899659,
			"0.012": 2.85110137285,
			"0.013": 0.0,
			"0.014": 0.0,
			"0.015": 0.0,
			"0.016": 0.0,
			"0.017": 0.0,
			"0.018": 0.0,
			"0.019": 0.0,
			"0.02": 0.0,
			"0.021": 0.0,
			"0.022": 0.0,
			"0.023": 0.0,
			"0.024": 0.0,
			"0.025": 0.0
		}
	}
}
