{
	 "smiles": "CS(=O)(=O)C1=CC(C(O)=O)=C(F)C=C1", 
	 "Tm": 464.15, 
	 "num_atms": 21, 
	 "gaussian": { 
		 "optdone": 1, 
		 "sigma_profile": "yes", 
		 "theory": "DFT", 
		 "functional": "B3LYP", 
		 "basiset": "6-31G**", 
		 "properties": { 
			 "R2extent": 3735.2378, 
			 "electric_dipole_moment_norm": 4.70701259612, 
			 "electric_quadrupole_moment_norm": 14.9376062393, 
			 "total_energy": -1107.93437853, 
			 "HOMO_LUMO_gap": 0.20762, 
			 "cosmo_polarized_energy": -19.5, 
			 "cosmo_cavitation_energy": 28.06, 
			 "cosmo_dispersion_energy": -20.63, 
			 "cosmo_repulsion_energy": 1.56, 
			 "cosmo_total_nonelectrostatic_energy": 9.0, 
			 "SMD_solvation_energy": 6.35 
		},
		"coords": [
			{
				"x": 0.2068644791,
				"y": 3.4178294559,
				"z": -0.7090291244,
				"element": "C" 
			},
			{
				"x": 0.4528157678,
				"y": 1.7968358058,
				"z": -1.4724387316,
				"element": "S" 
			},
			{
				"x": -0.612503018,
				"y": 1.6078860609,
				"z": -2.4691871706,
				"element": "O" 
			},
			{
				"x": 1.8722318486,
				"y": 1.6898310437,
				"z": -1.8367493438,
				"element": "O" 
			},
			{
				"x": 0.1366123003,
				"y": 0.6405205019,
				"z": -0.1271007387,
				"element": "C" 
			},
			{
				"x": 1.1583836358,
				"y": 0.3207754213,
				"z": 0.7589549427,
				"element": "C" 
			},
			{
				"x": 0.9325897649,
				"y": -0.5817792982,
				"z": 1.8085613623,
				"element": "C" 
			},
			{
				"x": 2.0881856917,
				"y": -0.857691537,
				"z": 2.7130339642,
				"element": "C" 
			},
			{
				"x": 1.8412099494,
				"y": -1.7831603856,
				"z": 3.6612035526,
				"element": "O" 
			},
			{
				"x": 3.1613965165,
				"y": -0.2988040341,
				"z": 2.6067906283,
				"element": "O" 
			},
			{
				"x": -0.3473642083,
				"y": -1.1481146551,
				"z": 1.9179639744,
				"element": "C" 
			},
			{
				"x": -0.6309874603,
				"y": -2.0139461956,
				"z": 2.8964458178,
				"element": "F" 
			},
			{
				"x": -1.3707165222,
				"y": -0.8400456561,
				"z": 1.0226847729,
				"element": "C" 
			},
			{
				"x": -1.1303105133,
				"y": 0.059442997,
				"z": -0.0096965552,
				"element": "C" 
			},
			{
				"x": -0.8193025549,
				"y": 3.4933729893,
				"z": -0.3467307471,
				"element": "H" 
			},
			{
				"x": 0.9246671235,
				"y": 3.5465296848,
				"z": 0.102199058,
				"element": "H" 
			},
			{
				"x": 0.3873969953,
				"y": 4.1536119612,
				"z": -1.4954945219,
				"element": "H" 
			},
			{
				"x": 2.1510773056,
				"y": 0.7442585024,
				"z": 0.650081535,
				"element": "H" 
			},
			{
				"x": 2.6668162944,
				"y": -1.8652822432,
				"z": 4.1681964454,
				"element": "H" 
			},
			{
				"x": -2.3354309526,
				"y": -1.3183445812,
				"z": 1.1501768789,
				"element": "H" 
			},
			{
				"x": -1.9018324431,
				"y": 0.3012741619,
				"z": -0.7328659992,
				"element": "H" 
			}
		],
		 "valence_orbital": [ 
			{
				"type": "occ",
				"energy": -0.30265,
				"method": "rhf"
			},
			{
				"type": "occ",
				"energy": -0.29868,
				"method": "rhf"
			},
			{
				"type": "occ",
				"energy": -0.29479,
				"method": "rhf"
			},
			{
				"type": "occ",
				"energy": -0.29291,
				"method": "rhf"
			},
			{
				"type": "occ",
				"energy": -0.28134,
				"method": "rhf"
			},
			{
				"type": "unocc",
				"energy": -0.07372,
				"method": "rhf"
			},
			{
				"type": "unocc",
				"energy": -0.04822,
				"method": "rhf"
			},
			{
				"type": "unocc",
				"energy": 0.02275,
				"method": "rhf"
			},
			{
				"type": "unocc",
				"energy": 0.05463,
				"method": "rhf"
			},
			{
				"type": "unocc",
				"energy": 0.07082,
				"method": "rhf"
			}
		],
		"cosmo_sigma_profile": { 
			"-0.025": 0.0,
			"-0.024": 0.0,
			"-0.023": 0.0,
			"-0.022": 0.0,
			"-0.021": 0.0,
			"-0.02": 0.0,
			"-0.019": 0.256382763068,
			"-0.018": 1.22375096302,
			"-0.017": 0.83261287159,
			"-0.016": 0.617288506375,
			"-0.015": 0.611208754777,
			"-0.014": 1.49557919275,
			"-0.013": 0.458893981419,
			"-0.012": 0.157902834814,
			"-0.011": 0.814337431306,
			"-0.01": 0.650591446665,
			"-0.009": 6.67159889268,
			"-0.008": 11.9349401621,
			"-0.007": 10.6269966473,
			"-0.006": 10.7095743577,
			"-0.005": 10.2629211431,
			"-0.004": 14.5307548388,
			"-0.003": 13.7674637419,
			"-0.002": 17.2850294984,
			"-0.001": 18.6748816942,
			"0.0": 13.3486047501,
			"0.001": 8.2891468225,
			"0.002": 7.88522628395,
			"0.003": 9.62105745412,
			"0.004": 6.29393284684,
			"0.005": 5.4817499547,
			"0.006": 5.66034605096,
			"0.007": 5.24333423188,
			"0.008": 6.24356045459,
			"0.009": 5.55578038945,
			"0.01": 8.32478786197,
			"0.011": 13.9205704631,
			"0.012": 7.38528024254,
			"0.013": 0.104721328293,
			"0.014": 0.0,
			"0.015": 0.0,
			"0.016": 0.0,
			"0.017": 0.0,
			"0.018": 0.0,
			"0.019": 0.0,
			"0.02": 0.0,
			"0.021": 0.0,
			"0.022": 0.0,
			"0.023": 0.0,
			"0.024": 0.0,
			"0.025": 0.0
		}
	}
}
