{
	 "smiles": "O=C1CCC2(CCN1)OCCO2", 
	 "Tm": 375.15, 
	 "num_atms": 25, 
	 "gaussian": { 
		 "optdone": 1, 
		 "sigma_profile": "yes", 
		 "theory": "DFT", 
		 "functional": "B3LYP", 
		 "basiset": "6-31G**", 
		 "properties": { 
			 "R2extent": 2310.4459, 
			 "electric_dipole_moment_norm": 4.53196225602, 
			 "electric_quadrupole_moment_norm": 14.957006755, 
			 "total_energy": -593.100799364, 
			 "HOMO_LUMO_gap": 0.26648, 
			 "cosmo_polarized_energy": -14.66, 
			 "cosmo_cavitation_energy": 25.88, 
			 "cosmo_dispersion_energy": -19.46, 
			 "cosmo_repulsion_energy": 1.56, 
			 "cosmo_total_nonelectrostatic_energy": 7.99, 
			 "SMD_solvation_energy": 4.05 
		},
		"coords": [
			{
				"x": -0.7288451715,
				"y": 0.326166498,
				"z": 2.5110355853,
				"element": "O" 
			},
			{
				"x": -0.3508067844,
				"y": 0.5311008387,
				"z": 1.3623385045,
				"element": "C" 
			},
			{
				"x": -1.1649514813,
				"y": 0.063876155,
				"z": 0.1621396889,
				"element": "C" 
			},
			{
				"x": -0.5173052675,
				"y": -1.0474122356,
				"z": -0.6826321568,
				"element": "C" 
			},
			{
				"x": 0.8968334749,
				"y": -0.7416663459,
				"z": -1.2127846043,
				"element": "C" 
			},
			{
				"x": 1.1712487664,
				"y": 0.7614661461,
				"z": -1.3690403546,
				"element": "C" 
			},
			{
				"x": 1.5994070427,
				"y": 1.4733909275,
				"z": -0.0777696043,
				"element": "C" 
			},
			{
				"x": 0.8061977352,
				"y": 1.2287837192,
				"z": 1.1282238489,
				"element": "N" 
			},
			{
				"x": 1.9168972955,
				"y": -1.2856281412,
				"z": -0.3657247883,
				"element": "O" 
			},
			{
				"x": 2.4372388491,
				"y": -2.4503839031,
				"z": -0.9998052651,
				"element": "C" 
			},
			{
				"x": 2.2635980421,
				"y": -2.1119111904,
				"z": -2.4757877608,
				"element": "C" 
			},
			{
				"x": 1.0244032278,
				"y": -1.4100721755,
				"z": -2.4744502395,
				"element": "O" 
			},
			{
				"x": -2.1080936568,
				"y": -0.3003352696,
				"z": 0.5733956046,
				"element": "H" 
			},
			{
				"x": -1.3998246625,
				"y": 0.9270422789,
				"z": -0.4713252843,
				"element": "H" 
			},
			{
				"x": -0.4632782285,
				"y": -1.9756224417,
				"z": -0.1045482035,
				"element": "H" 
			},
			{
				"x": -1.1544078794,
				"y": -1.2415325102,
				"z": -1.5510272165,
				"element": "H" 
			},
			{
				"x": 1.9943224666,
				"y": 0.8808417489,
				"z": -2.0810884764,
				"element": "H" 
			},
			{
				"x": 0.2974994251,
				"y": 1.2379884731,
				"z": -1.8237488785,
				"element": "H" 
			},
			{
				"x": 1.636010252,
				"y": 2.5532992675,
				"z": -0.2797281824,
				"element": "H" 
			},
			{
				"x": 2.6222020479,
				"y": 1.1516150645,
				"z": 0.1436766291,
				"element": "H" 
			},
			{
				"x": 1.267965769,
				"y": 1.4630435909,
				"z": 1.9981967467,
				"element": "H" 
			},
			{
				"x": 1.859687132,
				"y": -3.3452216376,
				"z": -0.725851236,
				"element": "H" 
			},
			{
				"x": 3.4754737023,
				"y": -2.5819633514,
				"z": -0.6840891385,
				"element": "H" 
			},
			{
				"x": 2.1673586381,
				"y": -2.9816069554,
				"z": -3.1309517094,
				"element": "H" 
			},
			{
				"x": 3.0853692655,
				"y": -1.4760585504,
				"z": -2.837953509,
				"element": "H" 
			}
		],
		 "valence_orbital": [ 
			{
				"type": "occ",
				"energy": -0.33153,
				"method": "rhf"
			},
			{
				"type": "occ",
				"energy": -0.27676,
				"method": "rhf"
			},
			{
				"type": "occ",
				"energy": -0.25949,
				"method": "rhf"
			},
			{
				"type": "occ",
				"energy": -0.23714,
				"method": "rhf"
			},
			{
				"type": "occ",
				"energy": -0.23115,
				"method": "rhf"
			},
			{
				"type": "unocc",
				"energy": 0.03533,
				"method": "rhf"
			},
			{
				"type": "unocc",
				"energy": 0.07287,
				"method": "rhf"
			},
			{
				"type": "unocc",
				"energy": 0.09111,
				"method": "rhf"
			},
			{
				"type": "unocc",
				"energy": 0.10159,
				"method": "rhf"
			},
			{
				"type": "unocc",
				"energy": 0.10959,
				"method": "rhf"
			}
		],
		"cosmo_sigma_profile": { 
			"-0.025": 0.0,
			"-0.024": 0.0,
			"-0.023": 0.0,
			"-0.022": 0.0,
			"-0.021": 0.0,
			"-0.02": 0.0,
			"-0.019": 0.0,
			"-0.018": 0.0,
			"-0.017": 0.0,
			"-0.016": 0.0,
			"-0.015": 0.0,
			"-0.014": 0.0,
			"-0.013": 0.539019791708,
			"-0.012": 1.18352266326,
			"-0.011": 1.21025854325,
			"-0.01": 0.620651962393,
			"-0.009": 0.961669738082,
			"-0.008": 1.28014908466,
			"-0.007": 1.66260432011,
			"-0.006": 8.48097927698,
			"-0.005": 17.462042286,
			"-0.004": 32.813422861,
			"-0.003": 29.1858389774,
			"-0.002": 19.863387156,
			"-0.001": 13.0150274736,
			"0.0": 8.16080188641,
			"0.001": 5.15037812564,
			"0.002": 5.01438440333,
			"0.003": 5.99950529413,
			"0.004": 5.20106773989,
			"0.005": 5.11312043652,
			"0.006": 5.16012312941,
			"0.007": 3.00118455395,
			"0.008": 4.04960404129,
			"0.009": 3.75262027955,
			"0.01": 2.8113272006,
			"0.011": 3.70429306648,
			"0.012": 3.32323662934,
			"0.013": 2.64167362401,
			"0.014": 5.39988192531,
			"0.015": 3.9146894697,
			"0.016": 0.409041711012,
			"0.017": 0.0,
			"0.018": 0.0,
			"0.019": 0.0,
			"0.02": 0.0,
			"0.021": 0.0,
			"0.022": 0.0,
			"0.023": 0.0,
			"0.024": 0.0,
			"0.025": 0.0
		}
	}
}
