{
	 "smiles": "CN1CCN(CC1)C1=NC=C(CN)C=C1", 
	 "Tm": 334.15, 
	 "num_atms": 33, 
	 "gaussian": { 
		 "optdone": 1, 
		 "sigma_profile": "yes", 
		 "theory": "DFT", 
		 "functional": "B3LYP", 
		 "basiset": "6-31G**", 
		 "properties": { 
			 "R2extent": 5098.1514, 
			 "electric_dipole_moment_norm": 3.03103818023, 
			 "electric_quadrupole_moment_norm": 9.46643753584, 
			 "total_energy": -649.002821893, 
			 "HOMO_LUMO_gap": 0.17901, 
			 "cosmo_polarized_energy": -11.48, 
			 "cosmo_cavitation_energy": 33.91, 
			 "cosmo_dispersion_energy": -24.84, 
			 "cosmo_repulsion_energy": 1.95, 
			 "cosmo_total_nonelectrostatic_energy": 11.02, 
			 "SMD_solvation_energy": -0.32 
		},
		"coords": [
			{
				"x": -0.7934071292,
				"y": -2.1402323092,
				"z": -4.1557790855,
				"element": "C" 
			},
			{
				"x": 0.4550907328,
				"y": -1.7199298126,
				"z": -3.5413934487,
				"element": "N" 
			},
			{
				"x": 0.555273938,
				"y": -2.1684536043,
				"z": -2.1463298695,
				"element": "C" 
			},
			{
				"x": 1.521621692,
				"y": -1.2989303273,
				"z": -1.3454063942,
				"element": "C" 
			},
			{
				"x": 1.0349780091,
				"y": 0.0826500506,
				"z": -1.3098389208,
				"element": "N" 
			},
			{
				"x": 0.382430223,
				"y": 0.5846900097,
				"z": -2.5149239818,
				"element": "C" 
			},
			{
				"x": 0.7723345835,
				"y": -0.2976293638,
				"z": -3.7088576999,
				"element": "C" 
			},
			{
				"x": 1.0422935282,
				"y": 0.8123167591,
				"z": -0.141273445,
				"element": "C" 
			},
			{
				"x": 1.68194549,
				"y": 0.2732657965,
				"z": 0.9147983061,
				"element": "N" 
			},
			{
				"x": 1.7155473185,
				"y": 0.9607189973,
				"z": 2.0589370185,
				"element": "C" 
			},
			{
				"x": 1.139151885,
				"y": 2.2163937608,
				"z": 2.2624504795,
				"element": "C" 
			},
			{
				"x": 1.1854091645,
				"y": 2.9092221872,
				"z": 3.608913059,
				"element": "C" 
			},
			{
				"x": -0.0026879675,
				"y": 2.7452261342,
				"z": 4.467240493,
				"element": "N" 
			},
			{
				"x": 0.4770400177,
				"y": 2.7662060376,
				"z": 1.153449574,
				"element": "C" 
			},
			{
				"x": 0.4134508857,
				"y": 2.0808599499,
				"z": -0.048942057,
				"element": "C" 
			},
			{
				"x": -0.8840742369,
				"y": -3.2297519257,
				"z": -4.0835012971,
				"element": "H" 
			},
			{
				"x": -0.797159484,
				"y": -1.8788892962,
				"z": -5.218670799,
				"element": "H" 
			},
			{
				"x": -1.6974627139,
				"y": -1.7030324868,
				"z": -3.6877110747,
				"element": "H" 
			},
			{
				"x": 0.8902907427,
				"y": -3.2142496892,
				"z": -2.1209556752,
				"element": "H" 
			},
			{
				"x": -0.4284896641,
				"y": -2.1346976161,
				"z": -1.6409993033,
				"element": "H" 
			},
			{
				"x": 1.5971805887,
				"y": -1.6547678249,
				"z": -0.3183440898,
				"element": "H" 
			},
			{
				"x": 2.5298735822,
				"y": -1.3522005877,
				"z": -1.7808978635,
				"element": "H" 
			},
			{
				"x": 0.7064418654,
				"y": 1.6140851508,
				"z": -2.7172792071,
				"element": "H" 
			},
			{
				"x": -0.7137699232,
				"y": 0.6094420587,
				"z": -2.3965898573,
				"element": "H" 
			},
			{
				"x": 1.8510331946,
				"y": -0.1816926106,
				"z": -3.8795582049,
				"element": "H" 
			},
			{
				"x": 0.2724893315,
				"y": 0.0753546551,
				"z": -4.6076579826,
				"element": "H" 
			},
			{
				"x": 2.2516297952,
				"y": 0.4769590385,
				"z": 2.8774427053,
				"element": "H" 
			},
			{
				"x": 1.3384397358,
				"y": 3.9860029505,
				"z": 3.4676882709,
				"element": "H" 
			},
			{
				"x": 2.0513690416,
				"y": 2.5461382887,
				"z": 4.1747258463,
				"element": "H" 
			},
			{
				"x": -0.1738217538,
				"y": 1.7504827999,
				"z": 4.6050287263,
				"element": "H" 
			},
			{
				"x": -0.8221124716,
				"y": 3.0916164442,
				"z": 3.9710293934,
				"element": "H" 
			},
			{
				"x": 0.0043348032,
				"y": 3.7437466078,
				"z": 1.2340083426,
				"element": "H" 
			},
			{
				"x": -0.1125648046,
				"y": 2.5111797775,
				"z": -0.892001958,
				"element": "H" 
			}
		],
		 "valence_orbital": [ 
			{
				"type": "occ",
				"energy": -0.27091,
				"method": "rhf"
			},
			{
				"type": "occ",
				"energy": -0.25053,
				"method": "rhf"
			},
			{
				"type": "occ",
				"energy": -0.23139,
				"method": "rhf"
			},
			{
				"type": "occ",
				"energy": -0.20687,
				"method": "rhf"
			},
			{
				"type": "occ",
				"energy": -0.19111,
				"method": "rhf"
			},
			{
				"type": "unocc",
				"energy": -0.0121,
				"method": "rhf"
			},
			{
				"type": "unocc",
				"energy": 0.01438,
				"method": "rhf"
			},
			{
				"type": "unocc",
				"energy": 0.07414,
				"method": "rhf"
			},
			{
				"type": "unocc",
				"energy": 0.09166,
				"method": "rhf"
			},
			{
				"type": "unocc",
				"energy": 0.11041,
				"method": "rhf"
			}
		],
		"cosmo_sigma_profile": { 
			"-0.025": 0.0,
			"-0.024": 0.0,
			"-0.023": 0.0,
			"-0.022": 0.0,
			"-0.021": 0.0,
			"-0.02": 0.0,
			"-0.019": 0.0,
			"-0.018": 0.0,
			"-0.017": 0.0,
			"-0.016": 0.0,
			"-0.015": 0.0,
			"-0.014": 0.0,
			"-0.013": 0.0,
			"-0.012": 0.0,
			"-0.011": 0.0,
			"-0.01": 0.130938800733,
			"-0.009": 2.08119243306,
			"-0.008": 2.32262667368,
			"-0.007": 2.95193099957,
			"-0.006": 7.28428743507,
			"-0.005": 13.8430955236,
			"-0.004": 26.0746829468,
			"-0.003": 36.4763603685,
			"-0.002": 35.5702377196,
			"-0.001": 28.9943070852,
			"0.0": 21.8370164749,
			"0.001": 12.1002932784,
			"0.002": 10.5160814539,
			"0.003": 9.48923144817,
			"0.004": 13.0953006319,
			"0.005": 11.6343923164,
			"0.006": 4.16425648364,
			"0.007": 4.00112945532,
			"0.008": 2.85603130109,
			"0.009": 3.51225944178,
			"0.01": 2.63276208591,
			"0.011": 2.02487394398,
			"0.012": 2.07664880114,
			"0.013": 2.09153784542,
			"0.014": 1.98187504184,
			"0.015": 1.11520418926,
			"0.016": 0.978559573563,
			"0.017": 0.520929902428,
			"0.018": 0.728996833527,
			"0.019": 0.771348912627,
			"0.02": 0.367800195706,
			"0.021": 0.0277470111029,
			"0.022": 0.0,
			"0.023": 0.0,
			"0.024": 0.0,
			"0.025": 0.0
		}
	}
}
