{
	 "smiles": "CC1=C(C=CC=C1C(O)=O)S(Cl)(=O)=O", 
	 "Tm": 443.15, 
	 "num_atms": 21, 
	 "gaussian": { 
		 "optdone": 1, 
		 "sigma_profile": "yes", 
		 "theory": "DFT", 
		 "functional": "B3LYP", 
		 "basiset": "6-31G**", 
		 "properties": { 
			 "R2extent": 4073.997, 
			 "electric_dipole_moment_norm": 2.16732292472, 
			 "electric_quadrupole_moment_norm": 24.7345293396, 
			 "total_energy": -1468.28114379, 
			 "HOMO_LUMO_gap": 0.18537, 
			 "cosmo_polarized_energy": -16.4, 
			 "cosmo_cavitation_energy": 28.26, 
			 "cosmo_dispersion_energy": -21.24, 
			 "cosmo_repulsion_energy": 1.61, 
			 "cosmo_total_nonelectrostatic_energy": 8.63, 
			 "SMD_solvation_energy": 4.71 
		},
		"coords": [
			{
				"x": 0.9510835669,
				"y": 0.2534584109,
				"z": 1.6241370767,
				"element": "C" 
			},
			{
				"x": 0.7621400572,
				"y": -0.18789412,
				"z": 0.1867938968,
				"element": "C" 
			},
			{
				"x": 1.3445945823,
				"y": 0.5070771403,
				"z": -0.8952302884,
				"element": "C" 
			},
			{
				"x": 1.1230645017,
				"y": 0.1763019731,
				"z": -2.2332037729,
				"element": "C" 
			},
			{
				"x": 0.2804073262,
				"y": -0.8893600502,
				"z": -2.5379174789,
				"element": "C" 
			},
			{
				"x": -0.3078039567,
				"y": -1.6060494357,
				"z": -1.5041320763,
				"element": "C" 
			},
			{
				"x": -0.0526688397,
				"y": -1.2881692214,
				"z": -0.1609554066,
				"element": "C" 
			},
			{
				"x": -0.7459563143,
				"y": -2.1856260269,
				"z": 0.8372656933,
				"element": "C" 
			},
			{
				"x": -0.0402816452,
				"y": -2.5656022666,
				"z": 1.9329522542,
				"element": "O" 
			},
			{
				"x": -1.8650029034,
				"y": -2.6017633658,
				"z": 0.6649861807,
				"element": "O" 
			},
			{
				"x": 2.4835291912,
				"y": 1.8788694661,
				"z": -0.6412047454,
				"element": "S" 
			},
			{
				"x": 1.1509638361,
				"y": 3.4667989109,
				"z": -0.1203312448,
				"element": "Cl" 
			},
			{
				"x": 3.0670634276,
				"y": 2.2519800922,
				"z": -1.9230981645,
				"element": "O" 
			},
			{
				"x": 3.3147962073,
				"y": 1.6376806669,
				"z": 0.5318870002,
				"element": "O" 
			},
			{
				"x": 0.8702067263,
				"y": 1.3383386433,
				"z": 1.7130075923,
				"element": "H" 
			},
			{
				"x": 0.1994145073,
				"y": -0.187389962,
				"z": 2.2778483202,
				"element": "H" 
			},
			{
				"x": 1.9477362967,
				"y": -0.0068360979,
				"z": 1.9964028718,
				"element": "H" 
			},
			{
				"x": 1.6052531285,
				"y": 0.7532237371,
				"z": -3.013254205,
				"element": "H" 
			},
			{
				"x": 0.0874083526,
				"y": -1.1527053909,
				"z": -3.5724092238,
				"element": "H" 
			},
			{
				"x": -0.9805750223,
				"y": -2.4310508112,
				"z": -1.7120305851,
				"element": "H" 
			},
			{
				"x": 0.8748269737,
				"y": -2.256882292,
				"z": 1.8750863056,
				"element": "H" 
			}
		],
		 "valence_orbital": [ 
			{
				"type": "occ",
				"energy": -0.33526,
				"method": "rhf"
			},
			{
				"type": "occ",
				"energy": -0.32454,
				"method": "rhf"
			},
			{
				"type": "occ",
				"energy": -0.30847,
				"method": "rhf"
			},
			{
				"type": "occ",
				"energy": -0.29528,
				"method": "rhf"
			},
			{
				"type": "occ",
				"energy": -0.28622,
				"method": "rhf"
			},
			{
				"type": "unocc",
				"energy": -0.10085,
				"method": "rhf"
			},
			{
				"type": "unocc",
				"energy": -0.07037,
				"method": "rhf"
			},
			{
				"type": "unocc",
				"energy": -0.06069,
				"method": "rhf"
			},
			{
				"type": "unocc",
				"energy": 0.00758,
				"method": "rhf"
			},
			{
				"type": "unocc",
				"energy": 0.04265,
				"method": "rhf"
			}
		],
		"cosmo_sigma_profile": { 
			"-0.025": 0.0,
			"-0.024": 0.0,
			"-0.023": 0.0,
			"-0.022": 0.0,
			"-0.021": 0.0,
			"-0.02": 0.0635439148501,
			"-0.019": 0.525975912177,
			"-0.018": 1.00757220808,
			"-0.017": 0.714346981624,
			"-0.016": 0.78320921205,
			"-0.015": 0.771030975137,
			"-0.014": 1.12471562696,
			"-0.013": 1.32379983369,
			"-0.012": 0.625242625809,
			"-0.011": 1.09322396615,
			"-0.01": 0.646165881827,
			"-0.009": 1.73039448318,
			"-0.008": 7.16727851161,
			"-0.007": 8.86472087613,
			"-0.006": 10.0037075997,
			"-0.005": 11.9685925843,
			"-0.004": 12.8692226681,
			"-0.003": 16.4744769404,
			"-0.002": 17.9249327965,
			"-0.001": 16.4636612782,
			"0.0": 16.4393769659,
			"0.001": 15.9642097971,
			"0.002": 11.4327499585,
			"0.003": 13.8068555615,
			"0.004": 7.90821092991,
			"0.005": 6.11584117366,
			"0.006": 5.57141033059,
			"0.007": 8.82842285531,
			"0.008": 10.9094103293,
			"0.009": 7.49816702667,
			"0.01": 4.66623468674,
			"0.011": 5.50118577653,
			"0.012": 2.34821231303,
			"0.013": 0.147588253872,
			"0.014": 0.0,
			"0.015": 0.0,
			"0.016": 0.0,
			"0.017": 0.0,
			"0.018": 0.0,
			"0.019": 0.0,
			"0.02": 0.0,
			"0.021": 0.0,
			"0.022": 0.0,
			"0.023": 0.0,
			"0.024": 0.0,
			"0.025": 0.0
		}
	}
}
