{
	 "smiles": "O=C1C(C(=O)C2=CC=CC=C12)C1=NC2=CC=CC=C2C=C1", 
	 "Tm": 514.15, 
	 "num_atms": 32, 
	 "gaussian": { 
		 "optdone": 1, 
		 "sigma_profile": "yes", 
		 "theory": "DFT", 
		 "functional": "B3LYP", 
		 "basiset": "6-31G**", 
		 "properties": { 
			 "R2extent": 6596.1521, 
			 "electric_dipole_moment_norm": 1.17454942425, 
			 "electric_quadrupole_moment_norm": 30.8381239979, 
			 "total_energy": -897.753831204, 
			 "HOMO_LUMO_gap": 0.15377, 
			 "cosmo_polarized_energy": -16.01, 
			 "cosmo_cavitation_energy": 37.66, 
			 "cosmo_dispersion_energy": -26.33, 
			 "cosmo_repulsion_energy": 2.0, 
			 "cosmo_total_nonelectrostatic_energy": 13.33, 
			 "SMD_solvation_energy": 5.84 
		},
		"coords": [
			{
				"x": -0.8077881532,
				"y": 1.1308773021,
				"z": -1.9711413815,
				"element": "O" 
			},
			{
				"x": -1.1183492122,
				"y": 0.6863097334,
				"z": -0.8856376807,
				"element": "C" 
			},
			{
				"x": -0.3975551394,
				"y": 0.9707220375,
				"z": 0.4550772436,
				"element": "C" 
			},
			{
				"x": -1.240538849,
				"y": 0.2004016908,
				"z": 1.5010119311,
				"element": "C" 
			},
			{
				"x": -1.046774267,
				"y": 0.1800478731,
				"z": 2.6986982431,
				"element": "O" 
			},
			{
				"x": -2.3403087757,
				"y": -0.4876443229,
				"z": 0.7733772243,
				"element": "C" 
			},
			{
				"x": -3.3487807668,
				"y": -1.29977202,
				"z": 1.2941280831,
				"element": "C" 
			},
			{
				"x": -4.2829934726,
				"y": -1.8295863079,
				"z": 0.4048662917,
				"element": "C" 
			},
			{
				"x": -4.2124322947,
				"y": -1.5493412436,
				"z": -0.9720830831,
				"element": "C" 
			},
			{
				"x": -3.2062313232,
				"y": -0.7334991356,
				"z": -1.4880410755,
				"element": "C" 
			},
			{
				"x": -2.2701799102,
				"y": -0.2089830473,
				"z": -0.5956199214,
				"element": "C" 
			},
			{
				"x": 1.0506893903,
				"y": 0.5278270672,
				"z": 0.4391039951,
				"element": "C" 
			},
			{
				"x": 1.2575326428,
				"y": -0.7528623515,
				"z": 0.1878165259,
				"element": "N" 
			},
			{
				"x": 2.5405281227,
				"y": -1.2120110828,
				"z": 0.1601808748,
				"element": "C" 
			},
			{
				"x": 2.7651324315,
				"y": -2.5884014859,
				"z": -0.1097116545,
				"element": "C" 
			},
			{
				"x": 4.0463629207,
				"y": -3.0906080882,
				"z": -0.1461069967,
				"element": "C" 
			},
			{
				"x": 5.160803603,
				"y": -2.2447446201,
				"z": 0.0845461479,
				"element": "C" 
			},
			{
				"x": 4.974835433,
				"y": -0.9064535811,
				"z": 0.3485987891,
				"element": "C" 
			},
			{
				"x": 3.6660388334,
				"y": -0.3583368066,
				"z": 0.392988399,
				"element": "C" 
			},
			{
				"x": 3.3990733722,
				"y": 1.0080886679,
				"z": 0.6587063681,
				"element": "C" 
			},
			{
				"x": 2.0995988907,
				"y": 1.4539626402,
				"z": 0.6827491653,
				"element": "C" 
			},
			{
				"x": -0.4597850683,
				"y": 2.0436762228,
				"z": 0.6703984615,
				"element": "H" 
			},
			{
				"x": -3.3907287693,
				"y": -1.5053404372,
				"z": 2.3590063514,
				"element": "H" 
			},
			{
				"x": -5.0792399466,
				"y": -2.4685114719,
				"z": 0.7757935036,
				"element": "H" 
			},
			{
				"x": -4.9554996091,
				"y": -1.9770418592,
				"z": -1.638975114,
				"element": "H" 
			},
			{
				"x": -3.139332842,
				"y": -0.5067381411,
				"z": -2.5473253606,
				"element": "H" 
			},
			{
				"x": 1.8974118906,
				"y": -3.2163507328,
				"z": -0.2830193192,
				"element": "H" 
			},
			{
				"x": 4.2103614223,
				"y": -4.1442115051,
				"z": -0.3530882324,
				"element": "H" 
			},
			{
				"x": 6.1641442717,
				"y": -2.6590326497,
				"z": 0.0517366472,
				"element": "H" 
			},
			{
				"x": 5.8251935845,
				"y": -0.2529305366,
				"z": 0.5262386493,
				"element": "H" 
			},
			{
				"x": 4.2258406594,
				"y": 1.6900846194,
				"z": 0.8409563902,
				"element": "H" 
			},
			{
				"x": 1.8666709305,
				"y": 2.494503573,
				"z": 0.8835705342,
				"element": "H" 
			}
		],
		 "valence_orbital": [ 
			{
				"type": "occ",
				"energy": -0.27134,
				"method": "rhf"
			},
			{
				"type": "occ",
				"energy": -0.25869,
				"method": "rhf"
			},
			{
				"type": "occ",
				"energy": -0.25704,
				"method": "rhf"
			},
			{
				"type": "occ",
				"energy": -0.23895,
				"method": "rhf"
			},
			{
				"type": "occ",
				"energy": -0.22915,
				"method": "rhf"
			},
			{
				"type": "unocc",
				"energy": -0.07538,
				"method": "rhf"
			},
			{
				"type": "unocc",
				"energy": -0.05913,
				"method": "rhf"
			},
			{
				"type": "unocc",
				"energy": -0.0556,
				"method": "rhf"
			},
			{
				"type": "unocc",
				"energy": -0.01708,
				"method": "rhf"
			},
			{
				"type": "unocc",
				"energy": 0.01868,
				"method": "rhf"
			}
		],
		"cosmo_sigma_profile": { 
			"-0.025": 0.0,
			"-0.024": 0.0,
			"-0.023": 0.0,
			"-0.022": 0.0,
			"-0.021": 0.0,
			"-0.02": 0.0,
			"-0.019": 0.0,
			"-0.018": 0.0,
			"-0.017": 0.0,
			"-0.016": 0.0,
			"-0.015": 0.0,
			"-0.014": 0.0,
			"-0.013": 0.0,
			"-0.012": 0.0,
			"-0.011": 0.0,
			"-0.01": 0.0,
			"-0.009": 3.76621324479,
			"-0.008": 7.45753224207,
			"-0.007": 17.9444525051,
			"-0.006": 22.1762053006,
			"-0.005": 20.5805144476,
			"-0.004": 18.142387312,
			"-0.003": 15.3864320701,
			"-0.002": 15.5163193684,
			"-0.001": 16.7176490369,
			"0.0": 20.7900959985,
			"0.001": 30.099313932,
			"0.002": 30.8611873341,
			"0.003": 18.7245096454,
			"0.004": 17.2186950849,
			"0.005": 8.5789712471,
			"0.006": 5.44475277699,
			"0.007": 5.60484158808,
			"0.008": 3.42378549225,
			"0.009": 5.46931481662,
			"0.01": 7.69600251975,
			"0.011": 9.39971952579,
			"0.012": 2.8689074562,
			"0.013": 0.00362505367339,
			"0.014": 0.0,
			"0.015": 0.0,
			"0.016": 0.0,
			"0.017": 0.0,
			"0.018": 0.0,
			"0.019": 0.0,
			"0.02": 0.0,
			"0.021": 0.0,
			"0.022": 0.0,
			"0.023": 0.0,
			"0.024": 0.0,
			"0.025": 0.0
		}
	}
}
