{
	 "smiles": "OC(COC1=CC=CC(Cl)=C1)C#C", 
	 "Tm": 311.15, 
	 "num_atms": 22, 
	 "gaussian": { 
		 "optdone": 1, 
		 "sigma_profile": "yes", 
		 "theory": "DFT", 
		 "functional": "B3LYP", 
		 "basiset": "6-31G**", 
		 "properties": { 
			 "R2extent": 4141.8246, 
			 "electric_dipole_moment_norm": 2.57483679871, 
			 "electric_quadrupole_moment_norm": 12.1416639449, 
			 "total_energy": -997.030627044, 
			 "HOMO_LUMO_gap": 0.21829, 
			 "cosmo_polarized_energy": -11.41, 
			 "cosmo_cavitation_energy": 29.37, 
			 "cosmo_dispersion_energy": -20.59, 
			 "cosmo_repulsion_energy": 1.65, 
			 "cosmo_total_nonelectrostatic_energy": 10.43, 
			 "SMD_solvation_energy": 6.21 
		},
		"coords": [
			{
				"x": -1.7614147105,
				"y": 2.4671432075,
				"z": 0.5286759164,
				"element": "O" 
			},
			{
				"x": -1.1273965501,
				"y": 1.6997176016,
				"z": 1.5396172824,
				"element": "C" 
			},
			{
				"x": 0.0846137855,
				"y": 0.9544916628,
				"z": 0.9660233597,
				"element": "C" 
			},
			{
				"x": -0.4136727739,
				"y": 0.1115076909,
				"z": -0.0674717961,
				"element": "O" 
			},
			{
				"x": 0.4655687544,
				"y": -0.6391978254,
				"z": -0.7944824304,
				"element": "C" 
			},
			{
				"x": 1.8500695402,
				"y": -0.6542217146,
				"z": -0.5927486646,
				"element": "C" 
			},
			{
				"x": 2.6472995961,
				"y": -1.4668941628,
				"z": -1.403656597,
				"element": "C" 
			},
			{
				"x": 2.0948974648,
				"y": -2.2605296889,
				"z": -2.4055155218,
				"element": "C" 
			},
			{
				"x": 0.7095888185,
				"y": -2.2273055445,
				"z": -2.5840592653,
				"element": "C" 
			},
			{
				"x": -0.0188050111,
				"y": -3.2198272868,
				"z": -3.8400448521,
				"element": "Cl" 
			},
			{
				"x": -0.1121817299,
				"y": -1.4319125226,
				"z": -1.7967881961,
				"element": "C" 
			},
			{
				"x": -2.059095215,
				"y": 0.7844404972,
				"z": 2.2223455702,
				"element": "C" 
			},
			{
				"x": -2.8282250816,
				"y": 0.0422412287,
				"z": 2.7836822182,
				"element": "C" 
			},
			{
				"x": -2.019475584,
				"y": 1.8412333651,
				"z": -0.1638762887,
				"element": "H" 
			},
			{
				"x": -0.7482532826,
				"y": 2.4259199207,
				"z": 2.2695886711,
				"element": "H" 
			},
			{
				"x": 0.5863354217,
				"y": 0.3653973786,
				"z": 1.7444178405,
				"element": "H" 
			},
			{
				"x": 0.7878129207,
				"y": 1.6890303068,
				"z": 0.5529883457,
				"element": "H" 
			},
			{
				"x": 2.3104249047,
				"y": -0.0496201628,
				"z": 0.1787846937,
				"element": "H" 
			},
			{
				"x": 3.7218703415,
				"y": -1.4781447284,
				"z": -1.247106614,
				"element": "H" 
			},
			{
				"x": 2.7142743614,
				"y": -2.8898945112,
				"z": -3.0333236038,
				"element": "H" 
			},
			{
				"x": -1.186063157,
				"y": -1.413051121,
				"z": -1.9383358342,
				"element": "H" 
			},
			{
				"x": -3.5104728138,
				"y": -0.6137235909,
				"z": 3.2733857662,
				"element": "H" 
			}
		],
		 "valence_orbital": [ 
			{
				"type": "occ",
				"energy": -0.29698,
				"method": "rhf"
			},
			{
				"type": "occ",
				"energy": -0.27551,
				"method": "rhf"
			},
			{
				"type": "occ",
				"energy": -0.27364,
				"method": "rhf"
			},
			{
				"type": "occ",
				"energy": -0.25359,
				"method": "rhf"
			},
			{
				"type": "occ",
				"energy": -0.23563,
				"method": "rhf"
			},
			{
				"type": "unocc",
				"energy": -0.01734,
				"method": "rhf"
			},
			{
				"type": "unocc",
				"energy": -0.00414,
				"method": "rhf"
			},
			{
				"type": "unocc",
				"energy": 0.02638,
				"method": "rhf"
			},
			{
				"type": "unocc",
				"energy": 0.03137,
				"method": "rhf"
			},
			{
				"type": "unocc",
				"energy": 0.04361,
				"method": "rhf"
			}
		],
		"cosmo_sigma_profile": { 
			"-0.025": 0.0,
			"-0.024": 0.0,
			"-0.023": 0.0,
			"-0.022": 0.0,
			"-0.021": 0.0,
			"-0.02": 0.0,
			"-0.019": 0.0,
			"-0.018": 0.0,
			"-0.017": 0.0,
			"-0.016": 0.0,
			"-0.015": 0.0429378743965,
			"-0.014": 0.533689531725,
			"-0.013": 0.501879231911,
			"-0.012": 1.274126141,
			"-0.011": 2.1990142942,
			"-0.01": 1.81300871897,
			"-0.009": 1.159203731,
			"-0.008": 5.69352207777,
			"-0.007": 14.8749310542,
			"-0.006": 17.3026595058,
			"-0.005": 14.6355011158,
			"-0.004": 9.73972853629,
			"-0.003": 8.26537217022,
			"-0.002": 12.21335169,
			"-0.001": 10.7409078545,
			"0.0": 11.2015520952,
			"0.001": 16.2216474335,
			"0.002": 22.9086920786,
			"0.003": 21.8235604025,
			"0.004": 23.7613213994,
			"0.005": 14.4328181591,
			"0.006": 9.390102978,
			"0.007": 5.02530937877,
			"0.008": 3.28013696719,
			"0.009": 1.90083124727,
			"0.01": 1.01453684216,
			"0.011": 1.61864167665,
			"0.012": 1.72520185872,
			"0.013": 2.17056342597,
			"0.014": 0.0987552502838,
			"0.015": 0.0,
			"0.016": 0.0,
			"0.017": 0.0,
			"0.018": 0.0,
			"0.019": 0.0,
			"0.02": 0.0,
			"0.021": 0.0,
			"0.022": 0.0,
			"0.023": 0.0,
			"0.024": 0.0,
			"0.025": 0.0
		}
	}
}
