{
	 "smiles": "FC1=CC2=C(C=C1)C(=O)CCCO2", 
	 "Tm": 311.15, 
	 "num_atms": 22, 
	 "gaussian": { 
		 "optdone": 1, 
		 "sigma_profile": "yes", 
		 "theory": "DFT", 
		 "functional": "B3LYP", 
		 "basiset": "6-31G**", 
		 "properties": { 
			 "R2extent": 4387.2568, 
			 "electric_dipole_moment_norm": 2.88541839081, 
			 "electric_quadrupole_moment_norm": 11.6307609579, 
			 "total_energy": -636.758339082, 
			 "HOMO_LUMO_gap": 0.18303, 
			 "cosmo_polarized_energy": -8.65, 
			 "cosmo_cavitation_energy": 25.42, 
			 "cosmo_dispersion_energy": -19.09, 
			 "cosmo_repulsion_energy": 1.47, 
			 "cosmo_total_nonelectrostatic_energy": 7.8, 
			 "SMD_solvation_energy": 5.23 
		},
		"coords": [
			{
				"x": 3.4603674453,
				"y": 1.7628798614,
				"z": -4.1243858577,
				"element": "F" 
			},
			{
				"x": 2.6362260735,
				"y": 1.6412959223,
				"z": -3.0680797909,
				"element": "C" 
			},
			{
				"x": 2.9556087865,
				"y": 2.2953818574,
				"z": -1.8964158828,
				"element": "C" 
			},
			{
				"x": 2.1116427127,
				"y": 2.1885470079,
				"z": -0.7755675823,
				"element": "C" 
			},
			{
				"x": 0.9213431894,
				"y": 1.4194579869,
				"z": -0.8561950413,
				"element": "C" 
			},
			{
				"x": 0.6712738579,
				"y": 0.7507943,
				"z": -2.0804879099,
				"element": "C" 
			},
			{
				"x": 1.4936156958,
				"y": 0.8485717073,
				"z": -3.1860368918,
				"element": "C" 
			},
			{
				"x": -0.1534948243,
				"y": 1.2022000189,
				"z": 0.1717825511,
				"element": "C" 
			},
			{
				"x": -0.9589060172,
				"y": 0.2932475526,
				"z": 0.0128982284,
				"element": "O" 
			},
			{
				"x": -0.3748359871,
				"y": 2.0955613067,
				"z": 1.3935278429,
				"element": "C" 
			},
			{
				"x": 0.6267562227,
				"y": 3.2042181014,
				"z": 1.7018013852,
				"element": "C" 
			},
			{
				"x": 2.0691513868,
				"y": 2.7237659167,
				"z": 1.6036474535,
				"element": "C" 
			},
			{
				"x": 2.6050233889,
				"y": 2.8715106027,
				"z": 0.2894324862,
				"element": "O" 
			},
			{
				"x": 3.8630557501,
				"y": 2.8815078748,
				"z": -1.8175334094,
				"element": "H" 
			},
			{
				"x": -0.2286939792,
				"y": 0.1482692557,
				"z": -2.1202211702,
				"element": "H" 
			},
			{
				"x": 1.2724238609,
				"y": 0.3417437885,
				"z": -4.118080302,
				"element": "H" 
			},
			{
				"x": -1.3843739614,
				"y": 2.5063584448,
				"z": 1.2746998761,
				"element": "H" 
			},
			{
				"x": -0.4439887891,
				"y": 1.4060755767,
				"z": 2.2435974166,
				"element": "H" 
			},
			{
				"x": 0.5080816256,
				"y": 4.0612992997,
				"z": 1.028999986,
				"element": "H" 
			},
			{
				"x": 0.437584059,
				"y": 3.5768202126,
				"z": 2.7150198194,
				"element": "H" 
			},
			{
				"x": 2.735467256,
				"y": 3.3282998111,
				"z": 2.2233070385,
				"element": "H" 
			},
			{
				"x": 2.1616722471,
				"y": 1.6756935938,
				"z": 1.9256897545,
				"element": "H" 
			}
		],
		 "valence_orbital": [ 
			{
				"type": "occ",
				"energy": -0.33385,
				"method": "rhf"
			},
			{
				"type": "occ",
				"energy": -0.3181,
				"method": "rhf"
			},
			{
				"type": "occ",
				"energy": -0.25507,
				"method": "rhf"
			},
			{
				"type": "occ",
				"energy": -0.24706,
				"method": "rhf"
			},
			{
				"type": "occ",
				"energy": -0.23502,
				"method": "rhf"
			},
			{
				"type": "unocc",
				"energy": -0.05199,
				"method": "rhf"
			},
			{
				"type": "unocc",
				"energy": -0.00722,
				"method": "rhf"
			},
			{
				"type": "unocc",
				"energy": 0.03855,
				"method": "rhf"
			},
			{
				"type": "unocc",
				"energy": 0.08228,
				"method": "rhf"
			},
			{
				"type": "unocc",
				"energy": 0.09027,
				"method": "rhf"
			}
		],
		"cosmo_sigma_profile": { 
			"-0.025": 0.0,
			"-0.024": 0.0,
			"-0.023": 0.0,
			"-0.022": 0.0,
			"-0.021": 0.0,
			"-0.02": 0.0,
			"-0.019": 0.0,
			"-0.018": 0.0,
			"-0.017": 0.0,
			"-0.016": 0.0,
			"-0.015": 0.0,
			"-0.014": 0.0,
			"-0.013": 0.0,
			"-0.012": 0.0,
			"-0.011": 0.0,
			"-0.01": 0.0,
			"-0.009": 0.0,
			"-0.008": 0.686839768425,
			"-0.007": 4.10494231323,
			"-0.006": 11.3044644083,
			"-0.005": 20.5850947434,
			"-0.004": 21.8465177317,
			"-0.003": 15.2521670701,
			"-0.002": 14.6778341148,
			"-0.001": 11.5701786529,
			"0.0": 13.9884420203,
			"0.001": 15.6567303007,
			"0.002": 18.3392166897,
			"0.003": 15.6483408728,
			"0.004": 12.9713001041,
			"0.005": 4.11017905554,
			"0.006": 2.7502095783,
			"0.007": 2.63003327216,
			"0.008": 2.83261568169,
			"0.009": 2.46753268447,
			"0.01": 1.58373522989,
			"0.011": 2.78882733087,
			"0.012": 3.79181331327,
			"0.013": 2.22357239725,
			"0.014": 0.425232679109,
			"0.015": 0.0,
			"0.016": 0.0,
			"0.017": 0.0,
			"0.018": 0.0,
			"0.019": 0.0,
			"0.02": 0.0,
			"0.021": 0.0,
			"0.022": 0.0,
			"0.023": 0.0,
			"0.024": 0.0,
			"0.025": 0.0
		}
	}
}
