{
	 "smiles": "OC(=O)CCSCSCCC(O)=O", 
	 "Tm": 412.15, 
	 "num_atms": 25, 
	 "gaussian": { 
		 "optdone": 1, 
		 "sigma_profile": "yes", 
		 "theory": "DFT", 
		 "functional": "B3LYP", 
		 "basiset": "6-31G**", 
		 "properties": { 
			 "R2extent": 4562.8072, 
			 "electric_dipole_moment_norm": 2.43421770801, 
			 "electric_quadrupole_moment_norm": 15.5061511962, 
			 "total_energy": -1371.27718849, 
			 "HOMO_LUMO_gap": 0.22066, 
			 "cosmo_polarized_energy": -18.29, 
			 "cosmo_cavitation_energy": 31.93, 
			 "cosmo_dispersion_energy": -22.6, 
			 "cosmo_repulsion_energy": 1.76, 
			 "cosmo_total_nonelectrostatic_energy": 11.08, 
			 "SMD_solvation_energy": 6.63 
		},
		"coords": [
			{
				"x": -2.5113277703,
				"y": -1.9316066798,
				"z": -1.4881462651,
				"element": "O" 
			},
			{
				"x": -1.9826960668,
				"y": -0.761504448,
				"z": -1.056304864,
				"element": "C" 
			},
			{
				"x": -2.4624931067,
				"y": 0.3148201919,
				"z": -1.3420822063,
				"element": "O" 
			},
			{
				"x": -0.7628588462,
				"y": -0.977545259,
				"z": -0.1896318444,
				"element": "C" 
			},
			{
				"x": -1.0909079518,
				"y": -1.6207508479,
				"z": 1.168971669,
				"element": "C" 
			},
			{
				"x": -2.4715991211,
				"y": -0.8545234818,
				"z": 2.1114832609,
				"element": "S" 
			},
			{
				"x": -2.0222920973,
				"y": 0.9114342229,
				"z": 2.1036506989,
				"element": "C" 
			},
			{
				"x": -0.4687949939,
				"y": 1.2684222503,
				"z": 3.0263123856,
				"element": "S" 
			},
			{
				"x": 0.1071678994,
				"y": 2.7843510881,
				"z": 2.1502119146,
				"element": "C" 
			},
			{
				"x": 1.6308328021,
				"y": 2.8793358186,
				"z": 2.1988382141,
				"element": "C" 
			},
			{
				"x": 2.3112465242,
				"y": 1.9091465612,
				"z": 1.2533593402,
				"element": "C" 
			},
			{
				"x": 3.6077780941,
				"y": 1.7218873507,
				"z": 1.586046101,
				"element": "O" 
			},
			{
				"x": 1.8033118193,
				"y": 1.3839832486,
				"z": 0.2856782751,
				"element": "O" 
			},
			{
				"x": -3.3075363178,
				"y": -1.6980847016,
				"z": -1.9944875753,
				"element": "H" 
			},
			{
				"x": -0.2624722909,
				"y": -0.0171912685,
				"z": -0.0578267267,
				"element": "H" 
			},
			{
				"x": -0.0680889747,
				"y": -1.6425970319,
				"z": -0.7162887626,
				"element": "H" 
			},
			{
				"x": -1.4205965485,
				"y": -2.6546225672,
				"z": 1.0346867467,
				"element": "H" 
			},
			{
				"x": -0.1917979314,
				"y": -1.6228002282,
				"z": 1.7891623865,
				"element": "H" 
			},
			{
				"x": -1.9275663494,
				"y": 1.2716007163,
				"z": 1.076172714,
				"element": "H" 
			},
			{
				"x": -2.8713546016,
				"y": 1.414777606,
				"z": 2.5718839288,
				"element": "H" 
			},
			{
				"x": -0.2181353701,
				"y": 2.7246957657,
				"z": 1.1083574486,
				"element": "H" 
			},
			{
				"x": -0.3396196881,
				"y": 3.6698087836,
				"z": 2.6093159211,
				"element": "H" 
			},
			{
				"x": 2.0242664957,
				"y": 2.7320878082,
				"z": 3.2093903855,
				"element": "H" 
			},
			{
				"x": 1.946789497,
				"y": 3.8872596268,
				"z": 1.8959952592,
				"element": "H" 
			},
			{
				"x": 3.9796448951,
				"y": 1.125515475,
				"z": 0.9142515945,
				"element": "H" 
			}
		],
		 "valence_orbital": [ 
			{
				"type": "occ",
				"energy": -0.30844,
				"method": "rhf"
			},
			{
				"type": "occ",
				"energy": -0.28758,
				"method": "rhf"
			},
			{
				"type": "occ",
				"energy": -0.27144,
				"method": "rhf"
			},
			{
				"type": "occ",
				"energy": -0.23148,
				"method": "rhf"
			},
			{
				"type": "occ",
				"energy": -0.2225,
				"method": "rhf"
			},
			{
				"type": "unocc",
				"energy": -0.00184,
				"method": "rhf"
			},
			{
				"type": "unocc",
				"energy": 0.00743,
				"method": "rhf"
			},
			{
				"type": "unocc",
				"energy": 0.02407,
				"method": "rhf"
			},
			{
				"type": "unocc",
				"energy": 0.04,
				"method": "rhf"
			},
			{
				"type": "unocc",
				"energy": 0.06729,
				"method": "rhf"
			}
		],
		"cosmo_sigma_profile": { 
			"-0.025": 0.0,
			"-0.024": 0.0,
			"-0.023": 0.0,
			"-0.022": 0.0,
			"-0.021": 0.0,
			"-0.02": 0.0,
			"-0.019": 0.0993216876387,
			"-0.018": 1.41647809786,
			"-0.017": 1.91827879036,
			"-0.016": 1.56174221177,
			"-0.015": 1.85358584709,
			"-0.014": 1.91628295172,
			"-0.013": 0.676039456157,
			"-0.012": 0.795340050783,
			"-0.011": 1.94832778015,
			"-0.01": 1.81999221103,
			"-0.009": 1.08065594074,
			"-0.008": 2.54523775454,
			"-0.007": 9.12046773615,
			"-0.006": 16.9305890479,
			"-0.005": 20.3435948216,
			"-0.004": 20.7513900763,
			"-0.003": 17.8678429629,
			"-0.002": 12.8957090969,
			"-0.001": 11.5827251958,
			"0.0": 10.8732614413,
			"0.001": 8.02862101783,
			"0.002": 12.108936306,
			"0.003": 11.1845609318,
			"0.004": 13.0725483323,
			"0.005": 14.2904830979,
			"0.006": 14.3795378429,
			"0.007": 9.79509722126,
			"0.008": 9.43581770513,
			"0.009": 8.00738643697,
			"0.01": 6.29349168766,
			"0.011": 5.38417874324,
			"0.012": 4.22751244356,
			"0.013": 0.0640087688023,
			"0.014": 0.0,
			"0.015": 0.0,
			"0.016": 0.0,
			"0.017": 0.0,
			"0.018": 0.0,
			"0.019": 0.0,
			"0.02": 0.0,
			"0.021": 0.0,
			"0.022": 0.0,
			"0.023": 0.0,
			"0.024": 0.0,
			"0.025": 0.0
		}
	}
}
