{
	 "smiles": "CC1=NN(CN(CN2N=C(C)C=C2C)C2=CC=C(C=C2)N(CN2N=C(C)C=C2C)CN2N=C(C)C=C2C)C(C)=C1", 
	 "Tm": 448.15, 
	 "num_atms": 80, 
	 "gaussian": { 
		 "optdone": 1, 
		 "sigma_profile": "yes", 
		 "theory": "DFT", 
		 "functional": "B3LYP", 
		 "basiset": "6-31G**", 
		 "properties": { 
			 "R2extent": 25635.3847, 
			 "electric_dipole_moment_norm": 6.26869475808, 
			 "electric_quadrupole_moment_norm": 19.2965044907, 
			 "total_energy": -1714.76741713, 
			 "HOMO_LUMO_gap": 0.19521, 
			 "cosmo_polarized_energy": -28.03, 
			 "cosmo_cavitation_energy": 80.97, 
			 "cosmo_dispersion_energy": -48.61, 
			 "cosmo_repulsion_energy": 3.73, 
			 "cosmo_total_nonelectrostatic_energy": 36.08, 
			 "SMD_solvation_energy": 10.94 
		},
		"coords": [
			{
				"x": -3.9474337744,
				"y": 1.5583714633,
				"z": 6.8521364248,
				"element": "C" 
			},
			{
				"x": -3.537164581,
				"y": 1.5654294244,
				"z": 5.4104062934,
				"element": "C" 
			},
			{
				"x": -3.0593878231,
				"y": 0.4607405283,
				"z": 4.840892121,
				"element": "N" 
			},
			{
				"x": -2.7888766864,
				"y": 0.8167014475,
				"z": 3.5511401243,
				"element": "N" 
			},
			{
				"x": -2.2850636238,
				"y": -0.196666919,
				"z": 2.6452745945,
				"element": "C" 
			},
			{
				"x": -0.9702595257,
				"y": 0.1498189703,
				"z": 2.1158878679,
				"element": "N" 
			},
			{
				"x": 0.06897276,
				"y": 0.2642904822,
				"z": 3.1412177677,
				"element": "C" 
			},
			{
				"x": 1.1251604203,
				"y": 1.1860590671,
				"z": 2.7721217835,
				"element": "N" 
			},
			{
				"x": 0.8420941559,
				"y": 2.5144293698,
				"z": 2.6970045643,
				"element": "N" 
			},
			{
				"x": 1.9791421129,
				"y": 3.0933385691,
				"z": 2.314482007,
				"element": "C" 
			},
			{
				"x": 2.0524479096,
				"y": 4.5796523201,
				"z": 2.1352380266,
				"element": "C" 
			},
			{
				"x": 3.0040481766,
				"y": 2.1292608492,
				"z": 2.1415657179,
				"element": "C" 
			},
			{
				"x": 2.4251199448,
				"y": 0.9097734928,
				"z": 2.4389707414,
				"element": "C" 
			},
			{
				"x": 3.0109048165,
				"y": -0.4678062189,
				"z": 2.4123867452,
				"element": "C" 
			},
			{
				"x": -0.5837424393,
				"y": -0.5173108139,
				"z": 0.9114764111,
				"element": "C" 
			},
			{
				"x": -0.9515004469,
				"y": -1.8414471268,
				"z": 0.6279526516,
				"element": "C" 
			},
			{
				"x": -0.5578889931,
				"y": -2.4506826812,
				"z": -0.559896049,
				"element": "C" 
			},
			{
				"x": 0.2656875744,
				"y": -1.7816309351,
				"z": -1.4789640903,
				"element": "C" 
			},
			{
				"x": 0.621193813,
				"y": -0.4523710697,
				"z": -1.2038296744,
				"element": "C" 
			},
			{
				"x": 0.1870948961,
				"y": 0.1701028644,
				"z": -0.0352107366,
				"element": "C" 
			},
			{
				"x": 0.6596398351,
				"y": -2.4533520549,
				"z": -2.676317455,
				"element": "N" 
			},
			{
				"x": 1.1732350442,
				"y": -1.6651023071,
				"z": -3.7883687495,
				"element": "C" 
			},
			{
				"x": 0.2044157625,
				"y": -0.7273849939,
				"z": -4.3196803198,
				"element": "N" 
			},
			{
				"x": 0.5144700914,
				"y": 0.5988950152,
				"z": -4.3292091506,
				"element": "N" 
			},
			{
				"x": -0.5196874508,
				"y": 1.1953683822,
				"z": -4.9172697427,
				"element": "C" 
			},
			{
				"x": -0.5377992335,
				"y": 2.6831021649,
				"z": -5.0966984485,
				"element": "C" 
			},
			{
				"x": -1.5011423846,
				"y": 0.2447294975,
				"z": -5.2979744394,
				"element": "C" 
			},
			{
				"x": -1.006745965,
				"y": -0.9840347532,
				"z": -4.9047725909,
				"element": "C" 
			},
			{
				"x": -1.579158656,
				"y": -2.3583092819,
				"z": -5.0446513117,
				"element": "C" 
			},
			{
				"x": 1.280586071,
				"y": -3.7605378803,
				"z": -2.5520893305,
				"element": "C" 
			},
			{
				"x": 2.7277466125,
				"y": -3.7544493455,
				"z": -2.3304303846,
				"element": "N" 
			},
			{
				"x": 3.2034461406,
				"y": -3.321458805,
				"z": -1.1317086762,
				"element": "N" 
			},
			{
				"x": 4.5276610284,
				"y": -3.4266152732,
				"z": -1.2210476541,
				"element": "C" 
			},
			{
				"x": 5.4042982684,
				"y": -3.0353330164,
				"z": -0.0703847147,
				"element": "C" 
			},
			{
				"x": 4.9107389758,
				"y": -3.9385512451,
				"z": -2.4865427189,
				"element": "C" 
			},
			{
				"x": 3.7335533217,
				"y": -4.1422981856,
				"z": -3.1802075586,
				"element": "C" 
			},
			{
				"x": 3.5143546038,
				"y": -4.6933472561,
				"z": -4.5557019765,
				"element": "C" 
			},
			{
				"x": -3.0847355718,
				"y": 2.1292459816,
				"z": 3.2960566361,
				"element": "C" 
			},
			{
				"x": -2.8314617065,
				"y": 2.7888098692,
				"z": 1.9788695413,
				"element": "C" 
			},
			{
				"x": -3.5751276442,
				"y": 2.637971752,
				"z": 4.4841303426,
				"element": "C" 
			},
			{
				"x": -3.7881739901,
				"y": 0.5653699476,
				"z": 7.2789130726,
				"element": "H" 
			},
			{
				"x": -5.0058080526,
				"y": 1.8181330421,
				"z": 6.9694077891,
				"element": "H" 
			},
			{
				"x": -3.3689293715,
				"y": 2.2822973211,
				"z": 7.4374176219,
				"element": "H" 
			},
			{
				"x": -2.9547825362,
				"y": -0.3097886499,
				"z": 1.7864446057,
				"element": "H" 
			},
			{
				"x": -2.3178311875,
				"y": -1.125244006,
				"z": 3.2331750285,
				"element": "H" 
			},
			{
				"x": -0.4077464525,
				"y": 0.6338476796,
				"z": 4.0509634648,
				"element": "H" 
			},
			{
				"x": 0.5438948267,
				"y": -0.7016493021,
				"z": 3.361469931,
				"element": "H" 
			},
			{
				"x": 2.7886886686,
				"y": 5.02863456,
				"z": 2.8117030352,
				"element": "H" 
			},
			{
				"x": 2.3450777933,
				"y": 4.8468179215,
				"z": 1.1134574032,
				"element": "H" 
			},
			{
				"x": 1.0778849835,
				"y": 5.0270357266,
				"z": 2.3434383877,
				"element": "H" 
			},
			{
				"x": 4.029303548,
				"y": 2.2967922771,
				"z": 1.8433376709,
				"element": "H" 
			},
			{
				"x": 2.9060069414,
				"y": -0.9816654655,
				"z": 3.3748213984,
				"element": "H" 
			},
			{
				"x": 4.0782693227,
				"y": -0.3997023287,
				"z": 2.189576816,
				"element": "H" 
			},
			{
				"x": 2.548302144,
				"y": -1.095655427,
				"z": 1.642638474,
				"element": "H" 
			},
			{
				"x": -1.5584384542,
				"y": -2.4048889952,
				"z": 1.3304084676,
				"element": "H" 
			},
			{
				"x": -0.8958620799,
				"y": -3.4610147466,
				"z": -0.7700392342,
				"element": "H" 
			},
			{
				"x": 1.2014292834,
				"y": 0.1251808672,
				"z": -1.9127068441,
				"element": "H" 
			},
			{
				"x": 0.4432208222,
				"y": 1.2073548945,
				"z": 0.1505263627,
				"element": "H" 
			},
			{
				"x": 1.4614898104,
				"y": -2.3758192914,
				"z": -4.5712804855,
				"element": "H" 
			},
			{
				"x": 2.0572602153,
				"y": -1.0651144775,
				"z": -3.5435250262,
				"element": "H" 
			},
			{
				"x": 0.3863284789,
				"y": 3.1154487708,
				"z": -4.7065941196,
				"element": "H" 
			},
			{
				"x": -1.3816206644,
				"y": 3.1395541391,
				"z": -4.5670417513,
				"element": "H" 
			},
			{
				"x": -0.6293524966,
				"y": 2.9583420185,
				"z": -6.1534688835,
				"element": "H" 
			},
			{
				"x": -2.445018862,
				"y": 0.4284721682,
				"z": -5.7917167929,
				"element": "H" 
			},
			{
				"x": -2.5256077496,
				"y": -2.3100853134,
				"z": -5.5877584553,
				"element": "H" 
			},
			{
				"x": -1.759747474,
				"y": -2.8207157206,
				"z": -4.069329851,
				"element": "H" 
			},
			{
				"x": -0.9098622542,
				"y": -3.0244759329,
				"z": -5.603818722,
				"element": "H" 
			},
			{
				"x": 0.8235623819,
				"y": -4.2878256186,
				"z": -1.7163327962,
				"element": "H" 
			},
			{
				"x": 1.1045406673,
				"y": -4.3337697173,
				"z": -3.4663365035,
				"element": "H" 
			},
			{
				"x": 6.0725101664,
				"y": -2.2090750593,
				"z": -0.3388398665,
				"element": "H" 
			},
			{
				"x": 4.788821186,
				"y": -2.7192502156,
				"z": 0.774626832,
				"element": "H" 
			},
			{
				"x": 6.0346199049,
				"y": -3.8707418234,
				"z": 0.2543409417,
				"element": "H" 
			},
			{
				"x": 5.9101135682,
				"y": -4.1405514502,
				"z": -2.8453314633,
				"element": "H" 
			},
			{
				"x": 4.4767639771,
				"y": -4.9761535893,
				"z": -4.9877347123,
				"element": "H" 
			},
			{
				"x": 2.8811102509,
				"y": -5.5882600077,
				"z": -4.5493180412,
				"element": "H" 
			},
			{
				"x": 3.0528379957,
				"y": -3.9668895807,
				"z": -5.2350138291,
				"element": "H" 
			},
			{
				"x": -3.3158486648,
				"y": 3.76818764,
				"z": 1.9586891593,
				"element": "H" 
			},
			{
				"x": -1.7561063304,
				"y": 2.9200520406,
				"z": 1.8201644638,
				"element": "H" 
			},
			{
				"x": -3.2229267087,
				"y": 2.2001123659,
				"z": 1.1415030231,
				"element": "H" 
			},
			{
				"x": -3.9054094368,
				"y": 3.6524019901,
				"z": 4.658308839,
				"element": "H" 
			}
		],
		 "valence_orbital": [ 
			{
				"type": "occ",
				"energy": -0.22779,
				"method": "rhf"
			},
			{
				"type": "occ",
				"energy": -0.2227,
				"method": "rhf"
			},
			{
				"type": "occ",
				"energy": -0.22143,
				"method": "rhf"
			},
			{
				"type": "occ",
				"energy": -0.21667,
				"method": "rhf"
			},
			{
				"type": "occ",
				"energy": -0.19807,
				"method": "rhf"
			},
			{
				"type": "unocc",
				"energy": -0.00286,
				"method": "rhf"
			},
			{
				"type": "unocc",
				"energy": 0.00475,
				"method": "rhf"
			},
			{
				"type": "unocc",
				"energy": 0.01773,
				"method": "rhf"
			},
			{
				"type": "unocc",
				"energy": 0.025,
				"method": "rhf"
			},
			{
				"type": "unocc",
				"energy": 0.02954,
				"method": "rhf"
			}
		],
		"cosmo_sigma_profile": { 
			"-0.025": 0.0,
			"-0.024": 0.0,
			"-0.023": 0.0,
			"-0.022": 0.0,
			"-0.021": 0.0,
			"-0.02": 0.0,
			"-0.019": 0.0,
			"-0.018": 0.0,
			"-0.017": 0.0,
			"-0.016": 0.0,
			"-0.015": 0.0,
			"-0.014": 0.0,
			"-0.013": 0.0,
			"-0.012": 0.0,
			"-0.011": 0.0075483642541,
			"-0.01": 0.324991160334,
			"-0.009": 0.809730853934,
			"-0.008": 4.12131240772,
			"-0.007": 10.9269093756,
			"-0.006": 26.8131219447,
			"-0.005": 40.7772828513,
			"-0.004": 58.0020027903,
			"-0.003": 57.9808477826,
			"-0.002": 65.0584028879,
			"-0.001": 71.1847979699,
			"0.0": 66.3413127527,
			"0.001": 42.012581367,
			"0.002": 30.2892838268,
			"0.003": 29.2646201475,
			"0.004": 26.9453855916,
			"0.005": 32.7652091022,
			"0.006": 27.7187961526,
			"0.007": 12.5004727647,
			"0.008": 7.12691869368,
			"0.009": 6.95168108676,
			"0.01": 5.57617472916,
			"0.011": 4.37275956761,
			"0.012": 3.4013005705,
			"0.013": 3.46977128117,
			"0.014": 2.12174484153,
			"0.015": 1.14603130993,
			"0.016": 0.829944454268,
			"0.017": 0.075444134742,
			"0.018": 0.0,
			"0.019": 0.0,
			"0.02": 0.0,
			"0.021": 0.0,
			"0.022": 0.0,
			"0.023": 0.0,
			"0.024": 0.0,
			"0.025": 0.0
		}
	}
}
