{
	 "smiles": "FC1=CC(=CC=C1)C1CNC(=O)C1", 
	 "Tm": 351.15, 
	 "num_atms": 23, 
	 "gaussian": { 
		 "optdone": 1, 
		 "sigma_profile": "yes", 
		 "theory": "DFT", 
		 "functional": "B3LYP", 
		 "basiset": "6-31G**", 
		 "properties": { 
			 "R2extent": 2888.5708, 
			 "electric_dipole_moment_norm": 3.05720474944, 
			 "electric_quadrupole_moment_norm": 19.6825702587, 
			 "total_energy": -616.918072124, 
			 "HOMO_LUMO_gap": 0.22834, 
			 "cosmo_polarized_energy": -12.88, 
			 "cosmo_cavitation_energy": 26.69, 
			 "cosmo_dispersion_energy": -19.41, 
			 "cosmo_repulsion_energy": 1.53, 
			 "cosmo_total_nonelectrostatic_energy": 8.82, 
			 "SMD_solvation_energy": 5.08 
		},
		"coords": [
			{
				"x": -4.404680854,
				"y": 0.3631870284,
				"z": -1.0094947999,
				"element": "F" 
			},
			{
				"x": -3.0545630079,
				"y": 0.3476813792,
				"z": -1.0249186902,
				"element": "C" 
			},
			{
				"x": -2.3816672749,
				"y": -0.1440600874,
				"z": 0.0883797121,
				"element": "C" 
			},
			{
				"x": -0.9821385945,
				"y": -0.1680850974,
				"z": 0.0966152468,
				"element": "C" 
			},
			{
				"x": -0.2927849817,
				"y": 0.3105688284,
				"z": -1.0297279685,
				"element": "C" 
			},
			{
				"x": -0.9906552398,
				"y": 0.800098459,
				"z": -2.13394447,
				"element": "C" 
			},
			{
				"x": -2.386705809,
				"y": 0.8242395655,
				"z": -2.1451949322,
				"element": "C" 
			},
			{
				"x": -0.2498584096,
				"y": -0.7246638784,
				"z": 1.3066665887,
				"element": "C" 
			},
			{
				"x": 0.8707428242,
				"y": 0.2238639417,
				"z": 1.8384378126,
				"element": "C" 
			},
			{
				"x": 2.0864050912,
				"y": -0.340756577,
				"z": 1.2754869841,
				"element": "N" 
			},
			{
				"x": 1.9862504204,
				"y": -1.6469896359,
				"z": 0.8628203173,
				"element": "C" 
			},
			{
				"x": 2.9047700973,
				"y": -2.3469758846,
				"z": 0.4765285366,
				"element": "O" 
			},
			{
				"x": 0.513490844,
				"y": -2.0413162603,
				"z": 1.0009939074,
				"element": "C" 
			},
			{
				"x": -2.9577162494,
				"y": -0.5017953358,
				"z": 0.9362056582,
				"element": "H" 
			},
			{
				"x": 0.7926499502,
				"y": 0.3010854328,
				"z": -1.0423233449,
				"element": "H" 
			},
			{
				"x": -0.4433072528,
				"y": 1.1665827636,
				"z": -2.997396766,
				"element": "H" 
			},
			{
				"x": -2.950877451,
				"y": 1.1999318572,
				"z": -2.9916199619,
				"element": "H" 
			},
			{
				"x": -0.9861658246,
				"y": -0.8853635641,
				"z": 2.0982839074,
				"element": "H" 
			},
			{
				"x": 0.7174719545,
				"y": 1.255637802,
				"z": 1.5075838748,
				"element": "H" 
			},
			{
				"x": 0.8949411274,
				"y": 0.2204439922,
				"z": 2.9377042476,
				"element": "H" 
			},
			{
				"x": 2.9991099933,
				"y": 0.0732019248,
				"z": 1.4021089461,
				"element": "H" 
			},
			{
				"x": 0.1683767789,
				"y": -2.5471801648,
				"z": 0.0971738617,
				"element": "H" 
			},
			{
				"x": 0.4365118678,
				"y": -2.7572364891,
				"z": 1.8273313324,
				"element": "H" 
			}
		],
		 "valence_orbital": [ 
			{
				"type": "occ",
				"energy": -0.33162,
				"method": "rhf"
			},
			{
				"type": "occ",
				"energy": -0.26379,
				"method": "rhf"
			},
			{
				"type": "occ",
				"energy": -0.25461,
				"method": "rhf"
			},
			{
				"type": "occ",
				"energy": -0.24489,
				"method": "rhf"
			},
			{
				"type": "occ",
				"energy": -0.24209,
				"method": "rhf"
			},
			{
				"type": "unocc",
				"energy": -0.01375,
				"method": "rhf"
			},
			{
				"type": "unocc",
				"energy": -0.00569,
				"method": "rhf"
			},
			{
				"type": "unocc",
				"energy": 0.03079,
				"method": "rhf"
			},
			{
				"type": "unocc",
				"energy": 0.07246,
				"method": "rhf"
			},
			{
				"type": "unocc",
				"energy": 0.08863,
				"method": "rhf"
			}
		],
		"cosmo_sigma_profile": { 
			"-0.025": 0.0,
			"-0.024": 0.0,
			"-0.023": 0.0,
			"-0.022": 0.0,
			"-0.021": 0.0,
			"-0.02": 0.0,
			"-0.019": 0.0,
			"-0.018": 0.0,
			"-0.017": 0.0,
			"-0.016": 0.0,
			"-0.015": 0.0480088565562,
			"-0.014": 0.956863081864,
			"-0.013": 1.30119652699,
			"-0.012": 1.17877370728,
			"-0.011": 0.693693880504,
			"-0.01": 1.09259567671,
			"-0.009": 0.86784733337,
			"-0.008": 1.05757590583,
			"-0.007": 3.93450717019,
			"-0.006": 10.1505904137,
			"-0.005": 20.2150524926,
			"-0.004": 23.1906781981,
			"-0.003": 16.9420622617,
			"-0.002": 16.7217290354,
			"-0.001": 13.5812947,
			"0.0": 10.8446659568,
			"0.001": 13.6237323701,
			"0.002": 12.9036959575,
			"0.003": 11.8985250084,
			"0.004": 17.6447434797,
			"0.005": 11.2655446018,
			"0.006": 1.5917029993,
			"0.007": 0.713415261743,
			"0.008": 1.26486640651,
			"0.009": 1.78221245209,
			"0.01": 1.15400246705,
			"0.011": 0.733457047572,
			"0.012": 2.13483280118,
			"0.013": 3.78382324145,
			"0.014": 6.23699234043,
			"0.015": 2.22541698249,
			"0.016": 0.0317447270954,
			"0.017": 0.0,
			"0.018": 0.0,
			"0.019": 0.0,
			"0.02": 0.0,
			"0.021": 0.0,
			"0.022": 0.0,
			"0.023": 0.0,
			"0.024": 0.0,
			"0.025": 0.0
		}
	}
}
