{
	 "smiles": "O=CC1=CSC(=N1)C1=NC=CC=C1", 
	 "Tm": 404.15, 
	 "num_atms": 19, 
	 "gaussian": { 
		 "optdone": 1, 
		 "sigma_profile": "yes", 
		 "theory": "DFT", 
		 "functional": "B3LYP", 
		 "basiset": "6-31G**", 
		 "properties": { 
			 "R2extent": 3364.1202, 
			 "electric_dipole_moment_norm": 3.36278555516, 
			 "electric_quadrupole_moment_norm": 20.6066695572, 
			 "total_energy": -929.467402073, 
			 "HOMO_LUMO_gap": 0.17163, 
			 "cosmo_polarized_energy": -13.43, 
			 "cosmo_cavitation_energy": 26.35, 
			 "cosmo_dispersion_energy": -19.86, 
			 "cosmo_repulsion_energy": 1.52, 
			 "cosmo_total_nonelectrostatic_energy": 8.01, 
			 "SMD_solvation_energy": 3.25 
		},
		"coords": [
			{
				"x": -1.109030883,
				"y": 3.2975162586,
				"z": -2.2783006041,
				"element": "O" 
			},
			{
				"x": -1.8495172637,
				"y": 3.1194620567,
				"z": -1.3336298217,
				"element": "C" 
			},
			{
				"x": -1.6033962085,
				"y": 2.1693295563,
				"z": -0.2305058174,
				"element": "C" 
			},
			{
				"x": -2.4740530192,
				"y": 2.0004083117,
				"z": 0.8236282171,
				"element": "C" 
			},
			{
				"x": -1.8797119626,
				"y": 0.8189577177,
				"z": 1.9245376587,
				"element": "S" 
			},
			{
				"x": -0.4689545856,
				"y": 0.627981448,
				"z": 0.8693719703,
				"element": "C" 
			},
			{
				"x": -0.4734504238,
				"y": 1.384290445,
				"z": -0.1883876884,
				"element": "N" 
			},
			{
				"x": 0.5862833709,
				"y": -0.3301178439,
				"z": 1.2246175768,
				"element": "C" 
			},
			{
				"x": 0.3991637787,
				"y": -1.0165853831,
				"z": 2.3639512095,
				"element": "N" 
			},
			{
				"x": 1.3369114635,
				"y": -1.8972432431,
				"z": 2.72069962,
				"element": "C" 
			},
			{
				"x": 2.4918148593,
				"y": -2.1354641716,
				"z": 1.9717582255,
				"element": "C" 
			},
			{
				"x": 2.6762718149,
				"y": -1.4167238566,
				"z": 0.7896127164,
				"element": "C" 
			},
			{
				"x": 1.7092137458,
				"y": -0.494264659,
				"z": 0.4016592205,
				"element": "C" 
			},
			{
				"x": -2.8037457069,
				"y": 3.6827793363,
				"z": -1.2292115502,
				"element": "H" 
			},
			{
				"x": -3.4137781527,
				"y": 2.509866014,
				"z": 0.9900530601,
				"element": "H" 
			},
			{
				"x": 1.1578608367,
				"y": -2.4379673421,
				"z": 3.6478344966,
				"element": "H" 
			},
			{
				"x": 3.2220200407,
				"y": -2.863728899,
				"z": 2.3092597667,
				"element": "H" 
			},
			{
				"x": 3.5606975086,
				"y": -1.5727079425,
				"z": 0.178977478,
				"element": "H" 
			},
			{
				"x": 1.7966007868,
				"y": 0.0932121966,
				"z": -0.5051257345,
				"element": "H" 
			}
		],
		 "valence_orbital": [ 
			{
				"type": "occ",
				"energy": -0.29047,
				"method": "rhf"
			},
			{
				"type": "occ",
				"energy": -0.28602,
				"method": "rhf"
			},
			{
				"type": "occ",
				"energy": -0.27498,
				"method": "rhf"
			},
			{
				"type": "occ",
				"energy": -0.25346,
				"method": "rhf"
			},
			{
				"type": "occ",
				"energy": -0.24393,
				"method": "rhf"
			},
			{
				"type": "unocc",
				"energy": -0.0723,
				"method": "rhf"
			},
			{
				"type": "unocc",
				"energy": -0.0542,
				"method": "rhf"
			},
			{
				"type": "unocc",
				"energy": -0.03295,
				"method": "rhf"
			},
			{
				"type": "unocc",
				"energy": 0.01751,
				"method": "rhf"
			},
			{
				"type": "unocc",
				"energy": 0.02437,
				"method": "rhf"
			}
		],
		"cosmo_sigma_profile": { 
			"-0.025": 0.0,
			"-0.024": 0.0,
			"-0.023": 0.0,
			"-0.022": 0.0,
			"-0.021": 0.0,
			"-0.02": 0.0,
			"-0.019": 0.0,
			"-0.018": 0.0,
			"-0.017": 0.0,
			"-0.016": 0.0,
			"-0.015": 0.0,
			"-0.014": 0.0,
			"-0.013": 0.0,
			"-0.012": 0.0,
			"-0.011": 1.0383073985,
			"-0.01": 2.87369261701,
			"-0.009": 3.12125224109,
			"-0.008": 4.77424695416,
			"-0.007": 11.9892874857,
			"-0.006": 14.307789045,
			"-0.005": 10.7850456691,
			"-0.004": 11.3132529602,
			"-0.003": 9.37179075687,
			"-0.002": 12.8583722131,
			"-0.001": 17.8381673224,
			"0.0": 23.6057916961,
			"0.001": 23.467706477,
			"0.002": 18.3563087481,
			"0.003": 7.11201932436,
			"0.004": 5.09994708803,
			"0.005": 3.26431911891,
			"0.006": 4.06922950347,
			"0.007": 4.71980549254,
			"0.008": 2.86786677451,
			"0.009": 4.5145381236,
			"0.01": 4.39594823247,
			"0.011": 5.99036434401,
			"0.012": 4.39127596262,
			"0.013": 1.79849040489,
			"0.014": 1.63379990404,
			"0.015": 0.0476195233141,
			"0.016": 0.0,
			"0.017": 0.0,
			"0.018": 0.0,
			"0.019": 0.0,
			"0.02": 0.0,
			"0.021": 0.0,
			"0.022": 0.0,
			"0.023": 0.0,
			"0.024": 0.0,
			"0.025": 0.0
		}
	}
}
