{
	 "smiles": "CC(=O)CCl", 
	 "Tm": 228.35, 
	 "num_atms": 10, 
	 "gaussian": { 
		 "optdone": 1, 
		 "sigma_profile": "yes", 
		 "theory": "DFT", 
		 "functional": "B3LYP", 
		 "basiset": "6-31G**", 
		 "properties": { 
			 "R2extent": 709.2889, 
			 "electric_dipole_moment_norm": 1.23853819481, 
			 "electric_quadrupole_moment_norm": 8.78791999508, 
			 "total_energy": -652.745271128, 
			 "HOMO_LUMO_gap": 0.22665, 
			 "cosmo_polarized_energy": -6.84, 
			 "cosmo_cavitation_energy": 15.5, 
			 "cosmo_dispersion_energy": -11.56, 
			 "cosmo_repulsion_energy": 1.04, 
			 "cosmo_total_nonelectrostatic_energy": 4.98, 
			 "SMD_solvation_energy": 3.45 
		},
		"coords": [
			{
				"x": 1.9943124341,
				"y": -0.4197978296,
				"z": 0.2865610345,
				"element": "C" 
			},
			{
				"x": 0.9396991278,
				"y": -0.7921323293,
				"z": 1.3001652776,
				"element": "C" 
			},
			{
				"x": 1.1929807544,
				"y": -1.0554815401,
				"z": 2.4580928678,
				"element": "O" 
			},
			{
				"x": -0.5251627312,
				"y": -0.9089478973,
				"z": 0.8601215036,
				"element": "C" 
			},
			{
				"x": -1.0002688858,
				"y": 0.1205945496,
				"z": -0.5504756582,
				"element": "Cl" 
			},
			{
				"x": 1.8980167374,
				"y": -1.0260036608,
				"z": -0.62043358,
				"element": "H" 
			},
			{
				"x": 1.8665322326,
				"y": 0.6231876596,
				"z": -0.0220443163,
				"element": "H" 
			},
			{
				"x": 2.9800151849,
				"y": -0.5540241251,
				"z": 0.732991342,
				"element": "H" 
			},
			{
				"x": -0.7201773898,
				"y": -1.946349718,
				"z": 0.5727406342,
				"element": "H" 
			},
			{
				"x": -1.1665474646,
				"y": -0.649245109,
				"z": 1.7015808949,
				"element": "H" 
			}
		],
		 "valence_orbital": [ 
			{
				"type": "occ",
				"energy": -0.40034,
				"method": "rhf"
			},
			{
				"type": "occ",
				"energy": -0.36721,
				"method": "rhf"
			},
			{
				"type": "occ",
				"energy": -0.32235,
				"method": "rhf"
			},
			{
				"type": "occ",
				"energy": -0.30885,
				"method": "rhf"
			},
			{
				"type": "occ",
				"energy": -0.26252,
				"method": "rhf"
			},
			{
				"type": "unocc",
				"energy": -0.03587,
				"method": "rhf"
			},
			{
				"type": "unocc",
				"energy": 0.02067,
				"method": "rhf"
			},
			{
				"type": "unocc",
				"energy": 0.09394,
				"method": "rhf"
			},
			{
				"type": "unocc",
				"energy": 0.12583,
				"method": "rhf"
			},
			{
				"type": "unocc",
				"energy": 0.1318,
				"method": "rhf"
			}
		],
		"cosmo_sigma_profile": { 
			"-0.025": 0.0,
			"-0.024": 0.0,
			"-0.023": 0.0,
			"-0.022": 0.0,
			"-0.021": 0.0,
			"-0.02": 0.0,
			"-0.019": 0.0,
			"-0.018": 0.0,
			"-0.017": 0.0,
			"-0.016": 0.0,
			"-0.015": 0.0,
			"-0.014": 0.0,
			"-0.013": 0.0,
			"-0.012": 0.0,
			"-0.011": 0.0,
			"-0.01": 0.920997289388,
			"-0.009": 3.35621070614,
			"-0.008": 4.36590086029,
			"-0.007": 4.21460701836,
			"-0.006": 8.69564566421,
			"-0.005": 9.83821581542,
			"-0.004": 7.92549281327,
			"-0.003": 7.9421101332,
			"-0.002": 10.4524948249,
			"-0.001": 8.6722213503,
			"0.0": 5.63613328237,
			"0.001": 4.66463654386,
			"0.002": 5.22397033522,
			"0.003": 6.351939439,
			"0.004": 7.46871179225,
			"0.005": 7.1646915316,
			"0.006": 6.68089182253,
			"0.007": 1.33229200763,
			"0.008": 1.96188564686,
			"0.009": 2.2216000804,
			"0.01": 2.43887167665,
			"0.011": 4.75278903525,
			"0.012": 2.31190499606,
			"0.013": 0.0559457978768,
			"0.014": 0.0,
			"0.015": 0.0,
			"0.016": 0.0,
			"0.017": 0.0,
			"0.018": 0.0,
			"0.019": 0.0,
			"0.02": 0.0,
			"0.021": 0.0,
			"0.022": 0.0,
			"0.023": 0.0,
			"0.024": 0.0,
			"0.025": 0.0
		}
	}
}
