{
	 "smiles": "CC(C)(C)OC(=O)NC1(CC(O)=O)CCC1", 
	 "Tm": 400.15, 
	 "num_atms": 35, 
	 "gaussian": { 
		 "optdone": 1, 
		 "sigma_profile": "yes", 
		 "theory": "DFT", 
		 "functional": "B3LYP", 
		 "basiset": "6-31G**", 
		 "properties": { 
			 "R2extent": 4997.4107, 
			 "electric_dipole_moment_norm": 5.36547625006, 
			 "electric_quadrupole_moment_norm": 26.4516364469, 
			 "total_energy": -786.295496335, 
			 "HOMO_LUMO_gap": 0.27254, 
			 "cosmo_polarized_energy": -17.3, 
			 "cosmo_cavitation_energy": 36.22, 
			 "cosmo_dispersion_energy": -23.94, 
			 "cosmo_repulsion_energy": 1.88, 
			 "cosmo_total_nonelectrostatic_energy": 14.16, 
			 "SMD_solvation_energy": 8.23 
		},
		"coords": [
			{
				"x": 2.1965220701,
				"y": 0.7025097164,
				"z": 0.3244257668,
				"element": "C" 
			},
			{
				"x": 1.6167432187,
				"y": -0.6628854145,
				"z": -0.0557474788,
				"element": "C" 
			},
			{
				"x": 1.4880452561,
				"y": -1.5638790186,
				"z": 1.1739604016,
				"element": "C" 
			},
			{
				"x": 2.421579336,
				"y": -1.3536518413,
				"z": -1.1600721713,
				"element": "C" 
			},
			{
				"x": 0.2073071728,
				"y": -0.5076045105,
				"z": -0.4878842229,
				"element": "O" 
			},
			{
				"x": -0.106343706,
				"y": 0.2251544122,
				"z": -1.5706990062,
				"element": "C" 
			},
			{
				"x": 0.6619303895,
				"y": 0.8442063546,
				"z": -2.282595515,
				"element": "O" 
			},
			{
				"x": -1.4758531915,
				"y": 0.1678317967,
				"z": -1.8409406899,
				"element": "N" 
			},
			{
				"x": -2.5378705566,
				"y": -0.1427012945,
				"z": -0.8499670382,
				"element": "C" 
			},
			{
				"x": -2.6425989619,
				"y": -1.6547442973,
				"z": -0.60161237,
				"element": "C" 
			},
			{
				"x": -3.099405149,
				"y": -2.489345166,
				"z": -1.7997751521,
				"element": "C" 
			},
			{
				"x": -2.5212678443,
				"y": -2.1868441225,
				"z": -2.9826623952,
				"element": "O" 
			},
			{
				"x": -3.9063904294,
				"y": -3.3834808998,
				"z": -1.7089477458,
				"element": "O" 
			},
			{
				"x": -3.8489346334,
				"y": 0.5881651752,
				"z": -1.2771427716,
				"element": "C" 
			},
			{
				"x": -3.5275472875,
				"y": 1.7257584659,
				"z": -0.2731502996,
				"element": "C" 
			},
			{
				"x": -2.4976177584,
				"y": 0.7860877262,
				"z": 0.4075199192,
				"element": "C" 
			},
			{
				"x": 3.1987477289,
				"y": 0.5670807069,
				"z": 0.7432304681,
				"element": "H" 
			},
			{
				"x": 2.2650113091,
				"y": 1.3569783832,
				"z": -0.5446293169,
				"element": "H" 
			},
			{
				"x": 1.5750380721,
				"y": 1.1835324834,
				"z": 1.0865392705,
				"element": "H" 
			},
			{
				"x": 0.8625050908,
				"y": -1.0922264561,
				"z": 1.9372795055,
				"element": "H" 
			},
			{
				"x": 2.4765200884,
				"y": -1.7494230539,
				"z": 1.603981438,
				"element": "H" 
			},
			{
				"x": 1.0433981863,
				"y": -2.5269709625,
				"z": 0.9068597401,
				"element": "H" 
			},
			{
				"x": 1.9504591444,
				"y": -2.3008705898,
				"z": -1.4405605287,
				"element": "H" 
			},
			{
				"x": 2.5014459982,
				"y": -0.7206389367,
				"z": -2.0440823333,
				"element": "H" 
			},
			{
				"x": 3.4288432063,
				"y": -1.5729641599,
				"z": -0.7920193049,
				"element": "H" 
			},
			{
				"x": -1.70990061,
				"y": 0.8925092048,
				"z": -2.5097648872,
				"element": "H" 
			},
			{
				"x": -1.6691378403,
				"y": -2.031077802,
				"z": -0.2686697061,
				"element": "H" 
			},
			{
				"x": -3.3598064813,
				"y": -1.8461069816,
				"z": 0.1987883758,
				"element": "H" 
			},
			{
				"x": -1.9275922645,
				"y": -1.4181488592,
				"z": -2.8547602856,
				"element": "H" 
			},
			{
				"x": -3.9504254514,
				"y": 0.8403325769,
				"z": -2.3381745828,
				"element": "H" 
			},
			{
				"x": -4.728133374,
				"y": 0.0085587353,
				"z": -0.983368111,
				"element": "H" 
			},
			{
				"x": -3.0538038342,
				"y": 2.5875204924,
				"z": -0.7520950381,
				"element": "H" 
			},
			{
				"x": -4.353995049,
				"y": 2.087330183,
				"z": 0.3428750646,
				"element": "H" 
			},
			{
				"x": -1.5227667363,
				"y": 1.1976636852,
				"z": 0.6762565889,
				"element": "H" 
			},
			{
				"x": -2.9148051086,
				"y": 0.2802442684,
				"z": 1.2830044119,
				"element": "H" 
			}
		],
		 "valence_orbital": [ 
			{
				"type": "occ",
				"energy": -0.30888,
				"method": "rhf"
			},
			{
				"type": "occ",
				"energy": -0.29848,
				"method": "rhf"
			},
			{
				"type": "occ",
				"energy": -0.2862,
				"method": "rhf"
			},
			{
				"type": "occ",
				"energy": -0.27486,
				"method": "rhf"
			},
			{
				"type": "occ",
				"energy": -0.25343,
				"method": "rhf"
			},
			{
				"type": "unocc",
				"energy": 0.01911,
				"method": "rhf"
			},
			{
				"type": "unocc",
				"energy": 0.02202,
				"method": "rhf"
			},
			{
				"type": "unocc",
				"energy": 0.05027,
				"method": "rhf"
			},
			{
				"type": "unocc",
				"energy": 0.07138,
				"method": "rhf"
			},
			{
				"type": "unocc",
				"energy": 0.07999,
				"method": "rhf"
			}
		],
		"cosmo_sigma_profile": { 
			"-0.025": 0.0,
			"-0.024": 0.0,
			"-0.023": 0.0,
			"-0.022": 0.0,
			"-0.021": 0.0,
			"-0.02": 0.0,
			"-0.019": 0.0,
			"-0.018": 0.0,
			"-0.017": 0.0,
			"-0.016": 0.0,
			"-0.015": 0.0,
			"-0.014": 0.207986405482,
			"-0.013": 1.09283792163,
			"-0.012": 1.10022029156,
			"-0.011": 1.23439826765,
			"-0.01": 1.64433731081,
			"-0.009": 3.5924101336,
			"-0.008": 3.25091411786,
			"-0.007": 2.95106250264,
			"-0.006": 5.91702054999,
			"-0.005": 13.6259046659,
			"-0.004": 27.9418908528,
			"-0.003": 31.8869710731,
			"-0.002": 33.5646441713,
			"-0.001": 31.4446971684,
			"0.0": 35.799644279,
			"0.001": 23.0365559203,
			"0.002": 5.55257637194,
			"0.003": 5.09069822863,
			"0.004": 4.33054819001,
			"0.005": 3.44944107296,
			"0.006": 4.75589469053,
			"0.007": 2.96858639752,
			"0.008": 3.57056385578,
			"0.009": 3.9464203003,
			"0.01": 5.45426791721,
			"0.011": 6.95483530323,
			"0.012": 9.62136680318,
			"0.013": 6.77317759468,
			"0.014": 1.03001461198,
			"0.015": 0.0,
			"0.016": 0.0,
			"0.017": 0.0,
			"0.018": 0.0,
			"0.019": 0.0,
			"0.02": 0.0,
			"0.021": 0.0,
			"0.022": 0.0,
			"0.023": 0.0,
			"0.024": 0.0,
			"0.025": 0.0
		}
	}
}
