{
	 "smiles": "CN(CC(O)=O)C1=NC2=C(S1)C=CC=C2", 
	 "Tm": 439.15, 
	 "num_atms": 25, 
	 "gaussian": { 
		 "optdone": 1, 
		 "sigma_profile": "yes", 
		 "theory": "DFT", 
		 "functional": "B3LYP", 
		 "basiset": "6-31G**", 
		 "properties": { 
			 "R2extent": 4436.5324, 
			 "electric_dipole_moment_norm": 4.71691308167, 
			 "electric_quadrupole_moment_norm": 26.8804689269, 
			 "total_energy": -1045.24308346, 
			 "HOMO_LUMO_gap": 0.1949, 
			 "cosmo_polarized_energy": -15.51, 
			 "cosmo_cavitation_energy": 30.56, 
			 "cosmo_dispersion_energy": -22.81, 
			 "cosmo_repulsion_energy": 1.73, 
			 "cosmo_total_nonelectrostatic_energy": 9.49, 
			 "SMD_solvation_energy": 5.18 
		},
		"coords": [
			{
				"x": 2.679715218,
				"y": -1.2822425232,
				"z": -0.1733625806,
				"element": "C" 
			},
			{
				"x": 1.2670461308,
				"y": -1.6171524553,
				"z": 0.0137749946,
				"element": "N" 
			},
			{
				"x": 1.0057758316,
				"y": -2.8214872613,
				"z": 0.808413483,
				"element": "C" 
			},
			{
				"x": 1.1928439939,
				"y": -4.1136378924,
				"z": 0.0057757571,
				"element": "C" 
			},
			{
				"x": 1.0906764548,
				"y": -3.9739856612,
				"z": -1.332146758,
				"element": "O" 
			},
			{
				"x": 1.3862911397,
				"y": -5.1803099483,
				"z": 0.5319704862,
				"element": "O" 
			},
			{
				"x": 0.330268973,
				"y": -0.5986769928,
				"z": 0.082411509,
				"element": "C" 
			},
			{
				"x": -0.8761944669,
				"y": -0.7560750088,
				"z": 0.5279373515,
				"element": "N" 
			},
			{
				"x": -1.6099892393,
				"y": 0.4145182761,
				"z": 0.4133272031,
				"element": "C" 
			},
			{
				"x": -0.9199773811,
				"y": 1.5175111033,
				"z": -0.1430636993,
				"element": "C" 
			},
			{
				"x": 0.7308408469,
				"y": 1.03675973,
				"z": -0.5270227819,
				"element": "S" 
			},
			{
				"x": -1.531467527,
				"y": 2.7580636139,
				"z": -0.3159380431,
				"element": "C" 
			},
			{
				"x": -2.8632991252,
				"y": 2.8921990626,
				"z": 0.0767232379,
				"element": "C" 
			},
			{
				"x": -3.5616569878,
				"y": 1.8077324015,
				"z": 0.6294564583,
				"element": "C" 
			},
			{
				"x": -2.9472972857,
				"y": 0.5707680035,
				"z": 0.8013581407,
				"element": "C" 
			},
			{
				"x": 3.2242467292,
				"y": -2.1941028938,
				"z": -0.4278968927,
				"element": "H" 
			},
			{
				"x": 2.7979655753,
				"y": -0.5833663086,
				"z": -1.0050480992,
				"element": "H" 
			},
			{
				"x": 3.1261620499,
				"y": -0.8427430316,
				"z": 0.728879408,
				"element": "H" 
			},
			{
				"x": -0.0312222231,
				"y": -2.7812433517,
				"z": 1.1510899746,
				"element": "H" 
			},
			{
				"x": 1.6532634869,
				"y": -2.8738238309,
				"z": 1.6907616644,
				"element": "H" 
			},
			{
				"x": 0.9342241696,
				"y": -3.0293628879,
				"z": -1.5149346831,
				"element": "H" 
			},
			{
				"x": -0.991503958,
				"y": 3.5969986494,
				"z": -0.7432154177,
				"element": "H" 
			},
			{
				"x": -3.3620680822,
				"y": 3.8483798593,
				"z": -0.0480937472,
				"element": "H" 
			},
			{
				"x": -4.5979625652,
				"y": 1.9356552772,
				"z": 0.9274472461,
				"element": "H" 
			},
			{
				"x": -3.4785817582,
				"y": -0.274075929,
				"z": 1.2268957882,
				"element": "H" 
			}
		],
		 "valence_orbital": [ 
			{
				"type": "occ",
				"energy": -0.30165,
				"method": "rhf"
			},
			{
				"type": "occ",
				"energy": -0.28879,
				"method": "rhf"
			},
			{
				"type": "occ",
				"energy": -0.27077,
				"method": "rhf"
			},
			{
				"type": "occ",
				"energy": -0.24188,
				"method": "rhf"
			},
			{
				"type": "occ",
				"energy": -0.22296,
				"method": "rhf"
			},
			{
				"type": "unocc",
				"energy": -0.02806,
				"method": "rhf"
			},
			{
				"type": "unocc",
				"energy": -0.01036,
				"method": "rhf"
			},
			{
				"type": "unocc",
				"energy": -0.00498,
				"method": "rhf"
			},
			{
				"type": "unocc",
				"energy": 0.00649,
				"method": "rhf"
			},
			{
				"type": "unocc",
				"energy": 0.03162,
				"method": "rhf"
			}
		],
		"cosmo_sigma_profile": { 
			"-0.025": 0.0,
			"-0.024": 0.0,
			"-0.023": 0.0,
			"-0.022": 0.0,
			"-0.021": 0.0,
			"-0.02": 0.0,
			"-0.019": 0.0,
			"-0.018": 0.0,
			"-0.017": 0.0,
			"-0.016": 0.0,
			"-0.015": 0.462404973988,
			"-0.014": 0.775410744265,
			"-0.013": 0.331672693952,
			"-0.012": 0.809845377816,
			"-0.011": 1.49193829097,
			"-0.01": 1.45803412193,
			"-0.009": 1.16494727211,
			"-0.008": 3.68096934459,
			"-0.007": 12.1484347043,
			"-0.006": 20.1111786596,
			"-0.005": 21.6620807065,
			"-0.004": 19.2021161559,
			"-0.003": 17.0263781633,
			"-0.002": 11.73180921,
			"-0.001": 11.0450841503,
			"0.0": 10.8406942266,
			"0.001": 14.0844950122,
			"0.002": 14.5726422826,
			"0.003": 15.2801310047,
			"0.004": 17.1000600868,
			"0.005": 13.6205602,
			"0.006": 6.57614042628,
			"0.007": 2.96373995187,
			"0.008": 4.32162199635,
			"0.009": 5.3694631336,
			"0.01": 6.12958512933,
			"0.011": 5.62929110822,
			"0.012": 5.39633997833,
			"0.013": 1.41069391957,
			"0.014": 0.0,
			"0.015": 0.0,
			"0.016": 0.0,
			"0.017": 0.0,
			"0.018": 0.0,
			"0.019": 0.0,
			"0.02": 0.0,
			"0.021": 0.0,
			"0.022": 0.0,
			"0.023": 0.0,
			"0.024": 0.0,
			"0.025": 0.0
		}
	}
}
