{
	 "smiles": "OCCS(=O)(=O)C1=CC=C(C=C1)[N+]([O-])=O", 
	 "Tm": 402.15, 
	 "num_atms": 24, 
	 "gaussian": { 
		 "optdone": 1, 
		 "sigma_profile": "yes", 
		 "theory": "DFT", 
		 "functional": "B3LYP", 
		 "basiset": "6-31G**", 
		 "properties": { 
			 "R2extent": 5040.9232, 
			 "electric_dipole_moment_norm": 3.37342500435, 
			 "electric_quadrupole_moment_norm": 21.8014597032, 
			 "total_energy": -1139.14969075, 
			 "HOMO_LUMO_gap": 0.176, 
			 "cosmo_polarized_energy": -21.91, 
			 "cosmo_cavitation_energy": 30.62, 
			 "cosmo_dispersion_energy": -22.29, 
			 "cosmo_repulsion_energy": 1.71, 
			 "cosmo_total_nonelectrostatic_energy": 10.04, 
			 "SMD_solvation_energy": 6.79 
		},
		"coords": [
			{
				"x": 2.6906172905,
				"y": -1.8359271527,
				"z": -2.486744379,
				"element": "O" 
			},
			{
				"x": 1.6945419001,
				"y": -0.9925181513,
				"z": -1.9372537002,
				"element": "C" 
			},
			{
				"x": 1.9805056999,
				"y": -0.7005711164,
				"z": -0.4590085706,
				"element": "C" 
			},
			{
				"x": 0.8544406108,
				"y": 0.5134178127,
				"z": 0.2966712205,
				"element": "S" 
			},
			{
				"x": 0.6651200662,
				"y": 1.6120418513,
				"z": -0.6638591283,
				"element": "O" 
			},
			{
				"x": 1.3298790227,
				"y": 0.7557213343,
				"z": 1.6664877403,
				"element": "O" 
			},
			{
				"x": -0.7245032866,
				"y": -0.363507521,
				"z": 0.4276733032,
				"element": "C" 
			},
			{
				"x": -1.6837581067,
				"y": -0.1915421907,
				"z": -0.5726160458,
				"element": "C" 
			},
			{
				"x": -2.9030185098,
				"y": -0.8586468876,
				"z": -0.4674875651,
				"element": "C" 
			},
			{
				"x": -3.1221049969,
				"y": -1.6742599592,
				"z": 0.6403502589,
				"element": "C" 
			},
			{
				"x": -2.178349593,
				"y": -1.8390071924,
				"z": 1.6528366811,
				"element": "C" 
			},
			{
				"x": -0.9623889562,
				"y": -1.1686022601,
				"z": 1.544644881,
				"element": "C" 
			},
			{
				"x": -4.4113582381,
				"y": -2.3880885976,
				"z": 0.7510980658,
				"element": "N" 
			},
			{
				"x": -4.5803075332,
				"y": -3.1012111929,
				"z": 1.7375448038,
				"element": "O" 
			},
			{
				"x": -5.2283603079,
				"y": -2.2243353735,
				"z": -0.1519738007,
				"element": "O" 
			},
			{
				"x": 2.5727028512,
				"y": -2.7251553792,
				"z": -2.1284201582,
				"element": "H" 
			},
			{
				"x": 0.6866783776,
				"y": -1.4162313147,
				"z": -2.0571269131,
				"element": "H" 
			},
			{
				"x": 1.7303623839,
				"y": -0.0573369648,
				"z": -2.5001912719,
				"element": "H" 
			},
			{
				"x": 1.9343723693,
				"y": -1.5992041266,
				"z": 0.1647847614,
				"element": "H" 
			},
			{
				"x": 2.9714554525,
				"y": -0.2511714703,
				"z": -0.3424012114,
				"element": "H" 
			},
			{
				"x": -1.4799759049,
				"y": 0.4724635886,
				"z": -1.4054377876,
				"element": "H" 
			},
			{
				"x": -3.6782202383,
				"y": -0.7545167709,
				"z": -1.2161129201,
				"element": "H" 
			},
			{
				"x": -2.4092740452,
				"y": -2.472183954,
				"z": 2.5001587981,
				"element": "H" 
			},
			{
				"x": -0.2139563079,
				"y": -1.2463270109,
				"z": 2.3258829379,
				"element": "H" 
			}
		],
		 "valence_orbital": [ 
			{
				"type": "occ",
				"energy": -0.31692,
				"method": "rhf"
			},
			{
				"type": "occ",
				"energy": -0.30951,
				"method": "rhf"
			},
			{
				"type": "occ",
				"energy": -0.3058,
				"method": "rhf"
			},
			{
				"type": "occ",
				"energy": -0.30281,
				"method": "rhf"
			},
			{
				"type": "occ",
				"energy": -0.2893,
				"method": "rhf"
			},
			{
				"type": "unocc",
				"energy": -0.1133,
				"method": "rhf"
			},
			{
				"type": "unocc",
				"energy": -0.05388,
				"method": "rhf"
			},
			{
				"type": "unocc",
				"energy": -0.03662,
				"method": "rhf"
			},
			{
				"type": "unocc",
				"energy": 0.03357,
				"method": "rhf"
			},
			{
				"type": "unocc",
				"energy": 0.05159,
				"method": "rhf"
			}
		],
		"cosmo_sigma_profile": { 
			"-0.025": 0.0,
			"-0.024": 0.0,
			"-0.023": 0.0,
			"-0.022": 0.0,
			"-0.021": 0.0,
			"-0.02": 0.0,
			"-0.019": 0.0,
			"-0.018": 0.0,
			"-0.017": 0.334683118585,
			"-0.016": 1.36313476673,
			"-0.015": 1.05561312953,
			"-0.014": 0.974689808438,
			"-0.013": 1.42491279364,
			"-0.012": 0.963919278648,
			"-0.011": 0.769934607827,
			"-0.01": 1.49528634642,
			"-0.009": 6.80611842931,
			"-0.008": 13.8942857931,
			"-0.007": 12.0567462132,
			"-0.006": 12.5513768075,
			"-0.005": 14.1072632413,
			"-0.004": 16.0168266234,
			"-0.003": 14.5220653928,
			"-0.002": 17.5897967679,
			"-0.001": 18.0613179807,
			"0.0": 13.341821508,
			"0.001": 6.67044267129,
			"0.002": 6.1263145172,
			"0.003": 5.65362588133,
			"0.004": 6.27755651496,
			"0.005": 6.86371158303,
			"0.006": 8.55468672012,
			"0.007": 13.037635125,
			"0.008": 9.00848909175,
			"0.009": 8.28608293407,
			"0.01": 8.58054973716,
			"0.011": 9.73356648755,
			"0.012": 4.56001963801,
			"0.013": 2.50159027836,
			"0.014": 0.75340572904,
			"0.015": 0.0,
			"0.016": 0.0,
			"0.017": 0.0,
			"0.018": 0.0,
			"0.019": 0.0,
			"0.02": 0.0,
			"0.021": 0.0,
			"0.022": 0.0,
			"0.023": 0.0,
			"0.024": 0.0,
			"0.025": 0.0
		}
	}
}
