{
	 "smiles": "OC1=CC=C(O)C2=CC=CC=C12", 
	 "Tm": 463.15, 
	 "num_atms": 20, 
	 "gaussian": { 
		 "optdone": 1, 
		 "sigma_profile": "yes", 
		 "theory": "DFT", 
		 "functional": "B3LYP", 
		 "basiset": "6-31G**", 
		 "properties": { 
			 "R2extent": 3017.7761, 
			 "electric_dipole_moment_norm": 0.716286018292, 
			 "electric_quadrupole_moment_norm": 12.421427236, 
			 "total_energy": -536.330952809, 
			 "HOMO_LUMO_gap": 0.15772, 
			 "cosmo_polarized_energy": -12.34, 
			 "cosmo_cavitation_energy": 23.52, 
			 "cosmo_dispersion_energy": -18.02, 
			 "cosmo_repulsion_energy": 1.4, 
			 "cosmo_total_nonelectrostatic_energy": 6.9, 
			 "SMD_solvation_energy": 4.31 
		},
		"coords": [
			{
				"x": -0.578549495,
				"y": -4.279037982,
				"z": 0.7412298009,
				"element": "O" 
			},
			{
				"x": -0.4984678082,
				"y": -3.2665516214,
				"z": -0.1835006773,
				"element": "C" 
			},
			{
				"x": -1.4029147278,
				"y": -3.2675258981,
				"z": -1.2213112858,
				"element": "C" 
			},
			{
				"x": -1.3815035575,
				"y": -2.2484795934,
				"z": -2.2000585988,
				"element": "C" 
			},
			{
				"x": -0.4399861842,
				"y": -1.2435984711,
				"z": -2.1487817757,
				"element": "C" 
			},
			{
				"x": -0.3574256443,
				"y": -0.241461414,
				"z": -3.0810048432,
				"element": "O" 
			},
			{
				"x": 0.5120643801,
				"y": -1.2044757339,
				"z": -1.0866862455,
				"element": "C" 
			},
			{
				"x": 1.4902362687,
				"y": -0.1803371097,
				"z": -1.0006925244,
				"element": "C" 
			},
			{
				"x": 2.3859276168,
				"y": -0.1455029892,
				"z": 0.0455358897,
				"element": "C" 
			},
			{
				"x": 2.3320977594,
				"y": -1.1289274882,
				"z": 1.059697437,
				"element": "C" 
			},
			{
				"x": 1.3950510133,
				"y": -2.1373489741,
				"z": 0.9999381167,
				"element": "C" 
			},
			{
				"x": 0.4704838136,
				"y": -2.2205024942,
				"z": -0.0754286433,
				"element": "C" 
			},
			{
				"x": 0.2780589964,
				"y": -4.3847829055,
				"z": 1.172682359,
				"element": "H" 
			},
			{
				"x": -2.1295145771,
				"y": -4.0706089859,
				"z": -1.2811298567,
				"element": "H" 
			},
			{
				"x": -2.1085031263,
				"y": -2.2730319617,
				"z": -3.008957845,
				"element": "H" 
			},
			{
				"x": -1.0430845204,
				"y": -0.3787523713,
				"z": -3.7466671024,
				"element": "H" 
			},
			{
				"x": 1.5136313576,
				"y": 0.5768010937,
				"z": -1.7762212208,
				"element": "H" 
			},
			{
				"x": 3.1293520759,
				"y": 0.6443424414,
				"z": 0.0990546303,
				"element": "H" 
			},
			{
				"x": 3.0256469454,
				"y": -1.0833233729,
				"z": 1.8943198943,
				"element": "H" 
			},
			{
				"x": 1.3492994136,
				"y": -2.8589941686,
				"z": 1.8118824911,
				"element": "H" 
			}
		],
		 "valence_orbital": [ 
			{
				"type": "occ",
				"energy": -0.3291,
				"method": "rhf"
			},
			{
				"type": "occ",
				"energy": -0.29445,
				"method": "rhf"
			},
			{
				"type": "occ",
				"energy": -0.26067,
				"method": "rhf"
			},
			{
				"type": "occ",
				"energy": -0.24419,
				"method": "rhf"
			},
			{
				"type": "occ",
				"energy": -0.188,
				"method": "rhf"
			},
			{
				"type": "unocc",
				"energy": -0.03028,
				"method": "rhf"
			},
			{
				"type": "unocc",
				"energy": -0.01005,
				"method": "rhf"
			},
			{
				"type": "unocc",
				"energy": 0.05267,
				"method": "rhf"
			},
			{
				"type": "unocc",
				"energy": 0.06702,
				"method": "rhf"
			},
			{
				"type": "unocc",
				"energy": 0.07054,
				"method": "rhf"
			}
		],
		"cosmo_sigma_profile": { 
			"-0.025": 0.0,
			"-0.024": 0.0,
			"-0.023": 0.0,
			"-0.022": 0.0,
			"-0.021": 0.0,
			"-0.02": 0.0,
			"-0.019": 0.0,
			"-0.018": 0.267500484774,
			"-0.017": 1.77413369182,
			"-0.016": 1.85433608283,
			"-0.015": 1.88570989718,
			"-0.014": 2.31143062834,
			"-0.013": 1.48017540479,
			"-0.012": 1.3979643542,
			"-0.011": 1.8335232135,
			"-0.01": 2.64370190681,
			"-0.009": 2.4906807251,
			"-0.008": 2.03907351175,
			"-0.007": 2.29845899754,
			"-0.006": 6.83260056275,
			"-0.005": 11.7498401434,
			"-0.004": 12.7157147401,
			"-0.003": 9.67629859569,
			"-0.002": 7.18535242403,
			"-0.001": 7.76359363126,
			"0.0": 7.02064216267,
			"0.001": 9.32426411432,
			"0.002": 8.7827859148,
			"0.003": 19.0908439873,
			"0.004": 25.0095382118,
			"0.005": 19.3176108258,
			"0.006": 5.36648545862,
			"0.007": 2.61560497506,
			"0.008": 3.51297034678,
			"0.009": 3.65147563362,
			"0.01": 2.93428972334,
			"0.011": 1.7826334292,
			"0.012": 1.58652167528,
			"0.013": 0.0345793526596,
			"0.014": 0.0,
			"0.015": 0.0,
			"0.016": 0.0,
			"0.017": 0.0,
			"0.018": 0.0,
			"0.019": 0.0,
			"0.02": 0.0,
			"0.021": 0.0,
			"0.022": 0.0,
			"0.023": 0.0,
			"0.024": 0.0,
			"0.025": 0.0
		}
	}
}
