{
	 "smiles": "CCOC(=O)C1=CN2CCCNC2=N1", 
	 "Tm": 445.15, 
	 "num_atms": 27, 
	 "gaussian": { 
		 "optdone": 1, 
		 "sigma_profile": "yes", 
		 "theory": "DFT", 
		 "functional": "B3LYP", 
		 "basiset": "6-31G**", 
		 "properties": { 
			 "R2extent": 3855.2232, 
			 "electric_dipole_moment_norm": 6.42584178221, 
			 "electric_quadrupole_moment_norm": 17.5964107462, 
			 "total_energy": -665.510427465, 
			 "HOMO_LUMO_gap": 0.18667, 
			 "cosmo_polarized_energy": -20.66, 
			 "cosmo_cavitation_energy": 30.13, 
			 "cosmo_dispersion_energy": -22.48, 
			 "cosmo_repulsion_energy": 1.8, 
			 "cosmo_total_nonelectrostatic_energy": 9.46, 
			 "SMD_solvation_energy": 3.05 
		},
		"coords": [
			{
				"x": 3.4861506319,
				"y": -1.3511343091,
				"z": -2.9359302217,
				"element": "C" 
			},
			{
				"x": 3.7652224758,
				"y": -0.6560668172,
				"z": -1.6104688556,
				"element": "C" 
			},
			{
				"x": 2.5537449734,
				"y": -0.1520589001,
				"z": -1.0118210611,
				"element": "O" 
			},
			{
				"x": 1.8445420483,
				"y": -1.0413561788,
				"z": -0.2553458885,
				"element": "C" 
			},
			{
				"x": 2.1866456635,
				"y": -2.1911132991,
				"z": -0.0726302507,
				"element": "O" 
			},
			{
				"x": 0.6353970098,
				"y": -0.405956498,
				"z": 0.2901977586,
				"element": "C" 
			},
			{
				"x": 0.2179543446,
				"y": 0.8904274179,
				"z": 0.0969123829,
				"element": "C" 
			},
			{
				"x": -0.9593124572,
				"y": 1.0090697181,
				"z": 0.8112231834,
				"element": "N" 
			},
			{
				"x": -1.8759070467,
				"y": 2.1445513731,
				"z": 0.8795889447,
				"element": "C" 
			},
			{
				"x": -2.8507838782,
				"y": 1.9406106505,
				"z": 2.0466289163,
				"element": "C" 
			},
			{
				"x": -3.3930413277,
				"y": 0.5059069649,
				"z": 2.061291542,
				"element": "C" 
			},
			{
				"x": -2.2708919506,
				"y": -0.4140199833,
				"z": 2.2230989359,
				"element": "N" 
			},
			{
				"x": -1.1840437535,
				"y": -0.2235456837,
				"z": 1.3876045488,
				"element": "C" 
			},
			{
				"x": -0.2514928697,
				"y": -1.0989846276,
				"z": 1.1003591706,
				"element": "N" 
			},
			{
				"x": 4.4280207147,
				"y": -1.6573425984,
				"z": -3.4040648782,
				"element": "H" 
			},
			{
				"x": 2.9616881922,
				"y": -0.6816139764,
				"z": -3.6245770044,
				"element": "H" 
			},
			{
				"x": 2.8758719095,
				"y": -2.2431849536,
				"z": -2.7760862175,
				"element": "H" 
			},
			{
				"x": 4.2509743124,
				"y": -1.3383964556,
				"z": -0.9083948837,
				"element": "H" 
			},
			{
				"x": 4.3931897766,
				"y": 0.2283170463,
				"z": -1.7488620809,
				"element": "H" 
			},
			{
				"x": 0.6390487445,
				"y": 1.7076144547,
				"z": -0.466134453,
				"element": "H" 
			},
			{
				"x": -1.2980553797,
				"y": 3.0650621371,
				"z": 1.0102964123,
				"element": "H" 
			},
			{
				"x": -2.4238755641,
				"y": 2.2276313242,
				"z": -0.0681272193,
				"element": "H" 
			},
			{
				"x": -3.6741067144,
				"y": 2.6556260353,
				"z": 1.9575442998,
				"element": "H" 
			},
			{
				"x": -2.338697024,
				"y": 2.1319149596,
				"z": 2.9954972607,
				"element": "H" 
			},
			{
				"x": -3.9656255251,
				"y": 0.3177148562,
				"z": 1.1363718015,
				"element": "H" 
			},
			{
				"x": -4.0761933614,
				"y": 0.3706962867,
				"z": 2.904642646,
				"element": "H" 
			},
			{
				"x": -2.4953239447,
				"y": -1.3931689435,
				"z": 2.341085211,
				"element": "H" 
			}
		],
		 "valence_orbital": [ 
			{
				"type": "occ",
				"energy": -0.27798,
				"method": "rhf"
			},
			{
				"type": "occ",
				"energy": -0.26498,
				"method": "rhf"
			},
			{
				"type": "occ",
				"energy": -0.26224,
				"method": "rhf"
			},
			{
				"type": "occ",
				"energy": -0.25041,
				"method": "rhf"
			},
			{
				"type": "occ",
				"energy": -0.19436,
				"method": "rhf"
			},
			{
				"type": "unocc",
				"energy": -0.00769,
				"method": "rhf"
			},
			{
				"type": "unocc",
				"energy": 0.04959,
				"method": "rhf"
			},
			{
				"type": "unocc",
				"energy": 0.07128,
				"method": "rhf"
			},
			{
				"type": "unocc",
				"energy": 0.10021,
				"method": "rhf"
			},
			{
				"type": "unocc",
				"energy": 0.11629,
				"method": "rhf"
			}
		],
		"cosmo_sigma_profile": { 
			"-0.025": 0.0,
			"-0.024": 0.0,
			"-0.023": 0.0,
			"-0.022": 0.0,
			"-0.021": 0.0,
			"-0.02": 0.0,
			"-0.019": 0.0,
			"-0.018": 0.0,
			"-0.017": 0.0,
			"-0.016": 0.0,
			"-0.015": 0.0,
			"-0.014": 0.295032584883,
			"-0.013": 0.99224473966,
			"-0.012": 1.29410171686,
			"-0.011": 0.563869488064,
			"-0.01": 1.37357403885,
			"-0.009": 1.39839898576,
			"-0.008": 3.33862121256,
			"-0.007": 3.81739183993,
			"-0.006": 9.74682807513,
			"-0.005": 23.1270921367,
			"-0.004": 29.2934677061,
			"-0.003": 27.3628336276,
			"-0.002": 20.6669080525,
			"-0.001": 15.4219972927,
			"0.0": 15.7686971253,
			"0.001": 10.9775697462,
			"0.002": 8.00114952696,
			"0.003": 9.99725934974,
			"0.004": 8.0730771854,
			"0.005": 5.01545913752,
			"0.006": 5.73150532734,
			"0.007": 5.41783294186,
			"0.008": 3.58286490791,
			"0.009": 2.40975933644,
			"0.01": 2.86273767833,
			"0.011": 2.89361672201,
			"0.012": 4.64133784131,
			"0.013": 4.45414218004,
			"0.014": 2.29349437677,
			"0.015": 1.5742459276,
			"0.016": 1.85249808909,
			"0.017": 1.6100856076,
			"0.018": 1.25125631604,
			"0.019": 0.127342282262,
			"0.02": 0.0,
			"0.021": 0.0,
			"0.022": 0.0,
			"0.023": 0.0,
			"0.024": 0.0,
			"0.025": 0.0
		}
	}
}
