{
	 "smiles": "NC1=NC=C(S1)C1=C(F)C=CC=C1", 
	 "Tm": 423.15, 
	 "num_atms": 20, 
	 "gaussian": { 
		 "optdone": 1, 
		 "sigma_profile": "yes", 
		 "theory": "DFT", 
		 "functional": "B3LYP", 
		 "basiset": "6-31G**", 
		 "properties": { 
			 "R2extent": 3925.1467, 
			 "electric_dipole_moment_norm": 2.40121162957, 
			 "electric_quadrupole_moment_norm": 23.5570041022, 
			 "total_energy": -954.699578673, 
			 "HOMO_LUMO_gap": 0.16002, 
			 "cosmo_polarized_energy": -11.13, 
			 "cosmo_cavitation_energy": 26.13, 
			 "cosmo_dispersion_energy": -20.19, 
			 "cosmo_repulsion_energy": 1.51, 
			 "cosmo_total_nonelectrostatic_energy": 7.46, 
			 "SMD_solvation_energy": 2.93 
		},
		"coords": [
			{
				"x": 4.7280820578,
				"y": -0.1787490931,
				"z": -3.417349113,
				"element": "N" 
			},
			{
				"x": 3.4893181703,
				"y": 0.125321454,
				"z": -2.9058293541,
				"element": "C" 
			},
			{
				"x": 2.6169730074,
				"y": 0.8765813439,
				"z": -3.517515023,
				"element": "N" 
			},
			{
				"x": 1.4462367086,
				"y": 0.9406395235,
				"z": -2.8023444084,
				"element": "C" 
			},
			{
				"x": 1.3809985589,
				"y": 0.2497316529,
				"z": -1.6168686092,
				"element": "C" 
			},
			{
				"x": 2.9354260426,
				"y": -0.5752616469,
				"z": -1.3845342761,
				"element": "S" 
			},
			{
				"x": 0.3082792163,
				"y": 0.1260878153,
				"z": -0.6325636464,
				"element": "C" 
			},
			{
				"x": -0.8989545005,
				"y": 0.8413379883,
				"z": -0.7369012552,
				"element": "C" 
			},
			{
				"x": -1.086597743,
				"y": 1.67829985,
				"z": -1.785858969,
				"element": "F" 
			},
			{
				"x": -1.927551501,
				"y": 0.7400705995,
				"z": 0.1874857033,
				"element": "C" 
			},
			{
				"x": -1.7810438137,
				"y": -0.1063085332,
				"z": 1.2864099955,
				"element": "C" 
			},
			{
				"x": -0.6005937772,
				"y": -0.8364564595,
				"z": 1.4331953269,
				"element": "C" 
			},
			{
				"x": 0.4176849777,
				"y": -0.7198298741,
				"z": 0.4911394719,
				"element": "C" 
			},
			{
				"x": 5.4704200771,
				"y": -0.3622542236,
				"z": -2.7579462757,
				"element": "H" 
			},
			{
				"x": 4.9938457116,
				"y": 0.4206908258,
				"z": -4.187899066,
				"element": "H" 
			},
			{
				"x": 0.6331628577,
				"y": 1.5333623577,
				"z": -3.1950646189,
				"element": "H" 
			},
			{
				"x": -2.825020226,
				"y": 1.3285242946,
				"z": 0.0295980816,
				"element": "H" 
			},
			{
				"x": -2.58074367,
				"y": -0.1922539341,
				"z": 2.0151229407,
				"element": "H" 
			},
			{
				"x": -0.4702382446,
				"y": -1.5011872036,
				"z": 2.2814636686,
				"element": "H" 
			},
			{
				"x": 1.32461609,
				"y": -1.3022467376,
				"z": 0.6229594265,
				"element": "H" 
			}
		],
		 "valence_orbital": [ 
			{
				"type": "occ",
				"energy": -0.28265,
				"method": "rhf"
			},
			{
				"type": "occ",
				"energy": -0.27199,
				"method": "rhf"
			},
			{
				"type": "occ",
				"energy": -0.26198,
				"method": "rhf"
			},
			{
				"type": "occ",
				"energy": -0.24909,
				"method": "rhf"
			},
			{
				"type": "occ",
				"energy": -0.19814,
				"method": "rhf"
			},
			{
				"type": "unocc",
				"energy": -0.03812,
				"method": "rhf"
			},
			{
				"type": "unocc",
				"energy": -0.00117,
				"method": "rhf"
			},
			{
				"type": "unocc",
				"energy": 0.00799,
				"method": "rhf"
			},
			{
				"type": "unocc",
				"energy": 0.0249,
				"method": "rhf"
			},
			{
				"type": "unocc",
				"energy": 0.06431,
				"method": "rhf"
			}
		],
		"cosmo_sigma_profile": { 
			"-0.025": 0.0,
			"-0.024": 0.0,
			"-0.023": 0.0,
			"-0.022": 0.0,
			"-0.021": 0.0,
			"-0.02": 0.0,
			"-0.019": 0.0,
			"-0.018": 0.0,
			"-0.017": 0.0,
			"-0.016": 0.0,
			"-0.015": 0.666535963087,
			"-0.014": 2.32181037996,
			"-0.013": 2.6989224495,
			"-0.012": 2.48213818757,
			"-0.011": 3.24779551168,
			"-0.01": 1.92907771478,
			"-0.009": 1.63014952992,
			"-0.008": 1.93700346524,
			"-0.007": 4.59168118807,
			"-0.006": 9.79737934332,
			"-0.005": 10.2289935459,
			"-0.004": 11.6256514934,
			"-0.003": 9.43451752247,
			"-0.002": 9.12758913819,
			"-0.001": 10.3071245633,
			"0.0": 13.4843632183,
			"0.001": 20.4197840893,
			"0.002": 22.2687956418,
			"0.003": 26.0278512674,
			"0.004": 24.0613197794,
			"0.005": 8.20542812105,
			"0.006": 2.4317114877,
			"0.007": 2.42309069916,
			"0.008": 1.46283920725,
			"0.009": 2.30681546426,
			"0.01": 1.58673595636,
			"0.011": 1.832921011,
			"0.012": 0.841503837016,
			"0.013": 0.820172999212,
			"0.014": 1.13616573809,
			"0.015": 0.895094466745,
			"0.016": 0.155932483618,
			"0.017": 0.0,
			"0.018": 0.0,
			"0.019": 0.0,
			"0.02": 0.0,
			"0.021": 0.0,
			"0.022": 0.0,
			"0.023": 0.0,
			"0.024": 0.0,
			"0.025": 0.0
		}
	}
}
