{
	 "smiles": "OC(=O)C1=CN(CC2=CC=CC=C2)N=C1C1=CC=C(Cl)C=C1", 
	 "Tm": 437.15, 
	 "num_atms": 35, 
	 "gaussian": { 
		 "optdone": 1, 
		 "sigma_profile": "yes", 
		 "theory": "DFT", 
		 "functional": "B3LYP", 
		 "basiset": "6-31G**", 
		 "properties": { 
			 "R2extent": 10514.4713, 
			 "electric_dipole_moment_norm": 3.60807271268, 
			 "electric_quadrupole_moment_norm": 15.3547478612, 
			 "total_energy": -1375.79411199, 
			 "HOMO_LUMO_gap": 0.19128, 
			 "cosmo_polarized_energy": -15.52, 
			 "cosmo_cavitation_energy": 42.52, 
			 "cosmo_dispersion_energy": -29.78, 
			 "cosmo_repulsion_energy": 2.28, 
			 "cosmo_total_nonelectrostatic_energy": 15.02, 
			 "SMD_solvation_energy": 7.23 
		},
		"coords": [
			{
				"x": -2.2308789342,
				"y": -2.4846810518,
				"z": -2.0592058807,
				"element": "O" 
			},
			{
				"x": -2.2496817069,
				"y": -2.1232951284,
				"z": -0.7525311034,
				"element": "C" 
			},
			{
				"x": -3.2137470329,
				"y": -2.3457526669,
				"z": -0.0416140775,
				"element": "O" 
			},
			{
				"x": -1.0397249629,
				"y": -1.4321319845,
				"z": -0.2931676384,
				"element": "C" 
			},
			{
				"x": -0.9927558466,
				"y": -0.8778409406,
				"z": 0.9805950685,
				"element": "C" 
			},
			{
				"x": 0.191654021,
				"y": -0.2536788978,
				"z": 1.0996202722,
				"element": "N" 
			},
			{
				"x": 0.6909098947,
				"y": 0.5288919374,
				"z": 2.2312344006,
				"element": "C" 
			},
			{
				"x": 0.190127462,
				"y": 1.9610044059,
				"z": 2.2451934535,
				"element": "C" 
			},
			{
				"x": 0.4695582939,
				"y": 2.8206616226,
				"z": 1.1739710278,
				"element": "C" 
			},
			{
				"x": 0.0175244101,
				"y": 4.1387786464,
				"z": 1.1940711319,
				"element": "C" 
			},
			{
				"x": -0.7132750045,
				"y": 4.6151575549,
				"z": 2.2864356533,
				"element": "C" 
			},
			{
				"x": -0.9920629424,
				"y": 3.7659163605,
				"z": 3.356884591,
				"element": "C" 
			},
			{
				"x": -0.5436427134,
				"y": 2.4430409057,
				"z": 3.333439471,
				"element": "C" 
			},
			{
				"x": 0.9419730444,
				"y": -0.3548693286,
				"z": -0.0247401107,
				"element": "N" 
			},
			{
				"x": 0.2150331464,
				"y": -1.0725482613,
				"z": -0.8889024105,
				"element": "C" 
			},
			{
				"x": 0.8035329296,
				"y": -1.3621599306,
				"z": -2.2133408083,
				"element": "C" 
			},
			{
				"x": 1.6224969468,
				"y": -0.3968571998,
				"z": -2.8224338212,
				"element": "C" 
			},
			{
				"x": 2.2382479318,
				"y": -0.6421313657,
				"z": -4.0467722063,
				"element": "C" 
			},
			{
				"x": 2.0380352281,
				"y": -1.8723925686,
				"z": -4.6718515462,
				"element": "C" 
			},
			{
				"x": 2.8071763758,
				"y": -2.1923586053,
				"z": -6.2209392083,
				"element": "Cl" 
			},
			{
				"x": 1.2388799502,
				"y": -2.8528124221,
				"z": -4.0864953792,
				"element": "C" 
			},
			{
				"x": 0.6282940294,
				"y": -2.5939204253,
				"z": -2.860963334,
				"element": "C" 
			},
			{
				"x": -3.0928686142,
				"y": -2.9025908859,
				"z": -2.2231802935,
				"element": "H" 
			},
			{
				"x": -1.7349137303,
				"y": -0.8937263622,
				"z": 1.7644887979,
				"element": "H" 
			},
			{
				"x": 1.7803109546,
				"y": 0.490740498,
				"z": 2.1533632881,
				"element": "H" 
			},
			{
				"x": 0.399388755,
				"y": 0.0139821979,
				"z": 3.1507350752,
				"element": "H" 
			},
			{
				"x": 1.0351159362,
				"y": 2.4468945794,
				"z": 0.3251600551,
				"element": "H" 
			},
			{
				"x": 0.2374476877,
				"y": 4.7970402273,
				"z": 0.3585146558,
				"element": "H" 
			},
			{
				"x": -1.062794498,
				"y": 5.6433849473,
				"z": 2.301072884,
				"element": "H" 
			},
			{
				"x": -1.5606881731,
				"y": 4.1284036808,
				"z": 4.2083161087,
				"element": "H" 
			},
			{
				"x": -0.7647942225,
				"y": 1.7831860709,
				"z": 4.1691672953,
				"element": "H" 
			},
			{
				"x": 1.7744784952,
				"y": 0.5545921995,
				"z": -2.3248856306,
				"element": "H" 
			},
			{
				"x": 2.8633395253,
				"y": 0.1110491016,
				"z": -4.5135112102,
				"element": "H" 
			},
			{
				"x": 1.1019036274,
				"y": -3.8086901075,
				"z": -4.579787832,
				"element": "H" 
			},
			{
				"x": 0.012199736,
				"y": -3.3592868031,
				"z": -2.4064407389,
				"element": "H" 
			}
		],
		 "valence_orbital": [ 
			{
				"type": "occ",
				"energy": -0.26264,
				"method": "rhf"
			},
			{
				"type": "occ",
				"energy": -0.26051,
				"method": "rhf"
			},
			{
				"type": "occ",
				"energy": -0.25833,
				"method": "rhf"
			},
			{
				"type": "occ",
				"energy": -0.25799,
				"method": "rhf"
			},
			{
				"type": "occ",
				"energy": -0.22806,
				"method": "rhf"
			},
			{
				"type": "unocc",
				"energy": -0.03678,
				"method": "rhf"
			},
			{
				"type": "unocc",
				"energy": -0.02294,
				"method": "rhf"
			},
			{
				"type": "unocc",
				"energy": -0.01526,
				"method": "rhf"
			},
			{
				"type": "unocc",
				"energy": -0.01036,
				"method": "rhf"
			},
			{
				"type": "unocc",
				"energy": -0.00763,
				"method": "rhf"
			}
		],
		"cosmo_sigma_profile": { 
			"-0.025": 0.0,
			"-0.024": 0.0,
			"-0.023": 0.0,
			"-0.022": 0.0,
			"-0.021": 0.0,
			"-0.02": 0.0,
			"-0.019": 0.0,
			"-0.018": 0.773197975625,
			"-0.017": 0.75264332056,
			"-0.016": 0.988194617637,
			"-0.015": 0.6925414291,
			"-0.014": 0.935250682817,
			"-0.013": 0.282416664261,
			"-0.012": 0.246495356798,
			"-0.011": 1.08411753366,
			"-0.01": 2.02650024521,
			"-0.009": 2.86473839206,
			"-0.008": 5.19382075935,
			"-0.007": 10.6158635542,
			"-0.006": 16.2440348562,
			"-0.005": 22.6163770481,
			"-0.004": 22.3780030331,
			"-0.003": 21.0982463005,
			"-0.002": 19.6675325628,
			"-0.001": 19.8372658667,
			"0.0": 23.9766063975,
			"0.001": 32.0457669892,
			"0.002": 31.3836170993,
			"0.003": 28.48994684,
			"0.004": 28.0402501314,
			"0.005": 20.3264004667,
			"0.006": 7.86280337105,
			"0.007": 4.08532244736,
			"0.008": 3.76193572948,
			"0.009": 1.8793345674,
			"0.01": 2.82081576462,
			"0.011": 3.45931408579,
			"0.012": 5.95929127806,
			"0.013": 1.1637453601,
			"0.014": 0.014118856234,
			"0.015": 0.0,
			"0.016": 0.0,
			"0.017": 0.0,
			"0.018": 0.0,
			"0.019": 0.0,
			"0.02": 0.0,
			"0.021": 0.0,
			"0.022": 0.0,
			"0.023": 0.0,
			"0.024": 0.0,
			"0.025": 0.0
		}
	}
}
