{
	 "smiles": "CC1=CC2=C(C=C1)N=C1C=CC=CC1=C2Cl", 
	 "Tm": 395.15, 
	 "num_atms": 26, 
	 "gaussian": { 
		 "optdone": 1, 
		 "sigma_profile": "yes", 
		 "theory": "DFT", 
		 "functional": "B3LYP", 
		 "basiset": "6-31G**", 
		 "properties": { 
			 "R2extent": 4343.5794, 
			 "electric_dipole_moment_norm": 0.711677665801, 
			 "electric_quadrupole_moment_norm": 15.6658212948, 
			 "total_energy": -1054.48220224, 
			 "HOMO_LUMO_gap": 0.13222, 
			 "cosmo_polarized_energy": -6.36, 
			 "cosmo_cavitation_energy": 31.06, 
			 "cosmo_dispersion_energy": -23.34, 
			 "cosmo_repulsion_energy": 1.77, 
			 "cosmo_total_nonelectrostatic_energy": 9.48, 
			 "SMD_solvation_energy": 3.14 
		},
		"coords": [
			{
				"x": -0.1828361124,
				"y": -2.9177588634,
				"z": -4.2412063354,
				"element": "C" 
			},
			{
				"x": -0.4903776861,
				"y": -2.0426124934,
				"z": -3.0523326382,
				"element": "C" 
			},
			{
				"x": 0.3073840497,
				"y": -2.0387918966,
				"z": -1.9345377229,
				"element": "C" 
			},
			{
				"x": 0.0156907738,
				"y": -1.2096498955,
				"z": -0.8085731173,
				"element": "C" 
			},
			{
				"x": -1.1507436613,
				"y": -0.3547871866,
				"z": -0.8529780693,
				"element": "C" 
			},
			{
				"x": -1.9611507877,
				"y": -0.3823589583,
				"z": -2.0322874186,
				"element": "C" 
			},
			{
				"x": -1.6433047593,
				"y": -1.1919472244,
				"z": -3.0857294831,
				"element": "C" 
			},
			{
				"x": -1.5158076973,
				"y": 0.460523338,
				"z": 0.1451958405,
				"element": "N" 
			},
			{
				"x": -0.7607461813,
				"y": 0.4917235001,
				"z": 1.2540970641,
				"element": "C" 
			},
			{
				"x": -1.1603241649,
				"y": 1.3659401901,
				"z": 2.3129999387,
				"element": "C" 
			},
			{
				"x": -0.4348715649,
				"y": 1.4461554867,
				"z": 3.4712466244,
				"element": "C" 
			},
			{
				"x": 0.7374896806,
				"y": 0.6551055369,
				"z": 3.6420031853,
				"element": "C" 
			},
			{
				"x": 1.1592643683,
				"y": -0.1970213934,
				"z": 2.6547841771,
				"element": "C" 
			},
			{
				"x": 0.431144414,
				"y": -0.3103373965,
				"z": 1.4315554853,
				"element": "C" 
			},
			{
				"x": 0.783480461,
				"y": -1.1532864499,
				"z": 0.3644657822,
				"element": "C" 
			},
			{
				"x": 2.2196884065,
				"y": -2.1601525028,
				"z": 0.5032456384,
				"element": "Cl" 
			},
			{
				"x": -1.0093105122,
				"y": -3.6082709019,
				"z": -4.4478181841,
				"element": "H" 
			},
			{
				"x": 0.7205929731,
				"y": -3.5113298553,
				"z": -4.0803767078,
				"element": "H" 
			},
			{
				"x": -0.0364142278,
				"y": -2.3168697041,
				"z": -5.1467707821,
				"element": "H" 
			},
			{
				"x": 1.1831357857,
				"y": -2.6769622963,
				"z": -1.8944130297,
				"element": "H" 
			},
			{
				"x": -2.8311307203,
				"y": 0.2657342694,
				"z": -2.0460387551,
				"element": "H" 
			},
			{
				"x": -2.2720852594,
				"y": -1.1981680806,
				"z": -3.9727316324,
				"element": "H" 
			},
			{
				"x": -2.0573380398,
				"y": 1.954216005,
				"z": 2.1509968151,
				"element": "H" 
			},
			{
				"x": -0.7492794072,
				"y": 2.1141748746,
				"z": 4.2677514422,
				"element": "H" 
			},
			{
				"x": 1.3022383477,
				"y": 0.7298555426,
				"z": 4.5665278759,
				"element": "H" 
			},
			{
				"x": 2.0519115215,
				"y": -0.7963236444,
				"z": 2.7904240067,
				"element": "H" 
			}
		],
		 "valence_orbital": [ 
			{
				"type": "occ",
				"energy": -0.29102,
				"method": "rhf"
			},
			{
				"type": "occ",
				"energy": -0.26304,
				"method": "rhf"
			},
			{
				"type": "occ",
				"energy": -0.25847,
				"method": "rhf"
			},
			{
				"type": "occ",
				"energy": -0.24664,
				"method": "rhf"
			},
			{
				"type": "occ",
				"energy": -0.21139,
				"method": "rhf"
			},
			{
				"type": "unocc",
				"energy": -0.07917,
				"method": "rhf"
			},
			{
				"type": "unocc",
				"energy": -0.02419,
				"method": "rhf"
			},
			{
				"type": "unocc",
				"energy": 0.00045,
				"method": "rhf"
			},
			{
				"type": "unocc",
				"energy": 0.02866,
				"method": "rhf"
			},
			{
				"type": "unocc",
				"energy": 0.03061,
				"method": "rhf"
			}
		],
		"cosmo_sigma_profile": { 
			"-0.025": 0.0,
			"-0.024": 0.0,
			"-0.023": 0.0,
			"-0.022": 0.0,
			"-0.021": 0.0,
			"-0.02": 0.0,
			"-0.019": 0.0,
			"-0.018": 0.0,
			"-0.017": 0.0,
			"-0.016": 0.0,
			"-0.015": 0.0,
			"-0.014": 0.0,
			"-0.013": 0.0,
			"-0.012": 0.0,
			"-0.011": 0.0,
			"-0.01": 0.0,
			"-0.009": 0.0,
			"-0.008": 0.0,
			"-0.007": 1.59828233537,
			"-0.006": 10.5214135297,
			"-0.005": 16.7622223232,
			"-0.004": 20.8237983816,
			"-0.003": 16.5901703067,
			"-0.002": 18.1855224759,
			"-0.001": 20.652172542,
			"0.0": 31.0433536841,
			"0.001": 29.8180946839,
			"0.002": 28.0561665117,
			"0.003": 28.20487254,
			"0.004": 17.3370026216,
			"0.005": 2.3040594557,
			"0.006": 1.09952774542,
			"0.007": 1.91163409882,
			"0.008": 1.84173910743,
			"0.009": 0.713444284929,
			"0.01": 0.60721428132,
			"0.011": 0.950343832248,
			"0.012": 1.10389564628,
			"0.013": 0.51080238859,
			"0.014": 0.766781081471,
			"0.015": 0.494240021984,
			"0.016": 0.016051338107,
			"0.017": 0.0,
			"0.018": 0.0,
			"0.019": 0.0,
			"0.02": 0.0,
			"0.021": 0.0,
			"0.022": 0.0,
			"0.023": 0.0,
			"0.024": 0.0,
			"0.025": 0.0
		}
	}
}
