{
	 "smiles": "CC(=O)OC(OC(C)=O)C1=CC=CC(=C1)N(=O)=O", 
	 "Tm": 345.15, 
	 "num_atms": 29, 
	 "gaussian": { 
		 "optdone": 1, 
		 "sigma_profile": "yes", 
		 "theory": "DFT", 
		 "functional": "B3LYP", 
		 "basiset": "6-31G**", 
		 "properties": { 
			 "R2extent": 5969.5837, 
			 "electric_dipole_moment_norm": 6.85033838945, 
			 "electric_quadrupole_moment_norm": 18.8345745338, 
			 "total_energy": -931.821860205, 
			 "HOMO_LUMO_gap": 0.18701, 
			 "cosmo_polarized_energy": -15.77, 
			 "cosmo_cavitation_energy": 35.67, 
			 "cosmo_dispersion_energy": -24.33, 
			 "cosmo_repulsion_energy": 1.93, 
			 "cosmo_total_nonelectrostatic_energy": 13.28, 
			 "SMD_solvation_energy": 10.66 
		},
		"coords": [
			{
				"x": 0.5378704687,
				"y": 4.0808708312,
				"z": -1.9000271004,
				"element": "C" 
			},
			{
				"x": -0.3762585677,
				"y": 3.1935550233,
				"z": -1.0956356072,
				"element": "C" 
			},
			{
				"x": -1.5856918503,
				"y": 3.2218871808,
				"z": -1.1082983576,
				"element": "O" 
			},
			{
				"x": 0.3479742757,
				"y": 2.3282138125,
				"z": -0.3287487288,
				"element": "O" 
			},
			{
				"x": -0.3962299733,
				"y": 1.5408582838,
				"z": 0.6196954356,
				"element": "C" 
			},
			{
				"x": 0.4389180983,
				"y": 1.407546055,
				"z": 1.7558454465,
				"element": "O" 
			},
			{
				"x": 0.5031620444,
				"y": 2.498476334,
				"z": 2.5873585615,
				"element": "C" 
			},
			{
				"x": 1.4472930641,
				"y": 2.230405127,
				"z": 3.7298030517,
				"element": "C" 
			},
			{
				"x": -0.1236974233,
				"y": 3.5113925624,
				"z": 2.3975501529,
				"element": "O" 
			},
			{
				"x": -0.6886641646,
				"y": 0.1677342509,
				"z": 0.062190777,
				"element": "C" 
			},
			{
				"x": 0.2400846096,
				"y": -0.8756786179,
				"z": 0.166977847,
				"element": "C" 
			},
			{
				"x": -0.0364191492,
				"y": -2.127084261,
				"z": -0.3854766366,
				"element": "C" 
			},
			{
				"x": -1.2402880314,
				"y": -2.3525884227,
				"z": -1.0502629465,
				"element": "C" 
			},
			{
				"x": -2.1498164004,
				"y": -1.301902076,
				"z": -1.1457335962,
				"element": "C" 
			},
			{
				"x": -1.8978250113,
				"y": -0.0440295348,
				"z": -0.6037690491,
				"element": "C" 
			},
			{
				"x": -3.4288338633,
				"y": -1.5317166244,
				"z": -1.8420735451,
				"element": "N" 
			},
			{
				"x": -3.6190591679,
				"y": -2.6464190025,
				"z": -2.3278052948,
				"element": "O" 
			},
			{
				"x": -4.225971446,
				"y": -0.5974504163,
				"z": -1.8935291606,
				"element": "O" 
			},
			{
				"x": -0.0513075047,
				"y": 4.6523074125,
				"z": -2.6163369221,
				"element": "H" 
			},
			{
				"x": 1.2929879342,
				"y": 3.483139487,
				"z": -2.4171976062,
				"element": "H" 
			},
			{
				"x": 1.0627265448,
				"y": 4.765550203,
				"z": -1.2263325965,
				"element": "H" 
			},
			{
				"x": -1.307272537,
				"y": 2.0839776483,
				"z": 0.8717203476,
				"element": "H" 
			},
			{
				"x": 2.4586495126,
				"y": 2.0700597964,
				"z": 3.3437779652,
				"element": "H" 
			},
			{
				"x": 1.1510684421,
				"y": 1.3205153889,
				"z": 4.2593868855,
				"element": "H" 
			},
			{
				"x": 1.4416619677,
				"y": 3.0808484387,
				"z": 4.4104102166,
				"element": "H" 
			},
			{
				"x": 1.1729418012,
				"y": -0.7048030458,
				"z": 0.6927191295,
				"element": "H" 
			},
			{
				"x": 0.6873057295,
				"y": -2.9309516359,
				"z": -0.2960040675,
				"element": "H" 
			},
			{
				"x": -1.4866238347,
				"y": -3.3118607529,
				"z": -1.4875971545,
				"element": "H" 
			},
			{
				"x": -2.6263855677,
				"y": 0.7498465546,
				"z": -0.7162074473,
				"element": "H" 
			}
		],
		 "valence_orbital": [ 
			{
				"type": "occ",
				"energy": -0.2931,
				"method": "rhf"
			},
			{
				"type": "occ",
				"energy": -0.29079,
				"method": "rhf"
			},
			{
				"type": "occ",
				"energy": -0.28605,
				"method": "rhf"
			},
			{
				"type": "occ",
				"energy": -0.28514,
				"method": "rhf"
			},
			{
				"type": "occ",
				"energy": -0.27729,
				"method": "rhf"
			},
			{
				"type": "unocc",
				"energy": -0.09028,
				"method": "rhf"
			},
			{
				"type": "unocc",
				"energy": -0.03858,
				"method": "rhf"
			},
			{
				"type": "unocc",
				"energy": -0.00873,
				"method": "rhf"
			},
			{
				"type": "unocc",
				"energy": -0.00512,
				"method": "rhf"
			},
			{
				"type": "unocc",
				"energy": 0.00049,
				"method": "rhf"
			}
		],
		"cosmo_sigma_profile": { 
			"-0.025": 0.0,
			"-0.024": 0.0,
			"-0.023": 0.0,
			"-0.022": 0.0,
			"-0.021": 0.0,
			"-0.02": 0.0,
			"-0.019": 0.0,
			"-0.018": 0.0,
			"-0.017": 0.0,
			"-0.016": 0.0,
			"-0.015": 0.0,
			"-0.014": 0.0,
			"-0.013": 0.0,
			"-0.012": 0.0,
			"-0.011": 0.0,
			"-0.01": 0.0,
			"-0.009": 0.150509877982,
			"-0.008": 3.54666152317,
			"-0.007": 14.4131898109,
			"-0.006": 21.5372582875,
			"-0.005": 21.2866548359,
			"-0.004": 21.2480973548,
			"-0.003": 22.914336679,
			"-0.002": 27.696558392,
			"-0.001": 18.9811874862,
			"0.0": 19.4049321702,
			"0.001": 20.0875813937,
			"0.002": 14.582987428,
			"0.003": 10.2498315396,
			"0.004": 8.25614246034,
			"0.005": 7.61176364683,
			"0.006": 7.39536021525,
			"0.007": 12.7670399903,
			"0.008": 9.89026293011,
			"0.009": 7.9527843326,
			"0.01": 6.82654479048,
			"0.011": 5.44654225768,
			"0.012": 2.51481040898,
			"0.013": 0.0641745205295,
			"0.014": 0.0,
			"0.015": 0.0,
			"0.016": 0.0,
			"0.017": 0.0,
			"0.018": 0.0,
			"0.019": 0.0,
			"0.02": 0.0,
			"0.021": 0.0,
			"0.022": 0.0,
			"0.023": 0.0,
			"0.024": 0.0,
			"0.025": 0.0
		}
	}
}
