{
	 "smiles": "C=CCOC(=O)C1=C(C=CC=C1)C(=O)OCC=C", 
	 "Tm": 203.15, 
	 "num_atms": 32, 
	 "gaussian": { 
		 "optdone": 1, 
		 "sigma_profile": "yes", 
		 "theory": "DFT", 
		 "functional": "B3LYP", 
		 "basiset": "6-31G**", 
		 "properties": { 
			 "R2extent": 5600.3336, 
			 "electric_dipole_moment_norm": 3.27381330256, 
			 "electric_quadrupole_moment_norm": 11.2383194415, 
			 "total_energy": -842.786330255, 
			 "HOMO_LUMO_gap": 0.20174, 
			 "cosmo_polarized_energy": -13.24, 
			 "cosmo_cavitation_energy": 37.86, 
			 "cosmo_dispersion_energy": -25.55, 
			 "cosmo_repulsion_energy": 2.01, 
			 "cosmo_total_nonelectrostatic_energy": 14.32, 
			 "SMD_solvation_energy": 9.4 
		},
		"coords": [
			{
				"x": -0.0062926149,
				"y": 0.7986979506,
				"z": -4.3825092686,
				"element": "C" 
			},
			{
				"x": 0.5112125227,
				"y": 0.0421939915,
				"z": -3.4162477399,
				"element": "C" 
			},
			{
				"x": -0.0240568658,
				"y": -1.3100356601,
				"z": -3.0459293743,
				"element": "C" 
			},
			{
				"x": -0.1957853839,
				"y": -1.4373445896,
				"z": -1.6105239398,
				"element": "O" 
			},
			{
				"x": -1.3375967654,
				"y": -0.9360942555,
				"z": -1.0974283936,
				"element": "C" 
			},
			{
				"x": -2.2704046018,
				"y": -0.5337442495,
				"z": -1.7604415395,
				"element": "O" 
			},
			{
				"x": -1.3780049472,
				"y": -1.0502327783,
				"z": 0.39920759,
				"element": "C" 
			},
			{
				"x": -0.2810749934,
				"y": -0.8166544423,
				"z": 1.2547361194,
				"element": "C" 
			},
			{
				"x": -0.421818711,
				"y": -1.0536846534,
				"z": 2.6284625754,
				"element": "C" 
			},
			{
				"x": -1.6355237903,
				"y": -1.4902459132,
				"z": 3.1576825534,
				"element": "C" 
			},
			{
				"x": -2.7291882521,
				"y": -1.6878967915,
				"z": 2.3150223733,
				"element": "C" 
			},
			{
				"x": -2.5966587874,
				"y": -1.4669769015,
				"z": 0.945067534,
				"element": "C" 
			},
			{
				"x": 0.984051668,
				"y": -0.1900095909,
				"z": 0.7560563751,
				"element": "C" 
			},
			{
				"x": 1.0480336857,
				"y": 0.6313557311,
				"z": -0.1354179325,
				"element": "O" 
			},
			{
				"x": 2.0590075707,
				"y": -0.606511921,
				"z": 1.4632304076,
				"element": "O" 
			},
			{
				"x": 3.317963035,
				"y": 0.0188614358,
				"z": 1.1090337109,
				"element": "C" 
			},
			{
				"x": 4.3283420502,
				"y": -0.3617656522,
				"z": 2.1443682262,
				"element": "C" 
			},
			{
				"x": 5.503294153,
				"y": -0.9231713517,
				"z": 1.8634566338,
				"element": "C" 
			},
			{
				"x": 0.4269926641,
				"y": 1.758645506,
				"z": -4.6467275981,
				"element": "H" 
			},
			{
				"x": -0.8852135115,
				"y": 0.4882629714,
				"z": -4.9421511531,
				"element": "H" 
			},
			{
				"x": 1.3730734173,
				"y": 0.378759617,
				"z": -2.8444461376,
				"element": "H" 
			},
			{
				"x": 0.6937152323,
				"y": -2.1005097493,
				"z": -3.2872580536,
				"element": "H" 
			},
			{
				"x": -0.9739853859,
				"y": -1.5136535714,
				"z": -3.5458271925,
				"element": "H" 
			},
			{
				"x": 0.4258632608,
				"y": -0.8738574821,
				"z": 3.2796597992,
				"element": "H" 
			},
			{
				"x": -1.7274662934,
				"y": -1.6636672358,
				"z": 4.2256868524,
				"element": "H" 
			},
			{
				"x": -3.6814462876,
				"y": -2.0166040234,
				"z": 2.7203852703,
				"element": "H" 
			},
			{
				"x": -3.4336005188,
				"y": -1.6228024714,
				"z": 0.2728212157,
				"element": "H" 
			},
			{
				"x": 3.1628988236,
				"y": 1.1030996666,
				"z": 1.0676437087,
				"element": "H" 
			},
			{
				"x": 3.6152810642,
				"y": -0.3121794004,
				"z": 0.1089170011,
				"element": "H" 
			},
			{
				"x": 4.0646213954,
				"y": -0.1243649227,
				"z": 3.1739864981,
				"element": "H" 
			},
			{
				"x": 6.2281957541,
				"y": -1.147367863,
				"z": 2.6398793607,
				"element": "H" 
			},
			{
				"x": 5.786771413,
				"y": -1.1737013999,
				"z": 0.8440045177,
				"element": "H" 
			}
		],
		 "valence_orbital": [ 
			{
				"type": "occ",
				"energy": -0.28051,
				"method": "rhf"
			},
			{
				"type": "occ",
				"energy": -0.26844,
				"method": "rhf"
			},
			{
				"type": "occ",
				"energy": -0.26379,
				"method": "rhf"
			},
			{
				"type": "occ",
				"energy": -0.25797,
				"method": "rhf"
			},
			{
				"type": "occ",
				"energy": -0.25592,
				"method": "rhf"
			},
			{
				"type": "unocc",
				"energy": -0.05418,
				"method": "rhf"
			},
			{
				"type": "unocc",
				"energy": -0.026,
				"method": "rhf"
			},
			{
				"type": "unocc",
				"energy": -0.00021,
				"method": "rhf"
			},
			{
				"type": "unocc",
				"energy": 0.01538,
				"method": "rhf"
			},
			{
				"type": "unocc",
				"energy": 0.03486,
				"method": "rhf"
			}
		],
		"cosmo_sigma_profile": { 
			"-0.025": 0.0,
			"-0.024": 0.0,
			"-0.023": 0.0,
			"-0.022": 0.0,
			"-0.021": 0.0,
			"-0.02": 0.0,
			"-0.019": 0.0,
			"-0.018": 0.0,
			"-0.017": 0.0,
			"-0.016": 0.0,
			"-0.015": 0.0,
			"-0.014": 0.0,
			"-0.013": 0.0,
			"-0.012": 0.0,
			"-0.011": 0.0,
			"-0.01": 0.0,
			"-0.009": 0.0,
			"-0.008": 0.309663080968,
			"-0.007": 6.49982281793,
			"-0.006": 21.8502186669,
			"-0.005": 26.1815963718,
			"-0.004": 26.2341278725,
			"-0.003": 28.7818022588,
			"-0.002": 21.4485482852,
			"-0.001": 19.7615872801,
			"0.0": 19.4379753454,
			"0.001": 22.9332561034,
			"0.002": 25.779043684,
			"0.003": 19.1250450057,
			"0.004": 13.8810770437,
			"0.005": 12.0913865942,
			"0.006": 8.95676330976,
			"0.007": 6.68742200159,
			"0.008": 5.13740319809,
			"0.009": 4.52871453073,
			"0.01": 3.37111685396,
			"0.011": 6.0450333769,
			"0.012": 2.96968896776,
			"0.013": 0.0661207325535,
			"0.014": 0.0,
			"0.015": 0.0,
			"0.016": 0.0,
			"0.017": 0.0,
			"0.018": 0.0,
			"0.019": 0.0,
			"0.02": 0.0,
			"0.021": 0.0,
			"0.022": 0.0,
			"0.023": 0.0,
			"0.024": 0.0,
			"0.025": 0.0
		}
	}
}
