{
	 "smiles": "ClCC(=O)NC1=CC=C(OCC2=CC=CC=C2)C=C1", 
	 "Tm": 392.15, 
	 "num_atms": 33, 
	 "gaussian": { 
		 "optdone": 1, 
		 "sigma_profile": "yes", 
		 "theory": "DFT", 
		 "functional": "B3LYP", 
		 "basiset": "6-31G**", 
		 "properties": { 
			 "R2extent": 9380.4786, 
			 "electric_dipole_moment_norm": 2.91485410613, 
			 "electric_quadrupole_moment_norm": 3.08008484786, 
			 "total_energy": -1245.43614194, 
			 "HOMO_LUMO_gap": 0.19338, 
			 "cosmo_polarized_energy": -13.7, 
			 "cosmo_cavitation_energy": 39.08, 
			 "cosmo_dispersion_energy": -28.19, 
			 "cosmo_repulsion_energy": 2.19, 
			 "cosmo_total_nonelectrostatic_energy": 13.08, 
			 "SMD_solvation_energy": 6.89 
		},
		"coords": [
			{
				"x": -5.0636262863,
				"y": -0.885735736,
				"z": 3.7564812365,
				"element": "Cl" 
			},
			{
				"x": -4.6145886806,
				"y": 0.876776586,
				"z": 3.7619239847,
				"element": "C" 
			},
			{
				"x": -3.3700170685,
				"y": 1.2899762786,
				"z": 2.9660324682,
				"element": "C" 
			},
			{
				"x": -3.0864328779,
				"y": 2.481646145,
				"z": 2.9864110074,
				"element": "O" 
			},
			{
				"x": -2.6967298681,
				"y": 0.3081139512,
				"z": 2.3137902365,
				"element": "N" 
			},
			{
				"x": -1.5319000723,
				"y": 0.4203144427,
				"z": 1.5162457045,
				"element": "C" 
			},
			{
				"x": -1.024220572,
				"y": -0.7511360278,
				"z": 0.9450900714,
				"element": "C" 
			},
			{
				"x": 0.1179310414,
				"y": -0.7292963992,
				"z": 0.14495728,
				"element": "C" 
			},
			{
				"x": 0.7733116685,
				"y": 0.4843151173,
				"z": -0.0882487131,
				"element": "C" 
			},
			{
				"x": 1.9071339981,
				"y": 0.6343094599,
				"z": -0.8444152253,
				"element": "O" 
			},
			{
				"x": 2.5853648807,
				"y": -0.5266195622,
				"z": -1.3155522668,
				"element": "C" 
			},
			{
				"x": 1.9509905788,
				"y": -1.1698166598,
				"z": -2.5348748895,
				"element": "C" 
			},
			{
				"x": 2.1119536182,
				"y": -2.5408694652,
				"z": -2.766801769,
				"element": "C" 
			},
			{
				"x": 1.5861084498,
				"y": -3.1331204245,
				"z": -3.916371494,
				"element": "C" 
			},
			{
				"x": 0.8849739186,
				"y": -2.3591246546,
				"z": -4.8424858065,
				"element": "C" 
			},
			{
				"x": 0.7161010891,
				"y": -0.9916791848,
				"z": -4.6136040751,
				"element": "C" 
			},
			{
				"x": 1.2492543537,
				"y": -0.3989424099,
				"z": -3.4687750915,
				"element": "C" 
			},
			{
				"x": 0.2637946235,
				"y": 1.659021628,
				"z": 0.4799802291,
				"element": "C" 
			},
			{
				"x": -0.8761395376,
				"y": 1.6387154928,
				"z": 1.2743588284,
				"element": "C" 
			},
			{
				"x": -4.4636814816,
				"y": 1.1638475199,
				"z": 4.8026680394,
				"element": "H" 
			},
			{
				"x": -5.4696248895,
				"y": 1.4244158924,
				"z": 3.3652310262,
				"element": "H" 
			},
			{
				"x": -3.0776287137,
				"y": -0.6245356804,
				"z": 2.4086938049,
				"element": "H" 
			},
			{
				"x": -1.5285060441,
				"y": -1.6992562228,
				"z": 1.1176604498,
				"element": "H" 
			},
			{
				"x": 0.4662877664,
				"y": -1.6512572216,
				"z": -0.3034184752,
				"element": "H" 
			},
			{
				"x": 3.5884780682,
				"y": -0.1637241343,
				"z": -1.5661141623,
				"element": "H" 
			},
			{
				"x": 2.6968585733,
				"y": -1.2610387576,
				"z": -0.506326965,
				"element": "H" 
			},
			{
				"x": 2.6514763296,
				"y": -3.1501057885,
				"z": -2.0445258724,
				"element": "H" 
			},
			{
				"x": 1.7173863518,
				"y": -4.1984910396,
				"z": -4.0835186023,
				"element": "H" 
			},
			{
				"x": 0.4696488781,
				"y": -2.8188553153,
				"z": -5.734629286,
				"element": "H" 
			},
			{
				"x": 0.1681904306,
				"y": -0.3845411397,
				"z": -5.3287366234,
				"element": "H" 
			},
			{
				"x": 1.1168080114,
				"y": 0.6629059771,
				"z": -3.2865556609,
				"element": "H" 
			},
			{
				"x": 0.7841071127,
				"y": 2.592246876,
				"z": 0.2904670637,
				"element": "H" 
			},
			{
				"x": -1.2623636503,
				"y": 2.5485404566,
				"z": 1.7118635476,
				"element": "H" 
			}
		],
		 "valence_orbital": [ 
			{
				"type": "occ",
				"energy": -0.26207,
				"method": "rhf"
			},
			{
				"type": "occ",
				"energy": -0.25587,
				"method": "rhf"
			},
			{
				"type": "occ",
				"energy": -0.25437,
				"method": "rhf"
			},
			{
				"type": "occ",
				"energy": -0.24739,
				"method": "rhf"
			},
			{
				"type": "occ",
				"energy": -0.20639,
				"method": "rhf"
			},
			{
				"type": "unocc",
				"energy": -0.01301,
				"method": "rhf"
			},
			{
				"type": "unocc",
				"energy": -0.00996,
				"method": "rhf"
			},
			{
				"type": "unocc",
				"energy": -0.00702,
				"method": "rhf"
			},
			{
				"type": "unocc",
				"energy": -0.00148,
				"method": "rhf"
			},
			{
				"type": "unocc",
				"energy": 0.00983,
				"method": "rhf"
			}
		],
		"cosmo_sigma_profile": { 
			"-0.025": 0.0,
			"-0.024": 0.0,
			"-0.023": 0.0,
			"-0.022": 0.0,
			"-0.021": 0.0,
			"-0.02": 0.0,
			"-0.019": 0.0,
			"-0.018": 0.0,
			"-0.017": 0.0,
			"-0.016": 0.0,
			"-0.015": 0.0,
			"-0.014": 0.0,
			"-0.013": 0.750140285128,
			"-0.012": 1.16493076774,
			"-0.011": 0.712414122545,
			"-0.01": 1.1844483345,
			"-0.009": 4.67588840529,
			"-0.008": 5.72035610451,
			"-0.007": 6.930550781,
			"-0.006": 17.6610558873,
			"-0.005": 25.9723131221,
			"-0.004": 25.3651592051,
			"-0.003": 21.6386545335,
			"-0.002": 16.9913632788,
			"-0.001": 18.054857211,
			"0.0": 18.0638549444,
			"0.001": 19.4435390448,
			"0.002": 22.0989876946,
			"0.003": 24.734090674,
			"0.004": 27.2914671087,
			"0.005": 27.1560974057,
			"0.006": 11.3885597497,
			"0.007": 1.46032881663,
			"0.008": 2.81503417945,
			"0.009": 3.33726927228,
			"0.01": 2.09165166236,
			"0.011": 2.03046225017,
			"0.012": 3.37579050403,
			"0.013": 2.28453103805,
			"0.014": 0.206912727576,
			"0.015": 0.0,
			"0.016": 0.0,
			"0.017": 0.0,
			"0.018": 0.0,
			"0.019": 0.0,
			"0.02": 0.0,
			"0.021": 0.0,
			"0.022": 0.0,
			"0.023": 0.0,
			"0.024": 0.0,
			"0.0": 0.0
		}
	}
}
