{
	 "smiles": "CC(C)(C)OC(=O)N[C@@H](CC(=O)OCC1=CC=CC=C1)C(O)=O", 
	 "Tm": 384.15, 
	 "num_atms": 44, 
	 "gaussian": { 
		 "optdone": 1, 
		 "sigma_profile": "yes", 
		 "theory": "DFT", 
		 "functional": "B3LYP", 
		 "basiset": "6-31G**", 
		 "properties": { 
			 "R2extent": 12235.2576, 
			 "electric_dipole_moment_norm": 5.71493402499, 
			 "electric_quadrupole_moment_norm": 22.9061548676, 
			 "total_energy": -1128.52063139, 
			 "HOMO_LUMO_gap": 0.22481, 
			 "cosmo_polarized_energy": -20.06, 
			 "cosmo_cavitation_energy": 47.36, 
			 "cosmo_dispersion_energy": -32.67, 
			 "cosmo_repulsion_energy": 2.52, 
			 "cosmo_total_nonelectrostatic_energy": 17.2, 
			 "SMD_solvation_energy": 9.7 
		},
		"coords": [
			{
				"x": -3.0466000271,
				"y": -4.4918946126,
				"z": 3.2941441494,
				"element": "C" 
			},
			{
				"x": -1.6840764796,
				"y": -4.0420773369,
				"z": 3.8309467554,
				"element": "C" 
			},
			{
				"x": -1.7020567274,
				"y": -3.9544118245,
				"z": 5.3590480392,
				"element": "C" 
			},
			{
				"x": -0.5396595712,
				"y": -4.9398974043,
				"z": 3.3494718945,
				"element": "C" 
			},
			{
				"x": -1.4265351685,
				"y": -2.6456852552,
				"z": 3.4360863267,
				"element": "O" 
			},
			{
				"x": -1.366941143,
				"y": -2.29052759,
				"z": 2.1377963417,
				"element": "C" 
			},
			{
				"x": -1.4527896559,
				"y": -3.0326936166,
				"z": 1.1735971368,
				"element": "O" 
			},
			{
				"x": -1.1142367278,
				"y": -0.9312602997,
				"z": 2.0523621618,
				"element": "N" 
			},
			{
				"x": -1.4521601753,
				"y": -0.2224563905,
				"z": 0.8293841883,
				"element": "C" 
			},
			{
				"x": -0.6041264103,
				"y": -0.7441203589,
				"z": -0.3591004376,
				"element": "C" 
			},
			{
				"x": -0.3988500513,
				"y": 0.2641702684,
				"z": -1.4637188891,
				"element": "C" 
			},
			{
				"x": -1.1800429287,
				"y": 1.1719461206,
				"z": -1.7361648946,
				"element": "O" 
			},
			{
				"x": 0.729272264,
				"y": 0.042327172,
				"z": -2.1352360405,
				"element": "O" 
			},
			{
				"x": 1.0278504958,
				"y": 0.9192950726,
				"z": -3.2719209631,
				"element": "C" 
			},
			{
				"x": 1.8407763786,
				"y": 2.1148455069,
				"z": -2.8495085155,
				"element": "C" 
			},
			{
				"x": 3.2365704957,
				"y": 2.0243264978,
				"z": -2.7698084231,
				"element": "C" 
			},
			{
				"x": 3.9960130082,
				"y": 3.1234529601,
				"z": -2.3692955411,
				"element": "C" 
			},
			{
				"x": 3.3646940687,
				"y": 4.3266083183,
				"z": -2.0463341932,
				"element": "C" 
			},
			{
				"x": 1.9739427932,
				"y": 4.4258722397,
				"z": -2.1241599494,
				"element": "C" 
			},
			{
				"x": 1.2146108135,
				"y": 3.3253336114,
				"z": -2.5226377291,
				"element": "C" 
			},
			{
				"x": -2.9919923411,
				"y": -0.2354234169,
				"z": 0.594257817,
				"element": "C" 
			},
			{
				"x": -3.4257804482,
				"y": 0.4033115236,
				"z": -0.496616498,
				"element": "O" 
			},
			{
				"x": -3.75070817,
				"y": -0.7520453513,
				"z": 1.3807078583,
				"element": "O" 
			},
			{
				"x": -3.2924916077,
				"y": -5.4778832417,
				"z": 3.7019678017,
				"element": "H" 
			},
			{
				"x": -3.0404196892,
				"y": -4.5513691655,
				"z": 2.2057293567,
				"element": "H" 
			},
			{
				"x": -3.8259617902,
				"y": -3.7882451927,
				"z": 3.6012145909,
				"element": "H" 
			},
			{
				"x": -2.4931198085,
				"y": -3.278970268,
				"z": 5.6971354476,
				"element": "H" 
			},
			{
				"x": -0.7449498012,
				"y": -3.582575136,
				"z": 5.7366290976,
				"element": "H" 
			},
			{
				"x": -1.8836205557,
				"y": -4.9438581946,
				"z": 5.7890482699,
				"element": "H" 
			},
			{
				"x": -0.6792473965,
				"y": -5.9531361684,
				"z": 3.7402014213,
				"element": "H" 
			},
			{
				"x": -0.5098344207,
				"y": -4.9839353295,
				"z": 2.2604967411,
				"element": "H" 
			},
			{
				"x": 0.4203390925,
				"y": -4.5635282568,
				"z": 3.7172072183,
				"element": "H" 
			},
			{
				"x": -1.3505967631,
				"y": -0.4389099676,
				"z": 2.9037821283,
				"element": "H" 
			},
			{
				"x": -1.177146691,
				"y": 0.8267172134,
				"z": 0.9956777187,
				"element": "H" 
			},
			{
				"x": 0.3751671841,
				"y": -1.0465703727,
				"z": 0.0171181079,
				"element": "H" 
			},
			{
				"x": -1.0532192436,
				"y": -1.6484046241,
				"z": -0.7811633168,
				"element": "H" 
			},
			{
				"x": 1.5894602974,
				"y": 0.2738095966,
				"z": -3.949143848,
				"element": "H" 
			},
			{
				"x": 0.0853611755,
				"y": 1.2133486393,
				"z": -3.7355615779,
				"element": "H" 
			},
			{
				"x": 3.7289868059,
				"y": 1.0892050585,
				"z": -3.0251282192,
				"element": "H" 
			},
			{
				"x": 5.0776950694,
				"y": 3.0430238894,
				"z": -2.3137119275,
				"element": "H" 
			},
			{
				"x": 3.9551063917,
				"y": 5.1847455164,
				"z": -1.7383124057,
				"element": "H" 
			},
			{
				"x": 1.4801918646,
				"y": 5.3610920292,
				"z": -1.8766280084,
				"element": "H" 
			},
			{
				"x": 0.1324545021,
				"y": 3.3952876911,
				"z": -2.5748499189,
				"element": "H" 
			},
			{
				"x": -2.6733289083,
				"y": 0.8043604496,
				"z": -0.9956092723,
				"element": "H" 
			}
		],
		 "valence_orbital": [ 
			{
				"type": "occ",
				"energy": -0.27175,
				"method": "rhf"
			},
			{
				"type": "occ",
				"energy": -0.2651,
				"method": "rhf"
			},
			{
				"type": "occ",
				"energy": -0.26372,
				"method": "rhf"
			},
			{
				"type": "occ",
				"energy": -0.26305,
				"method": "rhf"
			},
			{
				"type": "occ",
				"energy": -0.25164,
				"method": "rhf"
			},
			{
				"type": "unocc",
				"energy": -0.02683,
				"method": "rhf"
			},
			{
				"type": "unocc",
				"energy": -0.01708,
				"method": "rhf"
			},
			{
				"type": "unocc",
				"energy": -0.01431,
				"method": "rhf"
			},
			{
				"type": "unocc",
				"energy": 0.02093,
				"method": "rhf"
			},
			{
				"type": "unocc",
				"energy": 0.04801,
				"method": "rhf"
			}
		],
		"cosmo_sigma_profile": { 
			"-0.025": 0.0,
			"-0.024": 0.0,
			"-0.023": 0.0,
			"-0.022": 0.0,
			"-0.021": 0.0,
			"-0.02": 0.0,
			"-0.019": 0.0,
			"-0.018": 0.0,
			"-0.017": 0.0,
			"-0.016": 0.0,
			"-0.015": 0.0761864151314,
			"-0.014": 0.974138075245,
			"-0.013": 1.38312058469,
			"-0.012": 0.943403503947,
			"-0.011": 1.35345882162,
			"-0.01": 1.97410654515,
			"-0.009": 4.53817078247,
			"-0.008": 5.41435548997,
			"-0.007": 9.00207244056,
			"-0.006": 16.9524497226,
			"-0.005": 19.8207041788,
			"-0.004": 34.63588737,
			"-0.003": 31.2648802722,
			"-0.002": 29.4567455029,
			"-0.001": 27.8396641468,
			"0.0": 34.1656666332,
			"0.001": 28.1811844701,
			"0.002": 17.0331305899,
			"0.003": 18.601110246,
			"0.004": 17.7704899124,
			"0.005": 19.4043740961,
			"0.006": 11.5384009792,
			"0.007": 8.26463098746,
			"0.008": 5.53757456729,
			"0.009": 6.33793841492,
			"0.01": 5.51956976484,
			"0.011": 7.0507418463,
			"0.012": 5.62726167646,
			"0.013": 2.15198392873,
			"0.014": 0.164363391975,
			"0.015": 0.0,
			"0.016": 0.0,
			"0.017": 0.0,
			"0.018": 0.0,
			"0.019": 0.0,
			"0.02": 0.0,
			"0.021": 0.0,
			"0.022": 0.0,
			"0.023": 0.0,
			"0.024": 0.0,
			"0.025": 0.0
		}
	}
}
