{
	 "smiles": "NC1=NC(CC2=CC=CC=C2)=NC=C1", 
	 "Tm": 417.15, 
	 "num_atms": 25, 
	 "gaussian": { 
		 "optdone": 1, 
		 "sigma_profile": "yes", 
		 "theory": "DFT", 
		 "functional": "B3LYP", 
		 "basiset": "6-31G**", 
		 "properties": { 
			 "R2extent": 3221.9922, 
			 "electric_dipole_moment_norm": 3.48310299015, 
			 "electric_quadrupole_moment_norm": 10.0257919263, 
			 "total_energy": -590.071834183, 
			 "HOMO_LUMO_gap": 0.21106, 
			 "cosmo_polarized_energy": -13.1, 
			 "cosmo_cavitation_energy": 29.38, 
			 "cosmo_dispersion_energy": -21.21, 
			 "cosmo_repulsion_energy": 1.69, 
			 "cosmo_total_nonelectrostatic_energy": 9.86, 
			 "SMD_solvation_energy": 2.32 
		},
		"coords": [
			{
				"x": 0.1297839911,
				"y": -2.9253388936,
				"z": 2.3911199802,
				"element": "N" 
			},
			{
				"x": -0.5856142453,
				"y": -1.8436005053,
				"z": 1.9544151354,
				"element": "C" 
			},
			{
				"x": -0.6355253027,
				"y": -1.6559363683,
				"z": 0.6249726178,
				"element": "N" 
			},
			{
				"x": -1.3659332615,
				"y": -0.6256253767,
				"z": 0.1811883418,
				"element": "C" 
			},
			{
				"x": -1.3858627772,
				"y": -0.4011289868,
				"z": -1.317917449,
				"element": "C" 
			},
			{
				"x": -0.2916680491,
				"y": 0.5569645647,
				"z": -1.7653177667,
				"element": "C" 
			},
			{
				"x": 0.8401841761,
				"y": 0.0878483647,
				"z": -2.4416309272,
				"element": "C" 
			},
			{
				"x": 1.8470334863,
				"y": 0.9678929033,
				"z": -2.8448274205,
				"element": "C" 
			},
			{
				"x": 1.7352975061,
				"y": 2.3316438522,
				"z": -2.5720493988,
				"element": "C" 
			},
			{
				"x": 0.6115338509,
				"y": 2.8087658237,
				"z": -1.8924889529,
				"element": "C" 
			},
			{
				"x": -0.3932366128,
				"y": 1.9284326256,
				"z": -1.4919010805,
				"element": "C" 
			},
			{
				"x": -2.0546015517,
				"y": 0.2450881128,
				"z": 0.9324497102,
				"element": "N" 
			},
			{
				"x": -1.9869999207,
				"y": 0.0439498478,
				"z": 2.2594094583,
				"element": "C" 
			},
			{
				"x": -1.2699279758,
				"y": -0.9860095145,
				"z": 2.8402717413,
				"element": "C" 
			},
			{
				"x": 0.431047707,
				"y": -2.9596981844,
				"z": 3.3518274836,
				"element": "H" 
			},
			{
				"x": 0.7321692669,
				"y": -3.3575305972,
				"z": 1.7062770226,
				"element": "H" 
			},
			{
				"x": -2.365740083,
				"y": 0.0058066228,
				"z": -1.5849533184,
				"element": "H" 
			},
			{
				"x": -1.2587472892,
				"y": -1.365653767,
				"z": -1.8154302125,
				"element": "H" 
			},
			{
				"x": 0.9319226408,
				"y": -0.9740691561,
				"z": -2.6549425587,
				"element": "H" 
			},
			{
				"x": 2.7169860972,
				"y": 0.5868255581,
				"z": -3.37290226,
				"element": "H" 
			},
			{
				"x": 2.5160702823,
				"y": 3.0182212518,
				"z": -2.8872268968,
				"element": "H" 
			},
			{
				"x": 0.5166275363,
				"y": 3.8694326982,
				"z": -1.6759197809,
				"element": "H" 
			},
			{
				"x": -1.2618498376,
				"y": 2.2964550771,
				"z": -0.9531486793,
				"element": "H" 
			},
			{
				"x": -2.5408491383,
				"y": 0.7460514853,
				"z": 2.881031488,
				"element": "H" 
			},
			{
				"x": -1.2417004958,
				"y": -1.1289874385,
				"z": 3.9153937231,
				"element": "H" 
			}
		],
		 "valence_orbital": [ 
			{
				"type": "occ",
				"energy": -0.28054,
				"method": "rhf"
			},
			{
				"type": "occ",
				"energy": -0.2431,
				"method": "rhf"
			},
			{
				"type": "occ",
				"energy": -0.23903,
				"method": "rhf"
			},
			{
				"type": "occ",
				"energy": -0.23473,
				"method": "rhf"
			},
			{
				"type": "occ",
				"energy": -0.23014,
				"method": "rhf"
			},
			{
				"type": "unocc",
				"energy": -0.01908,
				"method": "rhf"
			},
			{
				"type": "unocc",
				"energy": -0.00751,
				"method": "rhf"
			},
			{
				"type": "unocc",
				"energy": 0.01028,
				"method": "rhf"
			},
			{
				"type": "unocc",
				"energy": 0.01615,
				"method": "rhf"
			},
			{
				"type": "unocc",
				"energy": 0.07749,
				"method": "rhf"
			}
		],
		"cosmo_sigma_profile": { 
			"-0.025": 0.0,
			"-0.024": 0.0,
			"-0.023": 0.0,
			"-0.022": 0.0,
			"-0.021": 0.0,
			"-0.02": 0.0,
			"-0.019": 0.0,
			"-0.018": 0.0,
			"-0.017": 0.0,
			"-0.016": 0.0,
			"-0.015": 0.14791552352,
			"-0.014": 1.11315279862,
			"-0.013": 2.52647388137,
			"-0.012": 2.98532731277,
			"-0.011": 1.75752575006,
			"-0.01": 2.5618091788,
			"-0.009": 2.57357034015,
			"-0.008": 3.22885908921,
			"-0.007": 4.30875790994,
			"-0.006": 7.25763970728,
			"-0.005": 15.380728976,
			"-0.004": 16.665909253,
			"-0.003": 18.0350869209,
			"-0.002": 14.707816935,
			"-0.001": 16.1848149731,
			"0.0": 14.6280847043,
			"0.001": 16.4453504969,
			"0.002": 16.5116072165,
			"0.003": 15.3106152571,
			"0.004": 13.1501271365,
			"0.005": 14.8224384357,
			"0.006": 14.9264783822,
			"0.007": 4.59249308738,
			"0.008": 3.6549871829,
			"0.009": 2.3846039616,
			"0.01": 1.94332148906,
			"0.011": 1.30103201444,
			"0.012": 2.04828199747,
			"0.013": 1.19356192476,
			"0.014": 0.931628043795,
			"0.015": 0.525567062986,
			"0.016": 0.459844263982,
			"0.017": 0.00856272847851,
			"0.018": 0.0,
			"0.019": 0.0,
			"0.02": 0.0,
			"0.021": 0.0,
			"0.022": 0.0,
			"0.023": 0.0,
			"0.024": 0.0,
			"0.025": 0.0
		}
	}
}
