{
	 "smiles": "C1=CC=C(C=C1)C1=CC(=CC=C1)C1=CC=CC=C1", 
	 "Tm": 360.15, 
	 "num_atms": 32, 
	 "gaussian": { 
		 "optdone": 1, 
		 "sigma_profile": "yes", 
		 "theory": "DFT", 
		 "functional": "B3LYP", 
		 "basiset": "6-31G**", 
		 "properties": { 
			 "R2extent": 6379.5821, 
			 "electric_dipole_moment_norm": 0.0457392610347, 
			 "electric_quadrupole_moment_norm": 9.29880050114, 
			 "total_energy": -694.37047889, 
			 "HOMO_LUMO_gap": 0.1887, 
			 "cosmo_polarized_energy": -6.81, 
			 "cosmo_cavitation_energy": 35.71, 
			 "cosmo_dispersion_energy": -25.88, 
			 "cosmo_repulsion_energy": 1.97, 
			 "cosmo_total_nonelectrostatic_energy": 11.79, 
			 "SMD_solvation_energy": 5.56 
		},
		"coords": [
			{
				"x": 5.7707063623,
				"y": 0.5181293249,
				"z": -0.9419573359,
				"element": "C" 
			},
			{
				"x": 5.041785624,
				"y": -0.6704520335,
				"z": -0.8697902589,
				"element": "C" 
			},
			{
				"x": 3.6536518605,
				"y": -0.6369173864,
				"z": -0.7432053292,
				"element": "C" 
			},
			{
				"x": 2.9630776453,
				"y": 0.5856280421,
				"z": -0.684208317,
				"element": "C" 
			},
			{
				"x": 3.7104165039,
				"y": 1.7735244962,
				"z": -0.757900568,
				"element": "C" 
			},
			{
				"x": 5.0984003616,
				"y": 1.7404853855,
				"z": -0.8858308686,
				"element": "C" 
			},
			{
				"x": 1.4835005376,
				"y": 0.6235358408,
				"z": -0.5479641046,
				"element": "C" 
			},
			{
				"x": 0.8148731918,
				"y": -0.2981816299,
				"z": 0.2715700906,
				"element": "C" 
			},
			{
				"x": -0.5809723282,
				"y": -0.2907384854,
				"z": 0.4121545518,
				"element": "C" 
			},
			{
				"x": -1.3173312713,
				"y": 0.674344303,
				"z": -0.2948749086,
				"element": "C" 
			},
			{
				"x": -0.6685304577,
				"y": 1.5972828241,
				"z": -1.1131394317,
				"element": "C" 
			},
			{
				"x": 0.7190204933,
				"y": 1.5762040623,
				"z": -1.2418681752,
				"element": "C" 
			},
			{
				"x": -1.2611457246,
				"y": -1.2747368693,
				"z": 1.2943454239,
				"element": "C" 
			},
			{
				"x": -0.6981113647,
				"y": -1.6547653448,
				"z": 2.5246091233,
				"element": "C" 
			},
			{
				"x": -1.3371576677,
				"y": -2.579032146,
				"z": 3.3500985961,
				"element": "C" 
			},
			{
				"x": -2.5547619305,
				"y": -3.1430093262,
				"z": 2.9645744441,
				"element": "C" 
			},
			{
				"x": -3.1270229779,
				"y": -2.7743248516,
				"z": 1.7455998463,
				"element": "C" 
			},
			{
				"x": -2.486987179,
				"y": -1.8510247681,
				"z": 0.9198775636,
				"element": "C" 
			},
			{
				"x": 6.8520126666,
				"y": 0.4920871208,
				"z": -1.041225576,
				"element": "H" 
			},
			{
				"x": 5.5537960616,
				"y": -1.6273013675,
				"z": -0.9214632874,
				"element": "H" 
			},
			{
				"x": 3.0940475152,
				"y": -1.567269783,
				"z": -0.7153277806,
				"element": "H" 
			},
			{
				"x": 3.1996380806,
				"y": 2.7295248804,
				"z": -0.6887412376,
				"element": "H" 
			},
			{
				"x": 5.6563116298,
				"y": 2.6715787295,
				"z": -0.9328257102,
				"element": "H" 
			},
			{
				"x": 1.3948136707,
				"y": -1.0392510635,
				"z": 0.8130019205,
				"element": "H" 
			},
			{
				"x": -2.3962931559,
				"y": 0.7161549103,
				"z": -0.1809273853,
				"element": "H" 
			},
			{
				"x": -1.2489243847,
				"y": 2.3389019614,
				"z": -1.6549009559,
				"element": "H" 
			},
			{
				"x": 1.2123430101,
				"y": 2.2825968541,
				"z": -1.9025670348,
				"element": "H" 
			},
			{
				"x": 0.2350282611,
				"y": -1.2018628513,
				"z": 2.8465231588,
				"element": "H" 
			},
			{
				"x": -0.8872363586,
				"y": -2.8519767521,
				"z": 4.3006033692,
				"element": "H" 
			},
			{
				"x": -3.0529388207,
				"y": -3.8625576691,
				"z": 3.6078686264,
				"element": "H" 
			},
			{
				"x": -4.070153617,
				"y": -3.2130470345,
				"z": 1.4318547112,
				"element": "H" 
			},
			{
				"x": -2.9274562375,
				"y": -1.5907293732,
				"z": -0.0381631604,
				"element": "H" 
			}
		],
		 "valence_orbital": [ 
			{
				"type": "occ",
				"energy": -0.26457,
				"method": "rhf"
			},
			{
				"type": "occ",
				"energy": -0.24942,
				"method": "rhf"
			},
			{
				"type": "occ",
				"energy": -0.24934,
				"method": "rhf"
			},
			{
				"type": "occ",
				"energy": -0.22937,
				"method": "rhf"
			},
			{
				"type": "occ",
				"energy": -0.21959,
				"method": "rhf"
			},
			{
				"type": "unocc",
				"energy": -0.03089,
				"method": "rhf"
			},
			{
				"type": "unocc",
				"energy": -0.0204,
				"method": "rhf"
			},
			{
				"type": "unocc",
				"energy": -0.00103,
				"method": "rhf"
			},
			{
				"type": "unocc",
				"energy": -0.00069,
				"method": "rhf"
			},
			{
				"type": "unocc",
				"energy": 0.01914,
				"method": "rhf"
			}
		],
		"cosmo_sigma_profile": { 
			"-0.025": 0.0,
			"-0.024": 0.0,
			"-0.023": 0.0,
			"-0.022": 0.0,
			"-0.021": 0.0,
			"-0.02": 0.0,
			"-0.019": 0.0,
			"-0.018": 0.0,
			"-0.017": 0.0,
			"-0.016": 0.0,
			"-0.015": 0.0,
			"-0.014": 0.0,
			"-0.013": 0.0,
			"-0.012": 0.0,
			"-0.011": 0.0,
			"-0.01": 0.0,
			"-0.009": 0.0,
			"-0.008": 0.0,
			"-0.007": 0.0,
			"-0.006": 9.42375420619,
			"-0.005": 31.7054563115,
			"-0.004": 30.3976158006,
			"-0.003": 27.2706539263,
			"-0.002": 19.0314704586,
			"-0.001": 19.4247076931,
			"0.0": 15.3757247376,
			"0.001": 19.0138045961,
			"0.002": 20.0131451823,
			"0.003": 26.119718121,
			"0.004": 25.5523228462,
			"0.005": 27.7499474463,
			"0.006": 15.7059734368,
			"0.007": 0.0501803843017,
			"0.008": 0.0,
			"0.009": 0.0,
			"0.01": 0.0,
			"0.011": 0.0,
			"0.012": 0.0,
			"0.013": 0.0,
			"0.014": 0.0,
			"0.015": 0.0,
			"0.016": 0.0,
			"0.017": 0.0,
			"0.018": 0.0,
			"0.019": 0.0,
			"0.02": 0.0,
			"0.021": 0.0,
			"0.022": 0.0,
			"0.023": 0.0,
			"0.024": 0.0,
			"0.025": 0.0
		}
	}
}
