{
	 "smiles": "CC1=C(C=CC=C1[N+]([O-])=O)S(Cl)(=O)=O", 
	 "Tm": 321.15, 
	 "num_atms": 20, 
	 "gaussian": { 
		 "optdone": 1, 
		 "sigma_profile": "yes", 
		 "theory": "DFT", 
		 "functional": "B3LYP", 
		 "basiset": "6-31G**", 
		 "properties": { 
			 "R2extent": 3848.0356, 
			 "electric_dipole_moment_norm": 3.27325048537, 
			 "electric_quadrupole_moment_norm": 23.5051364682, 
			 "total_energy": -1484.21065533, 
			 "HOMO_LUMO_gap": 0.18827, 
			 "cosmo_polarized_energy": -11.51, 
			 "cosmo_cavitation_energy": 27.78, 
			 "cosmo_dispersion_energy": -20.86, 
			 "cosmo_repulsion_energy": 1.58, 
			 "cosmo_total_nonelectrostatic_energy": 8.5, 
			 "SMD_solvation_energy": 5.74 
		},
		"coords": [
			{
				"x": -1.2361164061,
				"y": 1.3775092689,
				"z": 0.3060497714,
				"element": "C" 
			},
			{
				"x": -0.5095712487,
				"y": 0.0604165706,
				"z": 0.1706351775,
				"element": "C" 
			},
			{
				"x": -0.1705504418,
				"y": -0.7482073864,
				"z": 1.2774080938,
				"element": "C" 
			},
			{
				"x": 0.5470819565,
				"y": -1.9426401076,
				"z": 1.1777961954,
				"element": "C" 
			},
			{
				"x": 0.9709589524,
				"y": -2.385852359,
				"z": -0.0716597515,
				"element": "C" 
			},
			{
				"x": 0.6649525729,
				"y": -1.6323545146,
				"z": -1.1969261273,
				"element": "C" 
			},
			{
				"x": -0.0730221011,
				"y": -0.4551685407,
				"z": -1.0655013072,
				"element": "C" 
			},
			{
				"x": -0.3883330197,
				"y": 0.2327997124,
				"z": -2.3362500127,
				"element": "N" 
			},
			{
				"x": -1.4504315061,
				"y": 0.8465389525,
				"z": -2.4118071582,
				"element": "O" 
			},
			{
				"x": 0.4254949464,
				"y": 0.1161737894,
				"z": -3.2501887939,
				"element": "O" 
			},
			{
				"x": -0.6974050168,
				"y": -0.3388159624,
				"z": 2.9556056866,
				"element": "S" 
			},
			{
				"x": 0.6487388763,
				"y": 1.2379083619,
				"z": 3.4584617265,
				"element": "Cl" 
			},
			{
				"x": -0.354405725,
				"y": -1.4511013391,
				"z": 3.8321749394,
				"element": "O" 
			},
			{
				"x": -2.0344328214,
				"y": 0.2385243242,
				"z": 2.9436906614,
				"element": "O" 
			},
			{
				"x": -0.9597968917,
				"y": 2.061214481,
				"z": -0.4945105808,
				"element": "H" 
			},
			{
				"x": -2.3169778378,
				"y": 1.2230763968,
				"z": 0.2415424227,
				"element": "H" 
			},
			{
				"x": -1.0244343641,
				"y": 1.8495820907,
				"z": 1.2633178958,
				"element": "H" 
			},
			{
				"x": 0.7629099252,
				"y": -2.5091916661,
				"z": 2.0755717996,
				"element": "H" 
			},
			{
				"x": 1.5308082855,
				"y": -3.3099337665,
				"z": -0.1641053152,
				"element": "H" 
			},
			{
				"x": 0.9823318649,
				"y": -1.9349783061,
				"z": -2.1872053233,
				"element": "H" 
			}
		],
		 "valence_orbital": [ 
			{
				"type": "occ",
				"energy": -0.32704,
				"method": "rhf"
			},
			{
				"type": "occ",
				"energy": -0.3264,
				"method": "rhf"
			},
			{
				"type": "occ",
				"energy": -0.32188,
				"method": "rhf"
			},
			{
				"type": "occ",
				"energy": -0.30439,
				"method": "rhf"
			},
			{
				"type": "occ",
				"energy": -0.2976,
				"method": "rhf"
			},
			{
				"type": "unocc",
				"energy": -0.10933,
				"method": "rhf"
			},
			{
				"type": "unocc",
				"energy": -0.10047,
				"method": "rhf"
			},
			{
				"type": "unocc",
				"energy": -0.0652,
				"method": "rhf"
			},
			{
				"type": "unocc",
				"energy": -0.03739,
				"method": "rhf"
			},
			{
				"type": "unocc",
				"energy": 0.03398,
				"method": "rhf"
			}
		],
		"cosmo_sigma_profile": { 
			"-0.025": 0.0,
			"-0.024": 0.0,
			"-0.023": 0.0,
			"-0.022": 0.0,
			"-0.021": 0.0,
			"-0.02": 0.0,
			"-0.019": 0.0,
			"-0.018": 0.0,
			"-0.017": 0.0,
			"-0.016": 0.0,
			"-0.015": 0.0,
			"-0.014": 0.0,
			"-0.013": 0.0,
			"-0.012": 0.0,
			"-0.011": 0.0794607166475,
			"-0.01": 0.839114463181,
			"-0.009": 4.54629332309,
			"-0.008": 8.83552510769,
			"-0.007": 8.03299431444,
			"-0.006": 9.50822283205,
			"-0.005": 10.5426960397,
			"-0.004": 12.0906487961,
			"-0.003": 19.795429543,
			"-0.002": 24.1809189827,
			"-0.001": 17.9550640122,
			"0.0": 13.7110532356,
			"0.001": 10.9196844272,
			"0.002": 13.3440795329,
			"0.003": 14.3530444712,
			"0.004": 7.57818698786,
			"0.005": 6.25182308656,
			"0.006": 9.40201939462,
			"0.007": 16.0191050692,
			"0.008": 12.5253207393,
			"0.009": 4.97499978599,
			"0.01": 0.433410767918,
			"0.011": 0.0,
			"0.012": 0.0,
			"0.013": 0.0,
			"0.014": 0.0,
			"0.015": 0.0,
			"0.016": 0.0,
			"0.017": 0.0,
			"0.018": 0.0,
			"0.019": 0.0,
			"0.02": 0.0,
			"0.021": 0.0,
			"0.022": 0.0,
			"0.023": 0.0,
			"0.024": 0.0,
			"0.025": 0.0
		}
	}
}
