{
	 "smiles": "CC12CC3CC(C)(C1)CC(N)(C3)C2", 
	 "Tm": 531.15, 
	 "num_atms": 34, 
	 "gaussian": { 
		 "optdone": 1, 
		 "sigma_profile": "yes", 
		 "theory": "DFT", 
		 "functional": "B3LYP", 
		 "basiset": "6-31G**", 
		 "properties": { 
			 "R2extent": 3229.5271, 
			 "electric_dipole_moment_norm": 1.22704579377, 
			 "electric_quadrupole_moment_norm": 4.49653678624, 
			 "total_energy": -524.728353143, 
			 "HOMO_LUMO_gap": 0.29293, 
			 "cosmo_polarized_energy": -4.94, 
			 "cosmo_cavitation_energy": 30.23, 
			 "cosmo_dispersion_energy": -22.05, 
			 "cosmo_repulsion_energy": 1.68, 
			 "cosmo_total_nonelectrostatic_energy": 9.85, 
			 "SMD_solvation_energy": 3.21 
		},
		"coords": [
			{
				"x": -0.3927307697,
				"y": 1.8837843212,
				"z": -3.4173969072,
				"element": "C" 
			},
			{
				"x": -0.1059720442,
				"y": 0.6715697512,
				"z": -2.5232126806,
				"element": "C" 
			},
			{
				"x": -1.4136368055,
				"y": -0.0879354622,
				"z": -2.1969815335,
				"element": "C" 
			},
			{
				"x": -1.1208966677,
				"y": -1.3056493998,
				"z": -1.2993132785,
				"element": "C" 
			},
			{
				"x": -0.1525124363,
				"y": -2.2590222193,
				"z": -2.0258313569,
				"element": "C" 
			},
			{
				"x": 1.1774774035,
				"y": -1.5380102592,
				"z": -2.348925197,
				"element": "C" 
			},
			{
				"x": 2.1435424495,
				"y": -2.4835864569,
				"z": -3.0726869575,
				"element": "C" 
			},
			{
				"x": 0.861768688,
				"y": -0.3064941986,
				"z": -3.230129408,
				"element": "C" 
			},
			{
				"x": 1.8014783487,
				"y": -1.0386831831,
				"z": -1.0249038559,
				"element": "C" 
			},
			{
				"x": 0.8521847364,
				"y": -0.0791750459,
				"z": -0.2796613144,
				"element": "C" 
			},
			{
				"x": 1.5365061863,
				"y": 0.4133190419,
				"z": 0.9243751176,
				"element": "N" 
			},
			{
				"x": -0.4723372076,
				"y": -0.8253666964,
				"z": 0.0140577633,
				"element": "C" 
			},
			{
				"x": 0.546140494,
				"y": 1.1227316837,
				"z": -1.195444038,
				"element": "C" 
			},
			{
				"x": 0.5292999942,
				"y": 2.4279534853,
				"z": -3.652954924,
				"element": "H" 
			},
			{
				"x": -1.0778394546,
				"y": 2.5845210628,
				"z": -2.9257926394,
				"element": "H" 
			},
			{
				"x": -0.8515791667,
				"y": 1.5768927771,
				"z": -4.3646452056,
				"element": "H" 
			},
			{
				"x": -1.8938850702,
				"y": -0.4137158098,
				"z": -3.129725139,
				"element": "H" 
			},
			{
				"x": -2.1200743538,
				"y": 0.5889230535,
				"z": -1.6970741583,
				"element": "H" 
			},
			{
				"x": -2.0579656437,
				"y": -1.8324991474,
				"z": -1.0779864682,
				"element": "H" 
			},
			{
				"x": 0.0468451669,
				"y": -3.1417710624,
				"z": -1.4028390315,
				"element": "H" 
			},
			{
				"x": -0.6096431647,
				"y": -2.6245834292,
				"z": -2.9554449524,
				"element": "H" 
			},
			{
				"x": 3.0893903838,
				"y": -1.9804552729,
				"z": -3.304974079,
				"element": "H" 
			},
			{
				"x": 1.714417269,
				"y": -2.8416643704,
				"z": -4.0159021152,
				"element": "H" 
			},
			{
				"x": 2.3742474321,
				"y": -3.360533283,
				"z": -2.4563737603,
				"element": "H" 
			},
			{
				"x": 1.7957051501,
				"y": 0.2162310754,
				"z": -3.4803459668,
				"element": "H" 
			},
			{
				"x": 0.4217532199,
				"y": -0.6372701852,
				"z": -4.1816928091,
				"element": "H" 
			},
			{
				"x": 2.7491025259,
				"y": -0.5209954899,
				"z": -1.2189996341,
				"element": "H" 
			},
			{
				"x": 2.0353390405,
				"y": -1.8982284146,
				"z": -0.3791446815,
				"element": "H" 
			},
			{
				"x": 0.9118569825,
				"y": 1.0338432866,
				"z": 1.438229892,
				"element": "H" 
			},
			{
				"x": 1.7268531625,
				"y": -0.3694687253,
				"z": 1.5491116815,
				"element": "H" 
			},
			{
				"x": -1.1565096031,
				"y": -0.1563908072,
				"z": 0.5550116565,
				"element": "H" 
			},
			{
				"x": -0.2714596773,
				"y": -1.6801921583,
				"z": 0.6752425315,
				"element": "H" 
			},
			{
				"x": -0.1245493016,
				"y": 1.8208687563,
				"z": -0.6727046868,
				"element": "H" 
			},
			{
				"x": 1.4787827332,
				"y": 1.666152782,
				"z": -1.3917418638,
				"element": "H" 
			}
		],
		 "valence_orbital": [ 
			{
				"type": "occ",
				"energy": -0.30663,
				"method": "rhf"
			},
			{
				"type": "occ",
				"energy": -0.28923,
				"method": "rhf"
			},
			{
				"type": "occ",
				"energy": -0.27821,
				"method": "rhf"
			},
			{
				"type": "occ",
				"energy": -0.27702,
				"method": "rhf"
			},
			{
				"type": "occ",
				"energy": -0.22596,
				"method": "rhf"
			},
			{
				"type": "unocc",
				"energy": 0.06697,
				"method": "rhf"
			},
			{
				"type": "unocc",
				"energy": 0.09391,
				"method": "rhf"
			},
			{
				"type": "unocc",
				"energy": 0.10886,
				"method": "rhf"
			},
			{
				"type": "unocc",
				"energy": 0.11831,
				"method": "rhf"
			},
			{
				"type": "unocc",
				"energy": 0.1196,
				"method": "rhf"
			}
		],
		"cosmo_sigma_profile": { 
			"-0.025": 0.0,
			"-0.024": 0.0,
			"-0.023": 0.0,
			"-0.022": 0.0,
			"-0.021": 0.0,
			"-0.02": 0.0,
			"-0.019": 0.0,
			"-0.018": 0.0,
			"-0.017": 0.0,
			"-0.016": 0.0,
			"-0.015": 0.0,
			"-0.014": 0.0,
			"-0.013": 0.0,
			"-0.012": 0.0,
			"-0.011": 0.0,
			"-0.01": 0.0,
			"-0.009": 0.620181501307,
			"-0.008": 2.51002720196,
			"-0.007": 2.3670308885,
			"-0.006": 3.37107375197,
			"-0.005": 3.48790549104,
			"-0.004": 3.14386596243,
			"-0.003": 6.07679355221,
			"-0.002": 28.946208117,
			"-0.001": 63.2868461295,
			"0.0": 38.2862715994,
			"0.001": 32.380120159,
			"0.002": 27.9167133332,
			"0.003": 3.30084701998,
			"0.004": 1.34711907527,
			"0.005": 1.23580618907,
			"0.006": 1.30732092083,
			"0.007": 1.04182733604,
			"0.008": 0.791190511768,
			"0.009": 0.673272749185,
			"0.01": 0.743622774526,
			"0.011": 0.941698767593,
			"0.012": 0.582927100723,
			"0.013": 0.664954127472,
			"0.014": 0.828011644689,
			"0.015": 0.510822897341,
			"0.016": 0.33213329244,
			"0.017": 0.755161019469,
			"0.018": 0.504474795667,
			"0.019": 0.445592492043,
			"0.02": 0.412332865423,
			"0.021": 0.0461386329568,
			"0.022": 0.0,
			"0.023": 0.0,
			"0.024": 0.0,
			"0.025": 0.0
		}
	}
}
