{
	 "smiles": "CC(=O)NC1=C(C)C(N)=CC=C1", 
	 "Tm": 416.15, 
	 "num_atms": 24, 
	 "gaussian": { 
		 "optdone": 1, 
		 "sigma_profile": "yes", 
		 "theory": "DFT", 
		 "functional": "B3LYP", 
		 "basiset": "6-31G**", 
		 "properties": { 
			 "R2extent": 2773.1946, 
			 "electric_dipole_moment_norm": 4.48255256522, 
			 "electric_quadrupole_moment_norm": 12.3705474729, 
			 "total_energy": -534.944751098, 
			 "HOMO_LUMO_gap": 0.19326, 
			 "cosmo_polarized_energy": -16.35, 
			 "cosmo_cavitation_energy": 26.78, 
			 "cosmo_dispersion_energy": -19.91, 
			 "cosmo_repulsion_energy": 1.59, 
			 "cosmo_total_nonelectrostatic_energy": 8.46, 
			 "SMD_solvation_energy": 5.28 
		},
		"coords": [
			{
				"x": 2.8910854818,
				"y": 0.0879358797,
				"z": 3.9315203802,
				"element": "C" 
			},
			{
				"x": 1.8520065583,
				"y": -0.5168866306,
				"z": 2.9939669699,
				"element": "C" 
			},
			{
				"x": 1.4598681407,
				"y": -1.6649040757,
				"z": 3.1440691372,
				"element": "O" 
			},
			{
				"x": 1.4290220449,
				"y": 0.3357343164,
				"z": 1.9960890386,
				"element": "N" 
			},
			{
				"x": 0.5011898751,
				"y": 0.1074301988,
				"z": 0.9520498143,
				"element": "C" 
			},
			{
				"x": 0.1489897486,
				"y": 1.2124612013,
				"z": 0.1439156857,
				"element": "C" 
			},
			{
				"x": 0.656795358,
				"y": 2.6078885253,
				"z": 0.4336204098,
				"element": "C" 
			},
			{
				"x": -0.7197269018,
				"y": 0.9989668656,
				"z": -0.9470258571,
				"element": "C" 
			},
			{
				"x": -1.0942563552,
				"y": 2.0775120397,
				"z": -1.7707440324,
				"element": "N" 
			},
			{
				"x": -1.2630160105,
				"y": -0.273761563,
				"z": -1.1759201815,
				"element": "C" 
			},
			{
				"x": -0.9337892059,
				"y": -1.3319058466,
				"z": -0.3368407077,
				"element": "C" 
			},
			{
				"x": -0.0451926478,
				"y": -1.1637176082,
				"z": 0.721706832,
				"element": "C" 
			},
			{
				"x": 2.5433661179,
				"y": -0.0383986642,
				"z": 4.9598605343,
				"element": "H" 
			},
			{
				"x": 3.0996757101,
				"y": 1.1470271878,
				"z": 3.7545452921,
				"element": "H" 
			},
			{
				"x": 3.8231783731,
				"y": -0.4760598552,
				"z": 3.8322868313,
				"element": "H" 
			},
			{
				"x": 1.8587560705,
				"y": 1.2464861592,
				"z": 1.9978760438,
				"element": "H" 
			},
			{
				"x": 1.6488673328,
				"y": 2.8086081339,
				"z": 0.0030739611,
				"element": "H" 
			},
			{
				"x": 0.7197454844,
				"y": 2.806431837,
				"z": 1.5096720009,
				"element": "H" 
			},
			{
				"x": -0.0327535555,
				"y": 3.3543362402,
				"z": 0.0311682977,
				"element": "H" 
			},
			{
				"x": -1.591090667,
				"y": 1.7843857254,
				"z": -2.6021561268,
				"element": "H" 
			},
			{
				"x": -0.337322118,
				"y": 2.7008143841,
				"z": -2.0200394485,
				"element": "H" 
			},
			{
				"x": -1.9391328187,
				"y": -0.423766396,
				"z": -2.0141037599,
				"element": "H" 
			},
			{
				"x": -1.3608527862,
				"y": -2.313950134,
				"z": -0.5194377779,
				"element": "H" 
			},
			{
				"x": 0.2284867703,
				"y": -1.983667921,
				"z": 1.3683466628,
				"element": "H" 
			}
		],
		 "valence_orbital": [ 
			{
				"type": "occ",
				"energy": -0.31512,
				"method": "rhf"
			},
			{
				"type": "occ",
				"energy": -0.28006,
				"method": "rhf"
			},
			{
				"type": "occ",
				"energy": -0.2461,
				"method": "rhf"
			},
			{
				"type": "occ",
				"energy": -0.21551,
				"method": "rhf"
			},
			{
				"type": "occ",
				"energy": -0.19841,
				"method": "rhf"
			},
			{
				"type": "unocc",
				"energy": -0.00515,
				"method": "rhf"
			},
			{
				"type": "unocc",
				"energy": 0.01771,
				"method": "rhf"
			},
			{
				"type": "unocc",
				"energy": 0.05556,
				"method": "rhf"
			},
			{
				"type": "unocc",
				"energy": 0.06348,
				"method": "rhf"
			},
			{
				"type": "unocc",
				"energy": 0.08697,
				"method": "rhf"
			}
		],
		"cosmo_sigma_profile": { 
			"-0.025": 0.0,
			"-0.024": 0.0,
			"-0.023": 0.0,
			"-0.022": 0.0,
			"-0.021": 0.0,
			"-0.02": 0.0,
			"-0.019": 0.0,
			"-0.018": 0.0,
			"-0.017": 0.0,
			"-0.016": 0.0,
			"-0.015": 0.0,
			"-0.014": 0.12439746143,
			"-0.013": 0.963778235192,
			"-0.012": 2.62109986422,
			"-0.011": 4.02440127726,
			"-0.01": 3.72646734511,
			"-0.009": 5.0894232832,
			"-0.008": 4.97045770069,
			"-0.007": 4.61023031811,
			"-0.006": 7.58575701118,
			"-0.005": 12.5239036878,
			"-0.004": 14.9509870692,
			"-0.003": 17.5507196203,
			"-0.002": 17.8571154609,
			"-0.001": 16.4170125913,
			"0.0": 11.9319932336,
			"0.001": 7.1564993148,
			"0.002": 8.95775833405,
			"0.003": 9.49356371646,
			"0.004": 9.11314023035,
			"0.005": 9.99455646122,
			"0.006": 11.7595647817,
			"0.007": 9.22347973253,
			"0.008": 3.82264013622,
			"0.009": 2.01539896657,
			"0.01": 1.76245286816,
			"0.011": 2.53217034359,
			"0.012": 3.33583943871,
			"0.013": 3.86862074138,
			"0.014": 2.9597913064,
			"0.015": 0.781260749203,
			"0.016": 0.0572482042345,
			"0.017": 0.0,
			"0.018": 0.0,
			"0.019": 0.0,
			"0.02": 0.0,
			"0.021": 0.0,
			"0.022": 0.0,
			"0.023": 0.0,
			"0.024": 0.0,
			"0.025": 0.0
		}
	}
}
