{
	 "smiles": "CC(=O)C=CC1=CC=C(O1)[N+]([O-])=O", 
	 "Tm": 467.15, 
	 "num_atms": 20, 
	 "gaussian": { 
		 "optdone": 1, 
		 "sigma_profile": "yes", 
		 "theory": "DFT", 
		 "functional": "B3LYP", 
		 "basiset": "6-31G**", 
		 "properties": { 
			 "R2extent": 4027.8859, 
			 "electric_dipole_moment_norm": 2.24648985976, 
			 "electric_quadrupole_moment_norm": 29.7418609816, 
			 "total_energy": -664.571527863, 
			 "HOMO_LUMO_gap": 0.13859, 
			 "cosmo_polarized_energy": -14.0, 
			 "cosmo_cavitation_energy": 27.07, 
			 "cosmo_dispersion_energy": -19.2, 
			 "cosmo_repulsion_energy": 1.54, 
			 "cosmo_total_nonelectrostatic_energy": 9.42, 
			 "SMD_solvation_energy": 8.7 
		},
		"coords": [
			{
				"x": 3.842255469,
				"y": 0.2831798595,
				"z": 0.9070100085,
				"element": "C" 
			},
			{
				"x": 2.5805174164,
				"y": 0.7607773576,
				"z": 0.2168231235,
				"element": "C" 
			},
			{
				"x": 2.5182552187,
				"y": 1.8458732613,
				"z": -0.3434583488,
				"element": "O" 
			},
			{
				"x": 1.4123995492,
				"y": -0.1632664309,
				"z": 0.2551681707,
				"element": "C" 
			},
			{
				"x": 0.2521943826,
				"y": 0.1868409341,
				"z": -0.3354909379,
				"element": "C" 
			},
			{
				"x": -0.9442447243,
				"y": -0.6048143578,
				"z": -0.372990174,
				"element": "C" 
			},
			{
				"x": -2.185106596,
				"y": -0.369889125,
				"z": -0.935333232,
				"element": "C" 
			},
			{
				"x": -2.9866769075,
				"y": -1.5055460258,
				"z": -0.6603524222,
				"element": "C" 
			},
			{
				"x": -2.1748475081,
				"y": -2.3490671688,
				"z": 0.0495790583,
				"element": "C" 
			},
			{
				"x": -0.9425048087,
				"y": -1.8312572354,
				"z": 0.2356541672,
				"element": "O" 
			},
			{
				"x": -2.4376912848,
				"y": -3.6431976394,
				"z": 0.5966609947,
				"element": "N" 
			},
			{
				"x": -1.5290481643,
				"y": -4.2082032645,
				"z": 1.203186978,
				"element": "O" 
			},
			{
				"x": -3.5754725283,
				"y": -4.0837519123,
				"z": 0.4062713362,
				"element": "O" 
			},
			{
				"x": 3.6446937242,
				"y": 0.08365305,
				"z": 1.9670386423,
				"element": "H" 
			},
			{
				"x": 4.1848879807,
				"y": -0.6600722789,
				"z": 0.4650169775,
				"element": "H" 
			},
			{
				"x": 4.6236355878,
				"y": 1.037907592,
				"z": 0.8143341144,
				"element": "H" 
			},
			{
				"x": 1.5153676009,
				"y": -1.1171972522,
				"z": 0.7652036724,
				"element": "H" 
			},
			{
				"x": 0.2048722289,
				"y": 1.1535734673,
				"z": -0.8318986504,
				"element": "H" 
			},
			{
				"x": -2.4721458493,
				"y": 0.5186178784,
				"z": -1.4789878588,
				"element": "H" 
			},
			{
				"x": -4.0123407871,
				"y": -1.6957607092,
				"z": -0.9346356196,
				"element": "H" 
			}
		],
		 "valence_orbital": [ 
			{
				"type": "occ",
				"energy": -0.31652,
				"method": "rhf"
			},
			{
				"type": "occ",
				"energy": -0.31326,
				"method": "rhf"
			},
			{
				"type": "occ",
				"energy": -0.30016,
				"method": "rhf"
			},
			{
				"type": "occ",
				"energy": -0.25967,
				"method": "rhf"
			},
			{
				"type": "occ",
				"energy": -0.2516,
				"method": "rhf"
			},
			{
				"type": "unocc",
				"energy": -0.11301,
				"method": "rhf"
			},
			{
				"type": "unocc",
				"energy": -0.0679,
				"method": "rhf"
			},
			{
				"type": "unocc",
				"energy": 0.00998,
				"method": "rhf"
			},
			{
				"type": "unocc",
				"energy": 0.04492,
				"method": "rhf"
			},
			{
				"type": "unocc",
				"energy": 0.07946,
				"method": "rhf"
			}
		],
		"cosmo_sigma_profile": { 
			"-0.025": 0.0,
			"-0.024": 0.0,
			"-0.023": 0.0,
			"-0.022": 0.0,
			"-0.021": 0.0,
			"-0.02": 0.0,
			"-0.019": 0.0,
			"-0.018": 0.0,
			"-0.017": 0.0,
			"-0.016": 0.0,
			"-0.015": 0.0,
			"-0.014": 0.0,
			"-0.013": 0.0,
			"-0.012": 0.0,
			"-0.011": 0.237720010577,
			"-0.01": 1.91694644577,
			"-0.009": 5.29621006449,
			"-0.008": 5.21919065554,
			"-0.007": 8.40876016274,
			"-0.006": 15.626515891,
			"-0.005": 12.2672451943,
			"-0.004": 15.1578797096,
			"-0.003": 15.0047089931,
			"-0.002": 21.5423115736,
			"-0.001": 22.0028685745,
			"0.0": 15.8568787365,
			"0.001": 10.4783568679,
			"0.002": 5.9033863874,
			"0.003": 4.60814726442,
			"0.004": 4.48667495366,
			"0.005": 4.87920876014,
			"0.006": 5.37621989955,
			"0.007": 10.0526603541,
			"0.008": 12.0738045329,
			"0.009": 7.58269115348,
			"0.01": 4.82071257632,
			"0.011": 2.87642368112,
			"0.012": 4.14286320567,
			"0.013": 1.41115101698,
			"0.014": 0.115458575711,
			"0.015": 0.0,
			"0.016": 0.0,
			"0.017": 0.0,
			"0.018": 0.0,
			"0.019": 0.0,
			"0.02": 0.0,
			"0.021": 0.0,
			"0.022": 0.0,
			"0.023": 0.0,
			"0.024": 0.0,
			"0.025": 0.0
		}
	}
}
