{
	 "smiles": "CN1C=C(C=O)C(=N1)C1=CC=C(C=C1)C#N", 
	 "Tm": 430.15, 
	 "num_atms": 25, 
	 "gaussian": { 
		 "optdone": 1, 
		 "sigma_profile": "yes", 
		 "theory": "DFT", 
		 "functional": "B3LYP", 
		 "basiset": "6-31G**", 
		 "properties": { 
			 "R2extent": 5229.4379, 
			 "electric_dipole_moment_norm": 9.96990507377, 
			 "electric_quadrupole_moment_norm": 21.2450730269, 
			 "total_energy": -702.141707147, 
			 "HOMO_LUMO_gap": 0.16937, 
			 "cosmo_polarized_energy": -17.38, 
			 "cosmo_cavitation_energy": 31.2, 
			 "cosmo_dispersion_energy": -22.12, 
			 "cosmo_repulsion_energy": 1.7, 
			 "cosmo_total_nonelectrostatic_energy": 10.77, 
			 "SMD_solvation_energy": 7.32 
		},
		"coords": [
			{
				"x": 2.9629952716,
				"y": -1.3845732463,
				"z": 0.5266038341,
				"element": "C" 
			},
			{
				"x": 1.6318492488,
				"y": -0.8067440304,
				"z": 0.600993104,
				"element": "N" 
			},
			{
				"x": 0.9687899451,
				"y": -0.3668440306,
				"z": 1.6823953639,
				"element": "C" 
			},
			{
				"x": -0.2726493118,
				"y": 0.1018471588,
				"z": 1.2535239562,
				"element": "C" 
			},
			{
				"x": -1.2161762493,
				"y": 0.6457942201,
				"z": 2.2264163145,
				"element": "C" 
			},
			{
				"x": -2.3339927118,
				"y": 1.0959883757,
				"z": 2.0333252246,
				"element": "O" 
			},
			{
				"x": -0.2530865453,
				"y": -0.112719085,
				"z": -0.1754005388,
				"element": "C" 
			},
			{
				"x": 0.9118883292,
				"y": -0.6624133636,
				"z": -0.5326812338,
				"element": "N" 
			},
			{
				"x": -1.2437198084,
				"y": 0.1572036986,
				"z": -1.2373141451,
				"element": "C" 
			},
			{
				"x": -2.4980966968,
				"y": 0.7313365788,
				"z": -0.9745345559,
				"element": "C" 
			},
			{
				"x": -3.3983136763,
				"y": 0.9665865205,
				"z": -2.0097455426,
				"element": "C" 
			},
			{
				"x": -3.0643594006,
				"y": 0.6329588973,
				"z": -3.3309035828,
				"element": "C" 
			},
			{
				"x": -1.8094160061,
				"y": 0.0572569535,
				"z": -3.6019581572,
				"element": "C" 
			},
			{
				"x": -0.9160924869,
				"y": -0.1751656986,
				"z": -2.5678406855,
				"element": "C" 
			},
			{
				"x": -3.9912757301,
				"y": 0.8752457408,
				"z": -4.3969358506,
				"element": "C" 
			},
			{
				"x": -4.7419028979,
				"y": 1.070847982,
				"z": -5.2644166196,
				"element": "N" 
			},
			{
				"x": 3.3856728549,
				"y": -1.4304697667,
				"z": 1.5310181914,
				"element": "H" 
			},
			{
				"x": 2.9054638687,
				"y": -2.3913216598,
				"z": 0.1064759163,
				"element": "H" 
			},
			{
				"x": 3.5995220018,
				"y": -0.7669755644,
				"z": -0.1113538555,
				"element": "H" 
			},
			{
				"x": 1.3947000242,
				"y": -0.4055919978,
				"z": 2.6752515087,
				"element": "H" 
			},
			{
				"x": -0.8110977565,
				"y": 0.6221705357,
				"z": 3.2623447677,
				"element": "H" 
			},
			{
				"x": -2.7650147257,
				"y": 0.992285555,
				"z": 0.042896895,
				"element": "H" 
			},
			{
				"x": -4.3650585851,
				"y": 1.4106486721,
				"z": -1.7968844699,
				"element": "H" 
			},
			{
				"x": -1.5471592657,
				"y": -0.2023823871,
				"z": -4.6221879399,
				"element": "H" 
			},
			{
				"x": 0.0503303098,
				"y": -0.6184700586,
				"z": -2.7762878994,
				"element": "H" 
			}
		],
		 "valence_orbital": [ 
			{
				"type": "occ",
				"energy": -0.29924,
				"method": "rhf"
			},
			{
				"type": "occ",
				"energy": -0.27746,
				"method": "rhf"
			},
			{
				"type": "occ",
				"energy": -0.2647,
				"method": "rhf"
			},
			{
				"type": "occ",
				"energy": -0.26331,
				"method": "rhf"
			},
			{
				"type": "occ",
				"energy": -0.23895,
				"method": "rhf"
			},
			{
				"type": "unocc",
				"energy": -0.06958,
				"method": "rhf"
			},
			{
				"type": "unocc",
				"energy": -0.04359,
				"method": "rhf"
			},
			{
				"type": "unocc",
				"energy": -0.01372,
				"method": "rhf"
			},
			{
				"type": "unocc",
				"energy": 0.00559,
				"method": "rhf"
			},
			{
				"type": "unocc",
				"energy": 0.04541,
				"method": "rhf"
			}
		],
		"cosmo_sigma_profile": { 
			"-0.025": 0.0,
			"-0.024": 0.0,
			"-0.023": 0.0,
			"-0.022": 0.0,
			"-0.021": 0.0,
			"-0.02": 0.0,
			"-0.019": 0.0,
			"-0.018": 0.0,
			"-0.017": 0.0,
			"-0.016": 0.0,
			"-0.015": 0.0,
			"-0.014": 0.0,
			"-0.013": 0.0,
			"-0.012": 0.0,
			"-0.011": 1.90177953636,
			"-0.01": 3.9210284005,
			"-0.009": 3.35968357033,
			"-0.008": 6.40727388336,
			"-0.007": 12.581700587,
			"-0.006": 16.4770838833,
			"-0.005": 15.095117126,
			"-0.004": 18.7177932439,
			"-0.003": 12.7270438021,
			"-0.002": 12.1655882196,
			"-0.001": 16.3027333365,
			"0.0": 20.5074782848,
			"0.001": 21.122717078,
			"0.002": 23.0964334556,
			"0.003": 13.1618716069,
			"0.004": 6.40979836084,
			"0.005": 5.9027636443,
			"0.006": 5.59269353809,
			"0.007": 5.87754759061,
			"0.008": 5.83755618044,
			"0.009": 6.99331136328,
			"0.01": 5.99781993026,
			"0.011": 5.60144220745,
			"0.012": 4.19169821809,
			"0.013": 2.6852291848,
			"0.014": 0.124392523518,
			"0.015": 0.0,
			"0.016": 0.0,
			"0.017": 0.0,
			"0.018": 0.0,
			"0.019": 0.0,
			"0.02": 0.0,
			"0.021": 0.0,
			"0.022": 0.0,
			"0.023": 0.0,
			"0.024": 0.0,
			"0.025": 0.0
		}
	}
}
