{
	 "smiles": "O=C1NC(=O)C=C1", 
	 "Tm": 366.15, 
	 "num_atms": 10, 
	 "gaussian": { 
		 "optdone": 1, 
		 "sigma_profile": "yes", 
		 "theory": "DFT", 
		 "functional": "B3LYP", 
		 "basiset": "6-31G**", 
		 "properties": { 
			 "R2extent": 859.0911, 
			 "electric_dipole_moment_norm": 1.49303755144, 
			 "electric_quadrupole_moment_norm": 12.106199385, 
			 "total_energy": -359.428652594, 
			 "HOMO_LUMO_gap": 0.17335, 
			 "cosmo_polarized_energy": -10.93, 
			 "cosmo_cavitation_energy": 15.17, 
			 "cosmo_dispersion_energy": -11.36, 
			 "cosmo_repulsion_energy": 0.98, 
			 "cosmo_total_nonelectrostatic_energy": 4.79, 
			 "SMD_solvation_energy": 4.54 
		},
		"coords": [
			{
				"x": 1.1155312379,
				"y": 0.9319036693,
				"z": -2.6599927293,
				"element": "O" 
			},
			{
				"x": 0.6276884964,
				"y": 0.1681673467,
				"z": -1.8550796083,
				"element": "C" 
			},
			{
				"x": -0.5016535078,
				"y": 0.4040665448,
				"z": -1.066219482,
				"element": "N" 
			},
			{
				"x": -0.7970700687,
				"y": -0.6855808349,
				"z": -0.2423455776,
				"element": "C" 
			},
			{
				"x": -1.7156183296,
				"y": -0.764590278,
				"z": 0.5445439566,
				"element": "O" 
			},
			{
				"x": 0.2612283994,
				"y": -1.7090901303,
				"z": -0.5509823196,
				"element": "C" 
			},
			{
				"x": 1.0843079655,
				"y": -1.215883454,
				"z": -1.4826146405,
				"element": "C" 
			},
			{
				"x": -1.0390711244,
				"y": 1.2583061697,
				"z": -1.0887717572,
				"element": "H" 
			},
			{
				"x": 0.285086868,
				"y": -2.6703223542,
				"z": -0.0546542649,
				"element": "H" 
			},
			{
				"x": 1.9519700633,
				"y": -1.6714766792,
				"z": -1.9413835772,
				"element": "H" 
			}
		],
		 "valence_orbital": [ 
			{
				"type": "occ",
				"energy": -0.40383,
				"method": "rhf"
			},
			{
				"type": "occ",
				"energy": -0.3115,
				"method": "rhf"
			},
			{
				"type": "occ",
				"energy": -0.30322,
				"method": "rhf"
			},
			{
				"type": "occ",
				"energy": -0.29767,
				"method": "rhf"
			},
			{
				"type": "occ",
				"energy": -0.27355,
				"method": "rhf"
			},
			{
				"type": "unocc",
				"energy": -0.1002,
				"method": "rhf"
			},
			{
				"type": "unocc",
				"energy": 0.05455,
				"method": "rhf"
			},
			{
				"type": "unocc",
				"energy": 0.06196,
				"method": "rhf"
			},
			{
				"type": "unocc",
				"energy": 0.07999,
				"method": "rhf"
			},
			{
				"type": "unocc",
				"energy": 0.11502,
				"method": "rhf"
			}
		],
		"cosmo_sigma_profile": { 
			"-0.025": 0.0,
			"-0.024": 0.0,
			"-0.023": 0.0,
			"-0.022": 0.0,
			"-0.021": 0.0,
			"-0.02": 0.0,
			"-0.019": 0.0,
			"-0.018": 0.0,
			"-0.017": 0.370024357958,
			"-0.016": 1.22774265911,
			"-0.015": 1.41524312638,
			"-0.014": 0.779925683228,
			"-0.013": 0.751228489748,
			"-0.012": 0.533633939161,
			"-0.011": 1.15097011589,
			"-0.01": 2.37610775569,
			"-0.009": 4.5646475438,
			"-0.008": 3.80758181774,
			"-0.007": 4.46727315411,
			"-0.006": 4.16628197385,
			"-0.005": 5.86698116644,
			"-0.004": 8.68227797204,
			"-0.003": 11.2845898279,
			"-0.002": 9.59141312736,
			"-0.001": 8.43160573399,
			"0.0": 5.56861290067,
			"0.001": 3.78937202094,
			"0.002": 3.34385087929,
			"0.003": 1.15412743207,
			"0.004": 3.35539173767,
			"0.005": 2.25789294236,
			"0.006": 2.17804245184,
			"0.007": 2.96014625667,
			"0.008": 3.03184614423,
			"0.009": 3.99533112903,
			"0.01": 7.57893285768,
			"0.011": 9.71083805354,
			"0.012": 3.93174703873,
			"0.013": 0.0216412179039,
			"0.014": 0.0,
			"0.015": 0.0,
			"0.016": 0.0,
			"0.017": 0.0,
			"0.018": 0.0,
			"0.019": 0.0,
			"0.02": 0.0,
			"0.021": 0.0,
			"0.022": 0.0,
			"0.023": 0.0,
			"0.024": 0.0,
			"0.025": 0.0
		}
	}
}
