{
	 "smiles": "CC(C)N1C(=O)NC(=O)C1=O", 
	 "Tm": 367.15, 
	 "num_atms": 19, 
	 "gaussian": { 
		 "optdone": 1, 
		 "sigma_profile": "yes", 
		 "theory": "DFT", 
		 "functional": "B3LYP", 
		 "basiset": "6-31G**", 
		 "properties": { 
			 "R2extent": 2225.2378, 
			 "electric_dipole_moment_norm": 2.79286236503, 
			 "electric_quadrupole_moment_norm": 19.0516197695, 
			 "total_energy": -568.681594888, 
			 "HOMO_LUMO_gap": 0.1888, 
			 "cosmo_polarized_energy": -14.05, 
			 "cosmo_cavitation_energy": 23.46, 
			 "cosmo_dispersion_energy": -16.78, 
			 "cosmo_repulsion_energy": 1.37, 
			 "cosmo_total_nonelectrostatic_energy": 8.05, 
			 "SMD_solvation_energy": 6.85 
		},
		"coords": [
			{
				"x": -1.067982865,
				"y": 0.6610160841,
				"z": -0.6586638486,
				"element": "C" 
			},
			{
				"x": -0.0054578859,
				"y": 0.6118208095,
				"z": 0.4449515176,
				"element": "C" 
			},
			{
				"x": -0.5031947427,
				"y": 1.1742429775,
				"z": 1.7811236539,
				"element": "C" 
			},
			{
				"x": 0.5207252568,
				"y": -0.7607767305,
				"z": 0.6120618482,
				"element": "N" 
			},
			{
				"x": -0.2385864856,
				"y": -1.8659061568,
				"z": 1.0184788113,
				"element": "C" 
			},
			{
				"x": -1.4161939599,
				"y": -1.8878818574,
				"z": 1.2957578511,
				"element": "O" 
			},
			{
				"x": 0.6352269083,
				"y": -2.9624633811,
				"z": 1.0451624464,
				"element": "N" 
			},
			{
				"x": 1.9283553391,
				"y": -2.629738142,
				"z": 0.676793431,
				"element": "C" 
			},
			{
				"x": 2.8947539051,
				"y": -3.3465543819,
				"z": 0.6030910026,
				"element": "O" 
			},
			{
				"x": 1.8460930566,
				"y": -1.1105968162,
				"z": 0.3781402083,
				"element": "C" 
			},
			{
				"x": 2.7455354014,
				"y": -0.3885989495,
				"z": 0.0186610498,
				"element": "O" 
			},
			{
				"x": -0.6710382436,
				"y": 0.2740114643,
				"z": -1.6018250003,
				"element": "H" 
			},
			{
				"x": -1.378158013,
				"y": 1.6976037805,
				"z": -0.8214609297,
				"element": "H" 
			},
			{
				"x": -1.9481634255,
				"y": 0.0764901699,
				"z": -0.3803794103,
				"element": "H" 
			},
			{
				"x": 0.8740654987,
				"y": 1.1772180503,
				"z": 0.1223730625,
				"element": "H" 
			},
			{
				"x": -0.8069810018,
				"y": 2.2170164614,
				"z": 1.6485786339,
				"element": "H" 
			},
			{
				"x": -1.3626760688,
				"y": 0.6078673391,
				"z": 2.1477457958,
				"element": "H" 
			},
			{
				"x": 0.2872004794,
				"y": 1.1449399888,
				"z": 2.5369542605,
				"element": "H" 
			},
			{
				"x": 0.3236768464,
				"y": -3.8864107098,
				"z": 1.311055616,
				"element": "H" 
			}
		],
		 "valence_orbital": [ 
			{
				"type": "occ",
				"energy": -0.33614,
				"method": "rhf"
			},
			{
				"type": "occ",
				"energy": -0.31548,
				"method": "rhf"
			},
			{
				"type": "occ",
				"energy": -0.30087,
				"method": "rhf"
			},
			{
				"type": "occ",
				"energy": -0.29363,
				"method": "rhf"
			},
			{
				"type": "occ",
				"energy": -0.27668,
				"method": "rhf"
			},
			{
				"type": "unocc",
				"energy": -0.08788,
				"method": "rhf"
			},
			{
				"type": "unocc",
				"energy": 0.02971,
				"method": "rhf"
			},
			{
				"type": "unocc",
				"energy": 0.0686,
				"method": "rhf"
			},
			{
				"type": "unocc",
				"energy": 0.07006,
				"method": "rhf"
			},
			{
				"type": "unocc",
				"energy": 0.085,
				"method": "rhf"
			}
		],
		"cosmo_sigma_profile": { 
			"-0.025": 0.0,
			"-0.024": 0.0,
			"-0.023": 0.0,
			"-0.022": 0.0,
			"-0.021": 0.0,
			"-0.02": 0.0,
			"-0.019": 0.0,
			"-0.018": 0.879790774412,
			"-0.017": 1.34538574798,
			"-0.016": 1.20712307276,
			"-0.015": 1.10310653652,
			"-0.014": 0.61530758629,
			"-0.013": 0.941180423782,
			"-0.012": 0.970552154042,
			"-0.011": 0.617694857832,
			"-0.01": 2.04462534915,
			"-0.009": 2.78732828186,
			"-0.008": 2.82739230096,
			"-0.007": 3.64921141567,
			"-0.006": 2.96205410367,
			"-0.005": 10.4193326017,
			"-0.004": 22.5194249074,
			"-0.003": 16.4924478193,
			"-0.002": 15.2560777416,
			"-0.001": 15.4985106429,
			"0.0": 16.7399263724,
			"0.001": 7.07536063958,
			"0.002": 3.22283427592,
			"0.003": 4.39438914125,
			"0.004": 4.73331149069,
			"0.005": 3.70446296052,
			"0.006": 3.50031641149,
			"0.007": 4.40763000003,
			"0.008": 6.00756527039,
			"0.009": 8.66227017271,
			"0.01": 14.2826588457,
			"0.011": 6.85236103117,
			"0.012": 0.19157057031,
			"0.013": 0.0,
			"0.014": 0.0,
			"0.015": 0.0,
			"0.016": 0.0,
			"0.017": 0.0,
			"0.018": 0.0,
			"0.019": 0.0,
			"0.02": 0.0,
			"0.021": 0.0,
			"0.022": 0.0,
			"0.023": 0.0,
			"0.024": 0.0,
			"0.025": 0.0
		}
	}
}
