{
	 "smiles": "CN(C)CC1=CC(=C(O)C(=C1)C(C)(C)C)C(C)(C)C", 
	 "Tm": 365.35, 
	 "num_atms": 48, 
	 "gaussian": { 
		 "optdone": 1, 
		 "sigma_profile": "yes", 
		 "theory": "DFT", 
		 "functional": "B3LYP", 
		 "basiset": "6-31G**", 
		 "properties": { 
			 "R2extent": 6160.596, 
			 "electric_dipole_moment_norm": 1.99353135165, 
			 "electric_quadrupole_moment_norm": 7.24794964869, 
			 "total_energy": -795.26364601, 
			 "HOMO_LUMO_gap": 0.20094, 
			 "cosmo_polarized_energy": -7.41, 
			 "cosmo_cavitation_energy": 44.79, 
			 "cosmo_dispersion_energy": -29.68, 
			 "cosmo_repulsion_energy": 2.28, 
			 "cosmo_total_nonelectrostatic_energy": 17.38, 
			 "SMD_solvation_energy": 5.34 
		},
		"coords": [
			{
				"x": -0.8295395629,
				"y": 0.8363836458,
				"z": 4.1397169285,
				"element": "C" 
			},
			{
				"x": -1.9752678421,
				"y": 0.1773765747,
				"z": 3.531374488,
				"element": "N" 
			},
			{
				"x": -1.7941710231,
				"y": -1.262984239,
				"z": 3.4387279975,
				"element": "C" 
			},
			{
				"x": -2.4256851764,
				"y": 0.8030372691,
				"z": 2.2787230909,
				"element": "C" 
			},
			{
				"x": -1.4683852368,
				"y": 0.7601868599,
				"z": 1.0950175009,
				"element": "C" 
			},
			{
				"x": -0.5346959816,
				"y": 1.7719173789,
				"z": 0.8836013157,
				"element": "C" 
			},
			{
				"x": 0.3910736356,
				"y": 1.7644514568,
				"z": -0.1705078977,
				"element": "C" 
			},
			{
				"x": 0.3442549133,
				"y": 0.6573109788,
				"z": -1.0467342112,
				"element": "C" 
			},
			{
				"x": 1.2478696795,
				"y": 0.6388640119,
				"z": -2.0815746681,
				"element": "O" 
			},
			{
				"x": -0.5973300306,
				"y": -0.3961021234,
				"z": -0.8836265902,
				"element": "C" 
			},
			{
				"x": -1.4827580155,
				"y": -0.3079117887,
				"z": 0.1943962882,
				"element": "C" 
			},
			{
				"x": -0.6598548849,
				"y": -1.6023209503,
				"z": -1.8566590311,
				"element": "C" 
			},
			{
				"x": -0.996216883,
				"y": -1.1337878744,
				"z": -3.2996035065,
				"element": "C" 
			},
			{
				"x": 0.6672542939,
				"y": -2.4103410389,
				"z": -1.821877692,
				"element": "C" 
			},
			{
				"x": -1.7709429815,
				"y": -2.6014769575,
				"z": -1.467610947,
				"element": "C" 
			},
			{
				"x": 1.3576397057,
				"y": 2.9795433809,
				"z": -0.2580259773,
				"element": "C" 
			},
			{
				"x": 2.3810805443,
				"y": 2.9664127848,
				"z": -1.4145992265,
				"element": "C" 
			},
			{
				"x": 0.5151820522,
				"y": 4.2706019896,
				"z": -0.4190930784,
				"element": "C" 
			},
			{
				"x": 2.1715076548,
				"y": 3.0612324524,
				"z": 1.058521134,
				"element": "C" 
			},
			{
				"x": 0.108155486,
				"y": 0.7403612796,
				"z": 3.5630669108,
				"element": "H" 
			},
			{
				"x": -0.6557315079,
				"y": 0.4118023258,
				"z": 5.1347707766,
				"element": "H" 
			},
			{
				"x": -1.0413328003,
				"y": 1.9043715594,
				"z": 4.2633564278,
				"element": "H" 
			},
			{
				"x": -2.7088104506,
				"y": -1.725535121,
				"z": 3.0508218608,
				"element": "H" 
			},
			{
				"x": -1.6120151689,
				"y": -1.668867941,
				"z": 4.4400872499,
				"element": "H" 
			},
			{
				"x": -0.954537491,
				"y": -1.5744747725,
				"z": 2.7909014806,
				"element": "H" 
			},
			{
				"x": -3.3677973588,
				"y": 0.315149088,
				"z": 1.9985882862,
				"element": "H" 
			},
			{
				"x": -2.6640902941,
				"y": 1.8484271325,
				"z": 2.5112748599,
				"element": "H" 
			},
			{
				"x": -0.5348143425,
				"y": 2.6144745855,
				"z": 1.5687065586,
				"element": "H" 
			},
			{
				"x": 1.1234655478,
				"y": -0.1609866416,
				"z": -2.5994379447,
				"element": "H" 
			},
			{
				"x": -2.2219570644,
				"y": -1.0857949854,
				"z": 0.3431664411,
				"element": "H" 
			},
			{
				"x": -1.9794482942,
				"y": -0.6536730266,
				"z": -3.3162153465,
				"element": "H" 
			},
			{
				"x": -0.2914463777,
				"y": -0.4095855708,
				"z": -3.7190399903,
				"element": "H" 
			},
			{
				"x": -1.0258081422,
				"y": -1.9925545604,
				"z": -3.9791584128,
				"element": "H" 
			},
			{
				"x": 0.8355037754,
				"y": -2.8084547085,
				"z": -0.8165204904,
				"element": "H" 
			},
			{
				"x": 0.614457063,
				"y": -3.2547196414,
				"z": -2.5177928012,
				"element": "H" 
			},
			{
				"x": 1.5609513874,
				"y": -1.8330964414,
				"z": -2.0784539252,
				"element": "H" 
			},
			{
				"x": -1.6118114992,
				"y": -3.0230722507,
				"z": -0.4706086787,
				"element": "H" 
			},
			{
				"x": -2.7631452238,
				"y": -2.1410948532,
				"z": -1.4939068058,
				"element": "H" 
			},
			{
				"x": -1.7743623124,
				"y": -3.4324280036,
				"z": -2.1804034216,
				"element": "H" 
			},
			{
				"x": 1.8992809059,
				"y": 2.9555378627,
				"z": -2.393585229,
				"element": "H" 
			},
			{
				"x": 2.9876739708,
				"y": 3.8768225937,
				"z": -1.34370616,
				"element": "H" 
			},
			{
				"x": 3.0520289287,
				"y": 2.1072748578,
				"z": -1.363508553,
				"element": "H" 
			},
			{
				"x": -0.187926354,
				"y": 4.41748958,
				"z": 0.4055233734,
				"element": "H" 
			},
			{
				"x": -0.062212831,
				"y": 4.2433036986,
				"z": -1.3491095156,
				"element": "H" 
			},
			{
				"x": 1.172439489,
				"y": 5.1469416731,
				"z": -0.4551066065,
				"element": "H" 
			},
			{
				"x": 2.8420607789,
				"y": 3.9278030928,
				"z": 1.0333223931,
				"element": "H" 
			},
			{
				"x": 2.7848582301,
				"y": 2.1638307112,
				"z": 1.1913548813,
				"element": "H" 
			},
			{
				"x": 1.5330570892,
				"y": 3.1621546662,
				"z": 1.940546463,
				"element": "H" 
			}
		],
		 "valence_orbital": [ 
			{
				"type": "occ",
				"energy": -0.30839,
				"method": "rhf"
			},
			{
				"type": "occ",
				"energy": -0.29653,
				"method": "rhf"
			},
			{
				"type": "occ",
				"energy": -0.23207,
				"method": "rhf"
			},
			{
				"type": "occ",
				"energy": -0.20964,
				"method": "rhf"
			},
			{
				"type": "occ",
				"energy": -0.19807,
				"method": "rhf"
			},
			{
				"type": "unocc",
				"energy": 0.00287,
				"method": "rhf"
			},
			{
				"type": "unocc",
				"energy": 0.01531,
				"method": "rhf"
			},
			{
				"type": "unocc",
				"energy": 0.06567,
				"method": "rhf"
			},
			{
				"type": "unocc",
				"energy": 0.08168,
				"method": "rhf"
			},
			{
				"type": "unocc",
				"energy": 0.09586,
				"method": "rhf"
			}
		],
		"cosmo_sigma_profile": { 
			"-0.025": 0.0,
			"-0.024": 0.0,
			"-0.023": 0.0,
			"-0.022": 0.0,
			"-0.021": 0.0,
			"-0.02": 0.0,
			"-0.019": 0.0,
			"-0.018": 0.0,
			"-0.017": 0.0,
			"-0.016": 0.0,
			"-0.015": 0.0,
			"-0.014": 0.0,
			"-0.013": 0.673169745069,
			"-0.012": 0.942771977502,
			"-0.011": 0.374485167046,
			"-0.01": 0.521391320513,
			"-0.009": 1.18413660404,
			"-0.008": 1.10955840198,
			"-0.007": 0.406469178396,
			"-0.006": 0.86366606591,
			"-0.005": 2.40360166807,
			"-0.004": 15.8406704008,
			"-0.003": 42.1047266804,
			"-0.002": 46.9688689486,
			"-0.001": 47.9954878432,
			"0.0": 56.1388606101,
			"0.001": 47.9546190116,
			"0.002": 26.9176851291,
			"0.003": 11.4900183284,
			"0.004": 11.3261670437,
			"0.005": 7.70598325293,
			"0.006": 9.1141624881,
			"0.007": 6.3483514805,
			"0.008": 2.56953008946,
			"0.009": 0.79085015046,
			"0.01": 0.420788328907,
			"0.011": 0.58210400026,
			"0.012": 0.842348187795,
			"0.013": 0.488985794026,
			"0.014": 0.534008184261,
			"0.015": 0.549110259326,
			"0.016": 0.332854744851,
			"0.017": 0.211221051583,
			"0.018": 0.0,
			"0.019": 0.0,
			"0.02": 0.0,
			"0.021": 0.0,
			"0.022": 0.0,
			"0.023": 0.0,
			"0.024": 0.0,
			"0.025": 0.0
		}
	}
}
