{
	 "smiles": "OC(=O)C1=CC=C(CN2CCCC2)C=C1", 
	 "Tm": 457.15, 
	 "num_atms": 30, 
	 "gaussian": { 
		 "optdone": 1, 
		 "sigma_profile": "yes", 
		 "theory": "DFT", 
		 "functional": "B3LYP", 
		 "basiset": "6-31G**", 
		 "properties": { 
			 "R2extent": 5072.0834, 
			 "electric_dipole_moment_norm": 5.67307711476, 
			 "electric_quadrupole_moment_norm": 28.3065002171, 
			 "total_energy": -671.521939454, 
			 "HOMO_LUMO_gap": 0.17811, 
			 "cosmo_polarized_energy": -13.91, 
			 "cosmo_cavitation_energy": 32.41, 
			 "cosmo_dispersion_energy": -23.53, 
			 "cosmo_repulsion_energy": 1.86, 
			 "cosmo_total_nonelectrostatic_energy": 10.74, 
			 "SMD_solvation_energy": 4.61 
		},
		"coords": [
			{
				"x": -5.2350796489,
				"y": -1.5114243797,
				"z": 0.1927053236,
				"element": "O" 
			},
			{
				"x": -4.648372012,
				"y": -0.6038913628,
				"z": -0.6356910125,
				"element": "C" 
			},
			{
				"x": -5.332570571,
				"y": 0.1932158682,
				"z": -1.2342166434,
				"element": "O" 
			},
			{
				"x": -3.1561831158,
				"y": -0.6629903266,
				"z": -0.7513087969,
				"element": "C" 
			},
			{
				"x": -2.3321212738,
				"y": -1.2699559084,
				"z": 0.2086027095,
				"element": "C" 
			},
			{
				"x": -0.9487860851,
				"y": -1.2811230208,
				"z": 0.0491010774,
				"element": "C" 
			},
			{
				"x": -0.3555023619,
				"y": -0.6849946167,
				"z": -1.0713614853,
				"element": "C" 
			},
			{
				"x": 1.1475144406,
				"y": -0.74637021,
				"z": -1.2738916765,
				"element": "C" 
			},
			{
				"x": 1.8985131809,
				"y": -0.631380174,
				"z": -0.0348440289,
				"element": "N" 
			},
			{
				"x": 1.8856839349,
				"y": 0.7046673645,
				"z": 0.5703091613,
				"element": "C" 
			},
			{
				"x": 2.9673039729,
				"y": 0.6207366274,
				"z": 1.6643771135,
				"element": "C" 
			},
			{
				"x": 3.9186347043,
				"y": -0.5137993189,
				"z": 1.1829025787,
				"element": "C" 
			},
			{
				"x": 3.3185936792,
				"y": -0.9685705056,
				"z": -0.159924363,
				"element": "C" 
			},
			{
				"x": -1.1802403775,
				"y": -0.0626060885,
				"z": -2.0176397955,
				"element": "C" 
			},
			{
				"x": -2.5627175578,
				"y": -0.0457559109,
				"z": -1.8600325489,
				"element": "C" 
			},
			{
				"x": -4.5878860277,
				"y": -2.1744765613,
				"z": 0.4696262457,
				"element": "H" 
			},
			{
				"x": -2.756280701,
				"y": -1.705434341,
				"z": 1.1110020503,
				"element": "H" 
			},
			{
				"x": -0.3074785906,
				"y": -1.7338304153,
				"z": 0.7984763685,
				"element": "H" 
			},
			{
				"x": 1.3975408478,
				"y": -1.7176129091,
				"z": -1.723470513,
				"element": "H" 
			},
			{
				"x": 1.4472597276,
				"y": 0.0216133587,
				"z": -2.0147786207,
				"element": "H" 
			},
			{
				"x": 0.8919350641,
				"y": 0.9480715544,
				"z": 0.9571964309,
				"element": "H" 
			},
			{
				"x": 2.151234912,
				"y": 1.4808422777,
				"z": -0.1747732714,
				"element": "H" 
			},
			{
				"x": 2.5217078976,
				"y": 0.3648601544,
				"z": 2.6295647628,
				"element": "H" 
			},
			{
				"x": 3.4831359447,
				"y": 1.5768842004,
				"z": 1.7873095487,
				"element": "H" 
			},
			{
				"x": 4.9522379029,
				"y": -0.176712405,
				"z": 1.0669864478,
				"element": "H" 
			},
			{
				"x": 3.9220652817,
				"y": -1.3401283349,
				"z": 1.8990432151,
				"element": "H" 
			},
			{
				"x": 3.4453348007,
				"y": -2.0391452409,
				"z": -0.3548087918,
				"element": "H" 
			},
			{
				"x": 3.7940461668,
				"y": -0.4190987967,
				"z": -0.9966314189,
				"element": "H" 
			},
			{
				"x": -0.7323917156,
				"y": 0.4185145632,
				"z": -2.8836090077,
				"element": "H" 
			},
			{
				"x": -3.20533242,
				"y": 0.4455948582,
				"z": -2.5827210591,
				"element": "H" 
			}
		],
		 "valence_orbital": [ 
			{
				"type": "occ",
				"energy": -0.31084,
				"method": "rhf"
			},
			{
				"type": "occ",
				"energy": -0.27057,
				"method": "rhf"
			},
			{
				"type": "occ",
				"energy": -0.26621,
				"method": "rhf"
			},
			{
				"type": "occ",
				"energy": -0.25524,
				"method": "rhf"
			},
			{
				"type": "occ",
				"energy": -0.22442,
				"method": "rhf"
			},
			{
				"type": "unocc",
				"energy": -0.04631,
				"method": "rhf"
			},
			{
				"type": "unocc",
				"energy": -0.01774,
				"method": "rhf"
			},
			{
				"type": "unocc",
				"energy": 0.04943,
				"method": "rhf"
			},
			{
				"type": "unocc",
				"energy": 0.06673,
				"method": "rhf"
			},
			{
				"type": "unocc",
				"energy": 0.07662,
				"method": "rhf"
			}
		],
		"cosmo_sigma_profile": { 
			"-0.025": 0.0,
			"-0.024": 0.0,
			"-0.023": 0.0,
			"-0.022": 0.0,
			"-0.021": 0.0,
			"-0.02": 0.0,
			"-0.019": 0.0394878284176,
			"-0.018": 0.673309943913,
			"-0.017": 1.02953445926,
			"-0.016": 0.787490513212,
			"-0.015": 1.03700645686,
			"-0.014": 0.979037418402,
			"-0.013": 1.21639097706,
			"-0.012": 1.0679231628,
			"-0.011": 0.909784566616,
			"-0.01": 0.922919893232,
			"-0.009": 1.877930303,
			"-0.008": 1.2853888669,
			"-0.007": 1.64545487902,
			"-0.006": 4.52733835353,
			"-0.005": 10.4941273964,
			"-0.004": 12.2352411882,
			"-0.003": 22.1319038038,
			"-0.002": 32.5590131645,
			"-0.001": 39.7686944075,
			"0.0": 28.8271524283,
			"0.001": 19.4667364091,
			"0.002": 10.8930667679,
			"0.003": 13.4317721615,
			"0.004": 11.2378032169,
			"0.005": 3.3399716629,
			"0.006": 3.24474634996,
			"0.007": 2.85482946269,
			"0.008": 3.66491158115,
			"0.009": 4.19316731845,
			"0.01": 4.9613878298,
			"0.011": 5.52233125906,
			"0.012": 5.67821738928,
			"0.013": 2.05411255315,
			"0.014": 0.205988238193,
			"0.015": 0.0,
			"0.016": 0.0,
			"0.017": 0.0,
			"0.018": 0.0,
			"0.019": 0.0,
			"0.02": 0.0,
			"0.021": 0.0,
			"0.022": 0.0,
			"0.023": 0.0,
			"0.024": 0.0,
			"0.025": 0.0
		}
	}
}
