{
	 "smiles": "CCC(=O)NCC(O)=O", 
	 "Tm": 395.15, 
	 "num_atms": 18, 
	 "gaussian": { 
		 "optdone": 1, 
		 "sigma_profile": "yes", 
		 "theory": "DFT", 
		 "functional": "B3LYP", 
		 "basiset": "6-31G**", 
		 "properties": { 
			 "R2extent": 2676.3953, 
			 "electric_dipole_moment_norm": 2.6187383088, 
			 "electric_quadrupole_moment_norm": 7.7201071249, 
			 "total_energy": -476.416003108, 
			 "HOMO_LUMO_gap": 0.23722, 
			 "cosmo_polarized_energy": -14.26, 
			 "cosmo_cavitation_energy": 22.42, 
			 "cosmo_dispersion_energy": -16.46, 
			 "cosmo_repulsion_energy": 1.41, 
			 "cosmo_total_nonelectrostatic_energy": 7.37, 
			 "SMD_solvation_energy": 5.16 
		},
		"coords": [
			{
				"x": 2.0643345329,
				"y": 2.7258600389,
				"z": 0.0591396205,
				"element": "C" 
			},
			{
				"x": 0.5705067364,
				"y": 2.7168448219,
				"z": -0.2721541876,
				"element": "C" 
			},
			{
				"x": 0.0363834931,
				"y": 1.2988438247,
				"z": -0.4629094547,
				"element": "C" 
			},
			{
				"x": 0.4598017225,
				"y": 0.3354220932,
				"z": 0.1674994569,
				"element": "O" 
			},
			{
				"x": -0.9751897917,
				"y": 1.1708033839,
				"z": -1.3697914869,
				"element": "N" 
			},
			{
				"x": -1.6094355638,
				"y": -0.103466478,
				"z": -1.6018897689,
				"element": "C" 
			},
			{
				"x": -2.7028711847,
				"y": 0.0636111432,
				"z": -2.6330469587,
				"element": "C" 
			},
			{
				"x": -3.3265167555,
				"y": -1.1024935093,
				"z": -2.8863351213,
				"element": "O" 
			},
			{
				"x": -2.9938211609,
				"y": 1.1098872807,
				"z": -3.1735346222,
				"element": "O" 
			},
			{
				"x": 2.6592355736,
				"y": 2.3764149027,
				"z": -0.7905360902,
				"element": "H" 
			},
			{
				"x": 2.4000744111,
				"y": 3.7341650762,
				"z": 0.3181522624,
				"element": "H" 
			},
			{
				"x": 2.2630050011,
				"y": 2.058030489,
				"z": 0.9001053061,
				"element": "H" 
			},
			{
				"x": 0.3568508262,
				"y": 3.3289825279,
				"z": -1.1565947812,
				"element": "H" 
			},
			{
				"x": 0.0039213632,
				"y": 3.1619213026,
				"z": 0.5569799392,
				"element": "H" 
			},
			{
				"x": -1.3309597876,
				"y": 1.9556846105,
				"z": -1.8985257769,
				"element": "H" 
			},
			{
				"x": -2.0429353118,
				"y": -0.5166196211,
				"z": -0.6817586865,
				"element": "H" 
			},
			{
				"x": -0.8930225683,
				"y": -0.855695121,
				"z": -1.9568695137,
				"element": "H" 
			},
			{
				"x": -4.0092615357,
				"y": -0.9150967662,
				"z": -3.5524301363,
				"element": "H" 
			}
		],
		 "valence_orbital": [ 
			{
				"type": "occ",
				"energy": -0.33931,
				"method": "rhf"
			},
			{
				"type": "occ",
				"energy": -0.33746,
				"method": "rhf"
			},
			{
				"type": "occ",
				"energy": -0.30113,
				"method": "rhf"
			},
			{
				"type": "occ",
				"energy": -0.25549,
				"method": "rhf"
			},
			{
				"type": "occ",
				"energy": -0.24554,
				"method": "rhf"
			},
			{
				"type": "unocc",
				"energy": -0.00832,
				"method": "rhf"
			},
			{
				"type": "unocc",
				"energy": 0.03062,
				"method": "rhf"
			},
			{
				"type": "unocc",
				"energy": 0.06282,
				"method": "rhf"
			},
			{
				"type": "unocc",
				"energy": 0.08985,
				"method": "rhf"
			},
			{
				"type": "unocc",
				"energy": 0.11144,
				"method": "rhf"
			}
		],
		"cosmo_sigma_profile": { 
			"-0.025": 0.0,
			"-0.024": 0.0,
			"-0.023": 0.0,
			"-0.022": 0.0,
			"-0.021": 0.0,
			"-0.02": 0.0,
			"-0.019": 0.44921380151,
			"-0.018": 1.10039429968,
			"-0.017": 0.613725957997,
			"-0.016": 0.776581945984,
			"-0.015": 1.34192934111,
			"-0.014": 0.593204403949,
			"-0.013": 0.274059445962,
			"-0.012": 1.36856731328,
			"-0.011": 2.04211279712,
			"-0.01": 1.50525516333,
			"-0.009": 1.31772094266,
			"-0.008": 3.21151734719,
			"-0.007": 6.73454992677,
			"-0.006": 6.2314543956,
			"-0.005": 9.62385543776,
			"-0.004": 10.8824347068,
			"-0.003": 15.285820981,
			"-0.002": 17.1454544768,
			"-0.001": 14.5388314758,
			"0.0": 13.0282831381,
			"0.001": 13.098991073,
			"0.002": 5.86603698028,
			"0.003": 4.61653123167,
			"0.004": 3.66103043845,
			"0.005": 3.51716854769,
			"0.006": 3.59957346216,
			"0.007": 4.22490917564,
			"0.008": 3.98566533346,
			"0.009": 4.94831794544,
			"0.01": 4.49019484389,
			"0.011": 4.82235930658,
			"0.012": 1.57769281825,
			"0.013": 2.85848587638,
			"0.014": 5.42518698857,
			"0.015": 0.965359823189,
			"0.016": 0.0,
			"0.017": 0.0,
			"0.018": 0.0,
			"0.019": 0.0,
			"0.02": 0.0,
			"0.021": 0.0,
			"0.022": 0.0,
			"0.023": 0.0,
			"0.024": 0.0,
			"0.025": 0.0
		}
	}
}
