{
	 "smiles": "CN1C=CC(=CC1=O)C(=O)N1CCC(CO)CC1", 
	 "Tm": 448.15, 
	 "num_atms": 36, 
	 "gaussian": { 
		 "optdone": 1, 
		 "sigma_profile": "yes", 
		 "theory": "DFT", 
		 "functional": "B3LYP", 
		 "basiset": "6-31G**", 
		 "properties": { 
			 "R2extent": 7028.0656, 
			 "electric_dipole_moment_norm": 4.37857245686, 
			 "electric_quadrupole_moment_norm": 21.3220627635, 
			 "total_energy": -841.412826944, 
			 "HOMO_LUMO_gap": 0.16413, 
			 "cosmo_polarized_energy": -21.96, 
			 "cosmo_cavitation_energy": 37.62, 
			 "cosmo_dispersion_energy": -27.0, 
			 "cosmo_repulsion_energy": 2.09, 
			 "cosmo_total_nonelectrostatic_energy": 12.71, 
			 "SMD_solvation_energy": 6.74 
		},
		"coords": [
			{
				"x": 0.3371412537,
				"y": 1.7470080183,
				"z": -4.4356048533,
				"element": "C" 
			},
			{
				"x": 0.02926784,
				"y": 1.5778934803,
				"z": -3.0165809389,
				"element": "N" 
			},
			{
				"x": 0.3714305509,
				"y": 2.5265418316,
				"z": -2.092740917,
				"element": "C" 
			},
			{
				"x": 0.0833686328,
				"y": 2.3814879526,
				"z": -0.7688762277,
				"element": "C" 
			},
			{
				"x": -0.5825958661,
				"y": 1.1947124758,
				"z": -0.3377111874,
				"element": "C" 
			},
			{
				"x": -0.9457936489,
				"y": 0.2475729319,
				"z": -1.259329827,
				"element": "C" 
			},
			{
				"x": -0.6568295444,
				"y": 0.3859960374,
				"z": -2.6733023669,
				"element": "C" 
			},
			{
				"x": -0.9479271349,
				"y": -0.4252242179,
				"z": -3.5521038053,
				"element": "O" 
			},
			{
				"x": -0.9763791599,
				"y": 1.1278546831,
				"z": 1.1195893014,
				"element": "C" 
			},
			{
				"x": -1.3941919267,
				"y": 2.1506116937,
				"z": 1.6642498618,
				"element": "O" 
			},
			{
				"x": -0.8984364872,
				"y": -0.0625502394,
				"z": 1.7897898229,
				"element": "N" 
			},
			{
				"x": -1.4042266517,
				"y": -0.0590662305,
				"z": 3.1760475676,
				"element": "C" 
			},
			{
				"x": -1.5498094596,
				"y": -1.4883020054,
				"z": 3.6958315094,
				"element": "C" 
			},
			{
				"x": -0.2055471751,
				"y": -2.2567618034,
				"z": 3.7036432473,
				"element": "C" 
			},
			{
				"x": 0.5211433295,
				"y": -2.1294438039,
				"z": 5.042214953,
				"element": "C" 
			},
			{
				"x": -0.2791217742,
				"y": -2.739390002,
				"z": 6.0461197802,
				"element": "O" 
			},
			{
				"x": 0.7052307797,
				"y": -1.7713577254,
				"z": 2.5510915355,
				"element": "C" 
			},
			{
				"x": -0.1068433891,
				"y": -1.2296023088,
				"z": 1.3695630612,
				"element": "C" 
			},
			{
				"x": -0.5850358677,
				"y": 1.7243009735,
				"z": -5.0209609823,
				"element": "H" 
			},
			{
				"x": 0.9679191246,
				"y": 0.924487903,
				"z": -4.7811287101,
				"element": "H" 
			},
			{
				"x": 0.8501779663,
				"y": 2.6984756344,
				"z": -4.5807960419,
				"element": "H" 
			},
			{
				"x": 0.8807793312,
				"y": 3.4011208584,
				"z": -2.4829585654,
				"element": "H" 
			},
			{
				"x": 0.3294459128,
				"y": 3.1568386904,
				"z": -0.0561034202,
				"element": "H" 
			},
			{
				"x": -1.4854396448,
				"y": -0.6506760794,
				"z": -0.9840186795,
				"element": "H" 
			},
			{
				"x": -2.3611496974,
				"y": 0.4675216766,
				"z": 3.1831542912,
				"element": "H" 
			},
			{
				"x": -0.7300680576,
				"y": 0.5282711519,
				"z": 3.8158083936,
				"element": "H" 
			},
			{
				"x": -1.9669291019,
				"y": -1.4728031317,
				"z": 4.7067400304,
				"element": "H" 
			},
			{
				"x": -2.276067679,
				"y": -2.0178765911,
				"z": 3.0686111985,
				"element": "H" 
			},
			{
				"x": -0.4214849508,
				"y": -3.3231803058,
				"z": 3.5658603803,
				"element": "H" 
			},
			{
				"x": 1.5087480389,
				"y": -2.6142478376,
				"z": 4.9692802223,
				"element": "H" 
			},
			{
				"x": 0.6980808403,
				"y": -1.0629884344,
				"z": 5.2641558375,
				"element": "H" 
			},
			{
				"x": 0.1368994174,
				"y": -2.5844626598,
				"z": 6.9026834385,
				"element": "H" 
			},
			{
				"x": 1.3531984448,
				"y": -2.5824277636,
				"z": 2.2014829857,
				"element": "H" 
			},
			{
				"x": 1.3682576004,
				"y": -0.9702021281,
				"z": 2.9047755877,
				"element": "H" 
			},
			{
				"x": 0.5567426409,
				"y": -0.9325584213,
				"z": 0.5573764427,
				"element": "H" 
			},
			{
				"x": -0.7608544872,
				"y": -2.0211743035,
				"z": 0.9770470743,
				"element": "H" 
			}
		],
		 "valence_orbital": [ 
			{
				"type": "occ",
				"energy": -0.27385,
				"method": "rhf"
			},
			{
				"type": "occ",
				"energy": -0.25602,
				"method": "rhf"
			},
			{
				"type": "occ",
				"energy": -0.24181,
				"method": "rhf"
			},
			{
				"type": "occ",
				"energy": -0.23456,
				"method": "rhf"
			},
			{
				"type": "occ",
				"energy": -0.21377,
				"method": "rhf"
			},
			{
				"type": "unocc",
				"energy": -0.04964,
				"method": "rhf"
			},
			{
				"type": "unocc",
				"energy": 0.00936,
				"method": "rhf"
			},
			{
				"type": "unocc",
				"energy": 0.04865,
				"method": "rhf"
			},
			{
				"type": "unocc",
				"energy": 0.06726,
				"method": "rhf"
			},
			{
				"type": "unocc",
				"energy": 0.07686,
				"method": "rhf"
			}
		],
		"cosmo_sigma_profile": { 
			"-0.025": 0.0,
			"-0.024": 0.0,
			"-0.023": 0.0,
			"-0.022": 0.0,
			"-0.021": 0.0,
			"-0.02": 0.0,
			"-0.019": 0.0,
			"-0.018": 0.0,
			"-0.017": 0.0,
			"-0.016": 0.325586000774,
			"-0.015": 1.00582655668,
			"-0.014": 1.21257650301,
			"-0.013": 0.68330099915,
			"-0.012": 0.54670655112,
			"-0.011": 1.48024696195,
			"-0.01": 1.64083064903,
			"-0.009": 3.87482358819,
			"-0.008": 3.85826486313,
			"-0.007": 5.3527359196,
			"-0.006": 9.21187423007,
			"-0.005": 14.6918162788,
			"-0.004": 28.7926341261,
			"-0.003": 46.1714822842,
			"-0.002": 40.5430052736,
			"-0.001": 25.6256156432,
			"0.0": 16.644063165,
			"0.001": 12.1964973487,
			"0.002": 10.3299523362,
			"0.003": 7.42078274801,
			"0.004": 5.94397019736,
			"0.005": 4.52025900973,
			"0.006": 4.38595945707,
			"0.007": 4.76022893495,
			"0.008": 4.41628441817,
			"0.009": 4.88207140487,
			"0.01": 3.33411106398,
			"0.011": 3.42797076484,
			"0.012": 4.93272613341,
			"0.013": 6.44134579535,
			"0.014": 11.0787494865,
			"0.015": 4.08169318054,
			"0.016": 0.431976941716,
			"0.017": 0.0,
			"0.018": 0.0,
			"0.019": 0.0,
			"0.02": 0.0,
			"0.021": 0.0,
			"0.022": 0.0,
			"0.023": 0.0,
			"0.024": 0.0,
			"0.025": 0.0
		}
	}
}
