{
	 "smiles": "CC(O)CCO", 
	 "Tm": 219.15, 
	 "num_atms": 16, 
	 "gaussian": { 
		 "optdone": 1, 
		 "sigma_profile": "yes", 
		 "theory": "DFT", 
		 "functional": "B3LYP", 
		 "basiset": "6-31G**", 
		 "properties": { 
			 "R2extent": 1289.2946, 
			 "electric_dipole_moment_norm": 2.40986607304, 
			 "electric_quadrupole_moment_norm": 9.80182912318, 
			 "total_energy": -308.887298928, 
			 "HOMO_LUMO_gap": 0.32128, 
			 "cosmo_polarized_energy": -10.81, 
			 "cosmo_cavitation_energy": 18.54, 
			 "cosmo_dispersion_energy": -13.64, 
			 "cosmo_repulsion_energy": 1.21, 
			 "cosmo_total_nonelectrostatic_energy": 6.11, 
			 "SMD_solvation_energy": 3.27 
		},
		"coords": [
			{
				"x": 0.6226256115,
				"y": -0.4467698541,
				"z": 0.663775437,
				"element": "C" 
			},
			{
				"x": -0.4509178547,
				"y": 0.5174399995,
				"z": 0.1570388229,
				"element": "C" 
			},
			{
				"x": -1.4955281539,
				"y": 0.6775363503,
				"z": 1.1222642108,
				"element": "O" 
			},
			{
				"x": 0.1291045674,
				"y": 1.8726613377,
				"z": -0.2705610602,
				"element": "C" 
			},
			{
				"x": -0.918143588,
				"y": 2.8230543786,
				"z": -0.8564776658,
				"element": "C" 
			},
			{
				"x": -0.3592499065,
				"y": 4.0601178466,
				"z": -1.2841029447,
				"element": "O" 
			},
			{
				"x": 1.1502589042,
				"y": -0.0214976578,
				"z": 1.5275312917,
				"element": "H" 
			},
			{
				"x": 0.1670997622,
				"y": -1.3914718291,
				"z": 0.9736112446,
				"element": "H" 
			},
			{
				"x": 1.3691236714,
				"y": -0.6562941118,
				"z": -0.1094259039,
				"element": "H" 
			},
			{
				"x": -0.954433675,
				"y": 0.0638304311,
				"z": -0.7065412994,
				"element": "H" 
			},
			{
				"x": -1.0896681991,
				"y": 1.014228235,
				"z": 1.933351261,
				"element": "H" 
			},
			{
				"x": 0.924507308,
				"y": 1.7205379371,
				"z": -1.0103516529,
				"element": "H" 
			},
			{
				"x": 0.6043819086,
				"y": 2.3458455773,
				"z": 0.6045024206,
				"element": "H" 
			},
			{
				"x": -1.3636718502,
				"y": 2.3757161275,
				"z": -1.7520863599,
				"element": "H" 
			},
			{
				"x": -1.7311811182,
				"y": 2.9696429247,
				"z": -0.1320203842,
				"element": "H" 
			},
			{
				"x": -0.0415073875,
				"y": 4.5250223075,
				"z": -0.4995074176,
				"element": "H" 
			}
		],
		 "valence_orbital": [ 
			{
				"type": "occ",
				"energy": -0.35483,
				"method": "rhf"
			},
			{
				"type": "occ",
				"energy": -0.32094,
				"method": "rhf"
			},
			{
				"type": "occ",
				"energy": -0.31543,
				"method": "rhf"
			},
			{
				"type": "occ",
				"energy": -0.27902,
				"method": "rhf"
			},
			{
				"type": "occ",
				"energy": -0.25299,
				"method": "rhf"
			},
			{
				"type": "unocc",
				"energy": 0.06829,
				"method": "rhf"
			},
			{
				"type": "unocc",
				"energy": 0.08022,
				"method": "rhf"
			},
			{
				"type": "unocc",
				"energy": 0.11226,
				"method": "rhf"
			},
			{
				"type": "unocc",
				"energy": 0.12339,
				"method": "rhf"
			},
			{
				"type": "unocc",
				"energy": 0.14615,
				"method": "rhf"
			}
		],
		"cosmo_sigma_profile": { 
			"-0.025": 0.0,
			"-0.024": 0.0,
			"-0.023": 0.0,
			"-0.022": 0.0,
			"-0.021": 0.0,
			"-0.02": 0.0,
			"-0.019": 0.0,
			"-0.018": 0.0,
			"-0.017": 0.0,
			"-0.016": 0.0,
			"-0.015": 0.95514817562,
			"-0.014": 2.26102631249,
			"-0.013": 1.24640382102,
			"-0.012": 1.45365633017,
			"-0.011": 2.39838139555,
			"-0.01": 2.21300614764,
			"-0.009": 1.940244037,
			"-0.008": 1.63194082194,
			"-0.007": 2.59507704854,
			"-0.006": 2.55235803915,
			"-0.005": 3.065144341,
			"-0.004": 8.78111732071,
			"-0.003": 18.2623328964,
			"-0.002": 15.4972424969,
			"-0.001": 13.4712655588,
			"0.0": 13.8579484032,
			"0.001": 11.0734756478,
			"0.002": 4.50782291757,
			"0.003": 2.71698864682,
			"0.004": 2.13598564132,
			"0.005": 2.29863386501,
			"0.006": 3.01992054744,
			"0.007": 2.53357210797,
			"0.008": 2.846199244,
			"0.009": 1.82620306871,
			"0.01": 2.09637751073,
			"0.011": 2.60216166901,
			"0.012": 2.48140576907,
			"0.013": 3.49134376766,
			"0.014": 3.50844208228,
			"0.015": 2.9749118324,
			"0.016": 0.0,
			"0.017": 0.0,
			"0.018": 0.0,
			"0.019": 0.0,
			"0.02": 0.0,
			"0.021": 0.0,
			"0.022": 0.0,
			"0.023": 0.0,
			"0.024": 0.0,
			"0.025": 0.0
		}
	}
}
