{
	 "smiles": "CCCC1=C(CC)SC(N)=N1", 
	 "Tm": 327.15, 
	 "num_atms": 25, 
	 "gaussian": { 
		 "optdone": 1, 
		 "sigma_profile": "yes", 
		 "theory": "DFT", 
		 "functional": "B3LYP", 
		 "basiset": "6-31G**", 
		 "properties": { 
			 "R2extent": 2765.5826, 
			 "electric_dipole_moment_norm": 1.32238373024, 
			 "electric_quadrupole_moment_norm": 13.4875465894, 
			 "total_energy": -820.997183765, 
			 "HOMO_LUMO_gap": 0.20146, 
			 "cosmo_polarized_energy": -9.06, 
			 "cosmo_cavitation_energy": 28.93, 
			 "cosmo_dispersion_energy": -20.72, 
			 "cosmo_repulsion_energy": 1.66, 
			 "cosmo_total_nonelectrostatic_energy": 9.87, 
			 "SMD_solvation_energy": 3.05 
		},
		"coords": [
			{
				"x": 1.5792944574,
				"y": 1.3995150336,
				"z": 0.9194205741,
				"element": "C" 
			},
			{
				"x": 0.5059710373,
				"y": 1.6851011175,
				"z": 1.9734497989,
				"element": "C" 
			},
			{
				"x": -0.936697297,
				"y": 1.573933989,
				"z": 1.4383989569,
				"element": "C" 
			},
			{
				"x": -1.3247989131,
				"y": 0.1711151638,
				"z": 1.0463575345,
				"element": "C" 
			},
			{
				"x": -1.6972668042,
				"y": -0.262171033,
				"z": -0.1968881589,
				"element": "C" 
			},
			{
				"x": -1.8101790775,
				"y": 0.4729814699,
				"z": -1.5026676084,
				"element": "C" 
			},
			{
				"x": -0.7331605487,
				"y": 0.098189301,
				"z": -2.5369146605,
				"element": "C" 
			},
			{
				"x": -2.0687611571,
				"y": -1.9919893903,
				"z": -0.114814721,
				"element": "S" 
			},
			{
				"x": -1.6571332261,
				"y": -1.9538437436,
				"z": 1.60116521,
				"element": "C" 
			},
			{
				"x": -1.7948259595,
				"y": -3.0776913012,
				"z": 2.3906045449,
				"element": "N" 
			},
			{
				"x": -1.2998131505,
				"y": -0.7898958024,
				"z": 2.0508788107,
				"element": "N" 
			},
			{
				"x": 1.5111298165,
				"y": 2.1035583202,
				"z": 0.0812082517,
				"element": "H" 
			},
			{
				"x": 2.5847547819,
				"y": 1.4876289714,
				"z": 1.3442300867,
				"element": "H" 
			},
			{
				"x": 1.476114171,
				"y": 0.3881010081,
				"z": 0.5128091148,
				"element": "H" 
			},
			{
				"x": 0.6485190255,
				"y": 2.6947475818,
				"z": 2.3790084277,
				"element": "H" 
			},
			{
				"x": 0.6150952644,
				"y": 0.9888849914,
				"z": 2.8124271098,
				"element": "H" 
			},
			{
				"x": -1.6270555978,
				"y": 1.9098262369,
				"z": 2.2229994384,
				"element": "H" 
			},
			{
				"x": -1.068154586,
				"y": 2.25418175,
				"z": 0.5900950136,
				"element": "H" 
			},
			{
				"x": -1.7542510294,
				"y": 1.5466860638,
				"z": -1.2953893758,
				"element": "H" 
			},
			{
				"x": -2.8033218588,
				"y": 0.303780845,
				"z": -1.9397179756,
				"element": "H" 
			},
			{
				"x": -0.8690955244,
				"y": 0.6682526067,
				"z": -3.4621054365,
				"element": "H" 
			},
			{
				"x": 0.2684408181,
				"y": 0.3068047178,
				"z": -2.1487790154,
				"element": "H" 
			},
			{
				"x": -0.7779259021,
				"y": -0.9663139909,
				"z": -2.7886763035,
				"element": "H" 
			},
			{
				"x": -1.3503684124,
				"y": -2.969008427,
				"z": 3.2935149916,
				"element": "H" 
			},
			{
				"x": -1.5977103276,
				"y": -3.9646754796,
				"z": 1.9486853913,
				"element": "H" 
			}
		],
		 "valence_orbital": [ 
			{
				"type": "occ",
				"energy": -0.31529,
				"method": "rhf"
			},
			{
				"type": "occ",
				"energy": -0.29844,
				"method": "rhf"
			},
			{
				"type": "occ",
				"energy": -0.26194,
				"method": "rhf"
			},
			{
				"type": "occ",
				"energy": -0.25974,
				"method": "rhf"
			},
			{
				"type": "occ",
				"energy": -0.19754,
				"method": "rhf"
			},
			{
				"type": "unocc",
				"energy": 0.00392,
				"method": "rhf"
			},
			{
				"type": "unocc",
				"energy": 0.01782,
				"method": "rhf"
			},
			{
				"type": "unocc",
				"energy": 0.06616,
				"method": "rhf"
			},
			{
				"type": "unocc",
				"energy": 0.075,
				"method": "rhf"
			},
			{
				"type": "unocc",
				"energy": 0.09391,
				"method": "rhf"
			}
		],
		"cosmo_sigma_profile": { 
			"-0.025": 0.0,
			"-0.024": 0.0,
			"-0.023": 0.0,
			"-0.022": 0.0,
			"-0.021": 0.0,
			"-0.02": 0.0,
			"-0.019": 0.0,
			"-0.018": 0.0,
			"-0.017": 0.0,
			"-0.016": 0.0,
			"-0.015": 0.0345763812082,
			"-0.014": 1.18872764674,
			"-0.013": 2.24796289681,
			"-0.012": 2.69065859642,
			"-0.011": 2.87400384095,
			"-0.01": 1.99275235759,
			"-0.009": 2.85948929068,
			"-0.008": 1.58822049477,
			"-0.007": 1.17806453244,
			"-0.006": 2.26110206774,
			"-0.005": 3.29695019036,
			"-0.004": 5.96954091574,
			"-0.003": 16.2692820078,
			"-0.002": 25.5674488077,
			"-0.001": 29.7302462745,
			"0.0": 31.6765375403,
			"0.001": 28.7500515815,
			"0.002": 17.5699883656,
			"0.003": 12.397060607,
			"0.004": 10.314633996,
			"0.005": 8.83902205458,
			"0.006": 3.91763399225,
			"0.007": 2.69013504445,
			"0.008": 2.24257850818,
			"0.009": 2.62818619419,
			"0.01": 1.75532306431,
			"0.011": 1.57477767462,
			"0.012": 1.99813457456,
			"0.013": 0.528553769953,
			"0.014": 0.593932641844,
			"0.015": 0.79497335262,
			"0.016": 0.0318006455905,
			"0.017": 0.0,
			"0.018": 0.0,
			"0.019": 0.0,
			"0.02": 0.0,
			"0.021": 0.0,
			"0.022": 0.0,
			"0.023": 0.0,
			"0.024": 0.0,
			"0.025": 0.0
		}
	}
}
