{
	 "smiles": "ClCC(=O)N1CCN(CC1)S(=O)(=O)C1=C(C=CC=C1)C#N", 
	 "Tm": 480.15, 
	 "num_atms": 35, 
	 "gaussian": { 
		 "optdone": 1, 
		 "sigma_profile": "yes", 
		 "theory": "DFT", 
		 "functional": "B3LYP", 
		 "basiset": "6-31G**", 
		 "properties": { 
			 "R2extent": 8751.277, 
			 "electric_dipole_moment_norm": 5.0165060889, 
			 "electric_quadrupole_moment_norm": 32.037801879, 
			 "total_energy": -1752.04033427, 
			 "HOMO_LUMO_gap": 0.16891, 
			 "cosmo_polarized_energy": -23.21, 
			 "cosmo_cavitation_energy": 41.26, 
			 "cosmo_dispersion_energy": -28.54, 
			 "cosmo_repulsion_energy": 2.12, 
			 "cosmo_total_nonelectrostatic_energy": 14.84, 
			 "SMD_solvation_energy": 6.73 
		},
		"coords": [
			{
				"x": -5.3229605902,
				"y": -0.5940009276,
				"z": -1.6275671508,
				"element": "Cl" 
			},
			{
				"x": -5.2847794569,
				"y": -0.0636841506,
				"z": 0.1092364128,
				"element": "C" 
			},
			{
				"x": -4.3154389624,
				"y": -0.8883991633,
				"z": 0.9597528977,
				"element": "C" 
			},
			{
				"x": -4.7722802169,
				"y": -1.6423237961,
				"z": 1.8120185961,
				"element": "O" 
			},
			{
				"x": -2.970659785,
				"y": -0.7304361594,
				"z": 0.7514383163,
				"element": "N" 
			},
			{
				"x": -2.3232446563,
				"y": 0.1506737755,
				"z": -0.2200348878,
				"element": "C" 
			},
			{
				"x": -1.3106873578,
				"y": 1.0627186857,
				"z": 0.479094886,
				"element": "C" 
			},
			{
				"x": -0.3651146791,
				"y": 0.2206727457,
				"z": 1.2366572325,
				"element": "N" 
			},
			{
				"x": -1.0140839102,
				"y": -0.644881197,
				"z": 2.2394752863,
				"element": "C" 
			},
			{
				"x": -2.0353975105,
				"y": -1.5378417569,
				"z": 1.531830884,
				"element": "C" 
			},
			{
				"x": 1.0895352173,
				"y": 0.9366165255,
				"z": 1.7054968951,
				"element": "S" 
			},
			{
				"x": 1.1434678988,
				"y": 1.0893636223,
				"z": 3.1640711968,
				"element": "O" 
			},
			{
				"x": 1.3173146233,
				"y": 2.0777155987,
				"z": 0.8180864944,
				"element": "O" 
			},
			{
				"x": 2.2863567775,
				"y": -0.3532390751,
				"z": 1.289191595,
				"element": "C" 
			},
			{
				"x": 2.4129963792,
				"y": -0.8562366326,
				"z": -0.0228882309,
				"element": "C" 
			},
			{
				"x": 3.4124819616,
				"y": -1.8034070452,
				"z": -0.2952017685,
				"element": "C" 
			},
			{
				"x": 4.2685007192,
				"y": -2.2354073351,
				"z": 0.7170641525,
				"element": "C" 
			},
			{
				"x": 4.135270943,
				"y": -1.7306014136,
				"z": 2.0097660218,
				"element": "C" 
			},
			{
				"x": 3.1446287858,
				"y": -0.7873795367,
				"z": 2.2955725384,
				"element": "C" 
			},
			{
				"x": 1.5443250499,
				"y": -0.4589088146,
				"z": -1.0931278834,
				"element": "C" 
			},
			{
				"x": 0.8622709654,
				"y": -0.1889050553,
				"z": -1.9955372776,
				"element": "N" 
			},
			{
				"x": -6.2786089448,
				"y": -0.2355172168,
				"z": 0.5150288601,
				"element": "H" 
			},
			{
				"x": -5.058952938,
				"y": 1.0040913597,
				"z": 0.1139836098,
				"element": "H" 
			},
			{
				"x": -3.0608772515,
				"y": 0.7606704697,
				"z": -0.7389969774,
				"element": "H" 
			},
			{
				"x": -1.8028506508,
				"y": -0.4516979828,
				"z": -0.9744857558,
				"element": "H" 
			},
			{
				"x": -1.8351362849,
				"y": 1.7619714115,
				"z": 1.147426293,
				"element": "H" 
			},
			{
				"x": -0.7524746327,
				"y": 1.6350454413,
				"z": -0.2614326403,
				"element": "H" 
			},
			{
				"x": -1.5044352154,
				"y": -0.0440148107,
				"z": 3.0173421951,
				"element": "H" 
			},
			{
				"x": -0.2561951598,
				"y": -1.2675508455,
				"z": 2.7216063112,
				"element": "H" 
			},
			{
				"x": -2.6139079661,
				"y": -2.1101678765,
				"z": 2.2569475372,
				"element": "H" 
			},
			{
				"x": -1.5112067433,
				"y": -2.2319385462,
				"z": 0.8613497798,
				"element": "H" 
			},
			{
				"x": 3.506320352,
				"y": -2.1930197431,
				"z": -1.3030940171,
				"element": "H" 
			},
			{
				"x": 5.0373687986,
				"y": -2.9675319937,
				"z": 0.4918232842,
				"element": "H" 
			},
			{
				"x": 4.8004741784,
				"y": -2.0660807635,
				"z": 2.7991098415,
				"element": "H" 
			},
			{
				"x": 3.0269802627,
				"y": -0.3791677979,
				"z": 3.2929954719,
				"element": "H" 
			}
		],
		 "valence_orbital": [ 
			{
				"type": "occ",
				"energy": -0.30116,
				"method": "rhf"
			},
			{
				"type": "occ",
				"energy": -0.28931,
				"method": "rhf"
			},
			{
				"type": "occ",
				"energy": -0.2729,
				"method": "rhf"
			},
			{
				"type": "occ",
				"energy": -0.26157,
				"method": "rhf"
			},
			{
				"type": "occ",
				"energy": -0.25124,
				"method": "rhf"
			},
			{
				"type": "unocc",
				"energy": -0.08233,
				"method": "rhf"
			},
			{
				"type": "unocc",
				"energy": -0.05343,
				"method": "rhf"
			},
			{
				"type": "unocc",
				"energy": -0.02276,
				"method": "rhf"
			},
			{
				"type": "unocc",
				"energy": 0.01463,
				"method": "rhf"
			},
			{
				"type": "unocc",
				"energy": 0.03814,
				"method": "rhf"
			}
		],
		"cosmo_sigma_profile": { 
			"-0.025": 0.0,
			"-0.024": 0.0,
			"-0.023": 0.0,
			"-0.022": 0.0,
			"-0.021": 0.0,
			"-0.02": 0.0,
			"-0.019": 0.0,
			"-0.018": 0.0,
			"-0.017": 0.0,
			"-0.016": 0.0,
			"-0.015": 0.0,
			"-0.014": 0.0,
			"-0.013": 0.0,
			"-0.012": 0.0,
			"-0.011": 0.163989697736,
			"-0.01": 2.03853936465,
			"-0.009": 5.49002966762,
			"-0.008": 12.3647739767,
			"-0.007": 16.2933959169,
			"-0.006": 23.9435835652,
			"-0.005": 29.8935409851,
			"-0.004": 21.8093547269,
			"-0.003": 19.5468690101,
			"-0.002": 18.3570441007,
			"-0.001": 22.6487283948,
			"0.0": 23.0452597184,
			"0.001": 21.2282396163,
			"0.002": 12.9814674379,
			"0.003": 13.2731555696,
			"0.004": 11.6441832546,
			"0.005": 12.5505703594,
			"0.006": 11.248651976,
			"0.007": 6.91601224522,
			"0.008": 6.93515711307,
			"0.009": 9.2796175506,
			"0.01": 10.824036435,
			"0.011": 8.55963933584,
			"0.012": 4.85803596426,
			"0.013": 4.50658783579,
			"0.014": 0.83259833255,
			"0.015": 0.0,
			"0.016": 0.0,
			"0.017": 0.0,
			"0.018": 0.0,
			"0.019": 0.0,
			"0.02": 0.0,
			"0.021": 0.0,
			"0.022": 0.0,
			"0.023": 0.0,
			"0.024": 0.0,
			"0.025": 0.0
		}
	}
}
