{
	 "smiles": "O=C1NC2=C(C=NN2)C(=O)N1", 
	 "Tm": 573.15, 
	 "num_atms": 15, 
	 "gaussian": { 
		 "optdone": 1, 
		 "sigma_profile": "yes", 
		 "theory": "DFT", 
		 "functional": "B3LYP", 
		 "basiset": "6-31G**", 
		 "properties": { 
			 "R2extent": 2351.8924, 
			 "electric_dipole_moment_norm": 4.21023931386, 
			 "electric_quadrupole_moment_norm": 15.1541503332, 
			 "total_energy": -562.412684151, 
			 "HOMO_LUMO_gap": 0.22056, 
			 "cosmo_polarized_energy": -23.16, 
			 "cosmo_cavitation_energy": 20.37, 
			 "cosmo_dispersion_energy": -15.67, 
			 "cosmo_repulsion_energy": 1.26, 
			 "cosmo_total_nonelectrostatic_energy": 5.96, 
			 "SMD_solvation_energy": 4.33 
		},
		"coords": [
			{
				"x": 0.6077402367,
				"y": -1.196381356,
				"z": 2.2534337998,
				"element": "O" 
			},
			{
				"x": 0.6762280113,
				"y": -0.1610111788,
				"z": 1.6190914949,
				"element": "C" 
			},
			{
				"x": 1.4999993418,
				"y": -0.0367285717,
				"z": 0.4923052282,
				"element": "N" 
			},
			{
				"x": 1.5583598821,
				"y": 1.1423058827,
				"z": -0.2049699823,
				"element": "C" 
			},
			{
				"x": 0.830282218,
				"y": 2.2755675991,
				"z": 0.1349961618,
				"element": "C" 
			},
			{
				"x": 1.1981564683,
				"y": 3.2351172552,
				"z": -0.8455778153,
				"element": "C" 
			},
			{
				"x": 2.0703298409,
				"y": 2.7469940582,
				"z": -1.7108762112,
				"element": "N" 
			},
			{
				"x": 2.2827171609,
				"y": 1.4498051413,
				"z": -1.3002168434,
				"element": "N" 
			},
			{
				"x": -0.0530480981,
				"y": 2.2550501293,
				"z": 1.2840193879,
				"element": "C" 
			},
			{
				"x": -0.7524316046,
				"y": 3.1569948412,
				"z": 1.7084502485,
				"element": "O" 
			},
			{
				"x": -0.0366971773,
				"y": 0.989426169,
				"z": 1.9305364574,
				"element": "N" 
			},
			{
				"x": 2.0279866539,
				"y": -0.8617656057,
				"z": 0.2475147534,
				"element": "H" 
			},
			{
				"x": 0.8518614997,
				"y": 4.254884969,
				"z": -0.9376924873,
				"element": "H" 
			},
			{
				"x": 2.923786854,
				"y": 0.8720713203,
				"z": -1.8211319089,
				"element": "H" 
			},
			{
				"x": -0.6341712876,
				"y": 0.905869347,
				"z": 2.7441177165,
				"element": "H" 
			}
		],
		 "valence_orbital": [ 
			{
				"type": "occ",
				"energy": -0.30322,
				"method": "rhf"
			},
			{
				"type": "occ",
				"energy": -0.29106,
				"method": "rhf"
			},
			{
				"type": "occ",
				"energy": -0.28689,
				"method": "rhf"
			},
			{
				"type": "occ",
				"energy": -0.26847,
				"method": "rhf"
			},
			{
				"type": "occ",
				"energy": -0.24551,
				"method": "rhf"
			},
			{
				"type": "unocc",
				"energy": -0.02495,
				"method": "rhf"
			},
			{
				"type": "unocc",
				"energy": -0.00958,
				"method": "rhf"
			},
			{
				"type": "unocc",
				"energy": 0.03165,
				"method": "rhf"
			},
			{
				"type": "unocc",
				"energy": 0.04521,
				"method": "rhf"
			},
			{
				"type": "unocc",
				"energy": 0.0665,
				"method": "rhf"
			}
		],
		"cosmo_sigma_profile": { 
			"-0.025": 0.0,
			"-0.024": 0.0,
			"-0.023": 0.0,
			"-0.022": 0.0,
			"-0.021": 0.0731211002369,
			"-0.02": 0.750111058578,
			"-0.019": 1.06882285375,
			"-0.018": 2.96259539015,
			"-0.017": 3.43384054503,
			"-0.016": 2.64484594648,
			"-0.015": 2.28712882121,
			"-0.014": 2.00898245941,
			"-0.013": 2.25149280257,
			"-0.012": 2.52611908889,
			"-0.011": 1.92803361389,
			"-0.01": 1.86815376531,
			"-0.009": 3.34792883458,
			"-0.008": 3.15857399845,
			"-0.007": 3.89954314986,
			"-0.006": 4.37404485805,
			"-0.005": 5.06298073194,
			"-0.004": 6.10836350902,
			"-0.003": 9.07508899472,
			"-0.002": 11.0686625414,
			"-0.001": 9.68037102587,
			"0.0": 8.06062609722,
			"0.001": 9.16729829381,
			"0.002": 7.07007886495,
			"0.003": 4.64246065221,
			"0.004": 3.83987982943,
			"0.005": 4.16283203373,
			"0.006": 4.43638320557,
			"0.007": 3.0116978768,
			"0.008": 3.71997597083,
			"0.009": 3.88208018464,
			"0.01": 4.6025384442,
			"0.011": 5.7144879825,
			"0.012": 12.7945223642,
			"0.013": 7.07795443161,
			"0.014": 1.38291234591,
			"0.015": 0.499105398924,
			"0.016": 0.0,
			"0.017": 0.0,
			"0.018": 0.0,
			"0.019": 0.0,
			"0.02": 0.0,
			"0.021": 0.0,
			"0.022": 0.0,
			"0.023": 0.0,
			"0.024": 0.0,
			"0.025": 0.0
		}
	}
}
