{
	 "smiles": "CC(=O)NCC1(CCN(CCCC(=O)C2=CC=C(F)C=C2)CC1)C1=CC=CC=C1", 
	 "Tm": 371.65, 
	 "num_atms": 58, 
	 "gaussian": { 
		 "optdone": 1, 
		 "sigma_profile": "yes", 
		 "theory": "DFT", 
		 "functional": "B3LYP", 
		 "basiset": "6-31G**", 
		 "properties": { 
			 "R2extent": 17958.0048, 
			 "electric_dipole_moment_norm": 4.8089831316, 
			 "electric_quadrupole_moment_norm": 18.0599259423, 
			 "total_energy": -1291.83375786, 
			 "HOMO_LUMO_gap": 0.14102, 
			 "cosmo_polarized_energy": -20.6, 
			 "cosmo_cavitation_energy": 58.23, 
			 "cosmo_dispersion_energy": -38.74, 
			 "cosmo_repulsion_energy": 2.91, 
			 "cosmo_total_nonelectrostatic_energy": 22.4, 
			 "SMD_solvation_energy": 9.2 
		},
		"coords": [
			{
				"x": -3.8009237327,
				"y": -3.0179964279,
				"z": 1.872852666,
				"element": "C" 
			},
			{
				"x": -2.5724918824,
				"y": -2.6821570437,
				"z": 1.0377418383,
				"element": "C" 
			},
			{
				"x": -2.6721827912,
				"y": -2.1204436884,
				"z": -0.0485429399,
				"element": "O" 
			},
			{
				"x": -1.3770244137,
				"y": -3.0642551668,
				"z": 1.5803227625,
				"element": "N" 
			},
			{
				"x": -0.0937703256,
				"y": -2.8499190805,
				"z": 0.9336019756,
				"element": "C" 
			},
			{
				"x": 0.8124187036,
				"y": -1.8006909925,
				"z": 1.6547882718,
				"element": "C" 
			},
			{
				"x": 0.1507511699,
				"y": -0.4077055309,
				"z": 1.5903173891,
				"element": "C" 
			},
			{
				"x": -0.0739358456,
				"y": 0.0967469513,
				"z": 0.1485641325,
				"element": "C" 
			},
			{
				"x": 0.9619345133,
				"y": -0.3990906766,
				"z": -0.7621350607,
				"element": "N" 
			},
			{
				"x": 0.9696246759,
				"y": 0.2252603272,
				"z": -2.0781631642,
				"element": "C" 
			},
			{
				"x": 1.4780646911,
				"y": 1.6830135417,
				"z": -2.145787542,
				"element": "C" 
			},
			{
				"x": 1.4764209396,
				"y": 2.2520510339,
				"z": -3.5844354523,
				"element": "C" 
			},
			{
				"x": 0.0747587466,
				"y": 2.3962019043,
				"z": -4.1660330155,
				"element": "C" 
			},
			{
				"x": -0.3680554222,
				"y": 1.540136124,
				"z": -4.9203471949,
				"element": "O" 
			},
			{
				"x": -0.7719102425,
				"y": 3.5736779129,
				"z": -3.783332374,
				"element": "C" 
			},
			{
				"x": -0.3138117537,
				"y": 4.6271175331,
				"z": -2.975565176,
				"element": "C" 
			},
			{
				"x": -1.146833329,
				"y": 5.6981116744,
				"z": -2.6572608119,
				"element": "C" 
			},
			{
				"x": -2.4447337993,
				"y": 5.7029690637,
				"z": -3.1568133796,
				"element": "C" 
			},
			{
				"x": -3.2542857722,
				"y": 6.7346627525,
				"z": -2.8530823411,
				"element": "F" 
			},
			{
				"x": -2.934267322,
				"y": 4.6760139577,
				"z": -3.9609054307,
				"element": "C" 
			},
			{
				"x": -2.0907052086,
				"y": 3.6160187977,
				"z": -4.2688272718,
				"element": "C" 
			},
			{
				"x": 2.2529162645,
				"y": -0.5599334252,
				"z": -0.1125708399,
				"element": "C" 
			},
			{
				"x": 2.18430219,
				"y": -1.7219304446,
				"z": 0.8972692394,
				"element": "C" 
			},
			{
				"x": 1.0395577348,
				"y": -2.2811989658,
				"z": 3.0985190986,
				"element": "C" 
			},
			{
				"x": 1.7997574232,
				"y": -3.4432532207,
				"z": 3.3297849549,
				"element": "C" 
			},
			{
				"x": 2.0103533953,
				"y": -3.9335079175,
				"z": 4.6173128764,
				"element": "C" 
			},
			{
				"x": 1.4622543829,
				"y": -3.2729862893,
				"z": 5.7193119123,
				"element": "C" 
			},
			{
				"x": 0.7046783515,
				"y": -2.1222109603,
				"z": 5.5119175525,
				"element": "C" 
			},
			{
				"x": 0.4943779399,
				"y": -1.6354055839,
				"z": 4.2178354083,
				"element": "C" 
			},
			{
				"x": -3.5701897731,
				"y": -3.456989893,
				"z": 2.8476488432,
				"element": "H" 
			},
			{
				"x": -4.4262698574,
				"y": -3.7166828471,
				"z": 1.3096427912,
				"element": "H" 
			},
			{
				"x": -4.3854543927,
				"y": -2.1061130376,
				"z": 2.0194796687,
				"element": "H" 
			},
			{
				"x": -1.3743362074,
				"y": -3.4776544335,
				"z": 2.5009072959,
				"element": "H" 
			},
			{
				"x": 0.4436571398,
				"y": -3.8050412357,
				"z": 0.8869236817,
				"element": "H" 
			},
			{
				"x": -0.2915099005,
				"y": -2.5257518541,
				"z": -0.0882999371,
				"element": "H" 
			},
			{
				"x": -0.8175666221,
				"y": -0.4154748731,
				"z": 2.0996895443,
				"element": "H" 
			},
			{
				"x": 0.7851711946,
				"y": 0.2989538635,
				"z": 2.1385389509,
				"element": "H" 
			},
			{
				"x": -0.1120095715,
				"y": 1.2012869276,
				"z": 0.1845198558,
				"element": "H" 
			},
			{
				"x": -1.0447228182,
				"y": -0.2508260882,
				"z": -0.2210316018,
				"element": "H" 
			},
			{
				"x": 1.5908009225,
				"y": -0.3900108413,
				"z": -2.7432760842,
				"element": "H" 
			},
			{
				"x": -0.0495326855,
				"y": 0.170767774,
				"z": -2.4775514419,
				"element": "H" 
			},
			{
				"x": 2.5053886403,
				"y": 1.7289026899,
				"z": -1.7646826984,
				"element": "H" 
			},
			{
				"x": 0.8745774419,
				"y": 2.3242270906,
				"z": -1.4930430123,
				"element": "H" 
			},
			{
				"x": 2.0170617715,
				"y": 1.5720588966,
				"z": -4.249953154,
				"element": "H" 
			},
			{
				"x": 1.9984130005,
				"y": 3.2151937965,
				"z": -3.5996842962,
				"element": "H" 
			},
			{
				"x": 0.6988633255,
				"y": 4.6230757435,
				"z": -2.5873742428,
				"element": "H" 
			},
			{
				"x": -0.8089266926,
				"y": 6.5203863811,
				"z": -2.0362000189,
				"element": "H" 
			},
			{
				"x": -3.9543354745,
				"y": 4.7224549509,
				"z": -4.3266143362,
				"element": "H" 
			},
			{
				"x": -2.4298621774,
				"y": 2.7954284642,
				"z": -4.8917087489,
				"element": "H" 
			},
			{
				"x": 3.0049014102,
				"y": -0.7873772641,
				"z": -0.8767180772,
				"element": "H" 
			},
			{
				"x": 2.6000193085,
				"y": 0.3606048121,
				"z": 0.3960393446,
				"element": "H" 
			},
			{
				"x": 3.0008206703,
				"y": -1.6144447497,
				"z": 1.6189548992,
				"element": "H" 
			},
			{
				"x": 2.3554691034,
				"y": -2.6649843362,
				"z": 0.364731677,
				"element": "H" 
			},
			{
				"x": 2.2408852335,
				"y": -3.9719936224,
				"z": 2.4893389304,
				"element": "H" 
			},
			{
				"x": 2.6052464931,
				"y": -4.8315637294,
				"z": 4.759885243,
				"element": "H" 
			},
			{
				"x": 1.6260299527,
				"y": -3.6509259385,
				"z": 6.7243259117,
				"element": "H" 
			},
			{
				"x": 0.2725285557,
				"y": -1.5943996345,
				"z": 6.3578037188,
				"element": "H" 
			},
			{
				"x": -0.0963572724,
				"y": -0.735103172,
				"z": 4.0929692099,
				"element": "H" 
			}
		],
		 "valence_orbital": [ 
			{
				"type": "occ",
				"energy": -0.24837,
				"method": "rhf"
			},
			{
				"type": "occ",
				"energy": -0.24382,
				"method": "rhf"
			},
			{
				"type": "occ",
				"energy": -0.24282,
				"method": "rhf"
			},
			{
				"type": "occ",
				"energy": -0.23819,
				"method": "rhf"
			},
			{
				"type": "occ",
				"energy": -0.19491,
				"method": "rhf"
			},
			{
				"type": "unocc",
				"energy": -0.05389,
				"method": "rhf"
			},
			{
				"type": "unocc",
				"energy": -0.01839,
				"method": "rhf"
			},
			{
				"type": "unocc",
				"energy": -0.00718,
				"method": "rhf"
			},
			{
				"type": "unocc",
				"energy": -0.00308,
				"method": "rhf"
			},
			{
				"type": "unocc",
				"energy": 0.03525,
				"method": "rhf"
			}
		],
		"cosmo_sigma_profile": { 
			"-0.025": 0.0,
			"-0.024": 0.0,
			"-0.023": 0.0,
			"-0.022": 0.0,
			"-0.021": 0.0,
			"-0.02": 0.0,
			"-0.019": 0.0,
			"-0.018": 0.0,
			"-0.017": 0.0,
			"-0.016": 0.0,
			"-0.015": 0.0,
			"-0.014": 0.0,
			"-0.013": 0.16300613494,
			"-0.012": 0.69696081458,
			"-0.011": 1.08102891822,
			"-0.01": 1.211037317,
			"-0.009": 1.17854261161,
			"-0.008": 3.30549266817,
			"-0.007": 8.1618403862,
			"-0.006": 12.5246760651,
			"-0.005": 26.8886892179,
			"-0.004": 31.3358300099,
			"-0.003": 51.1682073581,
			"-0.002": 55.1844827862,
			"-0.001": 55.7611343708,
			"0.0": 43.3062928558,
			"0.001": 29.0725685815,
			"0.002": 28.8154628134,
			"0.003": 26.1243328709,
			"0.004": 21.8662122886,
			"0.005": 11.8096507725,
			"0.006": 9.77904310826,
			"0.007": 5.13276250717,
			"0.008": 4.88258647717,
			"0.009": 4.99602978682,
			"0.01": 3.16842044626,
			"0.011": 4.73212661616,
			"0.012": 5.33272718579,
			"0.013": 3.17486380285,
			"0.014": 4.11101172577,
			"0.015": 2.35070178189,
			"0.016": 0.499359508555,
			"0.017": 0.0,
			"0.018": 0.0,
			"0.019": 0.0,
			"0.02": 0.0,
			"0.021": 0.0,
			"0.022": 0.0,
			"0.023": 0.0,
			"0.024": 0.0,
			"0.025": 0.0
		}
	}
}
