{
	 "smiles": "CC12C=CC3=C4CCC(=O)C=C4CCC3C1CCC2(O)CC=C", 
	 "Tm": 393.15, 
	 "num_atms": 49, 
	 "gaussian": { 
		 "optdone": 1, 
		 "sigma_profile": "yes", 
		 "theory": "DFT", 
		 "functional": "B3LYP", 
		 "basiset": "6-31G**", 
		 "properties": { 
			 "R2extent": 9736.6529, 
			 "electric_dipole_moment_norm": 6.89033186791, 
			 "electric_quadrupole_moment_norm": 35.1942283919, 
			 "total_energy": -966.293048782, 
			 "HOMO_LUMO_gap": 0.13981, 
			 "cosmo_polarized_energy": -16.16, 
			 "cosmo_cavitation_energy": 45.57, 
			 "cosmo_dispersion_energy": -31.97, 
			 "cosmo_repulsion_energy": 2.39, 
			 "cosmo_total_nonelectrostatic_energy": 15.99, 
			 "SMD_solvation_energy": 7.5 
		},
		"coords": [
			{
				"x": 2.0378792217,
				"y": -1.9740751152,
				"z": -0.0652719259,
				"element": "C" 
			},
			{
				"x": 0.5785301477,
				"y": -1.4480333955,
				"z": -0.0971686758,
				"element": "C" 
			},
			{
				"x": 0.470314826,
				"y": -0.376991731,
				"z": 0.9569009733,
				"element": "C" 
			},
			{
				"x": 0.5271578103,
				"y": 0.9384802734,
				"z": 0.6589814753,
				"element": "C" 
			},
			{
				"x": 0.5579572076,
				"y": 1.4559252431,
				"z": -0.7132127339,
				"element": "C" 
			},
			{
				"x": 0.1953997329,
				"y": 2.7397041457,
				"z": -1.0298638063,
				"element": "C" 
			},
			{
				"x": 0.1130700783,
				"y": 3.8573828622,
				"z": 0.0020952207,
				"element": "C" 
			},
			{
				"x": -0.8537323154,
				"y": 4.989393545,
				"z": -0.3670889269,
				"element": "C" 
			},
			{
				"x": -0.6906395017,
				"y": 5.4504351347,
				"z": -1.8085285149,
				"element": "C" 
			},
			{
				"x": -0.8701113482,
				"y": 6.6146938343,
				"z": -2.1470272384,
				"element": "O" 
			},
			{
				"x": -0.4265634893,
				"y": 4.3777515532,
				"z": -2.7726049933,
				"element": "C" 
			},
			{
				"x": -0.0945708924,
				"y": 3.1061089201,
				"z": -2.4140527302,
				"element": "C" 
			},
			{
				"x": -0.1434182445,
				"y": 1.9938049526,
				"z": -3.4353851698,
				"element": "C" 
			},
			{
				"x": 0.9660300962,
				"y": 0.9706557041,
				"z": -3.2067643262,
				"element": "C" 
			},
			{
				"x": 0.9787246223,
				"y": 0.4286045278,
				"z": -1.7658259585,
				"element": "C" 
			},
			{
				"x": 0.1691382614,
				"y": -0.8468386365,
				"z": -1.4723740877,
				"element": "C" 
			},
			{
				"x": 0.1527090442,
				"y": -2.0682985831,
				"z": -2.4010321013,
				"element": "C" 
			},
			{
				"x": -0.4116162892,
				"y": -3.197939558,
				"z": -1.4829878985,
				"element": "C" 
			},
			{
				"x": -0.4319706826,
				"y": -2.6404028493,
				"z": -0.0218122042,
				"element": "C" 
			},
			{
				"x": -1.6944153023,
				"y": -2.0137257268,
				"z": 0.262152907,
				"element": "O" 
			},
			{
				"x": -0.2273177059,
				"y": -3.7201118407,
				"z": 1.0836524795,
				"element": "C" 
			},
			{
				"x": 0.8360667492,
				"y": -4.7745866615,
				"z": 0.9139483734,
				"element": "C" 
			},
			{
				"x": 0.5815310341,
				"y": -6.0669909682,
				"z": 0.698258579,
				"element": "C" 
			},
			{
				"x": 2.7461724354,
				"y": -1.1859991918,
				"z": -0.3300983536,
				"element": "H" 
			},
			{
				"x": 2.2993984373,
				"y": -2.2981746581,
				"z": 0.9461805028,
				"element": "H" 
			},
			{
				"x": 2.2017650856,
				"y": -2.8176442524,
				"z": -0.7415255154,
				"element": "H" 
			},
			{
				"x": 0.3972631834,
				"y": -0.6821634105,
				"z": 1.9991909409,
				"element": "H" 
			},
			{
				"x": 0.4621318234,
				"y": 1.6482552234,
				"z": 1.477078393,
				"element": "H" 
			},
			{
				"x": -0.1502191057,
				"y": 3.4700291574,
				"z": 0.9880462079,
				"element": "H" 
			},
			{
				"x": 1.1219366182,
				"y": 4.2844418097,
				"z": 0.1028065481,
				"element": "H" 
			},
			{
				"x": -0.7350228279,
				"y": 5.8495233317,
				"z": 0.2970181048,
				"element": "H" 
			},
			{
				"x": -1.8919229345,
				"y": 4.6424042026,
				"z": -0.2644280121,
				"element": "H" 
			},
			{
				"x": -0.5968561567,
				"y": 4.6279522591,
				"z": -3.8168808841,
				"element": "H" 
			},
			{
				"x": -1.1233886049,
				"y": 1.5023236495,
				"z": -3.3445637178,
				"element": "H" 
			},
			{
				"x": -0.0968942612,
				"y": 2.4084983561,
				"z": -4.4474420152,
				"element": "H" 
			},
			{
				"x": 1.9283152343,
				"y": 1.4577707533,
				"z": -3.4057383438,
				"element": "H" 
			},
			{
				"x": 0.8843896951,
				"y": 0.1444232381,
				"z": -3.9209328621,
				"element": "H" 
			},
			{
				"x": 2.0304444153,
				"y": 0.2014435599,
				"z": -1.5450244362,
				"element": "H" 
			},
			{
				"x": -0.8761571001,
				"y": -0.5439594633,
				"z": -1.3471637091,
				"element": "H" 
			},
			{
				"x": 1.1578829139,
				"y": -2.3224713737,
				"z": -2.7568267666,
				"element": "H" 
			},
			{
				"x": -0.4680591823,
				"y": -1.9122826552,
				"z": -3.2880615376,
				"element": "H" 
			},
			{
				"x": -1.4315312808,
				"y": -3.4765416337,
				"z": -1.7712436699,
				"element": "H" 
			},
			{
				"x": 0.1914512752,
				"y": -4.106998001,
				"z": -1.5468451102,
				"element": "H" 
			},
			{
				"x": -2.3854734235,
				"y": -2.6804671633,
				"z": 0.1538548076,
				"element": "H" 
			},
			{
				"x": -1.1905729507,
				"y": -4.2388659454,
				"z": 1.1785622932,
				"element": "H" 
			},
			{
				"x": -0.0817297777,
				"y": -3.1891785044,
				"z": 2.0340902149,
				"element": "H" 
			},
			{
				"x": 1.8733907002,
				"y": -4.4610863266,
				"z": 1.0005668572,
				"element": "H" 
			},
			{
				"x": 1.379113882,
				"y": -6.7980484669,
				"z": 0.6034688528,
				"element": "H" 
			},
			{
				"x": -0.4355811541,
				"y": -6.4442301248,
				"z": 0.6149224942,
				"element": "H" 
			}
		],
		 "valence_orbital": [ 
			{
				"type": "occ",
				"energy": -0.27866,
				"method": "rhf"
			},
			{
				"type": "occ",
				"energy": -0.26702,
				"method": "rhf"
			},
			{
				"type": "occ",
				"energy": -0.25416,
				"method": "rhf"
			},
			{
				"type": "occ",
				"energy": -0.22235,
				"method": "rhf"
			},
			{
				"type": "occ",
				"energy": -0.20307,
				"method": "rhf"
			},
			{
				"type": "unocc",
				"energy": -0.06326,
				"method": "rhf"
			},
			{
				"type": "unocc",
				"energy": 0.00243,
				"method": "rhf"
			},
			{
				"type": "unocc",
				"energy": 0.00673,
				"method": "rhf"
			},
			{
				"type": "unocc",
				"energy": 0.05495,
				"method": "rhf"
			},
			{
				"type": "unocc",
				"energy": 0.06947,
				"method": "rhf"
			}
		],
		"cosmo_sigma_profile": { 
			"-0.025": 0.0,
			"-0.024": 0.0,
			"-0.023": 0.0,
			"-0.022": 0.0,
			"-0.021": 0.0,
			"-0.02": 0.0,
			"-0.019": 0.0,
			"-0.018": 0.0,
			"-0.017": 0.0,
			"-0.016": 0.0,
			"-0.015": 0.314992094424,
			"-0.014": 1.04941138103,
			"-0.013": 0.585008646528,
			"-0.012": 1.32797836647,
			"-0.011": 1.20024262338,
			"-0.01": 1.13573182412,
			"-0.009": 1.24164353094,
			"-0.008": 0.801167873744,
			"-0.007": 0.988851454497,
			"-0.006": 3.52019887617,
			"-0.005": 14.462737311,
			"-0.004": 34.1052679606,
			"-0.003": 42.8622174199,
			"-0.002": 50.0681654932,
			"-0.001": 46.0583831357,
			"0.0": 35.9524620333,
			"0.001": 26.2592923057,
			"0.002": 19.6480044842,
			"0.003": 15.2127981076,
			"0.004": 12.122389672,
			"0.005": 7.54636986561,
			"0.006": 5.08008929695,
			"0.007": 4.17565335399,
			"0.008": 3.68071428506,
			"0.009": 2.97702849502,
			"0.01": 2.76657998502,
			"0.011": 3.07028442096,
			"0.012": 4.13195716299,
			"0.013": 6.17311161581,
			"0.014": 4.91636029972,
			"0.015": 1.43372809235,
			"0.016": 0.0,
			"0.017": 0.0,
			"0.018": 0.0,
			"0.019": 0.0,
			"0.02": 0.0,
			"0.021": 0.0,
			"0.022": 0.0,
			"0.023": 0.0,
			"0.024": 0.0,
			"0.025": 0.0
		}
	}
}
