{
	 "smiles": "FC(F)(F)C(F)(Cl)C(F)(Cl)C(F)(F)F", 
	 "Tm": 205.15, 
	 "num_atms": 14, 
	 "gaussian": { 
		 "optdone": 1, 
		 "sigma_profile": "yes", 
		 "theory": "DFT", 
		 "functional": "B3LYP", 
		 "basiset": "6-31G**", 
		 "properties": { 
			 "R2extent": 3521.3127, 
			 "electric_dipole_moment_norm": 0.0636528868159, 
			 "electric_quadrupole_moment_norm": 1.33248256274, 
			 "total_energy": -1871.49599909, 
			 "HOMO_LUMO_gap": 0.29411, 
			 "cosmo_polarized_energy": -0.98, 
			 "cosmo_cavitation_energy": 24.17, 
			 "cosmo_dispersion_energy": -17.07, 
			 "cosmo_repulsion_energy": 1.19, 
			 "cosmo_total_nonelectrostatic_energy": 8.3, 
			 "SMD_solvation_energy": 6.3 
		},
		"coords": [
			{
				"x": -0.3821389025,
				"y": 0.7871417854,
				"z": -1.3510572057,
				"element": "F" 
			},
			{
				"x": -0.7120625496,
				"y": -0.0758211018,
				"z": -0.3860926053,
				"element": "C" 
			},
			{
				"x": -1.4627002627,
				"y": -1.0389587545,
				"z": -0.938771228,
				"element": "F" 
			},
			{
				"x": -1.4254805806,
				"y": 0.5629772125,
				"z": 0.5465947861,
				"element": "F" 
			},
			{
				"x": 0.5758922221,
				"y": -0.7060849391,
				"z": 0.2328761167,
				"element": "C" 
			},
			{
				"x": 1.1059938954,
				"y": -1.5020811493,
				"z": -0.7270394531,
				"element": "F" 
			},
			{
				"x": 1.7131488882,
				"y": 0.6225467077,
				"z": 0.6162837507,
				"element": "Cl" 
			},
			{
				"x": 0.3544717025,
				"y": -1.5640498215,
				"z": 1.5296456473,
				"element": "C" 
			},
			{
				"x": -0.0205122012,
				"y": -0.7378043615,
				"z": 2.5360211719,
				"element": "F" 
			},
			{
				"x": 1.8968119519,
				"y": -2.370798065,
				"z": 1.9490628324,
				"element": "Cl" 
			},
			{
				"x": -0.7530150263,
				"y": -2.6607605192,
				"z": 1.4309173288,
				"element": "C" 
			},
			{
				"x": -0.5887006189,
				"y": -3.4064752671,
				"z": 0.3337208821,
				"element": "F" 
			},
			{
				"x": -0.7125571171,
				"y": -3.4515490239,
				"z": 2.5068890172,
				"element": "F" 
			},
			{
				"x": -1.9599514012,
				"y": -2.0787827025,
				"z": 1.3970489591,
				"element": "F" 
			}
		],
		 "valence_orbital": [ 
			{
				"type": "occ",
				"energy": -0.39164,
				"method": "rhf"
			},
			{
				"type": "occ",
				"energy": -0.35694,
				"method": "rhf"
			},
			{
				"type": "occ",
				"energy": -0.35143,
				"method": "rhf"
			},
			{
				"type": "occ",
				"energy": -0.34552,
				"method": "rhf"
			},
			{
				"type": "occ",
				"energy": -0.33804,
				"method": "rhf"
			},
			{
				"type": "unocc",
				"energy": -0.04393,
				"method": "rhf"
			},
			{
				"type": "unocc",
				"energy": -0.01663,
				"method": "rhf"
			},
			{
				"type": "unocc",
				"energy": 0.03539,
				"method": "rhf"
			},
			{
				"type": "unocc",
				"energy": 0.08987,
				"method": "rhf"
			},
			{
				"type": "unocc",
				"energy": 0.1043,
				"method": "rhf"
			}
		],
		"cosmo_sigma_profile": { 
			"-0.025": 0.0,
			"-0.024": 0.0,
			"-0.023": 0.0,
			"-0.022": 0.0,
			"-0.021": 0.0,
			"-0.02": 0.0,
			"-0.019": 0.0,
			"-0.018": 0.0,
			"-0.017": 0.0,
			"-0.016": 0.0,
			"-0.015": 0.0,
			"-0.014": 0.0,
			"-0.013": 0.0,
			"-0.012": 0.0,
			"-0.011": 0.0,
			"-0.01": 0.0,
			"-0.009": 0.0,
			"-0.008": 0.0,
			"-0.007": 0.0,
			"-0.006": 0.334913002531,
			"-0.005": 3.06426051698,
			"-0.004": 4.76269158759,
			"-0.003": 8.27421454387,
			"-0.002": 13.03554339,
			"-0.001": 21.0187734095,
			"0.0": 56.137240608,
			"0.001": 75.6578407986,
			"0.002": 15.8939163983,
			"0.003": 0.407084219602,
			"0.004": 0.0,
			"0.005": 0.0,
			"0.006": 0.0,
			"0.007": 0.0,
			"0.008": 0.0,
			"0.009": 0.0,
			"0.01": 0.0,
			"0.011": 0.0,
			"0.012": 0.0,
			"0.013": 0.0,
			"0.014": 0.0,
			"0.015": 0.0,
			"0.016": 0.0,
			"0.017": 0.0,
			"0.018": 0.0,
			"0.019": 0.0,
			"0.02": 0.0,
			"0.021": 0.0,
			"0.022": 0.0,
			"0.023": 0.0,
			"0.024": 0.0,
			"0.025": 0.0
		}
	}
}
