{
	 "smiles": "O=C(NC1=C2C=CC=CC2=CC=C1)NC1=C2C=CC=CC2=CC=C1", 
	 "Tm": 569.15, 
	 "num_atms": 40, 
	 "gaussian": { 
		 "optdone": 1, 
		 "sigma_profile": "yes", 
		 "theory": "DFT", 
		 "functional": "B3LYP", 
		 "basiset": "6-31G**", 
		 "properties": { 
			 "R2extent": 9485.7487, 
			 "electric_dipole_moment_norm": 3.96680259781, 
			 "electric_quadrupole_moment_norm": 13.9582913324, 
			 "total_energy": -994.654115578, 
			 "HOMO_LUMO_gap": 0.14336, 
			 "cosmo_polarized_energy": -14.71, 
			 "cosmo_cavitation_energy": 43.43, 
			 "cosmo_dispersion_energy": -30.92, 
			 "cosmo_repulsion_energy": 2.26, 
			 "cosmo_total_nonelectrostatic_energy": 14.77, 
			 "SMD_solvation_energy": 7.4 
		},
		"coords": [
			{
				"x": -1.2367321038,
				"y": -0.2166755281,
				"z": 2.9144407314,
				"element": "O" 
			},
			{
				"x": -0.9349463004,
				"y": -0.240259488,
				"z": 1.7280275446,
				"element": "C" 
			},
			{
				"x": 0.3456921035,
				"y": -0.1448400636,
				"z": 1.2226464696,
				"element": "N" 
			},
			{
				"x": 1.5526486922,
				"y": -0.0029654327,
				"z": 1.9377729256,
				"element": "C" 
			},
			{
				"x": 2.7788930209,
				"y": -0.083766271,
				"z": 1.1872176062,
				"element": "C" 
			},
			{
				"x": 2.8332455492,
				"y": -0.3493714421,
				"z": -0.2098108229,
				"element": "C" 
			},
			{
				"x": 4.0329637616,
				"y": -0.3965174149,
				"z": -0.8865921204,
				"element": "C" 
			},
			{
				"x": 5.2505793483,
				"y": -0.1851186469,
				"z": -0.2008777447,
				"element": "C" 
			},
			{
				"x": 5.2368756929,
				"y": 0.0558539484,
				"z": 1.1533798747,
				"element": "C" 
			},
			{
				"x": 4.0191427958,
				"y": 0.1080341706,
				"z": 1.8842460918,
				"element": "C" 
			},
			{
				"x": 4.0137917964,
				"y": 0.3358028214,
				"z": 3.2853591826,
				"element": "C" 
			},
			{
				"x": 2.8235016048,
				"y": 0.3745180527,
				"z": 3.9706055614,
				"element": "C" 
			},
			{
				"x": 1.5883306691,
				"y": 0.2132318539,
				"z": 3.3053767236,
				"element": "C" 
			},
			{
				"x": -1.935945126,
				"y": -0.3383186275,
				"z": 0.7601612154,
				"element": "N" 
			},
			{
				"x": -1.8508671098,
				"y": -0.5746662109,
				"z": -0.6317808163,
				"element": "C" 
			},
			{
				"x": -2.6680327288,
				"y": 0.2063741445,
				"z": -1.5163636892,
				"element": "C" 
			},
			{
				"x": -3.5081411869,
				"y": 1.2566204935,
				"z": -1.058596215,
				"element": "C" 
			},
			{
				"x": -4.2963694787,
				"y": 1.9661231888,
				"z": -1.9381091655,
				"element": "C" 
			},
			{
				"x": -4.2797291127,
				"y": 1.6633916603,
				"z": -3.3200625823,
				"element": "C" 
			},
			{
				"x": -3.4599227572,
				"y": 0.6662900598,
				"z": -3.7974673056,
				"element": "C" 
			},
			{
				"x": -2.6302826645,
				"y": -0.0834084963,
				"z": -2.9205477571,
				"element": "C" 
			},
			{
				"x": -1.759555281,
				"y": -1.0963711289,
				"z": -3.4049045979,
				"element": "C" 
			},
			{
				"x": -0.9696423856,
				"y": -1.8107906869,
				"z": -2.5351342091,
				"element": "C" 
			},
			{
				"x": -1.0301052261,
				"y": -1.5666916454,
				"z": -1.1436535944,
				"element": "C" 
			},
			{
				"x": 0.4120667111,
				"y": -0.0584922997,
				"z": 0.2204254162,
				"element": "H" 
			},
			{
				"x": 1.9265443848,
				"y": -0.5473304614,
				"z": -0.7739858853,
				"element": "H" 
			},
			{
				"x": 4.0420694043,
				"y": -0.6041695205,
				"z": -1.9526211246,
				"element": "H" 
			},
			{
				"x": 6.1911044891,
				"y": -0.2214135558,
				"z": -0.7427319512,
				"element": "H" 
			},
			{
				"x": 6.1674351719,
				"y": 0.2088644293,
				"z": 1.6939931394,
				"element": "H" 
			},
			{
				"x": 4.9608087478,
				"y": 0.4725815036,
				"z": 3.7998112218,
				"element": "H" 
			},
			{
				"x": 2.8165186682,
				"y": 0.5434878831,
				"z": 5.0436105844,
				"element": "H" 
			},
			{
				"x": 0.6583014267,
				"y": 0.2591162697,
				"z": 3.8531007098,
				"element": "H" 
			},
			{
				"x": -2.8532388646,
				"y": -0.2836819677,
				"z": 1.1805853596,
				"element": "H" 
			},
			{
				"x": -3.508373091,
				"y": 1.5160536157,
				"z": -0.0052186951,
				"element": "H" 
			},
			{
				"x": -4.92825128,
				"y": 2.7692064402,
				"z": -1.5705274433,
				"element": "H" 
			},
			{
				"x": -4.9081978895,
				"y": 2.2272923601,
				"z": -4.0030290333,
				"element": "H" 
			},
			{
				"x": -3.4325200645,
				"y": 0.4372969117,
				"z": -4.8595581076,
				"element": "H" 
			},
			{
				"x": -1.7308705108,
				"y": -1.2975897639,
				"z": -4.4721402529,
				"element": "H" 
			},
			{
				"x": -0.3131642133,
				"y": -2.592398951,
				"z": -2.9056272369,
				"element": "H" 
			},
			{
				"x": -0.4509266634,
				"y": -2.1824022041,
				"z": -0.4632200079,
				"element": "H" 
			}
		],
		 "valence_orbital": [ 
			{
				"type": "occ",
				"energy": -0.25855,
				"method": "rhf"
			},
			{
				"type": "occ",
				"energy": -0.25617,
				"method": "rhf"
			},
			{
				"type": "occ",
				"energy": -0.24005,
				"method": "rhf"
			},
			{
				"type": "occ",
				"energy": -0.21894,
				"method": "rhf"
			},
			{
				"type": "occ",
				"energy": -0.19697,
				"method": "rhf"
			},
			{
				"type": "unocc",
				"energy": -0.05361,
				"method": "rhf"
			},
			{
				"type": "unocc",
				"energy": -0.03505,
				"method": "rhf"
			},
			{
				"type": "unocc",
				"energy": -0.02318,
				"method": "rhf"
			},
			{
				"type": "unocc",
				"energy": -0.00554,
				"method": "rhf"
			},
			{
				"type": "unocc",
				"energy": 0.01496,
				"method": "rhf"
			}
		],
		"cosmo_sigma_profile": { 
			"-0.025": 0.0,
			"-0.024": 0.0,
			"-0.023": 0.0,
			"-0.022": 0.0,
			"-0.021": 0.0,
			"-0.02": 0.0,
			"-0.019": 0.0,
			"-0.018": 0.0,
			"-0.017": 0.0,
			"-0.016": 0.0,
			"-0.015": 0.0,
			"-0.014": 0.683443973773,
			"-0.013": 0.527493864835,
			"-0.012": 1.74593851795,
			"-0.011": 1.77653879668,
			"-0.01": 2.60830001796,
			"-0.009": 1.44622018421,
			"-0.008": 1.99608238437,
			"-0.007": 3.74921739397,
			"-0.006": 21.58479349,
			"-0.005": 30.5871306727,
			"-0.004": 29.5165598273,
			"-0.003": 24.7790887331,
			"-0.002": 19.9125867433,
			"-0.001": 20.6986140884,
			"0.0": 19.1658946719,
			"0.001": 22.0030445222,
			"0.002": 25.2435858118,
			"0.003": 32.1561985566,
			"0.004": 40.7805229043,
			"0.005": 28.3551668741,
			"0.006": 4.88755581935,
			"0.007": 1.30376105352,
			"0.008": 2.2498934957,
			"0.009": 1.15054709763,
			"0.01": 1.77800253439,
			"0.011": 0.744726287291,
			"0.012": 2.91245902852,
			"0.013": 3.79946341698,
			"0.014": 1.44992295319,
			"0.015": 0.0,
			"0.016": 0.0,
			"0.017": 0.0,
			"0.018": 0.0,
			"0.019": 0.0,
			"0.02": 0.0,
			"0.021": 0.0,
			"0.022": 0.0,
			"0.023": 0.0,
			"0.024": 0.0,
			"0.025": 0.0
		}
	}
}
