{
	 "smiles": "CCOC(=O)C(CCC1=CC=CC=C1)NC(C)C(O)=O", 
	 "Tm": 423.15, 
	 "num_atms": 41, 
	 "gaussian": { 
		 "optdone": 1, 
		 "sigma_profile": "yes", 
		 "theory": "DFT", 
		 "functional": "B3LYP", 
		 "basiset": "6-31G**", 
		 "properties": { 
			 "R2extent": 6380.3303, 
			 "electric_dipole_moment_norm": 1.89367593849, 
			 "electric_quadrupole_moment_norm": 17.1457166339, 
			 "total_energy": -939.925040928, 
			 "HOMO_LUMO_gap": 0.22381, 
			 "cosmo_polarized_energy": -18.09, 
			 "cosmo_cavitation_energy": 43.33, 
			 "cosmo_dispersion_energy": -27.59, 
			 "cosmo_repulsion_energy": 2.14, 
			 "cosmo_total_nonelectrostatic_energy": 17.89, 
			 "SMD_solvation_energy": 7.39 
		},
		"coords": [
			{
				"x": 0.6984187818,
				"y": 0.5051972059,
				"z": 3.3717371473,
				"element": "C" 
			},
			{
				"x": -0.5462593661,
				"y": -0.0257533128,
				"z": 2.6872049388,
				"element": "C" 
			},
			{
				"x": -0.626169619,
				"y": 0.600205093,
				"z": 1.3836146405,
				"element": "O" 
			},
			{
				"x": -1.7141306191,
				"y": 0.2932770706,
				"z": 0.663481915,
				"element": "C" 
			},
			{
				"x": -2.610874533,
				"y": -0.4257468189,
				"z": 1.0584858299,
				"element": "O" 
			},
			{
				"x": -1.7589968387,
				"y": 0.9292246567,
				"z": -0.7351603772,
				"element": "C" 
			},
			{
				"x": -1.7012496912,
				"y": -0.1817537186,
				"z": -1.8128819674,
				"element": "C" 
			},
			{
				"x": -0.3307973654,
				"y": -0.8540948951,
				"z": -2.0530908331,
				"element": "C" 
			},
			{
				"x": 0.1567420064,
				"y": -1.7941503289,
				"z": -0.9664274622,
				"element": "C" 
			},
			{
				"x": 1.3248436544,
				"y": -1.5167779464,
				"z": -0.2451206888,
				"element": "C" 
			},
			{
				"x": 1.797566261,
				"y": -2.4031646534,
				"z": 0.7254701973,
				"element": "C" 
			},
			{
				"x": 1.102148827,
				"y": -3.5829556626,
				"z": 0.9953401494,
				"element": "C" 
			},
			{
				"x": -0.0670506376,
				"y": -3.8695850871,
				"z": 0.2863200377,
				"element": "C" 
			},
			{
				"x": -0.5309866291,
				"y": -2.9841350191,
				"z": -0.6860810763,
				"element": "C" 
			},
			{
				"x": -0.761562451,
				"y": 1.9641397857,
				"z": -0.9853015404,
				"element": "N" 
			},
			{
				"x": -1.1938027635,
				"y": 3.3371255784,
				"z": -0.7049344306,
				"element": "C" 
			},
			{
				"x": -1.3431086093,
				"y": 3.63574577,
				"z": 0.7867405252,
				"element": "C" 
			},
			{
				"x": -0.2130722598,
				"y": 4.3202502948,
				"z": -1.3431113474,
				"element": "C" 
			},
			{
				"x": 0.1720945067,
				"y": 3.918449703,
				"z": -2.5827759997,
				"element": "O" 
			},
			{
				"x": 0.1605888604,
				"y": 5.363755968,
				"z": -0.8600452288,
				"element": "O" 
			},
			{
				"x": 0.6483555198,
				"y": 1.5911161762,
				"z": 3.4943391027,
				"element": "H" 
			},
			{
				"x": 1.5931159588,
				"y": 0.2638765641,
				"z": 2.791419447,
				"element": "H" 
			},
			{
				"x": 0.7976645996,
				"y": 0.0517913298,
				"z": 4.3631887338,
				"element": "H" 
			},
			{
				"x": -0.5058096548,
				"y": -1.1097838443,
				"z": 2.5472538082,
				"element": "H" 
			},
			{
				"x": -1.4576304397,
				"y": 0.2057998303,
				"z": 3.246896911,
				"element": "H" 
			},
			{
				"x": -2.7834602415,
				"y": 1.3379513123,
				"z": -0.7933977909,
				"element": "H" 
			},
			{
				"x": -2.0297421857,
				"y": 0.2702580532,
				"z": -2.7576062244,
				"element": "H" 
			},
			{
				"x": -2.4482398639,
				"y": -0.9356853187,
				"z": -1.5476150457,
				"element": "H" 
			},
			{
				"x": -0.4158846918,
				"y": -1.419710046,
				"z": -2.9903185698,
				"element": "H" 
			},
			{
				"x": 0.4331923603,
				"y": -0.0899930454,
				"z": -2.2320235223,
				"element": "H" 
			},
			{
				"x": 1.8645845014,
				"y": -0.5948194151,
				"z": -0.4436652782,
				"element": "H" 
			},
			{
				"x": 2.7108803829,
				"y": -2.1725147705,
				"z": 1.2673291025,
				"element": "H" 
			},
			{
				"x": 1.4688682001,
				"y": -4.2752528799,
				"z": 1.7479179545,
				"element": "H" 
			},
			{
				"x": -0.6152508104,
				"y": -4.7857527379,
				"z": 0.4871959347,
				"element": "H" 
			},
			{
				"x": -1.4375842254,
				"y": -3.2227031593,
				"z": -1.2371120332,
				"element": "H" 
			},
			{
				"x": -0.469490929,
				"y": 1.9186634081,
				"z": -1.9554581033,
				"element": "H" 
			},
			{
				"x": -2.166980914,
				"y": 3.5575536356,
				"z": -1.1949416318,
				"element": "H" 
			},
			{
				"x": -0.4149711062,
				"y": 3.4068645293,
				"z": 1.3135897275,
				"element": "H" 
			},
			{
				"x": -2.146059584,
				"y": 3.0361980455,
				"z": 1.2227528253,
				"element": "H" 
			},
			{
				"x": -1.5829024486,
				"y": 4.6912415177,
				"z": 0.9297396006,
				"element": "H" 
			},
			{
				"x": 0.774804057,
				"y": 4.6045471318,
				"z": -2.9150493772,
				"element": "H" 
			}
		],
		 "valence_orbital": [ 
			{
				"type": "occ",
				"energy": -0.28262,
				"method": "rhf"
			},
			{
				"type": "occ",
				"energy": -0.26599,
				"method": "rhf"
			},
			{
				"type": "occ",
				"energy": -0.24573,
				"method": "rhf"
			},
			{
				"type": "occ",
				"energy": -0.23864,
				"method": "rhf"
			},
			{
				"type": "occ",
				"energy": -0.2289,
				"method": "rhf"
			},
			{
				"type": "unocc",
				"energy": -0.00509,
				"method": "rhf"
			},
			{
				"type": "unocc",
				"energy": 0.00015,
				"method": "rhf"
			},
			{
				"type": "unocc",
				"energy": 0.00264,
				"method": "rhf"
			},
			{
				"type": "unocc",
				"energy": 0.02398,
				"method": "rhf"
			},
			{
				"type": "unocc",
				"energy": 0.06454,
				"method": "rhf"
			}
		],
		"cosmo_sigma_profile": { 
			"-0.025": 0.0,
			"-0.024": 0.0,
			"-0.023": 0.0,
			"-0.022": 0.0,
			"-0.021": 0.0,
			"-0.02": 0.0,
			"-0.019": 0.0453742846691,
			"-0.018": 0.99543775328,
			"-0.017": 0.758385157197,
			"-0.016": 1.04958373862,
			"-0.015": 1.00103383515,
			"-0.014": 0.38800447508,
			"-0.013": 0.484347680269,
			"-0.012": 0.967457033421,
			"-0.011": 0.778427514867,
			"-0.01": 0.623870384021,
			"-0.009": 0.724526120323,
			"-0.008": 1.55808568262,
			"-0.007": 2.57961637352,
			"-0.006": 7.59960615701,
			"-0.005": 28.1060807256,
			"-0.004": 35.0123737389,
			"-0.003": 38.037515045,
			"-0.002": 32.8130596248,
			"-0.001": 29.1850592229,
			"0.0": 27.3311314322,
			"0.001": 22.6823747732,
			"0.002": 17.8593888085,
			"0.003": 14.3356257127,
			"0.004": 13.037232564,
			"0.005": 11.1786212092,
			"0.006": 10.1639766067,
			"0.007": 6.93741403643,
			"0.008": 4.36344264575,
			"0.009": 4.94788755074,
			"0.01": 4.57057723408,
			"0.011": 6.69503261669,
			"0.012": 7.13876566765,
			"0.013": 3.73426620864,
			"0.014": 0.413702468594,
			"0.015": 0.271277243024,
			"0.016": 0.533365860255,
			"0.017": 0.0815044374627,
			"0.018": 0.0,
			"0.019": 0.0,
			"0.02": 0.0,
			"0.021": 0.0,
			"0.022": 0.0,
			"0.023": 0.0,
			"0.024": 0.0,
			"0.025": 0.0
		}
	}
}
