{
	 "smiles": "CC(C)CC1CCC(=O)NC1=O", 
	 "Tm": 403.15, 
	 "num_atms": 27, 
	 "gaussian": { 
		 "optdone": 1, 
		 "sigma_profile": "yes", 
		 "theory": "DFT", 
		 "functional": "B3LYP", 
		 "basiset": "6-31G**", 
		 "properties": { 
			 "R2extent": 3330.9811, 
			 "electric_dipole_moment_norm": 3.20641300054, 
			 "electric_quadrupole_moment_norm": 12.3214555569, 
			 "total_energy": -557.244332198, 
			 "HOMO_LUMO_gap": 0.22989, 
			 "cosmo_polarized_energy": -12.15, 
			 "cosmo_cavitation_energy": 28.16, 
			 "cosmo_dispersion_energy": -20.14, 
			 "cosmo_repulsion_energy": 1.61, 
			 "cosmo_total_nonelectrostatic_energy": 9.63, 
			 "SMD_solvation_energy": 5.72 
		},
		"coords": [
			{
				"x": -0.6522846806,
				"y": 2.6245816278,
				"z": -0.0163580357,
				"element": "C" 
			},
			{
				"x": -1.0233051339,
				"y": 1.6317672748,
				"z": 1.0948692159,
				"element": "C" 
			},
			{
				"x": -2.2915477937,
				"y": 2.0785021133,
				"z": 1.839260349,
				"element": "C" 
			},
			{
				"x": -1.1031600889,
				"y": 0.1601048612,
				"z": 0.6211892894,
				"element": "C" 
			},
			{
				"x": -2.2555224791,
				"y": -0.227872627,
				"z": -0.3564493655,
				"element": "C" 
			},
			{
				"x": -2.7137913439,
				"y": -1.6864709411,
				"z": -0.1515093282,
				"element": "C" 
			},
			{
				"x": -1.6230208442,
				"y": -2.6816193603,
				"z": -0.5639874981,
				"element": "C" 
			},
			{
				"x": -1.0981171002,
				"y": -2.4276903137,
				"z": -1.9653501495,
				"element": "C" 
			},
			{
				"x": -0.5635192785,
				"y": -3.2723161417,
				"z": -2.6575759689,
				"element": "O" 
			},
			{
				"x": -1.259434841,
				"y": -1.1226719111,
				"z": -2.4379855611,
				"element": "N" 
			},
			{
				"x": -1.8588019368,
				"y": -0.0236810082,
				"z": -1.8139747815,
				"element": "C" 
			},
			{
				"x": -2.0183242491,
				"y": 1.0096107009,
				"z": -2.4383987434,
				"element": "O" 
			},
			{
				"x": -1.4273689404,
				"y": 2.6800342658,
				"z": -0.7849049425,
				"element": "H" 
			},
			{
				"x": -0.5099131742,
				"y": 3.6269424119,
				"z": 0.4021607334,
				"element": "H" 
			},
			{
				"x": 0.2814941369,
				"y": 2.3361980693,
				"z": -0.51210543,
				"element": "H" 
			},
			{
				"x": -0.20352527,
				"y": 1.6418369928,
				"z": 1.828193701,
				"element": "H" 
			},
			{
				"x": -3.1512086301,
				"y": 2.1683553265,
				"z": 1.1657684506,
				"element": "H" 
			},
			{
				"x": -2.1404921349,
				"y": 3.0619622006,
				"z": 2.2962825052,
				"element": "H" 
			},
			{
				"x": -2.5602881923,
				"y": 1.3778343812,
				"z": 2.638322328,
				"element": "H" 
			},
			{
				"x": -1.2199004359,
				"y": -0.4642905468,
				"z": 1.5170820888,
				"element": "H" 
			},
			{
				"x": -0.1368357722,
				"y": -0.1201100898,
				"z": 0.1829928188,
				"element": "H" 
			},
			{
				"x": -3.1057343956,
				"y": 0.4390440886,
				"z": -0.1915113035,
				"element": "H" 
			},
			{
				"x": -3.6175610829,
				"y": -1.8722970016,
				"z": -0.7447632514,
				"element": "H" 
			},
			{
				"x": -2.9880185306,
				"y": -1.8407180324,
				"z": 0.8970841782,
				"element": "H" 
			},
			{
				"x": -1.9719567279,
				"y": -3.7167840569,
				"z": -0.5358369149,
				"element": "H" 
			},
			{
				"x": -0.7652476844,
				"y": -2.6233061891,
				"z": 0.1182701063,
				"element": "H" 
			},
			{
				"x": -0.9531133956,
				"y": -0.964846095,
				"z": -3.3931644905,
				"element": "H" 
			}
		],
		 "valence_orbital": [ 
			{
				"type": "occ",
				"energy": -0.32538,
				"method": "rhf"
			},
			{
				"type": "occ",
				"energy": -0.31563,
				"method": "rhf"
			},
			{
				"type": "occ",
				"energy": -0.28475,
				"method": "rhf"
			},
			{
				"type": "occ",
				"energy": -0.27924,
				"method": "rhf"
			},
			{
				"type": "occ",
				"energy": -0.25886,
				"method": "rhf"
			},
			{
				"type": "unocc",
				"energy": -0.02897,
				"method": "rhf"
			},
			{
				"type": "unocc",
				"energy": 0.03324,
				"method": "rhf"
			},
			{
				"type": "unocc",
				"energy": 0.0662,
				"method": "rhf"
			},
			{
				"type": "unocc",
				"energy": 0.08859,
				"method": "rhf"
			},
			{
				"type": "unocc",
				"energy": 0.1008,
				"method": "rhf"
			}
		],
		"cosmo_sigma_profile": { 
			"-0.025": 0.0,
			"-0.024": 0.0,
			"-0.023": 0.0,
			"-0.022": 0.0,
			"-0.021": 0.0,
			"-0.02": 0.0,
			"-0.019": 0.0,
			"-0.018": 0.0,
			"-0.017": 0.0,
			"-0.016": 0.0,
			"-0.015": 0.291077970255,
			"-0.014": 0.937028317197,
			"-0.013": 0.735535653829,
			"-0.012": 1.31802882166,
			"-0.011": 0.530873734741,
			"-0.01": 0.291598142146,
			"-0.009": 0.494504678496,
			"-0.008": 0.893054584602,
			"-0.007": 2.06267883599,
			"-0.006": 7.35987770236,
			"-0.005": 14.1966069171,
			"-0.004": 20.9266676827,
			"-0.003": 21.8578741151,
			"-0.002": 30.5178518102,
			"-0.001": 25.6194858401,
			"0.0": 17.7974308527,
			"0.001": 17.3371573051,
			"0.002": 11.2923584584,
			"0.003": 4.32920386015,
			"0.004": 2.08035293248,
			"0.005": 3.18457490167,
			"0.006": 3.49552089139,
			"0.007": 2.09225057311,
			"0.008": 2.75525274055,
			"0.009": 3.40690658903,
			"0.01": 3.60394435115,
			"0.011": 5.17210958424,
			"0.012": 9.76475411293,
			"0.013": 3.82433473914,
			"0.014": 0.188868937549,
			"0.015": 0.0,
			"0.016": 0.0,
			"0.017": 0.0,
			"0.018": 0.0,
			"0.019": 0.0,
			"0.02": 0.0,
			"0.021": 0.0,
			"0.022": 0.0,
			"0.023": 0.0,
			"0.024": 0.0,
			"0.025": 0.0
		}
	}
}
