{
	 "smiles": "CC1=C(C=C(C=C1F)C(O)=O)S(Cl)(=O)=O", 
	 "Tm": 453.15, 
	 "num_atms": 21, 
	 "gaussian": { 
		 "optdone": 1, 
		 "sigma_profile": "yes", 
		 "theory": "DFT", 
		 "functional": "B3LYP", 
		 "basiset": "6-31G**", 
		 "properties": { 
			 "R2extent": 4681.1456, 
			 "electric_dipole_moment_norm": 2.3721182285, 
			 "electric_quadrupole_moment_norm": 17.6385571213, 
			 "total_energy": -1567.51587426, 
			 "HOMO_LUMO_gap": 0.18375, 
			 "cosmo_polarized_energy": -16.23, 
			 "cosmo_cavitation_energy": 29.43, 
			 "cosmo_dispersion_energy": -21.81, 
			 "cosmo_repulsion_energy": 1.63, 
			 "cosmo_total_nonelectrostatic_energy": 9.25, 
			 "SMD_solvation_energy": 5.56 
		},
		"coords": [
			{
				"x": -3.3971684429,
				"y": 0.2340054575,
				"z": 1.8394715643,
				"element": "C" 
			},
			{
				"x": -2.1159880772,
				"y": 0.6395110583,
				"z": 1.1587020642,
				"element": "C" 
			},
			{
				"x": -0.9007307004,
				"y": -0.066831625,
				"z": 1.2182578766,
				"element": "C" 
			},
			{
				"x": 0.2614319232,
				"y": 0.340909149,
				"z": 0.5609430871,
				"element": "C" 
			},
			{
				"x": 0.2425890983,
				"y": 1.512285479,
				"z": -0.1999274694,
				"element": "C" 
			},
			{
				"x": -0.9362884446,
				"y": 2.2602067595,
				"z": -0.2700495037,
				"element": "C" 
			},
			{
				"x": -2.0689966699,
				"y": 1.8128384413,
				"z": 0.3908673697,
				"element": "C" 
			},
			{
				"x": -3.18931014,
				"y": 2.5511628976,
				"z": 0.2895742531,
				"element": "F" 
			},
			{
				"x": 1.4455839072,
				"y": 2.0506256435,
				"z": -0.9259030942,
				"element": "C" 
			},
			{
				"x": 2.4674572805,
				"y": 1.1919892263,
				"z": -1.1536814512,
				"element": "O" 
			},
			{
				"x": 1.5149506148,
				"y": 3.1977331189,
				"z": -1.2954772893,
				"element": "O" 
			},
			{
				"x": -0.7370374295,
				"y": -1.5632110637,
				"z": 2.2049291587,
				"element": "S" 
			},
			{
				"x": -1.7755066195,
				"y": -2.9770369792,
				"z": 0.9928235251,
				"element": "Cl" 
			},
			{
				"x": -1.494804188,
				"y": -1.4430272198,
				"z": 3.4427937277,
				"element": "O" 
			},
			{
				"x": 0.660918338,
				"y": -1.9757723172,
				"z": 2.1969504853,
				"element": "O" 
			},
			{
				"x": -3.655509063,
				"y": -0.8038537355,
				"z": 1.6138011173,
				"element": "H" 
			},
			{
				"x": -3.2981849216,
				"y": 0.3107128804,
				"z": 2.9254845987,
				"element": "H" 
			},
			{
				"x": -4.2113808542,
				"y": 0.8786264346,
				"z": 1.511272594,
				"element": "H" 
			},
			{
				"x": 1.1615762708,
				"y": -0.2483892222,
				"z": 0.6959449107,
				"element": "H" 
			},
			{
				"x": -0.9594658431,
				"y": 3.1834972486,
				"z": -0.8372393366,
				"element": "H" 
			},
			{
				"x": 2.2152639613,
				"y": 0.280518368,
				"z": -0.9511381881,
				"element": "H" 
			}
		],
		 "valence_orbital": [ 
			{
				"type": "occ",
				"energy": -0.33855,
				"method": "rhf"
			},
			{
				"type": "occ",
				"energy": -0.33101,
				"method": "rhf"
			},
			{
				"type": "occ",
				"energy": -0.30828,
				"method": "rhf"
			},
			{
				"type": "occ",
				"energy": -0.29646,
				"method": "rhf"
			},
			{
				"type": "occ",
				"energy": -0.29143,
				"method": "rhf"
			},
			{
				"type": "unocc",
				"energy": -0.10768,
				"method": "rhf"
			},
			{
				"type": "unocc",
				"energy": -0.08411,
				"method": "rhf"
			},
			{
				"type": "unocc",
				"energy": -0.0601,
				"method": "rhf"
			},
			{
				"type": "unocc",
				"energy": 0.01231,
				"method": "rhf"
			},
			{
				"type": "unocc",
				"energy": 0.03327,
				"method": "rhf"
			}
		],
		"cosmo_sigma_profile": { 
			"-0.025": 0.0,
			"-0.024": 0.0,
			"-0.023": 0.0,
			"-0.022": 0.0,
			"-0.021": 0.0,
			"-0.02": 0.544667386811,
			"-0.019": 1.2481568704,
			"-0.018": 1.0388998196,
			"-0.017": 1.30458355323,
			"-0.016": 0.890553329328,
			"-0.015": 0.531313050883,
			"-0.014": 1.09601957232,
			"-0.013": 1.61316690278,
			"-0.012": 1.29180798872,
			"-0.011": 0.712985741639,
			"-0.01": 1.01551016185,
			"-0.009": 1.58929161636,
			"-0.008": 2.99504772968,
			"-0.007": 3.5694953857,
			"-0.006": 6.48258638347,
			"-0.005": 9.25815465302,
			"-0.004": 16.6001319939,
			"-0.003": 26.9708800896,
			"-0.002": 28.3336525029,
			"-0.001": 16.1060060104,
			"0.0": 10.1183714666,
			"0.001": 12.8163839702,
			"0.002": 15.8794768488,
			"0.003": 21.1107409177,
			"0.004": 6.82663751375,
			"0.005": 5.31804545509,
			"0.006": 6.45836503529,
			"0.007": 8.65490612342,
			"0.008": 10.8454835087,
			"0.009": 5.89421979834,
			"0.01": 4.78470904947,
			"0.011": 5.30609708655,
			"0.012": 1.89796104359,
			"0.013": 0.176062281755,
			"0.014": 0.0,
			"0.015": 0.0,
			"0.016": 0.0,
			"0.017": 0.0,
			"0.018": 0.0,
			"0.019": 0.0,
			"0.02": 0.0,
			"0.021": 0.0,
			"0.022": 0.0,
			"0.023": 0.0,
			"0.024": 0.0,
			"0.025": 0.0
		}
	}
}
