{
	 "smiles": "COC(C)C1=NC(=CS1)C(O)=O", 
	 "Tm": 347.15, 
	 "num_atms": 21, 
	 "gaussian": { 
		 "optdone": 1, 
		 "sigma_profile": "yes", 
		 "theory": "DFT", 
		 "functional": "B3LYP", 
		 "basiset": "6-31G**", 
		 "properties": { 
			 "R2extent": 2791.157, 
			 "electric_dipole_moment_norm": 5.44457982676, 
			 "electric_quadrupole_moment_norm": 13.425667176, 
			 "total_energy": -950.771415238, 
			 "HOMO_LUMO_gap": 0.20691, 
			 "cosmo_polarized_energy": -13.91, 
			 "cosmo_cavitation_energy": 27.27, 
			 "cosmo_dispersion_energy": -19.66, 
			 "cosmo_repulsion_energy": 1.56, 
			 "cosmo_total_nonelectrostatic_energy": 9.17, 
			 "SMD_solvation_energy": 5.53 
		},
		"coords": [
			{
				"x": -3.4376998479,
				"y": 0.1921786476,
				"z": -1.3118719049,
				"element": "C" 
			},
			{
				"x": -2.7838749979,
				"y": -0.8370667928,
				"z": -0.5889438194,
				"element": "O" 
			},
			{
				"x": -2.1166456107,
				"y": -0.4032707211,
				"z": 0.5784407934,
				"element": "C" 
			},
			{
				"x": -1.6758727383,
				"y": -1.6596087542,
				"z": 1.3304951725,
				"element": "C" 
			},
			{
				"x": -0.9224149778,
				"y": 0.4796888115,
				"z": 0.2498468591,
				"element": "C" 
			},
			{
				"x": -0.0105742894,
				"y": 0.1919203445,
				"z": -0.6327556164,
				"element": "N" 
			},
			{
				"x": 0.9659145235,
				"y": 1.162909541,
				"z": -0.6922783485,
				"element": "C" 
			},
			{
				"x": 0.8098805352,
				"y": 2.2189620342,
				"z": 0.1623748651,
				"element": "C" 
			},
			{
				"x": -0.6317143219,
				"y": 2.0058283211,
				"z": 1.0842571866,
				"element": "S" 
			},
			{
				"x": 2.0934340894,
				"y": 1.0012288829,
				"z": -1.6573746394,
				"element": "C" 
			},
			{
				"x": 2.0156196985,
				"y": -0.123095187,
				"z": -2.3965153153,
				"element": "O" 
			},
			{
				"x": 2.9944278597,
				"y": 1.799614103,
				"z": -1.7714239618,
				"element": "O" 
			},
			{
				"x": -3.9729821862,
				"y": -0.2920073727,
				"z": -2.1311431025,
				"element": "H" 
			},
			{
				"x": -2.7278800052,
				"y": 0.9172372952,
				"z": -1.7325424352,
				"element": "H" 
			},
			{
				"x": -4.1616407311,
				"y": 0.7315347629,
				"z": -0.6818687686,
				"element": "H" 
			},
			{
				"x": -2.8057583854,
				"y": 0.1831197468,
				"z": 1.2108356746,
				"element": "H" 
			},
			{
				"x": -2.5502193694,
				"y": -2.2775348695,
				"z": 1.5498539529,
				"element": "H" 
			},
			{
				"x": -1.1784988731,
				"y": -1.398715745,
				"z": 2.2687582619,
				"element": "H" 
			},
			{
				"x": -0.9824669483,
				"y": -2.2328194639,
				"z": 0.7104128547,
				"element": "H" 
			},
			{
				"x": 1.4595302786,
				"y": 3.0746071413,
				"z": 0.2739154426,
				"element": "H" 
			},
			{
				"x": 1.2084362979,
				"y": -0.6005107259,
				"z": -2.1262731516,
				"element": "H" 
			}
		],
		 "valence_orbital": [ 
			{
				"type": "occ",
				"energy": -0.31045,
				"method": "rhf"
			},
			{
				"type": "occ",
				"energy": -0.30747,
				"method": "rhf"
			},
			{
				"type": "occ",
				"energy": -0.28017,
				"method": "rhf"
			},
			{
				"type": "occ",
				"energy": -0.27136,
				"method": "rhf"
			},
			{
				"type": "occ",
				"energy": -0.26679,
				"method": "rhf"
			},
			{
				"type": "unocc",
				"energy": -0.05988,
				"method": "rhf"
			},
			{
				"type": "unocc",
				"energy": -0.02487,
				"method": "rhf"
			},
			{
				"type": "unocc",
				"energy": -0.00792,
				"method": "rhf"
			},
			{
				"type": "unocc",
				"energy": 0.07324,
				"method": "rhf"
			},
			{
				"type": "unocc",
				"energy": 0.08574,
				"method": "rhf"
			}
		],
		"cosmo_sigma_profile": { 
			"-0.025": 0.0,
			"-0.024": 0.0,
			"-0.023": 0.0,
			"-0.022": 0.0,
			"-0.021": 0.0,
			"-0.02": 0.0,
			"-0.019": 0.0,
			"-0.018": 0.0,
			"-0.017": 0.0,
			"-0.016": 0.0,
			"-0.015": 0.0,
			"-0.014": 0.127376765499,
			"-0.013": 0.588620153133,
			"-0.012": 0.879990390669,
			"-0.011": 1.14421229786,
			"-0.01": 2.25954590839,
			"-0.009": 1.86633848894,
			"-0.008": 3.32685938679,
			"-0.007": 5.02976189566,
			"-0.006": 8.25714847491,
			"-0.005": 13.6122675211,
			"-0.004": 19.3583128491,
			"-0.003": 21.6362636627,
			"-0.002": 22.5394421444,
			"-0.001": 21.7703940505,
			"0.0": 23.5703937055,
			"0.001": 12.0153749257,
			"0.002": 7.19394566282,
			"0.003": 4.65100287929,
			"0.004": 4.30248067285,
			"0.005": 4.67354548127,
			"0.006": 4.45658259802,
			"0.007": 4.04496140777,
			"0.008": 3.9544374394,
			"0.009": 5.16806550431,
			"0.01": 7.02768273097,
			"0.011": 6.62449150233,
			"0.012": 6.81549323803,
			"0.013": 1.63314319565,
			"0.014": 0.0615100724956,
			"0.015": 0.0,
			"0.016": 0.0,
			"0.017": 0.0,
			"0.018": 0.0,
			"0.019": 0.0,
			"0.02": 0.0,
			"0.021": 0.0,
			"0.022": 0.0,
			"0.023": 0.0,
			"0.024": 0.0,
			"0.025": 0.0
		}
	}
}
