{
	 "smiles": "CCOC1=C2C=CC=CC2=C(C=C1)S(Cl)(=O)=O", 
	 "Tm": 372.15, 
	 "num_atms": 28, 
	 "gaussian": { 
		 "optdone": 1, 
		 "sigma_profile": "yes", 
		 "theory": "DFT", 
		 "functional": "B3LYP", 
		 "basiset": "6-31G**", 
		 "properties": { 
			 "R2extent": 6313.427, 
			 "electric_dipole_moment_norm": 7.5185782918, 
			 "electric_quadrupole_moment_norm": 25.2922655842, 
			 "total_energy": -1547.89903872, 
			 "HOMO_LUMO_gap": 0.14839, 
			 "cosmo_polarized_energy": -11.34, 
			 "cosmo_cavitation_energy": 34.63, 
			 "cosmo_dispersion_energy": -25.75, 
			 "cosmo_repulsion_energy": 1.95, 
			 "cosmo_total_nonelectrostatic_energy": 10.83, 
			 "SMD_solvation_energy": 4.79 
		},
		"coords": [
			{
				"x": 0.4616231204,
				"y": -2.7941155601,
				"z": 3.4967854304,
				"element": "C" 
			},
			{
				"x": 0.3615648874,
				"y": -1.3491805987,
				"z": 3.0442148196,
				"element": "C" 
			},
			{
				"x": 0.2546817704,
				"y": -1.3520519618,
				"z": 1.6135545434,
				"element": "O" 
			},
			{
				"x": 0.1513022931,
				"y": -0.1788010961,
				"z": 0.9528809933,
				"element": "C" 
			},
			{
				"x": 0.0454475303,
				"y": -0.2927662738,
				"z": -0.4764514171,
				"element": "C" 
			},
			{
				"x": 0.0476585608,
				"y": -1.5648911313,
				"z": -1.1011136844,
				"element": "C" 
			},
			{
				"x": -0.0593385814,
				"y": -1.6748884422,
				"z": -2.4698401924,
				"element": "C" 
			},
			{
				"x": -0.1682858059,
				"y": -0.5129053012,
				"z": -3.2617911652,
				"element": "C" 
			},
			{
				"x": -0.1676561473,
				"y": 0.7398182626,
				"z": -2.6854879483,
				"element": "C" 
			},
			{
				"x": -0.0635404411,
				"y": 0.8908737255,
				"z": -1.2775670132,
				"element": "C" 
			},
			{
				"x": -0.0637162298,
				"y": 2.1492425645,
				"z": -0.5876309199,
				"element": "C" 
			},
			{
				"x": 0.0224140226,
				"y": 2.2253809745,
				"z": 0.7873980133,
				"element": "C" 
			},
			{
				"x": 0.1419703796,
				"y": 1.0622006288,
				"z": 1.5677290514,
				"element": "C" 
			},
			{
				"x": -0.1944088382,
				"y": 3.7104776607,
				"z": -1.4314183262,
				"element": "S" 
			},
			{
				"x": -2.2504629106,
				"y": 3.7116205837,
				"z": -2.0580799764,
				"element": "Cl" 
			},
			{
				"x": 0.5864233808,
				"y": 3.7116639786,
				"z": -2.664797521,
				"element": "O" 
			},
			{
				"x": -0.0764213624,
				"y": 4.7959258297,
				"z": -0.4638348238,
				"element": "O" 
			},
			{
				"x": 1.3422065236,
				"y": -3.2756220717,
				"z": 3.0629610066,
				"element": "H" 
			},
			{
				"x": 0.5451056977,
				"y": -2.8369307289,
				"z": 4.5867867697,
				"element": "H" 
			},
			{
				"x": -0.4261705963,
				"y": -3.3565906726,
				"z": 3.1952551946,
				"element": "H" 
			},
			{
				"x": 1.250362682,
				"y": -0.7777225033,
				"z": 3.3417709542,
				"element": "H" 
			},
			{
				"x": -0.5213825352,
				"y": -0.8588354852,
				"z": 3.4743016576,
				"element": "H" 
			},
			{
				"x": 0.1343817525,
				"y": -2.4464719157,
				"z": -0.4777109083,
				"element": "H" 
			},
			{
				"x": -0.0583150125,
				"y": -2.6537910994,
				"z": -2.9394497166,
				"element": "H" 
			},
			{
				"x": -0.2502834064,
				"y": -0.6016018027,
				"z": -4.3409456301,
				"element": "H" 
			},
			{
				"x": -0.2364987916,
				"y": 1.617342455,
				"z": -3.3139641486,
				"element": "H" 
			},
			{
				"x": 0.0045789598,
				"y": 3.1956133125,
				"z": 1.2695039023,
				"element": "H" 
			},
			{
				"x": 0.2217590979,
				"y": 1.1596066689,
				"z": 2.6423410554,
				"element": "H" 
			}
		],
		 "valence_orbital": [ 
			{
				"type": "occ",
				"energy": -0.31645,
				"method": "rhf"
			},
			{
				"type": "occ",
				"energy": -0.30287,
				"method": "rhf"
			},
			{
				"type": "occ",
				"energy": -0.28078,
				"method": "rhf"
			},
			{
				"type": "occ",
				"energy": -0.26667,
				"method": "rhf"
			},
			{
				"type": "occ",
				"energy": -0.23195,
				"method": "rhf"
			},
			{
				"type": "unocc",
				"energy": -0.08356,
				"method": "rhf"
			},
			{
				"type": "unocc",
				"energy": -0.0521,
				"method": "rhf"
			},
			{
				"type": "unocc",
				"energy": -0.03159,
				"method": "rhf"
			},
			{
				"type": "unocc",
				"energy": 0.0052,
				"method": "rhf"
			},
			{
				"type": "unocc",
				"energy": 0.06376,
				"method": "rhf"
			}
		],
		"cosmo_sigma_profile": { 
			"-0.025": 0.0,
			"-0.024": 0.0,
			"-0.023": 0.0,
			"-0.022": 0.0,
			"-0.021": 0.0,
			"-0.02": 0.0,
			"-0.019": 0.0,
			"-0.018": 0.0,
			"-0.017": 0.0,
			"-0.016": 0.0,
			"-0.015": 0.0,
			"-0.014": 0.0,
			"-0.013": 0.0,
			"-0.012": 0.0,
			"-0.011": 0.0,
			"-0.01": 0.0,
			"-0.009": 0.213953249014,
			"-0.008": 3.07616089726,
			"-0.007": 7.2009494396,
			"-0.006": 13.1713284088,
			"-0.005": 19.6083615504,
			"-0.004": 22.358258119,
			"-0.003": 18.3536146935,
			"-0.002": 18.9727609491,
			"-0.001": 21.0063898938,
			"0.0": 26.4482887111,
			"0.001": 27.2130384519,
			"0.002": 25.4798936489,
			"0.003": 24.4801568846,
			"0.004": 21.5564032794,
			"0.005": 6.83462772198,
			"0.006": 3.42610012421,
			"0.007": 4.95465581404,
			"0.008": 8.43798184549,
			"0.009": 6.53073000849,
			"0.01": 0.406597085332,
			"0.011": 0.0,
			"0.012": 0.0,
			"0.013": 0.0,
			"0.014": 0.0,
			"0.015": 0.0,
			"0.016": 0.0,
			"0.017": 0.0,
			"0.018": 0.0,
			"0.019": 0.0,
			"0.02": 0.0,
			"0.021": 0.0,
			"0.022": 0.0,
			"0.023": 0.0,
			"0.024": 0.0,
			"0.025": 0.0
		}
	}
}
