{
	 "smiles": "CCOC(=O)CC1=NN(CC(N)=S)C(=O)C2=CC=CC=C12", 
	 "Tm": 424.15, 
	 "num_atms": 36, 
	 "gaussian": { 
		 "optdone": 1, 
		 "sigma_profile": "yes", 
		 "theory": "DFT", 
		 "functional": "B3LYP", 
		 "basiset": "6-31G**", 
		 "properties": { 
			 "R2extent": 8565.4451, 
			 "electric_dipole_moment_norm": 6.91488890077, 
			 "electric_quadrupole_moment_norm": 41.0358896833, 
			 "total_energy": -1330.66932789, 
			 "HOMO_LUMO_gap": 0.13291, 
			 "cosmo_polarized_energy": -22.85, 
			 "cosmo_cavitation_energy": 42.41, 
			 "cosmo_dispersion_energy": -28.75, 
			 "cosmo_repulsion_energy": 2.16, 
			 "cosmo_total_nonelectrostatic_energy": 15.82, 
			 "SMD_solvation_energy": 6.73 
		},
		"coords": [
			{
				"x": 1.3767670262,
				"y": -2.5495953233,
				"z": -2.4656617304,
				"element": "C" 
			},
			{
				"x": 0.0127036905,
				"y": -1.899855752,
				"z": -2.3403127226,
				"element": "C" 
			},
			{
				"x": 0.1507036878,
				"y": -0.7644928757,
				"z": -1.4464880559,
				"element": "O" 
			},
			{
				"x": -0.9809220614,
				"y": -0.0833003822,
				"z": -1.1772120309,
				"element": "C" 
			},
			{
				"x": -2.0654979437,
				"y": -0.3544718802,
				"z": -1.6448720293,
				"element": "O" 
			},
			{
				"x": -0.7098905232,
				"y": 1.058661784,
				"z": -0.2030694234,
				"element": "C" 
			},
			{
				"x": -0.2725528514,
				"y": 0.5636017096,
				"z": 1.1583743652,
				"element": "C" 
			},
			{
				"x": 0.9886821515,
				"y": 0.7278470314,
				"z": 1.4317934012,
				"element": "N" 
			},
			{
				"x": 1.4912999644,
				"y": 0.282838526,
				"z": 2.6135800501,
				"element": "N" 
			},
			{
				"x": 2.9288555171,
				"y": 0.5048059388,
				"z": 2.797393426,
				"element": "C" 
			},
			{
				"x": 3.8527863944,
				"y": -0.3542750508,
				"z": 1.9297176842,
				"element": "C" 
			},
			{
				"x": 3.3640685777,
				"y": -0.7231507383,
				"z": 0.7361833414,
				"element": "N" 
			},
			{
				"x": 5.3888684094,
				"y": -0.7179529598,
				"z": 2.452117821,
				"element": "S" 
			},
			{
				"x": 0.7523636783,
				"y": -0.3362357827,
				"z": 3.63334703,
				"element": "C" 
			},
			{
				"x": 1.278420192,
				"y": -0.6945113789,
				"z": 4.6804507568,
				"element": "O" 
			},
			{
				"x": -0.6775103176,
				"y": -0.5037129343,
				"z": 3.3205262453,
				"element": "C" 
			},
			{
				"x": -1.5130784944,
				"y": -1.1123767181,
				"z": 4.2672413738,
				"element": "C" 
			},
			{
				"x": -2.8588285687,
				"y": -1.2950595102,
				"z": 3.9820429748,
				"element": "C" 
			},
			{
				"x": -3.3799183012,
				"y": -0.8785382863,
				"z": 2.7458380874,
				"element": "C" 
			},
			{
				"x": -2.5636226371,
				"y": -0.2727231676,
				"z": 1.800746795,
				"element": "C" 
			},
			{
				"x": -1.1961016919,
				"y": -0.0701861502,
				"z": 2.0806363468,
				"element": "C" 
			},
			{
				"x": 1.3138778802,
				"y": -3.4159771854,
				"z": -3.1309292291,
				"element": "H" 
			},
			{
				"x": 2.1074863552,
				"y": -1.8508760371,
				"z": -2.8836355089,
				"element": "H" 
			},
			{
				"x": 1.7375186715,
				"y": -2.8933459045,
				"z": -1.4915647275,
				"element": "H" 
			},
			{
				"x": -0.7343135949,
				"y": -2.582119517,
				"z": -1.9240984689,
				"element": "H" 
			},
			{
				"x": -0.3647584374,
				"y": -1.5413885633,
				"z": -3.3027053915,
				"element": "H" 
			},
			{
				"x": 0.0960397754,
				"y": 1.677982076,
				"z": -0.6041647078,
				"element": "H" 
			},
			{
				"x": -1.6206802417,
				"y": 1.6578167293,
				"z": -0.1389550729,
				"element": "H" 
			},
			{
				"x": 3.1432735689,
				"y": 1.5557773473,
				"z": 2.5764419291,
				"element": "H" 
			},
			{
				"x": 3.152089594,
				"y": 0.3077486041,
				"z": 3.8427419389,
				"element": "H" 
			},
			{
				"x": 2.4744982727,
				"y": -0.3723885199,
				"z": 0.3988925463,
				"element": "H" 
			},
			{
				"x": 3.9712860727,
				"y": -1.2338864412,
				"z": 0.1117424488,
				"element": "H" 
			},
			{
				"x": -1.0760777477,
				"y": -1.4301288732,
				"z": 5.2075344252,
				"element": "H" 
			},
			{
				"x": -3.5102513431,
				"y": -1.7654380276,
				"z": 4.7122920152,
				"element": "H" 
			},
			{
				"x": -4.4314860356,
				"y": -1.0336762546,
				"z": 2.5238207375,
				"element": "H" 
			},
			{
				"x": -2.973998689,
				"y": 0.0227844681,
				"z": 0.8412133592,
				"element": "H" 
			}
		],
		 "valence_orbital": [ 
			{
				"type": "occ",
				"energy": -0.27721,
				"method": "rhf"
			},
			{
				"type": "occ",
				"energy": -0.26372,
				"method": "rhf"
			},
			{
				"type": "occ",
				"energy": -0.24229,
				"method": "rhf"
			},
			{
				"type": "occ",
				"energy": -0.22745,
				"method": "rhf"
			},
			{
				"type": "occ",
				"energy": -0.20412,
				"method": "rhf"
			},
			{
				"type": "unocc",
				"energy": -0.07121,
				"method": "rhf"
			},
			{
				"type": "unocc",
				"energy": -0.05606,
				"method": "rhf"
			},
			{
				"type": "unocc",
				"energy": -0.02815,
				"method": "rhf"
			},
			{
				"type": "unocc",
				"energy": -0.012,
				"method": "rhf"
			},
			{
				"type": "unocc",
				"energy": 0.01808,
				"method": "rhf"
			}
		],
		"cosmo_sigma_profile": { 
			"-0.025": 0.0,
			"-0.024": 0.0,
			"-0.023": 0.0,
			"-0.022": 0.0,
			"-0.021": 0.0,
			"-0.02": 0.0,
			"-0.019": 0.0,
			"-0.018": 0.0,
			"-0.017": 0.0,
			"-0.016": 0.0,
			"-0.015": 0.233043245734,
			"-0.014": 0.985167070245,
			"-0.013": 0.756013609334,
			"-0.012": 0.850333418274,
			"-0.011": 1.19421380938,
			"-0.01": 0.84372344033,
			"-0.009": 1.1539153889,
			"-0.008": 4.94705051436,
			"-0.007": 12.5498507232,
			"-0.006": 17.0993278547,
			"-0.005": 24.9179625444,
			"-0.004": 34.575193288,
			"-0.003": 32.5532254558,
			"-0.002": 27.630206866,
			"-0.001": 24.9826507593,
			"0.0": 22.4731401221,
			"0.001": 22.2649855773,
			"0.002": 21.0790904507,
			"0.003": 13.4535311235,
			"0.004": 7.17256027947,
			"0.005": 7.4671637704,
			"0.006": 7.85388281289,
			"0.007": 6.83376857923,
			"0.008": 8.44745911432,
			"0.009": 9.73518934952,
			"0.01": 8.74144685893,
			"0.011": 8.87287793929,
			"0.012": 7.86747026851,
			"0.013": 2.86270650294,
			"0.014": 0.0,
			"0.015": 0.0,
			"0.016": 0.0,
			"0.017": 0.0,
			"0.018": 0.0,
			"0.019": 0.0,
			"0.02": 0.0,
			"0.021": 0.0,
			"0.022": 0.0,
			"0.023": 0.0,
			"0.024": 0.0,
			"0.025": 0.0
		}
	}
}
