{
	 "smiles": "COCCNC1=NC=C(C=C1)C(F)(F)F", 
	 "Tm": 351.15, 
	 "num_atms": 26, 
	 "gaussian": { 
		 "optdone": 1, 
		 "sigma_profile": "yes", 
		 "theory": "DFT", 
		 "functional": "B3LYP", 
		 "basiset": "6-31G**", 
		 "properties": { 
			 "R2extent": 6225.3202, 
			 "electric_dipole_moment_norm": 3.55645255135, 
			 "electric_quadrupole_moment_norm": 14.8801808729, 
			 "total_energy": -833.826385889, 
			 "HOMO_LUMO_gap": 0.18881, 
			 "cosmo_polarized_energy": -10.5, 
			 "cosmo_cavitation_energy": 31.45, 
			 "cosmo_dispersion_energy": -22.12, 
			 "cosmo_repulsion_energy": 1.69, 
			 "cosmo_total_nonelectrostatic_energy": 11.02, 
			 "SMD_solvation_energy": 5.03 
		},
		"coords": [
			{
				"x": 0.4562794051,
				"y": -3.4870200938,
				"z": -0.3785068432,
				"element": "C" 
			},
			{
				"x": 0.1901329756,
				"y": -3.0243417845,
				"z": -1.6889638245,
				"element": "O" 
			},
			{
				"x": -0.054448574,
				"y": -1.6333711572,
				"z": -1.7794718879,
				"element": "C" 
			},
			{
				"x": -1.5224813691,
				"y": -1.2798460113,
				"z": -1.4685615234,
				"element": "C" 
			},
			{
				"x": -1.8157030246,
				"y": 0.1309812397,
				"z": -1.6196019379,
				"element": "N" 
			},
			{
				"x": -1.5596927103,
				"y": 1.1189670702,
				"z": -0.7083322892,
				"element": "C" 
			},
			{
				"x": -1.811485904,
				"y": 2.3706170411,
				"z": -1.1456813219,
				"element": "N" 
			},
			{
				"x": -1.6183625928,
				"y": 3.3841839379,
				"z": -0.304182096,
				"element": "C" 
			},
			{
				"x": -1.1650248787,
				"y": 3.23302863,
				"z": 1.0076061122,
				"element": "C" 
			},
			{
				"x": -0.8945727966,
				"y": 1.9327243797,
				"z": 1.4537943884,
				"element": "C" 
			},
			{
				"x": -1.0840281876,
				"y": 0.8609662048,
				"z": 0.6003152148,
				"element": "C" 
			},
			{
				"x": -1.0150592884,
				"y": 4.4056340125,
				"z": 1.9227218717,
				"element": "C" 
			},
			{
				"x": 0.0573570253,
				"y": 4.2680665837,
				"z": 2.7398539223,
				"element": "F" 
			},
			{
				"x": -0.8633481274,
				"y": 5.5639099383,
				"z": 1.2419461905,
				"element": "F" 
			},
			{
				"x": -2.0911101049,
				"y": 4.5673602078,
				"z": 2.7326782618,
				"element": "F" 
			},
			{
				"x": 0.6822189618,
				"y": -4.5531033043,
				"z": -0.4567562656,
				"element": "H" 
			},
			{
				"x": -0.4008406744,
				"y": -3.3653540424,
				"z": 0.3006695056,
				"element": "H" 
			},
			{
				"x": 1.3238318972,
				"y": -2.9729023355,
				"z": 0.0631988488,
				"element": "H" 
			},
			{
				"x": 0.1716092508,
				"y": -1.3409432512,
				"z": -2.8107300063,
				"element": "H" 
			},
			{
				"x": 0.6200972555,
				"y": -1.0655223585,
				"z": -1.1195287077,
				"element": "H" 
			},
			{
				"x": -1.7894727167,
				"y": -1.600874676,
				"z": -0.4559453413,
				"element": "H" 
			},
			{
				"x": -2.1679625733,
				"y": -1.8417723007,
				"z": -2.1501455366,
				"element": "H" 
			},
			{
				"x": -2.0865206607,
				"y": 0.4802406785,
				"z": -2.527884881,
				"element": "H" 
			},
			{
				"x": -1.826795677,
				"y": 4.3768697759,
				"z": -0.69623639,
				"element": "H" 
			},
			{
				"x": -0.5259232895,
				"y": 1.7693175604,
				"z": 2.4616736468,
				"element": "H" 
			},
			{
				"x": -0.8653936214,
				"y": -0.1476159451,
				"z": 0.9299708899,
				"element": "H" 
			}
		],
		 "valence_orbital": [ 
			{
				"type": "occ",
				"energy": -0.31803,
				"method": "rhf"
			},
			{
				"type": "occ",
				"energy": -0.29165,
				"method": "rhf"
			},
			{
				"type": "occ",
				"energy": -0.2699,
				"method": "rhf"
			},
			{
				"type": "occ",
				"energy": -0.268,
				"method": "rhf"
			},
			{
				"type": "occ",
				"energy": -0.21777,
				"method": "rhf"
			},
			{
				"type": "unocc",
				"energy": -0.02896,
				"method": "rhf"
			},
			{
				"type": "unocc",
				"energy": -0.01144,
				"method": "rhf"
			},
			{
				"type": "unocc",
				"energy": 0.06297,
				"method": "rhf"
			},
			{
				"type": "unocc",
				"energy": 0.07913,
				"method": "rhf"
			},
			{
				"type": "unocc",
				"energy": 0.10206,
				"method": "rhf"
			}
		],
		"cosmo_sigma_profile": { 
			"-0.025": 0.0,
			"-0.024": 0.0,
			"-0.023": 0.0,
			"-0.022": 0.0,
			"-0.021": 0.0,
			"-0.02": 0.0,
			"-0.019": 0.0,
			"-0.018": 0.0,
			"-0.017": 0.0,
			"-0.016": 0.0,
			"-0.015": 0.0,
			"-0.014": 0.0780963117312,
			"-0.013": 0.785790911006,
			"-0.012": 1.022193398,
			"-0.011": 1.21923168457,
			"-0.01": 0.679124820367,
			"-0.009": 1.33943507437,
			"-0.008": 2.00913225892,
			"-0.007": 6.18682097415,
			"-0.006": 10.7915953046,
			"-0.005": 15.3517298253,
			"-0.004": 20.8105829359,
			"-0.003": 19.6640094532,
			"-0.002": 21.9634988874,
			"-0.001": 14.0656103813,
			"0.0": 14.5989316514,
			"0.001": 18.7148777257,
			"0.002": 24.7960801826,
			"0.003": 37.6718903597,
			"0.004": 12.6173660464,
			"0.005": 4.23149536185,
			"0.006": 2.85473842855,
			"0.007": 2.90979769697,
			"0.008": 2.98392612421,
			"0.009": 1.34926165676,
			"0.01": 2.17349022456,
			"0.011": 2.26400104352,
			"0.012": 1.8481970839,
			"0.013": 2.7631024965,
			"0.014": 1.20938510545,
			"0.015": 0.356326966961,
			"0.016": 0.0,
			"0.017": 0.0,
			"0.018": 0.0,
			"0.019": 0.0,
			"0.02": 0.0,
			"0.021": 0.0,
			"0.022": 0.0,
			"0.023": 0.0,
			"0.024": 0.0,
			"0.025": 0.0
		}
	}
}
