{
	 "smiles": "CC1=CC(C)=C(NC2=NN=C(S)S2)C=C1", 
	 "Tm": 446.15, 
	 "num_atms": 26, 
	 "gaussian": { 
		 "optdone": 1, 
		 "sigma_profile": "yes", 
		 "theory": "DFT", 
		 "functional": "B3LYP", 
		 "basiset": "6-31G**", 
		 "properties": { 
			 "R2extent": 7338.0644, 
			 "electric_dipole_moment_norm": 2.51884854844, 
			 "electric_quadrupole_moment_norm": 7.23495837583, 
			 "total_energy": -1348.29457226, 
			 "HOMO_LUMO_gap": 0.18357, 
			 "cosmo_polarized_energy": -14.09, 
			 "cosmo_cavitation_energy": 33.41, 
			 "cosmo_dispersion_energy": -25.05, 
			 "cosmo_repulsion_energy": 1.88, 
			 "cosmo_total_nonelectrostatic_energy": 10.23, 
			 "SMD_solvation_energy": 3.36 
		},
		"coords": [
			{
				"x": 1.754221309,
				"y": -0.1066857355,
				"z": -3.6112674935,
				"element": "C" 
			},
			{
				"x": 1.1398235156,
				"y": 0.1319806445,
				"z": -2.2520974534,
				"element": "C" 
			},
			{
				"x": 1.1787130735,
				"y": -0.8565698904,
				"z": -1.2622665719,
				"element": "C" 
			},
			{
				"x": 0.6426697293,
				"y": -0.6772458731,
				"z": 0.0183671362,
				"element": "C" 
			},
			{
				"x": 0.6766259332,
				"y": -1.7970152301,
				"z": 1.0246985076,
				"element": "C" 
			},
			{
				"x": 0.0631154988,
				"y": 0.5718715953,
				"z": 0.310683081,
				"element": "C" 
			},
			{
				"x": -0.5574050231,
				"y": 0.8249939259,
				"z": 1.5756603205,
				"element": "N" 
			},
			{
				"x": 0.1314771303,
				"y": 0.8954955995,
				"z": 2.7615396818,
				"element": "C" 
			},
			{
				"x": 1.3961947298,
				"y": 0.6263055457,
				"z": 2.9262272446,
				"element": "N" 
			},
			{
				"x": 1.8010869247,
				"y": 0.7331157852,
				"z": 4.2349889734,
				"element": "N" 
			},
			{
				"x": 0.8538438871,
				"y": 1.0911626597,
				"z": 5.0420916313,
				"element": "C" 
			},
			{
				"x": 1.0499901116,
				"y": 1.3470870169,
				"z": 6.7809579052,
				"element": "S" 
			},
			{
				"x": -0.7171203214,
				"y": 1.3244076125,
				"z": 4.2639457122,
				"element": "S" 
			},
			{
				"x": 0.0055373742,
				"y": 1.5700473345,
				"z": -0.6665860436,
				"element": "C" 
			},
			{
				"x": 0.5292827578,
				"y": 1.3511964204,
				"z": -1.9374826754,
				"element": "C" 
			},
			{
				"x": 1.7024646009,
				"y": -1.1623191703,
				"z": -3.894783571,
				"element": "H" 
			},
			{
				"x": 2.8130999029,
				"y": 0.1808841497,
				"z": -3.6231359916,
				"element": "H" 
			},
			{
				"x": 1.2504433098,
				"y": 0.4776771434,
				"z": -4.3871613419,
				"element": "H" 
			},
			{
				"x": 1.6284954065,
				"y": -1.8186712781,
				"z": -1.4982599368,
				"element": "H" 
			},
			{
				"x": -0.2833991411,
				"y": -1.8898488786,
				"z": 1.5436474824,
				"element": "H" 
			},
			{
				"x": 0.8993141107,
				"y": -2.7497318659,
				"z": 0.5372744469,
				"element": "H" 
			},
			{
				"x": 1.4367931814,
				"y": -1.6069053407,
				"z": 1.7893711616,
				"element": "H" 
			},
			{
				"x": -1.3847704875,
				"y": 1.4031732956,
				"z": 1.5308371552,
				"element": "H" 
			},
			{
				"x": 2.3686671867,
				"y": 1.0685460828,
				"z": 6.7466402299,
				"element": "H" 
			},
			{
				"x": -0.4488252889,
				"y": 2.5274710614,
				"z": -0.4233113491,
				"element": "H" 
			},
			{
				"x": 0.4710605881,
				"y": 2.1382773895,
				"z": -2.6846782416,
				"element": "H" 
			}
		],
		 "valence_orbital": [ 
			{
				"type": "occ",
				"energy": -0.28119,
				"method": "rhf"
			},
			{
				"type": "occ",
				"energy": -0.26555,
				"method": "rhf"
			},
			{
				"type": "occ",
				"energy": -0.24616,
				"method": "rhf"
			},
			{
				"type": "occ",
				"energy": -0.23984,
				"method": "rhf"
			},
			{
				"type": "occ",
				"energy": -0.21182,
				"method": "rhf"
			},
			{
				"type": "unocc",
				"energy": -0.02825,
				"method": "rhf"
			},
			{
				"type": "unocc",
				"energy": -0.01883,
				"method": "rhf"
			},
			{
				"type": "unocc",
				"energy": -0.00155,
				"method": "rhf"
			},
			{
				"type": "unocc",
				"energy": 0.00128,
				"method": "rhf"
			},
			{
				"type": "unocc",
				"energy": 0.01447,
				"method": "rhf"
			}
		],
		"cosmo_sigma_profile": { 
			"-0.025": 0.0,
			"-0.024": 0.0,
			"-0.023": 0.0,
			"-0.022": 0.0,
			"-0.021": 0.0,
			"-0.02": 0.0,
			"-0.019": 0.0,
			"-0.018": 0.0,
			"-0.017": 0.0,
			"-0.016": 0.758628199961,
			"-0.015": 1.21549412244,
			"-0.014": 1.63186945329,
			"-0.013": 1.03457192895,
			"-0.012": 2.3725657197,
			"-0.011": 2.850850118,
			"-0.01": 2.74406978731,
			"-0.009": 3.15461304681,
			"-0.008": 2.53771424637,
			"-0.007": 2.88158313853,
			"-0.006": 4.91647703144,
			"-0.005": 10.3473917204,
			"-0.004": 18.4288297443,
			"-0.003": 20.2047861123,
			"-0.002": 19.5574336292,
			"-0.001": 26.3942974361,
			"0.0": 33.6919974818,
			"0.001": 25.4116785489,
			"0.002": 20.1415602982,
			"0.003": 15.1787678307,
			"0.004": 11.6368995178,
			"0.005": 12.3763411884,
			"0.006": 10.6421259288,
			"0.007": 3.90364411343,
			"0.008": 1.98488297842,
			"0.009": 2.69113314954,
			"0.01": 2.25162321475,
			"0.011": 2.61639141761,
			"0.012": 3.64282827042,
			"0.013": 1.95435530789,
			"0.014": 1.83096838724,
			"0.015": 0.0270442799062,
			"0.016": 0.0,
			"0.017": 0.0,
			"0.018": 0.0,
			"0.019": 0.0,
			"0.02": 0.0,
			"0.021": 0.0,
			"0.022": 0.0,
			"0.023": 0.0,
			"0.024": 0.0,
			"0.025": 0.0
		}
	}
}
