{
	 "smiles": "CC(C)(C)C(=O)N1CCOC(C1)C(O)=O", 
	 "Tm": 422.15, 
	 "num_atms": 32, 
	 "gaussian": { 
		 "optdone": 1, 
		 "sigma_profile": "yes", 
		 "theory": "DFT", 
		 "functional": "B3LYP", 
		 "basiset": "6-31G**", 
		 "properties": { 
			 "R2extent": 3736.6644, 
			 "electric_dipole_moment_norm": 1.99112447878, 
			 "electric_quadrupole_moment_norm": 23.0970967853, 
			 "total_energy": -746.971990098, 
			 "HOMO_LUMO_gap": 0.24593, 
			 "cosmo_polarized_energy": -15.96, 
			 "cosmo_cavitation_energy": 32.62, 
			 "cosmo_dispersion_energy": -22.99, 
			 "cosmo_repulsion_energy": 1.8, 
			 "cosmo_total_nonelectrostatic_energy": 11.43, 
			 "SMD_solvation_energy": 6.92 
		},
		"coords": [
			{
				"x": 0.4348282596,
				"y": 3.6437322987,
				"z": 0.0374117021,
				"element": "C" 
			},
			{
				"x": 0.6597841179,
				"y": 2.1187976596,
				"z": -0.0381473254,
				"element": "C" 
			},
			{
				"x": 2.1032360215,
				"y": 1.8350966356,
				"z": 0.4420409488,
				"element": "C" 
			},
			{
				"x": 0.4536767626,
				"y": 1.6910677941,
				"z": -1.5117036524,
				"element": "C" 
			},
			{
				"x": -0.3928300181,
				"y": 1.4610832915,
				"z": 0.9007014835,
				"element": "C" 
			},
			{
				"x": -1.1966052938,
				"y": 2.1675095072,
				"z": 1.5033690281,
				"element": "O" 
			},
			{
				"x": -0.4434453812,
				"y": 0.0843253591,
				"z": 1.0719888668,
				"element": "N" 
			},
			{
				"x": -1.4368365887,
				"y": -0.4626201551,
				"z": 2.0010559086,
				"element": "C" 
			},
			{
				"x": -2.2839363046,
				"y": -1.5206058392,
				"z": 1.3011969315,
				"element": "C" 
			},
			{
				"x": -1.4556888452,
				"y": -2.5401193841,
				"z": 0.7253616036,
				"element": "O" 
			},
			{
				"x": -0.5043235335,
				"y": -2.0054707973,
				"z": -0.1889890618,
				"element": "C" 
			},
			{
				"x": 0.3915653858,
				"y": -0.9568221678,
				"z": 0.4869672996,
				"element": "C" 
			},
			{
				"x": 0.3284183296,
				"y": -3.1608091868,
				"z": -0.7502825609,
				"element": "C" 
			},
			{
				"x": -0.1061074828,
				"y": -4.3860119422,
				"z": -0.4214240798,
				"element": "O" 
			},
			{
				"x": 1.298069007,
				"y": -2.9658804238,
				"z": -1.4438150147,
				"element": "O" 
			},
			{
				"x": 0.5576380378,
				"y": 4.0125537179,
				"z": 1.0578890578,
				"element": "H" 
			},
			{
				"x": 1.1599969448,
				"y": 4.1494139634,
				"z": -0.6088640844,
				"element": "H" 
			},
			{
				"x": -0.5723327034,
				"y": 3.9129206089,
				"z": -0.2874987053,
				"element": "H" 
			},
			{
				"x": 2.8068175633,
				"y": 2.4119679618,
				"z": -0.1674623576,
				"element": "H" 
			},
			{
				"x": 2.2317805409,
				"y": 2.1497732925,
				"z": 1.4828421866,
				"element": "H" 
			},
			{
				"x": 2.4000070993,
				"y": 0.7869168911,
				"z": 0.3708360576,
				"element": "H" 
			},
			{
				"x": 1.1147388491,
				"y": 2.2818271439,
				"z": -2.1545924096,
				"element": "H" 
			},
			{
				"x": -0.5758500105,
				"y": 1.8864803953,
				"z": -1.8295428369,
				"element": "H" 
			},
			{
				"x": 0.6727665465,
				"y": 0.6396608421,
				"z": -1.7105249677,
				"element": "H" 
			},
			{
				"x": -0.9210040676,
				"y": -0.9178227842,
				"z": 2.8584899635,
				"element": "H" 
			},
			{
				"x": -2.0542303451,
				"y": 0.3620847583,
				"z": 2.3563953405,
				"element": "H" 
			},
			{
				"x": -2.944223705,
				"y": -2.0280302256,
				"z": 2.0089460659,
				"element": "H" 
			},
			{
				"x": -2.894287738,
				"y": -1.057504755,
				"z": 0.5119754588,
				"element": "H" 
			},
			{
				"x": -1.0261354055,
				"y": -1.527380075,
				"z": -1.034399309,
				"element": "H" 
			},
			{
				"x": 0.9775785432,
				"y": -1.4495445432,
				"z": 1.2766847946,
				"element": "H" 
			},
			{
				"x": 1.085016725,
				"y": -0.569611025,
				"z": -0.2492944973,
				"element": "H" 
			},
			{
				"x": -0.8795813112,
				"y": -4.2711788167,
				"z": 0.1627881647,
				"element": "H" 
			}
		],
		 "valence_orbital": [ 
			{
				"type": "occ",
				"energy": -0.3223,
				"method": "rhf"
			},
			{
				"type": "occ",
				"energy": -0.29914,
				"method": "rhf"
			},
			{
				"type": "occ",
				"energy": -0.27915,
				"method": "rhf"
			},
			{
				"type": "occ",
				"energy": -0.25074,
				"method": "rhf"
			},
			{
				"type": "occ",
				"energy": -0.24597,
				"method": "rhf"
			},
			{
				"type": "unocc",
				"energy": -4e-05,
				"method": "rhf"
			},
			{
				"type": "unocc",
				"energy": 0.01545,
				"method": "rhf"
			},
			{
				"type": "unocc",
				"energy": 0.0673,
				"method": "rhf"
			},
			{
				"type": "unocc",
				"energy": 0.08174,
				"method": "rhf"
			},
			{
				"type": "unocc",
				"energy": 0.09379,
				"method": "rhf"
			}
		],
		"cosmo_sigma_profile": { 
			"-0.025": 0.0,
			"-0.024": 0.0,
			"-0.023": 0.0,
			"-0.022": 0.0,
			"-0.021": 0.0,
			"-0.02": 0.0,
			"-0.019": 0.0,
			"-0.018": 0.0,
			"-0.017": 0.0,
			"-0.016": 0.0,
			"-0.015": 0.0922364647587,
			"-0.014": 0.618573520796,
			"-0.013": 0.426715739544,
			"-0.012": 0.448951268311,
			"-0.011": 0.735222984135,
			"-0.01": 0.591493509146,
			"-0.009": 0.538726204338,
			"-0.008": 1.37874928042,
			"-0.007": 8.13048565024,
			"-0.006": 13.7311727216,
			"-0.005": 20.8510237225,
			"-0.004": 21.7046117688,
			"-0.003": 27.7162808779,
			"-0.002": 26.1639225841,
			"-0.001": 21.1675309532,
			"0.0": 22.7544822929,
			"0.001": 19.1506124199,
			"0.002": 9.22716925147,
			"0.003": 5.57402025539,
			"0.004": 4.95615587899,
			"0.005": 4.34081269247,
			"0.006": 4.12016626659,
			"0.007": 4.11855026807,
			"0.008": 3.74287809542,
			"0.009": 5.8933964118,
			"0.01": 6.27232234107,
			"0.011": 6.09432793774,
			"0.012": 5.84629911549,
			"0.013": 4.25503372503,
			"0.014": 3.06317613894,
			"0.015": 0.305493163092,
			"0.016": 0.0,
			"0.017": 0.0,
			"0.018": 0.0,
			"0.019": 0.0,
			"0.02": 0.0,
			"0.021": 0.0,
			"0.022": 0.0,
			"0.023": 0.0,
			"0.024": 0.0,
			"0.025": 0.0
		}
	}
}
