{
	 "smiles": "CN1N=NN=C1SC1=C(N)C=C(Br)C=C1", 
	 "Tm": 422.15, 
	 "num_atms": 23, 
	 "gaussian": { 
		 "optdone": 1, 
		 "sigma_profile": "yes", 
		 "theory": "DFT", 
		 "functional": "B3LYP", 
		 "basiset": "6-31G**", 
		 "properties": { 
			 "R2extent": 6705.6955, 
			 "electric_dipole_moment_norm": 6.5947254052, 
			 "electric_quadrupole_moment_norm": 39.2129985994, 
			 "total_energy": -3552.9614875, 
			 "HOMO_LUMO_gap": 0.19042, 
			 "cosmo_polarized_energy": -18.25, 
			 "cosmo_cavitation_energy": 31.44, 
			 "cosmo_dispersion_energy": -23.16, 
			 "cosmo_repulsion_energy": 1.77, 
			 "cosmo_total_nonelectrostatic_energy": 10.05, 
			 "SMD_solvation_energy": 1.98 
		},
		"coords": [
			{
				"x": 1.4830279754,
				"y": -1.5324420059,
				"z": -2.4827215381,
				"element": "C" 
			},
			{
				"x": 1.1742264646,
				"y": -0.6936150349,
				"z": -3.6300578636,
				"element": "N" 
			},
			{
				"x": 1.9275710029,
				"y": -0.7578031734,
				"z": -4.7523156264,
				"element": "N" 
			},
			{
				"x": 1.4318664333,
				"y": 0.100303843,
				"z": -5.585673404,
				"element": "N" 
			},
			{
				"x": 0.3788590547,
				"y": 0.7592853043,
				"z": -5.0414772248,
				"element": "N" 
			},
			{
				"x": 0.2285734018,
				"y": 0.2594177587,
				"z": -3.824467679,
				"element": "C" 
			},
			{
				"x": -1.0880799035,
				"y": 0.7330118356,
				"z": -2.7468335127,
				"element": "S" 
			},
			{
				"x": -0.2373598703,
				"y": 1.0595967902,
				"z": -1.1967051711,
				"element": "C" 
			},
			{
				"x": -0.4255936581,
				"y": 0.195733251,
				"z": -0.0908745663,
				"element": "C" 
			},
			{
				"x": -1.1412178705,
				"y": -0.9867290159,
				"z": -0.1991862458,
				"element": "N" 
			},
			{
				"x": 0.1955378943,
				"y": 0.5287882089,
				"z": 1.1289741669,
				"element": "C" 
			},
			{
				"x": 0.9740643515,
				"y": 1.6734023603,
				"z": 1.2259171127,
				"element": "C" 
			},
			{
				"x": 1.8002219642,
				"y": 2.0843185316,
				"z": 2.8970359887,
				"element": "Br" 
			},
			{
				"x": 1.1655587445,
				"y": 2.5325164115,
				"z": 0.1418520834,
				"element": "C" 
			},
			{
				"x": 0.5408142867,
				"y": 2.2155797838,
				"z": -1.060083054,
				"element": "C" 
			},
			{
				"x": 2.1019526887,
				"y": -0.9877602333,
				"z": -1.7651653308,
				"element": "H" 
			},
			{
				"x": 2.0277277105,
				"y": -2.4007050841,
				"z": -2.8524844548,
				"element": "H" 
			},
			{
				"x": 0.5597021736,
				"y": -1.8444319521,
				"z": -1.9917952918,
				"element": "H" 
			},
			{
				"x": -1.8004134062,
				"y": -1.034719727,
				"z": -0.9641939963,
				"element": "H" 
			},
			{
				"x": -1.4887597144,
				"y": -1.3761445026,
				"z": 0.665387204,
				"element": "H" 
			},
			{
				"x": 0.070788942,
				"y": -0.1190181259,
				"z": 1.9900833861,
				"element": "H" 
			},
			{
				"x": 1.7713241801,
				"y": 3.4246736615,
				"z": 0.2395319321,
				"element": "H" 
			},
			{
				"x": 0.6537071541,
				"y": 2.8743411147,
				"z": -1.9154469146,
				"element": "H" 
			}
		],
		 "valence_orbital": [ 
			{
				"type": "occ",
				"energy": -0.29552,
				"method": "rhf"
			},
			{
				"type": "occ",
				"energy": -0.28235,
				"method": "rhf"
			},
			{
				"type": "occ",
				"energy": -0.26968,
				"method": "rhf"
			},
			{
				"type": "occ",
				"energy": -0.256,
				"method": "rhf"
			},
			{
				"type": "occ",
				"energy": -0.23635,
				"method": "rhf"
			},
			{
				"type": "unocc",
				"energy": -0.04593,
				"method": "rhf"
			},
			{
				"type": "unocc",
				"energy": -0.02755,
				"method": "rhf"
			},
			{
				"type": "unocc",
				"energy": -0.01979,
				"method": "rhf"
			},
			{
				"type": "unocc",
				"energy": -0.00656,
				"method": "rhf"
			},
			{
				"type": "unocc",
				"energy": 0.01076,
				"method": "rhf"
			}
		],
		"cosmo_sigma_profile": { 
			"-0.025": 0.0,
			"-0.024": 0.0,
			"-0.023": 0.0,
			"-0.022": 0.0,
			"-0.021": 0.0,
			"-0.02": 0.0,
			"-0.019": 0.0,
			"-0.018": 0.0,
			"-0.017": 0.0,
			"-0.016": 0.0,
			"-0.015": 0.0,
			"-0.014": 0.966527537969,
			"-0.013": 1.36727908534,
			"-0.012": 2.13878469819,
			"-0.011": 3.31544387121,
			"-0.01": 2.74457408276,
			"-0.009": 2.92100538755,
			"-0.008": 4.08136558993,
			"-0.007": 10.422717187,
			"-0.006": 12.4954157027,
			"-0.005": 16.87108192,
			"-0.004": 20.4993898241,
			"-0.003": 15.3820392499,
			"-0.002": 13.6937821341,
			"-0.001": 12.8139833368,
			"0.0": 13.8827694887,
			"0.001": 19.107277098,
			"0.002": 24.2677798835,
			"0.003": 18.6493144709,
			"0.004": 16.8832699094,
			"0.005": 9.18004167332,
			"0.006": 4.31808557411,
			"0.007": 3.52328645824,
			"0.008": 6.34011537266,
			"0.009": 4.7626516941,
			"0.01": 4.82388474039,
			"0.011": 4.35387171144,
			"0.012": 2.9625022917,
			"0.013": 2.54647049441,
			"0.014": 1.61875782063,
			"0.015": 0.478053180018,
			"0.016": 0.0,
			"0.017": 0.0,
			"0.018": 0.0,
			"0.019": 0.0,
			"0.02": 0.0,
			"0.021": 0.0,
			"0.022": 0.0,
			"0.023": 0.0,
			"0.024": 0.0,
			"0.025": 0.0
		}
	}
}
