{
	 "smiles": "CN1C(=CC2=C1C(=O)NC=C2)C1=CC=CC=C1", 
	 "Tm": 475.15, 
	 "num_atms": 29, 
	 "gaussian": { 
		 "optdone": 1, 
		 "sigma_profile": "yes", 
		 "theory": "DFT", 
		 "functional": "B3LYP", 
		 "basiset": "6-31G**", 
		 "properties": { 
			 "R2extent": 5237.8687, 
			 "electric_dipole_moment_norm": 2.10573187514, 
			 "electric_quadrupole_moment_norm": 19.2019651247, 
			 "total_energy": -725.471864604, 
			 "HOMO_LUMO_gap": 0.1639, 
			 "cosmo_polarized_energy": -13.15, 
			 "cosmo_cavitation_energy": 32.35, 
			 "cosmo_dispersion_energy": -23.82, 
			 "cosmo_repulsion_energy": 1.81, 
			 "cosmo_total_nonelectrostatic_energy": 10.34, 
			 "SMD_solvation_energy": 5.94 
		},
		"coords": [
			{
				"x": -2.1902789766,
				"y": -2.358037755,
				"z": 0.1946109641,
				"element": "C" 
			},
			{
				"x": -1.435818953,
				"y": -1.1447451532,
				"z": 0.5050899682,
				"element": "N" 
			},
			{
				"x": -0.0737774888,
				"y": -0.9499964614,
				"z": 0.3525147209,
				"element": "C" 
			},
			{
				"x": 0.2570409566,
				"y": 0.3038821159,
				"z": 0.8528700508,
				"element": "C" 
			},
			{
				"x": -0.9347922946,
				"y": 0.9077857869,
				"z": 1.3240764906,
				"element": "C" 
			},
			{
				"x": -1.9699359518,
				"y": -0.0189847923,
				"z": 1.1004064781,
				"element": "C" 
			},
			{
				"x": -3.3440925729,
				"y": 0.2131526904,
				"z": 1.4736884766,
				"element": "C" 
			},
			{
				"x": -4.3133317827,
				"y": -0.5444884974,
				"z": 1.3472288167,
				"element": "O" 
			},
			{
				"x": -3.5086141161,
				"y": 1.4817758611,
				"z": 2.0478653146,
				"element": "N" 
			},
			{
				"x": -2.5205042977,
				"y": 2.4205253374,
				"z": 2.2690881419,
				"element": "C" 
			},
			{
				"x": -1.2301149168,
				"y": 2.1739534289,
				"z": 1.9248752976,
				"element": "C" 
			},
			{
				"x": 0.8428189594,
				"y": -1.9393478569,
				"z": -0.2395322253,
				"element": "C" 
			},
			{
				"x": 2.0895016819,
				"y": -2.1677286022,
				"z": 0.3707771145,
				"element": "C" 
			},
			{
				"x": 3.0038550749,
				"y": -3.0609141881,
				"z": -0.1840662104,
				"element": "C" 
			},
			{
				"x": 2.689650529,
				"y": -3.7505611876,
				"z": -1.35702943,
				"element": "C" 
			},
			{
				"x": 1.4569481241,
				"y": -3.5319393739,
				"z": -1.9747357069,
				"element": "C" 
			},
			{
				"x": 0.5436285143,
				"y": -2.6327145901,
				"z": -1.4257073101,
				"element": "C" 
			},
			{
				"x": -3.1085004418,
				"y": -2.3421258816,
				"z": 0.7786641177,
				"element": "H" 
			},
			{
				"x": -1.589593245,
				"y": -3.2367076696,
				"z": 0.4369125997,
				"element": "H" 
			},
			{
				"x": -2.4615096538,
				"y": -2.3952893315,
				"z": -0.8654587713,
				"element": "H" 
			},
			{
				"x": 1.2474097234,
				"y": 0.7363222072,
				"z": 0.83739501,
				"element": "H" 
			},
			{
				"x": -4.4624277165,
				"y": 1.6785580309,
				"z": 2.3208425854,
				"element": "H" 
			},
			{
				"x": -2.8493401084,
				"y": 3.3448941987,
				"z": 2.7292161353,
				"element": "H" 
			},
			{
				"x": -0.4600134895,
				"y": 2.9142338482,
				"z": 2.1041994277,
				"element": "H" 
			},
			{
				"x": 2.3268626695,
				"y": -1.6479132572,
				"z": 1.2938776468,
				"element": "H" 
			},
			{
				"x": 3.9594537178,
				"y": -3.2255392356,
				"z": 0.3056123212,
				"element": "H" 
			},
			{
				"x": 3.3997923306,
				"y": -4.450864876,
				"z": -1.7869459792,
				"element": "H" 
			},
			{
				"x": 1.2082570007,
				"y": -4.0544264774,
				"z": -2.8940902792,
				"element": "H" 
			},
			{
				"x": -0.3952732761,
				"y": -2.4470583188,
				"z": -1.9365457661,
				"element": "H" 
			}
		],
		 "valence_orbital": [ 
			{
				"type": "occ",
				"energy": -0.26161,
				"method": "rhf"
			},
			{
				"type": "occ",
				"energy": -0.25602,
				"method": "rhf"
			},
			{
				"type": "occ",
				"energy": -0.24479,
				"method": "rhf"
			},
			{
				"type": "occ",
				"energy": -0.21479,
				"method": "rhf"
			},
			{
				"type": "occ",
				"energy": -0.19401,
				"method": "rhf"
			},
			{
				"type": "unocc",
				"energy": -0.03011,
				"method": "rhf"
			},
			{
				"type": "unocc",
				"energy": -0.00674,
				"method": "rhf"
			},
			{
				"type": "unocc",
				"energy": 0.00128,
				"method": "rhf"
			},
			{
				"type": "unocc",
				"energy": 0.02333,
				"method": "rhf"
			},
			{
				"type": "unocc",
				"energy": 0.07321,
				"method": "rhf"
			}
		],
		"cosmo_sigma_profile": { 
			"-0.025": 0.0,
			"-0.024": 0.0,
			"-0.023": 0.0,
			"-0.022": 0.0,
			"-0.021": 0.0,
			"-0.02": 0.0,
			"-0.019": 0.0,
			"-0.018": 0.0,
			"-0.017": 0.0,
			"-0.016": 0.026956624935,
			"-0.015": 1.11395263371,
			"-0.014": 1.45038159449,
			"-0.013": 1.1212370033,
			"-0.012": 1.00535045528,
			"-0.011": 0.68941929134,
			"-0.01": 1.07848537439,
			"-0.009": 1.77123339951,
			"-0.008": 3.30295025842,
			"-0.007": 3.98693494169,
			"-0.006": 14.032370067,
			"-0.005": 19.0182720826,
			"-0.004": 21.1994461954,
			"-0.003": 20.8176508832,
			"-0.002": 19.9741683712,
			"-0.001": 14.3799821864,
			"0.0": 14.6085485718,
			"0.001": 19.3289740602,
			"0.002": 19.5939056905,
			"0.003": 17.4132195634,
			"0.004": 19.3388663958,
			"0.005": 20.522876978,
			"0.006": 6.54362314995,
			"0.007": 1.49532271433,
			"0.008": 0.849208469015,
			"0.009": 1.51162175103,
			"0.01": 1.06433461398,
			"0.011": 1.46089596223,
			"0.012": 1.70119031688,
			"0.013": 2.02358759525,
			"0.014": 4.33600149456,
			"0.015": 2.41003204739,
			"0.016": 0.0725247309122,
			"0.017": 0.0,
			"0.018": 0.0,
			"0.019": 0.0,
			"0.02": 0.0,
			"0.021": 0.0,
			"0.022": 0.0,
			"0.023": 0.0,
			"0.024": 0.0,
			"0.025": 0.0
		}
	}
}
