{
	 "smiles": "OC(=O)CCCN1C(=O)CCC2=C1C=CC=C2", 
	 "Tm": 453.15, 
	 "num_atms": 32, 
	 "gaussian": { 
		 "optdone": 1, 
		 "sigma_profile": "yes", 
		 "theory": "DFT", 
		 "functional": "B3LYP", 
		 "basiset": "6-31G**", 
		 "properties": { 
			 "R2extent": 4663.007, 
			 "electric_dipole_moment_norm": 6.22891222767, 
			 "electric_quadrupole_moment_norm": 23.05008903, 
			 "total_energy": -784.884408494, 
			 "HOMO_LUMO_gap": 0.20326, 
			 "cosmo_polarized_energy": -20.96, 
			 "cosmo_cavitation_energy": 34.59, 
			 "cosmo_dispersion_energy": -24.0, 
			 "cosmo_repulsion_energy": 1.87, 
			 "cosmo_total_nonelectrostatic_energy": 12.46, 
			 "SMD_solvation_energy": 6.91 
		},
		"coords": [
			{
				"x": 3.2735079072,
				"y": 0.1902517507,
				"z": -2.505789904,
				"element": "O" 
			},
			{
				"x": 3.2810796312,
				"y": -1.0097841742,
				"z": -1.8547854064,
				"element": "C" 
			},
			{
				"x": 4.2597806842,
				"y": -1.7104228834,
				"z": -1.9018740382,
				"element": "O" 
			},
			{
				"x": 2.0124602604,
				"y": -1.3428661423,
				"z": -1.0830528278,
				"element": "C" 
			},
			{
				"x": 1.8028337978,
				"y": -0.414283756,
				"z": 0.1290130473,
				"element": "C" 
			},
			{
				"x": 0.5106886169,
				"y": -0.716073833,
				"z": 0.9009357539,
				"element": "C" 
			},
			{
				"x": -0.7109005663,
				"y": -0.503078146,
				"z": 0.112278377,
				"element": "N" 
			},
			{
				"x": -1.4695644484,
				"y": -1.6322284716,
				"z": -0.2029692029,
				"element": "C" 
			},
			{
				"x": -1.1109952879,
				"y": -2.759435807,
				"z": 0.107155279,
				"element": "O" 
			},
			{
				"x": -2.7726890175,
				"y": -1.3685397952,
				"z": -0.9367146253,
				"element": "C" 
			},
			{
				"x": -2.6270733101,
				"y": -0.233237116,
				"z": -1.9516135337,
				"element": "C" 
			},
			{
				"x": -2.0808685121,
				"y": 0.9912959611,
				"z": -1.2614976518,
				"element": "C" 
			},
			{
				"x": -1.1290215624,
				"y": 0.8123701242,
				"z": -0.2339412363,
				"element": "C" 
			},
			{
				"x": -0.6004934604,
				"y": 1.9404101924,
				"z": 0.4126681435,
				"element": "C" 
			},
			{
				"x": -1.011736362,
				"y": 3.223182224,
				"z": 0.0481043792,
				"element": "C" 
			},
			{
				"x": -1.9558382843,
				"y": 3.4035133694,
				"z": -0.9600964349,
				"element": "C" 
			},
			{
				"x": -2.4840376847,
				"y": 2.2822042122,
				"z": -1.601860414,
				"element": "C" 
			},
			{
				"x": 2.4151902802,
				"y": 0.6243992731,
				"z": -2.4005729453,
				"element": "H" 
			},
			{
				"x": 1.1497689393,
				"y": -1.268865052,
				"z": -1.75780842,
				"element": "H" 
			},
			{
				"x": 2.0879720073,
				"y": -2.3826197155,
				"z": -0.7596251784,
				"element": "H" 
			},
			{
				"x": 2.6451994202,
				"y": -0.5291415096,
				"z": 0.8212375896,
				"element": "H" 
			},
			{
				"x": 1.8075404706,
				"y": 0.6351284702,
				"z": -0.1898068942,
				"element": "H" 
			},
			{
				"x": 0.4664291927,
				"y": -0.1114149067,
				"z": 1.8125854046,
				"element": "H" 
			},
			{
				"x": 0.4886246704,
				"y": -1.764018996,
				"z": 1.2005658597,
				"element": "H" 
			},
			{
				"x": -3.076906094,
				"y": -2.3103505632,
				"z": -1.3966567818,
				"element": "H" 
			},
			{
				"x": -3.5317728575,
				"y": -1.1035953533,
				"z": -0.188163417,
				"element": "H" 
			},
			{
				"x": -3.5863896241,
				"y": -0.0116225771,
				"z": -2.4290302337,
				"element": "H" 
			},
			{
				"x": -1.9442551326,
				"y": -0.5499142597,
				"z": -2.7542479084,
				"element": "H" 
			},
			{
				"x": 0.1263783027,
				"y": 1.8302854112,
				"z": 1.2078872795,
				"element": "H" 
			},
			{
				"x": -0.5905064015,
				"y": 4.0804818893,
				"z": 0.5647633098,
				"element": "H" 
			},
			{
				"x": -2.2796069491,
				"y": 4.4001584188,
				"z": -1.2428038574,
				"element": "H" 
			},
			{
				"x": -3.2243986261,
				"y": 2.4055117615,
				"z": -2.3884835118,
				"element": "H" 
			}
		],
		 "valence_orbital": [ 
			{
				"type": "occ",
				"energy": -0.30772,
				"method": "rhf"
			},
			{
				"type": "occ",
				"energy": -0.26522,
				"method": "rhf"
			},
			{
				"type": "occ",
				"energy": -0.26239,
				"method": "rhf"
			},
			{
				"type": "occ",
				"energy": -0.2619,
				"method": "rhf"
			},
			{
				"type": "occ",
				"energy": -0.22741,
				"method": "rhf"
			},
			{
				"type": "unocc",
				"energy": -0.02415,
				"method": "rhf"
			},
			{
				"type": "unocc",
				"energy": -0.01869,
				"method": "rhf"
			},
			{
				"type": "unocc",
				"energy": 0.01124,
				"method": "rhf"
			},
			{
				"type": "unocc",
				"energy": 0.02033,
				"method": "rhf"
			},
			{
				"type": "unocc",
				"energy": 0.04877,
				"method": "rhf"
			}
		],
		"cosmo_sigma_profile": { 
			"-0.025": 0.0,
			"-0.024": 0.0,
			"-0.023": 0.0,
			"-0.022": 0.0,
			"-0.021": 0.0,
			"-0.02": 0.0,
			"-0.019": 0.0,
			"-0.018": 0.493838263816,
			"-0.017": 1.0942666118,
			"-0.016": 1.03603908197,
			"-0.015": 0.727799031729,
			"-0.014": 1.28106549982,
			"-0.013": 1.17902228693,
			"-0.012": 1.00375398748,
			"-0.011": 1.13148550985,
			"-0.01": 1.38856477074,
			"-0.009": 0.693985593097,
			"-0.008": 1.70328780429,
			"-0.007": 4.72058888823,
			"-0.006": 11.0327446742,
			"-0.005": 27.8251619803,
			"-0.004": 34.8496987712,
			"-0.003": 28.4146294058,
			"-0.002": 22.4830120751,
			"-0.001": 17.4433870163,
			"0.0": 11.5297295312,
			"0.001": 9.67892850914,
			"0.002": 10.3689555379,
			"0.003": 10.0008668841,
			"0.004": 9.44296454848,
			"0.005": 11.3572652316,
			"0.006": 9.03989888329,
			"0.007": 4.38687132076,
			"0.008": 3.33413958142,
			"0.009": 4.20430846414,
			"0.01": 5.89044914193,
			"0.011": 7.50352350592,
			"0.012": 8.67536055604,
			"0.013": 6.89767788931,
			"0.014": 1.84462289516,
			"0.015": 0.197498468883,
			"0.016": 0.0,
			"0.017": 0.0,
			"0.018": 0.0,
			"0.019": 0.0,
			"0.02": 0.0,
			"0.021": 0.0,
			"0.022": 0.0,
			"0.023": 0.0,
			"0.024": 0.0,
			"0.025": 0.0
		}
	}
}
