{
	 "smiles": "CC1CCC(CC1)(NC(C)=O)C(O)=O", 
	 "Tm": 485.15, 
	 "num_atms": 31, 
	 "gaussian": { 
		 "optdone": 1, 
		 "sigma_profile": "yes", 
		 "theory": "DFT", 
		 "functional": "B3LYP", 
		 "basiset": "6-31G**", 
		 "properties": { 
			 "R2extent": 3231.8124, 
			 "electric_dipole_moment_norm": 6.0173720809, 
			 "electric_quadrupole_moment_norm": 21.1751177206, 
			 "total_energy": -671.782305686, 
			 "HOMO_LUMO_gap": 0.243, 
			 "cosmo_polarized_energy": -16.53, 
			 "cosmo_cavitation_energy": 31.07, 
			 "cosmo_dispersion_energy": -22.38, 
			 "cosmo_repulsion_energy": 1.76, 
			 "cosmo_total_nonelectrostatic_energy": 10.45, 
			 "SMD_solvation_energy": 6.18 
		},
		"coords": [
			{
				"x": -3.2425976151,
				"y": 0.3767136908,
				"z": -2.4751293495,
				"element": "C" 
			},
			{
				"x": -1.7725290351,
				"y": 0.5891014926,
				"z": -2.0912444861,
				"element": "C" 
			},
			{
				"x": -0.9092690889,
				"y": -0.6251668104,
				"z": -2.5117654945,
				"element": "C" 
			},
			{
				"x": 0.3841739784,
				"y": -0.7159823292,
				"z": -1.6957903315,
				"element": "C" 
			},
			{
				"x": 0.0980703593,
				"y": -1.0010212415,
				"z": -0.199143251,
				"element": "C" 
			},
			{
				"x": -1.2833678721,
				"y": -0.401567233,
				"z": 0.2142455545,
				"element": "C" 
			},
			{
				"x": -1.5996928125,
				"y": 0.8742129855,
				"z": -0.5736567029,
				"element": "C" 
			},
			{
				"x": 1.2029783781,
				"y": -0.3751298505,
				"z": 0.5741345046,
				"element": "N" 
			},
			{
				"x": 1.3324104425,
				"y": -0.2964942298,
				"z": 1.9200728637,
				"element": "C" 
			},
			{
				"x": 2.4982663375,
				"y": 0.5207633376,
				"z": 2.4399834518,
				"element": "C" 
			},
			{
				"x": 0.5523208698,
				"y": -0.8490896569,
				"z": 2.7116027464,
				"element": "O" 
			},
			{
				"x": 0.052107472,
				"y": -2.5444003286,
				"z": 0.0311698234,
				"element": "C" 
			},
			{
				"x": -0.0914935046,
				"y": -2.9499469928,
				"z": 1.29301246,
				"element": "O" 
			},
			{
				"x": 0.079409269,
				"y": -3.3295244115,
				"z": -0.8918209474,
				"element": "O" 
			},
			{
				"x": -3.3433881677,
				"y": 0.1359811966,
				"z": -3.53928893,
				"element": "H" 
			},
			{
				"x": -3.8408321377,
				"y": 1.2723863082,
				"z": -2.2755222148,
				"element": "H" 
			},
			{
				"x": -3.6828251557,
				"y": -0.4528761464,
				"z": -1.9086936786,
				"element": "H" 
			},
			{
				"x": -1.407373261,
				"y": 1.4689686693,
				"z": -2.638484145,
				"element": "H" 
			},
			{
				"x": -0.6718469178,
				"y": -0.5651288331,
				"z": -3.5794313768,
				"element": "H" 
			},
			{
				"x": -1.4682520306,
				"y": -1.5585165994,
				"z": -2.3778712444,
				"element": "H" 
			},
			{
				"x": 1.0335854821,
				"y": -1.5013079527,
				"z": -2.0882718367,
				"element": "H" 
			},
			{
				"x": 0.9171525275,
				"y": 0.2415599215,
				"z": -1.7800171141,
				"element": "H" 
			},
			{
				"x": -2.0571953242,
				"y": -1.1527512308,
				"z": 0.0179454234,
				"element": "H" 
			},
			{
				"x": -1.2973065186,
				"y": -0.2222759247,
				"z": 1.2907663432,
				"element": "H" 
			},
			{
				"x": -2.5055934922,
				"y": 1.3422721166,
				"z": -0.1717755254,
				"element": "H" 
			},
			{
				"x": -0.7904100815,
				"y": 1.5980044798,
				"z": -0.4138398543,
				"element": "H" 
			},
			{
				"x": 1.9309834989,
				"y": 0.0519310715,
				"z": 0.0204080282,
				"element": "H" 
			},
			{
				"x": 2.1041564815,
				"y": 1.3285169542,
				"z": 3.0629200041,
				"element": "H" 
			},
			{
				"x": 3.1129853651,
				"y": -0.1150096545,
				"z": 3.0824826808,
				"element": "H" 
			},
			{
				"x": 3.1228761028,
				"y": 0.950497673,
				"z": 1.6530084972,
				"element": "H" 
			},
			{
				"x": -0.002903549,
				"y": -2.1897204714,
				"z": 1.9307941018,
				"element": "H" 
			}
		],
		 "valence_orbital": [ 
			{
				"type": "occ",
				"energy": -0.31285,
				"method": "rhf"
			},
			{
				"type": "occ",
				"energy": -0.29426,
				"method": "rhf"
			},
			{
				"type": "occ",
				"energy": -0.29265,
				"method": "rhf"
			},
			{
				"type": "occ",
				"energy": -0.27719,
				"method": "rhf"
			},
			{
				"type": "occ",
				"energy": -0.24829,
				"method": "rhf"
			},
			{
				"type": "unocc",
				"energy": -0.00529,
				"method": "rhf"
			},
			{
				"type": "unocc",
				"energy": 0.02232,
				"method": "rhf"
			},
			{
				"type": "unocc",
				"energy": 0.05056,
				"method": "rhf"
			},
			{
				"type": "unocc",
				"energy": 0.07831,
				"method": "rhf"
			},
			{
				"type": "unocc",
				"energy": 0.09411,
				"method": "rhf"
			}
		],
		"cosmo_sigma_profile": { 
			"-0.025": 0.0,
			"-0.024": 0.0,
			"-0.023": 0.0,
			"-0.022": 0.0,
			"-0.021": 0.0,
			"-0.02": 0.0,
			"-0.019": 0.0,
			"-0.018": 0.0,
			"-0.017": 0.0,
			"-0.016": 0.0,
			"-0.015": 0.648082103584,
			"-0.014": 1.07276639628,
			"-0.013": 1.35868575294,
			"-0.012": 1.42915266336,
			"-0.011": 1.48111718996,
			"-0.01": 1.61841121524,
			"-0.009": 1.37445320904,
			"-0.008": 1.88961186365,
			"-0.007": 2.30206592298,
			"-0.006": 6.5043954257,
			"-0.005": 8.50838152002,
			"-0.004": 14.238208636,
			"-0.003": 25.6405729285,
			"-0.002": 39.3250694445,
			"-0.001": 36.9739917746,
			"0.0": 22.9295805375,
			"0.001": 16.2050044142,
			"0.002": 8.5905122284,
			"0.003": 3.24441631219,
			"0.004": 3.74191508946,
			"0.005": 3.77661077019,
			"0.006": 3.79206197811,
			"0.007": 2.66272387984,
			"0.008": 3.23823067859,
			"0.009": 4.89386593199,
			"0.01": 4.9275562354,
			"0.011": 5.56908403843,
			"0.012": 7.9746066006,
			"0.013": 4.19376063794,
			"0.014": 1.12428505474,
			"0.015": 0.0,
			"0.016": 0.0,
			"0.017": 0.0,
			"0.018": 0.0,
			"0.019": 0.0,
			"0.02": 0.0,
			"0.021": 0.0,
			"0.022": 0.0,
			"0.023": 0.0,
			"0.024": 0.0,
			"0.025": 0.0
		}
	}
}
