{
	 "smiles": "CCOC(=O)C(C#N)=C1OC2=CC=CC=C2N1C", 
	 "Tm": 409.15, 
	 "num_atms": 30, 
	 "gaussian": { 
		 "optdone": 1, 
		 "sigma_profile": "yes", 
		 "theory": "DFT", 
		 "functional": "B3LYP", 
		 "basiset": "6-31G**", 
		 "properties": { 
			 "R2extent": 6181.3971, 
			 "electric_dipole_moment_norm": 6.83716646719, 
			 "electric_quadrupole_moment_norm": 23.3767056522, 
			 "total_energy": -837.773283941, 
			 "HOMO_LUMO_gap": 0.16536, 
			 "cosmo_polarized_energy": -18.09, 
			 "cosmo_cavitation_energy": 35.28, 
			 "cosmo_dispersion_energy": -24.81, 
			 "cosmo_repulsion_energy": 1.92, 
			 "cosmo_total_nonelectrostatic_energy": 12.39, 
			 "SMD_solvation_energy": 8.5 
		},
		"coords": [
			{
				"x": 1.0898390605,
				"y": -2.0207997115,
				"z": 4.603417706,
				"element": "C" 
			},
			{
				"x": 1.9712764936,
				"y": -0.8165102937,
				"z": 4.3066003111,
				"element": "C" 
			},
			{
				"x": 1.3883628946,
				"y": 0.0229061461,
				"z": 3.2852169723,
				"element": "O" 
			},
			{
				"x": 1.668760333,
				"y": -0.2970420262,
				"z": 2.0024772577,
				"element": "C" 
			},
			{
				"x": 2.3441880477,
				"y": -1.2666667137,
				"z": 1.682223385,
				"element": "O" 
			},
			{
				"x": 1.1032294567,
				"y": 0.6919099488,
				"z": 1.0776518282,
				"element": "C" 
			},
			{
				"x": 0.6177835425,
				"y": 1.9310595905,
				"z": 1.5859221931,
				"element": "C" 
			},
			{
				"x": 0.2106587632,
				"y": 2.9441348411,
				"z": 1.9926003263,
				"element": "N" 
			},
			{
				"x": 1.1650728292,
				"y": 0.5556510785,
				"z": -0.3039139656,
				"element": "C" 
			},
			{
				"x": 1.0357589503,
				"y": 1.6687964864,
				"z": -1.0810409716,
				"element": "O" 
			},
			{
				"x": 1.1465107627,
				"y": 1.282255098,
				"z": -2.3986048857,
				"element": "C" 
			},
			{
				"x": 1.0811819337,
				"y": 2.0782204965,
				"z": -3.5255554125,
				"element": "C" 
			},
			{
				"x": 1.234959954,
				"y": 1.4178762015,
				"z": -4.7526638557,
				"element": "C" 
			},
			{
				"x": 1.4368519309,
				"y": 0.033611131,
				"z": -4.8143254605,
				"element": "C" 
			},
			{
				"x": 1.4968778959,
				"y": -0.7548223151,
				"z": -3.6576672092,
				"element": "C" 
			},
			{
				"x": 1.3440044943,
				"y": -0.095375892,
				"z": -2.4428660535,
				"element": "C" 
			},
			{
				"x": 1.3193974672,
				"y": -0.5371712642,
				"z": -1.1119200926,
				"element": "N" 
			},
			{
				"x": 1.151058747,
				"y": -1.9399980291,
				"z": -0.736535358,
				"element": "C" 
			},
			{
				"x": 1.033840802,
				"y": -2.6788570203,
				"z": 3.7326716556,
				"element": "H" 
			},
			{
				"x": 1.5085568941,
				"y": -2.5918450309,
				"z": 5.4389873561,
				"element": "H" 
			},
			{
				"x": 0.0786927026,
				"y": -1.7044338062,
				"z": 4.8756832707,
				"element": "H" 
			},
			{
				"x": 2.9680962509,
				"y": -1.1277368121,
				"z": 3.9851525611,
				"element": "H" 
			},
			{
				"x": 2.0574528608,
				"y": -0.1610385375,
				"z": 5.1763710379,
				"element": "H" 
			},
			{
				"x": 0.922575424,
				"y": 3.147939642,
				"z": -3.4552394033,
				"element": "H" 
			},
			{
				"x": 1.1990245555,
				"y": 1.9941995763,
				"z": -5.6712423914,
				"element": "H" 
			},
			{
				"x": 1.5540520903,
				"y": -0.4439378413,
				"z": -5.781800746,
				"element": "H" 
			},
			{
				"x": 1.661832033,
				"y": -1.8249432026,
				"z": -3.7146898696,
				"element": "H" 
			},
			{
				"x": 0.7610283636,
				"y": -2.46953643,
				"z": -1.6080691895,
				"element": "H" 
			},
			{
				"x": 0.4281525702,
				"y": -2.0105352879,
				"z": 0.0761747464,
				"element": "H" 
			},
			{
				"x": 2.0895218959,
				"y": -2.3777100225,
				"z": -0.4004157426,
				"element": "H" 
			}
		],
		 "valence_orbital": [ 
			{
				"type": "occ",
				"energy": -0.29278,
				"method": "rhf"
			},
			{
				"type": "occ",
				"energy": -0.27945,
				"method": "rhf"
			},
			{
				"type": "occ",
				"energy": -0.27091,
				"method": "rhf"
			},
			{
				"type": "occ",
				"energy": -0.26813,
				"method": "rhf"
			},
			{
				"type": "occ",
				"energy": -0.21264,
				"method": "rhf"
			},
			{
				"type": "unocc",
				"energy": -0.04728,
				"method": "rhf"
			},
			{
				"type": "unocc",
				"energy": -0.01614,
				"method": "rhf"
			},
			{
				"type": "unocc",
				"energy": -0.00871,
				"method": "rhf"
			},
			{
				"type": "unocc",
				"energy": 0.03509,
				"method": "rhf"
			},
			{
				"type": "unocc",
				"energy": 0.05299,
				"method": "rhf"
			}
		],
		"cosmo_sigma_profile": { 
			"-0.025": 0.0,
			"-0.024": 0.0,
			"-0.023": 0.0,
			"-0.022": 0.0,
			"-0.021": 0.0,
			"-0.02": 0.0,
			"-0.019": 0.0,
			"-0.018": 0.0,
			"-0.017": 0.0,
			"-0.016": 0.0,
			"-0.015": 0.0,
			"-0.014": 0.0,
			"-0.013": 0.0,
			"-0.012": 0.0,
			"-0.011": 0.0,
			"-0.01": 0.0,
			"-0.009": 1.08981871332,
			"-0.008": 5.10975630881,
			"-0.007": 9.97326019716,
			"-0.006": 17.7916561465,
			"-0.005": 23.211170614,
			"-0.004": 26.1414613483,
			"-0.003": 23.283957079,
			"-0.002": 22.8963943666,
			"-0.001": 21.9276063303,
			"0.0": 24.2019549723,
			"0.001": 16.7156491768,
			"0.002": 13.7830534703,
			"0.003": 14.9922749783,
			"0.004": 10.6923502127,
			"0.005": 5.78938939839,
			"0.006": 5.79507681448,
			"0.007": 5.89040038234,
			"0.008": 5.78195414981,
			"0.009": 7.2448501506,
			"0.01": 5.67527152911,
			"0.011": 5.3105786444,
			"0.012": 4.67468108655,
			"0.013": 2.95442982205,
			"0.014": 1.80715969484,
			"0.015": 0.159089801023,
			"0.016": 0.0,
			"0.017": 0.0,
			"0.018": 0.0,
			"0.019": 0.0,
			"0.02": 0.0,
			"0.021": 0.0,
			"0.022": 0.0,
			"0.023": 0.0,
			"0.024": 0.0,
			"0.025": 0.0
		}
	}
}
