{
	 "smiles": "NC1=NC(CN2CCCCC2)=CS1", 
	 "Tm": 427.15, 
	 "num_atms": 28, 
	 "gaussian": { 
		 "optdone": 1, 
		 "sigma_profile": "yes", 
		 "theory": "DFT", 
		 "functional": "B3LYP", 
		 "basiset": "6-31G**", 
		 "properties": { 
			 "R2extent": 4573.0556, 
			 "electric_dipole_moment_norm": 1.94198136191, 
			 "electric_quadrupole_moment_norm": 14.0105304596, 
			 "total_energy": -914.427260756, 
			 "HOMO_LUMO_gap": 0.1905, 
			 "cosmo_polarized_energy": -10.19, 
			 "cosmo_cavitation_energy": 30.71, 
			 "cosmo_dispersion_energy": -22.91, 
			 "cosmo_repulsion_energy": 1.8, 
			 "cosmo_total_nonelectrostatic_energy": 9.6, 
			 "SMD_solvation_energy": 1.28 
		},
		"coords": [
			{
				"x": 1.9727917748,
				"y": -2.1298132477,
				"z": 4.6086871083,
				"element": "N" 
			},
			{
				"x": 0.9716499386,
				"y": -1.3241067773,
				"z": 4.1109807814,
				"element": "C" 
			},
			{
				"x": 1.1202238191,
				"y": -0.5211277722,
				"z": 3.0983082428,
				"element": "N" 
			},
			{
				"x": -0.0756142247,
				"y": 0.1044025802,
				"z": 2.7749962555,
				"element": "C" 
			},
			{
				"x": -0.1085975913,
				"y": 1.0703404144,
				"z": 1.6065065394,
				"element": "C" 
			},
			{
				"x": -0.0476644039,
				"y": 0.4876461293,
				"z": 0.2698001589,
				"element": "N" 
			},
			{
				"x": -1.2268623101,
				"y": -0.3098749727,
				"z": -0.0813393785,
				"element": "C" 
			},
			{
				"x": -1.0146189798,
				"y": -1.0492140231,
				"z": -1.4197780923,
				"element": "C" 
			},
			{
				"x": -0.0391670782,
				"y": -0.278542861,
				"z": -2.3158138641,
				"element": "C" 
			},
			{
				"x": 1.3453803856,
				"y": -0.1878206375,
				"z": -1.6353275351,
				"element": "C" 
			},
			{
				"x": 1.2104203995,
				"y": -0.1647996046,
				"z": -0.0952541247,
				"element": "C" 
			},
			{
				"x": -1.1405711333,
				"y": -0.2230681758,
				"z": 3.5601388116,
				"element": "C" 
			},
			{
				"x": -0.6679075967,
				"y": -1.3917886321,
				"z": 4.7755664443,
				"element": "S" 
			},
			{
				"x": 2.8902665084,
				"y": -1.8582981918,
				"z": 4.2793273275,
				"element": "H" 
			},
			{
				"x": 1.9401957723,
				"y": -2.3374458892,
				"z": 5.5966966311,
				"element": "H" 
			},
			{
				"x": -1.0293362974,
				"y": 1.6634279776,
				"z": 1.6714898942,
				"element": "H" 
			},
			{
				"x": 0.7352384088,
				"y": 1.7631747864,
				"z": 1.7099177293,
				"element": "H" 
			},
			{
				"x": -2.0798820322,
				"y": 0.3792886316,
				"z": -0.1634713654,
				"element": "H" 
			},
			{
				"x": -1.4862978955,
				"y": -1.0425849227,
				"z": 0.7042809363,
				"element": "H" 
			},
			{
				"x": -1.9816358913,
				"y": -1.1941060342,
				"z": -1.9138702768,
				"element": "H" 
			},
			{
				"x": -0.611815247,
				"y": -2.0524971077,
				"z": -1.2312804019,
				"element": "H" 
			},
			{
				"x": -0.4329320698,
				"y": 0.7297128263,
				"z": -2.4868459773,
				"element": "H" 
			},
			{
				"x": 0.0466078375,
				"y": -0.7564284668,
				"z": -3.2982504141,
				"element": "H" 
			},
			{
				"x": 1.8644425565,
				"y": 0.713200455,
				"z": -1.9803892458,
				"element": "H" 
			},
			{
				"x": 1.9687826481,
				"y": -1.043103658,
				"z": -1.9244230404,
				"element": "H" 
			},
			{
				"x": 1.2860490461,
				"y": -1.1870474285,
				"z": 0.314325608,
				"element": "H" 
			},
			{
				"x": 2.0341988298,
				"y": 0.3964335186,
				"z": 0.3556174349,
				"element": "H" 
			},
			{
				"x": -2.1542451737,
				"y": 0.1478410834,
				"z": 3.5152038131,
				"element": "H" 
			}
		],
		 "valence_orbital": [ 
			{
				"type": "occ",
				"energy": -0.29986,
				"method": "rhf"
			},
			{
				"type": "occ",
				"energy": -0.26952,
				"method": "rhf"
			},
			{
				"type": "occ",
				"energy": -0.26891,
				"method": "rhf"
			},
			{
				"type": "occ",
				"energy": -0.2082,
				"method": "rhf"
			},
			{
				"type": "occ",
				"energy": -0.19184,
				"method": "rhf"
			},
			{
				"type": "unocc",
				"energy": -0.00134,
				"method": "rhf"
			},
			{
				"type": "unocc",
				"energy": 0.01535,
				"method": "rhf"
			},
			{
				"type": "unocc",
				"energy": 0.0592,
				"method": "rhf"
			},
			{
				"type": "unocc",
				"energy": 0.07291,
				"method": "rhf"
			},
			{
				"type": "unocc",
				"energy": 0.09531,
				"method": "rhf"
			}
		],
		"cosmo_sigma_profile": { 
			"-0.025": 0.0,
			"-0.024": 0.0,
			"-0.023": 0.0,
			"-0.022": 0.0,
			"-0.021": 0.0,
			"-0.02": 0.0,
			"-0.019": 0.0,
			"-0.018": 0.0,
			"-0.017": 0.0,
			"-0.016": 0.0,
			"-0.015": 0.205016992455,
			"-0.014": 1.57055209616,
			"-0.013": 2.67719100251,
			"-0.012": 2.18740600029,
			"-0.011": 2.29033775455,
			"-0.01": 3.00338005215,
			"-0.009": 2.0914944172,
			"-0.008": 2.84641874916,
			"-0.007": 4.03804529502,
			"-0.006": 3.43798522685,
			"-0.005": 3.67296475336,
			"-0.004": 7.79548176038,
			"-0.003": 12.7321863245,
			"-0.002": 24.7262646426,
			"-0.001": 32.7245857275,
			"0.0": 34.5600020792,
			"0.001": 26.082295249,
			"0.002": 15.7893742389,
			"0.003": 14.4212513972,
			"0.004": 12.4214959562,
			"0.005": 9.4382992085,
			"0.006": 4.61882664264,
			"0.007": 3.9093984927,
			"0.008": 2.69453419083,
			"0.009": 2.66066099916,
			"0.01": 2.33675833136,
			"0.011": 1.96151881392,
			"0.012": 2.19728025314,
			"0.013": 1.10506349127,
			"0.014": 1.0653629811,
			"0.015": 0.197778496248,
			"0.016": 0.0,
			"0.017": 0.0,
			"0.018": 0.0,
			"0.019": 0.0,
			"0.02": 0.0,
			"0.021": 0.0,
			"0.022": 0.0,
			"0.023": 0.0,
			"0.024": 0.0,
			"0.025": 0.0
		}
	}
}
