{
	 "smiles": "CN1N(C(=O)C(NS(=O)(=O)C2=C(Cl)C(Cl)=CC(=C2)C(O)=O)=C1C)C1=CC=CC=C1", 
	 "Tm": 429.15, 
	 "num_atms": 44, 
	 "gaussian": { 
		 "optdone": 1, 
		 "sigma_profile": "yes", 
		 "theory": "DFT", 
		 "functional": "B3LYP", 
		 "basiset": "6-31G**", 
		 "properties": { 
			 "R2extent": 13927.7035, 
			 "electric_dipole_moment_norm": 8.26085801476, 
			 "electric_quadrupole_moment_norm": 31.8980984778, 
			 "total_energy": -2553.7993141, 
			 "HOMO_LUMO_gap": 0.14191, 
			 "cosmo_polarized_energy": -30.34, 
			 "cosmo_cavitation_energy": 53.45, 
			 "cosmo_dispersion_energy": -35.39, 
			 "cosmo_repulsion_energy": 2.61, 
			 "cosmo_total_nonelectrostatic_energy": 20.67, 
			 "SMD_solvation_energy": 9.19 
		},
		"coords": [
			{
				"x": -1.9822487131,
				"y": 0.1607194328,
				"z": 2.7949042191,
				"element": "C" 
			},
			{
				"x": -0.8541791869,
				"y": 0.9894191409,
				"z": 2.3431279756,
				"element": "N" 
			},
			{
				"x": -1.019295368,
				"y": 1.539000284,
				"z": 1.0507868299,
				"element": "N" 
			},
			{
				"x": 0.1958512834,
				"y": 1.4572955055,
				"z": 0.3389549448,
				"element": "C" 
			},
			{
				"x": 0.4221881139,
				"y": 1.9326164005,
				"z": -0.7687937085,
				"element": "O" 
			},
			{
				"x": 1.0926260448,
				"y": 0.7513482768,
				"z": 1.242415072,
				"element": "C" 
			},
			{
				"x": 2.4474722498,
				"y": 0.5180983523,
				"z": 0.9373232657,
				"element": "N" 
			},
			{
				"x": 2.977288746,
				"y": -1.0017459613,
				"z": 0.3901276989,
				"element": "S" 
			},
			{
				"x": 4.4014769115,
				"y": -0.816928739,
				"z": 0.1243939143,
				"element": "O" 
			},
			{
				"x": 2.4863215955,
				"y": -1.999269823,
				"z": 1.3330681773,
				"element": "O" 
			},
			{
				"x": 2.2028676456,
				"y": -1.2741826901,
				"z": -1.2474304061,
				"element": "C" 
			},
			{
				"x": 0.9142251024,
				"y": -1.8025557439,
				"z": -1.4626767074,
				"element": "C" 
			},
			{
				"x": -0.1091139005,
				"y": -2.3473857893,
				"z": -0.1702480327,
				"element": "Cl" 
			},
			{
				"x": 0.4498978076,
				"y": -1.9161207311,
				"z": -2.7859337328,
				"element": "C" 
			},
			{
				"x": -1.1188720416,
				"y": -2.5914273864,
				"z": -3.1425256994,
				"element": "Cl" 
			},
			{
				"x": 1.2357441427,
				"y": -1.4968397283,
				"z": -3.8577933295,
				"element": "C" 
			},
			{
				"x": 2.5093790348,
				"y": -0.9724690918,
				"z": -3.6346670112,
				"element": "C" 
			},
			{
				"x": 2.9934358561,
				"y": -0.8872641094,
				"z": -2.3277155356,
				"element": "C" 
			},
			{
				"x": 3.4167923083,
				"y": -0.5336674733,
				"z": -4.7496232329,
				"element": "C" 
			},
			{
				"x": 2.8196099509,
				"y": -0.17707478,
				"z": -5.915701196,
				"element": "O" 
			},
			{
				"x": 4.6172553023,
				"y": -0.4985420832,
				"z": -4.6387448327,
				"element": "O" 
			},
			{
				"x": 0.4335957759,
				"y": 0.4724191326,
				"z": 2.4040881794,
				"element": "C" 
			},
			{
				"x": 0.9144692481,
				"y": -0.2784517141,
				"z": 3.5988749087,
				"element": "C" 
			},
			{
				"x": -2.0122445187,
				"y": 2.532132347,
				"z": 0.8357881362,
				"element": "C" 
			},
			{
				"x": -2.4675303691,
				"y": 2.7587421317,
				"z": -0.4698990362,
				"element": "C" 
			},
			{
				"x": -3.434426891,
				"y": 3.7363448881,
				"z": -0.6969393661,
				"element": "C" 
			},
			{
				"x": -3.9670685485,
				"y": 4.4738939481,
				"z": 0.3627754909,
				"element": "C" 
			},
			{
				"x": -3.5103923769,
				"y": 4.2401039109,
				"z": 1.6604655642,
				"element": "C" 
			},
			{
				"x": -2.5272561401,
				"y": 3.2806655969,
				"z": 1.9024837225,
				"element": "C" 
			},
			{
				"x": -2.8917448482,
				"y": 0.7618027535,
				"z": 2.7873529254,
				"element": "H" 
			},
			{
				"x": -2.1202098662,
				"y": -0.716449608,
				"z": 2.1513973719,
				"element": "H" 
			},
			{
				"x": -1.78530265,
				"y": -0.1593456748,
				"z": 3.8186180087,
				"element": "H" 
			},
			{
				"x": 2.8542670921,
				"y": 1.2427186209,
				"z": 0.3471426413,
				"element": "H" 
			},
			{
				"x": 0.8443187853,
				"y": -1.6310233358,
				"z": -4.86092047,
				"element": "H" 
			},
			{
				"x": 3.9992158629,
				"y": -0.5218111718,
				"z": -2.1576739548,
				"element": "H" 
			},
			{
				"x": 1.8675547856,
				"y": -0.0588805483,
				"z": -5.7916889882,
				"element": "H" 
			},
			{
				"x": 0.5775994039,
				"y": 0.1971177337,
				"z": 4.5247225357,
				"element": "H" 
			},
			{
				"x": 2.0048820909,
				"y": -0.3114553848,
				"z": 3.5826612476,
				"element": "H" 
			},
			{
				"x": 0.5633102128,
				"y": -1.316000734,
				"z": 3.5896831878,
				"element": "H" 
			},
			{
				"x": -2.0489755548,
				"y": 2.1854182143,
				"z": -1.2868367032,
				"element": "H" 
			},
			{
				"x": -3.779730168,
				"y": 3.9143576402,
				"z": -1.7111100019,
				"element": "H" 
			},
			{
				"x": -4.7280830658,
				"y": 5.2258678648,
				"z": 0.1781419337,
				"element": "H" 
			},
			{
				"x": -3.9081051099,
				"y": 4.8153776975,
				"z": 2.4914870747,
				"element": "H" 
			},
			{
				"x": -2.1431660358,
				"y": 3.1228324288,
				"z": 2.9043369188,
				"element": "H" 
			}
		],
		 "valence_orbital": [ 
			{
				"type": "occ",
				"energy": -0.27362,
				"method": "rhf"
			},
			{
				"type": "occ",
				"energy": -0.26665,
				"method": "rhf"
			},
			{
				"type": "occ",
				"energy": -0.25806,
				"method": "rhf"
			},
			{
				"type": "occ",
				"energy": -0.24423,
				"method": "rhf"
			},
			{
				"type": "occ",
				"energy": -0.22323,
				"method": "rhf"
			},
			{
				"type": "unocc",
				"energy": -0.08132,
				"method": "rhf"
			},
			{
				"type": "unocc",
				"energy": -0.06104,
				"method": "rhf"
			},
			{
				"type": "unocc",
				"energy": -0.03919,
				"method": "rhf"
			},
			{
				"type": "unocc",
				"energy": -0.02586,
				"method": "rhf"
			},
			{
				"type": "unocc",
				"energy": -0.01314,
				"method": "rhf"
			}
		],
		"cosmo_sigma_profile": { 
			"-0.025": 0.0,
			"-0.024": 0.0,
			"-0.023": 0.0,
			"-0.022": 0.0,
			"-0.021": 0.0,
			"-0.02": 0.431677584348,
			"-0.019": 0.908807605595,
			"-0.018": 1.00359740558,
			"-0.017": 1.74221837586,
			"-0.016": 1.30144469289,
			"-0.015": 1.56171141015,
			"-0.014": 1.97773239633,
			"-0.013": 1.95262003758,
			"-0.012": 2.5568656657,
			"-0.011": 2.59478900095,
			"-0.01": 2.20943857455,
			"-0.009": 2.4396841859,
			"-0.008": 3.65817225883,
			"-0.007": 7.40198105787,
			"-0.006": 19.8405906947,
			"-0.005": 26.9082064783,
			"-0.004": 34.3782515524,
			"-0.003": 37.1071864129,
			"-0.002": 37.6773130323,
			"-0.001": 31.1273410746,
			"0.0": 26.8371976686,
			"0.001": 24.7966385997,
			"0.002": 26.5926609901,
			"0.003": 28.0738915477,
			"0.004": 19.0534636534,
			"0.005": 19.0130285373,
			"0.006": 9.06826941341,
			"0.007": 7.27257648017,
			"0.008": 9.49965044177,
			"0.009": 11.2834444123,
			"0.01": 14.8228030526,
			"0.011": 8.14079467536,
			"0.012": 3.89029622016,
			"0.013": 3.72517349308,
			"0.014": 1.21711958117,
			"0.015": 0.0,
			"0.016": 0.0,
			"0.017": 0.0,
			"0.018": 0.0,
			"0.019": 0.0,
			"0.02": 0.0,
			"0.021": 0.0,
			"0.022": 0.0,
			"0.023": 0.0,
			"0.024": 0.0,
			"0.0": 0.0
		}
	}
}
