{
	 "smiles": "CN1CCCCCC1=NS(=O)(=O)C1=CC(N)=CC=C1", 
	 "Tm": 446.15, 
	 "num_atms": 38, 
	 "gaussian": { 
		 "optdone": 1, 
		 "sigma_profile": "yes", 
		 "theory": "DFT", 
		 "functional": "B3LYP", 
		 "basiset": "6-31G**", 
		 "properties": { 
			 "R2extent": 6206.5057, 
			 "electric_dipole_moment_norm": 9.69663348023, 
			 "electric_quadrupole_moment_norm": 30.1175942899, 
			 "total_energy": -1219.64402506, 
			 "HOMO_LUMO_gap": 0.18787, 
			 "cosmo_polarized_energy": -27.63, 
			 "cosmo_cavitation_energy": 39.5, 
			 "cosmo_dispersion_energy": -28.21, 
			 "cosmo_repulsion_energy": 2.16, 
			 "cosmo_total_nonelectrostatic_energy": 13.45, 
			 "SMD_solvation_energy": 4.44 
		},
		"coords": [
			{
				"x": 0.4567420059,
				"y": -1.6993930114,
				"z": -0.284987407,
				"element": "C" 
			},
			{
				"x": 0.2211028883,
				"y": -0.4762183372,
				"z": -1.058421014,
				"element": "N" 
			},
			{
				"x": 1.2684966612,
				"y": -0.1854178339,
				"z": -2.0536885201,
				"element": "C" 
			},
			{
				"x": 0.9462734457,
				"y": -0.7346434029,
				"z": -3.4595133289,
				"element": "C" 
			},
			{
				"x": -0.5403597211,
				"y": -0.6065449018,
				"z": -3.8225504205,
				"element": "C" 
			},
			{
				"x": -1.1556175315,
				"y": 0.7804735578,
				"z": -3.577371,
				"element": "C" 
			},
			{
				"x": -1.0313051662,
				"y": 1.3340179469,
				"z": -2.127717333,
				"element": "C" 
			},
			{
				"x": -0.9141295015,
				"y": 0.2758654613,
				"z": -1.0278766093,
				"element": "C" 
			},
			{
				"x": -1.9424150685,
				"y": 0.2803678954,
				"z": -0.2185370438,
				"element": "N" 
			},
			{
				"x": -2.3282400567,
				"y": -0.5174317995,
				"z": 1.1914323506,
				"element": "S" 
			},
			{
				"x": -2.2890932328,
				"y": -1.9894307794,
				"z": 1.055043744,
				"element": "O" 
			},
			{
				"x": -3.5776848362,
				"y": 0.1033641722,
				"z": 1.631573308,
				"element": "O" 
			},
			{
				"x": -1.0473164597,
				"y": -0.0347995762,
				"z": 2.3687260575,
				"element": "C" 
			},
			{
				"x": -0.8352114948,
				"y": 1.3231437679,
				"z": 2.6018029412,
				"element": "C" 
			},
			{
				"x": 0.1236461275,
				"y": 1.7261928386,
				"z": 3.5449329511,
				"element": "C" 
			},
			{
				"x": 0.3138621749,
				"y": 3.0748074891,
				"z": 3.8330027384,
				"element": "N" 
			},
			{
				"x": 0.8440712244,
				"y": 0.7346517037,
				"z": 4.2389687306,
				"element": "C" 
			},
			{
				"x": 0.6036494427,
				"y": -0.6151738614,
				"z": 4.0011345898,
				"element": "C" 
			},
			{
				"x": -0.3477621338,
				"y": -1.0219868342,
				"z": 3.0619526246,
				"element": "C" 
			},
			{
				"x": 0.8719747809,
				"y": -2.4585756037,
				"z": -0.9557662191,
				"element": "H" 
			},
			{
				"x": 1.1740819083,
				"y": -1.5176305788,
				"z": 0.522562902,
				"element": "H" 
			},
			{
				"x": -0.4709750716,
				"y": -2.0826503125,
				"z": 0.1325715801,
				"element": "H" 
			},
			{
				"x": 2.197327565,
				"y": -0.6207940458,
				"z": -1.6754066564,
				"element": "H" 
			},
			{
				"x": 1.4369814379,
				"y": 0.8918413828,
				"z": -2.0968641571,
				"element": "H" 
			},
			{
				"x": 1.5708353626,
				"y": -0.1961944437,
				"z": -4.1834692213,
				"element": "H" 
			},
			{
				"x": 1.2369713054,
				"y": -1.7899329532,
				"z": -3.5250691014,
				"element": "H" 
			},
			{
				"x": -1.1083839762,
				"y": -1.3480662336,
				"z": -3.2486669215,
				"element": "H" 
			},
			{
				"x": -0.6767185816,
				"y": -0.8754101834,
				"z": -4.8762510344,
				"element": "H" 
			},
			{
				"x": -0.7160746972,
				"y": 1.5114597812,
				"z": -4.2670397032,
				"element": "H" 
			},
			{
				"x": -2.2193170233,
				"y": 0.721227555,
				"z": -3.8300933511,
				"element": "H" 
			},
			{
				"x": -1.9150341121,
				"y": 1.920193829,
				"z": -1.879330046,
				"element": "H" 
			},
			{
				"x": -0.1754547169,
				"y": 2.0142020769,
				"z": -2.0531581161,
				"element": "H" 
			},
			{
				"x": -1.4215309036,
				"y": 2.0635616945,
				"z": 2.0659463966,
				"element": "H" 
			},
			{
				"x": 1.2084211,
				"y": 3.3208953366,
				"z": 4.2315734326,
				"element": "H" 
			},
			{
				"x": 0.0096005921,
				"y": 3.7260812307,
				"z": 3.1238115664,
				"element": "H" 
			},
			{
				"x": 1.5834755459,
				"y": 1.0333541348,
				"z": 4.9779775351,
				"element": "H" 
			},
			{
				"x": 1.1632968996,
				"y": -1.361192562,
				"z": 4.5583820211,
				"element": "H" 
			},
			{
				"x": -0.556386183,
				"y": -2.0680145998,
				"z": 2.8720817346,
				"element": "H" 
			}
		],
		 "valence_orbital": [ 
			{
				"type": "occ",
				"energy": -0.27284,
				"method": "rhf"
			},
			{
				"type": "occ",
				"energy": -0.25837,
				"method": "rhf"
			},
			{
				"type": "occ",
				"energy": -0.2432,
				"method": "rhf"
			},
			{
				"type": "occ",
				"energy": -0.23351,
				"method": "rhf"
			},
			{
				"type": "occ",
				"energy": -0.21158,
				"method": "rhf"
			},
			{
				"type": "unocc",
				"energy": -0.02371,
				"method": "rhf"
			},
			{
				"type": "unocc",
				"energy": -0.00623,
				"method": "rhf"
			},
			{
				"type": "unocc",
				"energy": 0.00835,
				"method": "rhf"
			},
			{
				"type": "unocc",
				"energy": 0.0586,
				"method": "rhf"
			},
			{
				"type": "unocc",
				"energy": 0.07283,
				"method": "rhf"
			}
		],
		"cosmo_sigma_profile": { 
			"-0.025": 0.0,
			"-0.024": 0.0,
			"-0.023": 0.0,
			"-0.022": 0.0,
			"-0.021": 0.0,
			"-0.02": 0.0,
			"-0.019": 0.0,
			"-0.018": 0.0,
			"-0.017": 0.0,
			"-0.016": 0.0,
			"-0.015": 0.0,
			"-0.014": 0.0,
			"-0.013": 1.54894816936,
			"-0.012": 3.01149163297,
			"-0.011": 3.11733887174,
			"-0.01": 3.13218243432,
			"-0.009": 3.22676235905,
			"-0.008": 4.48783225018,
			"-0.007": 5.77855457546,
			"-0.006": 14.0967447792,
			"-0.005": 18.5302762302,
			"-0.004": 24.2653702109,
			"-0.003": 35.917036349,
			"-0.002": 34.4008590184,
			"-0.001": 28.4929754342,
			"0.0": 21.9516959234,
			"0.001": 13.0359556894,
			"0.002": 11.0371540582,
			"0.003": 10.4067617075,
			"0.004": 13.0271830349,
			"0.005": 10.2277941175,
			"0.006": 4.21876171514,
			"0.007": 3.9257931055,
			"0.008": 4.37701954392,
			"0.009": 3.79530059442,
			"0.01": 5.31758114353,
			"0.011": 6.64991325491,
			"0.012": 9.9719822717,
			"0.013": 8.12295077117,
			"0.014": 2.23025439988,
			"0.015": 1.21419149872,
			"0.016": 0.799850870959,
			"0.017": 0.030864227251,
			"0.018": 0.0,
			"0.019": 0.0,
			"0.02": 0.0,
			"0.021": 0.0,
			"0.022": 0.0,
			"0.023": 0.0,
			"0.024": 0.0,
			"0.025": 0.0
		}
	}
}
