{
	 "smiles": "FC1=C(CBr)C=CC(=C1)C(F)(F)F", 
	 "Tm": 302.15, 
	 "num_atms": 18, 
	 "gaussian": { 
		 "optdone": 1, 
		 "sigma_profile": "yes", 
		 "theory": "DFT", 
		 "functional": "B3LYP", 
		 "basiset": "6-31G**", 
		 "properties": { 
			 "R2extent": 4859.0643, 
			 "electric_dipole_moment_norm": 2.0549894063, 
			 "electric_quadrupole_moment_norm": 10.7798428611, 
			 "total_energy": -3278.63597823, 
			 "HOMO_LUMO_gap": 0.2044, 
			 "cosmo_polarized_energy": -6.3, 
			 "cosmo_cavitation_energy": 26.81, 
			 "cosmo_dispersion_energy": -19.07, 
			 "cosmo_repulsion_energy": 1.44, 
			 "cosmo_total_nonelectrostatic_energy": 9.18, 
			 "SMD_solvation_energy": 4.96 
		},
		"coords": [
			{
				"x": 1.751883664,
				"y": 2.3844559383,
				"z": 0.1760241128,
				"element": "F" 
			},
			{
				"x": 0.8597810608,
				"y": 1.4061985373,
				"z": 0.4268489085,
				"element": "C" 
			},
			{
				"x": 1.0135033408,
				"y": 0.1776039089,
				"z": -0.2236209305,
				"element": "C" 
			},
			{
				"x": 2.1413264767,
				"y": -0.0414115309,
				"z": -1.1745787223,
				"element": "C" 
			},
			{
				"x": 3.768766496,
				"y": -0.7501866222,
				"z": -0.2504681889,
				"element": "Br" 
			},
			{
				"x": 0.0712186655,
				"y": -0.8208061133,
				"z": 0.0575354761,
				"element": "C" 
			},
			{
				"x": -0.9785600657,
				"y": -0.5948051774,
				"z": 0.9433390692,
				"element": "C" 
			},
			{
				"x": -1.0993213612,
				"y": 0.6490135664,
				"z": 1.5699678296,
				"element": "C" 
			},
			{
				"x": -0.175936574,
				"y": 1.6636322913,
				"z": 1.3127316911,
				"element": "C" 
			},
			{
				"x": -2.2679041413,
				"y": 0.9201285467,
				"z": 2.4817521057,
				"element": "C" 
			},
			{
				"x": -2.6542345698,
				"y": -0.1928691934,
				"z": 3.1409428205,
				"element": "F" 
			},
			{
				"x": -3.3419516186,
				"y": 1.3605716172,
				"z": 1.787528679,
				"element": "F" 
			},
			{
				"x": -1.978128293,
				"y": 1.8636929145,
				"z": 3.4025519519,
				"element": "F" 
			},
			{
				"x": 2.4744314178,
				"y": 0.8811202778,
				"z": -1.6429329081,
				"element": "H" 
			},
			{
				"x": 1.9050198776,
				"y": -0.7900144467,
				"z": -1.9277001708,
				"element": "H" 
			},
			{
				"x": 0.1724331488,
				"y": -1.7890822796,
				"z": -0.4240832437,
				"element": "H" 
			},
			{
				"x": -1.6960615896,
				"y": -1.3790564694,
				"z": 1.1556537991,
				"element": "H" 
			},
			{
				"x": -0.2465659349,
				"y": 2.6327142343,
				"z": 1.7917077207,
				"element": "H" 
			}
		],
		 "valence_orbital": [ 
			{
				"type": "occ",
				"energy": -0.3665,
				"method": "rhf"
			},
			{
				"type": "occ",
				"energy": -0.28848,
				"method": "rhf"
			},
			{
				"type": "occ",
				"energy": -0.27977,
				"method": "rhf"
			},
			{
				"type": "occ",
				"energy": -0.27568,
				"method": "rhf"
			},
			{
				"type": "occ",
				"energy": -0.2662,
				"method": "rhf"
			},
			{
				"type": "unocc",
				"energy": -0.0618,
				"method": "rhf"
			},
			{
				"type": "unocc",
				"energy": -0.02613,
				"method": "rhf"
			},
			{
				"type": "unocc",
				"energy": 0.00699,
				"method": "rhf"
			},
			{
				"type": "unocc",
				"energy": 0.08067,
				"method": "rhf"
			},
			{
				"type": "unocc",
				"energy": 0.09124,
				"method": "rhf"
			}
		],
		"cosmo_sigma_profile": { 
			"-0.025": 0.0,
			"-0.024": 0.0,
			"-0.023": 0.0,
			"-0.022": 0.0,
			"-0.021": 0.0,
			"-0.02": 0.0,
			"-0.019": 0.0,
			"-0.018": 0.0,
			"-0.017": 0.0,
			"-0.016": 0.0,
			"-0.015": 0.0,
			"-0.014": 0.0,
			"-0.013": 0.0,
			"-0.012": 0.0,
			"-0.011": 0.0,
			"-0.01": 0.0,
			"-0.009": 1.34320574934,
			"-0.008": 7.76087304471,
			"-0.007": 8.71267326715,
			"-0.006": 9.37966584334,
			"-0.005": 10.4092803538,
			"-0.004": 7.95087001854,
			"-0.003": 8.55623155041,
			"-0.002": 10.8443112232,
			"-0.001": 15.0853567489,
			"0.0": 20.6953598609,
			"0.001": 22.4274726724,
			"0.002": 32.2143966353,
			"0.003": 34.6857464053,
			"0.004": 10.3034761088,
			"0.005": 7.95289446266,
			"0.006": 10.0224474023,
			"0.007": 0.384228907948,
			"0.008": 0.0,
			"0.009": 0.0,
			"0.01": 0.0,
			"0.011": 0.0,
			"0.012": 0.0,
			"0.013": 0.0,
			"0.014": 0.0,
			"0.015": 0.0,
			"0.016": 0.0,
			"0.017": 0.0,
			"0.018": 0.0,
			"0.019": 0.0,
			"0.02": 0.0,
			"0.021": 0.0,
			"0.022": 0.0,
			"0.023": 0.0,
			"0.024": 0.0,
			"0.025": 0.0
		}
	}
}
