{
	 "smiles": "S(C1=CC=CC=C1)C1=CC=CC=C1", 
	 "Tm": 233.15, 
	 "num_atms": 23, 
	 "gaussian": { 
		 "optdone": 1, 
		 "sigma_profile": "yes", 
		 "theory": "DFT", 
		 "functional": "B3LYP", 
		 "basiset": "6-31G**", 
		 "properties": { 
			 "R2extent": 3775.3061, 
			 "electric_dipole_moment_norm": 1.61794474875, 
			 "electric_quadrupole_moment_norm": 8.80214630133, 
			 "total_energy": -861.488185216, 
			 "HOMO_LUMO_gap": 0.19049, 
			 "cosmo_polarized_energy": -5.82, 
			 "cosmo_cavitation_energy": 28.49, 
			 "cosmo_dispersion_energy": -20.96, 
			 "cosmo_repulsion_energy": 1.61, 
			 "cosmo_total_nonelectrostatic_energy": 9.15, 
			 "SMD_solvation_energy": 4.36 
		},
		"coords": [
			{
				"x": 1.0552149476,
				"y": -2.5715508568,
				"z": 1.150014939,
				"element": "S" 
			},
			{
				"x": 0.3653186654,
				"y": -2.1667722691,
				"z": -0.4555598065,
				"element": "C" 
			},
			{
				"x": -0.636445594,
				"y": -2.9991813198,
				"z": -0.9707191353,
				"element": "C" 
			},
			{
				"x": -1.1418090729,
				"y": -2.7741970868,
				"z": -2.2529273279,
				"element": "C" 
			},
			{
				"x": -0.6689309347,
				"y": -1.7080152621,
				"z": -3.0183573912,
				"element": "C" 
			},
			{
				"x": 0.3238063596,
				"y": -0.871777219,
				"z": -2.4999479958,
				"element": "C" 
			},
			{
				"x": 0.8508956373,
				"y": -1.1038235037,
				"z": -1.2305164406,
				"element": "C" 
			},
			{
				"x": 1.1793427162,
				"y": -0.9809681482,
				"z": 1.9699457083,
				"element": "C" 
			},
			{
				"x": 2.3438520394,
				"y": -0.7035863876,
				"z": 2.6971127709,
				"element": "C" 
			},
			{
				"x": 2.4489087472,
				"y": 0.4850626326,
				"z": 3.4225103854,
				"element": "C" 
			},
			{
				"x": 1.4059546648,
				"y": 1.4114978002,
				"z": 3.4095400618,
				"element": "C" 
			},
			{
				"x": 0.2480039894,
				"y": 1.1386077862,
				"z": 2.6758423435,
				"element": "C" 
			},
			{
				"x": 0.1251963884,
				"y": -0.0562939295,
				"z": 1.96857648,
				"element": "C" 
			},
			{
				"x": -1.0206733629,
				"y": -3.8148883947,
				"z": -0.3658766215,
				"element": "H" 
			},
			{
				"x": -1.9170974111,
				"y": -3.4263556835,
				"z": -2.6450196868,
				"element": "H" 
			},
			{
				"x": -1.0702697649,
				"y": -1.527763212,
				"z": -4.0112374124,
				"element": "H" 
			},
			{
				"x": 0.7002374202,
				"y": -0.042071806,
				"z": -3.0917860308,
				"element": "H" 
			},
			{
				"x": 1.6325358957,
				"y": -0.4619720687,
				"z": -0.8373553276,
				"element": "H" 
			},
			{
				"x": 3.1645493495,
				"y": -1.4143595073,
				"z": 2.6883696616,
				"element": "H" 
			},
			{
				"x": 3.3550075576,
				"y": 0.6906899259,
				"z": 3.9853741638,
				"element": "H" 
			},
			{
				"x": 1.4931139641,
				"y": 2.3402652901,
				"z": 3.9655755908,
				"element": "H" 
			},
			{
				"x": -0.5702054288,
				"y": 1.853298547,
				"z": 2.6645177212,
				"element": "H" 
			},
			{
				"x": -0.7814067731,
				"y": -0.2719453272,
				"z": 1.4126233501,
				"element": "H" 
			}
		],
		 "valence_orbital": [ 
			{
				"type": "occ",
				"energy": -0.28582,
				"method": "rhf"
			},
			{
				"type": "occ",
				"energy": -0.2594,
				"method": "rhf"
			},
			{
				"type": "occ",
				"energy": -0.25515,
				"method": "rhf"
			},
			{
				"type": "occ",
				"energy": -0.25273,
				"method": "rhf"
			},
			{
				"type": "occ",
				"energy": -0.20857,
				"method": "rhf"
			},
			{
				"type": "unocc",
				"energy": -0.01808,
				"method": "rhf"
			},
			{
				"type": "unocc",
				"energy": -0.01178,
				"method": "rhf"
			},
			{
				"type": "unocc",
				"energy": -0.01009,
				"method": "rhf"
			},
			{
				"type": "unocc",
				"energy": 0.00127,
				"method": "rhf"
			},
			{
				"type": "unocc",
				"energy": 0.05503,
				"method": "rhf"
			}
		],
		"cosmo_sigma_profile": { 
			"-0.025": 0.0,
			"-0.024": 0.0,
			"-0.023": 0.0,
			"-0.022": 0.0,
			"-0.021": 0.0,
			"-0.02": 0.0,
			"-0.019": 0.0,
			"-0.018": 0.0,
			"-0.017": 0.0,
			"-0.016": 0.0,
			"-0.015": 0.0,
			"-0.014": 0.0,
			"-0.013": 0.0,
			"-0.012": 0.0,
			"-0.011": 0.0,
			"-0.01": 0.0,
			"-0.009": 0.0,
			"-0.008": 0.0,
			"-0.007": 0.578554180085,
			"-0.006": 15.1137795771,
			"-0.005": 19.8129992801,
			"-0.004": 23.1855768235,
			"-0.003": 17.1324234103,
			"-0.002": 15.7093362259,
			"-0.001": 13.2404277983,
			"0.0": 16.140331707,
			"0.001": 15.7111647304,
			"0.002": 18.574223323,
			"0.003": 20.7827097503,
			"0.004": 23.2885101088,
			"0.005": 22.1223880808,
			"0.006": 4.79742459981,
			"0.007": 2.19046949798,
			"0.008": 2.15372310356,
			"0.009": 0.121167611116,
			"0.01": 0.0,
			"0.011": 0.0,
			"0.012": 0.0,
			"0.013": 0.0,
			"0.014": 0.0,
			"0.015": 0.0,
			"0.016": 0.0,
			"0.017": 0.0,
			"0.018": 0.0,
			"0.019": 0.0,
			"0.02": 0.0,
			"0.021": 0.0,
			"0.022": 0.0,
			"0.023": 0.0,
			"0.024": 0.0,
			"0.025": 0.0
		}
	}
}
