{
	 "smiles": "OC(=O)CC1CCSCC1", 
	 "Tm": 343.15, 
	 "num_atms": 22, 
	 "gaussian": { 
		 "optdone": 1, 
		 "sigma_profile": "yes", 
		 "theory": "DFT", 
		 "functional": "B3LYP", 
		 "basiset": "6-31G**", 
		 "properties": { 
			 "R2extent": 3400.31, 
			 "electric_dipole_moment_norm": 3.0457334716, 
			 "electric_quadrupole_moment_norm": 24.2900158617, 
			 "total_energy": -822.623176783, 
			 "HOMO_LUMO_gap": 0.21866, 
			 "cosmo_polarized_energy": -15.91, 
			 "cosmo_cavitation_energy": 24.89, 
			 "cosmo_dispersion_energy": -18.78, 
			 "cosmo_repulsion_energy": 1.47, 
			 "cosmo_total_nonelectrostatic_energy": 7.58, 
			 "SMD_solvation_energy": 4.15 
		},
		"coords": [
			{
				"x": 2.1810546234,
				"y": 1.0021581001,
				"z": 3.6863721704,
				"element": "O" 
			},
			{
				"x": 0.8730515287,
				"y": 1.3733394435,
				"z": 3.7915713749,
				"element": "C" 
			},
			{
				"x": 0.1204281936,
				"y": 0.7222803958,
				"z": 4.4731917549,
				"element": "O" 
			},
			{
				"x": 0.4418424916,
				"y": 2.5904159478,
				"z": 2.9813694244,
				"element": "C" 
			},
			{
				"x": -0.2741157672,
				"y": 2.2205942098,
				"z": 1.6571533084,
				"element": "C" 
			},
			{
				"x": 0.6918514524,
				"y": 1.5546009708,
				"z": 0.6424501929,
				"element": "C" 
			},
			{
				"x": -0.0194694261,
				"y": 0.6903765258,
				"z": -0.4142857847,
				"element": "C" 
			},
			{
				"x": -1.6086829959,
				"y": 1.4138035556,
				"z": -0.9726154757,
				"element": "S" 
			},
			{
				"x": -2.4849541363,
				"y": 1.4143074894,
				"z": 0.6610288021,
				"element": "C" 
			},
			{
				"x": -1.5364032582,
				"y": 1.3652594647,
				"z": 1.8724932202,
				"element": "C" 
			},
			{
				"x": 2.6608311525,
				"y": 1.6299818623,
				"z": 3.1291492962,
				"element": "H" 
			},
			{
				"x": -0.2462347333,
				"y": 3.1590647983,
				"z": 3.6135877007,
				"element": "H" 
			},
			{
				"x": 1.2976264392,
				"y": 3.2417522863,
				"z": 2.7603406296,
				"element": "H" 
			},
			{
				"x": -0.6028336325,
				"y": 3.173950856,
				"z": 1.2248652425,
				"element": "H" 
			},
			{
				"x": 1.4024618212,
				"y": 0.9054023511,
				"z": 1.1720747133,
				"element": "H" 
			},
			{
				"x": 1.2798210497,
				"y": 2.3355367015,
				"z": 0.1461466645,
				"element": "H" 
			},
			{
				"x": 0.5944189679,
				"y": 0.5850275655,
				"z": -1.3124494755,
				"element": "H" 
			},
			{
				"x": -0.2065106278,
				"y": -0.3185768103,
				"z": -0.0354240508,
				"element": "H" 
			},
			{
				"x": -3.0686748863,
				"y": 2.3396962687,
				"z": 0.673040482,
				"element": "H" 
			},
			{
				"x": -3.1866957937,
				"y": 0.5762841655,
				"z": 0.691726748,
				"element": "H" 
			},
			{
				"x": -1.2532257749,
				"y": 0.3312153614,
				"z": 2.094615864,
				"element": "H" 
			},
			{
				"x": -2.0854866883,
				"y": 1.7137284905,
				"z": 2.7542971977,
				"element": "H" 
			}
		],
		 "valence_orbital": [ 
			{
				"type": "occ",
				"energy": -0.31914,
				"method": "rhf"
			},
			{
				"type": "occ",
				"energy": -0.31623,
				"method": "rhf"
			},
			{
				"type": "occ",
				"energy": -0.29964,
				"method": "rhf"
			},
			{
				"type": "occ",
				"energy": -0.27167,
				"method": "rhf"
			},
			{
				"type": "occ",
				"energy": -0.21836,
				"method": "rhf"
			},
			{
				"type": "unocc",
				"energy": 0.0003,
				"method": "rhf"
			},
			{
				"type": "unocc",
				"energy": 0.03672,
				"method": "rhf"
			},
			{
				"type": "unocc",
				"energy": 0.04664,
				"method": "rhf"
			},
			{
				"type": "unocc",
				"energy": 0.07418,
				"method": "rhf"
			},
			{
				"type": "unocc",
				"energy": 0.08694,
				"method": "rhf"
			}
		],
		"cosmo_sigma_profile": { 
			"-0.025": 0.0,
			"-0.024": 0.0,
			"-0.023": 0.0,
			"-0.022": 0.0,
			"-0.021": 0.0,
			"-0.02": 0.0,
			"-0.019": 0.0759103220247,
			"-0.018": 0.842592557892,
			"-0.017": 1.01725077409,
			"-0.016": 1.2071697979,
			"-0.015": 0.790380146798,
			"-0.014": 1.40288526051,
			"-0.013": 0.506536730605,
			"-0.012": 1.58498605142,
			"-0.011": 1.40904809003,
			"-0.01": 0.969347343018,
			"-0.009": 1.2635256865,
			"-0.008": 0.834514658544,
			"-0.007": 1.82476123611,
			"-0.006": 3.9054825628,
			"-0.005": 11.576201551,
			"-0.004": 23.769231371,
			"-0.003": 31.078669942,
			"-0.002": 20.6307716004,
			"-0.001": 13.1173887827,
			"0.0": 7.87742299575,
			"0.001": 5.84461890433,
			"0.002": 4.73246423401,
			"0.003": 4.49558576531,
			"0.004": 5.3421864998,
			"0.005": 4.96969932987,
			"0.006": 6.08570200143,
			"0.007": 5.55741276845,
			"0.008": 4.70534439048,
			"0.009": 6.1757457751,
			"0.01": 6.05912277987,
			"0.011": 6.7168807082,
			"0.012": 6.2393592593,
			"0.013": 2.4901684826,
			"0.014": 0.201182561235,
			"0.015": 0.0,
			"0.016": 0.0,
			"0.017": 0.0,
			"0.018": 0.0,
			"0.019": 0.0,
			"0.02": 0.0,
			"0.021": 0.0,
			"0.022": 0.0,
			"0.023": 0.0,
			"0.024": 0.0,
			"0.025": 0.0
		}
	}
}
