{
	 "smiles": "COC1=CC=C(C=C1)N=NC1=C2NC(=O)C=C(N2N=C1N)C1=CC=CC=C1", 
	 "Tm": 551.15, 
	 "num_atms": 43, 
	 "gaussian": { 
		 "optdone": 1, 
		 "sigma_profile": "yes", 
		 "theory": "DFT", 
		 "functional": "B3LYP", 
		 "basiset": "6-31G**", 
		 "properties": { 
			 "R2extent": 11510.4353, 
			 "electric_dipole_moment_norm": 3.39781463444, 
			 "electric_quadrupole_moment_norm": 18.2242386793, 
			 "total_energy": -1212.54708704, 
			 "HOMO_LUMO_gap": 0.13237, 
			 "cosmo_polarized_energy": -21.67, 
			 "cosmo_cavitation_energy": 47.72, 
			 "cosmo_dispersion_energy": -33.15, 
			 "cosmo_repulsion_energy": 2.5, 
			 "cosmo_total_nonelectrostatic_energy": 17.06, 
			 "SMD_solvation_energy": 6.69 
		},
		"coords": [
			{
				"x": -1.9005145914,
				"y": 5.5418347411,
				"z": 1.3976767263,
				"element": "C" 
			},
			{
				"x": -1.2842171763,
				"y": 5.3538946108,
				"z": 0.1320325748,
				"element": "O" 
			},
			{
				"x": -1.4659510059,
				"y": 4.1666232526,
				"z": -0.506051802,
				"element": "C" 
			},
			{
				"x": -0.7917658155,
				"y": 4.0237894526,
				"z": -1.7315149167,
				"element": "C" 
			},
			{
				"x": -0.9265632934,
				"y": 2.8593244054,
				"z": -2.4729335361,
				"element": "C" 
			},
			{
				"x": -1.6913743402,
				"y": 1.7826194927,
				"z": -1.985022545,
				"element": "C" 
			},
			{
				"x": -2.3710714868,
				"y": 1.9351818366,
				"z": -0.7678102126,
				"element": "C" 
			},
			{
				"x": -2.2680366608,
				"y": 3.1190184093,
				"z": -0.0341677789,
				"element": "C" 
			},
			{
				"x": -1.9053396839,
				"y": 0.6685048927,
				"z": -2.8469746055,
				"element": "N" 
			},
			{
				"x": -1.7993541825,
				"y": -0.5291089472,
				"z": -2.4667953932,
				"element": "N" 
			},
			{
				"x": -1.274262992,
				"y": -1.0101592912,
				"z": -1.2726375917,
				"element": "C" 
			},
			{
				"x": -0.3474360629,
				"y": -0.6125936595,
				"z": -0.2903372337,
				"element": "C" 
			},
			{
				"x": 0.3499175463,
				"y": 0.5263586853,
				"z": -0.0361753628,
				"element": "N" 
			},
			{
				"x": 1.3110468895,
				"y": 0.6602400372,
				"z": 0.9906830351,
				"element": "C" 
			},
			{
				"x": 1.8778279171,
				"y": 1.7305921793,
				"z": 1.1619666211,
				"element": "O" 
			},
			{
				"x": 1.5057126134,
				"y": -0.5516004201,
				"z": 1.7666610127,
				"element": "C" 
			},
			{
				"x": 0.82346748,
				"y": -1.7116603465,
				"z": 1.5258561028,
				"element": "C" 
			},
			{
				"x": -0.1006106435,
				"y": -1.7159273447,
				"z": 0.4924985917,
				"element": "N" 
			},
			{
				"x": -0.804807639,
				"y": -2.8386304986,
				"z": 0.0720620506,
				"element": "N" 
			},
			{
				"x": -1.4830543856,
				"y": -2.4087816684,
				"z": -0.9770715767,
				"element": "C" 
			},
			{
				"x": -2.3451766838,
				"y": -3.20098216,
				"z": -1.6824757459,
				"element": "N" 
			},
			{
				"x": 1.0345145017,
				"y": -2.9361832724,
				"z": 2.3329940876,
				"element": "C" 
			},
			{
				"x": 2.3416992916,
				"y": -3.2703560203,
				"z": 2.7241144631,
				"element": "C" 
			},
			{
				"x": 2.5767541731,
				"y": -4.3744671687,
				"z": 3.5412782218,
				"element": "C" 
			},
			{
				"x": 1.5088550518,
				"y": -5.1565750578,
				"z": 3.9836648277,
				"element": "C" 
			},
			{
				"x": 0.2063054034,
				"y": -4.8319949133,
				"z": 3.5981703907,
				"element": "C" 
			},
			{
				"x": -0.0340080017,
				"y": -3.7348094575,
				"z": 2.7740350189,
				"element": "C" 
			},
			{
				"x": -2.9948300251,
				"y": 5.4978584536,
				"z": 1.3252040346,
				"element": "H" 
			},
			{
				"x": -1.5557861154,
				"y": 4.7981549509,
				"z": 2.1269210695,
				"element": "H" 
			},
			{
				"x": -1.6033729504,
				"y": 6.5369445879,
				"z": 1.7311308553,
				"element": "H" 
			},
			{
				"x": -0.1817969963,
				"y": 4.8484857453,
				"z": -2.0846114748,
				"element": "H" 
			},
			{
				"x": -0.4354739986,
				"y": 2.757125558,
				"z": -3.4356311416,
				"element": "H" 
			},
			{
				"x": -2.9981881815,
				"y": 1.12977672,
				"z": -0.3989474379,
				"element": "H" 
			},
			{
				"x": -2.8126614541,
				"y": 3.2107237029,
				"z": 0.8979040928,
				"element": "H" 
			},
			{
				"x": 0.151124392,
				"y": 1.3599557743,
				"z": -0.5776410588,
				"element": "H" 
			},
			{
				"x": 2.2032876908,
				"y": -0.4926971083,
				"z": 2.5901074625,
				"element": "H" 
			},
			{
				"x": -2.5587558265,
				"y": -2.8396861218,
				"z": -2.6036703345,
				"element": "H" 
			},
			{
				"x": -2.1769895565,
				"y": -4.1949093955,
				"z": -1.6240822055,
				"element": "H" 
			},
			{
				"x": 3.1751453768,
				"y": -2.67353223,
				"z": 2.3673865363,
				"element": "H" 
			},
			{
				"x": 3.5940679219,
				"y": -4.62559264,
				"z": 3.8262723447,
				"element": "H" 
			},
			{
				"x": 1.690501941,
				"y": -6.0173627342,
				"z": 4.6206685029,
				"element": "H" 
			},
			{
				"x": -0.6286208001,
				"y": -5.43715722,
				"z": 3.9388884547,
				"element": "H" 
			},
			{
				"x": -1.0436076405,
				"y": -3.4969398124,
				"z": 2.4644748755,
				"element": "H" 
			}
		],
		 "valence_orbital": [ 
			{
				"type": "occ",
				"energy": -0.25163,
				"method": "rhf"
			},
			{
				"type": "occ",
				"energy": -0.24102,
				"method": "rhf"
			},
			{
				"type": "occ",
				"energy": -0.23773,
				"method": "rhf"
			},
			{
				"type": "occ",
				"energy": -0.21389,
				"method": "rhf"
			},
			{
				"type": "occ",
				"energy": -0.19982,
				"method": "rhf"
			},
			{
				"type": "unocc",
				"energy": -0.06745,
				"method": "rhf"
			},
			{
				"type": "unocc",
				"energy": -0.05417,
				"method": "rhf"
			},
			{
				"type": "unocc",
				"energy": -0.01453,
				"method": "rhf"
			},
			{
				"type": "unocc",
				"energy": -0.01088,
				"method": "rhf"
			},
			{
				"type": "unocc",
				"energy": 0.00159,
				"method": "rhf"
			}
		],
		"cosmo_sigma_profile": { 
			"-0.025": 0.0,
			"-0.024": 0.0,
			"-0.023": 0.0,
			"-0.022": 0.0,
			"-0.021": 0.0,
			"-0.02": 0.0,
			"-0.019": 0.0,
			"-0.018": 0.0,
			"-0.017": 0.0,
			"-0.016": 0.0,
			"-0.015": 0.0,
			"-0.014": 0.511052510772,
			"-0.013": 1.27320341148,
			"-0.012": 1.38852297625,
			"-0.011": 1.98959738205,
			"-0.01": 2.28753067132,
			"-0.009": 2.92091580329,
			"-0.008": 3.63693258182,
			"-0.007": 9.06495300754,
			"-0.006": 27.455729179,
			"-0.005": 33.2669125895,
			"-0.004": 34.5496310681,
			"-0.003": 30.1059028052,
			"-0.002": 27.2565948893,
			"-0.001": 23.0118006956,
			"0.0": 24.0549033858,
			"0.001": 25.5006121397,
			"0.002": 19.9368233849,
			"0.003": 22.9145386854,
			"0.004": 23.8453593782,
			"0.005": 12.0604577035,
			"0.006": 7.41446844863,
			"0.007": 6.72541461905,
			"0.008": 5.91857908432,
			"0.009": 6.60592519042,
			"0.01": 6.21637706464,
			"0.011": 5.18821108547,
			"0.012": 5.58404929459,
			"0.013": 7.95355798351,
			"0.014": 3.28950593705,
			"0.015": 0.9908012637,
			"0.016": 0.0414301299081,
			"0.017": 0.0,
			"0.018": 0.0,
			"0.019": 0.0,
			"0.02": 0.0,
			"0.021": 0.0,
			"0.022": 0.0,
			"0.023": 0.0,
			"0.024": 0.0,
			"0.025": 0.0
		}
	}
}
