{
	 "smiles": "OC1=CC(NC=O)=CC=C1", 
	 "Tm": 389.15, 
	 "num_atms": 17, 
	 "gaussian": { 
		 "optdone": 1, 
		 "sigma_profile": "yes", 
		 "theory": "DFT", 
		 "functional": "B3LYP", 
		 "basiset": "6-31G**", 
		 "properties": { 
			 "R2extent": 1728.3635, 
			 "electric_dipole_moment_norm": 2.85337539416, 
			 "electric_quadrupole_moment_norm": 7.78334128444, 
			 "total_energy": -476.167681441, 
			 "HOMO_LUMO_gap": 0.19886, 
			 "cosmo_polarized_energy": -15.09, 
			 "cosmo_cavitation_energy": 21.42, 
			 "cosmo_dispersion_energy": -16.07, 
			 "cosmo_repulsion_energy": 1.3, 
			 "cosmo_total_nonelectrostatic_energy": 6.64, 
			 "SMD_solvation_energy": 5.5 
		},
		"coords": [
			{
				"x": -1.4147583712,
				"y": -0.9498836366,
				"z": 3.1801708787,
				"element": "O" 
			},
			{
				"x": -1.2929090332,
				"y": -0.2912399702,
				"z": 1.9913080232,
				"element": "C" 
			},
			{
				"x": -0.0507303125,
				"y": -0.1251799257,
				"z": 1.3716120022,
				"element": "C" 
			},
			{
				"x": 0.0173407359,
				"y": 0.559404468,
				"z": 0.1515014451,
				"element": "C" 
			},
			{
				"x": 1.238580362,
				"y": 0.7624166902,
				"z": -0.5277358704,
				"element": "N" 
			},
			{
				"x": 2.5018974021,
				"y": 0.3690531086,
				"z": -0.1711320456,
				"element": "C" 
			},
			{
				"x": 2.8177862438,
				"y": -0.2484040136,
				"z": 0.8307300311,
				"element": "O" 
			},
			{
				"x": -1.1487123884,
				"y": 1.070261089,
				"z": -0.4374475102,
				"element": "C" 
			},
			{
				"x": -2.3747712349,
				"y": 0.8914026149,
				"z": 0.2004467705,
				"element": "C" 
			},
			{
				"x": -2.4628900232,
				"y": 0.2137539118,
				"z": 1.4135600377,
				"element": "C" 
			},
			{
				"x": -0.5404234354,
				"y": -1.244686558,
				"z": 3.4673195286,
				"element": "H" 
			},
			{
				"x": 0.8573522153,
				"y": -0.5142982783,
				"z": 1.8151546048,
				"element": "H" 
			},
			{
				"x": 1.1713242856,
				"y": 1.269289473,
				"z": -1.3997786937,
				"element": "H" 
			},
			{
				"x": 3.2423749667,
				"y": 0.6904098322,
				"z": -0.9296699987,
				"element": "H" 
			},
			{
				"x": -1.0941424116,
				"y": 1.6012181032,
				"z": -1.3842152067,
				"element": "H" 
			},
			{
				"x": -3.2761205444,
				"y": 1.2878975806,
				"z": -0.2577034074,
				"element": "H" 
			},
			{
				"x": -3.4105984566,
				"y": 0.0680855111,
				"z": 1.9196794107,
				"element": "H" 
			}
		],
		 "valence_orbital": [ 
			{
				"type": "occ",
				"energy": -0.35079,
				"method": "rhf"
			},
			{
				"type": "occ",
				"energy": -0.30066,
				"method": "rhf"
			},
			{
				"type": "occ",
				"energy": -0.26483,
				"method": "rhf"
			},
			{
				"type": "occ",
				"energy": -0.23723,
				"method": "rhf"
			},
			{
				"type": "occ",
				"energy": -0.21646,
				"method": "rhf"
			},
			{
				"type": "unocc",
				"energy": -0.0176,
				"method": "rhf"
			},
			{
				"type": "unocc",
				"energy": 0.00758,
				"method": "rhf"
			},
			{
				"type": "unocc",
				"energy": 0.04395,
				"method": "rhf"
			},
			{
				"type": "unocc",
				"energy": 0.06414,
				"method": "rhf"
			},
			{
				"type": "unocc",
				"energy": 0.07611,
				"method": "rhf"
			}
		],
		"cosmo_sigma_profile": { 
			"-0.025": 0.0,
			"-0.024": 0.0,
			"-0.023": 0.0,
			"-0.022": 0.0,
			"-0.021": 0.0,
			"-0.02": 0.0,
			"-0.019": 0.0,
			"-0.018": 0.20771491731,
			"-0.017": 1.30866475663,
			"-0.016": 1.67474626991,
			"-0.015": 2.95260901575,
			"-0.014": 2.23043803388,
			"-0.013": 2.47785711165,
			"-0.012": 2.30159918395,
			"-0.011": 1.63215078215,
			"-0.01": 2.92432954181,
			"-0.009": 3.25870856881,
			"-0.008": 3.34530057348,
			"-0.007": 4.35189632871,
			"-0.006": 7.74241465187,
			"-0.005": 7.94141493677,
			"-0.004": 8.78779257604,
			"-0.003": 7.02464989099,
			"-0.002": 7.09659723383,
			"-0.001": 6.53753528953,
			"0.0": 7.15657397691,
			"0.001": 9.68764470865,
			"0.002": 10.1152060987,
			"0.003": 10.765400933,
			"0.004": 14.6999592578,
			"0.005": 12.8366008309,
			"0.006": 7.39143964591,
			"0.007": 3.40169500343,
			"0.008": 2.58196454039,
			"0.009": 3.28767693771,
			"0.01": 3.23023439621,
			"0.011": 4.61372749526,
			"0.012": 3.90124820636,
			"0.013": 2.68052670611,
			"0.014": 0.901400320629,
			"0.015": 0.0,
			"0.016": 0.0,
			"0.017": 0.0,
			"0.018": 0.0,
			"0.019": 0.0,
			"0.02": 0.0,
			"0.021": 0.0,
			"0.022": 0.0,
			"0.023": 0.0,
			"0.024": 0.0,
			"0.025": 0.0
		}
	}
}
