{
	 "smiles": "CC(C)(C)S(=O)(=O)NCC=C", 
	 "Tm": 327.15, 
	 "num_atms": 26, 
	 "gaussian": { 
		 "optdone": 1, 
		 "sigma_profile": "yes", 
		 "theory": "DFT", 
		 "functional": "B3LYP", 
		 "basiset": "6-31G**", 
		 "properties": { 
			 "R2extent": 2921.0725, 
			 "electric_dipole_moment_norm": 3.69124053944, 
			 "electric_quadrupole_moment_norm": 14.5802193701, 
			 "total_energy": -879.098175921, 
			 "HOMO_LUMO_gap": 0.26248, 
			 "cosmo_polarized_energy": -12.27, 
			 "cosmo_cavitation_energy": 29.43, 
			 "cosmo_dispersion_energy": -20.5, 
			 "cosmo_repulsion_energy": 1.59, 
			 "cosmo_total_nonelectrostatic_energy": 10.52, 
			 "SMD_solvation_energy": 5.07 
		},
		"coords": [
			{
				"x": -3.0786859641,
				"y": 1.8406189153,
				"z": -0.6655986257,
				"element": "C" 
			},
			{
				"x": -1.6455975421,
				"y": 1.3369283239,
				"z": -0.4262343894,
				"element": "C" 
			},
			{
				"x": -0.6141744865,
				"y": 2.4400837992,
				"z": -0.691528896,
				"element": "C" 
			},
			{
				"x": -1.4916442438,
				"y": 0.7416616651,
				"z": 0.978278945,
				"element": "C" 
			},
			{
				"x": -1.3851238298,
				"y": -0.0178277695,
				"z": -1.6670148357,
				"element": "S" 
			},
			{
				"x": -2.2941207265,
				"y": -1.1229094191,
				"z": -1.3273934602,
				"element": "O" 
			},
			{
				"x": -1.3932835619,
				"y": 0.5888350721,
				"z": -3.0076803895,
				"element": "O" 
			},
			{
				"x": 0.2106685796,
				"y": -0.5352370427,
				"z": -1.3785177189,
				"element": "N" 
			},
			{
				"x": 0.4259951205,
				"y": -1.9395651165,
				"z": -0.9673932343,
				"element": "C" 
			},
			{
				"x": 1.851662256,
				"y": -2.1092791936,
				"z": -0.522829017,
				"element": "C" 
			},
			{
				"x": 2.7011919098,
				"y": -2.9841152265,
				"z": -1.0608329166,
				"element": "C" 
			},
			{
				"x": -3.2936447215,
				"y": 2.6468264305,
				"z": 0.0433970706,
				"element": "H" 
			},
			{
				"x": -3.1949866906,
				"y": 2.2313374819,
				"z": -1.6795822248,
				"element": "H" 
			},
			{
				"x": -3.8084434341,
				"y": 1.0415788791,
				"z": -0.5128193635,
				"element": "H" 
			},
			{
				"x": -0.7845829584,
				"y": 3.2612565818,
				"z": 0.0128879145,
				"element": "H" 
			},
			{
				"x": 0.4050874873,
				"y": 2.0727187069,
				"z": -0.5452853423,
				"element": "H" 
			},
			{
				"x": -0.7071518534,
				"y": 2.8325173446,
				"z": -1.7068890158,
				"element": "H" 
			},
			{
				"x": -2.2032042662,
				"y": -0.0704861344,
				"z": 1.1451056836,
				"element": "H" 
			},
			{
				"x": -0.4775083772,
				"y": 0.3663015162,
				"z": 1.1409133274,
				"element": "H" 
			},
			{
				"x": -1.6841078851,
				"y": 1.5255297892,
				"z": 1.7186005478,
				"element": "H" 
			},
			{
				"x": 0.7625802505,
				"y": -0.2782473629,
				"z": -2.1933941559,
				"element": "H" 
			},
			{
				"x": 0.1857128359,
				"y": -2.6497579826,
				"z": -1.7685735943,
				"element": "H" 
			},
			{
				"x": -0.2629073515,
				"y": -2.1435691104,
				"z": -0.142243001,
				"element": "H" 
			},
			{
				"x": 2.1749153563,
				"y": -1.4584603387,
				"z": 0.2886228155,
				"element": "H" 
			},
			{
				"x": 2.404725277,
				"y": -3.6375776652,
				"z": -1.8780824472,
				"element": "H" 
			},
			{
				"x": 3.7198288198,
				"y": -3.0869621438,
				"z": -0.6992136761,
				"element": "H" 
			}
		],
		 "valence_orbital": [ 
			{
				"type": "occ",
				"energy": -0.31015,
				"method": "rhf"
			},
			{
				"type": "occ",
				"energy": -0.29443,
				"method": "rhf"
			},
			{
				"type": "occ",
				"energy": -0.28877,
				"method": "rhf"
			},
			{
				"type": "occ",
				"energy": -0.28181,
				"method": "rhf"
			},
			{
				"type": "occ",
				"energy": -0.26332,
				"method": "rhf"
			},
			{
				"type": "unocc",
				"energy": -0.00084,
				"method": "rhf"
			},
			{
				"type": "unocc",
				"energy": 0.06289,
				"method": "rhf"
			},
			{
				"type": "unocc",
				"energy": 0.07055,
				"method": "rhf"
			},
			{
				"type": "unocc",
				"energy": 0.08145,
				"method": "rhf"
			},
			{
				"type": "unocc",
				"energy": 0.08855,
				"method": "rhf"
			}
		],
		"cosmo_sigma_profile": { 
			"-0.025": 0.0,
			"-0.024": 0.0,
			"-0.023": 0.0,
			"-0.022": 0.0,
			"-0.021": 0.0,
			"-0.02": 0.0,
			"-0.019": 0.0,
			"-0.018": 0.0,
			"-0.017": 0.0,
			"-0.016": 0.0,
			"-0.015": 0.0,
			"-0.014": 0.273838631517,
			"-0.013": 0.918526351259,
			"-0.012": 0.646390112482,
			"-0.011": 0.810672910363,
			"-0.01": 0.92687455573,
			"-0.009": 0.891228253206,
			"-0.008": 0.743394361125,
			"-0.007": 1.153662982,
			"-0.006": 3.7250777953,
			"-0.005": 18.0944920603,
			"-0.004": 21.8432395304,
			"-0.003": 27.1892498499,
			"-0.002": 27.3474934846,
			"-0.001": 29.3883109993,
			"0.0": 22.811991194,
			"0.001": 10.2619378477,
			"0.002": 8.18566811683,
			"0.003": 8.21156002229,
			"0.004": 6.685187688,
			"0.005": 5.9492776761,
			"0.006": 4.44312571327,
			"0.007": 2.48169017997,
			"0.008": 2.11324564078,
			"0.009": 3.5813319471,
			"0.01": 4.35738843073,
			"0.011": 8.99983922989,
			"0.012": 6.40899318622,
			"0.013": 0.896807239635,
			"0.014": 0.0,
			"0.015": 0.0,
			"0.016": 0.0,
			"0.017": 0.0,
			"0.018": 0.0,
			"0.019": 0.0,
			"0.02": 0.0,
			"0.021": 0.0,
			"0.022": 0.0,
			"0.023": 0.0,
			"0.024": 0.0,
			"0.025": 0.0
		}
	}
}
