{
	 "smiles": "CC1=CC=C(CNC(=O)C2=NN=C(CCl)S2)C=C1", 
	 "Tm": 427.15, 
	 "num_atms": 30, 
	 "gaussian": { 
		 "optdone": 1, 
		 "sigma_profile": "yes", 
		 "theory": "DFT", 
		 "functional": "B3LYP", 
		 "basiset": "6-31G**", 
		 "properties": { 
			 "R2extent": 10253.9935, 
			 "electric_dipole_moment_norm": 3.12824288379, 
			 "electric_quadrupole_moment_norm": 15.7553833962, 
			 "total_energy": -1562.35476485, 
			 "HOMO_LUMO_gap": 0.15789, 
			 "cosmo_polarized_energy": -14.59, 
			 "cosmo_cavitation_energy": 38.68, 
			 "cosmo_dispersion_energy": -28.23, 
			 "cosmo_repulsion_energy": 2.17, 
			 "cosmo_total_nonelectrostatic_energy": 12.62, 
			 "SMD_solvation_energy": 4.75 
		},
		"coords": [
			{
				"x": -2.3201801032,
				"y": -4.6102713304,
				"z": -5.0526200887,
				"element": "C" 
			},
			{
				"x": -2.1350370603,
				"y": -3.4977272295,
				"z": -4.0477680459,
				"element": "C" 
			},
			{
				"x": -3.2257677922,
				"y": -2.9252893799,
				"z": -3.3858569548,
				"element": "C" 
			},
			{
				"x": -3.0479188319,
				"y": -1.8897011769,
				"z": -2.465350667,
				"element": "C" 
			},
			{
				"x": -1.7730801259,
				"y": -1.3918766272,
				"z": -2.1854920706,
				"element": "C" 
			},
			{
				"x": -1.5851444835,
				"y": -0.2493624836,
				"z": -1.2081486531,
				"element": "C" 
			},
			{
				"x": -0.6316715727,
				"y": -0.6073674997,
				"z": -0.15243286,
				"element": "N" 
			},
			{
				"x": 0.314296001,
				"y": 0.1184406963,
				"z": 0.4979665262,
				"element": "C" 
			},
			{
				"x": 0.9760692962,
				"y": -0.3474582703,
				"z": 1.4253877794,
				"element": "O" 
			},
			{
				"x": 0.6025476952,
				"y": 1.5340963753,
				"z": 0.0880662281,
				"element": "C" 
			},
			{
				"x": 0.0588384611,
				"y": 2.2515741388,
				"z": -0.8573123217,
				"element": "N" 
			},
			{
				"x": 0.5765268042,
				"y": 3.5074179947,
				"z": -0.9450878507,
				"element": "N" 
			},
			{
				"x": 1.51322997,
				"y": 3.725437568,
				"z": -0.0531174493,
				"element": "C" 
			},
			{
				"x": 2.2277328963,
				"y": 5.0347454316,
				"z": 0.0045993552,
				"element": "C" 
			},
			{
				"x": 1.8626280227,
				"y": 5.9596732087,
				"z": 1.5276912461,
				"element": "Cl" 
			},
			{
				"x": 1.8419149382,
				"y": 2.3730901203,
				"z": 0.9904395534,
				"element": "S" 
			},
			{
				"x": -0.6752382755,
				"y": -1.9640484057,
				"z": -2.8450067369,
				"element": "C" 
			},
			{
				"x": -0.8550065977,
				"y": -2.9992091911,
				"z": -3.7574067209,
				"element": "C" 
			},
			{
				"x": -3.3441997819,
				"y": -4.9935325158,
				"z": -5.0410107748,
				"element": "H" 
			},
			{
				"x": -2.1075095637,
				"y": -4.2644683148,
				"z": -6.071461552,
				"element": "H" 
			},
			{
				"x": -1.6442960692,
				"y": -5.4483767406,
				"z": -4.8508483853,
				"element": "H" 
			},
			{
				"x": -4.2278094841,
				"y": -3.2964799614,
				"z": -3.5858692961,
				"element": "H" 
			},
			{
				"x": -3.9128987219,
				"y": -1.4662742407,
				"z": -1.9602311667,
				"element": "H" 
			},
			{
				"x": -1.2124758636,
				"y": 0.6441171618,
				"z": -1.7102068787,
				"element": "H" 
			},
			{
				"x": -2.5530310094,
				"y": 0.0154824512,
				"z": -0.7620920712,
				"element": "H" 
			},
			{
				"x": -0.7252508633,
				"y": -1.5351236668,
				"z": 0.2448305039,
				"element": "H" 
			},
			{
				"x": 3.3109690204,
				"y": 4.9126846734,
				"z": -0.0248225495,
				"element": "H" 
			},
			{
				"x": 1.8948179749,
				"y": 5.6435188437,
				"z": -0.8350522129,
				"element": "H" 
			},
			{
				"x": 0.3260849128,
				"y": -1.5972781531,
				"z": -2.6350297641,
				"element": "H" 
			},
			{
				"x": 0.0109602069,
				"y": -3.4287334763,
				"z": -4.2557561211,
				"element": "H" 
			}
		],
		 "valence_orbital": [ 
			{
				"type": "occ",
				"energy": -0.28697,
				"method": "rhf"
			},
			{
				"type": "occ",
				"energy": -0.26959,
				"method": "rhf"
			},
			{
				"type": "occ",
				"energy": -0.26845,
				"method": "rhf"
			},
			{
				"type": "occ",
				"energy": -0.25519,
				"method": "rhf"
			},
			{
				"type": "occ",
				"energy": -0.23994,
				"method": "rhf"
			},
			{
				"type": "unocc",
				"energy": -0.08205,
				"method": "rhf"
			},
			{
				"type": "unocc",
				"energy": -0.02385,
				"method": "rhf"
			},
			{
				"type": "unocc",
				"energy": -0.00965,
				"method": "rhf"
			},
			{
				"type": "unocc",
				"energy": -0.0079,
				"method": "rhf"
			},
			{
				"type": "unocc",
				"energy": 0.00046,
				"method": "rhf"
			}
		],
		"cosmo_sigma_profile": { 
			"-0.025": 0.0,
			"-0.024": 0.0,
			"-0.023": 0.0,
			"-0.022": 0.0,
			"-0.021": 0.0,
			"-0.02": 0.0,
			"-0.019": 0.0,
			"-0.018": 0.0,
			"-0.017": 0.0,
			"-0.016": 0.0,
			"-0.015": 0.00841046102482,
			"-0.014": 0.655048210207,
			"-0.013": 1.10288094477,
			"-0.012": 0.394288146873,
			"-0.011": 0.908786157954,
			"-0.01": 3.88791603697,
			"-0.009": 5.05572931251,
			"-0.008": 5.55629630754,
			"-0.007": 4.68872142009,
			"-0.006": 9.24067586989,
			"-0.005": 16.6403888915,
			"-0.004": 28.347037878,
			"-0.003": 28.1432814824,
			"-0.002": 26.5399393704,
			"-0.001": 26.3081350229,
			"0.0": 29.4494664001,
			"0.001": 19.5503334876,
			"0.002": 15.2552350261,
			"0.003": 15.6757304683,
			"0.004": 16.1589579818,
			"0.005": 18.9694977006,
			"0.006": 13.560543093,
			"0.007": 3.8153735848,
			"0.008": 3.48568291909,
			"0.009": 3.76183133098,
			"0.01": 2.90991316917,
			"0.011": 3.76952946943,
			"0.012": 4.86555828208,
			"0.013": 3.98260989101,
			"0.014": 0.421794886958,
			"0.015": 0.0,
			"0.016": 0.0,
			"0.017": 0.0,
			"0.018": 0.0,
			"0.019": 0.0,
			"0.02": 0.0,
			"0.021": 0.0,
			"0.022": 0.0,
			"0.023": 0.0,
			"0.024": 0.0,
			"0.025": 0.0
		}
	}
}
