{
	 "smiles": "NC1=C(NC(=O)CC2=CC=CS2)C=CC=C1", 
	 "Tm": 437.15, 
	 "num_atms": 28, 
	 "gaussian": { 
		 "optdone": 1, 
		 "sigma_profile": "yes", 
		 "theory": "DFT", 
		 "functional": "B3LYP", 
		 "basiset": "6-31G**", 
		 "properties": { 
			 "R2extent": 4359.5013, 
			 "electric_dipole_moment_norm": 4.25604934769, 
			 "electric_quadrupole_moment_norm": 15.6319721376, 
			 "total_energy": -1047.4257513, 
			 "HOMO_LUMO_gap": 0.19963, 
			 "cosmo_polarized_energy": -15.88, 
			 "cosmo_cavitation_energy": 33.78, 
			 "cosmo_dispersion_energy": -23.58, 
			 "cosmo_repulsion_energy": 1.82, 
			 "cosmo_total_nonelectrostatic_energy": 12.02, 
			 "SMD_solvation_energy": 6.4 
		},
		"coords": [
			{
				"x": -2.0385293215,
				"y": -0.0382054983,
				"z": 2.7226420936,
				"element": "N" 
			},
			{
				"x": -1.3957842888,
				"y": -1.0760073898,
				"z": 2.0584950591,
				"element": "C" 
			},
			{
				"x": -1.4986155637,
				"y": -1.1929641168,
				"z": 0.6534490249,
				"element": "C" 
			},
			{
				"x": -2.361928802,
				"y": -0.2973105269,
				"z": -0.0584113409,
				"element": "N" 
			},
			{
				"x": -2.046775176,
				"y": 0.9446276259,
				"z": -0.5774090385,
				"element": "C" 
			},
			{
				"x": -2.82323549,
				"y": 1.5313801206,
				"z": -1.3162330723,
				"element": "O" 
			},
			{
				"x": -0.6934280528,
				"y": 1.5474402569,
				"z": -0.1921535892,
				"element": "C" 
			},
			{
				"x": 0.3254482056,
				"y": 1.3819398913,
				"z": -1.2887788521,
				"element": "C" 
			},
			{
				"x": 1.5147051614,
				"y": 0.7017323723,
				"z": -1.233195749,
				"element": "C" 
			},
			{
				"x": 2.259273584,
				"y": 0.7573391048,
				"z": -2.4511101429,
				"element": "C" 
			},
			{
				"x": 1.6246759825,
				"y": 1.481216191,
				"z": -3.4214805339,
				"element": "C" 
			},
			{
				"x": 0.1016156208,
				"y": 2.1011761464,
				"z": -2.8669143438,
				"element": "S" 
			},
			{
				"x": -0.8075365458,
				"y": -2.2030645887,
				"z": -0.0202761356,
				"element": "C" 
			},
			{
				"x": -0.0090514695,
				"y": -3.1107702648,
				"z": 0.6734378895,
				"element": "C" 
			},
			{
				"x": 0.0995420166,
				"y": -2.9942268023,
				"z": 2.0620776978,
				"element": "C" 
			},
			{
				"x": -0.5801646216,
				"y": -1.9917259269,
				"z": 2.7469324965,
				"element": "C" 
			},
			{
				"x": -2.8311923973,
				"y": 0.3495963108,
				"z": 2.2283870322,
				"element": "H" 
			},
			{
				"x": -2.2132432207,
				"y": -0.1893027348,
				"z": 3.7058940457,
				"element": "H" 
			},
			{
				"x": -3.2094569513,
				"y": -0.6778140259,
				"z": -0.4660793524,
				"element": "H" 
			},
			{
				"x": -0.2995815982,
				"y": 1.1030404427,
				"z": 0.7239007122,
				"element": "H" 
			},
			{
				"x": -0.884630824,
				"y": 2.6084628269,
				"z": 0.0000955725,
				"element": "H" 
			},
			{
				"x": 1.8462798031,
				"y": 0.1768653171,
				"z": -0.3437504958,
				"element": "H" 
			},
			{
				"x": 3.2218835101,
				"y": 0.2789873289,
				"z": -2.5931751547,
				"element": "H" 
			},
			{
				"x": 1.9530241357,
				"y": 1.6819724955,
				"z": -4.4320256894,
				"element": "H" 
			},
			{
				"x": -0.9063245179,
				"y": -2.2630775949,
				"z": -1.1002187682,
				"element": "H" 
			},
			{
				"x": 0.5218759355,
				"y": -3.8923128098,
				"z": 0.1399995737,
				"element": "H" 
			},
			{
				"x": 0.7180792828,
				"y": -3.6919479638,
				"z": 2.6196268785,
				"element": "H" 
			},
			{
				"x": -0.4885243968,
				"y": -1.9093461872,
				"z": 3.8270741827,
				"element": "H" 
			}
		],
		 "valence_orbital": [ 
			{
				"type": "occ",
				"energy": -0.2609,
				"method": "rhf"
			},
			{
				"type": "occ",
				"energy": -0.24879,
				"method": "rhf"
			},
			{
				"type": "occ",
				"energy": -0.23971,
				"method": "rhf"
			},
			{
				"type": "occ",
				"energy": -0.21842,
				"method": "rhf"
			},
			{
				"type": "occ",
				"energy": -0.21252,
				"method": "rhf"
			},
			{
				"type": "unocc",
				"energy": -0.01289,
				"method": "rhf"
			},
			{
				"type": "unocc",
				"energy": -0.00791,
				"method": "rhf"
			},
			{
				"type": "unocc",
				"energy": 0.00689,
				"method": "rhf"
			},
			{
				"type": "unocc",
				"energy": 0.02854,
				"method": "rhf"
			},
			{
				"type": "unocc",
				"energy": 0.0455,
				"method": "rhf"
			}
		],
		"cosmo_sigma_profile": { 
			"-0.025": 0.0,
			"-0.024": 0.0,
			"-0.023": 0.0,
			"-0.022": 0.0,
			"-0.021": 0.0,
			"-0.02": 0.0,
			"-0.019": 0.0,
			"-0.018": 0.0,
			"-0.017": 0.0,
			"-0.016": 0.0,
			"-0.015": 0.0,
			"-0.014": 0.535925275289,
			"-0.013": 1.81888381822,
			"-0.012": 2.21231145727,
			"-0.011": 3.14822324329,
			"-0.01": 3.03005309679,
			"-0.009": 3.65092206664,
			"-0.008": 4.97870238645,
			"-0.007": 7.35367242284,
			"-0.006": 13.2466945692,
			"-0.005": 19.2632520606,
			"-0.004": 20.5750268409,
			"-0.003": 19.0115316974,
			"-0.002": 16.2783190162,
			"-0.001": 16.4284671821,
			"0.0": 12.9512616089,
			"0.001": 14.49521312,
			"0.002": 15.9380703538,
			"0.003": 19.2752017762,
			"0.004": 21.6229125675,
			"0.005": 19.6762149773,
			"0.006": 12.7680473353,
			"0.007": 3.65975779427,
			"0.008": 2.24959379794,
			"0.009": 1.86408331369,
			"0.01": 2.09197360358,
			"0.011": 2.0793307693,
			"0.012": 3.07242197572,
			"0.013": 5.0700235313,
			"0.014": 2.6571382405,
			"0.015": 0.0366324475909,
			"0.016": 0.0,
			"0.017": 0.0,
			"0.018": 0.0,
			"0.019": 0.0,
			"0.02": 0.0,
			"0.021": 0.0,
			"0.022": 0.0,
			"0.023": 0.0,
			"0.024": 0.0,
			"0.025": 0.0
		}
	}
}
