{
	 "smiles": "O=CC1=CC=C(OC2CCOCC2)C=C1", 
	 "Tm": 368.65, 
	 "num_atms": 29, 
	 "gaussian": { 
		 "optdone": 1, 
		 "sigma_profile": "yes", 
		 "theory": "DFT", 
		 "functional": "B3LYP", 
		 "basiset": "6-31G**", 
		 "properties": { 
			 "R2extent": 4893.6002, 
			 "electric_dipole_moment_norm": 4.46539801697, 
			 "electric_quadrupole_moment_norm": 16.0131941314, 
			 "total_energy": -691.357843276, 
			 "HOMO_LUMO_gap": 0.18026, 
			 "cosmo_polarized_energy": -11.84, 
			 "cosmo_cavitation_energy": 31.72, 
			 "cosmo_dispersion_energy": -23.24, 
			 "cosmo_repulsion_energy": 1.81, 
			 "cosmo_total_nonelectrostatic_energy": 10.29, 
			 "SMD_solvation_energy": 6.19 
		},
		"coords": [
			{
				"x": -3.0376703007,
				"y": -4.588065105,
				"z": -0.6222662835,
				"element": "O" 
			},
			{
				"x": -3.4582458429,
				"y": -3.5124864862,
				"z": -0.2333334707,
				"element": "C" 
			},
			{
				"x": -2.6777953298,
				"y": -2.2639537396,
				"z": -0.1972431767,
				"element": "C" 
			},
			{
				"x": -1.3438511491,
				"y": -2.2439239605,
				"z": -0.6284553648,
				"element": "C" 
			},
			{
				"x": -0.5995186875,
				"y": -1.0707896585,
				"z": -0.6014461316,
				"element": "C" 
			},
			{
				"x": -1.1913199989,
				"y": 0.1154153757,
				"z": -0.1299267814,
				"element": "C" 
			},
			{
				"x": -0.5664496525,
				"y": 1.3179928222,
				"z": -0.0419497021,
				"element": "O" 
			},
			{
				"x": 0.8086130683,
				"y": 1.4673229984,
				"z": -0.4327997072,
				"element": "C" 
			},
			{
				"x": 0.9525059867,
				"y": 1.618357553,
				"z": -1.9609245341,
				"element": "C" 
			},
			{
				"x": 2.2186484899,
				"y": 2.4420036669,
				"z": -2.2922970709,
				"element": "C" 
			},
			{
				"x": 3.2063415997,
				"y": 2.2772349782,
				"z": -1.2837850059,
				"element": "O" 
			},
			{
				"x": 2.8310187562,
				"y": 2.9014645655,
				"z": -0.0575295018,
				"element": "C" 
			},
			{
				"x": 1.3308341755,
				"y": 2.7213409711,
				"z": 0.2642714814,
				"element": "C" 
			},
			{
				"x": -2.5295087045,
				"y": 0.1046422652,
				"z": 0.3033590678,
				"element": "C" 
			},
			{
				"x": -3.2592707157,
				"y": -1.0729719915,
				"z": 0.2680228261,
				"element": "C" 
			},
			{
				"x": -4.5053197779,
				"y": -3.4109976699,
				"z": 0.1333308761,
				"element": "H" 
			},
			{
				"x": -0.9055280722,
				"y": -3.1695438954,
				"z": -0.988736476,
				"element": "H" 
			},
			{
				"x": 0.4267350541,
				"y": -1.0821706219,
				"z": -0.9474655023,
				"element": "H" 
			},
			{
				"x": 1.3790845501,
				"y": 0.6011354388,
				"z": -0.0781266776,
				"element": "H" 
			},
			{
				"x": 0.9927400092,
				"y": 0.6362249741,
				"z": -2.4406863227,
				"element": "H" 
			},
			{
				"x": 0.0601948203,
				"y": 2.1291138506,
				"z": -2.3402579099,
				"element": "H" 
			},
			{
				"x": 2.6739935126,
				"y": 2.1077297047,
				"z": -3.2278467224,
				"element": "H" 
			},
			{
				"x": 1.9680008878,
				"y": 3.5083324975,
				"z": -2.4104094388,
				"element": "H" 
			},
			{
				"x": 3.0857366664,
				"y": 3.9727439747,
				"z": -0.0823037173,
				"element": "H" 
			},
			{
				"x": 3.4518187149,
				"y": 2.4279297401,
				"z": 0.7093782468,
				"element": "H" 
			},
			{
				"x": 1.1760160578,
				"y": 2.6462582127,
				"z": 1.3446091872,
				"element": "H" 
			},
			{
				"x": 0.7442278649,
				"y": 3.5794448741,
				"z": -0.083534902,
				"element": "H" 
			},
			{
				"x": -2.9614765036,
				"y": 1.032540186,
				"z": 0.6628051812,
				"element": "H" 
			},
			{
				"x": -4.2935554791,
				"y": -1.0775255208,
				"z": 0.604947533,
				"element": "H" 
			}
		],
		 "valence_orbital": [ 
			{
				"type": "occ",
				"energy": -0.31167,
				"method": "rhf"
			},
			{
				"type": "occ",
				"energy": -0.26588,
				"method": "rhf"
			},
			{
				"type": "occ",
				"energy": -0.25935,
				"method": "rhf"
			},
			{
				"type": "occ",
				"energy": -0.24609,
				"method": "rhf"
			},
			{
				"type": "occ",
				"energy": -0.23123,
				"method": "rhf"
			},
			{
				"type": "unocc",
				"energy": -0.05097,
				"method": "rhf"
			},
			{
				"type": "unocc",
				"energy": -0.01317,
				"method": "rhf"
			},
			{
				"type": "unocc",
				"energy": 0.05089,
				"method": "rhf"
			},
			{
				"type": "unocc",
				"energy": 0.06365,
				"method": "rhf"
			},
			{
				"type": "unocc",
				"energy": 0.08403,
				"method": "rhf"
			}
		],
		"cosmo_sigma_profile": { 
			"-0.025": 0.0,
			"-0.024": 0.0,
			"-0.023": 0.0,
			"-0.022": 0.0,
			"-0.021": 0.0,
			"-0.02": 0.0,
			"-0.019": 0.0,
			"-0.018": 0.0,
			"-0.017": 0.0,
			"-0.016": 0.0,
			"-0.015": 0.0,
			"-0.014": 0.0,
			"-0.013": 0.0,
			"-0.012": 0.0,
			"-0.011": 0.0,
			"-0.01": 0.0,
			"-0.009": 0.0,
			"-0.008": 1.28018731276,
			"-0.007": 6.43025688522,
			"-0.006": 10.8716400613,
			"-0.005": 17.5597857724,
			"-0.004": 34.3486512278,
			"-0.003": 29.271252515,
			"-0.002": 21.8551754427,
			"-0.001": 18.2656943083,
			"0.0": 14.0457213771,
			"0.001": 13.7612268016,
			"0.002": 15.1741475704,
			"0.003": 17.5362268221,
			"0.004": 11.3113033342,
			"0.005": 4.84762895145,
			"0.006": 4.07388298689,
			"0.007": 4.05827737251,
			"0.008": 3.64122646722,
			"0.009": 3.62039417769,
			"0.01": 3.16038546872,
			"0.011": 5.02858412701,
			"0.012": 5.17625333899,
			"0.013": 3.9804736602,
			"0.014": 0.925015321456,
			"0.015": 0.0,
			"0.016": 0.0,
			"0.017": 0.0,
			"0.018": 0.0,
			"0.019": 0.0,
			"0.02": 0.0,
			"0.021": 0.0,
			"0.022": 0.0,
			"0.023": 0.0,
			"0.024": 0.0,
			"0.025": 0.0
		}
	}
}
