{
	 "smiles": "CCCOC(=O)C1=CC=C(C=C1)S(Cl)(=O)=O", 
	 "Tm": 310.15, 
	 "num_atms": 27, 
	 "gaussian": { 
		 "optdone": 1, 
		 "sigma_profile": "yes", 
		 "theory": "DFT", 
		 "functional": "B3LYP", 
		 "basiset": "6-31G**", 
		 "properties": { 
			 "R2extent": 8047.3293, 
			 "electric_dipole_moment_norm": 5.52522948935, 
			 "electric_quadrupole_moment_norm": 19.9337850284, 
			 "total_energy": -1546.92191375, 
			 "HOMO_LUMO_gap": 0.19231, 
			 "cosmo_polarized_energy": -10.91, 
			 "cosmo_cavitation_energy": 35.2, 
			 "cosmo_dispersion_energy": -25.49, 
			 "cosmo_repulsion_energy": 1.97, 
			 "cosmo_total_nonelectrostatic_energy": 11.67, 
			 "SMD_solvation_energy": 5.64 
		},
		"coords": [
			{
				"x": 3.9066068637,
				"y": 1.199182132,
				"z": -1.1165878533,
				"element": "C" 
			},
			{
				"x": 3.260014526,
				"y": 2.1186985587,
				"z": -0.0763596381,
				"element": "C" 
			},
			{
				"x": 2.8197553767,
				"y": 1.3980710512,
				"z": 1.1939232578,
				"element": "C" 
			},
			{
				"x": 1.8466298826,
				"y": 0.3568782054,
				"z": 0.912627424,
				"element": "O" 
			},
			{
				"x": 0.5543373774,
				"y": 0.7337436463,
				"z": 0.8639650344,
				"element": "C" 
			},
			{
				"x": 0.1627957565,
				"y": 1.8700406422,
				"z": 1.0428763225,
				"element": "O" 
			},
			{
				"x": -0.3584718631,
				"y": -0.4168317169,
				"z": 0.5671225191,
				"element": "C" 
			},
			{
				"x": -1.7318212312,
				"y": -0.1492316826,
				"z": 0.4903538686,
				"element": "C" 
			},
			{
				"x": -2.6322534378,
				"y": -1.1741941406,
				"z": 0.2170061608,
				"element": "C" 
			},
			{
				"x": -2.1290254428,
				"y": -2.4619333497,
				"z": 0.0247757922,
				"element": "C" 
			},
			{
				"x": -0.7672505845,
				"y": -2.7565303611,
				"z": 0.0993127134,
				"element": "C" 
			},
			{
				"x": 0.121093062,
				"y": -1.7195787491,
				"z": 0.3740665862,
				"element": "C" 
			},
			{
				"x": -3.2783699128,
				"y": -3.7940992731,
				"z": -0.3070508831,
				"element": "S" 
			},
			{
				"x": -3.3671907151,
				"y": -3.7368374764,
				"z": -2.4377004094,
				"element": "Cl" 
			},
			{
				"x": -4.6036997224,
				"y": -3.4169556921,
				"z": 0.1666206523,
				"element": "O" 
			},
			{
				"x": -2.6564450603,
				"y": -5.0652831312,
				"z": 0.0406281939,
				"element": "O" 
			},
			{
				"x": 4.8017199518,
				"y": 0.7111114452,
				"z": -0.7143285818,
				"element": "H" 
			},
			{
				"x": 4.2052969694,
				"y": 1.7633970125,
				"z": -2.0050609287,
				"element": "H" 
			},
			{
				"x": 3.2139532232,
				"y": 0.4145027861,
				"z": -1.4350523017,
				"element": "H" 
			},
			{
				"x": 2.3936806633,
				"y": 2.6357232151,
				"z": -0.5030601453,
				"element": "H" 
			},
			{
				"x": 3.9682638831,
				"y": 2.9004871764,
				"z": 0.2275983566,
				"element": "H" 
			},
			{
				"x": 2.3832043294,
				"y": 2.0960858141,
				"z": 1.9114619931,
				"element": "H" 
			},
			{
				"x": 3.6529651434,
				"y": 0.8643414424,
				"z": 1.6588867056,
				"element": "H" 
			},
			{
				"x": -2.0735191305,
				"y": 0.8672024004,
				"z": 0.6509703137,
				"element": "H" 
			},
			{
				"x": -3.6988891289,
				"y": -0.9888296406,
				"z": 0.162195737,
				"element": "H" 
			},
			{
				"x": -0.4187855422,
				"y": -3.7728686409,
				"z": -0.0445853349,
				"element": "H" 
			},
			{
				"x": 1.1843047629,
				"y": -1.9153916737,
				"z": 0.442994445,
				"element": "H" 
			}
		],
		 "valence_orbital": [ 
			{
				"type": "occ",
				"energy": -0.31653,
				"method": "rhf"
			},
			{
				"type": "occ",
				"energy": -0.31519,
				"method": "rhf"
			},
			{
				"type": "occ",
				"energy": -0.29515,
				"method": "rhf"
			},
			{
				"type": "occ",
				"energy": -0.29446,
				"method": "rhf"
			},
			{
				"type": "occ",
				"energy": -0.29285,
				"method": "rhf"
			},
			{
				"type": "unocc",
				"energy": -0.10054,
				"method": "rhf"
			},
			{
				"type": "unocc",
				"energy": -0.06659,
				"method": "rhf"
			},
			{
				"type": "unocc",
				"energy": -0.0423,
				"method": "rhf"
			},
			{
				"type": "unocc",
				"energy": 0.01403,
				"method": "rhf"
			},
			{
				"type": "unocc",
				"energy": 0.05615,
				"method": "rhf"
			}
		],
		"cosmo_sigma_profile": { 
			"-0.025": 0.0,
			"-0.024": 0.0,
			"-0.023": 0.0,
			"-0.022": 0.0,
			"-0.021": 0.0,
			"-0.02": 0.0,
			"-0.019": 0.0,
			"-0.018": 0.0,
			"-0.017": 0.0,
			"-0.016": 0.0,
			"-0.015": 0.0,
			"-0.014": 0.0,
			"-0.013": 0.0,
			"-0.012": 0.0,
			"-0.011": 0.0,
			"-0.01": 0.0,
			"-0.009": 1.80450209387,
			"-0.008": 5.03429809424,
			"-0.007": 7.06433241469,
			"-0.006": 9.81167107288,
			"-0.005": 11.0315529342,
			"-0.004": 19.4615426676,
			"-0.003": 25.1788824413,
			"-0.002": 26.9612991547,
			"-0.001": 35.9858415619,
			"0.0": 35.4009752083,
			"0.001": 21.2077019342,
			"0.002": 15.116919813,
			"0.003": 17.4782517436,
			"0.004": 11.125342053,
			"0.005": 4.60609922019,
			"0.006": 4.70564151287,
			"0.007": 8.81617338642,
			"0.008": 10.8493393992,
			"0.009": 4.37529436175,
			"0.01": 2.24388104305,
			"0.011": 3.76497917178,
			"0.012": 1.04055637721,
			"0.013": 0.0,
			"0.014": 0.0,
			"0.015": 0.0,
			"0.016": 0.0,
			"0.017": 0.0,
			"0.018": 0.0,
			"0.019": 0.0,
			"0.02": 0.0,
			"0.021": 0.0,
			"0.022": 0.0,
			"0.023": 0.0,
			"0.024": 0.0,
			"0.025": 0.0
		}
	}
}
