{
	 "smiles": "CCCCCCCCCCCCCCCC(OC)OC", 
	 "Tm": 283.15, 
	 "num_atms": 58, 
	 "gaussian": { 
		 "optdone": 1, 
		 "sigma_profile": "yes", 
		 "theory": "DFT", 
		 "functional": "B3LYP", 
		 "basiset": "6-31G**", 
		 "properties": { 
			 "R2extent": 11679.2198, 
			 "electric_dipole_moment_norm": 0.34843020822, 
			 "electric_quadrupole_moment_norm": 6.20757464393, 
			 "total_energy": -859.291351211, 
			 "HOMO_LUMO_gap": 0.32357, 
			 "cosmo_polarized_energy": -5.32, 
			 "cosmo_cavitation_energy": 56.26, 
			 "cosmo_dispersion_energy": -36.43, 
			 "cosmo_repulsion_energy": 2.99, 
			 "cosmo_total_nonelectrostatic_energy": 22.83, 
			 "SMD_solvation_energy": 8.46 
		},
		"coords": [
			{
				"x": -3.1266376446,
				"y": -4.0182738644,
				"z": -0.1769984504,
				"element": "C" 
			},
			{
				"x": -1.700459204,
				"y": -4.3866843473,
				"z": 0.2487905592,
				"element": "C" 
			},
			{
				"x": -1.542545417,
				"y": -4.6793051281,
				"z": 1.7517176566,
				"element": "C" 
			},
			{
				"x": -1.8415246057,
				"y": -3.5052889107,
				"z": 2.7011879931,
				"element": "C" 
			},
			{
				"x": -0.8907337989,
				"y": -2.3085993965,
				"z": 2.5466551584,
				"element": "C" 
			},
			{
				"x": -1.0673467675,
				"y": -1.2149505211,
				"z": 3.6151989125,
				"element": "C" 
			},
			{
				"x": -2.437557425,
				"y": -0.5106399724,
				"z": 3.6363309799,
				"element": "C" 
			},
			{
				"x": -2.8358352332,
				"y": 0.2250289966,
				"z": 2.3447833794,
				"element": "C" 
			},
			{
				"x": -1.9121125214,
				"y": 1.3881408227,
				"z": 1.9554870429,
				"element": "C" 
			},
			{
				"x": -2.3981046418,
				"y": 2.1470117929,
				"z": 0.7125324349,
				"element": "C" 
			},
			{
				"x": -1.5534941172,
				"y": 3.3784162502,
				"z": 0.3390954721,
				"element": "C" 
			},
			{
				"x": -0.0902112731,
				"y": 3.1029659065,
				"z": -0.0507205952,
				"element": "C" 
			},
			{
				"x": 0.0868208733,
				"y": 2.2472453242,
				"z": -1.3126470487,
				"element": "C" 
			},
			{
				"x": 1.5561397134,
				"y": 2.0648630478,
				"z": -1.713849157,
				"element": "C" 
			},
			{
				"x": 1.7364775273,
				"y": 1.2139405564,
				"z": -2.9770398344,
				"element": "C" 
			},
			{
				"x": 3.2023003716,
				"y": 1.0381972344,
				"z": -3.3715577501,
				"element": "C" 
			},
			{
				"x": 3.8184504961,
				"y": 0.2638263922,
				"z": -2.3663199972,
				"element": "O" 
			},
			{
				"x": 5.2357487388,
				"y": 0.2347303928,
				"z": -2.4521667392,
				"element": "C" 
			},
			{
				"x": 3.394477687,
				"y": 0.4890567159,
				"z": -4.6627269087,
				"element": "O" 
			},
			{
				"x": 2.8279183127,
				"y": -0.7983587373,
				"z": -4.8763998897,
				"element": "C" 
			},
			{
				"x": -3.4654432227,
				"y": -3.0866445018,
				"z": 0.2884529989,
				"element": "H" 
			},
			{
				"x": -3.8380783002,
				"y": -4.8039678414,
				"z": 0.1036302106,
				"element": "H" 
			},
			{
				"x": -3.1921484003,
				"y": -3.8837623679,
				"z": -1.261827886,
				"element": "H" 
			},
			{
				"x": -1.3815245924,
				"y": -5.2765032225,
				"z": -0.3091707767,
				"element": "H" 
			},
			{
				"x": -1.0115814894,
				"y": -3.586167167,
				"z": -0.0495518842,
				"element": "H" 
			},
			{
				"x": -0.5168087803,
				"y": -5.0276407539,
				"z": 1.9358806855,
				"element": "H" 
			},
			{
				"x": -2.199709438,
				"y": -5.5198673359,
				"z": 2.0146881667,
				"element": "H" 
			},
			{
				"x": -2.8802493154,
				"y": -3.178814832,
				"z": 2.5667044086,
				"element": "H" 
			},
			{
				"x": -1.7772852154,
				"y": -3.87312636,
				"z": 3.7347975056,
				"element": "H" 
			},
			{
				"x": 0.1445828027,
				"y": -2.6738866543,
				"z": 2.5953730985,
				"element": "H" 
			},
			{
				"x": -1.0026511645,
				"y": -1.8684994259,
				"z": 1.5476334829,
				"element": "H" 
			},
			{
				"x": -0.2760390983,
				"y": -0.4658447502,
				"z": 3.4852074408,
				"element": "H" 
			},
			{
				"x": -0.8954165971,
				"y": -1.6597488865,
				"z": 4.6050933022,
				"element": "H" 
			},
			{
				"x": -3.2182712939,
				"y": -1.2431884966,
				"z": 3.877300506,
				"element": "H" 
			},
			{
				"x": -2.4404037711,
				"y": 0.2096881682,
				"z": 4.4659852828,
				"element": "H" 
			},
			{
				"x": -3.8564452671,
				"y": 0.6121552632,
				"z": 2.4693380112,
				"element": "H" 
			},
			{
				"x": -2.8900721082,
				"y": -0.487258171,
				"z": 1.5098682525,
				"element": "H" 
			},
			{
				"x": -0.8966517749,
				"y": 1.0105976394,
				"z": 1.7835821499,
				"element": "H" 
			},
			{
				"x": -1.8366048048,
				"y": 2.0883357119,
				"z": 2.8006910035,
				"element": "H" 
			},
			{
				"x": -2.4469466162,
				"y": 1.4543052822,
				"z": -0.1384836759,
				"element": "H" 
			},
			{
				"x": -3.4315181443,
				"y": 2.4782619975,
				"z": 0.8838082161,
				"element": "H" 
			},
			{
				"x": -1.5641448087,
				"y": 4.0799311895,
				"z": 1.1846125986,
				"element": "H" 
			},
			{
				"x": -2.0452541089,
				"y": 3.9015064537,
				"z": -0.4926566068,
				"element": "H" 
			},
			{
				"x": 0.4377852178,
				"y": 2.626568715,
				"z": 0.7860403138,
				"element": "H" 
			},
			{
				"x": 0.411487326,
				"y": 4.067805563,
				"z": -0.2067389714,
				"element": "H" 
			},
			{
				"x": -0.465243743,
				"y": 2.7098306876,
				"z": -2.1439021059,
				"element": "H" 
			},
			{
				"x": -0.3662563864,
				"y": 1.2583089888,
				"z": -1.161748798,
				"element": "H" 
			},
			{
				"x": 2.1104048155,
				"y": 1.5971446712,
				"z": -0.8917376054,
				"element": "H" 
			},
			{
				"x": 2.0134467761,
				"y": 3.0524006228,
				"z": -1.8718341472,
				"element": "H" 
			},
			{
				"x": 1.2892033329,
				"y": 0.2253527048,
				"z": -2.819234763,
				"element": "H" 
			},
			{
				"x": 1.2169011857,
				"y": 1.6759702617,
				"z": -3.8254866737,
				"element": "H" 
			},
			{
				"x": 3.6964088568,
				"y": 2.0203636043,
				"z": -3.4415901043,
				"element": "H" 
			},
			{
				"x": 5.6622389526,
				"y": 1.2434443067,
				"z": -2.3449493525,
				"element": "H" 
			},
			{
				"x": 5.5917628837,
				"y": -0.3901936198,
				"z": -1.6300133835,
				"element": "H" 
			},
			{
				"x": 5.5758566601,
				"y": -0.1870646532,
				"z": -3.4050572821,
				"element": "H" 
			},
			{
				"x": 3.255003774,
				"y": -1.1732757204,
				"z": -5.8096286269,
				"element": "H" 
			},
			{
				"x": 1.7358102511,
				"y": -0.7565744403,
				"z": -4.9848279275,
				"element": "H" 
			},
			{
				"x": 3.0777845358,
				"y": -1.4897651854,
				"z": -4.0633002825,
				"element": "H" 
			}
		],
		 "valence_orbital": [ 
			{
				"type": "occ",
				"energy": -0.29877,
				"method": "rhf"
			},
			{
				"type": "occ",
				"energy": -0.29437,
				"method": "rhf"
			},
			{
				"type": "occ",
				"energy": -0.28941,
				"method": "rhf"
			},
			{
				"type": "occ",
				"energy": -0.26692,
				"method": "rhf"
			},
			{
				"type": "occ",
				"energy": -0.25724,
				"method": "rhf"
			},
			{
				"type": "unocc",
				"energy": 0.06633,
				"method": "rhf"
			},
			{
				"type": "unocc",
				"energy": 0.08594,
				"method": "rhf"
			},
			{
				"type": "unocc",
				"energy": 0.09725,
				"method": "rhf"
			},
			{
				"type": "unocc",
				"energy": 0.10199,
				"method": "rhf"
			},
			{
				"type": "unocc",
				"energy": 0.10636,
				"method": "rhf"
			}
		],
		"cosmo_sigma_profile": { 
			"-0.025": 0.0,
			"-0.024": 0.0,
			"-0.023": 0.0,
			"-0.022": 0.0,
			"-0.021": 0.0,
			"-0.02": 0.0,
			"-0.019": 0.0,
			"-0.018": 0.0,
			"-0.017": 0.0,
			"-0.016": 0.0,
			"-0.015": 0.0,
			"-0.014": 0.0,
			"-0.013": 0.0,
			"-0.012": 0.0,
			"-0.011": 0.0,
			"-0.01": 0.0,
			"-0.009": 0.0,
			"-0.008": 0.0,
			"-0.007": 0.0,
			"-0.006": 0.0359669934259,
			"-0.005": 3.34917864378,
			"-0.004": 12.6789264561,
			"-0.003": 22.0674340381,
			"-0.002": 62.5196627085,
			"-0.001": 97.241931396,
			"0.0": 90.5556696956,
			"0.001": 77.6801179555,
			"0.002": 34.9536838142,
			"0.003": 4.13232880351,
			"0.004": 3.49087245795,
			"0.005": 3.62794696674,
			"0.006": 2.75720816386,
			"0.007": 2.81069268952,
			"0.008": 2.60136995064,
			"0.009": 1.87597609451,
			"0.01": 1.74956822106,
			"0.011": 2.02733192363,
			"0.012": 1.75776782418,
			"0.013": 1.9108209031,
			"0.014": 0.292674843968,
			"0.015": 0.0,
			"0.016": 0.0,
			"0.017": 0.0,
			"0.018": 0.0,
			"0.019": 0.0,
			"0.02": 0.0,
			"0.021": 0.0,
			"0.022": 0.0,
			"0.023": 0.0,
			"0.024": 0.0,
			"0.025": 0.0
		}
	}
}
