{
	 "smiles": "NC(=O)NC(CC(O)=O)C1=CC=C(Cl)C=C1", 
	 "Tm": 472.15, 
	 "num_atms": 27, 
	 "gaussian": { 
		 "optdone": 1, 
		 "sigma_profile": "yes", 
		 "theory": "DFT", 
		 "functional": "B3LYP", 
		 "basiset": "6-31G**", 
		 "properties": { 
			 "R2extent": 5761.1104, 
			 "electric_dipole_moment_norm": 5.45610254028, 
			 "electric_quadrupole_moment_norm": 12.0109720548, 
			 "total_energy": -1183.09771395, 
			 "HOMO_LUMO_gap": 0.22337, 
			 "cosmo_polarized_energy": -23.83, 
			 "cosmo_cavitation_energy": 33.19, 
			 "cosmo_dispersion_energy": -23.64, 
			 "cosmo_repulsion_energy": 1.9, 
			 "cosmo_total_nonelectrostatic_energy": 11.45, 
			 "SMD_solvation_energy": 6.4 
		},
		"coords": [
			{
				"x": -0.2850902151,
				"y": -2.0721226773,
				"z": -2.8599359143,
				"element": "N" 
			},
			{
				"x": -0.6010215999,
				"y": -2.0114842541,
				"z": -1.5095914567,
				"element": "C" 
			},
			{
				"x": -1.6196267275,
				"y": -2.5286851476,
				"z": -1.0571975092,
				"element": "O" 
			},
			{
				"x": 0.3218906441,
				"y": -1.3164379356,
				"z": -0.7549424894,
				"element": "N" 
			},
			{
				"x": 0.1444401001,
				"y": -0.9672739784,
				"z": 0.6630412786,
				"element": "C" 
			},
			{
				"x": -0.2773020597,
				"y": -2.1903681028,
				"z": 1.4979745159,
				"element": "C" 
			},
			{
				"x": 0.096462394,
				"y": -2.0152440113,
				"z": 2.9652619545,
				"element": "C" 
			},
			{
				"x": -0.5621526927,
				"y": -2.8246422068,
				"z": 3.8319235034,
				"element": "O" 
			},
			{
				"x": 0.9442166447,
				"y": -1.2575872864,
				"z": 3.3721732138,
				"element": "O" 
			},
			{
				"x": -0.750624865,
				"y": 0.2485268798,
				"z": 0.9003297301,
				"element": "C" 
			},
			{
				"x": -2.056707362,
				"y": 0.3183835443,
				"z": 0.3914912818,
				"element": "C" 
			},
			{
				"x": -2.8527878627,
				"y": 1.4395376235,
				"z": 0.6210187784,
				"element": "C" 
			},
			{
				"x": -2.3423731798,
				"y": 2.4983153362,
				"z": 1.3724912725,
				"element": "C" 
			},
			{
				"x": -3.3443459995,
				"y": 3.9155035108,
				"z": 1.6620559129,
				"element": "Cl" 
			},
			{
				"x": -1.0539943648,
				"y": 2.4495229494,
				"z": 1.8989026726,
				"element": "C" 
			},
			{
				"x": -0.2669080317,
				"y": 1.3225222158,
				"z": 1.657147173,
				"element": "C" 
			},
			{
				"x": 0.6895126133,
				"y": -2.0670807245,
				"z": -3.1268011101,
				"element": "H" 
			},
			{
				"x": -0.8550303919,
				"y": -2.7364807595,
				"z": -3.3637335358,
				"element": "H" 
			},
			{
				"x": 0.9111979208,
				"y": -0.6735935343,
				"z": -1.266479431,
				"element": "H" 
			},
			{
				"x": 1.1444064201,
				"y": -0.70381706,
				"z": 1.0189648111,
				"element": "H" 
			},
			{
				"x": -1.3426319866,
				"y": -2.3970112585,
				"z": 1.3750960707,
				"element": "H" 
			},
			{
				"x": 0.2557070533,
				"y": -3.0777599184,
				"z": 1.1324663789,
				"element": "H" 
			},
			{
				"x": -1.226283232,
				"y": -3.3472164695,
				"z": 3.3599265511,
				"element": "H" 
			},
			{
				"x": -2.4530392366,
				"y": -0.5104083032,
				"z": -0.1860523148,
				"element": "H" 
			},
			{
				"x": -3.8604442793,
				"y": 1.4920598913,
				"z": 0.2233839715,
				"element": "H" 
			},
			{
				"x": -0.6724285523,
				"y": 3.2765410358,
				"z": 2.4873607974,
				"element": "H" 
			},
			{
				"x": 0.7312588486,
				"y": 1.2713006413,
				"z": 2.0816238931,
				"element": "H" 
			}
		],
		 "valence_orbital": [ 
			{
				"type": "occ",
				"energy": -0.27805,
				"method": "rhf"
			},
			{
				"type": "occ",
				"energy": -0.27129,
				"method": "rhf"
			},
			{
				"type": "occ",
				"energy": -0.26308,
				"method": "rhf"
			},
			{
				"type": "occ",
				"energy": -0.25888,
				"method": "rhf"
			},
			{
				"type": "occ",
				"energy": -0.23948,
				"method": "rhf"
			},
			{
				"type": "unocc",
				"energy": -0.01611,
				"method": "rhf"
			},
			{
				"type": "unocc",
				"energy": -0.00997,
				"method": "rhf"
			},
			{
				"type": "unocc",
				"energy": 0.00688,
				"method": "rhf"
			},
			{
				"type": "unocc",
				"energy": 0.03282,
				"method": "rhf"
			},
			{
				"type": "unocc",
				"energy": 0.03914,
				"method": "rhf"
			}
		],
		"cosmo_sigma_profile": { 
			"-0.025": 0.0,
			"-0.024": 0.0,
			"-0.023": 0.0,
			"-0.022": 0.0,
			"-0.021": 0.0,
			"-0.02": 0.00902783954092,
			"-0.019": 0.732293443942,
			"-0.018": 1.38015651717,
			"-0.017": 1.06882474128,
			"-0.016": 0.809250184813,
			"-0.015": 1.06833595907,
			"-0.014": 4.3653866017,
			"-0.013": 4.73482483092,
			"-0.012": 5.41094491154,
			"-0.011": 3.51192415398,
			"-0.01": 4.35270926181,
			"-0.009": 4.04560261076,
			"-0.008": 4.52643597683,
			"-0.007": 9.13055261615,
			"-0.006": 11.0450415098,
			"-0.005": 11.1810743156,
			"-0.004": 10.3523639764,
			"-0.003": 10.0288086266,
			"-0.002": 12.5033580782,
			"-0.001": 12.7220466893,
			"0.0": 15.3096840831,
			"0.001": 15.7071889486,
			"0.002": 19.4127464007,
			"0.003": 20.2942740553,
			"0.004": 22.8282552578,
			"0.005": 14.3766362994,
			"0.006": 4.75019603665,
			"0.007": 4.49574675515,
			"0.008": 4.91937202412,
			"0.009": 5.1510537238,
			"0.01": 6.14166076807,
			"0.011": 5.76252789121,
			"0.012": 5.58944426874,
			"0.013": 3.24499945335,
			"0.014": 2.87680932636,
			"0.015": 1.27546565218,
			"0.016": 0.0,
			"0.017": 0.0,
			"0.018": 0.0,
			"0.019": 0.0,
			"0.02": 0.0,
			"0.021": 0.0,
			"0.022": 0.0,
			"0.023": 0.0,
			"0.024": 0.0,
			"0.025": 0.0
		}
	}
}
