{
	 "smiles": "BrCC(Br)C1CCC(Br)C(Br)C1", 
	 "Tm": 343.15, 
	 "num_atms": 24, 
	 "gaussian": { 
		 "optdone": 1, 
		 "sigma_profile": "yes", 
		 "theory": "DFT", 
		 "functional": "B3LYP", 
		 "basiset": "6-31G**", 
		 "properties": { 
			 "R2extent": 8939.8177, 
			 "electric_dipole_moment_norm": 2.37826959574, 
			 "electric_quadrupole_moment_norm": 13.355922572, 
			 "total_energy": -10597.7201437, 
			 "HOMO_LUMO_gap": 0.22196, 
			 "cosmo_polarized_energy": -10.05, 
			 "cosmo_cavitation_energy": 33.0, 
			 "cosmo_dispersion_energy": -24.71, 
			 "cosmo_repulsion_energy": 1.97, 
			 "cosmo_total_nonelectrostatic_energy": 10.26, 
			 "SMD_solvation_energy": 0.26 
		},
		"coords": [
			{
				"x": -1.0975087316,
				"y": -4.775928299,
				"z": -0.0568442787,
				"element": "Br" 
			},
			{
				"x": -1.5493351108,
				"y": -2.8686792379,
				"z": -0.2600423629,
				"element": "C" 
			},
			{
				"x": -0.4908796162,
				"y": -2.0873150882,
				"z": -1.024347132,
				"element": "C" 
			},
			{
				"x": -0.5633184365,
				"y": -2.5823038948,
				"z": -2.9569012559,
				"element": "Br" 
			},
			{
				"x": -0.6070899418,
				"y": -0.555815216,
				"z": -0.8769330148,
				"element": "C" 
			},
			{
				"x": -2.0151071899,
				"y": -0.0004327636,
				"z": -1.1441388235,
				"element": "C" 
			},
			{
				"x": -2.0393264939,
				"y": 1.5430528168,
				"z": -1.1211203744,
				"element": "C" 
			},
			{
				"x": -1.0608256843,
				"y": 2.1671262948,
				"z": -0.1091851582,
				"element": "C" 
			},
			{
				"x": 0.6439617493,
				"y": 2.7659012483,
				"z": -1.0176734452,
				"element": "Br" 
			},
			{
				"x": -0.6278516035,
				"y": 1.2273997468,
				"z": 1.0040311666,
				"element": "C" 
			},
			{
				"x": -2.246860801,
				"y": 0.9548313113,
				"z": 2.1844210684,
				"element": "Br" 
			},
			{
				"x": -0.0679750657,
				"y": -0.1171492281,
				"z": 0.5142383174,
				"element": "C" 
			},
			{
				"x": -1.6474431509,
				"y": -2.4904577265,
				"z": 0.7585895061,
				"element": "H" 
			},
			{
				"x": -2.5192880808,
				"y": -2.8402938368,
				"z": -0.7519522608,
				"element": "H" 
			},
			{
				"x": 0.506322707,
				"y": -2.4093833066,
				"z": -0.7213770344,
				"element": "H" 
			},
			{
				"x": 0.0625222967,
				"y": -0.1284408653,
				"z": -1.6293908786,
				"element": "H" 
			},
			{
				"x": -2.712367425,
				"y": -0.3796905203,
				"z": -0.3907134102,
				"element": "H" 
			},
			{
				"x": -2.3673201537,
				"y": -0.3536774375,
				"z": -2.1177575751,
				"element": "H" 
			},
			{
				"x": -3.046806806,
				"y": 1.8816357384,
				"z": -0.8572379105,
				"element": "H" 
			},
			{
				"x": -1.8246286718,
				"y": 1.9468212259,
				"z": -2.1129080284,
				"element": "H" 
			},
			{
				"x": -1.4396645011,
				"y": 3.1020784628,
				"z": 0.296885258,
				"element": "H" 
			},
			{
				"x": 0.0643082972,
				"y": 1.7183106423,
				"z": 1.6842520512,
				"element": "H" 
			},
			{
				"x": -0.25842677,
				"y": -0.8703751526,
				"z": 1.2826695107,
				"element": "H" 
			},
			{
				"x": 1.0205091844,
				"y": -0.0127149141,
				"z": 0.4491360654,
				"element": "H" 
			}
		],
		 "valence_orbital": [ 
			{
				"type": "occ",
				"energy": -0.28608,
				"method": "rhf"
			},
			{
				"type": "occ",
				"energy": -0.28459,
				"method": "rhf"
			},
			{
				"type": "occ",
				"energy": -0.2809,
				"method": "rhf"
			},
			{
				"type": "occ",
				"energy": -0.2784,
				"method": "rhf"
			},
			{
				"type": "occ",
				"energy": -0.27133,
				"method": "rhf"
			},
			{
				"type": "unocc",
				"energy": -0.04937,
				"method": "rhf"
			},
			{
				"type": "unocc",
				"energy": -0.01907,
				"method": "rhf"
			},
			{
				"type": "unocc",
				"energy": -0.00744,
				"method": "rhf"
			},
			{
				"type": "unocc",
				"energy": 0.00123,
				"method": "rhf"
			},
			{
				"type": "unocc",
				"energy": 0.07481,
				"method": "rhf"
			}
		],
		"cosmo_sigma_profile": { 
			"-0.025": 0.0,
			"-0.024": 0.0,
			"-0.023": 0.0,
			"-0.022": 0.0,
			"-0.021": 0.0,
			"-0.02": 0.0,
			"-0.019": 0.0,
			"-0.018": 0.0,
			"-0.017": 0.0,
			"-0.016": 0.0,
			"-0.015": 0.0,
			"-0.014": 0.0,
			"-0.013": 0.0,
			"-0.012": 0.0,
			"-0.011": 0.0,
			"-0.01": 0.00516343841998,
			"-0.009": 0.85228482845,
			"-0.008": 5.78968756557,
			"-0.007": 12.4953023295,
			"-0.006": 12.654792429,
			"-0.005": 15.5260801476,
			"-0.004": 17.3811398132,
			"-0.003": 20.69828008,
			"-0.002": 24.143195851,
			"-0.001": 18.8338569512,
			"0.0": 17.1760732714,
			"0.001": 13.6597941904,
			"0.002": 16.3595617419,
			"0.003": 18.5908268289,
			"0.004": 22.8443663846,
			"0.005": 27.6866126212,
			"0.006": 22.4178577865,
			"0.007": 3.556418206,
			"0.008": 0.320451656926,
			"0.009": 0.0,
			"0.01": 0.0,
			"0.011": 0.0,
			"0.012": 0.0,
			"0.013": 0.0,
			"0.014": 0.0,
			"0.015": 0.0,
			"0.016": 0.0,
			"0.017": 0.0,
			"0.018": 0.0,
			"0.019": 0.0,
			"0.02": 0.0,
			"0.021": 0.0,
			"0.022": 0.0,
			"0.023": 0.0,
			"0.024": 0.0,
			"0.025": 0.0
		}
	}
}
