{
	 "smiles": "O=CC1=CC2=C(OCO2)C=C1", 
	 "Tm": 309.65, 
	 "num_atms": 17, 
	 "gaussian": { 
		 "optdone": 1, 
		 "sigma_profile": "yes", 
		 "theory": "DFT", 
		 "functional": "B3LYP", 
		 "basiset": "6-31G**", 
		 "properties": { 
			 "R2extent": 2146.9349, 
			 "electric_dipole_moment_norm": 4.07405461549, 
			 "electric_quadrupole_moment_norm": 10.2672487284, 
			 "total_energy": -534.102170645, 
			 "HOMO_LUMO_gap": 0.16517, 
			 "cosmo_polarized_energy": -9.64, 
			 "cosmo_cavitation_energy": 21.69, 
			 "cosmo_dispersion_energy": -16.5, 
			 "cosmo_repulsion_energy": 1.31, 
			 "cosmo_total_nonelectrostatic_energy": 6.51, 
			 "SMD_solvation_energy": 5.55 
		},
		"coords": [
			{
				"x": 1.670674651,
				"y": 2.4079468945,
				"z": -3.4664277577,
				"element": "O" 
			},
			{
				"x": 1.0285581431,
				"y": 2.2253639195,
				"z": -2.4481413167,
				"element": "C" 
			},
			{
				"x": 0.7979028794,
				"y": 0.9098394812,
				"z": -1.8184810499,
				"element": "C" 
			},
			{
				"x": 0.0304397318,
				"y": 0.8381553568,
				"z": -0.6325944378,
				"element": "C" 
			},
			{
				"x": -0.1549553841,
				"y": -0.4117832566,
				"z": -0.0859310385,
				"element": "C" 
			},
			{
				"x": 0.3870762444,
				"y": -1.5575663613,
				"z": -0.6709024298,
				"element": "C" 
			},
			{
				"x": 0.0541467468,
				"y": -2.6564198286,
				"z": 0.068972045,
				"element": "O" 
			},
			{
				"x": -0.7339343838,
				"y": -2.1782117309,
				"z": 1.1704793235,
				"element": "C" 
			},
			{
				"x": -0.850050881,
				"y": -0.7567700375,
				"z": 1.0473365022,
				"element": "O" 
			},
			{
				"x": 1.1417718802,
				"y": -1.5093085574,
				"z": -1.8323382358,
				"element": "C" 
			},
			{
				"x": 1.3393265498,
				"y": -0.2457273037,
				"z": -2.4004602313,
				"element": "C" 
			},
			{
				"x": 0.5585228104,
				"y": 3.0805683924,
				"z": -1.9115357301,
				"element": "H" 
			},
			{
				"x": -0.3913552648,
				"y": 1.7285252748,
				"z": -0.1771055915,
				"element": "H" 
			},
			{
				"x": -1.7299082422,
				"y": -2.6349470452,
				"z": 1.1287415692,
				"element": "H" 
			},
			{
				"x": -0.2298161796,
				"y": -2.4272397085,
				"z": 2.1118435921,
				"element": "H" 
			},
			{
				"x": 1.554140015,
				"y": -2.4106711456,
				"z": -2.2710849378,
				"element": "H" 
			},
			{
				"x": 1.9195606836,
				"y": -0.1309543438,
				"z": -3.3098702752,
				"element": "H" 
			}
		],
		 "valence_orbital": [ 
			{
				"type": "occ",
				"energy": -0.36506,
				"method": "rhf"
			},
			{
				"type": "occ",
				"energy": -0.32125,
				"method": "rhf"
			},
			{
				"type": "occ",
				"energy": -0.26347,
				"method": "rhf"
			},
			{
				"type": "occ",
				"energy": -0.25114,
				"method": "rhf"
			},
			{
				"type": "occ",
				"energy": -0.22166,
				"method": "rhf"
			},
			{
				"type": "unocc",
				"energy": -0.05649,
				"method": "rhf"
			},
			{
				"type": "unocc",
				"energy": -0.01178,
				"method": "rhf"
			},
			{
				"type": "unocc",
				"energy": 0.05052,
				"method": "rhf"
			},
			{
				"type": "unocc",
				"energy": 0.08769,
				"method": "rhf"
			},
			{
				"type": "unocc",
				"energy": 0.09787,
				"method": "rhf"
			}
		],
		"cosmo_sigma_profile": { 
			"-0.025": 0.0,
			"-0.024": 0.0,
			"-0.023": 0.0,
			"-0.022": 0.0,
			"-0.021": 0.0,
			"-0.02": 0.0,
			"-0.019": 0.0,
			"-0.018": 0.0,
			"-0.017": 0.0,
			"-0.016": 0.0,
			"-0.015": 0.0,
			"-0.014": 0.0,
			"-0.013": 0.0,
			"-0.012": 0.0,
			"-0.011": 0.0,
			"-0.01": 0.0,
			"-0.009": 0.046382606552,
			"-0.008": 9.68717135804,
			"-0.007": 11.8672474758,
			"-0.006": 13.6480412798,
			"-0.005": 10.573935302,
			"-0.004": 8.73393710782,
			"-0.003": 9.19340962309,
			"-0.002": 9.45613327789,
			"-0.001": 9.37559131235,
			"0.0": 10.9509287335,
			"0.001": 14.9300461849,
			"0.002": 16.3663541099,
			"0.003": 12.5298036504,
			"0.004": 4.5398747238,
			"0.005": 3.73962267336,
			"0.006": 3.72830339186,
			"0.007": 4.39032548251,
			"0.008": 5.02066086704,
			"0.009": 3.89799274181,
			"0.01": 2.75324968018,
			"0.011": 3.54375599884,
			"0.012": 4.1116102194,
			"0.013": 1.3642131405,
			"0.014": 0.0717670156293,
			"0.015": 0.0,
			"0.016": 0.0,
			"0.017": 0.0,
			"0.018": 0.0,
			"0.019": 0.0,
			"0.02": 0.0,
			"0.021": 0.0,
			"0.022": 0.0,
			"0.023": 0.0,
			"0.024": 0.0,
			"0.025": 0.0
		}
	}
}
