{
	 "smiles": "CC(Cl)C(=O)NC1CCC(C)CC1", 
	 "Tm": 409.15, 
	 "num_atms": 31, 
	 "gaussian": { 
		 "optdone": 1, 
		 "sigma_profile": "yes", 
		 "theory": "DFT", 
		 "functional": "B3LYP", 
		 "basiset": "6-31G**", 
		 "properties": { 
			 "R2extent": 5887.9514, 
			 "electric_dipole_moment_norm": 1.8925937599, 
			 "electric_quadrupole_moment_norm": 6.73364151927, 
			 "total_energy": -982.128630857, 
			 "HOMO_LUMO_gap": 0.2628, 
			 "cosmo_polarized_energy": -8.73, 
			 "cosmo_cavitation_energy": 32.63, 
			 "cosmo_dispersion_energy": -23.12, 
			 "cosmo_repulsion_energy": 1.85, 
			 "cosmo_total_nonelectrostatic_energy": 11.36, 
			 "SMD_solvation_energy": 4.75 
		},
		"coords": [
			{
				"x": -4.7314287375,
				"y": -2.4069892573,
				"z": -1.7624908292,
				"element": "C" 
			},
			{
				"x": -4.6497654714,
				"y": -1.1297403894,
				"z": -0.9330469292,
				"element": "C" 
			},
			{
				"x": -4.5608439377,
				"y": 0.3342912226,
				"z": -2.0462656858,
				"element": "Cl" 
			},
			{
				"x": -3.5082617555,
				"y": -1.2116759159,
				"z": 0.097169308,
				"element": "C" 
			},
			{
				"x": -3.5781988644,
				"y": -2.1107167338,
				"z": 0.9314388334,
				"element": "O" 
			},
			{
				"x": -2.495652346,
				"y": -0.3214931983,
				"z": 0.0185624537,
				"element": "N" 
			},
			{
				"x": -1.3658646634,
				"y": -0.3515611219,
				"z": 0.9561097441,
				"element": "C" 
			},
			{
				"x": -1.698900568,
				"y": 0.3766498845,
				"z": 2.2747651215,
				"element": "C" 
			},
			{
				"x": -1.8111511192,
				"y": 1.8976255181,
				"z": 2.0875133338,
				"element": "C" 
			},
			{
				"x": -0.5513042964,
				"y": 2.5205759335,
				"z": 1.444657905,
				"element": "C" 
			},
			{
				"x": 0.6450838659,
				"y": 2.5591105903,
				"z": 2.4102312347,
				"element": "C" 
			},
			{
				"x": -0.2195842317,
				"y": 1.7862497736,
				"z": 0.1258686108,
				"element": "C" 
			},
			{
				"x": -0.1180608463,
				"y": 0.2588208759,
				"z": 0.2952061894,
				"element": "C" 
			},
			{
				"x": -3.8417244124,
				"y": -2.5232756918,
				"z": -2.3874462059,
				"element": "H" 
			},
			{
				"x": -5.6142485877,
				"y": -2.3967327016,
				"z": -2.4051555061,
				"element": "H" 
			},
			{
				"x": -4.7922560185,
				"y": -3.2542151861,
				"z": -1.0748352321,
				"element": "H" 
			},
			{
				"x": -5.5706839878,
				"y": -0.9815049242,
				"z": -0.3666390115,
				"element": "H" 
			},
			{
				"x": -2.5462275252,
				"y": 0.3993154383,
				"z": -0.6866456435,
				"element": "H" 
			},
			{
				"x": -1.1917665119,
				"y": -1.4090974026,
				"z": 1.1762304385,
				"element": "H" 
			},
			{
				"x": -0.9102097013,
				"y": 0.1408308691,
				"z": 3.0004197949,
				"element": "H" 
			},
			{
				"x": -2.6279109295,
				"y": -0.034776556,
				"z": 2.6816321602,
				"element": "H" 
			},
			{
				"x": -2.015493383,
				"y": 2.3776612485,
				"z": 3.0522023125,
				"element": "H" 
			},
			{
				"x": -2.6785831509,
				"y": 2.1124106804,
				"z": 1.4489890682,
				"element": "H" 
			},
			{
				"x": -0.7891267528,
				"y": 3.5622912734,
				"z": 1.1897821634,
				"element": "H" 
			},
			{
				"x": 0.3944634875,
				"y": 3.1212296175,
				"z": 3.3164470539,
				"element": "H" 
			},
			{
				"x": 1.5076949546,
				"y": 3.0474058071,
				"z": 1.9434944566,
				"element": "H" 
			},
			{
				"x": 0.9652353023,
				"y": 1.5604686925,
				"z": 2.724715388,
				"element": "H" 
			},
			{
				"x": -0.9957672848,
				"y": 2.0259963115,
				"z": -0.6152447364,
				"element": "H" 
			},
			{
				"x": 0.7176393424,
				"y": 2.1705338765,
				"z": -0.294783669,
				"element": "H" 
			},
			{
				"x": 0.7451885359,
				"y": 0.0158668532,
				"z": 0.9255432028,
				"element": "H" 
			},
			{
				"x": 0.0613095948,
				"y": -0.2216553877,
				"z": -0.6738253248,
				"element": "H" 
			}
		],
		 "valence_orbital": [ 
			{
				"type": "occ",
				"energy": -0.30759,
				"method": "rhf"
			},
			{
				"type": "occ",
				"energy": -0.30326,
				"method": "rhf"
			},
			{
				"type": "occ",
				"energy": -0.30054,
				"method": "rhf"
			},
			{
				"type": "occ",
				"energy": -0.25492,
				"method": "rhf"
			},
			{
				"type": "occ",
				"energy": -0.25042,
				"method": "rhf"
			},
			{
				"type": "unocc",
				"energy": 0.01238,
				"method": "rhf"
			},
			{
				"type": "unocc",
				"energy": 0.02348,
				"method": "rhf"
			},
			{
				"type": "unocc",
				"energy": 0.06504,
				"method": "rhf"
			},
			{
				"type": "unocc",
				"energy": 0.0853,
				"method": "rhf"
			},
			{
				"type": "unocc",
				"energy": 0.10941,
				"method": "rhf"
			}
		],
		"cosmo_sigma_profile": { 
			"-0.025": 0.0,
			"-0.024": 0.0,
			"-0.023": 0.0,
			"-0.022": 0.0,
			"-0.021": 0.0,
			"-0.02": 0.0,
			"-0.019": 0.0,
			"-0.018": 0.0,
			"-0.017": 0.0,
			"-0.016": 0.0,
			"-0.015": 0.0,
			"-0.014": 0.0,
			"-0.013": 0.0,
			"-0.012": 0.0,
			"-0.011": 0.0,
			"-0.01": 0.0383630652493,
			"-0.009": 1.16016862409,
			"-0.008": 3.49103752656,
			"-0.007": 3.55958795397,
			"-0.006": 3.3230805764,
			"-0.005": 7.07593332651,
			"-0.004": 14.2154020374,
			"-0.003": 25.3179397158,
			"-0.002": 34.144832654,
			"-0.001": 40.0467336798,
			"0.0": 39.843681425,
			"0.001": 27.6359160445,
			"0.002": 11.4815069537,
			"0.003": 5.86485205795,
			"0.004": 6.18222187929,
			"0.005": 7.3205178543,
			"0.006": 7.70887023744,
			"0.007": 2.07616053085,
			"0.008": 0.854478652504,
			"0.009": 1.020756695,
			"0.01": 1.97558239827,
			"0.011": 1.80610151432,
			"0.012": 1.12848070789,
			"0.013": 3.91117434485,
			"0.014": 3.39476763286,
			"0.015": 0.052102095435,
			"0.016": 0.0,
			"0.017": 0.0,
			"0.018": 0.0,
			"0.019": 0.0,
			"0.02": 0.0,
			"0.021": 0.0,
			"0.022": 0.0,
			"0.023": 0.0,
			"0.024": 0.0,
			"0.025": 0.0
		}
	}
}
