{
	 "smiles": "O=C(NNC(=O)C1=CC=CC=C1)C1=CC=CC=C1", 
	 "Tm": 512.15, 
	 "num_atms": 30, 
	 "gaussian": { 
		 "optdone": 1, 
		 "sigma_profile": "yes", 
		 "theory": "DFT", 
		 "functional": "B3LYP", 
		 "basiset": "6-31G**", 
		 "properties": { 
			 "R2extent": 5582.7557, 
			 "electric_dipole_moment_norm": 5.88442219254, 
			 "electric_quadrupole_moment_norm": 13.6082659696, 
			 "total_energy": -800.667472148, 
			 "HOMO_LUMO_gap": 0.19656, 
			 "cosmo_polarized_energy": -18.99, 
			 "cosmo_cavitation_energy": 35.59, 
			 "cosmo_dispersion_energy": -24.63, 
			 "cosmo_repulsion_energy": 1.9, 
			 "cosmo_total_nonelectrostatic_energy": 12.86, 
			 "SMD_solvation_energy": 7.57 
		},
		"coords": [
			{
				"x": -1.322112029,
				"y": -1.6516817788,
				"z": 3.3572990667,
				"element": "O" 
			},
			{
				"x": -1.3144946479,
				"y": -1.4188719287,
				"z": 2.1599908171,
				"element": "C" 
			},
			{
				"x": -1.3806881177,
				"y": -0.0848819313,
				"z": 1.7251219835,
				"element": "N" 
			},
			{
				"x": -0.7528614218,
				"y": 0.2988822192,
				"z": 0.5410226239,
				"element": "N" 
			},
			{
				"x": 0.5515833674,
				"y": 0.7790445133,
				"z": 0.6090767385,
				"element": "C" 
			},
			{
				"x": 1.1811809095,
				"y": 0.7634176299,
				"z": 1.6559033201,
				"element": "O" 
			},
			{
				"x": 1.101753891,
				"y": 1.3103684596,
				"z": -0.6774702056,
				"element": "C" 
			},
			{
				"x": 2.1689469559,
				"y": 2.2155522523,
				"z": -0.6005617288,
				"element": "C" 
			},
			{
				"x": 2.7223327288,
				"y": 2.7460202419,
				"z": -1.7632304218,
				"element": "C" 
			},
			{
				"x": 2.2231903232,
				"y": 2.36646771,
				"z": -3.0123273226,
				"element": "C" 
			},
			{
				"x": 1.1739262066,
				"y": 1.4488588754,
				"z": -3.0960403164,
				"element": "C" 
			},
			{
				"x": 0.6132240681,
				"y": 0.9205021332,
				"z": -1.9332754073,
				"element": "C" 
			},
			{
				"x": -1.3217799702,
				"y": -2.506814146,
				"z": 1.1327328881,
				"element": "C" 
			},
			{
				"x": -1.9885031212,
				"y": -2.4028950244,
				"z": -0.0960672651,
				"element": "C" 
			},
			{
				"x": -2.0095399375,
				"y": -3.4841937796,
				"z": -0.9763373977,
				"element": "C" 
			},
			{
				"x": -1.3553358495,
				"y": -4.6720670164,
				"z": -0.6420337343,
				"element": "C" 
			},
			{
				"x": -0.697597083,
				"y": -4.784314791,
				"z": 0.5853468921,
				"element": "C" 
			},
			{
				"x": -0.6926232186,
				"y": -3.7116977636,
				"z": 1.4742200694,
				"element": "C" 
			},
			{
				"x": -1.1719965797,
				"y": 0.5370881324,
				"z": 2.5044824394,
				"element": "H" 
			},
			{
				"x": -1.3683651641,
				"y": 0.7034083419,
				"z": -0.1520462811,
				"element": "H" 
			},
			{
				"x": 2.5481233928,
				"y": 2.4855562727,
				"z": 0.3793547093,
				"element": "H" 
			},
			{
				"x": 3.5444982351,
				"y": 3.4524635405,
				"z": -1.6975873987,
				"element": "H" 
			},
			{
				"x": 2.6574632545,
				"y": 2.7777683968,
				"z": -3.9189973514,
				"element": "H" 
			},
			{
				"x": 0.7993541679,
				"y": 1.1364198861,
				"z": -4.0663117721,
				"element": "H" 
			},
			{
				"x": -0.1744581367,
				"y": 0.176399385,
				"z": -2.0061726644,
				"element": "H" 
			},
			{
				"x": -2.5185281557,
				"y": -1.4913560392,
				"z": -0.3508048245,
				"element": "H" 
			},
			{
				"x": -2.5407684385,
				"y": -3.4022102504,
				"z": -1.9202341198,
				"element": "H" 
			},
			{
				"x": -1.3659105571,
				"y": -5.5105366336,
				"z": -1.3326074335,
				"element": "H" 
			},
			{
				"x": -0.1958159475,
				"y": -5.7098165968,
				"z": 0.8519115165,
				"element": "H" 
			},
			{
				"x": -0.2067991251,
				"y": -3.7871803105,
				"z": 2.4412425804,
				"element": "H" 
			}
		],
		 "valence_orbital": [ 
			{
				"type": "occ",
				"energy": -0.26887,
				"method": "rhf"
			},
			{
				"type": "occ",
				"energy": -0.26313,
				"method": "rhf"
			},
			{
				"type": "occ",
				"energy": -0.26196,
				"method": "rhf"
			},
			{
				"type": "occ",
				"energy": -0.25768,
				"method": "rhf"
			},
			{
				"type": "occ",
				"energy": -0.24537,
				"method": "rhf"
			},
			{
				"type": "unocc",
				"energy": -0.04881,
				"method": "rhf"
			},
			{
				"type": "unocc",
				"energy": -0.03956,
				"method": "rhf"
			},
			{
				"type": "unocc",
				"energy": -0.01824,
				"method": "rhf"
			},
			{
				"type": "unocc",
				"energy": -0.00805,
				"method": "rhf"
			},
			{
				"type": "unocc",
				"energy": 0.03781,
				"method": "rhf"
			}
		],
		"cosmo_sigma_profile": { 
			"-0.025": 0.0,
			"-0.024": 0.0,
			"-0.023": 0.0,
			"-0.022": 0.0,
			"-0.021": 0.0,
			"-0.02": 0.0,
			"-0.019": 0.0,
			"-0.018": 0.0,
			"-0.017": 0.0,
			"-0.016": 0.0,
			"-0.015": 0.768710894775,
			"-0.014": 1.01315582952,
			"-0.013": 1.51355162799,
			"-0.012": 2.32812999014,
			"-0.011": 2.1094400652,
			"-0.01": 2.43844586347,
			"-0.009": 2.79022451194,
			"-0.008": 2.41895566559,
			"-0.007": 6.12483321267,
			"-0.006": 19.4344471457,
			"-0.005": 22.6190061574,
			"-0.004": 23.6339335156,
			"-0.003": 15.8523174021,
			"-0.002": 16.118035056,
			"-0.001": 17.7872796764,
			"0.0": 17.7420096654,
			"0.001": 17.3070438635,
			"0.002": 18.3846284032,
			"0.003": 23.8231960676,
			"0.004": 28.1531369427,
			"0.005": 8.04482162884,
			"0.006": 4.09465244608,
			"0.007": 3.03443789086,
			"0.008": 3.12933916082,
			"0.009": 3.3928921372,
			"0.01": 3.12887534051,
			"0.011": 4.38595961024,
			"0.012": 9.03340924149,
			"0.013": 4.54358551988,
			"0.014": 0.06692796619,
			"0.015": 0.0,
			"0.016": 0.0,
			"0.017": 0.0,
			"0.018": 0.0,
			"0.019": 0.0,
			"0.02": 0.0,
			"0.021": 0.0,
			"0.022": 0.0,
			"0.023": 0.0,
			"0.024": 0.0,
			"0.025": 0.0
		}
	}
}
