{
	 "smiles": "ClC1=NC=CC(CN2CCNC(=O)C2)=C1", 
	 "Tm": 417.15, 
	 "num_atms": 27, 
	 "gaussian": { 
		 "optdone": 1, 
		 "sigma_profile": "yes", 
		 "theory": "DFT", 
		 "functional": "B3LYP", 
		 "basiset": "6-31G**", 
		 "properties": { 
			 "R2extent": 5576.2515, 
			 "electric_dipole_moment_norm": 6.47823934569, 
			 "electric_quadrupole_moment_norm": 16.8971250232, 
			 "total_energy": -1087.96806381, 
			 "HOMO_LUMO_gap": 0.20169, 
			 "cosmo_polarized_energy": -17.72, 
			 "cosmo_cavitation_energy": 31.97, 
			 "cosmo_dispersion_energy": -23.27, 
			 "cosmo_repulsion_energy": 1.85, 
			 "cosmo_total_nonelectrostatic_energy": 10.55, 
			 "SMD_solvation_energy": 2.22 
		},
		"coords": [
			{
				"x": 4.2366725142,
				"y": -1.92877443,
				"z": 2.9095985116,
				"element": "Cl" 
			},
			{
				"x": 3.1259973684,
				"y": -0.9079756481,
				"z": 1.9940007138,
				"element": "C" 
			},
			{
				"x": 3.5688730561,
				"y": -0.4299450938,
				"z": 0.8473083602,
				"element": "N" 
			},
			{
				"x": 2.720779437,
				"y": 0.3440011972,
				"z": 0.1504391294,
				"element": "C" 
			},
			{
				"x": 1.4353595304,
				"y": 0.6589915509,
				"z": 0.5779375364,
				"element": "C" 
			},
			{
				"x": 0.9845758518,
				"y": 0.1412765547,
				"z": 1.7997331462,
				"element": "C" 
			},
			{
				"x": -0.3851571447,
				"y": 0.4935138521,
				"z": 2.3498803566,
				"element": "C" 
			},
			{
				"x": -1.4087179515,
				"y": 0.5954255155,
				"z": 1.3143972988,
				"element": "N" 
			},
			{
				"x": -2.611421555,
				"y": 1.292031063,
				"z": 1.7614497033,
				"element": "C" 
			},
			{
				"x": -3.478663459,
				"y": 1.6127989719,
				"z": 0.5488522607,
				"element": "C" 
			},
			{
				"x": -3.7155459402,
				"y": 0.4020720731,
				"z": -0.2261980508,
				"element": "N" 
			},
			{
				"x": -2.8825622734,
				"y": -0.6806432265,
				"z": -0.2733039274,
				"element": "C" 
			},
			{
				"x": -3.0554197283,
				"y": -1.6127483174,
				"z": -1.0456498999,
				"element": "O" 
			},
			{
				"x": -1.755538873,
				"y": -0.7137307623,
				"z": 0.7569793373,
				"element": "C" 
			},
			{
				"x": 1.8553445288,
				"y": -0.6715437475,
				"z": 2.5258281606,
				"element": "C" 
			},
			{
				"x": 3.0991650333,
				"y": 0.7263699748,
				"z": -0.7949892954,
				"element": "H" 
			},
			{
				"x": 0.7815614086,
				"y": 1.2821830963,
				"z": -0.0217811794,
				"element": "H" 
			},
			{
				"x": -0.3116479758,
				"y": 1.4731167899,
				"z": 2.8402693493,
				"element": "H" 
			},
			{
				"x": -0.658002856,
				"y": -0.2316293456,
				"z": 3.1401800089,
				"element": "H" 
			},
			{
				"x": -2.324210937,
				"y": 2.228338305,
				"z": 2.2502787343,
				"element": "H" 
			},
			{
				"x": -3.1927267364,
				"y": 0.6972000084,
				"z": 2.4923066509,
				"element": "H" 
			},
			{
				"x": -2.9766135168,
				"y": 2.3774570723,
				"z": -0.0604691758,
				"element": "H" 
			},
			{
				"x": -4.4401984149,
				"y": 2.0215582755,
				"z": 0.878938183,
				"element": "H" 
			},
			{
				"x": -4.4219239943,
				"y": 0.4113765182,
				"z": -0.9506957381,
				"element": "H" 
			},
			{
				"x": -2.0714189412,
				"y": -1.4262920962,
				"z": 1.5452019256,
				"element": "H" 
			},
			{
				"x": -0.8875752255,
				"y": -1.1537202905,
				"z": 0.2611066729,
				"element": "H" 
			},
			{
				"x": 1.5642167943,
				"y": -1.1119078607,
				"z": 3.4731012269,
				"element": "H" 
			}
		],
		 "valence_orbital": [ 
			{
				"type": "occ",
				"energy": -0.27492,
				"method": "rhf"
			},
			{
				"type": "occ",
				"energy": -0.26093,
				"method": "rhf"
			},
			{
				"type": "occ",
				"energy": -0.25977,
				"method": "rhf"
			},
			{
				"type": "occ",
				"energy": -0.25156,
				"method": "rhf"
			},
			{
				"type": "occ",
				"energy": -0.23973,
				"method": "rhf"
			},
			{
				"type": "unocc",
				"energy": -0.03804,
				"method": "rhf"
			},
			{
				"type": "unocc",
				"energy": -0.02544,
				"method": "rhf"
			},
			{
				"type": "unocc",
				"energy": 0.02175,
				"method": "rhf"
			},
			{
				"type": "unocc",
				"energy": 0.03527,
				"method": "rhf"
			},
			{
				"type": "unocc",
				"energy": 0.06486,
				"method": "rhf"
			}
		],
		"cosmo_sigma_profile": { 
			"-0.025": 0.0,
			"-0.024": 0.0,
			"-0.023": 0.0,
			"-0.022": 0.0,
			"-0.021": 0.0,
			"-0.02": 0.0,
			"-0.019": 0.0,
			"-0.018": 0.0,
			"-0.017": 0.0,
			"-0.016": 0.0,
			"-0.015": 0.0,
			"-0.014": 0.315965060235,
			"-0.013": 1.41212196632,
			"-0.012": 1.17185249833,
			"-0.011": 0.885936617038,
			"-0.01": 0.848360632209,
			"-0.009": 1.05823102732,
			"-0.008": 2.29071781872,
			"-0.007": 6.64742442878,
			"-0.006": 13.4190722702,
			"-0.005": 21.8759491898,
			"-0.004": 26.5264962674,
			"-0.003": 26.006010883,
			"-0.002": 18.588595949,
			"-0.001": 14.2369329344,
			"0.0": 19.1921242305,
			"0.001": 19.4352541994,
			"0.002": 11.8169108561,
			"0.003": 10.7719310714,
			"0.004": 13.4735004926,
			"0.005": 9.63579649044,
			"0.006": 4.88603354557,
			"0.007": 3.29595324588,
			"0.008": 3.33243608298,
			"0.009": 2.84632139449,
			"0.01": 2.54850866995,
			"0.011": 2.5649523207,
			"0.012": 1.80768924842,
			"0.013": 3.87857659682,
			"0.014": 7.47278590579,
			"0.015": 2.70077749251,
			"0.016": 0.0635863488144,
			"0.017": 0.0,
			"0.018": 0.0,
			"0.019": 0.0,
			"0.02": 0.0,
			"0.021": 0.0,
			"0.022": 0.0,
			"0.023": 0.0,
			"0.024": 0.0,
			"0.025": 0.0
		}
	}
}
