{
	 "smiles": "CC1=CC=C(C=C1)S(=O)(=O)NC1=C(C=CC=C1)C(O)=O", 
	 "Tm": 505.15, 
	 "num_atms": 33, 
	 "gaussian": { 
		 "optdone": 1, 
		 "sigma_profile": "yes", 
		 "theory": "DFT", 
		 "functional": "B3LYP", 
		 "basiset": "6-31G**", 
		 "properties": { 
			 "R2extent": 7077.7815, 
			 "electric_dipole_moment_norm": 7.25159072618, 
			 "electric_quadrupole_moment_norm": 31.6745197449, 
			 "total_energy": -1295.11053527, 
			 "HOMO_LUMO_gap": 0.17345, 
			 "cosmo_polarized_energy": -21.21, 
			 "cosmo_cavitation_energy": 38.52, 
			 "cosmo_dispersion_energy": -27.36, 
			 "cosmo_repulsion_energy": 2.05, 
			 "cosmo_total_nonelectrostatic_energy": 13.21, 
			 "SMD_solvation_energy": 6.69 
		},
		"coords": [
			{
				"x": -0.8169480018,
				"y": -3.5217114648,
				"z": -2.1162059254,
				"element": "C" 
			},
			{
				"x": -0.0737532394,
				"y": -2.5576571047,
				"z": -1.2235254621,
				"element": "C" 
			},
			{
				"x": -0.5769804301,
				"y": -2.2012639006,
				"z": 0.0335325659,
				"element": "C" 
			},
			{
				"x": 0.1175463469,
				"y": -1.3247522435,
				"z": 0.8682615639,
				"element": "C" 
			},
			{
				"x": 1.3333292523,
				"y": -0.7977213944,
				"z": 0.434879061,
				"element": "C" 
			},
			{
				"x": 1.8640236192,
				"y": -1.1406600237,
				"z": -0.8130856289,
				"element": "C" 
			},
			{
				"x": 1.1560473792,
				"y": -2.0141660923,
				"z": -1.6312441479,
				"element": "C" 
			},
			{
				"x": 2.2386471202,
				"y": 0.3397689037,
				"z": 1.4824561821,
				"element": "S" 
			},
			{
				"x": 3.6675171011,
				"y": 0.1082263292,
				"z": 1.2888904789,
				"element": "O" 
			},
			{
				"x": 1.6188376731,
				"y": 0.3185519489,
				"z": 2.8086332824,
				"element": "O" 
			},
			{
				"x": 1.9973681983,
				"y": 1.8726238527,
				"z": 0.7991335688,
				"element": "N" 
			},
			{
				"x": 0.7901228909,
				"y": 2.5675433247,
				"z": 0.6870470317,
				"element": "C" 
			},
			{
				"x": 0.6395257142,
				"y": 3.542449294,
				"z": -0.3415335388,
				"element": "C" 
			},
			{
				"x": -0.5883813588,
				"y": 4.2199599832,
				"z": -0.4580507841,
				"element": "C" 
			},
			{
				"x": -1.6392675936,
				"y": 3.9902954761,
				"z": 0.4177077744,
				"element": "C" 
			},
			{
				"x": -1.4606614265,
				"y": 3.0689487902,
				"z": 1.4539758364,
				"element": "C" 
			},
			{
				"x": -0.2682737748,
				"y": 2.3710975535,
				"z": 1.5943527977,
				"element": "C" 
			},
			{
				"x": 1.75116063,
				"y": 3.8226487921,
				"z": -1.2939866941,
				"element": "C" 
			},
			{
				"x": 1.6830206292,
				"y": 4.9660288135,
				"z": -2.0152665274,
				"element": "O" 
			},
			{
				"x": 2.7130847683,
				"y": 3.0916395292,
				"z": -1.4651906383,
				"element": "O" 
			},
			{
				"x": -1.8386017015,
				"y": -3.687926469,
				"z": -1.7648352703,
				"element": "H" 
			},
			{
				"x": -0.3135481513,
				"y": -4.4954974714,
				"z": -2.1466425978,
				"element": "H" 
			},
			{
				"x": -0.8666350626,
				"y": -3.1530716018,
				"z": -3.1459906307,
				"element": "H" 
			},
			{
				"x": -1.5231823337,
				"y": -2.6174644664,
				"z": 0.3685465994,
				"element": "H" 
			},
			{
				"x": -0.2637997008,
				"y": -1.0652508746,
				"z": 1.8491343112,
				"element": "H" 
			},
			{
				"x": 2.8206879406,
				"y": -0.7376497488,
				"z": -1.12862242,
				"element": "H" 
			},
			{
				"x": 1.5651578182,
				"y": -2.2841905214,
				"z": -2.6012586204,
				"element": "H" 
			},
			{
				"x": 2.6475811594,
				"y": 2.0527850406,
				"z": 0.0275714769,
				"element": "H" 
			},
			{
				"x": -0.7455674565,
				"y": 4.9110112275,
				"z": -1.282606525,
				"element": "H" 
			},
			{
				"x": -2.5788780545,
				"y": 4.5189987927,
				"z": 0.2984350925,
				"element": "H" 
			},
			{
				"x": -2.2617301163,
				"y": 2.8907083997,
				"z": 2.1655264529,
				"element": "H" 
			},
			{
				"x": -0.1325302443,
				"y": 1.6784307477,
				"z": 2.4145069383,
				"element": "H" 
			},
			{
				"x": 0.9914804053,
				"y": 5.5447665782,
				"z": -1.6667456033,
				"element": "H" 
			}
		],
		 "valence_orbital": [ 
			{
				"type": "occ",
				"energy": -0.28814,
				"method": "rhf"
			},
			{
				"type": "occ",
				"energy": -0.27757,
				"method": "rhf"
			},
			{
				"type": "occ",
				"energy": -0.27087,
				"method": "rhf"
			},
			{
				"type": "occ",
				"energy": -0.26605,
				"method": "rhf"
			},
			{
				"type": "occ",
				"energy": -0.23602,
				"method": "rhf"
			},
			{
				"type": "unocc",
				"energy": -0.06257,
				"method": "rhf"
			},
			{
				"type": "unocc",
				"energy": -0.04093,
				"method": "rhf"
			},
			{
				"type": "unocc",
				"energy": -0.02178,
				"method": "rhf"
			},
			{
				"type": "unocc",
				"energy": -0.01818,
				"method": "rhf"
			},
			{
				"type": "unocc",
				"energy": 0.0367,
				"method": "rhf"
			}
		],
		"cosmo_sigma_profile": { 
			"-0.025": 0.0,
			"-0.024": 0.0,
			"-0.023": 0.0,
			"-0.022": 0.0,
			"-0.021": 0.0,
			"-0.02": 0.00503732244565,
			"-0.019": 0.688576699066,
			"-0.018": 0.743603731188,
			"-0.017": 1.04268027882,
			"-0.016": 1.09671530805,
			"-0.015": 1.33686639108,
			"-0.014": 0.491493089655,
			"-0.013": 0.886416786353,
			"-0.012": 1.59664665231,
			"-0.011": 0.912302856553,
			"-0.01": 0.748906413111,
			"-0.009": 1.81530173598,
			"-0.008": 2.58443974427,
			"-0.007": 9.520081534,
			"-0.006": 16.7210276407,
			"-0.005": 22.4882112143,
			"-0.004": 23.2257669121,
			"-0.003": 21.0567749524,
			"-0.002": 20.3688570834,
			"-0.001": 21.5863984709,
			"0.0": 22.4636683942,
			"0.001": 21.5700591669,
			"0.002": 24.1724410884,
			"0.003": 26.5612159573,
			"0.004": 10.2440994058,
			"0.005": 5.45407015231,
			"0.006": 5.81097026853,
			"0.007": 5.03637520457,
			"0.008": 6.87468154811,
			"0.009": 7.22372075519,
			"0.01": 12.4554328611,
			"0.011": 9.18726877736,
			"0.012": 2.46168771232,
			"0.013": 0.392902482162,
			"0.014": 0.0,
			"0.015": 0.0,
			"0.016": 0.0,
			"0.017": 0.0,
			"0.018": 0.0,
			"0.019": 0.0,
			"0.02": 0.0,
			"0.021": 0.0,
			"0.022": 0.0,
			"0.023": 0.0,
			"0.024": 0.0,
			"0.025": 0.0
		}
	}
}
