{
	 "smiles": "O=C1N(CN2CCCCC2)C(=S)SC1=CC1=CC=CC=C1", 
	 "Tm": 387.15, 
	 "num_atms": 39, 
	 "gaussian": { 
		 "optdone": 1, 
		 "sigma_profile": "yes", 
		 "theory": "DFT", 
		 "functional": "B3LYP", 
		 "basiset": "6-31G**", 
		 "properties": { 
			 "R2extent": 10196.6615, 
			 "electric_dipole_moment_norm": 3.11292528179, 
			 "electric_quadrupole_moment_norm": 25.7293657193, 
			 "total_energy": -1601.65663168, 
			 "HOMO_LUMO_gap": 0.11654, 
			 "cosmo_polarized_energy": -10.15, 
			 "cosmo_cavitation_energy": 43.9, 
			 "cosmo_dispersion_energy": -31.8, 
			 "cosmo_repulsion_energy": 2.33, 
			 "cosmo_total_nonelectrostatic_energy": 14.43, 
			 "SMD_solvation_energy": 4.89 
		},
		"coords": [
			{
				"x": -0.4852233626,
				"y": 1.661575137,
				"z": -1.4735658588,
				"element": "O" 
			},
			{
				"x": 0.2940128212,
				"y": 0.7353904545,
				"z": -1.3250599702,
				"element": "C" 
			},
			{
				"x": -0.1102574855,
				"y": -0.6109232774,
				"z": -1.3004468555,
				"element": "N" 
			},
			{
				"x": -1.5733489548,
				"y": -0.9165493968,
				"z": -1.3986270337,
				"element": "C" 
			},
			{
				"x": -2.2711515238,
				"y": -0.6848986239,
				"z": -0.1752900208,
				"element": "N" 
			},
			{
				"x": -2.6139091434,
				"y": -1.8812303382,
				"z": 0.6055340031,
				"element": "C" 
			},
			{
				"x": -3.5023505677,
				"y": -1.5126446667,
				"z": 1.8089204576,
				"element": "C" 
			},
			{
				"x": -3.1307663369,
				"y": -0.1266938037,
				"z": 2.3483844411,
				"element": "C" 
			},
			{
				"x": -3.3919590383,
				"y": 0.9572357186,
				"z": 1.2761342878,
				"element": "C" 
			},
			{
				"x": -3.2789407895,
				"y": 0.3755989636,
				"z": -0.1494036503,
				"element": "C" 
			},
			{
				"x": 0.8661127294,
				"y": -1.557940829,
				"z": -1.1454257119,
				"element": "C" 
			},
			{
				"x": 0.7008783904,
				"y": -3.1992302216,
				"z": -1.091970823,
				"element": "S" 
			},
			{
				"x": 2.4612293312,
				"y": -0.7729698178,
				"z": -1.0069941628,
				"element": "S" 
			},
			{
				"x": 1.7673677716,
				"y": 0.8426687439,
				"z": -1.1636768641,
				"element": "C" 
			},
			{
				"x": 2.3556685618,
				"y": 2.0618942263,
				"z": -1.16041202,
				"element": "C" 
			},
			{
				"x": 3.7461806169,
				"y": 2.4661489588,
				"z": -1.0260685387,
				"element": "C" 
			},
			{
				"x": 4.8274191573,
				"y": 1.5739734069,
				"z": -0.8668633769,
				"element": "C" 
			},
			{
				"x": 6.1291877287,
				"y": 2.0506784976,
				"z": -0.7447711241,
				"element": "C" 
			},
			{
				"x": 6.3868052116,
				"y": 3.4238940269,
				"z": -0.7780189754,
				"element": "C" 
			},
			{
				"x": 5.3292775777,
				"y": 4.3229447896,
				"z": -0.9352835077,
				"element": "C" 
			},
			{
				"x": 4.0274968395,
				"y": 3.8490131884,
				"z": -1.0576750679,
				"element": "C" 
			},
			{
				"x": -1.943200103,
				"y": -0.2642231044,
				"z": -2.1922299946,
				"element": "H" 
			},
			{
				"x": -1.6253183894,
				"y": -1.9586858082,
				"z": -1.7259578195,
				"element": "H" 
			},
			{
				"x": -1.6830093494,
				"y": -2.3418818945,
				"z": 0.9568672531,
				"element": "H" 
			},
			{
				"x": -3.1242143156,
				"y": -2.6389570227,
				"z": -0.0168166018,
				"element": "H" 
			},
			{
				"x": -4.5589261613,
				"y": -1.5151244711,
				"z": 1.5126549108,
				"element": "H" 
			},
			{
				"x": -3.3967501335,
				"y": -2.2825293731,
				"z": 2.5806396286,
				"element": "H" 
			},
			{
				"x": -2.0693546883,
				"y": -0.127203381,
				"z": 2.6224598795,
				"element": "H" 
			},
			{
				"x": -3.6911131809,
				"y": 0.095318942,
				"z": 3.2630901574,
				"element": "H" 
			},
			{
				"x": -2.6738255832,
				"y": 1.7750595827,
				"z": 1.3960986082,
				"element": "H" 
			},
			{
				"x": -4.3923846439,
				"y": 1.3887665948,
				"z": 1.4020352166,
				"element": "H" 
			},
			{
				"x": -2.9689558539,
				"y": 1.1562568569,
				"z": -0.8465404469,
				"element": "H" 
			},
			{
				"x": -4.2651166626,
				"y": 0.0062474163,
				"z": -0.4862586851,
				"element": "H" 
			},
			{
				"x": 1.6405841274,
				"y": 2.8747107884,
				"z": -1.2809300058,
				"element": "H" 
			},
			{
				"x": 4.6598398859,
				"y": 0.5034895372,
				"z": -0.838036511,
				"element": "H" 
			},
			{
				"x": 6.9473654263,
				"y": 1.347154223,
				"z": -0.6231444123,
				"element": "H" 
			},
			{
				"x": 7.4048368463,
				"y": 3.7895996938,
				"z": -0.6821751384,
				"element": "H" 
			},
			{
				"x": 5.5201592808,
				"y": 5.3915835758,
				"z": -0.9624422473,
				"element": "H" 
			},
			{
				"x": 3.2061539636,
				"y": 4.5498827075,
				"z": -1.1799334194,
				"element": "H" 
			}
		],
		 "valence_orbital": [ 
			{
				"type": "occ",
				"energy": -0.26797,
				"method": "rhf"
			},
			{
				"type": "occ",
				"energy": -0.25853,
				"method": "rhf"
			},
			{
				"type": "occ",
				"energy": -0.23035,
				"method": "rhf"
			},
			{
				"type": "occ",
				"energy": -0.22479,
				"method": "rhf"
			},
			{
				"type": "occ",
				"energy": -0.20877,
				"method": "rhf"
			},
			{
				"type": "unocc",
				"energy": -0.09223,
				"method": "rhf"
			},
			{
				"type": "unocc",
				"energy": -0.0374,
				"method": "rhf"
			},
			{
				"type": "unocc",
				"energy": -0.01658,
				"method": "rhf"
			},
			{
				"type": "unocc",
				"energy": 0.00266,
				"method": "rhf"
			},
			{
				"type": "unocc",
				"energy": 0.01338,
				"method": "rhf"
			}
		],
		"cosmo_sigma_profile": { 
			"-0.025": 0.0,
			"-0.024": 0.0,
			"-0.023": 0.0,
			"-0.022": 0.0,
			"-0.021": 0.0,
			"-0.02": 0.0,
			"-0.019": 0.0,
			"-0.018": 0.0,
			"-0.017": 0.0,
			"-0.016": 0.0,
			"-0.015": 0.0,
			"-0.014": 0.0,
			"-0.013": 0.0,
			"-0.012": 0.0,
			"-0.011": 0.0,
			"-0.01": 0.0,
			"-0.009": 0.232529456379,
			"-0.008": 1.91792848364,
			"-0.007": 5.57552409819,
			"-0.006": 14.6942520438,
			"-0.005": 18.3946598032,
			"-0.004": 19.1907753235,
			"-0.003": 22.4090831317,
			"-0.002": 41.2404527154,
			"-0.001": 46.198802433,
			"0.0": 42.8181231164,
			"0.001": 34.5176848069,
			"0.002": 22.9148665798,
			"0.003": 22.3356028475,
			"0.004": 19.7908693402,
			"0.005": 10.0853491095,
			"0.006": 9.1761878802,
			"0.007": 8.20402346771,
			"0.008": 4.6237712752,
			"0.009": 3.28529228676,
			"0.01": 2.09277694535,
			"0.011": 2.59940641299,
			"0.012": 0.368979783665,
			"0.013": 0.0,
			"0.014": 0.0,
			"0.015": 0.0,
			"0.016": 0.0,
			"0.017": 0.0,
			"0.018": 0.0,
			"0.019": 0.0,
			"0.02": 0.0,
			"0.021": 0.0,
			"0.022": 0.0,
			"0.023": 0.0,
			"0.024": 0.0,
			"0.025": 0.0
		}
	}
}
