{
	 "smiles": "CCOC(=O)C1=C2CCCC(=O)C2=C(SCC=C)S1", 
	 "Tm": 331.65, 
	 "num_atms": 35, 
	 "gaussian": { 
		 "optdone": 1, 
		 "sigma_profile": "yes", 
		 "theory": "DFT", 
		 "functional": "B3LYP", 
		 "basiset": "6-31G**", 
		 "properties": { 
			 "R2extent": 7142.0191, 
			 "electric_dipole_moment_norm": 2.10827913, 
			 "electric_quadrupole_moment_norm": 7.36995559281, 
			 "total_energy": -1565.17323677, 
			 "HOMO_LUMO_gap": 0.15069, 
			 "cosmo_polarized_energy": -11.22, 
			 "cosmo_cavitation_energy": 41.09, 
			 "cosmo_dispersion_energy": -29.47, 
			 "cosmo_repulsion_energy": 2.24, 
			 "cosmo_total_nonelectrostatic_energy": 13.86, 
			 "SMD_solvation_energy": 7.71 
		},
		"coords": [
			{
				"x": -3.1133676737,
				"y": -4.3887254089,
				"z": -0.4397001788,
				"element": "C" 
			},
			{
				"x": -1.5989116823,
				"y": -4.2997692117,
				"z": -0.5506000008,
				"element": "C" 
			},
			{
				"x": -1.1511283335,
				"y": -2.9228001177,
				"z": -0.5510148745,
				"element": "O" 
			},
			{
				"x": -0.962341064,
				"y": -2.342208739,
				"z": 0.6582374323,
				"element": "C" 
			},
			{
				"x": -1.1314281736,
				"y": -2.9136699473,
				"z": 1.7214931583,
				"element": "O" 
			},
			{
				"x": -0.5242609928,
				"y": -0.9476223097,
				"z": 0.5145168332,
				"element": "C" 
			},
			{
				"x": -0.2210347617,
				"y": -0.0598000667,
				"z": 1.5282735448,
				"element": "C" 
			},
			{
				"x": -0.2937531947,
				"y": -0.3590118074,
				"z": 3.0062395363,
				"element": "C" 
			},
			{
				"x": 0.5054446374,
				"y": 0.6594284969,
				"z": 3.82834316,
				"element": "C" 
			},
			{
				"x": 0.1462617125,
				"y": 2.0950517259,
				"z": 3.4245983134,
				"element": "C" 
			},
			{
				"x": 0.4257244471,
				"y": 2.3647479979,
				"z": 1.9510847656,
				"element": "C" 
			},
			{
				"x": 0.8322606532,
				"y": 3.4579654131,
				"z": 1.5775183999,
				"element": "O" 
			},
			{
				"x": 0.1539855574,
				"y": 1.2360232368,
				"z": 1.029625569,
				"element": "C" 
			},
			{
				"x": 0.1357506481,
				"y": 1.3029978476,
				"z": -0.367577696,
				"element": "C" 
			},
			{
				"x": 0.3519932115,
				"y": 2.6362498194,
				"z": -1.5003248083,
				"element": "S" 
			},
			{
				"x": 2.0963844008,
				"y": 3.2083703308,
				"z": -1.197609632,
				"element": "C" 
			},
			{
				"x": 3.1315464689,
				"y": 2.2067203767,
				"z": -1.5970229368,
				"element": "C" 
			},
			{
				"x": 4.0219230364,
				"y": 2.3918855683,
				"z": -2.5729015379,
				"element": "C" 
			},
			{
				"x": -0.3240128928,
				"y": -0.2177912562,
				"z": -1.0582818338,
				"element": "S" 
			},
			{
				"x": -3.4294548971,
				"y": -5.4342280734,
				"z": -0.5188452364,
				"element": "H" 
			},
			{
				"x": -3.5969034023,
				"y": -3.8218502923,
				"z": -1.2405520152,
				"element": "H" 
			},
			{
				"x": -3.4518453702,
				"y": -4.000828133,
				"z": 0.5241637962,
				"element": "H" 
			},
			{
				"x": -1.1100724481,
				"y": -4.8263716264,
				"z": 0.2723085249,
				"element": "H" 
			},
			{
				"x": -1.241196507,
				"y": -4.6994728666,
				"z": -1.5021902356,
				"element": "H" 
			},
			{
				"x": -1.3490093631,
				"y": -0.3344999489,
				"z": 3.3141569969,
				"element": "H" 
			},
			{
				"x": 0.0370896072,
				"y": -1.382369764,
				"z": 3.1944619991,
				"element": "H" 
			},
			{
				"x": 0.3134242989,
				"y": 0.5078512194,
				"z": 4.895509782,
				"element": "H" 
			},
			{
				"x": 1.5799768271,
				"y": 0.4963479458,
				"z": 3.675474341,
				"element": "H" 
			},
			{
				"x": 0.6912814892,
				"y": 2.8446430606,
				"z": 4.0041206588,
				"element": "H" 
			},
			{
				"x": -0.9265357249,
				"y": 2.2687012208,
				"z": 3.5975016146,
				"element": "H" 
			},
			{
				"x": 2.1647922776,
				"y": 4.1180093132,
				"z": -1.802230429,
				"element": "H" 
			},
			{
				"x": 2.1410525564,
				"y": 3.483438952,
				"z": -0.1420393067,
				"element": "H" 
			},
			{
				"x": 3.1435969969,
				"y": 1.2790556184,
				"z": -1.026374149,
				"element": "H" 
			},
			{
				"x": 4.0401662449,
				"y": 3.3040596608,
				"z": -3.1648270008,
				"element": "H" 
			},
			{
				"x": 4.7679014103,
				"y": 1.6402717648,
				"z": -2.8127365545,
				"element": "H" 
			}
		],
		 "valence_orbital": [ 
			{
				"type": "occ",
				"energy": -0.26954,
				"method": "rhf"
			},
			{
				"type": "occ",
				"energy": -0.26356,
				"method": "rhf"
			},
			{
				"type": "occ",
				"energy": -0.25807,
				"method": "rhf"
			},
			{
				"type": "occ",
				"energy": -0.24985,
				"method": "rhf"
			},
			{
				"type": "occ",
				"energy": -0.22385,
				"method": "rhf"
			},
			{
				"type": "unocc",
				"energy": -0.07316,
				"method": "rhf"
			},
			{
				"type": "unocc",
				"energy": -0.04103,
				"method": "rhf"
			},
			{
				"type": "unocc",
				"energy": 0.0008,
				"method": "rhf"
			},
			{
				"type": "unocc",
				"energy": 0.02242,
				"method": "rhf"
			},
			{
				"type": "unocc",
				"energy": 0.04895,
				"method": "rhf"
			}
		],
		"cosmo_sigma_profile": { 
			"-0.025": 0.0,
			"-0.024": 0.0,
			"-0.023": 0.0,
			"-0.022": 0.0,
			"-0.021": 0.0,
			"-0.02": 0.0,
			"-0.019": 0.0,
			"-0.018": 0.0,
			"-0.017": 0.0,
			"-0.016": 0.0,
			"-0.015": 0.0,
			"-0.014": 0.0,
			"-0.013": 0.0,
			"-0.012": 0.0,
			"-0.011": 0.0,
			"-0.01": 0.0,
			"-0.009": 0.0,
			"-0.008": 0.108082583545,
			"-0.007": 2.28315186513,
			"-0.006": 9.72914545502,
			"-0.005": 20.7642807072,
			"-0.004": 31.1355921863,
			"-0.003": 37.6619640955,
			"-0.002": 40.0166593691,
			"-0.001": 35.4784131707,
			"0.0": 34.2217077885,
			"0.001": 24.5359025274,
			"0.002": 19.0882663852,
			"0.003": 14.1307749532,
			"0.004": 10.9664546639,
			"0.005": 11.7760745193,
			"0.006": 9.17041315095,
			"0.007": 5.71101859979,
			"0.008": 3.89098740282,
			"0.009": 4.03839115235,
			"0.01": 4.16082753551,
			"0.011": 5.48598814078,
			"0.012": 3.72789790135,
			"0.013": 1.14402664657,
			"0.014": 0.049143356958,
			"0.015": 0.0,
			"0.016": 0.0,
			"0.017": 0.0,
			"0.018": 0.0,
			"0.019": 0.0,
			"0.02": 0.0,
			"0.021": 0.0,
			"0.022": 0.0,
			"0.023": 0.0,
			"0.024": 0.0,
			"0.025": 0.0
		}
	}
}
