{
	 "smiles": "[O-][N+](=O)C1=CC=C(C=C1)C(=O)C1=CC=CC=C1", 
	 "Tm": 411.15, 
	 "num_atms": 26, 
	 "gaussian": { 
		 "optdone": 1, 
		 "sigma_profile": "yes", 
		 "theory": "DFT", 
		 "functional": "B3LYP", 
		 "basiset": "6-31G**", 
		 "properties": { 
			 "R2extent": 5719.8771, 
			 "electric_dipole_moment_norm": 4.85688496261, 
			 "electric_quadrupole_moment_norm": 16.3723998476, 
			 "total_energy": -781.130263534, 
			 "HOMO_LUMO_gap": 0.15714, 
			 "cosmo_polarized_energy": -11.8, 
			 "cosmo_cavitation_energy": 31.75, 
			 "cosmo_dispersion_energy": -22.96, 
			 "cosmo_repulsion_energy": 1.75, 
			 "cosmo_total_nonelectrostatic_energy": 10.54, 
			 "SMD_solvation_energy": 8.1 
		},
		"coords": [
			{
				"x": -1.1954590234,
				"y": 5.1321618824,
				"z": 0.0669285674,
				"element": "O" 
			},
			{
				"x": -0.4084086304,
				"y": 4.7576421078,
				"z": -0.801135723,
				"element": "N" 
			},
			{
				"x": -0.0620221566,
				"y": 5.4270406541,
				"z": -1.7728439473,
				"element": "O" 
			},
			{
				"x": 0.1615450291,
				"y": 3.4043498699,
				"z": -0.667440579,
				"element": "C" 
			},
			{
				"x": 1.0599212718,
				"y": 2.9520887507,
				"z": -1.6339211756,
				"element": "C" 
			},
			{
				"x": 1.5951645095,
				"y": 1.6772536923,
				"z": -1.4962865522,
				"element": "C" 
			},
			{
				"x": 1.2185097904,
				"y": 0.853212024,
				"z": -0.4230555395,
				"element": "C" 
			},
			{
				"x": 0.3189766444,
				"y": 1.3407324033,
				"z": 0.5380055284,
				"element": "C" 
			},
			{
				"x": -0.2108842435,
				"y": 2.6241213874,
				"z": 0.423847432,
				"element": "C" 
			},
			{
				"x": 1.8871979852,
				"y": -0.4930165828,
				"z": -0.3096883617,
				"element": "C" 
			},
			{
				"x": 3.0231541203,
				"y": -0.626975542,
				"z": -0.7485512339,
				"element": "O" 
			},
			{
				"x": 1.1800127798,
				"y": -1.6453060328,
				"z": 0.3315490993,
				"element": "C" 
			},
			{
				"x": -0.21835717,
				"y": -1.7716153165,
				"z": 0.3499778385,
				"element": "C" 
			},
			{
				"x": -0.8143342381,
				"y": -2.9033699693,
				"z": 0.9072526069,
				"element": "C" 
			},
			{
				"x": -0.0220151483,
				"y": -3.9106665295,
				"z": 1.4602662291,
				"element": "C" 
			},
			{
				"x": 1.3717950872,
				"y": -3.79576016,
				"z": 1.4391281475,
				"element": "C" 
			},
			{
				"x": 1.9689804934,
				"y": -2.6770083169,
				"z": 0.867443235,
				"element": "C" 
			},
			{
				"x": 1.324635924,
				"y": 3.5992634547,
				"z": -2.4605852364,
				"element": "H" 
			},
			{
				"x": 2.3161442872,
				"y": 1.2988643009,
				"z": -2.2124299002,
				"element": "H" 
			},
			{
				"x": 0.047968348,
				"y": 0.7269797845,
				"z": 1.3897375268,
				"element": "H" 
			},
			{
				"x": -0.8978775115,
				"y": 3.026369645,
				"z": 1.1575973459,
				"element": "H" 
			},
			{
				"x": -0.8406700359,
				"y": -1.0022505832,
				"z": -0.0947726017,
				"element": "H" 
			},
			{
				"x": -1.895994454,
				"y": -2.999301112,
				"z": 0.9061083036,
				"element": "H" 
			},
			{
				"x": -0.4881927371,
				"y": -4.7869851609,
				"z": 1.901405972,
				"element": "H" 
			},
			{
				"x": 1.9888668682,
				"y": -4.5821414126,
				"z": 1.863559961,
				"element": "H" 
			},
			{
				"x": 3.0483422104,
				"y": -2.5777832384,
				"z": 0.822603057,
				"element": "H" 
			}
		],
		 "valence_orbital": [ 
			{
				"type": "occ",
				"energy": -0.28981,
				"method": "rhf"
			},
			{
				"type": "occ",
				"energy": -0.28619,
				"method": "rhf"
			},
			{
				"type": "occ",
				"energy": -0.27412,
				"method": "rhf"
			},
			{
				"type": "occ",
				"energy": -0.2715,
				"method": "rhf"
			},
			{
				"type": "occ",
				"energy": -0.26169,
				"method": "rhf"
			},
			{
				"type": "unocc",
				"energy": -0.10455,
				"method": "rhf"
			},
			{
				"type": "unocc",
				"energy": -0.06488,
				"method": "rhf"
			},
			{
				"type": "unocc",
				"energy": -0.03583,
				"method": "rhf"
			},
			{
				"type": "unocc",
				"energy": -0.02044,
				"method": "rhf"
			},
			{
				"type": "unocc",
				"energy": -0.01445,
				"method": "rhf"
			}
		],
		"cosmo_sigma_profile": { 
			"-0.025": 0.0,
			"-0.024": 0.0,
			"-0.023": 0.0,
			"-0.022": 0.0,
			"-0.021": 0.0,
			"-0.02": 0.0,
			"-0.019": 0.0,
			"-0.018": 0.0,
			"-0.017": 0.0,
			"-0.016": 0.0,
			"-0.015": 0.0,
			"-0.014": 0.0,
			"-0.013": 0.0,
			"-0.012": 0.0,
			"-0.011": 0.0,
			"-0.01": 0.0,
			"-0.009": 0.0847391551541,
			"-0.008": 2.84740540908,
			"-0.007": 9.87152583827,
			"-0.006": 18.6087832954,
			"-0.005": 20.401702201,
			"-0.004": 21.5130271379,
			"-0.003": 16.8964900612,
			"-0.002": 19.3415242692,
			"-0.001": 19.4713936239,
			"0.0": 22.3266683915,
			"0.001": 17.7439237242,
			"0.002": 12.939827924,
			"0.003": 14.9701600979,
			"0.004": 13.4663539232,
			"0.005": 5.5920519805,
			"0.006": 5.33376486072,
			"0.007": 11.4259798853,
			"0.008": 7.72574443298,
			"0.009": 5.66703164896,
			"0.01": 4.33928886291,
			"0.011": 3.67380212908,
			"0.012": 1.84687032863,
			"0.013": 0.0,
			"0.014": 0.0,
			"0.015": 0.0,
			"0.016": 0.0,
			"0.017": 0.0,
			"0.018": 0.0,
			"0.019": 0.0,
			"0.02": 0.0,
			"0.021": 0.0,
			"0.022": 0.0,
			"0.023": 0.0,
			"0.024": 0.0,
			"0.025": 0.0
		}
	}
}
