{
	 "smiles": "OC(=O)C1=C(C=CC(=C1)[N+]([O-])=O)N1CCCCC1", 
	 "Tm": 468.15, 
	 "num_atms": 32, 
	 "gaussian": { 
		 "optdone": 1, 
		 "sigma_profile": "yes", 
		 "theory": "DFT", 
		 "functional": "B3LYP", 
		 "basiset": "6-31G**", 
		 "properties": { 
			 "R2extent": 6889.9201, 
			 "electric_dipole_moment_norm": 8.96397914768, 
			 "electric_quadrupole_moment_norm": 32.6255663704, 
			 "total_energy": -876.025460014, 
			 "HOMO_LUMO_gap": 0.14605, 
			 "cosmo_polarized_energy": -17.56, 
			 "cosmo_cavitation_energy": 34.55, 
			 "cosmo_dispersion_energy": -25.07, 
			 "cosmo_repulsion_energy": 1.93, 
			 "cosmo_total_nonelectrostatic_energy": 11.42, 
			 "SMD_solvation_energy": 7.94 
		},
		"coords": [
			{
				"x": 2.7436157705,
				"y": -0.3032581549,
				"z": 2.5708664038,
				"element": "O" 
			},
			{
				"x": 2.4829393218,
				"y": -1.6083844005,
				"z": 2.2939296217,
				"element": "C" 
			},
			{
				"x": 3.2854419859,
				"y": -2.483329486,
				"z": 2.5521005005,
				"element": "O" 
			},
			{
				"x": 1.1045067729,
				"y": -1.8452929192,
				"z": 1.7784679897,
				"element": "C" 
			},
			{
				"x": 0.3251163307,
				"y": -0.9315033701,
				"z": 0.995001114,
				"element": "C" 
			},
			{
				"x": -1.0688932381,
				"y": -1.1992970879,
				"z": 0.8882990724,
				"element": "C" 
			},
			{
				"x": -1.6348509794,
				"y": -2.3455162029,
				"z": 1.4113970306,
				"element": "C" 
			},
			{
				"x": -0.8249731737,
				"y": -3.2768495516,
				"z": 2.0679069008,
				"element": "C" 
			},
			{
				"x": 0.5273076105,
				"y": -3.0261074412,
				"z": 2.2532456034,
				"element": "C" 
			},
			{
				"x": -1.4114677917,
				"y": -4.5037548621,
				"z": 2.5891058082,
				"element": "N" 
			},
			{
				"x": -0.6652876191,
				"y": -5.3064072016,
				"z": 3.1538488105,
				"element": "O" 
			},
			{
				"x": -2.6248420057,
				"y": -4.668915005,
				"z": 2.4323353182,
				"element": "O" 
			},
			{
				"x": 0.8677425049,
				"y": 0.1440221382,
				"z": 0.333922072,
				"element": "N" 
			},
			{
				"x": -0.0150406577,
				"y": 1.1967006326,
				"z": -0.1921070827,
				"element": "C" 
			},
			{
				"x": 0.8017555649,
				"y": 2.4246974537,
				"z": -0.5995446124,
				"element": "C" 
			},
			{
				"x": 1.7876512097,
				"y": 2.0967991885,
				"z": -1.7414187497,
				"element": "C" 
			},
			{
				"x": 2.251554076,
				"y": 0.6257968467,
				"z": -1.6572286713,
				"element": "C" 
			},
			{
				"x": 2.2379026494,
				"y": 0.1166470571,
				"z": -0.2116844462,
				"element": "C" 
			},
			{
				"x": 3.6349203991,
				"y": -0.3009235733,
				"z": 2.9594486513,
				"element": "H" 
			},
			{
				"x": -1.7043260771,
				"y": -0.5213871745,
				"z": 0.3345936844,
				"element": "H" 
			},
			{
				"x": -2.6920308241,
				"y": -2.5511049911,
				"z": 1.2960888492,
				"element": "H" 
			},
			{
				"x": 1.1357556121,
				"y": -3.724985974,
				"z": 2.8131907101,
				"element": "H" 
			},
			{
				"x": -0.7330142817,
				"y": 1.4677503452,
				"z": 0.5883031333,
				"element": "H" 
			},
			{
				"x": -0.5956419328,
				"y": 0.8365041865,
				"z": -1.0573143458,
				"element": "H" 
			},
			{
				"x": 1.344529245,
				"y": 2.7849869885,
				"z": 0.2816058769,
				"element": "H" 
			},
			{
				"x": 0.1153952643,
				"y": 3.2253437866,
				"z": -0.8929821032,
				"element": "H" 
			},
			{
				"x": 2.6481645707,
				"y": 2.7720153884,
				"z": -1.68384437,
				"element": "H" 
			},
			{
				"x": 1.3162763288,
				"y": 2.27684562,
				"z": -2.713728063,
				"element": "H" 
			},
			{
				"x": 1.5988001449,
				"y": -0.0153312819,
				"z": -2.261057798,
				"element": "H" 
			},
			{
				"x": 3.2621916628,
				"y": 0.511184557,
				"z": -2.0629346051,
				"element": "H" 
			},
			{
				"x": 2.9144761713,
				"y": 0.7137841786,
				"z": 0.4091790814,
				"element": "H" 
			},
			{
				"x": 2.597425385,
				"y": -0.9153296898,
				"z": -0.178191385,
				"element": "H" 
			}
		],
		 "valence_orbital": [ 
			{
				"type": "occ",
				"energy": -0.29384,
				"method": "rhf"
			},
			{
				"type": "occ",
				"energy": -0.28856,
				"method": "rhf"
			},
			{
				"type": "occ",
				"energy": -0.27575,
				"method": "rhf"
			},
			{
				"type": "occ",
				"energy": -0.27051,
				"method": "rhf"
			},
			{
				"type": "occ",
				"energy": -0.22028,
				"method": "rhf"
			},
			{
				"type": "unocc",
				"energy": -0.07423,
				"method": "rhf"
			},
			{
				"type": "unocc",
				"energy": -0.04867,
				"method": "rhf"
			},
			{
				"type": "unocc",
				"energy": 0.00272,
				"method": "rhf"
			},
			{
				"type": "unocc",
				"energy": 0.03932,
				"method": "rhf"
			},
			{
				"type": "unocc",
				"energy": 0.05676,
				"method": "rhf"
			}
		],
		"cosmo_sigma_profile": { 
			"-0.025": 0.0,
			"-0.024": 0.0,
			"-0.023": 0.0,
			"-0.022": 0.0,
			"-0.021": 0.0,
			"-0.02": 0.0,
			"-0.019": 0.0269980922981,
			"-0.018": 0.844863558545,
			"-0.017": 0.957584290371,
			"-0.016": 0.65429893854,
			"-0.015": 0.664151342783,
			"-0.014": 0.751787532277,
			"-0.013": 0.476640202163,
			"-0.012": 0.698973894613,
			"-0.011": 1.05738027285,
			"-0.01": 0.47388606699,
			"-0.009": 0.562054824465,
			"-0.008": 1.27988067882,
			"-0.007": 4.98674048954,
			"-0.006": 7.39296837926,
			"-0.005": 11.6384560157,
			"-0.004": 23.170687809,
			"-0.003": 39.0859392346,
			"-0.002": 34.66395944,
			"-0.001": 23.2501326722,
			"0.0": 23.1813863991,
			"0.001": 18.4965948229,
			"0.002": 10.7581555593,
			"0.003": 6.92709876665,
			"0.004": 5.6662732886,
			"0.005": 5.00918692342,
			"0.006": 4.85788303706,
			"0.007": 6.04105263245,
			"0.008": 12.4432867125,
			"0.009": 9.29546437658,
			"0.01": 6.652598423,
			"0.011": 6.53741033626,
			"0.012": 3.79298243026,
			"0.013": 0.116826823891,
			"0.014": 0.0,
			"0.015": 0.0,
			"0.016": 0.0,
			"0.017": 0.0,
			"0.018": 0.0,
			"0.019": 0.0,
			"0.02": 0.0,
			"0.021": 0.0,
			"0.022": 0.0,
			"0.023": 0.0,
			"0.024": 0.0,
			"0.025": 0.0
		}
	}
}
