{
	 "smiles": "FC1=CC(=C(F)C=C1)S(=O)(=O)NC1=C(Cl)N=C2C=CC=CC2=N1", 
	 "Tm": 524.15, 
	 "num_atms": 31, 
	 "gaussian": { 
		 "optdone": 1, 
		 "sigma_profile": "yes", 
		 "theory": "DFT", 
		 "functional": "B3LYP", 
		 "basiset": "6-31G**", 
		 "properties": { 
			 "R2extent": 8862.9827, 
			 "electric_dipole_moment_norm": 5.12835083141, 
			 "electric_quadrupole_moment_norm": 12.5245102695, 
			 "total_energy": -1910.9861524, 
			 "HOMO_LUMO_gap": 0.16387, 
			 "cosmo_polarized_energy": -15.47, 
			 "cosmo_cavitation_energy": 40.27, 
			 "cosmo_dispersion_energy": -28.85, 
			 "cosmo_repulsion_energy": 2.09, 
			 "cosmo_total_nonelectrostatic_energy": 13.51, 
			 "SMD_solvation_energy": 4.55 
		},
		"coords": [
			{
				"x": -5.1141602356,
				"y": 0.9325049595,
				"z": -2.9545223468,
				"element": "F" 
			},
			{
				"x": -3.9757676576,
				"y": 0.2970110188,
				"z": -2.6210780798,
				"element": "C" 
			},
			{
				"x": -2.7644031455,
				"y": 0.9459733013,
				"z": -2.8016854758,
				"element": "C" 
			},
			{
				"x": -1.5805419527,
				"y": 0.2849379338,
				"z": -2.4531160122,
				"element": "C" 
			},
			{
				"x": -1.6376373278,
				"y": -1.0185704578,
				"z": -1.9468543016,
				"element": "C" 
			},
			{
				"x": -0.5330327076,
				"y": -1.6967757343,
				"z": -1.6224749542,
				"element": "F" 
			},
			{
				"x": -2.8662232526,
				"y": -1.653911122,
				"z": -1.7748998369,
				"element": "C" 
			},
			{
				"x": -4.0458496726,
				"y": -0.9966954811,
				"z": -2.1106879644,
				"element": "C" 
			},
			{
				"x": -0.0473486779,
				"y": 1.1748160333,
				"z": -2.7381473386,
				"element": "S" 
			},
			{
				"x": -0.3002672584,
				"y": 2.1632961322,
				"z": -3.787225096,
				"element": "O" 
			},
			{
				"x": 1.0580887844,
				"y": 0.2338468841,
				"z": -2.8207738346,
				"element": "O" 
			},
			{
				"x": 0.099714986,
				"y": 2.1748734097,
				"z": -1.3565874884,
				"element": "N" 
			},
			{
				"x": 0.4875800099,
				"y": 1.7402511823,
				"z": -0.0982356492,
				"element": "C" 
			},
			{
				"x": 1.0226478104,
				"y": 2.6673398784,
				"z": 0.8703099735,
				"element": "C" 
			},
			{
				"x": 1.2004336944,
				"y": 4.365487813,
				"z": 0.4163907284,
				"element": "Cl" 
			},
			{
				"x": 1.3719818766,
				"y": 2.3136340914,
				"z": 2.0608634004,
				"element": "N" 
			},
			{
				"x": 1.2324156967,
				"y": 0.995147431,
				"z": 2.4031206454,
				"element": "C" 
			},
			{
				"x": 1.6120432947,
				"y": 0.5515423134,
				"z": 3.69089078,
				"element": "C" 
			},
			{
				"x": 1.4682028909,
				"y": -0.7800904843,
				"z": 4.0211329816,
				"element": "C" 
			},
			{
				"x": 0.9460825879,
				"y": -1.7031842965,
				"z": 3.0819314089,
				"element": "C" 
			},
			{
				"x": 0.5675978501,
				"y": -1.293436712,
				"z": 1.8202693094,
				"element": "C" 
			},
			{
				"x": 0.7026916067,
				"y": 0.0676449914,
				"z": 1.4576081291,
				"element": "C" 
			},
			{
				"x": 0.3248419483,
				"y": 0.4795769127,
				"z": 0.2148096945,
				"element": "N" 
			},
			{
				"x": -2.7320685157,
				"y": 1.943814386,
				"z": -3.2224174003,
				"element": "H" 
			},
			{
				"x": -2.8753364572,
				"y": -2.6646562869,
				"z": -1.3823960607,
				"element": "H" 
			},
			{
				"x": -5.0117988578,
				"y": -1.4737113919,
				"z": -1.9877196609,
				"element": "H" 
			},
			{
				"x": 0.2747217416,
				"y": 3.1403348918,
				"z": -1.6136718019,
				"element": "H" 
			},
			{
				"x": 2.0118821851,
				"y": 1.2794442107,
				"z": 4.3890345478,
				"element": "H" 
			},
			{
				"x": 1.7590918414,
				"y": -1.1282780944,
				"z": 5.007433498,
				"element": "H" 
			},
			{
				"x": 0.8467749404,
				"y": -2.7477644863,
				"z": 3.3618232102,
				"element": "H" 
			},
			{
				"x": 0.1735419738,
				"y": -1.9807032273,
				"z": 1.0793749951,
				"element": "H" 
			}
		],
		 "valence_orbital": [ 
			{
				"type": "occ",
				"energy": -0.29495,
				"method": "rhf"
			},
			{
				"type": "occ",
				"energy": -0.27443,
				"method": "rhf"
			},
			{
				"type": "occ",
				"energy": -0.26396,
				"method": "rhf"
			},
			{
				"type": "occ",
				"energy": -0.25813,
				"method": "rhf"
			},
			{
				"type": "occ",
				"energy": -0.24538,
				"method": "rhf"
			},
			{
				"type": "unocc",
				"energy": -0.08151,
				"method": "rhf"
			},
			{
				"type": "unocc",
				"energy": -0.06009,
				"method": "rhf"
			},
			{
				"type": "unocc",
				"energy": -0.03477,
				"method": "rhf"
			},
			{
				"type": "unocc",
				"energy": -0.02248,
				"method": "rhf"
			},
			{
				"type": "unocc",
				"energy": -0.00264,
				"method": "rhf"
			}
		],
		"cosmo_sigma_profile": { 
			"-0.025": 0.0,
			"-0.024": 0.0,
			"-0.023": 0.0,
			"-0.022": 0.0,
			"-0.021": 0.0,
			"-0.02": 0.0,
			"-0.019": 0.0,
			"-0.018": 0.0,
			"-0.017": 0.0,
			"-0.016": 0.0,
			"-0.015": 0.0,
			"-0.014": 0.153318903943,
			"-0.013": 0.685429919504,
			"-0.012": 1.27028846947,
			"-0.011": 0.892256154344,
			"-0.01": 1.1362763957,
			"-0.009": 4.89075609905,
			"-0.008": 7.14380831316,
			"-0.007": 10.6869232541,
			"-0.006": 13.5820222355,
			"-0.005": 19.9486114096,
			"-0.004": 17.7403803548,
			"-0.003": 18.3779430707,
			"-0.002": 23.6803739051,
			"-0.001": 32.0672126762,
			"0.0": 30.3621956396,
			"0.001": 28.1487738221,
			"0.002": 25.6908531499,
			"0.003": 31.420179808,
			"0.004": 16.135660884,
			"0.005": 5.86900104479,
			"0.006": 4.20388279734,
			"0.007": 5.1039147088,
			"0.008": 5.29991439763,
			"0.009": 10.1811388848,
			"0.01": 10.1869150065,
			"0.011": 2.82168265627,
			"0.012": 0.864073156799,
			"0.013": 0.120321966264,
			"0.014": 0.0,
			"0.015": 0.0,
			"0.016": 0.0,
			"0.017": 0.0,
			"0.018": 0.0,
			"0.019": 0.0,
			"0.02": 0.0,
			"0.021": 0.0,
			"0.022": 0.0,
			"0.023": 0.0,
			"0.024": 0.0,
			"0.025": 0.0
		}
	}
}
