{
	 "smiles": "COC1=C(SCC(O)=O)C=CC(=C1)C(C)=O", 
	 "Tm": 408.15, 
	 "num_atms": 28, 
	 "gaussian": { 
		 "optdone": 1, 
		 "sigma_profile": "yes", 
		 "theory": "DFT", 
		 "functional": "B3LYP", 
		 "basiset": "6-31G**", 
		 "properties": { 
			 "R2extent": 4933.4909, 
			 "electric_dipole_moment_norm": 2.0763428426, 
			 "electric_quadrupole_moment_norm": 27.6840267844, 
			 "total_energy": -1125.48377599, 
			 "HOMO_LUMO_gap": 0.16659, 
			 "cosmo_polarized_energy": -17.58, 
			 "cosmo_cavitation_energy": 33.63, 
			 "cosmo_dispersion_energy": -23.85, 
			 "cosmo_repulsion_energy": 1.81, 
			 "cosmo_total_nonelectrostatic_energy": 11.59, 
			 "SMD_solvation_energy": 7.9 
		},
		"coords": [
			{
				"x": 2.4269756303,
				"y": -0.3517111894,
				"z": 0.0979836095,
				"element": "C" 
			},
			{
				"x": 1.146453514,
				"y": -0.7638845687,
				"z": 0.5653808166,
				"element": "O" 
			},
			{
				"x": 0.0448077764,
				"y": -0.040681,
				"z": 0.2363513347,
				"element": "C" 
			},
			{
				"x": -1.1853449905,
				"y": -0.5351226274,
				"z": 0.7243881425,
				"element": "C" 
			},
			{
				"x": -1.2850092056,
				"y": -1.9812813532,
				"z": 1.7713409945,
				"element": "S" 
			},
			{
				"x": -0.4602145582,
				"y": -3.2987585643,
				"z": 0.7817147857,
				"element": "C" 
			},
			{
				"x": 1.0184399522,
				"y": -3.5922616772,
				"z": 1.0692096286,
				"element": "C" 
			},
			{
				"x": 1.5438507852,
				"y": -3.0828493309,
				"z": 2.1954156634,
				"element": "O" 
			},
			{
				"x": 1.6523932584,
				"y": -4.311254073,
				"z": 0.3351768607,
				"element": "O" 
			},
			{
				"x": -2.3627252833,
				"y": 0.1668509609,
				"z": 0.4463737268,
				"element": "C" 
			},
			{
				"x": -2.3354012811,
				"y": 1.3389428336,
				"z": -0.3033136825,
				"element": "C" 
			},
			{
				"x": -1.1206719029,
				"y": 1.821654224,
				"z": -0.8029166675,
				"element": "C" 
			},
			{
				"x": 0.0681836389,
				"y": 1.125531673,
				"z": -0.5325319009,
				"element": "C" 
			},
			{
				"x": -1.1419818868,
				"y": 3.0821640239,
				"z": -1.6207088024,
				"element": "C" 
			},
			{
				"x": 0.1639079703,
				"y": 3.6210919365,
				"z": -2.1794179384,
				"element": "C" 
			},
			{
				"x": -2.195271265,
				"y": 3.6627830246,
				"z": -1.8309378304,
				"element": "O" 
			},
			{
				"x": 2.4673460669,
				"y": -0.3436677156,
				"z": -0.9975641401,
				"element": "H" 
			},
			{
				"x": 2.6896151804,
				"y": 0.6409634211,
				"z": 0.4828015808,
				"element": "H" 
			},
			{
				"x": 3.127462386,
				"y": -1.0924081138,
				"z": 0.4832925628,
				"element": "H" 
			},
			{
				"x": -1.0172924955,
				"y": -4.2161315397,
				"z": 0.9977328426,
				"element": "H" 
			},
			{
				"x": -0.5753404115,
				"y": -3.0941980555,
				"z": -0.2829953354,
				"element": "H" 
			},
			{
				"x": 0.9184972757,
				"y": -2.4258822165,
				"z": 2.5563126188,
				"element": "H" 
			},
			{
				"x": -3.3041466758,
				"y": -0.2222153212,
				"z": 0.8211064547,
				"element": "H" 
			},
			{
				"x": -3.2431021079,
				"y": 1.88832354,
				"z": -0.5250499086,
				"element": "H" 
			},
			{
				"x": 1.0119014333,
				"y": 1.4969549162,
				"z": -0.9107222379,
				"element": "H" 
			},
			{
				"x": 0.8724876247,
				"y": 3.8480676277,
				"z": -1.3749611909,
				"element": "H" 
			},
			{
				"x": 0.6413896974,
				"y": 2.8898306243,
				"z": -2.8410924451,
				"element": "H" 
			},
			{
				"x": -0.0474101263,
				"y": 4.5314485406,
				"z": -2.7406695428,
				"element": "H" 
			}
		],
		 "valence_orbital": [ 
			{
				"type": "occ",
				"energy": -0.30151,
				"method": "rhf"
			},
			{
				"type": "occ",
				"energy": -0.2701,
				"method": "rhf"
			},
			{
				"type": "occ",
				"energy": -0.25827,
				"method": "rhf"
			},
			{
				"type": "occ",
				"energy": -0.25355,
				"method": "rhf"
			},
			{
				"type": "occ",
				"energy": -0.23854,
				"method": "rhf"
			},
			{
				"type": "unocc",
				"energy": -0.07195,
				"method": "rhf"
			},
			{
				"type": "unocc",
				"energy": -0.01613,
				"method": "rhf"
			},
			{
				"type": "unocc",
				"energy": 0.00698,
				"method": "rhf"
			},
			{
				"type": "unocc",
				"energy": 0.01453,
				"method": "rhf"
			},
			{
				"type": "unocc",
				"energy": 0.03243,
				"method": "rhf"
			}
		],
		"cosmo_sigma_profile": { 
			"-0.025": 0.0,
			"-0.024": 0.0,
			"-0.023": 0.0,
			"-0.022": 0.0,
			"-0.021": 0.0,
			"-0.02": 0.0,
			"-0.019": 0.0,
			"-0.018": 0.0,
			"-0.017": 0.0,
			"-0.016": 0.0,
			"-0.015": 0.0,
			"-0.014": 0.0,
			"-0.013": 0.206444642241,
			"-0.012": 0.488228847241,
			"-0.011": 0.231398537086,
			"-0.01": 1.30933802225,
			"-0.009": 4.19562848649,
			"-0.008": 5.55434273123,
			"-0.007": 11.2674374921,
			"-0.006": 20.9454460636,
			"-0.005": 21.8715959942,
			"-0.004": 21.6267813869,
			"-0.003": 18.3147183993,
			"-0.002": 16.5016669169,
			"-0.001": 19.1655560033,
			"0.0": 15.2248283831,
			"0.001": 16.9213349147,
			"0.002": 20.4007022964,
			"0.003": 16.2671670088,
			"0.004": 7.5719705289,
			"0.005": 5.50496383525,
			"0.006": 5.49581937811,
			"0.007": 3.94415113953,
			"0.008": 4.06554645815,
			"0.009": 4.85067676691,
			"0.01": 6.33017813306,
			"0.011": 8.01755678469,
			"0.012": 9.08494065933,
			"0.013": 3.60324385474,
			"0.014": 0.0927296664544,
			"0.015": 0.0,
			"0.016": 0.0,
			"0.017": 0.0,
			"0.018": 0.0,
			"0.019": 0.0,
			"0.02": 0.0,
			"0.021": 0.0,
			"0.022": 0.0,
			"0.023": 0.0,
			"0.024": 0.0,
			"0.025": 0.0
		}
	}
}
