{
	 "smiles": "C[C@@H](CCC(O)=O)[C@H]1CCC2C3CC[C@@H]4CC(=O)CC[C@]4(C)C3C[C@H](O)[C@]12C", 
	 "Tm": 381.15, 
	 "num_atms": 66, 
	 "gaussian": { 
		 "optdone": 1, 
		 "sigma_profile": "yes", 
		 "theory": "DFT", 
		 "functional": "B3LYP", 
		 "basiset": "6-31G**", 
		 "properties": { 
			 "R2extent": 14995.4901, 
			 "electric_dipole_moment_norm": 2.66708637655, 
			 "electric_quadrupole_moment_norm": 54.1391891262, 
			 "total_energy": -1238.37598924, 
			 "HOMO_LUMO_gap": 0.22121, 
			 "cosmo_polarized_energy": -19.02, 
			 "cosmo_cavitation_energy": 55.87, 
			 "cosmo_dispersion_energy": -38.06, 
			 "cosmo_repulsion_energy": 2.78, 
			 "cosmo_total_nonelectrostatic_energy": 20.59, 
			 "SMD_solvation_energy": 9.39 
		},
		"coords": [
			{
				"x": 0.9473154495,
				"y": 4.6922623662,
				"z": -0.679520818,
				"element": "C" 
			},
			{
				"x": -0.0874175003,
				"y": 3.6031459993,
				"z": -1.0239875154,
				"element": "C" 
			},
			{
				"x": 0.0568620965,
				"y": 3.102281354,
				"z": -2.4788967261,
				"element": "C" 
			},
			{
				"x": -0.2076064144,
				"y": 4.1824917975,
				"z": -3.5517270711,
				"element": "C" 
			},
			{
				"x": -1.5873041814,
				"y": 4.7931047809,
				"z": -3.4504879661,
				"element": "C" 
			},
			{
				"x": -2.5644920298,
				"y": 3.8628804756,
				"z": -3.6165821669,
				"element": "O" 
			},
			{
				"x": -1.8374663749,
				"y": 5.9597870987,
				"z": -3.2400194317,
				"element": "O" 
			},
			{
				"x": -0.245622332,
				"y": 2.4857400139,
				"z": 0.0589050604,
				"element": "C" 
			},
			{
				"x": -1.5657521277,
				"y": 1.6841077269,
				"z": -0.1805696386,
				"element": "C" 
			},
			{
				"x": -1.1940109601,
				"y": 0.198338199,
				"z": -0.402615613,
				"element": "C" 
			},
			{
				"x": 0.3436671566,
				"y": 0.1652065371,
				"z": -0.55481521,
				"element": "C" 
			},
			{
				"x": 1.0352373453,
				"y": -1.1758125708,
				"z": -0.2177991122,
				"element": "C" 
			},
			{
				"x": 0.4514312045,
				"y": -2.3410317908,
				"z": -1.0231103111,
				"element": "C" 
			},
			{
				"x": 1.2910111357,
				"y": -3.6240188061,
				"z": -0.8538468587,
				"element": "C" 
			},
			{
				"x": 2.2167453747,
				"y": -3.6185916345,
				"z": 0.3890718591,
				"element": "C" 
			},
			{
				"x": 2.6672936891,
				"y": -5.0744394664,
				"z": 0.6629960151,
				"element": "C" 
			},
			{
				"x": 1.5382544367,
				"y": -5.9336259471,
				"z": 1.2190888649,
				"element": "C" 
			},
			{
				"x": 1.2979748732,
				"y": -7.0482745719,
				"z": 0.7933853898,
				"element": "O" 
			},
			{
				"x": 0.7395151349,
				"y": -5.3106829324,
				"z": 2.3569771543,
				"element": "C" 
			},
			{
				"x": 0.3773364889,
				"y": -3.8318724785,
				"z": 2.1040364468,
				"element": "C" 
			},
			{
				"x": 1.571585745,
				"y": -2.9504222539,
				"z": 1.6464157249,
				"element": "C" 
			},
			{
				"x": 2.6157579477,
				"y": -2.8946932683,
				"z": 2.7847636953,
				"element": "C" 
			},
			{
				"x": 1.0157957531,
				"y": -1.4954353043,
				"z": 1.2972445332,
				"element": "C" 
			},
			{
				"x": 1.6721812039,
				"y": -0.3171991618,
				"z": 2.045769658,
				"element": "C" 
			},
			{
				"x": 0.9457178873,
				"y": 1.0145221446,
				"z": 1.7792268022,
				"element": "C" 
			},
			{
				"x": -0.3756782711,
				"y": 0.9612387421,
				"z": 2.3336016877,
				"element": "O" 
			},
			{
				"x": 0.8623033936,
				"y": 1.3831614844,
				"z": 0.266202395,
				"element": "C" 
			},
			{
				"x": 2.2851270969,
				"y": 1.7923754565,
				"z": -0.1621854212,
				"element": "C" 
			},
			{
				"x": 0.899257682,
				"y": 4.9505619824,
				"z": 0.3838887116,
				"element": "H" 
			},
			{
				"x": 1.9738313928,
				"y": 4.3892628944,
				"z": -0.9028464217,
				"element": "H" 
			},
			{
				"x": 0.7445086493,
				"y": 5.6093552096,
				"z": -1.24153352,
				"element": "H" 
			},
			{
				"x": -1.0636752602,
				"y": 4.1089864418,
				"z": -0.973949111,
				"element": "H" 
			},
			{
				"x": 1.0646075649,
				"y": 2.7111599152,
				"z": -2.6541393566,
				"element": "H" 
			},
			{
				"x": -0.6355056037,
				"y": 2.2745655583,
				"z": -2.6585890412,
				"element": "H" 
			},
			{
				"x": 0.5107456775,
				"y": 5.0017938145,
				"z": -3.4883039995,
				"element": "H" 
			},
			{
				"x": -0.1125516965,
				"y": 3.7266176586,
				"z": -4.5444339744,
				"element": "H" 
			},
			{
				"x": -3.4061390714,
				"y": 4.3392200358,
				"z": -3.5191899583,
				"element": "H" 
			},
			{
				"x": -0.3383476194,
				"y": 3.0338246922,
				"z": 1.0028086401,
				"element": "H" 
			},
			{
				"x": -2.1081071139,
				"y": 2.0873164944,
				"z": -1.0423938261,
				"element": "H" 
			},
			{
				"x": -2.2256228202,
				"y": 1.7844294669,
				"z": 0.6835394208,
				"element": "H" 
			},
			{
				"x": -1.5093772182,
				"y": -0.3940784143,
				"z": 0.4593063208,
				"element": "H" 
			},
			{
				"x": -1.6908680653,
				"y": -0.2234846812,
				"z": -1.2826800024,
				"element": "H" 
			},
			{
				"x": 0.5740246405,
				"y": 0.3731922455,
				"z": -1.6097578513,
				"element": "H" 
			},
			{
				"x": 2.089216875,
				"y": -1.0675901979,
				"z": -0.5176202092,
				"element": "H" 
			},
			{
				"x": -0.5795651436,
				"y": -2.5156192599,
				"z": -0.69215833,
				"element": "H" 
			},
			{
				"x": 0.3844488956,
				"y": -2.0701755371,
				"z": -2.0837667422,
				"element": "H" 
			},
			{
				"x": 1.9270306191,
				"y": -3.7788989288,
				"z": -1.7336098276,
				"element": "H" 
			},
			{
				"x": 0.6289728346,
				"y": -4.4976619295,
				"z": -0.8196029249,
				"element": "H" 
			},
			{
				"x": 3.1154797112,
				"y": -3.0397312415,
				"z": 0.1387434528,
				"element": "H" 
			},
			{
				"x": 3.4926708095,
				"y": -5.0967821582,
				"z": 1.3860859021,
				"element": "H" 
			},
			{
				"x": 3.0333152879,
				"y": -5.5488824696,
				"z": -0.252493807,
				"element": "H" 
			},
			{
				"x": 1.3538964164,
				"y": -5.3941129341,
				"z": 3.2644637671,
				"element": "H" 
			},
			{
				"x": -0.1530572026,
				"y": -5.9206564827,
				"z": 2.5217210695,
				"element": "H" 
			},
			{
				"x": -0.4108254248,
				"y": -3.7901536757,
				"z": 1.3433319568,
				"element": "H" 
			},
			{
				"x": -0.061803217,
				"y": -3.4052171483,
				"z": 3.0147790755,
				"element": "H" 
			},
			{
				"x": 2.9920906478,
				"y": -3.8857498216,
				"z": 3.0465481888,
				"element": "H" 
			},
			{
				"x": 3.4831648155,
				"y": -2.2871657868,
				"z": 2.5090506353,
				"element": "H" 
			},
			{
				"x": 2.1880963708,
				"y": -2.4728069367,
				"z": 3.6992157554,
				"element": "H" 
			},
			{
				"x": -0.0353437746,
				"y": -1.4911517863,
				"z": 1.610141293,
				"element": "H" 
			},
			{
				"x": 2.7291162656,
				"y": -0.2201124697,
				"z": 1.7718421475,
				"element": "H" 
			},
			{
				"x": 1.6602574549,
				"y": -0.4799449547,
				"z": 3.1304228182,
				"element": "H" 
			},
			{
				"x": 1.5056546331,
				"y": 1.8219903051,
				"z": 2.2804158352,
				"element": "H" 
			},
			{
				"x": -0.287047579,
				"y": 0.7833866332,
				"z": 3.2785324334,
				"element": "H" 
			},
			{
				"x": 2.3281920297,
				"y": 2.0579943915,
				"z": -1.2194477026,
				"element": "H" 
			},
			{
				"x": 2.9979594602,
				"y": 0.9760268307,
				"z": -0.0141262716,
				"element": "H" 
			},
			{
				"x": 2.650334855,
				"y": 2.6472482547,
				"z": 0.4147840265,
				"element": "H" 
			}
		],
		 "valence_orbital": [ 
			{
				"type": "occ",
				"energy": -0.28148,
				"method": "rhf"
			},
			{
				"type": "occ",
				"energy": -0.27488,
				"method": "rhf"
			},
			{
				"type": "occ",
				"energy": -0.26864,
				"method": "rhf"
			},
			{
				"type": "occ",
				"energy": -0.26136,
				"method": "rhf"
			},
			{
				"type": "occ",
				"energy": -0.23302,
				"method": "rhf"
			},
			{
				"type": "unocc",
				"energy": -0.01181,
				"method": "rhf"
			},
			{
				"type": "unocc",
				"energy": 0.00904,
				"method": "rhf"
			},
			{
				"type": "unocc",
				"energy": 0.05747,
				"method": "rhf"
			},
			{
				"type": "unocc",
				"energy": 0.07068,
				"method": "rhf"
			},
			{
				"type": "unocc",
				"energy": 0.07494,
				"method": "rhf"
			}
		],
		"cosmo_sigma_profile": { 
			"-0.025": 0.0,
			"-0.024": 0.0,
			"-0.023": 0.0,
			"-0.022": 0.0,
			"-0.021": 0.0,
			"-0.02": 0.0,
			"-0.019": 0.0,
			"-0.018": 0.378902853009,
			"-0.017": 0.880205405543,
			"-0.016": 0.612472802759,
			"-0.015": 1.64286153967,
			"-0.014": 1.57746236721,
			"-0.013": 1.11007313413,
			"-0.012": 1.14794358078,
			"-0.011": 1.94577793527,
			"-0.01": 2.75409293963,
			"-0.009": 1.4578900964,
			"-0.008": 1.171324398,
			"-0.007": 2.79472274695,
			"-0.006": 5.87961353648,
			"-0.005": 11.0829427081,
			"-0.004": 15.5889348352,
			"-0.003": 36.0078166599,
			"-0.002": 69.3888664177,
			"-0.001": 72.765692364,
			"0.0": 58.7843228156,
			"0.001": 43.0342967948,
			"0.002": 26.0223381241,
			"0.003": 9.43098120927,
			"0.004": 6.31146985451,
			"0.005": 5.45380739793,
			"0.006": 5.10061522497,
			"0.007": 4.54182725751,
			"0.008": 5.30038331225,
			"0.009": 7.18158239563,
			"0.01": 6.06785345762,
			"0.011": 5.89503336096,
			"0.012": 9.6476089431,
			"0.013": 5.25841215234,
			"0.014": 1.25615003161,
			"0.015": 0.0,
			"0.016": 0.0,
			"0.017": 0.0,
			"0.018": 0.0,
			"0.019": 0.0,
			"0.02": 0.0,
			"0.021": 0.0,
			"0.022": 0.0,
			"0.023": 0.0,
			"0.024": 0.0,
			"0.025": 0.0
		}
	}
}
