{
	 "smiles": "C=CCOC1(CC2=CC=CC=C12)C#CC1=CC=CC=C1", 
	 "Tm": 323.15, 
	 "num_atms": 36, 
	 "gaussian": { 
		 "optdone": 1, 
		 "sigma_profile": "yes", 
		 "theory": "DFT", 
		 "functional": "B3LYP", 
		 "basiset": "6-31G**", 
		 "properties": { 
			 "R2extent": 7473.598, 
			 "electric_dipole_moment_norm": 1.30688734404, 
			 "electric_quadrupole_moment_norm": 5.80459048685, 
			 "total_energy": -808.751084367, 
			 "HOMO_LUMO_gap": 0.19025, 
			 "cosmo_polarized_energy": -9.5, 
			 "cosmo_cavitation_energy": 41.93, 
			 "cosmo_dispersion_energy": -28.54, 
			 "cosmo_repulsion_energy": 2.27, 
			 "cosmo_total_nonelectrostatic_energy": 15.66, 
			 "SMD_solvation_energy": 7.52 
		},
		"coords": [
			{
				"x": 3.3457477921,
				"y": -1.118513588,
				"z": -3.7198075046,
				"element": "C" 
			},
			{
				"x": 3.4438023554,
				"y": -0.5203018284,
				"z": -2.5336557682,
				"element": "C" 
			},
			{
				"x": 2.2855998498,
				"y": 0.0795397955,
				"z": -1.7941429116,
				"element": "C" 
			},
			{
				"x": 2.3017799132,
				"y": -0.428614989,
				"z": -0.4579693338,
				"element": "O" 
			},
			{
				"x": 1.3674092614,
				"y": 0.170732783,
				"z": 0.4231392936,
				"element": "C" 
			},
			{
				"x": 1.7623113206,
				"y": 1.6407507214,
				"z": 0.9369309857,
				"element": "C" 
			},
			{
				"x": 1.9216837266,
				"y": 1.0050473259,
				"z": 2.3078584101,
				"element": "C" 
			},
			{
				"x": 2.2279619504,
				"y": 1.2673103284,
				"z": 3.6366887298,
				"element": "C" 
			},
			{
				"x": 2.2124310247,
				"y": 0.1601515133,
				"z": 4.4993792819,
				"element": "C" 
			},
			{
				"x": 1.900822145,
				"y": -1.1312636165,
				"z": 4.0449070589,
				"element": "C" 
			},
			{
				"x": 1.5823408825,
				"y": -1.3821916928,
				"z": 2.70202545,
				"element": "C" 
			},
			{
				"x": 1.606543084,
				"y": -0.275223633,
				"z": 1.8670476771,
				"element": "C" 
			},
			{
				"x": -0.0163301424,
				"y": 0.0476336952,
				"z": -0.0468049829,
				"element": "C" 
			},
			{
				"x": -1.1615413773,
				"y": -0.0567817472,
				"z": -0.4358865558,
				"element": "C" 
			},
			{
				"x": -2.5117496402,
				"y": -0.1826211374,
				"z": -0.8858563603,
				"element": "C" 
			},
			{
				"x": -3.4513027701,
				"y": 0.8343256016,
				"z": -0.6263946593,
				"element": "C" 
			},
			{
				"x": -4.7663197229,
				"y": 0.7063327708,
				"z": -1.066541691,
				"element": "C" 
			},
			{
				"x": -5.1659311524,
				"y": -0.431031715,
				"z": -1.7725499047,
				"element": "C" 
			},
			{
				"x": -4.2411865166,
				"y": -1.4445889602,
				"z": -2.0358622801,
				"element": "C" 
			},
			{
				"x": -2.9248062308,
				"y": -1.3262804173,
				"z": -1.5971204923,
				"element": "C" 
			},
			{
				"x": 4.2176369804,
				"y": -1.5087829848,
				"z": -4.2362204301,
				"element": "H" 
			},
			{
				"x": 2.3882057928,
				"y": -1.2366455276,
				"z": -4.2216663849,
				"element": "H" 
			},
			{
				"x": 4.4116586122,
				"y": -0.4225001897,
				"z": -2.0439452546,
				"element": "H" 
			},
			{
				"x": 2.382410106,
				"y": 1.1786027046,
				"z": -1.7726556346,
				"element": "H" 
			},
			{
				"x": 1.3353267376,
				"y": -0.1572172454,
				"z": -2.2912633952,
				"element": "H" 
			},
			{
				"x": 0.9813050054,
				"y": 2.3998564169,
				"z": 0.8323038033,
				"element": "H" 
			},
			{
				"x": 2.6885035968,
				"y": 2.000703488,
				"z": 0.4775136038,
				"element": "H" 
			},
			{
				"x": 2.4722210789,
				"y": 2.2593163664,
				"z": 4.006223753,
				"element": "H" 
			},
			{
				"x": 2.4490829076,
				"y": 0.3019087976,
				"z": 5.5505406303,
				"element": "H" 
			},
			{
				"x": 1.9052723583,
				"y": -1.9532000409,
				"z": 4.7554984079,
				"element": "H" 
			},
			{
				"x": 1.3358403505,
				"y": -2.3811975679,
				"z": 2.3559804011,
				"element": "H" 
			},
			{
				"x": -3.1373853002,
				"y": 1.7168749296,
				"z": -0.0783200518,
				"element": "H" 
			},
			{
				"x": -5.4815292368,
				"y": 1.4969887831,
				"z": -0.8586872292,
				"element": "H" 
			},
			{
				"x": -6.1920760513,
				"y": -0.5271298477,
				"z": -2.1151368584,
				"element": "H" 
			},
			{
				"x": -4.5469372581,
				"y": -2.3312987334,
				"z": -2.5837001473,
				"element": "H" 
			},
			{
				"x": -2.2042014334,
				"y": -2.1126905591,
				"z": -1.7973496562,
				"element": "H" 
			}
		],
		 "valence_orbital": [ 
			{
				"type": "occ",
				"energy": -0.25555,
				"method": "rhf"
			},
			{
				"type": "occ",
				"energy": -0.25506,
				"method": "rhf"
			},
			{
				"type": "occ",
				"energy": -0.24896,
				"method": "rhf"
			},
			{
				"type": "occ",
				"energy": -0.24222,
				"method": "rhf"
			},
			{
				"type": "occ",
				"energy": -0.22286,
				"method": "rhf"
			},
			{
				"type": "unocc",
				"energy": -0.03261,
				"method": "rhf"
			},
			{
				"type": "unocc",
				"energy": -0.00701,
				"method": "rhf"
			},
			{
				"type": "unocc",
				"energy": -0.00444,
				"method": "rhf"
			},
			{
				"type": "unocc",
				"energy": 0.00372,
				"method": "rhf"
			},
			{
				"type": "unocc",
				"energy": 0.01683,
				"method": "rhf"
			}
		],
		"cosmo_sigma_profile": { 
			"-0.025": 0.0,
			"-0.024": 0.0,
			"-0.023": 0.0,
			"-0.022": 0.0,
			"-0.021": 0.0,
			"-0.02": 0.0,
			"-0.019": 0.0,
			"-0.018": 0.0,
			"-0.017": 0.0,
			"-0.016": 0.0,
			"-0.015": 0.0,
			"-0.014": 0.0,
			"-0.013": 0.0,
			"-0.012": 0.0,
			"-0.011": 0.0,
			"-0.01": 0.0,
			"-0.009": 0.0,
			"-0.008": 0.0,
			"-0.007": 1.0989282981,
			"-0.006": 15.6917635869,
			"-0.005": 29.2982279656,
			"-0.004": 34.9914699601,
			"-0.003": 29.5200237689,
			"-0.002": 27.8799989733,
			"-0.001": 26.1125068406,
			"0.0": 21.5809871324,
			"0.001": 21.3076461689,
			"0.002": 23.0979872616,
			"0.003": 29.0633144673,
			"0.004": 28.8423552131,
			"0.005": 28.0420847149,
			"0.006": 9.22341717571,
			"0.007": 3.24703799652,
			"0.008": 1.53336281917,
			"0.009": 1.89815426176,
			"0.01": 1.21646729641,
			"0.011": 1.46003471577,
			"0.012": 1.05001266511,
			"0.013": 0.0,
			"0.014": 0.0,
			"0.015": 0.0,
			"0.016": 0.0,
			"0.017": 0.0,
			"0.018": 0.0,
			"0.019": 0.0,
			"0.02": 0.0,
			"0.021": 0.0,
			"0.022": 0.0,
			"0.023": 0.0,
			"0.024": 0.0,
			"0.025": 0.0
		}
	}
}
