{
	 "smiles": "CC1=C(C=C(C=C1[N+]([O-])=O)[N+]([O-])=O)C(O)=O", 
	 "Tm": 479.15, 
	 "num_atms": 22, 
	 "gaussian": { 
		 "optdone": 1, 
		 "sigma_profile": "yes", 
		 "theory": "DFT", 
		 "functional": "B3LYP", 
		 "basiset": "6-31G**", 
		 "properties": { 
			 "R2extent": 3763.4046, 
			 "electric_dipole_moment_norm": 3.52629563281, 
			 "electric_quadrupole_moment_norm": 20.6904371873, 
			 "total_energy": -869.107756814, 
			 "HOMO_LUMO_gap": 0.17543, 
			 "cosmo_polarized_energy": -20.31, 
			 "cosmo_cavitation_energy": 28.46, 
			 "cosmo_dispersion_energy": -20.48, 
			 "cosmo_repulsion_energy": 1.58, 
			 "cosmo_total_nonelectrostatic_energy": 9.55, 
			 "SMD_solvation_energy": 10.41 
		},
		"coords": [
			{
				"x": 0.5181837538,
				"y": 2.7490076198,
				"z": -0.7469186759,
				"element": "C" 
			},
			{
				"x": 0.437946831,
				"y": 1.316663137,
				"z": -0.2642724045,
				"element": "C" 
			},
			{
				"x": 0.1880721057,
				"y": 1.0084511862,
				"z": 1.0946875879,
				"element": "C" 
			},
			{
				"x": -0.0059144353,
				"y": -0.310433007,
				"z": 1.5197929266,
				"element": "C" 
			},
			{
				"x": 0.0900375186,
				"y": -1.3456370046,
				"z": 0.6026924477,
				"element": "C" 
			},
			{
				"x": 0.3496496755,
				"y": -1.1038991993,
				"z": -0.7376452189,
				"element": "C" 
			},
			{
				"x": 0.5255816563,
				"y": 0.2143810979,
				"z": -1.1423037712,
				"element": "C" 
			},
			{
				"x": 0.8221028967,
				"y": 0.3950847237,
				"z": -2.5808386797,
				"element": "N" 
			},
			{
				"x": 1.4804651502,
				"y": 1.3803794639,
				"z": -2.9109444024,
				"element": "O" 
			},
			{
				"x": 0.4135211586,
				"y": -0.4694192414,
				"z": -3.3504730045,
				"element": "O" 
			},
			{
				"x": -0.0962107852,
				"y": -2.7373622467,
				"z": 1.0558472406,
				"element": "N" 
			},
			{
				"x": -0.0051353536,
				"y": -3.6206985001,
				"z": 0.2073952928,
				"element": "O" 
			},
			{
				"x": -0.3269385482,
				"y": -2.9131185704,
				"z": 2.2487617154,
				"element": "O" 
			},
			{
				"x": 0.0553506585,
				"y": 2.0408544632,
				"z": 2.1935692377,
				"element": "C" 
			},
			{
				"x": 0.9475334959,
				"y": 3.0614835195,
				"z": 2.2030557037,
				"element": "O" 
			},
			{
				"x": -0.7771152916,
				"y": 1.9510730203,
				"z": 3.0602736157,
				"element": "O" 
			},
			{
				"x": 0.0206956273,
				"y": 2.8653770893,
				"z": -1.7102559772,
				"element": "H" 
			},
			{
				"x": 0.054207083,
				"y": 3.4304589575,
				"z": -0.0343007416,
				"element": "H" 
			},
			{
				"x": 1.5559871613,
				"y": 3.0566894526,
				"z": -0.9152374368,
				"element": "H" 
			},
			{
				"x": -0.2348670914,
				"y": -0.5192011632,
				"z": 2.5573620616,
				"element": "H" 
			},
			{
				"x": 0.4065907587,
				"y": -1.9147037589,
				"z": -1.4512245541,
				"element": "H" 
			},
			{
				"x": 1.6246559742,
				"y": 2.938068961,
				"z": 1.5230770371,
				"element": "H" 
			}
		],
		 "valence_orbital": [ 
			{
				"type": "occ",
				"energy": -0.32793,
				"method": "rhf"
			},
			{
				"type": "occ",
				"energy": -0.31974,
				"method": "rhf"
			},
			{
				"type": "occ",
				"energy": -0.31607,
				"method": "rhf"
			},
			{
				"type": "occ",
				"energy": -0.31144,
				"method": "rhf"
			},
			{
				"type": "occ",
				"energy": -0.29737,
				"method": "rhf"
			},
			{
				"type": "unocc",
				"energy": -0.12194,
				"method": "rhf"
			},
			{
				"type": "unocc",
				"energy": -0.11297,
				"method": "rhf"
			},
			{
				"type": "unocc",
				"energy": -0.07436,
				"method": "rhf"
			},
			{
				"type": "unocc",
				"energy": -0.02917,
				"method": "rhf"
			},
			{
				"type": "unocc",
				"energy": 0.0048,
				"method": "rhf"
			}
		],
		"cosmo_sigma_profile": { 
			"-0.025": 0.0,
			"-0.024": 0.0,
			"-0.023": 0.0,
			"-0.022": 0.0,
			"-0.021": 0.0,
			"-0.02": 0.158894583981,
			"-0.019": 0.8826291883,
			"-0.018": 0.983305860191,
			"-0.017": 1.08733444151,
			"-0.016": 0.908940772923,
			"-0.015": 0.930904862762,
			"-0.014": 0.929507845227,
			"-0.013": 1.14108657407,
			"-0.012": 0.972572967743,
			"-0.011": 1.28968763877,
			"-0.01": 1.82485739912,
			"-0.009": 2.82377949957,
			"-0.008": 7.88703295044,
			"-0.007": 10.4605320477,
			"-0.006": 11.3901262236,
			"-0.005": 15.7119397627,
			"-0.004": 22.9233722332,
			"-0.003": 17.9916408506,
			"-0.002": 10.6285919683,
			"-0.001": 7.40997775621,
			"0.0": 7.49766861333,
			"0.001": 6.31610095543,
			"0.002": 7.13717586434,
			"0.003": 5.97044403974,
			"0.004": 8.15598004116,
			"0.005": 9.27344076371,
			"0.006": 14.8824661404,
			"0.007": 17.6648150528,
			"0.008": 12.394058292,
			"0.009": 10.4303319973,
			"0.01": 4.78718426208,
			"0.011": 4.47105010521,
			"0.012": 1.18981366552,
			"0.013": 0.0,
			"0.014": 0.0,
			"0.015": 0.0,
			"0.016": 0.0,
			"0.017": 0.0,
			"0.018": 0.0,
			"0.019": 0.0,
			"0.02": 0.0,
			"0.021": 0.0,
			"0.022": 0.0,
			"0.023": 0.0,
			"0.024": 0.0,
			"0.025": 0.0
		}
	}
}
