{
	 "smiles": "CCOC(=O)C1=C(CBr)NC(C)=C(C1C1=CC(=CC=C1)[N+]([O-])=O)C(=O)OC", 
	 "Tm": 379.15, 
	 "num_atms": 46, 
	 "gaussian": { 
		 "optdone": 1, 
		 "sigma_profile": "yes", 
		 "theory": "DFT", 
		 "functional": "B3LYP", 
		 "basiset": "6-31G**", 
		 "properties": { 
			 "R2extent": 13968.9637, 
			 "electric_dipole_moment_norm": 4.05980996723, 
			 "electric_quadrupole_moment_norm": 18.5151021839, 
			 "total_energy": -3829.54250158, 
			 "HOMO_LUMO_gap": 0.13532, 
			 "cosmo_polarized_energy": -19.21, 
			 "cosmo_cavitation_energy": 52.25, 
			 "cosmo_dispersion_energy": -33.84, 
			 "cosmo_repulsion_energy": 2.62, 
			 "cosmo_total_nonelectrostatic_energy": 21.03, 
			 "SMD_solvation_energy": 12.1 
		},
		"coords": [
			{
				"x": 1.470319053,
				"y": -0.3227068906,
				"z": -3.4166376849,
				"element": "C" 
			},
			{
				"x": 2.0567316433,
				"y": -1.0842259964,
				"z": -2.2428920545,
				"element": "C" 
			},
			{
				"x": 1.3126305913,
				"y": -0.7055808622,
				"z": -1.0600157672,
				"element": "O" 
			},
			{
				"x": 1.6771877215,
				"y": -1.3085939294,
				"z": 0.0936114662,
				"element": "C" 
			},
			{
				"x": 2.5671137575,
				"y": -2.1473466131,
				"z": 0.1288504633,
				"element": "O" 
			},
			{
				"x": 0.8671760682,
				"y": -0.8168726649,
				"z": 1.2338678029,
				"element": "C" 
			},
			{
				"x": 1.0241201962,
				"y": -1.3134880812,
				"z": 2.4936663437,
				"element": "C" 
			},
			{
				"x": 2.0064887264,
				"y": -2.3726632699,
				"z": 2.9008726572,
				"element": "C" 
			},
			{
				"x": 2.9776710701,
				"y": -1.8702829279,
				"z": 4.5732745189,
				"element": "Br" 
			},
			{
				"x": 0.1649607414,
				"y": -0.9137134234,
				"z": 3.5004571998,
				"element": "N" 
			},
			{
				"x": -0.9990248503,
				"y": -0.1968886851,
				"z": 3.2875586201,
				"element": "C" 
			},
			{
				"x": -1.91650017,
				"y": -0.1329985231,
				"z": 4.4801933061,
				"element": "C" 
			},
			{
				"x": -1.2243152183,
				"y": 0.3377588379,
				"z": 2.0547282936,
				"element": "C" 
			},
			{
				"x": -0.1471248031,
				"y": 0.3010224699,
				"z": 0.9735007932,
				"element": "C" 
			},
			{
				"x": 0.5626876464,
				"y": 1.6546806775,
				"z": 0.8222463289,
				"element": "C" 
			},
			{
				"x": 0.5878396029,
				"y": 2.2973406577,
				"z": -0.4170200298,
				"element": "C" 
			},
			{
				"x": 1.2588444737,
				"y": 3.5103765898,
				"z": -0.5477314077,
				"element": "C" 
			},
			{
				"x": 1.9028810931,
				"y": 4.127128435,
				"z": 0.5233882788,
				"element": "C" 
			},
			{
				"x": 1.8724479384,
				"y": 3.4858798877,
				"z": 1.7594805111,
				"element": "C" 
			},
			{
				"x": 1.2126716476,
				"y": 2.2631665461,
				"z": 1.9054379846,
				"element": "C" 
			},
			{
				"x": 1.2979073339,
				"y": 4.156934847,
				"z": -1.8685831685,
				"element": "N" 
			},
			{
				"x": 1.8188345972,
				"y": 5.2688467824,
				"z": -1.9478305596,
				"element": "O" 
			},
			{
				"x": 0.8106328234,
				"y": 3.5465285414,
				"z": -2.8225298841,
				"element": "O" 
			},
			{
				"x": -2.5060619898,
				"y": 0.9984869755,
				"z": 1.7618977639,
				"element": "C" 
			},
			{
				"x": -3.4457166621,
				"y": 1.139214609,
				"z": 2.5301268978,
				"element": "O" 
			},
			{
				"x": -2.5480731604,
				"y": 1.4566452425,
				"z": 0.4821337042,
				"element": "O" 
			},
			{
				"x": -3.7664719242,
				"y": 2.1143625791,
				"z": 0.1075719798,
				"element": "C" 
			},
			{
				"x": 1.5420677825,
				"y": 0.7585557936,
				"z": -3.2689282802,
				"element": "H" 
			},
			{
				"x": 2.0155309799,
				"y": -0.5810931386,
				"z": -4.3298312966,
				"element": "H" 
			},
			{
				"x": 0.4175582314,
				"y": -0.5815357115,
				"z": -3.5640335808,
				"element": "H" 
			},
			{
				"x": 3.1123604154,
				"y": -0.8451450263,
				"z": -2.0806604557,
				"element": "H" 
			},
			{
				"x": 1.9817451818,
				"y": -2.1682237253,
				"z": -2.3722894573,
				"element": "H" 
			},
			{
				"x": 2.7580626091,
				"y": -2.5356254966,
				"z": 2.1388605341,
				"element": "H" 
			},
			{
				"x": 1.5037379061,
				"y": -3.3064824316,
				"z": 3.1562350105,
				"element": "H" 
			},
			{
				"x": 0.3798698481,
				"y": -1.2229041189,
				"z": 4.438183949,
				"element": "H" 
			},
			{
				"x": -1.3994441048,
				"y": -0.4774145661,
				"z": 5.3817728335,
				"element": "H" 
			},
			{
				"x": -2.2890001178,
				"y": 0.8789794029,
				"z": 4.6365190307,
				"element": "H" 
			},
			{
				"x": -2.7984670153,
				"y": -0.7608449798,
				"z": 4.3237220489,
				"element": "H" 
			},
			{
				"x": -0.6324252222,
				"y": 0.1009728598,
				"z": 0.0175691457,
				"element": "H" 
			},
			{
				"x": 0.0977133818,
				"y": 1.8638302704,
				"z": -1.2782701195,
				"element": "H" 
			},
			{
				"x": 2.4088447285,
				"y": 5.0724386435,
				"z": 0.3742111508,
				"element": "H" 
			},
			{
				"x": 2.3685820789,
				"y": 3.9386720256,
				"z": 2.6122836223,
				"element": "H" 
			},
			{
				"x": 1.2047840078,
				"y": 1.7765085981,
				"z": 2.8761989146,
				"element": "H" 
			},
			{
				"x": -3.6296555433,
				"y": 2.417316145,
				"z": -0.9305651663,
				"element": "H" 
			},
			{
				"x": -3.9447164328,
				"y": 2.986797372,
				"z": 0.7412295184,
				"element": "H" 
			},
			{
				"x": -4.6177066625,
				"y": 1.4349862727,
				"z": 0.2007682404,
				"element": "H" 
			}
		],
		 "valence_orbital": [ 
			{
				"type": "occ",
				"energy": -0.27722,
				"method": "rhf"
			},
			{
				"type": "occ",
				"energy": -0.27181,
				"method": "rhf"
			},
			{
				"type": "occ",
				"energy": -0.26728,
				"method": "rhf"
			},
			{
				"type": "occ",
				"energy": -0.26009,
				"method": "rhf"
			},
			{
				"type": "occ",
				"energy": -0.22068,
				"method": "rhf"
			},
			{
				"type": "unocc",
				"energy": -0.08536,
				"method": "rhf"
			},
			{
				"type": "unocc",
				"energy": -0.07383,
				"method": "rhf"
			},
			{
				"type": "unocc",
				"energy": -0.02885,
				"method": "rhf"
			},
			{
				"type": "unocc",
				"energy": -0.01517,
				"method": "rhf"
			},
			{
				"type": "unocc",
				"energy": 0.00301,
				"method": "rhf"
			}
		],
		"cosmo_sigma_profile": { 
			"-0.025": 0.0,
			"-0.024": 0.0,
			"-0.023": 0.0,
			"-0.022": 0.0,
			"-0.021": 0.0,
			"-0.02": 0.0,
			"-0.019": 0.0,
			"-0.018": 0.0,
			"-0.017": 0.0,
			"-0.016": 0.0,
			"-0.015": 0.0,
			"-0.014": 0.331038285751,
			"-0.013": 1.16995092066,
			"-0.012": 1.51495052349,
			"-0.011": 1.18749317696,
			"-0.01": 1.4528564468,
			"-0.009": 4.44737777948,
			"-0.008": 3.28279065122,
			"-0.007": 6.9874529433,
			"-0.006": 13.9315444179,
			"-0.005": 24.4679517517,
			"-0.004": 32.750379596,
			"-0.003": 37.7110820856,
			"-0.002": 40.0051989874,
			"-0.001": 42.4300494103,
			"0.0": 41.0449662395,
			"0.001": 33.1856423274,
			"0.002": 27.5862572757,
			"0.003": 21.0505917396,
			"0.004": 14.589370233,
			"0.005": 16.0578014617,
			"0.006": 8.82850202567,
			"0.007": 8.76157612737,
			"0.008": 10.1759743592,
			"0.009": 7.71970720931,
			"0.01": 5.86132045877,
			"0.011": 4.1448669211,
			"0.012": 4.48578677091,
			"0.013": 2.9604344055,
			"0.014": 0.0779486497492,
			"0.015": 0.0,
			"0.016": 0.0,
			"0.017": 0.0,
			"0.018": 0.0,
			"0.019": 0.0,
			"0.02": 0.0,
			"0.021": 0.0,
			"0.022": 0.0,
			"0.023": 0.0,
			"0.024": 0.0,
			"0.025": 0.0
		}
	}
}
