{
	 "smiles": "CN(C)C1=CC(=CC=C1)C(=O)NN", 
	 "Tm": 373.15, 
	 "num_atms": 26, 
	 "gaussian": { 
		 "optdone": 1, 
		 "sigma_profile": "yes", 
		 "theory": "DFT", 
		 "functional": "B3LYP", 
		 "basiset": "6-31G**", 
		 "properties": { 
			 "R2extent": 3188.1179, 
			 "electric_dipole_moment_norm": 4.60898197545, 
			 "electric_quadrupole_moment_norm": 5.61142916199, 
			 "total_energy": -590.247409081, 
			 "HOMO_LUMO_gap": 0.16689, 
			 "cosmo_polarized_energy": -14.09, 
			 "cosmo_cavitation_energy": 29.0, 
			 "cosmo_dispersion_energy": -21.21, 
			 "cosmo_repulsion_energy": 1.68, 
			 "cosmo_total_nonelectrostatic_energy": 9.47, 
			 "SMD_solvation_energy": 5.67 
		},
		"coords": [
			{
				"x": 2.8611617691,
				"y": -0.3552139718,
				"z": 2.2072298813,
				"element": "C" 
			},
			{
				"x": 1.6763571819,
				"y": -0.6992213929,
				"z": 1.4401991199,
				"element": "N" 
			},
			{
				"x": 1.0481777827,
				"y": -1.9872043139,
				"z": 1.6761618221,
				"element": "C" 
			},
			{
				"x": 0.9534939859,
				"y": 0.3079493247,
				"z": 0.8123833156,
				"element": "C" 
			},
			{
				"x": -0.2963730889,
				"y": 0.0442734121,
				"z": 0.2093138004,
				"element": "C" 
			},
			{
				"x": -1.0056861731,
				"y": 1.0518111831,
				"z": -0.4546470683,
				"element": "C" 
			},
			{
				"x": -0.4860032877,
				"y": 2.3471690529,
				"z": -0.5454321861,
				"element": "C" 
			},
			{
				"x": 0.7364421825,
				"y": 2.6213453877,
				"z": 0.0622522262,
				"element": "C" 
			},
			{
				"x": 1.4464750981,
				"y": 1.6314755083,
				"z": 0.737464021,
				"element": "C" 
			},
			{
				"x": -2.3343180121,
				"y": 0.7908095736,
				"z": -1.0976867781,
				"element": "C" 
			},
			{
				"x": -2.7832976164,
				"y": 1.4798637001,
				"z": -2.0096629864,
				"element": "O" 
			},
			{
				"x": -3.0482333839,
				"y": -0.2776991156,
				"z": -0.5940918866,
				"element": "N" 
			},
			{
				"x": -4.383200661,
				"y": -0.4800128892,
				"z": -1.0175816735,
				"element": "N" 
			},
			{
				"x": 2.6461729789,
				"y": 0.3182992728,
				"z": 3.0517819731,
				"element": "H" 
			},
			{
				"x": 3.6147607041,
				"y": 0.1278556417,
				"z": 1.5744607266,
				"element": "H" 
			},
			{
				"x": 3.3065414171,
				"y": -1.2680400939,
				"z": 2.6056451415,
				"element": "H" 
			},
			{
				"x": 1.7578755648,
				"y": -2.6449283079,
				"z": 2.1799783661,
				"element": "H" 
			},
			{
				"x": 0.766298206,
				"y": -2.4706740299,
				"z": 0.7331491338,
				"element": "H" 
			},
			{
				"x": 0.1447629734,
				"y": -1.9149663922,
				"z": 2.3025298376,
				"element": "H" 
			},
			{
				"x": -0.6988663555,
				"y": -0.9605558479,
				"z": 0.217666638,
				"element": "H" 
			},
			{
				"x": -1.0461768135,
				"y": 3.1055774896,
				"z": -1.0795363687,
				"element": "H" 
			},
			{
				"x": 1.1501014689,
				"y": 3.6250329028,
				"z": 0.0165237119,
				"element": "H" 
			},
			{
				"x": 2.391358131,
				"y": 1.8897733158,
				"z": 1.1992743756,
				"element": "H" 
			},
			{
				"x": -2.8861880716,
				"y": -0.5435627531,
				"z": 0.3672657395,
				"element": "H" 
			},
			{
				"x": -4.7143556593,
				"y": 0.4292695111,
				"z": -1.3476545201,
				"element": "H" 
			},
			{
				"x": -4.3460803214,
				"y": -1.0649261681,
				"z": -1.8520863624,
				"element": "H" 
			}
		],
		 "valence_orbital": [ 
			{
				"type": "occ",
				"energy": -0.2844,
				"method": "rhf"
			},
			{
				"type": "occ",
				"energy": -0.25599,
				"method": "rhf"
			},
			{
				"type": "occ",
				"energy": -0.24859,
				"method": "rhf"
			},
			{
				"type": "occ",
				"energy": -0.24387,
				"method": "rhf"
			},
			{
				"type": "occ",
				"energy": -0.19576,
				"method": "rhf"
			},
			{
				"type": "unocc",
				"energy": -0.02887,
				"method": "rhf"
			},
			{
				"type": "unocc",
				"energy": 0.0108,
				"method": "rhf"
			},
			{
				"type": "unocc",
				"energy": 0.06333,
				"method": "rhf"
			},
			{
				"type": "unocc",
				"energy": 0.07788,
				"method": "rhf"
			},
			{
				"type": "unocc",
				"energy": 0.09768,
				"method": "rhf"
			}
		],
		"cosmo_sigma_profile": { 
			"-0.025": 0.0,
			"-0.024": 0.0,
			"-0.023": 0.0,
			"-0.022": 0.0,
			"-0.021": 0.0,
			"-0.02": 0.0,
			"-0.019": 0.0,
			"-0.018": 0.0,
			"-0.017": 0.0,
			"-0.016": 0.0,
			"-0.015": 0.0,
			"-0.014": 0.321213977425,
			"-0.013": 0.662202894724,
			"-0.012": 1.30306866094,
			"-0.011": 2.3801771309,
			"-0.01": 2.57270419885,
			"-0.009": 3.18325052038,
			"-0.008": 4.11620891766,
			"-0.007": 4.37909261169,
			"-0.006": 7.6805874666,
			"-0.005": 14.9290717184,
			"-0.004": 19.5937779494,
			"-0.003": 22.3435210572,
			"-0.002": 23.8251172549,
			"-0.001": 20.1872255869,
			"0.0": 10.3209855346,
			"0.001": 11.7372441912,
			"0.002": 10.3146438202,
			"0.003": 9.76689748636,
			"0.004": 12.1717982061,
			"0.005": 12.9760295598,
			"0.006": 10.1078760077,
			"0.007": 3.02164408962,
			"0.008": 1.92073222846,
			"0.009": 1.97690475711,
			"0.01": 2.06280597756,
			"0.011": 2.71496280158,
			"0.012": 2.81299489706,
			"0.013": 5.17162758609,
			"0.014": 2.66815652124,
			"0.015": 0.171046779927,
			"0.016": 1.0657133947,
			"0.017": 0.281943395695,
			"0.018": 0.0,
			"0.019": 0.0,
			"0.02": 0.0,
			"0.021": 0.0,
			"0.022": 0.0,
			"0.023": 0.0,
			"0.024": 0.0,
			"0.025": 0.0
		}
	}
}
