{
	 "smiles": "COC(=O)[C@H]1C[C@@]2(O[C@]1(C1=C2C=C(Cl)N=C1Cl)C1=CC=C(OC)C=C1)SC1=CC=CC=C1", 
	 "Tm": 391.0, 
	 "num_atms": 51, 
	 "gaussian": { 
		 "optdone": 1, 
		 "sigma_profile": "yes", 
		 "theory": "DFT", 
		 "functional": "B3LYP", 
		 "basiset": "6-31G**", 
		 "properties": { 
			 "R2extent": 16995.0951, 
			 "electric_dipole_moment_norm": 6.93222640931, 
			 "electric_quadrupole_moment_norm": 32.6558154538, 
			 "total_energy": -2600.19122705, 
			 "HOMO_LUMO_gap": 0.18112, 
			 "cosmo_polarized_energy": -17.66, 
			 "cosmo_cavitation_energy": 59.02, 
			 "cosmo_dispersion_energy": -39.27, 
			 "cosmo_repulsion_energy": 2.94, 
			 "cosmo_total_nonelectrostatic_energy": 22.7, 
			 "SMD_solvation_energy": 9.12 
		},
		"coords": [
			{
				"x": 3.3234545798,
				"y": -3.108857713,
				"z": 0.1998665233,
				"element": "C" 
			},
			{
				"x": 2.1945634017,
				"y": -2.2848282174,
				"z": 0.5491576733,
				"element": "O" 
			},
			{
				"x": 2.0556647134,
				"y": -1.158321903,
				"z": -0.1841201107,
				"element": "C" 
			},
			{
				"x": 2.838157932,
				"y": -0.8274015403,
				"z": -1.0491306227,
				"element": "O" 
			},
			{
				"x": 0.8183735098,
				"y": -0.3741202791,
				"z": 0.2138737324,
				"element": "C" 
			},
			{
				"x": 1.0626541837,
				"y": 1.1628080143,
				"z": 0.189684325,
				"element": "C" 
			},
			{
				"x": -0.0823551368,
				"y": 1.6617443123,
				"z": -0.7433055164,
				"element": "C" 
			},
			{
				"x": -1.1296765911,
				"y": 0.716786684,
				"z": -0.4408940839,
				"element": "O" 
			},
			{
				"x": -0.4239147679,
				"y": -0.5097514558,
				"z": -0.7751437265,
				"element": "C" 
			},
			{
				"x": 0.080178508,
				"y": -0.1455118693,
				"z": -2.1772701765,
				"element": "C" 
			},
			{
				"x": 0.2795241042,
				"y": 1.2407863061,
				"z": -2.1596687665,
				"element": "C" 
			},
			{
				"x": 0.7796750924,
				"y": 1.9159055576,
				"z": -3.2574368236,
				"element": "C" 
			},
			{
				"x": 1.033311615,
				"y": 1.112110877,
				"z": -4.3783107062,
				"element": "C" 
			},
			{
				"x": 1.6109941336,
				"y": 1.8845754534,
				"z": -5.8480716016,
				"element": "Cl" 
			},
			{
				"x": 0.872619417,
				"y": -0.1971686967,
				"z": -4.424656405,
				"element": "N" 
			},
			{
				"x": 0.4320097446,
				"y": -0.8212454687,
				"z": -3.3357726457,
				"element": "C" 
			},
			{
				"x": 0.3232425698,
				"y": -2.5687675103,
				"z": -3.4449394741,
				"element": "Cl" 
			},
			{
				"x": -1.3620403223,
				"y": -1.6776280313,
				"z": -0.6194081308,
				"element": "C" 
			},
			{
				"x": -2.6293809839,
				"y": -1.5957210939,
				"z": -1.2245434477,
				"element": "C" 
			},
			{
				"x": -3.543138474,
				"y": -2.6303678579,
				"z": -1.1092485924,
				"element": "C" 
			},
			{
				"x": -3.2114221237,
				"y": -3.7863175254,
				"z": -0.383517994,
				"element": "C" 
			},
			{
				"x": -4.175882793,
				"y": -4.7475136619,
				"z": -0.3303708221,
				"element": "O" 
			},
			{
				"x": -3.8951859916,
				"y": -5.9440846688,
				"z": 0.3789776419,
				"element": "C" 
			},
			{
				"x": -1.9556735413,
				"y": -3.8809145269,
				"z": 0.2240348381,
				"element": "C" 
			},
			{
				"x": -1.0442095125,
				"y": -2.8267251404,
				"z": 0.1042948045,
				"element": "C" 
			},
			{
				"x": -0.6197364766,
				"y": 3.3892515392,
				"z": -0.6276017793,
				"element": "S" 
			},
			{
				"x": -0.761354088,
				"y": 3.6541001773,
				"z": 1.1419946141,
				"element": "C" 
			},
			{
				"x": -0.0600382897,
				"y": 4.7220264032,
				"z": 1.7164187109,
				"element": "C" 
			},
			{
				"x": -0.2152670413,
				"y": 5.0073426034,
				"z": 3.0742898208,
				"element": "C" 
			},
			{
				"x": -1.0505284088,
				"y": 4.217791788,
				"z": 3.8658938821,
				"element": "C" 
			},
			{
				"x": -1.7419451555,
				"y": 3.146827347,
				"z": 3.29395214,
				"element": "C" 
			},
			{
				"x": -1.6144167549,
				"y": 2.8695491052,
				"z": 1.9325882914,
				"element": "C" 
			},
			{
				"x": 3.2396678854,
				"y": -3.4495207465,
				"z": -0.8346782903,
				"element": "H" 
			},
			{
				"x": 4.2539908307,
				"y": -2.5486473022,
				"z": 0.3154518165,
				"element": "H" 
			},
			{
				"x": 3.2937041142,
				"y": -3.9531088601,
				"z": 0.8879978932,
				"element": "H" 
			},
			{
				"x": 0.4805646718,
				"y": -0.701633149,
				"z": 1.1980644075,
				"element": "H" 
			},
			{
				"x": 0.9405469131,
				"y": 1.5911116261,
				"z": 1.1854096219,
				"element": "H" 
			},
			{
				"x": 2.0471807788,
				"y": 1.4231413954,
				"z": -0.2008076519,
				"element": "H" 
			},
			{
				"x": 0.9585435236,
				"y": 2.9837324609,
				"z": -3.2711326944,
				"element": "H" 
			},
			{
				"x": -2.8967897405,
				"y": -0.7019201217,
				"z": -1.7786434988,
				"element": "H" 
			},
			{
				"x": -4.5230919208,
				"y": -2.571426909,
				"z": -1.5711601627,
				"element": "H" 
			},
			{
				"x": -3.0385119143,
				"y": -6.4782481342,
				"z": -0.0515785614,
				"element": "H" 
			},
			{
				"x": -4.7876827715,
				"y": -6.5648723124,
				"z": 0.2877234315,
				"element": "H" 
			},
			{
				"x": -3.6988658376,
				"y": -5.7488007815,
				"z": 1.4411406065,
				"element": "H" 
			},
			{
				"x": -1.6734497206,
				"y": -4.7603899702,
				"z": 0.7903179378,
				"element": "H" 
			},
			{
				"x": -0.0733856988,
				"y": -2.9262756249,
				"z": 0.5762143583,
				"element": "H" 
			},
			{
				"x": 0.6032276774,
				"y": 5.3223968767,
				"z": 1.1016708321,
				"element": "H" 
			},
			{
				"x": 0.3267825357,
				"y": 5.8399050392,
				"z": 3.5133572519,
				"element": "H" 
			},
			{
				"x": -1.1641361581,
				"y": 4.4363550342,
				"z": 4.9236592152,
				"element": "H" 
			},
			{
				"x": -2.3959893462,
				"y": 2.532118642,
				"z": 3.9058045375,
				"element": "H" 
			},
			{
				"x": -2.1588628746,
				"y": 2.0477238292,
				"z": 1.4811733773,
				"element": "H" 
			}
		],
		 "valence_orbital": [ 
			{
				"type": "occ",
				"energy": -0.2628,
				"method": "rhf"
			},
			{
				"type": "occ",
				"energy": -0.25514,
				"method": "rhf"
			},
			{
				"type": "occ",
				"energy": -0.25213,
				"method": "rhf"
			},
			{
				"type": "occ",
				"energy": -0.23743,
				"method": "rhf"
			},
			{
				"type": "occ",
				"energy": -0.2228,
				"method": "rhf"
			},
			{
				"type": "unocc",
				"energy": -0.04168,
				"method": "rhf"
			},
			{
				"type": "unocc",
				"energy": -0.03444,
				"method": "rhf"
			},
			{
				"type": "unocc",
				"energy": -0.02465,
				"method": "rhf"
			},
			{
				"type": "unocc",
				"energy": -0.01479,
				"method": "rhf"
			},
			{
				"type": "unocc",
				"energy": -0.01114,
				"method": "rhf"
			}
		],
		"cosmo_sigma_profile": { 
			"-0.025": 0.0,
			"-0.024": 0.0,
			"-0.023": 0.0,
			"-0.022": 0.0,
			"-0.021": 0.0,
			"-0.02": 0.0,
			"-0.019": 0.0,
			"-0.018": 0.0,
			"-0.017": 0.0,
			"-0.016": 0.0,
			"-0.015": 0.0,
			"-0.014": 0.0,
			"-0.013": 0.0,
			"-0.012": 0.0,
			"-0.011": 0.0,
			"-0.01": 0.0,
			"-0.009": 0.656049130403,
			"-0.008": 1.13926702573,
			"-0.007": 5.75009228321,
			"-0.006": 27.8880395273,
			"-0.005": 39.9616588627,
			"-0.004": 42.0627997998,
			"-0.003": 43.5569655759,
			"-0.002": 36.2403110046,
			"-0.001": 35.4527310903,
			"0.0": 31.8632866808,
			"0.001": 31.7272643557,
			"0.002": 34.0446701378,
			"0.003": 41.4118297187,
			"0.004": 42.5663611108,
			"0.005": 24.3392267324,
			"0.006": 10.3671462037,
			"0.007": 8.48723342721,
			"0.008": 6.69617596395,
			"0.009": 4.25172038668,
			"0.01": 4.40841603706,
			"0.011": 3.76652264404,
			"0.012": 1.57085705149,
			"0.013": 0.0679408466981,
			"0.014": 0.0,
			"0.015": 0.0,
			"0.016": 0.0,
			"0.017": 0.0,
			"0.018": 0.0,
			"0.019": 0.0,
			"0.02": 0.0,
			"0.021": 0.0,
			"0.022": 0.0,
			"0.023": 0.0,
			"0.024": 0.0,
			"0.025": 0.0
		}
	}
}
