{
	 "smiles": "CCP(=S)(CC)CC", 
	 "Tm": 368.1, 
	 "num_atms": 23, 
	 "gaussian": { 
		 "optdone": 1, 
		 "sigma_profile": "yes", 
		 "theory": "DFT", 
		 "functional": "B3LYP", 
		 "basiset": "6-31G**", 
		 "properties": { 
			 "R2extent": 1679.3297, 
			 "electric_dipole_moment_norm": 4.894219898, 
			 "electric_quadrupole_moment_norm": 9.52261694179, 
			 "total_energy": -977.270080574, 
			 "HOMO_LUMO_gap": 0.25841, 
			 "cosmo_polarized_energy": -13.81, 
			 "cosmo_cavitation_energy": 26.89, 
			 "cosmo_dispersion_energy": -19.25, 
			 "cosmo_repulsion_energy": 1.52, 
			 "cosmo_total_nonelectrostatic_energy": 9.15, 
			 "SMD_solvation_energy": 4.27 
		},
		"coords": [
			{
				"x": -0.5510702128,
				"y": -0.8444322688,
				"z": 2.4744694994,
				"element": "C" 
			},
			{
				"x": -0.9523141305,
				"y": -0.6551018877,
				"z": 1.0079259176,
				"element": "C" 
			},
			{
				"x": 0.2167383191,
				"y": 0.3578532459,
				"z": -0.0184395732,
				"element": "P" 
			},
			{
				"x": 0.7086437911,
				"y": 2.0990099311,
				"z": 0.7801153466,
				"element": "S" 
			},
			{
				"x": 1.6586185868,
				"y": -0.7360960126,
				"z": -0.437104441,
				"element": "C" 
			},
			{
				"x": 2.7172562879,
				"y": -0.878390629,
				"z": 0.6615507222,
				"element": "C" 
			},
			{
				"x": -0.7073234917,
				"y": 0.4825585158,
				"z": -1.6215342985,
				"element": "C" 
			},
			{
				"x": -0.0110991409,
				"y": 1.3248182641,
				"z": -2.6954833917,
				"element": "C" 
			},
			{
				"x": -0.3323824205,
				"y": 0.119865442,
				"z": 2.9406979916,
				"element": "H" 
			},
			{
				"x": -1.366182884,
				"y": -1.3197712692,
				"z": 3.0293128974,
				"element": "H" 
			},
			{
				"x": 0.3335303939,
				"y": -1.4789065007,
				"z": 2.5770177206,
				"element": "H" 
			},
			{
				"x": -1.0918555901,
				"y": -1.6196099932,
				"z": 0.5029190357,
				"element": "H" 
			},
			{
				"x": -1.9083650137,
				"y": -0.1218156493,
				"z": 0.950592921,
				"element": "H" 
			},
			{
				"x": 1.2582084853,
				"y": -1.7126047253,
				"z": -0.7384114108,
				"element": "H" 
			},
			{
				"x": 2.1115195933,
				"y": -0.2870287744,
				"z": -1.3279162339,
				"element": "H" 
			},
			{
				"x": 3.0480774969,
				"y": 0.1052776381,
				"z": 1.0048973715,
				"element": "H" 
			},
			{
				"x": 3.5864186244,
				"y": -1.4225158348,
				"z": 0.2783838323,
				"element": "H" 
			},
			{
				"x": 2.3371267262,
				"y": -1.4267372145,
				"z": 1.5276659234,
				"element": "H" 
			},
			{
				"x": -1.6777134574,
				"y": 0.9237415504,
				"z": -1.3678081563,
				"element": "H" 
			},
			{
				"x": -0.8991115395,
				"y": -0.5380033037,
				"z": -1.9781341663,
				"element": "H" 
			},
			{
				"x": 0.2134021537,
				"y": 2.3245848702,
				"z": -2.3148992173,
				"element": "H" 
			},
			{
				"x": 0.9276915227,
				"y": 0.8698037278,
				"z": -3.026529621,
				"element": "H" 
			},
			{
				"x": -0.6561140999,
				"y": 1.4256008778,
				"z": -3.5739886695,
				"element": "H" 
			}
		],
		 "valence_orbital": [ 
			{
				"type": "occ",
				"energy": -0.33056,
				"method": "rhf"
			},
			{
				"type": "occ",
				"energy": -0.32717,
				"method": "rhf"
			},
			{
				"type": "occ",
				"energy": -0.3201,
				"method": "rhf"
			},
			{
				"type": "occ",
				"energy": -0.21109,
				"method": "rhf"
			},
			{
				"type": "occ",
				"energy": -0.2108,
				"method": "rhf"
			},
			{
				"type": "unocc",
				"energy": 0.04761,
				"method": "rhf"
			},
			{
				"type": "unocc",
				"energy": 0.05783,
				"method": "rhf"
			},
			{
				"type": "unocc",
				"energy": 0.06607,
				"method": "rhf"
			},
			{
				"type": "unocc",
				"energy": 0.07395,
				"method": "rhf"
			},
			{
				"type": "unocc",
				"energy": 0.09668,
				"method": "rhf"
			}
		],
		"cosmo_sigma_profile": { 
			"-0.025": 0.0,
			"-0.024": 0.0,
			"-0.023": 0.0,
			"-0.022": 0.0,
			"-0.021": 0.0,
			"-0.02": 0.0,
			"-0.019": 0.0,
			"-0.018": 0.0,
			"-0.017": 0.0,
			"-0.016": 0.0,
			"-0.015": 0.0,
			"-0.014": 0.0,
			"-0.013": 0.0,
			"-0.012": 0.0,
			"-0.011": 0.0,
			"-0.01": 0.0,
			"-0.009": 0.491931548146,
			"-0.008": 1.14479855366,
			"-0.007": 3.29281212177,
			"-0.006": 9.75769092365,
			"-0.005": 15.8513149492,
			"-0.004": 20.2884595712,
			"-0.003": 21.7161655623,
			"-0.002": 27.4856550725,
			"-0.001": 21.7508555555,
			"0.0": 23.7897859456,
			"0.001": 14.7892165656,
			"0.002": 3.65133741349,
			"0.003": 3.45294674622,
			"0.004": 2.86817414643,
			"0.005": 4.74529607596,
			"0.006": 4.696759305,
			"0.007": 3.63366493953,
			"0.008": 4.11085955132,
			"0.009": 5.37170221282,
			"0.01": 4.66999749172,
			"0.011": 6.33732505363,
			"0.012": 4.77426197845,
			"0.013": 1.75413157634,
			"0.014": 0.0,
			"0.015": 0.0,
			"0.016": 0.0,
			"0.017": 0.0,
			"0.018": 0.0,
			"0.019": 0.0,
			"0.02": 0.0,
			"0.021": 0.0,
			"0.022": 0.0,
			"0.023": 0.0,
			"0.024": 0.0,
			"0.025": 0.0
		}
	}
}
