{
	 "smiles": "CCCCCCCCCCCCCCCCCCCCCC1CCCC1", 
	 "Tm": 315.15, 
	 "num_atms": 78, 
	 "gaussian": { 
		 "optdone": 1, 
		 "sigma_profile": "yes", 
		 "theory": "DFT", 
		 "functional": "B3LYP", 
		 "basiset": "6-31G**", 
		 "properties": { 
			 "R2extent": 25418.96, 
			 "electric_dipole_moment_norm": 0.0964193963889, 
			 "electric_quadrupole_moment_norm": 1.30733591705, 
			 "total_energy": -1022.1813537, 
			 "HOMO_LUMO_gap": 0.37062, 
			 "cosmo_polarized_energy": -1.51, 
			 "cosmo_cavitation_energy": 72.65, 
			 "cosmo_dispersion_energy": -48.5, 
			 "cosmo_repulsion_energy": 3.94, 
			 "cosmo_total_nonelectrostatic_energy": 28.08, 
			 "SMD_solvation_energy": 8.51 
		},
		"coords": [
			{
				"x": 2.2901042383,
				"y": -7.4382384723,
				"z": 0.9396207003,
				"element": "C" 
			},
			{
				"x": 2.4446890539,
				"y": -7.2547268606,
				"z": 2.4543114453,
				"element": "C" 
			},
			{
				"x": 2.6030038931,
				"y": -5.7929991067,
				"z": 2.9058481421,
				"element": "C" 
			},
			{
				"x": 3.9000252646,
				"y": -5.1197610158,
				"z": 2.4310606179,
				"element": "C" 
			},
			{
				"x": 4.1350194123,
				"y": -3.7109491913,
				"z": 3.0023511259,
				"element": "C" 
			},
			{
				"x": 3.1161856064,
				"y": -2.6558219134,
				"z": 2.5439629672,
				"element": "C" 
			},
			{
				"x": 3.4184101513,
				"y": -1.2356709252,
				"z": 3.0623100359,
				"element": "C" 
			},
			{
				"x": 4.624586675,
				"y": -0.5170232038,
				"z": 2.4128169377,
				"element": "C" 
			},
			{
				"x": 4.2865076005,
				"y": 0.4012225007,
				"z": 1.2237603128,
				"element": "C" 
			},
			{
				"x": 3.7304078189,
				"y": -0.3026859984,
				"z": -0.0232777488,
				"element": "C" 
			},
			{
				"x": 3.5578405281,
				"y": 0.6160057567,
				"z": -1.2452947721,
				"element": "C" 
			},
			{
				"x": 2.4902899162,
				"y": 1.7081191807,
				"z": -1.0857991369,
				"element": "C" 
			},
			{
				"x": 2.3183096265,
				"y": 2.5630704865,
				"z": -2.3515570679,
				"element": "C" 
			},
			{
				"x": 1.2703827802,
				"y": 3.6938736651,
				"z": -2.2507679818,
				"element": "C" 
			},
			{
				"x": -0.1606468495,
				"y": 3.3354870131,
				"z": -2.6911655505,
				"element": "C" 
			},
			{
				"x": -0.8846798799,
				"y": 2.2704884438,
				"z": -1.8554242044,
				"element": "C" 
			},
			{
				"x": -2.3477401637,
				"y": 2.0787900279,
				"z": -2.2810686368,
				"element": "C" 
			},
			{
				"x": -3.0875236912,
				"y": 0.9449654321,
				"z": -1.5490509938,
				"element": "C" 
			},
			{
				"x": -3.2438907249,
				"y": 1.1117207227,
				"z": -0.0269991694,
				"element": "C" 
			},
			{
				"x": -4.082644361,
				"y": 2.3233937865,
				"z": 0.4030267247,
				"element": "C" 
			},
			{
				"x": -4.2913489766,
				"y": 2.4004236381,
				"z": 1.9223081125,
				"element": "C" 
			},
			{
				"x": -5.1637147869,
				"y": 3.5717813792,
				"z": 2.3877804823,
				"element": "C" 
			},
			{
				"x": -5.4271955843,
				"y": 3.6037269921,
				"z": 3.9050582622,
				"element": "C" 
			},
			{
				"x": -6.0017497475,
				"y": 5.0099979789,
				"z": 4.1587958858,
				"element": "C" 
			},
			{
				"x": -5.3135339717,
				"y": 5.9291862948,
				"z": 3.1067162023,
				"element": "C" 
			},
			{
				"x": -4.5776063005,
				"y": 4.9769610588,
				"z": 2.1248988582,
				"element": "C" 
			},
			{
				"x": 1.4328108822,
				"y": -6.8700542308,
				"z": 0.5595377516,
				"element": "H" 
			},
			{
				"x": 3.1774598921,
				"y": -7.1012159577,
				"z": 0.3941128586,
				"element": "H" 
			},
			{
				"x": 2.1291959421,
				"y": -8.4909569536,
				"z": 0.6843915063,
				"element": "H" 
			},
			{
				"x": 1.5671689142,
				"y": -7.6836841357,
				"z": 2.9551120628,
				"element": "H" 
			},
			{
				"x": 3.308237584,
				"y": -7.8362074588,
				"z": 2.8061250122,
				"element": "H" 
			},
			{
				"x": 2.5721902129,
				"y": -5.7577052858,
				"z": 4.0039293461,
				"element": "H" 
			},
			{
				"x": 1.7334611624,
				"y": -5.2186596341,
				"z": 2.559114953,
				"element": "H" 
			},
			{
				"x": 3.9135538376,
				"y": -5.0651553577,
				"z": 1.3342375691,
				"element": "H" 
			},
			{
				"x": 4.7481463495,
				"y": -5.7594945079,
				"z": 2.7128871967,
				"element": "H" 
			},
			{
				"x": 5.1452911057,
				"y": -3.3871412203,
				"z": 2.7205092002,
				"element": "H" 
			},
			{
				"x": 4.1299744535,
				"y": -3.7595365677,
				"z": 4.1011950742,
				"element": "H" 
			},
			{
				"x": 3.0675265011,
				"y": -2.6554410474,
				"z": 1.4474799051,
				"element": "H" 
			},
			{
				"x": 2.116624563,
				"y": -2.9452430724,
				"z": 2.8915407101,
				"element": "H" 
			},
			{
				"x": 2.525512616,
				"y": -0.6080818357,
				"z": 2.9379546233,
				"element": "H" 
			},
			{
				"x": 3.5813138191,
				"y": -1.3029311188,
				"z": 4.1463341394,
				"element": "H" 
			},
			{
				"x": 5.1191935164,
				"y": 0.0995474549,
				"z": 3.1736498033,
				"element": "H" 
			},
			{
				"x": 5.375809476,
				"y": -1.2543273805,
				"z": 2.0984994502,
				"element": "H" 
			},
			{
				"x": 3.5752392631,
				"y": 1.165165195,
				"z": 1.5653660874,
				"element": "H" 
			},
			{
				"x": 5.1980864771,
				"y": 0.9450082941,
				"z": 0.9372169063,
				"element": "H" 
			},
			{
				"x": 2.7634750179,
				"y": -0.7678840159,
				"z": 0.2098888708,
				"element": "H" 
			},
			{
				"x": 4.4065778876,
				"y": -1.1251426703,
				"z": -0.2948874983,
				"element": "H" 
			},
			{
				"x": 3.2994366856,
				"y": -0.0024137004,
				"z": -2.1159442484,
				"element": "H" 
			},
			{
				"x": 4.5234577133,
				"y": 1.0849052028,
				"z": -1.4848775877,
				"element": "H" 
			},
			{
				"x": 1.5374185512,
				"y": 1.2393335636,
				"z": -0.8096429186,
				"element": "H" 
			},
			{
				"x": 2.7543578658,
				"y": 2.3707576439,
				"z": -0.251049724,
				"element": "H" 
			},
			{
				"x": 2.0730457326,
				"y": 1.9131279232,
				"z": -3.2041094755,
				"element": "H" 
			},
			{
				"x": 3.2945812464,
				"y": 3.0059476783,
				"z": -2.5903207005,
				"element": "H" 
			},
			{
				"x": 1.2503344708,
				"y": 4.0800574973,
				"z": -1.2215729813,
				"element": "H" 
			},
			{
				"x": 1.6012253308,
				"y": 4.5334285165,
				"z": -2.8750835384,
				"element": "H" 
			},
			{
				"x": -0.762048379,
				"y": 4.2554403134,
				"z": -2.6778107392,
				"element": "H" 
			},
			{
				"x": -0.1374331136,
				"y": 3.0098016175,
				"z": -3.7412720012,
				"element": "H" 
			},
			{
				"x": -0.8362942417,
				"y": 2.5519343613,
				"z": -0.7948349581,
				"element": "H" 
			},
			{
				"x": -0.3625185084,
				"y": 1.3084008698,
				"z": -1.9410204837,
				"element": "H" 
			},
			{
				"x": -2.8891992757,
				"y": 3.0254694092,
				"z": -2.1508923817,
				"element": "H" 
			},
			{
				"x": -2.3758578232,
				"y": 1.8677024375,
				"z": -3.3589667117,
				"element": "H" 
			},
			{
				"x": -2.5627377847,
				"y": -0.0001543073,
				"z": -1.7456204365,
				"element": "H" 
			},
			{
				"x": -4.0859247046,
				"y": 0.8333651313,
				"z": -1.9940358379,
				"element": "H" 
			},
			{
				"x": -2.2546099171,
				"y": 1.1696895014,
				"z": 0.4466564511,
				"element": "H" 
			},
			{
				"x": -3.7105155913,
				"y": 0.2009019874,
				"z": 0.372716726,
				"element": "H" 
			},
			{
				"x": -5.0622488431,
				"y": 2.2798869934,
				"z": -0.095453357,
				"element": "H" 
			},
			{
				"x": -3.6059988827,
				"y": 3.2482660913,
				"z": 0.0550246509,
				"element": "H" 
			},
			{
				"x": -4.7430366666,
				"y": 1.4592712185,
				"z": 2.2671248928,
				"element": "H" 
			},
			{
				"x": -3.3125774557,
				"y": 2.4670056332,
				"z": 2.4208106603,
				"element": "H" 
			},
			{
				"x": -6.1380136743,
				"y": 3.5032466123,
				"z": 1.877947134,
				"element": "H" 
			},
			{
				"x": -4.473961182,
				"y": 3.4795768453,
				"z": 4.438085171,
				"element": "H" 
			},
			{
				"x": -6.0922261625,
				"y": 2.8008448821,
				"z": 4.2417259805,
				"element": "H" 
			},
			{
				"x": -5.8406462788,
				"y": 5.3514260354,
				"z": 5.1861206417,
				"element": "H" 
			},
			{
				"x": -7.085805588,
				"y": 4.9998475738,
				"z": 3.9965677203,
				"element": "H" 
			},
			{
				"x": -4.612024948,
				"y": 6.6256127641,
				"z": 3.5769526979,
				"element": "H" 
			},
			{
				"x": -6.0546946006,
				"y": 6.542515499,
				"z": 2.5841149238,
				"element": "H" 
			},
			{
				"x": -4.6770728225,
				"y": 5.2928234243,
				"z": 1.0818290913,
				"element": "H" 
			},
			{
				"x": -3.5026481533,
				"y": 4.9595846181,
				"z": 2.3500142604,
				"element": "H" 
			}
		],
		 "valence_orbital": [ 
			{
				"type": "occ",
				"energy": -0.29939,
				"method": "rhf"
			},
			{
				"type": "occ",
				"energy": -0.29511,
				"method": "rhf"
			},
			{
				"type": "occ",
				"energy": -0.29465,
				"method": "rhf"
			},
			{
				"type": "occ",
				"energy": -0.29279,
				"method": "rhf"
			},
			{
				"type": "occ",
				"energy": -0.2913,
				"method": "rhf"
			},
			{
				"type": "unocc",
				"energy": 0.07932,
				"method": "rhf"
			},
			{
				"type": "unocc",
				"energy": 0.08719,
				"method": "rhf"
			},
			{
				"type": "unocc",
				"energy": 0.08946,
				"method": "rhf"
			},
			{
				"type": "unocc",
				"energy": 0.0941,
				"method": "rhf"
			},
			{
				"type": "unocc",
				"energy": 0.09858,
				"method": "rhf"
			}
		],
		"cosmo_sigma_profile": { 
			"-0.025": 0.0,
			"-0.024": 0.0,
			"-0.023": 0.0,
			"-0.022": 0.0,
			"-0.021": 0.0,
			"-0.02": 0.0,
			"-0.019": 0.0,
			"-0.018": 0.0,
			"-0.017": 0.0,
			"-0.016": 0.0,
			"-0.015": 0.0,
			"-0.014": 0.0,
			"-0.013": 0.0,
			"-0.012": 0.0,
			"-0.011": 0.0,
			"-0.01": 0.0,
			"-0.009": 0.0,
			"-0.008": 0.0,
			"-0.007": 0.0,
			"-0.006": 0.0,
			"-0.005": 0.0,
			"-0.004": 0.0,
			"-0.003": 2.32056519035,
			"-0.002": 52.4392739153,
			"-0.001": 142.268857351,
			"0.0": 163.839960901,
			"0.001": 129.762460096,
			"0.002": 59.9569044517,
			"0.003": 2.34913649725,
			"0.004": 0.0,
			"0.005": 0.0,
			"0.006": 0.0,
			"0.007": 0.0,
			"0.008": 0.0,
			"0.009": 0.0,
			"0.01": 0.0,
			"0.011": 0.0,
			"0.012": 0.0,
			"0.013": 0.0,
			"0.014": 0.0,
			"0.015": 0.0,
			"0.016": 0.0,
			"0.017": 0.0,
			"0.018": 0.0,
			"0.019": 0.0,
			"0.02": 0.0,
			"0.021": 0.0,
			"0.022": 0.0,
			"0.023": 0.0,
			"0.024": 0.0,
			"0.025": 0.0
		}
	}
}
