{
	 "smiles": "COC1=CC(N)=C(C=C1)S(N)(=O)=O", 
	 "Tm": 413.15, 
	 "num_atms": 23, 
	 "gaussian": { 
		 "optdone": 1, 
		 "sigma_profile": "yes", 
		 "theory": "DFT", 
		 "functional": "B3LYP", 
		 "basiset": "6-31G**", 
		 "properties": { 
			 "R2extent": 3418.152, 
			 "electric_dipole_moment_norm": 6.1544717255, 
			 "electric_quadrupole_moment_norm": 22.5784429463, 
			 "total_energy": -1006.06288549, 
			 "HOMO_LUMO_gap": 0.20407, 
			 "cosmo_polarized_energy": -19.39, 
			 "cosmo_cavitation_energy": 27.58, 
			 "cosmo_dispersion_energy": -21.32, 
			 "cosmo_repulsion_energy": 1.63, 
			 "cosmo_total_nonelectrostatic_energy": 7.9, 
			 "SMD_solvation_energy": 5.13 
		},
		"coords": [
			{
				"x": -0.3557679575,
				"y": 2.5228052241,
				"z": -2.700148972,
				"element": "C" 
			},
			{
				"x": -0.3954049442,
				"y": 1.1134004089,
				"z": -2.5177869655,
				"element": "O" 
			},
			{
				"x": -0.0838765574,
				"y": 0.6084125027,
				"z": -1.2949631321,
				"element": "C" 
			},
			{
				"x": -0.1231042256,
				"y": -0.7886712078,
				"z": -1.2024758981,
				"element": "C" 
			},
			{
				"x": 0.1786895035,
				"y": -1.4421584481,
				"z": -0.0053030767,
				"element": "C" 
			},
			{
				"x": 0.0901729635,
				"y": -2.8284392405,
				"z": 0.1070723693,
				"element": "N" 
			},
			{
				"x": 0.5104493609,
				"y": -0.6443483088,
				"z": 1.1201739395,
				"element": "C" 
			},
			{
				"x": 0.5593927821,
				"y": 0.7440980626,
				"z": 1.017591728,
				"element": "C" 
			},
			{
				"x": 0.2680010458,
				"y": 1.3879624719,
				"z": -0.1822904342,
				"element": "C" 
			},
			{
				"x": 0.8206999935,
				"y": -1.4091988483,
				"z": 2.6999433548,
				"element": "S" 
			},
			{
				"x": -0.6441653922,
				"y": -2.079701842,
				"z": 3.1951112657,
				"element": "N" 
			},
			{
				"x": 1.1413897281,
				"y": -0.3616501709,
				"z": 3.6672848321,
				"element": "O" 
			},
			{
				"x": 1.7124402949,
				"y": -2.5564612666,
				"z": 2.4750289504,
				"element": "O" 
			},
			{
				"x": -0.6315627938,
				"y": 2.6971083558,
				"z": -3.7409408604,
				"element": "H" 
			},
			{
				"x": 0.6489080237,
				"y": 2.9241350969,
				"z": -2.519741742,
				"element": "H" 
			},
			{
				"x": -1.0722099809,
				"y": 3.0342171279,
				"z": -2.0456701909,
				"element": "H" 
			},
			{
				"x": -0.3827571815,
				"y": -1.3564893927,
				"z": -2.0907015427,
				"element": "H" 
			},
			{
				"x": 0.0027365545,
				"y": -3.3108843075,
				"z": -0.7774071813,
				"element": "H" 
			},
			{
				"x": 0.8010064518,
				"y": -3.2370955922,
				"z": 0.7084173875,
				"element": "H" 
			},
			{
				"x": 0.8297519855,
				"y": 1.3173112071,
				"z": 1.8979365995,
				"element": "H" 
			},
			{
				"x": 0.3153804402,
				"y": 2.4676277097,
				"z": -0.238177764,
				"element": "H" 
			},
			{
				"x": -0.9932949817,
				"y": -2.7343099068,
				"z": 2.4966827564,
				"element": "H" 
			},
			{
				"x": -1.3236751132,
				"y": -1.3530696353,
				"z": 3.4036645768,
				"element": "H" 
			}
		],
		 "valence_orbital": [ 
			{
				"type": "occ",
				"energy": -0.30485,
				"method": "rhf"
			},
			{
				"type": "occ",
				"energy": -0.30208,
				"method": "rhf"
			},
			{
				"type": "occ",
				"energy": -0.29601,
				"method": "rhf"
			},
			{
				"type": "occ",
				"energy": -0.23987,
				"method": "rhf"
			},
			{
				"type": "occ",
				"energy": -0.22638,
				"method": "rhf"
			},
			{
				"type": "unocc",
				"energy": -0.02231,
				"method": "rhf"
			},
			{
				"type": "unocc",
				"energy": -0.00482,
				"method": "rhf"
			},
			{
				"type": "unocc",
				"energy": 0.06342,
				"method": "rhf"
			},
			{
				"type": "unocc",
				"energy": 0.07613,
				"method": "rhf"
			},
			{
				"type": "unocc",
				"energy": 0.08383,
				"method": "rhf"
			}
		],
		"cosmo_sigma_profile": { 
			"-0.025": 0.0,
			"-0.024": 0.0,
			"-0.023": 0.0,
			"-0.022": 0.0,
			"-0.021": 0.0,
			"-0.02": 0.0,
			"-0.019": 0.0,
			"-0.018": 0.0,
			"-0.017": 0.0,
			"-0.016": 0.0,
			"-0.015": 1.06293744426,
			"-0.014": 1.33253492408,
			"-0.013": 2.95327310325,
			"-0.012": 4.0739867766,
			"-0.011": 4.3587703613,
			"-0.01": 3.16605717953,
			"-0.009": 4.08870839617,
			"-0.008": 3.70417455218,
			"-0.007": 7.07066330711,
			"-0.006": 12.7915311977,
			"-0.005": 15.9787273941,
			"-0.004": 14.3479020437,
			"-0.003": 13.1829935565,
			"-0.002": 10.0494464283,
			"-0.001": 9.16207653032,
			"0.0": 8.42898481683,
			"0.001": 10.3394851149,
			"0.002": 10.8271420502,
			"0.003": 15.2937785052,
			"0.004": 12.8882996151,
			"0.005": 6.78598471282,
			"0.006": 5.47018721057,
			"0.007": 6.16598460918,
			"0.008": 5.53147886342,
			"0.009": 6.91810717294,
			"0.01": 7.56430990905,
			"0.011": 9.3082899727,
			"0.012": 5.28058839434,
			"0.013": 0.620258344255,
			"0.014": 0.0895369364766,
			"0.015": 0.0,
			"0.016": 0.0,
			"0.017": 0.0,
			"0.018": 0.0,
			"0.019": 0.0,
			"0.02": 0.0,
			"0.021": 0.0,
			"0.022": 0.0,
			"0.023": 0.0,
			"0.024": 0.0,
			"0.025": 0.0
		}
	}
}
