{
	 "smiles": "O=C(NCC#C)NC1=CC=CC=C1", 
	 "Tm": 407.15, 
	 "num_atms": 23, 
	 "gaussian": { 
		 "optdone": 1, 
		 "sigma_profile": "yes", 
		 "theory": "DFT", 
		 "functional": "B3LYP", 
		 "basiset": "6-31G**", 
		 "properties": { 
			 "R2extent": 3885.075, 
			 "electric_dipole_moment_norm": 3.56935709757, 
			 "electric_quadrupole_moment_norm": 7.81932410506, 
			 "total_energy": -571.763854982, 
			 "HOMO_LUMO_gap": 0.21543, 
			 "cosmo_polarized_energy": -14.47, 
			 "cosmo_cavitation_energy": 28.59, 
			 "cosmo_dispersion_energy": -20.4, 
			 "cosmo_repulsion_energy": 1.61, 
			 "cosmo_total_nonelectrostatic_energy": 9.79, 
			 "SMD_solvation_energy": 6.06 
		},
		"coords": [
			{
				"x": 1.5020500088,
				"y": 1.1811747553,
				"z": 1.1080227627,
				"element": "O" 
			},
			{
				"x": 0.8019136334,
				"y": 0.1893817475,
				"z": 1.2668006659,
				"element": "C" 
			},
			{
				"x": 1.2115298459,
				"y": -0.9033014179,
				"z": 2.0247659616,
				"element": "N" 
			},
			{
				"x": 2.3915184264,
				"y": -0.7711919449,
				"z": 2.8762793667,
				"element": "C" 
			},
			{
				"x": 2.0669895825,
				"y": -0.6395463489,
				"z": 4.3009982947,
				"element": "C" 
			},
			{
				"x": 1.7873817614,
				"y": -0.5633625909,
				"z": 5.4734090137,
				"element": "C" 
			},
			{
				"x": -0.4446581053,
				"y": 0.0051521684,
				"z": 0.6930139864,
				"element": "N" 
			},
			{
				"x": -1.1499769065,
				"y": 0.8760009436,
				"z": -0.1636977371,
				"element": "C" 
			},
			{
				"x": -0.7010434423,
				"y": 2.1609590712,
				"z": -0.5063618219,
				"element": "C" 
			},
			{
				"x": -1.4774044869,
				"y": 2.9521828198,
				"z": -1.353547122,
				"element": "C" 
			},
			{
				"x": -2.6913049143,
				"y": 2.4946768084,
				"z": -1.8676365685,
				"element": "C" 
			},
			{
				"x": -3.1336001845,
				"y": 1.2162078029,
				"z": -1.5234726601,
				"element": "C" 
			},
			{
				"x": -2.3717565291,
				"y": 0.4130928123,
				"z": -0.6793846265,
				"element": "C" 
			},
			{
				"x": 0.4993392643,
				"y": -1.5315519684,
				"z": 2.3709931594,
				"element": "H" 
			},
			{
				"x": 2.9239577093,
				"y": 0.1161242798,
				"z": 2.5206728888,
				"element": "H" 
			},
			{
				"x": 3.0508870676,
				"y": -1.6356561713,
				"z": 2.7281436732,
				"element": "H" 
			},
			{
				"x": 1.5444621524,
				"y": -0.4745825435,
				"z": 6.5070397422,
				"element": "H" 
			},
			{
				"x": -0.8729262338,
				"y": -0.9010421109,
				"z": 0.8152265189,
				"element": "H" 
			},
			{
				"x": 0.2409907628,
				"y": 2.5161410494,
				"z": -0.1142236445,
				"element": "H" 
			},
			{
				"x": -1.1194528707,
				"y": 3.9447147466,
				"z": -1.6129263609,
				"element": "H" 
			},
			{
				"x": -3.2834569523,
				"y": 3.1228580131,
				"z": -2.5259125772,
				"element": "H" 
			},
			{
				"x": -4.075201214,
				"y": 0.8381489046,
				"z": -1.9114530312,
				"element": "H" 
			},
			{
				"x": -2.7252383752,
				"y": -0.5818808261,
				"z": -0.4155498844,
				"element": "H" 
			}
		],
		 "valence_orbital": [ 
			{
				"type": "occ",
				"energy": -0.27467,
				"method": "rhf"
			},
			{
				"type": "occ",
				"energy": -0.26394,
				"method": "rhf"
			},
			{
				"type": "occ",
				"energy": -0.26124,
				"method": "rhf"
			},
			{
				"type": "occ",
				"energy": -0.24661,
				"method": "rhf"
			},
			{
				"type": "occ",
				"energy": -0.21403,
				"method": "rhf"
			},
			{
				"type": "unocc",
				"energy": 0.0014,
				"method": "rhf"
			},
			{
				"type": "unocc",
				"energy": 0.00293,
				"method": "rhf"
			},
			{
				"type": "unocc",
				"energy": 0.03234,
				"method": "rhf"
			},
			{
				"type": "unocc",
				"energy": 0.05,
				"method": "rhf"
			},
			{
				"type": "unocc",
				"energy": 0.05852,
				"method": "rhf"
			}
		],
		"cosmo_sigma_profile": { 
			"-0.025": 0.0,
			"-0.024": 0.0,
			"-0.023": 0.0,
			"-0.022": 0.0,
			"-0.021": 0.0,
			"-0.02": 0.0,
			"-0.019": 0.0,
			"-0.018": 0.0,
			"-0.017": 0.0366533486955,
			"-0.016": 0.398766370594,
			"-0.015": 0.731454405344,
			"-0.014": 2.13748595843,
			"-0.013": 3.1379737039,
			"-0.012": 2.84106802079,
			"-0.011": 2.87059799645,
			"-0.01": 3.63723308953,
			"-0.009": 2.44333548955,
			"-0.008": 4.70739767583,
			"-0.007": 4.40849052692,
			"-0.006": 8.90933900778,
			"-0.005": 14.6812548304,
			"-0.004": 15.1832000256,
			"-0.003": 13.0742668486,
			"-0.002": 11.1961211111,
			"-0.001": 11.4688507473,
			"0.0": 12.1668240066,
			"0.001": 12.9737470604,
			"0.002": 14.2942646378,
			"0.003": 17.7294275345,
			"0.004": 15.8963537914,
			"0.005": 16.58024856,
			"0.006": 18.9420090016,
			"0.007": 7.34614192043,
			"0.008": 1.15761256464,
			"0.009": 1.56804265304,
			"0.01": 1.73766140286,
			"0.011": 1.82334561023,
			"0.012": 2.38752731886,
			"0.013": 3.03282361077,
			"0.014": 0.0900811299576,
			"0.015": 0.0,
			"0.016": 0.0,
			"0.017": 0.0,
			"0.018": 0.0,
			"0.019": 0.0,
			"0.02": 0.0,
			"0.021": 0.0,
			"0.022": 0.0,
			"0.023": 0.0,
			"0.024": 0.0,
			"0.025": 0.0
		}
	}
}
