{
	 "smiles": "OC(=O)C1CCCC2=C1C=NN2", 
	 "Tm": 450.15, 
	 "num_atms": 22, 
	 "gaussian": { 
		 "optdone": 1, 
		 "sigma_profile": "yes", 
		 "theory": "DFT", 
		 "functional": "B3LYP", 
		 "basiset": "6-31G**", 
		 "properties": { 
			 "R2extent": 2414.345, 
			 "electric_dipole_moment_norm": 5.09174090268, 
			 "electric_quadrupole_moment_norm": 13.0753223222, 
			 "total_energy": -570.823498977, 
			 "HOMO_LUMO_gap": 0.24108, 
			 "cosmo_polarized_energy": -19.53, 
			 "cosmo_cavitation_energy": 24.68, 
			 "cosmo_dispersion_energy": -18.45, 
			 "cosmo_repulsion_energy": 1.47, 
			 "cosmo_total_nonelectrostatic_energy": 7.7, 
			 "SMD_solvation_energy": 3.81 
		},
		"coords": [
			{
				"x": 0.3735073167,
				"y": 2.5848457231,
				"z": 2.0736996936,
				"element": "O" 
			},
			{
				"x": -0.1735765946,
				"y": 1.3562556437,
				"z": 1.85174479,
				"element": "C" 
			},
			{
				"x": -0.8510670064,
				"y": 0.8368340355,
				"z": 2.7010868525,
				"element": "O" 
			},
			{
				"x": 0.1351813443,
				"y": 0.7503035301,
				"z": 0.4782202484,
				"element": "C" 
			},
			{
				"x": -0.1866045136,
				"y": -0.7570940607,
				"z": 0.4473017162,
				"element": "C" 
			},
			{
				"x": -0.1290309478,
				"y": -1.3329096013,
				"z": -0.9771877591,
				"element": "C" 
			},
			{
				"x": -1.1902305719,
				"y": -0.6993151666,
				"z": -1.9012332301,
				"element": "C" 
			},
			{
				"x": -1.1970282602,
				"y": 0.7813328015,
				"z": -1.6817580343,
				"element": "C" 
			},
			{
				"x": -0.6301511426,
				"y": 1.4621708811,
				"z": -0.6172912667,
				"element": "C" 
			},
			{
				"x": -0.9455795821,
				"y": 2.8242176601,
				"z": -0.8556968679,
				"element": "C" 
			},
			{
				"x": -1.6465384871,
				"y": 2.9832273784,
				"z": -1.9763902138,
				"element": "N" 
			},
			{
				"x": -1.7853574853,
				"y": 1.7268439454,
				"z": -2.4601014609,
				"element": "N" 
			},
			{
				"x": 0.9198719939,
				"y": 2.8468664141,
				"z": 1.3191568711,
				"element": "H" 
			},
			{
				"x": 1.2176062527,
				"y": 0.87990087,
				"z": 0.3078635216,
				"element": "H" 
			},
			{
				"x": -1.1830464604,
				"y": -0.9023517408,
				"z": 0.8778350381,
				"element": "H" 
			},
			{
				"x": 0.5136788574,
				"y": -1.2898721734,
				"z": 1.0985121604,
				"element": "H" 
			},
			{
				"x": -0.2726835324,
				"y": -2.4177800429,
				"z": -0.9444880757,
				"element": "H" 
			},
			{
				"x": 0.8680410069,
				"y": -1.1598931926,
				"z": -1.4027862513,
				"element": "H" 
			},
			{
				"x": -0.9840723352,
				"y": -0.9472100184,
				"z": -2.9499949948,
				"element": "H" 
			},
			{
				"x": -2.1804175148,
				"y": -1.1169504292,
				"z": -1.6703333012,
				"element": "H" 
			},
			{
				"x": -0.715081824,
				"y": 3.6920896417,
				"z": -0.2514507272,
				"element": "H" 
			},
			{
				"x": -2.2974205134,
				"y": 1.590387901,
				"z": -3.3181087089,
				"element": "H" 
			}
		],
		 "valence_orbital": [ 
			{
				"type": "occ",
				"energy": -0.31603,
				"method": "rhf"
			},
			{
				"type": "occ",
				"energy": -0.28964,
				"method": "rhf"
			},
			{
				"type": "occ",
				"energy": -0.27785,
				"method": "rhf"
			},
			{
				"type": "occ",
				"energy": -0.25791,
				"method": "rhf"
			},
			{
				"type": "occ",
				"energy": -0.23687,
				"method": "rhf"
			},
			{
				"type": "unocc",
				"energy": 0.00421,
				"method": "rhf"
			},
			{
				"type": "unocc",
				"energy": 0.01622,
				"method": "rhf"
			},
			{
				"type": "unocc",
				"energy": 0.04909,
				"method": "rhf"
			},
			{
				"type": "unocc",
				"energy": 0.06691,
				"method": "rhf"
			},
			{
				"type": "unocc",
				"energy": 0.07969,
				"method": "rhf"
			}
		],
		"cosmo_sigma_profile": { 
			"-0.025": 0.0,
			"-0.024": 0.0,
			"-0.023": 0.0,
			"-0.022": 0.0,
			"-0.021": 0.0,
			"-0.02": 0.0,
			"-0.019": 0.065946173922,
			"-0.018": 0.823486979342,
			"-0.017": 0.849067546047,
			"-0.016": 2.35024842348,
			"-0.015": 2.3515663498,
			"-0.014": 2.23799802871,
			"-0.013": 2.46876713452,
			"-0.012": 1.73116381131,
			"-0.011": 2.0593854988,
			"-0.01": 2.37088646513,
			"-0.009": 2.4940946848,
			"-0.008": 3.15978665735,
			"-0.007": 3.93515823607,
			"-0.006": 4.88808283331,
			"-0.005": 7.98789721435,
			"-0.004": 14.3457463501,
			"-0.003": 18.6456529672,
			"-0.002": 18.5429483659,
			"-0.001": 14.3528217523,
			"0.0": 11.4141570464,
			"0.001": 6.23514437398,
			"0.002": 6.4739895985,
			"0.003": 6.27764083938,
			"0.004": 7.24242840585,
			"0.005": 6.27435473578,
			"0.006": 5.49957656751,
			"0.007": 3.94363929522,
			"0.008": 4.24682568076,
			"0.009": 5.2919738658,
			"0.01": 6.46514340751,
			"0.011": 6.86806012734,
			"0.012": 5.89499800884,
			"0.013": 2.8387161307,
			"0.014": 0.952537336004,
			"0.015": 1.15491144854,
			"0.016": 0.986925197179,
			"0.017": 0.254632399247,
			"0.018": 0.0,
			"0.019": 0.0,
			"0.02": 0.0,
			"0.021": 0.0,
			"0.022": 0.0,
			"0.023": 0.0,
			"0.024": 0.0,
			"0.025": 0.0
		}
	}
}
