{
	 "smiles": "COC1=CC(=CC(OC)=C1OC)C1C2C(COC2=O)CC2=C1C=C1OCOC1=C2O", 
	 "Tm": 507.15, 
	 "num_atms": 52, 
	 "gaussian": { 
		 "optdone": 1, 
		 "sigma_profile": "yes", 
		 "theory": "DFT", 
		 "functional": "B3LYP", 
		 "basiset": "6-31G**", 
		 "properties": { 
			 "R2extent": 14121.737, 
			 "electric_dipole_moment_norm": 4.19060544671, 
			 "electric_quadrupole_moment_norm": 32.1243580239, 
			 "total_energy": -1453.32114715, 
			 "HOMO_LUMO_gap": 0.20237, 
			 "cosmo_polarized_energy": -20.84, 
			 "cosmo_cavitation_energy": 53.48, 
			 "cosmo_dispersion_energy": -36.38, 
			 "cosmo_repulsion_energy": 2.79, 
			 "cosmo_total_nonelectrostatic_energy": 19.89, 
			 "SMD_solvation_energy": 12.69 
		},
		"coords": [
			{
				"x": 3.984433177,
				"y": -2.6075032983,
				"z": -0.3414503849,
				"element": "C" 
			},
			{
				"x": 3.0345725894,
				"y": -1.8740844801,
				"z": 0.4383975887,
				"element": "O" 
			},
			{
				"x": 1.7635643832,
				"y": -1.8010177203,
				"z": -0.0785351634,
				"element": "C" 
			},
			{
				"x": 1.2627569341,
				"y": -0.542703795,
				"z": -0.4299389623,
				"element": "C" 
			},
			{
				"x": -0.0519688765,
				"y": -0.3910367416,
				"z": -0.8770556319,
				"element": "C" 
			},
			{
				"x": -0.8502493465,
				"y": -1.5368448312,
				"z": -1.0089546805,
				"element": "C" 
			},
			{
				"x": -0.3610546778,
				"y": -2.7964453205,
				"z": -0.6682106831,
				"element": "C" 
			},
			{
				"x": -1.2054409721,
				"y": -3.8798677315,
				"z": -0.747921876,
				"element": "O" 
			},
			{
				"x": -0.8625289092,
				"y": -4.8529268762,
				"z": -1.7413597363,
				"element": "C" 
			},
			{
				"x": 0.9531250796,
				"y": -2.9405135157,
				"z": -0.188120097,
				"element": "C" 
			},
			{
				"x": 1.4435001674,
				"y": -4.1815239166,
				"z": 0.1615390342,
				"element": "O" 
			},
			{
				"x": 1.0628825658,
				"y": -4.6001235419,
				"z": 1.4786099337,
				"element": "C" 
			},
			{
				"x": -0.6472723364,
				"y": 0.9664325115,
				"z": -1.2764407053,
				"element": "C" 
			},
			{
				"x": -1.8416893795,
				"y": 1.37362476,
				"z": -0.360827702,
				"element": "C" 
			},
			{
				"x": -1.4851476668,
				"y": 2.1391054228,
				"z": 0.9350228206,
				"element": "C" 
			},
			{
				"x": -2.2551541156,
				"y": 3.4805523837,
				"z": 0.795022315,
				"element": "C" 
			},
			{
				"x": -3.0454454214,
				"y": 3.4221563101,
				"z": -0.4057131569,
				"element": "O" 
			},
			{
				"x": -2.7887769454,
				"y": 2.3023567665,
				"z": -1.1245103919,
				"element": "C" 
			},
			{
				"x": -3.2736905971,
				"y": 2.1047263115,
				"z": -2.2106450058,
				"element": "O" 
			},
			{
				"x": 0.0293377979,
				"y": 2.3581713613,
				"z": 1.1233276159,
				"element": "C" 
			},
			{
				"x": 0.6834121804,
				"y": 2.7864004612,
				"z": -0.169886836,
				"element": "C" 
			},
			{
				"x": 0.3570586986,
				"y": 2.102782616,
				"z": -1.3556903921,
				"element": "C" 
			},
			{
				"x": 0.9223365996,
				"y": 2.4577966775,
				"z": -2.5964806794,
				"element": "C" 
			},
			{
				"x": 1.8165634142,
				"y": 3.5108759703,
				"z": -2.5924119415,
				"element": "C" 
			},
			{
				"x": 2.5301384203,
				"y": 4.0469853536,
				"z": -3.6427123847,
				"element": "O" 
			},
			{
				"x": 3.1230998476,
				"y": 5.2428624507,
				"z": -3.1296000732,
				"element": "C" 
			},
			{
				"x": 3.0763844618,
				"y": 5.1777424467,
				"z": -1.6953381407,
				"element": "O" 
			},
			{
				"x": 2.1449616832,
				"y": 4.1909437839,
				"z": -1.4309650426,
				"element": "C" 
			},
			{
				"x": 1.5990040393,
				"y": 3.859696742,
				"z": -0.2034348157,
				"element": "C" 
			},
			{
				"x": 1.9151754377,
				"y": 4.5279791401,
				"z": 0.9469756625,
				"element": "O" 
			},
			{
				"x": 4.1061632086,
				"y": -2.1537423131,
				"z": -1.3335382089,
				"element": "H" 
			},
			{
				"x": 4.9316340178,
				"y": -2.5456417423,
				"z": 0.1986297157,
				"element": "H" 
			},
			{
				"x": 3.68896165,
				"y": -3.654613846,
				"z": -0.4503448745,
				"element": "H" 
			},
			{
				"x": 1.9266653946,
				"y": 0.3090352919,
				"z": -0.3360598083,
				"element": "H" 
			},
			{
				"x": -1.8689612201,
				"y": -1.4737276619,
				"z": -1.3810762486,
				"element": "H" 
			},
			{
				"x": 0.1247825536,
				"y": -5.2844296413,
				"z": -1.5528912345,
				"element": "H" 
			},
			{
				"x": -0.8843663318,
				"y": -4.4075873056,
				"z": -2.7441114982,
				"element": "H" 
			},
			{
				"x": -1.6244278887,
				"y": -5.6326802749,
				"z": -1.6787976439,
				"element": "H" 
			},
			{
				"x": -0.0266353361,
				"y": -4.6726744978,
				"z": 1.5646646454,
				"element": "H" 
			},
			{
				"x": 1.5083470788,
				"y": -5.5857543004,
				"z": 1.629933069,
				"element": "H" 
			},
			{
				"x": 1.4493690123,
				"y": -3.9054965169,
				"z": 2.233368294,
				"element": "H" 
			},
			{
				"x": -1.0861604602,
				"y": 0.8325623548,
				"z": -2.2721382867,
				"element": "H" 
			},
			{
				"x": -2.4199082578,
				"y": 0.4725477915,
				"z": -0.1355219852,
				"element": "H" 
			},
			{
				"x": -1.8676782908,
				"y": 1.5947457299,
				"z": 1.8030086226,
				"element": "H" 
			},
			{
				"x": -2.9355230988,
				"y": 3.6664285812,
				"z": 1.6307420173,
				"element": "H" 
			},
			{
				"x": -1.5740257957,
				"y": 4.3327126637,
				"z": 0.7017695651,
				"element": "H" 
			},
			{
				"x": 0.4798935505,
				"y": 1.4230759378,
				"z": 1.4777161912,
				"element": "H" 
			},
			{
				"x": 0.2063862389,
				"y": 3.1028052718,
				"z": 1.9044598821,
				"element": "H" 
			},
			{
				"x": 0.6618144029,
				"y": 1.9343869409,
				"z": -3.5090530388,
				"element": "H" 
			},
			{
				"x": 4.1646555739,
				"y": 5.3028381032,
				"z": -3.4549186341,
				"element": "H" 
			},
			{
				"x": 2.5489855338,
				"y": 6.1163319398,
				"z": -3.4737321208,
				"element": "H" 
			},
			{
				"x": 2.5280402315,
				"y": 5.243077793,
				"z": 0.7264010924,
				"element": "H" 
			}
		],
		 "valence_orbital": [ 
			{
				"type": "occ",
				"energy": -0.25983,
				"method": "rhf"
			},
			{
				"type": "occ",
				"energy": -0.22956,
				"method": "rhf"
			},
			{
				"type": "occ",
				"energy": -0.22538,
				"method": "rhf"
			},
			{
				"type": "occ",
				"energy": -0.22376,
				"method": "rhf"
			},
			{
				"type": "occ",
				"energy": -0.20948,
				"method": "rhf"
			},
			{
				"type": "unocc",
				"energy": -0.00711,
				"method": "rhf"
			},
			{
				"type": "unocc",
				"energy": 0.00112,
				"method": "rhf"
			},
			{
				"type": "unocc",
				"energy": 0.0042,
				"method": "rhf"
			},
			{
				"type": "unocc",
				"energy": 0.00963,
				"method": "rhf"
			},
			{
				"type": "unocc",
				"energy": 0.02205,
				"method": "rhf"
			}
		],
		"cosmo_sigma_profile": { 
			"-0.025": 0.0,
			"-0.024": 0.0,
			"-0.023": 0.0,
			"-0.022": 0.0,
			"-0.021": 0.0,
			"-0.02": 0.0,
			"-0.019": 0.0,
			"-0.018": 0.0,
			"-0.017": 0.293914086519,
			"-0.016": 0.605588658999,
			"-0.015": 0.762492993133,
			"-0.014": 0.739323918715,
			"-0.013": 0.767993307902,
			"-0.012": 0.635905996915,
			"-0.011": 0.518867519244,
			"-0.01": 0.745999578717,
			"-0.009": 1.13828469703,
			"-0.008": 4.00768274236,
			"-0.007": 10.3342138221,
			"-0.006": 22.5874453997,
			"-0.005": 33.1061115437,
			"-0.004": 35.6072209346,
			"-0.003": 42.2411222996,
			"-0.002": 39.8620263877,
			"-0.001": 27.736597952,
			"0.0": 25.5109014192,
			"0.001": 26.2148997692,
			"0.002": 28.2296648897,
			"0.003": 26.3948866283,
			"0.004": 21.6758212053,
			"0.005": 11.8135799889,
			"0.006": 9.17948458722,
			"0.007": 10.0280614578,
			"0.008": 8.7147942683,
			"0.009": 9.70813990314,
			"0.01": 8.3731223034,
			"0.011": 6.61496618629,
			"0.012": 7.13943081513,
			"0.013": 1.82090676827,
			"0.014": 0.0305928277397,
			"0.015": 0.0,
			"0.016": 0.0,
			"0.017": 0.0,
			"0.018": 0.0,
			"0.019": 0.0,
			"0.02": 0.0,
			"0.021": 0.0,
			"0.022": 0.0,
			"0.023": 0.0,
			"0.024": 0.0,
			"0.025": 0.0
		}
	}
}
