{
	 "smiles": "OC1=CC=C(CC2CCC(=O)O2)C=C1", 
	 "Tm": 378.15, 
	 "num_atms": 26, 
	 "gaussian": { 
		 "optdone": 1, 
		 "sigma_profile": "yes", 
		 "theory": "DFT", 
		 "functional": "B3LYP", 
		 "basiset": "6-31G**", 
		 "properties": { 
			 "R2extent": 4953.4063, 
			 "electric_dipole_moment_norm": 5.1470068875, 
			 "electric_quadrupole_moment_norm": 23.9306196117, 
			 "total_energy": -652.088166001, 
			 "HOMO_LUMO_gap": 0.21317, 
			 "cosmo_polarized_energy": -16.48, 
			 "cosmo_cavitation_energy": 29.7, 
			 "cosmo_dispersion_energy": -21.42, 
			 "cosmo_repulsion_energy": 1.7, 
			 "cosmo_total_nonelectrostatic_energy": 9.98, 
			 "SMD_solvation_energy": 5.94 
		},
		"coords": [
			{
				"x": -0.2743542539,
				"y": 4.0332390985,
				"z": -2.2278695983,
				"element": "O" 
			},
			{
				"x": -0.2065192305,
				"y": 2.699903274,
				"z": -1.9389101318,
				"element": "C" 
			},
			{
				"x": -0.0129715741,
				"y": 1.8169206891,
				"z": -3.0079561781,
				"element": "C" 
			},
			{
				"x": 0.0598459691,
				"y": 0.4487463377,
				"z": -2.7681659902,
				"element": "C" 
			},
			{
				"x": -0.0529816674,
				"y": -0.0785201836,
				"z": -1.4714919135,
				"element": "C" 
			},
			{
				"x": 0.0597687846,
				"y": -1.5687494858,
				"z": -1.228080149,
				"element": "C" 
			},
			{
				"x": 1.5087192431,
				"y": -2.0617631579,
				"z": -1.2608644356,
				"element": "C" 
			},
			{
				"x": 2.4248107263,
				"y": -1.5580588453,
				"z": -0.1310247798,
				"element": "C" 
			},
			{
				"x": 3.3994079021,
				"y": -2.7253598052,
				"z": 0.0446014233,
				"element": "C" 
			},
			{
				"x": 2.5841608817,
				"y": -3.9360008753,
				"z": -0.400204468,
				"element": "C" 
			},
			{
				"x": 2.7988479459,
				"y": -5.1018080908,
				"z": -0.1947173414,
				"element": "O" 
			},
			{
				"x": 1.5070618007,
				"y": -3.5054771785,
				"z": -1.1207790812,
				"element": "O" 
			},
			{
				"x": -0.249479553,
				"y": 0.820995839,
				"z": -0.417828072,
				"element": "C" 
			},
			{
				"x": -0.327131985,
				"y": 2.1966515329,
				"z": -0.6404020662,
				"element": "C" 
			},
			{
				"x": -0.419131076,
				"y": 4.5283044467,
				"z": -1.411160377,
				"element": "H" 
			},
			{
				"x": 0.0692988838,
				"y": 2.2194663996,
				"z": -4.0121660601,
				"element": "H" 
			},
			{
				"x": 0.1986578912,
				"y": -0.2262878756,
				"z": -3.6095871726,
				"element": "H" 
			},
			{
				"x": -0.3725166776,
				"y": -1.8341554484,
				"z": -0.2566690796,
				"element": "H" 
			},
			{
				"x": -0.5020398109,
				"y": -2.1238104304,
				"z": -1.9878573268,
				"element": "H" 
			},
			{
				"x": 1.951881821,
				"y": -1.8302789287,
				"z": -2.239297999,
				"element": "H" 
			},
			{
				"x": 1.8377140317,
				"y": -1.4113343324,
				"z": 0.7826930718,
				"element": "H" 
			},
			{
				"x": 2.901180456,
				"y": -0.6077978346,
				"z": -0.3794551078,
				"element": "H" 
			},
			{
				"x": 3.7752771469,
				"y": -2.8720185004,
				"z": 1.0586476605,
				"element": "H" 
			},
			{
				"x": 4.2677893524,
				"y": -2.6412130932,
				"z": -0.6205841703,
				"element": "H" 
			},
			{
				"x": -0.3536501408,
				"y": 0.4448127655,
				"z": 0.5968093359,
				"element": "H" 
			},
			{
				"x": -0.4866468673,
				"y": 2.8755936831,
				"z": 0.1949200068,
				"element": "H" 
			}
		],
		 "valence_orbital": [ 
			{
				"type": "occ",
				"energy": -0.33062,
				"method": "rhf"
			},
			{
				"type": "occ",
				"energy": -0.29027,
				"method": "rhf"
			},
			{
				"type": "occ",
				"energy": -0.26208,
				"method": "rhf"
			},
			{
				"type": "occ",
				"energy": -0.2599,
				"method": "rhf"
			},
			{
				"type": "occ",
				"energy": -0.22543,
				"method": "rhf"
			},
			{
				"type": "unocc",
				"energy": -0.01226,
				"method": "rhf"
			},
			{
				"type": "unocc",
				"energy": 0.00276,
				"method": "rhf"
			},
			{
				"type": "unocc",
				"energy": 0.01515,
				"method": "rhf"
			},
			{
				"type": "unocc",
				"energy": 0.06396,
				"method": "rhf"
			},
			{
				"type": "unocc",
				"energy": 0.07877,
				"method": "rhf"
			}
		],
		"cosmo_sigma_profile": { 
			"-0.025": 0.0,
			"-0.024": 0.0,
			"-0.023": 0.0,
			"-0.022": 0.0,
			"-0.021": 0.0,
			"-0.02": 0.0,
			"-0.019": 0.0,
			"-0.018": 0.253896116604,
			"-0.017": 1.12002530377,
			"-0.016": 0.919191548039,
			"-0.015": 1.37723409369,
			"-0.014": 0.903833575905,
			"-0.013": 0.912614379048,
			"-0.012": 1.32665636227,
			"-0.011": 0.415638400934,
			"-0.01": 0.81936309471,
			"-0.009": 1.5367224171,
			"-0.008": 0.877531230961,
			"-0.007": 4.55118603237,
			"-0.006": 11.9401368644,
			"-0.005": 28.32778174,
			"-0.004": 25.3054907637,
			"-0.003": 17.0320381266,
			"-0.002": 16.2016538206,
			"-0.001": 14.0354386325,
			"0.0": 10.8831842692,
			"0.001": 7.97405317217,
			"0.002": 9.73947845763,
			"0.003": 9.25313353367,
			"0.004": 12.8598590504,
			"0.005": 11.7904952792,
			"0.006": 9.38690375633,
			"0.007": 2.92326583171,
			"0.008": 4.72210227603,
			"0.009": 4.39513440131,
			"0.01": 6.09119079839,
			"0.011": 6.7840791452,
			"0.012": 6.75567996934,
			"0.013": 2.77562874429,
			"0.014": 0.144282842985,
			"0.015": 0.0,
			"0.016": 0.0,
			"0.017": 0.0,
			"0.018": 0.0,
			"0.019": 0.0,
			"0.02": 0.0,
			"0.021": 0.0,
			"0.022": 0.0,
			"0.023": 0.0,
			"0.024": 0.0,
			"0.025": 0.0
		}
	}
}
