{
	 "smiles": "OC(=O)C1=CC(I)=C(Cl)C=C1", 
	 "Tm": 486.15, 
	 "num_atms": 15, 
	 "gaussian": { 
		 "optdone": 1, 
		 "sigma_profile": "yes", 
		 "theory": "DFT", 
		 "functional": "B3LYP", 
		 "basiset": "6-31G**", 
		 "properties": { 
			 "R2extent": 2753.0596, 
			 "electric_dipole_moment_norm": 2.54789838494, 
			 "electric_quadrupole_moment_norm": 5.98205561158, 
			 "total_energy": -891.194191853, 
			 "HOMO_LUMO_gap": 0.18618, 
			 "cosmo_polarized_energy": -9.02, 
			 "cosmo_cavitation_energy": 25.01, 
			 "cosmo_dispersion_energy": -19.95, 
			 "cosmo_repulsion_energy": 1.57, 
			 "cosmo_total_nonelectrostatic_energy": 6.63, 
			 "SMD_solvation_energy": 4.47 
		},
		"coords": [
			{
				"x": -1.1647488968,
				"y": 1.7359909387,
				"z": 1.9908047652,
				"element": "O" 
			},
			{
				"x": -0.3855852635,
				"y": 2.1072964567,
				"z": 0.9464058824,
				"element": "C" 
			},
			{
				"x": -0.2656469265,
				"y": 3.2654699463,
				"z": 0.6022768019,
				"element": "O" 
			},
			{
				"x": 0.2868210862,
				"y": 0.9531208298,
				"z": 0.2895761181,
				"element": "C" 
			},
			{
				"x": 1.1169681147,
				"y": 1.2246912206,
				"z": -0.8030536967,
				"element": "C" 
			},
			{
				"x": 1.7784940799,
				"y": 0.1917761607,
				"z": -1.4662454276,
				"element": "C" 
			},
			{
				"x": 3.0126991548,
				"y": 0.6869537316,
				"z": -3.106073687,
				"element": "I" 
			},
			{
				"x": 1.602557849,
				"y": -1.1296841426,
				"z": -1.0247062716,
				"element": "C" 
			},
			{
				"x": 2.3937596902,
				"y": -2.4778653771,
				"z": -1.79908546,
				"element": "Cl" 
			},
			{
				"x": 0.7717075172,
				"y": -1.4004565802,
				"z": 0.0686456028,
				"element": "C" 
			},
			{
				"x": 0.1153843136,
				"y": -0.366494038,
				"z": 0.7250594606,
				"element": "C" 
			},
			{
				"x": -1.5507974239,
				"y": 2.5553327273,
				"z": 2.3415998319,
				"element": "H" 
			},
			{
				"x": 1.2329904341,
				"y": 2.2541314012,
				"z": -1.120411906,
				"element": "H" 
			},
			{
				"x": 0.6496837488,
				"y": -2.4276985317,
				"z": 0.3932232529,
				"element": "H" 
			},
			{
				"x": -0.5271874778,
				"y": -0.5791647432,
				"z": 1.571184733,
				"element": "H" 
			}
		],
		 "valence_orbital": [ 
			{
				"type": "occ",
				"energy": -0.31288,
				"method": "rhf"
			},
			{
				"type": "occ",
				"energy": -0.29068,
				"method": "rhf"
			},
			{
				"type": "occ",
				"energy": -0.27238,
				"method": "rhf"
			},
			{
				"type": "occ",
				"energy": -0.27084,
				"method": "rhf"
			},
			{
				"type": "occ",
				"energy": -0.25373,
				"method": "rhf"
			},
			{
				"type": "unocc",
				"energy": -0.06755,
				"method": "rhf"
			},
			{
				"type": "unocc",
				"energy": -0.05331,
				"method": "rhf"
			},
			{
				"type": "unocc",
				"energy": -0.03621,
				"method": "rhf"
			},
			{
				"type": "unocc",
				"energy": 0.02438,
				"method": "rhf"
			},
			{
				"type": "unocc",
				"energy": 0.03467,
				"method": "rhf"
			}
		],
		"cosmo_sigma_profile": { 
			"-0.025": 0.0,
			"-0.024": 0.0,
			"-0.023": 0.0,
			"-0.022": 0.0,
			"-0.021": 0.0,
			"-0.02": 0.0,
			"-0.019": 0.247669687407,
			"-0.018": 0.909854002427,
			"-0.017": 0.976881506148,
			"-0.016": 1.17460369247,
			"-0.015": 0.287164404552,
			"-0.014": 0.67050279282,
			"-0.013": 0.337124691188,
			"-0.012": 0.98834845004,
			"-0.011": 0.861204132551,
			"-0.01": 0.667410925469,
			"-0.009": 0.673551167326,
			"-0.008": 4.2630404322,
			"-0.007": 6.00409938795,
			"-0.006": 7.1683567205,
			"-0.005": 6.34893970342,
			"-0.004": 6.94982398337,
			"-0.003": 11.8202309398,
			"-0.002": 11.9917913503,
			"-0.001": 20.5755103265,
			"0.0": 26.9095227002,
			"0.001": 23.5227623851,
			"0.002": 15.5888914973,
			"0.003": 19.9368406776,
			"0.004": 17.9167282558,
			"0.005": 4.28966808415,
			"0.006": 3.1368363128,
			"0.007": 2.040019184,
			"0.008": 1.87545783242,
			"0.009": 1.19615067016,
			"0.01": 2.44402153691,
			"0.011": 4.41115728797,
			"0.012": 2.20097298314,
			"0.013": 0.0,
			"0.014": 0.0,
			"0.015": 0.0,
			"0.016": 0.0,
			"0.017": 0.0,
			"0.018": 0.0,
			"0.019": 0.0,
			"0.02": 0.0,
			"0.021": 0.0,
			"0.022": 0.0,
			"0.023": 0.0,
			"0.024": 0.0,
			"0.025": 0.0
		}
	}
}
