{
	 "smiles": "C[C@H](CCC(O)=O)[C@H]1CC[C@H]2[C@@H]3CC[C@H]4CC(=O)CC[C@]4(C)[C@H]3CC[C@]12C", 
	 "Tm": 462.0, 
	 "num_atms": 65, 
	 "gaussian": { 
		 "optdone": 1, 
		 "sigma_profile": "yes", 
		 "theory": "DFT", 
		 "functional": "B3LYP", 
		 "basiset": "6-31G**", 
		 "properties": { 
			 "R2extent": 16396.9497, 
			 "electric_dipole_moment_norm": 4.21214175213, 
			 "electric_quadrupole_moment_norm": 50.0502215322, 
			 "total_energy": -1163.17284181, 
			 "HOMO_LUMO_gap": 0.22246, 
			 "cosmo_polarized_energy": -20.62, 
			 "cosmo_cavitation_energy": 55.85, 
			 "cosmo_dispersion_energy": -38.22, 
			 "cosmo_repulsion_energy": 2.79, 
			 "cosmo_total_nonelectrostatic_energy": 20.43, 
			 "SMD_solvation_energy": 9.05 
		},
		"coords": [
			{
				"x": -2.7540444876,
				"y": 3.2683687954,
				"z": -1.547179759,
				"element": "C" 
			},
			{
				"x": -1.8155782907,
				"y": 2.1556614089,
				"z": -2.0531064616,
				"element": "C" 
			},
			{
				"x": -2.2277189103,
				"y": 1.6736104336,
				"z": -3.4630854524,
				"element": "C" 
			},
			{
				"x": -2.1456079612,
				"y": 2.7576530183,
				"z": -4.5512199475,
				"element": "C" 
			},
			{
				"x": -3.4429305828,
				"y": 3.5391045789,
				"z": -4.7481662716,
				"element": "C" 
			},
			{
				"x": -3.3173935529,
				"y": 4.7200552663,
				"z": -5.4141483106,
				"element": "O" 
			},
			{
				"x": -4.5335103034,
				"y": 3.160674664,
				"z": -4.4011847768,
				"element": "O" 
			},
			{
				"x": -1.6989971621,
				"y": 1.026279479,
				"z": -0.9859299599,
				"element": "C" 
			},
			{
				"x": -2.7245636202,
				"y": -0.1475067945,
				"z": -1.0595219037,
				"element": "C" 
			},
			{
				"x": -2.0531785654,
				"y": -1.3523874095,
				"z": -0.329763504,
				"element": "C" 
			},
			{
				"x": -0.7413571417,
				"y": -0.7726369474,
				"z": 0.2329275623,
				"element": "C" 
			},
			{
				"x": 0.3949624546,
				"y": -1.7135383894,
				"z": 0.6544982531,
				"element": "C" 
			},
			{
				"x": -0.0864379229,
				"y": -2.7756108552,
				"z": 1.6581061124,
				"element": "C" 
			},
			{
				"x": 1.0609249082,
				"y": -3.6352734109,
				"z": 2.199666307,
				"element": "C" 
			},
			{
				"x": 2.1736376732,
				"y": -2.7624679551,
				"z": 2.7949534159,
				"element": "C" 
			},
			{
				"x": 3.2637454105,
				"y": -3.6114766159,
				"z": 3.4841850649,
				"element": "C" 
			},
			{
				"x": 4.3381988125,
				"y": -2.7521332276,
				"z": 4.1320542042,
				"element": "C" 
			},
			{
				"x": 4.7373927984,
				"y": -2.9486495904,
				"z": 5.2647868229,
				"element": "O" 
			},
			{
				"x": 4.8778024203,
				"y": -1.6292818324,
				"z": 3.2596274089,
				"element": "C" 
			},
			{
				"x": 3.7643267054,
				"y": -0.8434062918,
				"z": 2.5352289517,
				"element": "C" 
			},
			{
				"x": 2.7521328274,
				"y": -1.7354769794,
				"z": 1.7676061035,
				"element": "C" 
			},
			{
				"x": 3.4735746818,
				"y": -2.4340569748,
				"z": 0.5923359522,
				"element": "C" 
			},
			{
				"x": 1.5530606477,
				"y": -0.8599131635,
				"z": 1.2564054302,
				"element": "C" 
			},
			{
				"x": 1.9681282539,
				"y": 0.2953506865,
				"z": 0.3123463497,
				"element": "C" 
			},
			{
				"x": 0.7813657765,
				"y": 1.1593023435,
				"z": -0.165553736,
				"element": "C" 
			},
			{
				"x": -0.3269641942,
				"y": 0.3052068061,
				"z": -0.8041093197,
				"element": "C" 
			},
			{
				"x": 0.1761287637,
				"y": -0.3063581453,
				"z": -2.1296684143,
				"element": "C" 
			},
			{
				"x": -2.7742411233,
				"y": 4.1318800975,
				"z": -2.2194178022,
				"element": "H" 
			},
			{
				"x": -2.4294401931,
				"y": 3.6315500431,
				"z": -0.5663841406,
				"element": "H" 
			},
			{
				"x": -3.7837054397,
				"y": 2.9079212433,
				"z": -1.4539960968,
				"element": "H" 
			},
			{
				"x": -0.8125180565,
				"y": 2.6017766814,
				"z": -2.1468091313,
				"element": "H" 
			},
			{
				"x": -1.5939291578,
				"y": 0.8366615002,
				"z": -3.7646679215,
				"element": "H" 
			},
			{
				"x": -3.2585895512,
				"y": 1.3059409437,
				"z": -3.4495867135,
				"element": "H" 
			},
			{
				"x": -1.316896787,
				"y": 3.452419543,
				"z": -4.3558155691,
				"element": "H" 
			},
			{
				"x": -1.9281343759,
				"y": 2.2956429881,
				"z": -5.5244348025,
				"element": "H" 
			},
			{
				"x": -2.3867322944,
				"y": 4.8897093837,
				"z": -5.6174652568,
				"element": "H" 
			},
			{
				"x": -1.8683980956,
				"y": 1.5238131071,
				"z": -0.0209300411,
				"element": "H" 
			},
			{
				"x": -2.9559136763,
				"y": -0.4145119155,
				"z": -2.0936493238,
				"element": "H" 
			},
			{
				"x": -3.6753624293,
				"y": 0.132060745,
				"z": -0.5956401746,
				"element": "H" 
			},
			{
				"x": -2.6913604992,
				"y": -1.7680986314,
				"z": 0.4553955492,
				"element": "H" 
			},
			{
				"x": -1.8499279559,
				"y": -2.168929442,
				"z": -1.0330759989,
				"element": "H" 
			},
			{
				"x": -1.0172263589,
				"y": -0.2118676321,
				"z": 1.1414807073,
				"element": "H" 
			},
			{
				"x": 0.7634653672,
				"y": -2.241204135,
				"z": -0.2364613016,
				"element": "H" 
			},
			{
				"x": -0.8468588136,
				"y": -3.412801106,
				"z": 1.191868258,
				"element": "H" 
			},
			{
				"x": -0.5814215002,
				"y": -2.2692953363,
				"z": 2.5002946362,
				"element": "H" 
			},
			{
				"x": 1.468344732,
				"y": -4.2696132542,
				"z": 1.4008471055,
				"element": "H" 
			},
			{
				"x": 0.6844154401,
				"y": -4.3206633998,
				"z": 2.9693668194,
				"element": "H" 
			},
			{
				"x": 1.7062858259,
				"y": -2.156319344,
				"z": 3.5877729566,
				"element": "H" 
			},
			{
				"x": 3.7483783238,
				"y": -4.2705767697,
				"z": 2.7495703335,
				"element": "H" 
			},
			{
				"x": 2.8301650754,
				"y": -4.2551824097,
				"z": 4.2554009324,
				"element": "H" 
			},
			{
				"x": 5.549088254,
				"y": -2.0862307207,
				"z": 2.5187977304,
				"element": "H" 
			},
			{
				"x": 5.4899694813,
				"y": -0.9718971146,
				"z": 3.8831546542,
				"element": "H" 
			},
			{
				"x": 3.2139002334,
				"y": -0.2499154883,
				"z": 3.2778951779,
				"element": "H" 
			},
			{
				"x": 4.2357648885,
				"y": -0.1269435843,
				"z": 1.8548016402,
				"element": "H" 
			},
			{
				"x": 3.9542205983,
				"y": -1.6989251161,
				"z": -0.0603538197,
				"element": "H" 
			},
			{
				"x": 4.2590754774,
				"y": -3.112787197,
				"z": 0.9356454601,
				"element": "H" 
			},
			{
				"x": 2.7917437402,
				"y": -3.0240281607,
				"z": -0.024919594,
				"element": "H" 
			},
			{
				"x": 1.1314692905,
				"y": -0.384969898,
				"z": 2.1585004952,
				"element": "H" 
			},
			{
				"x": 2.6849836661,
				"y": 0.9479737594,
				"z": 0.8214335407,
				"element": "H" 
			},
			{
				"x": 2.4955327969,
				"y": -0.1060132825,
				"z": -0.5603900046,
				"element": "H" 
			},
			{
				"x": 0.3606451465,
				"y": 1.6991359588,
				"z": 0.6946180255,
				"element": "H" 
			},
			{
				"x": 1.1489851348,
				"y": 1.9236415272,
				"z": -0.8631643077,
				"element": "H" 
			},
			{
				"x": 1.0590733974,
				"y": -0.9340227341,
				"z": -1.9875170696,
				"element": "H" 
			},
			{
				"x": -0.5817766201,
				"y": -0.9266901889,
				"z": -2.6162873301,
				"element": "H" 
			},
			{
				"x": 0.4595266196,
				"y": 0.4852664423,
				"z": -2.8315677447,
				"element": "H" 
			}
		],
		 "valence_orbital": [ 
			{
				"type": "occ",
				"energy": -0.29494,
				"method": "rhf"
			},
			{
				"type": "occ",
				"energy": -0.281,
				"method": "rhf"
			},
			{
				"type": "occ",
				"energy": -0.27193,
				"method": "rhf"
			},
			{
				"type": "occ",
				"energy": -0.27058,
				"method": "rhf"
			},
			{
				"type": "occ",
				"energy": -0.2326,
				"method": "rhf"
			},
			{
				"type": "unocc",
				"energy": -0.01014,
				"method": "rhf"
			},
			{
				"type": "unocc",
				"energy": 0.00964,
				"method": "rhf"
			},
			{
				"type": "unocc",
				"energy": 0.05024,
				"method": "rhf"
			},
			{
				"type": "unocc",
				"energy": 0.06822,
				"method": "rhf"
			},
			{
				"type": "unocc",
				"energy": 0.07155,
				"method": "rhf"
			}
		],
		"cosmo_sigma_profile": { 
			"-0.025": 0.0,
			"-0.024": 0.0,
			"-0.023": 0.0,
			"-0.022": 0.0,
			"-0.021": 0.0,
			"-0.02": 0.0,
			"-0.019": 0.172014057613,
			"-0.018": 1.12450303791,
			"-0.017": 1.06630036957,
			"-0.016": 0.856081132912,
			"-0.015": 1.66565746425,
			"-0.014": 1.06161958096,
			"-0.013": 0.700762727693,
			"-0.012": 0.775100584776,
			"-0.011": 1.09959564449,
			"-0.01": 1.49993750683,
			"-0.009": 0.942518842761,
			"-0.008": 1.77514292928,
			"-0.007": 4.0538892991,
			"-0.006": 7.16327636903,
			"-0.005": 8.62613250674,
			"-0.004": 13.1308671978,
			"-0.003": 29.5337679252,
			"-0.002": 73.0462168736,
			"-0.001": 80.3871655621,
			"0.0": 67.6156509554,
			"0.001": 45.3413749168,
			"0.002": 23.0588679366,
			"0.003": 5.85438180023,
			"0.004": 3.59173752332,
			"0.005": 3.94726516753,
			"0.006": 4.72823661201,
			"0.007": 4.15755921395,
			"0.008": 3.86589866451,
			"0.009": 4.86421801277,
			"0.01": 6.2787870133,
			"0.011": 7.44723373673,
			"0.012": 9.657529127,
			"0.013": 6.71314455283,
			"0.014": 1.41962494061,
			"0.015": 0.0,
			"0.016": 0.0,
			"0.017": 0.0,
			"0.018": 0.0,
			"0.019": 0.0,
			"0.02": 0.0,
			"0.021": 0.0,
			"0.022": 0.0,
			"0.023": 0.0,
			"0.024": 0.0,
			"0.025": 0.0
		}
	}
}
