{
	 "smiles": "CC1C=CC2C(C1C(O)=O)C(=O)N(C)C2=O", 
	 "Tm": 446.15, 
	 "num_atms": 29, 
	 "gaussian": { 
		 "optdone": 1, 
		 "sigma_profile": "yes", 
		 "theory": "DFT", 
		 "functional": "B3LYP", 
		 "basiset": "6-31G**", 
		 "properties": { 
			 "R2extent": 3647.3432, 
			 "electric_dipole_moment_norm": 2.05034059853, 
			 "electric_quadrupole_moment_norm": 11.1921637283, 
			 "total_energy": -782.689426067, 
			 "HOMO_LUMO_gap": 0.22708, 
			 "cosmo_polarized_energy": -16.06, 
			 "cosmo_cavitation_energy": 31.52, 
			 "cosmo_dispersion_energy": -22.16, 
			 "cosmo_repulsion_energy": 1.73, 
			 "cosmo_total_nonelectrostatic_energy": 11.09, 
			 "SMD_solvation_energy": 7.56 
		},
		"coords": [
			{
				"x": 1.3538774243,
				"y": -0.7793595329,
				"z": -3.1020291511,
				"element": "C" 
			},
			{
				"x": 0.8567938895,
				"y": -0.2050311172,
				"z": -1.7667053592,
				"element": "C" 
			},
			{
				"x": -0.2361120146,
				"y": -1.0583279756,
				"z": -1.1601901498,
				"element": "C" 
			},
			{
				"x": -0.5092263769,
				"y": -1.1117377279,
				"z": 0.1451989372,
				"element": "C" 
			},
			{
				"x": 0.2240606899,
				"y": -0.2952183117,
				"z": 1.1839790792,
				"element": "C" 
			},
			{
				"x": 1.379486785,
				"y": 0.5512386691,
				"z": 0.6095467818,
				"element": "C" 
			},
			{
				"x": 1.9808698417,
				"y": 0.0734800806,
				"z": -0.721332393,
				"element": "C" 
			},
			{
				"x": 2.871655131,
				"y": -1.131079462,
				"z": -0.4607630986,
				"element": "C" 
			},
			{
				"x": 3.8040381772,
				"y": -1.296673319,
				"z": -1.4288271367,
				"element": "O" 
			},
			{
				"x": 2.8020267911,
				"y": -1.8690846242,
				"z": 0.4995150326,
				"element": "O" 
			},
			{
				"x": 0.8080406242,
				"y": 1.9668977475,
				"z": 0.5174882462,
				"element": "C" 
			},
			{
				"x": 1.2858868726,
				"y": 2.9180636107,
				"z": -0.0698452297,
				"element": "O" 
			},
			{
				"x": -0.3597095101,
				"y": 2.0018599085,
				"z": 1.2707074965,
				"element": "N" 
			},
			{
				"x": -1.1272361083,
				"y": 3.215062223,
				"z": 1.5057648864,
				"element": "C" 
			},
			{
				"x": -0.7478468302,
				"y": 0.7488780354,
				"z": 1.7520977335,
				"element": "C" 
			},
			{
				"x": -1.7124600207,
				"y": 0.5555537945,
				"z": 2.4608854666,
				"element": "O" 
			},
			{
				"x": 2.1490144129,
				"y": -0.1620174458,
				"z": -3.5291024225,
				"element": "H" 
			},
			{
				"x": 1.7431617127,
				"y": -1.7949635442,
				"z": -2.9907369077,
				"element": "H" 
			},
			{
				"x": 0.5267273001,
				"y": -0.812753576,
				"z": -3.8187606134,
				"element": "H" 
			},
			{
				"x": 0.4337625484,
				"y": 0.7859106287,
				"z": -1.9910906941,
				"element": "H" 
			},
			{
				"x": -0.8277186664,
				"y": -1.6574353624,
				"z": -1.8503456515,
				"element": "H" 
			},
			{
				"x": -1.3149865702,
				"y": -1.7379625357,
				"z": 0.518759358,
				"element": "H" 
			},
			{
				"x": 0.5512835557,
				"y": -0.9482352408,
				"z": 1.9981630363,
				"element": "H" 
			},
			{
				"x": 2.183223332,
				"y": 0.6014013073,
				"z": 1.3538099504,
				"element": "H" 
			},
			{
				"x": 2.6158840172,
				"y": 0.8718545609,
				"z": -1.1195280752,
				"element": "H" 
			},
			{
				"x": 4.3135065163,
				"y": -2.0871223311,
				"z": -1.1806804175,
				"element": "H" 
			},
			{
				"x": -0.4487664761,
				"y": 4.0677861068,
				"z": 1.4641461521,
				"element": "H" 
			},
			{
				"x": -1.9033343889,
				"y": 3.3388555808,
				"z": 0.7440400776,
				"element": "H" 
			},
			{
				"x": -1.6015026594,
				"y": 3.140159853,
				"z": 2.4851350656,
				"element": "H" 
			}
		],
		 "valence_orbital": [ 
			{
				"type": "occ",
				"energy": -0.2908,
				"method": "rhf"
			},
			{
				"type": "occ",
				"energy": -0.28305,
				"method": "rhf"
			},
			{
				"type": "occ",
				"energy": -0.27826,
				"method": "rhf"
			},
			{
				"type": "occ",
				"energy": -0.26644,
				"method": "rhf"
			},
			{
				"type": "occ",
				"energy": -0.25049,
				"method": "rhf"
			},
			{
				"type": "unocc",
				"energy": -0.02341,
				"method": "rhf"
			},
			{
				"type": "unocc",
				"energy": -0.004,
				"method": "rhf"
			},
			{
				"type": "unocc",
				"energy": 2e-05,
				"method": "rhf"
			},
			{
				"type": "unocc",
				"energy": 0.03785,
				"method": "rhf"
			},
			{
				"type": "unocc",
				"energy": 0.06997,
				"method": "rhf"
			}
		],
		"cosmo_sigma_profile": { 
			"-0.025": 0.0,
			"-0.024": 0.0,
			"-0.023": 0.0,
			"-0.022": 0.0,
			"-0.021": 0.0,
			"-0.02": 0.0,
			"-0.019": 0.0,
			"-0.018": 0.759979930146,
			"-0.017": 0.891701144015,
			"-0.016": 0.611084912903,
			"-0.015": 0.993737849355,
			"-0.014": 1.00963744643,
			"-0.013": 0.696678975723,
			"-0.012": 0.652692404303,
			"-0.011": 0.361610274931,
			"-0.01": 1.17038637448,
			"-0.009": 0.984257677681,
			"-0.008": 4.49965787887,
			"-0.007": 5.33278150216,
			"-0.006": 12.6373833044,
			"-0.005": 18.6540716798,
			"-0.004": 25.4753946177,
			"-0.003": 29.6792450758,
			"-0.002": 20.4362157381,
			"-0.001": 14.5415325194,
			"0.0": 14.3646498375,
			"0.001": 11.6182689572,
			"0.002": 9.09025528173,
			"0.003": 7.11199226718,
			"0.004": 8.15081424834,
			"0.005": 7.32114936248,
			"0.006": 5.18547560009,
			"0.007": 5.84015458408,
			"0.008": 5.88581146209,
			"0.009": 5.98882063423,
			"0.01": 6.56771629509,
			"0.011": 10.6773597543,
			"0.012": 9.57825780743,
			"0.013": 0.691013672187,
			"0.014": 0.0,
			"0.015": 0.0,
			"0.016": 0.0,
			"0.017": 0.0,
			"0.018": 0.0,
			"0.019": 0.0,
			"0.02": 0.0,
			"0.021": 0.0,
			"0.022": 0.0,
			"0.023": 0.0,
			"0.024": 0.0,
			"0.025": 0.0
		}
	}
}
