{
	 "smiles": "COC1=CC=C(C=C1)C(=O)C1=NOC(=C1S(=O)(=O)C1=CC=CC=C1)C1=CC=CC=C1", 
	 "Tm": 434.15, 
	 "num_atms": 47, 
	 "gaussian": { 
		 "optdone": 1, 
		 "sigma_profile": "yes", 
		 "theory": "DFT", 
		 "functional": "B3LYP", 
		 "basiset": "6-31G**", 
		 "properties": { 
			 "R2extent": 15387.776, 
			 "electric_dipole_moment_norm": 1.49266695549, 
			 "electric_quadrupole_moment_norm": 41.0328916981, 
			 "total_energy": -1715.61419338, 
			 "HOMO_LUMO_gap": 0.16886, 
			 "cosmo_polarized_energy": -19.47, 
			 "cosmo_cavitation_energy": 53.4, 
			 "cosmo_dispersion_energy": -36.86, 
			 "cosmo_repulsion_energy": 2.72, 
			 "cosmo_total_nonelectrostatic_energy": 19.26, 
			 "SMD_solvation_energy": 9.25 
		},
		"coords": [
			{
				"x": 2.369150689,
				"y": 4.788245761,
				"z": -5.1823697611,
				"element": "C" 
			},
			{
				"x": 2.7065445991,
				"y": 4.2186431389,
				"z": -3.9231528989,
				"element": "O" 
			},
			{
				"x": 1.9788130514,
				"y": 3.1706744567,
				"z": -3.4648773844,
				"element": "C" 
			},
			{
				"x": 2.3643798895,
				"y": 2.665338647,
				"z": -2.2112524939,
				"element": "C" 
			},
			{
				"x": 1.683355804,
				"y": 1.596620061,
				"z": -1.6532697315,
				"element": "C" 
			},
			{
				"x": 0.6024101562,
				"y": 1.0023040083,
				"z": -2.3331424083,
				"element": "C" 
			},
			{
				"x": 0.2266538554,
				"y": 1.5167321612,
				"z": -3.5846404544,
				"element": "C" 
			},
			{
				"x": 0.9007587357,
				"y": 2.5886957413,
				"z": -4.1541355334,
				"element": "C" 
			},
			{
				"x": -0.1679126676,
				"y": -0.1282880749,
				"z": -1.7879596458,
				"element": "C" 
			},
			{
				"x": -1.0951868155,
				"y": -0.6598018184,
				"z": -2.3849818628,
				"element": "O" 
			},
			{
				"x": 0.2261039253,
				"y": -0.7115106403,
				"z": -0.4414805117,
				"element": "C" 
			},
			{
				"x": 1.3636817675,
				"y": -1.3565004929,
				"z": -0.3507923042,
				"element": "N" 
			},
			{
				"x": 1.3817748945,
				"y": -1.9072903208,
				"z": 0.9334100249,
				"element": "O" 
			},
			{
				"x": 0.2563136538,
				"y": -1.5822926843,
				"z": 1.607537804,
				"element": "C" 
			},
			{
				"x": -0.5262677878,
				"y": -0.8021101152,
				"z": 0.7754562549,
				"element": "C" 
			},
			{
				"x": -2.1183020981,
				"y": -0.0324022618,
				"z": 1.0261718025,
				"element": "S" 
			},
			{
				"x": -2.2569095798,
				"y": 0.9393908611,
				"z": -0.0647670914,
				"element": "O" 
			},
			{
				"x": -2.2168689019,
				"y": 0.4112324107,
				"z": 2.4268213772,
				"element": "O" 
			},
			{
				"x": -3.3055016515,
				"y": -1.361530578,
				"z": 0.7939677293,
				"element": "C" 
			},
			{
				"x": -3.4948717914,
				"y": -1.8937405142,
				"z": -0.4851061227,
				"element": "C" 
			},
			{
				"x": -4.4364142222,
				"y": -2.9091515004,
				"z": -0.648808381,
				"element": "C" 
			},
			{
				"x": -5.1736985574,
				"y": -3.3719885562,
				"z": 0.4450559639,
				"element": "C" 
			},
			{
				"x": -4.9735543984,
				"y": -2.8248979558,
				"z": 1.7139134811,
				"element": "C" 
			},
			{
				"x": -4.0315469964,
				"y": -1.8115771578,
				"z": 1.8977642312,
				"element": "C" 
			},
			{
				"x": 0.1668672796,
				"y": -2.1629913637,
				"z": 2.953313353,
				"element": "C" 
			},
			{
				"x": 0.7875411475,
				"y": -3.4067682324,
				"z": 3.181463031,
				"element": "C" 
			},
			{
				"x": 0.7470296441,
				"y": -3.9898066869,
				"z": 4.4440687377,
				"element": "C" 
			},
			{
				"x": 0.0965945039,
				"y": -3.3401593054,
				"z": 5.4962082473,
				"element": "C" 
			},
			{
				"x": -0.5105723482,
				"y": -2.1027551942,
				"z": 5.2775481419,
				"element": "C" 
			},
			{
				"x": -0.4792840893,
				"y": -1.5096107971,
				"z": 4.0160965747,
				"element": "C" 
			},
			{
				"x": 3.0755643661,
				"y": 5.6041453532,
				"z": -5.3392908115,
				"element": "H" 
			},
			{
				"x": 1.3479348202,
				"y": 5.1879755755,
				"z": -5.1817551653,
				"element": "H" 
			},
			{
				"x": 2.4725225222,
				"y": 4.0583008197,
				"z": -5.9943680485,
				"element": "H" 
			},
			{
				"x": 3.1994233837,
				"y": 3.1327641944,
				"z": -1.7007680858,
				"element": "H" 
			},
			{
				"x": 1.9954074839,
				"y": 1.2125645263,
				"z": -0.6888945059,
				"element": "H" 
			},
			{
				"x": -0.6103575153,
				"y": 1.0566704894,
				"z": -4.098948714,
				"element": "H" 
			},
			{
				"x": 0.5876191505,
				"y": 2.966146262,
				"z": -5.1199787279,
				"element": "H" 
			},
			{
				"x": -2.9093728324,
				"y": -1.52902237,
				"z": -1.3238036388,
				"element": "H" 
			},
			{
				"x": -4.5961307564,
				"y": -3.3370727192,
				"z": -1.6338376985,
				"element": "H" 
			},
			{
				"x": -5.9071336813,
				"y": -4.1612191685,
				"z": 0.30692717,
				"element": "H" 
			},
			{
				"x": -5.550139733,
				"y": -3.183789836,
				"z": 2.5610948625,
				"element": "H" 
			},
			{
				"x": -3.8622599019,
				"y": -1.3644244246,
				"z": 2.8705764504,
				"element": "H" 
			},
			{
				"x": 1.291595223,
				"y": -3.9104216457,
				"z": 2.364083742,
				"element": "H" 
			},
			{
				"x": 1.2225909245,
				"y": -4.9523867276,
				"z": 4.6063812579,
				"element": "H" 
			},
			{
				"x": 0.0670942204,
				"y": -3.7956302288,
				"z": 6.4818402944,
				"element": "H" 
			},
			{
				"x": -1.0071687143,
				"y": -1.5879027081,
				"z": 6.0945943311,
				"element": "H" 
			},
			{
				"x": -0.943070651,
				"y": -0.5457003881,
				"z": 3.8515871189,
				"element": "H" 
			}
		],
		 "valence_orbital": [ 
			{
				"type": "occ",
				"energy": -0.26391,
				"method": "rhf"
			},
			{
				"type": "occ",
				"energy": -0.26352,
				"method": "rhf"
			},
			{
				"type": "occ",
				"energy": -0.26191,
				"method": "rhf"
			},
			{
				"type": "occ",
				"energy": -0.24741,
				"method": "rhf"
			},
			{
				"type": "occ",
				"energy": -0.23301,
				"method": "rhf"
			},
			{
				"type": "unocc",
				"energy": -0.06415,
				"method": "rhf"
			},
			{
				"type": "unocc",
				"energy": -0.06032,
				"method": "rhf"
			},
			{
				"type": "unocc",
				"energy": -0.03502,
				"method": "rhf"
			},
			{
				"type": "unocc",
				"energy": -0.01612,
				"method": "rhf"
			},
			{
				"type": "unocc",
				"energy": -0.01208,
				"method": "rhf"
			}
		],
		"cosmo_sigma_profile": { 
			"-0.025": 0.0,
			"-0.024": 0.0,
			"-0.023": 0.0,
			"-0.022": 0.0,
			"-0.021": 0.0,
			"-0.02": 0.0,
			"-0.019": 0.0,
			"-0.018": 0.0,
			"-0.017": 0.0,
			"-0.016": 0.0,
			"-0.015": 0.0,
			"-0.014": 0.0,
			"-0.013": 0.0,
			"-0.012": 0.0,
			"-0.011": 0.0,
			"-0.01": 0.0,
			"-0.009": 0.0,
			"-0.008": 0.656048644568,
			"-0.007": 15.1642386042,
			"-0.006": 34.8942395538,
			"-0.005": 35.3489485724,
			"-0.004": 33.8285030408,
			"-0.003": 29.8314601752,
			"-0.002": 26.2544170511,
			"-0.001": 28.4969314023,
			"0.0": 26.6452583552,
			"0.001": 37.4377643454,
			"0.002": 40.3887510649,
			"0.003": 43.3569576626,
			"0.004": 17.673930828,
			"0.005": 9.89984038373,
			"0.006": 8.60967319555,
			"0.007": 7.10428043281,
			"0.008": 9.02858470799,
			"0.009": 9.20523266605,
			"0.01": 8.22831325118,
			"0.011": 7.63193392458,
			"0.012": 1.22339336442,
			"0.013": 0.0123144291154,
			"0.014": 0.0,
			"0.015": 0.0,
			"0.016": 0.0,
			"0.017": 0.0,
			"0.018": 0.0,
			"0.019": 0.0,
			"0.02": 0.0,
			"0.021": 0.0,
			"0.022": 0.0,
			"0.023": 0.0,
			"0.024": 0.0,
			"0.025": 0.0
		}
	}
}
