{
	 "smiles": "CC(SC1=NC=NN1)C(O)=O", 
	 "Tm": 447.15, 
	 "num_atms": 18, 
	 "gaussian": { 
		 "optdone": 1, 
		 "sigma_profile": "yes", 
		 "theory": "DFT", 
		 "functional": "B3LYP", 
		 "basiset": "6-31G**", 
		 "properties": { 
			 "R2extent": 2218.6261, 
			 "electric_dipole_moment_norm": 5.43385198455, 
			 "electric_quadrupole_moment_norm": 15.3966316076, 
			 "total_energy": -907.636307168, 
			 "HOMO_LUMO_gap": 0.21548, 
			 "cosmo_polarized_energy": -17.32, 
			 "cosmo_cavitation_energy": 23.61, 
			 "cosmo_dispersion_energy": -17.87, 
			 "cosmo_repulsion_energy": 1.4, 
			 "cosmo_total_nonelectrostatic_energy": 7.14, 
			 "SMD_solvation_energy": 3.94 
		},
		"coords": [
			{
				"x": -1.6720859975,
				"y": 0.3042493859,
				"z": -0.6932833733,
				"element": "C" 
			},
			{
				"x": -0.2319655649,
				"y": 0.2665054942,
				"z": -1.2137376113,
				"element": "C" 
			},
			{
				"x": 1.0591444589,
				"y": 0.4106927893,
				"z": 0.1268455695,
				"element": "S" 
			},
			{
				"x": 0.5980257046,
				"y": -0.8553294797,
				"z": 1.2523714017,
				"element": "C" 
			},
			{
				"x": 0.0448610842,
				"y": -2.0311337675,
				"z": 0.9685645431,
				"element": "N" 
			},
			{
				"x": -0.056503853,
				"y": -2.6419123456,
				"z": 2.1859888109,
				"element": "C" 
			},
			{
				"x": 0.4047301213,
				"y": -1.9339640559,
				"z": 3.1993981689,
				"element": "N" 
			},
			{
				"x": 0.8094174334,
				"y": -0.7882008165,
				"z": 2.5856016001,
				"element": "N" 
			},
			{
				"x": 0.0111829817,
				"y": -0.8861907231,
				"z": -2.213925981,
				"element": "C" 
			},
			{
				"x": -0.0120012254,
				"y": -2.1360937852,
				"z": -1.7540081871,
				"element": "O" 
			},
			{
				"x": 0.1518186728,
				"y": -0.6328475511,
				"z": -3.3893557373,
				"element": "O" 
			},
			{
				"x": -2.3542473688,
				"y": 0.3251104863,
				"z": -1.5494565264,
				"element": "H" 
			},
			{
				"x": -1.842851813,
				"y": 1.2017504589,
				"z": -0.0934235246,
				"element": "H" 
			},
			{
				"x": -1.9106553285,
				"y": -0.5740746781,
				"z": -0.0903127249,
				"element": "H" 
			},
			{
				"x": -0.0212140778,
				"y": 1.1736750677,
				"z": -1.7844276627,
				"element": "H" 
			},
			{
				"x": -0.4747077062,
				"y": -3.6295793057,
				"z": 2.3166856105,
				"element": "H" 
			},
			{
				"x": 1.2001603559,
				"y": -0.0302781706,
				"z": 3.1261756047,
				"element": "H" 
			},
			{
				"x": -0.0846078777,
				"y": -2.1947790032,
				"z": -0.7633999809,
				"element": "H" 
			}
		],
		 "valence_orbital": [ 
			{
				"type": "occ",
				"energy": -0.32665,
				"method": "rhf"
			},
			{
				"type": "occ",
				"energy": -0.3122,
				"method": "rhf"
			},
			{
				"type": "occ",
				"energy": -0.29946,
				"method": "rhf"
			},
			{
				"type": "occ",
				"energy": -0.26845,
				"method": "rhf"
			},
			{
				"type": "occ",
				"energy": -0.25096,
				"method": "rhf"
			},
			{
				"type": "unocc",
				"energy": -0.03548,
				"method": "rhf"
			},
			{
				"type": "unocc",
				"energy": -0.01062,
				"method": "rhf"
			},
			{
				"type": "unocc",
				"energy": 0.01655,
				"method": "rhf"
			},
			{
				"type": "unocc",
				"energy": 0.02687,
				"method": "rhf"
			},
			{
				"type": "unocc",
				"energy": 0.05292,
				"method": "rhf"
			}
		],
		"cosmo_sigma_profile": { 
			"-0.025": 0.0,
			"-0.024": 0.0,
			"-0.023": 0.0,
			"-0.022": 0.0,
			"-0.021": 0.0,
			"-0.02": 0.0,
			"-0.019": 0.243827183558,
			"-0.018": 1.70067592628,
			"-0.017": 1.51294523562,
			"-0.016": 1.19167494986,
			"-0.015": 0.727987836698,
			"-0.014": 1.10767301148,
			"-0.013": 1.56786901471,
			"-0.012": 0.781282962587,
			"-0.011": 0.828120335756,
			"-0.01": 2.11757713133,
			"-0.009": 4.00409982171,
			"-0.008": 3.83892001948,
			"-0.007": 5.35117754571,
			"-0.006": 4.91624440773,
			"-0.005": 9.88331838578,
			"-0.004": 11.916925749,
			"-0.003": 14.0363014139,
			"-0.002": 19.5458584591,
			"-0.001": 14.278117215,
			"0.0": 13.4802156906,
			"0.001": 11.424378929,
			"0.002": 9.33093116545,
			"0.003": 6.9162505368,
			"0.004": 5.81191701294,
			"0.005": 4.59653476345,
			"0.006": 4.13769148182,
			"0.007": 3.99786035409,
			"0.008": 3.3210124504,
			"0.009": 3.5211570614,
			"0.01": 5.20463680395,
			"0.011": 6.50640268528,
			"0.012": 7.93014286903,
			"0.013": 3.98925403845,
			"0.014": 0.722251030095,
			"0.015": 0.0,
			"0.016": 0.0,
			"0.017": 0.0,
			"0.018": 0.0,
			"0.019": 0.0,
			"0.02": 0.0,
			"0.021": 0.0,
			"0.022": 0.0,
			"0.023": 0.0,
			"0.024": 0.0,
			"0.025": 0.0
		}
	}
}
