{
	 "smiles": "CCCCCCCCCCCC(=O)OCCOCCO", 
	 "Tm": 290.65, 
	 "num_atms": 52, 
	 "gaussian": { 
		 "optdone": 1, 
		 "sigma_profile": "yes", 
		 "theory": "DFT", 
		 "functional": "B3LYP", 
		 "basiset": "6-31G**", 
		 "properties": { 
			 "R2extent": 14145.3967, 
			 "electric_dipole_moment_norm": 1.33212496035, 
			 "electric_quadrupole_moment_norm": 13.0403988041, 
			 "total_energy": -929.897580645, 
			 "HOMO_LUMO_gap": 0.26671, 
			 "cosmo_polarized_energy": -12.39, 
			 "cosmo_cavitation_energy": 52.95, 
			 "cosmo_dispersion_energy": -35.36, 
			 "cosmo_repulsion_energy": 2.9, 
			 "cosmo_total_nonelectrostatic_energy": 20.49, 
			 "SMD_solvation_energy": 8.53 
		},
		"coords": [
			{
				"x": 5.5313483149,
				"y": 2.6358954911,
				"z": 3.364783436,
				"element": "C" 
			},
			{
				"x": 4.2471386281,
				"y": 2.2094514572,
				"z": 2.6458503437,
				"element": "C" 
			},
			{
				"x": 2.9974618636,
				"y": 2.3361293681,
				"z": 3.5289322741,
				"element": "C" 
			},
			{
				"x": 1.692257831,
				"y": 1.8500820908,
				"z": 2.8758522093,
				"element": "C" 
			},
			{
				"x": 1.2397412123,
				"y": 2.6893763316,
				"z": 1.6711138315,
				"element": "C" 
			},
			{
				"x": -0.1637665268,
				"y": 2.3785559259,
				"z": 1.1185604112,
				"element": "C" 
			},
			{
				"x": -0.3578679811,
				"y": 0.9841384299,
				"z": 0.4821126273,
				"element": "C" 
			},
			{
				"x": -0.8180410481,
				"y": -0.1199702872,
				"z": 1.4492341547,
				"element": "C" 
			},
			{
				"x": -1.1146726821,
				"y": -1.4697978321,
				"z": 0.774851989,
				"element": "C" 
			},
			{
				"x": 0.1214252149,
				"y": -2.1755435569,
				"z": 0.1991499927,
				"element": "C" 
			},
			{
				"x": -0.1844895213,
				"y": -3.567531405,
				"z": -0.3848056991,
				"element": "C" 
			},
			{
				"x": -1.1247698164,
				"y": -3.5497938562,
				"z": -1.5743039361,
				"element": "C" 
			},
			{
				"x": -2.1467516072,
				"y": -4.1940402295,
				"z": -1.6719579564,
				"element": "O" 
			},
			{
				"x": -0.6628071018,
				"y": -2.7226223112,
				"z": -2.5477227478,
				"element": "O" 
			},
			{
				"x": -1.4398648631,
				"y": -2.6501953193,
				"z": -3.758899086,
				"element": "C" 
			},
			{
				"x": -2.5669348645,
				"y": -1.6333796153,
				"z": -3.6185578634,
				"element": "C" 
			},
			{
				"x": -3.1645660788,
				"y": -1.5192630043,
				"z": -4.89786222,
				"element": "O" 
			},
			{
				"x": -4.2598963042,
				"y": -0.6193215632,
				"z": -4.9610866056,
				"element": "C" 
			},
			{
				"x": -5.5723371327,
				"y": -1.2761555128,
				"z": -4.535170544,
				"element": "C" 
			},
			{
				"x": -6.5837885582,
				"y": -0.2875070075,
				"z": -4.6740862178,
				"element": "O" 
			},
			{
				"x": 6.4075909247,
				"y": 2.5345218149,
				"z": 2.7159522962,
				"element": "H" 
			},
			{
				"x": 5.7065785423,
				"y": 2.0260174585,
				"z": 4.2585925841,
				"element": "H" 
			},
			{
				"x": 5.4759495433,
				"y": 3.6821988777,
				"z": 3.6867534527,
				"element": "H" 
			},
			{
				"x": 4.1256037467,
				"y": 2.8125360097,
				"z": 1.7374559284,
				"element": "H" 
			},
			{
				"x": 4.3446822325,
				"y": 1.1679417157,
				"z": 2.3086123051,
				"element": "H" 
			},
			{
				"x": 3.1629437938,
				"y": 1.7659504941,
				"z": 4.4534730302,
				"element": "H" 
			},
			{
				"x": 2.8787422668,
				"y": 3.3847994285,
				"z": 3.8384220005,
				"element": "H" 
			},
			{
				"x": 1.8168053358,
				"y": 0.8012545333,
				"z": 2.576030049,
				"element": "H" 
			},
			{
				"x": 0.8957519252,
				"y": 1.8586439977,
				"z": 3.6325344791,
				"element": "H" 
			},
			{
				"x": 1.2629236698,
				"y": 3.749472268,
				"z": 1.9615453775,
				"element": "H" 
			},
			{
				"x": 1.9664565704,
				"y": 2.5865718439,
				"z": 0.8541854636,
				"element": "H" 
			},
			{
				"x": -0.9102006967,
				"y": 2.5230901306,
				"z": 1.9128563849,
				"element": "H" 
			},
			{
				"x": -0.3882811746,
				"y": 3.1380481873,
				"z": 0.3591266284,
				"element": "H" 
			},
			{
				"x": 0.5724206269,
				"y": 0.6877326434,
				"z": -0.0206639904,
				"element": "H" 
			},
			{
				"x": -1.1124231754,
				"y": 1.0628853502,
				"z": -0.3126671738,
				"element": "H" 
			},
			{
				"x": -0.0737530474,
				"y": -0.2708843137,
				"z": 2.2407516246,
				"element": "H" 
			},
			{
				"x": -1.7297546361,
				"y": 0.2239973118,
				"z": 1.9558887194,
				"element": "H" 
			},
			{
				"x": -1.8552137674,
				"y": -1.3180933295,
				"z": -0.0233749969,
				"element": "H" 
			},
			{
				"x": -1.5914822105,
				"y": -2.1356603387,
				"z": 1.5065988707,
				"element": "H" 
			},
			{
				"x": 0.8705196941,
				"y": -2.2960415716,
				"z": 0.9924062994,
				"element": "H" 
			},
			{
				"x": 0.5845134682,
				"y": -1.5624934701,
				"z": -0.5802243125,
				"element": "H" 
			},
			{
				"x": -0.6380933613,
				"y": -4.2201274613,
				"z": 0.3658971692,
				"element": "H" 
			},
			{
				"x": 0.7510975806,
				"y": -4.0361771809,
				"z": -0.714723679,
				"element": "H" 
			},
			{
				"x": -0.7437420379,
				"y": -2.3337969061,
				"z": -4.5380932408,
				"element": "H" 
			},
			{
				"x": -1.8461864023,
				"y": -3.6343880164,
				"z": -4.000700697,
				"element": "H" 
			},
			{
				"x": -2.1570867737,
				"y": -0.6650694908,
				"z": -3.2885041361,
				"element": "H" 
			},
			{
				"x": -3.2789236653,
				"y": -1.9808930056,
				"z": -2.8577505886,
				"element": "H" 
			},
			{
				"x": -4.3459742872,
				"y": -0.2964494831,
				"z": -6.0032751901,
				"element": "H" 
			},
			{
				"x": -4.0793535806,
				"y": 0.2751977968,
				"z": -4.3466245508,
				"element": "H" 
			},
			{
				"x": -5.7550377558,
				"y": -2.151250708,
				"z": -5.1768855634,
				"element": "H" 
			},
			{
				"x": -5.4975897747,
				"y": -1.6361025721,
				"z": -3.4971972852,
				"element": "H" 
			},
			{
				"x": -7.429402553,
				"y": -0.6846396083,
				"z": -4.4344856518,
				"element": "H" 
			}
		],
		 "valence_orbital": [ 
			{
				"type": "occ",
				"energy": -0.30068,
				"method": "rhf"
			},
			{
				"type": "occ",
				"energy": -0.29734,
				"method": "rhf"
			},
			{
				"type": "occ",
				"energy": -0.2711,
				"method": "rhf"
			},
			{
				"type": "occ",
				"energy": -0.26816,
				"method": "rhf"
			},
			{
				"type": "occ",
				"energy": -0.25623,
				"method": "rhf"
			},
			{
				"type": "unocc",
				"energy": 0.01048,
				"method": "rhf"
			},
			{
				"type": "unocc",
				"energy": 0.06569,
				"method": "rhf"
			},
			{
				"type": "unocc",
				"energy": 0.08016,
				"method": "rhf"
			},
			{
				"type": "unocc",
				"energy": 0.08626,
				"method": "rhf"
			},
			{
				"type": "unocc",
				"energy": 0.09183,
				"method": "rhf"
			}
		],
		"cosmo_sigma_profile": { 
			"-0.025": 0.0,
			"-0.024": 0.0,
			"-0.023": 0.0,
			"-0.022": 0.0,
			"-0.021": 0.0,
			"-0.02": 0.0,
			"-0.019": 0.0,
			"-0.018": 0.0,
			"-0.017": 0.0,
			"-0.016": 0.543871798965,
			"-0.015": 1.15574296643,
			"-0.014": 0.948967996343,
			"-0.013": 0.747473917585,
			"-0.012": 1.24658231224,
			"-0.011": 0.616624373937,
			"-0.01": 0.919531515461,
			"-0.009": 0.639571764848,
			"-0.008": 1.30887648393,
			"-0.007": 0.656832024451,
			"-0.006": 4.31637951069,
			"-0.005": 9.78243441182,
			"-0.004": 23.9441331042,
			"-0.003": 32.7040506763,
			"-0.002": 54.6186669457,
			"-0.001": 70.9822998829,
			"0.0": 67.0832227937,
			"0.001": 54.5237149519,
			"0.002": 23.4650170637,
			"0.003": 6.22098100193,
			"0.004": 6.41030151599,
			"0.005": 5.17832436394,
			"0.006": 4.99748894661,
			"0.007": 5.51296598409,
			"0.008": 4.72817608715,
			"0.009": 2.89874020137,
			"0.01": 3.80359138894,
			"0.011": 5.77831397471,
			"0.012": 6.57720163026,
			"0.013": 3.21722269736,
			"0.014": 1.52528941446,
			"0.015": 0.0,
			"0.016": 0.0,
			"0.017": 0.0,
			"0.018": 0.0,
			"0.019": 0.0,
			"0.02": 0.0,
			"0.021": 0.0,
			"0.022": 0.0,
			"0.023": 0.0,
			"0.024": 0.0,
			"0.025": 0.0
		}
	}
}
