{
	 "smiles": "OC1=CC=CC2=C1C(=O)C1=C(C=CC=C1)C2=O", 
	 "Tm": 467.15, 
	 "num_atms": 25, 
	 "gaussian": { 
		 "optdone": 1, 
		 "sigma_profile": "yes", 
		 "theory": "DFT", 
		 "functional": "B3LYP", 
		 "basiset": "6-31G**", 
		 "properties": { 
			 "R2extent": 4062.8011, 
			 "electric_dipole_moment_norm": 1.82722813847, 
			 "electric_quadrupole_moment_norm": 23.0431478119, 
			 "total_energy": -763.989205034, 
			 "HOMO_LUMO_gap": 0.14243, 
			 "cosmo_polarized_energy": -16.96, 
			 "cosmo_cavitation_energy": 29.49, 
			 "cosmo_dispersion_energy": -22.15, 
			 "cosmo_repulsion_energy": 1.64, 
			 "cosmo_total_nonelectrostatic_energy": 8.98, 
			 "SMD_solvation_energy": 5.97 
		},
		"coords": [
			{
				"x": 0.6527860841,
				"y": 2.3202167572,
				"z": -1.5822868379,
				"element": "O" 
			},
			{
				"x": 0.9732795253,
				"y": 1.5147529959,
				"z": -0.5435362024,
				"element": "C" 
			},
			{
				"x": 1.936184194,
				"y": 1.9178891487,
				"z": 0.3951262935,
				"element": "C" 
			},
			{
				"x": 2.2761329561,
				"y": 1.1015808118,
				"z": 1.4676091258,
				"element": "C" 
			},
			{
				"x": 1.6588821999,
				"y": -0.1369940953,
				"z": 1.6236833332,
				"element": "C" 
			},
			{
				"x": 0.6995505778,
				"y": -0.5529798518,
				"z": 0.6995783779,
				"element": "C" 
			},
			{
				"x": 0.3334306384,
				"y": 0.2580448637,
				"z": -0.4028901771,
				"element": "C" 
			},
			{
				"x": -0.6940028602,
				"y": -0.209508285,
				"z": -1.3757521434,
				"element": "C" 
			},
			{
				"x": -1.043627664,
				"y": 0.4542839997,
				"z": -2.344376388,
				"element": "O" 
			},
			{
				"x": -1.3111856528,
				"y": -1.5551038936,
				"z": -1.1374769448,
				"element": "C" 
			},
			{
				"x": -0.9474189678,
				"y": -2.358590202,
				"z": -0.0436580695,
				"element": "C" 
			},
			{
				"x": -1.5508685628,
				"y": -3.6098113499,
				"z": 0.139825967,
				"element": "C" 
			},
			{
				"x": -2.5112649776,
				"y": -4.0581004846,
				"z": -0.7612794826,
				"element": "C" 
			},
			{
				"x": -2.8750849366,
				"y": -3.2583807186,
				"z": -1.8523170985,
				"element": "C" 
			},
			{
				"x": -2.2787610503,
				"y": -2.0144588831,
				"z": -2.0393923902,
				"element": "C" 
			},
			{
				"x": 0.075423875,
				"y": -1.8957104117,
				"z": 0.9272332727,
				"element": "C" 
			},
			{
				"x": 0.4031447509,
				"y": -2.5867452105,
				"z": 1.8866830585,
				"element": "O" 
			},
			{
				"x": 1.1805833223,
				"y": 3.1284208869,
				"z": -1.5217024098,
				"element": "H" 
			},
			{
				"x": 2.4174084928,
				"y": 2.8861930818,
				"z": 0.2714257963,
				"element": "H" 
			},
			{
				"x": 3.0240424354,
				"y": 1.4353976017,
				"z": 2.1806580491,
				"element": "H" 
			},
			{
				"x": 1.9001919282,
				"y": -0.7978348377,
				"z": 2.4478931432,
				"element": "H" 
			},
			{
				"x": -1.2483144963,
				"y": -4.2061481579,
				"z": 0.9940055957,
				"element": "H" 
			},
			{
				"x": -2.9787452655,
				"y": -5.0280156439,
				"z": -0.618651333,
				"element": "H" 
			},
			{
				"x": -3.6250968846,
				"y": -3.6094622463,
				"z": -2.5552421823,
				"element": "H" 
			},
			{
				"x": -2.5428696615,
				"y": -1.3764358756,
				"z": -2.8757603533,
				"element": "H" 
			}
		],
		 "valence_orbital": [ 
			{
				"type": "occ",
				"energy": -0.2646,
				"method": "rhf"
			},
			{
				"type": "occ",
				"energy": -0.26221,
				"method": "rhf"
			},
			{
				"type": "occ",
				"energy": -0.26209,
				"method": "rhf"
			},
			{
				"type": "occ",
				"energy": -0.24607,
				"method": "rhf"
			},
			{
				"type": "occ",
				"energy": -0.24003,
				"method": "rhf"
			},
			{
				"type": "unocc",
				"energy": -0.0976,
				"method": "rhf"
			},
			{
				"type": "unocc",
				"energy": -0.04923,
				"method": "rhf"
			},
			{
				"type": "unocc",
				"energy": -0.02176,
				"method": "rhf"
			},
			{
				"type": "unocc",
				"energy": -0.00305,
				"method": "rhf"
			},
			{
				"type": "unocc",
				"energy": 0.05617,
				"method": "rhf"
			}
		],
		"cosmo_sigma_profile": { 
			"-0.025": 0.0,
			"-0.024": 0.0,
			"-0.023": 0.0,
			"-0.022": 0.0,
			"-0.021": 0.0,
			"-0.02": 0.0,
			"-0.019": 0.595939831218,
			"-0.018": 1.15274663635,
			"-0.017": 1.04265094222,
			"-0.016": 1.48470800098,
			"-0.015": 0.701717638804,
			"-0.014": 0.94482765769,
			"-0.013": 0.69040384815,
			"-0.012": 1.44995585971,
			"-0.011": 0.994504196774,
			"-0.01": 1.40665726301,
			"-0.009": 0.915439089302,
			"-0.008": 2.05459295941,
			"-0.007": 9.21716538681,
			"-0.006": 12.7548806067,
			"-0.005": 15.7072660469,
			"-0.004": 13.7011540943,
			"-0.003": 12.5607073185,
			"-0.002": 13.1086333025,
			"-0.001": 15.184850503,
			"0.0": 18.6680590639,
			"0.001": 27.2571511308,
			"0.002": 27.3138368367,
			"0.003": 14.5886579507,
			"0.004": 4.10496584469,
			"0.005": 4.60003861997,
			"0.006": 2.61713960024,
			"0.007": 4.12031778021,
			"0.008": 3.53068645311,
			"0.009": 4.37399652839,
			"0.01": 4.34726156172,
			"0.011": 6.83883608443,
			"0.012": 4.78802415122,
			"0.013": 1.74427242583,
			"0.014": 1.19581309919,
			"0.015": 1.65735778609,
			"0.016": 0.731661637373,
			"0.017": 0.0,
			"0.018": 0.0,
			"0.019": 0.0,
			"0.02": 0.0,
			"0.021": 0.0,
			"0.022": 0.0,
			"0.023": 0.0,
			"0.024": 0.0,
			"0.025": 0.0
		}
	}
}
