{
	 "smiles": "CC1=C(CO)C=NN1C1=CC=CC=C1", 
	 "Tm": 361.65, 
	 "num_atms": 26, 
	 "gaussian": { 
		 "optdone": 1, 
		 "sigma_profile": "yes", 
		 "theory": "DFT", 
		 "functional": "B3LYP", 
		 "basiset": "6-31G**", 
		 "properties": { 
			 "R2extent": 3759.7677, 
			 "electric_dipole_moment_norm": 2.53602817413, 
			 "electric_quadrupole_moment_norm": 15.1683657735, 
			 "total_energy": -611.100517523, 
			 "HOMO_LUMO_gap": 0.20476, 
			 "cosmo_polarized_energy": -12.53, 
			 "cosmo_cavitation_energy": 29.33, 
			 "cosmo_dispersion_energy": -21.4, 
			 "cosmo_repulsion_energy": 1.69, 
			 "cosmo_total_nonelectrostatic_energy": 9.62, 
			 "SMD_solvation_energy": 4.53 
		},
		"coords": [
			{
				"x": -2.3123298708,
				"y": 0.5299137388,
				"z": 1.2707825739,
				"element": "C" 
			},
			{
				"x": -1.0190033317,
				"y": -0.0745404121,
				"z": 0.8201697743,
				"element": "C" 
			},
			{
				"x": -0.0005208602,
				"y": -0.6182293347,
				"z": 1.591714228,
				"element": "C" 
			},
			{
				"x": 0.0760980007,
				"y": -0.6702864117,
				"z": 3.084204306,
				"element": "C" 
			},
			{
				"x": -1.0459181536,
				"y": -1.3985411625,
				"z": 3.5960894262,
				"element": "O" 
			},
			{
				"x": 0.9308208062,
				"y": -1.1215966959,
				"z": 0.6558794947,
				"element": "C" 
			},
			{
				"x": 0.549942914,
				"y": -0.914614163,
				"z": -0.5972701639,
				"element": "N" 
			},
			{
				"x": -0.6451472288,
				"y": -0.264976233,
				"z": -0.4894718009,
				"element": "N" 
			},
			{
				"x": -1.3488156515,
				"y": 0.0570415145,
				"z": -1.6829040023,
				"element": "C" 
			},
			{
				"x": -1.3176094181,
				"y": -0.8492425714,
				"z": -2.7499467898,
				"element": "C" 
			},
			{
				"x": -1.9907258281,
				"y": -0.5470456134,
				"z": -3.9310243158,
				"element": "C" 
			},
			{
				"x": -2.7035464188,
				"y": 0.6485028556,
				"z": -4.0555604427,
				"element": "C" 
			},
			{
				"x": -2.7240618533,
				"y": 1.5513938027,
				"z": -2.9924811973,
				"element": "C" 
			},
			{
				"x": -2.0403360084,
				"y": 1.2665094945,
				"z": -1.8094746465,
				"element": "C" 
			},
			{
				"x": -3.1351120129,
				"y": 0.2746492675,
				"z": 0.5970729154,
				"element": "H" 
			},
			{
				"x": -2.5441468431,
				"y": 0.1411450876,
				"z": 2.2642538626,
				"element": "H" 
			},
			{
				"x": -2.2647940839,
				"y": 1.6242409161,
				"z": 1.3340927903,
				"element": "H" 
			},
			{
				"x": 1.0244394502,
				"y": -1.1473014989,
				"z": 3.3755798314,
				"element": "H" 
			},
			{
				"x": 0.0890373018,
				"y": 0.3493069074,
				"z": 3.5029804719,
				"element": "H" 
			},
			{
				"x": -1.0211372152,
				"y": -1.3321632869,
				"z": 4.5597445147,
				"element": "H" 
			},
			{
				"x": 1.8697262623,
				"y": -1.6238350029,
				"z": 0.854283023,
				"element": "H" 
			},
			{
				"x": -0.758217802,
				"y": -1.7701160385,
				"z": -2.6371610686,
				"element": "H" 
			},
			{
				"x": -1.9635352788,
				"y": -1.2531323236,
				"z": -4.7558462159,
				"element": "H" 
			},
			{
				"x": -3.2320574541,
				"y": 0.8766998423,
				"z": -4.9762553713,
				"element": "H" 
			},
			{
				"x": -3.2597246726,
				"y": 2.4916801527,
				"z": -3.0847230361,
				"element": "H" 
			},
			{
				"x": -2.0242247492,
				"y": 1.9898371687,
				"z": -1.0028281611,
				"element": "H" 
			}
		],
		 "valence_orbital": [ 
			{
				"type": "occ",
				"energy": -0.27802,
				"method": "rhf"
			},
			{
				"type": "occ",
				"energy": -0.26834,
				"method": "rhf"
			},
			{
				"type": "occ",
				"energy": -0.25422,
				"method": "rhf"
			},
			{
				"type": "occ",
				"energy": -0.23025,
				"method": "rhf"
			},
			{
				"type": "occ",
				"energy": -0.22191,
				"method": "rhf"
			},
			{
				"type": "unocc",
				"energy": -0.01715,
				"method": "rhf"
			},
			{
				"type": "unocc",
				"energy": -0.00511,
				"method": "rhf"
			},
			{
				"type": "unocc",
				"energy": 0.03559,
				"method": "rhf"
			},
			{
				"type": "unocc",
				"energy": 0.05219,
				"method": "rhf"
			},
			{
				"type": "unocc",
				"energy": 0.08782,
				"method": "rhf"
			}
		],
		"cosmo_sigma_profile": { 
			"-0.025": 0.0,
			"-0.024": 0.0,
			"-0.023": 0.0,
			"-0.022": 0.0,
			"-0.021": 0.0,
			"-0.02": 0.0,
			"-0.019": 0.0,
			"-0.018": 0.0,
			"-0.017": 0.00114341385183,
			"-0.016": 0.535264089505,
			"-0.015": 1.19553160421,
			"-0.014": 0.573762442371,
			"-0.013": 0.719529794136,
			"-0.012": 1.43659114162,
			"-0.011": 1.07129852069,
			"-0.01": 0.649879739481,
			"-0.009": 0.400872349932,
			"-0.008": 0.496882188987,
			"-0.007": 4.35038331461,
			"-0.006": 12.5431950094,
			"-0.005": 17.0219309482,
			"-0.004": 23.6284599146,
			"-0.003": 18.5680129736,
			"-0.002": 20.1594175738,
			"-0.001": 18.135553956,
			"0.0": 14.6110819602,
			"0.001": 12.7364137561,
			"0.002": 11.8760068562,
			"0.003": 13.1031911764,
			"0.004": 16.8998529595,
			"0.005": 14.0008297142,
			"0.006": 5.16933503694,
			"0.007": 4.08890602389,
			"0.008": 3.10045549176,
			"0.009": 3.10947594797,
			"0.01": 2.39613534865,
			"0.011": 2.26421865676,
			"0.012": 2.62100738539,
			"0.013": 2.14765927773,
			"0.014": 2.04164717926,
			"0.015": 1.37758371166,
			"0.016": 0.198353631397,
			"0.017": 0.0,
			"0.018": 0.0,
			"0.019": 0.0,
			"0.02": 0.0,
			"0.021": 0.0,
			"0.022": 0.0,
			"0.023": 0.0,
			"0.024": 0.0,
			"0.025": 0.0
		}
	}
}
