{
	 "smiles": "FC(F)(F)C(F)(F)F", 
	 "Tm": 173.15, 
	 "num_atms": 8, 
	 "gaussian": { 
		 "optdone": 1, 
		 "sigma_profile": "yes", 
		 "theory": "DFT", 
		 "functional": "B3LYP", 
		 "basiset": "6-31G**", 
		 "properties": { 
			 "R2extent": 4665.0371, 
			 "electric_dipole_moment_norm": 0.0, 
			 "electric_quadrupole_moment_norm": 0.0118160907241, 
			 "total_energy": -675.24846994, 
			 "HOMO_LUMO_gap": 0.47511, 
			 "cosmo_polarized_energy": -0.64, 
			 "cosmo_cavitation_energy": 15.32, 
			 "cosmo_dispersion_energy": -10.45, 
			 "cosmo_repulsion_energy": 0.77, 
			 "cosmo_total_nonelectrostatic_energy": 5.64, 
			 "SMD_solvation_energy": 5.3 
		},
		"coords": [
			{
				"x": 4.3989187562,
				"y": -1.3383633435,
				"z": -0.459321332,
				"element": "F" 
			},
			{
				"x": 4.0391805032,
				"y": -1.7586362843,
				"z": -1.6776548976,
				"element": "C" 
			},
			{
				"x": 4.4892179577,
				"y": -3.005135121,
				"z": -1.8623337601,
				"element": "F" 
			},
			{
				"x": 4.584387883,
				"y": -0.9545740799,
				"z": -2.5977724997,
				"element": "F" 
			},
			{
				"x": 2.5017185074,
				"y": -1.7335102443,
				"z": -1.8064908011,
				"element": "C" 
			},
			{
				"x": 2.0516758622,
				"y": -0.4870154096,
				"z": -1.6218105021,
				"element": "F" 
			},
			{
				"x": 1.9565101943,
				"y": -2.5375800048,
				"z": -0.8863844507,
				"element": "F" 
			},
			{
				"x": 2.141990336,
				"y": -2.1537855126,
				"z": -3.0248317567,
				"element": "F" 
			}
		],
		 "valence_orbital": [ 
			{
				"type": "occ",
				"energy": -0.43888,
				"method": "rhf"
			},
			{
				"type": "occ",
				"energy": -0.43888,
				"method": "rhf"
			},
			{
				"type": "occ",
				"energy": -0.43257,
				"method": "rhf"
			},
			{
				"type": "occ",
				"energy": -0.4258,
				"method": "rhf"
			},
			{
				"type": "occ",
				"energy": -0.38836,
				"method": "rhf"
			},
			{
				"type": "unocc",
				"energy": 0.08675,
				"method": "rhf"
			},
			{
				"type": "unocc",
				"energy": 0.08676,
				"method": "rhf"
			},
			{
				"type": "unocc",
				"energy": 0.1781,
				"method": "rhf"
			},
			{
				"type": "unocc",
				"energy": 0.18517,
				"method": "rhf"
			},
			{
				"type": "unocc",
				"energy": 0.216,
				"method": "rhf"
			}
		],
		"cosmo_sigma_profile": { 
			"-0.025": 0.0,
			"-0.024": 0.0,
			"-0.023": 0.0,
			"-0.022": 0.0,
			"-0.021": 0.0,
			"-0.02": 0.0,
			"-0.019": 0.0,
			"-0.018": 0.0,
			"-0.017": 0.0,
			"-0.016": 0.0,
			"-0.015": 0.0,
			"-0.014": 0.0,
			"-0.013": 0.0,
			"-0.012": 0.0,
			"-0.011": 0.0,
			"-0.01": 0.0,
			"-0.009": 0.0,
			"-0.008": 0.0,
			"-0.007": 0.0,
			"-0.006": 0.0,
			"-0.005": 0.0894842282434,
			"-0.004": 1.93648372604,
			"-0.003": 7.80084471882,
			"-0.002": 10.1631806728,
			"-0.001": 17.3590062079,
			"0.0": 27.3286244783,
			"0.001": 51.625444248,
			"0.002": 7.2005849029,
			"0.003": 0.0,
			"0.004": 0.0,
			"0.005": 0.0,
			"0.006": 0.0,
			"0.007": 0.0,
			"0.008": 0.0,
			"0.009": 0.0,
			"0.01": 0.0,
			"0.011": 0.0,
			"0.012": 0.0,
			"0.013": 0.0,
			"0.014": 0.0,
			"0.015": 0.0,
			"0.016": 0.0,
			"0.017": 0.0,
			"0.018": 0.0,
			"0.019": 0.0,
			"0.02": 0.0,
			"0.021": 0.0,
			"0.022": 0.0,
			"0.023": 0.0,
			"0.024": 0.0,
			"0.025": 0.0
		}
	}
}
