{
	 "smiles": "[O-][N+](=O)C1=CC=C(C=C1)C1=CC=C(NNC2=CC=CC=C2)C=C1", 
	 "Tm": 438.15, 
	 "num_atms": 38, 
	 "gaussian": { 
		 "optdone": 1, 
		 "sigma_profile": "yes", 
		 "theory": "DFT", 
		 "functional": "B3LYP", 
		 "basiset": "6-31G**", 
		 "properties": { 
			 "R2extent": 16097.3152, 
			 "electric_dipole_moment_norm": 6.2204667357, 
			 "electric_quadrupole_moment_norm": 52.9991606696, 
			 "total_energy": -1009.53845693, 
			 "HOMO_LUMO_gap": 0.12432, 
			 "cosmo_polarized_energy": -16.67, 
			 "cosmo_cavitation_energy": 43.67, 
			 "cosmo_dispersion_energy": -31.11, 
			 "cosmo_repulsion_energy": 2.33, 
			 "cosmo_total_nonelectrostatic_energy": 14.89, 
			 "SMD_solvation_energy": 9.41 
		},
		"coords": [
			{
				"x": 5.7842970381,
				"y": -0.7440468557,
				"z": -6.6235101892,
				"element": "O" 
			},
			{
				"x": 4.6806612366,
				"y": -1.2551997804,
				"z": -6.4269616355,
				"element": "N" 
			},
			{
				"x": 4.053936673,
				"y": -1.9079124388,
				"z": -7.2630688219,
				"element": "O" 
			},
			{
				"x": 4.070852552,
				"y": -1.0744325918,
				"z": -5.1059924647,
				"element": "C" 
			},
			{
				"x": 2.8202061091,
				"y": -1.6356090612,
				"z": -4.8507339951,
				"element": "C" 
			},
			{
				"x": 2.2484930088,
				"y": -1.4579400058,
				"z": -3.5969754679,
				"element": "C" 
			},
			{
				"x": 2.9087789301,
				"y": -0.7311596348,
				"z": -2.5859526622,
				"element": "C" 
			},
			{
				"x": 4.1723081676,
				"y": -0.182299522,
				"z": -2.883605506,
				"element": "C" 
			},
			{
				"x": 4.755248741,
				"y": -0.3455360983,
				"z": -4.1341029801,
				"element": "C" 
			},
			{
				"x": 2.2944906824,
				"y": -0.5505445478,
				"z": -1.2525855679,
				"element": "C" 
			},
			{
				"x": 1.499757581,
				"y": -1.5566802759,
				"z": -0.6713759689,
				"element": "C" 
			},
			{
				"x": 0.9283398517,
				"y": -1.3944166401,
				"z": 0.5823794532,
				"element": "C" 
			},
			{
				"x": 1.1214180947,
				"y": -0.2046217191,
				"z": 1.3075170431,
				"element": "C" 
			},
			{
				"x": 0.5027894864,
				"y": -0.0533073289,
				"z": 2.5536399176,
				"element": "N" 
			},
			{
				"x": 1.0104162992,
				"y": 0.8455780007,
				"z": 3.4880310193,
				"element": "N" 
			},
			{
				"x": 0.470150456,
				"y": 2.1486924081,
				"z": 3.5352419607,
				"element": "C" 
			},
			{
				"x": 1.2043283575,
				"y": 3.1578584726,
				"z": 4.1785444591,
				"element": "C" 
			},
			{
				"x": 0.6755148729,
				"y": 4.4410238278,
				"z": 4.2982209787,
				"element": "C" 
			},
			{
				"x": -0.5858972652,
				"y": 4.7410537457,
				"z": 3.7789403507,
				"element": "C" 
			},
			{
				"x": -1.3110772294,
				"y": 3.7353645479,
				"z": 3.1373715943,
				"element": "C" 
			},
			{
				"x": -0.7952277217,
				"y": 2.4458034875,
				"z": 3.0116809601,
				"element": "C" 
			},
			{
				"x": 1.9073065551,
				"y": 0.8115298733,
				"z": 0.7397430505,
				"element": "C" 
			},
			{
				"x": 2.4801405609,
				"y": 0.6308593446,
				"z": -0.5151706758,
				"element": "C" 
			},
			{
				"x": 2.3147511725,
				"y": -2.1858237837,
				"z": -5.6345198819,
				"element": "H" 
			},
			{
				"x": 1.2610857842,
				"y": -1.8647748902,
				"z": -3.404918656,
				"element": "H" 
			},
			{
				"x": 4.7157795343,
				"y": 0.3562158046,
				"z": -2.1142091397,
				"element": "H" 
			},
			{
				"x": 5.7291976656,
				"y": 0.0665541596,
				"z": -4.3667889004,
				"element": "H" 
			},
			{
				"x": 1.357421352,
				"y": -2.4976703213,
				"z": -1.1942402315,
				"element": "H" 
			},
			{
				"x": 0.3345335165,
				"y": -2.1965543691,
				"z": 1.0141079439,
				"element": "H" 
			},
			{
				"x": 0.1968031852,
				"y": -0.9168165431,
				"z": 2.9840077469,
				"element": "H" 
			},
			{
				"x": 2.0235181417,
				"y": 0.8170047539,
				"z": 3.5717743099,
				"element": "H" 
			},
			{
				"x": 2.1854312621,
				"y": 2.9311799304,
				"z": 4.5903466389,
				"element": "H" 
			},
			{
				"x": 1.2569709735,
				"y": 5.2105113879,
				"z": 4.7984248407,
				"element": "H" 
			},
			{
				"x": -0.9949798523,
				"y": 5.7421998358,
				"z": 3.8713808922,
				"element": "H" 
			},
			{
				"x": -2.2924375531,
				"y": 3.953279494,
				"z": 2.724875627,
				"element": "H" 
			},
			{
				"x": -1.3575105726,
				"y": 1.6667063785,
				"z": 2.5100716947,
				"element": "H" 
			},
			{
				"x": 2.0426210815,
				"y": 1.7503823367,
				"z": 1.2645496487,
				"element": "H" 
			},
			{
				"x": 3.0582812711,
				"y": 1.4439486185,
				"z": -0.9439373856,
				"element": "H" 
			}
		],
		 "valence_orbital": [ 
			{
				"type": "occ",
				"energy": -0.27371,
				"method": "rhf"
			},
			{
				"type": "occ",
				"energy": -0.26745,
				"method": "rhf"
			},
			{
				"type": "occ",
				"energy": -0.25113,
				"method": "rhf"
			},
			{
				"type": "occ",
				"energy": -0.22081,
				"method": "rhf"
			},
			{
				"type": "occ",
				"energy": -0.20973,
				"method": "rhf"
			},
			{
				"type": "unocc",
				"energy": -0.08541,
				"method": "rhf"
			},
			{
				"type": "unocc",
				"energy": -0.02491,
				"method": "rhf"
			},
			{
				"type": "unocc",
				"energy": -0.0218,
				"method": "rhf"
			},
			{
				"type": "unocc",
				"energy": -0.01721,
				"method": "rhf"
			},
			{
				"type": "unocc",
				"energy": -0.00177,
				"method": "rhf"
			}
		],
		"cosmo_sigma_profile": { 
			"-0.025": 0.0,
			"-0.024": 0.0,
			"-0.023": 0.0,
			"-0.022": 0.0,
			"-0.021": 0.0,
			"-0.02": 0.0,
			"-0.019": 0.0,
			"-0.018": 0.0,
			"-0.017": 0.0,
			"-0.016": 0.0,
			"-0.015": 0.0,
			"-0.014": 0.314412463758,
			"-0.013": 1.86843158666,
			"-0.012": 2.04770589595,
			"-0.011": 3.01926657487,
			"-0.01": 2.57022186947,
			"-0.009": 2.44572779432,
			"-0.008": 3.56402089563,
			"-0.007": 10.7859321457,
			"-0.006": 19.0586593884,
			"-0.005": 22.992960663,
			"-0.004": 24.9550963523,
			"-0.003": 23.1471254986,
			"-0.002": 21.02918338,
			"-0.001": 21.8579369916,
			"0.0": 21.9230511566,
			"0.001": 24.9007851229,
			"0.002": 34.2903702717,
			"0.003": 21.2957769756,
			"0.004": 20.0005902305,
			"0.005": 22.2970816803,
			"0.006": 12.9148225805,
			"0.007": 11.3362258743,
			"0.008": 10.9046793247,
			"0.009": 5.64346891879,
			"0.01": 4.06088754647,
			"0.011": 1.04073577944,
			"0.012": 0.0,
			"0.013": 0.0,
			"0.014": 0.0,
			"0.015": 0.0,
			"0.016": 0.0,
			"0.017": 0.0,
			"0.018": 0.0,
			"0.019": 0.0,
			"0.02": 0.0,
			"0.021": 0.0,
			"0.022": 0.0,
			"0.023": 0.0,
			"0.024": 0.0,
			"0.025": 0.0
		}
	}
}
