{
	 "smiles": "CC(C)NC1=C(C=CC=N1)C(O)=O", 
	 "Tm": 443.15, 
	 "num_atms": 25, 
	 "gaussian": { 
		 "optdone": 1, 
		 "sigma_profile": "yes", 
		 "theory": "DFT", 
		 "functional": "B3LYP", 
		 "basiset": "6-31G**", 
		 "properties": { 
			 "R2extent": 3558.6948, 
			 "electric_dipole_moment_norm": 4.89981403525, 
			 "electric_quadrupole_moment_norm": 22.6705089484, 
			 "total_energy": -610.165854135, 
			 "HOMO_LUMO_gap": 0.20184, 
			 "cosmo_polarized_energy": -13.4, 
			 "cosmo_cavitation_energy": 27.83, 
			 "cosmo_dispersion_energy": -19.93, 
			 "cosmo_repulsion_energy": 1.57, 
			 "cosmo_total_nonelectrostatic_energy": 9.47, 
			 "SMD_solvation_energy": 4.79 
		},
		"coords": [
			{
				"x": 0.7877491266,
				"y": 1.7171333886,
				"z": -0.7405314108,
				"element": "C" 
			},
			{
				"x": 0.1719038583,
				"y": 0.3171518974,
				"z": -0.7187236026,
				"element": "C" 
			},
			{
				"x": 1.1281860128,
				"y": -0.735138834,
				"z": -1.2804513028,
				"element": "C" 
			},
			{
				"x": -0.1865725288,
				"y": -0.0811622174,
				"z": 0.6829008908,
				"element": "N" 
			},
			{
				"x": -1.2844175457,
				"y": 0.6691714409,
				"z": 1.2486783709,
				"element": "C" 
			},
			{
				"x": -1.0406305295,
				"y": 1.5861708224,
				"z": 2.2867452974,
				"element": "C" 
			},
			{
				"x": -2.1379564559,
				"y": 2.2972631036,
				"z": 2.7860846096,
				"element": "C" 
			},
			{
				"x": -3.4040975219,
				"y": 2.0633401559,
				"z": 2.2622994505,
				"element": "C" 
			},
			{
				"x": -3.5339163051,
				"y": 1.1089683349,
				"z": 1.2514793515,
				"element": "C" 
			},
			{
				"x": -2.4984853568,
				"y": 0.4281880732,
				"z": 0.7473003302,
				"element": "N" 
			},
			{
				"x": 0.3069444755,
				"y": 1.8325892592,
				"z": 2.9345900383,
				"element": "C" 
			},
			{
				"x": 1.3128515193,
				"y": 1.0496892081,
				"z": 2.5384557685,
				"element": "O" 
			},
			{
				"x": 0.4430492342,
				"y": 2.6915300666,
				"z": 3.7815197087,
				"element": "O" 
			},
			{
				"x": 1.701637007,
				"y": 1.7560108966,
				"z": -0.1400739004,
				"element": "H" 
			},
			{
				"x": 1.0376182491,
				"y": 1.9938471604,
				"z": -1.7691272585,
				"element": "H" 
			},
			{
				"x": 0.0947683488,
				"y": 2.4709157124,
				"z": -0.3553656428,
				"element": "H" 
			},
			{
				"x": -0.7485462714,
				"y": 0.323897533,
				"z": -1.3201949215,
				"element": "H" 
			},
			{
				"x": 1.3889399697,
				"y": -0.4954413385,
				"z": -2.3153387076,
				"element": "H" 
			},
			{
				"x": 0.6748029406,
				"y": -1.7330766311,
				"z": -1.2749986946,
				"element": "H" 
			},
			{
				"x": 2.0525984118,
				"y": -0.7755828457,
				"z": -0.6947235312,
				"element": "H" 
			},
			{
				"x": -0.4868534482,
				"y": -1.0548818081,
				"z": 0.6464666303,
				"element": "H" 
			},
			{
				"x": -1.961878747,
				"y": 3.0101293108,
				"z": 3.5847335038,
				"element": "H" 
			},
			{
				"x": -4.2748402158,
				"y": 2.5950562431,
				"z": 2.6316000473,
				"element": "H" 
			},
			{
				"x": -4.5092087896,
				"y": 0.8795900541,
				"z": 0.8264545872,
				"element": "H" 
			},
			{
				"x": 0.961954562,
				"y": 0.4291410135,
				"z": 1.8311203877,
				"element": "H" 
			}
		],
		 "valence_orbital": [ 
			{
				"type": "occ",
				"energy": -0.29191,
				"method": "rhf"
			},
			{
				"type": "occ",
				"energy": -0.28814,
				"method": "rhf"
			},
			{
				"type": "occ",
				"energy": -0.28216,
				"method": "rhf"
			},
			{
				"type": "occ",
				"energy": -0.27053,
				"method": "rhf"
			},
			{
				"type": "occ",
				"energy": -0.25754,
				"method": "rhf"
			},
			{
				"type": "unocc",
				"energy": -0.0557,
				"method": "rhf"
			},
			{
				"type": "unocc",
				"energy": -0.03915,
				"method": "rhf"
			},
			{
				"type": "unocc",
				"energy": 0.0513,
				"method": "rhf"
			},
			{
				"type": "unocc",
				"energy": 0.0704,
				"method": "rhf"
			},
			{
				"type": "unocc",
				"energy": 0.09861,
				"method": "rhf"
			}
		],
		"cosmo_sigma_profile": { 
			"-0.025": 0.0,
			"-0.024": 0.0,
			"-0.023": 0.0,
			"-0.022": 0.0,
			"-0.021": 0.0,
			"-0.02": 0.0,
			"-0.019": 0.0,
			"-0.018": 0.0,
			"-0.017": 0.0,
			"-0.016": 0.0,
			"-0.015": 0.0,
			"-0.014": 0.0,
			"-0.013": 0.175358853835,
			"-0.012": 0.91537040522,
			"-0.011": 1.17005496189,
			"-0.01": 1.3393569488,
			"-0.009": 1.21190720622,
			"-0.008": 2.37443395071,
			"-0.007": 7.18837016661,
			"-0.006": 9.23429059872,
			"-0.005": 9.10559484839,
			"-0.004": 16.0403482446,
			"-0.003": 25.8043396604,
			"-0.002": 23.4342473564,
			"-0.001": 23.9840841787,
			"0.0": 26.3828769617,
			"0.001": 18.4637052904,
			"0.002": 6.72714808014,
			"0.003": 4.41002549134,
			"0.004": 3.62705395468,
			"0.005": 3.18042954924,
			"0.006": 3.50023591264,
			"0.007": 3.09489134463,
			"0.008": 3.59484374304,
			"0.009": 2.37034368695,
			"0.01": 4.76551388048,
			"0.011": 5.685653951,
			"0.012": 7.21859359207,
			"0.013": 3.53414307699,
			"0.014": 1.48734320846,
			"0.015": 0.0367704987781,
			"0.016": 0.0,
			"0.017": 0.0,
			"0.018": 0.0,
			"0.019": 0.0,
			"0.02": 0.0,
			"0.021": 0.0,
			"0.022": 0.0,
			"0.023": 0.0,
			"0.024": 0.0,
			"0.025": 0.0
		}
	}
}
