{
	 "smiles": "CC1=CC(OP(=O)(OC2=CC(C)=CC=C2)OC2=CC=CC(C)=C2)=CC=C1", 
	 "Tm": 298.65, 
	 "num_atms": 47, 
	 "gaussian": { 
		 "optdone": 1, 
		 "sigma_profile": "yes", 
		 "theory": "DFT", 
		 "functional": "B3LYP", 
		 "basiset": "6-31G**", 
		 "properties": { 
			 "R2extent": 11019.7077, 
			 "electric_dipole_moment_norm": 4.7106904133, 
			 "electric_quadrupole_moment_norm": 13.1029051, 
			 "total_energy": -1455.23198671, 
			 "HOMO_LUMO_gap": 0.22171, 
			 "cosmo_polarized_energy": -12.99, 
			 "cosmo_cavitation_energy": 53.32, 
			 "cosmo_dispersion_energy": -34.3, 
			 "cosmo_repulsion_energy": 2.67, 
			 "cosmo_total_nonelectrostatic_energy": 21.69, 
			 "SMD_solvation_energy": 10.68 
		},
		"coords": [
			{
				"x": 3.5177269758,
				"y": -1.0437286471,
				"z": -3.4813861979,
				"element": "C" 
			},
			{
				"x": 3.593315159,
				"y": -0.5437331343,
				"z": -2.0576036617,
				"element": "C" 
			},
			{
				"x": 2.7257419145,
				"y": -1.0514211555,
				"z": -1.08173402,
				"element": "C" 
			},
			{
				"x": 2.8237191269,
				"y": -0.6048331707,
				"z": 0.2318296199,
				"element": "C" 
			},
			{
				"x": 1.9956372754,
				"y": -1.1846790913,
				"z": 1.2048138342,
				"element": "O" 
			},
			{
				"x": 0.5716501989,
				"y": -0.6235459312,
				"z": 1.6666510106,
				"element": "P" 
			},
			{
				"x": -0.0918179911,
				"y": -1.4485923534,
				"z": 2.6930517014,
				"element": "O" 
			},
			{
				"x": 0.9584802303,
				"y": 0.8925230329,
				"z": 2.0854507549,
				"element": "O" 
			},
			{
				"x": 0.0923306419,
				"y": 1.8064135948,
				"z": 2.6998090431,
				"element": "C" 
			},
			{
				"x": 0.1269166134,
				"y": 3.1095014152,
				"z": 2.2091801172,
				"element": "C" 
			},
			{
				"x": -0.6552756763,
				"y": 4.1055195066,
				"z": 2.804838596,
				"element": "C" 
			},
			{
				"x": -0.6473759393,
				"y": 5.5150218876,
				"z": 2.2605901693,
				"element": "C" 
			},
			{
				"x": -1.4623818615,
				"y": 3.7572866245,
				"z": 3.896538109,
				"element": "C" 
			},
			{
				"x": -1.4851388237,
				"y": 2.4480437517,
				"z": 4.3770473636,
				"element": "C" 
			},
			{
				"x": -0.7029235982,
				"y": 1.453066691,
				"z": 3.7887704852,
				"element": "C" 
			},
			{
				"x": -0.1833177038,
				"y": -0.4822247382,
				"z": 0.2407278168,
				"element": "O" 
			},
			{
				"x": -1.5435470727,
				"y": -0.1938822446,
				"z": 0.0692135886,
				"element": "C" 
			},
			{
				"x": -2.5353437116,
				"y": -0.8552123059,
				"z": 0.7918531401,
				"element": "C" 
			},
			{
				"x": -3.8665850208,
				"y": -0.549394555,
				"z": 0.505462638,
				"element": "C" 
			},
			{
				"x": -4.1934818442,
				"y": 0.38115688,
				"z": -0.4809066839,
				"element": "C" 
			},
			{
				"x": -3.1902154495,
				"y": 1.0374928632,
				"z": -1.2068230925,
				"element": "C" 
			},
			{
				"x": -3.5357605401,
				"y": 2.0685986178,
				"z": -2.2558083596,
				"element": "C" 
			},
			{
				"x": -1.8538751904,
				"y": 0.7366908822,
				"z": -0.9194968561,
				"element": "C" 
			},
			{
				"x": 3.769149904,
				"y": 0.3402593849,
				"z": 0.6200146869,
				"element": "C" 
			},
			{
				"x": 4.6305480106,
				"y": 0.8483602899,
				"z": -0.3521431996,
				"element": "C" 
			},
			{
				"x": 4.5430937267,
				"y": 0.4130670828,
				"z": -1.6755761637,
				"element": "C" 
			},
			{
				"x": 2.4841192545,
				"y": -1.2385401432,
				"z": -3.7833840928,
				"element": "H" 
			},
			{
				"x": 4.0724054474,
				"y": -1.9828105222,
				"z": -3.5996624652,
				"element": "H" 
			},
			{
				"x": 3.9460375655,
				"y": -0.3206721432,
				"z": -4.1813825109,
				"element": "H" 
			},
			{
				"x": 1.9723471861,
				"y": -1.7909243103,
				"z": -1.3324769017,
				"element": "H" 
			},
			{
				"x": 0.772668537,
				"y": 3.3339799219,
				"z": 1.3657342857,
				"element": "H" 
			},
			{
				"x": -1.4152559492,
				"y": 5.6445172332,
				"z": 1.4876015553,
				"element": "H" 
			},
			{
				"x": 0.3162627914,
				"y": 5.7646436353,
				"z": 1.8066595687,
				"element": "H" 
			},
			{
				"x": -0.8520519321,
				"y": 6.2471854112,
				"z": 3.0473152386,
				"element": "H" 
			},
			{
				"x": -2.0730949053,
				"y": 4.518618215,
				"z": 4.3746019423,
				"element": "H" 
			},
			{
				"x": -2.1115825931,
				"y": 2.1958425025,
				"z": 5.2277680436,
				"element": "H" 
			},
			{
				"x": -0.7027879026,
				"y": 0.4335904364,
				"z": 4.1548751036,
				"element": "H" 
			},
			{
				"x": -2.2646925377,
				"y": -1.5797695143,
				"z": 1.550141049,
				"element": "H" 
			},
			{
				"x": -4.6561872436,
				"y": -1.0534510533,
				"z": 1.055221643,
				"element": "H" 
			},
			{
				"x": -5.2368471244,
				"y": 0.5987726926,
				"z": -0.6934325577,
				"element": "H" 
			},
			{
				"x": -4.5037671509,
				"y": 1.856708508,
				"z": -2.7193982885,
				"element": "H" 
			},
			{
				"x": -3.5973102885,
				"y": 3.0726381024,
				"z": -1.8176175729,
				"element": "H" 
			},
			{
				"x": -2.7809365326,
				"y": 2.105019192,
				"z": -3.0469855482,
				"element": "H" 
			},
			{
				"x": -1.0432805751,
				"y": 1.2152379202,
				"z": -1.4605156122,
				"element": "H" 
			},
			{
				"x": 3.8162155693,
				"y": 0.6625355557,
				"z": 1.6536212051,
				"element": "H" 
			},
			{
				"x": 5.3744379983,
				"y": 1.5892093274,
				"z": -0.0740200238,
				"element": "H" 
			},
			{
				"x": 5.2211310314,
				"y": 0.8190138552,
				"z": -2.4216285011,
				"element": "H" 
			}
		],
		 "valence_orbital": [ 
			{
				"type": "occ",
				"energy": -0.25006,
				"method": "rhf"
			},
			{
				"type": "occ",
				"energy": -0.2456,
				"method": "rhf"
			},
			{
				"type": "occ",
				"energy": -0.24419,
				"method": "rhf"
			},
			{
				"type": "occ",
				"energy": -0.24257,
				"method": "rhf"
			},
			{
				"type": "occ",
				"energy": -0.22951,
				"method": "rhf"
			},
			{
				"type": "unocc",
				"energy": -0.0078,
				"method": "rhf"
			},
			{
				"type": "unocc",
				"energy": -0.00732,
				"method": "rhf"
			},
			{
				"type": "unocc",
				"energy": -0.00523,
				"method": "rhf"
			},
			{
				"type": "unocc",
				"energy": -0.00186,
				"method": "rhf"
			},
			{
				"type": "unocc",
				"energy": -0.00037,
				"method": "rhf"
			}
		],
		"cosmo_sigma_profile": { 
			"-0.025": 0.0,
			"-0.024": 0.0,
			"-0.023": 0.0,
			"-0.022": 0.0,
			"-0.021": 0.0,
			"-0.02": 0.0,
			"-0.019": 0.0,
			"-0.018": 0.0,
			"-0.017": 0.0,
			"-0.016": 0.0,
			"-0.015": 0.0,
			"-0.014": 0.0,
			"-0.013": 0.0,
			"-0.012": 0.0,
			"-0.011": 0.0,
			"-0.01": 0.0,
			"-0.009": 0.0,
			"-0.008": 0.0,
			"-0.007": 1.31565441682,
			"-0.006": 13.9843767189,
			"-0.005": 29.3160012298,
			"-0.004": 43.647396647,
			"-0.003": 34.4797458365,
			"-0.002": 37.1599529597,
			"-0.001": 43.421907115,
			"0.0": 43.6308988224,
			"0.001": 29.3185359067,
			"0.002": 32.4436788899,
			"0.003": 34.4030824994,
			"0.004": 36.8916582455,
			"0.005": 23.3053588982,
			"0.006": 4.34654948736,
			"0.007": 2.74271031175,
			"0.008": 2.30104035002,
			"0.009": 1.23432505794,
			"0.01": 1.41635446545,
			"0.011": 1.67724299315,
			"0.012": 2.61066284148,
			"0.013": 3.10970697022,
			"0.014": 0.178058776797,
			"0.015": 0.0,
			"0.016": 0.0,
			"0.017": 0.0,
			"0.018": 0.0,
			"0.019": 0.0,
			"0.02": 0.0,
			"0.021": 0.0,
			"0.022": 0.0,
			"0.023": 0.0,
			"0.024": 0.0,
			"0.025": 0.0
		}
	}
}
