{
	 "smiles": "OC(=O)C1=CC=C(NC(=O)C2=NC=CC=C2)C=C1", 
	 "Tm": 537.15, 
	 "num_atms": 28, 
	 "gaussian": { 
		 "optdone": 1, 
		 "sigma_profile": "yes", 
		 "theory": "DFT", 
		 "functional": "B3LYP", 
		 "basiset": "6-31G**", 
		 "properties": { 
			 "R2extent": 7530.2328, 
			 "electric_dipole_moment_norm": 8.03466638324, 
			 "electric_quadrupole_moment_norm": 20.3169683765, 
			 "total_energy": -836.619306001, 
			 "HOMO_LUMO_gap": 0.16039, 
			 "cosmo_polarized_energy": -19.73, 
			 "cosmo_cavitation_energy": 33.7, 
			 "cosmo_dispersion_energy": -24.96, 
			 "cosmo_repulsion_energy": 1.89, 
			 "cosmo_total_nonelectrostatic_energy": 10.63, 
			 "SMD_solvation_energy": 6.49 
		},
		"coords": [
			{
				"x": -2.9803701893,
				"y": 5.2815407969,
				"z": -2.4553360168,
				"element": "O" 
			},
			{
				"x": -3.0347889561,
				"y": 3.9770502037,
				"z": -2.843720814,
				"element": "C" 
			},
			{
				"x": -3.7879752305,
				"y": 3.6472345915,
				"z": -3.7312389771,
				"element": "O" 
			},
			{
				"x": -2.1349320996,
				"y": 3.0207509961,
				"z": -2.1301846314,
				"element": "C" 
			},
			{
				"x": -1.8973752999,
				"y": 1.7755746593,
				"z": -2.731394036,
				"element": "C" 
			},
			{
				"x": -1.074098081,
				"y": 0.8428549816,
				"z": -2.121726859,
				"element": "C" 
			},
			{
				"x": -0.4744750878,
				"y": 1.1216773516,
				"z": -0.8787456577,
				"element": "C" 
			},
			{
				"x": 0.3436418033,
				"y": 0.1342931519,
				"z": -0.3206305779,
				"element": "N" 
			},
			{
				"x": 1.0427792474,
				"y": 0.1574496882,
				"z": 0.8580605341,
				"element": "C" 
			},
			{
				"x": 1.0718281607,
				"y": 1.0861836661,
				"z": 1.6588397034,
				"element": "O" 
			},
			{
				"x": 1.8140363841,
				"y": -1.1184498739,
				"z": 1.1039547359,
				"element": "C" 
			},
			{
				"x": 1.7288480126,
				"y": -2.0849326562,
				"z": 0.1761087785,
				"element": "N" 
			},
			{
				"x": 2.4078661497,
				"y": -3.2161459144,
				"z": 0.3870065984,
				"element": "C" 
			},
			{
				"x": 3.1944137675,
				"y": -3.4320641294,
				"z": 1.5211124909,
				"element": "C" 
			},
			{
				"x": 3.276389378,
				"y": -2.4214264947,
				"z": 2.4791932974,
				"element": "C" 
			},
			{
				"x": 2.5725786489,
				"y": -1.2373073281,
				"z": 2.2701443672,
				"element": "C" 
			},
			{
				"x": -0.7242165259,
				"y": 2.356112924,
				"z": -0.2546262109,
				"element": "C" 
			},
			{
				"x": -1.5469167755,
				"y": 3.2847867665,
				"z": -0.8850533861,
				"element": "C" 
			},
			{
				"x": -2.2283651775,
				"y": 5.4217438307,
				"z": -1.8639234075,
				"element": "H" 
			},
			{
				"x": -2.3709639649,
				"y": 1.5629273159,
				"z": -3.6835872594,
				"element": "H" 
			},
			{
				"x": -0.8892423097,
				"y": -0.1143269152,
				"z": -2.6027180667,
				"element": "H" 
			},
			{
				"x": 0.4592966418,
				"y": -0.7349329747,
				"z": -0.8348088365,
				"element": "H" 
			},
			{
				"x": 2.3203605335,
				"y": -3.9816256733,
				"z": -0.3809309642,
				"element": "H" 
			},
			{
				"x": 3.7261766174,
				"y": -4.3698955792,
				"z": 1.6442855162,
				"element": "H" 
			},
			{
				"x": 3.8782550513,
				"y": -2.5545351324,
				"z": 3.3732225115,
				"element": "H" 
			},
			{
				"x": 2.5907917567,
				"y": -0.4118289017,
				"z": 2.9718988906,
				"element": "H" 
			},
			{
				"x": -0.2798410537,
				"y": 2.5634155575,
				"z": 0.7083652418,
				"element": "H" 
			},
			{
				"x": -1.7526014015,
				"y": 4.2148750917,
				"z": -0.3596669648,
				"element": "H" 
			}
		],
		 "valence_orbital": [ 
			{
				"type": "occ",
				"energy": -0.28376,
				"method": "rhf"
			},
			{
				"type": "occ",
				"energy": -0.26911,
				"method": "rhf"
			},
			{
				"type": "occ",
				"energy": -0.26676,
				"method": "rhf"
			},
			{
				"type": "occ",
				"energy": -0.26377,
				"method": "rhf"
			},
			{
				"type": "occ",
				"energy": -0.23318,
				"method": "rhf"
			},
			{
				"type": "unocc",
				"energy": -0.07279,
				"method": "rhf"
			},
			{
				"type": "unocc",
				"energy": -0.04606,
				"method": "rhf"
			},
			{
				"type": "unocc",
				"energy": -0.03283,
				"method": "rhf"
			},
			{
				"type": "unocc",
				"energy": -0.01683,
				"method": "rhf"
			},
			{
				"type": "unocc",
				"energy": 0.03771,
				"method": "rhf"
			}
		],
		"cosmo_sigma_profile": { 
			"-0.025": 0.0,
			"-0.024": 0.0,
			"-0.023": 0.0,
			"-0.022": 0.0,
			"-0.021": 0.0,
			"-0.02": 0.0,
			"-0.019": 0.177207421655,
			"-0.018": 0.885064441194,
			"-0.017": 1.24285604978,
			"-0.016": 0.514547490275,
			"-0.015": 0.632607166444,
			"-0.014": 0.895153081183,
			"-0.013": 1.53767634861,
			"-0.012": 2.51368124251,
			"-0.011": 2.33744939946,
			"-0.01": 1.66025314538,
			"-0.009": 2.95321064685,
			"-0.008": 4.71190200682,
			"-0.007": 13.1200584827,
			"-0.006": 14.6133294259,
			"-0.005": 14.7616338367,
			"-0.004": 11.299697789,
			"-0.003": 13.3644639221,
			"-0.002": 16.937937788,
			"-0.001": 18.7750243956,
			"0.0": 24.2329239602,
			"0.001": 26.6196738487,
			"0.002": 20.0453122248,
			"0.003": 20.0108000324,
			"0.004": 7.23308714083,
			"0.005": 5.30376929052,
			"0.006": 6.40497772436,
			"0.007": 4.81644452994,
			"0.008": 4.6190007273,
			"0.009": 4.87885891806,
			"0.01": 5.50861271125,
			"0.011": 7.75781639342,
			"0.012": 8.53233002186,
			"0.013": 2.53273803417,
			"0.014": 0.296836394032,
			"0.015": 0.0,
			"0.016": 0.0,
			"0.017": 0.0,
			"0.018": 0.0,
			"0.019": 0.0,
			"0.02": 0.0,
			"0.021": 0.0,
			"0.022": 0.0,
			"0.023": 0.0,
			"0.024": 0.0,
			"0.025": 0.0
		}
	}
}
