{
	 "smiles": "CC1CCC(C)C(C)C1", 
	 "Tm": 189.65, 
	 "num_atms": 27, 
	 "gaussian": { 
		 "optdone": 1, 
		 "sigma_profile": "yes", 
		 "theory": "DFT", 
		 "functional": "B3LYP", 
		 "basiset": "6-31G**", 
		 "properties": { 
			 "R2extent": 1736.7221, 
			 "electric_dipole_moment_norm": 0.0974296156207, 
			 "electric_quadrupole_moment_norm": 0.413667233414, 
			 "total_energy": -353.83191284, 
			 "HOMO_LUMO_gap": 0.36297, 
			 "cosmo_polarized_energy": -0.67, 
			 "cosmo_cavitation_energy": 25.85, 
			 "cosmo_dispersion_energy": -18.7, 
			 "cosmo_repulsion_energy": 1.52, 
			 "cosmo_total_nonelectrostatic_energy": 8.67, 
			 "SMD_solvation_energy": 3.94 
		},
		"coords": [
			{
				"x": -1.5756139793,
				"y": -1.6099249013,
				"z": -0.9840543627,
				"element": "C" 
			},
			{
				"x": -0.4489044089,
				"y": -1.2378325517,
				"z": -0.010897441,
				"element": "C" 
			},
			{
				"x": 0.3292467392,
				"y": 0.0043976839,
				"z": -0.5086790042,
				"element": "C" 
			},
			{
				"x": 1.0397664179,
				"y": 0.7171111173,
				"z": 0.6479666762,
				"element": "C" 
			},
			{
				"x": 0.0247440262,
				"y": 1.3194657404,
				"z": 1.6582391778,
				"element": "C" 
			},
			{
				"x": -0.2892789264,
				"y": 2.7849037628,
				"z": 1.320091544,
				"element": "C" 
			},
			{
				"x": -1.2759518058,
				"y": 0.4658278583,
				"z": 1.7358998537,
				"element": "C" 
			},
			{
				"x": -1.9824494321,
				"y": 0.6237026332,
				"z": 3.0885375307,
				"element": "C" 
			},
			{
				"x": -0.9739007441,
				"y": -1.0121888024,
				"z": 1.4328446925,
				"element": "C" 
			},
			{
				"x": -2.3470813764,
				"y": -0.8304397301,
				"z": -1.0103460947,
				"element": "H" 
			},
			{
				"x": -2.0609388254,
				"y": -2.5485880139,
				"z": -0.6946190209,
				"element": "H" 
			},
			{
				"x": -1.1953711035,
				"y": -1.730164871,
				"z": -2.0050052844,
				"element": "H" 
			},
			{
				"x": 0.2544570185,
				"y": -2.081356802,
				"z": 0.0210432597,
				"element": "H" 
			},
			{
				"x": 1.0451836999,
				"y": -0.2903597857,
				"z": -1.2849956909,
				"element": "H" 
			},
			{
				"x": -0.3669834721,
				"y": 0.7046358749,
				"z": -0.9913564211,
				"element": "H" 
			},
			{
				"x": 1.6980681843,
				"y": 1.5080420463,
				"z": 0.2687451242,
				"element": "H" 
			},
			{
				"x": 1.6935703158,
				"y": -0.0026863285,
				"z": 1.1573887728,
				"element": "H" 
			},
			{
				"x": 0.4906513973,
				"y": 1.2984672393,
				"z": 2.654142884,
				"element": "H" 
			},
			{
				"x": -0.6772284302,
				"y": 2.8773646143,
				"z": 0.2982069336,
				"element": "H" 
			},
			{
				"x": -1.0402223141,
				"y": 3.2077622862,
				"z": 1.9958852383,
				"element": "H" 
			},
			{
				"x": 0.6086725273,
				"y": 3.4084636076,
				"z": 1.3908264661,
				"element": "H" 
			},
			{
				"x": -1.9626768362,
				"y": 0.8328532362,
				"z": 0.957662899,
				"element": "H" 
			},
			{
				"x": -1.3683023054,
				"y": 0.2107603306,
				"z": 3.8982730087,
				"element": "H" 
			},
			{
				"x": -2.9426169837,
				"y": 0.0960649249,
				"z": 3.0988597763,
				"element": "H" 
			},
			{
				"x": -2.1799335811,
				"y": 1.6742985359,
				"z": 3.3264247679,
				"element": "H" 
			},
			{
				"x": -1.8721672659,
				"y": -1.6201313806,
				"z": 1.6001501508,
				"element": "H" 
			},
			{
				"x": -0.2317385357,
				"y": -1.3676483248,
				"z": 2.1608645635,
				"element": "H" 
			}
		],
		 "valence_orbital": [ 
			{
				"type": "occ",
				"energy": -0.32678,
				"method": "rhf"
			},
			{
				"type": "occ",
				"energy": -0.32144,
				"method": "rhf"
			},
			{
				"type": "occ",
				"energy": -0.28988,
				"method": "rhf"
			},
			{
				"type": "occ",
				"energy": -0.28594,
				"method": "rhf"
			},
			{
				"type": "occ",
				"energy": -0.28396,
				"method": "rhf"
			},
			{
				"type": "unocc",
				"energy": 0.07901,
				"method": "rhf"
			},
			{
				"type": "unocc",
				"energy": 0.09827,
				"method": "rhf"
			},
			{
				"type": "unocc",
				"energy": 0.10567,
				"method": "rhf"
			},
			{
				"type": "unocc",
				"energy": 0.12253,
				"method": "rhf"
			},
			{
				"type": "unocc",
				"energy": 0.14404,
				"method": "rhf"
			}
		],
		"cosmo_sigma_profile": { 
			"-0.025": 0.0,
			"-0.024": 0.0,
			"-0.023": 0.0,
			"-0.022": 0.0,
			"-0.021": 0.0,
			"-0.02": 0.0,
			"-0.019": 0.0,
			"-0.018": 0.0,
			"-0.017": 0.0,
			"-0.016": 0.0,
			"-0.015": 0.0,
			"-0.014": 0.0,
			"-0.013": 0.0,
			"-0.012": 0.0,
			"-0.011": 0.0,
			"-0.01": 0.0,
			"-0.009": 0.0,
			"-0.008": 0.0,
			"-0.007": 0.0,
			"-0.006": 0.0,
			"-0.005": 0.0,
			"-0.004": 0.0,
			"-0.003": 3.201040515,
			"-0.002": 24.5211880064,
			"-0.001": 47.7721235107,
			"0.0": 47.8774767173,
			"0.001": 42.0706317648,
			"0.002": 29.7812787992,
			"0.003": 1.84594687953,
			"0.004": 0.0,
			"0.005": 0.0,
			"0.006": 0.0,
			"0.007": 0.0,
			"0.008": 0.0,
			"0.009": 0.0,
			"0.01": 0.0,
			"0.011": 0.0,
			"0.012": 0.0,
			"0.013": 0.0,
			"0.014": 0.0,
			"0.015": 0.0,
			"0.016": 0.0,
			"0.017": 0.0,
			"0.018": 0.0,
			"0.019": 0.0,
			"0.02": 0.0,
			"0.021": 0.0,
			"0.022": 0.0,
			"0.023": 0.0,
			"0.024": 0.0,
			"0.025": 0.0
		}
	}
}
