{
	 "smiles": "BrC1=CC=C(C=C1)N1CCCC1=O", 
	 "Tm": 372.65, 
	 "num_atms": 23, 
	 "gaussian": { 
		 "optdone": 1, 
		 "sigma_profile": "yes", 
		 "theory": "DFT", 
		 "functional": "B3LYP", 
		 "basiset": "6-31G**", 
		 "properties": { 
			 "R2extent": 5780.2235, 
			 "electric_dipole_moment_norm": 4.76137746666, 
			 "electric_quadrupole_moment_norm": 7.99784932029, 
			 "total_energy": -3088.4918077, 
			 "HOMO_LUMO_gap": 0.1974, 
			 "cosmo_polarized_energy": -10.35, 
			 "cosmo_cavitation_energy": 28.19, 
			 "cosmo_dispersion_energy": -21.64, 
			 "cosmo_repulsion_energy": 1.7, 
			 "cosmo_total_nonelectrostatic_energy": 8.25, 
			 "SMD_solvation_energy": 3.53 
		},
		"coords": [
			{
				"x": 5.009942079,
				"y": 1.0629141523,
				"z": -0.3502741347,
				"element": "Br" 
			},
			{
				"x": 3.1294575714,
				"y": 0.974220386,
				"z": -0.0160275139,
				"element": "C" 
			},
			{
				"x": 2.6610547776,
				"y": 0.3375193242,
				"z": 1.1283950484,
				"element": "C" 
			},
			{
				"x": 1.2892873383,
				"y": 0.2756591512,
				"z": 1.3691066322,
				"element": "C" 
			},
			{
				"x": 0.3717720859,
				"y": 0.850582279,
				"z": 0.472353333,
				"element": "C" 
			},
			{
				"x": 0.8657398701,
				"y": 1.4888472945,
				"z": -0.6814516105,
				"element": "C" 
			},
			{
				"x": 2.2360850874,
				"y": 1.5464401523,
				"z": -0.9196455052,
				"element": "C" 
			},
			{
				"x": -1.0120944215,
				"y": 0.7863554823,
				"z": 0.7533575472,
				"element": "N" 
			},
			{
				"x": -1.5090772835,
				"y": 0.2769168024,
				"z": 2.0381711627,
				"element": "C" 
			},
			{
				"x": -3.00192615,
				"y": 0.6507911449,
				"z": 2.0354225521,
				"element": "C" 
			},
			{
				"x": -3.3586401481,
				"y": 0.6880039991,
				"z": 0.5466638851,
				"element": "C" 
			},
			{
				"x": -2.0445435343,
				"y": 1.0324747231,
				"z": -0.1489229486,
				"element": "C" 
			},
			{
				"x": -1.9290996464,
				"y": 1.4301529292,
				"z": -1.2954411805,
				"element": "O" 
			},
			{
				"x": 3.3554764766,
				"y": -0.1116617102,
				"z": 1.8292227098,
				"element": "H" 
			},
			{
				"x": 0.9472450942,
				"y": -0.2358049763,
				"z": 2.2606977735,
				"element": "H" 
			},
			{
				"x": 0.1722010507,
				"y": 1.9236281301,
				"z": -1.3862213486,
				"element": "H" 
			},
			{
				"x": 2.6056184654,
				"y": 2.0410021264,
				"z": -1.8109090657,
				"element": "H" 
			},
			{
				"x": -0.9658020278,
				"y": 0.7392544128,
				"z": 2.8674434813,
				"element": "H" 
			},
			{
				"x": -1.3621963803,
				"y": -0.8105225982,
				"z": 2.1035759498,
				"element": "H" 
			},
			{
				"x": -3.1330039893,
				"y": 1.642878914,
				"z": 2.4786409542,
				"element": "H" 
			},
			{
				"x": -3.5995573918,
				"y": -0.0561431588,
				"z": 2.6153309032,
				"element": "H" 
			},
			{
				"x": -3.6869887618,
				"y": -0.2913558447,
				"z": 0.1761710417,
				"element": "H" 
			},
			{
				"x": -4.1280501616,
				"y": 1.4139468842,
				"z": 0.2767403335,
				"element": "H" 
			}
		],
		 "valence_orbital": [ 
			{
				"type": "occ",
				"energy": -0.28285,
				"method": "rhf"
			},
			{
				"type": "occ",
				"energy": -0.27835,
				"method": "rhf"
			},
			{
				"type": "occ",
				"energy": -0.26164,
				"method": "rhf"
			},
			{
				"type": "occ",
				"energy": -0.25454,
				"method": "rhf"
			},
			{
				"type": "occ",
				"energy": -0.21798,
				"method": "rhf"
			},
			{
				"type": "unocc",
				"energy": -0.02058,
				"method": "rhf"
			},
			{
				"type": "unocc",
				"energy": -0.01159,
				"method": "rhf"
			},
			{
				"type": "unocc",
				"energy": 0.01225,
				"method": "rhf"
			},
			{
				"type": "unocc",
				"energy": 0.03399,
				"method": "rhf"
			},
			{
				"type": "unocc",
				"energy": 0.07469,
				"method": "rhf"
			}
		],
		"cosmo_sigma_profile": { 
			"-0.025": 0.0,
			"-0.024": 0.0,
			"-0.023": 0.0,
			"-0.022": 0.0,
			"-0.021": 0.0,
			"-0.02": 0.0,
			"-0.019": 0.0,
			"-0.018": 0.0,
			"-0.017": 0.0,
			"-0.016": 0.0,
			"-0.015": 0.0,
			"-0.014": 0.0,
			"-0.013": 0.0,
			"-0.012": 0.0,
			"-0.011": 0.0,
			"-0.01": 0.0,
			"-0.009": 0.0,
			"-0.008": 0.17990960942,
			"-0.007": 4.43340688549,
			"-0.006": 13.1760121476,
			"-0.005": 20.8236108583,
			"-0.004": 27.1315490783,
			"-0.003": 19.7847374775,
			"-0.002": 15.9839524331,
			"-0.001": 14.2342381765,
			"0.0": 12.148313955,
			"0.001": 13.1131568734,
			"0.002": 15.3612508865,
			"0.003": 21.9046694977,
			"0.004": 20.8444913095,
			"0.005": 11.2966957319,
			"0.006": 1.68526661205,
			"0.007": 2.57070791717,
			"0.008": 0.990077953683,
			"0.009": 1.11408456587,
			"0.01": 1.89858579581,
			"0.011": 2.01112836368,
			"0.012": 2.83408996123,
			"0.013": 3.08161784374,
			"0.014": 1.18638340782,
			"0.015": 0.0304462339695,
			"0.016": 0.0,
			"0.017": 0.0,
			"0.018": 0.0,
			"0.019": 0.0,
			"0.02": 0.0,
			"0.021": 0.0,
			"0.022": 0.0,
			"0.023": 0.0,
			"0.024": 0.0,
			"0.025": 0.0
		}
	}
}
