{
	 "smiles": "[O-][N+]1=C(C(=O)C2=CC=CC=C12)C1=CC=CC=C1", 
	 "Tm": 459.15, 
	 "num_atms": 26, 
	 "gaussian": { 
		 "optdone": 1, 
		 "sigma_profile": "yes", 
		 "theory": "DFT", 
		 "functional": "B3LYP", 
		 "basiset": "6-31G**", 
		 "properties": { 
			 "R2extent": 4646.5939, 
			 "electric_dipole_moment_norm": 2.41204201041, 
			 "electric_quadrupole_moment_norm": 18.9319158346, 
			 "total_energy": -744.049192204, 
			 "HOMO_LUMO_gap": 0.10623, 
			 "cosmo_polarized_energy": -9.27, 
			 "cosmo_cavitation_energy": 30.67, 
			 "cosmo_dispersion_energy": -22.8, 
			 "cosmo_repulsion_energy": 1.7, 
			 "cosmo_total_nonelectrostatic_energy": 9.58, 
			 "SMD_solvation_energy": 6.29 
		},
		"coords": [
			{
				"x": -0.1645265434,
				"y": 2.9547178446,
				"z": 1.0386020191,
				"element": "O" 
			},
			{
				"x": -0.4910402301,
				"y": 1.7477951977,
				"z": 0.8714805792,
				"element": "N" 
			},
			{
				"x": 0.0000568622,
				"y": 0.8317730797,
				"z": 0.0149551448,
				"element": "C" 
			},
			{
				"x": -0.7577970798,
				"y": -0.4406455627,
				"z": 0.2475817237,
				"element": "C" 
			},
			{
				"x": -0.621817459,
				"y": -1.5115566948,
				"z": -0.3209399548,
				"element": "O" 
			},
			{
				"x": -1.7380318363,
				"y": -0.1446025758,
				"z": 1.3361083407,
				"element": "C" 
			},
			{
				"x": -2.6992607507,
				"y": -0.9097644087,
				"z": 1.9757720677,
				"element": "C" 
			},
			{
				"x": -3.4612490995,
				"y": -0.288782554,
				"z": 2.9808497589,
				"element": "C" 
			},
			{
				"x": -3.252996848,
				"y": 1.0515115812,
				"z": 3.318852332,
				"element": "C" 
			},
			{
				"x": -2.2762966623,
				"y": 1.8278702253,
				"z": 2.6685094668,
				"element": "C" 
			},
			{
				"x": -1.5523096692,
				"y": 1.1825337887,
				"z": 1.6909963343,
				"element": "C" 
			},
			{
				"x": 1.0691675589,
				"y": 1.0675380438,
				"z": -0.9452806409,
				"element": "C" 
			},
			{
				"x": 1.4883199502,
				"y": 0.0109822307,
				"z": -1.786576949,
				"element": "C" 
			},
			{
				"x": 2.5069086422,
				"y": 0.2082192423,
				"z": -2.712479209,
				"element": "C" 
			},
			{
				"x": 3.1323487277,
				"y": 1.4523827187,
				"z": -2.8266877751,
				"element": "C" 
			},
			{
				"x": 2.726833857,
				"y": 2.5024708676,
				"z": -2.001505062,
				"element": "C" 
			},
			{
				"x": 1.7085800504,
				"y": 2.3225592019,
				"z": -1.0688908491,
				"element": "C" 
			},
			{
				"x": -2.8515772653,
				"y": -1.9494030684,
				"z": 1.7044723205,
				"element": "H" 
			},
			{
				"x": -4.2237365828,
				"y": -0.8577960976,
				"z": 3.5035998352,
				"element": "H" 
			},
			{
				"x": -3.8564470523,
				"y": 1.5048827176,
				"z": 4.0992650854,
				"element": "H" 
			},
			{
				"x": -2.0915972721,
				"y": 2.8682152761,
				"z": 2.9080911595,
				"element": "H" 
			},
			{
				"x": 1.0077409132,
				"y": -0.9549917174,
				"z": -1.7027883359,
				"element": "H" 
			},
			{
				"x": 2.8140509064,
				"y": -0.6163466732,
				"z": -3.349402953,
				"element": "H" 
			},
			{
				"x": 3.9275257741,
				"y": 1.6009368597,
				"z": -3.5517265458,
				"element": "H" 
			},
			{
				"x": 3.206272488,
				"y": 3.4739302078,
				"z": -2.0818193453,
				"element": "H" 
			},
			{
				"x": 1.3985786206,
				"y": 3.1389702692,
				"z": -0.432538548,
				"element": "H" 
			}
		],
		 "valence_orbital": [ 
			{
				"type": "occ",
				"energy": -0.28067,
				"method": "rhf"
			},
			{
				"type": "occ",
				"energy": -0.27922,
				"method": "rhf"
			},
			{
				"type": "occ",
				"energy": -0.26289,
				"method": "rhf"
			},
			{
				"type": "occ",
				"energy": -0.25003,
				"method": "rhf"
			},
			{
				"type": "occ",
				"energy": -0.21605,
				"method": "rhf"
			},
			{
				"type": "unocc",
				"energy": -0.10982,
				"method": "rhf"
			},
			{
				"type": "unocc",
				"energy": -0.04942,
				"method": "rhf"
			},
			{
				"type": "unocc",
				"energy": -0.00907,
				"method": "rhf"
			},
			{
				"type": "unocc",
				"energy": 0.00101,
				"method": "rhf"
			},
			{
				"type": "unocc",
				"energy": 0.01288,
				"method": "rhf"
			}
		],
		"cosmo_sigma_profile": { 
			"-0.025": 0.0,
			"-0.024": 0.0,
			"-0.023": 0.0,
			"-0.022": 0.0,
			"-0.021": 0.0,
			"-0.02": 0.0,
			"-0.019": 0.0,
			"-0.018": 0.0,
			"-0.017": 0.0,
			"-0.016": 0.0,
			"-0.015": 0.0,
			"-0.014": 0.0,
			"-0.013": 0.0,
			"-0.012": 0.0,
			"-0.011": 0.0,
			"-0.01": 0.0,
			"-0.009": 0.0191220310543,
			"-0.008": 2.42992898958,
			"-0.007": 9.56953033304,
			"-0.006": 15.65516789,
			"-0.005": 17.3964171301,
			"-0.004": 17.902762585,
			"-0.003": 17.2816836392,
			"-0.002": 15.6827230363,
			"-0.001": 18.7623739311,
			"0.0": 21.5612352261,
			"0.001": 22.3221844301,
			"0.002": 23.9844119789,
			"0.003": 15.9116152277,
			"0.004": 14.8902114388,
			"0.005": 10.4840010553,
			"0.006": 3.07959115765,
			"0.007": 3.52283411888,
			"0.008": 3.34765402486,
			"0.009": 5.72590344466,
			"0.01": 6.84234943882,
			"0.011": 1.93106710241,
			"0.012": 0.0805702686374,
			"0.013": 0.0,
			"0.014": 0.0,
			"0.015": 0.0,
			"0.016": 0.0,
			"0.017": 0.0,
			"0.018": 0.0,
			"0.019": 0.0,
			"0.02": 0.0,
			"0.021": 0.0,
			"0.022": 0.0,
			"0.023": 0.0,
			"0.024": 0.0,
			"0.025": 0.0
		}
	}
}
