{
	 "smiles": "OC(=O)C(=CC1=CC=C(C=C1)[N+]([O-])=O)C1=CC=CC=C1C(O)=O", 
	 "Tm": 496.15, 
	 "num_atms": 34, 
	 "gaussian": { 
		 "optdone": 1, 
		 "sigma_profile": "yes", 
		 "theory": "DFT", 
		 "functional": "B3LYP", 
		 "basiset": "6-31G**", 
		 "properties": { 
			 "R2extent": 8964.0033, 
			 "electric_dipole_moment_norm": 6.51160410191, 
			 "electric_quadrupole_moment_norm": 16.8371878789, 
			 "total_energy": -1122.33767708, 
			 "HOMO_LUMO_gap": 0.15217, 
			 "cosmo_polarized_energy": -22.66, 
			 "cosmo_cavitation_energy": 40.51, 
			 "cosmo_dispersion_energy": -27.45, 
			 "cosmo_repulsion_energy": 2.09, 
			 "cosmo_total_nonelectrostatic_energy": 15.15, 
			 "SMD_solvation_energy": 11.34 
		},
		"coords": [
			{
				"x": 2.6714357071,
				"y": -0.3746295986,
				"z": -4.0359122736,
				"element": "O" 
			},
			{
				"x": 1.3107732985,
				"y": -0.4342602125,
				"z": -3.8653245494,
				"element": "C" 
			},
			{
				"x": 0.5579575907,
				"y": -0.3865113492,
				"z": -4.8128832685,
				"element": "O" 
			},
			{
				"x": 0.9314311818,
				"y": -0.5745712336,
				"z": -2.4285437363,
				"element": "C" 
			},
			{
				"x": -0.3765891922,
				"y": -0.8514566889,
				"z": -2.2116546308,
				"element": "C" 
			},
			{
				"x": -1.1229598848,
				"y": -1.0523318271,
				"z": -0.9671787667,
				"element": "C" 
			},
			{
				"x": -0.5411005399,
				"y": -1.395552571,
				"z": 0.2710858748,
				"element": "C" 
			},
			{
				"x": -1.3308223882,
				"y": -1.5718694645,
				"z": 1.4008129098,
				"element": "C" 
			},
			{
				"x": -2.7102600082,
				"y": -1.3996213249,
				"z": 1.2967847509,
				"element": "C" 
			},
			{
				"x": -3.3246435613,
				"y": -1.0767900618,
				"z": 0.0889835255,
				"element": "C" 
			},
			{
				"x": -2.5258140468,
				"y": -0.9169896749,
				"z": -1.0360360584,
				"element": "C" 
			},
			{
				"x": -3.545475015,
				"y": -1.5753070252,
				"z": 2.4967811678,
				"element": "N" 
			},
			{
				"x": -2.9758603147,
				"y": -1.8524393868,
				"z": 3.5510963833,
				"element": "O" 
			},
			{
				"x": -4.7607701019,
				"y": -1.430902247,
				"z": 2.3696179678,
				"element": "O" 
			},
			{
				"x": 1.9469789166,
				"y": -0.2792623418,
				"z": -1.3663837391,
				"element": "C" 
			},
			{
				"x": 1.9273087147,
				"y": 1.0033601709,
				"z": -0.7959504696,
				"element": "C" 
			},
			{
				"x": 2.8004938867,
				"y": 1.3507863922,
				"z": 0.2332594838,
				"element": "C" 
			},
			{
				"x": 3.69822674,
				"y": 0.4062025088,
				"z": 0.7328433655,
				"element": "C" 
			},
			{
				"x": 3.718207606,
				"y": -0.8761263699,
				"z": 0.191495877,
				"element": "C" 
			},
			{
				"x": 2.8732516586,
				"y": -1.2226207491,
				"z": -0.8719330687,
				"element": "C" 
			},
			{
				"x": 2.9591622462,
				"y": -2.6480472799,
				"z": -1.3553731001,
				"element": "C" 
			},
			{
				"x": 3.0298730005,
				"y": -2.836222118,
				"z": -2.6894802372,
				"element": "O" 
			},
			{
				"x": 2.9861440532,
				"y": -3.5853454654,
				"z": -0.5914934321,
				"element": "O" 
			},
			{
				"x": 2.8189579017,
				"y": -0.2961125632,
				"z": -4.9940642749,
				"element": "H" 
			},
			{
				"x": -0.9799666419,
				"y": -0.9149887192,
				"z": -3.1154821265,
				"element": "H" 
			},
			{
				"x": 0.5261997086,
				"y": -1.5537355645,
				"z": 0.3488415076,
				"element": "H" 
			},
			{
				"x": -0.898931374,
				"y": -1.8447507666,
				"z": 2.3553567386,
				"element": "H" 
			},
			{
				"x": -4.4006243937,
				"y": -0.9643295193,
				"z": 0.0488259915,
				"element": "H" 
			},
			{
				"x": -2.9889726188,
				"y": -0.6739483164,
				"z": -1.9877494774,
				"element": "H" 
			},
			{
				"x": 1.2075766051,
				"y": 1.7286976204,
				"z": -1.1633199637,
				"element": "H" 
			},
			{
				"x": 2.76863274,
				"y": 2.3524315586,
				"z": 0.651407958,
				"element": "H" 
			},
			{
				"x": 4.3714886133,
				"y": 0.6635024814,
				"z": 1.544731627,
				"element": "H" 
			},
			{
				"x": 4.3877552805,
				"y": -1.6337631651,
				"z": 0.5852147923,
				"element": "H" 
			},
			{
				"x": 3.1408346313,
				"y": -1.9851951278,
				"z": -3.151776748,
				"element": "H" 
			}
		],
		 "valence_orbital": [ 
			{
				"type": "occ",
				"energy": -0.28917,
				"method": "rhf"
			},
			{
				"type": "occ",
				"energy": -0.28687,
				"method": "rhf"
			},
			{
				"type": "occ",
				"energy": -0.27605,
				"method": "rhf"
			},
			{
				"type": "occ",
				"energy": -0.26502,
				"method": "rhf"
			},
			{
				"type": "occ",
				"energy": -0.26431,
				"method": "rhf"
			},
			{
				"type": "unocc",
				"energy": -0.11214,
				"method": "rhf"
			},
			{
				"type": "unocc",
				"energy": -0.06698,
				"method": "rhf"
			},
			{
				"type": "unocc",
				"energy": -0.05065,
				"method": "rhf"
			},
			{
				"type": "unocc",
				"energy": -0.03445,
				"method": "rhf"
			},
			{
				"type": "unocc",
				"energy": -0.03148,
				"method": "rhf"
			}
		],
		"cosmo_sigma_profile": { 
			"-0.025": 0.0,
			"-0.024": 0.0,
			"-0.023": 0.0,
			"-0.022": 0.0,
			"-0.021": 0.0,
			"-0.02": 0.133139100218,
			"-0.019": 0.713531485132,
			"-0.018": 1.11540480389,
			"-0.017": 1.3204250141,
			"-0.016": 0.443699416717,
			"-0.015": 0.569003243674,
			"-0.014": 1.07536705716,
			"-0.013": 0.877056722542,
			"-0.012": 0.867908495507,
			"-0.011": 0.803756482293,
			"-0.01": 1.64749238377,
			"-0.009": 4.29167524605,
			"-0.008": 6.98399579343,
			"-0.007": 14.3441597288,
			"-0.006": 19.9570051361,
			"-0.005": 21.4879158075,
			"-0.004": 19.3330333221,
			"-0.003": 18.5660956052,
			"-0.002": 22.2780917395,
			"-0.001": 26.2731720081,
			"0.0": 25.869729706,
			"0.001": 23.73130505,
			"0.002": 16.2115400473,
			"0.003": 14.4699972895,
			"0.004": 8.49242353725,
			"0.005": 6.85766869028,
			"0.006": 8.57489506505,
			"0.007": 13.4477390251,
			"0.008": 10.1444057942,
			"0.009": 9.39920100421,
			"0.01": 10.321818018,
			"0.011": 9.06014750597,
			"0.012": 4.55588331472,
			"0.013": 1.69516084862,
			"0.014": 0.0552931501013,
			"0.015": 0.0,
			"0.016": 0.0,
			"0.017": 0.0,
			"0.018": 0.0,
			"0.019": 0.0,
			"0.02": 0.0,
			"0.021": 0.0,
			"0.022": 0.0,
			"0.023": 0.0,
			"0.024": 0.0,
			"0.025": 0.0
		}
	}
}
