{
	 "smiles": "CSC(S)=NC1=C(C)C=CC=C1", 
	 "Tm": 425.15, 
	 "num_atms": 23, 
	 "gaussian": { 
		 "optdone": 1, 
		 "sigma_profile": "yes", 
		 "theory": "DFT", 
		 "functional": "B3LYP", 
		 "basiset": "6-31G**", 
		 "properties": { 
			 "R2extent": 4017.295, 
			 "electric_dipole_moment_norm": 1.8025265213, 
			 "electric_quadrupole_moment_norm": 8.17809752021, 
			 "total_energy": -1200.70388097, 
			 "HOMO_LUMO_gap": 0.18046, 
			 "cosmo_polarized_energy": -6.73, 
			 "cosmo_cavitation_energy": 29.56, 
			 "cosmo_dispersion_energy": -21.46, 
			 "cosmo_repulsion_energy": 1.64, 
			 "cosmo_total_nonelectrostatic_energy": 9.74, 
			 "SMD_solvation_energy": 3.95 
		},
		"coords": [
			{
				"x": -1.0762787507,
				"y": -1.0086679275,
				"z": -3.3605356517,
				"element": "C" 
			},
			{
				"x": -0.2595020328,
				"y": -2.6371276118,
				"z": -3.176131695,
				"element": "S" 
			},
			{
				"x": 1.0700026254,
				"y": -2.2991325362,
				"z": -1.9991592277,
				"element": "C" 
			},
			{
				"x": 2.4711132074,
				"y": -3.3278802244,
				"z": -2.437390062,
				"element": "S" 
			},
			{
				"x": 1.1381279027,
				"y": -1.5098390887,
				"z": -1.0109822842,
				"element": "N" 
			},
			{
				"x": 0.085853059,
				"y": -0.8057452368,
				"z": -0.4008885855,
				"element": "C" 
			},
			{
				"x": 0.2728511491,
				"y": 0.5672599209,
				"z": -0.1237457627,
				"element": "C" 
			},
			{
				"x": 1.5259994312,
				"y": 1.2697251532,
				"z": -0.5796381789,
				"element": "C" 
			},
			{
				"x": -0.7362825306,
				"y": 1.2458191918,
				"z": 0.5660337382,
				"element": "C" 
			},
			{
				"x": -1.895378683,
				"y": 0.5967225701,
				"z": 0.9960242268,
				"element": "C" 
			},
			{
				"x": -2.0581003894,
				"y": -0.764851324,
				"z": 0.7377301978,
				"element": "C" 
			},
			{
				"x": -1.0726611569,
				"y": -1.4643248722,
				"z": 0.0427241237,
				"element": "C" 
			},
			{
				"x": -1.6766059844,
				"y": -1.0926795682,
				"z": -4.269104784,
				"element": "H" 
			},
			{
				"x": -0.3310532677,
				"y": -0.2238837073,
				"z": -3.497955845,
				"element": "H" 
			},
			{
				"x": -1.7168100472,
				"y": -0.7783331297,
				"z": -2.5101201574,
				"element": "H" 
			},
			{
				"x": 3.1006560078,
				"y": -3.1729498658,
				"z": -1.2543869021,
				"element": "H" 
			},
			{
				"x": 1.6047652637,
				"y": 2.2642359945,
				"z": -0.1323315858,
				"element": "H" 
			},
			{
				"x": 1.5493529081,
				"y": 1.3906911162,
				"z": -1.6699520558,
				"element": "H" 
			},
			{
				"x": 2.4155701858,
				"y": 0.6893782453,
				"z": -0.3141601202,
				"element": "H" 
			},
			{
				"x": -0.6033862153,
				"y": 2.3042327191,
				"z": 0.7765489522,
				"element": "H" 
			},
			{
				"x": -2.6582104171,
				"y": 1.1479647758,
				"z": 1.5377668698,
				"element": "H" 
			},
			{
				"x": -2.9471326707,
				"y": -1.2867302187,
				"z": 1.0802598329,
				"element": "H" 
			},
			{
				"x": -1.1823895944,
				"y": -2.5267843755,
				"z": -0.1502050435,
				"element": "H" 
			}
		],
		 "valence_orbital": [ 
			{
				"type": "occ",
				"energy": -0.29068,
				"method": "rhf"
			},
			{
				"type": "occ",
				"energy": -0.25865,
				"method": "rhf"
			},
			{
				"type": "occ",
				"energy": -0.248,
				"method": "rhf"
			},
			{
				"type": "occ",
				"energy": -0.24413,
				"method": "rhf"
			},
			{
				"type": "occ",
				"energy": -0.21578,
				"method": "rhf"
			},
			{
				"type": "unocc",
				"energy": -0.03532,
				"method": "rhf"
			},
			{
				"type": "unocc",
				"energy": 0.00024,
				"method": "rhf"
			},
			{
				"type": "unocc",
				"energy": 0.00319,
				"method": "rhf"
			},
			{
				"type": "unocc",
				"energy": 0.01979,
				"method": "rhf"
			},
			{
				"type": "unocc",
				"energy": 0.04407,
				"method": "rhf"
			}
		],
		"cosmo_sigma_profile": { 
			"-0.025": 0.0,
			"-0.024": 0.0,
			"-0.023": 0.0,
			"-0.022": 0.0,
			"-0.021": 0.0,
			"-0.02": 0.0,
			"-0.019": 0.0,
			"-0.018": 0.0,
			"-0.017": 0.0,
			"-0.016": 0.0,
			"-0.015": 0.0,
			"-0.014": 0.0,
			"-0.013": 0.0,
			"-0.012": 0.0,
			"-0.011": 0.859158061313,
			"-0.01": 1.71309552215,
			"-0.009": 1.42329728105,
			"-0.008": 1.62330751236,
			"-0.007": 3.12354553476,
			"-0.006": 6.67415624276,
			"-0.005": 13.2228134279,
			"-0.004": 19.0400122854,
			"-0.003": 23.2955359901,
			"-0.002": 19.8594600776,
			"-0.001": 19.957118074,
			"0.0": 20.6052753403,
			"0.001": 19.3387880048,
			"0.002": 17.4669067238,
			"0.003": 18.2035437161,
			"0.004": 18.236341737,
			"0.005": 15.5492846583,
			"0.006": 11.7555308527,
			"0.007": 5.22701732384,
			"0.008": 0.869532816306,
			"0.009": 0.832016022509,
			"0.01": 0.297410297014,
			"0.011": 0.0,
			"0.012": 0.0,
			"0.013": 0.0,
			"0.014": 0.0,
			"0.015": 0.0,
			"0.016": 0.0,
			"0.017": 0.0,
			"0.018": 0.0,
			"0.019": 0.0,
			"0.02": 0.0,
			"0.021": 0.0,
			"0.022": 0.0,
			"0.023": 0.0,
			"0.024": 0.0,
			"0.025": 0.0
		}
	}
}
