{
	 "smiles": "CC(NC(=O)C1=C(NC(=O)CCl)C=CC=C1)C1=CC=CC=C1", 
	 "Tm": 392.15, 
	 "num_atms": 39, 
	 "gaussian": { 
		 "optdone": 1, 
		 "sigma_profile": "yes", 
		 "theory": "DFT", 
		 "functional": "B3LYP", 
		 "basiset": "6-31G**", 
		 "properties": { 
			 "R2extent": 9244.9117, 
			 "electric_dipole_moment_norm": 2.72561109111, 
			 "electric_quadrupole_moment_norm": 22.2272887854, 
			 "total_energy": -1378.2277418, 
			 "HOMO_LUMO_gap": 0.18967, 
			 "cosmo_polarized_energy": -19.19, 
			 "cosmo_cavitation_energy": 44.08, 
			 "cosmo_dispersion_energy": -30.23, 
			 "cosmo_repulsion_energy": 2.34, 
			 "cosmo_total_nonelectrostatic_energy": 16.19, 
			 "SMD_solvation_energy": 8.24 
		},
		"coords": [
			{
				"x": 0.8718836796,
				"y": -2.7952876399,
				"z": -1.2007382923,
				"element": "C" 
			},
			{
				"x": 0.465330617,
				"y": -2.121007391,
				"z": 0.1175851545,
				"element": "C" 
			},
			{
				"x": 0.1628852194,
				"y": -0.6808502395,
				"z": -0.0580134913,
				"element": "N" 
			},
			{
				"x": 0.9747358885,
				"y": 0.2455020518,
				"z": -0.65276187,
				"element": "C" 
			},
			{
				"x": 2.0421314403,
				"y": -0.0387357463,
				"z": -1.1930788201,
				"element": "O" 
			},
			{
				"x": 0.5130064042,
				"y": 1.6910036631,
				"z": -0.6211078097,
				"element": "C" 
			},
			{
				"x": -0.8210225263,
				"y": 2.1572466783,
				"z": -0.538393598,
				"element": "C" 
			},
			{
				"x": -1.9050541165,
				"y": 1.238328943,
				"z": -0.5034452059,
				"element": "N" 
			},
			{
				"x": -3.0857066887,
				"y": 1.229518809,
				"z": 0.2143753535,
				"element": "C" 
			},
			{
				"x": -3.9161790023,
				"y": 0.3549508354,
				"z": 0.0296188184,
				"element": "O" 
			},
			{
				"x": -3.2860199451,
				"y": 2.2826729704,
				"z": 1.3019115948,
				"element": "C" 
			},
			{
				"x": -4.4501351603,
				"y": 3.5619165748,
				"z": 0.76141204,
				"element": "Cl" 
			},
			{
				"x": -1.0760546515,
				"y": 3.535924926,
				"z": -0.5685886605,
				"element": "C" 
			},
			{
				"x": -0.0282539246,
				"y": 4.4518434122,
				"z": -0.6254182227,
				"element": "C" 
			},
			{
				"x": 1.289874722,
				"y": 4.0025453658,
				"z": -0.7064906586,
				"element": "C" 
			},
			{
				"x": 1.5445756041,
				"y": 2.6353221095,
				"z": -0.7254285368,
				"element": "C" 
			},
			{
				"x": 1.4343520868,
				"y": -2.3922664692,
				"z": 1.2658814498,
				"element": "C" 
			},
			{
				"x": 2.7827510886,
				"y": -2.0052197193,
				"z": 1.2070543781,
				"element": "C" 
			},
			{
				"x": 3.6404188192,
				"y": -2.2781731867,
				"z": 2.2724699264,
				"element": "C" 
			},
			{
				"x": 3.1719644966,
				"y": -2.9444532601,
				"z": 3.4079294469,
				"element": "C" 
			},
			{
				"x": 1.8349856293,
				"y": -3.3354234896,
				"z": 3.4740283301,
				"element": "C" 
			},
			{
				"x": 0.9750143863,
				"y": -3.0578350842,
				"z": 2.4091058624,
				"element": "C" 
			},
			{
				"x": 0.115331652,
				"y": -2.6085305909,
				"z": -1.9694809635,
				"element": "H" 
			},
			{
				"x": 1.8296454151,
				"y": -2.4248252789,
				"z": -1.5632649789,
				"element": "H" 
			},
			{
				"x": 0.943003155,
				"y": -3.8749871215,
				"z": -1.0406253062,
				"element": "H" 
			},
			{
				"x": -0.4990985846,
				"y": -2.5504131183,
				"z": 0.4118166547,
				"element": "H" 
			},
			{
				"x": -0.5586128324,
				"y": -0.3180778535,
				"z": 0.5479481097,
				"element": "H" 
			},
			{
				"x": -1.8322033811,
				"y": 0.4248859639,
				"z": -1.1052246163,
				"element": "H" 
			},
			{
				"x": -3.7508408073,
				"y": 1.7841397595,
				"z": 2.1513964563,
				"element": "H" 
			},
			{
				"x": -2.3687897922,
				"y": 2.7861645429,
				"z": 1.6030954882,
				"element": "H" 
			},
			{
				"x": -2.1019397177,
				"y": 3.8864576278,
				"z": -0.5799260019,
				"element": "H" 
			},
			{
				"x": -0.2503577766,
				"y": 5.5147325272,
				"z": -0.6371263894,
				"element": "H" 
			},
			{
				"x": 2.110445498,
				"y": 4.7101419868,
				"z": -0.7707733834,
				"element": "H" 
			},
			{
				"x": 2.5555089551,
				"y": 2.255644148,
				"z": -0.8215875353,
				"element": "H" 
			},
			{
				"x": 3.1475390525,
				"y": -1.4801569221,
				"z": 0.3309714865,
				"element": "H" 
			},
			{
				"x": 4.6811510788,
				"y": -1.9713230494,
				"z": 2.2145430191,
				"element": "H" 
			},
			{
				"x": 3.8452018451,
				"y": -3.1574143614,
				"z": 4.2334718185,
				"element": "H" 
			},
			{
				"x": 1.4593401195,
				"y": -3.855131545,
				"z": 4.3510300784,
				"element": "H" 
			},
			{
				"x": -0.0665079457,
				"y": -3.3674308288,
				"z": 2.4668288749,
				"element": "H" 
			}
		],
		 "valence_orbital": [ 
			{
				"type": "occ",
				"energy": -0.26844,
				"method": "rhf"
			},
			{
				"type": "occ",
				"energy": -0.25659,
				"method": "rhf"
			},
			{
				"type": "occ",
				"energy": -0.25064,
				"method": "rhf"
			},
			{
				"type": "occ",
				"energy": -0.24884,
				"method": "rhf"
			},
			{
				"type": "occ",
				"energy": -0.24298,
				"method": "rhf"
			},
			{
				"type": "unocc",
				"energy": -0.05331,
				"method": "rhf"
			},
			{
				"type": "unocc",
				"energy": -0.03671,
				"method": "rhf"
			},
			{
				"type": "unocc",
				"energy": -0.01488,
				"method": "rhf"
			},
			{
				"type": "unocc",
				"energy": -0.00617,
				"method": "rhf"
			},
			{
				"type": "unocc",
				"energy": -0.00163,
				"method": "rhf"
			}
		],
		"cosmo_sigma_profile": { 
			"-0.025": 0.0,
			"-0.024": 0.0,
			"-0.023": 0.0,
			"-0.022": 0.0,
			"-0.021": 0.0,
			"-0.02": 0.0,
			"-0.019": 0.0,
			"-0.018": 0.0,
			"-0.017": 0.0,
			"-0.016": 0.0,
			"-0.015": 0.0,
			"-0.014": 0.436201784457,
			"-0.013": 1.29786572548,
			"-0.012": 1.89853332871,
			"-0.011": 2.75910548319,
			"-0.01": 2.99179636588,
			"-0.009": 4.59476202459,
			"-0.008": 7.54191027708,
			"-0.007": 9.80352235034,
			"-0.006": 16.3968126466,
			"-0.005": 23.2294670354,
			"-0.004": 23.6105253622,
			"-0.003": 24.4030577982,
			"-0.002": 24.9322673111,
			"-0.001": 25.6605082775,
			"0.0": 26.0199392984,
			"0.001": 23.9665353204,
			"0.002": 22.921391589,
			"0.003": 25.5082683452,
			"0.004": 22.9029875935,
			"0.005": 18.304126042,
			"0.006": 14.365544622,
			"0.007": 4.47584194948,
			"0.008": 2.77987016584,
			"0.009": 2.66652249834,
			"0.01": 3.26863701892,
			"0.011": 3.51651219118,
			"0.012": 6.63804764396,
			"0.013": 5.38171246178,
			"0.014": 1.23825104018,
			"0.015": 0.0,
			"0.016": 0.0,
			"0.017": 0.0,
			"0.018": 0.0,
			"0.019": 0.0,
			"0.02": 0.0,
			"0.021": 0.0,
			"0.022": 0.0,
			"0.023": 0.0,
			"0.024": 0.0,
			"0.025": 0.0
		}
	}
}
