{
	 "smiles": "O=CC(C=O)=C1NC2=C(N1)C=CC=C2", 
	 "Tm": 303.15, 
	 "num_atms": 22, 
	 "gaussian": { 
		 "optdone": 1, 
		 "sigma_profile": "yes", 
		 "theory": "DFT", 
		 "functional": "B3LYP", 
		 "basiset": "6-31G**", 
		 "properties": { 
			 "R2extent": 3238.6117, 
			 "electric_dipole_moment_norm": 6.94984056292, 
			 "electric_quadrupole_moment_norm": 16.9730917248, 
			 "total_energy": -645.842807805, 
			 "HOMO_LUMO_gap": 0.16619, 
			 "cosmo_polarized_energy": -19.48, 
			 "cosmo_cavitation_energy": 26.78, 
			 "cosmo_dispersion_energy": -20.04, 
			 "cosmo_repulsion_energy": 1.55, 
			 "cosmo_total_nonelectrostatic_energy": 8.28, 
			 "SMD_solvation_energy": 5.81 
		},
		"coords": [
			{
				"x": -0.6929609545,
				"y": -2.8031996946,
				"z": -1.915387841,
				"element": "O" 
			},
			{
				"x": 0.2238223461,
				"y": -3.2307719053,
				"z": -1.1916336749,
				"element": "C" 
			},
			{
				"x": 0.9675328384,
				"y": -2.4533058588,
				"z": -0.2323398623,
				"element": "C" 
			},
			{
				"x": 2.0151837262,
				"y": -3.0767228067,
				"z": 0.5488043744,
				"element": "C" 
			},
			{
				"x": 2.3565514252,
				"y": -4.2500757132,
				"z": 0.482739579,
				"element": "O" 
			},
			{
				"x": 0.6423835486,
				"y": -1.0891087866,
				"z": -0.0872960946,
				"element": "C" 
			},
			{
				"x": -0.3317827135,
				"y": -0.4696922281,
				"z": -0.8026383147,
				"element": "N" 
			},
			{
				"x": -0.4225863428,
				"y": 0.8683250929,
				"z": -0.4439190864,
				"element": "C" 
			},
			{
				"x": 0.5530718539,
				"y": 1.0829175113,
				"z": 0.5496277055,
				"element": "C" 
			},
			{
				"x": 1.1881680464,
				"y": -0.1448407922,
				"z": 0.7421689129,
				"element": "N" 
			},
			{
				"x": 0.735995954,
				"y": 2.3301969387,
				"z": 1.1364872331,
				"element": "C" 
			},
			{
				"x": -0.0928098451,
				"y": 3.3665378911,
				"z": 0.6970499936,
				"element": "C" 
			},
			{
				"x": -1.0648663251,
				"y": 3.1555515009,
				"z": -0.2919075411,
				"element": "C" 
			},
			{
				"x": -1.2469966217,
				"y": 1.9014891561,
				"z": -0.8803989028,
				"element": "C" 
			},
			{
				"x": 0.5289434008,
				"y": -4.2880186674,
				"z": -1.2535553622,
				"element": "H" 
			},
			{
				"x": 2.5410144412,
				"y": -2.3979998917,
				"z": 1.2682826332,
				"element": "H" 
			},
			{
				"x": -0.8422168106,
				"y": -1.0559609356,
				"z": -1.4785658936,
				"element": "H" 
			},
			{
				"x": 1.9373611091,
				"y": -0.3291610517,
				"z": 1.3896108419,
				"element": "H" 
			},
			{
				"x": 1.4879163694,
				"y": 2.4942649745,
				"z": 1.9015737134,
				"element": "H" 
			},
			{
				"x": 0.0203094612,
				"y": 4.3543707987,
				"z": 1.1318821206,
				"element": "H" 
			},
			{
				"x": -1.6905260797,
				"y": 3.9839364079,
				"z": -0.6083234381,
				"element": "H" 
			},
			{
				"x": -1.9984088275,
				"y": 1.7374680599,
				"z": -1.6452610958,
				"element": "H" 
			}
		],
		 "valence_orbital": [ 
			{
				"type": "occ",
				"energy": -0.28005,
				"method": "rhf"
			},
			{
				"type": "occ",
				"energy": -0.26176,
				"method": "rhf"
			},
			{
				"type": "occ",
				"energy": -0.26047,
				"method": "rhf"
			},
			{
				"type": "occ",
				"energy": -0.23107,
				"method": "rhf"
			},
			{
				"type": "occ",
				"energy": -0.21283,
				"method": "rhf"
			},
			{
				"type": "unocc",
				"energy": -0.04664,
				"method": "rhf"
			},
			{
				"type": "unocc",
				"energy": -0.01798,
				"method": "rhf"
			},
			{
				"type": "unocc",
				"energy": -0.00846,
				"method": "rhf"
			},
			{
				"type": "unocc",
				"energy": 0.00122,
				"method": "rhf"
			},
			{
				"type": "unocc",
				"energy": 0.0463,
				"method": "rhf"
			}
		],
		"cosmo_sigma_profile": { 
			"-0.025": 0.0,
			"-0.024": 0.0,
			"-0.023": 0.0,
			"-0.022": 0.0,
			"-0.021": 0.0,
			"-0.02": 0.0,
			"-0.019": 0.0,
			"-0.018": 0.212394452234,
			"-0.017": 1.33858599191,
			"-0.016": 1.37426718266,
			"-0.015": 1.91555522337,
			"-0.014": 1.08279325578,
			"-0.013": 1.73145509735,
			"-0.012": 1.64240246883,
			"-0.011": 1.983179031,
			"-0.01": 2.86612731464,
			"-0.009": 2.63571009904,
			"-0.008": 3.55284491244,
			"-0.007": 7.56756411231,
			"-0.006": 9.70294186495,
			"-0.005": 11.8805066194,
			"-0.004": 11.3843589984,
			"-0.003": 11.2615405749,
			"-0.002": 15.2385890602,
			"-0.001": 18.113853094,
			"0.0": 15.9051429474,
			"0.001": 14.9575390995,
			"0.002": 13.8311601492,
			"0.003": 11.7699490202,
			"0.004": 11.3939172479,
			"0.005": 7.8570407726,
			"0.006": 3.37606410138,
			"0.007": 2.52208816163,
			"0.008": 2.1062505088,
			"0.009": 2.8388392256,
			"0.01": 3.66979029414,
			"0.011": 3.82956472438,
			"0.012": 4.86586830899,
			"0.013": 6.71589234194,
			"0.014": 3.97376324531,
			"0.015": 0.638558634736,
			"0.016": 0.0,
			"0.017": 0.0,
			"0.018": 0.0,
			"0.019": 0.0,
			"0.02": 0.0,
			"0.021": 0.0,
			"0.022": 0.0,
			"0.023": 0.0,
			"0.024": 0.0,
			"0.025": 0.0
		}
	}
}
