{
	 "smiles": "COC1=C(SC(C)=C1Br)C(O)=O", 
	 "Tm": 439.15, 
	 "num_atms": 19, 
	 "gaussian": { 
		 "optdone": 1, 
		 "sigma_profile": "yes", 
		 "theory": "DFT", 
		 "functional": "B3LYP", 
		 "basiset": "6-31G**", 
		 "properties": { 
			 "R2extent": 5169.7279, 
			 "electric_dipole_moment_norm": 4.25459972383, 
			 "electric_quadrupole_moment_norm": 13.4835110101, 
			 "total_energy": -3466.20249013, 
			 "HOMO_LUMO_gap": 0.18455, 
			 "cosmo_polarized_energy": -13.08, 
			 "cosmo_cavitation_energy": 27.1, 
			 "cosmo_dispersion_energy": -20.46, 
			 "cosmo_repulsion_energy": 1.59, 
			 "cosmo_total_nonelectrostatic_energy": 8.24, 
			 "SMD_solvation_energy": 5.41 
		},
		"coords": [
			{
				"x": -3.0883241071,
				"y": -2.8100381364,
				"z": 0.7862130734,
				"element": "C" 
			},
			{
				"x": -2.195873295,
				"y": -1.8580392325,
				"z": 0.1705082032,
				"element": "O" 
			},
			{
				"x": -1.6961927809,
				"y": -0.8857867833,
				"z": 0.9583485749,
				"element": "C" 
			},
			{
				"x": -0.7011042282,
				"y": -1.0129170285,
				"z": 1.9147190335,
				"element": "C" 
			},
			{
				"x": -0.3187040917,
				"y": 0.552740035,
				"z": 2.611224719,
				"element": "S" 
			},
			{
				"x": -1.4639241197,
				"y": 1.3818719835,
				"z": 1.5980320118,
				"element": "C" 
			},
			{
				"x": -1.6682465943,
				"y": 2.861515111,
				"z": 1.6982964879,
				"element": "C" 
			},
			{
				"x": -2.107406352,
				"y": 0.4795393209,
				"z": 0.7948826318,
				"element": "C" 
			},
			{
				"x": -3.4502004261,
				"y": 0.9748260949,
				"z": -0.4418454985,
				"element": "Br" 
			},
			{
				"x": 0.032488955,
				"y": -2.2356814906,
				"z": 2.2957737775,
				"element": "C" 
			},
			{
				"x": 1.2454916984,
				"y": -2.0507519847,
				"z": 2.8889965091,
				"element": "O" 
			},
			{
				"x": -0.3813246148,
				"y": -3.3601882359,
				"z": 2.1229077521,
				"element": "O" 
			},
			{
				"x": -2.5689199539,
				"y": -3.3677573065,
				"z": 1.5661524367,
				"element": "H" 
			},
			{
				"x": -3.9697638195,
				"y": -2.2968579149,
				"z": 1.1864990211,
				"element": "H" 
			},
			{
				"x": -3.3923030477,
				"y": -3.4816663389,
				"z": -0.0173771121,
				"element": "H" 
			},
			{
				"x": -1.045646682,
				"y": 3.3007899677,
				"z": 2.4812059963,
				"element": "H" 
			},
			{
				"x": -1.4193288401,
				"y": 3.3475735178,
				"z": 0.7486991386,
				"element": "H" 
			},
			{
				"x": -2.7155600682,
				"y": 3.0922232781,
				"z": 1.919096446,
				"element": "H" 
			},
			{
				"x": 1.5561423679,
				"y": -1.1409948567,
				"z": 2.7710667978,
				"element": "H" 
			}
		],
		 "valence_orbital": [ 
			{
				"type": "occ",
				"energy": -0.29911,
				"method": "rhf"
			},
			{
				"type": "occ",
				"energy": -0.29222,
				"method": "rhf"
			},
			{
				"type": "occ",
				"energy": -0.27989,
				"method": "rhf"
			},
			{
				"type": "occ",
				"energy": -0.25329,
				"method": "rhf"
			},
			{
				"type": "occ",
				"energy": -0.24737,
				"method": "rhf"
			},
			{
				"type": "unocc",
				"energy": -0.06282,
				"method": "rhf"
			},
			{
				"type": "unocc",
				"energy": -0.02059,
				"method": "rhf"
			},
			{
				"type": "unocc",
				"energy": 0.00524,
				"method": "rhf"
			},
			{
				"type": "unocc",
				"energy": 0.01764,
				"method": "rhf"
			},
			{
				"type": "unocc",
				"energy": 0.05742,
				"method": "rhf"
			}
		],
		"cosmo_sigma_profile": { 
			"-0.025": 0.0,
			"-0.024": 0.0,
			"-0.023": 0.0,
			"-0.022": 0.0,
			"-0.021": 0.0,
			"-0.02": 0.0,
			"-0.019": 0.0,
			"-0.018": 0.230557573607,
			"-0.017": 0.943892414141,
			"-0.016": 0.541234234471,
			"-0.015": 1.09502816813,
			"-0.014": 0.803422171815,
			"-0.013": 0.58726355499,
			"-0.012": 1.30960139487,
			"-0.011": 1.30624817832,
			"-0.01": 0.617844933023,
			"-0.009": 0.676852783539,
			"-0.008": 1.35730372557,
			"-0.007": 3.57193803204,
			"-0.006": 8.48161621416,
			"-0.005": 13.2700205625,
			"-0.004": 16.1797183131,
			"-0.003": 22.4502139747,
			"-0.002": 20.7020494081,
			"-0.001": 16.6710568172,
			"0.0": 21.6898334968,
			"0.001": 15.177236625,
			"0.002": 11.8931518487,
			"0.003": 12.8312497516,
			"0.004": 10.0140154728,
			"0.005": 4.90164400903,
			"0.006": 5.40590871045,
			"0.007": 4.24208329672,
			"0.008": 4.96486625411,
			"0.009": 6.1290294864,
			"0.01": 6.29558194583,
			"0.011": 3.52752708566,
			"0.012": 2.81669121569,
			"0.013": 0.939735412774,
			"0.014": 0.0,
			"0.015": 0.0,
			"0.016": 0.0,
			"0.017": 0.0,
			"0.018": 0.0,
			"0.019": 0.0,
			"0.02": 0.0,
			"0.021": 0.0,
			"0.022": 0.0,
			"0.023": 0.0,
			"0.024": 0.0,
			"0.025": 0.0
		}
	}
}
