{
	 "smiles": "OC(=O)C1=C(N=CS1)C1CC1", 
	 "Tm": 478.15, 
	 "num_atms": 18, 
	 "gaussian": { 
		 "optdone": 1, 
		 "sigma_profile": "yes", 
		 "theory": "DFT", 
		 "functional": "B3LYP", 
		 "basiset": "6-31G**", 
		 "properties": { 
			 "R2extent": 2457.4041, 
			 "electric_dipole_moment_norm": 1.25982529741, 
			 "electric_quadrupole_moment_norm": 3.72651271701, 
			 "total_energy": -874.329311235, 
			 "HOMO_LUMO_gap": 0.17891, 
			 "cosmo_polarized_energy": -9.57, 
			 "cosmo_cavitation_energy": 23.84, 
			 "cosmo_dispersion_energy": -18.25, 
			 "cosmo_repulsion_energy": 1.43, 
			 "cosmo_total_nonelectrostatic_energy": 7.01, 
			 "SMD_solvation_energy": 4.09 
		},
		"coords": [
			{
				"x": -3.621743087,
				"y": -0.7355212626,
				"z": -1.4880683022,
				"element": "O" 
			},
			{
				"x": -2.9442648107,
				"y": -0.9395587996,
				"z": -0.3275381486,
				"element": "C" 
			},
			{
				"x": -3.4473216832,
				"y": -1.5148405226,
				"z": 0.6204927919,
				"element": "O" 
			},
			{
				"x": -1.5875006914,
				"y": -0.3930424113,
				"z": -0.3820364782,
				"element": "C" 
			},
			{
				"x": -0.6151377849,
				"y": -0.4151421687,
				"z": 0.607448204,
				"element": "C" 
			},
			{
				"x": 0.573095284,
				"y": 0.1874685258,
				"z": 0.2526325283,
				"element": "N" 
			},
			{
				"x": 0.5210853497,
				"y": 0.6554045736,
				"z": -0.9623482081,
				"element": "C" 
			},
			{
				"x": -0.9727491221,
				"y": 0.4171124908,
				"z": -1.8064082066,
				"element": "S" 
			},
			{
				"x": -0.7450895344,
				"y": -1.0056350766,
				"z": 1.9520373094,
				"element": "C" 
			},
			{
				"x": 0.4744958651,
				"y": -1.6494258938,
				"z": 2.5980814496,
				"element": "C" 
			},
			{
				"x": -0.0306206711,
				"y": -0.3439314851,
				"z": 3.1227979178,
				"element": "C" 
			},
			{
				"x": -4.5006237592,
				"y": -1.1277660479,
				"z": -1.3574398407,
				"element": "H" 
			},
			{
				"x": 1.3488540802,
				"y": 1.1679190285,
				"z": -1.4400541514,
				"element": "H" 
			},
			{
				"x": -1.7088940521,
				"y": -1.4569920859,
				"z": 2.1475992655,
				"element": "H" 
			},
			{
				"x": 0.3013862086,
				"y": -2.5526784759,
				"z": 3.1749922608,
				"element": "H" 
			},
			{
				"x": 1.3948238664,
				"y": -1.6356460641,
				"z": 2.0238858656,
				"element": "H" 
			},
			{
				"x": 0.5517967243,
				"y": 0.5437877993,
				"z": 2.8999206055,
				"element": "H" 
			},
			{
				"x": -0.5602921823,
				"y": -0.325512124,
				"z": 4.0703051375,
				"element": "H" 
			}
		],
		 "valence_orbital": [ 
			{
				"type": "occ",
				"energy": -0.3032,
				"method": "rhf"
			},
			{
				"type": "occ",
				"energy": -0.28951,
				"method": "rhf"
			},
			{
				"type": "occ",
				"energy": -0.28641,
				"method": "rhf"
			},
			{
				"type": "occ",
				"energy": -0.28023,
				"method": "rhf"
			},
			{
				"type": "occ",
				"energy": -0.24102,
				"method": "rhf"
			},
			{
				"type": "unocc",
				"energy": -0.06211,
				"method": "rhf"
			},
			{
				"type": "unocc",
				"energy": 0.00775,
				"method": "rhf"
			},
			{
				"type": "unocc",
				"energy": 0.01101,
				"method": "rhf"
			},
			{
				"type": "unocc",
				"energy": 0.0749,
				"method": "rhf"
			},
			{
				"type": "unocc",
				"energy": 0.08317,
				"method": "rhf"
			}
		],
		"cosmo_sigma_profile": { 
			"-0.025": 0.0,
			"-0.024": 0.0,
			"-0.023": 0.0,
			"-0.022": 0.0,
			"-0.021": 0.0,
			"-0.02": 0.0,
			"-0.019": 0.222857574701,
			"-0.018": 0.80901668122,
			"-0.017": 0.7392462801,
			"-0.016": 1.47567227952,
			"-0.015": 0.344214897457,
			"-0.014": 0.228522595815,
			"-0.013": 0.406726003023,
			"-0.012": 1.27757838706,
			"-0.011": 1.91852246541,
			"-0.01": 3.13759868005,
			"-0.009": 2.58431355822,
			"-0.008": 2.10485333582,
			"-0.007": 2.99151695279,
			"-0.006": 3.31162333642,
			"-0.005": 7.23042033162,
			"-0.004": 10.5689310964,
			"-0.003": 10.3741869012,
			"-0.002": 14.9254441445,
			"-0.001": 16.2376051515,
			"0.0": 19.5197374793,
			"0.001": 21.9078618978,
			"0.002": 19.9491024269,
			"0.003": 12.7752363418,
			"0.004": 7.68086750341,
			"0.005": 5.40712708014,
			"0.006": 4.4988879238,
			"0.007": 5.23123181522,
			"0.008": 2.29155232941,
			"0.009": 2.86819467928,
			"0.01": 2.79854749521,
			"0.011": 4.38384181708,
			"0.012": 2.20602342916,
			"0.013": 0.308263779934,
			"0.014": 0.011818773657,
			"0.015": 0.0,
			"0.016": 0.0,
			"0.017": 0.0,
			"0.018": 0.0,
			"0.019": 0.0,
			"0.02": 0.0,
			"0.021": 0.0,
			"0.022": 0.0,
			"0.023": 0.0,
			"0.024": 0.0,
			"0.025": 0.0
		}
	}
}
