{
	 "smiles": "CC1=C(COC2=CC(CC(O)=O)=CC=C2)C=CC=C1", 
	 "Tm": 326.15, 
	 "num_atms": 35, 
	 "gaussian": { 
		 "optdone": 1, 
		 "sigma_profile": "yes", 
		 "theory": "DFT", 
		 "functional": "B3LYP", 
		 "basiset": "6-31G**", 
		 "properties": { 
			 "R2extent": 8418.2778, 
			 "electric_dipole_moment_norm": 4.21656071343, 
			 "electric_quadrupole_moment_norm": 33.9970662645, 
			 "total_energy": -845.023741403, 
			 "HOMO_LUMO_gap": 0.20753, 
			 "cosmo_polarized_energy": -20.24, 
			 "cosmo_cavitation_energy": 39.33, 
			 "cosmo_dispersion_energy": -27.76, 
			 "cosmo_repulsion_energy": 2.15, 
			 "cosmo_total_nonelectrostatic_energy": 13.72, 
			 "SMD_solvation_energy": 7.73 
		},
		"coords": [
			{
				"x": -0.286557267,
				"y": -3.2242536865,
				"z": 0.1769569831,
				"element": "C" 
			},
			{
				"x": 0.8826578613,
				"y": -2.9818102904,
				"z": 1.1029399173,
				"element": "C" 
			},
			{
				"x": 0.9391213106,
				"y": -1.8401809674,
				"z": 1.9315317522,
				"element": "C" 
			},
			{
				"x": -0.1707024083,
				"y": -0.8194519047,
				"z": 1.9245623815,
				"element": "C" 
			},
			{
				"x": -0.1192861754,
				"y": -0.0881250548,
				"z": 0.6923091612,
				"element": "O" 
			},
			{
				"x": -1.0524878316,
				"y": 0.8874510892,
				"z": 0.4790208623,
				"element": "C" 
			},
			{
				"x": -0.9432043554,
				"y": 1.5642789539,
				"z": -0.7457730806,
				"element": "C" 
			},
			{
				"x": -1.8339990784,
				"y": 2.5800422774,
				"z": -1.0831297968,
				"element": "C" 
			},
			{
				"x": -1.707285133,
				"y": 3.2772108309,
				"z": -2.417645542,
				"element": "C" 
			},
			{
				"x": -1.4472867507,
				"y": 4.7860515199,
				"z": -2.338453685,
				"element": "C" 
			},
			{
				"x": -1.0924539667,
				"y": 5.3564423753,
				"z": -3.5241835011,
				"element": "O" 
			},
			{
				"x": -1.5667668455,
				"y": 5.468260763,
				"z": -1.3553535422,
				"element": "O" 
			},
			{
				"x": -2.8533652849,
				"y": 2.9286674534,
				"z": -0.1827279217,
				"element": "C" 
			},
			{
				"x": -2.9583364523,
				"y": 2.2583472572,
				"z": 1.0303436377,
				"element": "C" 
			},
			{
				"x": -2.0673959714,
				"y": 1.2356797781,
				"z": 1.3755640154,
				"element": "C" 
			},
			{
				"x": 2.0371074669,
				"y": -1.6505461807,
				"z": 2.7762193568,
				"element": "C" 
			},
			{
				"x": 3.0829143624,
				"y": -2.573310541,
				"z": 2.8208357125,
				"element": "C" 
			},
			{
				"x": 3.0321632424,
				"y": -3.7011022554,
				"z": 2.0044019161,
				"element": "C" 
			},
			{
				"x": 1.9406073001,
				"y": -3.8959560931,
				"z": 1.1557789473,
				"element": "C" 
			},
			{
				"x": -0.1331670724,
				"y": -4.1277726453,
				"z": -0.4187639985,
				"element": "H" 
			},
			{
				"x": -1.2227731507,
				"y": -3.352669703,
				"z": 0.7350701999,
				"element": "H" 
			},
			{
				"x": -0.4341975364,
				"y": -2.3808812302,
				"z": -0.5036797634,
				"element": "H" 
			},
			{
				"x": -1.1533231398,
				"y": -1.3033134991,
				"z": 2.0188716431,
				"element": "H" 
			},
			{
				"x": -0.0556860432,
				"y": -0.1285758959,
				"z": 2.769677562,
				"element": "H" 
			},
			{
				"x": -0.1424116594,
				"y": 1.2724473666,
				"z": -1.419098757,
				"element": "H" 
			},
			{
				"x": -0.9102812341,
				"y": 2.8117248122,
				"z": -3.0104008747,
				"element": "H" 
			},
			{
				"x": -2.631501527,
				"y": 3.155493979,
				"z": -3.0021841469,
				"element": "H" 
			},
			{
				"x": -1.0265088178,
				"y": 4.6836162096,
				"z": -4.2164578717,
				"element": "H" 
			},
			{
				"x": -3.5416749932,
				"y": 3.73038608,
				"z": -0.4266405137,
				"element": "H" 
			},
			{
				"x": -3.7439079236,
				"y": 2.5308010122,
				"z": 1.7294133043,
				"element": "H" 
			},
			{
				"x": -2.173401396,
				"y": 0.7320408523,
				"z": 2.3287021369,
				"element": "H" 
			},
			{
				"x": 2.0721117349,
				"y": -0.7651825549,
				"z": 3.4063834023,
				"element": "H" 
			},
			{
				"x": 3.9271612097,
				"y": -2.4093857789,
				"z": 3.4839259962,
				"element": "H" 
			},
			{
				"x": 3.838016973,
				"y": -4.4294373088,
				"z": 2.0247863949,
				"element": "H" 
			},
			{
				"x": 1.9062005531,
				"y": -4.7774870198,
				"z": 0.5203977125,
				"element": "H" 
			}
		],
		 "valence_orbital": [ 
			{
				"type": "occ",
				"energy": -0.2736,
				"method": "rhf"
			},
			{
				"type": "occ",
				"energy": -0.25071,
				"method": "rhf"
			},
			{
				"type": "occ",
				"energy": -0.24667,
				"method": "rhf"
			},
			{
				"type": "occ",
				"energy": -0.2418,
				"method": "rhf"
			},
			{
				"type": "occ",
				"energy": -0.21806,
				"method": "rhf"
			},
			{
				"type": "unocc",
				"energy": -0.01053,
				"method": "rhf"
			},
			{
				"type": "unocc",
				"energy": -0.0027,
				"method": "rhf"
			},
			{
				"type": "unocc",
				"energy": 0.00051,
				"method": "rhf"
			},
			{
				"type": "unocc",
				"energy": 0.00746,
				"method": "rhf"
			},
			{
				"type": "unocc",
				"energy": 0.01486,
				"method": "rhf"
			}
		],
		"cosmo_sigma_profile": { 
			"-0.025": 0.0,
			"-0.024": 0.0,
			"-0.023": 0.0,
			"-0.022": 0.0,
			"-0.021": 0.0,
			"-0.02": 0.0,
			"-0.019": 0.802141430187,
			"-0.018": 1.05215771067,
			"-0.017": 1.30241103675,
			"-0.016": 1.02996767195,
			"-0.015": 0.975935448685,
			"-0.014": 0.685453010782,
			"-0.013": 1.24958343379,
			"-0.012": 1.57463400492,
			"-0.011": 1.29537679211,
			"-0.01": 1.4903597854,
			"-0.009": 1.59862921295,
			"-0.008": 3.22993459526,
			"-0.007": 6.03311696088,
			"-0.006": 15.5971969662,
			"-0.005": 27.936201187,
			"-0.004": 26.4873612693,
			"-0.003": 23.6202891305,
			"-0.002": 18.5959592503,
			"-0.001": 18.968145116,
			"0.0": 19.2722277561,
			"0.001": 17.7889304256,
			"0.002": 15.0733173184,
			"0.003": 17.2731968273,
			"0.004": 18.1722591443,
			"0.005": 19.974399317,
			"0.006": 17.1439747402,
			"0.007": 5.28791672745,
			"0.008": 4.38070529056,
			"0.009": 4.98622906329,
			"0.01": 5.49377836863,
			"0.011": 6.35108902256,
			"0.012": 5.90879453837,
			"0.013": 1.49364325173,
			"0.014": 0.0101701079292,
			"0.015": 0.0,
			"0.016": 0.0,
			"0.017": 0.0,
			"0.018": 0.0,
			"0.019": 0.0,
			"0.02": 0.0,
			"0.021": 0.0,
			"0.022": 0.0,
			"0.023": 0.0,
			"0.024": 0.0,
			"0.025": 0.0
		}
	}
}
