{
	 "smiles": "[O-][N+](=O)C1=CC=C(S1)C#N", 
	 "Tm": 317.15, 
	 "num_atms": 12, 
	 "gaussian": { 
		 "optdone": 1, 
		 "sigma_profile": "yes", 
		 "theory": "DFT", 
		 "functional": "B3LYP", 
		 "basiset": "6-31G**", 
		 "properties": { 
			 "R2extent": 1738.3676, 
			 "electric_dipole_moment_norm": 2.54766657355, 
			 "electric_quadrupole_moment_norm": 16.539143691, 
			 "total_energy": -849.726455618, 
			 "HOMO_LUMO_gap": 0.1614, 
			 "cosmo_polarized_energy": -11.09, 
			 "cosmo_cavitation_energy": 20.68, 
			 "cosmo_dispersion_energy": -15.16, 
			 "cosmo_repulsion_energy": 1.19, 
			 "cosmo_total_nonelectrostatic_energy": 6.71, 
			 "SMD_solvation_energy": 7.3 
		},
		"coords": [
			{
				"x": -2.0238191496,
				"y": 1.1903222761,
				"z": 1.9521074465,
				"element": "O" 
			},
			{
				"x": -1.1711564006,
				"y": 1.4483746996,
				"z": 1.1051655629,
				"element": "N" 
			},
			{
				"x": -0.761029267,
				"y": 2.5728963926,
				"z": 0.8075667731,
				"element": "O" 
			},
			{
				"x": -0.5940300693,
				"y": 0.3381453476,
				"z": 0.3908806266,
				"element": "C" 
			},
			{
				"x": -0.9038884586,
				"y": -0.9876717758,
				"z": 0.5633318389,
				"element": "C" 
			},
			{
				"x": -0.147068517,
				"y": -1.8085138456,
				"z": -0.3037525759,
				"element": "C" 
			},
			{
				"x": 0.713649492,
				"y": -1.0804024195,
				"z": -1.1073576267,
				"element": "C" 
			},
			{
				"x": 0.6119238501,
				"y": 0.6380807676,
				"z": -0.8141993149,
				"element": "S" 
			},
			{
				"x": 1.6057919127,
				"y": -1.5979665517,
				"z": -2.0800094566,
				"element": "C" 
			},
			{
				"x": 2.3393152408,
				"y": -2.0204643902,
				"z": -2.8794076706,
				"element": "N" 
			},
			{
				"x": -1.6386665241,
				"y": -1.3292059262,
				"z": 1.2801168305,
				"element": "H" 
			},
			{
				"x": -0.2191221095,
				"y": -2.8879945746,
				"z": -0.3483424338,
				"element": "H" 
			}
		],
		 "valence_orbital": [ 
			{
				"type": "occ",
				"energy": -0.33282,
				"method": "rhf"
			},
			{
				"type": "occ",
				"energy": -0.33192,
				"method": "rhf"
			},
			{
				"type": "occ",
				"energy": -0.31573,
				"method": "rhf"
			},
			{
				"type": "occ",
				"energy": -0.30885,
				"method": "rhf"
			},
			{
				"type": "occ",
				"energy": -0.28843,
				"method": "rhf"
			},
			{
				"type": "unocc",
				"energy": -0.12703,
				"method": "rhf"
			},
			{
				"type": "unocc",
				"energy": -0.05744,
				"method": "rhf"
			},
			{
				"type": "unocc",
				"energy": -0.02917,
				"method": "rhf"
			},
			{
				"type": "unocc",
				"energy": -0.01028,
				"method": "rhf"
			},
			{
				"type": "unocc",
				"energy": 0.01451,
				"method": "rhf"
			}
		],
		"cosmo_sigma_profile": { 
			"-0.025": 0.0,
			"-0.024": 0.0,
			"-0.023": 0.0,
			"-0.022": 0.0,
			"-0.021": 0.0,
			"-0.02": 0.0,
			"-0.019": 0.0,
			"-0.018": 0.0,
			"-0.017": 0.0,
			"-0.016": 0.0,
			"-0.015": 0.0,
			"-0.014": 0.0,
			"-0.013": 0.0,
			"-0.012": 0.0,
			"-0.011": 0.871292570995,
			"-0.01": 3.52258345665,
			"-0.009": 4.21473091834,
			"-0.008": 5.71079605945,
			"-0.007": 6.21782656288,
			"-0.006": 8.81465149077,
			"-0.005": 7.22496429366,
			"-0.004": 11.6460046176,
			"-0.003": 16.7336226639,
			"-0.002": 16.0678761515,
			"-0.001": 14.9076564367,
			"0.0": 8.81667830503,
			"0.001": 4.09187271425,
			"0.002": 4.48653066213,
			"0.003": 4.20157057435,
			"0.004": 5.67129254841,
			"0.005": 6.48015314964,
			"0.006": 9.01440682075,
			"0.007": 12.8153075977,
			"0.008": 7.55630827029,
			"0.009": 5.85946726118,
			"0.01": 2.78213935028,
			"0.011": 2.18516487814,
			"0.012": 0.995964312287,
			"0.013": 0.0,
			"0.014": 0.0,
			"0.015": 0.0,
			"0.016": 0.0,
			"0.017": 0.0,
			"0.018": 0.0,
			"0.019": 0.0,
			"0.02": 0.0,
			"0.021": 0.0,
			"0.022": 0.0,
			"0.023": 0.0,
			"0.024": 0.0,
			"0.025": 0.0
		}
	}
}
