{
	 "smiles": "CCOP(=O)(OCC)OC(=CCl)C1=C(Cl)C=C(Cl)C=C1", 
	 "Tm": 253.15, 
	 "num_atms": 34, 
	 "gaussian": { 
		 "optdone": 1, 
		 "sigma_profile": "yes", 
		 "theory": "DFT", 
		 "functional": "B3LYP", 
		 "basiset": "6-31G**", 
		 "properties": { 
			 "R2extent": 9905.9888, 
			 "electric_dipole_moment_norm": 3.09057079679, 
			 "electric_quadrupole_moment_norm": 16.0685732858, 
			 "total_energy": -2488.59574845, 
			 "HOMO_LUMO_gap": 0.19455, 
			 "cosmo_polarized_energy": -12.58, 
			 "cosmo_cavitation_energy": 45.68, 
			 "cosmo_dispersion_energy": -30.25, 
			 "cosmo_repulsion_energy": 2.4, 
			 "cosmo_total_nonelectrostatic_energy": 17.83, 
			 "SMD_solvation_energy": 9.16 
		},
		"coords": [
			{
				"x": -1.0157814433,
				"y": 4.0006725587,
				"z": 1.7213958102,
				"element": "C" 
			},
			{
				"x": -0.5946687718,
				"y": 2.5925519873,
				"z": 1.3499359827,
				"element": "C" 
			},
			{
				"x": -0.8011305117,
				"y": 2.4329952595,
				"z": -0.08046293,
				"element": "O" 
			},
			{
				"x": -0.3186999515,
				"y": 1.1350621615,
				"z": -0.87119247,
				"element": "P" 
			},
			{
				"x": -0.6279790242,
				"y": 1.1646535939,
				"z": -2.3146456313,
				"element": "O" 
			},
			{
				"x": 1.2254504046,
				"y": 0.8961045972,
				"z": -0.4913542885,
				"element": "O" 
			},
			{
				"x": 2.271295785,
				"y": 1.3025745518,
				"z": -1.4190895812,
				"element": "C" 
			},
			{
				"x": 3.5396908162,
				"y": 0.5628298616,
				"z": -1.0419468091,
				"element": "C" 
			},
			{
				"x": -1.0424972134,
				"y": -0.0240081156,
				"z": 0.0245060167,
				"element": "O" 
			},
			{
				"x": -1.0198972456,
				"y": -1.3897748648,
				"z": -0.248775457,
				"element": "C" 
			},
			{
				"x": -0.8251662646,
				"y": -1.8560823339,
				"z": -1.4889290005,
				"element": "C" 
			},
			{
				"x": -0.7566177096,
				"y": -3.5549314127,
				"z": -1.8712678193,
				"element": "Cl" 
			},
			{
				"x": -1.3438699831,
				"y": -2.1979301263,
				"z": 0.9529062441,
				"element": "C" 
			},
			{
				"x": -0.5330829651,
				"y": -2.2317500336,
				"z": 2.0993056156,
				"element": "C" 
			},
			{
				"x": 0.9934268678,
				"y": -1.3731867504,
				"z": 2.1393597851,
				"element": "Cl" 
			},
			{
				"x": -0.8917942722,
				"y": -2.9675454116,
				"z": 3.2280686348,
				"element": "C" 
			},
			{
				"x": -2.0868239466,
				"y": -3.6837322284,
				"z": 3.2118923488,
				"element": "C" 
			},
			{
				"x": -2.5443440908,
				"y": -4.607193513,
				"z": 4.6299405663,
				"element": "Cl" 
			},
			{
				"x": -2.9177505979,
				"y": -3.6794399397,
				"z": 2.0927650017,
				"element": "C" 
			},
			{
				"x": -2.5368056227,
				"y": -2.9362856727,
				"z": 0.9795985076,
				"element": "C" 
			},
			{
				"x": -2.0670248766,
				"y": 4.168728244,
				"z": 1.4724393833,
				"element": "H" 
			},
			{
				"x": -0.411523646,
				"y": 4.7411614664,
				"z": 1.1901428767,
				"element": "H" 
			},
			{
				"x": -0.8851784808,
				"y": 4.1528639994,
				"z": 2.7975504669,
				"element": "H" 
			},
			{
				"x": 0.461017502,
				"y": 2.4128494048,
				"z": 1.5771804371,
				"element": "H" 
			},
			{
				"x": -1.1954993371,
				"y": 1.8405000936,
				"z": 1.8697136757,
				"element": "H" 
			},
			{
				"x": 1.9484255266,
				"y": 1.069719401,
				"z": -2.4371236324,
				"element": "H" 
			},
			{
				"x": 2.4020747684,
				"y": 2.3875293352,
				"z": -1.3374431943,
				"element": "H" 
			},
			{
				"x": 4.3517910574,
				"y": 0.8569516803,
				"z": -1.7145877342,
				"element": "H" 
			},
			{
				"x": 3.3952693292,
				"y": -0.517857453,
				"z": -1.122752418,
				"element": "H" 
			},
			{
				"x": 3.8393292135,
				"y": 0.7968812831,
				"z": -0.0164989173,
				"element": "H" 
			},
			{
				"x": -0.6887886108,
				"y": -1.2026924331,
				"z": -2.3406812242,
				"element": "H" 
			},
			{
				"x": -0.2464263845,
				"y": -2.984936161,
				"z": 4.0974096127,
				"element": "H" 
			},
			{
				"x": -3.8444255751,
				"y": -4.2412638867,
				"z": 2.0956076631,
				"element": "H" 
			},
			{
				"x": -3.1767947454,
				"y": -2.9176191427,
				"z": 0.1040324785,
				"element": "H" 
			}
		],
		 "valence_orbital": [ 
			{
				"type": "occ",
				"energy": -0.2989,
				"method": "rhf"
			},
			{
				"type": "occ",
				"energy": -0.29727,
				"method": "rhf"
			},
			{
				"type": "occ",
				"energy": -0.27326,
				"method": "rhf"
			},
			{
				"type": "occ",
				"energy": -0.26382,
				"method": "rhf"
			},
			{
				"type": "occ",
				"energy": -0.24159,
				"method": "rhf"
			},
			{
				"type": "unocc",
				"energy": -0.04704,
				"method": "rhf"
			},
			{
				"type": "unocc",
				"energy": -0.03169,
				"method": "rhf"
			},
			{
				"type": "unocc",
				"energy": -0.00034,
				"method": "rhf"
			},
			{
				"type": "unocc",
				"energy": 0.00775,
				"method": "rhf"
			},
			{
				"type": "unocc",
				"energy": 0.02798,
				"method": "rhf"
			}
		],
		"cosmo_sigma_profile": { 
			"-0.025": 0.0,
			"-0.024": 0.0,
			"-0.023": 0.0,
			"-0.022": 0.0,
			"-0.021": 0.0,
			"-0.02": 0.0,
			"-0.019": 0.0,
			"-0.018": 0.0,
			"-0.017": 0.0,
			"-0.016": 0.0,
			"-0.015": 0.0,
			"-0.014": 0.0,
			"-0.013": 0.0,
			"-0.012": 0.0,
			"-0.011": 0.0,
			"-0.01": 0.0,
			"-0.009": 0.697020820127,
			"-0.008": 4.3502222021,
			"-0.007": 6.45685192931,
			"-0.006": 10.6695080481,
			"-0.005": 20.1824135036,
			"-0.004": 31.9604169912,
			"-0.003": 29.2435711166,
			"-0.002": 31.0164089337,
			"-0.001": 32.870259549,
			"0.0": 43.3743011319,
			"0.001": 38.8040261815,
			"0.002": 30.837835773,
			"0.003": 28.1507443301,
			"0.004": 27.2327366779,
			"0.005": 7.61190332967,
			"0.006": 3.94529332584,
			"0.007": 3.79308222865,
			"0.008": 2.65084425559,
			"0.009": 2.2594131588,
			"0.01": 1.61628294785,
			"0.011": 1.86181407661,
			"0.012": 2.06787634778,
			"0.013": 3.6432735559,
			"0.014": 2.38007844813,
			"0.015": 0.0,
			"0.016": 0.0,
			"0.017": 0.0,
			"0.018": 0.0,
			"0.019": 0.0,
			"0.02": 0.0,
			"0.021": 0.0,
			"0.022": 0.0,
			"0.023": 0.0,
			"0.024": 0.0,
			"0.025": 0.0
		}
	}
}
