{
	 "smiles": "ClCC1=CN=C(Cl)C=C1", 
	 "Tm": 313.15, 
	 "num_atms": 14, 
	 "gaussian": { 
		 "optdone": 1, 
		 "sigma_profile": "yes", 
		 "theory": "DFT", 
		 "functional": "B3LYP", 
		 "basiset": "6-31G**", 
		 "properties": { 
			 "R2extent": 3006.918, 
			 "electric_dipole_moment_norm": 2.89778716092, 
			 "electric_quadrupole_moment_norm": 11.526111123, 
			 "total_energy": -1206.78761635, 
			 "HOMO_LUMO_gap": 0.213, 
			 "cosmo_polarized_energy": -9.23, 
			 "cosmo_cavitation_energy": 22.06, 
			 "cosmo_dispersion_energy": -16.53, 
			 "cosmo_repulsion_energy": 1.37, 
			 "cosmo_total_nonelectrostatic_energy": 6.9, 
			 "SMD_solvation_energy": 1.79 
		},
		"coords": [
			{
				"x": -4.3040367881,
				"y": 0.2298676177,
				"z": -0.1640399053,
				"element": "Cl" 
			},
			{
				"x": -2.6410601102,
				"y": 0.2481421471,
				"z": 0.6063459377,
				"element": "C" 
			},
			{
				"x": -1.5451967493,
				"y": 0.1006473562,
				"z": -0.4033450573,
				"element": "C" 
			},
			{
				"x": -0.8030444619,
				"y": 1.2079305833,
				"z": -0.8217769324,
				"element": "C" 
			},
			{
				"x": 0.1958542691,
				"y": 1.1456174995,
				"z": -1.7118233545,
				"element": "N" 
			},
			{
				"x": 0.4809419818,
				"y": -0.0390911783,
				"z": -2.2185521785,
				"element": "C" 
			},
			{
				"x": 1.7945482975,
				"y": -0.1073718987,
				"z": -3.38714263,
				"element": "Cl" 
			},
			{
				"x": -0.1833066221,
				"y": -1.2262963648,
				"z": -1.8890479016,
				"element": "C" 
			},
			{
				"x": -1.2142975917,
				"y": -1.141912528,
				"z": -0.9628771274,
				"element": "C" 
			},
			{
				"x": -2.6474927607,
				"y": -0.5707933262,
				"z": 1.3264655173,
				"element": "H" 
			},
			{
				"x": -2.5707281032,
				"y": 1.195590761,
				"z": 1.1407985094,
				"element": "H" 
			},
			{
				"x": -1.0185642366,
				"y": 2.1966014717,
				"z": -0.4197387455,
				"element": "H" 
			},
			{
				"x": 0.1041658366,
				"y": -2.1670766715,
				"z": -2.3426804157,
				"element": "H" 
			},
			{
				"x": -1.7644829611,
				"y": -2.0344554689,
				"z": -0.6775857163,
				"element": "H" 
			}
		],
		 "valence_orbital": [ 
			{
				"type": "occ",
				"energy": -0.31402,
				"method": "rhf"
			},
			{
				"type": "occ",
				"energy": -0.30852,
				"method": "rhf"
			},
			{
				"type": "occ",
				"energy": -0.30282,
				"method": "rhf"
			},
			{
				"type": "occ",
				"energy": -0.28313,
				"method": "rhf"
			},
			{
				"type": "occ",
				"energy": -0.26657,
				"method": "rhf"
			},
			{
				"type": "unocc",
				"energy": -0.05357,
				"method": "rhf"
			},
			{
				"type": "unocc",
				"energy": -0.04279,
				"method": "rhf"
			},
			{
				"type": "unocc",
				"energy": 0.02332,
				"method": "rhf"
			},
			{
				"type": "unocc",
				"energy": 0.02791,
				"method": "rhf"
			},
			{
				"type": "unocc",
				"energy": 0.08589,
				"method": "rhf"
			}
		],
		"cosmo_sigma_profile": { 
			"-0.025": 0.0,
			"-0.024": 0.0,
			"-0.023": 0.0,
			"-0.022": 0.0,
			"-0.021": 0.0,
			"-0.02": 0.0,
			"-0.019": 0.0,
			"-0.018": 0.0,
			"-0.017": 0.0,
			"-0.016": 0.0,
			"-0.015": 0.0,
			"-0.014": 0.0,
			"-0.013": 0.0,
			"-0.012": 0.0,
			"-0.011": 0.0,
			"-0.01": 0.0240361074959,
			"-0.009": 3.34805520155,
			"-0.008": 12.0817402991,
			"-0.007": 10.7725130732,
			"-0.006": 8.2302261647,
			"-0.005": 8.22573742769,
			"-0.004": 6.54720312529,
			"-0.003": 6.43055878528,
			"-0.002": 7.952204128,
			"-0.001": 14.1944306841,
			"0.0": 17.6284663869,
			"0.001": 14.5975259062,
			"0.002": 9.74012333585,
			"0.003": 12.3636829469,
			"0.004": 14.6183694279,
			"0.005": 11.1106929182,
			"0.006": 12.0186567924,
			"0.007": 4.67550373259,
			"0.008": 1.55783110558,
			"0.009": 0.910575574294,
			"0.01": 1.11253385127,
			"0.011": 1.03526516153,
			"0.012": 0.7474187704,
			"0.013": 0.851403512397,
			"0.014": 0.71501735365,
			"0.015": 0.136761679565,
			"0.016": 0.0,
			"0.017": 0.0,
			"0.018": 0.0,
			"0.019": 0.0,
			"0.02": 0.0,
			"0.021": 0.0,
			"0.022": 0.0,
			"0.023": 0.0,
			"0.024": 0.0,
			"0.025": 0.0
		}
	}
}
