{
	 "smiles": "CC1=CC(=CC=C1)C1=NN=C(CO)O1", 
	 "Tm": 356.15, 
	 "num_atms": 24, 
	 "gaussian": { 
		 "optdone": 1, 
		 "sigma_profile": "yes", 
		 "theory": "DFT", 
		 "functional": "B3LYP", 
		 "basiset": "6-31G**", 
		 "properties": { 
			 "R2extent": 3924.4697, 
			 "electric_dipole_moment_norm": 4.30918713912, 
			 "electric_quadrupole_moment_norm": 15.3257102194, 
			 "total_energy": -647.009941251, 
			 "HOMO_LUMO_gap": 0.18767, 
			 "cosmo_polarized_energy": -14.43, 
			 "cosmo_cavitation_energy": 29.0, 
			 "cosmo_dispersion_energy": -21.24, 
			 "cosmo_repulsion_energy": 1.68, 
			 "cosmo_total_nonelectrostatic_energy": 9.44, 
			 "SMD_solvation_energy": 3.49 
		},
		"coords": [
			{
				"x": 3.4771570787,
				"y": -0.1766265172,
				"z": 1.8836582483,
				"element": "C" 
			},
			{
				"x": 2.202455635,
				"y": 0.3009806701,
				"z": 1.2283770274,
				"element": "C" 
			},
			{
				"x": 1.1466353613,
				"y": -0.577299008,
				"z": 0.9842081781,
				"element": "C" 
			},
			{
				"x": -0.0384245424,
				"y": -0.1311329749,
				"z": 0.3748326762,
				"element": "C" 
			},
			{
				"x": -0.1703128029,
				"y": 1.2133594186,
				"z": 0.0036149516,
				"element": "C" 
			},
			{
				"x": 0.8818456417,
				"y": 2.0956258836,
				"z": 0.2448823424,
				"element": "C" 
			},
			{
				"x": 2.0540732963,
				"y": 1.645704879,
				"z": 0.8497902336,
				"element": "C" 
			},
			{
				"x": -1.1137075831,
				"y": -1.0886044403,
				"z": 0.1420388683,
				"element": "C" 
			},
			{
				"x": -1.1507807358,
				"y": -2.3557589835,
				"z": 0.4350552724,
				"element": "N" 
			},
			{
				"x": -2.3873345019,
				"y": -2.8322052781,
				"z": 0.0013198256,
				"element": "N" 
			},
			{
				"x": -3.0100646147,
				"y": -1.8216612336,
				"z": -0.5138294556,
				"element": "C" 
			},
			{
				"x": -4.3726165697,
				"y": -1.7563799066,
				"z": -1.1254987753,
				"element": "C" 
			},
			{
				"x": -4.3529604354,
				"y": -1.302504664,
				"z": -2.4688971191,
				"element": "O" 
			},
			{
				"x": -2.2712915713,
				"y": -0.67277582,
				"z": -0.46196595,
				"element": "O" 
			},
			{
				"x": 4.3446693144,
				"y": -0.0041466943,
				"z": 1.2366046654,
				"element": "H" 
			},
			{
				"x": 3.4339708988,
				"y": -1.2452555879,
				"z": 2.1084968353,
				"element": "H" 
			},
			{
				"x": 3.6645647095,
				"y": 0.3568543288,
				"z": 2.8224906725,
				"element": "H" 
			},
			{
				"x": 1.2259697312,
				"y": -1.6234159626,
				"z": 1.2625739927,
				"element": "H" 
			},
			{
				"x": -1.0840882669,
				"y": 1.5603032812,
				"z": -0.4663567048,
				"element": "H" 
			},
			{
				"x": 0.7858240657,
				"y": 3.1390134018,
				"z": -0.0407222127,
				"element": "H" 
			},
			{
				"x": 2.867150713,
				"y": 2.3441928501,
				"z": 1.0321497505,
				"element": "H" 
			},
			{
				"x": -5.0251072476,
				"y": -1.1317042977,
				"z": -0.495464425,
				"element": "H" 
			},
			{
				"x": -4.7783880642,
				"y": -2.7695978133,
				"z": -1.1293435819,
				"element": "H" 
			},
			{
				"x": -4.0305395098,
				"y": -0.3916655311,
				"z": -2.4699153159,
				"element": "H" 
			}
		],
		 "valence_orbital": [ 
			{
				"type": "occ",
				"energy": -0.30167,
				"method": "rhf"
			},
			{
				"type": "occ",
				"energy": -0.29185,
				"method": "rhf"
			},
			{
				"type": "occ",
				"energy": -0.27692,
				"method": "rhf"
			},
			{
				"type": "occ",
				"energy": -0.25659,
				"method": "rhf"
			},
			{
				"type": "occ",
				"energy": -0.24028,
				"method": "rhf"
			},
			{
				"type": "unocc",
				"energy": -0.05261,
				"method": "rhf"
			},
			{
				"type": "unocc",
				"energy": -0.01059,
				"method": "rhf"
			},
			{
				"type": "unocc",
				"energy": 0.0062,
				"method": "rhf"
			},
			{
				"type": "unocc",
				"energy": 0.05394,
				"method": "rhf"
			},
			{
				"type": "unocc",
				"energy": 0.07234,
				"method": "rhf"
			}
		],
		"cosmo_sigma_profile": { 
			"-0.025": 0.0,
			"-0.024": 0.0,
			"-0.023": 0.0,
			"-0.022": 0.0,
			"-0.021": 0.0,
			"-0.02": 0.0,
			"-0.019": 0.0,
			"-0.018": 0.0,
			"-0.017": 0.0201218666955,
			"-0.016": 0.625863783751,
			"-0.015": 1.13605805866,
			"-0.014": 1.00371142512,
			"-0.013": 0.380514632661,
			"-0.012": 0.652903456307,
			"-0.011": 1.04495516293,
			"-0.01": 1.41570423929,
			"-0.009": 0.928326649626,
			"-0.008": 2.21534848427,
			"-0.007": 7.66369877014,
			"-0.006": 11.3282930129,
			"-0.005": 16.0591682796,
			"-0.004": 19.8153193656,
			"-0.003": 18.1640004706,
			"-0.002": 19.3356919788,
			"-0.001": 18.9307219438,
			"0.0": 18.3169771966,
			"0.001": 15.2555429315,
			"0.002": 13.5091013359,
			"0.003": 12.8968103368,
			"0.004": 12.7988573302,
			"0.005": 3.98773344359,
			"0.006": 3.68141548233,
			"0.007": 2.73405021009,
			"0.008": 3.50986560442,
			"0.009": 3.65093037042,
			"0.01": 3.53760427416,
			"0.011": 4.5822176709,
			"0.012": 4.5790542612,
			"0.013": 4.65583433625,
			"0.014": 2.13935657136,
			"0.015": 0.780058104117,
			"0.016": 0.00201803127599,
			"0.017": 0.0,
			"0.018": 0.0,
			"0.019": 0.0,
			"0.02": 0.0,
			"0.021": 0.0,
			"0.022": 0.0,
			"0.023": 0.0,
			"0.024": 0.0,
			"0.025": 0.0
		}
	}
}
