{
	 "smiles": "CNC1=NC2=CC=C(Cl)C=C2C(C2=CC=CC=C2)=[N+]([O-])C1", 
	 "Tm": 509.15, 
	 "num_atms": 35, 
	 "gaussian": { 
		 "optdone": 1, 
		 "sigma_profile": "yes", 
		 "theory": "DFT", 
		 "functional": "B3LYP", 
		 "basiset": "6-31G**", 
		 "properties": { 
			 "R2extent": 6939.6498, 
			 "electric_dipole_moment_norm": 3.39546720202, 
			 "electric_quadrupole_moment_norm": 15.5713261821, 
			 "total_energy": -1317.745259, 
			 "HOMO_LUMO_gap": 0.14651, 
			 "cosmo_polarized_energy": -15.01, 
			 "cosmo_cavitation_energy": 39.65, 
			 "cosmo_dispersion_energy": -28.32, 
			 "cosmo_repulsion_energy": 2.17, 
			 "cosmo_total_nonelectrostatic_energy": 13.49, 
			 "SMD_solvation_energy": 4.69 
		},
		"coords": [
			{
				"x": -3.8333584572,
				"y": 2.4816659174,
				"z": -1.2418064283,
				"element": "C" 
			},
			{
				"x": -2.4662683578,
				"y": 2.5738791152,
				"z": -1.7372281445,
				"element": "N" 
			},
			{
				"x": -1.3440291246,
				"y": 2.1705451102,
				"z": -1.0873193392,
				"element": "C" 
			},
			{
				"x": -0.2047428482,
				"y": 2.1685320899,
				"z": -1.7036502817,
				"element": "N" 
			},
			{
				"x": 0.917458053,
				"y": 1.6263221725,
				"z": -1.0943477294,
				"element": "C" 
			},
			{
				"x": 2.1499055834,
				"y": 2.2559976884,
				"z": -1.3798629903,
				"element": "C" 
			},
			{
				"x": 3.3498173518,
				"y": 1.8022478916,
				"z": -0.8623644642,
				"element": "C" 
			},
			{
				"x": 3.3436994304,
				"y": 0.6653017194,
				"z": -0.0445016758,
				"element": "C" 
			},
			{
				"x": 4.8579970333,
				"y": 0.0798668782,
				"z": 0.6350506857,
				"element": "Cl" 
			},
			{
				"x": 2.165791767,
				"y": -0.0059178035,
				"z": 0.2302636021,
				"element": "C" 
			},
			{
				"x": 0.9283326662,
				"y": 0.4491337559,
				"z": -0.2814523963,
				"element": "C" 
			},
			{
				"x": -0.2666617816,
				"y": -0.3741275796,
				"z": 0.0038431315,
				"element": "C" 
			},
			{
				"x": -0.1957585124,
				"y": -1.8510377632,
				"z": -0.0512508005,
				"element": "C" 
			},
			{
				"x": 0.664029785,
				"y": -2.4655647781,
				"z": -0.982926456,
				"element": "C" 
			},
			{
				"x": 0.7651703581,
				"y": -3.8526674154,
				"z": -1.0569792502,
				"element": "C" 
			},
			{
				"x": 0.0175575607,
				"y": -4.6575277376,
				"z": -0.1955910475,
				"element": "C" 
			},
			{
				"x": -0.8386746004,
				"y": -4.0612975509,
				"z": 0.7324565675,
				"element": "C" 
			},
			{
				"x": -0.9569757543,
				"y": -2.6749676604,
				"z": 0.8008239039,
				"element": "C" 
			},
			{
				"x": -1.4176301052,
				"y": 0.2206112181,
				"z": 0.3194253768,
				"element": "N" 
			},
			{
				"x": -2.5393790788,
				"y": -0.3553062972,
				"z": 0.538975058,
				"element": "O" 
			},
			{
				"x": -1.461180969,
				"y": 1.7057484203,
				"z": 0.3461458036,
				"element": "C" 
			},
			{
				"x": -4.0010735518,
				"y": 1.5321096484,
				"z": -0.7266093746,
				"element": "H" 
			},
			{
				"x": -4.5103458652,
				"y": 2.5276368121,
				"z": -2.0969748784,
				"element": "H" 
			},
			{
				"x": -4.0897834942,
				"y": 3.3090831366,
				"z": -0.5672232359,
				"element": "H" 
			},
			{
				"x": -2.3162417587,
				"y": 2.8029398008,
				"z": -2.7096588162,
				"element": "H" 
			},
			{
				"x": 2.1222059887,
				"y": 3.126862238,
				"z": -2.0263991651,
				"element": "H" 
			},
			{
				"x": 4.2812241518,
				"y": 2.3113267716,
				"z": -1.0842798044,
				"element": "H" 
			},
			{
				"x": 2.1873738826,
				"y": -0.8935960144,
				"z": 0.8509741482,
				"element": "H" 
			},
			{
				"x": 1.2484356773,
				"y": -1.8495147026,
				"z": -1.6578162245,
				"element": "H" 
			},
			{
				"x": 1.4279602247,
				"y": -4.3034546691,
				"z": -1.7899283479,
				"element": "H" 
			},
			{
				"x": 0.0974564605,
				"y": -5.7394685418,
				"z": -0.2505946126,
				"element": "H" 
			},
			{
				"x": -1.4263326136,
				"y": -4.6794164476,
				"z": 1.4052547131,
				"element": "H" 
			},
			{
				"x": -1.6454113698,
				"y": -2.2213260003,
				"z": 1.5005277492,
				"element": "H" 
			},
			{
				"x": -2.3972876156,
				"y": 1.9610169325,
				"z": 0.8337379158,
				"element": "H" 
			},
			{
				"x": -0.6155801162,
				"y": 2.0884636446,
				"z": 0.9227868081,
				"element": "H" 
			}
		],
		 "valence_orbital": [ 
			{
				"type": "occ",
				"energy": -0.25708,
				"method": "rhf"
			},
			{
				"type": "occ",
				"energy": -0.25175,
				"method": "rhf"
			},
			{
				"type": "occ",
				"energy": -0.24134,
				"method": "rhf"
			},
			{
				"type": "occ",
				"energy": -0.21304,
				"method": "rhf"
			},
			{
				"type": "occ",
				"energy": -0.19979,
				"method": "rhf"
			},
			{
				"type": "unocc",
				"energy": -0.05328,
				"method": "rhf"
			},
			{
				"type": "unocc",
				"energy": -0.02689,
				"method": "rhf"
			},
			{
				"type": "unocc",
				"energy": -0.01813,
				"method": "rhf"
			},
			{
				"type": "unocc",
				"energy": 0.00313,
				"method": "rhf"
			},
			{
				"type": "unocc",
				"energy": 0.0251,
				"method": "rhf"
			}
		],
		"cosmo_sigma_profile": { 
			"-0.025": 0.0,
			"-0.024": 0.0,
			"-0.023": 0.0,
			"-0.022": 0.0,
			"-0.021": 0.0,
			"-0.02": 0.0,
			"-0.019": 0.0,
			"-0.018": 0.0,
			"-0.017": 0.0,
			"-0.016": 0.0,
			"-0.015": 0.0404134939636,
			"-0.014": 0.802322225003,
			"-0.013": 1.06813890077,
			"-0.012": 1.31645805614,
			"-0.011": 0.966468749466,
			"-0.01": 0.930770371681,
			"-0.009": 1.06300006275,
			"-0.008": 4.66840284923,
			"-0.007": 8.59264652041,
			"-0.006": 17.2209526275,
			"-0.005": 24.0493564963,
			"-0.004": 23.3606070683,
			"-0.003": 23.506193214,
			"-0.002": 22.8343322221,
			"-0.001": 23.0022260937,
			"0.0": 20.9491101518,
			"0.001": 22.2004257449,
			"0.002": 24.0669388,
			"0.003": 26.5535552285,
			"0.004": 22.0847078532,
			"0.005": 20.7986943455,
			"0.006": 5.53937438339,
			"0.007": 3.36080997706,
			"0.008": 2.73169920706,
			"0.009": 3.05079736144,
			"0.01": 1.81424502131,
			"0.011": 3.23570896045,
			"0.012": 4.61257104993,
			"0.013": 3.21726162691,
			"0.014": 1.45034882052,
			"0.015": 0.226452724565,
			"0.016": 0.0,
			"0.017": 0.0,
			"0.018": 0.0,
			"0.019": 0.0,
			"0.02": 0.0,
			"0.021": 0.0,
			"0.022": 0.0,
			"0.023": 0.0,
			"0.024": 0.0,
			"0.025": 0.0
		}
	}
}
