{
	 "smiles": "CC1=C(C)C2=C(S1)N=C(N)NC2=O", 
	 "Tm": 627.15, 
	 "num_atms": 22, 
	 "gaussian": { 
		 "optdone": 1, 
		 "sigma_profile": "yes", 
		 "theory": "DFT", 
		 "functional": "B3LYP", 
		 "basiset": "6-31G**", 
		 "properties": { 
			 "R2extent": 3748.3748, 
			 "electric_dipole_moment_norm": 2.90217791839, 
			 "electric_quadrupole_moment_norm": 33.2689084382, 
			 "total_energy": -947.98088088, 
			 "HOMO_LUMO_gap": 0.17294, 
			 "cosmo_polarized_energy": -17.81, 
			 "cosmo_cavitation_energy": 27.23, 
			 "cosmo_dispersion_energy": -20.92, 
			 "cosmo_repulsion_energy": 1.61, 
			 "cosmo_total_nonelectrostatic_energy": 7.91, 
			 "SMD_solvation_energy": 3.27 
		},
		"coords": [
			{
				"x": 0.2532021997,
				"y": -2.568142574,
				"z": -0.0075763134,
				"element": "C" 
			},
			{
				"x": 0.6577760284,
				"y": -1.1235854278,
				"z": -0.002486827,
				"element": "C" 
			},
			{
				"x": 1.7919028041,
				"y": -0.5325077577,
				"z": 0.4881040362,
				"element": "C" 
			},
			{
				"x": 2.9358192755,
				"y": -1.2409126466,
				"z": 1.1627730447,
				"element": "C" 
			},
			{
				"x": 1.7810300492,
				"y": 0.897347935,
				"z": 0.2838709886,
				"element": "C" 
			},
			{
				"x": 0.6376038499,
				"y": 1.3675042369,
				"z": -0.3575853139,
				"element": "C" 
			},
			{
				"x": -0.4487077938,
				"y": 0.0539020393,
				"z": -0.7236782508,
				"element": "S" 
			},
			{
				"x": 0.3470445576,
				"y": 2.6527993808,
				"z": -0.6955650177,
				"element": "N" 
			},
			{
				"x": 1.2525052231,
				"y": 3.5283298275,
				"z": -0.3415296372,
				"element": "C" 
			},
			{
				"x": 1.0334857283,
				"y": 4.8689509769,
				"z": -0.5686476822,
				"element": "N" 
			},
			{
				"x": 2.4130116791,
				"y": 3.1866894817,
				"z": 0.3029383865,
				"element": "N" 
			},
			{
				"x": 2.7848262681,
				"y": 1.8631633731,
				"z": 0.6709408599,
				"element": "C" 
			},
			{
				"x": 3.8486864468,
				"y": 1.6826040467,
				"z": 1.2515391055,
				"element": "O" 
			},
			{
				"x": 0.1094204126,
				"y": -2.9456669631,
				"z": -1.0269711368,
				"element": "H" 
			},
			{
				"x": -0.686177245,
				"y": -2.7282310648,
				"z": 0.5348312129,
				"element": "H" 
			},
			{
				"x": 1.0179676378,
				"y": -3.1857835959,
				"z": 0.4679237946,
				"element": "H" 
			},
			{
				"x": 3.8697043079,
				"y": -1.0829343177,
				"z": 0.6145122471,
				"element": "H" 
			},
			{
				"x": 3.1020662433,
				"y": -0.8416706042,
				"z": 2.1676651917,
				"element": "H" 
			},
			{
				"x": 2.75924149,
				"y": -2.3156652763,
				"z": 1.24118291,
				"element": "H" 
			},
			{
				"x": 0.2418117924,
				"y": 5.0336855308,
				"z": -1.1754720002,
				"element": "H" 
			},
			{
				"x": 1.8387740941,
				"y": 5.4438228146,
				"z": -0.7745483853,
				"element": "H" 
			},
			{
				"x": 3.0591049508,
				"y": 3.8996005848,
				"z": 0.6193787867,
				"element": "H" 
			}
		],
		 "valence_orbital": [ 
			{
				"type": "occ",
				"energy": -0.28398,
				"method": "rhf"
			},
			{
				"type": "occ",
				"energy": -0.28167,
				"method": "rhf"
			},
			{
				"type": "occ",
				"energy": -0.25646,
				"method": "rhf"
			},
			{
				"type": "occ",
				"energy": -0.24259,
				"method": "rhf"
			},
			{
				"type": "occ",
				"energy": -0.19776,
				"method": "rhf"
			},
			{
				"type": "unocc",
				"energy": -0.02482,
				"method": "rhf"
			},
			{
				"type": "unocc",
				"energy": 0.00488,
				"method": "rhf"
			},
			{
				"type": "unocc",
				"energy": 0.02915,
				"method": "rhf"
			},
			{
				"type": "unocc",
				"energy": 0.04222,
				"method": "rhf"
			},
			{
				"type": "unocc",
				"energy": 0.05632,
				"method": "rhf"
			}
		],
		"cosmo_sigma_profile": { 
			"-0.025": 0.0,
			"-0.024": 0.0,
			"-0.023": 0.0,
			"-0.022": 0.0,
			"-0.021": 0.0,
			"-0.02": 0.0,
			"-0.019": 0.0,
			"-0.018": 0.162638886125,
			"-0.017": 1.39622735849,
			"-0.016": 2.08933386581,
			"-0.015": 2.62990728772,
			"-0.014": 3.04332069478,
			"-0.013": 2.92012908859,
			"-0.012": 3.18089403018,
			"-0.011": 2.7728676206,
			"-0.01": 2.26107936237,
			"-0.009": 1.63714297666,
			"-0.008": 2.26358835731,
			"-0.007": 2.0768168829,
			"-0.006": 3.52690672644,
			"-0.005": 5.96055042179,
			"-0.004": 10.875389849,
			"-0.003": 13.7244885024,
			"-0.002": 18.0077798329,
			"-0.001": 20.2051770277,
			"0.0": 17.7454697053,
			"0.001": 15.7427291425,
			"0.002": 15.7980999867,
			"0.003": 16.4636796877,
			"0.004": 14.1103863895,
			"0.005": 8.72185812274,
			"0.006": 3.97119705392,
			"0.007": 3.01438210006,
			"0.008": 3.98898515075,
			"0.009": 3.11287400429,
			"0.01": 3.14142612557,
			"0.011": 2.88755785519,
			"0.012": 2.69251033135,
			"0.013": 5.6886665523,
			"0.014": 2.5338816753,
			"0.015": 0.0,
			"0.016": 0.0,
			"0.017": 0.0,
			"0.018": 0.0,
			"0.019": 0.0,
			"0.02": 0.0,
			"0.021": 0.0,
			"0.022": 0.0,
			"0.023": 0.0,
			"0.024": 0.0,
			"0.025": 0.0
		}
	}
}
