{
	 "smiles": "COC1=C(C(C=O)=CC=C1OC(F)F)[N+]([O-])=O", 
	 "Tm": 335.15, 
	 "num_atms": 24, 
	 "gaussian": { 
		 "optdone": 1, 
		 "sigma_profile": "yes", 
		 "theory": "DFT", 
		 "functional": "B3LYP", 
		 "basiset": "6-31G**", 
		 "properties": { 
			 "R2extent": 4354.1722, 
			 "electric_dipole_moment_norm": 4.51420393314, 
			 "electric_quadrupole_moment_norm": 18.2090817695, 
			 "total_energy": -977.569674374, 
			 "HOMO_LUMO_gap": 0.18598, 
			 "cosmo_polarized_energy": -15.22, 
			 "cosmo_cavitation_energy": 30.69, 
			 "cosmo_dispersion_energy": -21.01, 
			 "cosmo_repulsion_energy": 1.57, 
			 "cosmo_total_nonelectrostatic_energy": 11.25, 
			 "SMD_solvation_energy": 10.56 
		},
		"coords": [
			{
				"x": 0.6963898429,
				"y": -2.8935080125,
				"z": -1.4035304777,
				"element": "C" 
			},
			{
				"x": -0.440031886,
				"y": -2.0107961614,
				"z": -1.2425306237,
				"element": "O" 
			},
			{
				"x": -0.2480214011,
				"y": -0.9724509602,
				"z": -0.3767374845,
				"element": "C" 
			},
			{
				"x": 0.1072543913,
				"y": 0.2888988986,
				"z": -0.8510291288,
				"element": "C" 
			},
			{
				"x": 0.2821258969,
				"y": 1.3884110092,
				"z": 0.0012392264,
				"element": "C" 
			},
			{
				"x": 0.7066216534,
				"y": 2.7250162461,
				"z": -0.4809408515,
				"element": "C" 
			},
			{
				"x": 1.000271855,
				"y": 2.9877890798,
				"z": -1.628093791,
				"element": "O" 
			},
			{
				"x": 0.0810205341,
				"y": 1.1921337516,
				"z": 1.3736859034,
				"element": "C" 
			},
			{
				"x": -0.297451071,
				"y": -0.047174662,
				"z": 1.8773711835,
				"element": "C" 
			},
			{
				"x": -0.4689347274,
				"y": -1.1244469937,
				"z": 1.0080859688,
				"element": "C" 
			},
			{
				"x": -0.7882670477,
				"y": -2.3395676912,
				"z": 1.5619764232,
				"element": "O" 
			},
			{
				"x": -1.8058243963,
				"y": -3.1091732106,
				"z": 1.0087750879,
				"element": "C" 
			},
			{
				"x": -2.654337315,
				"y": -3.4265940773,
				"z": 2.0085496774,
				"element": "F" 
			},
			{
				"x": -1.2747074539,
				"y": -4.2656213088,
				"z": 0.5509758899,
				"element": "F" 
			},
			{
				"x": 0.2745186663,
				"y": 0.4088962805,
				"z": -2.3171493119,
				"element": "N" 
			},
			{
				"x": -0.6721715611,
				"y": 0.8623940147,
				"z": -2.9407727814,
				"element": "O" 
			},
			{
				"x": 1.331181667,
				"y": -0.0025100583,
				"z": -2.7843286565,
				"element": "O" 
			},
			{
				"x": 0.3794256419,
				"y": -3.6479573425,
				"z": -2.1233697573,
				"element": "H" 
			},
			{
				"x": 1.5484345618,
				"y": -2.3335697084,
				"z": -1.7961982935,
				"element": "H" 
			},
			{
				"x": 0.947832518,
				"y": -3.3750694982,
				"z": -0.4548587966,
				"element": "H" 
			},
			{
				"x": 0.7499372278,
				"y": 3.4950976503,
				"z": 0.3192726687,
				"element": "H" 
			},
			{
				"x": 0.2182486387,
				"y": 2.0318786546,
				"z": 2.0491885779,
				"element": "H" 
			},
			{
				"x": -0.465950054,
				"y": -0.2055213131,
				"z": 2.9366961038,
				"element": "H" 
			},
			{
				"x": -2.3405661817,
				"y": -2.6005545869,
				"z": 0.2051232434,
				"element": "H" 
			}
		],
		 "valence_orbital": [ 
			{
				"type": "occ",
				"energy": -0.31564,
				"method": "rhf"
			},
			{
				"type": "occ",
				"energy": -0.30922,
				"method": "rhf"
			},
			{
				"type": "occ",
				"energy": -0.2796,
				"method": "rhf"
			},
			{
				"type": "occ",
				"energy": -0.27727,
				"method": "rhf"
			},
			{
				"type": "occ",
				"energy": -0.27626,
				"method": "rhf"
			},
			{
				"type": "unocc",
				"energy": -0.09028,
				"method": "rhf"
			},
			{
				"type": "unocc",
				"energy": -0.07516,
				"method": "rhf"
			},
			{
				"type": "unocc",
				"energy": -0.04713,
				"method": "rhf"
			},
			{
				"type": "unocc",
				"energy": 0.01218,
				"method": "rhf"
			},
			{
				"type": "unocc",
				"energy": 0.04614,
				"method": "rhf"
			}
		],
		"cosmo_sigma_profile": { 
			"-0.025": 0.0,
			"-0.024": 0.0,
			"-0.023": 0.0,
			"-0.022": 0.0,
			"-0.021": 0.0,
			"-0.02": 0.0,
			"-0.019": 0.0,
			"-0.018": 0.0,
			"-0.017": 0.0,
			"-0.016": 0.0,
			"-0.015": 0.0,
			"-0.014": 0.0,
			"-0.013": 0.0,
			"-0.012": 0.134188656786,
			"-0.011": 1.82876655856,
			"-0.01": 3.47768518054,
			"-0.009": 6.5598586708,
			"-0.008": 8.42161014601,
			"-0.007": 9.03669100036,
			"-0.006": 8.85465288787,
			"-0.005": 14.3798663568,
			"-0.004": 17.234275129,
			"-0.003": 16.7137563801,
			"-0.002": 14.41634774,
			"-0.001": 14.7280242112,
			"0.0": 16.8370280046,
			"0.001": 12.0473951262,
			"0.002": 12.2546613901,
			"0.003": 21.9373688647,
			"0.004": 14.7853332019,
			"0.005": 9.25730862105,
			"0.006": 13.5803871167,
			"0.007": 13.0795363555,
			"0.008": 7.00314354366,
			"0.009": 4.14036629312,
			"0.01": 2.87529005085,
			"0.011": 1.93619600642,
			"0.012": 0.690523382087,
			"0.013": 0.0,
			"0.014": 0.0,
			"0.015": 0.0,
			"0.016": 0.0,
			"0.017": 0.0,
			"0.018": 0.0,
			"0.019": 0.0,
			"0.02": 0.0,
			"0.021": 0.0,
			"0.022": 0.0,
			"0.023": 0.0,
			"0.024": 0.0,
			"0.025": 0.0
		}
	}
}
