{
	 "smiles": "CCCC1=NN(C)C(N)=C1", 
	 "Tm": 342.15, 
	 "num_atms": 23, 
	 "gaussian": { 
		 "optdone": 1, 
		 "sigma_profile": "yes", 
		 "theory": "DFT", 
		 "functional": "B3LYP", 
		 "basiset": "6-31G**", 
		 "properties": { 
			 "R2extent": 1895.1541, 
			 "electric_dipole_moment_norm": 3.14097777929, 
			 "electric_quadrupole_moment_norm": 8.71061389341, 
			 "total_energy": -438.824675014, 
			 "HOMO_LUMO_gap": 0.24339, 
			 "cosmo_polarized_energy": -11.55, 
			 "cosmo_cavitation_energy": 25.78, 
			 "cosmo_dispersion_energy": -18.5, 
			 "cosmo_repulsion_energy": 1.55, 
			 "cosmo_total_nonelectrostatic_energy": 8.83, 
			 "SMD_solvation_energy": 3.55 
		},
		"coords": [
			{
				"x": -0.7427146785,
				"y": 2.946046161,
				"z": 0.2499310179,
				"element": "C" 
			},
			{
				"x": -0.7273733893,
				"y": 2.1745208649,
				"z": -1.0726605498,
				"element": "C" 
			},
			{
				"x": 0.4180975697,
				"y": 1.144642226,
				"z": -1.1720912994,
				"element": "C" 
			},
			{
				"x": 0.319906748,
				"y": 0.0211483372,
				"z": -0.1789944832,
				"element": "C" 
			},
			{
				"x": 1.1904760918,
				"y": -0.0697713079,
				"z": 0.8268481462,
				"element": "N" 
			},
			{
				"x": 0.8187479403,
				"y": -1.1861032342,
				"z": 1.5160992224,
				"element": "N" 
			},
			{
				"x": 1.5635520208,
				"y": -1.6073994562,
				"z": 2.681889181,
				"element": "C" 
			},
			{
				"x": -0.2868139564,
				"y": -1.7753264889,
				"z": 0.9798340251,
				"element": "C" 
			},
			{
				"x": -0.7970327628,
				"y": -2.9680474672,
				"z": 1.5155397809,
				"element": "N" 
			},
			{
				"x": -0.6391250814,
				"y": -1.0228983619,
				"z": -0.1293192907,
				"element": "C" 
			},
			{
				"x": -1.5755682417,
				"y": 3.6564729346,
				"z": 0.2851221457,
				"element": "H" 
			},
			{
				"x": -0.8389875609,
				"y": 2.2667034188,
				"z": 1.1024273356,
				"element": "H" 
			},
			{
				"x": 0.1864253322,
				"y": 3.511081659,
				"z": 0.385780782,
				"element": "H" 
			},
			{
				"x": -1.6873615866,
				"y": 1.6598277807,
				"z": -1.2105908637,
				"element": "H" 
			},
			{
				"x": -0.6351974228,
				"y": 2.8797807473,
				"z": -1.9087320937,
				"element": "H" 
			},
			{
				"x": 1.3791958352,
				"y": 1.6478334136,
				"z": -1.0175639757,
				"element": "H" 
			},
			{
				"x": 0.4339249429,
				"y": 0.7294473207,
				"z": -2.1882534953,
				"element": "H" 
			},
			{
				"x": 1.1640806412,
				"y": -1.1706238865,
				"z": 3.6060834638,
				"element": "H" 
			},
			{
				"x": 1.5281739765,
				"y": -2.6973695393,
				"z": 2.7555555655,
				"element": "H" 
			},
			{
				"x": 2.5964058496,
				"y": -1.2797945989,
				"z": 2.5591798561,
				"element": "H" 
			},
			{
				"x": -1.1246958926,
				"y": -2.8704650899,
				"z": 2.4720350578,
				"element": "H" 
			},
			{
				"x": -1.551323907,
				"y": -3.3318286099,
				"z": 0.9461584448,
				"element": "H" 
			},
			{
				"x": -1.4673924683,
				"y": -1.202876823,
				"z": -0.7996779734,
				"element": "H" 
			}
		],
		 "valence_orbital": [ 
			{
				"type": "occ",
				"energy": -0.31828,
				"method": "rhf"
			},
			{
				"type": "occ",
				"energy": -0.30543,
				"method": "rhf"
			},
			{
				"type": "occ",
				"energy": -0.26624,
				"method": "rhf"
			},
			{
				"type": "occ",
				"energy": -0.22347,
				"method": "rhf"
			},
			{
				"type": "occ",
				"energy": -0.20344,
				"method": "rhf"
			},
			{
				"type": "unocc",
				"energy": 0.03995,
				"method": "rhf"
			},
			{
				"type": "unocc",
				"energy": 0.07063,
				"method": "rhf"
			},
			{
				"type": "unocc",
				"energy": 0.08306,
				"method": "rhf"
			},
			{
				"type": "unocc",
				"energy": 0.11395,
				"method": "rhf"
			},
			{
				"type": "unocc",
				"energy": 0.11816,
				"method": "rhf"
			}
		],
		"cosmo_sigma_profile": { 
			"-0.025": 0.0,
			"-0.024": 0.0,
			"-0.023": 0.0,
			"-0.022": 0.0,
			"-0.021": 0.0,
			"-0.02": 0.0,
			"-0.019": 0.0,
			"-0.018": 0.0,
			"-0.017": 0.0,
			"-0.016": 0.0,
			"-0.015": 0.0,
			"-0.014": 0.0,
			"-0.013": 0.875667703141,
			"-0.012": 2.85468224376,
			"-0.011": 3.06530615306,
			"-0.01": 2.69049286725,
			"-0.009": 3.20484897393,
			"-0.008": 2.09237628574,
			"-0.007": 1.77143992741,
			"-0.006": 4.58675886846,
			"-0.005": 10.2269041946,
			"-0.004": 9.65565360413,
			"-0.003": 14.2622695798,
			"-0.002": 23.6942232395,
			"-0.001": 21.7362905031,
			"0.0": 21.1237418261,
			"0.001": 18.2556757296,
			"0.002": 11.4915576908,
			"0.003": 6.52665295936,
			"0.004": 6.25964297965,
			"0.005": 8.00991819688,
			"0.006": 7.1943810257,
			"0.007": 5.58239413337,
			"0.008": 2.53779315084,
			"0.009": 2.585916752,
			"0.01": 2.16270210453,
			"0.011": 1.5935827778,
			"0.012": 1.07949749378,
			"0.013": 1.92333412554,
			"0.014": 1.66761722788,
			"0.015": 0.705656549811,
			"0.016": 0.812144246708,
			"0.017": 0.845208018407,
			"0.018": 0.163130452358,
			"0.019": 0.0,
			"0.02": 0.0,
			"0.021": 0.0,
			"0.022": 0.0,
			"0.023": 0.0,
			"0.024": 0.0,
			"0.025": 0.0
		}
	}
}
