{
	 "smiles": "CCOC1=C(C=CC=C1)N1CC(CC1=O)C(O)=O", 
	 "Tm": 379.15, 
	 "num_atms": 33, 
	 "gaussian": { 
		 "optdone": 1, 
		 "sigma_profile": "yes", 
		 "theory": "DFT", 
		 "functional": "B3LYP", 
		 "basiset": "6-31G**", 
		 "properties": { 
			 "R2extent": 5930.1218, 
			 "electric_dipole_moment_norm": 2.00881897144, 
			 "electric_quadrupole_moment_norm": 28.0241003822, 
			 "total_energy": -860.086415034, 
			 "HOMO_LUMO_gap": 0.20368, 
			 "cosmo_polarized_energy": -22.76, 
			 "cosmo_cavitation_energy": 36.51, 
			 "cosmo_dispersion_energy": -25.26, 
			 "cosmo_repulsion_energy": 1.98, 
			 "cosmo_total_nonelectrostatic_energy": 13.24, 
			 "SMD_solvation_energy": 7.86 
		},
		"coords": [
			{
				"x": 0.8525427635,
				"y": 1.2571327842,
				"z": 2.3834909436,
				"element": "C" 
			},
			{
				"x": 1.1042902382,
				"y": -0.1876182674,
				"z": 1.9895488723,
				"element": "C" 
			},
			{
				"x": 0.2339787822,
				"y": -0.4962178078,
				"z": 0.8983296465,
				"element": "O" 
			},
			{
				"x": 0.2582979559,
				"y": -1.7533027373,
				"z": 0.367274779,
				"element": "C" 
			},
			{
				"x": -0.625958309,
				"y": -1.9977451802,
				"z": -0.7084042268,
				"element": "C" 
			},
			{
				"x": -0.687007795,
				"y": -3.276190063,
				"z": -1.2674786517,
				"element": "C" 
			},
			{
				"x": 0.1217101492,
				"y": -4.3069361843,
				"z": -0.7885006005,
				"element": "C" 
			},
			{
				"x": 1.0133274295,
				"y": -4.0540538558,
				"z": 0.2506410081,
				"element": "C" 
			},
			{
				"x": 1.0866778491,
				"y": -2.7836623932,
				"z": 0.8262000235,
				"element": "C" 
			},
			{
				"x": -1.4540435401,
				"y": -0.9589958621,
				"z": -1.2144872274,
				"element": "N" 
			},
			{
				"x": -0.9459489176,
				"y": 0.3727487764,
				"z": -1.5734241837,
				"element": "C" 
			},
			{
				"x": -2.0589329328,
				"y": 0.9503351773,
				"z": -2.4665016616,
				"element": "C" 
			},
			{
				"x": -3.3315585264,
				"y": 0.2309588504,
				"z": -1.9706227045,
				"element": "C" 
			},
			{
				"x": -2.8100197732,
				"y": -1.1060520862,
				"z": -1.4322140528,
				"element": "C" 
			},
			{
				"x": -3.4798104148,
				"y": -2.101765791,
				"z": -1.2275902612,
				"element": "O" 
			},
			{
				"x": -2.1288215098,
				"y": 2.4706139997,
				"z": -2.4181796806,
				"element": "C" 
			},
			{
				"x": -3.1136035502,
				"y": 3.0263480534,
				"z": -3.173284456,
				"element": "O" 
			},
			{
				"x": -1.3899886694,
				"y": 3.1742226803,
				"z": -1.7758022321,
				"element": "O" 
			},
			{
				"x": 1.4986123899,
				"y": 1.5331933588,
				"z": 3.2224757949,
				"element": "H" 
			},
			{
				"x": -0.1883450841,
				"y": 1.3984511478,
				"z": 2.6872229398,
				"element": "H" 
			},
			{
				"x": 1.0630005623,
				"y": 1.9308816028,
				"z": 1.548313366,
				"element": "H" 
			},
			{
				"x": 0.8978968502,
				"y": -0.8648582345,
				"z": 2.8295841374,
				"element": "H" 
			},
			{
				"x": 2.1497043849,
				"y": -0.3357998655,
				"z": 1.6849848537,
				"element": "H" 
			},
			{
				"x": -1.3873629964,
				"y": -3.4550214616,
				"z": -2.0744789959,
				"element": "H" 
			},
			{
				"x": 0.0577396924,
				"y": -5.2948654858,
				"z": -1.2330788544,
				"element": "H" 
			},
			{
				"x": 1.6568473959,
				"y": -4.8441316285,
				"z": 0.6263244811,
				"element": "H" 
			},
			{
				"x": 1.7776132201,
				"y": -2.606028836,
				"z": 1.641075596,
				"element": "H" 
			},
			{
				"x": 0.0087918253,
				"y": 0.286738815,
				"z": -2.099606372,
				"element": "H" 
			},
			{
				"x": -0.7912207289,
				"y": 0.998883032,
				"z": -0.6932856133,
				"element": "H" 
			},
			{
				"x": -1.8779440212,
				"y": 0.6581115367,
				"z": -3.5100355344,
				"element": "H" 
			},
			{
				"x": -4.0908993288,
				"y": 0.0501218948,
				"z": -2.7353719903,
				"element": "H" 
			},
			{
				"x": -3.8091832296,
				"y": 0.7705625489,
				"z": -1.1435932567,
				"element": "H" 
			},
			{
				"x": -3.6252821611,
				"y": 2.3371414816,
				"z": -3.6207258858,
				"element": "H" 
			}
		],
		 "valence_orbital": [ 
			{
				"type": "occ",
				"energy": -0.28473,
				"method": "rhf"
			},
			{
				"type": "occ",
				"energy": -0.27654,
				"method": "rhf"
			},
			{
				"type": "occ",
				"energy": -0.25112,
				"method": "rhf"
			},
			{
				"type": "occ",
				"energy": -0.23702,
				"method": "rhf"
			},
			{
				"type": "occ",
				"energy": -0.21571,
				"method": "rhf"
			},
			{
				"type": "unocc",
				"energy": -0.01203,
				"method": "rhf"
			},
			{
				"type": "unocc",
				"energy": -0.00082,
				"method": "rhf"
			},
			{
				"type": "unocc",
				"energy": 0.00844,
				"method": "rhf"
			},
			{
				"type": "unocc",
				"energy": 0.02766,
				"method": "rhf"
			},
			{
				"type": "unocc",
				"energy": 0.04539,
				"method": "rhf"
			}
		],
		"cosmo_sigma_profile": { 
			"-0.025": 0.0,
			"-0.024": 0.0,
			"-0.023": 0.0,
			"-0.022": 0.0,
			"-0.021": 0.0,
			"-0.02": 0.0,
			"-0.019": 0.259277697735,
			"-0.018": 1.01927993183,
			"-0.017": 1.35961190467,
			"-0.016": 1.02274252423,
			"-0.015": 1.46103933249,
			"-0.014": 0.975715246442,
			"-0.013": 0.990370866292,
			"-0.012": 1.22328149532,
			"-0.011": 1.49681980827,
			"-0.01": 1.28532629047,
			"-0.009": 1.891759153,
			"-0.008": 4.88412658831,
			"-0.007": 10.0674437701,
			"-0.006": 16.289083977,
			"-0.005": 21.8633760365,
			"-0.004": 24.8029030745,
			"-0.003": 24.0795254563,
			"-0.002": 19.7050614855,
			"-0.001": 16.5368761904,
			"0.0": 19.3655088974,
			"0.001": 13.569941337,
			"0.002": 12.8963309512,
			"0.003": 11.7381030129,
			"0.004": 13.2201718211,
			"0.005": 13.0406852438,
			"0.006": 8.43183425294,
			"0.007": 5.27600621355,
			"0.008": 4.77450810646,
			"0.009": 5.52663964411,
			"0.01": 6.47447368091,
			"0.011": 7.22831023811,
			"0.012": 6.49127291839,
			"0.013": 6.34323217781,
			"0.014": 2.73121822417,
			"0.015": 0.145618851708,
			"0.016": 0.0,
			"0.017": 0.0,
			"0.018": 0.0,
			"0.019": 0.0,
			"0.02": 0.0,
			"0.021": 0.0,
			"0.022": 0.0,
			"0.023": 0.0,
			"0.024": 0.0,
			"0.025": 0.0
		}
	}
}
