{
	 "smiles": "NC(=O)C1=CC(Br)=C(N)C(Br)=C1", 
	 "Tm": 456.15, 
	 "num_atms": 18, 
	 "gaussian": { 
		 "optdone": 1, 
		 "sigma_profile": "yes", 
		 "theory": "DFT", 
		 "functional": "B3LYP", 
		 "basiset": "6-31G**", 
		 "properties": { 
			 "R2extent": 4956.1602, 
			 "electric_dipole_moment_norm": 3.36895035731, 
			 "electric_quadrupole_moment_norm": 16.7145145927, 
			 "total_energy": -5597.92199391, 
			 "HOMO_LUMO_gap": 0.18481, 
			 "cosmo_polarized_energy": -14.93, 
			 "cosmo_cavitation_energy": 26.88, 
			 "cosmo_dispersion_energy": -20.91, 
			 "cosmo_repulsion_energy": 1.67, 
			 "cosmo_total_nonelectrostatic_energy": 7.65, 
			 "SMD_solvation_energy": 3.08 
		},
		"coords": [
			{
				"x": 3.0976002854,
				"y": -0.7086631279,
				"z": -1.6944687413,
				"element": "N" 
			},
			{
				"x": 2.4670020372,
				"y": 0.5153282021,
				"z": -1.6797033167,
				"element": "C" 
			},
			{
				"x": 2.8517047863,
				"y": 1.446912868,
				"z": -2.3763328934,
				"element": "O" 
			},
			{
				"x": 1.305777207,
				"y": 0.655468887,
				"z": -0.7448618532,
				"element": "C" 
			},
			{
				"x": 0.4698659028,
				"y": 1.765856241,
				"z": -0.9172583289,
				"element": "C" 
			},
			{
				"x": -0.6225815,
				"y": 1.9553798842,
				"z": -0.0915366671,
				"element": "C" 
			},
			{
				"x": -1.7405682589,
				"y": 3.4868096733,
				"z": -0.3713646947,
				"element": "Br" 
			},
			{
				"x": -0.948143684,
				"y": 1.0638253004,
				"z": 0.959836701,
				"element": "C" 
			},
			{
				"x": -2.0519117416,
				"y": 1.2350549366,
				"z": 1.7446940645,
				"element": "N" 
			},
			{
				"x": -0.0676351425,
				"y": -0.0307175725,
				"z": 1.1218722876,
				"element": "C" 
			},
			{
				"x": -0.3926575054,
				"y": -1.2699715694,
				"z": 2.5485939188,
				"element": "Br" 
			},
			{
				"x": 1.0282808205,
				"y": -0.2368462683,
				"z": 0.2977711547,
				"element": "C" 
			},
			{
				"x": 2.5937986182,
				"y": -1.5419389237,
				"z": -1.432883074,
				"element": "H" 
			},
			{
				"x": 3.7964307007,
				"y": -0.8148716184,
				"z": -2.4161166367,
				"element": "H" 
			},
			{
				"x": 0.7017672272,
				"y": 2.4707650442,
				"z": -1.7065071382,
				"element": "H" 
			},
			{
				"x": -2.505417851,
				"y": 2.1355814305,
				"z": 1.7230804577,
				"element": "H" 
			},
			{
				"x": -2.1069661211,
				"y": 0.7051983795,
				"z": 2.6007979666,
				"element": "H" 
			},
			{
				"x": 1.6795542192,
				"y": -1.0786717666,
				"z": 0.5021867933,
				"element": "H" 
			}
		],
		 "valence_orbital": [ 
			{
				"type": "occ",
				"energy": -0.30001,
				"method": "rhf"
			},
			{
				"type": "occ",
				"energy": -0.27584,
				"method": "rhf"
			},
			{
				"type": "occ",
				"energy": -0.25548,
				"method": "rhf"
			},
			{
				"type": "occ",
				"energy": -0.25075,
				"method": "rhf"
			},
			{
				"type": "occ",
				"energy": -0.22269,
				"method": "rhf"
			},
			{
				"type": "unocc",
				"energy": -0.03788,
				"method": "rhf"
			},
			{
				"type": "unocc",
				"energy": -0.0262,
				"method": "rhf"
			},
			{
				"type": "unocc",
				"energy": -0.02251,
				"method": "rhf"
			},
			{
				"type": "unocc",
				"energy": 0.01843,
				"method": "rhf"
			},
			{
				"type": "unocc",
				"energy": 0.05476,
				"method": "rhf"
			}
		],
		"cosmo_sigma_profile": { 
			"-0.025": 0.0,
			"-0.024": 0.0,
			"-0.023": 0.0,
			"-0.022": 0.0,
			"-0.021": 0.0,
			"-0.02": 0.0,
			"-0.019": 0.0,
			"-0.018": 0.0,
			"-0.017": 0.0,
			"-0.016": 0.0,
			"-0.015": 0.157628915291,
			"-0.014": 1.65260854341,
			"-0.013": 3.29138344092,
			"-0.012": 4.34960950891,
			"-0.011": 4.64634729702,
			"-0.01": 4.78802727169,
			"-0.009": 4.19491400168,
			"-0.008": 4.26572727307,
			"-0.007": 4.03821841084,
			"-0.006": 4.9697114249,
			"-0.005": 6.53348468923,
			"-0.004": 9.04322219205,
			"-0.003": 8.77081812399,
			"-0.002": 10.8214680749,
			"-0.001": 13.6920646437,
			"0.0": 18.366799149,
			"0.001": 25.4226035104,
			"0.002": 28.0659336295,
			"0.003": 18.8076555237,
			"0.004": 17.1788721352,
			"0.005": 4.30667162053,
			"0.006": 3.16083985383,
			"0.007": 2.82825485067,
			"0.008": 2.58229449683,
			"0.009": 2.20254108272,
			"0.01": 1.47237334365,
			"0.011": 1.22345781369,
			"0.012": 2.30502761458,
			"0.013": 4.51400433138,
			"0.014": 3.57129115324,
			"0.015": 0.218399778552,
			"0.016": 0.0,
			"0.017": 0.0,
			"0.018": 0.0,
			"0.019": 0.0,
			"0.02": 0.0,
			"0.021": 0.0,
			"0.022": 0.0,
			"0.023": 0.0,
			"0.024": 0.0,
			"0.025": 0.0
		}
	}
}
