{
	 "smiles": "CC(C)CC1=CC=C(C=C1)C1(C)NC(=O)NC1=O", 
	 "Tm": 452.15, 
	 "num_atms": 36, 
	 "gaussian": { 
		 "optdone": 1, 
		 "sigma_profile": "yes", 
		 "theory": "DFT", 
		 "functional": "B3LYP", 
		 "basiset": "6-31G**", 
		 "properties": { 
			 "R2extent": 5962.0581, 
			 "electric_dipole_moment_norm": 2.68856646561, 
			 "electric_quadrupole_moment_norm": 12.2659545609, 
			 "total_energy": -804.351428051, 
			 "HOMO_LUMO_gap": 0.21947, 
			 "cosmo_polarized_energy": -16.09, 
			 "cosmo_cavitation_energy": 38.15, 
			 "cosmo_dispersion_energy": -26.33, 
			 "cosmo_repulsion_energy": 2.06, 
			 "cosmo_total_nonelectrostatic_energy": 13.87, 
			 "SMD_solvation_energy": 7.92 
		},
		"coords": [
			{
				"x": 3.5274590509,
				"y": 1.8206227432,
				"z": 1.0998922651,
				"element": "C" 
			},
			{
				"x": 3.8329604092,
				"y": 1.3061811072,
				"z": -0.3136708961,
				"element": "C" 
			},
			{
				"x": 3.3214651233,
				"y": 2.2841937543,
				"z": -1.3804641765,
				"element": "C" 
			},
			{
				"x": 3.3227148264,
				"y": -0.1458989522,
				"z": -0.5418666605,
				"element": "C" 
			},
			{
				"x": 1.8236868766,
				"y": -0.345220452,
				"z": -0.4543388682,
				"element": "C" 
			},
			{
				"x": 1.0043578216,
				"y": -0.2154602761,
				"z": -1.5860191036,
				"element": "C" 
			},
			{
				"x": -0.3751607673,
				"y": -0.3934533646,
				"z": -1.5106045785,
				"element": "C" 
			},
			{
				"x": -0.987706612,
				"y": -0.7107107088,
				"z": -0.2895536691,
				"element": "C" 
			},
			{
				"x": -0.1810170135,
				"y": -0.8360507475,
				"z": 0.8454179052,
				"element": "C" 
			},
			{
				"x": 1.2012279358,
				"y": -0.6627386932,
				"z": 0.7595852156,
				"element": "C" 
			},
			{
				"x": -2.5035044424,
				"y": -0.9343931749,
				"z": -0.2271647316,
				"element": "C" 
			},
			{
				"x": -2.9431268339,
				"y": -2.0930682967,
				"z": -1.1464925836,
				"element": "C" 
			},
			{
				"x": -2.9998842109,
				"y": -1.1183664633,
				"z": 1.1357195958,
				"element": "N" 
			},
			{
				"x": -3.9539709397,
				"y": -0.2055526783,
				"z": 1.511938876,
				"element": "C" 
			},
			{
				"x": -4.6049430535,
				"y": -0.1681979363,
				"z": 2.5345472165,
				"element": "O" 
			},
			{
				"x": -4.0355833892,
				"y": 0.7101611562,
				"z": 0.4418714421,
				"element": "N" 
			},
			{
				"x": -3.2619317604,
				"y": 0.357926517,
				"z": -0.6409443113,
				"element": "C" 
			},
			{
				"x": -3.1993954828,
				"y": 0.9241247148,
				"z": -1.711564059,
				"element": "O" 
			},
			{
				"x": 3.9320584099,
				"y": 1.1507501978,
				"z": 1.8672945234,
				"element": "H" 
			},
			{
				"x": 2.4489016643,
				"y": 1.9094276705,
				"z": 1.2675361577,
				"element": "H" 
			},
			{
				"x": 3.9702653962,
				"y": 2.8102397398,
				"z": 1.2557712931,
				"element": "H" 
			},
			{
				"x": 4.9262563778,
				"y": 1.2485294982,
				"z": -0.4151889049,
				"element": "H" 
			},
			{
				"x": 2.2333535693,
				"y": 2.3969309746,
				"z": -1.330303224,
				"element": "H" 
			},
			{
				"x": 3.7646376855,
				"y": 3.2760002822,
				"z": -1.2402250474,
				"element": "H" 
			},
			{
				"x": 3.5771415924,
				"y": 1.9459022807,
				"z": -2.3911187745,
				"element": "H" 
			},
			{
				"x": 3.8123779594,
				"y": -0.7968209242,
				"z": 0.1931022674,
				"element": "H" 
			},
			{
				"x": 3.6692179489,
				"y": -0.4761892967,
				"z": -1.5290118026,
				"element": "H" 
			},
			{
				"x": 1.4544206178,
				"y": 0.0249394204,
				"z": -2.5456712195,
				"element": "H" 
			},
			{
				"x": -0.9819513187,
				"y": -0.2586221536,
				"z": -2.3993506938,
				"element": "H" 
			},
			{
				"x": -0.6316838072,
				"y": -1.0640074284,
				"z": 1.8054281781,
				"element": "H" 
			},
			{
				"x": 1.805572894,
				"y": -0.7804280946,
				"z": 1.6553651189,
				"element": "H" 
			},
			{
				"x": -4.0254504948,
				"y": -2.2425529748,
				"z": -1.0857603783,
				"element": "H" 
			},
			{
				"x": -2.439722332,
				"y": -3.0177842432,
				"z": -0.8483244158,
				"element": "H" 
			},
			{
				"x": -2.6799021576,
				"y": -1.876351433,
				"z": -2.1834079818,
				"element": "H" 
			},
			{
				"x": -2.9230748748,
				"y": -1.985904337,
				"z": 1.644342406,
				"element": "H" 
			},
			{
				"x": -4.6608666683,
				"y": 1.5031425728,
				"z": 0.45873362,
				"element": "H" 
			}
		],
		 "valence_orbital": [ 
			{
				"type": "occ",
				"energy": -0.28924,
				"method": "rhf"
			},
			{
				"type": "occ",
				"energy": -0.27245,
				"method": "rhf"
			},
			{
				"type": "occ",
				"energy": -0.26459,
				"method": "rhf"
			},
			{
				"type": "occ",
				"energy": -0.25213,
				"method": "rhf"
			},
			{
				"type": "occ",
				"energy": -0.23965,
				"method": "rhf"
			},
			{
				"type": "unocc",
				"energy": -0.02018,
				"method": "rhf"
			},
			{
				"type": "unocc",
				"energy": -0.00564,
				"method": "rhf"
			},
			{
				"type": "unocc",
				"energy": 0.00283,
				"method": "rhf"
			},
			{
				"type": "unocc",
				"energy": 0.05864,
				"method": "rhf"
			},
			{
				"type": "unocc",
				"energy": 0.07238,
				"method": "rhf"
			}
		],
		"cosmo_sigma_profile": { 
			"-0.025": 0.0,
			"-0.024": 0.0,
			"-0.023": 0.0,
			"-0.022": 0.0,
			"-0.021": 0.0,
			"-0.02": 0.0,
			"-0.019": 0.0,
			"-0.018": 0.0,
			"-0.017": 0.419532719096,
			"-0.016": 1.34723260333,
			"-0.015": 1.79133087491,
			"-0.014": 2.58754405812,
			"-0.013": 1.7989335651,
			"-0.012": 1.2482333691,
			"-0.011": 2.1786681998,
			"-0.01": 1.91121996477,
			"-0.009": 2.22000366919,
			"-0.008": 2.50429290755,
			"-0.007": 2.89074194394,
			"-0.006": 5.04259429107,
			"-0.005": 12.2055292023,
			"-0.004": 16.2198778808,
			"-0.003": 26.4020068695,
			"-0.002": 35.8538126711,
			"-0.001": 34.814636352,
			"0.0": 32.4135349443,
			"0.001": 27.5157011808,
			"0.002": 19.6431764508,
			"0.003": 9.24452759,
			"0.004": 8.98104156305,
			"0.005": 11.0600776003,
			"0.006": 6.38748294548,
			"0.007": 2.45908680791,
			"0.008": 2.45045682514,
			"0.009": 3.23340660382,
			"0.01": 3.44496154444,
			"0.011": 5.37131176441,
			"0.012": 8.035238203,
			"0.013": 6.4965476771,
			"0.014": 0.75067886181,
			"0.015": 0.0,
			"0.016": 0.0,
			"0.017": 0.0,
			"0.018": 0.0,
			"0.019": 0.0,
			"0.02": 0.0,
			"0.021": 0.0,
			"0.022": 0.0,
			"0.023": 0.0,
			"0.024": 0.0,
			"0.025": 0.0
		}
	}
}
