{
	 "smiles": "CN1C(CO)=NC2=C1C=CC(=C2)C(F)(F)F", 
	 "Tm": 444.15, 
	 "num_atms": 25, 
	 "gaussian": { 
		 "optdone": 1, 
		 "sigma_profile": "yes", 
		 "theory": "DFT", 
		 "functional": "B3LYP", 
		 "basiset": "6-31G**", 
		 "properties": { 
			 "R2extent": 5584.8385, 
			 "electric_dipole_moment_norm": 4.63226254113, 
			 "electric_quadrupole_moment_norm": 12.5237250433, 
			 "total_energy": -870.7480942, 
			 "HOMO_LUMO_gap": 0.20309, 
			 "cosmo_polarized_energy": -12.75, 
			 "cosmo_cavitation_energy": 30.42, 
			 "cosmo_dispersion_energy": -21.76, 
			 "cosmo_repulsion_energy": 1.62, 
			 "cosmo_total_nonelectrostatic_energy": 10.28, 
			 "SMD_solvation_energy": 4.35 
		},
		"coords": [
			{
				"x": 1.1442387255,
				"y": 0.4966797517,
				"z": 1.7334917306,
				"element": "C" 
			},
			{
				"x": 0.1416548305,
				"y": -0.1936505894,
				"z": 0.93538306,
				"element": "N" 
			},
			{
				"x": -0.3445794597,
				"y": -1.4785425427,
				"z": 1.1183786606,
				"element": "C" 
			},
			{
				"x": 0.1105406674,
				"y": -2.3729738292,
				"z": 2.2354672811,
				"element": "C" 
			},
			{
				"x": -0.0765845164,
				"y": -1.8021076907,
				"z": 3.5298121504,
				"element": "O" 
			},
			{
				"x": -1.2417183875,
				"y": -1.8292314677,
				"z": 0.2237865928,
				"element": "N" 
			},
			{
				"x": -1.3581959131,
				"y": -0.7335786091,
				"z": -0.6144870223,
				"element": "C" 
			},
			{
				"x": -0.4958485638,
				"y": 0.3041891919,
				"z": -0.1847164605,
				"element": "C" 
			},
			{
				"x": -0.4101512542,
				"y": 1.5302830232,
				"z": -0.8522226435,
				"element": "C" 
			},
			{
				"x": -1.2194499674,
				"y": 1.6951978226,
				"z": -1.968805425,
				"element": "C" 
			},
			{
				"x": -2.0861740237,
				"y": 0.6686674089,
				"z": -2.4065860363,
				"element": "C" 
			},
			{
				"x": -2.1677270416,
				"y": -0.550411434,
				"z": -1.7403899552,
				"element": "C" 
			},
			{
				"x": -2.9615809904,
				"y": 0.9413643312,
				"z": -3.5972457786,
				"element": "C" 
			},
			{
				"x": -3.5239650327,
				"y": -0.1826480737,
				"z": -4.0913381764,
				"element": "F" 
			},
			{
				"x": -3.974541003,
				"y": 1.7896480746,
				"z": -3.2928789344,
				"element": "F" 
			},
			{
				"x": -2.268909357,
				"y": 1.5239869027,
				"z": -4.605510247,
				"element": "F" 
			},
			{
				"x": 0.8513130652,
				"y": 1.5425652363,
				"z": 1.8599948364,
				"element": "H" 
			},
			{
				"x": 2.1282758733,
				"y": 0.4629413722,
				"z": 1.2528793907,
				"element": "H" 
			},
			{
				"x": 1.1935233906,
				"y": 0.0291001597,
				"z": 2.7164982678,
				"element": "H" 
			},
			{
				"x": 1.1852130293,
				"y": -2.5724032298,
				"z": 2.1600980862,
				"element": "H" 
			},
			{
				"x": -0.4176328761,
				"y": -3.3260157422,
				"z": 2.1169007621,
				"element": "H" 
			},
			{
				"x": -1.0257271869,
				"y": -1.6665780418,
				"z": 3.654415567,
				"element": "H" 
			},
			{
				"x": 0.2602666941,
				"y": 2.3196191239,
				"z": -0.5278944234,
				"element": "H" 
			},
			{
				"x": -1.1816305716,
				"y": 2.6250260092,
				"z": -2.5263307823,
				"element": "H" 
			},
			{
				"x": -2.8300101308,
				"y": -1.3374271577,
				"z": -2.0807005009,
				"element": "H" 
			}
		],
		 "valence_orbital": [ 
			{
				"type": "occ",
				"energy": -0.30824,
				"method": "rhf"
			},
			{
				"type": "occ",
				"energy": -0.29842,
				"method": "rhf"
			},
			{
				"type": "occ",
				"energy": -0.27957,
				"method": "rhf"
			},
			{
				"type": "occ",
				"energy": -0.23974,
				"method": "rhf"
			},
			{
				"type": "occ",
				"energy": -0.23617,
				"method": "rhf"
			},
			{
				"type": "unocc",
				"energy": -0.03308,
				"method": "rhf"
			},
			{
				"type": "unocc",
				"energy": -0.00509,
				"method": "rhf"
			},
			{
				"type": "unocc",
				"energy": 0.03205,
				"method": "rhf"
			},
			{
				"type": "unocc",
				"energy": 0.07406,
				"method": "rhf"
			},
			{
				"type": "unocc",
				"energy": 0.09007,
				"method": "rhf"
			}
		],
		"cosmo_sigma_profile": { 
			"-0.025": 0.0,
			"-0.024": 0.0,
			"-0.023": 0.0,
			"-0.022": 0.0,
			"-0.021": 0.0,
			"-0.02": 0.0,
			"-0.019": 0.0,
			"-0.018": 0.0,
			"-0.017": 0.169624556764,
			"-0.016": 1.15009144098,
			"-0.015": 0.893408854697,
			"-0.014": 0.848702599136,
			"-0.013": 0.626738184449,
			"-0.012": 1.15629902617,
			"-0.011": 1.36171837524,
			"-0.01": 0.46767722626,
			"-0.009": 0.991319519203,
			"-0.008": 0.868134183981,
			"-0.007": 8.27852521183,
			"-0.006": 15.7761890931,
			"-0.005": 15.7253458906,
			"-0.004": 18.8192424923,
			"-0.003": 17.1773611619,
			"-0.002": 11.6881445856,
			"-0.001": 10.1919361895,
			"0.0": 14.2944999337,
			"0.001": 14.5474988178,
			"0.002": 22.043520907,
			"0.003": 45.3932483801,
			"0.004": 16.0456217941,
			"0.005": 3.91321710809,
			"0.006": 1.98838625823,
			"0.007": 1.88348469034,
			"0.008": 2.87608371389,
			"0.009": 2.23758139258,
			"0.01": 1.74368126383,
			"0.011": 1.40533253716,
			"0.012": 2.5546026377,
			"0.013": 2.31340637455,
			"0.014": 1.02343830008,
			"0.015": 0.821781684424,
			"0.016": 0.870552023283,
			"0.017": 0.634629773878,
			"0.018": 0.0300895855919,
			"0.019": 0.0,
			"0.02": 0.0,
			"0.021": 0.0,
			"0.022": 0.0,
			"0.023": 0.0,
			"0.024": 0.0,
			"0.025": 0.0
		}
	}
}
