{
	 "smiles": "CCC(=N/NC(N)=O)C1CC2(C)CCC1C2(C)C", 
	 "Tm": 495.15, 
	 "num_atms": 43, 
	 "gaussian": { 
		 "optdone": 1, 
		 "sigma_profile": "yes", 
		 "theory": "DFT", 
		 "functional": "B3LYP", 
		 "basiset": "6-31G**", 
		 "properties": { 
			 "R2extent": 5610.2306, 
			 "electric_dipole_moment_norm": 2.82376787467, 
			 "electric_quadrupole_moment_norm": 21.4330132053, 
			 "total_energy": -788.03170075, 
			 "HOMO_LUMO_gap": 0.22815, 
			 "cosmo_polarized_energy": -14.73, 
			 "cosmo_cavitation_energy": 39.92, 
			 "cosmo_dispersion_energy": -27.82, 
			 "cosmo_repulsion_energy": 2.14, 
			 "cosmo_total_nonelectrostatic_energy": 14.24, 
			 "SMD_solvation_energy": 6.68 
		},
		"coords": [
			{
				"x": 1.0200218038,
				"y": 2.9012692776,
				"z": -2.2504864011,
				"element": "C" 
			},
			{
				"x": -0.0702690737,
				"y": 1.8166438045,
				"z": -2.183184068,
				"element": "C" 
			},
			{
				"x": 0.3757998756,
				"y": 0.5147022392,
				"z": -1.5477422274,
				"element": "C" 
			},
			{
				"x": 0.4304817539,
				"y": -0.6388337579,
				"z": -2.1104847063,
				"element": "N" 
			},
			{
				"x": 0.1023669666,
				"y": -0.715822413,
				"z": -3.4874914164,
				"element": "N" 
			},
			{
				"x": 1.0144689311,
				"y": -0.2371534812,
				"z": -4.4379069094,
				"element": "C" 
			},
			{
				"x": 0.8103854791,
				"y": -0.7965976283,
				"z": -5.694811983,
				"element": "N" 
			},
			{
				"x": 1.8990155239,
				"y": 0.5699327997,
				"z": -4.2075130827,
				"element": "O" 
			},
			{
				"x": 0.8102556518,
				"y": 0.5791285231,
				"z": -0.0914436257,
				"element": "C" 
			},
			{
				"x": -0.2126544567,
				"y": 1.2496896609,
				"z": 0.8944563141,
				"element": "C" 
			},
			{
				"x": -0.240682995,
				"y": 0.2848990392,
				"z": 2.1095154704,
				"element": "C" 
			},
			{
				"x": -1.3977494021,
				"y": 0.541857893,
				"z": 3.0678135274,
				"element": "C" 
			},
			{
				"x": 1.163242739,
				"y": 0.373120761,
				"z": 2.7753327047,
				"element": "C" 
			},
			{
				"x": 2.0979594169,
				"y": -0.3875662367,
				"z": 1.7831422308,
				"element": "C" 
			},
			{
				"x": 1.1388594977,
				"y": -0.7612369738,
				"z": 0.6273209558,
				"element": "C" 
			},
			{
				"x": -0.1757098068,
				"y": -1.1163415023,
				"z": 1.3954381089,
				"element": "C" 
			},
			{
				"x": -0.0249164149,
				"y": -2.3119239157,
				"z": 2.3575568946,
				"element": "C" 
			},
			{
				"x": -1.3882263695,
				"y": -1.4347992389,
				"z": 0.5012836395,
				"element": "C" 
			},
			{
				"x": 1.8727359269,
				"y": 2.5413651452,
				"z": -2.8281788319,
				"element": "H" 
			},
			{
				"x": 1.3621970993,
				"y": 3.1942228999,
				"z": -1.2527235204,
				"element": "H" 
			},
			{
				"x": 0.6240431734,
				"y": 3.7982260147,
				"z": -2.7374854481,
				"element": "H" 
			},
			{
				"x": -0.4577189784,
				"y": 1.615723628,
				"z": -3.1832890205,
				"element": "H" 
			},
			{
				"x": -0.9101277634,
				"y": 2.1967287446,
				"z": -1.586453385,
				"element": "H" 
			},
			{
				"x": -0.1755843735,
				"y": -1.671572857,
				"z": -3.6796308573,
				"element": "H" 
			},
			{
				"x": -0.1323212002,
				"y": -1.0669409124,
				"z": -5.9407933247,
				"element": "H" 
			},
			{
				"x": 1.3033252535,
				"y": -0.2998803069,
				"z": -6.4233528784,
				"element": "H" 
			},
			{
				"x": 1.7219489301,
				"y": 1.191046383,
				"z": -0.1118526656,
				"element": "H" 
			},
			{
				"x": 0.0908228013,
				"y": 2.2602268013,
				"z": 1.1884585548,
				"element": "H" 
			},
			{
				"x": -1.2102549602,
				"y": 1.3360118037,
				"z": 0.4527855796,
				"element": "H" 
			},
			{
				"x": -2.3667073616,
				"y": 0.4647404134,
				"z": 2.561935501,
				"element": "H" 
			},
			{
				"x": -1.3331590495,
				"y": 1.5473660334,
				"z": 3.5003742186,
				"element": "H" 
			},
			{
				"x": -1.394416248,
				"y": -0.1716464256,
				"z": 3.8993898717,
				"element": "H" 
			},
			{
				"x": 1.1584803879,
				"y": -0.0929925398,
				"z": 3.7660884224,
				"element": "H" 
			},
			{
				"x": 1.4633370637,
				"y": 1.4164980311,
				"z": 2.922469399,
				"element": "H" 
			},
			{
				"x": 2.5341833124,
				"y": -1.2779612488,
				"z": 2.2446037889,
				"element": "H" 
			},
			{
				"x": 2.9340458986,
				"y": 0.226934923,
				"z": 1.4345591796,
				"element": "H" 
			},
			{
				"x": 1.515639263,
				"y": -1.5307617362,
				"z": -0.0471224779,
				"element": "H" 
			},
			{
				"x": 0.1886008643,
				"y": -3.2257772476,
				"z": 1.7913884962,
				"element": "H" 
			},
			{
				"x": 0.7684744994,
				"y": -2.1922209038,
				"z": 3.0972262088,
				"element": "H" 
			},
			{
				"x": -0.9585408446,
				"y": -2.4830863246,
				"z": 2.9051684575,
				"element": "H" 
			},
			{
				"x": -1.2093513158,
				"y": -2.3584137945,
				"z": -0.0586245769,
				"element": "H" 
			},
			{
				"x": -1.6170220177,
				"y": -0.6618932032,
				"z": -0.2318916398,
				"element": "H" 
			},
			{
				"x": -2.2830794817,
				"y": -1.5893121716,
				"z": 1.1156555224,
				"element": "H" 
			}
		],
		 "valence_orbital": [ 
			{
				"type": "occ",
				"energy": -0.27972,
				"method": "rhf"
			},
			{
				"type": "occ",
				"energy": -0.27501,
				"method": "rhf"
			},
			{
				"type": "occ",
				"energy": -0.26942,
				"method": "rhf"
			},
			{
				"type": "occ",
				"energy": -0.25645,
				"method": "rhf"
			},
			{
				"type": "occ",
				"energy": -0.22059,
				"method": "rhf"
			},
			{
				"type": "unocc",
				"energy": 0.00756,
				"method": "rhf"
			},
			{
				"type": "unocc",
				"energy": 0.04673,
				"method": "rhf"
			},
			{
				"type": "unocc",
				"energy": 0.06717,
				"method": "rhf"
			},
			{
				"type": "unocc",
				"energy": 0.07568,
				"method": "rhf"
			},
			{
				"type": "unocc",
				"energy": 0.09393,
				"method": "rhf"
			}
		],
		"cosmo_sigma_profile": { 
			"-0.025": 0.0,
			"-0.024": 0.0,
			"-0.023": 0.0,
			"-0.022": 0.0,
			"-0.021": 0.0,
			"-0.02": 0.0,
			"-0.019": 0.0,
			"-0.018": 0.0,
			"-0.017": 0.0,
			"-0.016": 0.0,
			"-0.015": 0.0980071335969,
			"-0.014": 2.60040836597,
			"-0.013": 4.04890244339,
			"-0.012": 3.04372205052,
			"-0.011": 3.15132599884,
			"-0.01": 3.36036516671,
			"-0.009": 2.42776998571,
			"-0.008": 2.0189268611,
			"-0.007": 2.23996182989,
			"-0.006": 1.8825294767,
			"-0.005": 2.51276690979,
			"-0.004": 7.02982063634,
			"-0.003": 20.4712353767,
			"-0.002": 40.1556980822,
			"-0.001": 48.7622515137,
			"0.0": 41.8736500319,
			"0.001": 40.5175878305,
			"0.002": 29.258965719,
			"0.003": 7.44580713524,
			"0.004": 5.4157161337,
			"0.005": 5.33078732859,
			"0.006": 4.61765507607,
			"0.007": 4.59560894164,
			"0.008": 4.61868337656,
			"0.009": 3.9386731008,
			"0.01": 3.86707651169,
			"0.011": 3.63238009205,
			"0.012": 2.77555162041,
			"0.013": 2.96106172089,
			"0.014": 2.54584176955,
			"0.015": 0.259110367391,
			"0.016": 0.0,
			"0.017": 0.0,
			"0.018": 0.0,
			"0.019": 0.0,
			"0.02": 0.0,
			"0.021": 0.0,
			"0.022": 0.0,
			"0.023": 0.0,
			"0.024": 0.0,
			"0.025": 0.0
		}
	}
}
