{
	 "smiles": "CC(C)(C)C1=CC=C(OCC#N)C=C1", 
	 "Tm": 342.15, 
	 "num_atms": 29, 
	 "gaussian": { 
		 "optdone": 1, 
		 "sigma_profile": "yes", 
		 "theory": "DFT", 
		 "functional": "B3LYP", 
		 "basiset": "6-31G**", 
		 "properties": { 
			 "R2extent": 5326.6466, 
			 "electric_dipole_moment_norm": 3.23136551631, 
			 "electric_quadrupole_moment_norm": 22.2451170604, 
			 "total_energy": -596.267140689, 
			 "HOMO_LUMO_gap": 0.21742, 
			 "cosmo_polarized_energy": -10.47, 
			 "cosmo_cavitation_energy": 31.98, 
			 "cosmo_dispersion_energy": -22.2, 
			 "cosmo_repulsion_energy": 1.74, 
			 "cosmo_total_nonelectrostatic_energy": 11.52, 
			 "SMD_solvation_energy": 7.29 
		},
		"coords": [
			{
				"x": -0.6403141581,
				"y": -1.6968527083,
				"z": -1.3270063826,
				"element": "C" 
			},
			{
				"x": 0.3489021454,
				"y": -0.5454021886,
				"z": -1.0270611536,
				"element": "C" 
			},
			{
				"x": -0.2021687841,
				"y": 0.7711252395,
				"z": -1.6249607498,
				"element": "C" 
			},
			{
				"x": 1.684807741,
				"y": -0.8666214264,
				"z": -1.7235412102,
				"element": "C" 
			},
			{
				"x": 0.5085650999,
				"y": -0.3898757308,
				"z": 0.4957778692,
				"element": "C" 
			},
			{
				"x": 1.7325183572,
				"y": -0.5326236618,
				"z": 1.1551369481,
				"element": "C" 
			},
			{
				"x": 1.8549006009,
				"y": -0.3886864248,
				"z": 2.543243791,
				"element": "C" 
			},
			{
				"x": 0.7262582619,
				"y": -0.0899090213,
				"z": 3.3030976218,
				"element": "C" 
			},
			{
				"x": 0.7138603585,
				"y": 0.0859723635,
				"z": 4.6732675581,
				"element": "O" 
			},
			{
				"x": 1.9432226168,
				"y": 0.1082828337,
				"z": 5.3640416388,
				"element": "C" 
			},
			{
				"x": 2.5366789568,
				"y": -1.2316163894,
				"z": 5.5565204239,
				"element": "C" 
			},
			{
				"x": 3.0086808993,
				"y": -2.2786238403,
				"z": 5.7205526401,
				"element": "N" 
			},
			{
				"x": -0.5146366471,
				"y": 0.0547367499,
				"z": 2.6727026708,
				"element": "C" 
			},
			{
				"x": -0.6120489093,
				"y": -0.0942304603,
				"z": 1.2961084105,
				"element": "C" 
			},
			{
				"x": -1.6269712615,
				"y": -1.5099795865,
				"z": -0.8924618353,
				"element": "H" 
			},
			{
				"x": -0.7709083117,
				"y": -1.8164620237,
				"z": -2.4085488743,
				"element": "H" 
			},
			{
				"x": -0.271810688,
				"y": -2.6449433033,
				"z": -0.9219474489,
				"element": "H" 
			},
			{
				"x": -1.174699848,
				"y": 1.0363318611,
				"z": -1.1994328332,
				"element": "H" 
			},
			{
				"x": -0.3293147936,
				"y": 0.6746951962,
				"z": -2.7092043766,
				"element": "H" 
			},
			{
				"x": 0.4829489039,
				"y": 1.6041535937,
				"z": -1.4359444655,
				"element": "H" 
			},
			{
				"x": 1.5236997749,
				"y": -0.9668108879,
				"z": -2.8017467789,
				"element": "H" 
			},
			{
				"x": 2.1149981412,
				"y": -1.8080442175,
				"z": -1.3662186949,
				"element": "H" 
			},
			{
				"x": 2.4242358964,
				"y": -0.0728733408,
				"z": -1.5735783847,
				"element": "H" 
			},
			{
				"x": 2.6300323238,
				"y": -0.7689251762,
				"z": 0.5955628196,
				"element": "H" 
			},
			{
				"x": 2.8267653913,
				"y": -0.5355164717,
				"z": 3.0003416253,
				"element": "H" 
			},
			{
				"x": 2.6796513462,
				"y": 0.7540158811,
				"z": 4.8668771216,
				"element": "H" 
			},
			{
				"x": 1.7278626909,
				"y": 0.5329916245,
				"z": 6.3486959856,
				"element": "H" 
			},
			{
				"x": -1.385341153,
				"y": 0.2851217672,
				"z": 3.2779712291,
				"element": "H" 
			},
			{
				"x": -1.588474952,
				"y": 0.0252697493,
				"z": 0.836054835,
				"element": "H" 
			}
		],
		 "valence_orbital": [ 
			{
				"type": "occ",
				"energy": -0.3255,
				"method": "rhf"
			},
			{
				"type": "occ",
				"energy": -0.32079,
				"method": "rhf"
			},
			{
				"type": "occ",
				"energy": -0.31768,
				"method": "rhf"
			},
			{
				"type": "occ",
				"energy": -0.25486,
				"method": "rhf"
			},
			{
				"type": "occ",
				"energy": -0.22592,
				"method": "rhf"
			},
			{
				"type": "unocc",
				"energy": -0.0085,
				"method": "rhf"
			},
			{
				"type": "unocc",
				"energy": 0.00406,
				"method": "rhf"
			},
			{
				"type": "unocc",
				"energy": 0.00612,
				"method": "rhf"
			},
			{
				"type": "unocc",
				"energy": 0.02944,
				"method": "rhf"
			},
			{
				"type": "unocc",
				"energy": 0.07642,
				"method": "rhf"
			}
		],
		"cosmo_sigma_profile": { 
			"-0.025": 0.0,
			"-0.024": 0.0,
			"-0.023": 0.0,
			"-0.022": 0.0,
			"-0.021": 0.0,
			"-0.02": 0.0,
			"-0.019": 0.0,
			"-0.018": 0.0,
			"-0.017": 0.0,
			"-0.016": 0.0,
			"-0.015": 0.0,
			"-0.014": 0.0,
			"-0.013": 0.0,
			"-0.012": 0.0,
			"-0.011": 0.841007000093,
			"-0.01": 5.21767191184,
			"-0.009": 5.8591725727,
			"-0.008": 5.29467822409,
			"-0.007": 4.92870376049,
			"-0.006": 5.4848036227,
			"-0.005": 9.55760436242,
			"-0.004": 10.7238858017,
			"-0.003": 20.7658365363,
			"-0.002": 25.2378554389,
			"-0.001": 23.0676289512,
			"0.0": 21.9755179047,
			"0.001": 29.997108195,
			"0.002": 19.0427651828,
			"0.003": 11.9299598594,
			"0.004": 11.6917276228,
			"0.005": 12.1400456943,
			"0.006": 8.14911135457,
			"0.007": 4.56170483251,
			"0.008": 4.53854809452,
			"0.009": 3.89004864801,
			"0.01": 2.75655841876,
			"0.011": 2.44475565587,
			"0.012": 2.08893814292,
			"0.013": 0.357871505258,
			"0.014": 0.0,
			"0.015": 0.0,
			"0.016": 0.0,
			"0.017": 0.0,
			"0.018": 0.0,
			"0.019": 0.0,
			"0.02": 0.0,
			"0.021": 0.0,
			"0.022": 0.0,
			"0.023": 0.0,
			"0.024": 0.0,
			"0.025": 0.0
		}
	}
}
