{
	 "smiles": "COC1CCN(CC1)C(=O)NC1=CC(=CC=C1)C(C)=O", 
	 "Tm": 378.15, 
	 "num_atms": 40, 
	 "gaussian": { 
		 "optdone": 1, 
		 "sigma_profile": "yes", 
		 "theory": "DFT", 
		 "functional": "B3LYP", 
		 "basiset": "6-31G**", 
		 "properties": { 
			 "R2extent": 7476.4717, 
			 "electric_dipole_moment_norm": 3.21018579836, 
			 "electric_quadrupole_moment_norm": 23.1780834846, 
			 "total_energy": -918.834237926, 
			 "HOMO_LUMO_gap": 0.1666, 
			 "cosmo_polarized_energy": -18.71, 
			 "cosmo_cavitation_energy": 41.76, 
			 "cosmo_dispersion_energy": -28.49, 
			 "cosmo_repulsion_energy": 2.19, 
			 "cosmo_total_nonelectrostatic_energy": 15.46, 
			 "SMD_solvation_energy": 8.24 
		},
		"coords": [
			{
				"x": 0.8666105526,
				"y": 0.3716997093,
				"z": -4.9425134148,
				"element": "C" 
			},
			{
				"x": 0.706383793,
				"y": 1.4087069193,
				"z": -3.9953848918,
				"element": "O" 
			},
			{
				"x": -0.0391766935,
				"y": 1.0384276999,
				"z": -2.8402813178,
				"element": "C" 
			},
			{
				"x": 0.7406194225,
				"y": 0.0403643785,
				"z": -1.9513450301,
				"element": "C" 
			},
			{
				"x": 0.4016147674,
				"y": 0.2023321273,
				"z": -0.4653786549,
				"element": "C" 
			},
			{
				"x": 0.7398370432,
				"y": 1.5580314192,
				"z": -0.0016293734,
				"element": "N" 
			},
			{
				"x": 0.722870091,
				"y": 2.6350488949,
				"z": -1.0086616175,
				"element": "C" 
			},
			{
				"x": -0.3386281073,
				"y": 2.3329144599,
				"z": -2.0636767521,
				"element": "C" 
			},
			{
				"x": 1.4832269999,
				"y": 1.8085266317,
				"z": 1.1273981918,
				"element": "C" 
			},
			{
				"x": 2.1595991581,
				"y": 2.8226322875,
				"z": 1.2667255347,
				"element": "O" 
			},
			{
				"x": 1.4792237121,
				"y": 0.8184849257,
				"z": 2.1300976614,
				"element": "N" 
			},
			{
				"x": 0.3677767471,
				"y": 0.1525851516,
				"z": 2.699282498,
				"element": "C" 
			},
			{
				"x": -0.9601687569,
				"y": 0.506865357,
				"z": 2.4245456519,
				"element": "C" 
			},
			{
				"x": -2.019874428,
				"y": -0.1814489088,
				"z": 3.0321535796,
				"element": "C" 
			},
			{
				"x": -1.754169431,
				"y": -1.2193827537,
				"z": 3.9361969417,
				"element": "C" 
			},
			{
				"x": -0.4356895378,
				"y": -1.5600635736,
				"z": 4.2240889796,
				"element": "C" 
			},
			{
				"x": 0.6188353852,
				"y": -0.8892152963,
				"z": 3.6066346457,
				"element": "C" 
			},
			{
				"x": -3.4555327709,
				"y": 0.1679345333,
				"z": 2.7623210513,
				"element": "C" 
			},
			{
				"x": -3.7708146616,
				"y": 1.3102742494,
				"z": 1.8104672865,
				"element": "C" 
			},
			{
				"x": -4.3577405685,
				"y": -0.4553548562,
				"z": 3.3005728452,
				"element": "O" 
			},
			{
				"x": 1.3623744152,
				"y": 0.8078869239,
				"z": -5.8130767878,
				"element": "H" 
			},
			{
				"x": -0.1046791413,
				"y": -0.0418977968,
				"z": -5.2581313446,
				"element": "H" 
			},
			{
				"x": 1.4873977715,
				"y": -0.4546135294,
				"z": -4.5666907165,
				"element": "H" 
			},
			{
				"x": -0.9901712712,
				"y": 0.5813147416,
				"z": -3.1623680699,
				"element": "H" 
			},
			{
				"x": 1.8108504697,
				"y": 0.2287970683,
				"z": -2.0963062422,
				"element": "H" 
			},
			{
				"x": 0.5481182755,
				"y": -0.9955076988,
				"z": -2.2491917196,
				"element": "H" 
			},
			{
				"x": 0.9664023876,
				"y": -0.5185661511,
				"z": 0.1281634439,
				"element": "H" 
			},
			{
				"x": -0.6630215133,
				"y": -0.0131744414,
				"z": -0.2970404726,
				"element": "H" 
			},
			{
				"x": 1.7098938704,
				"y": 2.7405791577,
				"z": -1.4773262884,
				"element": "H" 
			},
			{
				"x": 0.5193728424,
				"y": 3.5766150235,
				"z": -0.4945948234,
				"element": "H" 
			},
			{
				"x": -1.3181042735,
				"y": 2.251601917,
				"z": -1.5777647941,
				"element": "H" 
			},
			{
				"x": -0.3989754046,
				"y": 3.1556243251,
				"z": -2.7814485033,
				"element": "H" 
			},
			{
				"x": 2.2220294831,
				"y": 1.020177268,
				"z": 2.7880213426,
				"element": "H" 
			},
			{
				"x": -1.1534826617,
				"y": 1.3277551167,
				"z": 1.7449075732,
				"element": "H" 
			},
			{
				"x": -2.5908706839,
				"y": -1.7333860598,
				"z": 4.3953172425,
				"element": "H" 
			},
			{
				"x": -0.2205063432,
				"y": -2.3599941981,
				"z": 4.926562276,
				"element": "H" 
			},
			{
				"x": 1.6470664474,
				"y": -1.1696210619,
				"z": 3.8194931036,
				"element": "H" 
			},
			{
				"x": -4.8537183722,
				"y": 1.4150058031,
				"z": 1.7397826766,
				"element": "H" 
			},
			{
				"x": -3.336797992,
				"y": 2.2508184176,
				"z": 2.1671397268,
				"element": "H" 
			},
			{
				"x": -3.3588810225,
				"y": 1.1188218191,
				"z": 0.8133385621,
				"element": "H" 
			}
		],
		 "valence_orbital": [ 
			{
				"type": "occ",
				"energy": -0.26461,
				"method": "rhf"
			},
			{
				"type": "occ",
				"energy": -0.2597,
				"method": "rhf"
			},
			{
				"type": "occ",
				"energy": -0.2501,
				"method": "rhf"
			},
			{
				"type": "occ",
				"energy": -0.23948,
				"method": "rhf"
			},
			{
				"type": "occ",
				"energy": -0.22464,
				"method": "rhf"
			},
			{
				"type": "unocc",
				"energy": -0.05804,
				"method": "rhf"
			},
			{
				"type": "unocc",
				"energy": -0.01225,
				"method": "rhf"
			},
			{
				"type": "unocc",
				"energy": 0.02999,
				"method": "rhf"
			},
			{
				"type": "unocc",
				"energy": 0.04522,
				"method": "rhf"
			},
			{
				"type": "unocc",
				"energy": 0.05921,
				"method": "rhf"
			}
		],
		"cosmo_sigma_profile": { 
			"-0.025": 0.0,
			"-0.024": 0.0,
			"-0.023": 0.0,
			"-0.022": 0.0,
			"-0.021": 0.0,
			"-0.02": 0.0,
			"-0.019": 0.0,
			"-0.018": 0.0,
			"-0.017": 0.0,
			"-0.016": 0.0,
			"-0.015": 0.0,
			"-0.014": 0.447179089049,
			"-0.013": 1.05432128214,
			"-0.012": 0.661107196114,
			"-0.011": 1.25793683239,
			"-0.01": 1.24870321394,
			"-0.009": 1.27186671247,
			"-0.008": 1.16064791654,
			"-0.007": 3.39989834091,
			"-0.006": 9.37937581809,
			"-0.005": 19.5003529768,
			"-0.004": 38.5635636937,
			"-0.003": 48.5533128133,
			"-0.002": 38.8944353481,
			"-0.001": 31.6193245047,
			"0.0": 19.8612695537,
			"0.001": 13.9585294166,
			"0.002": 15.1892124248,
			"0.003": 14.6244223598,
			"0.004": 14.7564721552,
			"0.005": 5.80901511188,
			"0.006": 4.59775094875,
			"0.007": 4.0556531118,
			"0.008": 3.97273527072,
			"0.009": 4.33516410388,
			"0.01": 4.30837353811,
			"0.011": 6.18261791843,
			"0.012": 6.72315487511,
			"0.013": 5.1564733767,
			"0.014": 6.12102343096,
			"0.015": 0.938977852371,
			"0.016": 0.0,
			"0.017": 0.0,
			"0.018": 0.0,
			"0.019": 0.0,
			"0.02": 0.0,
			"0.021": 0.0,
			"0.022": 0.0,
			"0.023": 0.0,
			"0.024": 0.0,
			"0.025": 0.0
		}
	}
}
