{
	 "smiles": "C1CC(=NN1)C1=CC=CC=C1", 
	 "Tm": 318.95, 
	 "num_atms": 21, 
	 "gaussian": { 
		 "optdone": 1, 
		 "sigma_profile": "yes", 
		 "theory": "DFT", 
		 "functional": "B3LYP", 
		 "basiset": "6-31G**", 
		 "properties": { 
			 "R2extent": 2036.8992, 
			 "electric_dipole_moment_norm": 2.08855350901, 
			 "electric_quadrupole_moment_norm": 10.1150038131, 
			 "total_energy": -458.45602539, 
			 "HOMO_LUMO_gap": 0.16689, 
			 "cosmo_polarized_energy": -8.78, 
			 "cosmo_cavitation_energy": 24.03, 
			 "cosmo_dispersion_energy": -18.24, 
			 "cosmo_repulsion_energy": 1.46, 
			 "cosmo_total_nonelectrostatic_energy": 7.26, 
			 "SMD_solvation_energy": 2.04 
		},
		"coords": [
			{
				"x": 0.5882438109,
				"y": -0.6550351029,
				"z": 2.9689152919,
				"element": "C" 
			},
			{
				"x": -0.4396731053,
				"y": -0.4562496986,
				"z": 1.8426667784,
				"element": "C" 
			},
			{
				"x": 0.4752917152,
				"y": 0.0158684237,
				"z": 0.7196513903,
				"element": "C" 
			},
			{
				"x": 1.7213756369,
				"y": -0.2128526379,
				"z": 0.9763970696,
				"element": "N" 
			},
			{
				"x": 1.829097398,
				"y": -0.8699417815,
				"z": 2.1946458116,
				"element": "N" 
			},
			{
				"x": 0.0308242519,
				"y": 0.6009565496,
				"z": -0.5491868899,
				"element": "C" 
			},
			{
				"x": -1.3349815059,
				"y": 0.802949441,
				"z": -0.8089155347,
				"element": "C" 
			},
			{
				"x": -1.7566454721,
				"y": 1.3643495019,
				"z": -2.0150984427,
				"element": "C" 
			},
			{
				"x": -0.8223277961,
				"y": 1.7343053838,
				"z": -2.9818445374,
				"element": "C" 
			},
			{
				"x": 0.5410276908,
				"y": 1.5360778329,
				"z": -2.7343614516,
				"element": "C" 
			},
			{
				"x": 0.964867764,
				"y": 0.9754859274,
				"z": -1.5351490059,
				"element": "C" 
			},
			{
				"x": 0.3771830309,
				"y": -1.5127111213,
				"z": 3.6124412076,
				"element": "H" 
			},
			{
				"x": 0.653237916,
				"y": 0.2474994179,
				"z": 3.5962974925,
				"element": "H" 
			},
			{
				"x": -0.9272004386,
				"y": -1.4006047026,
				"z": 1.5642185167,
				"element": "H" 
			},
			{
				"x": -1.2247292528,
				"y": 0.2586675899,
				"z": 2.1015747539,
				"element": "H" 
			},
			{
				"x": 2.6914034221,
				"y": -0.6047062758,
				"z": 2.6575103798,
				"element": "H" 
			},
			{
				"x": -2.0751510859,
				"y": 0.5175072804,
				"z": -0.0674882737,
				"element": "H" 
			},
			{
				"x": -2.8175423938,
				"y": 1.5111942339,
				"z": -2.1974868359,
				"element": "H" 
			},
			{
				"x": -1.1499846676,
				"y": 2.1715979869,
				"z": -3.9205773364,
				"element": "H" 
			},
			{
				"x": 1.2751265612,
				"y": 1.8196100069,
				"z": -3.4835504521,
				"element": "H" 
			},
			{
				"x": 2.0196565202,
				"y": 0.8157317444,
				"z": -1.338959932,
				"element": "H" 
			}
		],
		 "valence_orbital": [ 
			{
				"type": "occ",
				"energy": -0.33562,
				"method": "rhf"
			},
			{
				"type": "occ",
				"energy": -0.27453,
				"method": "rhf"
			},
			{
				"type": "occ",
				"energy": -0.26285,
				"method": "rhf"
			},
			{
				"type": "occ",
				"energy": -0.24627,
				"method": "rhf"
			},
			{
				"type": "occ",
				"energy": -0.19678,
				"method": "rhf"
			},
			{
				"type": "unocc",
				"energy": -0.02989,
				"method": "rhf"
			},
			{
				"type": "unocc",
				"energy": 0.00454,
				"method": "rhf"
			},
			{
				"type": "unocc",
				"energy": 0.0559,
				"method": "rhf"
			},
			{
				"type": "unocc",
				"energy": 0.08527,
				"method": "rhf"
			},
			{
				"type": "unocc",
				"energy": 0.0968,
				"method": "rhf"
			}
		],
		"cosmo_sigma_profile": { 
			"-0.025": 0.0,
			"-0.024": 0.0,
			"-0.023": 0.0,
			"-0.022": 0.0,
			"-0.021": 0.0,
			"-0.02": 0.0,
			"-0.019": 0.0,
			"-0.018": 0.0,
			"-0.017": 0.0,
			"-0.016": 0.0,
			"-0.015": 0.0,
			"-0.014": 0.0,
			"-0.013": 0.154904116658,
			"-0.012": 1.37905160627,
			"-0.011": 1.25737678124,
			"-0.01": 0.885687450004,
			"-0.009": 0.824295997691,
			"-0.008": 1.75415077831,
			"-0.007": 1.20700598101,
			"-0.006": 5.74040226349,
			"-0.005": 15.2350013468,
			"-0.004": 22.3623490684,
			"-0.003": 23.553129349,
			"-0.002": 16.816289112,
			"-0.001": 12.7434024434,
			"0.0": 8.55461994319,
			"0.001": 9.11352231539,
			"0.002": 8.2863761287,
			"0.003": 10.5603801156,
			"0.004": 12.1362415724,
			"0.005": 13.4017912014,
			"0.006": 9.36644203734,
			"0.007": 2.64463772514,
			"0.008": 2.02810468052,
			"0.009": 1.29783101953,
			"0.01": 2.32725020386,
			"0.011": 2.6299496277,
			"0.012": 2.12864894431,
			"0.013": 1.4867758505,
			"0.014": 0.97793017933,
			"0.015": 0.0615970218009,
			"0.016": 0.0,
			"0.017": 0.0,
			"0.018": 0.0,
			"0.019": 0.0,
			"0.02": 0.0,
			"0.021": 0.0,
			"0.022": 0.0,
			"0.023": 0.0,
			"0.024": 0.0,
			"0.025": 0.0
		}
	}
}
