{
	 "smiles": "CC(=O)NC1=CC=CC=C1C(F)(F)F", 
	 "Tm": 369.15, 
	 "num_atms": 22, 
	 "gaussian": { 
		 "optdone": 1, 
		 "sigma_profile": "yes", 
		 "theory": "DFT", 
		 "functional": "B3LYP", 
		 "basiset": "6-31G**", 
		 "properties": { 
			 "R2extent": 3037.0922, 
			 "electric_dipole_moment_norm": 4.66536150475, 
			 "electric_quadrupole_moment_norm": 4.74250233316, 
			 "total_energy": -777.298277967, 
			 "HOMO_LUMO_gap": 0.1991, 
			 "cosmo_polarized_energy": -10.27, 
			 "cosmo_cavitation_energy": 27.2, 
			 "cosmo_dispersion_energy": -19.16, 
			 "cosmo_repulsion_energy": 1.45, 
			 "cosmo_total_nonelectrostatic_energy": 9.49, 
			 "SMD_solvation_energy": 6.69 
		},
		"coords": [
			{
				"x": 0.3089149334,
				"y": -1.0036591106,
				"z": 2.4759999067,
				"element": "C" 
			},
			{
				"x": -0.9723824675,
				"y": -1.1635980032,
				"z": 1.6800613469,
				"element": "C" 
			},
			{
				"x": -1.9344045625,
				"y": -1.7712581957,
				"z": 2.1213385523,
				"element": "O" 
			},
			{
				"x": -1.0656827636,
				"y": -0.5780541797,
				"z": 0.4216105538,
				"element": "N" 
			},
			{
				"x": -0.1319215268,
				"y": 0.151738955,
				"z": -0.3355327285,
				"element": "C" 
			},
			{
				"x": 1.2113405689,
				"y": -0.2413753194,
				"z": -0.4237622014,
				"element": "C" 
			},
			{
				"x": 2.1187762754,
				"y": 0.4832199221,
				"z": -1.1940463826,
				"element": "C" 
			},
			{
				"x": 1.7000104468,
				"y": 1.5957672287,
				"z": -1.9224596957,
				"element": "C" 
			},
			{
				"x": 0.3619199654,
				"y": 1.9807923895,
				"z": -1.8678256111,
				"element": "C" 
			},
			{
				"x": -0.5520645657,
				"y": 1.2777335687,
				"z": -1.081232096,
				"element": "C" 
			},
			{
				"x": -1.9788011521,
				"y": 1.7535037454,
				"z": -1.0025333216,
				"element": "C" 
			},
			{
				"x": -2.2209982367,
				"y": 2.7855293092,
				"z": -1.8329696365,
				"element": "F" 
			},
			{
				"x": -2.8582060365,
				"y": 0.7650835214,
				"z": -1.3385648395,
				"element": "F" 
			},
			{
				"x": -2.312862238,
				"y": 2.1510024808,
				"z": 0.2435638223,
				"element": "F" 
			},
			{
				"x": 0.9935663435,
				"y": -1.8315867469,
				"z": 2.2632356503,
				"element": "H" 
			},
			{
				"x": 0.8303503276,
				"y": -0.0661341269,
				"z": 2.2726689729,
				"element": "H" 
			},
			{
				"x": 0.0385736114,
				"y": -1.061510927,
				"z": 3.5310344632,
				"element": "H" 
			},
			{
				"x": -2.0119874408,
				"y": -0.6200137718,
				"z": 0.0625228733,
				"element": "H" 
			},
			{
				"x": 1.5368866529,
				"y": -1.1363085698,
				"z": 0.0920968164,
				"element": "H" 
			},
			{
				"x": 3.1535454274,
				"y": 0.1570622387,
				"z": -1.2415742975,
				"element": "H" 
			},
			{
				"x": 2.402412621,
				"y": 2.1533505334,
				"z": -2.5330800816,
				"element": "H" 
			},
			{
				"x": 0.0160138165,
				"y": 2.839215058,
				"z": -2.4315520659,
				"element": "H" 
			}
		],
		 "valence_orbital": [ 
			{
				"type": "occ",
				"energy": -0.36174,
				"method": "rhf"
			},
			{
				"type": "occ",
				"energy": -0.30934,
				"method": "rhf"
			},
			{
				"type": "occ",
				"energy": -0.27929,
				"method": "rhf"
			},
			{
				"type": "occ",
				"energy": -0.25817,
				"method": "rhf"
			},
			{
				"type": "occ",
				"energy": -0.23926,
				"method": "rhf"
			},
			{
				"type": "unocc",
				"energy": -0.04016,
				"method": "rhf"
			},
			{
				"type": "unocc",
				"energy": -0.02698,
				"method": "rhf"
			},
			{
				"type": "unocc",
				"energy": 0.0251,
				"method": "rhf"
			},
			{
				"type": "unocc",
				"energy": 0.07681,
				"method": "rhf"
			},
			{
				"type": "unocc",
				"energy": 0.10384,
				"method": "rhf"
			}
		],
		"cosmo_sigma_profile": { 
			"-0.025": 0.0,
			"-0.024": 0.0,
			"-0.023": 0.0,
			"-0.022": 0.0,
			"-0.021": 0.0,
			"-0.02": 0.0,
			"-0.019": 0.0,
			"-0.018": 0.0,
			"-0.017": 0.0,
			"-0.016": 0.0,
			"-0.015": 0.0,
			"-0.014": 0.0,
			"-0.013": 0.0,
			"-0.012": 0.0,
			"-0.011": 0.00501963707492,
			"-0.01": 0.481254016058,
			"-0.009": 1.28894132765,
			"-0.008": 3.20048794267,
			"-0.007": 7.69608884614,
			"-0.006": 12.2662498394,
			"-0.005": 13.9338014674,
			"-0.004": 13.9909061461,
			"-0.003": 15.5912210223,
			"-0.002": 18.2558955595,
			"-0.001": 16.1012363125,
			"0.0": 15.5802643794,
			"0.001": 18.2630509435,
			"0.002": 31.296924575,
			"0.003": 24.4508661501,
			"0.004": 5.098925137,
			"0.005": 1.1890406279,
			"0.006": 1.20690377644,
			"0.007": 1.47498050532,
			"0.008": 1.09053137793,
			"0.009": 1.36869722655,
			"0.01": 0.981927418661,
			"0.011": 1.98382374311,
			"0.012": 2.88775310256,
			"0.013": 5.70529018073,
			"0.014": 2.14734355684,
			"0.015": 0.105907563042,
			"0.016": 0.0,
			"0.017": 0.0,
			"0.018": 0.0,
			"0.019": 0.0,
			"0.02": 0.0,
			"0.021": 0.0,
			"0.022": 0.0,
			"0.023": 0.0,
			"0.024": 0.0,
			"0.025": 0.0
		}
	}
}
