{
	 "smiles": "CC1=C(O)C=CC(F)=C1", 
	 "Tm": 310.65, 
	 "num_atms": 16, 
	 "gaussian": { 
		 "optdone": 1, 
		 "sigma_profile": "yes", 
		 "theory": "DFT", 
		 "functional": "B3LYP", 
		 "basiset": "6-31G**", 
		 "properties": { 
			 "R2extent": 1243.1106, 
			 "electric_dipole_moment_norm": 2.33296907395, 
			 "electric_quadrupole_moment_norm": 7.29535317582, 
			 "total_energy": -446.02168689, 
			 "HOMO_LUMO_gap": 0.207, 
			 "cosmo_polarized_energy": -7.59, 
			 "cosmo_cavitation_energy": 20.06, 
			 "cosmo_dispersion_energy": -14.91, 
			 "cosmo_repulsion_energy": 1.19, 
			 "cosmo_total_nonelectrostatic_energy": 6.34, 
			 "SMD_solvation_energy": 4.25 
		},
		"coords": [
			{
				"x": -0.5889594302,
				"y": -0.7511060836,
				"z": -2.0081634444,
				"element": "C" 
			},
			{
				"x": -0.184607711,
				"y": -0.4149645746,
				"z": -0.5922457633,
				"element": "C" 
			},
			{
				"x": -0.7147738704,
				"y": 0.7192003328,
				"z": 0.0508422731,
				"element": "C" 
			},
			{
				"x": -1.6071948433,
				"y": 1.55988224,
				"z": -0.562187877,
				"element": "O" 
			},
			{
				"x": -0.3449181528,
				"y": 1.0361986843,
				"z": 1.3607714289,
				"element": "C" 
			},
			{
				"x": 0.5575432136,
				"y": 0.2314976257,
				"z": 2.0527075209,
				"element": "C" 
			},
			{
				"x": 1.0782441087,
				"y": -0.8870076082,
				"z": 1.4138778242,
				"element": "C" 
			},
			{
				"x": 1.9561102559,
				"y": -1.6785359081,
				"z": 2.0729709557,
				"element": "F" 
			},
			{
				"x": 0.720908483,
				"y": -1.2155907311,
				"z": 0.1128945548,
				"element": "C" 
			},
			{
				"x": -0.3259811228,
				"y": 0.0502792799,
				"z": -2.7122208988,
				"element": "H" 
			},
			{
				"x": -0.0876090948,
				"y": -1.6580732443,
				"z": -2.3532298216,
				"element": "H" 
			},
			{
				"x": -1.6698829078,
				"y": -0.926817921,
				"z": -2.0965116403,
				"element": "H" 
			},
			{
				"x": -1.7867815605,
				"y": 1.243681864,
				"z": -1.4558973773,
				"element": "H" 
			},
			{
				"x": -0.7751210399,
				"y": 1.9185848576,
				"z": 1.8224326757,
				"element": "H" 
			},
			{
				"x": 0.8564203943,
				"y": 0.4613704636,
				"z": 3.0695094744,
				"element": "H" 
			},
			{
				"x": 1.152003278,
				"y": -2.0986992769,
				"z": -0.3480498852,
				"element": "H" 
			}
		],
		 "valence_orbital": [ 
			{
				"type": "occ",
				"energy": -0.36281,
				"method": "rhf"
			},
			{
				"type": "occ",
				"energy": -0.33808,
				"method": "rhf"
			},
			{
				"type": "occ",
				"energy": -0.32311,
				"method": "rhf"
			},
			{
				"type": "occ",
				"energy": -0.25265,
				"method": "rhf"
			},
			{
				"type": "occ",
				"energy": -0.21367,
				"method": "rhf"
			},
			{
				"type": "unocc",
				"energy": -0.00667,
				"method": "rhf"
			},
			{
				"type": "unocc",
				"energy": 0.0177,
				"method": "rhf"
			},
			{
				"type": "unocc",
				"energy": 0.06135,
				"method": "rhf"
			},
			{
				"type": "unocc",
				"energy": 0.09435,
				"method": "rhf"
			},
			{
				"type": "unocc",
				"energy": 0.12903,
				"method": "rhf"
			}
		],
		"cosmo_sigma_profile": { 
			"-0.025": 0.0,
			"-0.024": 0.0,
			"-0.023": 0.0,
			"-0.022": 0.0,
			"-0.021": 0.0,
			"-0.02": 0.0,
			"-0.019": 0.0,
			"-0.018": 0.0,
			"-0.017": 0.0,
			"-0.016": 0.366139299872,
			"-0.015": 0.887263012045,
			"-0.014": 0.644456849594,
			"-0.013": 1.3036089984,
			"-0.012": 1.11195674567,
			"-0.011": 1.06048573974,
			"-0.01": 0.990914477735,
			"-0.009": 1.44446072064,
			"-0.008": 1.15651991295,
			"-0.007": 3.61522771559,
			"-0.006": 8.71852600758,
			"-0.005": 9.69838202671,
			"-0.004": 10.2602394367,
			"-0.003": 9.10266775011,
			"-0.002": 8.68187138422,
			"-0.001": 11.6686539838,
			"0.0": 9.30064442841,
			"0.001": 7.94744896608,
			"0.002": 13.6109746132,
			"0.003": 12.0000800707,
			"0.004": 19.5518067536,
			"0.005": 15.7481185921,
			"0.006": 1.80576882442,
			"0.007": 1.75104626492,
			"0.008": 0.962293911679,
			"0.009": 1.85787568323,
			"0.01": 1.57291872934,
			"0.011": 1.97712472794,
			"0.012": 0.809979450968,
			"0.013": 0.0,
			"0.014": 0.0,
			"0.015": 0.0,
			"0.016": 0.0,
			"0.017": 0.0,
			"0.018": 0.0,
			"0.019": 0.0,
			"0.02": 0.0,
			"0.021": 0.0,
			"0.022": 0.0,
			"0.023": 0.0,
			"0.024": 0.0,
			"0.025": 0.0
		}
	}
}
