{
	 "smiles": "NN1C=NN=C1C1=CC=CC=C1", 
	 "Tm": 389.15, 
	 "num_atms": 20, 
	 "gaussian": { 
		 "optdone": 1, 
		 "sigma_profile": "yes", 
		 "theory": "DFT", 
		 "functional": "B3LYP", 
		 "basiset": "6-31G**", 
		 "properties": { 
			 "R2extent": 2679.6115, 
			 "electric_dipole_moment_norm": 5.63028665522, 
			 "electric_quadrupole_moment_norm": 20.3375537435, 
			 "total_energy": -528.618359148, 
			 "HOMO_LUMO_gap": 0.19535, 
			 "cosmo_polarized_energy": -19.87, 
			 "cosmo_cavitation_energy": 24.29, 
			 "cosmo_dispersion_energy": -18.05, 
			 "cosmo_repulsion_energy": 1.41, 
			 "cosmo_total_nonelectrostatic_energy": 7.66, 
			 "SMD_solvation_energy": 3.2 
		},
		"coords": [
			{
				"x": -1.0303639269,
				"y": -0.1909448486,
				"z": 1.964434537,
				"element": "N" 
			},
			{
				"x": -1.6644051306,
				"y": 0.8723016147,
				"z": 1.3037110534,
				"element": "N" 
			},
			{
				"x": -2.6824316398,
				"y": 1.5924254337,
				"z": 1.8661656879,
				"element": "C" 
			},
			{
				"x": -3.1529286762,
				"y": 2.4691259068,
				"z": 1.0165132,
				"element": "N" 
			},
			{
				"x": -2.4401728714,
				"y": 2.3209962432,
				"z": -0.1547631314,
				"element": "N" 
			},
			{
				"x": -1.5463470364,
				"y": 1.3642779739,
				"z": 0.0140853817,
				"element": "C" 
			},
			{
				"x": -0.6380565429,
				"y": 0.8921911502,
				"z": -1.0397547503,
				"element": "C" 
			},
			{
				"x": 0.5876747615,
				"y": 0.254364012,
				"z": -0.7856764661,
				"element": "C" 
			},
			{
				"x": 1.4050579657,
				"y": -0.1563062665,
				"z": -1.8394371885,
				"element": "C" 
			},
			{
				"x": 1.0173505796,
				"y": 0.0688937463,
				"z": -3.1599398792,
				"element": "C" 
			},
			{
				"x": -0.1939604979,
				"y": 0.7154551885,
				"z": -3.422380505,
				"element": "C" 
			},
			{
				"x": -1.0155548247,
				"y": 1.1217631023,
				"z": -2.3759416646,
				"element": "C" 
			},
			{
				"x": -1.0306188446,
				"y": -1.004303799,
				"z": 1.3537207479,
				"element": "H" 
			},
			{
				"x": -0.0659266191,
				"y": 0.0629859751,
				"z": 2.1630885344,
				"element": "H" 
			},
			{
				"x": -3.0130142868,
				"y": 1.4219710395,
				"z": 2.8800924643,
				"element": "H" 
			},
			{
				"x": 0.9274053773,
				"y": 0.095218373,
				"z": 0.2313925163,
				"element": "H" 
			},
			{
				"x": 2.3511006754,
				"y": -0.6444683416,
				"z": -1.6240515742,
				"element": "H" 
			},
			{
				"x": 1.6550255198,
				"y": -0.2520195824,
				"z": -3.9782986982,
				"element": "H" 
			},
			{
				"x": -0.501385383,
				"y": 0.8997949582,
				"z": -4.4475903772,
				"element": "H" 
			},
			{
				"x": -1.9564485991,
				"y": 1.6256781206,
				"z": -2.5667698882,
				"element": "H" 
			}
		],
		 "valence_orbital": [ 
			{
				"type": "occ",
				"energy": -0.294,
				"method": "rhf"
			},
			{
				"type": "occ",
				"energy": -0.29008,
				"method": "rhf"
			},
			{
				"type": "occ",
				"energy": -0.26326,
				"method": "rhf"
			},
			{
				"type": "occ",
				"energy": -0.24425,
				"method": "rhf"
			},
			{
				"type": "occ",
				"energy": -0.23353,
				"method": "rhf"
			},
			{
				"type": "unocc",
				"energy": -0.03818,
				"method": "rhf"
			},
			{
				"type": "unocc",
				"energy": -0.01413,
				"method": "rhf"
			},
			{
				"type": "unocc",
				"energy": 0.0323,
				"method": "rhf"
			},
			{
				"type": "unocc",
				"energy": 0.04296,
				"method": "rhf"
			},
			{
				"type": "unocc",
				"energy": 0.05955,
				"method": "rhf"
			}
		],
		"cosmo_sigma_profile": { 
			"-0.025": 0.0,
			"-0.024": 0.0,
			"-0.023": 0.0,
			"-0.022": 0.0,
			"-0.021": 0.0,
			"-0.02": 0.0,
			"-0.019": 0.0,
			"-0.018": 0.0,
			"-0.017": 0.0,
			"-0.016": 0.0,
			"-0.015": 0.142497971231,
			"-0.014": 2.34510564195,
			"-0.013": 3.91993008536,
			"-0.012": 3.69782455838,
			"-0.011": 3.25748719286,
			"-0.01": 3.82031399294,
			"-0.009": 3.67267750303,
			"-0.008": 4.48463134646,
			"-0.007": 3.30711504228,
			"-0.006": 10.1383063756,
			"-0.005": 11.7703037475,
			"-0.004": 13.2765216729,
			"-0.003": 10.5484908631,
			"-0.002": 11.028383268,
			"-0.001": 11.2505329452,
			"0.0": 10.0582365661,
			"0.001": 9.98607771102,
			"0.002": 11.0397393542,
			"0.003": 11.6017421772,
			"0.004": 14.9882339566,
			"0.005": 8.0606706317,
			"0.006": 2.47174175617,
			"0.007": 2.82235864837,
			"0.008": 3.23889156678,
			"0.009": 2.54931001231,
			"0.01": 2.86563940635,
			"0.011": 2.44943185046,
			"0.012": 3.59916766978,
			"0.013": 3.53043030258,
			"0.014": 3.65963637426,
			"0.015": 2.45914116739,
			"0.016": 2.17541700379,
			"0.017": 0.825624065769,
			"0.018": 0.018436502347,
			"0.019": 0.0,
			"0.02": 0.0,
			"0.021": 0.0,
			"0.022": 0.0,
			"0.023": 0.0,
			"0.024": 0.0,
			"0.025": 0.0
		}
	}
}
