{
	 "smiles": "CCC(CO)(CO)[N+]([O-])=O", 
	 "Tm": 330.65, 
	 "num_atms": 21, 
	 "gaussian": { 
		 "optdone": 1, 
		 "sigma_profile": "yes", 
		 "theory": "DFT", 
		 "functional": "B3LYP", 
		 "basiset": "6-31G**", 
		 "properties": { 
			 "R2extent": 1480.9242, 
			 "electric_dipole_moment_norm": 3.21126110742, 
			 "electric_quadrupole_moment_norm": 12.4289663122, 
			 "total_energy": -552.695557372, 
			 "HOMO_LUMO_gap": 0.19225, 
			 "cosmo_polarized_energy": -11.56, 
			 "cosmo_cavitation_energy": 23.23, 
			 "cosmo_dispersion_energy": -16.86, 
			 "cosmo_repulsion_energy": 1.37, 
			 "cosmo_total_nonelectrostatic_energy": 7.74, 
			 "SMD_solvation_energy": 6.1 
		},
		"coords": [
			{
				"x": 0.9355095944,
				"y": 2.0910835051,
				"z": 0.3483867538,
				"element": "C" 
			},
			{
				"x": 0.2916600744,
				"y": 0.8970307004,
				"z": 1.0630400915,
				"element": "C" 
			},
			{
				"x": 0.2572315079,
				"y": -0.4489038464,
				"z": 0.2991576833,
				"element": "C" 
			},
			{
				"x": -0.6512851617,
				"y": -0.4792851436,
				"z": -0.9483569366,
				"element": "C" 
			},
			{
				"x": -0.4294459239,
				"y": 0.5315816646,
				"z": -1.9047308113,
				"element": "O" 
			},
			{
				"x": -0.1594568754,
				"y": -1.5933438606,
				"z": 1.2497830769,
				"element": "C" 
			},
			{
				"x": -1.4899456337,
				"y": -1.323582088,
				"z": 1.662113719,
				"element": "O" 
			},
			{
				"x": 1.7015802017,
				"y": -0.7642460805,
				"z": -0.1153367337,
				"element": "N" 
			},
			{
				"x": 2.4982762607,
				"y": -1.0398436674,
				"z": 0.7741775088,
				"element": "O" 
			},
			{
				"x": 1.998078974,
				"y": -0.6933877081,
				"z": -1.3105441159,
				"element": "O" 
			},
			{
				"x": 0.9105087426,
				"y": 2.9633339279,
				"z": 1.0089824316,
				"element": "H" 
			},
			{
				"x": 0.4089169363,
				"y": 2.3346487573,
				"z": -0.5743948206,
				"element": "H" 
			},
			{
				"x": 1.9865493781,
				"y": 1.899283365,
				"z": 0.106365505,
				"element": "H" 
			},
			{
				"x": 0.8142567449,
				"y": 0.7164364367,
				"z": 2.0089294924,
				"element": "H" 
			},
			{
				"x": -0.7488872939,
				"y": 1.1196252697,
				"z": 1.3169812761,
				"element": "H" 
			},
			{
				"x": -1.6741149838,
				"y": -0.3605568272,
				"z": -0.5838371094,
				"element": "H" 
			},
			{
				"x": -0.5769039996,
				"y": -1.4820238093,
				"z": -1.3973390498,
				"element": "H" 
			},
			{
				"x": 0.4626100935,
				"y": 0.37412046,
				"z": -2.2479026349,
				"element": "H" 
			},
			{
				"x": -0.0893973117,
				"y": -2.554028192,
				"z": 0.7146742777,
				"element": "H" 
			},
			{
				"x": 0.5389212905,
				"y": -1.6234653891,
				"z": 2.0935107013,
				"element": "H" 
			},
			{
				"x": -1.7487626152,
				"y": -1.9953774747,
				"z": 2.3042396948,
				"element": "H" 
			}
		],
		 "valence_orbital": [ 
			{
				"type": "occ",
				"energy": -0.32215,
				"method": "rhf"
			},
			{
				"type": "occ",
				"energy": -0.30712,
				"method": "rhf"
			},
			{
				"type": "occ",
				"energy": -0.30305,
				"method": "rhf"
			},
			{
				"type": "occ",
				"energy": -0.29014,
				"method": "rhf"
			},
			{
				"type": "occ",
				"energy": -0.26989,
				"method": "rhf"
			},
			{
				"type": "unocc",
				"energy": -0.07764,
				"method": "rhf"
			},
			{
				"type": "unocc",
				"energy": 0.04731,
				"method": "rhf"
			},
			{
				"type": "unocc",
				"energy": 0.08708,
				"method": "rhf"
			},
			{
				"type": "unocc",
				"energy": 0.10017,
				"method": "rhf"
			},
			{
				"type": "unocc",
				"energy": 0.1188,
				"method": "rhf"
			}
		],
		"cosmo_sigma_profile": { 
			"-0.025": 0.0,
			"-0.024": 0.0,
			"-0.023": 0.0,
			"-0.022": 0.0,
			"-0.021": 0.0,
			"-0.02": 0.0,
			"-0.019": 0.0,
			"-0.018": 0.0,
			"-0.017": 0.519181421748,
			"-0.016": 1.27218764536,
			"-0.015": 1.22378267614,
			"-0.014": 0.397330568571,
			"-0.013": 1.04622724723,
			"-0.012": 1.01756274547,
			"-0.011": 1.42474756031,
			"-0.01": 1.79414164226,
			"-0.009": 2.1387781144,
			"-0.008": 2.74769574486,
			"-0.007": 3.51645619324,
			"-0.006": 5.39032306732,
			"-0.005": 9.54967078854,
			"-0.004": 13.6725299092,
			"-0.003": 16.8579406584,
			"-0.002": 16.6031237792,
			"-0.001": 14.6040657312,
			"0.0": 13.8049669595,
			"0.001": 11.9144634891,
			"0.002": 5.65497607345,
			"0.003": 5.98812069383,
			"0.004": 5.30903672119,
			"0.005": 4.82431722908,
			"0.006": 7.41605183306,
			"0.007": 8.91118338874,
			"0.008": 7.40096432885,
			"0.009": 5.85444936269,
			"0.01": 3.58714545927,
			"0.011": 1.66966652459,
			"0.012": 1.34772467068,
			"0.013": 1.31155219255,
			"0.014": 1.29396753774,
			"0.015": 0.0141077471735,
			"0.016": 0.0,
			"0.017": 0.0,
			"0.018": 0.0,
			"0.019": 0.0,
			"0.02": 0.0,
			"0.021": 0.0,
			"0.022": 0.0,
			"0.023": 0.0,
			"0.024": 0.0,
			"0.025": 0.0
		}
	}
}
