{
	 "smiles": "CC1=C(C)C(=O)C2=C(N1)C=CC(OC1=CC=C(C)C=C1)=C2", 
	 "Tm": 558.15, 
	 "num_atms": 38, 
	 "gaussian": { 
		 "optdone": 1, 
		 "sigma_profile": "yes", 
		 "theory": "DFT", 
		 "functional": "B3LYP", 
		 "basiset": "6-31G**", 
		 "properties": { 
			 "R2extent": 9350.3616, 
			 "electric_dipole_moment_norm": 6.66227343029, 
			 "electric_quadrupole_moment_norm": 23.9824027062, 
			 "total_energy": -901.385394154, 
			 "HOMO_LUMO_gap": 0.15902, 
			 "cosmo_polarized_energy": -21.01, 
			 "cosmo_cavitation_energy": 41.51, 
			 "cosmo_dispersion_energy": -29.91, 
			 "cosmo_repulsion_energy": 2.26, 
			 "cosmo_total_nonelectrostatic_energy": 13.86, 
			 "SMD_solvation_energy": 7.45 
		},
		"coords": [
			{
				"x": 1.7296462759,
				"y": 4.0486110604,
				"z": -3.747944107,
				"element": "C" 
			},
			{
				"x": 1.6237115507,
				"y": 3.0185996478,
				"z": -2.6540412273,
				"element": "C" 
			},
			{
				"x": 2.5825540689,
				"y": 2.8579784276,
				"z": -1.6876716544,
				"element": "C" 
			},
			{
				"x": 3.824031242,
				"y": 3.7111643464,
				"z": -1.6509834364,
				"element": "C" 
			},
			{
				"x": 2.4266350317,
				"y": 1.8371703406,
				"z": -0.6483999996,
				"element": "C" 
			},
			{
				"x": 3.2610270168,
				"y": 1.6528193802,
				"z": 0.2464410145,
				"element": "O" 
			},
			{
				"x": 1.1911994659,
				"y": 1.0210772759,
				"z": -0.7275336915,
				"element": "C" 
			},
			{
				"x": 0.2466489413,
				"y": 1.242582841,
				"z": -1.7475239384,
				"element": "C" 
			},
			{
				"x": 0.4941031389,
				"y": 2.2355194246,
				"z": -2.6778658863,
				"element": "N" 
			},
			{
				"x": -0.9227017406,
				"y": 0.4606429743,
				"z": -1.81110767,
				"element": "C" 
			},
			{
				"x": -1.1434520948,
				"y": -0.5291669588,
				"z": -0.8693964693,
				"element": "C" 
			},
			{
				"x": -0.2032972673,
				"y": -0.7465016721,
				"z": 0.1574438384,
				"element": "C" 
			},
			{
				"x": -0.353812147,
				"y": -1.7830710432,
				"z": 1.0594555345,
				"element": "O" 
			},
			{
				"x": -1.5470623333,
				"y": -1.946640883,
				"z": 1.7366343184,
				"element": "C" 
			},
			{
				"x": -2.3765135451,
				"y": -0.8827994551,
				"z": 2.0979312499,
				"element": "C" 
			},
			{
				"x": -3.5338255914,
				"y": -1.1385928482,
				"z": 2.8355319731,
				"element": "C" 
			},
			{
				"x": -3.8839839708,
				"y": -2.4349025109,
				"z": 3.2308493201,
				"element": "C" 
			},
			{
				"x": -5.1514864446,
				"y": -2.7031908768,
				"z": 4.0084580363,
				"element": "C" 
			},
			{
				"x": -3.0256455586,
				"y": -3.4823448253,
				"z": 2.8649929556,
				"element": "C" 
			},
			{
				"x": -1.8710136226,
				"y": -3.2498370984,
				"z": 2.1226078204,
				"element": "C" 
			},
			{
				"x": 0.9474397441,
				"y": 0.0195231304,
				"z": 0.2262529714,
				"element": "C" 
			},
			{
				"x": 1.8003530038,
				"y": 5.0575288435,
				"z": -3.3285747919,
				"element": "H" 
			},
			{
				"x": 0.8664612123,
				"y": 4.0232121141,
				"z": -4.4201993705,
				"element": "H" 
			},
			{
				"x": 2.6300690392,
				"y": 3.8875918995,
				"z": -4.3497146025,
				"element": "H" 
			},
			{
				"x": 4.428920766,
				"y": 3.4004837978,
				"z": -0.7975247065,
				"element": "H" 
			},
			{
				"x": 3.5921549861,
				"y": 4.7778331728,
				"z": -1.5398682329,
				"element": "H" 
			},
			{
				"x": 4.4290167565,
				"y": 3.6039091789,
				"z": -2.5600507842,
				"element": "H" 
			},
			{
				"x": -0.1837435942,
				"y": 2.386616306,
				"z": -3.409610181,
				"element": "H" 
			},
			{
				"x": -1.6458839725,
				"y": 0.628577165,
				"z": -2.6055958398,
				"element": "H" 
			},
			{
				"x": -2.0363662005,
				"y": -1.1432227561,
				"z": -0.9176717301,
				"element": "H" 
			},
			{
				"x": -2.1155579924,
				"y": 0.1319642375,
				"z": 1.8178349539,
				"element": "H" 
			},
			{
				"x": -4.1719880287,
				"y": -0.3043596439,
				"z": 3.1169046659,
				"element": "H" 
			},
			{
				"x": -5.5215934098,
				"y": -1.7954828756,
				"z": 4.4940953549,
				"element": "H" 
			},
			{
				"x": -4.99319592,
				"y": -3.4585572682,
				"z": 4.7851509591,
				"element": "H" 
			},
			{
				"x": -5.9522488529,
				"y": -3.0746687876,
				"z": 3.3563644696,
				"element": "H" 
			},
			{
				"x": -3.2655826211,
				"y": -4.4999909346,
				"z": 3.1637972141,
				"element": "H" 
			},
			{
				"x": -1.2064342801,
				"y": -4.0602160677,
				"z": 1.8412647707,
				"element": "H" 
			},
			{
				"x": 1.6830169484,
				"y": -0.1408590585,
				"z": 1.0063668987,
				"element": "H" 
			}
		],
		 "valence_orbital": [ 
			{
				"type": "occ",
				"energy": -0.25115,
				"method": "rhf"
			},
			{
				"type": "occ",
				"energy": -0.24771,
				"method": "rhf"
			},
			{
				"type": "occ",
				"energy": -0.2229,
				"method": "rhf"
			},
			{
				"type": "occ",
				"energy": -0.2184,
				"method": "rhf"
			},
			{
				"type": "occ",
				"energy": -0.19827,
				"method": "rhf"
			},
			{
				"type": "unocc",
				"energy": -0.03925,
				"method": "rhf"
			},
			{
				"type": "unocc",
				"energy": -0.0115,
				"method": "rhf"
			},
			{
				"type": "unocc",
				"energy": -0.0,
				"method": "rhf"
			},
			{
				"type": "unocc",
				"energy": 0.01027,
				"method": "rhf"
			},
			{
				"type": "unocc",
				"energy": 0.02237,
				"method": "rhf"
			}
		],
		"cosmo_sigma_profile": { 
			"-0.025": 0.0,
			"-0.024": 0.0,
			"-0.023": 0.0,
			"-0.022": 0.0,
			"-0.021": 0.0,
			"-0.02": 0.0,
			"-0.019": 0.0,
			"-0.018": 0.0,
			"-0.017": 0.00513849420063,
			"-0.016": 1.02270805755,
			"-0.015": 1.41774678304,
			"-0.014": 1.62899326058,
			"-0.013": 1.3878516942,
			"-0.012": 1.84719089506,
			"-0.011": 1.90391841974,
			"-0.01": 1.26426398485,
			"-0.009": 0.931863477503,
			"-0.008": 2.9975514913,
			"-0.007": 3.98909813496,
			"-0.006": 9.29362346515,
			"-0.005": 18.260038266,
			"-0.004": 26.9845734454,
			"-0.003": 28.8923843471,
			"-0.002": 27.6223633733,
			"-0.001": 27.4817235979,
			"0.0": 28.4226519118,
			"0.001": 31.1485563409,
			"0.002": 25.4850157402,
			"0.003": 27.2619644845,
			"0.004": 15.3528352957,
			"0.005": 12.0085529492,
			"0.006": 8.40269603362,
			"0.007": 3.64713951067,
			"0.008": 3.2020292143,
			"0.009": 2.81899005157,
			"0.01": 1.8825308037,
			"0.011": 1.28300631902,
			"0.012": 2.19012801753,
			"0.013": 1.59592426274,
			"0.014": 3.14411707297,
			"0.015": 5.12390449243,
			"0.016": 0.19682306727,
			"0.017": 0.0,
			"0.018": 0.0,
			"0.019": 0.0,
			"0.02": 0.0,
			"0.021": 0.0,
			"0.022": 0.0,
			"0.023": 0.0,
			"0.024": 0.0,
			"0.025": 0.0
		}
	}
}
