{
	 "smiles": "CCC(C)C1(CC)C(=O)NC(=O)NC1=O", 
	 "Tm": 440.15, 
	 "num_atms": 31, 
	 "gaussian": { 
		 "optdone": 1, 
		 "sigma_profile": "yes", 
		 "theory": "DFT", 
		 "functional": "B3LYP", 
		 "basiset": "6-31G**", 
		 "properties": { 
			 "R2extent": 3749.9949, 
			 "electric_dipole_moment_norm": 1.43281580812, 
			 "electric_quadrupole_moment_norm": 8.30480078027, 
			 "total_energy": -725.947704051, 
			 "HOMO_LUMO_gap": 0.21654, 
			 "cosmo_polarized_energy": -14.55, 
			 "cosmo_cavitation_energy": 31.68, 
			 "cosmo_dispersion_energy": -22.19, 
			 "cosmo_repulsion_energy": 1.73, 
			 "cosmo_total_nonelectrostatic_energy": 11.22, 
			 "SMD_solvation_energy": 7.4 
		},
		"coords": [
			{
				"x": -1.1457912084,
				"y": -0.9221692506,
				"z": 3.0709529163,
				"element": "C" 
			},
			{
				"x": -0.6062054573,
				"y": 0.4754141149,
				"z": 2.7415761565,
				"element": "C" 
			},
			{
				"x": -1.4604177675,
				"y": 1.2663038751,
				"z": 1.7088217673,
				"element": "C" 
			},
			{
				"x": -1.7121436957,
				"y": 2.7010024361,
				"z": 2.2037066891,
				"element": "C" 
			},
			{
				"x": -0.8574690877,
				"y": 1.2440732594,
				"z": 0.220096628,
				"element": "C" 
			},
			{
				"x": 0.4066150168,
				"y": 2.1231808313,
				"z": 0.0856495515,
				"element": "C" 
			},
			{
				"x": 1.0541599341,
				"y": 2.1020997949,
				"z": -1.3045213909,
				"element": "C" 
			},
			{
				"x": -1.9654799482,
				"y": 1.7919831778,
				"z": -0.6866892343,
				"element": "C" 
			},
			{
				"x": -2.1266025625,
				"y": 2.9759532181,
				"z": -0.9174369582,
				"element": "O" 
			},
			{
				"x": -2.870048086,
				"y": 0.8582256799,
				"z": -1.1884454389,
				"element": "N" 
			},
			{
				"x": -2.7151474385,
				"y": -0.5218542076,
				"z": -1.2431336869,
				"element": "C" 
			},
			{
				"x": -3.5215292021,
				"y": -1.2585586136,
				"z": -1.7727054839,
				"element": "O" 
			},
			{
				"x": -1.5392878403,
				"y": -0.9791633568,
				"z": -0.6594478916,
				"element": "N" 
			},
			{
				"x": -0.5167225144,
				"y": -0.2128794027,
				"z": -0.103428507,
				"element": "C" 
			},
			{
				"x": 0.5541689534,
				"y": -0.727760043,
				"z": 0.1591663111,
				"element": "O" 
			},
			{
				"x": -0.5255229335,
				"y": -1.4061653139,
				"z": 3.8320798598,
				"element": "H" 
			},
			{
				"x": -1.1546603382,
				"y": -1.5775464663,
				"z": 2.1955582675,
				"element": "H" 
			},
			{
				"x": -2.1691105682,
				"y": -0.8685108672,
				"z": 3.4601731523,
				"element": "H" 
			},
			{
				"x": 0.4288377768,
				"y": 0.3908386028,
				"z": 2.3985767885,
				"element": "H" 
			},
			{
				"x": -0.573984247,
				"y": 1.0606400939,
				"z": 3.6675575091,
				"element": "H" 
			},
			{
				"x": -2.4366828462,
				"y": 0.7684014752,
				"z": 1.6365368497,
				"element": "H" 
			},
			{
				"x": -0.7727193653,
				"y": 3.2117514723,
				"z": 2.4360319146,
				"element": "H" 
			},
			{
				"x": -2.2595965105,
				"y": 3.3091763307,
				"z": 1.4810614508,
				"element": "H" 
			},
			{
				"x": -2.296432465,
				"y": 2.6573650429,
				"z": 3.1285657939,
				"element": "H" 
			},
			{
				"x": 0.1218855919,
				"y": 3.1482317399,
				"z": 0.3292210189,
				"element": "H" 
			},
			{
				"x": 1.1333875334,
				"y": 1.7913989866,
				"z": 0.8313067033,
				"element": "H" 
			},
			{
				"x": 1.3975299653,
				"y": 1.0997946689,
				"z": -1.5747705831,
				"element": "H" 
			},
			{
				"x": 0.3612331987,
				"y": 2.4587134885,
				"z": -2.0730619172,
				"element": "H" 
			},
			{
				"x": 1.925566357,
				"y": 2.7637945257,
				"z": -1.3198645154,
				"element": "H" 
			},
			{
				"x": -3.6560192627,
				"y": 1.2267290137,
				"z": -1.7114393585,
				"element": "H" 
			},
			{
				"x": -1.3424109821,
				"y": -1.9636643067,
				"z": -0.7977943623,
				"element": "H" 
			}
		],
		 "valence_orbital": [ 
			{
				"type": "occ",
				"energy": -0.31323,
				"method": "rhf"
			},
			{
				"type": "occ",
				"energy": -0.30234,
				"method": "rhf"
			},
			{
				"type": "occ",
				"energy": -0.30173,
				"method": "rhf"
			},
			{
				"type": "occ",
				"energy": -0.29035,
				"method": "rhf"
			},
			{
				"type": "occ",
				"energy": -0.26589,
				"method": "rhf"
			},
			{
				"type": "unocc",
				"energy": -0.04935,
				"method": "rhf"
			},
			{
				"type": "unocc",
				"energy": -0.00611,
				"method": "rhf"
			},
			{
				"type": "unocc",
				"energy": 0.04813,
				"method": "rhf"
			},
			{
				"type": "unocc",
				"energy": 0.07007,
				"method": "rhf"
			},
			{
				"type": "unocc",
				"energy": 0.08971,
				"method": "rhf"
			}
		],
		"cosmo_sigma_profile": { 
			"-0.025": 0.0,
			"-0.024": 0.0,
			"-0.023": 0.0,
			"-0.022": 0.0,
			"-0.021": 0.0,
			"-0.02": 0.0,
			"-0.019": 0.0,
			"-0.018": 0.0,
			"-0.017": 0.193533243261,
			"-0.016": 1.80432163478,
			"-0.015": 1.94041074394,
			"-0.014": 1.65577854105,
			"-0.013": 0.942573175043,
			"-0.012": 0.999618260133,
			"-0.011": 2.44361088282,
			"-0.01": 1.77910401912,
			"-0.009": 1.93637864999,
			"-0.008": 2.6632693545,
			"-0.007": 3.20557816615,
			"-0.006": 4.32382056523,
			"-0.005": 7.0274692264,
			"-0.004": 12.6567703016,
			"-0.003": 29.1114314548,
			"-0.002": 32.3863382852,
			"-0.001": 29.4237669382,
			"0.0": 25.1723795432,
			"0.001": 22.693274129,
			"0.002": 8.38847293347,
			"0.003": 4.04641958958,
			"0.004": 4.62493999741,
			"0.005": 5.08396513988,
			"0.006": 3.79710819013,
			"0.007": 4.41471542517,
			"0.008": 4.02691227326,
			"0.009": 5.06148508069,
			"0.01": 4.82880214148,
			"0.011": 12.116180578,
			"0.012": 8.11267441082,
			"0.013": 0.0605016256215,
			"0.014": 0.0,
			"0.015": 0.0,
			"0.016": 0.0,
			"0.017": 0.0,
			"0.018": 0.0,
			"0.019": 0.0,
			"0.02": 0.0,
			"0.021": 0.0,
			"0.022": 0.0,
			"0.023": 0.0,
			"0.024": 0.0,
			"0.025": 0.0
		}
	}
}
