{
	 "smiles": "NC(=O)C1=C2OCCOC2=CC=C1", 
	 "Tm": 404.15, 
	 "num_atms": 22, 
	 "gaussian": { 
		 "optdone": 1, 
		 "sigma_profile": "yes", 
		 "theory": "DFT", 
		 "functional": "B3LYP", 
		 "basiset": "6-31G**", 
		 "properties": { 
			 "R2extent": 2752.8022, 
			 "electric_dipole_moment_norm": 5.39310183661, 
			 "electric_quadrupole_moment_norm": 19.647866162, 
			 "total_energy": -628.805140435, 
			 "HOMO_LUMO_gap": 0.19105, 
			 "cosmo_polarized_energy": -14.6, 
			 "cosmo_cavitation_energy": 25.16, 
			 "cosmo_dispersion_energy": -19.39, 
			 "cosmo_repulsion_energy": 1.53, 
			 "cosmo_total_nonelectrostatic_energy": 7.3, 
			 "SMD_solvation_energy": 5.27 
		},
		"coords": [
			{
				"x": -1.8029791827,
				"y": 0.6213052708,
				"z": -2.7793466619,
				"element": "N" 
			},
			{
				"x": -1.9156084787,
				"y": 0.6734000394,
				"z": -1.423913769,
				"element": "C" 
			},
			{
				"x": -3.0094230778,
				"y": 0.7568206145,
				"z": -0.8714118733,
				"element": "O" 
			},
			{
				"x": -0.6423253219,
				"y": 0.6221513683,
				"z": -0.6061761178,
				"element": "C" 
			},
			{
				"x": 0.6706304679,
				"y": 0.5343834053,
				"z": -1.1106254094,
				"element": "C" 
			},
			{
				"x": 0.8842217464,
				"y": 0.4914056131,
				"z": -2.4762879755,
				"element": "O" 
			},
			{
				"x": 2.224726718,
				"y": 0.7767589013,
				"z": -2.8857885117,
				"element": "C" 
			},
			{
				"x": 3.1950496995,
				"y": -0.0132561038,
				"z": -2.0280702289,
				"element": "C" 
			},
			{
				"x": 3.0630329725,
				"y": 0.3823120257,
				"z": -0.667215589,
				"element": "O" 
			},
			{
				"x": 1.7633552878,
				"y": 0.4827107882,
				"z": -0.2250737325,
				"element": "C" 
			},
			{
				"x": 1.5573310766,
				"y": 0.5441832797,
				"z": 1.1516695545,
				"element": "C" 
			},
			{
				"x": 0.2625306224,
				"y": 0.6436257043,
				"z": 1.6555689204,
				"element": "C" 
			},
			{
				"x": -0.8205973499,
				"y": 0.6716015995,
				"z": 0.7831783112,
				"element": "C" 
			},
			{
				"x": -0.9068546699,
				"y": 0.5654473531,
				"z": -3.2361439806,
				"element": "H" 
			},
			{
				"x": -2.6605592713,
				"y": 0.6616005067,
				"z": -3.307317568,
				"element": "H" 
			},
			{
				"x": 2.2911273676,
				"y": 0.4919840595,
				"z": -3.9385828418,
				"element": "H" 
			},
			{
				"x": 2.4216385556,
				"y": 1.85229104,
				"z": -2.7881199891,
				"element": "H" 
			},
			{
				"x": 2.9951485375,
				"y": -1.0887628545,
				"z": -2.1323110903,
				"element": "H" 
			},
			{
				"x": 4.2314122001,
				"y": 0.1856341219,
				"z": -2.3129173156,
				"element": "H" 
			},
			{
				"x": 2.4263230125,
				"y": 0.5060922013,
				"z": 1.8007246844,
				"element": "H" 
			},
			{
				"x": 0.1020352647,
				"y": 0.6895896711,
				"z": 2.7280049071,
				"element": "H" 
			},
			{
				"x": -1.8410161766,
				"y": 0.7395213945,
				"z": 1.1417562769,
				"element": "H" 
			}
		],
		 "valence_orbital": [ 
			{
				"type": "occ",
				"energy": -0.31411,
				"method": "rhf"
			},
			{
				"type": "occ",
				"energy": -0.25344,
				"method": "rhf"
			},
			{
				"type": "occ",
				"energy": -0.24184,
				"method": "rhf"
			},
			{
				"type": "occ",
				"energy": -0.24059,
				"method": "rhf"
			},
			{
				"type": "occ",
				"energy": -0.22022,
				"method": "rhf"
			},
			{
				"type": "unocc",
				"energy": -0.02917,
				"method": "rhf"
			},
			{
				"type": "unocc",
				"energy": 0.00946,
				"method": "rhf"
			},
			{
				"type": "unocc",
				"energy": 0.06751,
				"method": "rhf"
			},
			{
				"type": "unocc",
				"energy": 0.07578,
				"method": "rhf"
			},
			{
				"type": "unocc",
				"energy": 0.0935,
				"method": "rhf"
			}
		],
		"cosmo_sigma_profile": { 
			"-0.025": 0.0,
			"-0.024": 0.0,
			"-0.023": 0.0,
			"-0.022": 0.0,
			"-0.021": 0.0,
			"-0.02": 0.0,
			"-0.019": 0.0,
			"-0.018": 0.0,
			"-0.017": 0.0,
			"-0.016": 0.0,
			"-0.015": 0.0,
			"-0.014": 0.258304219433,
			"-0.013": 1.09659789712,
			"-0.012": 0.855028168676,
			"-0.011": 1.28839813031,
			"-0.01": 1.53451084471,
			"-0.009": 2.43320690057,
			"-0.008": 2.36014757281,
			"-0.007": 10.9146821489,
			"-0.006": 17.707502603,
			"-0.005": 14.4173159899,
			"-0.004": 14.8802491469,
			"-0.003": 10.1729225632,
			"-0.002": 10.6432440797,
			"-0.001": 7.31584678054,
			"0.0": 12.2122237364,
			"0.001": 13.4775210274,
			"0.002": 12.8135766261,
			"0.003": 16.4910206874,
			"0.004": 13.6014633959,
			"0.005": 8.95680343652,
			"0.006": 3.5945862619,
			"0.007": 1.6732478482,
			"0.008": 3.32151140594,
			"0.009": 2.34773608052,
			"0.01": 3.05673276922,
			"0.011": 1.7094159469,
			"0.012": 1.90999251048,
			"0.013": 2.72471108563,
			"0.014": 5.3372377328,
			"0.015": 1.2826289474,
			"0.016": 0.0017605623088,
			"0.017": 0.0,
			"0.018": 0.0,
			"0.019": 0.0,
			"0.02": 0.0,
			"0.021": 0.0,
			"0.022": 0.0,
			"0.023": 0.0,
			"0.024": 0.0,
			"0.025": 0.0
		}
	}
}
