{
	 "smiles": "BrC1=CN=CC(=C1)C1=CN=C(Br)C=C1", 
	 "Tm": 476.15, 
	 "num_atms": 20, 
	 "gaussian": { 
		 "optdone": 1, 
		 "sigma_profile": "yes", 
		 "theory": "DFT", 
		 "functional": "B3LYP", 
		 "basiset": "6-31G**", 
		 "properties": { 
			 "R2extent": 9631.1313, 
			 "electric_dipole_moment_norm": 2.43081930838, 
			 "electric_quadrupole_moment_norm": 13.7724625572, 
			 "total_energy": -5636.98202984, 
			 "HOMO_LUMO_gap": 0.18511, 
			 "cosmo_polarized_energy": -10.36, 
			 "cosmo_cavitation_energy": 30.0, 
			 "cosmo_dispersion_energy": -22.85, 
			 "cosmo_repulsion_energy": 1.78, 
			 "cosmo_total_nonelectrostatic_energy": 8.93, 
			 "SMD_solvation_energy": -0.25 
		},
		"coords": [
			{
				"x": -1.8758894204,
				"y": 1.4197809702,
				"z": 4.8337501617,
				"element": "Br" 
			},
			{
				"x": -0.8633219917,
				"y": 0.7021066495,
				"z": 3.3872965353,
				"element": "C" 
			},
			{
				"x": 0.4191494688,
				"y": 0.2007550381,
				"z": 3.620044528,
				"element": "C" 
			},
			{
				"x": 1.1667592073,
				"y": -0.3130936694,
				"z": 2.6398869749,
				"element": "N" 
			},
			{
				"x": 0.6620516476,
				"y": -0.338607846,
				"z": 1.4041284293,
				"element": "C" 
			},
			{
				"x": -0.6100377228,
				"y": 0.1530671173,
				"z": 1.062778483,
				"element": "C" 
			},
			{
				"x": -1.3884890075,
				"y": 0.6862154742,
				"z": 2.1009274625,
				"element": "C" 
			},
			{
				"x": -1.1064516725,
				"y": 0.1037710291,
				"z": -0.3300788645,
				"element": "C" 
			},
			{
				"x": -0.2529996112,
				"y": 0.3542552053,
				"z": -1.415484121,
				"element": "C" 
			},
			{
				"x": -0.6409221764,
				"y": 0.3160521726,
				"z": -2.6956354641,
				"element": "N" 
			},
			{
				"x": -1.9051128636,
				"y": 0.0322552418,
				"z": -2.94239814,
				"element": "C" 
			},
			{
				"x": -2.4426419165,
				"y": -0.0263057597,
				"z": -4.7836324632,
				"element": "Br" 
			},
			{
				"x": -2.8649320593,
				"y": -0.2254692857,
				"z": -1.9594294455,
				"element": "C" 
			},
			{
				"x": -2.4464810747,
				"y": -0.189068658,
				"z": -0.6352730509,
				"element": "C" 
			},
			{
				"x": 0.846132777,
				"y": 0.216079843,
				"z": 4.6191789444,
				"element": "H" 
			},
			{
				"x": 1.2911149261,
				"y": -0.7916725022,
				"z": 0.6408725457,
				"element": "H" 
			},
			{
				"x": -2.3717939439,
				"y": 1.0995797905,
				"z": 1.9049956835,
				"element": "H" 
			},
			{
				"x": 0.7882181914,
				"y": 0.6183199452,
				"z": -1.2452183308,
				"element": "H" 
			},
			{
				"x": -3.8886248925,
				"y": -0.4546863025,
				"z": -2.2285337535,
				"element": "H" 
			},
			{
				"x": -3.1531278652,
				"y": -0.4091344531,
				"z": 0.1597238851,
				"element": "H" 
			}
		],
		 "valence_orbital": [ 
			{
				"type": "occ",
				"energy": -0.29371,
				"method": "rhf"
			},
			{
				"type": "occ",
				"energy": -0.28093,
				"method": "rhf"
			},
			{
				"type": "occ",
				"energy": -0.27515,
				"method": "rhf"
			},
			{
				"type": "occ",
				"energy": -0.27009,
				"method": "rhf"
			},
			{
				"type": "occ",
				"energy": -0.25085,
				"method": "rhf"
			},
			{
				"type": "unocc",
				"energy": -0.06574,
				"method": "rhf"
			},
			{
				"type": "unocc",
				"energy": -0.04835,
				"method": "rhf"
			},
			{
				"type": "unocc",
				"energy": -0.04585,
				"method": "rhf"
			},
			{
				"type": "unocc",
				"energy": -0.01223,
				"method": "rhf"
			},
			{
				"type": "unocc",
				"energy": -0.00554,
				"method": "rhf"
			}
		],
		"cosmo_sigma_profile": { 
			"-0.025": 0.0,
			"-0.024": 0.0,
			"-0.023": 0.0,
			"-0.022": 0.0,
			"-0.021": 0.0,
			"-0.02": 0.0,
			"-0.019": 0.0,
			"-0.018": 0.0,
			"-0.017": 0.0,
			"-0.016": 0.0,
			"-0.015": 0.0,
			"-0.014": 0.0,
			"-0.013": 0.0,
			"-0.012": 0.0,
			"-0.011": 0.0,
			"-0.01": 0.00288597490687,
			"-0.009": 2.71750195721,
			"-0.008": 9.58136833065,
			"-0.007": 12.5845712179,
			"-0.006": 9.03646788893,
			"-0.005": 9.67721008588,
			"-0.004": 12.7729864362,
			"-0.003": 13.2765896039,
			"-0.002": 13.2596244558,
			"-0.001": 28.2152097329,
			"0.0": 35.0274220111,
			"0.001": 19.0831636454,
			"0.002": 14.6728701569,
			"0.003": 17.7229947445,
			"0.004": 23.1509869164,
			"0.005": 6.8520422567,
			"0.006": 4.18825694476,
			"0.007": 3.80141990874,
			"0.008": 2.42682748385,
			"0.009": 1.75111077902,
			"0.01": 1.56453936463,
			"0.011": 1.76745420607,
			"0.012": 2.14816307681,
			"0.013": 1.81586894495,
			"0.014": 1.42294025176,
			"0.015": 0.683255121886,
			"0.016": 0.177150820208,
			"0.017": 0.0,
			"0.018": 0.0,
			"0.019": 0.0,
			"0.02": 0.0,
			"0.021": 0.0,
			"0.022": 0.0,
			"0.023": 0.0,
			"0.024": 0.0,
			"0.025": 0.0
		}
	}
}
