{
	 "smiles": "OC1=C(F)C=C(I)C=C1F", 
	 "Tm": 344.65, 
	 "num_atms": 13, 
	 "gaussian": { 
		 "optdone": 1, 
		 "sigma_profile": "no", 
		 "theory": "DFT", 
		 "functional": "B3LYP", 
		 "basiset": "6-31G**", 
		 "properties": { 
			 "R2extent": 2024.9642, 
			 "electric_dipole_moment_norm": 1.39079636899, 
			 "electric_quadrupole_moment_norm": 5.71329746994, 
			 "total_energy": -516.707844726, 
			 "HOMO_LUMO_gap": 0.18418, 
			 "cosmo_polarized_energy": -96320.13, 
			 "cosmo_cavitation_energy": 21.87, 
			 "cosmo_dispersion_energy": -17.54, 
			 "cosmo_repulsion_energy": 1.34, 
			 "cosmo_total_nonelectrostatic_energy": 5.68, 
			 "SMD_solvation_energy": 4.25 
		},
		"coords": [
			{
				"x": 1.9375917454,
				"y": 2.391592679,
				"z": -0.0298622079,
				"element": "O" 
			},
			{
				"x": 1.2963015655,
				"y": 1.3811542043,
				"z": 0.6054792129,
				"element": "C" 
			},
			{
				"x": 0.6788987379,
				"y": 1.5956854585,
				"z": 1.8415970022,
				"element": "C" 
			},
			{
				"x": 0.7395264417,
				"y": 2.8249345245,
				"z": 2.3775107082,
				"element": "F" 
			},
			{
				"x": 0.0132486674,
				"y": 0.5807466706,
				"z": 2.5192128162,
				"element": "C" 
			},
			{
				"x": -0.0408200601,
				"y": -0.6927592272,
				"z": 1.9480231057,
				"element": "C" 
			},
			{
				"x": -1.0492181948,
				"y": -2.2488726454,
				"z": 2.9650653922,
				"element": "I" 
			},
			{
				"x": 0.5606795223,
				"y": -0.9552612247,
				"z": 0.7154003224,
				"element": "C" 
			},
			{
				"x": 1.2123642335,
				"y": 0.0905528423,
				"z": 0.0795207757,
				"element": "C" 
			},
			{
				"x": 1.8158159873,
				"y": -0.1044889271,
				"z": -1.1210493803,
				"element": "F" 
			},
			{
				"x": 2.2919132142,
				"y": 2.0393084584,
				"z": -0.859605372,
				"element": "H" 
			},
			{
				"x": -0.4460982866,
				"y": 0.8060713939,
				"z": 3.4735609988,
				"element": "H" 
			},
			{
				"x": 0.5349964264,
				"y": -1.931764207,
				"z": 0.2485466262,
				"element": "H" 
			}
		],
		 "valence_orbital": [ 
			{
				"type": "occ",
				"energy": -0.36271,
				"method": "rhf"
			},
			{
				"type": "occ",
				"energy": -0.28641,
				"method": "rhf"
			},
			{
				"type": "occ",
				"energy": -0.2768,
				"method": "rhf"
			},
			{
				"type": "occ",
				"energy": -0.26587,
				"method": "rhf"
			},
			{
				"type": "occ",
				"energy": -0.23364,
				"method": "rhf"
			},
			{
				"type": "unocc",
				"energy": -0.04946,
				"method": "rhf"
			},
			{
				"type": "unocc",
				"energy": -0.02052,
				"method": "rhf"
			},
			{
				"type": "unocc",
				"energy": -0.01859,
				"method": "rhf"
			},
			{
				"type": "unocc",
				"energy": 0.03761,
				"method": "rhf"
			},
			{
				"type": "unocc",
				"energy": 0.03949,
				"method": "rhf"
			}
		],
		"cosmo_sigma_profile": { 
			"0.0": 0.0,
			"0.0": 0.0,
			"0.0": 0.0,
			"0.0": 0.0,
			"0.0": 0.0,
			"0.0": 0.0,
			"0.0": 0.0,
			"0.0": 0.0,
			"0.0": 0.0,
			"0.0": 0.0,
			"0.0": 0.0,
			"0.0": 0.0,
			"0.0": 0.0,
			"0.0": 0.0,
			"0.0": 0.0,
			"0.0": 0.0,
			"0.0": 0.0,
			"0.0": 0.0,
			"0.0": 0.0,
			"0.0": 0.0,
			"0.0": 0.0,
			"0.0": 0.0,
			"0.0": 0.0,
			"0.0": 0.0,
			"0.0": 0.0,
			"0.0": 0.0,
			"0.0": 0.0,
			"0.0": 0.0,
			"0.0": 0.0,
			"0.0": 0.0,
			"0.0": 0.0,
			"0.0": 0.0,
			"0.0": 0.0,
			"0.0": 0.0,
			"0.0": 0.0,
			"0.0": 0.0,
			"0.0": 0.0,
			"0.0": 0.0,
			"0.0": 0.0,
			"0.0": 0.0,
			"0.0": 0.0,
			"0.0": 0.0,
			"0.0": 0.0,
			"0.0": 0.0,
			"0.0": 0.0,
			"0.0": 0.0,
			"0.0": 0.0,
			"0.0": 0.0,
			"0.0": 0.0,
			"0.0": 0.0,
			"0.0": 0.0
		}
	}
}
