{
	 "smiles": "CC1=CC(C(=O)CCl)=C(C)N1C1=C(C)C=CC=C1", 
	 "Tm": 339.15, 
	 "num_atms": 34, 
	 "gaussian": { 
		 "optdone": 1, 
		 "sigma_profile": "yes", 
		 "theory": "DFT", 
		 "functional": "B3LYP", 
		 "basiset": "6-31G**", 
		 "properties": { 
			 "R2extent": 6266.3659, 
			 "electric_dipole_moment_norm": 5.46682215368, 
			 "electric_quadrupole_moment_norm": 10.1505670231, 
			 "total_energy": -1171.42268162, 
			 "HOMO_LUMO_gap": 0.168, 
			 "cosmo_polarized_energy": -11.36, 
			 "cosmo_cavitation_energy": 38.7, 
			 "cosmo_dispersion_energy": -26.03, 
			 "cosmo_repulsion_energy": 2.03, 
			 "cosmo_total_nonelectrostatic_energy": 14.7, 
			 "SMD_solvation_energy": 7.17 
		},
		"coords": [
			{
				"x": -0.2643699759,
				"y": 2.9440781379,
				"z": -1.8774453361,
				"element": "C" 
			},
			{
				"x": -0.3731543814,
				"y": 2.1882341328,
				"z": -0.592625715,
				"element": "C" 
			},
			{
				"x": -1.0275585407,
				"y": 2.4929961632,
				"z": 0.5699293671,
				"element": "C" 
			},
			{
				"x": -0.8020932788,
				"y": 1.4268868177,
				"z": 1.5068761206,
				"element": "C" 
			},
			{
				"x": -1.2885156818,
				"y": 1.339901285,
				"z": 2.8803254962,
				"element": "C" 
			},
			{
				"x": -1.028971127,
				"y": 0.4246986048,
				"z": 3.6574889139,
				"element": "O" 
			},
			{
				"x": -2.1511250824,
				"y": 2.4940592973,
				"z": 3.4123320189,
				"element": "C" 
			},
			{
				"x": -3.8098386926,
				"y": 2.513855572,
				"z": 2.6653545663,
				"element": "Cl" 
			},
			{
				"x": 0.0052582592,
				"y": 0.4803923082,
				"z": 0.8665549566,
				"element": "C" 
			},
			{
				"x": 0.5645807253,
				"y": -0.8162766854,
				"z": 1.3555689159,
				"element": "C" 
			},
			{
				"x": 0.2566220221,
				"y": 0.9510291355,
				"z": -0.4007532665,
				"element": "N" 
			},
			{
				"x": 1.0314993852,
				"y": 0.2659463959,
				"z": -1.3966535169,
				"element": "C" 
			},
			{
				"x": 0.4006116469,
				"y": -0.6315156006,
				"z": -2.2782701139,
				"element": "C" 
			},
			{
				"x": -1.081651063,
				"y": -0.9041828978,
				"z": -2.1943712515,
				"element": "C" 
			},
			{
				"x": 1.2009707208,
				"y": -1.2678155546,
				"z": -3.235677124,
				"element": "C" 
			},
			{
				"x": 2.5730173736,
				"y": -1.0264710617,
				"z": -3.3178247667,
				"element": "C" 
			},
			{
				"x": 3.1799603268,
				"y": -0.1334485012,
				"z": -2.4350688415,
				"element": "C" 
			},
			{
				"x": 2.4040180595,
				"y": 0.513371181,
				"z": -1.4734824362,
				"element": "C" 
			},
			{
				"x": -0.8394390516,
				"y": 3.8697957948,
				"z": -1.8016653309,
				"element": "H" 
			},
			{
				"x": 0.7724927153,
				"y": 3.2093435201,
				"z": -2.115702041,
				"element": "H" 
			},
			{
				"x": -0.6535547278,
				"y": 2.3766369197,
				"z": -2.7313130591,
				"element": "H" 
			},
			{
				"x": -1.6241942724,
				"y": 3.3793386709,
				"z": 0.7308305855,
				"element": "H" 
			},
			{
				"x": -2.2866906162,
				"y": 2.3497339141,
				"z": 4.4825183366,
				"element": "H" 
			},
			{
				"x": -1.7050416853,
				"y": 3.4692386268,
				"z": 3.2081950575,
				"element": "H" 
			},
			{
				"x": 0.2316748532,
				"y": -1.6594332224,
				"z": 0.7383566953,
				"element": "H" 
			},
			{
				"x": 1.6606578552,
				"y": -0.8145649118,
				"z": 1.3280265154,
				"element": "H" 
			},
			{
				"x": 0.2360526448,
				"y": -0.975780851,
				"z": 2.3812027973,
				"element": "H" 
			},
			{
				"x": -1.3513991004,
				"y": -1.3686633854,
				"z": -1.239604754,
				"element": "H" 
			},
			{
				"x": -1.3983945074,
				"y": -1.5748341585,
				"z": -2.9967895931,
				"element": "H" 
			},
			{
				"x": -1.6674186591,
				"y": 0.0178185343,
				"z": -2.2676845772,
				"element": "H" 
			},
			{
				"x": 0.7358139378,
				"y": -1.9648137073,
				"z": -3.9276469607,
				"element": "H" 
			},
			{
				"x": 3.1657348592,
				"y": -1.5362341266,
				"z": -4.0717436747,
				"element": "H" 
			},
			{
				"x": 4.2467070305,
				"y": 0.0598766342,
				"z": -2.4922987132,
				"element": "H" 
			},
			{
				"x": 2.8511380283,
				"y": 1.213503018,
				"z": -0.774339271,
				"element": "H" 
			}
		],
		 "valence_orbital": [ 
			{
				"type": "occ",
				"energy": -0.26731,
				"method": "rhf"
			},
			{
				"type": "occ",
				"energy": -0.25907,
				"method": "rhf"
			},
			{
				"type": "occ",
				"energy": -0.24657,
				"method": "rhf"
			},
			{
				"type": "occ",
				"energy": -0.23885,
				"method": "rhf"
			},
			{
				"type": "occ",
				"energy": -0.20854,
				"method": "rhf"
			},
			{
				"type": "unocc",
				"energy": -0.04054,
				"method": "rhf"
			},
			{
				"type": "unocc",
				"energy": -0.0232,
				"method": "rhf"
			},
			{
				"type": "unocc",
				"energy": -0.01714,
				"method": "rhf"
			},
			{
				"type": "unocc",
				"energy": 0.02897,
				"method": "rhf"
			},
			{
				"type": "unocc",
				"energy": 0.044,
				"method": "rhf"
			}
		],
		"cosmo_sigma_profile": { 
			"-0.025": 0.0,
			"-0.024": 0.0,
			"-0.023": 0.0,
			"-0.022": 0.0,
			"-0.021": 0.0,
			"-0.02": 0.0,
			"-0.019": 0.0,
			"-0.018": 0.0,
			"-0.017": 0.0,
			"-0.016": 0.0,
			"-0.015": 0.0,
			"-0.014": 0.0,
			"-0.013": 0.0,
			"-0.012": 0.0,
			"-0.011": 0.0,
			"-0.01": 0.0,
			"-0.009": 0.0835049247226,
			"-0.008": 2.22390437034,
			"-0.007": 5.00263424496,
			"-0.006": 12.5287738835,
			"-0.005": 22.4712297983,
			"-0.004": 30.1470037679,
			"-0.003": 26.6649602063,
			"-0.002": 26.8792002058,
			"-0.001": 28.7527909889,
			"0.0": 31.4289973285,
			"0.001": 18.7279248509,
			"0.002": 19.234737562,
			"0.003": 17.5780948774,
			"0.004": 19.1294001286,
			"0.005": 18.0949978593,
			"0.006": 13.5091373282,
			"0.007": 4.21332417506,
			"0.008": 1.38248795254,
			"0.009": 1.57450196556,
			"0.01": 2.2920016429,
			"0.011": 2.40145836339,
			"0.012": 2.67578550711,
			"0.013": 1.8905858593,
			"0.014": 0.137949878508,
			"0.015": 0.0,
			"0.016": 0.0,
			"0.017": 0.0,
			"0.018": 0.0,
			"0.019": 0.0,
			"0.02": 0.0,
			"0.021": 0.0,
			"0.022": 0.0,
			"0.023": 0.0,
			"0.024": 0.0,
			"0.025": 0.0
		}
	}
}
