{
	 "smiles": "CC(C)C1=CC=CC(C(C)C)=C1N", 
	 "Tm": 228.15, 
	 "num_atms": 32, 
	 "gaussian": { 
		 "optdone": 1, 
		 "sigma_profile": "yes", 
		 "theory": "DFT", 
		 "functional": "B3LYP", 
		 "basiset": "6-31G**", 
		 "properties": { 
			 "R2extent": 2981.9137, 
			 "electric_dipole_moment_norm": 1.55626638144, 
			 "electric_quadrupole_moment_norm": 6.70119526204, 
			 "total_energy": -523.502961351, 
			 "HOMO_LUMO_gap": 0.20687, 
			 "cosmo_polarized_energy": -6.96, 
			 "cosmo_cavitation_energy": 31.53, 
			 "cosmo_dispersion_energy": -22.66, 
			 "cosmo_repulsion_energy": 1.8, 
			 "cosmo_total_nonelectrostatic_energy": 10.67, 
			 "SMD_solvation_energy": 5.48 
		},
		"coords": [
			{
				"x": -3.3670300213,
				"y": 1.4811484284,
				"z": -1.3081285857,
				"element": "C" 
			},
			{
				"x": -2.0862916044,
				"y": 0.6339769354,
				"z": -1.2574204936,
				"element": "C" 
			},
			{
				"x": -2.4318462554,
				"y": -0.8651460047,
				"z": -1.3980339447,
				"element": "C" 
			},
			{
				"x": -1.2154828609,
				"y": 0.8849448425,
				"z": -0.0270862346,
				"element": "C" 
			},
			{
				"x": -1.7531141863,
				"y": 1.437756464,
				"z": 1.1386410739,
				"element": "C" 
			},
			{
				"x": -0.9762422267,
				"y": 1.6382889467,
				"z": 2.2768822116,
				"element": "C" 
			},
			{
				"x": 0.3666422602,
				"y": 1.2756242033,
				"z": 2.2492282826,
				"element": "C" 
			},
			{
				"x": 0.9624512351,
				"y": 0.7189621559,
				"z": 1.1117676591,
				"element": "C" 
			},
			{
				"x": 2.4442946439,
				"y": 0.3444592151,
				"z": 1.1946510923,
				"element": "C" 
			},
			{
				"x": 2.7135364035,
				"y": -1.1635628052,
				"z": 1.0086592176,
				"element": "C" 
			},
			{
				"x": 3.3607272751,
				"y": 1.2154973007,
				"z": 0.3068658887,
				"element": "C" 
			},
			{
				"x": 0.1587838661,
				"y": 0.5250968945,
				"z": -0.0403135672,
				"element": "C" 
			},
			{
				"x": 0.6985270789,
				"y": -0.0837859579,
				"z": -1.1874704125,
				"element": "N" 
			},
			{
				"x": -3.8681383514,
				"y": 1.3413601007,
				"z": -2.2715385957,
				"element": "H" 
			},
			{
				"x": -3.1532986141,
				"y": 2.5477436984,
				"z": -1.1876220961,
				"element": "H" 
			},
			{
				"x": -4.0787736052,
				"y": 1.1871845689,
				"z": -0.5293073963,
				"element": "H" 
			},
			{
				"x": -1.5050876481,
				"y": 0.9258691521,
				"z": -2.147585803,
				"element": "H" 
			},
			{
				"x": -1.5323111267,
				"y": -1.4862995956,
				"z": -1.4051561341,
				"element": "H" 
			},
			{
				"x": -3.0544935909,
				"y": -1.1869352485,
				"z": -0.5562505331,
				"element": "H" 
			},
			{
				"x": -2.9894100764,
				"y": -1.0530633308,
				"z": -2.322851574,
				"element": "H" 
			},
			{
				"x": -2.7999246537,
				"y": 1.7213900797,
				"z": 1.158559692,
				"element": "H" 
			},
			{
				"x": -1.4131364672,
				"y": 2.0690792856,
				"z": 3.1726984415,
				"element": "H" 
			},
			{
				"x": 0.98046083,
				"y": 1.4259183622,
				"z": 3.1344258207,
				"element": "H" 
			},
			{
				"x": 2.7401156234,
				"y": 0.5763749896,
				"z": 2.2254109104,
				"element": "H" 
			},
			{
				"x": 2.1363092125,
				"y": -1.7465114512,
				"z": 1.7327991353,
				"element": "H" 
			},
			{
				"x": 3.7756855969,
				"y": -1.3821990572,
				"z": 1.1669527144,
				"element": "H" 
			},
			{
				"x": 2.4392572771,
				"y": -1.522044496,
				"z": 0.0130647054,
				"element": "H" 
			},
			{
				"x": 3.2215302458,
				"y": 1.0489053379,
				"z": -0.7677289313,
				"element": "H" 
			},
			{
				"x": 3.1849371787,
				"y": 2.2790798631,
				"z": 0.4939718804,
				"element": "H" 
			},
			{
				"x": 4.4127612747,
				"y": 1.0000046871,
				"z": 0.5239268974,
				"element": "H" 
			},
			{
				"x": 1.6922351248,
				"y": 0.0430317557,
				"z": -1.3029279076,
				"element": "H" 
			},
			{
				"x": 0.2091261621,
				"y": 0.1291506797,
				"z": -2.0455834139,
				"element": "H" 
			}
		],
		 "valence_orbital": [ 
			{
				"type": "occ",
				"energy": -0.31473,
				"method": "rhf"
			},
			{
				"type": "occ",
				"energy": -0.3068,
				"method": "rhf"
			},
			{
				"type": "occ",
				"energy": -0.29713,
				"method": "rhf"
			},
			{
				"type": "occ",
				"energy": -0.22689,
				"method": "rhf"
			},
			{
				"type": "occ",
				"energy": -0.19283,
				"method": "rhf"
			},
			{
				"type": "unocc",
				"energy": 0.01404,
				"method": "rhf"
			},
			{
				"type": "unocc",
				"energy": 0.02296,
				"method": "rhf"
			},
			{
				"type": "unocc",
				"energy": 0.07024,
				"method": "rhf"
			},
			{
				"type": "unocc",
				"energy": 0.0943,
				"method": "rhf"
			},
			{
				"type": "unocc",
				"energy": 0.10039,
				"method": "rhf"
			}
		],
		"cosmo_sigma_profile": { 
			"-0.025": 0.0,
			"-0.024": 0.0,
			"-0.023": 0.0,
			"-0.022": 0.0,
			"-0.021": 0.0,
			"-0.02": 0.0,
			"-0.019": 0.0,
			"-0.018": 0.0,
			"-0.017": 0.0,
			"-0.016": 0.0,
			"-0.015": 0.0,
			"-0.014": 0.0,
			"-0.013": 0.0,
			"-0.012": 0.111702857806,
			"-0.011": 1.19632329903,
			"-0.01": 2.54226273802,
			"-0.009": 2.55607359499,
			"-0.008": 2.69436257073,
			"-0.007": 2.51188932293,
			"-0.006": 3.19861940655,
			"-0.005": 2.83572632294,
			"-0.004": 9.71804867471,
			"-0.003": 21.610230688,
			"-0.002": 32.0318501593,
			"-0.001": 32.8553582613,
			"0.0": 33.9672389356,
			"0.001": 34.5912524772,
			"0.002": 16.7177836526,
			"0.003": 7.61444793585,
			"0.004": 7.83931869154,
			"0.005": 6.86387058291,
			"0.006": 7.73077782463,
			"0.007": 7.27120829824,
			"0.008": 5.77245455028,
			"0.009": 1.36114395793,
			"0.01": 0.7752929614,
			"0.011": 0.427567142448,
			"0.012": 0.703133537921,
			"0.013": 0.152534754115,
			"0.014": 0.0,
			"0.015": 0.0,
			"0.016": 0.0,
			"0.017": 0.0,
			"0.018": 0.0,
			"0.019": 0.0,
			"0.02": 0.0,
			"0.021": 0.0,
			"0.022": 0.0,
			"0.023": 0.0,
			"0.024": 0.0,
			"0.025": 0.0
		}
	}
}
