{
	 "smiles": "COC1=CC=C(N)C(C)=C1", 
	 "Tm": 302.65, 
	 "num_atms": 21, 
	 "gaussian": { 
		 "optdone": 1, 
		 "sigma_profile": "yes", 
		 "theory": "DFT", 
		 "functional": "B3LYP", 
		 "basiset": "6-31G**", 
		 "properties": { 
			 "R2extent": 2137.0892, 
			 "electric_dipole_moment_norm": 1.72646427707, 
			 "electric_quadrupole_moment_norm": 10.3617837547, 
			 "total_energy": -441.450711693, 
			 "HOMO_LUMO_gap": 0.19075, 
			 "cosmo_polarized_energy": -9.56, 
			 "cosmo_cavitation_energy": 23.83, 
			 "cosmo_dispersion_energy": -17.85, 
			 "cosmo_repulsion_energy": 1.44, 
			 "cosmo_total_nonelectrostatic_energy": 7.43, 
			 "SMD_solvation_energy": 4.77 
		},
		"coords": [
			{
				"x": -2.7918576333,
				"y": -1.8117478237,
				"z": 1.3771272968,
				"element": "C" 
			},
			{
				"x": -2.7120885466,
				"y": -1.2015126177,
				"z": 0.1033572882,
				"element": "O" 
			},
			{
				"x": -1.7411333471,
				"y": -0.2500442438,
				"z": -0.0891830949,
				"element": "C" 
			},
			{
				"x": -0.8179277116,
				"y": 0.1597226685,
				"z": 0.8738312487,
				"element": "C" 
			},
			{
				"x": 0.1281638329,
				"y": 1.1363271481,
				"z": 0.5477716916,
				"element": "C" 
			},
			{
				"x": 0.1688626987,
				"y": 1.7239923664,
				"z": -0.7193581384,
				"element": "C" 
			},
			{
				"x": 1.081056631,
				"y": 2.7569039273,
				"z": -1.010393398,
				"element": "N" 
			},
			{
				"x": -0.7725872159,
				"y": 1.3139519783,
				"z": -1.6937541435,
				"element": "C" 
			},
			{
				"x": -0.7646842596,
				"y": 1.9437959063,
				"z": -3.0645979249,
				"element": "C" 
			},
			{
				"x": -1.7039886016,
				"y": 0.3336832322,
				"z": -1.362380862,
				"element": "C" 
			},
			{
				"x": -3.6183518413,
				"y": -2.5229235477,
				"z": 1.3236710225,
				"element": "H" 
			},
			{
				"x": -2.9997418965,
				"y": -1.079144601,
				"z": 2.1691639426,
				"element": "H" 
			},
			{
				"x": -1.8695085021,
				"y": -2.3527477739,
				"z": 1.6301228766,
				"element": "H" 
			},
			{
				"x": -0.8137940222,
				"y": -0.2675349441,
				"z": 1.8696734518,
				"element": "H" 
			},
			{
				"x": 0.8470291724,
				"y": 1.4483284229,
				"z": 1.3023024753,
				"element": "H" 
			},
			{
				"x": 1.4189407361,
				"y": 2.7563986701,
				"z": -1.9645249855,
				"element": "H" 
			},
			{
				"x": 1.85863929,
				"y": 2.7995082804,
				"z": -0.3639487646,
				"element": "H" 
			},
			{
				"x": -0.842595152,
				"y": 3.0359218346,
				"z": -3.0002213857,
				"element": "H" 
			},
			{
				"x": -1.5961014627,
				"y": 1.5778843802,
				"z": -3.6718929593,
				"element": "H" 
			},
			{
				"x": 0.161244685,
				"y": 1.7214273534,
				"z": -3.6146354778,
				"element": "H" 
			},
			{
				"x": -2.4332768534,
				"y": 0.0043093831,
				"z": -2.0968301596,
				"element": "H" 
			}
		],
		 "valence_orbital": [ 
			{
				"type": "occ",
				"energy": -0.32813,
				"method": "rhf"
			},
			{
				"type": "occ",
				"energy": -0.31419,
				"method": "rhf"
			},
			{
				"type": "occ",
				"energy": -0.26884,
				"method": "rhf"
			},
			{
				"type": "occ",
				"energy": -0.23349,
				"method": "rhf"
			},
			{
				"type": "occ",
				"energy": -0.1798,
				"method": "rhf"
			},
			{
				"type": "unocc",
				"energy": 0.01095,
				"method": "rhf"
			},
			{
				"type": "unocc",
				"energy": 0.03579,
				"method": "rhf"
			},
			{
				"type": "unocc",
				"energy": 0.08099,
				"method": "rhf"
			},
			{
				"type": "unocc",
				"energy": 0.10149,
				"method": "rhf"
			},
			{
				"type": "unocc",
				"energy": 0.11617,
				"method": "rhf"
			}
		],
		"cosmo_sigma_profile": { 
			"-0.025": 0.0,
			"-0.024": 0.0,
			"-0.023": 0.0,
			"-0.022": 0.0,
			"-0.021": 0.0,
			"-0.02": 0.0,
			"-0.019": 0.0,
			"-0.018": 0.0,
			"-0.017": 0.0,
			"-0.016": 0.0,
			"-0.015": 0.0,
			"-0.014": 0.0,
			"-0.013": 0.0,
			"-0.012": 0.399758687072,
			"-0.011": 2.13688860257,
			"-0.01": 2.54649413718,
			"-0.009": 3.65115991909,
			"-0.008": 3.42171889814,
			"-0.007": 2.18488628898,
			"-0.006": 4.67943073373,
			"-0.005": 13.6347842557,
			"-0.004": 19.4867533496,
			"-0.003": 18.7173160999,
			"-0.002": 16.2968726498,
			"-0.001": 11.3288498271,
			"0.0": 12.7109012626,
			"0.001": 10.045091833,
			"0.002": 6.84657318822,
			"0.003": 7.51006062598,
			"0.004": 7.92188811657,
			"0.005": 9.77304092467,
			"0.006": 11.1374240287,
			"0.007": 10.2185092032,
			"0.008": 3.44884628773,
			"0.009": 1.74262670972,
			"0.01": 2.0652795985,
			"0.011": 2.26159080598,
			"0.012": 1.08005481542,
			"0.013": 0.785772668893,
			"0.014": 0.557416673835,
			"0.015": 0.555878280122,
			"0.016": 0.369061143809,
			"0.017": 0.0374507981996,
			"0.018": 0.0,
			"0.019": 0.0,
			"0.02": 0.0,
			"0.021": 0.0,
			"0.022": 0.0,
			"0.023": 0.0,
			"0.024": 0.0,
			"0.025": 0.0
		}
	}
}
