{
	 "smiles": "CN1N=C(C=C1NC(=O)CCl)C(C)(C)C", 
	 "Tm": 412.15, 
	 "num_atms": 31, 
	 "gaussian": { 
		 "optdone": 1, 
		 "sigma_profile": "yes", 
		 "theory": "DFT", 
		 "functional": "B3LYP", 
		 "basiset": "6-31G**", 
		 "properties": { 
			 "R2extent": 5912.4743, 
			 "electric_dipole_moment_norm": 3.1253221418, 
			 "electric_quadrupole_moment_norm": 24.7525460038, 
			 "total_energy": -1090.37713998, 
			 "HOMO_LUMO_gap": 0.21003, 
			 "cosmo_polarized_energy": -17.25, 
			 "cosmo_cavitation_energy": 35.25, 
			 "cosmo_dispersion_energy": -24.75, 
			 "cosmo_repulsion_energy": 1.98, 
			 "cosmo_total_nonelectrostatic_energy": 12.47, 
			 "SMD_solvation_energy": 5.72 
		},
		"coords": [
			{
				"x": 1.5385503263,
				"y": 1.5223947708,
				"z": 2.2247619738,
				"element": "C" 
			},
			{
				"x": 0.625956334,
				"y": 0.9139748966,
				"z": 1.278136868,
				"element": "N" 
			},
			{
				"x": 1.0455384586,
				"y": 0.6502305073,
				"z": 0.0086056799,
				"element": "N" 
			},
			{
				"x": -0.0004529495,
				"y": 0.1040173624,
				"z": -0.6025719435,
				"element": "C" 
			},
			{
				"x": -1.1172480874,
				"y": 0.0074778083,
				"z": 0.2714882141,
				"element": "C" 
			},
			{
				"x": -0.6726371588,
				"y": 0.5399037411,
				"z": 1.4730062754,
				"element": "C" 
			},
			{
				"x": -1.2483202201,
				"y": 0.7469367178,
				"z": 2.7287225364,
				"element": "N" 
			},
			{
				"x": -2.5118868549,
				"y": 0.4859216085,
				"z": 3.2396601628,
				"element": "C" 
			},
			{
				"x": -2.7666070236,
				"y": 0.7681782184,
				"z": 4.3939688818,
				"element": "O" 
			},
			{
				"x": -3.5014177974,
				"y": -0.1551066042,
				"z": 2.2703154004,
				"element": "C" 
			},
			{
				"x": -5.0949035012,
				"y": -0.4494372245,
				"z": 3.0221886771,
				"element": "Cl" 
			},
			{
				"x": 0.067808353,
				"y": -0.3358420363,
				"z": -2.055479723,
				"element": "C" 
			},
			{
				"x": 1.4638936625,
				"y": -0.0548195338,
				"z": -2.639916921,
				"element": "C" 
			},
			{
				"x": -0.9932525088,
				"y": 0.4378439108,
				"z": -2.8713956894,
				"element": "C" 
			},
			{
				"x": -0.2274817424,
				"y": -1.8508726747,
				"z": -2.1426412055,
				"element": "C" 
			},
			{
				"x": 1.1697572139,
				"y": 2.4950239745,
				"z": 2.5710798154,
				"element": "H" 
			},
			{
				"x": 1.7152072448,
				"y": 0.8712516141,
				"z": 3.0889140792,
				"element": "H" 
			},
			{
				"x": 2.4804545417,
				"y": 1.6710640169,
				"z": 1.6987817023,
				"element": "H" 
			},
			{
				"x": -2.0885833699,
				"y": -0.3932634058,
				"z": 0.0383904634,
				"element": "H" 
			},
			{
				"x": -0.6597275831,
				"y": 1.1698787306,
				"z": 3.4357789536,
				"element": "H" 
			},
			{
				"x": -3.6508584057,
				"y": 0.4950251608,
				"z": 1.4053579452,
				"element": "H" 
			},
			{
				"x": -3.1117919107,
				"y": -1.1129727606,
				"z": 1.9183922776,
				"element": "H" 
			},
			{
				"x": 1.4998089579,
				"y": -0.3765438652,
				"z": -3.6862304049,
				"element": "H" 
			},
			{
				"x": 1.7046775547,
				"y": 1.0108606057,
				"z": -2.5970501111,
				"element": "H" 
			},
			{
				"x": 2.2405593014,
				"y": -0.5896858182,
				"z": -2.0865671123,
				"element": "H" 
			},
			{
				"x": -0.8096511178,
				"y": 1.5163051031,
				"z": -2.8308266204,
				"element": "H" 
			},
			{
				"x": -0.967246091,
				"y": 0.127368328,
				"z": -3.9218746515,
				"element": "H" 
			},
			{
				"x": -2.004872194,
				"y": 0.254516861,
				"z": -2.4941699137,
				"element": "H" 
			},
			{
				"x": 0.509888516,
				"y": -2.4276116017,
				"z": -1.5751093929,
				"element": "H" 
			},
			{
				"x": -0.1930823622,
				"y": -2.1865046813,
				"z": -3.1851081258,
				"element": "H" 
			},
			{
				"x": -1.2197795864,
				"y": -2.0919137303,
				"z": -1.7470080915,
				"element": "H" 
			}
		],
		 "valence_orbital": [ 
			{
				"type": "occ",
				"energy": -0.30297,
				"method": "rhf"
			},
			{
				"type": "occ",
				"energy": -0.29265,
				"method": "rhf"
			},
			{
				"type": "occ",
				"energy": -0.27769,
				"method": "rhf"
			},
			{
				"type": "occ",
				"energy": -0.2485,
				"method": "rhf"
			},
			{
				"type": "occ",
				"energy": -0.22607,
				"method": "rhf"
			},
			{
				"type": "unocc",
				"energy": -0.01604,
				"method": "rhf"
			},
			{
				"type": "unocc",
				"energy": 0.01699,
				"method": "rhf"
			},
			{
				"type": "unocc",
				"energy": 0.03723,
				"method": "rhf"
			},
			{
				"type": "unocc",
				"energy": 0.06321,
				"method": "rhf"
			},
			{
				"type": "unocc",
				"energy": 0.06576,
				"method": "rhf"
			}
		],
		"cosmo_sigma_profile": { 
			"-0.025": 0.0,
			"-0.024": 0.0,
			"-0.023": 0.0,
			"-0.022": 0.0,
			"-0.021": 0.0,
			"-0.02": 0.0,
			"-0.019": 0.0,
			"-0.018": 0.0,
			"-0.017": 0.0,
			"-0.016": 0.0,
			"-0.015": 0.0266634855161,
			"-0.014": 1.17136291498,
			"-0.013": 1.57574384244,
			"-0.012": 0.978781888906,
			"-0.011": 1.58296903723,
			"-0.01": 2.4625964841,
			"-0.009": 8.13570654836,
			"-0.008": 7.51333342705,
			"-0.007": 8.42799315758,
			"-0.006": 10.1310819769,
			"-0.005": 10.2519253964,
			"-0.004": 12.4797273854,
			"-0.003": 18.5484767715,
			"-0.002": 26.8184331213,
			"-0.001": 23.7008962281,
			"0.0": 23.9662718257,
			"0.001": 27.9231275768,
			"0.002": 18.2220685583,
			"0.003": 10.3259828575,
			"0.004": 11.1949573682,
			"0.005": 14.5182601061,
			"0.006": 8.96358359271,
			"0.007": 3.52944046283,
			"0.008": 2.61383560704,
			"0.009": 3.5340460026,
			"0.01": 4.33179407599,
			"0.011": 3.97785324613,
			"0.012": 6.96663175014,
			"0.013": 3.47292394307,
			"0.014": 1.19524334573,
			"0.015": 0.06297762931,
			"0.016": 0.0,
			"0.017": 0.0,
			"0.018": 0.0,
			"0.019": 0.0,
			"0.02": 0.0,
			"0.021": 0.0,
			"0.022": 0.0,
			"0.023": 0.0,
			"0.024": 0.0,
			"0.025": 0.0
		}
	}
}
