{
	 "smiles": "CC(C)C1NC(=O)CNC1=O", 
	 "Tm": 528.15, 
	 "num_atms": 23, 
	 "gaussian": { 
		 "optdone": 1, 
		 "sigma_profile": "yes", 
		 "theory": "DFT", 
		 "functional": "B3LYP", 
		 "basiset": "6-31G**", 
		 "properties": { 
			 "R2extent": 1853.3095, 
			 "electric_dipole_moment_norm": 0.855889484688, 
			 "electric_quadrupole_moment_norm": 20.0798438985, 
			 "total_energy": -533.9625704, 
			 "HOMO_LUMO_gap": 0.26406, 
			 "cosmo_polarized_energy": -16.9, 
			 "cosmo_cavitation_energy": 25.27, 
			 "cosmo_dispersion_energy": -18.18, 
			 "cosmo_repulsion_energy": 1.48, 
			 "cosmo_total_nonelectrostatic_energy": 8.57, 
			 "SMD_solvation_energy": 4.61 
		},
		"coords": [
			{
				"x": -1.3941297165,
				"y": 1.5706765355,
				"z": 1.3766381249,
				"element": "C" 
			},
			{
				"x": -1.6381445798,
				"y": 1.6043535749,
				"z": -0.1376470666,
				"element": "C" 
			},
			{
				"x": -1.6992854814,
				"y": 3.0444025332,
				"z": -0.6648984433,
				"element": "C" 
			},
			{
				"x": -0.5942438717,
				"y": 0.7617344101,
				"z": -0.9249395479,
				"element": "C" 
			},
			{
				"x": 0.7731192543,
				"y": 1.2564292175,
				"z": -0.7867743079,
				"element": "N" 
			},
			{
				"x": 1.8259995055,
				"y": 0.6643334765,
				"z": -0.1611291908,
				"element": "C" 
			},
			{
				"x": 2.9201342273,
				"y": 1.196972228,
				"z": -0.0395621111,
				"element": "O" 
			},
			{
				"x": 1.5835308482,
				"y": -0.7279331167,
				"z": 0.4078959625,
				"element": "C" 
			},
			{
				"x": 0.3376434653,
				"y": -1.3426078649,
				"z": -0.0191073603,
				"element": "N" 
			},
			{
				"x": -0.7404480966,
				"y": -0.7184240851,
				"z": -0.5667618745,
				"element": "C" 
			},
			{
				"x": -1.797354486,
				"y": -1.2974042442,
				"z": -0.7843300955,
				"element": "O" 
			},
			{
				"x": -0.4218111798,
				"y": 2.0058716496,
				"z": 1.633028756,
				"element": "H" 
			},
			{
				"x": -2.162434818,
				"y": 2.1480297123,
				"z": 1.9002470486,
				"element": "H" 
			},
			{
				"x": -1.4282370705,
				"y": 0.5489422861,
				"z": 1.7687337466,
				"element": "H" 
			},
			{
				"x": -2.5961574402,
				"y": 1.1156045079,
				"z": -0.3487295125,
				"element": "H" 
			},
			{
				"x": -2.5105510759,
				"y": 3.595506905,
				"z": -0.1792795678,
				"element": "H" 
			},
			{
				"x": -1.879062794,
				"y": 3.0725038021,
				"z": -1.7455977977,
				"element": "H" 
			},
			{
				"x": -0.7723076388,
				"y": 3.5928511767,
				"z": -0.4577405619,
				"element": "H" 
			},
			{
				"x": -0.8690649262,
				"y": 0.8157563659,
				"z": -1.9864558184,
				"element": "H" 
			},
			{
				"x": 0.9807350765,
				"y": 2.1795260757,
				"z": -1.1470395153,
				"element": "H" 
			},
			{
				"x": 1.6363679871,
				"y": -0.641732261,
				"z": 1.5022339677,
				"element": "H" 
			},
			{
				"x": 2.4336368584,
				"y": -1.3423669681,
				"z": 0.0957735013,
				"element": "H" 
			},
			{
				"x": 0.1761659527,
				"y": -2.3154259171,
				"z": 0.2102416638,
				"element": "H" 
			}
		],
		 "valence_orbital": [ 
			{
				"type": "occ",
				"energy": -0.34182,
				"method": "rhf"
			},
			{
				"type": "occ",
				"energy": -0.2709,
				"method": "rhf"
			},
			{
				"type": "occ",
				"energy": -0.26322,
				"method": "rhf"
			},
			{
				"type": "occ",
				"energy": -0.25839,
				"method": "rhf"
			},
			{
				"type": "occ",
				"energy": -0.251,
				"method": "rhf"
			},
			{
				"type": "unocc",
				"energy": 0.01306,
				"method": "rhf"
			},
			{
				"type": "unocc",
				"energy": 0.01872,
				"method": "rhf"
			},
			{
				"type": "unocc",
				"energy": 0.06042,
				"method": "rhf"
			},
			{
				"type": "unocc",
				"energy": 0.08415,
				"method": "rhf"
			},
			{
				"type": "unocc",
				"energy": 0.10712,
				"method": "rhf"
			}
		],
		"cosmo_sigma_profile": { 
			"-0.025": 0.0,
			"-0.024": 0.0,
			"-0.023": 0.0,
			"-0.022": 0.0,
			"-0.021": 0.0,
			"-0.02": 0.0,
			"-0.019": 0.0,
			"-0.018": 0.0,
			"-0.017": 0.0,
			"-0.016": 0.0,
			"-0.015": 0.401270100737,
			"-0.014": 1.47659983068,
			"-0.013": 1.76126434806,
			"-0.012": 2.74408799383,
			"-0.011": 1.50839966704,
			"-0.01": 2.42842933034,
			"-0.009": 2.18593299306,
			"-0.008": 2.67310393769,
			"-0.007": 7.98907309578,
			"-0.006": 10.1370716397,
			"-0.005": 8.99371453347,
			"-0.004": 12.1010916131,
			"-0.003": 21.2012328271,
			"-0.002": 19.4124517973,
			"-0.001": 19.5992512168,
			"0.0": 15.81211197,
			"0.001": 14.9008792533,
			"0.002": 5.64651463788,
			"0.003": 3.02990023967,
			"0.004": 2.17720158693,
			"0.005": 2.39178313689,
			"0.006": 2.30374806394,
			"0.007": 3.2424591517,
			"0.008": 2.13029002925,
			"0.009": 1.7816702206,
			"0.01": 2.09088387443,
			"0.011": 2.83223988987,
			"0.012": 4.41555830405,
			"0.013": 7.98910257673,
			"0.014": 10.1911290265,
			"0.015": 1.19816370765,
			"0.016": 0.0,
			"0.017": 0.0,
			"0.018": 0.0,
			"0.019": 0.0,
			"0.02": 0.0,
			"0.021": 0.0,
			"0.022": 0.0,
			"0.023": 0.0,
			"0.024": 0.0,
			"0.025": 0.0
		}
	}
}
