{
	 "smiles": "OC(=O)C1=C2C=CC=CC2=NC(=C1)C1=CN=CC=C1", 
	 "Tm": 597.15, 
	 "num_atms": 29, 
	 "gaussian": { 
		 "optdone": 1, 
		 "sigma_profile": "yes", 
		 "theory": "DFT", 
		 "functional": "B3LYP", 
		 "basiset": "6-31G**", 
		 "properties": { 
			 "R2extent": 5791.9817, 
			 "electric_dipole_moment_norm": 3.3878037517, 
			 "electric_quadrupole_moment_norm": 11.4120222879, 
			 "total_energy": -837.586330016, 
			 "HOMO_LUMO_gap": 0.1528, 
			 "cosmo_polarized_energy": -17.34, 
			 "cosmo_cavitation_energy": 33.95, 
			 "cosmo_dispersion_energy": -24.92, 
			 "cosmo_repulsion_energy": 1.86, 
			 "cosmo_total_nonelectrostatic_energy": 10.89, 
			 "SMD_solvation_energy": 4.06 
		},
		"coords": [
			{
				"x": -1.5248181842,
				"y": 3.1648554487,
				"z": -2.2992955445,
				"element": "O" 
			},
			{
				"x": -0.2919175516,
				"y": 2.6085211751,
				"z": -2.1728842794,
				"element": "C" 
			},
			{
				"x": 0.6673235582,
				"y": 3.1435266537,
				"z": -2.6744769692,
				"element": "O" 
			},
			{
				"x": -0.2325775801,
				"y": 1.3383727268,
				"z": -1.3646211681,
				"element": "C" 
			},
			{
				"x": 0.6836014274,
				"y": 0.2894088741,
				"z": -1.6889002894,
				"element": "C" 
			},
			{
				"x": 1.57056496,
				"y": 0.3024179769,
				"z": -2.7981005569,
				"element": "C" 
			},
			{
				"x": 2.4023204198,
				"y": -0.7706839977,
				"z": -3.033399254,
				"element": "C" 
			},
			{
				"x": 2.3906827606,
				"y": -1.9004037727,
				"z": -2.1797019825,
				"element": "C" 
			},
			{
				"x": 1.5443616632,
				"y": -1.9420206581,
				"z": -1.0963257675,
				"element": "C" 
			},
			{
				"x": 0.6724751421,
				"y": -0.8543039479,
				"z": -0.8221048892,
				"element": "C" 
			},
			{
				"x": -0.1400690036,
				"y": -0.957177137,
				"z": 0.2642242327,
				"element": "N" 
			},
			{
				"x": -0.9725366579,
				"y": 0.0309068413,
				"z": 0.5509848561,
				"element": "C" 
			},
			{
				"x": -1.0417927664,
				"y": 1.2041909663,
				"z": -0.2542891325,
				"element": "C" 
			},
			{
				"x": -1.8221852668,
				"y": -0.1333722966,
				"z": 1.7584928893,
				"element": "C" 
			},
			{
				"x": -2.9768978193,
				"y": 0.6327087215,
				"z": 1.9850899644,
				"element": "C" 
			},
			{
				"x": -3.7635147607,
				"y": 0.5139226486,
				"z": 3.0589186169,
				"element": "N" 
			},
			{
				"x": -3.4221596498,
				"y": -0.401267954,
				"z": 3.9735604885,
				"element": "C" 
			},
			{
				"x": -2.3054081784,
				"y": -1.2313582356,
				"z": 3.8484036814,
				"element": "C" 
			},
			{
				"x": -1.4972825449,
				"y": -1.0967180473,
				"z": 2.7262006843,
				"element": "C" 
			},
			{
				"x": -2.1989839239,
				"y": 2.5549003211,
				"z": -1.9671198204,
				"element": "H" 
			},
			{
				"x": 1.5970607399,
				"y": 1.1724778101,
				"z": -3.4413713611,
				"element": "H" 
			},
			{
				"x": 3.0779900165,
				"y": -0.7487827347,
				"z": -3.8831701608,
				"element": "H" 
			},
			{
				"x": 3.0546604962,
				"y": -2.7350845553,
				"z": -2.38447687,
				"element": "H" 
			},
			{
				"x": 1.5101121629,
				"y": -2.7924592036,
				"z": -0.4237178127,
				"element": "H" 
			},
			{
				"x": -1.6904883483,
				"y": 2.0204601747,
				"z": 0.0447873857,
				"element": "H" 
			},
			{
				"x": -3.302873551,
				"y": 1.3713372981,
				"z": 1.2552234884,
				"element": "H" 
			},
			{
				"x": -4.0723182509,
				"y": -0.47613765,
				"z": 4.8433320828,
				"element": "H" 
			},
			{
				"x": -2.0769865632,
				"y": -1.9626211524,
				"z": 4.6174809596,
				"element": "H" 
			},
			{
				"x": -0.6200427457,
				"y": -1.716016294,
				"z": 2.575756528,
				"element": "H" 
			}
		],
		 "valence_orbital": [ 
			{
				"type": "occ",
				"energy": -0.28369,
				"method": "rhf"
			},
			{
				"type": "occ",
				"energy": -0.26994,
				"method": "rhf"
			},
			{
				"type": "occ",
				"energy": -0.26243,
				"method": "rhf"
			},
			{
				"type": "occ",
				"energy": -0.25608,
				"method": "rhf"
			},
			{
				"type": "occ",
				"energy": -0.24039,
				"method": "rhf"
			},
			{
				"type": "unocc",
				"energy": -0.08759,
				"method": "rhf"
			},
			{
				"type": "unocc",
				"energy": -0.05406,
				"method": "rhf"
			},
			{
				"type": "unocc",
				"energy": -0.02927,
				"method": "rhf"
			},
			{
				"type": "unocc",
				"energy": -0.01638,
				"method": "rhf"
			},
			{
				"type": "unocc",
				"energy": -0.0022,
				"method": "rhf"
			}
		],
		"cosmo_sigma_profile": { 
			"-0.025": 0.0,
			"-0.024": 0.0,
			"-0.023": 0.0,
			"-0.022": 0.0,
			"-0.021": 0.0,
			"-0.02": 0.0,
			"-0.019": 0.558330828635,
			"-0.018": 0.657755529556,
			"-0.017": 0.856233299913,
			"-0.016": 1.45687285603,
			"-0.015": 0.792970477769,
			"-0.014": 1.47142574544,
			"-0.013": 1.19846799526,
			"-0.012": 1.25643242248,
			"-0.011": 1.31880985698,
			"-0.01": 1.84978561804,
			"-0.009": 2.8065801385,
			"-0.008": 2.49818496916,
			"-0.007": 7.82180156624,
			"-0.006": 16.2084387701,
			"-0.005": 18.1701471413,
			"-0.004": 15.9497859549,
			"-0.003": 15.5007637622,
			"-0.002": 14.6474892539,
			"-0.001": 19.0424380407,
			"0.0": 19.69862252,
			"0.001": 24.3694917474,
			"0.002": 27.3352327378,
			"0.003": 20.0462661124,
			"0.004": 11.9895362153,
			"0.005": 5.54755645633,
			"0.006": 4.20647463797,
			"0.007": 6.77294732584,
			"0.008": 6.50408337749,
			"0.009": 5.30136455664,
			"0.01": 6.25583969543,
			"0.011": 5.82130775134,
			"0.012": 3.15421329323,
			"0.013": 0.539336964731,
			"0.014": 1.2607533965,
			"0.015": 0.758700805516,
			"0.016": 0.706112410599,
			"0.017": 0.173785332417,
			"0.018": 0.0,
			"0.019": 0.0,
			"0.02": 0.0,
			"0.021": 0.0,
			"0.022": 0.0,
			"0.023": 0.0,
			"0.024": 0.0,
			"0.0": 0.0
		}
	}
}
