{
	 "smiles": "CC1=C(C)C(=CC(=C1)C(O)=O)S(Cl)(=O)=O", 
	 "Tm": 445.15, 
	 "num_atms": 24, 
	 "gaussian": { 
		 "optdone": 1, 
		 "sigma_profile": "yes", 
		 "theory": "DFT", 
		 "functional": "B3LYP", 
		 "basiset": "6-31G**", 
		 "properties": { 
			 "R2extent": 4513.7352, 
			 "electric_dipole_moment_norm": 4.0869655357, 
			 "electric_quadrupole_moment_norm": 26.2683033116, 
			 "total_energy": -1507.60570843, 
			 "HOMO_LUMO_gap": 0.18336, 
			 "cosmo_polarized_energy": -17.22, 
			 "cosmo_cavitation_energy": 31.11, 
			 "cosmo_dispersion_energy": -22.98, 
			 "cosmo_repulsion_energy": 1.74, 
			 "cosmo_total_nonelectrostatic_energy": 9.88, 
			 "SMD_solvation_energy": 5.3 
		},
		"coords": [
			{
				"x": 3.2236134609,
				"y": -0.6533279861,
				"z": 1.3946802426,
				"element": "C" 
			},
			{
				"x": 1.8281062619,
				"y": -0.3754172824,
				"z": 0.8844315996,
				"element": "C" 
			},
			{
				"x": 1.2468565913,
				"y": 0.9110410228,
				"z": 1.0087236722,
				"element": "C" 
			},
			{
				"x": 2.0150251792,
				"y": 2.028503361,
				"z": 1.671923251,
				"element": "C" 
			},
			{
				"x": -0.0431761889,
				"y": 1.076414585,
				"z": 0.470428749,
				"element": "C" 
			},
			{
				"x": -0.7654404466,
				"y": 0.0433131729,
				"z": -0.1297348606,
				"element": "C" 
			},
			{
				"x": -0.1873741688,
				"y": -1.221507102,
				"z": -0.2168868079,
				"element": "C" 
			},
			{
				"x": 1.1094055924,
				"y": -1.4047275568,
				"z": 0.27503755,
				"element": "C" 
			},
			{
				"x": -0.8642398629,
				"y": -2.3993699788,
				"z": -0.8589969801,
				"element": "C" 
			},
			{
				"x": -2.2081832168,
				"y": -2.329484207,
				"z": -1.0219118241,
				"element": "O" 
			},
			{
				"x": -0.2569769187,
				"y": -3.3781018564,
				"z": -1.2231430758,
				"element": "O" 
			},
			{
				"x": -0.8715228203,
				"y": 2.6744895235,
				"z": 0.4446109493,
				"element": "S" 
			},
			{
				"x": -1.4668119829,
				"y": 2.8874332258,
				"z": 2.4888817412,
				"element": "Cl" 
			},
			{
				"x": -2.1095249952,
				"y": 2.5504140883,
				"z": -0.3158806224,
				"element": "O" 
			},
			{
				"x": 0.0814887478,
				"y": 3.74441223,
				"z": 0.1795084275,
				"element": "O" 
			},
			{
				"x": 3.2838402632,
				"y": -0.5561521484,
				"z": 2.4848502928,
				"element": "H" 
			},
			{
				"x": 3.5305657037,
				"y": -1.6688751191,
				"z": 1.1358563001,
				"element": "H" 
			},
			{
				"x": 3.9566178964,
				"y": 0.0387151176,
				"z": 0.9673689271,
				"element": "H" 
			},
			{
				"x": 2.5836721902,
				"y": 2.5972917192,
				"z": 0.927311618,
				"element": "H" 
			},
			{
				"x": 1.3657637496,
				"y": 2.7380058213,
				"z": 2.1833139709,
				"element": "H" 
			},
			{
				"x": 2.7220527145,
				"y": 1.6303544173,
				"z": 2.4007279617,
				"element": "H" 
			},
			{
				"x": -1.7401762534,
				"y": 0.2693993891,
				"z": -0.54800727,
				"element": "H" 
			},
			{
				"x": 1.5530517486,
				"y": -2.3892562564,
				"z": 0.1676148276,
				"element": "H" 
			},
			{
				"x": -2.5788332452,
				"y": -1.5704681806,
				"z": -0.55090864,
				"element": "H" 
			}
		],
		 "valence_orbital": [ 
			{
				"type": "occ",
				"energy": -0.33108,
				"method": "rhf"
			},
			{
				"type": "occ",
				"energy": -0.32436,
				"method": "rhf"
			},
			{
				"type": "occ",
				"energy": -0.29802,
				"method": "rhf"
			},
			{
				"type": "occ",
				"energy": -0.28943,
				"method": "rhf"
			},
			{
				"type": "occ",
				"energy": -0.28356,
				"method": "rhf"
			},
			{
				"type": "unocc",
				"energy": -0.1002,
				"method": "rhf"
			},
			{
				"type": "unocc",
				"energy": -0.07541,
				"method": "rhf"
			},
			{
				"type": "unocc",
				"energy": -0.05357,
				"method": "rhf"
			},
			{
				"type": "unocc",
				"energy": 0.01442,
				"method": "rhf"
			},
			{
				"type": "unocc",
				"energy": 0.04413,
				"method": "rhf"
			}
		],
		"cosmo_sigma_profile": { 
			"-0.025": 0.0,
			"-0.024": 0.0,
			"-0.023": 0.0,
			"-0.022": 0.0,
			"-0.021": 0.0,
			"-0.02": 0.309954886891,
			"-0.019": 0.980255524362,
			"-0.018": 1.41003953619,
			"-0.017": 0.435445977132,
			"-0.016": 0.854857544041,
			"-0.015": 1.25016935298,
			"-0.014": 1.40719044822,
			"-0.013": 0.673449998327,
			"-0.012": 0.789195885277,
			"-0.011": 1.27379592926,
			"-0.01": 1.27670190703,
			"-0.009": 1.10314919052,
			"-0.008": 1.70318657114,
			"-0.007": 4.69949681761,
			"-0.006": 9.57091035102,
			"-0.005": 15.2793519383,
			"-0.004": 17.6073399815,
			"-0.003": 18.4636715106,
			"-0.002": 24.5045541697,
			"-0.001": 28.1835398583,
			"0.0": 19.159922431,
			"0.001": 12.3839554883,
			"0.002": 12.1997392746,
			"0.003": 14.5200397083,
			"0.004": 8.64631695784,
			"0.005": 5.59008286061,
			"0.006": 5.88462348976,
			"0.007": 8.69292129665,
			"0.008": 11.0861358964,
			"0.009": 7.01777717166,
			"0.01": 5.01394983184,
			"0.011": 5.33591915291,
			"0.012": 3.10514465864,
			"0.013": 0.556384541277,
			"0.014": 0.0,
			"0.015": 0.0,
			"0.016": 0.0,
			"0.017": 0.0,
			"0.018": 0.0,
			"0.019": 0.0,
			"0.02": 0.0,
			"0.021": 0.0,
			"0.022": 0.0,
			"0.023": 0.0,
			"0.024": 0.0,
			"0.025": 0.0
		}
	}
}
