{
	 "smiles": "COC(=O)C1=C(F)C(F)=CC(=C1)S(Cl)(=O)=O", 
	 "Tm": 330.15, 
	 "num_atms": 21, 
	 "gaussian": { 
		 "optdone": 1, 
		 "sigma_profile": "yes", 
		 "theory": "DFT", 
		 "functional": "B3LYP", 
		 "basiset": "6-31G**", 
		 "properties": { 
			 "R2extent": 5651.7104, 
			 "electric_dipole_moment_norm": 4.92465847445, 
			 "electric_quadrupole_moment_norm": 11.4380052229, 
			 "total_energy": -1666.73170833, 
			 "HOMO_LUMO_gap": 0.18951, 
			 "cosmo_polarized_energy": -11.22, 
			 "cosmo_cavitation_energy": 31.32, 
			 "cosmo_dispersion_energy": -22.74, 
			 "cosmo_repulsion_energy": 1.7, 
			 "cosmo_total_nonelectrostatic_energy": 10.28, 
			 "SMD_solvation_energy": 6.67 
		},
		"coords": [
			{
				"x": 0.2315697276,
				"y": -5.3302542046,
				"z": -0.1644193381,
				"element": "C" 
			},
			{
				"x": -0.1997330345,
				"y": -4.091966481,
				"z": 0.4335443756,
				"element": "O" 
			},
			{
				"x": 0.5221123467,
				"y": -3.0146441393,
				"z": 0.096931459,
				"element": "C" 
			},
			{
				"x": 1.4761366064,
				"y": -3.0387731333,
				"z": -0.6533726527,
				"element": "O" 
			},
			{
				"x": 0.0390007519,
				"y": -1.7487175366,
				"z": 0.7429762114,
				"element": "C" 
			},
			{
				"x": -1.054604273,
				"y": -1.6483203854,
				"z": 1.61174835,
				"element": "C" 
			},
			{
				"x": -1.7911106884,
				"y": -2.6995561102,
				"z": 1.9605948299,
				"element": "F" 
			},
			{
				"x": -1.423515574,
				"y": -0.4091142426,
				"z": 2.1547097484,
				"element": "C" 
			},
			{
				"x": -2.480911228,
				"y": -0.3681686836,
				"z": 2.9726725058,
				"element": "F" 
			},
			{
				"x": -0.7243025338,
				"y": 0.744962667,
				"z": 1.8544388854,
				"element": "C" 
			},
			{
				"x": 0.3671680707,
				"y": 0.6295601866,
				"z": 0.9878104483,
				"element": "C" 
			},
			{
				"x": 0.7543795876,
				"y": -0.5819693109,
				"z": 0.4335546703,
				"element": "C" 
			},
			{
				"x": 1.2792636019,
				"y": 2.1099998696,
				"z": 0.5696687128,
				"element": "S" 
			},
			{
				"x": 2.7465742442,
				"y": 2.1386036557,
				"z": 2.1109371417,
				"element": "Cl" 
			},
			{
				"x": 0.425111625,
				"y": 3.2682349345,
				"z": 0.7980897159,
				"element": "O" 
			},
			{
				"x": 1.9967067002,
				"y": 1.8954347931,
				"z": -0.67872562,
				"element": "O" 
			},
			{
				"x": -0.4560100414,
				"y": -6.0866640159,
				"z": 0.2113615482,
				"element": "H" 
			},
			{
				"x": 1.2583035479,
				"y": -5.557975447,
				"z": 0.130687166,
				"element": "H" 
			},
			{
				"x": 0.1799059427,
				"y": -5.2652234044,
				"z": -1.2535385107,
				"element": "H" 
			},
			{
				"x": -1.028436413,
				"y": 1.6973179213,
				"z": 2.2725642175,
				"element": "H" 
			},
			{
				"x": 1.5965910333,
				"y": -0.655866933,
				"z": -0.2445338647,
				"element": "H" 
			}
		],
		 "valence_orbital": [ 
			{
				"type": "occ",
				"energy": -0.32649,
				"method": "rhf"
			},
			{
				"type": "occ",
				"energy": -0.32175,
				"method": "rhf"
			},
			{
				"type": "occ",
				"energy": -0.30503,
				"method": "rhf"
			},
			{
				"type": "occ",
				"energy": -0.30451,
				"method": "rhf"
			},
			{
				"type": "occ",
				"energy": -0.28976,
				"method": "rhf"
			},
			{
				"type": "unocc",
				"energy": -0.10025,
				"method": "rhf"
			},
			{
				"type": "unocc",
				"energy": -0.08258,
				"method": "rhf"
			},
			{
				"type": "unocc",
				"energy": -0.05178,
				"method": "rhf"
			},
			{
				"type": "unocc",
				"energy": 0.01388,
				"method": "rhf"
			},
			{
				"type": "unocc",
				"energy": 0.03727,
				"method": "rhf"
			}
		],
		"cosmo_sigma_profile": { 
			"-0.025": 0.0,
			"-0.024": 0.0,
			"-0.023": 0.0,
			"-0.022": 0.0,
			"-0.021": 0.0,
			"-0.02": 0.0,
			"-0.019": 0.0,
			"-0.018": 0.0,
			"-0.017": 0.0,
			"-0.016": 0.0,
			"-0.015": 0.0,
			"-0.014": 0.0,
			"-0.013": 0.0,
			"-0.012": 0.0,
			"-0.011": 0.458824915458,
			"-0.01": 1.27114010829,
			"-0.009": 1.43579850455,
			"-0.008": 2.09143884689,
			"-0.007": 6.79981675261,
			"-0.006": 10.3500354488,
			"-0.005": 21.8914380125,
			"-0.004": 26.1471232551,
			"-0.003": 23.7088710449,
			"-0.002": 19.1082653669,
			"-0.001": 12.8638872936,
			"0.0": 12.8726721126,
			"0.001": 14.0631754365,
			"0.002": 26.5029447904,
			"0.003": 24.9339859005,
			"0.004": 7.23583338212,
			"0.005": 6.14721294923,
			"0.006": 7.27323479841,
			"0.007": 10.9413717335,
			"0.008": 9.14004892211,
			"0.009": 3.57462968245,
			"0.01": 2.72141197975,
			"0.011": 3.45971322447,
			"0.012": 0.204163101363,
			"0.013": 0.0,
			"0.014": 0.0,
			"0.015": 0.0,
			"0.016": 0.0,
			"0.017": 0.0,
			"0.018": 0.0,
			"0.019": 0.0,
			"0.02": 0.0,
			"0.021": 0.0,
			"0.022": 0.0,
			"0.023": 0.0,
			"0.024": 0.0,
			"0.025": 0.0
		}
	}
}
