{
	 "smiles": "OC(=O)CSCC1=CC=CC=C1", 
	 "Tm": 334.65, 
	 "num_atms": 22, 
	 "gaussian": { 
		 "optdone": 1, 
		 "sigma_profile": "yes", 
		 "theory": "DFT", 
		 "functional": "B3LYP", 
		 "basiset": "6-31G**", 
		 "properties": { 
			 "R2extent": 2795.9347, 
			 "electric_dipole_moment_norm": 3.53847325975, 
			 "electric_quadrupole_moment_norm": 14.7269761054, 
			 "total_energy": -897.630106504, 
			 "HOMO_LUMO_gap": 0.21839, 
			 "cosmo_polarized_energy": -14.04, 
			 "cosmo_cavitation_energy": 27.32, 
			 "cosmo_dispersion_energy": -19.35, 
			 "cosmo_repulsion_energy": 1.51, 
			 "cosmo_total_nonelectrostatic_energy": 9.48, 
			 "SMD_solvation_energy": 5.13 
		},
		"coords": [
			{
				"x": -0.1157902907,
				"y": -1.4679146636,
				"z": 2.4769436692,
				"element": "O" 
			},
			{
				"x": 1.1380151833,
				"y": -1.0176716143,
				"z": 2.6415448463,
				"element": "C" 
			},
			{
				"x": 1.3969088208,
				"y": -0.0697639916,
				"z": 3.3420951213,
				"element": "O" 
			},
			{
				"x": 2.2559006224,
				"y": -1.8177477572,
				"z": 1.9537485503,
				"element": "C" 
			},
			{
				"x": 1.7775594387,
				"y": -2.9456807239,
				"z": 0.5934347037,
				"element": "S" 
			},
			{
				"x": 1.7023922394,
				"y": -1.7831536169,
				"z": -0.8524636379,
				"element": "C" 
			},
			{
				"x": 0.6144080286,
				"y": -0.7426691875,
				"z": -0.8015440695,
				"element": "C" 
			},
			{
				"x": -0.7123234386,
				"y": -1.080175548,
				"z": -1.1088113635,
				"element": "C" 
			},
			{
				"x": -1.7200402294,
				"y": -0.1196941308,
				"z": -1.0533907111,
				"element": "C" 
			},
			{
				"x": -1.4167514966,
				"y": 1.1949613242,
				"z": -0.688587429,
				"element": "C" 
			},
			{
				"x": -0.1008266435,
				"y": 1.5423650277,
				"z": -0.3853382132,
				"element": "C" 
			},
			{
				"x": 0.9086377421,
				"y": 0.5793579175,
				"z": -0.4447375483,
				"element": "C" 
			},
			{
				"x": -0.103145894,
				"y": -2.1896727492,
				"z": 1.8188908534,
				"element": "H" 
			},
			{
				"x": 2.7076802348,
				"y": -2.4587104419,
				"z": 2.7183993452,
				"element": "H" 
			},
			{
				"x": 3.0292115707,
				"y": -1.1189678667,
				"z": 1.6278997526,
				"element": "H" 
			},
			{
				"x": 2.6898776402,
				"y": -1.3235816376,
				"z": -0.9500004751,
				"element": "H" 
			},
			{
				"x": 1.5668022373,
				"y": -2.459057315,
				"z": -1.7019578106,
				"element": "H" 
			},
			{
				"x": -0.9533499116,
				"y": -2.1021171795,
				"z": -1.3922206351,
				"element": "H" 
			},
			{
				"x": -2.7422362961,
				"y": -0.3950332055,
				"z": -1.2965078897,
				"element": "H" 
			},
			{
				"x": -2.2028444791,
				"y": 1.9426839808,
				"z": -0.6422140442,
				"element": "H" 
			},
			{
				"x": 0.143363288,
				"y": 2.5613209468,
				"z": -0.1005049656,
				"element": "H" 
			},
			{
				"x": 1.9333516334,
				"y": 0.8597224321,
				"z": -0.2137780491,
				"element": "H" 
			}
		],
		 "valence_orbital": [ 
			{
				"type": "occ",
				"energy": -0.30749,
				"method": "rhf"
			},
			{
				"type": "occ",
				"energy": -0.2803,
				"method": "rhf"
			},
			{
				"type": "occ",
				"energy": -0.25931,
				"method": "rhf"
			},
			{
				"type": "occ",
				"energy": -0.25541,
				"method": "rhf"
			},
			{
				"type": "occ",
				"energy": -0.24264,
				"method": "rhf"
			},
			{
				"type": "unocc",
				"energy": -0.02425,
				"method": "rhf"
			},
			{
				"type": "unocc",
				"energy": -0.01192,
				"method": "rhf"
			},
			{
				"type": "unocc",
				"energy": 0.01108,
				"method": "rhf"
			},
			{
				"type": "unocc",
				"energy": 0.03046,
				"method": "rhf"
			},
			{
				"type": "unocc",
				"energy": 0.05694,
				"method": "rhf"
			}
		],
		"cosmo_sigma_profile": { 
			"-0.025": 0.0,
			"-0.024": 0.0,
			"-0.023": 0.0,
			"-0.022": 0.0,
			"-0.021": 0.0,
			"-0.02": 0.0,
			"-0.019": 0.0,
			"-0.018": 0.0,
			"-0.017": 0.0,
			"-0.016": 0.0,
			"-0.015": 0.0,
			"-0.014": 0.0,
			"-0.013": 0.0,
			"-0.012": 0.234576156347,
			"-0.011": 0.570604277672,
			"-0.01": 0.916930140429,
			"-0.009": 4.58646422621,
			"-0.008": 6.19847725757,
			"-0.007": 9.82898044052,
			"-0.006": 17.0519503781,
			"-0.005": 17.7997034927,
			"-0.004": 18.1104077444,
			"-0.003": 15.8398087709,
			"-0.002": 10.8808670668,
			"-0.001": 11.9804739117,
			"0.0": 9.38442190658,
			"0.001": 9.97777799808,
			"0.002": 10.4817801218,
			"0.003": 11.0312989137,
			"0.004": 13.7830816165,
			"0.005": 13.0482066895,
			"0.006": 7.97292445486,
			"0.007": 4.06869487636,
			"0.008": 4.25027826073,
			"0.009": 3.71557581827,
			"0.01": 4.829222652,
			"0.011": 4.07291056042,
			"0.012": 5.9885393259,
			"0.013": 2.12897835896,
			"0.014": 0.00986148593819,
			"0.015": 0.0,
			"0.016": 0.0,
			"0.017": 0.0,
			"0.018": 0.0,
			"0.019": 0.0,
			"0.02": 0.0,
			"0.021": 0.0,
			"0.022": 0.0,
			"0.023": 0.0,
			"0.024": 0.0,
			"0.025": 0.0
		}
	}
}
