{
	 "smiles": "COC1=CC=C(C=C1)C(N)C(N)C1=CC=C(OC)C=C1", 
	 "Tm": 423.15, 
	 "num_atms": 40, 
	 "gaussian": { 
		 "optdone": 1, 
		 "sigma_profile": "yes", 
		 "theory": "DFT", 
		 "functional": "B3LYP", 
		 "basiset": "6-31G**", 
		 "properties": { 
			 "R2extent": 7187.0623, 
			 "electric_dipole_moment_norm": 2.17462889938, 
			 "electric_quadrupole_moment_norm": 16.1499414807, 
			 "total_energy": -881.678658728, 
			 "HOMO_LUMO_gap": 0.20699, 
			 "cosmo_polarized_energy": -15.35, 
			 "cosmo_cavitation_energy": 41.79, 
			 "cosmo_dispersion_energy": -29.1, 
			 "cosmo_repulsion_energy": 2.26, 
			 "cosmo_total_nonelectrostatic_energy": 14.96, 
			 "SMD_solvation_energy": 6.86 
		},
		"coords": [
			{
				"x": 4.5733652408,
				"y": -0.6075149268,
				"z": -2.8638845406,
				"element": "C" 
			},
			{
				"x": 3.4023244102,
				"y": -1.1474254705,
				"z": -3.4527803778,
				"element": "O" 
			},
			{
				"x": 2.1923518207,
				"y": -0.789297374,
				"z": -2.9279998616,
				"element": "C" 
			},
			{
				"x": 1.0670820225,
				"y": -1.3495785928,
				"z": -3.5475970691,
				"element": "C" 
			},
			{
				"x": -0.2097221098,
				"y": -1.0457968075,
				"z": -3.0876798881,
				"element": "C" 
			},
			{
				"x": -0.4058837383,
				"y": -0.1746876898,
				"z": -2.0015585788,
				"element": "C" 
			},
			{
				"x": 0.728599914,
				"y": 0.3798589251,
				"z": -1.4001606728,
				"element": "C" 
			},
			{
				"x": 2.0183267024,
				"y": 0.0830698227,
				"z": -1.8470377161,
				"element": "C" 
			},
			{
				"x": -1.7933548914,
				"y": 0.1415875336,
				"z": -1.4719490691,
				"element": "C" 
			},
			{
				"x": -2.7798929541,
				"y": 0.0821519747,
				"z": -2.5626618984,
				"element": "N" 
			},
			{
				"x": -2.2769924933,
				"y": -0.8694998717,
				"z": -0.3623819327,
				"element": "C" 
			},
			{
				"x": -2.3314663103,
				"y": -2.2545703358,
				"z": -0.8229680595,
				"element": "N" 
			},
			{
				"x": -1.4922904891,
				"y": -0.7283090124,
				"z": 0.9348759257,
				"element": "C" 
			},
			{
				"x": -1.4796377445,
				"y": 0.4948226447,
				"z": 1.629368784,
				"element": "C" 
			},
			{
				"x": -0.7730188084,
				"y": 0.6523815869,
				"z": 2.8141440255,
				"element": "C" 
			},
			{
				"x": -0.0527133141,
				"y": -0.4251415748,
				"z": 3.3512078342,
				"element": "C" 
			},
			{
				"x": 0.6138978917,
				"y": -0.172230306,
				"z": 4.5182018285,
				"element": "O" 
			},
			{
				"x": 1.3416450264,
				"y": -1.2330475035,
				"z": 5.1129661281,
				"element": "C" 
			},
			{
				"x": -0.0677064791,
				"y": -1.6550674597,
				"z": 2.6884157483,
				"element": "C" 
			},
			{
				"x": -0.7873139709,
				"y": -1.7938219422,
				"z": 1.496148612,
				"element": "C" 
			},
			{
				"x": 4.5972969398,
				"y": 0.4878142072,
				"z": -2.9362228243,
				"element": "H" 
			},
			{
				"x": 4.6687018253,
				"y": -0.8967310963,
				"z": -1.8090422186,
				"element": "H" 
			},
			{
				"x": 5.4126594184,
				"y": -1.0211611539,
				"z": -3.425505248,
				"element": "H" 
			},
			{
				"x": 1.2182607967,
				"y": -2.0173365156,
				"z": -4.3898491395,
				"element": "H" 
			},
			{
				"x": -1.0748777331,
				"y": -1.4726198209,
				"z": -3.5842474843,
				"element": "H" 
			},
			{
				"x": 0.6097508876,
				"y": 1.0571867729,
				"z": -0.5591462515,
				"element": "H" 
			},
			{
				"x": 2.8685823078,
				"y": 0.5371602659,
				"z": -1.3519049686,
				"element": "H" 
			},
			{
				"x": -1.7473158831,
				"y": 1.1383354303,
				"z": -1.0042273145,
				"element": "H" 
			},
			{
				"x": -2.4898727435,
				"y": 0.6885337702,
				"z": -3.3258591954,
				"element": "H" 
			},
			{
				"x": -3.6769865893,
				"y": 0.4314537186,
				"z": -2.2327200896,
				"element": "H" 
			},
			{
				"x": -3.3164059963,
				"y": -0.5772326539,
				"z": -0.1440562424,
				"element": "H" 
			},
			{
				"x": -2.9133405807,
				"y": -2.2728247881,
				"z": -1.6582380552,
				"element": "H" 
			},
			{
				"x": -1.4033050526,
				"y": -2.5338712463,
				"z": -1.139183752,
				"element": "H" 
			},
			{
				"x": -2.0429315934,
				"y": 1.3415100661,
				"z": 1.2440375728,
				"element": "H" 
			},
			{
				"x": -0.7700287781,
				"y": 1.5969432246,
				"z": 3.3487178809,
				"element": "H" 
			},
			{
				"x": 1.788381164,
				"y": -0.8227473397,
				"z": 6.0202732869,
				"element": "H" 
			},
			{
				"x": 2.139169885,
				"y": -1.599640525,
				"z": 4.4531671492,
				"element": "H" 
			},
			{
				"x": 0.6886073863,
				"y": -2.073759118,
				"z": 5.3817895293,
				"element": "H" 
			},
			{
				"x": 0.4642475923,
				"y": -2.5112173003,
				"z": 3.0867468875,
				"element": "H" 
			},
			{
				"x": -0.8188929786,
				"y": -2.7639795179,
				"z": 1.0135012558,
				"element": "H" 
			}
		],
		 "valence_orbital": [ 
			{
				"type": "occ",
				"energy": -0.24565,
				"method": "rhf"
			},
			{
				"type": "occ",
				"energy": -0.24001,
				"method": "rhf"
			},
			{
				"type": "occ",
				"energy": -0.22922,
				"method": "rhf"
			},
			{
				"type": "occ",
				"energy": -0.20999,
				"method": "rhf"
			},
			{
				"type": "occ",
				"energy": -0.2057,
				"method": "rhf"
			},
			{
				"type": "unocc",
				"energy": 0.00129,
				"method": "rhf"
			},
			{
				"type": "unocc",
				"energy": 0.00582,
				"method": "rhf"
			},
			{
				"type": "unocc",
				"energy": 0.01437,
				"method": "rhf"
			},
			{
				"type": "unocc",
				"energy": 0.02092,
				"method": "rhf"
			},
			{
				"type": "unocc",
				"energy": 0.07832,
				"method": "rhf"
			}
		],
		"cosmo_sigma_profile": { 
			"-0.025": 0.0,
			"-0.024": 0.0,
			"-0.023": 0.0,
			"-0.022": 0.0,
			"-0.021": 0.0,
			"-0.02": 0.0,
			"-0.019": 0.0,
			"-0.018": 0.0,
			"-0.017": 0.0,
			"-0.016": 0.0,
			"-0.015": 0.0,
			"-0.014": 0.0,
			"-0.013": 0.0,
			"-0.012": 0.0,
			"-0.011": 0.0,
			"-0.01": 1.08232779327,
			"-0.009": 2.68041250078,
			"-0.008": 3.11130938286,
			"-0.007": 4.17141087972,
			"-0.006": 14.1054988539,
			"-0.005": 33.750464619,
			"-0.004": 36.8084926454,
			"-0.003": 39.7113447779,
			"-0.002": 25.2913409351,
			"-0.001": 18.3904374447,
			"0.0": 15.2208748965,
			"0.001": 15.5704552583,
			"0.002": 14.332784612,
			"0.003": 15.2464050599,
			"0.004": 21.9347564722,
			"0.005": 20.2092630433,
			"0.006": 18.7400202973,
			"0.007": 6.57981396544,
			"0.008": 4.79668904459,
			"0.009": 4.18530838616,
			"0.01": 4.35392306116,
			"0.011": 2.57484426643,
			"0.012": 0.643317098388,
			"0.013": 1.50202832346,
			"0.014": 1.35832797788,
			"0.015": 0.35640080596,
			"0.016": 0.730103849887,
			"0.017": 0.534943023152,
			"0.018": 0.413050230802,
			"0.019": 0.540032378616,
			"0.02": 0.0,
			"0.021": 0.0,
			"0.022": 0.0,
			"0.023": 0.0,
			"0.024": 0.0,
			"0.025": 0.0
		}
	}
}
