{
	 "smiles": "O=CC1=CC=CC2=C1C=CN=C2", 
	 "Tm": 388.15, 
	 "num_atms": 19, 
	 "gaussian": { 
		 "optdone": 1, 
		 "sigma_profile": "yes", 
		 "theory": "DFT", 
		 "functional": "B3LYP", 
		 "basiset": "6-31G**", 
		 "properties": { 
			 "R2extent": 2183.0812, 
			 "electric_dipole_moment_norm": 3.87115976162, 
			 "electric_quadrupole_moment_norm": 5.85884940069, 
			 "total_energy": -515.251407635, 
			 "HOMO_LUMO_gap": 0.15669, 
			 "cosmo_polarized_energy": -10.19, 
			 "cosmo_cavitation_energy": 23.24, 
			 "cosmo_dispersion_energy": -17.39, 
			 "cosmo_repulsion_energy": 1.33, 
			 "cosmo_total_nonelectrostatic_energy": 7.18, 
			 "SMD_solvation_energy": 3.39 
		},
		"coords": [
			{
				"x": -1.602150726,
				"y": -1.2966325588,
				"z": 2.2929773441,
				"element": "O" 
			},
			{
				"x": -1.503255381,
				"y": -0.2288804816,
				"z": 1.7154990051,
				"element": "C" 
			},
			{
				"x": -0.3560259854,
				"y": 0.2432619756,
				"z": 0.9095829403,
				"element": "C" 
			},
			{
				"x": -0.4745718416,
				"y": 1.5049310238,
				"z": 0.3447875963,
				"element": "C" 
			},
			{
				"x": 0.5479132773,
				"y": 2.0710579152,
				"z": -0.4452569606,
				"element": "C" 
			},
			{
				"x": 1.7038548467,
				"y": 1.3571053827,
				"z": -0.6687468703,
				"element": "C" 
			},
			{
				"x": 1.8726762834,
				"y": 0.0626262102,
				"z": -0.112795105,
				"element": "C" 
			},
			{
				"x": 0.8424383834,
				"y": -0.5202462376,
				"z": 0.689268174,
				"element": "C" 
			},
			{
				"x": 1.0900940516,
				"y": -1.8169855283,
				"z": 1.2068349194,
				"element": "C" 
			},
			{
				"x": 2.2865630641,
				"y": -2.4383142018,
				"z": 0.9172876715,
				"element": "C" 
			},
			{
				"x": 3.2741642164,
				"y": -1.8950978961,
				"z": 0.1562171479,
				"element": "N" 
			},
			{
				"x": 3.0581719588,
				"y": -0.6914826833,
				"z": -0.331142996,
				"element": "C" 
			},
			{
				"x": -2.3344601249,
				"y": 0.5102941042,
				"z": 1.7647377355,
				"element": "H" 
			},
			{
				"x": -1.3865783147,
				"y": 2.0716596725,
				"z": 0.5194852984,
				"element": "H" 
			},
			{
				"x": 0.4178216162,
				"y": 3.0612103421,
				"z": -0.8700893581,
				"element": "H" 
			},
			{
				"x": 2.504319727,
				"y": 1.7746259526,
				"z": -1.274502391,
				"element": "H" 
			},
			{
				"x": 0.3421809839,
				"y": -2.3017211702,
				"z": 1.8194856605,
				"element": "H" 
			},
			{
				"x": 2.4913034343,
				"y": -3.4328661451,
				"z": 1.3068807452,
				"element": "H" 
			},
			{
				"x": 3.8509405305,
				"y": -0.2564456761,
				"z": -0.9416105574,
				"element": "H" 
			}
		],
		 "valence_orbital": [ 
			{
				"type": "occ",
				"energy": -0.30386,
				"method": "rhf"
			},
			{
				"type": "occ",
				"energy": -0.27841,
				"method": "rhf"
			},
			{
				"type": "occ",
				"energy": -0.26758,
				"method": "rhf"
			},
			{
				"type": "occ",
				"energy": -0.25309,
				"method": "rhf"
			},
			{
				"type": "occ",
				"energy": -0.24216,
				"method": "rhf"
			},
			{
				"type": "unocc",
				"energy": -0.08547,
				"method": "rhf"
			},
			{
				"type": "unocc",
				"energy": -0.03807,
				"method": "rhf"
			},
			{
				"type": "unocc",
				"energy": -0.02028,
				"method": "rhf"
			},
			{
				"type": "unocc",
				"energy": 0.04062,
				"method": "rhf"
			},
			{
				"type": "unocc",
				"energy": 0.08256,
				"method": "rhf"
			}
		],
		"cosmo_sigma_profile": { 
			"-0.025": 0.0,
			"-0.024": 0.0,
			"-0.023": 0.0,
			"-0.022": 0.0,
			"-0.021": 0.0,
			"-0.02": 0.0,
			"-0.019": 0.0,
			"-0.018": 0.0,
			"-0.017": 0.0,
			"-0.016": 0.0,
			"-0.015": 0.0,
			"-0.014": 0.0,
			"-0.013": 0.0,
			"-0.012": 0.0,
			"-0.011": 0.0,
			"-0.01": 0.0,
			"-0.009": 0.186716893525,
			"-0.008": 6.13188009434,
			"-0.007": 11.5178391131,
			"-0.006": 13.6340885183,
			"-0.005": 11.4172380797,
			"-0.004": 10.5313750245,
			"-0.003": 10.964869932,
			"-0.002": 9.66488485762,
			"-0.001": 10.28511346,
			"0.0": 20.0180273444,
			"0.001": 25.0900408045,
			"0.002": 17.7720925123,
			"0.003": 7.00850621424,
			"0.004": 4.22720072262,
			"0.005": 3.4069137076,
			"0.006": 2.51745258518,
			"0.007": 3.16862260148,
			"0.008": 3.10603212069,
			"0.009": 3.45397226454,
			"0.01": 2.90959181606,
			"0.011": 4.04047360661,
			"0.012": 2.63727326328,
			"0.013": 1.13564821454,
			"0.014": 1.35995994704,
			"0.015": 0.839132898049,
			"0.016": 0.615754278206,
			"0.017": 0.224621268573,
			"0.018": 0.0,
			"0.019": 0.0,
			"0.02": 0.0,
			"0.021": 0.0,
			"0.022": 0.0,
			"0.023": 0.0,
			"0.024": 0.0,
			"0.025": 0.0
		}
	}
}
