{
	 "smiles": "CC1=CC(C(O)=O)=C(C=C1)N1C=CN=C1", 
	 "Tm": 533.15, 
	 "num_atms": 25, 
	 "gaussian": { 
		 "optdone": 1, 
		 "sigma_profile": "yes", 
		 "theory": "DFT", 
		 "functional": "B3LYP", 
		 "basiset": "6-31G**", 
		 "properties": { 
			 "R2extent": 4422.3458, 
			 "electric_dipole_moment_norm": 5.71426469198, 
			 "electric_quadrupole_moment_norm": 27.4302569736, 
			 "total_energy": -685.152699325, 
			 "HOMO_LUMO_gap": 0.15709, 
			 "cosmo_polarized_energy": -16.94, 
			 "cosmo_cavitation_energy": 29.62, 
			 "cosmo_dispersion_energy": -21.21, 
			 "cosmo_repulsion_energy": 1.65, 
			 "cosmo_total_nonelectrostatic_energy": 10.06, 
			 "SMD_solvation_energy": 5.37 
		},
		"coords": [
			{
				"x": -0.589235668,
				"y": 1.7948219354,
				"z": 2.2419412037,
				"element": "C" 
			},
			{
				"x": -0.4574359762,
				"y": 1.2874413541,
				"z": 0.8259022776,
				"element": "C" 
			},
			{
				"x": -1.078726254,
				"y": 0.1075322898,
				"z": 0.4169128825,
				"element": "C" 
			},
			{
				"x": -0.9634345969,
				"y": -0.3924835455,
				"z": -0.8920746246,
				"element": "C" 
			},
			{
				"x": -1.543681387,
				"y": -1.7340604351,
				"z": -1.2014776832,
				"element": "C" 
			},
			{
				"x": -2.4647816417,
				"y": -2.1182739169,
				"z": -0.2773221963,
				"element": "O" 
			},
			{
				"x": -1.2426056604,
				"y": -2.4504856008,
				"z": -2.1319841326,
				"element": "O" 
			},
			{
				"x": -0.2232183828,
				"y": 0.3483510685,
				"z": -1.8376167075,
				"element": "C" 
			},
			{
				"x": 0.3998543661,
				"y": 1.5358212475,
				"z": -1.4338543891,
				"element": "C" 
			},
			{
				"x": 0.2967044214,
				"y": 1.9901042729,
				"z": -0.1244949142,
				"element": "C" 
			},
			{
				"x": -0.0985281709,
				"y": -0.029033664,
				"z": -3.2006689064,
				"element": "N" 
			},
			{
				"x": 1.086767592,
				"y": -0.104641167,
				"z": -3.9214897684,
				"element": "C" 
			},
			{
				"x": 0.7166364939,
				"y": -0.3852910769,
				"z": -5.2093474165,
				"element": "C" 
			},
			{
				"x": -0.6566387798,
				"y": -0.4676627388,
				"z": -5.3166283128,
				"element": "N" 
			},
			{
				"x": -1.1103027335,
				"y": -0.2556410383,
				"z": -4.1059878115,
				"element": "C" 
			},
			{
				"x": -1.1865488896,
				"y": 1.1153394494,
				"z": 2.8550992478,
				"element": "H" 
			},
			{
				"x": -1.0705342623,
				"y": 2.7791719298,
				"z": 2.2673808736,
				"element": "H" 
			},
			{
				"x": 0.3914811073,
				"y": 1.9034560081,
				"z": 2.7184848264,
				"element": "H" 
			},
			{
				"x": -1.6566761864,
				"y": -0.46597527,
				"z": 1.1322750932,
				"element": "H" 
			},
			{
				"x": -2.7398744,
				"y": -3.0106182613,
				"z": -0.545471861,
				"element": "H" 
			},
			{
				"x": 0.9488108161,
				"y": 2.1097333587,
				"z": -2.1731278457,
				"element": "H" 
			},
			{
				"x": 0.7938555702,
				"y": 2.9148323254,
				"z": 0.1576364595,
				"element": "H" 
			},
			{
				"x": 2.0458384742,
				"y": 0.0107995589,
				"z": -3.4412435154,
				"element": "H" 
			},
			{
				"x": 1.3591149873,
				"y": -0.5375997568,
				"z": -6.0655529229,
				"element": "H" 
			},
			{
				"x": -2.149240839,
				"y": -0.2365383271,
				"z": -3.8096898562,
				"element": "H" 
			}
		],
		 "valence_orbital": [ 
			{
				"type": "occ",
				"energy": -0.28081,
				"method": "rhf"
			},
			{
				"type": "occ",
				"energy": -0.27393,
				"method": "rhf"
			},
			{
				"type": "occ",
				"energy": -0.25894,
				"method": "rhf"
			},
			{
				"type": "occ",
				"energy": -0.24511,
				"method": "rhf"
			},
			{
				"type": "occ",
				"energy": -0.21783,
				"method": "rhf"
			},
			{
				"type": "unocc",
				"energy": -0.06074,
				"method": "rhf"
			},
			{
				"type": "unocc",
				"energy": -0.02413,
				"method": "rhf"
			},
			{
				"type": "unocc",
				"energy": 0.03761,
				"method": "rhf"
			},
			{
				"type": "unocc",
				"energy": 0.0389,
				"method": "rhf"
			},
			{
				"type": "unocc",
				"energy": 0.07194,
				"method": "rhf"
			}
		],
		"cosmo_sigma_profile": { 
			"-0.025": 0.0,
			"-0.024": 0.0,
			"-0.023": 0.0,
			"-0.022": 0.0,
			"-0.021": 0.0,
			"-0.02": 0.0,
			"-0.019": 0.0908237923926,
			"-0.018": 0.682002001371,
			"-0.017": 0.829083176315,
			"-0.016": 0.884055265129,
			"-0.015": 0.997302618987,
			"-0.014": 1.08537897439,
			"-0.013": 0.0273412924171,
			"-0.012": 0.237867203902,
			"-0.011": 1.33766105463,
			"-0.01": 0.642454869581,
			"-0.009": 1.64040912902,
			"-0.008": 5.17294454137,
			"-0.007": 7.28857725613,
			"-0.006": 14.0079406729,
			"-0.005": 14.8817294462,
			"-0.004": 18.0495698465,
			"-0.003": 16.9873656083,
			"-0.002": 16.5440800746,
			"-0.001": 20.720317155,
			"0.0": 18.9522650741,
			"0.001": 13.6787697778,
			"0.002": 16.8896034587,
			"0.003": 11.5810664446,
			"0.004": 5.67656248039,
			"0.005": 8.27008867469,
			"0.006": 6.56435529844,
			"0.007": 4.09520552605,
			"0.008": 4.760374653,
			"0.009": 5.36884112547,
			"0.01": 3.76652383982,
			"0.011": 5.29605019657,
			"0.012": 3.66229033574,
			"0.013": 1.0415728972,
			"0.014": 1.05222183005,
			"0.015": 1.37266473952,
			"0.016": 1.08166845473,
			"0.017": 1.0528450556,
			"0.018": 0.629848213807,
			"0.019": 0.0191928905697,
			"0.02": 0.0,
			"0.021": 0.0,
			"0.022": 0.0,
			"0.023": 0.0,
			"0.024": 0.0,
			"0.025": 0.0
		}
	}
}
