{
	 "smiles": "CN1C=C(C=N1)C1=CC(C(O)=O)=C(F)C=C1", 
	 "Tm": 482.15, 
	 "num_atms": 25, 
	 "gaussian": { 
		 "optdone": 1, 
		 "sigma_profile": "yes", 
		 "theory": "DFT", 
		 "functional": "B3LYP", 
		 "basiset": "6-31G**", 
		 "properties": { 
			 "R2extent": 5115.4909, 
			 "electric_dipole_moment_norm": 4.60179593311, 
			 "electric_quadrupole_moment_norm": 19.2217196889, 
			 "total_energy": -784.375241464, 
			 "HOMO_LUMO_gap": 0.16758, 
			 "cosmo_polarized_energy": -16.25, 
			 "cosmo_cavitation_energy": 30.88, 
			 "cosmo_dispersion_energy": -22.33, 
			 "cosmo_repulsion_energy": 1.7, 
			 "cosmo_total_nonelectrostatic_energy": 10.24, 
			 "SMD_solvation_energy": 6.37 
		},
		"coords": [
			{
				"x": -0.1100162599,
				"y": -0.8425143829,
				"z": 4.3592808765,
				"element": "C" 
			},
			{
				"x": -0.0806860436,
				"y": -0.2536384997,
				"z": 3.0336661816,
				"element": "N" 
			},
			{
				"x": 0.5425909543,
				"y": -0.7217965507,
				"z": 1.9225292753,
				"element": "C" 
			},
			{
				"x": 0.2760077532,
				"y": 0.173594992,
				"z": 0.892472094,
				"element": "C" 
			},
			{
				"x": -0.5331020855,
				"y": 1.1597525306,
				"z": 1.5164394069,
				"element": "C" 
			},
			{
				"x": -0.7430495303,
				"y": 0.9008040372,
				"z": 2.8044737439,
				"element": "N" 
			},
			{
				"x": 0.7254921036,
				"y": 0.1113005262,
				"z": -0.504094494,
				"element": "C" 
			},
			{
				"x": 0.0017207543,
				"y": 0.7482715968,
				"z": -1.5199968201,
				"element": "C" 
			},
			{
				"x": 0.4064909303,
				"y": 0.7127081971,
				"z": -2.8637712263,
				"element": "C" 
			},
			{
				"x": -0.3834268514,
				"y": 1.399169095,
				"z": -3.9208308705,
				"element": "C" 
			},
			{
				"x": -1.4703527796,
				"y": 2.0412980522,
				"z": -3.41143503,
				"element": "O" 
			},
			{
				"x": -0.1322361073,
				"y": 1.4158207449,
				"z": -5.1071177704,
				"element": "O" 
			},
			{
				"x": 1.5726645485,
				"y": -0.0009457548,
				"z": -3.1795509741,
				"element": "C" 
			},
			{
				"x": 2.013734975,
				"y": -0.0786345227,
				"z": -4.4416514836,
				"element": "F" 
			},
			{
				"x": 2.3105700412,
				"y": -0.6476605196,
				"z": -2.1935241513,
				"element": "C" 
			},
			{
				"x": 1.8931242528,
				"y": -0.5846796727,
				"z": -0.8690684325,
				"element": "C" 
			},
			{
				"x": 0.3083705691,
				"y": -0.1443759494,
				"z": 5.0888325462,
				"element": "H" 
			},
			{
				"x": -1.1387372468,
				"y": -1.0781427677,
				"z": 4.6439780591,
				"element": "H" 
			},
			{
				"x": 0.4827948923,
				"y": -1.7585602328,
				"z": 4.3538510899,
				"element": "H" 
			},
			{
				"x": 1.0970946449,
				"y": -1.6489107925,
				"z": 1.9362009659,
				"element": "H" 
			},
			{
				"x": -0.949787858,
				"y": 2.0568415905,
				"z": 1.0778913832,
				"element": "H" 
			},
			{
				"x": -0.9115616627,
				"y": 1.2779739719,
				"z": -1.2786180145,
				"element": "H" 
			},
			{
				"x": -1.9087603658,
				"y": 2.447289882,
				"z": -4.176888754,
				"element": "H" 
			},
			{
				"x": 3.210505402,
				"y": -1.1799938506,
				"z": -2.4814620666,
				"element": "H" 
			},
			{
				"x": 2.4918549693,
				"y": -1.0686717204,
				"z": -0.1032055347,
				"element": "H" 
			}
		],
		 "valence_orbital": [ 
			{
				"type": "occ",
				"energy": -0.28261,
				"method": "rhf"
			},
			{
				"type": "occ",
				"energy": -0.2716,
				"method": "rhf"
			},
			{
				"type": "occ",
				"energy": -0.27079,
				"method": "rhf"
			},
			{
				"type": "occ",
				"energy": -0.25736,
				"method": "rhf"
			},
			{
				"type": "occ",
				"energy": -0.21954,
				"method": "rhf"
			},
			{
				"type": "unocc",
				"energy": -0.05196,
				"method": "rhf"
			},
			{
				"type": "unocc",
				"energy": -0.01951,
				"method": "rhf"
			},
			{
				"type": "unocc",
				"energy": 0.01191,
				"method": "rhf"
			},
			{
				"type": "unocc",
				"energy": 0.04311,
				"method": "rhf"
			},
			{
				"type": "unocc",
				"energy": 0.07689,
				"method": "rhf"
			}
		],
		"cosmo_sigma_profile": { 
			"-0.025": 0.0,
			"-0.024": 0.0,
			"-0.023": 0.0,
			"-0.022": 0.0,
			"-0.021": 0.0,
			"-0.02": 0.0,
			"-0.019": 0.0330395591569,
			"-0.018": 0.709277475256,
			"-0.017": 0.72881960612,
			"-0.016": 1.18789845678,
			"-0.015": 0.774270723646,
			"-0.014": 0.573142881989,
			"-0.013": 0.635784641389,
			"-0.012": 0.383888072573,
			"-0.011": 1.08725799966,
			"-0.01": 0.899341805512,
			"-0.009": 3.69798510849,
			"-0.008": 6.30629053415,
			"-0.007": 12.0496915447,
			"-0.006": 13.8622719742,
			"-0.005": 13.83058382,
			"-0.004": 13.7690216297,
			"-0.003": 16.55953813,
			"-0.002": 13.4447916517,
			"-0.001": 14.4218338152,
			"0.0": 16.4025647955,
			"0.001": 18.6201666883,
			"0.002": 19.8951287079,
			"0.003": 18.4843765472,
			"0.004": 15.026000824,
			"0.005": 7.50027962072,
			"0.006": 6.31915643468,
			"0.007": 4.96718564583,
			"0.008": 3.39636033965,
			"0.009": 3.67871177626,
			"0.01": 3.54269187396,
			"0.011": 5.83203321842,
			"0.012": 5.43144119345,
			"0.013": 1.2009537992,
			"0.014": 0.831840587427,
			"0.015": 1.22885370973,
			"0.016": 0.470760935417,
			"0.017": 0.0,
			"0.018": 0.0,
			"0.019": 0.0,
			"0.02": 0.0,
			"0.021": 0.0,
			"0.022": 0.0,
			"0.023": 0.0,
			"0.024": 0.0,
			"0.025": 0.0
		}
	}
}
