{
	 "smiles": "ClCC(=O)C1=CC=CN1", 
	 "Tm": 388.15, 
	 "num_atms": 15, 
	 "gaussian": { 
		 "optdone": 1, 
		 "sigma_profile": "yes", 
		 "theory": "DFT", 
		 "functional": "B3LYP", 
		 "basiset": "6-31G**", 
		 "properties": { 
			 "R2extent": 1834.3305, 
			 "electric_dipole_moment_norm": 4.1790586093, 
			 "electric_quadrupole_moment_norm": 8.74809043106, 
			 "total_energy": -822.413994487, 
			 "HOMO_LUMO_gap": 0.184, 
			 "cosmo_polarized_energy": -12.51, 
			 "cosmo_cavitation_energy": 21.29, 
			 "cosmo_dispersion_energy": -15.91, 
			 "cosmo_repulsion_energy": 1.32, 
			 "cosmo_total_nonelectrostatic_energy": 6.7, 
			 "SMD_solvation_energy": 4.15 
		},
		"coords": [
			{
				"x": -1.6977514213,
				"y": 0.5372850914,
				"z": 3.2485770841,
				"element": "Cl" 
			},
			{
				"x": -1.1733419208,
				"y": -0.2163269427,
				"z": 1.7123814356,
				"element": "C" 
			},
			{
				"x": -0.3552128413,
				"y": 0.7262103395,
				"z": 0.8250933744,
				"element": "C" 
			},
			{
				"x": -0.0884734034,
				"y": 1.8781754046,
				"z": 1.1372126365,
				"element": "O" 
			},
			{
				"x": 0.0989212153,
				"y": 0.162307219,
				"z": -0.442083881,
				"element": "C" 
			},
			{
				"x": -0.0362848962,
				"y": -1.0769980064,
				"z": -1.0673740872,
				"element": "C" 
			},
			{
				"x": 0.6403932859,
				"y": -1.0037830853,
				"z": -2.3045866922,
				"element": "C" 
			},
			{
				"x": 1.1728558689,
				"y": 0.2755555556,
				"z": -2.4078536692,
				"element": "C" 
			},
			{
				"x": 0.8403259055,
				"y": 0.96299625,
				"z": -1.2845337944,
				"element": "N" 
			},
			{
				"x": -0.5797481913,
				"y": -1.1007120362,
				"z": 1.9572381704,
				"element": "H" 
			},
			{
				"x": -2.0675358939,
				"y": -0.5443443605,
				"z": 1.1764081606,
				"element": "H" 
			},
			{
				"x": -0.5638651927,
				"y": -1.9343308922,
				"z": -0.6728084381,
				"element": "H" 
			},
			{
				"x": 0.7340223618,
				"y": -1.7882763089,
				"z": -3.0418217094,
				"element": "H" 
			},
			{
				"x": 1.756072454,
				"y": 0.7301451443,
				"z": -3.1953668049,
				"element": "H" 
			},
			{
				"x": 1.0701226696,
				"y": 1.9166966279,
				"z": -1.0429817852,
				"element": "H" 
			}
		],
		 "valence_orbital": [ 
			{
				"type": "occ",
				"energy": -0.29801,
				"method": "rhf"
			},
			{
				"type": "occ",
				"energy": -0.29632,
				"method": "rhf"
			},
			{
				"type": "occ",
				"energy": -0.26627,
				"method": "rhf"
			},
			{
				"type": "occ",
				"energy": -0.26429,
				"method": "rhf"
			},
			{
				"type": "occ",
				"energy": -0.2352,
				"method": "rhf"
			},
			{
				"type": "unocc",
				"energy": -0.0512,
				"method": "rhf"
			},
			{
				"type": "unocc",
				"energy": 0.02675,
				"method": "rhf"
			},
			{
				"type": "unocc",
				"energy": 0.04358,
				"method": "rhf"
			},
			{
				"type": "unocc",
				"energy": 0.07864,
				"method": "rhf"
			},
			{
				"type": "unocc",
				"energy": 0.09155,
				"method": "rhf"
			}
		],
		"cosmo_sigma_profile": { 
			"-0.025": 0.0,
			"-0.024": 0.0,
			"-0.023": 0.0,
			"-0.022": 0.0,
			"-0.021": 0.0,
			"-0.02": 0.0,
			"-0.019": 0.0,
			"-0.018": 0.0,
			"-0.017": 0.0,
			"-0.016": 0.0569353112743,
			"-0.015": 0.786390411285,
			"-0.014": 1.39277571364,
			"-0.013": 0.602200605801,
			"-0.012": 0.566520182913,
			"-0.011": 0.861546917384,
			"-0.01": 1.23358680218,
			"-0.009": 4.81867614658,
			"-0.008": 9.36926471048,
			"-0.007": 10.8064324739,
			"-0.006": 9.19893952421,
			"-0.005": 7.5995414617,
			"-0.004": 7.09153667112,
			"-0.003": 8.6238524196,
			"-0.002": 7.94896049765,
			"-0.001": 7.82195785038,
			"0.0": 10.1963913426,
			"0.001": 8.73984567035,
			"0.002": 9.55504140655,
			"0.003": 9.94745008256,
			"0.004": 11.3752636499,
			"0.005": 12.5688057179,
			"0.006": 12.0965708074,
			"0.007": 3.30578304038,
			"0.008": 1.76097940968,
			"0.009": 2.7304611933,
			"0.01": 1.98522131557,
			"0.011": 3.36137647851,
			"0.012": 3.38119654794,
			"0.013": 1.93080465165,
			"0.014": 0.746060082539,
			"0.015": 0.0,
			"0.016": 0.0,
			"0.017": 0.0,
			"0.018": 0.0,
			"0.019": 0.0,
			"0.02": 0.0,
			"0.021": 0.0,
			"0.022": 0.0,
			"0.023": 0.0,
			"0.024": 0.0,
			"0.025": 0.0
		}
	}
}
