{
	 "smiles": "C(OC1=CC2=C(NN=C2)C=C1)C1=CC=CC=C1", 
	 "Tm": 449.15, 
	 "num_atms": 29, 
	 "gaussian": { 
		 "optdone": 1, 
		 "sigma_profile": "yes", 
		 "theory": "DFT", 
		 "functional": "B3LYP", 
		 "basiset": "6-31G**", 
		 "properties": { 
			 "R2extent": 5239.5778, 
			 "electric_dipole_moment_norm": 1.29817600116, 
			 "electric_quadrupole_moment_norm": 18.4569683675, 
			 "total_energy": -725.421919132, 
			 "HOMO_LUMO_gap": 0.18007, 
			 "cosmo_polarized_energy": -12.46, 
			 "cosmo_cavitation_energy": 33.11, 
			 "cosmo_dispersion_energy": -23.95, 
			 "cosmo_repulsion_energy": 1.86, 
			 "cosmo_total_nonelectrostatic_energy": 11.02, 
			 "SMD_solvation_energy": 4.7 
		},
		"coords": [
			{
				"x": 2.3613638158,
				"y": 0.5388894613,
				"z": -0.6482845032,
				"element": "C" 
			},
			{
				"x": 1.0269977389,
				"y": 0.60071584,
				"z": -1.1399269254,
				"element": "O" 
			},
			{
				"x": -0.0071252321,
				"y": 0.2639819536,
				"z": -0.2990333149,
				"element": "C" 
			},
			{
				"x": 0.1408685803,
				"y": -0.2915526148,
				"z": 0.9635406235,
				"element": "C" 
			},
			{
				"x": -1.0294287016,
				"y": -0.5632219103,
				"z": 1.7037765381,
				"element": "C" 
			},
			{
				"x": -2.3034923082,
				"y": -0.2787838281,
				"z": 1.1579206702,
				"element": "C" 
			},
			{
				"x": -3.2102761208,
				"y": -0.6576689038,
				"z": 2.1126923993,
				"element": "N" 
			},
			{
				"x": -2.6175232091,
				"y": -1.162120921,
				"z": 3.2242464245,
				"element": "N" 
			},
			{
				"x": -1.3155704719,
				"y": -1.1116068901,
				"z": 2.9913938057,
				"element": "C" 
			},
			{
				"x": -2.4496799299,
				"y": 0.2762519309,
				"z": -0.1248913209,
				"element": "C" 
			},
			{
				"x": -1.2942745552,
				"y": 0.5409568163,
				"z": -0.8344249071,
				"element": "C" 
			},
			{
				"x": 2.9530378059,
				"y": -0.8584315175,
				"z": -0.6140851121,
				"element": "C" 
			},
			{
				"x": 3.9523584356,
				"y": -1.1734159584,
				"z": 0.3140931725,
				"element": "C" 
			},
			{
				"x": 4.5490479506,
				"y": -2.4354758871,
				"z": 0.3145000795,
				"element": "C" 
			},
			{
				"x": 4.1445208935,
				"y": -3.3995798395,
				"z": -0.6102295256,
				"element": "C" 
			},
			{
				"x": 3.1437247586,
				"y": -3.0930825617,
				"z": -1.5350541324,
				"element": "C" 
			},
			{
				"x": 2.5540218795,
				"y": -1.8288357691,
				"z": -1.5402087645,
				"element": "C" 
			},
			{
				"x": 2.9308349664,
				"y": 1.1654153825,
				"z": -1.3442168918,
				"element": "H" 
			},
			{
				"x": 2.4259512201,
				"y": 1.0081916417,
				"z": 0.3430151598,
				"element": "H" 
			},
			{
				"x": 1.114739353,
				"y": -0.5367618446,
				"z": 1.36847475,
				"element": "H" 
			},
			{
				"x": -4.2151191386,
				"y": -0.6047515113,
				"z": 2.0782327764,
				"element": "H" 
			},
			{
				"x": -0.6223251933,
				"y": -1.4651781808,
				"z": 3.7429344519,
				"element": "H" 
			},
			{
				"x": -3.4254122233,
				"y": 0.4948880163,
				"z": -0.5477716349,
				"element": "H" 
			},
			{
				"x": -1.3395112151,
				"y": 0.9761213919,
				"z": -1.8273314476,
				"element": "H" 
			},
			{
				"x": 4.265934016,
				"y": -0.4280816677,
				"z": 1.0421406476,
				"element": "H" 
			},
			{
				"x": 5.3223672644,
				"y": -2.6671406633,
				"z": 1.041497152,
				"element": "H" 
			},
			{
				"x": 4.6027601958,
				"y": -4.3843634409,
				"z": -0.6076113075,
				"element": "H" 
			},
			{
				"x": 2.8213867648,
				"y": -3.840551701,
				"z": -2.2545760592,
				"element": "H" 
			},
			{
				"x": 1.7732226599,
				"y": -1.5886068233,
				"z": -2.2550128038,
				"element": "H" 
			}
		],
		 "valence_orbital": [ 
			{
				"type": "occ",
				"energy": -0.28386,
				"method": "rhf"
			},
			{
				"type": "occ",
				"energy": -0.25205,
				"method": "rhf"
			},
			{
				"type": "occ",
				"energy": -0.24644,
				"method": "rhf"
			},
			{
				"type": "occ",
				"energy": -0.22778,
				"method": "rhf"
			},
			{
				"type": "occ",
				"energy": -0.2045,
				"method": "rhf"
			},
			{
				"type": "unocc",
				"energy": -0.02443,
				"method": "rhf"
			},
			{
				"type": "unocc",
				"energy": -0.00516,
				"method": "rhf"
			},
			{
				"type": "unocc",
				"energy": -0.00435,
				"method": "rhf"
			},
			{
				"type": "unocc",
				"energy": 0.03244,
				"method": "rhf"
			},
			{
				"type": "unocc",
				"energy": 0.06289,
				"method": "rhf"
			}
		],
		"cosmo_sigma_profile": { 
			"-0.025": 0.0,
			"-0.024": 0.0,
			"-0.023": 0.0,
			"-0.022": 0.0,
			"-0.021": 0.0,
			"-0.02": 0.0,
			"-0.019": 0.0,
			"-0.018": 0.0,
			"-0.017": 0.123871423153,
			"-0.016": 1.44133927053,
			"-0.015": 1.2852353601,
			"-0.014": 0.902196772613,
			"-0.013": 1.62763247045,
			"-0.012": 0.704562025821,
			"-0.011": 1.06188340218,
			"-0.01": 1.22400802368,
			"-0.009": 0.877259252726,
			"-0.008": 1.39395946502,
			"-0.007": 4.9835139312,
			"-0.006": 14.6788322353,
			"-0.005": 22.4703070172,
			"-0.004": 23.3361227451,
			"-0.003": 18.2276007112,
			"-0.002": 15.8755238119,
			"-0.001": 13.8864467528,
			"0.0": 12.6319241296,
			"0.001": 14.1455984137,
			"0.002": 16.1516338618,
			"0.003": 23.8063317865,
			"0.004": 27.5817396852,
			"0.005": 20.6499723484,
			"0.006": 9.45185061152,
			"0.007": 2.67325192675,
			"0.008": 3.36851385177,
			"0.009": 2.62012077638,
			"0.01": 2.36674291423,
			"0.011": 0.79538933419,
			"0.012": 0.98768690352,
			"0.013": 1.61864806226,
			"0.014": 1.06598784089,
			"0.015": 0.893079046199,
			"0.016": 0.383873193182,
			"0.017": 0.0,
			"0.018": 0.0,
			"0.019": 0.0,
			"0.02": 0.0,
			"0.021": 0.0,
			"0.022": 0.0,
			"0.023": 0.0,
			"0.024": 0.0,
			"0.025": 0.0
		}
	}
}
