{
	 "smiles": "CN1N=C(C)C(C=CC(O)=O)=C1Cl", 
	 "Tm": 430.15, 
	 "num_atms": 22, 
	 "gaussian": { 
		 "optdone": 1, 
		 "sigma_profile": "yes", 
		 "theory": "DFT", 
		 "functional": "B3LYP", 
		 "basiset": "6-31G**", 
		 "properties": { 
			 "R2extent": 3388.8726, 
			 "electric_dipole_moment_norm": 3.39422949872, 
			 "electric_quadrupole_moment_norm": 9.77819933935, 
			 "total_energy": -1030.39410784, 
			 "HOMO_LUMO_gap": 0.17823, 
			 "cosmo_polarized_energy": -12.43, 
			 "cosmo_cavitation_energy": 28.35, 
			 "cosmo_dispersion_energy": -20.23, 
			 "cosmo_repulsion_energy": 1.63, 
			 "cosmo_total_nonelectrostatic_energy": 9.75, 
			 "SMD_solvation_energy": 5.16 
		},
		"coords": [
			{
				"x": 2.1206821958,
				"y": 2.7830113664,
				"z": -0.0592011894,
				"element": "C" 
			},
			{
				"x": 1.1538713638,
				"y": 1.7039003586,
				"z": 0.0286074785,
				"element": "N" 
			},
			{
				"x": 0.8544709447,
				"y": 0.9629584931,
				"z": -1.0706573518,
				"element": "N" 
			},
			{
				"x": -0.086507008,
				"y": 0.1010157446,
				"z": -0.690312534,
				"element": "C" 
			},
			{
				"x": -0.5852247859,
				"y": -0.9233129064,
				"z": -1.6608060214,
				"element": "C" 
			},
			{
				"x": -0.4181222321,
				"y": 0.2684405648,
				"z": 0.6918774188,
				"element": "C" 
			},
			{
				"x": -1.2680663748,
				"y": -0.501596616,
				"z": 1.5878371388,
				"element": "C" 
			},
			{
				"x": -2.4932673726,
				"y": -1.0391863141,
				"z": 1.4111214229,
				"element": "C" 
			},
			{
				"x": -3.4627890023,
				"y": -0.8611476944,
				"z": 0.3139827408,
				"element": "C" 
			},
			{
				"x": -3.212255734,
				"y": 0.1927497728,
				"z": -0.506312749,
				"element": "O" 
			},
			{
				"x": -4.4526063758,
				"y": -1.5557856377,
				"z": 0.1780141104,
				"element": "O" 
			},
			{
				"x": 0.4293053514,
				"y": 1.2982663411,
				"z": 1.094071864,
				"element": "C" 
			},
			{
				"x": 0.6011406549,
				"y": 2.0267197153,
				"z": 2.6503711813,
				"element": "Cl" 
			},
			{
				"x": 2.5711296568,
				"y": 2.718690909,
				"z": -1.0485185228,
				"element": "H" 
			},
			{
				"x": 2.8918637785,
				"y": 2.6718017278,
				"z": 0.7071626526,
				"element": "H" 
			},
			{
				"x": 1.6343727652,
				"y": 3.7559656993,
				"z": 0.0608484023,
				"element": "H" 
			},
			{
				"x": -1.523286087,
				"y": -0.6068621589,
				"z": -2.1243577568,
				"element": "H" 
			},
			{
				"x": -0.7738944262,
				"y": -1.8779458113,
				"z": -1.1600995321,
				"element": "H" 
			},
			{
				"x": 0.158435861,
				"y": -1.0757249968,
				"z": -2.4461436355,
				"element": "H" 
			},
			{
				"x": -0.817603279,
				"y": -0.6925755793,
				"z": 2.5625762186,
				"element": "H" 
			},
			{
				"x": -2.8918232717,
				"y": -1.6741945788,
				"z": 2.1959095868,
				"element": "H" 
			},
			{
				"x": -3.9500266227,
				"y": 0.2038116008,
				"z": -1.1388709231,
				"element": "H" 
			}
		],
		 "valence_orbital": [ 
			{
				"type": "occ",
				"energy": -0.30502,
				"method": "rhf"
			},
			{
				"type": "occ",
				"energy": -0.29086,
				"method": "rhf"
			},
			{
				"type": "occ",
				"energy": -0.27209,
				"method": "rhf"
			},
			{
				"type": "occ",
				"energy": -0.24838,
				"method": "rhf"
			},
			{
				"type": "occ",
				"energy": -0.23399,
				"method": "rhf"
			},
			{
				"type": "unocc",
				"energy": -0.05576,
				"method": "rhf"
			},
			{
				"type": "unocc",
				"energy": 0.00914,
				"method": "rhf"
			},
			{
				"type": "unocc",
				"energy": 0.02341,
				"method": "rhf"
			},
			{
				"type": "unocc",
				"energy": 0.05382,
				"method": "rhf"
			},
			{
				"type": "unocc",
				"energy": 0.07187,
				"method": "rhf"
			}
		],
		"cosmo_sigma_profile": { 
			"-0.025": 0.0,
			"-0.024": 0.0,
			"-0.023": 0.0,
			"-0.022": 0.0,
			"-0.021": 0.0,
			"-0.02": 0.0,
			"-0.019": 0.0,
			"-0.018": 0.412426914534,
			"-0.017": 0.852404881428,
			"-0.016": 1.1036283838,
			"-0.015": 0.783897889234,
			"-0.014": 0.477887748082,
			"-0.013": 0.570438619814,
			"-0.012": 0.521413164127,
			"-0.011": 0.747980085926,
			"-0.01": 0.975236447906,
			"-0.009": 0.410897699946,
			"-0.008": 0.692442061131,
			"-0.007": 6.51526480115,
			"-0.006": 12.4820454599,
			"-0.005": 12.957008052,
			"-0.004": 18.2904893868,
			"-0.003": 18.9125386276,
			"-0.002": 17.3872934276,
			"-0.001": 19.6151571569,
			"0.0": 19.9776691187,
			"0.001": 19.4894669335,
			"0.002": 17.7778261298,
			"0.003": 11.8108877376,
			"0.004": 5.83061493248,
			"0.005": 5.88937476592,
			"0.006": 3.7701189691,
			"0.007": 4.26156727624,
			"0.008": 3.34383301147,
			"0.009": 3.8482419455,
			"0.01": 3.19021357318,
			"0.011": 4.10162090849,
			"0.012": 6.51940786512,
			"0.013": 2.85724542675,
			"0.014": 0.957978166909,
			"0.015": 0.286560024322,
			"0.016": 0.0,
			"0.017": 0.0,
			"0.018": 0.0,
			"0.019": 0.0,
			"0.02": 0.0,
			"0.021": 0.0,
			"0.022": 0.0,
			"0.023": 0.0,
			"0.024": 0.0,
			"0.025": 0.0
		}
	}
}
