{
	 "smiles": "CCNC(=O)C1=CC(N)=CC=C1", 
	 "Tm": 343.15, 
	 "num_atms": 24, 
	 "gaussian": { 
		 "optdone": 1, 
		 "sigma_profile": "yes", 
		 "theory": "DFT", 
		 "functional": "B3LYP", 
		 "basiset": "6-31G**", 
		 "properties": { 
			 "R2extent": 2746.3876, 
			 "electric_dipole_moment_norm": 5.11047360036, 
			 "electric_quadrupole_moment_norm": 11.7416095575, 
			 "total_energy": -534.943584499, 
			 "HOMO_LUMO_gap": 0.1814, 
			 "cosmo_polarized_energy": -17.13, 
			 "cosmo_cavitation_energy": 27.68, 
			 "cosmo_dispersion_energy": -20.21, 
			 "cosmo_repulsion_energy": 1.64, 
			 "cosmo_total_nonelectrostatic_energy": 9.11, 
			 "SMD_solvation_energy": 5.01 
		},
		"coords": [
			{
				"x": -3.8703316281,
				"y": 1.3012548703,
				"z": -0.1285429581,
				"element": "C" 
			},
			{
				"x": -3.2225636473,
				"y": 0.096868894,
				"z": 0.5576951949,
				"element": "C" 
			},
			{
				"x": -1.7731345488,
				"y": 0.0894955619,
				"z": 0.4170459528,
				"element": "N" 
			},
			{
				"x": -1.086975988,
				"y": -0.9772957155,
				"z": -0.1049549581,
				"element": "C" 
			},
			{
				"x": -1.6482178263,
				"y": -1.9974899385,
				"z": -0.4961041809,
				"element": "O" 
			},
			{
				"x": 0.4102884577,
				"y": -0.8292580869,
				"z": -0.1637009993,
				"element": "C" 
			},
			{
				"x": 1.0460167258,
				"y": 0.4163810141,
				"z": -0.2256668653,
				"element": "C" 
			},
			{
				"x": 2.4464551001,
				"y": 0.5082472843,
				"z": -0.283567008,
				"element": "C" 
			},
			{
				"x": 3.0731876122,
				"y": 1.7492078858,
				"z": -0.4178006864,
				"element": "N" 
			},
			{
				"x": 3.1989646732,
				"y": -0.6787685354,
				"z": -0.2720657217,
				"element": "C" 
			},
			{
				"x": 2.5613939641,
				"y": -1.9166661737,
				"z": -0.2232090717,
				"element": "C" 
			},
			{
				"x": 1.1715318529,
				"y": -2.0039965134,
				"z": -0.175990822,
				"element": "C" 
			},
			{
				"x": -3.6531827199,
				"y": 1.3000884739,
				"z": -1.2007178769,
				"element": "H" 
			},
			{
				"x": -3.5063637256,
				"y": 2.2466646208,
				"z": 0.2905430291,
				"element": "H" 
			},
			{
				"x": -4.9570524026,
				"y": 1.2770771415,
				"z": 0.0040475399,
				"element": "H" 
			},
			{
				"x": -3.5701906493,
				"y": -0.8396107958,
				"z": 0.1170744342,
				"element": "H" 
			},
			{
				"x": -3.4925388783,
				"y": 0.0786731644,
				"z": 1.6225583345,
				"element": "H" 
			},
			{
				"x": -1.2454274742,
				"y": 0.8180013445,
				"z": 0.8729006099,
				"element": "H" 
			},
			{
				"x": 0.4604991951,
				"y": 1.3310296245,
				"z": -0.282966016,
				"element": "H" 
			},
			{
				"x": 4.0399907981,
				"y": 1.7762376133,
				"z": -0.124799177,
				"element": "H" 
			},
			{
				"x": 2.5507106373,
				"y": 2.538719346,
				"z": -0.0644411119,
				"element": "H" 
			},
			{
				"x": 4.2840448983,
				"y": -0.6240059337,
				"z": -0.3173004687,
				"element": "H" 
			},
			{
				"x": 3.1607841877,
				"y": -2.8227975787,
				"z": -0.2217026998,
				"element": "H" 
			},
			{
				"x": 0.658711386,
				"y": -2.9582575681,
				"z": -0.1500344737,
				"element": "H" 
			}
		],
		 "valence_orbital": [ 
			{
				"type": "occ",
				"energy": -0.30724,
				"method": "rhf"
			},
			{
				"type": "occ",
				"energy": -0.25347,
				"method": "rhf"
			},
			{
				"type": "occ",
				"energy": -0.24449,
				"method": "rhf"
			},
			{
				"type": "occ",
				"energy": -0.23979,
				"method": "rhf"
			},
			{
				"type": "occ",
				"energy": -0.20637,
				"method": "rhf"
			},
			{
				"type": "unocc",
				"energy": -0.02497,
				"method": "rhf"
			},
			{
				"type": "unocc",
				"energy": 0.01071,
				"method": "rhf"
			},
			{
				"type": "unocc",
				"energy": 0.06746,
				"method": "rhf"
			},
			{
				"type": "unocc",
				"energy": 0.07836,
				"method": "rhf"
			},
			{
				"type": "unocc",
				"energy": 0.08432,
				"method": "rhf"
			}
		],
		"cosmo_sigma_profile": { 
			"-0.025": 0.0,
			"-0.024": 0.0,
			"-0.023": 0.0,
			"-0.022": 0.0,
			"-0.021": 0.0,
			"-0.02": 0.0,
			"-0.019": 0.0,
			"-0.018": 0.0,
			"-0.017": 0.0,
			"-0.016": 0.0,
			"-0.015": 0.0,
			"-0.014": 0.202441482839,
			"-0.013": 1.46111406355,
			"-0.012": 4.03501835495,
			"-0.011": 3.86976677773,
			"-0.01": 4.55164066097,
			"-0.009": 4.26098582312,
			"-0.008": 4.83139947877,
			"-0.007": 5.36947187577,
			"-0.006": 6.2511325763,
			"-0.005": 7.69748058195,
			"-0.004": 13.5627871793,
			"-0.003": 18.159538211,
			"-0.002": 17.1340815142,
			"-0.001": 16.7774922744,
			"0.0": 17.0841921303,
			"0.001": 15.78439957,
			"0.002": 11.8679062636,
			"0.003": 8.74813277517,
			"0.004": 9.17172889429,
			"0.005": 11.9123151674,
			"0.006": 10.7363239,
			"0.007": 2.53910068351,
			"0.008": 2.63330066651,
			"0.009": 2.33566798819,
			"0.01": 2.33318536071,
			"0.011": 2.25310545682,
			"0.012": 2.3220516466,
			"0.013": 3.58295643372,
			"0.014": 5.82849365989,
			"0.015": 1.06744558741,
			"0.016": 0.0,
			"0.017": 0.0,
			"0.018": 0.0,
			"0.019": 0.0,
			"0.02": 0.0,
			"0.021": 0.0,
			"0.022": 0.0,
			"0.023": 0.0,
			"0.024": 0.0,
			"0.025": 0.0
		}
	}
}
