{
	 "smiles": "NC(=S)CCN1C(=O)C2=C(C=CC=C2)C1=O", 
	 "Tm": 460.15, 
	 "num_atms": 26, 
	 "gaussian": { 
		 "optdone": 1, 
		 "sigma_profile": "yes", 
		 "theory": "DFT", 
		 "functional": "B3LYP", 
		 "basiset": "6-31G**", 
		 "properties": { 
			 "R2extent": 5430.7151, 
			 "electric_dipole_moment_norm": 8.13707826803, 
			 "electric_quadrupole_moment_norm": 12.7829350413, 
			 "total_energy": -1083.38132194, 
			 "HOMO_LUMO_gap": 0.09915, 
			 "cosmo_polarized_energy": -18.45, 
			 "cosmo_cavitation_energy": 32.23, 
			 "cosmo_dispersion_energy": -23.7, 
			 "cosmo_repulsion_energy": 1.78, 
			 "cosmo_total_nonelectrostatic_energy": 10.31, 
			 "SMD_solvation_energy": 5.23 
		},
		"coords": [
			{
				"x": 3.2021964535,
				"y": -1.7116521666,
				"z": -2.1010230089,
				"element": "N" 
			},
			{
				"x": 2.269586916,
				"y": -2.6687148206,
				"z": -1.9663799514,
				"element": "C" 
			},
			{
				"x": 2.4198166909,
				"y": -4.196379333,
				"z": -2.6141287666,
				"element": "S" 
			},
			{
				"x": 1.0478879188,
				"y": -2.2358810774,
				"z": -1.1655500252,
				"element": "C" 
			},
			{
				"x": 0.2632030709,
				"y": -1.0602925652,
				"z": -1.8207828243,
				"element": "C" 
			},
			{
				"x": 0.0806931839,
				"y": 0.087457421,
				"z": -0.9384171612,
				"element": "N" 
			},
			{
				"x": -1.1706703027,
				"y": 0.4850202661,
				"z": -0.4121554115,
				"element": "C" 
			},
			{
				"x": -2.2235200764,
				"y": -0.0794755905,
				"z": -0.6180934594,
				"element": "O" 
			},
			{
				"x": -0.8910936936,
				"y": 1.7022102724,
				"z": 0.4045743029,
				"element": "C" 
			},
			{
				"x": 0.476781,
				"y": 1.9765303865,
				"z": 0.3264006905,
				"element": "C" 
			},
			{
				"x": 1.0402425373,
				"y": 3.0584001947,
				"z": 0.9867596303,
				"element": "C" 
			},
			{
				"x": 0.1805970176,
				"y": 3.8713513746,
				"z": 1.7384259954,
				"element": "C" 
			},
			{
				"x": -1.1906441126,
				"y": 3.5969012972,
				"z": 1.8165195122,
				"element": "C" 
			},
			{
				"x": -1.7497038991,
				"y": 2.5003151659,
				"z": 1.1454517549,
				"element": "C" 
			},
			{
				"x": 1.1077938487,
				"y": 0.9384651403,
				"z": -0.5362388903,
				"element": "C" 
			},
			{
				"x": 2.285799485,
				"y": 0.8230720813,
				"z": -0.8469204719,
				"element": "O" 
			},
			{
				"x": 4.0365338302,
				"y": -1.9212547432,
				"z": -2.6292781712,
				"element": "H" 
			},
			{
				"x": 3.0741390239,
				"y": -0.7844323062,
				"z": -1.6997250055,
				"element": "H" 
			},
			{
				"x": 1.383024904,
				"y": -1.9293044653,
				"z": -0.1674530063,
				"element": "H" 
			},
			{
				"x": 0.3980637623,
				"y": -3.1006636967,
				"z": -1.0405078336,
				"element": "H" 
			},
			{
				"x": 0.7718528603,
				"y": -0.7157351406,
				"z": -2.7253219736,
				"element": "H" 
			},
			{
				"x": -0.7422582793,
				"y": -1.3794898796,
				"z": -2.0989118398,
				"element": "H" 
			},
			{
				"x": 2.1039208036,
				"y": 3.2621537493,
				"z": 0.9198662556,
				"element": "H" 
			},
			{
				"x": 0.5826613661,
				"y": 4.7285205121,
				"z": 2.2698800329,
				"element": "H" 
			},
			{
				"x": -1.8299449737,
				"y": 4.245767124,
				"z": 2.407404542,
				"element": "H" 
			},
			{
				"x": -2.8105593356,
				"y": 2.2787107994,
				"z": 1.1993050839,
				"element": "H" 
			}
		],
		 "valence_orbital": [ 
			{
				"type": "occ",
				"energy": -0.29148,
				"method": "rhf"
			},
			{
				"type": "occ",
				"energy": -0.28825,
				"method": "rhf"
			},
			{
				"type": "occ",
				"energy": -0.28201,
				"method": "rhf"
			},
			{
				"type": "occ",
				"energy": -0.22228,
				"method": "rhf"
			},
			{
				"type": "occ",
				"energy": -0.19825,
				"method": "rhf"
			},
			{
				"type": "unocc",
				"energy": -0.0991,
				"method": "rhf"
			},
			{
				"type": "unocc",
				"energy": -0.0549,
				"method": "rhf"
			},
			{
				"type": "unocc",
				"energy": -0.02406,
				"method": "rhf"
			},
			{
				"type": "unocc",
				"energy": 0.01295,
				"method": "rhf"
			},
			{
				"type": "unocc",
				"energy": 0.05642,
				"method": "rhf"
			}
		],
		"cosmo_sigma_profile": { 
			"-0.025": 0.0,
			"-0.024": 0.0,
			"-0.023": 0.0,
			"-0.022": 0.0,
			"-0.021": 0.0,
			"-0.02": 0.0,
			"-0.019": 0.0,
			"-0.018": 0.0,
			"-0.017": 0.0,
			"-0.016": 0.0,
			"-0.015": 0.30266749476,
			"-0.014": 1.09700750545,
			"-0.013": 1.32742171636,
			"-0.012": 0.791083783862,
			"-0.011": 0.833032587606,
			"-0.01": 1.73035916582,
			"-0.009": 1.11215585529,
			"-0.008": 3.80341004514,
			"-0.007": 13.986668261,
			"-0.006": 22.425813901,
			"-0.005": 19.8498116928,
			"-0.004": 21.5920488664,
			"-0.003": 18.3164353045,
			"-0.002": 14.8271181578,
			"-0.001": 15.3881224328,
			"0.0": 14.9806619475,
			"0.001": 17.4144692812,
			"0.002": 17.1243248602,
			"0.003": 6.72014543594,
			"0.004": 5.78932732319,
			"0.005": 5.77009614237,
			"0.006": 6.04890188209,
			"0.007": 8.02906237295,
			"0.008": 7.65720408769,
			"0.009": 9.03446930967,
			"0.01": 10.9876792291,
			"0.011": 8.97053243547,
			"0.012": 3.99834976798,
			"0.013": 1.07364680204,
			"0.014": 0.0,
			"0.015": 0.0,
			"0.016": 0.0,
			"0.017": 0.0,
			"0.018": 0.0,
			"0.019": 0.0,
			"0.02": 0.0,
			"0.021": 0.0,
			"0.022": 0.0,
			"0.023": 0.0,
			"0.024": 0.0,
			"0.025": 0.0
		}
	}
}
