{
	 "smiles": "CCN1C(=S)SC(=C/C2=COC3=CC=C(Cl)C=C3C2=O)C1=O", 
	 "Tm": 505.15, 
	 "num_atms": 32, 
	 "gaussian": { 
		 "optdone": 1, 
		 "sigma_profile": "yes", 
		 "theory": "DFT", 
		 "functional": "B3LYP", 
		 "basiset": "6-31G**", 
		 "properties": { 
			 "R2extent": 13788.3165, 
			 "electric_dipole_moment_norm": 3.43938201717, 
			 "electric_quadrupole_moment_norm": 30.5205669344, 
			 "total_energy": -2114.61971193, 
			 "HOMO_LUMO_gap": 0.13152, 
			 "cosmo_polarized_energy": -15.36, 
			 "cosmo_cavitation_energy": 42.53, 
			 "cosmo_dispersion_energy": -31.64, 
			 "cosmo_repulsion_energy": 2.28, 
			 "cosmo_total_nonelectrostatic_energy": 13.17, 
			 "SMD_solvation_energy": 7.51 
		},
		"coords": [
			{
				"x": -1.9314722375,
				"y": -1.5887727508,
				"z": 6.1144127155,
				"element": "C" 
			},
			{
				"x": -2.953580852,
				"y": -1.1796481594,
				"z": 5.0543838333,
				"element": "C" 
			},
			{
				"x": -2.3680077304,
				"y": -1.1322240908,
				"z": 3.7036874531,
				"element": "N" 
			},
			{
				"x": -2.3324004521,
				"y": -2.2128232087,
				"z": 2.8639732469,
				"element": "C" 
			},
			{
				"x": -2.9219787774,
				"y": -3.7271762844,
				"z": 3.1329422428,
				"element": "S" 
			},
			{
				"x": -1.5262977603,
				"y": -1.7654103667,
				"z": 1.3354159863,
				"element": "S" 
			},
			{
				"x": -1.2462775458,
				"y": -0.1075926229,
				"z": 1.8725368532,
				"element": "C" 
			},
			{
				"x": -0.6507198518,
				"y": 0.9262485513,
				"z": 1.2355582005,
				"element": "C" 
			},
			{
				"x": -0.0532172827,
				"y": 1.0218617606,
				"z": -0.0819622085,
				"element": "C" 
			},
			{
				"x": 0.0115833634,
				"y": 0.0039672026,
				"z": -0.9889290949,
				"element": "C" 
			},
			{
				"x": 0.5650589315,
				"y": 0.0893965285,
				"z": -2.2119603191,
				"element": "O" 
			},
			{
				"x": 1.1207140052,
				"y": 1.2755141172,
				"z": -2.6230017335,
				"element": "C" 
			},
			{
				"x": 1.6804540505,
				"y": 1.3026862441,
				"z": -3.9031125385,
				"element": "C" 
			},
			{
				"x": 2.252934069,
				"y": 2.4810431238,
				"z": -4.3599156516,
				"element": "C" 
			},
			{
				"x": 2.2614744638,
				"y": 3.6195958546,
				"z": -3.5362736994,
				"element": "C" 
			},
			{
				"x": 2.9907185923,
				"y": 5.0960311322,
				"z": -4.1368017133,
				"element": "Cl" 
			},
			{
				"x": 1.7061699023,
				"y": 3.5906547959,
				"z": -2.2676408192,
				"element": "C" 
			},
			{
				"x": 1.1241541863,
				"y": 2.4033743236,
				"z": -1.7951756247,
				"element": "C" 
			},
			{
				"x": 0.523368776,
				"y": 2.341881458,
				"z": -0.4450436032,
				"element": "C" 
			},
			{
				"x": 0.5051096862,
				"y": 3.3074601718,
				"z": 0.31143473,
				"element": "O" 
			},
			{
				"x": -1.7856227238,
				"y": 0.0696759897,
				"z": 3.2456565766,
				"element": "C" 
			},
			{
				"x": -1.7537906031,
				"y": 1.0855294006,
				"z": 3.9135148277,
				"element": "O" 
			},
			{
				"x": -2.4110839777,
				"y": -1.599831566,
				"z": 7.0980036137,
				"element": "H" 
			},
			{
				"x": -1.1018808217,
				"y": -0.8774149189,
				"z": 6.1478320252,
				"element": "H" 
			},
			{
				"x": -1.5384760647,
				"y": -2.5889993276,
				"z": 5.9147303463,
				"element": "H" 
			},
			{
				"x": -3.3329645192,
				"y": -0.1747603705,
				"z": 5.2494035835,
				"element": "H" 
			},
			{
				"x": -3.7868605135,
				"y": -1.8831333927,
				"z": 5.0156317836,
				"element": "H" 
			},
			{
				"x": -0.6069729524,
				"y": 1.8535485792,
				"z": 1.8035634111,
				"element": "H" 
			},
			{
				"x": -0.3782743916,
				"y": -0.9930338785,
				"z": -0.8269135156,
				"element": "H" 
			},
			{
				"x": 1.6590627444,
				"y": 0.4084520882,
				"z": -4.5161218452,
				"element": "H" 
			},
			{
				"x": 2.6939609565,
				"y": 2.5287118942,
				"z": -5.3491232049,
				"element": "H" 
			},
			{
				"x": 1.7040153301,
				"y": 4.4591877219,
				"z": -1.6192058578,
				"element": "H" 
			}
		],
		 "valence_orbital": [ 
			{
				"type": "occ",
				"energy": -0.27061,
				"method": "rhf"
			},
			{
				"type": "occ",
				"energy": -0.27037,
				"method": "rhf"
			},
			{
				"type": "occ",
				"energy": -0.26144,
				"method": "rhf"
			},
			{
				"type": "occ",
				"energy": -0.23741,
				"method": "rhf"
			},
			{
				"type": "occ",
				"energy": -0.23415,
				"method": "rhf"
			},
			{
				"type": "unocc",
				"energy": -0.10263,
				"method": "rhf"
			},
			{
				"type": "unocc",
				"energy": -0.0798,
				"method": "rhf"
			},
			{
				"type": "unocc",
				"energy": -0.04982,
				"method": "rhf"
			},
			{
				"type": "unocc",
				"energy": -0.02989,
				"method": "rhf"
			},
			{
				"type": "unocc",
				"energy": -0.01097,
				"method": "rhf"
			}
		],
		"cosmo_sigma_profile": { 
			"-0.025": 0.0,
			"-0.024": 0.0,
			"-0.023": 0.0,
			"-0.022": 0.0,
			"-0.021": 0.0,
			"-0.02": 0.0,
			"-0.019": 0.0,
			"-0.018": 0.0,
			"-0.017": 0.0,
			"-0.016": 0.0,
			"-0.015": 0.0,
			"-0.014": 0.0,
			"-0.013": 0.0,
			"-0.012": 0.0991139953244,
			"-0.011": 0.674888332909,
			"-0.01": 1.50508749955,
			"-0.009": 3.11951695416,
			"-0.008": 6.43898321461,
			"-0.007": 8.21039037625,
			"-0.006": 12.2808671542,
			"-0.005": 17.2794942102,
			"-0.004": 26.7914633365,
			"-0.003": 26.216469705,
			"-0.002": 30.5687947288,
			"-0.001": 39.8467973228,
			"0.0": 39.8506467645,
			"0.001": 26.9946963601,
			"0.002": 18.9071439072,
			"0.003": 19.0046077522,
			"0.004": 20.7457227703,
			"0.005": 10.7684787171,
			"0.006": 8.97824060523,
			"0.007": 7.3992423006,
			"0.008": 4.46450875616,
			"0.009": 4.77969489647,
			"0.01": 5.17553993802,
			"0.011": 6.56438837778,
			"0.012": 3.21347413384,
			"0.013": 0.0387670741836,
			"0.014": 0.0,
			"0.015": 0.0,
			"0.016": 0.0,
			"0.017": 0.0,
			"0.018": 0.0,
			"0.019": 0.0,
			"0.02": 0.0,
			"0.021": 0.0,
			"0.022": 0.0,
			"0.023": 0.0,
			"0.024": 0.0,
			"0.025": 0.0
		}
	}
}
