{
	 "smiles": "OC(=O)C=CC1=C(F)C=CC(F)=C1", 
	 "Tm": 412.15, 
	 "num_atms": 19, 
	 "gaussian": { 
		 "optdone": 1, 
		 "sigma_profile": "yes", 
		 "theory": "DFT", 
		 "functional": "B3LYP", 
		 "basiset": "6-31G**", 
		 "properties": { 
			 "R2extent": 3770.6673, 
			 "electric_dipole_moment_norm": 2.53874645839, 
			 "electric_quadrupole_moment_norm": 18.4438610738, 
			 "total_energy": -696.689349167, 
			 "HOMO_LUMO_gap": 0.16813, 
			 "cosmo_polarized_energy": -10.42, 
			 "cosmo_cavitation_energy": 25.61, 
			 "cosmo_dispersion_energy": -18.45, 
			 "cosmo_repulsion_energy": 1.41, 
			 "cosmo_total_nonelectrostatic_energy": 8.58, 
			 "SMD_solvation_energy": 6.76 
		},
		"coords": [
			{
				"x": -4.1279193335,
				"y": 1.4838297951,
				"z": 1.1014460328,
				"element": "O" 
			},
			{
				"x": -3.2277343403,
				"y": 1.2921008322,
				"z": 2.1040239619,
				"element": "C" 
			},
			{
				"x": -3.3721682376,
				"y": 1.790811006,
				"z": 3.2035934376,
				"element": "O" 
			},
			{
				"x": -2.0849126485,
				"y": 0.437807327,
				"z": 1.7319417142,
				"element": "C" 
			},
			{
				"x": -1.9453650784,
				"y": -0.10547193,
				"z": 0.5067939008,
				"element": "C" 
			},
			{
				"x": -0.8732233178,
				"y": -0.9640656538,
				"z": 0.0048939619,
				"element": "C" 
			},
			{
				"x": 0.2438212824,
				"y": -1.3865522507,
				"z": 0.7486690989,
				"element": "C" 
			},
			{
				"x": 0.3800452913,
				"y": -0.9930230461,
				"z": 2.0334727572,
				"element": "F" 
			},
			{
				"x": 1.2331789386,
				"y": -2.2035271499,
				"z": 0.2196721705,
				"element": "C" 
			},
			{
				"x": 1.1386353725,
				"y": -2.6371768271,
				"z": -1.1024715405,
				"element": "C" 
			},
			{
				"x": 0.0418271868,
				"y": -2.230718003,
				"z": -1.8552389503,
				"element": "C" 
			},
			{
				"x": -0.0637611927,
				"y": -2.6416662028,
				"z": -3.1349216292,
				"element": "F" 
			},
			{
				"x": -0.9470240307,
				"y": -1.4147446762,
				"z": -1.3281924462,
				"element": "C" 
			},
			{
				"x": -4.816914548,
				"y": 2.0550435702,
				"z": 1.47759411,
				"element": "H" 
			},
			{
				"x": -1.3694904014,
				"y": 0.2855388158,
				"z": 2.527635509,
				"element": "H" 
			},
			{
				"x": -2.7224309607,
				"y": 0.1098952219,
				"z": -0.222798526,
				"element": "H" 
			},
			{
				"x": 2.067081139,
				"y": -2.4908474862,
				"z": 0.850298659,
				"element": "H" 
			},
			{
				"x": 1.8941605843,
				"y": -3.275737368,
				"z": -1.5458384782,
				"element": "H" 
			},
			{
				"x": -1.7835057052,
				"y": -1.1243959745,
				"z": -1.9550737433,
				"element": "H" 
			}
		],
		 "valence_orbital": [ 
			{
				"type": "occ",
				"energy": -0.32375,
				"method": "rhf"
			},
			{
				"type": "occ",
				"energy": -0.31424,
				"method": "rhf"
			},
			{
				"type": "occ",
				"energy": -0.27357,
				"method": "rhf"
			},
			{
				"type": "occ",
				"energy": -0.26494,
				"method": "rhf"
			},
			{
				"type": "occ",
				"energy": -0.24511,
				"method": "rhf"
			},
			{
				"type": "unocc",
				"energy": -0.07698,
				"method": "rhf"
			},
			{
				"type": "unocc",
				"energy": -0.01863,
				"method": "rhf"
			},
			{
				"type": "unocc",
				"energy": 0.01143,
				"method": "rhf"
			},
			{
				"type": "unocc",
				"energy": 0.06999,
				"method": "rhf"
			},
			{
				"type": "unocc",
				"energy": 0.07856,
				"method": "rhf"
			}
		],
		"cosmo_sigma_profile": { 
			"-0.025": 0.0,
			"-0.024": 0.0,
			"-0.023": 0.0,
			"-0.022": 0.0,
			"-0.021": 0.0,
			"-0.02": 0.0,
			"-0.019": 0.0,
			"-0.018": 0.528392427327,
			"-0.017": 1.17368977181,
			"-0.016": 0.575132693608,
			"-0.015": 0.770632129396,
			"-0.014": 0.650970701856,
			"-0.013": 0.511508898299,
			"-0.012": 0.859655082972,
			"-0.011": 0.769052194808,
			"-0.01": 1.08276355318,
			"-0.009": 1.7371199939,
			"-0.008": 7.60900238179,
			"-0.007": 7.44023178208,
			"-0.006": 6.81597340039,
			"-0.005": 6.90545660872,
			"-0.004": 6.69137596842,
			"-0.003": 6.89467580591,
			"-0.002": 12.0466454776,
			"-0.001": 17.2335225689,
			"0.0": 28.8126445736,
			"0.001": 27.286045658,
			"0.002": 17.4472365423,
			"0.003": 12.2992582273,
			"0.004": 14.5228346242,
			"0.005": 3.76953379987,
			"0.006": 3.36660332176,
			"0.007": 2.54548583996,
			"0.008": 2.06670650671,
			"0.009": 1.96317724204,
			"0.01": 1.67138822072,
			"0.011": 2.99109705201,
			"0.012": 5.63062328349,
			"0.013": 1.52516991177,
			"0.014": 0.0199355393602,
			"0.015": 0.0,
			"0.016": 0.0,
			"0.017": 0.0,
			"0.018": 0.0,
			"0.019": 0.0,
			"0.02": 0.0,
			"0.021": 0.0,
			"0.022": 0.0,
			"0.023": 0.0,
			"0.024": 0.0,
			"0.025": 0.0
		}
	}
}
