{
	 "smiles": "OC(=O)CSCC1=CC=C(F)C=C1", 
	 "Tm": 345.15, 
	 "num_atms": 22, 
	 "gaussian": { 
		 "optdone": 1, 
		 "sigma_profile": "yes", 
		 "theory": "DFT", 
		 "functional": "B3LYP", 
		 "basiset": "6-31G**", 
		 "properties": { 
			 "R2extent": 3434.1985, 
			 "electric_dipole_moment_norm": 3.29189534159, 
			 "electric_quadrupole_moment_norm": 8.46533511445, 
			 "total_energy": -996.862715438, 
			 "HOMO_LUMO_gap": 0.22084, 
			 "cosmo_polarized_energy": -13.11, 
			 "cosmo_cavitation_energy": 28.19, 
			 "cosmo_dispersion_energy": -20.19, 
			 "cosmo_repulsion_energy": 1.53, 
			 "cosmo_total_nonelectrostatic_energy": 9.53, 
			 "SMD_solvation_energy": 5.86 
		},
		"coords": [
			{
				"x": -0.4787611124,
				"y": -0.6451687145,
				"z": -3.069783806,
				"element": "O" 
			},
			{
				"x": 0.3549896879,
				"y": 0.0805461567,
				"z": -2.2990502184,
				"element": "C" 
			},
			{
				"x": 1.5540496175,
				"y": -0.0316051428,
				"z": -2.3778451878,
				"element": "O" 
			},
			{
				"x": -0.3082069787,
				"y": 1.0734135799,
				"z": -1.3362500852,
				"element": "C" 
			},
			{
				"x": -1.9458190372,
				"y": 0.5602144927,
				"z": -0.7034739518,
				"element": "S" 
			},
			{
				"x": -1.4554158659,
				"y": -0.9322540014,
				"z": 0.2937039208,
				"element": "C" 
			},
			{
				"x": -0.5424617035,
				"y": -0.6374793887,
				"z": 1.4536813417,
				"element": "C" 
			},
			{
				"x": 0.8424169136,
				"y": -0.8276695112,
				"z": 1.337984841,
				"element": "C" 
			},
			{
				"x": 1.697583321,
				"y": -0.5541165965,
				"z": 2.4067687376,
				"element": "C" 
			},
			{
				"x": 1.1500625189,
				"y": -0.0895826105,
				"z": 3.5958431812,
				"element": "C" 
			},
			{
				"x": 1.966447446,
				"y": 0.1730199734,
				"z": 4.6359665061,
				"element": "F" 
			},
			{
				"x": -0.2189871718,
				"y": 0.111756122,
				"z": 3.7469247684,
				"element": "C" 
			},
			{
				"x": -1.0573429282,
				"y": -0.1629106756,
				"z": 2.6696249878,
				"element": "C" 
			},
			{
				"x": -1.3969340963,
				"y": -0.4505090037,
				"z": -2.7978900387,
				"element": "H" 
			},
			{
				"x": 0.3859158039,
				"y": 1.2726911449,
				"z": -0.518696827,
				"element": "H" 
			},
			{
				"x": -0.4808926032,
				"y": 2.0144232198,
				"z": -1.8700699919,
				"element": "H" 
			},
			{
				"x": -2.413891217,
				"y": -1.3364865443,
				"z": 0.6306599781,
				"element": "H" 
			},
			{
				"x": -1.0089880284,
				"y": -1.6601316667,
				"z": -0.3894025504,
				"element": "H" 
			},
			{
				"x": 1.2631172165,
				"y": -1.1892762694,
				"z": 0.4034465436,
				"element": "H" 
			},
			{
				"x": 2.769452799,
				"y": -0.6982442595,
				"z": 2.3275042438,
				"element": "H" 
			},
			{
				"x": -0.6061174337,
				"y": 0.4728092675,
				"z": 4.6935189412,
				"element": "H" 
			},
			{
				"x": -2.1275171483,
				"y": -0.005639572,
				"z": 2.7745346657,
				"element": "H" 
			}
		],
		 "valence_orbital": [ 
			{
				"type": "occ",
				"energy": -0.31998,
				"method": "rhf"
			},
			{
				"type": "occ",
				"energy": -0.28573,
				"method": "rhf"
			},
			{
				"type": "occ",
				"energy": -0.2713,
				"method": "rhf"
			},
			{
				"type": "occ",
				"energy": -0.25491,
				"method": "rhf"
			},
			{
				"type": "occ",
				"energy": -0.24659,
				"method": "rhf"
			},
			{
				"type": "unocc",
				"energy": -0.02575,
				"method": "rhf"
			},
			{
				"type": "unocc",
				"energy": -0.02034,
				"method": "rhf"
			},
			{
				"type": "unocc",
				"energy": -0.00682,
				"method": "rhf"
			},
			{
				"type": "unocc",
				"energy": 0.02729,
				"method": "rhf"
			},
			{
				"type": "unocc",
				"energy": 0.05675,
				"method": "rhf"
			}
		],
		"cosmo_sigma_profile": { 
			"-0.025": 0.0,
			"-0.024": 0.0,
			"-0.023": 0.0,
			"-0.022": 0.0,
			"-0.021": 0.0,
			"-0.02": 0.0,
			"-0.019": 0.0,
			"-0.018": 0.0,
			"-0.017": 0.0,
			"-0.016": 0.0,
			"-0.015": 0.0,
			"-0.014": 0.0566630649919,
			"-0.013": 0.558627118266,
			"-0.012": 0.840594151138,
			"-0.011": 1.08935802529,
			"-0.01": 3.10586796859,
			"-0.009": 4.2102139457,
			"-0.008": 5.3766135942,
			"-0.007": 11.8767601089,
			"-0.006": 14.0431155963,
			"-0.005": 14.9820475573,
			"-0.004": 15.0698438327,
			"-0.003": 13.2771707112,
			"-0.002": 9.83030144485,
			"-0.001": 11.0427189098,
			"0.0": 12.276617319,
			"0.001": 15.9823428197,
			"0.002": 14.6979623405,
			"0.003": 17.0733343627,
			"0.004": 21.5826032205,
			"0.005": 9.35281707254,
			"0.006": 3.63792660704,
			"0.007": 3.23069319152,
			"0.008": 4.04327931486,
			"0.009": 3.93711161597,
			"0.01": 5.16194365529,
			"0.011": 4.30370030924,
			"0.012": 4.72979679645,
			"0.013": 1.12187600651,
			"0.014": 0.0,
			"0.015": 0.0,
			"0.016": 0.0,
			"0.017": 0.0,
			"0.018": 0.0,
			"0.019": 0.0,
			"0.02": 0.0,
			"0.021": 0.0,
			"0.022": 0.0,
			"0.023": 0.0,
			"0.024": 0.0,
			"0.025": 0.0
		}
	}
}
