{
	 "smiles": "ClC1=CC2=C(C=C1)N(CC#C)C(=O)CN=C2C1=CC=CC=C1", 
	 "Tm": 414.15, 
	 "num_atms": 35, 
	 "gaussian": { 
		 "optdone": 1, 
		 "sigma_profile": "yes", 
		 "theory": "DFT", 
		 "functional": "B3LYP", 
		 "basiset": "6-31G**", 
		 "properties": { 
			 "R2extent": 7650.9609, 
			 "electric_dipole_moment_norm": 2.79777910136, 
			 "electric_quadrupole_moment_norm": 18.2799678906, 
			 "total_energy": -1338.58957618, 
			 "HOMO_LUMO_gap": 0.17436, 
			 "cosmo_polarized_energy": -14.36, 
			 "cosmo_cavitation_energy": 41.42, 
			 "cosmo_dispersion_energy": -27.94, 
			 "cosmo_repulsion_energy": 2.14, 
			 "cosmo_total_nonelectrostatic_energy": 15.62, 
			 "SMD_solvation_energy": 5.89 
		},
		"coords": [
			{
				"x": -0.4403323294,
				"y": -4.7610242875,
				"z": 2.3036949967,
				"element": "Cl" 
			},
			{
				"x": -0.4848214384,
				"y": -3.5060778628,
				"z": 1.0768978992,
				"element": "C" 
			},
			{
				"x": 0.5483528459,
				"y": -2.5830087585,
				"z": 0.9981786046,
				"element": "C" 
			},
			{
				"x": 0.5391362762,
				"y": -1.574650268,
				"z": 0.0184602343,
				"element": "C" 
			},
			{
				"x": -0.534200281,
				"y": -1.5227861305,
				"z": -0.9021729146,
				"element": "C" 
			},
			{
				"x": -1.5787061362,
				"y": -2.4554647921,
				"z": -0.7841048881,
				"element": "C" 
			},
			{
				"x": -1.5628873547,
				"y": -3.4417812757,
				"z": 0.1931385446,
				"element": "C" 
			},
			{
				"x": -0.609535677,
				"y": -0.5275905718,
				"z": -1.910553459,
				"element": "N" 
			},
			{
				"x": -1.915499474,
				"y": 0.0661361108,
				"z": -2.2585681371,
				"element": "C" 
			},
			{
				"x": -2.6442538894,
				"y": 0.5745003699,
				"z": -1.0981817081,
				"element": "C" 
			},
			{
				"x": -3.2717438554,
				"y": 0.9973289133,
				"z": -0.1580008877,
				"element": "C" 
			},
			{
				"x": 0.4516239145,
				"y": -0.213834999,
				"z": -2.761658565,
				"element": "C" 
			},
			{
				"x": 0.3130680837,
				"y": 0.5261911836,
				"z": -3.7206364699,
				"element": "O" 
			},
			{
				"x": 1.7915053833,
				"y": -0.8375748207,
				"z": -2.3805245839,
				"element": "C" 
			},
			{
				"x": 2.2648249415,
				"y": -0.2685472922,
				"z": -1.1284858377,
				"element": "N" 
			},
			{
				"x": 1.6775729275,
				"y": -0.6117120554,
				"z": -0.0364933192,
				"element": "C" 
			},
			{
				"x": 2.1924190528,
				"y": -0.026013957,
				"z": 1.2363001415,
				"element": "C" 
			},
			{
				"x": 1.3649367058,
				"y": 0.1536519251,
				"z": 2.3563832889,
				"element": "C" 
			},
			{
				"x": 1.8632978484,
				"y": 0.7450526257,
				"z": 3.51783872,
				"element": "C" 
			},
			{
				"x": 3.194276744,
				"y": 1.1587727929,
				"z": 3.5782905696,
				"element": "C" 
			},
			{
				"x": 4.024796415,
				"y": 0.9875572116,
				"z": 2.4665060971,
				"element": "C" 
			},
			{
				"x": 3.5282327014,
				"y": 0.40505866,
				"z": 1.3043489153,
				"element": "C" 
			},
			{
				"x": 1.3723347162,
				"y": -2.6334360564,
				"z": 1.7000050431,
				"element": "H" 
			},
			{
				"x": -2.4146938584,
				"y": -2.4160687052,
				"z": -1.4723823127,
				"element": "H" 
			},
			{
				"x": -2.3726358571,
				"y": -4.1592480117,
				"z": 0.2638669569,
				"element": "H" 
			},
			{
				"x": -2.536186367,
				"y": -0.653748828,
				"z": -2.8094672536,
				"element": "H" 
			},
			{
				"x": -1.6859534962,
				"y": 0.8724005385,
				"z": -2.9602846144,
				"element": "H" 
			},
			{
				"x": -3.8162766153,
				"y": 1.3811366689,
				"z": 0.6736070166,
				"element": "H" 
			},
			{
				"x": 1.6830023076,
				"y": -1.9322737698,
				"z": -2.3303003602,
				"element": "H" 
			},
			{
				"x": 2.4906008798,
				"y": -0.5873976644,
				"z": -3.1787986399,
				"element": "H" 
			},
			{
				"x": 0.3245002513,
				"y": -0.1513440484,
				"z": 2.3139693198,
				"element": "H" 
			},
			{
				"x": 1.208806248,
				"y": 0.8850303106,
				"z": 4.3732270784,
				"element": "H" 
			},
			{
				"x": 3.5833385185,
				"y": 1.6133683545,
				"z": 4.4848997278,
				"element": "H" 
			},
			{
				"x": 5.0619144179,
				"y": 1.3078291065,
				"z": 2.5080443206,
				"element": "H" 
			},
			{
				"x": 4.1582854502,
				"y": 0.2756693831,
				"z": 0.4313564762,
				"element": "H" 
			}
		],
		 "valence_orbital": [ 
			{
				"type": "occ",
				"energy": -0.26952,
				"method": "rhf"
			},
			{
				"type": "occ",
				"energy": -0.25854,
				"method": "rhf"
			},
			{
				"type": "occ",
				"energy": -0.25489,
				"method": "rhf"
			},
			{
				"type": "occ",
				"energy": -0.24145,
				"method": "rhf"
			},
			{
				"type": "occ",
				"energy": -0.23577,
				"method": "rhf"
			},
			{
				"type": "unocc",
				"energy": -0.06141,
				"method": "rhf"
			},
			{
				"type": "unocc",
				"energy": -0.03309,
				"method": "rhf"
			},
			{
				"type": "unocc",
				"energy": -0.02657,
				"method": "rhf"
			},
			{
				"type": "unocc",
				"energy": -0.00436,
				"method": "rhf"
			},
			{
				"type": "unocc",
				"energy": 0.0083,
				"method": "rhf"
			}
		],
		"cosmo_sigma_profile": { 
			"-0.025": 0.0,
			"-0.024": 0.0,
			"-0.023": 0.0,
			"-0.022": 0.0,
			"-0.021": 0.0,
			"-0.02": 0.0,
			"-0.019": 0.0,
			"-0.018": 0.0,
			"-0.017": 0.0,
			"-0.016": 0.0,
			"-0.015": 0.0,
			"-0.014": 0.0,
			"-0.013": 0.0,
			"-0.012": 0.748974643025,
			"-0.011": 1.36855567921,
			"-0.01": 2.36042028942,
			"-0.009": 3.13497414769,
			"-0.008": 7.72781889782,
			"-0.007": 9.54137334448,
			"-0.006": 18.9447554913,
			"-0.005": 22.2423326808,
			"-0.004": 24.4850653226,
			"-0.003": 21.6048739503,
			"-0.002": 22.1763553685,
			"-0.001": 22.7724591861,
			"0.0": 23.4818387837,
			"0.001": 26.6663590927,
			"0.002": 23.6633896632,
			"0.003": 24.9359911263,
			"0.004": 27.449650306,
			"0.005": 19.5185922935,
			"0.006": 10.0362409359,
			"0.007": 3.01249921897,
			"0.008": 2.87429553283,
			"0.009": 3.02337317392,
			"0.01": 2.43630495529,
			"0.011": 4.34761192285,
			"0.012": 4.79884805444,
			"0.013": 2.0957310001,
			"0.014": 0.402922730958,
			"0.015": 0.0989411310949,
			"0.016": 0.0274123325293,
			"0.017": 0.0146950003757,
			"0.018": 0.0190239480789,
			"0.019": 0.0362109379211,
			"0.02": 0.0,
			"0.021": 0.0,
			"0.022": 0.0,
			"0.023": 0.0,
			"0.024": 0.0,
			"0.025": 0.0
		}
	}
}
