{
	 "smiles": "SC1=NN=C(NC2=CC=CC=C2)S1", 
	 "Tm": 434.15, 
	 "num_atms": 20, 
	 "gaussian": { 
		 "optdone": 1, 
		 "sigma_profile": "yes", 
		 "theory": "DFT", 
		 "functional": "B3LYP", 
		 "basiset": "6-31G**", 
		 "properties": { 
			 "R2extent": 4392.4361, 
			 "electric_dipole_moment_norm": 4.34118556848, 
			 "electric_quadrupole_moment_norm": 16.4271419285, 
			 "total_energy": -1269.65687712, 
			 "HOMO_LUMO_gap": 0.17128, 
			 "cosmo_polarized_energy": -14.15, 
			 "cosmo_cavitation_energy": 28.07, 
			 "cosmo_dispersion_energy": -21.98, 
			 "cosmo_repulsion_energy": 1.64, 
			 "cosmo_total_nonelectrostatic_energy": 7.74, 
			 "SMD_solvation_energy": 2.16 
		},
		"coords": [
			{
				"x": -0.666017219,
				"y": -4.5527419718,
				"z": 1.9835671974,
				"element": "S" 
			},
			{
				"x": 0.2825498747,
				"y": -3.0815839581,
				"z": 1.727734406,
				"element": "C" 
			},
			{
				"x": 1.4516393508,
				"y": -2.890199752,
				"z": 2.2565353317,
				"element": "N" 
			},
			{
				"x": 1.9597918586,
				"y": -1.6462036323,
				"z": 2.0433427626,
				"element": "N" 
			},
			{
				"x": 1.1665323972,
				"y": -0.8835076488,
				"z": 1.3192480886,
				"element": "C" 
			},
			{
				"x": 1.5871386148,
				"y": 0.3522429361,
				"z": 0.9200089895,
				"element": "N" 
			},
			{
				"x": 0.9046909833,
				"y": 1.4025779849,
				"z": 0.2826292594,
				"element": "C" 
			},
			{
				"x": 1.6764867809,
				"y": 2.3609659932,
				"z": -0.395773856,
				"element": "C" 
			},
			{
				"x": 1.0629607491,
				"y": 3.4344497851,
				"z": -1.0334183114,
				"element": "C" 
			},
			{
				"x": -0.3277860523,
				"y": 3.5679358796,
				"z": -1.0168313324,
				"element": "C" 
			},
			{
				"x": -1.0929864205,
				"y": 2.620411852,
				"z": -0.3377817217,
				"element": "C" 
			},
			{
				"x": -0.4897191943,
				"y": 1.5472226913,
				"z": 0.3194058071,
				"element": "C" 
			},
			{
				"x": -0.3462309239,
				"y": -1.6600043946,
				"z": 0.867210464,
				"element": "S" 
			},
			{
				"x": -0.8297549785,
				"y": -4.8689036711,
				"z": 0.6808071973,
				"element": "H" 
			},
			{
				"x": 2.567837253,
				"y": 0.5004019985,
				"z": 1.1228039427,
				"element": "H" 
			},
			{
				"x": 2.7576106972,
				"y": 2.2520359565,
				"z": -0.4267686743,
				"element": "H" 
			},
			{
				"x": 1.6760138468,
				"y": 4.1650218289,
				"z": -1.5529041709,
				"element": "H" 
			},
			{
				"x": -0.8058437066,
				"y": 4.4012863358,
				"z": -1.5216145728,
				"element": "H" 
			},
			{
				"x": -2.1739904911,
				"y": 2.718334713,
				"z": -0.3011378683,
				"element": "H" 
			},
			{
				"x": -1.1038234202,
				"y": 0.8529570739,
				"z": 0.8805370616,
				"element": "H" 
			}
		],
		 "valence_orbital": [ 
			{
				"type": "occ",
				"energy": -0.28788,
				"method": "rhf"
			},
			{
				"type": "occ",
				"energy": -0.26829,
				"method": "rhf"
			},
			{
				"type": "occ",
				"energy": -0.26482,
				"method": "rhf"
			},
			{
				"type": "occ",
				"energy": -0.25944,
				"method": "rhf"
			},
			{
				"type": "occ",
				"energy": -0.21574,
				"method": "rhf"
			},
			{
				"type": "unocc",
				"energy": -0.04446,
				"method": "rhf"
			},
			{
				"type": "unocc",
				"energy": -0.02182,
				"method": "rhf"
			},
			{
				"type": "unocc",
				"energy": -0.0073,
				"method": "rhf"
			},
			{
				"type": "unocc",
				"energy": 0.00227,
				"method": "rhf"
			},
			{
				"type": "unocc",
				"energy": 0.01846,
				"method": "rhf"
			}
		],
		"cosmo_sigma_profile": { 
			"-0.025": 0.0,
			"-0.024": 0.0,
			"-0.023": 0.0,
			"-0.022": 0.0,
			"-0.021": 0.0,
			"-0.02": 0.0,
			"-0.019": 0.0,
			"-0.018": 0.0,
			"-0.017": 0.0,
			"-0.016": 0.270934693927,
			"-0.015": 1.0445024302,
			"-0.014": 1.13523804382,
			"-0.013": 0.776469028713,
			"-0.012": 1.87301400723,
			"-0.011": 4.3978845277,
			"-0.01": 3.44555211945,
			"-0.009": 2.90924104139,
			"-0.008": 2.50610065247,
			"-0.007": 4.20438529033,
			"-0.006": 9.74510339378,
			"-0.005": 14.0796719464,
			"-0.004": 14.6481290506,
			"-0.003": 11.3393404608,
			"-0.002": 17.1275920768,
			"-0.001": 18.5454610029,
			"0.0": 18.706373026,
			"0.001": 17.6273955526,
			"0.002": 16.0419636042,
			"0.003": 12.9628531039,
			"0.004": 13.3754991017,
			"0.005": 13.3623097175,
			"0.006": 5.97776689972,
			"0.007": 3.8914616866,
			"0.008": 4.12911815096,
			"0.009": 2.42258394292,
			"0.01": 2.24156371068,
			"0.011": 3.30621040426,
			"0.012": 3.35993907641,
			"0.013": 2.54650823521,
			"0.014": 2.11026848844,
			"0.015": 0.487477466281,
			"0.016": 0.0,
			"0.017": 0.0,
			"0.018": 0.0,
			"0.019": 0.0,
			"0.02": 0.0,
			"0.021": 0.0,
			"0.022": 0.0,
			"0.023": 0.0,
			"0.024": 0.0,
			"0.025": 0.0
		}
	}
}
