{
	 "smiles": "CN(C)S(=O)(=O)C1=C(O)C=CC(C)=C1", 
	 "Tm": 350.15, 
	 "num_atms": 27, 
	 "gaussian": { 
		 "optdone": 1, 
		 "sigma_profile": "yes", 
		 "theory": "DFT", 
		 "functional": "B3LYP", 
		 "basiset": "6-31G**", 
		 "properties": { 
			 "R2extent": 3387.2793, 
			 "electric_dipole_moment_norm": 6.3620553935, 
			 "electric_quadrupole_moment_norm": 17.2144156462, 
			 "total_energy": -1029.32635225, 
			 "HOMO_LUMO_gap": 0.19918, 
			 "cosmo_polarized_energy": -18.89, 
			 "cosmo_cavitation_energy": 30.79, 
			 "cosmo_dispersion_energy": -22.47, 
			 "cosmo_repulsion_energy": 1.72, 
			 "cosmo_total_nonelectrostatic_energy": 10.04, 
			 "SMD_solvation_energy": 4.64 
		},
		"coords": [
			{
				"x": -1.9812515877,
				"y": -2.3955958641,
				"z": 1.9595849837,
				"element": "C" 
			},
			{
				"x": -2.4735763642,
				"y": -1.0888703176,
				"z": 1.5255632338,
				"element": "N" 
			},
			{
				"x": -3.3638858065,
				"y": -1.0891960547,
				"z": 0.3675032272,
				"element": "C" 
			},
			{
				"x": -1.5291395401,
				"y": 0.2793705408,
				"z": 1.7632372308,
				"element": "S" 
			},
			{
				"x": -2.4423506132,
				"y": 1.4215575877,
				"z": 1.6524487638,
				"element": "O" 
			},
			{
				"x": -0.745966795,
				"y": 0.0501151268,
				"z": 2.9765821687,
				"element": "O" 
			},
			{
				"x": -0.3963689414,
				"y": 0.4443317142,
				"z": 0.3604186221,
				"element": "C" 
			},
			{
				"x": 0.6557552999,
				"y": -0.4590121241,
				"z": 0.1312013894,
				"element": "C" 
			},
			{
				"x": 0.7898848074,
				"y": -1.5389786018,
				"z": 0.9491242372,
				"element": "O" 
			},
			{
				"x": 1.5236838555,
				"y": -0.22387011,
				"z": -0.9391785744,
				"element": "C" 
			},
			{
				"x": 1.3467802284,
				"y": 0.8842098686,
				"z": -1.7647846442,
				"element": "C" 
			},
			{
				"x": 0.3002065314,
				"y": 1.789898253,
				"z": -1.5557429594,
				"element": "C" 
			},
			{
				"x": 0.0912337737,
				"y": 2.9762104171,
				"z": -2.467709998,
				"element": "C" 
			},
			{
				"x": -0.5592606493,
				"y": 1.5496466762,
				"z": -0.4783027482,
				"element": "C" 
			},
			{
				"x": -1.4540386006,
				"y": -2.9322234424,
				"z": 1.1601217274,
				"element": "H" 
			},
			{
				"x": -2.8426529897,
				"y": -2.9909694345,
				"z": 2.2815820793,
				"element": "H" 
			},
			{
				"x": -1.3078342948,
				"y": -2.2632064508,
				"z": 2.8044151557,
				"element": "H" 
			},
			{
				"x": -4.200230469,
				"y": -1.7635644106,
				"z": 0.5767872476,
				"element": "H" 
			},
			{
				"x": -2.862709955,
				"y": -1.4307365916,
				"z": -0.5511566161,
				"element": "H" 
			},
			{
				"x": -3.762926952,
				"y": -0.0864399357,
				"z": 0.2144195346,
				"element": "H" 
			},
			{
				"x": 1.5870835933,
				"y": -2.026978295,
				"z": 0.7053186007,
				"element": "H" 
			},
			{
				"x": 2.3454352148,
				"y": -0.9138157776,
				"z": -1.1205163823,
				"element": "H" 
			},
			{
				"x": 2.0402550844,
				"y": 1.0442359133,
				"z": -2.5864467656,
				"element": "H" 
			},
			{
				"x": -0.5751460158,
				"y": 2.7265844096,
				"z": -3.3029377517,
				"element": "H" 
			},
			{
				"x": -0.3607554387,
				"y": 3.815641873,
				"z": -1.931608058,
				"element": "H" 
			},
			{
				"x": 1.0366773642,
				"y": 3.3203554386,
				"z": -2.8977195021,
				"element": "H" 
			},
			{
				"x": -1.3725007402,
				"y": 2.2332995917,
				"z": -0.2591042021,
				"element": "H" 
			}
		],
		 "valence_orbital": [ 
			{
				"type": "occ",
				"energy": -0.29516,
				"method": "rhf"
			},
			{
				"type": "occ",
				"energy": -0.28859,
				"method": "rhf"
			},
			{
				"type": "occ",
				"energy": -0.27109,
				"method": "rhf"
			},
			{
				"type": "occ",
				"energy": -0.24656,
				"method": "rhf"
			},
			{
				"type": "occ",
				"energy": -0.23053,
				"method": "rhf"
			},
			{
				"type": "unocc",
				"energy": -0.03135,
				"method": "rhf"
			},
			{
				"type": "unocc",
				"energy": -0.00517,
				"method": "rhf"
			},
			{
				"type": "unocc",
				"energy": 0.05085,
				"method": "rhf"
			},
			{
				"type": "unocc",
				"energy": 0.06466,
				"method": "rhf"
			},
			{
				"type": "unocc",
				"energy": 0.09166,
				"method": "rhf"
			}
		],
		"cosmo_sigma_profile": { 
			"-0.025": 0.0,
			"-0.024": 0.0,
			"-0.023": 0.0,
			"-0.022": 0.0,
			"-0.021": 0.0,
			"-0.02": 0.0,
			"-0.019": 0.198404001988,
			"-0.018": 1.04891970134,
			"-0.017": 1.30499485107,
			"-0.016": 1.00304326637,
			"-0.015": 1.18520204402,
			"-0.014": 1.49776471439,
			"-0.013": 0.513833449596,
			"-0.012": 0.52419457795,
			"-0.011": 1.49165982537,
			"-0.01": 1.20865642917,
			"-0.009": 1.01428429322,
			"-0.008": 1.13800607562,
			"-0.007": 2.43312168642,
			"-0.006": 7.66524895546,
			"-0.005": 15.2475881496,
			"-0.004": 21.9011899242,
			"-0.003": 23.5933152707,
			"-0.002": 27.8332540305,
			"-0.001": 19.266437241,
			"0.0": 17.6196753553,
			"0.001": 13.4493858458,
			"0.002": 13.201467647,
			"0.003": 12.8035868482,
			"0.004": 10.7176781387,
			"0.005": 4.66785815473,
			"0.006": 4.47953817473,
			"0.007": 3.9310686791,
			"0.008": 4.53384209181,
			"0.009": 4.6921704853,
			"0.01": 5.7382755183,
			"0.011": 8.6271277943,
			"0.012": 7.73293386354,
			"0.013": 0.873398182267,
			"0.014": 0.0,
			"0.015": 0.0,
			"0.016": 0.0,
			"0.017": 0.0,
			"0.018": 0.0,
			"0.019": 0.0,
			"0.02": 0.0,
			"0.021": 0.0,
			"0.022": 0.0,
			"0.023": 0.0,
			"0.024": 0.0,
			"0.025": 0.0
		}
	}
}
