{
	 "smiles": "OC(=O)C1=CC=C(CNC(=O)C2=CC=CS2)C=C1", 
	 "Tm": 483.15, 
	 "num_atms": 29, 
	 "gaussian": { 
		 "optdone": 1, 
		 "sigma_profile": "yes", 
		 "theory": "DFT", 
		 "functional": "B3LYP", 
		 "basiset": "6-31G**", 
		 "properties": { 
			 "R2extent": 7640.6951, 
			 "electric_dipole_moment_norm": 3.99142049276, 
			 "electric_quadrupole_moment_norm": 41.2945647815, 
			 "total_energy": -1180.62623926, 
			 "HOMO_LUMO_gap": 0.18906, 
			 "cosmo_polarized_energy": -22.16, 
			 "cosmo_cavitation_energy": 35.85, 
			 "cosmo_dispersion_energy": -26.08, 
			 "cosmo_repulsion_energy": 1.96, 
			 "cosmo_total_nonelectrostatic_energy": 11.73, 
			 "SMD_solvation_energy": 7.05 
		},
		"coords": [
			{
				"x": -4.3731165399,
				"y": 3.5161457718,
				"z": -2.1014815731,
				"element": "O" 
			},
			{
				"x": -4.536986437,
				"y": 2.4427436604,
				"z": -1.2824066932,
				"element": "C" 
			},
			{
				"x": -5.6370311104,
				"y": 2.1641729454,
				"z": -0.866226271,
				"element": "O" 
			},
			{
				"x": -3.307110663,
				"y": 1.6555884857,
				"z": -0.9427190704,
				"element": "C" 
			},
			{
				"x": -3.4819378298,
				"y": 0.3518001549,
				"z": -0.4583054695,
				"element": "C" 
			},
			{
				"x": -2.3796120287,
				"y": -0.427856921,
				"z": -0.1282841073,
				"element": "C" 
			},
			{
				"x": -1.0775394132,
				"y": 0.0799327132,
				"z": -0.2465924165,
				"element": "C" 
			},
			{
				"x": 0.1050394866,
				"y": -0.7828818318,
				"z": 0.1701534308,
				"element": "C" 
			},
			{
				"x": 1.3401958021,
				"y": -0.4772736027,
				"z": -0.5429701756,
				"element": "N" 
			},
			{
				"x": 2.4047871297,
				"y": 0.2891585065,
				"z": -0.1011684566,
				"element": "C" 
			},
			{
				"x": 3.0358197029,
				"y": 0.9878553217,
				"z": -0.8894843744,
				"element": "O" 
			},
			{
				"x": 2.8210027989,
				"y": 0.2174938857,
				"z": 1.3240896136,
				"element": "C" 
			},
			{
				"x": 3.5872524677,
				"y": 1.1842589187,
				"z": 1.9333322298,
				"element": "C" 
			},
			{
				"x": 3.9553712868,
				"y": 0.8588979069,
				"z": 3.2667443297,
				"element": "C" 
			},
			{
				"x": 3.4856672566,
				"y": -0.3677026911,
				"z": 3.658116062,
				"element": "C" 
			},
			{
				"x": 2.5776057642,
				"y": -1.1391264123,
				"z": 2.4050613786,
				"element": "S" 
			},
			{
				"x": -0.9041151274,
				"y": 1.3886568259,
				"z": -0.7121688085,
				"element": "C" 
			},
			{
				"x": -2.0079940687,
				"y": 2.1675817171,
				"z": -1.0574145562,
				"element": "C" 
			},
			{
				"x": -3.482732889,
				"y": 3.5173912938,
				"z": -2.4788280669,
				"element": "H" 
			},
			{
				"x": -4.4918700705,
				"y": -0.0308965882,
				"z": -0.3580332813,
				"element": "H" 
			},
			{
				"x": -2.5285818584,
				"y": -1.4443637711,
				"z": 0.227689703,
				"element": "H" 
			},
			{
				"x": -0.1528854949,
				"y": -1.8397730643,
				"z": 0.0297716538,
				"element": "H" 
			},
			{
				"x": 0.2832019654,
				"y": -0.6505627109,
				"z": 1.240513484,
				"element": "H" 
			},
			{
				"x": 1.2333032744,
				"y": -0.3681438139,
				"z": -1.5458151749,
				"element": "H" 
			},
			{
				"x": 3.8755647961,
				"y": 2.0887336071,
				"z": 1.412047682,
				"element": "H" 
			},
			{
				"x": 4.5493252731,
				"y": 1.5016756891,
				"z": 3.9059559809,
				"element": "H" 
			},
			{
				"x": 3.622966155,
				"y": -0.8669205045,
				"z": 4.6077393909,
				"element": "H" 
			},
			{
				"x": 0.094658731,
				"y": 1.8035488421,
				"z": -0.8062554798,
				"element": "H" 
			},
			{
				"x": -1.8384483598,
				"y": 3.1923656657,
				"z": -1.3799609637,
				"element": "H" 
			}
		],
		 "valence_orbital": [ 
			{
				"type": "occ",
				"energy": -0.27478,
				"method": "rhf"
			},
			{
				"type": "occ",
				"energy": -0.2703,
				"method": "rhf"
			},
			{
				"type": "occ",
				"energy": -0.26271,
				"method": "rhf"
			},
			{
				"type": "occ",
				"energy": -0.25777,
				"method": "rhf"
			},
			{
				"type": "occ",
				"energy": -0.24704,
				"method": "rhf"
			},
			{
				"type": "unocc",
				"energy": -0.05798,
				"method": "rhf"
			},
			{
				"type": "unocc",
				"energy": -0.05178,
				"method": "rhf"
			},
			{
				"type": "unocc",
				"energy": -0.02798,
				"method": "rhf"
			},
			{
				"type": "unocc",
				"energy": 0.01404,
				"method": "rhf"
			},
			{
				"type": "unocc",
				"energy": 0.02676,
				"method": "rhf"
			}
		],
		"cosmo_sigma_profile": { 
			"-0.025": 0.0,
			"-0.024": 0.0,
			"-0.023": 0.0,
			"-0.022": 0.0,
			"-0.021": 0.0,
			"-0.02": 0.0,
			"-0.019": 0.059506195458,
			"-0.018": 0.772163793052,
			"-0.017": 1.38791817258,
			"-0.016": 0.438014876394,
			"-0.015": 1.61898546206,
			"-0.014": 0.858340520676,
			"-0.013": 1.67435754789,
			"-0.012": 1.8685018681,
			"-0.011": 2.13210719823,
			"-0.01": 1.5842545393,
			"-0.009": 4.75652752488,
			"-0.008": 5.32480009198,
			"-0.007": 10.8018161099,
			"-0.006": 16.742226417,
			"-0.005": 19.7522472342,
			"-0.004": 19.0722507591,
			"-0.003": 16.9135902614,
			"-0.002": 15.4926654713,
			"-0.001": 15.9689864681,
			"0.0": 18.7526046388,
			"0.001": 19.900309777,
			"0.002": 22.5494524082,
			"0.003": 27.3908613269,
			"0.004": 12.7801805608,
			"0.005": 3.84819959613,
			"0.006": 4.77928168776,
			"0.007": 4.30452281487,
			"0.008": 3.46278262078,
			"0.009": 4.7779727821,
			"0.01": 6.31117874731,
			"0.011": 6.47132975146,
			"0.012": 7.71434167891,
			"0.013": 6.92500755195,
			"0.014": 2.14120855856,
			"0.015": 0.0,
			"0.016": 0.0,
			"0.017": 0.0,
			"0.018": 0.0,
			"0.019": 0.0,
			"0.02": 0.0,
			"0.021": 0.0,
			"0.022": 0.0,
			"0.023": 0.0,
			"0.024": 0.0,
			"0.025": 0.0
		}
	}
}
