{
	 "smiles": "OC(=O)C=CC1=C(C=CC=C1)C#N", 
	 "Tm": 529.15, 
	 "num_atms": 20, 
	 "gaussian": { 
		 "optdone": 1, 
		 "sigma_profile": "yes", 
		 "theory": "DFT", 
		 "functional": "B3LYP", 
		 "basiset": "6-31G**", 
		 "properties": { 
			 "R2extent": 2613.3401, 
			 "electric_dipole_moment_norm": 5.82989892966, 
			 "electric_quadrupole_moment_norm": 8.38183539924, 
			 "total_energy": -590.454439362, 
			 "HOMO_LUMO_gap": 0.18639, 
			 "cosmo_polarized_energy": -16.11, 
			 "cosmo_cavitation_energy": 26.09, 
			 "cosmo_dispersion_energy": -17.95, 
			 "cosmo_repulsion_energy": 1.44, 
			 "cosmo_total_nonelectrostatic_energy": 9.58, 
			 "SMD_solvation_energy": 6.9 
		},
		"coords": [
			{
				"x": -1.0522449172,
				"y": 2.3618843948,
				"z": -0.9554665834,
				"element": "O" 
			},
			{
				"x": -2.0575683616,
				"y": 1.5461843461,
				"z": -1.3515472363,
				"element": "C" 
			},
			{
				"x": -3.2219205931,
				"y": 1.8901262979,
				"z": -1.3358009408,
				"element": "O" 
			},
			{
				"x": -1.6224838172,
				"y": 0.2214159259,
				"z": -1.8536090396,
				"element": "C" 
			},
			{
				"x": -0.4117270356,
				"y": -0.3605312371,
				"z": -1.8176349969,
				"element": "C" 
			},
			{
				"x": 0.8603207299,
				"y": 0.0877615922,
				"z": -1.2081334251,
				"element": "C" 
			},
			{
				"x": 1.0006883155,
				"y": 0.4264358826,
				"z": 0.1584833123,
				"element": "C" 
			},
			{
				"x": 2.2549248061,
				"y": 0.7920065839,
				"z": 0.6747811391,
				"element": "C" 
			},
			{
				"x": 3.3745377002,
				"y": 0.8254135555,
				"z": -0.1505366825,
				"element": "C" 
			},
			{
				"x": 3.251411997,
				"y": 0.473740202,
				"z": -1.4960485929,
				"element": "C" 
			},
			{
				"x": 2.0119048725,
				"y": 0.0961492018,
				"z": -2.0084877643,
				"element": "C" 
			},
			{
				"x": -0.1096894482,
				"y": 0.366225278,
				"z": 1.0646924972,
				"element": "C" 
			},
			{
				"x": -0.9781680411,
				"y": 0.3131921492,
				"z": 1.8365823444,
				"element": "N" 
			},
			{
				"x": -1.4819863108,
				"y": 3.1722554608,
				"z": -0.6344286876,
				"element": "H" 
			},
			{
				"x": -2.4362028024,
				"y": -0.3104014625,
				"z": -2.3362620905,
				"element": "H" 
			},
			{
				"x": -0.3325835158,
				"y": -1.3164582868,
				"z": -2.3361293896,
				"element": "H" 
			},
			{
				"x": 2.3367487829,
				"y": 1.0417321889,
				"z": 1.7273101232,
				"element": "H" 
			},
			{
				"x": 4.3386974948,
				"y": 1.1122631575,
				"z": 0.2570587216,
				"element": "H" 
			},
			{
				"x": 4.1213242828,
				"y": 0.486617549,
				"z": -2.1456855606,
				"element": "H" 
			},
			{
				"x": 1.9237158613,
				"y": -0.1841127798,
				"z": -3.0542371477,
				"element": "H" 
			}
		],
		 "valence_orbital": [ 
			{
				"type": "occ",
				"energy": -0.32142,
				"method": "rhf"
			},
			{
				"type": "occ",
				"energy": -0.30447,
				"method": "rhf"
			},
			{
				"type": "occ",
				"energy": -0.27959,
				"method": "rhf"
			},
			{
				"type": "occ",
				"energy": -0.27157,
				"method": "rhf"
			},
			{
				"type": "occ",
				"energy": -0.26066,
				"method": "rhf"
			},
			{
				"type": "unocc",
				"energy": -0.07427,
				"method": "rhf"
			},
			{
				"type": "unocc",
				"energy": -0.04728,
				"method": "rhf"
			},
			{
				"type": "unocc",
				"energy": -0.01735,
				"method": "rhf"
			},
			{
				"type": "unocc",
				"energy": 0.03641,
				"method": "rhf"
			},
			{
				"type": "unocc",
				"energy": 0.07227,
				"method": "rhf"
			}
		],
		"cosmo_sigma_profile": { 
			"-0.025": 0.0,
			"-0.024": 0.0,
			"-0.023": 0.0,
			"-0.022": 0.0,
			"-0.021": 0.0,
			"-0.02": 0.0,
			"-0.019": 0.0497748442665,
			"-0.018": 0.805218138554,
			"-0.017": 0.852494363526,
			"-0.016": 0.905324364395,
			"-0.015": 0.811605237097,
			"-0.014": 0.488012934775,
			"-0.013": 0.525811095631,
			"-0.012": 0.879757901533,
			"-0.011": 0.765685032923,
			"-0.01": 0.811285753238,
			"-0.009": 0.736777522454,
			"-0.008": 5.96335866269,
			"-0.007": 14.9655696436,
			"-0.006": 16.2546953421,
			"-0.005": 11.1554262752,
			"-0.004": 9.34640675253,
			"-0.003": 11.1209291216,
			"-0.002": 11.8243695336,
			"-0.001": 13.175040195,
			"0.0": 12.8248554652,
			"0.001": 14.4657679756,
			"0.002": 18.2458675356,
			"0.003": 12.6108303319,
			"0.004": 4.89308171488,
			"0.005": 5.36777788339,
			"0.006": 5.34789989969,
			"0.007": 4.79698607353,
			"0.008": 4.83637774197,
			"0.009": 4.6546413276,
			"0.01": 4.96527417418,
			"0.011": 6.55081080555,
			"0.012": 6.88261455836,
			"0.013": 2.17915708138,
			"0.014": 0.0583837744353,
			"0.015": 0.0,
			"0.016": 0.0,
			"0.017": 0.0,
			"0.018": 0.0,
			"0.019": 0.0,
			"0.02": 0.0,
			"0.021": 0.0,
			"0.022": 0.0,
			"0.023": 0.0,
			"0.024": 0.0,
			"0.025": 0.0
		}
	}
}
