{
	 "smiles": "CC1=NC2=C(C=C(S2)C2=CC=CC=C2)C(Cl)=N1", 
	 "Tm": 388.15, 
	 "num_atms": 26, 
	 "gaussian": { 
		 "optdone": 1, 
		 "sigma_profile": "yes", 
		 "theory": "DFT", 
		 "functional": "B3LYP", 
		 "basiset": "6-31G**", 
		 "properties": { 
			 "R2extent": 6406.8478, 
			 "electric_dipole_moment_norm": 2.87117893904, 
			 "electric_quadrupole_moment_norm": 10.3663492161, 
			 "total_energy": -1468.70602234, 
			 "HOMO_LUMO_gap": 0.16101, 
			 "cosmo_polarized_energy": -7.63, 
			 "cosmo_cavitation_energy": 34.0, 
			 "cosmo_dispersion_energy": -25.66, 
			 "cosmo_repulsion_energy": 1.93, 
			 "cosmo_total_nonelectrostatic_energy": 10.27, 
			 "SMD_solvation_energy": 1.94 
		},
		"coords": [
			{
				"x": -2.2456176812,
				"y": 3.9870504891,
				"z": -2.2316029966,
				"element": "C" 
			},
			{
				"x": -1.5817129084,
				"y": 2.9920638996,
				"z": -1.3229761148,
				"element": "C" 
			},
			{
				"x": -0.404217262,
				"y": 2.4814550445,
				"z": -1.696433882,
				"element": "N" 
			},
			{
				"x": 0.1297872098,
				"y": 1.6086836974,
				"z": -0.8450739861,
				"element": "C" 
			},
			{
				"x": -0.4467947985,
				"y": 1.2040881563,
				"z": 0.3822384794,
				"element": "C" 
			},
			{
				"x": 0.3503873034,
				"y": 0.2498113879,
				"z": 1.0862239554,
				"element": "C" 
			},
			{
				"x": 1.5075358471,
				"y": -0.0708078126,
				"z": 0.4282413088,
				"element": "C" 
			},
			{
				"x": 1.6663520415,
				"y": 0.8073139341,
				"z": -1.1057465416,
				"element": "S" 
			},
			{
				"x": 2.5555176828,
				"y": -1.0060101982,
				"z": 0.8580523408,
				"element": "C" 
			},
			{
				"x": 3.366541218,
				"y": -1.6782207713,
				"z": -0.0734714594,
				"element": "C" 
			},
			{
				"x": 4.3475383061,
				"y": -2.5719024628,
				"z": 0.3513374709,
				"element": "C" 
			},
			{
				"x": 4.5360764741,
				"y": -2.8150469296,
				"z": 1.7129244981,
				"element": "C" 
			},
			{
				"x": 3.7387058521,
				"y": -2.1515134239,
				"z": 2.6486744435,
				"element": "C" 
			},
			{
				"x": 2.7627450492,
				"y": -1.2519392353,
				"z": 2.2282249947,
				"element": "C" 
			},
			{
				"x": -1.68295854,
				"y": 1.8197576777,
				"z": 0.6375226759,
				"element": "C" 
			},
			{
				"x": -2.5492033876,
				"y": 1.4296605739,
				"z": 2.1189454827,
				"element": "Cl" 
			},
			{
				"x": -2.2386259502,
				"y": 2.6841964269,
				"z": -0.177466666,
				"element": "N" 
			},
			{
				"x": -3.2358621722,
				"y": 3.6268287672,
				"z": -2.5287980357,
				"element": "H" 
			},
			{
				"x": -2.3957314555,
				"y": 4.9368361518,
				"z": -1.7079225144,
				"element": "H" 
			},
			{
				"x": -1.6352531065,
				"y": 4.1527665856,
				"z": -3.1196462692,
				"element": "H" 
			},
			{
				"x": 0.0531484931,
				"y": -0.1974869925,
				"z": 2.0260414982,
				"element": "H" 
			},
			{
				"x": 3.2141571237,
				"y": -1.5158595222,
				"z": -1.1365956933,
				"element": "H" 
			},
			{
				"x": 4.9607737276,
				"y": -3.0839929859,
				"z": -0.3842393745,
				"element": "H" 
			},
			{
				"x": 5.3005850422,
				"y": -3.5119957619,
				"z": 2.0429642641,
				"element": "H" 
			},
			{
				"x": 3.885434667,
				"y": -2.3255863361,
				"z": 3.7106207833,
				"element": "H" 
			},
			{
				"x": 2.1700912243,
				"y": -0.7169503597,
				"z": 2.9635613379,
				"element": "H" 
			}
		],
		 "valence_orbital": [ 
			{
				"type": "occ",
				"energy": -0.28511,
				"method": "rhf"
			},
			{
				"type": "occ",
				"energy": -0.26629,
				"method": "rhf"
			},
			{
				"type": "occ",
				"energy": -0.2659,
				"method": "rhf"
			},
			{
				"type": "occ",
				"energy": -0.26291,
				"method": "rhf"
			},
			{
				"type": "occ",
				"energy": -0.22708,
				"method": "rhf"
			},
			{
				"type": "unocc",
				"energy": -0.06607,
				"method": "rhf"
			},
			{
				"type": "unocc",
				"energy": -0.04059,
				"method": "rhf"
			},
			{
				"type": "unocc",
				"energy": -0.0176,
				"method": "rhf"
			},
			{
				"type": "unocc",
				"energy": -0.0114,
				"method": "rhf"
			},
			{
				"type": "unocc",
				"energy": 0.00663,
				"method": "rhf"
			}
		],
		"cosmo_sigma_profile": { 
			"-0.025": 0.0,
			"-0.024": 0.0,
			"-0.023": 0.0,
			"-0.022": 0.0,
			"-0.021": 0.0,
			"-0.02": 0.0,
			"-0.019": 0.0,
			"-0.018": 0.0,
			"-0.017": 0.0,
			"-0.016": 0.0,
			"-0.015": 0.0,
			"-0.014": 0.0,
			"-0.013": 0.0,
			"-0.012": 0.0,
			"-0.011": 0.0,
			"-0.01": 0.0,
			"-0.009": 0.0425241249496,
			"-0.008": 1.26120701448,
			"-0.007": 3.72618498755,
			"-0.006": 12.3682037522,
			"-0.005": 16.7919527019,
			"-0.004": 19.4698880433,
			"-0.003": 19.7754996883,
			"-0.002": 28.0934783146,
			"-0.001": 29.6132052876,
			"0.0": 27.801950273,
			"0.001": 26.9585753709,
			"0.002": 24.8457715424,
			"0.003": 21.5202721799,
			"0.004": 20.0799913085,
			"0.005": 10.5886920731,
			"0.006": 2.43989307869,
			"0.007": 2.70735791163,
			"0.008": 2.12322854225,
			"0.009": 2.40189887731,
			"0.01": 1.21020511098,
			"0.011": 2.43364985901,
			"0.012": 1.09555657794,
			"0.013": 1.16434673313,
			"0.014": 0.0640702913481,
			"0.015": 0.0,
			"0.016": 0.0,
			"0.017": 0.0,
			"0.018": 0.0,
			"0.019": 0.0,
			"0.02": 0.0,
			"0.021": 0.0,
			"0.022": 0.0,
			"0.023": 0.0,
			"0.024": 0.0,
			"0.025": 0.0
		}
	}
}
