{
	 "smiles": "CN1N=CC(C(O)=O)=C1Br", 
	 "Tm": 476.15, 
	 "num_atms": 15, 
	 "gaussian": { 
		 "optdone": 1, 
		 "sigma_profile": "yes", 
		 "theory": "DFT", 
		 "functional": "B3LYP", 
		 "basiset": "6-31G**", 
		 "properties": { 
			 "R2extent": 2121.0052, 
			 "electric_dipole_moment_norm": 3.2542192566, 
			 "electric_quadrupole_moment_norm": 6.33675230935, 
			 "total_energy": -3024.88651425, 
			 "HOMO_LUMO_gap": 0.22237, 
			 "cosmo_polarized_energy": -11.43, 
			 "cosmo_cavitation_energy": 22.27, 
			 "cosmo_dispersion_energy": -16.77, 
			 "cosmo_repulsion_energy": 1.36, 
			 "cosmo_total_nonelectrostatic_energy": 6.86, 
			 "SMD_solvation_energy": 3.54 
		},
		"coords": [
			{
				"x": -0.3432694662,
				"y": -1.8498150162,
				"z": -2.1371121323,
				"element": "C" 
			},
			{
				"x": -0.4422085249,
				"y": -0.7307054663,
				"z": -1.2141692389,
				"element": "N" 
			},
			{
				"x": -1.0762845038,
				"y": 0.4096631455,
				"z": -1.6029432935,
				"element": "N" 
			},
			{
				"x": -0.9967841968,
				"y": 1.2200368933,
				"z": -0.5576737266,
				"element": "C" 
			},
			{
				"x": -0.3117529812,
				"y": 0.6280255667,
				"z": 0.5313312988,
				"element": "C" 
			},
			{
				"x": -0.0753328073,
				"y": 1.2923331001,
				"z": 1.815046403,
				"element": "C" 
			},
			{
				"x": 0.6011864189,
				"y": 0.5287491418,
				"z": 2.7067809924,
				"element": "O" 
			},
			{
				"x": -0.4469398839,
				"y": 2.4216167567,
				"z": 2.0715138913,
				"element": "O" 
			},
			{
				"x": 0.026827534,
				"y": -0.6374277351,
				"z": 0.052783996,
				"element": "C" 
			},
			{
				"x": 0.9437836847,
				"y": -2.0649849836,
				"z": 0.8459759352,
				"element": "Br" 
			},
			{
				"x": 0.7033628816,
				"y": -2.088337545,
				"z": -2.3430814239,
				"element": "H" 
			},
			{
				"x": -0.837176827,
				"y": -2.733804767,
				"z": -1.7255606731,
				"element": "H" 
			},
			{
				"x": -0.8407870098,
				"y": -1.5401408797,
				"z": -3.0545667586,
				"element": "H" 
			},
			{
				"x": -1.425421436,
				"y": 2.2116768527,
				"z": -0.589868892,
				"element": "H" 
			},
			{
				"x": 0.6907971176,
				"y": 1.0763149359,
				"z": 3.5045436221,
				"element": "H" 
			}
		],
		 "valence_orbital": [ 
			{
				"type": "occ",
				"energy": -0.31807,
				"method": "rhf"
			},
			{
				"type": "occ",
				"energy": -0.29764,
				"method": "rhf"
			},
			{
				"type": "occ",
				"energy": -0.27742,
				"method": "rhf"
			},
			{
				"type": "occ",
				"energy": -0.26897,
				"method": "rhf"
			},
			{
				"type": "occ",
				"energy": -0.25469,
				"method": "rhf"
			},
			{
				"type": "unocc",
				"energy": -0.03232,
				"method": "rhf"
			},
			{
				"type": "unocc",
				"energy": -0.00615,
				"method": "rhf"
			},
			{
				"type": "unocc",
				"energy": 0.0083,
				"method": "rhf"
			},
			{
				"type": "unocc",
				"energy": 0.08145,
				"method": "rhf"
			},
			{
				"type": "unocc",
				"energy": 0.1027,
				"method": "rhf"
			}
		],
		"cosmo_sigma_profile": { 
			"-0.025": 0.0,
			"-0.024": 0.0,
			"-0.023": 0.0,
			"-0.022": 0.0,
			"-0.021": 0.0,
			"-0.02": 0.0,
			"-0.019": 0.109798735634,
			"-0.018": 0.812875380153,
			"-0.017": 1.13504833561,
			"-0.016": 0.455194730653,
			"-0.015": 0.554610426987,
			"-0.014": 0.755174403648,
			"-0.013": 0.619225596594,
			"-0.012": 0.727857796022,
			"-0.011": 1.03955577463,
			"-0.01": 0.705640174236,
			"-0.009": 0.924446960858,
			"-0.008": 2.28163600493,
			"-0.007": 7.23011658452,
			"-0.006": 10.1118555117,
			"-0.005": 10.6351323303,
			"-0.004": 12.9462375943,
			"-0.003": 11.2798012111,
			"-0.002": 11.740396187,
			"-0.001": 13.2352538551,
			"0.0": 15.2466570157,
			"0.001": 15.4047971302,
			"0.002": 12.1941106643,
			"0.003": 8.79972823493,
			"0.004": 4.62929472162,
			"0.005": 5.54976868441,
			"0.006": 5.35701448716,
			"0.007": 3.82726462594,
			"0.008": 4.77192429868,
			"0.009": 2.9948296549,
			"0.01": 2.85987335034,
			"0.011": 4.61170858988,
			"0.012": 6.15449273598,
			"0.013": 0.988152899559,
			"0.014": 0.665112360443,
			"0.015": 0.0,
			"0.016": 0.0,
			"0.017": 0.0,
			"0.018": 0.0,
			"0.019": 0.0,
			"0.02": 0.0,
			"0.021": 0.0,
			"0.022": 0.0,
			"0.023": 0.0,
			"0.024": 0.0,
			"0.025": 0.0
		}
	}
}
