{
	 "smiles": "OC(=O)CC(Br)C(=O)C1=CC=CC=C1", 
	 "Tm": 402.15, 
	 "num_atms": 23, 
	 "gaussian": { 
		 "optdone": 1, 
		 "sigma_profile": "yes", 
		 "theory": "DFT", 
		 "functional": "B3LYP", 
		 "basiset": "6-31G**", 
		 "properties": { 
			 "R2extent": 4458.5151, 
			 "electric_dipole_moment_norm": 2.24650984641, 
			 "electric_quadrupole_moment_norm": 14.1620033653, 
			 "total_energy": -3183.56849396, 
			 "HOMO_LUMO_gap": 0.18632, 
			 "cosmo_polarized_energy": -14.05, 
			 "cosmo_cavitation_energy": 29.39, 
			 "cosmo_dispersion_energy": -20.82, 
			 "cosmo_repulsion_energy": 1.65, 
			 "cosmo_total_nonelectrostatic_energy": 10.22, 
			 "SMD_solvation_energy": 5.4 
		},
		"coords": [
			{
				"x": -0.6647748926,
				"y": -4.112856589,
				"z": -0.0340287335,
				"element": "O" 
			},
			{
				"x": 0.2201427809,
				"y": -3.5099043483,
				"z": 0.7932328136,
				"element": "C" 
			},
			{
				"x": 1.3813324754,
				"y": -3.3351249835,
				"z": 0.5012172975,
				"element": "O" 
			},
			{
				"x": -0.4123938072,
				"y": -3.0997601217,
				"z": 2.1091144679,
				"element": "C" 
			},
			{
				"x": -1.0513829626,
				"y": -1.6977955606,
				"z": 2.1682730275,
				"element": "C" 
			},
			{
				"x": -2.7821475178,
				"y": -1.6008586507,
				"z": 1.1856991426,
				"element": "Br" 
			},
			{
				"x": -0.0753067299,
				"y": -0.5317553461,
				"z": 1.8889715884,
				"element": "C" 
			},
			{
				"x": 0.4457143242,
				"y": -0.0718863981,
				"z": 2.8949997601,
				"element": "O" 
			},
			{
				"x": 0.2630235756,
				"y": 0.0012251785,
				"z": 0.5378548513,
				"element": "C" 
			},
			{
				"x": -0.1558878476,
				"y": -0.569501012,
				"z": -0.6751455481,
				"element": "C" 
			},
			{
				"x": 0.242699527,
				"y": -0.0096365693,
				"z": -1.8879670479,
				"element": "C" 
			},
			{
				"x": 1.0533919258,
				"y": 1.1262329483,
				"z": -1.9068961933,
				"element": "C" 
			},
			{
				"x": 1.4752537181,
				"y": 1.7020443449,
				"z": -0.7048571561,
				"element": "C" 
			},
			{
				"x": 1.0870849703,
				"y": 1.1412083628,
				"z": 0.5063594986,
				"element": "C" 
			},
			{
				"x": -0.171929789,
				"y": -4.3372337091,
				"z": -0.8421142519,
				"element": "H" 
			},
			{
				"x": -1.1666680163,
				"y": -3.8347284773,
				"z": 2.3993084561,
				"element": "H" 
			},
			{
				"x": 0.3910938683,
				"y": -3.0998965141,
				"z": 2.8523802196,
				"element": "H" 
			},
			{
				"x": -1.3602609594,
				"y": -1.5366635173,
				"z": 3.1988763683,
				"element": "H" 
			},
			{
				"x": -0.7956901867,
				"y": -1.4422641302,
				"z": -0.683236748,
				"element": "H" 
			},
			{
				"x": -0.0847889242,
				"y": -0.4599978541,
				"z": -2.8202191156,
				"element": "H" 
			},
			{
				"x": 1.3560396672,
				"y": 1.5619238961,
				"z": -2.854901864,
				"element": "H" 
			},
			{
				"x": 2.1080084607,
				"y": 2.5845073395,
				"z": -0.7151513227,
				"element": "H" 
			},
			{
				"x": 1.4111463398,
				"y": 1.5661217111,
				"z": 1.4498304896,
				"element": "H" 
			}
		],
		 "valence_orbital": [ 
			{
				"type": "occ",
				"energy": -0.28804,
				"method": "rhf"
			},
			{
				"type": "occ",
				"energy": -0.2801,
				"method": "rhf"
			},
			{
				"type": "occ",
				"energy": -0.26625,
				"method": "rhf"
			},
			{
				"type": "occ",
				"energy": -0.26091,
				"method": "rhf"
			},
			{
				"type": "occ",
				"energy": -0.25779,
				"method": "rhf"
			},
			{
				"type": "unocc",
				"energy": -0.07147,
				"method": "rhf"
			},
			{
				"type": "unocc",
				"energy": -0.01657,
				"method": "rhf"
			},
			{
				"type": "unocc",
				"energy": -0.01224,
				"method": "rhf"
			},
			{
				"type": "unocc",
				"energy": -0.0072,
				"method": "rhf"
			},
			{
				"type": "unocc",
				"energy": 0.03686,
				"method": "rhf"
			}
		],
		"cosmo_sigma_profile": { 
			"-0.025": 0.0,
			"-0.024": 0.0,
			"-0.023": 0.0,
			"-0.022": 0.0,
			"-0.021": 0.0,
			"-0.02": 0.0,
			"-0.019": 0.171569693469,
			"-0.018": 1.07004237609,
			"-0.017": 0.864137994676,
			"-0.016": 0.793119363364,
			"-0.015": 0.824553245361,
			"-0.014": 0.807257021767,
			"-0.013": 0.432103204405,
			"-0.012": 0.666910882204,
			"-0.011": 0.799840832906,
			"-0.01": 0.771066460166,
			"-0.009": 1.88359425021,
			"-0.008": 4.6189808288,
			"-0.007": 10.4386850891,
			"-0.006": 15.5764360489,
			"-0.005": 17.9489734879,
			"-0.004": 14.1276804519,
			"-0.003": 12.3014397985,
			"-0.002": 12.7730582349,
			"-0.001": 11.1935998336,
			"0.0": 13.4770726533,
			"0.001": 13.769990971,
			"0.002": 18.0165698598,
			"0.003": 20.9634429585,
			"0.004": 17.0413582418,
			"0.005": 11.5098684487,
			"0.006": 5.08396015632,
			"0.007": 4.12659832846,
			"0.008": 5.27364092431,
			"0.009": 4.84768528241,
			"0.01": 4.83366864191,
			"0.011": 7.95996265339,
			"0.012": 2.12334618691,
			"0.013": 0.0,
			"0.014": 0.0,
			"0.015": 0.0,
			"0.016": 0.0,
			"0.017": 0.0,
			"0.018": 0.0,
			"0.019": 0.0,
			"0.02": 0.0,
			"0.021": 0.0,
			"0.022": 0.0,
			"0.023": 0.0,
			"0.024": 0.0,
			"0.025": 0.0
		}
	}
}
