{
	 "smiles": "COC1=C2C=C(NC2=C(Br)C=C1)C(O)=O", 
	 "Tm": 520.15, 
	 "num_atms": 23, 
	 "gaussian": { 
		 "optdone": 1, 
		 "sigma_profile": "yes", 
		 "theory": "DFT", 
		 "functional": "B3LYP", 
		 "basiset": "6-31G**", 
		 "properties": { 
			 "R2extent": 6386.76, 
			 "electric_dipole_moment_norm": 3.9698648176, 
			 "electric_quadrupole_moment_norm": 18.9771083854, 
			 "total_energy": -3237.70559202, 
			 "HOMO_LUMO_gap": 0.1633, 
			 "cosmo_polarized_energy": -18.08, 
			 "cosmo_cavitation_energy": 30.42, 
			 "cosmo_dispersion_energy": -22.32, 
			 "cosmo_repulsion_energy": 1.75, 
			 "cosmo_total_nonelectrostatic_energy": 9.85, 
			 "SMD_solvation_energy": 5.72 
		},
		"coords": [
			{
				"x": 0.0487687393,
				"y": 2.410972617,
				"z": 0.5235542319,
				"element": "C" 
			},
			{
				"x": 0.7596639568,
				"y": 1.5584155654,
				"z": 1.4248188721,
				"element": "O" 
			},
			{
				"x": 1.2348911431,
				"y": 0.3923330261,
				"z": 0.8796173129,
				"element": "C" 
			},
			{
				"x": 0.3678977533,
				"y": -0.6810601145,
				"z": 0.5723287545,
				"element": "C" 
			},
			{
				"x": -1.0392297119,
				"y": -0.9026829302,
				"z": 0.7083642342,
				"element": "C" 
			},
			{
				"x": -1.301692393,
				"y": -2.1692324202,
				"z": 0.244024456,
				"element": "C" 
			},
			{
				"x": -0.1136569462,
				"y": -2.7534641928,
				"z": -0.2043091353,
				"element": "N" 
			},
			{
				"x": 0.9194855635,
				"y": -1.8755086814,
				"z": 0.0333669898,
				"element": "C" 
			},
			{
				"x": 2.2964444989,
				"y": -2.0274274086,
				"z": -0.1568308628,
				"element": "C" 
			},
			{
				"x": 2.9737378408,
				"y": -3.6727111554,
				"z": -0.8464172566,
				"element": "Br" 
			},
			{
				"x": 3.1315869522,
				"y": -0.9738174486,
				"z": 0.1745094953,
				"element": "C" 
			},
			{
				"x": 2.5990473135,
				"y": 0.2305749514,
				"z": 0.6796844282,
				"element": "C" 
			},
			{
				"x": -2.6141777811,
				"y": -2.8358689507,
				"z": 0.1402493641,
				"element": "C" 
			},
			{
				"x": -2.6810108474,
				"y": -3.8717298833,
				"z": -0.7495768689,
				"element": "O" 
			},
			{
				"x": -3.5804331005,
				"y": -2.5168356876,
				"z": 0.7895495966,
				"element": "O" 
			},
			{
				"x": -0.2943441279,
				"y": 3.2631836131,
				"z": 1.1126931646,
				"element": "H" 
			},
			{
				"x": 0.7053628336,
				"y": 2.7645989434,
				"z": -0.2815244483,
				"element": "H" 
			},
			{
				"x": -0.8168750285,
				"y": 1.9057375319,
				"z": 0.0794824761,
				"element": "H" 
			},
			{
				"x": -1.7848684894,
				"y": -0.218942737,
				"z": 1.0847643352,
				"element": "H" 
			},
			{
				"x": 0.0401660886,
				"y": -3.7476942427,
				"z": -0.3013614551,
				"element": "H" 
			},
			{
				"x": 4.202249494,
				"y": -1.0735252611,
				"z": 0.0368089226,
				"element": "H" 
			},
			{
				"x": 3.2613878923,
				"y": 1.0518101283,
				"z": 0.9314914677,
				"element": "H" 
			},
			{
				"x": -1.9414016443,
				"y": -3.8232252626,
				"z": -1.3729880747,
				"element": "H" 
			}
		],
		 "valence_orbital": [ 
			{
				"type": "occ",
				"energy": -0.29094,
				"method": "rhf"
			},
			{
				"type": "occ",
				"energy": -0.28357,
				"method": "rhf"
			},
			{
				"type": "occ",
				"energy": -0.28016,
				"method": "rhf"
			},
			{
				"type": "occ",
				"energy": -0.24987,
				"method": "rhf"
			},
			{
				"type": "occ",
				"energy": -0.22479,
				"method": "rhf"
			},
			{
				"type": "unocc",
				"energy": -0.06149,
				"method": "rhf"
			},
			{
				"type": "unocc",
				"energy": -0.00645,
				"method": "rhf"
			},
			{
				"type": "unocc",
				"energy": -0.00414,
				"method": "rhf"
			},
			{
				"type": "unocc",
				"energy": 0.00724,
				"method": "rhf"
			},
			{
				"type": "unocc",
				"energy": 0.0408,
				"method": "rhf"
			}
		],
		"cosmo_sigma_profile": { 
			"-0.025": 0.0,
			"-0.024": 0.0,
			"-0.023": 0.0,
			"-0.022": 0.0,
			"-0.021": 0.0,
			"-0.02": 0.0,
			"-0.019": 1.09864427181,
			"-0.018": 1.34710752023,
			"-0.017": 1.59514062042,
			"-0.016": 1.95572124389,
			"-0.015": 1.13615251307,
			"-0.014": 1.68396667912,
			"-0.013": 1.80435000378,
			"-0.012": 1.71266557678,
			"-0.011": 1.51992830608,
			"-0.01": 1.12157232094,
			"-0.009": 1.74763424454,
			"-0.008": 2.50631021903,
			"-0.007": 5.57593024545,
			"-0.006": 8.21258586614,
			"-0.005": 13.5400194971,
			"-0.004": 15.5504041441,
			"-0.003": 19.2087077504,
			"-0.002": 14.1852228107,
			"-0.001": 14.7032412277,
			"0.0": 14.25648903,
			"0.001": 19.319936631,
			"0.002": 24.2701304286,
			"0.003": 21.5608372529,
			"0.004": 15.6127207656,
			"0.005": 5.56875131588,
			"0.006": 3.59678334972,
			"0.007": 4.10988208346,
			"0.008": 3.91589157723,
			"0.009": 4.35457516256,
			"0.01": 6.9631170214,
			"0.011": 7.25007818623,
			"0.012": 5.03542756252,
			"0.013": 0.913582472611,
			"0.014": 0.0,
			"0.015": 0.0,
			"0.016": 0.0,
			"0.017": 0.0,
			"0.018": 0.0,
			"0.019": 0.0,
			"0.02": 0.0,
			"0.021": 0.0,
			"0.022": 0.0,
			"0.023": 0.0,
			"0.024": 0.0,
			"0.025": 0.0
		}
	}
}
