{
	 "smiles": "COC(=O)C(CC1=CNC2=C1C=CC=C2)NC(=O)C1=CC2=C(C=CC=C2)C=C1", 
	 "Tm": 456.15, 
	 "num_atms": 48, 
	 "gaussian": { 
		 "optdone": 1, 
		 "sigma_profile": "yes", 
		 "theory": "DFT", 
		 "functional": "B3LYP", 
		 "basiset": "6-31G**", 
		 "properties": { 
			 "R2extent": 12914.3662, 
			 "electric_dipole_moment_norm": 6.7926195087, 
			 "electric_quadrupole_moment_norm": 13.8407894327, 
			 "total_energy": -1223.71578656, 
			 "HOMO_LUMO_gap": 0.1529, 
			 "cosmo_polarized_energy": -22.45, 
			 "cosmo_cavitation_energy": 52.12, 
			 "cosmo_dispersion_energy": -34.37, 
			 "cosmo_repulsion_energy": 2.57, 
			 "cosmo_total_nonelectrostatic_energy": 20.32, 
			 "SMD_solvation_energy": 9.53 
		},
		"coords": [
			{
				"x": -2.0431261895,
				"y": 1.8679675731,
				"z": -2.7434649175,
				"element": "C" 
			},
			{
				"x": -1.4176262021,
				"y": 0.8471469532,
				"z": -1.9392161756,
				"element": "O" 
			},
			{
				"x": -2.0632604664,
				"y": 0.5217248248,
				"z": -0.8119580747,
				"element": "C" 
			},
			{
				"x": -3.1354572947,
				"y": 0.9819852985,
				"z": -0.4721191463,
				"element": "O" 
			},
			{
				"x": -1.2836783009,
				"y": -0.4890382715,
				"z": 0.031097177,
				"element": "C" 
			},
			{
				"x": -0.5883091994,
				"y": 0.2429034897,
				"z": 1.2152375752,
				"element": "C" 
			},
			{
				"x": 0.4228823156,
				"y": 1.2797406871,
				"z": 0.8166709204,
				"element": "C" 
			},
			{
				"x": 1.7669307463,
				"y": 1.0709306349,
				"z": 0.6239499411,
				"element": "C" 
			},
			{
				"x": 2.3822314415,
				"y": 2.2496599553,
				"z": 0.2493763559,
				"element": "N" 
			},
			{
				"x": 1.4407417805,
				"y": 3.2570204637,
				"z": 0.1978110537,
				"element": "C" 
			},
			{
				"x": 0.1883533622,
				"y": 2.6801328623,
				"z": 0.5478991325,
				"element": "C" 
			},
			{
				"x": -0.9517446161,
				"y": 3.5053620245,
				"z": 0.5784488707,
				"element": "C" 
			},
			{
				"x": -0.8171318391,
				"y": 4.8527463483,
				"z": 0.2646291073,
				"element": "C" 
			},
			{
				"x": 0.4358795696,
				"y": 5.4011804683,
				"z": -0.0800869503,
				"element": "C" 
			},
			{
				"x": 1.5800907159,
				"y": 4.6130128094,
				"z": -0.1177416708,
				"element": "C" 
			},
			{
				"x": -2.2246420458,
				"y": -1.4930949514,
				"z": 0.5247686544,
				"element": "N" 
			},
			{
				"x": -2.3555123528,
				"y": -2.7997282834,
				"z": 0.0935198196,
				"element": "C" 
			},
			{
				"x": -3.4402366055,
				"y": -3.3695422709,
				"z": 0.1397322777,
				"element": "O" 
			},
			{
				"x": -1.1311310426,
				"y": -3.5333123369,
				"z": -0.3760737204,
				"element": "C" 
			},
			{
				"x": 0.108417227,
				"y": -3.3918190811,
				"z": 0.2178799873,
				"element": "C" 
			},
			{
				"x": 1.2183820766,
				"y": -4.1737702851,
				"z": -0.1987349585,
				"element": "C" 
			},
			{
				"x": 1.0414373055,
				"y": -5.1161289011,
				"z": -1.2634922677,
				"element": "C" 
			},
			{
				"x": 2.1554512977,
				"y": -5.8880643603,
				"z": -1.6876266687,
				"element": "C" 
			},
			{
				"x": 3.3856033249,
				"y": -5.7412770989,
				"z": -1.0857602286,
				"element": "C" 
			},
			{
				"x": 3.5589662561,
				"y": -4.8153779529,
				"z": -0.0275335382,
				"element": "C" 
			},
			{
				"x": 2.4988274792,
				"y": -4.0512741915,
				"z": 0.4058809327,
				"element": "C" 
			},
			{
				"x": -0.2487385445,
				"y": -5.2522482734,
				"z": -1.8471967988,
				"element": "C" 
			},
			{
				"x": -1.3078023544,
				"y": -4.4971885188,
				"z": -1.4073087659,
				"element": "C" 
			},
			{
				"x": -1.4360004424,
				"y": 1.9407334848,
				"z": -3.6451409091,
				"element": "H" 
			},
			{
				"x": -3.0695198322,
				"y": 1.585887273,
				"z": -2.9872754389,
				"element": "H" 
			},
			{
				"x": -2.0439594931,
				"y": 2.8176824986,
				"z": -2.2037039951,
				"element": "H" 
			},
			{
				"x": -0.531711443,
				"y": -0.9685426689,
				"z": -0.5946054838,
				"element": "H" 
			},
			{
				"x": -1.3736390864,
				"y": 0.6948014861,
				"z": 1.832408656,
				"element": "H" 
			},
			{
				"x": -0.1176946101,
				"y": -0.5299602783,
				"z": 1.8320786536,
				"element": "H" 
			},
			{
				"x": 2.3431861343,
				"y": 0.1617832493,
				"z": 0.7286227612,
				"element": "H" 
			},
			{
				"x": 3.3661219429,
				"y": 2.3592327591,
				"z": 0.0669406607,
				"element": "H" 
			},
			{
				"x": -1.9243056548,
				"y": 3.0943002967,
				"z": 0.8320450796,
				"element": "H" 
			},
			{
				"x": -1.6904862817,
				"y": 5.4979852056,
				"z": 0.2876687785,
				"element": "H" 
			},
			{
				"x": 0.5085661898,
				"y": 6.4582147752,
				"z": -0.3186746145,
				"element": "H" 
			},
			{
				"x": 2.5458338924,
				"y": 5.0352529909,
				"z": -0.3816018483,
				"element": "H" 
			},
			{
				"x": -3.1246970704,
				"y": -1.1023373786,
				"z": 0.7894199866,
				"element": "H" 
			},
			{
				"x": 0.244164249,
				"y": -2.696354736,
				"z": 1.0412375167,
				"element": "H" 
			},
			{
				"x": 2.0196288231,
				"y": -6.6016681531,
				"z": -2.4961858952,
				"element": "H" 
			},
			{
				"x": 4.2291184367,
				"y": -6.3390381868,
				"z": -1.4187351503,
				"element": "H" 
			},
			{
				"x": 4.5329983501,
				"y": -4.7128950355,
				"z": 0.4419861546,
				"element": "H" 
			},
			{
				"x": 2.6272532029,
				"y": -3.3431490888,
				"z": 1.2210218535,
				"element": "H" 
			},
			{
				"x": -0.3875207855,
				"y": -5.9772706078,
				"z": -2.6450305993,
				"element": "H" 
			},
			{
				"x": -2.2998343664,
				"y": -4.620607501,
				"z": -1.8279640901,
				"element": "H" 
			}
		],
		 "valence_orbital": [ 
			{
				"type": "occ",
				"energy": -0.25073,
				"method": "rhf"
			},
			{
				"type": "occ",
				"energy": -0.23828,
				"method": "rhf"
			},
			{
				"type": "occ",
				"energy": -0.22435,
				"method": "rhf"
			},
			{
				"type": "occ",
				"energy": -0.22308,
				"method": "rhf"
			},
			{
				"type": "occ",
				"energy": -0.20461,
				"method": "rhf"
			},
			{
				"type": "unocc",
				"energy": -0.05171,
				"method": "rhf"
			},
			{
				"type": "unocc",
				"energy": -0.02526,
				"method": "rhf"
			},
			{
				"type": "unocc",
				"energy": -0.01328,
				"method": "rhf"
			},
			{
				"type": "unocc",
				"energy": 0.00151,
				"method": "rhf"
			},
			{
				"type": "unocc",
				"energy": 0.01925,
				"method": "rhf"
			}
		],
		"cosmo_sigma_profile": { 
			"-0.025": 0.0,
			"-0.024": 0.0,
			"-0.023": 0.0,
			"-0.022": 0.0,
			"-0.021": 0.0,
			"-0.02": 0.0,
			"-0.019": 0.0,
			"-0.018": 0.0,
			"-0.017": 0.0,
			"-0.016": 0.362382227033,
			"-0.015": 1.45288150188,
			"-0.014": 1.47304718268,
			"-0.013": 1.14838612644,
			"-0.012": 1.28759527115,
			"-0.011": 2.00840554302,
			"-0.01": 1.42095548101,
			"-0.009": 1.68662269423,
			"-0.008": 3.48250554793,
			"-0.007": 9.49807077206,
			"-0.006": 25.7444534892,
			"-0.005": 30.9669363308,
			"-0.004": 36.6875666929,
			"-0.003": 35.5723963179,
			"-0.002": 28.6121843626,
			"-0.001": 23.1515512848,
			"0.0": 24.2660079869,
			"0.001": 22.1112656372,
			"0.002": 24.2326191103,
			"0.003": 35.5430482984,
			"0.004": 31.6865441645,
			"0.005": 22.3829356233,
			"0.006": 14.1243019487,
			"0.007": 10.3536825291,
			"0.008": 3.93370440297,
			"0.009": 3.47947676823,
			"0.01": 2.89862731582,
			"0.011": 4.66262109788,
			"0.012": 3.8693695348,
			"0.013": 5.22542161241,
			"0.014": 2.52820947,
			"0.015": 0.00332437283037,
			"0.016": 0.0,
			"0.017": 0.0,
			"0.018": 0.0,
			"0.019": 0.0,
			"0.02": 0.0,
			"0.021": 0.0,
			"0.022": 0.0,
			"0.023": 0.0,
			"0.024": 0.0,
			"0.025": 0.0
		}
	}
}
