{
	 "smiles": "O=C(CC#N)NC1CCCC1", 
	 "Tm": 366.15, 
	 "num_atms": 23, 
	 "gaussian": { 
		 "optdone": 1, 
		 "sigma_profile": "yes", 
		 "theory": "DFT", 
		 "functional": "B3LYP", 
		 "basiset": "6-31G**", 
		 "properties": { 
			 "R2extent": 2274.8953, 
			 "electric_dipole_moment_norm": 5.94806244839, 
			 "electric_quadrupole_moment_norm": 15.4989752552, 
			 "total_energy": -496.800994565, 
			 "HOMO_LUMO_gap": 0.25753, 
			 "cosmo_polarized_energy": -16.07, 
			 "cosmo_cavitation_energy": 25.58, 
			 "cosmo_dispersion_energy": -18.11, 
			 "cosmo_repulsion_energy": 1.48, 
			 "cosmo_total_nonelectrostatic_energy": 8.96, 
			 "SMD_solvation_energy": 5.36 
		},
		"coords": [
			{
				"x": 1.3519536854,
				"y": -2.4725479619,
				"z": 2.2903185947,
				"element": "O" 
			},
			{
				"x": 0.8924962505,
				"y": -1.4741909871,
				"z": 1.7576810322,
				"element": "C" 
			},
			{
				"x": 0.1336503149,
				"y": -1.6133306976,
				"z": 0.4171894977,
				"element": "C" 
			},
			{
				"x": -1.2425371679,
				"y": -2.0644866671,
				"z": 0.6279291663,
				"element": "C" 
			},
			{
				"x": -2.3413127684,
				"y": -2.3991648469,
				"z": 0.795206587,
				"element": "N" 
			},
			{
				"x": 1.0130160825,
				"y": -0.2351494121,
				"z": 2.3183050184,
				"element": "N" 
			},
			{
				"x": 0.6412794297,
				"y": 1.1068119679,
				"z": 1.8553531572,
				"element": "C" 
			},
			{
				"x": 1.4376049802,
				"y": 1.6448619061,
				"z": 0.6376631094,
				"element": "C" 
			},
			{
				"x": 0.5252391164,
				"y": 2.7382568512,
				"z": 0.0641605648,
				"element": "C" 
			},
			{
				"x": -0.8826704951,
				"y": 2.1205030836,
				"z": 0.1759758218,
				"element": "C" 
			},
			{
				"x": -0.8687397646,
				"y": 1.3426626781,
				"z": 1.5138470379,
				"element": "C" 
			},
			{
				"x": 0.6700058231,
				"y": -2.3752159471,
				"z": -0.1557572217,
				"element": "H" 
			},
			{
				"x": 0.1125554049,
				"y": -0.6928460161,
				"z": -0.1702798808,
				"element": "H" 
			},
			{
				"x": 1.52464916,
				"y": -0.2868434652,
				"z": 3.1898273596,
				"element": "H" 
			},
			{
				"x": 0.8872345626,
				"y": 1.7473160557,
				"z": 2.7072929986,
				"element": "H" 
			},
			{
				"x": 1.5863424622,
				"y": 0.8514482783,
				"z": -0.104331021,
				"element": "H" 
			},
			{
				"x": 2.4317393095,
				"y": 2.0006536675,
				"z": 0.9246910275,
				"element": "H" 
			},
			{
				"x": 0.5906234609,
				"y": 3.6426852677,
				"z": 0.6825643198,
				"element": "H" 
			},
			{
				"x": 0.7900603914,
				"y": 3.0250410797,
				"z": -0.9579395156,
				"element": "H" 
			},
			{
				"x": -1.6815909516,
				"y": 2.8659568081,
				"z": 0.1313945804,
				"element": "H" 
			},
			{
				"x": -1.0479863756,
				"y": 1.4324817347,
				"z": -0.6627559477,
				"element": "H" 
			},
			{
				"x": -1.3319278357,
				"y": 1.9309925497,
				"z": 2.3117340018,
				"element": "H" 
			},
			{
				"x": -1.4321850754,
				"y": 0.4090040729,
				"z": 1.4612297115,
				"element": "H" 
			}
		],
		 "valence_orbital": [ 
			{
				"type": "occ",
				"energy": -0.34005,
				"method": "rhf"
			},
			{
				"type": "occ",
				"energy": -0.33431,
				"method": "rhf"
			},
			{
				"type": "occ",
				"energy": -0.32606,
				"method": "rhf"
			},
			{
				"type": "occ",
				"energy": -0.26346,
				"method": "rhf"
			},
			{
				"type": "occ",
				"energy": -0.25975,
				"method": "rhf"
			},
			{
				"type": "unocc",
				"energy": -0.00222,
				"method": "rhf"
			},
			{
				"type": "unocc",
				"energy": 0.03143,
				"method": "rhf"
			},
			{
				"type": "unocc",
				"energy": 0.04299,
				"method": "rhf"
			},
			{
				"type": "unocc",
				"energy": 0.04847,
				"method": "rhf"
			},
			{
				"type": "unocc",
				"energy": 0.06522,
				"method": "rhf"
			}
		],
		"cosmo_sigma_profile": { 
			"-0.025": 0.0,
			"-0.024": 0.0,
			"-0.023": 0.0,
			"-0.022": 0.0,
			"-0.021": 0.0,
			"-0.02": 0.0,
			"-0.019": 0.0,
			"-0.018": 0.0,
			"-0.017": 0.0,
			"-0.016": 0.0,
			"-0.015": 0.0,
			"-0.014": 0.79112021603,
			"-0.013": 1.14983524642,
			"-0.012": 1.14498022926,
			"-0.011": 1.08471751903,
			"-0.01": 2.26729036923,
			"-0.009": 4.12902253725,
			"-0.008": 6.59773888133,
			"-0.007": 7.02255057145,
			"-0.006": 8.00580349195,
			"-0.005": 7.91358147971,
			"-0.004": 10.2706631461,
			"-0.003": 19.345648559,
			"-0.002": 19.4384506731,
			"-0.001": 21.378198693,
			"0.0": 21.4637050453,
			"0.001": 14.6373500164,
			"0.002": 5.21242497364,
			"0.003": 3.58469932467,
			"0.004": 3.70155565622,
			"0.005": 3.26002545811,
			"0.006": 3.79099711253,
			"0.007": 3.72958028511,
			"0.008": 4.04147140799,
			"0.009": 4.85271852906,
			"0.01": 3.88057362784,
			"0.011": 4.49817897957,
			"0.012": 5.22886007602,
			"0.013": 6.90973211787,
			"0.014": 1.8699279987,
			"0.015": 0.0,
			"0.016": 0.0,
			"0.017": 0.0,
			"0.018": 0.0,
			"0.019": 0.0,
			"0.02": 0.0,
			"0.021": 0.0,
			"0.022": 0.0,
			"0.023": 0.0,
			"0.024": 0.0,
			"0.025": 0.0
		}
	}
}
