{
	 "smiles": "OC(=O)C1CC2=CC=CC=C12", 
	 "Tm": 347.15, 
	 "num_atms": 19, 
	 "gaussian": { 
		 "optdone": 1, 
		 "sigma_profile": "yes", 
		 "theory": "DFT", 
		 "functional": "B3LYP", 
		 "basiset": "6-31G**", 
		 "properties": { 
			 "R2extent": 2005.8189, 
			 "electric_dipole_moment_norm": 1.3763444845, 
			 "electric_quadrupole_moment_norm": 9.86627581106, 
			 "total_energy": -498.203913392, 
			 "HOMO_LUMO_gap": 0.22698, 
			 "cosmo_polarized_energy": -9.14, 
			 "cosmo_cavitation_energy": 23.28, 
			 "cosmo_dispersion_energy": -17.04, 
			 "cosmo_repulsion_energy": 1.39, 
			 "cosmo_total_nonelectrostatic_energy": 7.63, 
			 "SMD_solvation_energy": 4.8 
		},
		"coords": [
			{
				"x": 0.3473464747,
				"y": -2.4316270751,
				"z": 0.0173041345,
				"element": "O" 
			},
			{
				"x": 1.0191961004,
				"y": -1.2705417305,
				"z": -0.1838362689,
				"element": "C" 
			},
			{
				"x": 2.1340257576,
				"y": -1.2351434306,
				"z": -0.655325945,
				"element": "O" 
			},
			{
				"x": 0.1801284872,
				"y": -0.082749879,
				"z": 0.2303035643,
				"element": "C" 
			},
			{
				"x": 0.8130872481,
				"y": 1.3346007101,
				"z": -0.0325321182,
				"element": "C" 
			},
			{
				"x": -0.3610118415,
				"y": 1.5862693729,
				"z": -0.9702103473,
				"element": "C" 
			},
			{
				"x": -0.9512453057,
				"y": 2.5134577436,
				"z": -1.8171170322,
				"element": "C" 
			},
			{
				"x": -2.1311078902,
				"y": 2.0977381215,
				"z": -2.456457394,
				"element": "C" 
			},
			{
				"x": -2.6782841666,
				"y": 0.8232040817,
				"z": -2.2473083458,
				"element": "C" 
			},
			{
				"x": -2.0761454151,
				"y": -0.1057435645,
				"z": -1.3828579953,
				"element": "C" 
			},
			{
				"x": -0.9151094672,
				"y": 0.3249130631,
				"z": -0.7604643962,
				"element": "C" 
			},
			{
				"x": 0.932233106,
				"y": -3.1404759931,
				"z": -0.2998802485,
				"element": "H" 
			},
			{
				"x": -0.1807719304,
				"y": -0.2449315903,
				"z": 1.2523955457,
				"element": "H" 
			},
			{
				"x": 1.7974449103,
				"y": 1.2807217365,
				"z": -0.5045132578,
				"element": "H" 
			},
			{
				"x": 0.8706180667,
				"y": 1.9753357822,
				"z": 0.8532255816,
				"element": "H" 
			},
			{
				"x": -0.5407112589,
				"y": 3.5038898334,
				"z": -1.992614003,
				"element": "H" 
			},
			{
				"x": -2.6364890967,
				"y": 2.7796200937,
				"z": -3.1350233168,
				"element": "H" 
			},
			{
				"x": -3.591757014,
				"y": 0.551304287,
				"z": -2.7690262749,
				"element": "H" 
			},
			{
				"x": -2.5034467643,
				"y": -1.0915415628,
				"z": -1.2251618822,
				"element": "H" 
			}
		],
		 "valence_orbital": [ 
			{
				"type": "occ",
				"energy": -0.3206,
				"method": "rhf"
			},
			{
				"type": "occ",
				"energy": -0.3186,
				"method": "rhf"
			},
			{
				"type": "occ",
				"energy": -0.28148,
				"method": "rhf"
			},
			{
				"type": "occ",
				"energy": -0.25084,
				"method": "rhf"
			},
			{
				"type": "occ",
				"energy": -0.23804,
				"method": "rhf"
			},
			{
				"type": "unocc",
				"energy": -0.01106,
				"method": "rhf"
			},
			{
				"type": "unocc",
				"energy": -0.00128,
				"method": "rhf"
			},
			{
				"type": "unocc",
				"energy": 0.01539,
				"method": "rhf"
			},
			{
				"type": "unocc",
				"energy": 0.07643,
				"method": "rhf"
			},
			{
				"type": "unocc",
				"energy": 0.09818,
				"method": "rhf"
			}
		],
		"cosmo_sigma_profile": { 
			"-0.025": 0.0,
			"-0.024": 0.0,
			"-0.023": 0.0,
			"-0.022": 0.0,
			"-0.021": 0.0,
			"-0.02": 0.0,
			"-0.019": 0.014702563927,
			"-0.018": 0.704455008762,
			"-0.017": 1.04986541784,
			"-0.016": 0.625411334208,
			"-0.015": 0.762538766053,
			"-0.014": 0.890672662475,
			"-0.013": 0.678292605541,
			"-0.012": 0.9201494667,
			"-0.011": 0.571981745436,
			"-0.01": 0.620869568708,
			"-0.009": 0.535104131997,
			"-0.008": 0.882954134915,
			"-0.007": 1.94077636319,
			"-0.006": 8.08117979382,
			"-0.005": 12.586996749,
			"-0.004": 15.3910824647,
			"-0.003": 15.2940927282,
			"-0.002": 13.7579624855,
			"-0.001": 16.4854987994,
			"0.0": 13.5699860793,
			"0.001": 10.5911007631,
			"0.002": 11.0566304195,
			"0.003": 10.3839963955,
			"0.004": 11.4468925896,
			"0.005": 10.6640205193,
			"0.006": 7.92306367765,
			"0.007": 2.63385929528,
			"0.008": 2.75203223778,
			"0.009": 3.00665636234,
			"0.01": 2.59788203426,
			"0.011": 4.20382026519,
			"0.012": 2.98495084779,
			"0.013": 0.0,
			"0.014": 0.0,
			"0.015": 0.0,
			"0.016": 0.0,
			"0.017": 0.0,
			"0.018": 0.0,
			"0.019": 0.0,
			"0.02": 0.0,
			"0.021": 0.0,
			"0.022": 0.0,
			"0.023": 0.0,
			"0.024": 0.0,
			"0.025": 0.0
		}
	}
}
