{
	 "smiles": "C1CCC2OCCOCCOC3CCCCC3OCCOCCOC2C1", 
	 "Tm": 341.15, 
	 "num_atms": 62, 
	 "gaussian": { 
		 "optdone": 1, 
		 "sigma_profile": "yes", 
		 "theory": "DFT", 
		 "functional": "B3LYP", 
		 "basiset": "6-31G**", 
		 "properties": { 
			 "R2extent": 11921.4015, 
			 "electric_dipole_moment_norm": 3.50585985173, 
			 "electric_quadrupole_moment_norm": 12.5926147432, 
			 "total_energy": -1235.09961637, 
			 "HOMO_LUMO_gap": 0.30031, 
			 "cosmo_polarized_energy": -13.5, 
			 "cosmo_cavitation_energy": 56.86, 
			 "cosmo_dispersion_energy": -36.96, 
			 "cosmo_repulsion_energy": 2.84, 
			 "cosmo_total_nonelectrostatic_energy": 22.73, 
			 "SMD_solvation_energy": 7.21 
		},
		"coords": [
			{
				"x": -0.9318625575,
				"y": -5.1645326539,
				"z": 0.0512301495,
				"element": "C" 
			},
			{
				"x": 0.4866411537,
				"y": -4.6898087368,
				"z": -0.3428922517,
				"element": "C" 
			},
			{
				"x": 0.465535273,
				"y": -3.3108734399,
				"z": -1.0443441401,
				"element": "C" 
			},
			{
				"x": -0.6759551602,
				"y": -2.4312605047,
				"z": -0.540432504,
				"element": "C" 
			},
			{
				"x": -0.5129590075,
				"y": -2.2813155291,
				"z": 0.8764707176,
				"element": "O" 
			},
			{
				"x": -1.0030560816,
				"y": -1.0564000483,
				"z": 1.3910556287,
				"element": "C" 
			},
			{
				"x": -0.7997321206,
				"y": -1.0944141582,
				"z": 2.9055405674,
				"element": "C" 
			},
			{
				"x": -1.2336314399,
				"y": 0.0888718817,
				"z": 3.5560031328,
				"element": "O" 
			},
			{
				"x": -0.3732133883,
				"y": 1.2119915134,
				"z": 3.4143278666,
				"element": "C" 
			},
			{
				"x": -0.9660309732,
				"y": 2.2564437166,
				"z": 2.4603274052,
				"element": "C" 
			},
			{
				"x": -0.0735884849,
				"y": 3.3585840738,
				"z": 2.310440615,
				"element": "O" 
			},
			{
				"x": 0.9233377289,
				"y": 3.202955254,
				"z": 1.3020466284,
				"element": "C" 
			},
			{
				"x": 2.1307145586,
				"y": 4.0501929711,
				"z": 1.7048204179,
				"element": "C" 
			},
			{
				"x": 3.3167818631,
				"y": 3.8466115992,
				"z": 0.7353903375,
				"element": "C" 
			},
			{
				"x": 2.8457408226,
				"y": 3.5975474779,
				"z": -0.7186231342,
				"element": "C" 
			},
			{
				"x": 1.4834106924,
				"y": 4.2536363061,
				"z": -0.9707594955,
				"element": "C" 
			},
			{
				"x": 0.3879121399,
				"y": 3.6147528352,
				"z": -0.0883658895,
				"element": "C" 
			},
			{
				"x": -0.149299426,
				"y": 2.4341193503,
				"z": -0.7133045163,
				"element": "O" 
			},
			{
				"x": -1.1713768122,
				"y": 2.7163675785,
				"z": -1.6542159934,
				"element": "C" 
			},
			{
				"x": -1.4036543277,
				"y": 1.5503657828,
				"z": -2.5977439216,
				"element": "C" 
			},
			{
				"x": -2.0503356002,
				"y": 0.4655766282,
				"z": -1.9486485047,
				"element": "O" 
			},
			{
				"x": -2.8310962591,
				"y": -0.3077932152,
				"z": -2.8503165523,
				"element": "C" 
			},
			{
				"x": -3.4317835375,
				"y": -1.5207919912,
				"z": -2.1537622353,
				"element": "C" 
			},
			{
				"x": -2.5557729914,
				"y": -2.6341278324,
				"z": -2.1222126103,
				"element": "O" 
			},
			{
				"x": -2.0568937212,
				"y": -3.0726055386,
				"z": -0.8548620465,
				"element": "C" 
			},
			{
				"x": -1.985954452,
				"y": -4.6087568493,
				"z": -0.9148760587,
				"element": "C" 
			},
			{
				"x": -0.9768032795,
				"y": -6.2589437722,
				"z": 0.0716897985,
				"element": "H" 
			},
			{
				"x": -1.160482855,
				"y": -4.8178528838,
				"z": 1.0648795962,
				"element": "H" 
			},
			{
				"x": 0.9547503403,
				"y": -5.4206639852,
				"z": -1.0132241133,
				"element": "H" 
			},
			{
				"x": 1.1140912071,
				"y": -4.6394530538,
				"z": 0.5520216943,
				"element": "H" 
			},
			{
				"x": 1.4208499028,
				"y": -2.7937029382,
				"z": -0.9075362447,
				"element": "H" 
			},
			{
				"x": 0.323515497,
				"y": -3.4349860882,
				"z": -2.1249550318,
				"element": "H" 
			},
			{
				"x": -0.6455041425,
				"y": -1.4451836079,
				"z": -1.0213064495,
				"element": "H" 
			},
			{
				"x": -2.0722524718,
				"y": -0.9109074997,
				"z": 1.1704662958,
				"element": "H" 
			},
			{
				"x": -0.4632582666,
				"y": -0.2129082507,
				"z": 0.9356452154,
				"element": "H" 
			},
			{
				"x": 0.2597489028,
				"y": -1.3003611788,
				"z": 3.121437434,
				"element": "H" 
			},
			{
				"x": -1.3893895474,
				"y": -1.9144173995,
				"z": 3.3274206376,
				"element": "H" 
			},
			{
				"x": -0.2411730795,
				"y": 1.6674232184,
				"z": 4.4033097284,
				"element": "H" 
			},
			{
				"x": 0.6208216692,
				"y": 0.9007640036,
				"z": 3.062203562,
				"element": "H" 
			},
			{
				"x": -1.8922827211,
				"y": 2.6542690926,
				"z": 2.8875454193,
				"element": "H" 
			},
			{
				"x": -1.2072098746,
				"y": 1.8072878405,
				"z": 1.4912159428,
				"element": "H" 
			},
			{
				"x": 1.2329929096,
				"y": 2.1493189764,
				"z": 1.2305571755,
				"element": "H" 
			},
			{
				"x": 1.8212950917,
				"y": 5.1024981577,
				"z": 1.7244582945,
				"element": "H" 
			},
			{
				"x": 2.4130899465,
				"y": 3.7954862999,
				"z": 2.7305412627,
				"element": "H" 
			},
			{
				"x": 3.9300508471,
				"y": 3.0018838961,
				"z": 1.0698577199,
				"element": "H" 
			},
			{
				"x": 3.9645330638,
				"y": 4.7296155037,
				"z": 0.7755756621,
				"element": "H" 
			},
			{
				"x": 3.5918504585,
				"y": 3.9660605159,
				"z": -1.430677187,
				"element": "H" 
			},
			{
				"x": 2.7462288284,
				"y": 2.5213994465,
				"z": -0.9049029601,
				"element": "H" 
			},
			{
				"x": 1.1960810603,
				"y": 4.1661985237,
				"z": -2.0243526784,
				"element": "H" 
			},
			{
				"x": 1.5416753878,
				"y": 5.3283858589,
				"z": -0.7558578212,
				"element": "H" 
			},
			{
				"x": -0.4242983957,
				"y": 4.3355163906,
				"z": 0.0837067265,
				"element": "H" 
			},
			{
				"x": -0.896282278,
				"y": 3.5818364412,
				"z": -2.2770488838,
				"element": "H" 
			},
			{
				"x": -2.112765163,
				"y": 2.9635576804,
				"z": -1.1385756656,
				"element": "H" 
			},
			{
				"x": -2.0360105983,
				"y": 1.9253163353,
				"z": -3.4186384691,
				"element": "H" 
			},
			{
				"x": -0.4465952966,
				"y": 1.2266630564,
				"z": -3.0346831575,
				"element": "H" 
			},
			{
				"x": -3.6483955524,
				"y": 0.3154932601,
				"z": -3.2530895667,
				"element": "H" 
			},
			{
				"x": -2.2272018905,
				"y": -0.6572221814,
				"z": -3.7018669227,
				"element": "H" 
			},
			{
				"x": -4.3237055365,
				"y": -1.8220953339,
				"z": -2.7215645563,
				"element": "H" 
			},
			{
				"x": -3.76027362,
				"y": -1.2321088475,
				"z": -1.1459877775,
				"element": "H" 
			},
			{
				"x": -2.7504429677,
				"y": -2.7648612476,
				"z": -0.0590967415,
				"element": "H" 
			},
			{
				"x": -1.7317554512,
				"y": -4.8870273255,
				"z": -1.9451748416,
				"element": "H" 
			},
			{
				"x": -2.9767700158,
				"y": -5.0311153753,
				"z": -0.7150867099,
				"element": "H" 
			}
		],
		 "valence_orbital": [ 
			{
				"type": "occ",
				"energy": -0.26651,
				"method": "rhf"
			},
			{
				"type": "occ",
				"energy": -0.25964,
				"method": "rhf"
			},
			{
				"type": "occ",
				"energy": -0.25205,
				"method": "rhf"
			},
			{
				"type": "occ",
				"energy": -0.23051,
				"method": "rhf"
			},
			{
				"type": "occ",
				"energy": -0.22698,
				"method": "rhf"
			},
			{
				"type": "unocc",
				"energy": 0.07333,
				"method": "rhf"
			},
			{
				"type": "unocc",
				"energy": 0.07761,
				"method": "rhf"
			},
			{
				"type": "unocc",
				"energy": 0.0814,
				"method": "rhf"
			},
			{
				"type": "unocc",
				"energy": 0.08485,
				"method": "rhf"
			},
			{
				"type": "unocc",
				"energy": 0.09004,
				"method": "rhf"
			}
		],
		"cosmo_sigma_profile": { 
			"-0.025": 0.0,
			"-0.024": 0.0,
			"-0.023": 0.0,
			"-0.022": 0.0,
			"-0.021": 0.0,
			"-0.02": 0.0,
			"-0.019": 0.0,
			"-0.018": 0.0,
			"-0.017": 0.0,
			"-0.016": 0.0,
			"-0.015": 0.0,
			"-0.014": 0.0,
			"-0.013": 0.0,
			"-0.012": 0.0,
			"-0.011": 0.0,
			"-0.01": 0.0,
			"-0.009": 0.0,
			"-0.008": 0.0,
			"-0.007": 0.0,
			"-0.006": 0.900966897477,
			"-0.005": 17.8181553431,
			"-0.004": 40.2360486019,
			"-0.003": 59.6081921583,
			"-0.002": 64.6990043574,
			"-0.001": 63.5937536884,
			"0.0": 49.5081960709,
			"0.001": 39.6464834564,
			"0.002": 18.8916377094,
			"0.003": 11.8565371341,
			"0.004": 11.8657863027,
			"0.005": 9.39155839407,
			"0.006": 10.2123828168,
			"0.007": 8.14811315058,
			"0.008": 8.74768117659,
			"0.009": 5.5914941181,
			"0.01": 5.14015079305,
			"0.011": 3.93033796105,
			"0.012": 3.20905479196,
			"0.013": 3.17159375343,
			"0.014": 0.548240006279,
			"0.015": 0.0,
			"0.016": 0.0,
			"0.017": 0.0,
			"0.018": 0.0,
			"0.019": 0.0,
			"0.02": 0.0,
			"0.021": 0.0,
			"0.022": 0.0,
			"0.023": 0.0,
			"0.024": 0.0,
			"0.025": 0.0
		}
	}
}
