{
	 "smiles": "O=C1C=CC(=O)N1C1=CC(=CC=C1)N1C(=O)C=CC1=O", 
	 "Tm": 474.15, 
	 "num_atms": 28, 
	 "gaussian": { 
		 "optdone": 1, 
		 "sigma_profile": "yes", 
		 "theory": "DFT", 
		 "functional": "B3LYP", 
		 "basiset": "6-31G**", 
		 "properties": { 
			 "R2extent": 6633.17, 
			 "electric_dipole_moment_norm": 1.49292762718, 
			 "electric_quadrupole_moment_norm": 26.8239542258, 
			 "total_energy": -948.702655229, 
			 "HOMO_LUMO_gap": 0.13567, 
			 "cosmo_polarized_energy": -17.57, 
			 "cosmo_cavitation_energy": 34.71, 
			 "cosmo_dispersion_energy": -24.5, 
			 "cosmo_repulsion_energy": 1.84, 
			 "cosmo_total_nonelectrostatic_energy": 12.05, 
			 "SMD_solvation_energy": 9.08 
		},
		"coords": [
			{
				"x": -2.1782266472,
				"y": 1.9650540931,
				"z": 2.4488704251,
				"element": "O" 
			},
			{
				"x": -2.7111208956,
				"y": 1.1033875763,
				"z": 1.7837055823,
				"element": "C" 
			},
			{
				"x": -4.1191490793,
				"y": 0.6028582046,
				"z": 1.9052183004,
				"element": "C" 
			},
			{
				"x": -4.3184909195,
				"y": -0.3559437473,
				"z": 0.9983178276,
				"element": "C" 
			},
			{
				"x": -3.0576341886,
				"y": -0.5515288394,
				"z": 0.2112141936,
				"element": "C" 
			},
			{
				"x": -2.8708950424,
				"y": -1.3356772963,
				"z": -0.6937799079,
				"element": "O" 
			},
			{
				"x": -2.1187193819,
				"y": 0.3648743929,
				"z": 0.7353748277,
				"element": "N" 
			},
			{
				"x": -0.7779051464,
				"y": 0.5243416412,
				"z": 0.2747119888,
				"element": "C" 
			},
			{
				"x": -0.5089156812,
				"y": 0.4371700437,
				"z": -1.0939506615,
				"element": "C" 
			},
			{
				"x": 0.8048851203,
				"y": 0.5950039245,
				"z": -1.5436014898,
				"element": "C" 
			},
			{
				"x": 1.8432350289,
				"y": 0.8453707107,
				"z": -0.6399749623,
				"element": "C" 
			},
			{
				"x": 1.5542413107,
				"y": 0.9209735857,
				"z": 0.7207673555,
				"element": "C" 
			},
			{
				"x": 0.2529030753,
				"y": 0.7591740613,
				"z": 1.1910593872,
				"element": "C" 
			},
			{
				"x": 1.0814897573,
				"y": 0.5047978814,
				"z": -2.9403055235,
				"element": "N" 
			},
			{
				"x": 0.2545028537,
				"y": 1.0074393469,
				"z": -3.9696484631,
				"element": "C" 
			},
			{
				"x": -0.7993775472,
				"y": 1.588777035,
				"z": -3.8276923705,
				"element": "O" 
			},
			{
				"x": 0.9435023605,
				"y": 0.6772879305,
				"z": -5.2595466609,
				"element": "C" 
			},
			{
				"x": 2.0801318934,
				"y": 0.0311819124,
				"z": -4.990977699,
				"element": "C" 
			},
			{
				"x": 2.2234613447,
				"y": -0.1055361531,
				"z": -3.5048397432,
				"element": "C" 
			},
			{
				"x": 3.1339168076,
				"y": -0.6292210944,
				"z": -2.9001016593,
				"element": "O" 
			},
			{
				"x": -4.8003090954,
				"y": 1.0102804086,
				"z": 2.6404731389,
				"element": "H" 
			},
			{
				"x": -5.2049141489,
				"y": -0.9427617326,
				"z": 0.7971582579,
				"element": "H" 
			},
			{
				"x": -1.306977118,
				"y": 0.2499282339,
				"z": -1.795894095,
				"element": "H" 
			},
			{
				"x": 2.8582928022,
				"y": 0.9617111083,
				"z": -0.9961930292,
				"element": "H" 
			},
			{
				"x": 2.3569438043,
				"y": 1.1091896225,
				"z": 1.4268199835,
				"element": "H" 
			},
			{
				"x": 0.0351763069,
				"y": 0.8297513335,
				"z": 2.2485904321,
				"element": "H" 
			},
			{
				"x": 0.5165862317,
				"y": 0.9562842423,
				"z": -6.2137302829,
				"element": "H" 
			},
			{
				"x": 2.8278661939,
				"y": -0.3610684264,
				"z": -5.6674451528,
				"element": "H" 
			}
		],
		 "valence_orbital": [ 
			{
				"type": "occ",
				"energy": -0.29605,
				"method": "rhf"
			},
			{
				"type": "occ",
				"energy": -0.27653,
				"method": "rhf"
			},
			{
				"type": "occ",
				"energy": -0.27503,
				"method": "rhf"
			},
			{
				"type": "occ",
				"energy": -0.24773,
				"method": "rhf"
			},
			{
				"type": "occ",
				"energy": -0.23749,
				"method": "rhf"
			},
			{
				"type": "unocc",
				"energy": -0.10182,
				"method": "rhf"
			},
			{
				"type": "unocc",
				"energy": -0.10162,
				"method": "rhf"
			},
			{
				"type": "unocc",
				"energy": -0.02006,
				"method": "rhf"
			},
			{
				"type": "unocc",
				"energy": -0.01315,
				"method": "rhf"
			},
			{
				"type": "unocc",
				"energy": 0.05093,
				"method": "rhf"
			}
		],
		"cosmo_sigma_profile": { 
			"-0.025": 0.0,
			"-0.024": 0.0,
			"-0.023": 0.0,
			"-0.022": 0.0,
			"-0.021": 0.0,
			"-0.02": 0.0,
			"-0.019": 0.0,
			"-0.018": 0.0,
			"-0.017": 0.0,
			"-0.016": 0.0,
			"-0.015": 0.0,
			"-0.014": 0.0,
			"-0.013": 0.0,
			"-0.012": 0.0,
			"-0.011": 0.0499235703475,
			"-0.01": 5.58602388112,
			"-0.009": 6.88204076479,
			"-0.008": 6.69202483381,
			"-0.007": 9.24913045815,
			"-0.006": 18.4906130888,
			"-0.005": 24.0480957877,
			"-0.004": 23.2246123752,
			"-0.003": 23.2292942732,
			"-0.002": 17.8720048571,
			"-0.001": 16.6665025973,
			"0.0": 14.479378803,
			"0.001": 10.9872239434,
			"0.002": 10.6741099935,
			"0.003": 15.7369084915,
			"0.004": 14.7090174515,
			"0.005": 4.83887569564,
			"0.006": 6.76554181792,
			"0.007": 7.24016410841,
			"0.008": 8.00247703435,
			"0.009": 9.58966032331,
			"0.01": 16.1893955217,
			"0.011": 9.68095311568,
			"0.012": 0.819634603512,
			"0.013": 0.0,
			"0.014": 0.0,
			"0.015": 0.0,
			"0.016": 0.0,
			"0.017": 0.0,
			"0.018": 0.0,
			"0.019": 0.0,
			"0.02": 0.0,
			"0.021": 0.0,
			"0.022": 0.0,
			"0.023": 0.0,
			"0.024": 0.0,
			"0.025": 0.0
		}
	}
}
