{
	 "smiles": "OC(=O)C1=NN(C2=C1CCC2)C1=C(Cl)C=CC(=C1)C(F)(F)F", 
	 "Tm": 503.15, 
	 "num_atms": 32, 
	 "gaussian": { 
		 "optdone": 1, 
		 "sigma_profile": "yes", 
		 "theory": "DFT", 
		 "functional": "B3LYP", 
		 "basiset": "6-31G**", 
		 "properties": { 
			 "R2extent": 8307.0633, 
			 "electric_dipole_moment_norm": 3.90068263257, 
			 "electric_quadrupole_moment_norm": 19.5563594774, 
			 "total_energy": -1559.16997016, 
			 "HOMO_LUMO_gap": 0.1878, 
			 "cosmo_polarized_energy": -17.5, 
			 "cosmo_cavitation_energy": 40.39, 
			 "cosmo_dispersion_energy": -27.54, 
			 "cosmo_repulsion_energy": 2.08, 
			 "cosmo_total_nonelectrostatic_energy": 14.93, 
			 "SMD_solvation_energy": 7.71 
		},
		"coords": [
			{
				"x": -0.7383629375,
				"y": 1.4628965554,
				"z": -4.808457924,
				"element": "O" 
			},
			{
				"x": 0.175888579,
				"y": 1.7246333231,
				"z": -3.8327583469,
				"element": "C" 
			},
			{
				"x": 1.2075311808,
				"y": 2.3207071032,
				"z": -4.0472232962,
				"element": "O" 
			},
			{
				"x": -0.2793656724,
				"y": 1.1839437473,
				"z": -2.5357770178,
				"element": "C" 
			},
			{
				"x": 0.4895626104,
				"y": 1.3405832828,
				"z": -1.448628399,
				"element": "N" 
			},
			{
				"x": -0.1949426745,
				"y": 0.7412041155,
				"z": -0.4430122945,
				"element": "N" 
			},
			{
				"x": -1.3792776527,
				"y": 0.2135006481,
				"z": -0.8840038776,
				"element": "C" 
			},
			{
				"x": -1.4714301743,
				"y": 0.4821211903,
				"z": -2.2234351371,
				"element": "C" 
			},
			{
				"x": -2.7403380886,
				"y": -0.0774412152,
				"z": -2.801306956,
				"element": "C" 
			},
			{
				"x": -3.5540034521,
				"y": -0.4363723236,
				"z": -1.5107221693,
				"element": "C" 
			},
			{
				"x": -2.5385722081,
				"y": -0.5515892664,
				"z": -0.3214924293,
				"element": "C" 
			},
			{
				"x": 0.3530496777,
				"y": 0.6834315891,
				"z": 0.8659348478,
				"element": "C" 
			},
			{
				"x": 0.6629150505,
				"y": 1.8432684036,
				"z": 1.5963635177,
				"element": "C" 
			},
			{
				"x": 0.3419775552,
				"y": 3.4302692545,
				"z": 0.9569965636,
				"element": "Cl" 
			},
			{
				"x": 1.2109693093,
				"y": 1.7345883165,
				"z": 2.8764371377,
				"element": "C" 
			},
			{
				"x": 1.4283934868,
				"y": 0.4829794399,
				"z": 3.4443073564,
				"element": "C" 
			},
			{
				"x": 1.1011000509,
				"y": -0.6715252066,
				"z": 2.7303743067,
				"element": "C" 
			},
			{
				"x": 0.5749386816,
				"y": -0.568174091,
				"z": 1.4442165117,
				"element": "C" 
			},
			{
				"x": 1.2765682088,
				"y": -2.0261731802,
				"z": 3.3636866834,
				"element": "C" 
			},
			{
				"x": 1.467749362,
				"y": -2.9915807118,
				"z": 2.4394025321,
				"element": "F" 
			},
			{
				"x": 0.1863071616,
				"y": -2.3786854621,
				"z": 4.0833837554,
				"element": "F" 
			},
			{
				"x": 2.3294350225,
				"y": -2.0485718459,
				"z": 4.2077541067,
				"element": "F" 
			},
			{
				"x": -0.3684360801,
				"y": 1.8467650687,
				"z": -5.6205144128,
				"element": "H" 
			},
			{
				"x": -2.5376807853,
				"y": -0.9658673611,
				"z": -3.413041106,
				"element": "H" 
			},
			{
				"x": -3.2770188093,
				"y": 0.6275167967,
				"z": -3.4424429304,
				"element": "H" 
			},
			{
				"x": -4.2525303071,
				"y": 0.3777338771,
				"z": -1.2940792482,
				"element": "H" 
			},
			{
				"x": -4.1461637638,
				"y": -1.3474718359,
				"z": -1.630407235,
				"element": "H" 
			},
			{
				"x": -2.2720776289,
				"y": -1.5968147679,
				"z": -0.1154015699,
				"element": "H" 
			},
			{
				"x": -2.9398750495,
				"y": -0.1355586787,
				"z": 0.6085109617,
				"element": "H" 
			},
			{
				"x": 1.4543314274,
				"y": 2.6378425987,
				"z": 3.4239856064,
				"element": "H" 
			},
			{
				"x": 1.8556268155,
				"y": 0.4053472365,
				"z": 4.437876971,
				"element": "H" 
			},
			{
				"x": 0.3555311045,
				"y": -1.4598066007,
				"z": 0.8684734918,
				"element": "H" 
			}
		],
		 "valence_orbital": [ 
			{
				"type": "occ",
				"energy": -0.29362,
				"method": "rhf"
			},
			{
				"type": "occ",
				"energy": -0.27482,
				"method": "rhf"
			},
			{
				"type": "occ",
				"energy": -0.26953,
				"method": "rhf"
			},
			{
				"type": "occ",
				"energy": -0.25806,
				"method": "rhf"
			},
			{
				"type": "occ",
				"energy": -0.24153,
				"method": "rhf"
			},
			{
				"type": "unocc",
				"energy": -0.05373,
				"method": "rhf"
			},
			{
				"type": "unocc",
				"energy": -0.04698,
				"method": "rhf"
			},
			{
				"type": "unocc",
				"energy": -0.02476,
				"method": "rhf"
			},
			{
				"type": "unocc",
				"energy": 0.01655,
				"method": "rhf"
			},
			{
				"type": "unocc",
				"energy": 0.02657,
				"method": "rhf"
			}
		],
		"cosmo_sigma_profile": { 
			"-0.025": 0.0,
			"-0.024": 0.0,
			"-0.023": 0.0,
			"-0.022": 0.0,
			"-0.021": 0.0,
			"-0.02": 0.0,
			"-0.019": 0.0294853705675,
			"-0.018": 0.898285885839,
			"-0.017": 0.643188231571,
			"-0.016": 0.852571739994,
			"-0.015": 1.08226286744,
			"-0.014": 0.438464015194,
			"-0.013": 0.597443727536,
			"-0.012": 0.601844096918,
			"-0.011": 0.923363178711,
			"-0.01": 0.922369066944,
			"-0.009": 1.68787652196,
			"-0.008": 6.55932338248,
			"-0.007": 7.31528594415,
			"-0.006": 8.21089244979,
			"-0.005": 11.7238957967,
			"-0.004": 20.2873834544,
			"-0.003": 28.8163454228,
			"-0.002": 30.8931143102,
			"-0.001": 29.5770831527,
			"0.0": 34.5968280666,
			"0.001": 24.830565369,
			"0.002": 33.6129851122,
			"0.003": 32.354292594,
			"0.004": 8.21320414477,
			"0.005": 5.74482246447,
			"0.006": 4.89852784988,
			"0.007": 4.12915603659,
			"0.008": 2.76263115984,
			"0.009": 2.96138099589,
			"0.01": 3.26516611313,
			"0.011": 4.87997938216,
			"0.012": 5.09925286935,
			"0.013": 2.86223823976,
			"0.014": 1.99063957247,
			"0.015": 0.912170371854,
			"0.016": 0.0163973180954,
			"0.017": 0.0,
			"0.018": 0.0,
			"0.019": 0.0,
			"0.02": 0.0,
			"0.021": 0.0,
			"0.022": 0.0,
			"0.023": 0.0,
			"0.024": 0.0,
			"0.025": 0.0
		}
	}
}
