{
	 "smiles": "CC(C)(Cl)Cl", 
	 "Tm": 239.25, 
	 "num_atms": 11, 
	 "gaussian": { 
		 "optdone": 1, 
		 "sigma_profile": "yes", 
		 "theory": "DFT", 
		 "functional": "B3LYP", 
		 "basiset": "6-31G**", 
		 "properties": { 
			 "R2extent": 1884.6351, 
			 "electric_dipole_moment_norm": 2.5168515133, 
			 "electric_quadrupole_moment_norm": 6.97793673302, 
			 "total_energy": -1038.33382711, 
			 "HOMO_LUMO_gap": 0.28605, 
			 "cosmo_polarized_energy": -4.46, 
			 "cosmo_cavitation_energy": 17.17, 
			 "cosmo_dispersion_energy": -12.84, 
			 "cosmo_repulsion_energy": 1.11, 
			 "cosmo_total_nonelectrostatic_energy": 5.45, 
			 "SMD_solvation_energy": 2.54 
		},
		"coords": [
			{
				"x": 0.6977553686,
				"y": -0.2977214849,
				"z": 0.9176003164,
				"element": "C" 
			},
			{
				"x": 0.0927507465,
				"y": -1.6521826093,
				"z": 1.2607458351,
				"element": "C" 
			},
			{
				"x": -0.9428397015,
				"y": -2.1353838025,
				"z": 0.2545430625,
				"element": "C" 
			},
			{
				"x": -0.6968243346,
				"y": -1.5405498012,
				"z": 2.9050667285,
				"element": "Cl" 
			},
			{
				"x": 1.4371105715,
				"y": -2.886467452,
				"z": 1.3551312244,
				"element": "Cl" 
			},
			{
				"x": 1.4315594185,
				"y": 0.0028499041,
				"z": 1.6666575532,
				"element": "H" 
			},
			{
				"x": -0.0950725966,
				"y": 0.4544852785,
				"z": 0.8745201384,
				"element": "H" 
			},
			{
				"x": 1.1885890275,
				"y": -0.3551541712,
				"z": -0.0581187636,
				"element": "H" 
			},
			{
				"x": -1.3449063432,
				"y": -3.1070429147,
				"z": 0.5445660998,
				"element": "H" 
			},
			{
				"x": -0.4785583702,
				"y": -2.2226487769,
				"z": -0.7319025225,
				"element": "H" 
			},
			{
				"x": -1.7623637864,
				"y": -1.41308417,
				"z": 0.200590328,
				"element": "H" 
			}
		],
		 "valence_orbital": [ 
			{
				"type": "occ",
				"energy": -0.38074,
				"method": "rhf"
			},
			{
				"type": "occ",
				"energy": -0.32526,
				"method": "rhf"
			},
			{
				"type": "occ",
				"energy": -0.31182,
				"method": "rhf"
			},
			{
				"type": "occ",
				"energy": -0.30354,
				"method": "rhf"
			},
			{
				"type": "occ",
				"energy": -0.29653,
				"method": "rhf"
			},
			{
				"type": "unocc",
				"energy": -0.01048,
				"method": "rhf"
			},
			{
				"type": "unocc",
				"energy": 0.01828,
				"method": "rhf"
			},
			{
				"type": "unocc",
				"energy": 0.08852,
				"method": "rhf"
			},
			{
				"type": "unocc",
				"energy": 0.13745,
				"method": "rhf"
			},
			{
				"type": "unocc",
				"energy": 0.14288,
				"method": "rhf"
			}
		],
		"cosmo_sigma_profile": { 
			"-0.025": 0.0,
			"-0.024": 0.0,
			"-0.023": 0.0,
			"-0.022": 0.0,
			"-0.021": 0.0,
			"-0.02": 0.0,
			"-0.019": 0.0,
			"-0.018": 0.0,
			"-0.017": 0.0,
			"-0.016": 0.0,
			"-0.015": 0.0,
			"-0.014": 0.0,
			"-0.013": 0.0,
			"-0.012": 0.0,
			"-0.011": 0.0,
			"-0.01": 0.0,
			"-0.009": 0.0,
			"-0.008": 0.0,
			"-0.007": 0.656239081905,
			"-0.006": 8.70742604578,
			"-0.005": 12.0148980764,
			"-0.004": 9.69638909745,
			"-0.003": 11.0008247693,
			"-0.002": 16.1332427681,
			"-0.001": 12.6267893489,
			"0.0": 7.53477725223,
			"0.001": 7.00892163496,
			"0.002": 7.70317166081,
			"0.003": 8.04914437379,
			"0.004": 11.0266664129,
			"0.005": 18.9513326492,
			"0.006": 7.8720203722,
			"0.007": 0.0,
			"0.008": 0.0,
			"0.009": 0.0,
			"0.01": 0.0,
			"0.011": 0.0,
			"0.012": 0.0,
			"0.013": 0.0,
			"0.014": 0.0,
			"0.015": 0.0,
			"0.016": 0.0,
			"0.017": 0.0,
			"0.018": 0.0,
			"0.019": 0.0,
			"0.02": 0.0,
			"0.021": 0.0,
			"0.022": 0.0,
			"0.023": 0.0,
			"0.024": 0.0,
			"0.025": 0.0
		}
	}
}
