{
	 "smiles": "CCCC(C)(O)CCC", 
	 "Tm": 191.15, 
	 "num_atms": 27, 
	 "gaussian": { 
		 "optdone": 1, 
		 "sigma_profile": "yes", 
		 "theory": "DFT", 
		 "functional": "B3LYP", 
		 "basiset": "6-31G**", 
		 "properties": { 
			 "R2extent": 1883.9255, 
			 "electric_dipole_moment_norm": 1.37399418121, 
			 "electric_quadrupole_moment_norm": 7.72231281029, 
			 "total_energy": -390.928949997, 
			 "HOMO_LUMO_gap": 0.32455, 
			 "cosmo_polarized_energy": -5.74, 
			 "cosmo_cavitation_energy": 25.86, 
			 "cosmo_dispersion_energy": -18.73, 
			 "cosmo_repulsion_energy": 1.53, 
			 "cosmo_total_nonelectrostatic_energy": 8.66, 
			 "SMD_solvation_energy": 4.29 
		},
		"coords": [
			{
				"x": -0.5413943704,
				"y": -1.6453426593,
				"z": -1.3366999982,
				"element": "C" 
			},
			{
				"x": -0.5647295899,
				"y": -0.7820865154,
				"z": -0.0685199465,
				"element": "C" 
			},
			{
				"x": 0.8056133363,
				"y": -0.627490525,
				"z": 0.6315785287,
				"element": "C" 
			},
			{
				"x": 1.656273514,
				"y": 0.6471989342,
				"z": 0.3896345264,
				"element": "C" 
			},
			{
				"x": 0.9513838432,
				"y": 1.9017123487,
				"z": 0.9278039648,
				"element": "C" 
			},
			{
				"x": 2.8732400176,
				"y": 0.4655710843,
				"z": 1.1509309445,
				"element": "O" 
			},
			{
				"x": 2.1817493781,
				"y": 0.8032239967,
				"z": -1.0736038183,
				"element": "C" 
			},
			{
				"x": 1.6580251382,
				"y": 1.9442267066,
				"z": -1.9693373368,
				"element": "C" 
			},
			{
				"x": 0.2586101885,
				"y": 1.7798056293,
				"z": -2.5732654276,
				"element": "C" 
			},
			{
				"x": -0.1935201055,
				"y": -2.6593368182,
				"z": -1.1089146211,
				"element": "H" 
			},
			{
				"x": -1.5416399807,
				"y": -1.7283035253,
				"z": -1.7754021847,
				"element": "H" 
			},
			{
				"x": 0.1217369406,
				"y": -1.2356248905,
				"z": -2.103363639,
				"element": "H" 
			},
			{
				"x": -0.9908577864,
				"y": 0.2011207401,
				"z": -0.2971248506,
				"element": "H" 
			},
			{
				"x": -1.2648883482,
				"y": -1.2416012412,
				"z": 0.6396380504,
				"element": "H" 
			},
			{
				"x": 0.6429107011,
				"y": -0.6762926065,
				"z": 1.7183015157,
				"element": "H" 
			},
			{
				"x": 1.4436319482,
				"y": -1.4859173743,
				"z": 0.3874252212,
				"element": "H" 
			},
			{
				"x": 0.6777806462,
				"y": 1.7511301904,
				"z": 1.979307844,
				"element": "H" 
			},
			{
				"x": 0.0355243357,
				"y": 2.1453668311,
				"z": 0.3824163805,
				"element": "H" 
			},
			{
				"x": 1.6221650308,
				"y": 2.7636333087,
				"z": 0.8784838276,
				"element": "H" 
			},
			{
				"x": 2.6191420153,
				"y": 0.2979959743,
				"z": 2.0691936124,
				"element": "H" 
			},
			{
				"x": 2.0729040514,
				"y": -0.1512886076,
				"z": -1.6016108899,
				"element": "H" 
			},
			{
				"x": 3.2591830122,
				"y": 0.9560457756,
				"z": -0.9582488085,
				"element": "H" 
			},
			{
				"x": 2.37049991,
				"y": 2.0434607968,
				"z": -2.7984165915,
				"element": "H" 
			},
			{
				"x": 1.7126948306,
				"y": 2.8954311739,
				"z": -1.427105914,
				"element": "H" 
			},
			{
				"x": -0.5255397246,
				"y": 1.733928265,
				"z": -1.8115936123,
				"element": "H" 
			},
			{
				"x": 0.0224731925,
				"y": 2.6228858727,
				"z": -3.2316864745,
				"element": "H" 
			},
			{
				"x": 0.1892278751,
				"y": 0.8660471348,
				"z": -3.1732203026,
				"element": "H" 
			}
		],
		 "valence_orbital": [ 
			{
				"type": "occ",
				"energy": -0.32686,
				"method": "rhf"
			},
			{
				"type": "occ",
				"energy": -0.31985,
				"method": "rhf"
			},
			{
				"type": "occ",
				"energy": -0.31445,
				"method": "rhf"
			},
			{
				"type": "occ",
				"energy": -0.29733,
				"method": "rhf"
			},
			{
				"type": "occ",
				"energy": -0.2552,
				"method": "rhf"
			},
			{
				"type": "unocc",
				"energy": 0.06935,
				"method": "rhf"
			},
			{
				"type": "unocc",
				"energy": 0.08757,
				"method": "rhf"
			},
			{
				"type": "unocc",
				"energy": 0.10126,
				"method": "rhf"
			},
			{
				"type": "unocc",
				"energy": 0.11433,
				"method": "rhf"
			},
			{
				"type": "unocc",
				"energy": 0.11758,
				"method": "rhf"
			}
		],
		"cosmo_sigma_profile": { 
			"-0.025": 0.0,
			"-0.024": 0.0,
			"-0.023": 0.0,
			"-0.022": 0.0,
			"-0.021": 0.0,
			"-0.02": 0.0,
			"-0.019": 0.0,
			"-0.018": 0.0,
			"-0.017": 0.0,
			"-0.016": 0.0,
			"-0.015": 0.0179695688633,
			"-0.014": 0.472157741663,
			"-0.013": 0.744188088194,
			"-0.012": 0.94675063223,
			"-0.011": 0.974058034094,
			"-0.01": 0.786120348262,
			"-0.009": 1.42526673799,
			"-0.008": 0.972714522659,
			"-0.007": 1.14503046955,
			"-0.006": 1.35040298458,
			"-0.005": 2.7343366949,
			"-0.004": 3.53010851802,
			"-0.003": 13.358033867,
			"-0.002": 26.8056881611,
			"-0.001": 32.9355548796,
			"0.0": 35.8774876018,
			"0.001": 38.1672158835,
			"0.002": 16.5498808365,
			"0.003": 2.2121631737,
			"0.004": 1.30081540523,
			"0.005": 1.79610434309,
			"0.006": 1.74796038062,
			"0.007": 1.38528859776,
			"0.008": 1.24144168244,
			"0.009": 1.61721669516,
			"0.01": 1.13373736285,
			"0.011": 0.878206473069,
			"0.012": 1.20269977438,
			"0.013": 1.79981749824,
			"0.014": 1.75474896181,
			"0.015": 1.08616694029,
			"0.016": 0.0405558518558,
			"0.017": 0.0,
			"0.018": 0.0,
			"0.019": 0.0,
			"0.02": 0.0,
			"0.021": 0.0,
			"0.022": 0.0,
			"0.023": 0.0,
			"0.024": 0.0,
			"0.025": 0.0
		}
	}
}
