{
	 "smiles": "CC1=CN=C2C=CC=CC2=N1", 
	 "Tm": 453.15, 
	 "num_atms": 19, 
	 "gaussian": { 
		 "optdone": 1, 
		 "sigma_profile": "yes", 
		 "theory": "DFT", 
		 "functional": "B3LYP", 
		 "basiset": "6-31G**", 
		 "properties": { 
			 "R2extent": 1872.5797, 
			 "electric_dipole_moment_norm": 0.307987353636, 
			 "electric_quadrupole_moment_norm": 11.3534416205, 
			 "total_energy": -457.288875779, 
			 "HOMO_LUMO_gap": 0.17695, 
			 "cosmo_polarized_energy": -6.92, 
			 "cosmo_cavitation_energy": 22.89, 
			 "cosmo_dispersion_energy": -17.3, 
			 "cosmo_repulsion_energy": 1.37, 
			 "cosmo_total_nonelectrostatic_energy": 6.96, 
			 "SMD_solvation_energy": 0.95 
		},
		"coords": [
			{
				"x": -2.4612662457,
				"y": 0.7500489493,
				"z": -2.4669170403,
				"element": "C" 
			},
			{
				"x": -1.5150758189,
				"y": 0.6694175855,
				"z": -1.2980093201,
				"element": "C" 
			},
			{
				"x": -0.1795533058,
				"y": 1.1735879555,
				"z": -1.4117482247,
				"element": "C" 
			},
			{
				"x": 0.694211208,
				"y": 1.1344270002,
				"z": -0.4328979763,
				"element": "N" 
			},
			{
				"x": 0.2690322198,
				"y": 0.5757695189,
				"z": 0.739640003,
				"element": "C" 
			},
			{
				"x": 1.1564842652,
				"y": 0.4978425985,
				"z": 1.8425120358,
				"element": "C" 
			},
			{
				"x": 0.7331394977,
				"y": -0.0643570924,
				"z": 3.0267847992,
				"element": "C" 
			},
			{
				"x": -0.5866117225,
				"y": -0.5678766526,
				"z": 3.1542944063,
				"element": "C" 
			},
			{
				"x": -1.4686734021,
				"y": -0.5043128574,
				"z": 2.097804885,
				"element": "C" 
			},
			{
				"x": -1.0598250753,
				"y": 0.069183393,
				"z": 0.8668490793,
				"element": "C" 
			},
			{
				"x": -1.9423811079,
				"y": 0.1271898421,
				"z": -0.1744332005,
				"element": "N" 
			},
			{
				"x": -2.0658434776,
				"y": 0.2082862563,
				"z": -3.3340383767,
				"element": "H" 
			},
			{
				"x": -2.6154089925,
				"y": 1.789239538,
				"z": -2.780109456,
				"element": "H" 
			},
			{
				"x": -3.4239809949,
				"y": 0.3182958527,
				"z": -2.1897766801,
				"element": "H" 
			},
			{
				"x": 0.1475704768,
				"y": 1.6169493795,
				"z": -2.3525750721,
				"element": "H" 
			},
			{
				"x": 2.1601819918,
				"y": 0.8910727118,
				"z": 1.7161543708,
				"element": "H" 
			},
			{
				"x": 1.4110377118,
				"y": -0.1252671492,
				"z": 3.8731007786,
				"element": "H" 
			},
			{
				"x": -0.8999101565,
				"y": -1.0071459751,
				"z": 4.0969651106,
				"element": "H" 
			},
			{
				"x": -2.4834270713,
				"y": -0.8824508547,
				"z": 2.1700998781,
				"element": "H" 
			}
		],
		 "valence_orbital": [ 
			{
				"type": "occ",
				"energy": -0.33231,
				"method": "rhf"
			},
			{
				"type": "occ",
				"energy": -0.30228,
				"method": "rhf"
			},
			{
				"type": "occ",
				"energy": -0.25216,
				"method": "rhf"
			},
			{
				"type": "occ",
				"energy": -0.24245,
				"method": "rhf"
			},
			{
				"type": "occ",
				"energy": -0.24148,
				"method": "rhf"
			},
			{
				"type": "unocc",
				"energy": -0.06453,
				"method": "rhf"
			},
			{
				"type": "unocc",
				"energy": -0.02161,
				"method": "rhf"
			},
			{
				"type": "unocc",
				"energy": 0.0125,
				"method": "rhf"
			},
			{
				"type": "unocc",
				"energy": 0.0767,
				"method": "rhf"
			},
			{
				"type": "unocc",
				"energy": 0.09812,
				"method": "rhf"
			}
		],
		"cosmo_sigma_profile": { 
			"-0.025": 0.0,
			"-0.024": 0.0,
			"-0.023": 0.0,
			"-0.022": 0.0,
			"-0.021": 0.0,
			"-0.02": 0.0,
			"-0.019": 0.0,
			"-0.018": 0.0,
			"-0.017": 0.0,
			"-0.016": 0.0,
			"-0.015": 0.0,
			"-0.014": 0.0,
			"-0.013": 0.0,
			"-0.012": 0.0,
			"-0.011": 0.0,
			"-0.01": 0.0,
			"-0.009": 0.0,
			"-0.008": 0.1253686676,
			"-0.007": 3.47768582717,
			"-0.006": 10.6608233446,
			"-0.005": 17.3705587403,
			"-0.004": 15.4655503354,
			"-0.003": 14.2055190278,
			"-0.002": 14.8082643508,
			"-0.001": 17.8432548217,
			"0.0": 13.5337570702,
			"0.001": 12.7382169165,
			"0.002": 15.3068749828,
			"0.003": 15.4136661274,
			"0.004": 11.2540027857,
			"0.005": 2.75888818919,
			"0.006": 3.53131892604,
			"0.007": 3.0446698833,
			"0.008": 1.81809564572,
			"0.009": 1.52896263473,
			"0.01": 1.59390435159,
			"0.011": 1.60097316238,
			"0.012": 2.02020234815,
			"0.013": 1.68278804996,
			"0.014": 1.09262451039,
			"0.015": 0.78721160187,
			"0.016": 0.0829919377824,
			"0.017": 0.0,
			"0.018": 0.0,
			"0.019": 0.0,
			"0.02": 0.0,
			"0.021": 0.0,
			"0.022": 0.0,
			"0.023": 0.0,
			"0.024": 0.0,
			"0.025": 0.0
		}
	}
}
