{
	 "smiles": "CC(C)(C)C1=CC=C(C=C1)N=C=S", 
	 "Tm": 315.15, 
	 "num_atms": 26, 
	 "gaussian": { 
		 "optdone": 1, 
		 "sigma_profile": "yes", 
		 "theory": "DFT", 
		 "functional": "B3LYP", 
		 "basiset": "6-31G**", 
		 "properties": { 
			 "R2extent": 5091.9492, 
			 "electric_dipole_moment_norm": 4.70643883844, 
			 "electric_quadrupole_moment_norm": 16.9717959362, 
			 "total_energy": -879.954963267, 
			 "HOMO_LUMO_gap": 0.18139, 
			 "cosmo_polarized_energy": -5.71, 
			 "cosmo_cavitation_energy": 31.34, 
			 "cosmo_dispersion_energy": -22.64, 
			 "cosmo_repulsion_energy": 1.75, 
			 "cosmo_total_nonelectrostatic_energy": 10.45, 
			 "SMD_solvation_energy": 6.08 
		},
		"coords": [
			{
				"x": -1.1149721667,
				"y": 2.0294651204,
				"z": -1.6349418837,
				"element": "C" 
			},
			{
				"x": -1.6895629259,
				"y": 0.6019608202,
				"z": -1.4693392461,
				"element": "C" 
			},
			{
				"x": -3.2044080331,
				"y": 0.6907308526,
				"z": -1.1649709306,
				"element": "C" 
			},
			{
				"x": -1.5100619906,
				"y": -0.1465512517,
				"z": -2.8036939886,
				"element": "C" 
			},
			{
				"x": -0.9751984636,
				"y": -0.1038317916,
				"z": -0.3033719486,
				"element": "C" 
			},
			{
				"x": -1.034667443,
				"y": 0.44390303,
				"z": 0.99137048,
				"element": "C" 
			},
			{
				"x": -0.4069084108,
				"y": -0.1554594798,
				"z": 2.0759076322,
				"element": "C" 
			},
			{
				"x": 0.3137460922,
				"y": -1.3464405762,
				"z": 1.8900829759,
				"element": "C" 
			},
			{
				"x": 0.3890076242,
				"y": -1.9137672309,
				"z": 0.6115309852,
				"element": "C" 
			},
			{
				"x": -0.2493367718,
				"y": -1.2935540181,
				"z": -0.4609087003,
				"element": "C" 
			},
			{
				"x": 0.9387916039,
				"y": -1.9488419131,
				"z": 2.9543171579,
				"element": "N" 
			},
			{
				"x": 1.479545808,
				"y": -2.4684718431,
				"z": 3.8731913486,
				"element": "C" 
			},
			{
				"x": 2.2054702498,
				"y": -3.1674908292,
				"z": 5.1103508035,
				"element": "S" 
			},
			{
				"x": -0.0434785921,
				"y": 1.9977029562,
				"z": -1.8577313685,
				"element": "H" 
			},
			{
				"x": -1.2506419257,
				"y": 2.6319167146,
				"z": -0.7318550112,
				"element": "H" 
			},
			{
				"x": -1.6182015254,
				"y": 2.5478390525,
				"z": -2.4586551306,
				"element": "H" 
			},
			{
				"x": -3.4045481364,
				"y": 1.2515911884,
				"z": -0.2471949001,
				"element": "H" 
			},
			{
				"x": -3.7270396585,
				"y": 1.1968976596,
				"z": -1.9841901423,
				"element": "H" 
			},
			{
				"x": -3.6403982363,
				"y": -0.3068598369,
				"z": -1.0489135821,
				"element": "H" 
			},
			{
				"x": -2.0341974709,
				"y": 0.391358452,
				"z": -3.5999493232,
				"element": "H" 
			},
			{
				"x": -0.4565747243,
				"y": -0.2178259173,
				"z": -3.0937420742,
				"element": "H" 
			},
			{
				"x": -1.9248125776,
				"y": -1.1591571808,
				"z": -2.7631050716,
				"element": "H" 
			},
			{
				"x": -1.5850929687,
				"y": 1.363726045,
				"z": 1.1632771441,
				"element": "H" 
			},
			{
				"x": -0.4652179448,
				"y": 0.2836164914,
				"z": 3.0662254066,
				"element": "H" 
			},
			{
				"x": 0.9455939199,
				"y": -2.8338738245,
				"z": 0.4682127327,
				"element": "H" 
			},
			{
				"x": -0.1709353315,
				"y": -1.7592826899,
				"z": -1.4361033649,
				"element": "H" 
			}
		],
		 "valence_orbital": [ 
			{
				"type": "occ",
				"energy": -0.32786,
				"method": "rhf"
			},
			{
				"type": "occ",
				"energy": -0.28275,
				"method": "rhf"
			},
			{
				"type": "occ",
				"energy": -0.26729,
				"method": "rhf"
			},
			{
				"type": "occ",
				"energy": -0.24772,
				"method": "rhf"
			},
			{
				"type": "occ",
				"energy": -0.22461,
				"method": "rhf"
			},
			{
				"type": "unocc",
				"energy": -0.04322,
				"method": "rhf"
			},
			{
				"type": "unocc",
				"energy": -0.01743,
				"method": "rhf"
			},
			{
				"type": "unocc",
				"energy": 0.00889,
				"method": "rhf"
			},
			{
				"type": "unocc",
				"energy": 0.04865,
				"method": "rhf"
			},
			{
				"type": "unocc",
				"energy": 0.06939,
				"method": "rhf"
			}
		],
		"cosmo_sigma_profile": { 
			"-0.025": 0.0,
			"-0.024": 0.0,
			"-0.023": 0.0,
			"-0.022": 0.0,
			"-0.021": 0.0,
			"-0.02": 0.0,
			"-0.019": 0.0,
			"-0.018": 0.0,
			"-0.017": 0.0,
			"-0.016": 0.0,
			"-0.015": 0.0,
			"-0.014": 0.0,
			"-0.013": 0.0,
			"-0.012": 0.0,
			"-0.011": 0.0,
			"-0.01": 0.0,
			"-0.009": 0.0,
			"-0.008": 0.115209068554,
			"-0.007": 3.33120956314,
			"-0.006": 7.94766275732,
			"-0.005": 10.4337220005,
			"-0.004": 10.7744156304,
			"-0.003": 23.3715628057,
			"-0.002": 28.3859872649,
			"-0.001": 30.7953295444,
			"0.0": 30.2436171858,
			"0.001": 32.8937933926,
			"0.002": 17.9875161453,
			"0.003": 14.8510258314,
			"0.004": 15.0218244464,
			"0.005": 7.9144545574,
			"0.006": 12.4892759757,
			"0.007": 4.98647709852,
			"0.008": 0.0,
			"0.009": 0.0,
			"0.01": 0.0,
			"0.011": 0.0,
			"0.012": 0.0,
			"0.013": 0.0,
			"0.014": 0.0,
			"0.015": 0.0,
			"0.016": 0.0,
			"0.017": 0.0,
			"0.018": 0.0,
			"0.019": 0.0,
			"0.02": 0.0,
			"0.021": 0.0,
			"0.022": 0.0,
			"0.023": 0.0,
			"0.024": 0.0,
			"0.025": 0.0
		}
	}
}
