{
	 "smiles": "CN1C=C(C=N1)N1CCCC(Br)C1=O", 
	 "Tm": 395.15, 
	 "num_atms": 26, 
	 "gaussian": { 
		 "optdone": 1, 
		 "sigma_profile": "yes", 
		 "theory": "DFT", 
		 "functional": "B3LYP", 
		 "basiset": "6-31G**", 
		 "properties": { 
			 "R2extent": 6368.8403, 
			 "electric_dipole_moment_norm": 2.53893542454, 
			 "electric_quadrupole_moment_norm": 19.3232004627, 
			 "total_energy": -3161.06149074, 
			 "HOMO_LUMO_gap": 0.17284, 
			 "cosmo_polarized_energy": -13.32, 
			 "cosmo_cavitation_energy": 30.35, 
			 "cosmo_dispersion_energy": -22.78, 
			 "cosmo_repulsion_energy": 1.79, 
			 "cosmo_total_nonelectrostatic_energy": 9.35, 
			 "SMD_solvation_energy": 3.42 
		},
		"coords": [
			{
				"x": -0.8893494482,
				"y": 3.6914674719,
				"z": 0.7946841965,
				"element": "C" 
			},
			{
				"x": -0.4575274726,
				"y": 2.3090397533,
				"z": 0.7100294086,
				"element": "N" 
			},
			{
				"x": 0.8111459168,
				"y": 1.8538038906,
				"z": 0.5291371899,
				"element": "C" 
			},
			{
				"x": 0.7127963148,
				"y": 0.471704629,
				"z": 0.4077321116,
				"element": "C" 
			},
			{
				"x": -0.6756042586,
				"y": 0.2052110185,
				"z": 0.5182377208,
				"element": "C" 
			},
			{
				"x": -1.3756054326,
				"y": 1.3251020893,
				"z": 0.6994826477,
				"element": "N" 
			},
			{
				"x": 1.751842735,
				"y": -0.4680961963,
				"z": 0.2268122064,
				"element": "N" 
			},
			{
				"x": 1.4261827747,
				"y": -1.9052591739,
				"z": 0.2382590103,
				"element": "C" 
			},
			{
				"x": 2.4936565246,
				"y": -2.7367122854,
				"z": 0.9687039475,
				"element": "C" 
			},
			{
				"x": 3.9413779065,
				"y": -2.2823578813,
				"z": 0.6618986831,
				"element": "C" 
			},
			{
				"x": 4.0101064732,
				"y": -1.184611652,
				"z": -0.3925718762,
				"element": "C" 
			},
			{
				"x": 3.7379382823,
				"y": -1.9292902543,
				"z": -2.2400243156,
				"element": "Br" 
			},
			{
				"x": 3.0110891513,
				"y": -0.0609082688,
				"z": -0.1434701809,
				"element": "C" 
			},
			{
				"x": 3.3617867494,
				"y": 1.1118828498,
				"z": -0.2202883441,
				"element": "O" 
			},
			{
				"x": -1.1387577167,
				"y": 4.0897687943,
				"z": -0.1946048291,
				"element": "H" 
			},
			{
				"x": -1.7741117666,
				"y": 3.7366456374,
				"z": 1.4306999406,
				"element": "H" 
			},
			{
				"x": -0.0917074718,
				"y": 4.2940918207,
				"z": 1.2337848249,
				"element": "H" 
			},
			{
				"x": 1.6687876746,
				"y": 2.5013757952,
				"z": 0.4905559333,
				"element": "H" 
			},
			{
				"x": -1.1977619255,
				"y": -0.7395664028,
				"z": 0.4697360237,
				"element": "H" 
			},
			{
				"x": 1.2994467824,
				"y": -2.2583993741,
				"z": -0.7903123033,
				"element": "H" 
			},
			{
				"x": 0.4733507561,
				"y": -2.0266934942,
				"z": 0.7523752691,
				"element": "H" 
			},
			{
				"x": 2.3496217704,
				"y": -3.7837943492,
				"z": 0.6860760261,
				"element": "H" 
			},
			{
				"x": 2.3179395463,
				"y": -2.6733218093,
				"z": 2.0468589916,
				"element": "H" 
			},
			{
				"x": 4.393183162,
				"y": -1.8571608655,
				"z": 1.5671629874,
				"element": "H" 
			},
			{
				"x": 4.5738614854,
				"y": -3.1224193264,
				"z": 0.3648204372,
				"element": "H" 
			},
			{
				"x": 4.9943114868,
				"y": -0.7278024163,
				"z": -0.4579757071,
				"element": "H" 
			}
		],
		 "valence_orbital": [ 
			{
				"type": "occ",
				"energy": -0.2847,
				"method": "rhf"
			},
			{
				"type": "occ",
				"energy": -0.27767,
				"method": "rhf"
			},
			{
				"type": "occ",
				"energy": -0.25486,
				"method": "rhf"
			},
			{
				"type": "occ",
				"energy": -0.24743,
				"method": "rhf"
			},
			{
				"type": "occ",
				"energy": -0.2101,
				"method": "rhf"
			},
			{
				"type": "unocc",
				"energy": -0.03726,
				"method": "rhf"
			},
			{
				"type": "unocc",
				"energy": 0.01877,
				"method": "rhf"
			},
			{
				"type": "unocc",
				"energy": 0.03962,
				"method": "rhf"
			},
			{
				"type": "unocc",
				"energy": 0.07205,
				"method": "rhf"
			},
			{
				"type": "unocc",
				"energy": 0.08872,
				"method": "rhf"
			}
		],
		"cosmo_sigma_profile": { 
			"-0.025": 0.0,
			"-0.024": 0.0,
			"-0.023": 0.0,
			"-0.022": 0.0,
			"-0.021": 0.0,
			"-0.02": 0.0,
			"-0.019": 0.0,
			"-0.018": 0.0,
			"-0.017": 0.0,
			"-0.016": 0.0,
			"-0.015": 0.0,
			"-0.014": 0.0,
			"-0.013": 0.0,
			"-0.012": 0.0,
			"-0.011": 0.0,
			"-0.01": 0.0,
			"-0.009": 0.534171174366,
			"-0.008": 4.85156319154,
			"-0.007": 8.83461246017,
			"-0.006": 15.1228618145,
			"-0.005": 18.1839931126,
			"-0.004": 28.6821993463,
			"-0.003": 26.1931312892,
			"-0.002": 17.8179786546,
			"-0.001": 12.4881096448,
			"0.0": 10.8904719587,
			"0.001": 10.6541638944,
			"0.002": 11.5286552559,
			"0.003": 14.5924593005,
			"0.004": 16.5807708949,
			"0.005": 13.6141692778,
			"0.006": 6.2534073565,
			"0.007": 4.12308119346,
			"0.008": 3.0859643161,
			"0.009": 2.88493106784,
			"0.01": 3.09955716013,
			"0.011": 3.1241754444,
			"0.012": 3.00637304834,
			"0.013": 4.03984704815,
			"0.014": 1.44083639431,
			"0.015": 1.18292052054,
			"0.016": 0.344488631034,
			"0.017": 0.0,
			"0.018": 0.0,
			"0.019": 0.0,
			"0.02": 0.0,
			"0.021": 0.0,
			"0.022": 0.0,
			"0.023": 0.0,
			"0.024": 0.0,
			"0.025": 0.0
		}
	}
}
