{
	 "smiles": "NC1=C(F)C=C(F)C=C1Cl", 
	 "Tm": 303.15, 
	 "num_atms": 14, 
	 "gaussian": { 
		 "optdone": 1, 
		 "sigma_profile": "yes", 
		 "theory": "DFT", 
		 "functional": "B3LYP", 
		 "basiset": "6-31G**", 
		 "properties": { 
			 "R2extent": 1791.3324, 
			 "electric_dipole_moment_norm": 1.72170805888, 
			 "electric_quadrupole_moment_norm": 3.71118946835, 
			 "total_energy": -945.660086089, 
			 "HOMO_LUMO_gap": 0.19489, 
			 "cosmo_polarized_energy": -5.87, 
			 "cosmo_cavitation_energy": 20.91, 
			 "cosmo_dispersion_energy": -15.66, 
			 "cosmo_repulsion_energy": 1.23, 
			 "cosmo_total_nonelectrostatic_energy": 6.48, 
			 "SMD_solvation_energy": 4.25 
		},
		"coords": [
			{
				"x": 0.7763855091,
				"y": -1.7686672479,
				"z": -0.549935115,
				"element": "N" 
			},
			{
				"x": 0.406754494,
				"y": -0.4361134438,
				"z": -0.4574322186,
				"element": "C" 
			},
			{
				"x": 1.3883043719,
				"y": 0.5657797647,
				"z": -0.3649758551,
				"element": "C" 
			},
			{
				"x": 2.6783296972,
				"y": 0.1588127152,
				"z": -0.4521183414,
				"element": "F" 
			},
			{
				"x": 1.108561901,
				"y": 1.910813991,
				"z": -0.2062005449,
				"element": "C" 
			},
			{
				"x": -0.2302177768,
				"y": 2.2861126145,
				"z": -0.1363341595,
				"element": "C" 
			},
			{
				"x": -0.5360278782,
				"y": 3.5908306663,
				"z": 0.0197323829,
				"element": "F" 
			},
			{
				"x": -1.2559479835,
				"y": 1.3570752358,
				"z": -0.2278506824,
				"element": "C" 
			},
			{
				"x": -0.9230152604,
				"y": 0.0109151538,
				"z": -0.3868381669,
				"element": "C" 
			},
			{
				"x": -2.2129652811,
				"y": -1.176390029,
				"z": -0.516158445,
				"element": "Cl" 
			},
			{
				"x": 1.7169288032,
				"y": -1.9156544646,
				"z": -0.8874338317,
				"element": "H" 
			},
			{
				"x": 0.0898940377,
				"y": -2.3805427302,
				"z": -0.9682607242,
				"element": "H" 
			},
			{
				"x": 1.9065557737,
				"y": 2.6400168116,
				"z": -0.1423305836,
				"element": "H" 
			},
			{
				"x": -2.290140408,
				"y": 1.6734109628,
				"z": -0.1767637147,
				"element": "H" 
			}
		],
		 "valence_orbital": [ 
			{
				"type": "occ",
				"energy": -0.34084,
				"method": "rhf"
			},
			{
				"type": "occ",
				"energy": -0.32698,
				"method": "rhf"
			},
			{
				"type": "occ",
				"energy": -0.31801,
				"method": "rhf"
			},
			{
				"type": "occ",
				"energy": -0.25681,
				"method": "rhf"
			},
			{
				"type": "occ",
				"energy": -0.21416,
				"method": "rhf"
			},
			{
				"type": "unocc",
				"energy": -0.01927,
				"method": "rhf"
			},
			{
				"type": "unocc",
				"energy": 0.00463,
				"method": "rhf"
			},
			{
				"type": "unocc",
				"energy": 0.0149,
				"method": "rhf"
			},
			{
				"type": "unocc",
				"energy": 0.0805,
				"method": "rhf"
			},
			{
				"type": "unocc",
				"energy": 0.10696,
				"method": "rhf"
			}
		],
		"cosmo_sigma_profile": { 
			"-0.025": 0.0,
			"-0.024": 0.0,
			"-0.023": 0.0,
			"-0.022": 0.0,
			"-0.021": 0.0,
			"-0.02": 0.0,
			"-0.019": 0.0,
			"-0.018": 0.0,
			"-0.017": 0.0,
			"-0.016": 0.0,
			"-0.015": 0.0,
			"-0.014": 0.0,
			"-0.013": 0.716775143408,
			"-0.012": 1.45684154424,
			"-0.011": 2.06153322076,
			"-0.01": 2.63927714626,
			"-0.009": 2.75630874596,
			"-0.008": 4.43698142561,
			"-0.007": 5.36032265126,
			"-0.006": 4.77609798893,
			"-0.005": 4.77850823384,
			"-0.004": 4.79997726285,
			"-0.003": 5.72925019716,
			"-0.002": 7.49100565479,
			"-0.001": 10.3728350009,
			"0.0": 15.5894747097,
			"0.001": 24.648463269,
			"0.002": 22.4599539315,
			"0.003": 16.9787200182,
			"0.004": 23.418533704,
			"0.005": 4.86037509175,
			"0.006": 0.887808935396,
			"0.007": 0.720286698664,
			"0.008": 0.619207044052,
			"0.009": 0.653404769989,
			"0.01": 0.554609324641,
			"0.011": 0.671752460469,
			"0.012": 0.639445051695,
			"0.013": 0.301076218893,
			"0.014": 0.0,
			"0.015": 0.0,
			"0.016": 0.0,
			"0.017": 0.0,
			"0.018": 0.0,
			"0.019": 0.0,
			"0.02": 0.0,
			"0.021": 0.0,
			"0.022": 0.0,
			"0.023": 0.0,
			"0.024": 0.0,
			"0.025": 0.0
		}
	}
}
