{
	 "smiles": "CS(=O)(=O)N1N=NC2=C1C=CC=C2", 
	 "Tm": 383.15, 
	 "num_atms": 20, 
	 "gaussian": { 
		 "optdone": 1, 
		 "sigma_profile": "yes", 
		 "theory": "DFT", 
		 "functional": "B3LYP", 
		 "basiset": "6-31G**", 
		 "properties": { 
			 "R2extent": 2603.699, 
			 "electric_dipole_moment_norm": 3.19801346151, 
			 "electric_quadrupole_moment_norm": 15.9637493121, 
			 "total_energy": -983.738564299, 
			 "HOMO_LUMO_gap": 0.19323, 
			 "cosmo_polarized_energy": -13.65, 
			 "cosmo_cavitation_energy": 25.86, 
			 "cosmo_dispersion_energy": -19.68, 
			 "cosmo_repulsion_energy": 1.48, 
			 "cosmo_total_nonelectrostatic_energy": 7.66, 
			 "SMD_solvation_energy": 2.55 
		},
		"coords": [
			{
				"x": 1.6734203266,
				"y": 2.2940204978,
				"z": 2.2173071199,
				"element": "C" 
			},
			{
				"x": 1.688189614,
				"y": 0.6421722633,
				"z": 1.5153627549,
				"element": "S" 
			},
			{
				"x": 2.6587397548,
				"y": 0.5503099561,
				"z": 0.4281269049,
				"element": "O" 
			},
			{
				"x": 1.6539853167,
				"y": -0.3349682878,
				"z": 2.5931936208,
				"element": "O" 
			},
			{
				"x": 0.1417174504,
				"y": 0.6450540571,
				"z": 0.7164544241,
				"element": "N" 
			},
			{
				"x": -0.9896106841,
				"y": 0.9682783833,
				"z": 1.4468740251,
				"element": "N" 
			},
			{
				"x": -2.0209963576,
				"y": 0.7945984494,
				"z": 0.7052558995,
				"element": "N" 
			},
			{
				"x": -1.6153909682,
				"y": 0.3280856085,
				"z": -0.5340884868,
				"element": "C" 
			},
			{
				"x": -0.21106098,
				"y": 0.2166458237,
				"z": -0.5491760797,
				"element": "C" 
			},
			{
				"x": 0.492535431,
				"y": -0.2309467879,
				"z": -1.6752442216,
				"element": "C" 
			},
			{
				"x": -0.2787092639,
				"y": -0.5608392111,
				"z": -2.7817684597,
				"element": "C" 
			},
			{
				"x": -1.6898778873,
				"y": -0.4525846456,
				"z": -2.7815006266,
				"element": "C" 
			},
			{
				"x": -2.3771354419,
				"y": -0.007590909,
				"z": -1.6636739364,
				"element": "C" 
			},
			{
				"x": 0.7739960948,
				"y": 2.3931382659,
				"z": 2.8254089607,
				"element": "H" 
			},
			{
				"x": 1.6892786504,
				"y": 3.0194408146,
				"z": 1.4038547377,
				"element": "H" 
			},
			{
				"x": 2.5730841808,
				"y": 2.3722471903,
				"z": 2.8305109884,
				"element": "H" 
			},
			{
				"x": 1.5716727706,
				"y": -0.3127218117,
				"z": -1.6740794231,
				"element": "H" 
			},
			{
				"x": 0.2190830983,
				"y": -0.9148771215,
				"z": -3.6795612259,
				"element": "H" 
			},
			{
				"x": -2.2386494466,
				"y": -0.7254793352,
				"z": -3.6773349399,
				"element": "H" 
			},
			{
				"x": -3.4577716588,
				"y": 0.0821167998,
				"z": -1.6449220363,
				"element": "H" 
			}
		],
		 "valence_orbital": [ 
			{
				"type": "occ",
				"energy": -0.33305,
				"method": "rhf"
			},
			{
				"type": "occ",
				"energy": -0.32396,
				"method": "rhf"
			},
			{
				"type": "occ",
				"energy": -0.28659,
				"method": "rhf"
			},
			{
				"type": "occ",
				"energy": -0.26666,
				"method": "rhf"
			},
			{
				"type": "occ",
				"energy": -0.25427,
				"method": "rhf"
			},
			{
				"type": "unocc",
				"energy": -0.06104,
				"method": "rhf"
			},
			{
				"type": "unocc",
				"energy": -0.0108,
				"method": "rhf"
			},
			{
				"type": "unocc",
				"energy": 0.01571,
				"method": "rhf"
			},
			{
				"type": "unocc",
				"energy": 0.02073,
				"method": "rhf"
			},
			{
				"type": "unocc",
				"energy": 0.04543,
				"method": "rhf"
			}
		],
		"cosmo_sigma_profile": { 
			"-0.025": 0.0,
			"-0.024": 0.0,
			"-0.023": 0.0,
			"-0.022": 0.0,
			"-0.021": 0.0,
			"-0.02": 0.0,
			"-0.019": 0.0,
			"-0.018": 0.0,
			"-0.017": 0.0,
			"-0.016": 0.0,
			"-0.015": 0.0,
			"-0.014": 0.0,
			"-0.013": 0.0,
			"-0.012": 0.198530456679,
			"-0.011": 1.4584130619,
			"-0.01": 3.95411317441,
			"-0.009": 5.04847428318,
			"-0.008": 6.37338471453,
			"-0.007": 9.84510534123,
			"-0.006": 14.9745172438,
			"-0.005": 15.7627663553,
			"-0.004": 13.0274509099,
			"-0.003": 8.61192254176,
			"-0.002": 9.68891923934,
			"-0.001": 11.7552112774,
			"0.0": 12.3178848723,
			"0.001": 14.4174564248,
			"0.002": 14.0161936702,
			"0.003": 12.8555374945,
			"0.004": 5.39564010401,
			"0.005": 6.65123207915,
			"0.006": 4.16273856941,
			"0.007": 5.9699374138,
			"0.008": 8.24432508085,
			"0.009": 14.6862972924,
			"0.01": 5.52143828749,
			"0.011": 1.01731255083,
			"0.012": 1.06911293002,
			"0.013": 1.17636900483,
			"0.014": 0.311746645136,
			"0.015": 0.0,
			"0.016": 0.0,
			"0.017": 0.0,
			"0.018": 0.0,
			"0.019": 0.0,
			"0.02": 0.0,
			"0.021": 0.0,
			"0.022": 0.0,
			"0.023": 0.0,
			"0.024": 0.0,
			"0.025": 0.0
		}
	}
}
