{
	 "smiles": "NCC1=NOC(=N1)C1=CC=CO1", 
	 "Tm": 417.15, 
	 "num_atms": 19, 
	 "gaussian": { 
		 "optdone": 1, 
		 "sigma_profile": "yes", 
		 "theory": "DFT", 
		 "functional": "B3LYP", 
		 "basiset": "6-31G**", 
		 "properties": { 
			 "R2extent": 2748.5884, 
			 "electric_dipole_moment_norm": 3.62806654845, 
			 "electric_quadrupole_moment_norm": 4.55047828036, 
			 "total_energy": -585.592152841, 
			 "HOMO_LUMO_gap": 0.18061, 
			 "cosmo_polarized_energy": -11.98, 
			 "cosmo_cavitation_energy": 24.65, 
			 "cosmo_dispersion_energy": -18.28, 
			 "cosmo_repulsion_energy": 1.47, 
			 "cosmo_total_nonelectrostatic_energy": 7.84, 
			 "SMD_solvation_energy": 2.07 
		},
		"coords": [
			{
				"x": -4.1820522243,
				"y": 0.9283188746,
				"z": -0.9335828565,
				"element": "N" 
			},
			{
				"x": -3.292534547,
				"y": 2.03812215,
				"z": -1.2757804543,
				"element": "C" 
			},
			{
				"x": -1.8242152275,
				"y": 1.7214538927,
				"z": -1.159715427,
				"element": "C" 
			},
			{
				"x": -0.9805850082,
				"y": 1.8871777655,
				"z": -2.1482832996,
				"element": "N" 
			},
			{
				"x": 0.2479518219,
				"y": 1.4489321181,
				"z": -1.6029387465,
				"element": "O" 
			},
			{
				"x": -0.0207707199,
				"y": 1.0640935024,
				"z": -0.3395184225,
				"element": "C" 
			},
			{
				"x": -1.2758811799,
				"y": 1.204547987,
				"z": -0.0055509078,
				"element": "N" 
			},
			{
				"x": 1.077478014,
				"y": 0.5656026636,
				"z": 0.4475288721,
				"element": "C" 
			},
			{
				"x": 2.4090330495,
				"y": 0.3940870063,
				"z": 0.165401169,
				"element": "C" 
			},
			{
				"x": 2.9987375361,
				"y": -0.1397197517,
				"z": 1.3484259241,
				"element": "C" 
			},
			{
				"x": 1.985741578,
				"y": -0.2524392849,
				"z": 2.2575944212,
				"element": "C" 
			},
			{
				"x": 0.8112349082,
				"y": 0.1713611464,
				"z": 1.7278738122,
				"element": "O" 
			},
			{
				"x": -3.9527857951,
				"y": 0.5968413625,
				"z": 0.0010483354,
				"element": "H" 
			},
			{
				"x": -4.0108513225,
				"y": 0.1465576109,
				"z": -1.5621037853,
				"element": "H" 
			},
			{
				"x": -3.4985264331,
				"y": 2.3740599578,
				"z": -2.2956462459,
				"element": "H" 
			},
			{
				"x": -3.5181270157,
				"y": 2.8768161936,
				"z": -0.606816977,
				"element": "H" 
			},
			{
				"x": 2.8935692336,
				"y": 0.6244254912,
				"z": -0.7718998671,
				"element": "H" 
			},
			{
				"x": 4.0346906098,
				"y": -0.4035986776,
				"z": 1.5024380931,
				"element": "H" 
			},
			{
				"x": 1.9400927223,
				"y": -0.6001400084,
				"z": 3.2780263623,
				"element": "H" 
			}
		],
		 "valence_orbital": [ 
			{
				"type": "occ",
				"energy": -0.31237,
				"method": "rhf"
			},
			{
				"type": "occ",
				"energy": -0.29858,
				"method": "rhf"
			},
			{
				"type": "occ",
				"energy": -0.29705,
				"method": "rhf"
			},
			{
				"type": "occ",
				"energy": -0.24525,
				"method": "rhf"
			},
			{
				"type": "occ",
				"energy": -0.23876,
				"method": "rhf"
			},
			{
				"type": "unocc",
				"energy": -0.05815,
				"method": "rhf"
			},
			{
				"type": "unocc",
				"energy": 0.01338,
				"method": "rhf"
			},
			{
				"type": "unocc",
				"energy": 0.03829,
				"method": "rhf"
			},
			{
				"type": "unocc",
				"energy": 0.08062,
				"method": "rhf"
			},
			{
				"type": "unocc",
				"energy": 0.09631,
				"method": "rhf"
			}
		],
		"cosmo_sigma_profile": { 
			"-0.025": 0.0,
			"-0.024": 0.0,
			"-0.023": 0.0,
			"-0.022": 0.0,
			"-0.021": 0.0,
			"-0.02": 0.0,
			"-0.019": 0.0,
			"-0.018": 0.0,
			"-0.017": 0.0,
			"-0.016": 0.0,
			"-0.015": 0.0,
			"-0.014": 0.0,
			"-0.013": 0.0,
			"-0.012": 0.0,
			"-0.011": 0.610783144945,
			"-0.01": 3.61637215924,
			"-0.009": 5.3269075946,
			"-0.008": 7.17032170974,
			"-0.007": 7.28146989639,
			"-0.006": 11.3906562435,
			"-0.005": 13.0637257315,
			"-0.004": 10.5865941686,
			"-0.003": 15.1012828089,
			"-0.002": 14.5221661676,
			"-0.001": 13.2826397015,
			"0.0": 15.0188195077,
			"0.001": 12.8820793364,
			"0.002": 11.0786904117,
			"0.003": 9.44806595973,
			"0.004": 5.95722952804,
			"0.005": 3.79419791979,
			"0.006": 7.40561340895,
			"0.007": 6.24849346385,
			"0.008": 4.45804652015,
			"0.009": 3.98101210524,
			"0.01": 3.27413474983,
			"0.011": 2.9179868601,
			"0.012": 2.4226405614,
			"0.013": 2.80404124982,
			"0.014": 1.11374296625,
			"0.015": 0.875011541031,
			"0.016": 0.541472475328,
			"0.017": 0.431128269707,
			"0.018": 0.888232952866,
			"0.019": 0.145112889621,
			"0.02": 0.0,
			"0.021": 0.0,
			"0.022": 0.0,
			"0.023": 0.0,
			"0.024": 0.0,
			"0.025": 0.0
		}
	}
}
