{
	 "smiles": "COC1=C(OC(F)F)C=CC(=C1)C(O)=O", 
	 "Tm": 445.15, 
	 "num_atms": 23, 
	 "gaussian": { 
		 "optdone": 1, 
		 "sigma_profile": "yes", 
		 "theory": "DFT", 
		 "functional": "B3LYP", 
		 "basiset": "6-31G**", 
		 "properties": { 
			 "R2extent": 4730.9169, 
			 "electric_dipole_moment_norm": 4.29653530883, 
			 "electric_quadrupole_moment_norm": 27.1004765764, 
			 "total_energy": -848.333929589, 
			 "HOMO_LUMO_gap": 0.2007, 
			 "cosmo_polarized_energy": -15.86, 
			 "cosmo_cavitation_energy": 29.1, 
			 "cosmo_dispersion_energy": -20.39, 
			 "cosmo_repulsion_energy": 1.57, 
			 "cosmo_total_nonelectrostatic_energy": 10.28, 
			 "SMD_solvation_energy": 8.13 
		},
		"coords": [
			{
				"x": 0.3392252817,
				"y": -2.1511419067,
				"z": 1.6435620399,
				"element": "C" 
			},
			{
				"x": 1.3623409995,
				"y": -1.3477142331,
				"z": 1.0306753001,
				"element": "O" 
			},
			{
				"x": 1.2147801859,
				"y": -1.1318959496,
				"z": -0.3172997239,
				"element": "C" 
			},
			{
				"x": 0.2229050659,
				"y": -0.2713760359,
				"z": -0.8183302042,
				"element": "C" 
			},
			{
				"x": -0.7078588658,
				"y": 0.2926368149,
				"z": 0.0412828493,
				"element": "O" 
			},
			{
				"x": -0.2372509635,
				"y": 1.3039307423,
				"z": 0.8629977945,
				"element": "C" 
			},
			{
				"x": -1.1334803862,
				"y": 1.4296421685,
				"z": 1.8583404159,
				"element": "F" 
			},
			{
				"x": -0.203764604,
				"y": 2.4746467145,
				"z": 0.1759480947,
				"element": "F" 
			},
			{
				"x": 0.1310582979,
				"y": -0.0136608052,
				"z": -2.1844068637,
				"element": "C" 
			},
			{
				"x": 1.0328393163,
				"y": -0.6040309718,
				"z": -3.0644411366,
				"element": "C" 
			},
			{
				"x": 2.0280100033,
				"y": -1.4644980247,
				"z": -2.5828486405,
				"element": "C" 
			},
			{
				"x": 2.1152307818,
				"y": -1.717138792,
				"z": -1.2066737926,
				"element": "C" 
			},
			{
				"x": 2.9802797883,
				"y": -2.0533049547,
				"z": -3.5821563938,
				"element": "C" 
			},
			{
				"x": 3.6759897205,
				"y": -3.1551734274,
				"z": -3.1946565348,
				"element": "O" 
			},
			{
				"x": 3.1426191223,
				"y": -1.5942548997,
				"z": -4.6877622767,
				"element": "O" 
			},
			{
				"x": -0.641487375,
				"y": -1.6723704135,
				"z": 1.5711713967,
				"element": "H" 
			},
			{
				"x": 0.3002458933,
				"y": -3.1440263882,
				"z": 1.1802939005,
				"element": "H" 
			},
			{
				"x": 0.623985517,
				"y": -2.2504821601,
				"z": 2.6920678155,
				"element": "H" 
			},
			{
				"x": 0.7571465505,
				"y": 1.0980818684,
				"z": 1.2691462725,
				"element": "H" 
			},
			{
				"x": -0.6460725393,
				"y": 0.6578086798,
				"z": -2.5331365471,
				"element": "H" 
			},
			{
				"x": 0.990321677,
				"y": -0.4038110134,
				"z": -4.1289166485,
				"element": "H" 
			},
			{
				"x": 2.9003680203,
				"y": -2.3327875794,
				"z": -0.776245169,
				"element": "H" 
			},
			{
				"x": 3.3276685122,
				"y": -3.498779433,
				"z": -2.3607119479,
				"element": "H" 
			}
		],
		 "valence_orbital": [ 
			{
				"type": "occ",
				"energy": -0.32145,
				"method": "rhf"
			},
			{
				"type": "occ",
				"energy": -0.30437,
				"method": "rhf"
			},
			{
				"type": "occ",
				"energy": -0.28202,
				"method": "rhf"
			},
			{
				"type": "occ",
				"energy": -0.28,
				"method": "rhf"
			},
			{
				"type": "occ",
				"energy": -0.26111,
				"method": "rhf"
			},
			{
				"type": "unocc",
				"energy": -0.06041,
				"method": "rhf"
			},
			{
				"type": "unocc",
				"energy": -0.03149,
				"method": "rhf"
			},
			{
				"type": "unocc",
				"energy": 0.03913,
				"method": "rhf"
			},
			{
				"type": "unocc",
				"energy": 0.04941,
				"method": "rhf"
			},
			{
				"type": "unocc",
				"energy": 0.07715,
				"method": "rhf"
			}
		],
		"cosmo_sigma_profile": { 
			"-0.025": 0.0,
			"-0.024": 0.0,
			"-0.023": 0.0,
			"-0.022": 0.0,
			"-0.021": 0.0,
			"-0.02": 0.0,
			"-0.019": 0.523602237089,
			"-0.018": 0.950705370771,
			"-0.017": 1.11995552676,
			"-0.016": 1.02651534518,
			"-0.015": 1.02471765024,
			"-0.014": 0.700775231574,
			"-0.013": 1.02139957853,
			"-0.012": 1.35209592822,
			"-0.011": 1.17139059399,
			"-0.01": 1.7883894366,
			"-0.009": 3.37691353402,
			"-0.008": 3.97752340494,
			"-0.007": 5.52669829362,
			"-0.006": 9.50658724356,
			"-0.005": 11.8300122156,
			"-0.004": 15.1217074023,
			"-0.003": 18.4119094784,
			"-0.002": 15.6444307978,
			"-0.001": 12.8946308429,
			"0.0": 14.9688333465,
			"0.001": 18.8922634823,
			"0.002": 14.072289578,
			"0.003": 20.7833407649,
			"0.004": 17.6468936836,
			"0.005": 5.64468814593,
			"0.006": 4.17834757724,
			"0.007": 4.09873068211,
			"0.008": 3.8690778285,
			"0.009": 4.84251949731,
			"0.01": 5.92996845246,
			"0.011": 5.47789580963,
			"0.012": 4.25866848058,
			"0.013": 1.09719254916,
			"0.014": 0.000302593879002,
			"0.015": 0.0,
			"0.016": 0.0,
			"0.017": 0.0,
			"0.018": 0.0,
			"0.019": 0.0,
			"0.02": 0.0,
			"0.021": 0.0,
			"0.022": 0.0,
			"0.023": 0.0,
			"0.024": 0.0,
			"0.0": 0.0
		}
	}
}
