{
	 "smiles": "CC1C2C(CC3C4CC=C5CC(O)CCC5(C)C4CCC23C)OC11CCC(C)CO1", 
	 "Tm": 479.15, 
	 "num_atms": 72, 
	 "gaussian": { 
		 "optdone": 1, 
		 "sigma_profile": "yes", 
		 "theory": "DFT", 
		 "functional": "B3LYP", 
		 "basiset": "6-31G**", 
		 "properties": { 
			 "R2extent": 14852.7755, 
			 "electric_dipole_moment_norm": 1.50788063188, 
			 "electric_quadrupole_moment_norm": 14.8649678621, 
			 "total_energy": -1279.83769691, 
			 "HOMO_LUMO_gap": 0.25567, 
			 "cosmo_polarized_energy": -12.99, 
			 "cosmo_cavitation_energy": 59.13, 
			 "cosmo_dispersion_energy": -40.54, 
			 "cosmo_repulsion_energy": 2.97, 
			 "cosmo_total_nonelectrostatic_energy": 21.56, 
			 "SMD_solvation_energy": 7.85 
		},
		"coords": [
			{
				"x": 0.532578007,
				"y": 4.8367822083,
				"z": -1.6237501616,
				"element": "C" 
			},
			{
				"x": 0.0407618538,
				"y": 3.6243071003,
				"z": -0.8331668436,
				"element": "C" 
			},
			{
				"x": 1.0697834284,
				"y": 2.5404945616,
				"z": -0.5089679129,
				"element": "C" 
			},
			{
				"x": 0.3514105505,
				"y": 1.8122391987,
				"z": 0.6105321876,
				"element": "C" 
			},
			{
				"x": 1.3433805529,
				"y": 0.7562935214,
				"z": 1.0879012452,
				"element": "C" 
			},
			{
				"x": 2.2281514686,
				"y": 0.4931316186,
				"z": -0.1958323721,
				"element": "C" 
			},
			{
				"x": 2.5273208401,
				"y": -0.9602111839,
				"z": -0.6311363505,
				"element": "C" 
			},
			{
				"x": 3.05108146,
				"y": -1.8404860267,
				"z": 0.5217975615,
				"element": "C" 
			},
			{
				"x": 2.0196036968,
				"y": -2.7476083018,
				"z": 1.1288816298,
				"element": "C" 
			},
			{
				"x": 0.8239891447,
				"y": -3.0436110787,
				"z": 0.6056809077,
				"element": "C" 
			},
			{
				"x": -0.0851128157,
				"y": -4.0402101103,
				"z": 1.2993345634,
				"element": "C" 
			},
			{
				"x": -0.4918099526,
				"y": -5.2033513229,
				"z": 0.383557179,
				"element": "C" 
			},
			{
				"x": 0.6817477193,
				"y": -5.9918447913,
				"z": 0.1753264122,
				"element": "O" 
			},
			{
				"x": -1.0566819451,
				"y": -4.676123534,
				"z": -0.9434304794,
				"element": "C" 
			},
			{
				"x": -0.0867733112,
				"y": -3.6941138873,
				"z": -1.6146572116,
				"element": "C" 
			},
			{
				"x": 0.3125289784,
				"y": -2.4733436178,
				"z": -0.7206458602,
				"element": "C" 
			},
			{
				"x": -0.9582385252,
				"y": -1.6272438198,
				"z": -0.4621670774,
				"element": "C" 
			},
			{
				"x": 1.4535311884,
				"y": -1.6989573697,
				"z": -1.4786784282,
				"element": "C" 
			},
			{
				"x": 1.0003803081,
				"y": -0.7686583875,
				"z": -2.6312754168,
				"element": "C" 
			},
			{
				"x": 0.6038642892,
				"y": 0.662774334,
				"z": -2.2167326954,
				"element": "C" 
			},
			{
				"x": 1.6674504681,
				"y": 1.4051333548,
				"z": -1.3684374493,
				"element": "C" 
			},
			{
				"x": 2.810552171,
				"y": 1.8971409702,
				"z": -2.2726247591,
				"element": "C" 
			},
			{
				"x": -0.0676408255,
				"y": 2.8636204152,
				"z": 1.4761287092,
				"element": "O" 
			},
			{
				"x": -0.5275936692,
				"y": 3.9394675208,
				"z": 0.6133055267,
				"element": "C" 
			},
			{
				"x": -0.0741240133,
				"y": 5.2377512469,
				"z": 1.2792223166,
				"element": "C" 
			},
			{
				"x": -0.665825227,
				"y": 5.3565708131,
				"z": 2.6977992517,
				"element": "C" 
			},
			{
				"x": -2.1765330687,
				"y": 4.9707500952,
				"z": 2.7361776102,
				"element": "C" 
			},
			{
				"x": -2.434035016,
				"y": 3.715196815,
				"z": 3.5822487924,
				"element": "C" 
			},
			{
				"x": -2.6957084503,
				"y": 4.8122338479,
				"z": 1.3011587326,
				"element": "C" 
			},
			{
				"x": -1.9420787072,
				"y": 3.8939653285,
				"z": 0.5030059669,
				"element": "O" 
			},
			{
				"x": 1.398001425,
				"y": 5.3125256204,
				"z": -1.1502701351,
				"element": "H" 
			},
			{
				"x": -0.2535188386,
				"y": 5.5919700665,
				"z": -1.7305060322,
				"element": "H" 
			},
			{
				"x": 0.8342133668,
				"y": 4.5360988018,
				"z": -2.6321942842,
				"element": "H" 
			},
			{
				"x": -0.8034088923,
				"y": 3.1759459244,
				"z": -1.3706239702,
				"element": "H" 
			},
			{
				"x": 1.9294019923,
				"y": 3.0445965331,
				"z": -0.0365831731,
				"element": "H" 
			},
			{
				"x": -0.5502734912,
				"y": 1.3201143193,
				"z": 0.2183467677,
				"element": "H" 
			},
			{
				"x": 1.9605642744,
				"y": 1.164755834,
				"z": 1.8945807986,
				"element": "H" 
			},
			{
				"x": 0.8657929013,
				"y": -0.1478348261,
				"z": 1.4720269834,
				"element": "H" 
			},
			{
				"x": 3.2139721027,
				"y": 0.9112452162,
				"z": 0.0459477297,
				"element": "H" 
			},
			{
				"x": 3.3650619693,
				"y": -0.8439176805,
				"z": -1.3334153008,
				"element": "H" 
			},
			{
				"x": 3.4970763504,
				"y": -1.2100338828,
				"z": 1.3033023283,
				"element": "H" 
			},
			{
				"x": 3.8797250458,
				"y": -2.4681647475,
				"z": 0.1590261747,
				"element": "H" 
			},
			{
				"x": 2.3102870856,
				"y": -3.2393387751,
				"z": 2.0573452268,
				"element": "H" 
			},
			{
				"x": -1.0070788691,
				"y": -3.5541445114,
				"z": 1.6462498474,
				"element": "H" 
			},
			{
				"x": 0.4122792411,
				"y": -4.44784848,
				"z": 2.1848314011,
				"element": "H" 
			},
			{
				"x": -1.2603796509,
				"y": -5.805605466,
				"z": 0.8957538052,
				"element": "H" 
			},
			{
				"x": 0.4454441148,
				"y": -6.7191996697,
				"z": -0.41500185,
				"element": "H" 
			},
			{
				"x": -1.2541132268,
				"y": -5.5208135223,
				"z": -1.6187230101,
				"element": "H" 
			},
			{
				"x": -2.0315294426,
				"y": -4.209069007,
				"z": -0.7576007658,
				"element": "H" 
			},
			{
				"x": 0.8259735868,
				"y": -4.2461432821,
				"z": -1.8646624463,
				"element": "H" 
			},
			{
				"x": -0.5154802417,
				"y": -3.3346206451,
				"z": -2.5582430021,
				"element": "H" 
			},
			{
				"x": -1.4053378143,
				"y": -1.2881880557,
				"z": -1.4014093621,
				"element": "H" 
			},
			{
				"x": -1.72407464,
				"y": -2.2049050807,
				"z": 0.060713087,
				"element": "H" 
			},
			{
				"x": -0.7492314784,
				"y": -0.7538662284,
				"z": 0.1553456931,
				"element": "H" 
			},
			{
				"x": 2.0234419474,
				"y": -2.5060641763,
				"z": -1.9587535438,
				"element": "H" 
			},
			{
				"x": 0.1722120074,
				"y": -1.2211870382,
				"z": -3.1894837984,
				"element": "H" 
			},
			{
				"x": 1.8318588779,
				"y": -0.7073859224,
				"z": -3.3454441978,
				"element": "H" 
			},
			{
				"x": 0.4077630866,
				"y": 1.2468359639,
				"z": -3.1255889984,
				"element": "H" 
			},
			{
				"x": -0.3449793186,
				"y": 0.6310288188,
				"z": -1.6786719455,
				"element": "H" 
			},
			{
				"x": 2.4330904909,
				"y": 2.5663704933,
				"z": -3.0537815798,
				"element": "H" 
			},
			{
				"x": 3.3245895359,
				"y": 1.0702904658,
				"z": -2.7741083034,
				"element": "H" 
			},
			{
				"x": 3.5600030469,
				"y": 2.4486826444,
				"z": -1.6938084729,
				"element": "H" 
			},
			{
				"x": -0.3942588243,
				"y": 6.0843687882,
				"z": 0.6617620305,
				"element": "H" 
			},
			{
				"x": 1.0188301541,
				"y": 5.2631626856,
				"z": 1.3172503853,
				"element": "H" 
			},
			{
				"x": -0.5162008971,
				"y": 6.3782643839,
				"z": 3.0633594116,
				"element": "H" 
			},
			{
				"x": -0.1066330948,
				"y": 4.6950786656,
				"z": 3.3648555544,
				"element": "H" 
			},
			{
				"x": -2.7477802423,
				"y": 5.8005581376,
				"z": 3.1743297916,
				"element": "H" 
			},
			{
				"x": -3.5031240641,
				"y": 3.4750855202,
				"z": 3.6172678697,
				"element": "H" 
			},
			{
				"x": -2.0918228515,
				"y": 3.8661383874,
				"z": 4.6120471167,
				"element": "H" 
			},
			{
				"x": -1.8968363194,
				"y": 2.8597960982,
				"z": 3.1658887455,
				"element": "H" 
			},
			{
				"x": -3.7197993999,
				"y": 4.4248270291,
				"z": 1.2970859035,
				"element": "H" 
			},
			{
				"x": -2.7170816036,
				"y": 5.7957010812,
				"z": 0.8058019456,
				"element": "H" 
			}
		],
		 "valence_orbital": [ 
			{
				"type": "occ",
				"energy": -0.26993,
				"method": "rhf"
			},
			{
				"type": "occ",
				"energy": -0.25869,
				"method": "rhf"
			},
			{
				"type": "occ",
				"energy": -0.25213,
				"method": "rhf"
			},
			{
				"type": "occ",
				"energy": -0.23306,
				"method": "rhf"
			},
			{
				"type": "occ",
				"energy": -0.2206,
				"method": "rhf"
			},
			{
				"type": "unocc",
				"energy": 0.03507,
				"method": "rhf"
			},
			{
				"type": "unocc",
				"energy": 0.06059,
				"method": "rhf"
			},
			{
				"type": "unocc",
				"energy": 0.07124,
				"method": "rhf"
			},
			{
				"type": "unocc",
				"energy": 0.08415,
				"method": "rhf"
			},
			{
				"type": "unocc",
				"energy": 0.09128,
				"method": "rhf"
			}
		],
		"cosmo_sigma_profile": { 
			"-0.025": 0.0,
			"-0.024": 0.0,
			"-0.023": 0.0,
			"-0.022": 0.0,
			"-0.021": 0.0,
			"-0.02": 0.0,
			"-0.019": 0.0,
			"-0.018": 0.0,
			"-0.017": 0.0,
			"-0.016": 0.000327623032535,
			"-0.015": 0.468892348607,
			"-0.014": 1.09195345628,
			"-0.013": 0.862476514742,
			"-0.012": 0.811472776027,
			"-0.011": 0.912701436002,
			"-0.01": 1.03755068477,
			"-0.009": 0.882913544756,
			"-0.008": 1.10956977966,
			"-0.007": 0.559778815695,
			"-0.006": 1.22831377212,
			"-0.005": 1.91151785614,
			"-0.004": 10.664002104,
			"-0.003": 49.9131717454,
			"-0.002": 88.1321652837,
			"-0.001": 80.8885516521,
			"0.0": 69.1604917129,
			"0.001": 53.6017147998,
			"0.002": 28.2825520282,
			"0.003": 9.94352372045,
			"0.004": 7.01933590717,
			"0.005": 6.35406101855,
			"0.006": 5.15049618497,
			"0.007": 4.6166118951,
			"0.008": 4.90032725314,
			"0.009": 4.98947493602,
			"0.01": 3.99011701425,
			"0.011": 4.08062081931,
			"0.012": 3.00975765803,
			"0.013": 2.73308906009,
			"0.014": 2.25052859303,
			"0.015": 1.16539874991,
			"0.016": 0.0,
			"0.017": 0.0,
			"0.018": 0.0,
			"0.019": 0.0,
			"0.02": 0.0,
			"0.021": 0.0,
			"0.022": 0.0,
			"0.023": 0.0,
			"0.024": 0.0,
			"0.025": 0.0
		}
	}
}
