{
	 "smiles": "NC1=NSC(=N1)C1=CC=C(Cl)C=C1", 
	 "Tm": 475.15, 
	 "num_atms": 19, 
	 "gaussian": { 
		 "optdone": 1, 
		 "sigma_profile": "yes", 
		 "theory": "DFT", 
		 "functional": "B3LYP", 
		 "basiset": "6-31G**", 
		 "properties": { 
			 "R2extent": 4516.8265, 
			 "electric_dipole_moment_norm": 1.46996411861, 
			 "electric_quadrupole_moment_norm": 12.0652787709, 
			 "total_energy": -1331.10703295, 
			 "HOMO_LUMO_gap": 0.15202, 
			 "cosmo_polarized_energy": -10.66, 
			 "cosmo_cavitation_energy": 27.37, 
			 "cosmo_dispersion_energy": -21.25, 
			 "cosmo_repulsion_energy": 1.63, 
			 "cosmo_total_nonelectrostatic_energy": 7.75, 
			 "SMD_solvation_energy": 1.31 
		},
		"coords": [
			{
				"x": 3.1507822348,
				"y": 0.8535196599,
				"z": -1.6344154545,
				"element": "N" 
			},
			{
				"x": 2.0611459825,
				"y": 1.1203394781,
				"z": -0.840610226,
				"element": "C" 
			},
			{
				"x": 1.8847077697,
				"y": 2.3049270282,
				"z": -0.2846962262,
				"element": "N" 
			},
			{
				"x": 0.4143191419,
				"y": 2.2576414205,
				"z": 0.5257197127,
				"element": "S" 
			},
			{
				"x": 0.1384466008,
				"y": 0.5883961194,
				"z": 0.0681402065,
				"element": "C" 
			},
			{
				"x": 1.1209506886,
				"y": 0.1290593198,
				"z": -0.6683303658,
				"element": "N" 
			},
			{
				"x": -1.038030309,
				"y": -0.1992502101,
				"z": 0.4486693845,
				"element": "C" 
			},
			{
				"x": -1.170534276,
				"y": -1.515154331,
				"z": -0.0267689578,
				"element": "C" 
			},
			{
				"x": -2.2751233548,
				"y": -2.2872661265,
				"z": 0.3165941716,
				"element": "C" 
			},
			{
				"x": -3.2591731058,
				"y": -1.7414214818,
				"z": 1.1430593634,
				"element": "C" 
			},
			{
				"x": -4.6547673069,
				"y": -2.709793595,
				"z": 1.5795876044,
				"element": "Cl" 
			},
			{
				"x": -3.1510900913,
				"y": -0.437341132,
				"z": 1.6283844631,
				"element": "C" 
			},
			{
				"x": -2.0412220826,
				"y": 0.3256749472,
				"z": 1.2789331673,
				"element": "C" 
			},
			{
				"x": 3.9284149658,
				"y": 1.4872836658,
				"z": -1.5247305202,
				"element": "H" 
			},
			{
				"x": 3.3926353887,
				"y": -0.1228361428,
				"z": -1.712966908,
				"element": "H" 
			},
			{
				"x": -0.3953431914,
				"y": -1.918274914,
				"z": -0.6686053127,
				"element": "H" 
			},
			{
				"x": -2.3768857933,
				"y": -3.3021222967,
				"z": -0.0513171378,
				"element": "H" 
			},
			{
				"x": -3.9238872006,
				"y": -0.0294205807,
				"z": 2.2698864263,
				"element": "H" 
			},
			{
				"x": -1.9607460611,
				"y": 1.3390391718,
				"z": 1.6625666092,
				"element": "H" 
			}
		],
		 "valence_orbital": [ 
			{
				"type": "occ",
				"energy": -0.30479,
				"method": "rhf"
			},
			{
				"type": "occ",
				"energy": -0.28069,
				"method": "rhf"
			},
			{
				"type": "occ",
				"energy": -0.27689,
				"method": "rhf"
			},
			{
				"type": "occ",
				"energy": -0.25652,
				"method": "rhf"
			},
			{
				"type": "occ",
				"energy": -0.22144,
				"method": "rhf"
			},
			{
				"type": "unocc",
				"energy": -0.06942,
				"method": "rhf"
			},
			{
				"type": "unocc",
				"energy": -0.02551,
				"method": "rhf"
			},
			{
				"type": "unocc",
				"energy": 0.00064,
				"method": "rhf"
			},
			{
				"type": "unocc",
				"energy": 0.01617,
				"method": "rhf"
			},
			{
				"type": "unocc",
				"energy": 0.02392,
				"method": "rhf"
			}
		],
		"cosmo_sigma_profile": { 
			"-0.025": 0.0,
			"-0.024": 0.0,
			"-0.023": 0.0,
			"-0.022": 0.0,
			"-0.021": 0.0,
			"-0.02": 0.0,
			"-0.019": 0.0,
			"-0.018": 0.0,
			"-0.017": 0.0,
			"-0.016": 0.0,
			"-0.015": 0.0,
			"-0.014": 0.988910656523,
			"-0.013": 1.97761556448,
			"-0.012": 2.84421348984,
			"-0.011": 1.89816937096,
			"-0.01": 1.92949852032,
			"-0.009": 2.0458198185,
			"-0.008": 6.32725248022,
			"-0.007": 7.77601406435,
			"-0.006": 10.6310536059,
			"-0.005": 6.56928031106,
			"-0.004": 7.50057431826,
			"-0.003": 9.26671224167,
			"-0.002": 12.054323554,
			"-0.001": 17.8878164727,
			"0.0": 21.0344579739,
			"0.001": 26.5605271931,
			"0.002": 26.847846615,
			"0.003": 16.7004884668,
			"0.004": 15.3093534826,
			"0.005": 5.94835761677,
			"0.006": 3.81563478301,
			"0.007": 3.49458318915,
			"0.008": 3.51579822946,
			"0.009": 3.2309829251,
			"0.01": 3.05775054918,
			"0.011": 1.49990435464,
			"0.012": 1.165114939,
			"0.013": 1.18708083325,
			"0.014": 1.18854908984,
			"0.015": 0.659941160342,
			"0.016": 0.0,
			"0.017": 0.0,
			"0.018": 0.0,
			"0.019": 0.0,
			"0.02": 0.0,
			"0.021": 0.0,
			"0.022": 0.0,
			"0.023": 0.0,
			"0.024": 0.0,
			"0.025": 0.0
		}
	}
}
