{
	 "smiles": "CCOC(=O)C1=C(CBr)OC(=N1)C1=CC=CC=C1", 
	 "Tm": 368.15, 
	 "num_atms": 30, 
	 "gaussian": { 
		 "optdone": 1, 
		 "sigma_profile": "yes", 
		 "theory": "DFT", 
		 "functional": "B3LYP", 
		 "basiset": "6-31G**", 
		 "properties": { 
			 "R2extent": 8372.0825, 
			 "electric_dipole_moment_norm": 2.89550869624, 
			 "electric_quadrupole_moment_norm": 13.9662860486, 
			 "total_energy": -3354.46049743, 
			 "HOMO_LUMO_gap": 0.1664, 
			 "cosmo_polarized_energy": -11.58, 
			 "cosmo_cavitation_energy": 38.0, 
			 "cosmo_dispersion_energy": -27.39, 
			 "cosmo_repulsion_energy": 2.18, 
			 "cosmo_total_nonelectrostatic_energy": 12.79, 
			 "SMD_solvation_energy": 5.3 
		},
		"coords": [
			{
				"x": 0.6414244938,
				"y": -2.48444707,
				"z": -3.8588694862,
				"element": "C" 
			},
			{
				"x": -0.6535577578,
				"y": -2.2461789072,
				"z": -3.1067844558,
				"element": "C" 
			},
			{
				"x": -0.3551155393,
				"y": -1.3548274614,
				"z": -2.0058260913,
				"element": "O" 
			},
			{
				"x": -1.3915673033,
				"y": -1.034941806,
				"z": -1.2195705886,
				"element": "C" 
			},
			{
				"x": -2.5298759208,
				"y": -1.4424834239,
				"z": -1.3832913115,
				"element": "O" 
			},
			{
				"x": -1.0057100855,
				"y": -0.1244484366,
				"z": -0.1204927637,
				"element": "C" 
			},
			{
				"x": -1.8371167041,
				"y": 0.3308479474,
				"z": 0.8730660787,
				"element": "C" 
			},
			{
				"x": -3.2500315667,
				"y": 0.1117476186,
				"z": 1.2029425556,
				"element": "C" 
			},
			{
				"x": -3.4679350846,
				"y": -1.0513094228,
				"z": 2.8230442552,
				"element": "Br" 
			},
			{
				"x": -1.0946590073,
				"y": 1.1570484251,
				"z": 1.6656414412,
				"element": "O" 
			},
			{
				"x": 0.1603027889,
				"y": 1.1603526211,
				"z": 1.1135935559,
				"element": "C" 
			},
			{
				"x": 0.2561565556,
				"y": 0.4154840354,
				"z": 0.0492815579,
				"element": "N" 
			},
			{
				"x": 1.1960426797,
				"y": 1.9656415284,
				"z": 1.751224471,
				"element": "C" 
			},
			{
				"x": 2.4801113199,
				"y": 1.9980885794,
				"z": 1.1821159774,
				"element": "C" 
			},
			{
				"x": 3.4829139204,
				"y": 2.7592708098,
				"z": 1.7746853794,
				"element": "C" 
			},
			{
				"x": 3.2177204134,
				"y": 3.4926050273,
				"z": 2.9351233589,
				"element": "C" 
			},
			{
				"x": 1.9420327247,
				"y": 3.461116447,
				"z": 3.5028890259,
				"element": "C" 
			},
			{
				"x": 0.9315210665,
				"y": 2.7017708695,
				"z": 2.9169621565,
				"element": "C" 
			},
			{
				"x": 1.3919206972,
				"y": -2.942135782,
				"z": -3.2084208941,
				"element": "H" 
			},
			{
				"x": 0.4599464682,
				"y": -3.1562275401,
				"z": -4.703613617,
				"element": "H" 
			},
			{
				"x": 1.0472780789,
				"y": -1.5452836876,
				"z": -4.2450482245,
				"element": "H" 
			},
			{
				"x": -1.0754671638,
				"y": -3.1724802742,
				"z": -2.7044338446,
				"element": "H" 
			},
			{
				"x": -1.419103788,
				"y": -1.7824222705,
				"z": -3.7369332532,
				"element": "H" 
			},
			{
				"x": -3.764756041,
				"y": 1.0350606026,
				"z": 1.4634430321,
				"element": "H" 
			},
			{
				"x": -3.741107815,
				"y": -0.4169163551,
				"z": 0.3911989704,
				"element": "H" 
			},
			{
				"x": 2.6696978962,
				"y": 1.4234146814,
				"z": 0.2818961545,
				"element": "H" 
			},
			{
				"x": 4.4740486877,
				"y": 2.7814443071,
				"z": 1.3314877788,
				"element": "H" 
			},
			{
				"x": 4.0028100197,
				"y": 4.0855626814,
				"z": 3.3950850382,
				"element": "H" 
			},
			{
				"x": 1.7331072009,
				"y": 4.0282233598,
				"z": 4.4050602396,
				"element": "H" 
			},
			{
				"x": -0.0591312346,
				"y": 2.6733228959,
				"z": 3.3577435032,
				"element": "H" 
			}
		],
		 "valence_orbital": [ 
			{
				"type": "occ",
				"energy": -0.2824,
				"method": "rhf"
			},
			{
				"type": "occ",
				"energy": -0.27643,
				"method": "rhf"
			},
			{
				"type": "occ",
				"energy": -0.272,
				"method": "rhf"
			},
			{
				"type": "occ",
				"energy": -0.26304,
				"method": "rhf"
			},
			{
				"type": "occ",
				"energy": -0.2327,
				"method": "rhf"
			},
			{
				"type": "unocc",
				"energy": -0.0663,
				"method": "rhf"
			},
			{
				"type": "unocc",
				"energy": -0.04348,
				"method": "rhf"
			},
			{
				"type": "unocc",
				"energy": -0.01175,
				"method": "rhf"
			},
			{
				"type": "unocc",
				"energy": 0.01109,
				"method": "rhf"
			},
			{
				"type": "unocc",
				"energy": 0.04908,
				"method": "rhf"
			}
		],
		"cosmo_sigma_profile": { 
			"-0.025": 0.0,
			"-0.024": 0.0,
			"-0.023": 0.0,
			"-0.022": 0.0,
			"-0.021": 0.0,
			"-0.02": 0.0,
			"-0.019": 0.0,
			"-0.018": 0.0,
			"-0.017": 0.0,
			"-0.016": 0.0,
			"-0.015": 0.0,
			"-0.014": 0.0,
			"-0.013": 0.0,
			"-0.012": 0.0,
			"-0.011": 0.0,
			"-0.01": 0.529653151539,
			"-0.009": 2.30274879618,
			"-0.008": 1.85909769808,
			"-0.007": 4.55655591912,
			"-0.006": 14.3566306129,
			"-0.005": 22.4673469215,
			"-0.004": 28.4059308294,
			"-0.003": 28.3407400313,
			"-0.002": 26.422802612,
			"-0.001": 25.6208753861,
			"0.0": 23.5806564525,
			"0.001": 22.3085887189,
			"0.002": 18.6572183395,
			"0.003": 21.3162837754,
			"0.004": 20.7565449072,
			"0.005": 15.7287445435,
			"0.006": 8.68065267805,
			"0.007": 3.85173926166,
			"0.008": 2.65093895359,
			"0.009": 3.41634197738,
			"0.01": 2.77690555613,
			"0.011": 3.83353389359,
			"0.012": 2.66373568952,
			"0.013": 1.13267938688,
			"0.014": 1.06258207172,
			"0.015": 0.127707018301,
			"0.016": 0.0,
			"0.017": 0.0,
			"0.018": 0.0,
			"0.019": 0.0,
			"0.02": 0.0,
			"0.021": 0.0,
			"0.022": 0.0,
			"0.023": 0.0,
			"0.024": 0.0,
			"0.025": 0.0
		}
	}
}
