{
	 "smiles": "COC1=CC=C(Br)C=C1C=C[N+]([O-])=O", 
	 "Tm": 394.15, 
	 "num_atms": 22, 
	 "gaussian": { 
		 "optdone": 1, 
		 "sigma_profile": "yes", 
		 "theory": "DFT", 
		 "functional": "B3LYP", 
		 "basiset": "6-31G**", 
		 "properties": { 
			 "R2extent": 6238.8146, 
			 "electric_dipole_moment_norm": 6.59633831607, 
			 "electric_quadrupole_moment_norm": 19.8358974909, 
			 "total_energy": -3199.47721304, 
			 "HOMO_LUMO_gap": 0.14385, 
			 "cosmo_polarized_energy": -12.64, 
			 "cosmo_cavitation_energy": 29.87, 
			 "cosmo_dispersion_energy": -21.94, 
			 "cosmo_repulsion_energy": 1.73, 
			 "cosmo_total_nonelectrostatic_energy": 9.66, 
			 "SMD_solvation_energy": 7.5 
		},
		"coords": [
			{
				"x": 1.7664637691,
				"y": -1.7018593037,
				"z": -0.6122026358,
				"element": "C" 
			},
			{
				"x": 0.4300575379,
				"y": -1.2194499003,
				"z": -0.7171431616,
				"element": "O" 
			},
			{
				"x": 0.0782413634,
				"y": -0.0947367526,
				"z": -0.0450491438,
				"element": "C" 
			},
			{
				"x": 0.9644022453,
				"y": 0.6314155775,
				"z": 0.7578498055,
				"element": "C" 
			},
			{
				"x": 0.5426064438,
				"y": 1.7816762835,
				"z": 1.4245988122,
				"element": "C" 
			},
			{
				"x": -0.7745254016,
				"y": 2.2124033064,
				"z": 1.2900359007,
				"element": "C" 
			},
			{
				"x": -1.3581841524,
				"y": 3.7851497537,
				"z": 2.1995345658,
				"element": "Br" 
			},
			{
				"x": -1.6655114803,
				"y": 1.5019440694,
				"z": 0.4965887385,
				"element": "C" 
			},
			{
				"x": -1.2684893009,
				"y": 0.3382538403,
				"z": -0.1877623441,
				"element": "C" 
			},
			{
				"x": -2.2800495164,
				"y": -0.3318252861,
				"z": -0.9927259006,
				"element": "C" 
			},
			{
				"x": -2.1792148429,
				"y": -1.4436220387,
				"z": -1.7384313604,
				"element": "C" 
			},
			{
				"x": -3.344010429,
				"y": -1.9266653544,
				"z": -2.4627738977,
				"element": "N" 
			},
			{
				"x": -3.1702924384,
				"y": -2.9544201061,
				"z": -3.1243457396,
				"element": "O" 
			},
			{
				"x": -4.4103782542,
				"y": -1.3113211769,
				"z": -2.3858747576,
				"element": "O" 
			},
			{
				"x": 2.4861679344,
				"y": -0.9675478012,
				"z": -0.99214777,
				"element": "H" 
			},
			{
				"x": 2.0167216831,
				"y": -1.9600305932,
				"z": 0.4232979625,
				"element": "H" 
			},
			{
				"x": 1.806289478,
				"y": -2.6000378356,
				"z": -1.2287861256,
				"element": "H" 
			},
			{
				"x": 1.9917480249,
				"y": 0.3096242748,
				"z": 0.8727815621,
				"element": "H" 
			},
			{
				"x": 1.239092798,
				"y": 2.3354130248,
				"z": 2.0437667509,
				"element": "H" 
			},
			{
				"x": -2.6897359905,
				"y": 1.8441714702,
				"z": 0.3971575289,
				"element": "H" 
			},
			{
				"x": -3.262661161,
				"y": 0.1343613983,
				"z": -0.9917295046,
				"element": "H" 
			},
			{
				"x": -1.3139383104,
				"y": -2.0656968501,
				"z": -1.8873392855,
				"element": "H" 
			}
		],
		 "valence_orbital": [ 
			{
				"type": "occ",
				"energy": -0.29694,
				"method": "rhf"
			},
			{
				"type": "occ",
				"energy": -0.29537,
				"method": "rhf"
			},
			{
				"type": "occ",
				"energy": -0.27883,
				"method": "rhf"
			},
			{
				"type": "occ",
				"energy": -0.26646,
				"method": "rhf"
			},
			{
				"type": "occ",
				"energy": -0.23832,
				"method": "rhf"
			},
			{
				"type": "unocc",
				"energy": -0.09447,
				"method": "rhf"
			},
			{
				"type": "unocc",
				"energy": -0.02816,
				"method": "rhf"
			},
			{
				"type": "unocc",
				"energy": -0.02149,
				"method": "rhf"
			},
			{
				"type": "unocc",
				"energy": -0.00499,
				"method": "rhf"
			},
			{
				"type": "unocc",
				"energy": 0.04442,
				"method": "rhf"
			}
		],
		"cosmo_sigma_profile": { 
			"-0.025": 0.0,
			"-0.024": 0.0,
			"-0.023": 0.0,
			"-0.022": 0.0,
			"-0.021": 0.0,
			"-0.02": 0.0,
			"-0.019": 0.0,
			"-0.018": 0.0,
			"-0.017": 0.0,
			"-0.016": 0.0,
			"-0.015": 0.0,
			"-0.014": 0.0,
			"-0.013": 0.0,
			"-0.012": 0.0,
			"-0.011": 0.00251099675299,
			"-0.01": 0.940563916101,
			"-0.009": 1.99835348698,
			"-0.008": 5.56397807798,
			"-0.007": 9.93552153795,
			"-0.006": 14.584344403,
			"-0.005": 14.9895239495,
			"-0.004": 17.4639199448,
			"-0.003": 14.4037617986,
			"-0.002": 15.0757915338,
			"-0.001": 14.8443023077,
			"0.0": 23.0878863969,
			"0.001": 25.203939376,
			"0.002": 20.8105819516,
			"0.003": 10.8808860923,
			"0.004": 14.764000229,
			"0.005": 7.23954273684,
			"0.006": 2.33503469186,
			"0.007": 4.43981942506,
			"0.008": 9.53039845844,
			"0.009": 7.87936233478,
			"0.01": 4.76244705591,
			"0.011": 2.15229111651,
			"0.012": 0.0427828626805,
			"0.013": 0.0,
			"0.014": 0.0,
			"0.015": 0.0,
			"0.016": 0.0,
			"0.017": 0.0,
			"0.018": 0.0,
			"0.019": 0.0,
			"0.02": 0.0,
			"0.021": 0.0,
			"0.022": 0.0,
			"0.023": 0.0,
			"0.024": 0.0,
			"0.025": 0.0
		}
	}
}
