{
	 "smiles": "COC1=C(Cl)C=C(Br)C=C1", 
	 "Tm": 343.15, 
	 "num_atms": 16, 
	 "gaussian": { 
		 "optdone": 1, 
		 "sigma_profile": "yes", 
		 "theory": "DFT", 
		 "functional": "B3LYP", 
		 "basiset": "6-31G**", 
		 "properties": { 
			 "R2extent": 3424.8716, 
			 "electric_dipole_moment_norm": 2.1702554504, 
			 "electric_quadrupole_moment_norm": 6.14751158437, 
			 "total_energy": -3377.16083902, 
			 "HOMO_LUMO_gap": 0.21526, 
			 "cosmo_polarized_energy": -5.37, 
			 "cosmo_cavitation_energy": 24.28, 
			 "cosmo_dispersion_energy": -18.31, 
			 "cosmo_repulsion_energy": 1.49, 
			 "cosmo_total_nonelectrostatic_energy": 7.46, 
			 "SMD_solvation_energy": 3.59 
		},
		"coords": [
			{
				"x": 0.0308817017,
				"y": 2.7685865566,
				"z": 1.2495228605,
				"element": "C" 
			},
			{
				"x": 0.9163600957,
				"y": 1.7357615939,
				"z": 0.8024693979,
				"element": "O" 
			},
			{
				"x": 0.3042395427,
				"y": 0.5842251037,
				"z": 0.3882368651,
				"element": "C" 
			},
			{
				"x": -0.1326736425,
				"y": 0.4163541289,
				"z": -0.9358019788,
				"element": "C" 
			},
			{
				"x": 0.0578170313,
				"y": 1.7201395775,
				"z": -2.0884875767,
				"element": "Cl" 
			},
			{
				"x": -0.7026315477,
				"y": -0.7844651535,
				"z": -1.3587782345,
				"element": "C" 
			},
			{
				"x": -0.8376935616,
				"y": -1.8261167866,
				"z": -0.4435213276,
				"element": "C" 
			},
			{
				"x": -1.617998226,
				"y": -3.4715854005,
				"z": -1.0181322716,
				"element": "Br" 
			},
			{
				"x": -0.4097346907,
				"y": -1.6896394765,
				"z": 0.875851232,
				"element": "C" 
			},
			{
				"x": 0.1567018379,
				"y": -0.4824699524,
				"z": 1.280044165,
				"element": "C" 
			},
			{
				"x": 0.6652170426,
				"y": 3.6025366045,
				"z": 1.5542674989,
				"element": "H" 
			},
			{
				"x": -0.6390733832,
				"y": 3.09636728,
				"z": 0.4469329668,
				"element": "H" 
			},
			{
				"x": -0.5657400438,
				"y": 2.4310352031,
				"z": 2.106402703,
				"element": "H" 
			},
			{
				"x": -1.029345614,
				"y": -0.8986421642,
				"z": -2.384786577,
				"element": "H" 
			},
			{
				"x": -0.5152077112,
				"y": -2.5117792012,
				"z": 1.5738265476,
				"element": "H" 
			},
			{
				"x": 0.5101811687,
				"y": -0.3501079134,
				"z": 2.2976537293,
				"element": "H" 
			}
		],
		 "valence_orbital": [ 
			{
				"type": "occ",
				"energy": -0.30649,
				"method": "rhf"
			},
			{
				"type": "occ",
				"energy": -0.29427,
				"method": "rhf"
			},
			{
				"type": "occ",
				"energy": -0.28584,
				"method": "rhf"
			},
			{
				"type": "occ",
				"energy": -0.26436,
				"method": "rhf"
			},
			{
				"type": "occ",
				"energy": -0.24249,
				"method": "rhf"
			},
			{
				"type": "unocc",
				"energy": -0.02723,
				"method": "rhf"
			},
			{
				"type": "unocc",
				"energy": -0.02194,
				"method": "rhf"
			},
			{
				"type": "unocc",
				"energy": -0.00892,
				"method": "rhf"
			},
			{
				"type": "unocc",
				"energy": 0.03886,
				"method": "rhf"
			},
			{
				"type": "unocc",
				"energy": 0.10339,
				"method": "rhf"
			}
		],
		"cosmo_sigma_profile": { 
			"-0.025": 0.0,
			"-0.024": 0.0,
			"-0.023": 0.0,
			"-0.022": 0.0,
			"-0.021": 0.0,
			"-0.02": 0.0,
			"-0.019": 0.0,
			"-0.018": 0.0,
			"-0.017": 0.0,
			"-0.016": 0.0,
			"-0.015": 0.0,
			"-0.014": 0.0,
			"-0.013": 0.0,
			"-0.012": 0.0,
			"-0.011": 0.0,
			"-0.01": 0.0,
			"-0.009": 0.122448681315,
			"-0.008": 2.65280389408,
			"-0.007": 4.94476715097,
			"-0.006": 7.7676008842,
			"-0.005": 10.2356178059,
			"-0.004": 15.0849861971,
			"-0.003": 18.2881136921,
			"-0.002": 13.3762573851,
			"-0.001": 13.2590408862,
			"0.0": 14.9075865109,
			"0.001": 24.6204891568,
			"0.002": 24.0263424088,
			"0.003": 15.4166544881,
			"0.004": 19.4075515256,
			"0.005": 6.32583388325,
			"0.006": 1.94495576692,
			"0.007": 1.76196922305,
			"0.008": 1.55296450456,
			"0.009": 1.21586566916,
			"0.01": 1.77016023965,
			"0.011": 1.28932409386,
			"0.012": 0.0426733832773,
			"0.013": 0.0,
			"0.014": 0.0,
			"0.015": 0.0,
			"0.016": 0.0,
			"0.017": 0.0,
			"0.018": 0.0,
			"0.019": 0.0,
			"0.02": 0.0,
			"0.021": 0.0,
			"0.022": 0.0,
			"0.023": 0.0,
			"0.024": 0.0,
			"0.025": 0.0
		}
	}
}
