{
	 "smiles": "OC(=O)C1=CC(F)=CC(Br)=C1", 
	 "Tm": 416.15, 
	 "num_atms": 15, 
	 "gaussian": { 
		 "optdone": 1, 
		 "sigma_profile": "yes", 
		 "theory": "DFT", 
		 "functional": "B3LYP", 
		 "basiset": "6-31G**", 
		 "properties": { 
			 "R2extent": 3418.6146, 
			 "electric_dipole_moment_norm": 1.22059563329, 
			 "electric_quadrupole_moment_norm": 7.74072372004, 
			 "total_energy": -3090.8569735, 
			 "HOMO_LUMO_gap": 0.19082, 
			 "cosmo_polarized_energy": -8.16, 
			 "cosmo_cavitation_energy": 23.23, 
			 "cosmo_dispersion_energy": -17.39, 
			 "cosmo_repulsion_energy": 1.38, 
			 "cosmo_total_nonelectrostatic_energy": 7.21, 
			 "SMD_solvation_energy": 4.69 
		},
		"coords": [
			{
				"x": -2.3952618784,
				"y": 2.0221290996,
				"z": -1.7947024776,
				"element": "O" 
			},
			{
				"x": -2.1657741466,
				"y": 0.7169598857,
				"z": -1.5185534878,
				"element": "C" 
			},
			{
				"x": -2.9936096194,
				"y": -0.148264498,
				"z": -1.7159697535,
				"element": "O" 
			},
			{
				"x": -0.8066451642,
				"y": 0.4723699754,
				"z": -0.9545264822,
				"element": "C" 
			},
			{
				"x": -0.4707544895,
				"y": -0.8478340938,
				"z": -0.6342199731,
				"element": "C" 
			},
			{
				"x": 0.7878237194,
				"y": -1.0976348266,
				"z": -0.1086435729,
				"element": "C" 
			},
			{
				"x": 1.1296945333,
				"y": -2.3601996306,
				"z": 0.2057274923,
				"element": "F" 
			},
			{
				"x": 1.7200695473,
				"y": -0.0864883489,
				"z": 0.1088219697,
				"element": "C" 
			},
			{
				"x": 1.3570639887,
				"y": 1.2186975219,
				"z": -0.2198789936,
				"element": "C" 
			},
			{
				"x": 2.6129276824,
				"y": 2.626605215,
				"z": 0.0664863554,
				"element": "Br" 
			},
			{
				"x": 0.1043706398,
				"y": 1.5170939197,
				"z": -0.7501093413,
				"element": "C" 
			},
			{
				"x": -3.2973157999,
				"y": 2.0672370751,
				"z": -2.1518781636,
				"element": "H" 
			},
			{
				"x": -1.1819339501,
				"y": -1.6486723197,
				"z": -0.7959463935,
				"element": "H" 
			},
			{
				"x": 2.693006877,
				"y": -0.3228506822,
				"z": 0.52131392,
				"element": "H" 
			},
			{
				"x": -0.1636619398,
				"y": 2.5346517074,
				"z": -1.0005210983,
				"element": "H" 
			}
		],
		 "valence_orbital": [ 
			{
				"type": "occ",
				"energy": -0.32128,
				"method": "rhf"
			},
			{
				"type": "occ",
				"energy": -0.3013,
				"method": "rhf"
			},
			{
				"type": "occ",
				"energy": -0.29057,
				"method": "rhf"
			},
			{
				"type": "occ",
				"energy": -0.27555,
				"method": "rhf"
			},
			{
				"type": "occ",
				"energy": -0.25829,
				"method": "rhf"
			},
			{
				"type": "unocc",
				"energy": -0.06747,
				"method": "rhf"
			},
			{
				"type": "unocc",
				"energy": -0.02562,
				"method": "rhf"
			},
			{
				"type": "unocc",
				"energy": -0.00764,
				"method": "rhf"
			},
			{
				"type": "unocc",
				"energy": 0.04194,
				"method": "rhf"
			},
			{
				"type": "unocc",
				"energy": 0.06781,
				"method": "rhf"
			}
		],
		"cosmo_sigma_profile": { 
			"-0.025": 0.0,
			"-0.024": 0.0,
			"-0.023": 0.0,
			"-0.022": 0.0,
			"-0.021": 0.0,
			"-0.02": 0.0,
			"-0.019": 0.601281736122,
			"-0.018": 0.850523476059,
			"-0.017": 0.863972597623,
			"-0.016": 0.685540181934,
			"-0.015": 0.748363589867,
			"-0.014": 0.388599957054,
			"-0.013": 0.727825953996,
			"-0.012": 0.922169016155,
			"-0.011": 0.568549638121,
			"-0.01": 0.845312188689,
			"-0.009": 1.70424074433,
			"-0.008": 2.56629003373,
			"-0.007": 4.3097421557,
			"-0.006": 5.42348390669,
			"-0.005": 5.66796126156,
			"-0.004": 7.68117082176,
			"-0.003": 9.51265509454,
			"-0.002": 11.9842071218,
			"-0.001": 22.2020844678,
			"0.0": 27.0620804879,
			"0.001": 17.6460645054,
			"0.002": 11.83028459,
			"0.003": 17.6519866777,
			"0.004": 18.0037922642,
			"0.005": 3.07865070418,
			"0.006": 2.79574791355,
			"0.007": 2.46782898553,
			"0.008": 1.48056314034,
			"0.009": 1.59672495423,
			"0.01": 2.55399866481,
			"0.011": 4.92089502878,
			"0.012": 1.0699140949,
			"0.013": 0.0,
			"0.014": 0.0,
			"0.015": 0.0,
			"0.016": 0.0,
			"0.017": 0.0,
			"0.018": 0.0,
			"0.019": 0.0,
			"0.02": 0.0,
			"0.021": 0.0,
			"0.022": 0.0,
			"0.023": 0.0,
			"0.024": 0.0,
			"0.025": 0.0
		}
	}
}
