{
	 "smiles": "OC1=CC2=C(C=C1O)C(CN1CCOCC1)=CC(=O)O2", 
	 "Tm": 505.15, 
	 "num_atms": 35, 
	 "gaussian": { 
		 "optdone": 1, 
		 "sigma_profile": "yes", 
		 "theory": "DFT", 
		 "functional": "B3LYP", 
		 "basiset": "6-31G**", 
		 "properties": { 
			 "R2extent": 6323.9784, 
			 "electric_dipole_moment_norm": 6.48009174704, 
			 "electric_quadrupole_moment_norm": 20.454325115, 
			 "total_energy": -973.358972209, 
			 "HOMO_LUMO_gap": 0.15332, 
			 "cosmo_polarized_energy": -23.62, 
			 "cosmo_cavitation_energy": 37.13, 
			 "cosmo_dispersion_energy": -27.04, 
			 "cosmo_repulsion_energy": 2.07, 
			 "cosmo_total_nonelectrostatic_energy": 12.16, 
			 "SMD_solvation_energy": 5.78 
		},
		"coords": [
			{
				"x": 4.7478283654,
				"y": -1.5474142143,
				"z": 1.3372093424,
				"element": "O" 
			},
			{
				"x": 3.5571524598,
				"y": -1.3106601904,
				"z": 0.7377881793,
				"element": "C" 
			},
			{
				"x": 3.5120627177,
				"y": -0.7183623339,
				"z": -0.5157526616,
				"element": "C" 
			},
			{
				"x": 2.2755159225,
				"y": -0.484027419,
				"z": -1.121626593,
				"element": "C" 
			},
			{
				"x": 1.0575538596,
				"y": -0.8189215722,
				"z": -0.4924686705,
				"element": "C" 
			},
			{
				"x": 1.1336723652,
				"y": -1.4327540525,
				"z": 0.7803481888,
				"element": "C" 
			},
			{
				"x": 2.3519754923,
				"y": -1.6732908689,
				"z": 1.3833376444,
				"element": "C" 
			},
			{
				"x": 2.5243831048,
				"y": -2.2635751092,
				"z": 2.6143248895,
				"element": "O" 
			},
			{
				"x": -0.1740955585,
				"y": -0.5472897012,
				"z": -1.2128933671,
				"element": "C" 
			},
			{
				"x": -1.5544568279,
				"y": -0.7810967601,
				"z": -0.5997372932,
				"element": "C" 
			},
			{
				"x": -2.1279589878,
				"y": 0.331579922,
				"z": 0.1521944023,
				"element": "N" 
			},
			{
				"x": -2.4403316426,
				"y": 1.5292687367,
				"z": -0.6321061641,
				"element": "C" 
			},
			{
				"x": -2.7324214499,
				"y": 2.7086198983,
				"z": 0.3104316657,
				"element": "C" 
			},
			{
				"x": -3.4353773607,
				"y": 2.2790611389,
				"z": 1.460806849,
				"element": "O" 
			},
			{
				"x": -2.6546815335,
				"y": 1.407690809,
				"z": 2.273101586,
				"element": "C" 
			},
			{
				"x": -1.5897500238,
				"y": 0.6312856951,
				"z": 1.4689783321,
				"element": "C" 
			},
			{
				"x": -0.0894240502,
				"y": -0.0255960662,
				"z": -2.4677900465,
				"element": "C" 
			},
			{
				"x": 1.16612182,
				"y": 0.323502018,
				"z": -3.111632063,
				"element": "C" 
			},
			{
				"x": 1.3000866599,
				"y": 0.8013653084,
				"z": -4.2147007749,
				"element": "O" 
			},
			{
				"x": 2.3167986798,
				"y": 0.0840091738,
				"z": -2.3605113482,
				"element": "O" 
			},
			{
				"x": 4.5702537453,
				"y": -1.9716776408,
				"z": 2.1909333458,
				"element": "H" 
			},
			{
				"x": 4.4277618195,
				"y": -0.4455478613,
				"z": -1.0262415285,
				"element": "H" 
			},
			{
				"x": 0.2246347925,
				"y": -1.7297013946,
				"z": 1.2925037048,
				"element": "H" 
			},
			{
				"x": 1.6709918037,
				"y": -2.5136897652,
				"z": 2.9884787289,
				"element": "H" 
			},
			{
				"x": -1.5432199994,
				"y": -1.6607965722,
				"z": 0.0529215764,
				"element": "H" 
			},
			{
				"x": -2.2463129731,
				"y": -1.0087124659,
				"z": -1.4198191561,
				"element": "H" 
			},
			{
				"x": -1.6220733152,
				"y": 1.8275713697,
				"z": -1.3097979556,
				"element": "H" 
			},
			{
				"x": -3.3181172454,
				"y": 1.3116981711,
				"z": -1.255906466,
				"element": "H" 
			},
			{
				"x": -3.3637923839,
				"y": 3.4458728051,
				"z": -0.1924757638,
				"element": "H" 
			},
			{
				"x": -1.7954991995,
				"y": 3.2161542706,
				"z": 0.5911970244,
				"element": "H" 
			},
			{
				"x": -3.3633907133,
				"y": 0.7088496439,
				"z": 2.7291928701,
				"element": "H" 
			},
			{
				"x": -2.161445715,
				"y": 1.9741298129,
				"z": 3.0799704725,
				"element": "H" 
			},
			{
				"x": -0.6371111372,
				"y": 1.1904693796,
				"z": 1.4412672154,
				"element": "H" 
			},
			{
				"x": -1.382470682,
				"y": -0.3072505658,
				"z": 1.9933791938,
				"element": "H" 
			},
			{
				"x": -0.9747628091,
				"y": 0.1588364005,
				"z": -3.0660053596,
				"element": "H" 
			}
		],
		 "valence_orbital": [ 
			{
				"type": "occ",
				"energy": -0.26815,
				"method": "rhf"
			},
			{
				"type": "occ",
				"energy": -0.25308,
				"method": "rhf"
			},
			{
				"type": "occ",
				"energy": -0.24927,
				"method": "rhf"
			},
			{
				"type": "occ",
				"energy": -0.21754,
				"method": "rhf"
			},
			{
				"type": "occ",
				"energy": -0.21618,
				"method": "rhf"
			},
			{
				"type": "unocc",
				"energy": -0.06286,
				"method": "rhf"
			},
			{
				"type": "unocc",
				"energy": -0.0087,
				"method": "rhf"
			},
			{
				"type": "unocc",
				"energy": 0.00601,
				"method": "rhf"
			},
			{
				"type": "unocc",
				"energy": 0.03397,
				"method": "rhf"
			},
			{
				"type": "unocc",
				"energy": 0.05701,
				"method": "rhf"
			}
		],
		"cosmo_sigma_profile": { 
			"-0.025": 0.0,
			"-0.024": 0.0,
			"-0.023": 0.0,
			"-0.022": 0.0,
			"-0.021": 0.0,
			"-0.02": 0.0,
			"-0.019": 0.329238199902,
			"-0.018": 1.36754062919,
			"-0.017": 0.817702509436,
			"-0.016": 1.45910370177,
			"-0.015": 1.75388677605,
			"-0.014": 1.75852093703,
			"-0.013": 1.07547319204,
			"-0.012": 1.0906271124,
			"-0.011": 2.06906467171,
			"-0.01": 3.01995457085,
			"-0.009": 3.04346262309,
			"-0.008": 3.19666629514,
			"-0.007": 5.8443384144,
			"-0.006": 8.22517323444,
			"-0.005": 14.0279008877,
			"-0.004": 23.0639432873,
			"-0.003": 34.9083049218,
			"-0.002": 27.28817499,
			"-0.001": 20.3166728473,
			"0.0": 19.5426257639,
			"0.001": 18.4671057114,
			"0.002": 22.1895591926,
			"0.003": 11.1219021195,
			"0.004": 7.03999005898,
			"0.005": 7.22373106966,
			"0.006": 6.95915561165,
			"0.007": 4.91094514902,
			"0.008": 5.63987181798,
			"0.009": 7.08247019631,
			"0.01": 5.50347631964,
			"0.011": 4.77613553114,
			"0.012": 8.86331928743,
			"0.013": 7.19649734898,
			"0.014": 2.03813746617,
			"0.015": 0.0,
			"0.016": 0.0,
			"0.017": 0.0,
			"0.018": 0.0,
			"0.019": 0.0,
			"0.02": 0.0,
			"0.021": 0.0,
			"0.022": 0.0,
			"0.023": 0.0,
			"0.024": 0.0,
			"0.025": 0.0
		}
	}
}
