{
	 "smiles": "O=C1NC2(CO1)CCN(CC1=CC=CC=C1)CC2", 
	 "Tm": 438.15, 
	 "num_atms": 36, 
	 "gaussian": { 
		 "optdone": 1, 
		 "sigma_profile": "yes", 
		 "theory": "DFT", 
		 "functional": "B3LYP", 
		 "basiset": "6-31G**", 
		 "properties": { 
			 "R2extent": 6530.9216, 
			 "electric_dipole_moment_norm": 5.32698896657, 
			 "electric_quadrupole_moment_norm": 35.0159654655, 
			 "total_energy": -804.30233585, 
			 "HOMO_LUMO_gap": 0.21244, 
			 "cosmo_polarized_energy": -17.22, 
			 "cosmo_cavitation_energy": 36.86, 
			 "cosmo_dispersion_energy": -26.27, 
			 "cosmo_repulsion_energy": 2.01, 
			 "cosmo_total_nonelectrostatic_energy": 12.6, 
			 "SMD_solvation_energy": 4.85 
		},
		"coords": [
			{
				"x": -5.3504354126,
				"y": -1.0367449283,
				"z": -2.5145732994,
				"element": "O" 
			},
			{
				"x": -4.7068670563,
				"y": -0.6709854699,
				"z": -1.5625472109,
				"element": "C" 
			},
			{
				"x": -3.5613423534,
				"y": 0.1027449755,
				"z": -1.5528692409,
				"element": "N" 
			},
			{
				"x": -2.8842992268,
				"y": 0.0537073563,
				"z": -0.2513346207,
				"element": "C" 
			},
			{
				"x": -4.1162802149,
				"y": -0.3015165276,
				"z": 0.6156303372,
				"element": "C" 
			},
			{
				"x": -5.033025024,
				"y": -0.9683900433,
				"z": -0.2637607783,
				"element": "O" 
			},
			{
				"x": -2.2637617633,
				"y": 1.4089777468,
				"z": 0.1289999089,
				"element": "C" 
			},
			{
				"x": -1.0037377198,
				"y": 1.7058271805,
				"z": -0.7102865944,
				"element": "C" 
			},
			{
				"x": 0.0158722108,
				"y": 0.6562688124,
				"z": -0.6651109237,
				"element": "N" 
			},
			{
				"x": 0.8144100119,
				"y": 0.6389521481,
				"z": 0.5636454405,
				"element": "C" 
			},
			{
				"x": 2.1074412286,
				"y": -0.1438678394,
				"z": 0.4125994666,
				"element": "C" 
			},
			{
				"x": 2.5449570967,
				"y": -1.0006471895,
				"z": 1.4285647783,
				"element": "C" 
			},
			{
				"x": 3.759127098,
				"y": -1.682306005,
				"z": 1.3159148905,
				"element": "C" 
			},
			{
				"x": 4.5479276916,
				"y": -1.519009604,
				"z": 0.1770234267,
				"element": "C" 
			},
			{
				"x": 4.1156888606,
				"y": -0.6711548133,
				"z": -0.8466783272,
				"element": "C" 
			},
			{
				"x": 2.9058377354,
				"y": 0.0117157936,
				"z": -0.7291772986,
				"element": "C" 
			},
			{
				"x": -0.5552254211,
				"y": -0.6437419818,
				"z": -1.0339546078,
				"element": "C" 
			},
			{
				"x": -1.7902881165,
				"y": -1.0391069046,
				"z": -0.2008350603,
				"element": "C" 
			},
			{
				"x": -3.050803245,
				"y": 0.1517215924,
				"z": -2.4222055424,
				"element": "H" 
			},
			{
				"x": -3.8760883694,
				"y": -0.9733128768,
				"z": 1.443154105,
				"element": "H" 
			},
			{
				"x": -4.5958371144,
				"y": 0.6030955031,
				"z": 1.0100898804,
				"element": "H" 
			},
			{
				"x": -3.0068099177,
				"y": 2.2017922694,
				"z": -0.0121116689,
				"element": "H" 
			},
			{
				"x": -2.0028610469,
				"y": 1.3900127806,
				"z": 1.1954598363,
				"element": "H" 
			},
			{
				"x": -0.5519917761,
				"y": 2.6510469839,
				"z": -0.3914992178,
				"element": "H" 
			},
			{
				"x": -1.3003089728,
				"y": 1.8418708189,
				"z": -1.7602858224,
				"element": "H" 
			},
			{
				"x": 1.0576202229,
				"y": 1.6847007078,
				"z": 0.7945645201,
				"element": "H" 
			},
			{
				"x": 0.27101717,
				"y": 0.2543401022,
				"z": 1.4458248967,
				"element": "H" 
			},
			{
				"x": 1.9311492316,
				"y": -1.1352559949,
				"z": 2.3165162919,
				"element": "H" 
			},
			{
				"x": 4.0832792605,
				"y": -2.344282935,
				"z": 2.1140673752,
				"element": "H" 
			},
			{
				"x": 5.4906468699,
				"y": -2.0507285583,
				"z": 0.0844885793,
				"element": "H" 
			},
			{
				"x": 4.7239104636,
				"y": -0.541832682,
				"z": -1.7377592301,
				"element": "H" 
			},
			{
				"x": 2.55825639,
				"y": 0.6631608725,
				"z": -1.5252579298,
				"element": "H" 
			},
			{
				"x": 0.2227784706,
				"y": -1.406927284,
				"z": -0.94636888,
				"element": "H" 
			},
			{
				"x": -0.8278340178,
				"y": -0.6020900591,
				"z": -2.0983177057,
				"element": "H" 
			},
			{
				"x": -1.4945949838,
				"y": -1.1877766734,
				"z": 0.8455729424,
				"element": "H" 
			},
			{
				"x": -2.2007282601,
				"y": -1.9926572739,
				"z": -0.5536827168,
				"element": "H" 
			}
		],
		 "valence_orbital": [ 
			{
				"type": "occ",
				"energy": -0.2719,
				"method": "rhf"
			},
			{
				"type": "occ",
				"energy": -0.25891,
				"method": "rhf"
			},
			{
				"type": "occ",
				"energy": -0.2527,
				"method": "rhf"
			},
			{
				"type": "occ",
				"energy": -0.24746,
				"method": "rhf"
			},
			{
				"type": "occ",
				"energy": -0.22009,
				"method": "rhf"
			},
			{
				"type": "unocc",
				"energy": -0.00765,
				"method": "rhf"
			},
			{
				"type": "unocc",
				"energy": -0.00372,
				"method": "rhf"
			},
			{
				"type": "unocc",
				"energy": 0.04734,
				"method": "rhf"
			},
			{
				"type": "unocc",
				"energy": 0.05912,
				"method": "rhf"
			},
			{
				"type": "unocc",
				"energy": 0.06824,
				"method": "rhf"
			}
		],
		"cosmo_sigma_profile": { 
			"-0.025": 0.0,
			"-0.024": 0.0,
			"-0.023": 0.0,
			"-0.022": 0.0,
			"-0.021": 0.0,
			"-0.02": 0.0,
			"-0.019": 0.0,
			"-0.018": 0.0,
			"-0.017": 0.0,
			"-0.016": 0.0,
			"-0.015": 0.0,
			"-0.014": 0.289655426968,
			"-0.013": 0.605023702586,
			"-0.012": 1.41038923959,
			"-0.011": 1.77381660269,
			"-0.01": 1.55946686496,
			"-0.009": 1.10500386233,
			"-0.008": 1.58725951633,
			"-0.007": 2.69280815057,
			"-0.006": 8.20724891092,
			"-0.005": 23.8544535882,
			"-0.004": 34.8694334444,
			"-0.003": 35.0069370303,
			"-0.002": 30.332855316,
			"-0.001": 25.3893406839,
			"0.0": 15.3229741138,
			"0.001": 12.1091303945,
			"0.002": 10.8170536741,
			"0.003": 12.5728310868,
			"0.004": 12.21158653,
			"0.005": 11.8727965043,
			"0.006": 10.9151355636,
			"0.007": 5.49466346281,
			"0.008": 3.68735108642,
			"0.009": 3.4594621942,
			"0.01": 4.35937535295,
			"0.011": 4.40778662168,
			"0.012": 4.41007624876,
			"0.013": 6.76677572229,
			"0.014": 1.86765708085,
			"0.015": 0.00775579512523,
			"0.016": 0.0,
			"0.017": 0.0,
			"0.018": 0.0,
			"0.019": 0.0,
			"0.02": 0.0,
			"0.021": 0.0,
			"0.022": 0.0,
			"0.023": 0.0,
			"0.024": 0.0,
			"0.025": 0.0
		}
	}
}
