{
	 "smiles": "CC12CCC3C(CCC4(C)CC(O)(CCC34C)C#C)C1CCC2=O", 
	 "Tm": 511.15, 
	 "num_atms": 56, 
	 "gaussian": { 
		 "optdone": 1, 
		 "sigma_profile": "yes", 
		 "theory": "DFT", 
		 "functional": "B3LYP", 
		 "basiset": "6-31G**", 
		 "properties": { 
			 "R2extent": 8940.7871, 
			 "electric_dipole_moment_norm": 3.93593628251, 
			 "electric_quadrupole_moment_norm": 16.9713727326, 
			 "total_energy": -1008.00309772, 
			 "HOMO_LUMO_gap": 0.21922, 
			 "cosmo_polarized_energy": -13.56, 
			 "cosmo_cavitation_energy": 48.37, 
			 "cosmo_dispersion_energy": -32.46, 
			 "cosmo_repulsion_energy": 2.36, 
			 "cosmo_total_nonelectrostatic_energy": 18.26, 
			 "SMD_solvation_energy": 8.72 
		},
		"coords": [
			{
				"x": 0.5256874313,
				"y": -1.8499510206,
				"z": 3.6228592471,
				"element": "C" 
			},
			{
				"x": 0.0819820451,
				"y": -2.7805641161,
				"z": 2.4842881256,
				"element": "C" 
			},
			{
				"x": -1.4165600175,
				"y": -2.494978674,
				"z": 2.0909930007,
				"element": "C" 
			},
			{
				"x": -1.6112886279,
				"y": -1.8959056207,
				"z": 0.6855014901,
				"element": "C" 
			},
			{
				"x": -0.5140575014,
				"y": -0.8703255037,
				"z": 0.3609095264,
				"element": "C" 
			},
			{
				"x": 0.8439954387,
				"y": -1.5985046687,
				"z": 0.2409923662,
				"element": "C" 
			},
			{
				"x": 1.9955864406,
				"y": -0.5693142711,
				"z": 0.3203937808,
				"element": "C" 
			},
			{
				"x": 1.5698491023,
				"y": 0.8347493489,
				"z": -0.1526754364,
				"element": "C" 
			},
			{
				"x": 0.549871179,
				"y": 0.8184468626,
				"z": -1.321285825,
				"element": "C" 
			},
			{
				"x": 1.2588053542,
				"y": 0.1918118362,
				"z": -2.54851374,
				"element": "C" 
			},
			{
				"x": 0.1967682389,
				"y": 2.2673638368,
				"z": -1.7428067601,
				"element": "C" 
			},
			{
				"x": -0.4788387214,
				"y": 3.1610563938,
				"z": -0.6642303737,
				"element": "C" 
			},
			{
				"x": 0.48351327,
				"y": 3.7464543474,
				"z": 0.2273042234,
				"element": "O" 
			},
			{
				"x": -1.4145835654,
				"y": 2.3109635635,
				"z": 0.2296966448,
				"element": "C" 
			},
			{
				"x": -1.908702358,
				"y": 1.0719638876,
				"z": -0.5148175665,
				"element": "C" 
			},
			{
				"x": -0.7948413192,
				"y": 0.0428757072,
				"z": -0.8896715656,
				"element": "C" 
			},
			{
				"x": -1.3660127149,
				"y": -0.7971992846,
				"z": -2.0530890709,
				"element": "C" 
			},
			{
				"x": -1.2263362749,
				"y": 4.2379988611,
				"z": -1.3451336926,
				"element": "C" 
			},
			{
				"x": -1.8129148432,
				"y": 5.1278597483,
				"z": -1.9151016083,
				"element": "C" 
			},
			{
				"x": 1.0225986525,
				"y": -2.7712420331,
				"z": 1.2464601618,
				"element": "C" 
			},
			{
				"x": 0.8597126798,
				"y": -4.1884573925,
				"z": 0.6363801913,
				"element": "C" 
			},
			{
				"x": 0.7567437522,
				"y": -5.1186839648,
				"z": 1.8519420881,
				"element": "C" 
			},
			{
				"x": 0.158402404,
				"y": -4.24679739,
				"z": 2.9602147438,
				"element": "C" 
			},
			{
				"x": -0.1996376442,
				"y": -4.6434133454,
				"z": 4.0488893592,
				"element": "O" 
			},
			{
				"x": 1.5792867204,
				"y": -2.0080438978,
				"z": 3.8785220076,
				"element": "H" 
			},
			{
				"x": -0.0688070716,
				"y": -2.0559520872,
				"z": 4.5180206463,
				"element": "H" 
			},
			{
				"x": 0.396957638,
				"y": -0.7967173914,
				"z": 3.3550409105,
				"element": "H" 
			},
			{
				"x": -2.0211868975,
				"y": -3.4045710203,
				"z": 2.1821882806,
				"element": "H" 
			},
			{
				"x": -1.824130046,
				"y": -1.8014334506,
				"z": 2.8348336351,
				"element": "H" 
			},
			{
				"x": -1.6066157074,
				"y": -2.690469561,
				"z": -0.0695983154,
				"element": "H" 
			},
			{
				"x": -2.6101740344,
				"y": -1.4476687616,
				"z": 0.6410275351,
				"element": "H" 
			},
			{
				"x": -0.4522336598,
				"y": -0.1988249318,
				"z": 1.2296551248,
				"element": "H" 
			},
			{
				"x": 0.8656593156,
				"y": -2.0516331889,
				"z": -0.7590507994,
				"element": "H" 
			},
			{
				"x": 2.348417851,
				"y": -0.4926473448,
				"z": 1.3561267758,
				"element": "H" 
			},
			{
				"x": 2.8506565849,
				"y": -0.9358895904,
				"z": -0.2606511751,
				"element": "H" 
			},
			{
				"x": 2.4531920367,
				"y": 1.4046886496,
				"z": -0.4664949545,
				"element": "H" 
			},
			{
				"x": 1.1605197473,
				"y": 1.3942346271,
				"z": 0.6894892851,
				"element": "H" 
			},
			{
				"x": 1.5330788527,
				"y": -0.8543956246,
				"z": -2.3956684565,
				"element": "H" 
			},
			{
				"x": 2.184305429,
				"y": 0.742912804,
				"z": -2.750759501,
				"element": "H" 
			},
			{
				"x": 0.6472264054,
				"y": 0.244956327,
				"z": -3.4532352571,
				"element": "H" 
			},
			{
				"x": 1.103124238,
				"y": 2.7832983829,
				"z": -2.0851200562,
				"element": "H" 
			},
			{
				"x": -0.4674520139,
				"y": 2.2225733569,
				"z": -2.6135469291,
				"element": "H" 
			},
			{
				"x": 0.9948775232,
				"y": 4.3933413942,
				"z": -0.2782043629,
				"element": "H" 
			},
			{
				"x": -2.2545094378,
				"y": 2.9215244796,
				"z": 0.572403955,
				"element": "H" 
			},
			{
				"x": -0.8460329941,
				"y": 2.03423029,
				"z": 1.1222375049,
				"element": "H" 
			},
			{
				"x": -2.422500555,
				"y": 1.3994792434,
				"z": -1.4278438627,
				"element": "H" 
			},
			{
				"x": -2.674709437,
				"y": 0.5686754093,
				"z": 0.0844185392,
				"element": "H" 
			},
			{
				"x": -2.3528101938,
				"y": -1.1912008533,
				"z": -1.7915178581,
				"element": "H" 
			},
			{
				"x": -1.4985835969,
				"y": -0.1846274538,
				"z": -2.9503476804,
				"element": "H" 
			},
			{
				"x": -0.7326846618,
				"y": -1.6470073033,
				"z": -2.3227189165,
				"element": "H" 
			},
			{
				"x": -2.3366339529,
				"y": 5.9145702409,
				"z": -2.4071295131,
				"element": "H" 
			},
			{
				"x": 2.0505078004,
				"y": -2.7234617943,
				"z": 1.6344545649,
				"element": "H" 
			},
			{
				"x": -0.0562235535,
				"y": -4.2448771539,
				"z": 0.0376819554,
				"element": "H" 
			},
			{
				"x": 1.691085825,
				"y": -4.4392558121,
				"z": -0.0300385625,
				"element": "H" 
			},
			{
				"x": 1.7475676482,
				"y": -5.4432692731,
				"z": 2.1973982962,
				"element": "H" 
			},
			{
				"x": 0.1631817971,
				"y": -6.0251458186,
				"z": 1.7023278741,
				"element": "H" 
			}
		],
		 "valence_orbital": [ 
			{
				"type": "occ",
				"energy": -0.27797,
				"method": "rhf"
			},
			{
				"type": "occ",
				"energy": -0.27457,
				"method": "rhf"
			},
			{
				"type": "occ",
				"energy": -0.26844,
				"method": "rhf"
			},
			{
				"type": "occ",
				"energy": -0.25941,
				"method": "rhf"
			},
			{
				"type": "occ",
				"energy": -0.22967,
				"method": "rhf"
			},
			{
				"type": "unocc",
				"energy": -0.01045,
				"method": "rhf"
			},
			{
				"type": "unocc",
				"energy": 0.03516,
				"method": "rhf"
			},
			{
				"type": "unocc",
				"energy": 0.0516,
				"method": "rhf"
			},
			{
				"type": "unocc",
				"energy": 0.06462,
				"method": "rhf"
			},
			{
				"type": "unocc",
				"energy": 0.07555,
				"method": "rhf"
			}
		],
		"cosmo_sigma_profile": { 
			"-0.025": 0.0,
			"-0.024": 0.0,
			"-0.023": 0.0,
			"-0.022": 0.0,
			"-0.021": 0.0,
			"-0.02": 0.0,
			"-0.019": 0.0,
			"-0.018": 0.0,
			"-0.017": 0.0,
			"-0.016": 0.044278611602,
			"-0.015": 0.609227238083,
			"-0.014": 0.989647734714,
			"-0.013": 0.967080949068,
			"-0.012": 0.587699825938,
			"-0.011": 2.16687274404,
			"-0.01": 2.04292672869,
			"-0.009": 1.85396827033,
			"-0.008": 2.0205964735,
			"-0.007": 2.39336924929,
			"-0.006": 1.94586490141,
			"-0.005": 8.20047544268,
			"-0.004": 15.4710744826,
			"-0.003": 42.0514790607,
			"-0.002": 58.4650987428,
			"-0.001": 60.0265064805,
			"0.0": 49.5879393107,
			"0.001": 36.6726094634,
			"0.002": 17.9377830686,
			"0.003": 9.64698012965,
			"0.004": 8.11865192167,
			"0.005": 7.86589110847,
			"0.006": 10.2798900795,
			"0.007": 7.96206713029,
			"0.008": 3.65904284971,
			"0.009": 2.8774602991,
			"0.01": 3.1965756996,
			"0.011": 3.73397396262,
			"0.012": 5.88560178256,
			"0.013": 4.34156077563,
			"0.014": 0.869545250473,
			"0.015": 0.0,
			"0.016": 0.0,
			"0.017": 0.0,
			"0.018": 0.0,
			"0.019": 0.0,
			"0.02": 0.0,
			"0.021": 0.0,
			"0.022": 0.0,
			"0.023": 0.0,
			"0.024": 0.0,
			"0.025": 0.0
		}
	}
}
