{
	 "smiles": "COC1=CC2=C(NC3=C2CCCC3)C=C1", 
	 "Tm": 333.15, 
	 "num_atms": 30, 
	 "gaussian": { 
		 "optdone": 1, 
		 "sigma_profile": "yes", 
		 "theory": "DFT", 
		 "functional": "B3LYP", 
		 "basiset": "6-31G**", 
		 "properties": { 
			 "R2extent": 4028.9859, 
			 "electric_dipole_moment_norm": 2.20764566677, 
			 "electric_quadrupole_moment_norm": 14.9208521717, 
			 "total_energy": -634.409753552, 
			 "HOMO_LUMO_gap": 0.18823, 
			 "cosmo_polarized_energy": -9.8, 
			 "cosmo_cavitation_energy": 31.46, 
			 "cosmo_dispersion_energy": -23.59, 
			 "cosmo_repulsion_energy": 1.85, 
			 "cosmo_total_nonelectrostatic_energy": 9.71, 
			 "SMD_solvation_energy": 4.72 
		},
		"coords": [
			{
				"x": -1.5566047563,
				"y": 4.1317657689,
				"z": -1.8417597282,
				"element": "C" 
			},
			{
				"x": -2.0047279214,
				"y": 2.8876588714,
				"z": -2.3430933276,
				"element": "O" 
			},
			{
				"x": -1.6861342218,
				"y": 1.7565928068,
				"z": -1.6313307369,
				"element": "C" 
			},
			{
				"x": -0.9510076173,
				"y": 1.7500046928,
				"z": -0.4490502324,
				"element": "C" 
			},
			{
				"x": -0.6970700373,
				"y": 0.5140696291,
				"z": 0.1789424792,
				"element": "C" 
			},
			{
				"x": -1.1911403532,
				"y": -0.6826959466,
				"z": -0.4042796551,
				"element": "C" 
			},
			{
				"x": -0.7996283317,
				"y": -1.7331515604,
				"z": 0.4097449069,
				"element": "N" 
			},
			{
				"x": -0.0789646128,
				"y": -1.2323994713,
				"z": 1.4793051048,
				"element": "C" 
			},
			{
				"x": 0.0033229838,
				"y": 0.136948751,
				"z": 1.3778206809,
				"element": "C" 
			},
			{
				"x": 0.7239854197,
				"y": 0.9847308591,
				"z": 2.3881885259,
				"element": "C" 
			},
			{
				"x": 0.9870778369,
				"y": 0.180670601,
				"z": 3.6774652904,
				"element": "C" 
			},
			{
				"x": 1.5212911461,
				"y": -1.2298823473,
				"z": 3.374663438,
				"element": "C" 
			},
			{
				"x": 0.5003528564,
				"y": -2.0680300747,
				"z": 2.5781309012,
				"element": "C" 
			},
			{
				"x": -1.9281594998,
				"y": -0.6712139588,
				"z": -1.5923444116,
				"element": "C" 
			},
			{
				"x": -2.1697097253,
				"y": 0.5534542695,
				"z": -2.1970589958,
				"element": "C" 
			},
			{
				"x": -0.4602491501,
				"y": 4.1785518736,
				"z": -1.7856020679,
				"element": "H" 
			},
			{
				"x": -1.9110356269,
				"y": 4.88926755,
				"z": -2.5434578157,
				"element": "H" 
			},
			{
				"x": -1.9691712827,
				"y": 4.3432828905,
				"z": -0.8455666476,
				"element": "H" 
			},
			{
				"x": -0.575975446,
				"y": 2.6674282293,
				"z": -0.0107889512,
				"element": "H" 
			},
			{
				"x": -1.0040025652,
				"y": -2.7057064783,
				"z": 0.2488933519,
				"element": "H" 
			},
			{
				"x": 1.6801106383,
				"y": 1.3439617621,
				"z": 1.9773973101,
				"element": "H" 
			},
			{
				"x": 0.1434187407,
				"y": 1.8861880417,
				"z": 2.6249554468,
				"element": "H" 
			},
			{
				"x": 1.6947061371,
				"y": 0.7197507934,
				"z": 4.3176262331,
				"element": "H" 
			},
			{
				"x": 0.050985679,
				"y": 0.0930558589,
				"z": 4.2452117595,
				"element": "H" 
			},
			{
				"x": 2.4480943584,
				"y": -1.1460730074,
				"z": 2.7923166278,
				"element": "H" 
			},
			{
				"x": 1.7775031833,
				"y": -1.7486696758,
				"z": 4.3051258145,
				"element": "H" 
			},
			{
				"x": -0.2970618137,
				"y": -2.4208138223,
				"z": 3.2501115475,
				"element": "H" 
			},
			{
				"x": 0.9808933792,
				"y": -2.9701482181,
				"z": 2.1753982888,
				"element": "H" 
			},
			{
				"x": -2.3046501586,
				"y": -1.5889731727,
				"z": -2.0360058831,
				"element": "H" 
			},
			{
				"x": -2.7364492387,
				"y": 0.6190744848,
				"z": -3.1196592542,
				"element": "H" 
			}
		],
		 "valence_orbital": [ 
			{
				"type": "occ",
				"energy": -0.30489,
				"method": "rhf"
			},
			{
				"type": "occ",
				"energy": -0.28063,
				"method": "rhf"
			},
			{
				"type": "occ",
				"energy": -0.25812,
				"method": "rhf"
			},
			{
				"type": "occ",
				"energy": -0.18804,
				"method": "rhf"
			},
			{
				"type": "occ",
				"energy": -0.18587,
				"method": "rhf"
			},
			{
				"type": "unocc",
				"energy": 0.00236,
				"method": "rhf"
			},
			{
				"type": "unocc",
				"energy": 0.04738,
				"method": "rhf"
			},
			{
				"type": "unocc",
				"energy": 0.07488,
				"method": "rhf"
			},
			{
				"type": "unocc",
				"energy": 0.0885,
				"method": "rhf"
			},
			{
				"type": "unocc",
				"energy": 0.09552,
				"method": "rhf"
			}
		],
		"cosmo_sigma_profile": { 
			"-0.025": 0.0,
			"-0.024": 0.0,
			"-0.023": 0.0,
			"-0.022": 0.0,
			"-0.021": 0.0,
			"-0.02": 0.0,
			"-0.019": 0.0,
			"-0.018": 0.0,
			"-0.017": 0.0,
			"-0.016": 0.0,
			"-0.015": 0.510566454517,
			"-0.014": 1.30615278256,
			"-0.013": 1.23702229366,
			"-0.012": 0.952166831131,
			"-0.011": 1.54070428712,
			"-0.01": 1.44068637022,
			"-0.009": 0.936676846809,
			"-0.008": 1.32374045216,
			"-0.007": 1.44872452499,
			"-0.006": 3.80142638785,
			"-0.005": 10.9218320822,
			"-0.004": 17.1198421971,
			"-0.003": 23.5459111509,
			"-0.002": 32.4419884926,
			"-0.001": 30.3306908614,
			"0.0": 25.7128234305,
			"0.001": 16.9688448757,
			"0.002": 8.70972520217,
			"0.003": 7.97341595111,
			"0.004": 8.9114506435,
			"0.005": 11.8256993737,
			"0.006": 15.6616637062,
			"0.007": 15.7661900699,
			"0.008": 2.03076700789,
			"0.009": 1.49167244211,
			"0.01": 1.31023456502,
			"0.011": 1.78477350778,
			"0.012": 0.313082323184,
			"0.013": 0.0,
			"0.014": 0.0,
			"0.015": 0.0,
			"0.016": 0.0,
			"0.017": 0.0,
			"0.018": 0.0,
			"0.019": 0.0,
			"0.02": 0.0,
			"0.021": 0.0,
			"0.022": 0.0,
			"0.023": 0.0,
			"0.024": 0.0,
			"0.025": 0.0
		}
	}
}
