{
	 "smiles": "COC1=C(CO)C=C(Cl)C=C1", 
	 "Tm": 331.65, 
	 "num_atms": 20, 
	 "gaussian": { 
		 "optdone": 1, 
		 "sigma_profile": "yes", 
		 "theory": "DFT", 
		 "functional": "B3LYP", 
		 "basiset": "6-31G**", 
		 "properties": { 
			 "R2extent": 3424.4779, 
			 "electric_dipole_moment_norm": 4.33722743928, 
			 "electric_quadrupole_moment_norm": 11.411476996, 
			 "total_energy": -920.892610497, 
			 "HOMO_LUMO_gap": 0.21017, 
			 "cosmo_polarized_energy": -9.88, 
			 "cosmo_cavitation_energy": 25.37, 
			 "cosmo_dispersion_energy": -19.02, 
			 "cosmo_repulsion_energy": 1.55, 
			 "cosmo_total_nonelectrostatic_energy": 7.91, 
			 "SMD_solvation_energy": 4.91 
		},
		"coords": [
			{
				"x": 1.9350651754,
				"y": 0.1781368273,
				"z": 2.7652095589,
				"element": "C" 
			},
			{
				"x": 1.6105421116,
				"y": 1.2203719712,
				"z": 1.8587176631,
				"element": "O" 
			},
			{
				"x": 0.3851221725,
				"y": 1.1939238429,
				"z": 1.2490952642,
				"element": "C" 
			},
			{
				"x": 0.1364468231,
				"y": 2.2616807214,
				"z": 0.3634419512,
				"element": "C" 
			},
			{
				"x": 1.2011770643,
				"y": 3.3133436012,
				"z": 0.1629151215,
				"element": "C" 
			},
			{
				"x": 0.7380653976,
				"y": 4.283007137,
				"z": -0.7629434751,
				"element": "O" 
			},
			{
				"x": -1.0828745818,
				"y": 2.3209515973,
				"z": -0.3040440371,
				"element": "C" 
			},
			{
				"x": -2.0425447722,
				"y": 1.3287024339,
				"z": -0.0917033669,
				"element": "C" 
			},
			{
				"x": -3.5812323264,
				"y": 1.4197420809,
				"z": -0.9455010902,
				"element": "Cl" 
			},
			{
				"x": -1.8035297535,
				"y": 0.2740937281,
				"z": 0.7797495683,
				"element": "C" 
			},
			{
				"x": -0.5805300654,
				"y": 0.206527175,
				"z": 1.4549787448,
				"element": "C" 
			},
			{
				"x": 1.2424397589,
				"y": 0.152852611,
				"z": 3.6161983,
				"element": "H" 
			},
			{
				"x": 2.9411231083,
				"y": 0.3950754337,
				"z": 3.1271882422,
				"element": "H" 
			},
			{
				"x": 1.9321869227,
				"y": -0.8020377682,
				"z": 2.2714341397,
				"element": "H" 
			},
			{
				"x": 1.4442929994,
				"y": 3.7662494896,
				"z": 1.1376808533,
				"element": "H" 
			},
			{
				"x": 2.1244098593,
				"y": 2.8248772733,
				"z": -0.1884212009,
				"element": "H" 
			},
			{
				"x": 1.4322657737,
				"y": 4.9424493008,
				"z": -0.8748789449,
				"element": "H" 
			},
			{
				"x": -1.2717177002,
				"y": 3.1419427121,
				"z": -0.983879067,
				"element": "H" 
			},
			{
				"x": -2.5569435382,
				"y": -0.4898911421,
				"z": 0.9358748556,
				"element": "H" 
			},
			{
				"x": -0.3985644292,
				"y": -0.6178990263,
				"z": 2.1337869194,
				"element": "H" 
			}
		],
		 "valence_orbital": [ 
			{
				"type": "occ",
				"energy": -0.30064,
				"method": "rhf"
			},
			{
				"type": "occ",
				"energy": -0.29911,
				"method": "rhf"
			},
			{
				"type": "occ",
				"energy": -0.27727,
				"method": "rhf"
			},
			{
				"type": "occ",
				"energy": -0.24972,
				"method": "rhf"
			},
			{
				"type": "occ",
				"energy": -0.21509,
				"method": "rhf"
			},
			{
				"type": "unocc",
				"energy": -0.00492,
				"method": "rhf"
			},
			{
				"type": "unocc",
				"energy": 0.00689,
				"method": "rhf"
			},
			{
				"type": "unocc",
				"energy": 0.04094,
				"method": "rhf"
			},
			{
				"type": "unocc",
				"energy": 0.07171,
				"method": "rhf"
			},
			{
				"type": "unocc",
				"energy": 0.09691,
				"method": "rhf"
			}
		],
		"cosmo_sigma_profile": { 
			"-0.025": 0.0,
			"-0.024": 0.0,
			"-0.023": 0.0,
			"-0.022": 0.0,
			"-0.021": 0.0,
			"-0.02": 0.0,
			"-0.019": 0.0,
			"-0.018": 0.0,
			"-0.017": 0.0402673570011,
			"-0.016": 1.16142159936,
			"-0.015": 0.793674951144,
			"-0.014": 1.09514950481,
			"-0.013": 0.877375001908,
			"-0.012": 1.23093062977,
			"-0.011": 0.561247167343,
			"-0.01": 0.438193477325,
			"-0.009": 0.904656444768,
			"-0.008": 1.15660027944,
			"-0.007": 4.34682767705,
			"-0.006": 9.78510200726,
			"-0.005": 14.9814872869,
			"-0.004": 16.328562571,
			"-0.003": 15.327007562,
			"-0.002": 11.4588893623,
			"-0.001": 10.1512687488,
			"0.0": 9.40679200034,
			"0.001": 13.4557621411,
			"0.002": 15.1110957457,
			"0.003": 19.8543511041,
			"0.004": 21.3610464496,
			"0.005": 16.118847195,
			"0.006": 6.12687307756,
			"0.007": 3.3329724176,
			"0.008": 1.80209825569,
			"0.009": 1.39124181118,
			"0.01": 1.8879012669,
			"0.011": 1.68672282464,
			"0.012": 1.04456647286,
			"0.013": 0.139042102453,
			"0.014": 0.0,
			"0.015": 0.0,
			"0.016": 0.0,
			"0.017": 0.0,
			"0.018": 0.0,
			"0.019": 0.0,
			"0.02": 0.0,
			"0.021": 0.0,
			"0.022": 0.0,
			"0.023": 0.0,
			"0.024": 0.0,
			"0.025": 0.0
		}
	}
}
