{
	 "smiles": "CC(SCC(=O)NC1=CC(Br)=CC=C1)C(O)=O", 
	 "Tm": 380.15, 
	 "num_atms": 29, 
	 "gaussian": { 
		 "optdone": 1, 
		 "sigma_profile": "yes", 
		 "theory": "DFT", 
		 "functional": "B3LYP", 
		 "basiset": "6-31G**", 
		 "properties": { 
			 "R2extent": 9514.7336, 
			 "electric_dipole_moment_norm": 9.43289285903, 
			 "electric_quadrupole_moment_norm": 18.2967338364, 
			 "total_energy": -3676.45081398, 
			 "HOMO_LUMO_gap": 0.18859, 
			 "cosmo_polarized_energy": -24.65, 
			 "cosmo_cavitation_energy": 37.03, 
			 "cosmo_dispersion_energy": -27.43, 
			 "cosmo_repulsion_energy": 2.09, 
			 "cosmo_total_nonelectrostatic_energy": 11.69, 
			 "SMD_solvation_energy": 6.03 
		},
		"coords": [
			{
				"x": 4.4710957069,
				"y": -0.1344153977,
				"z": 3.2466026194,
				"element": "C" 
			},
			{
				"x": 3.5373045243,
				"y": -0.1122359182,
				"z": 2.0405919946,
				"element": "C" 
			},
			{
				"x": 2.07333668,
				"y": -1.2404512302,
				"z": 2.308240676,
				"element": "S" 
			},
			{
				"x": 0.6748375126,
				"y": -0.0649599275,
				"z": 2.2882215599,
				"element": "C" 
			},
			{
				"x": 0.2545230651,
				"y": 0.404953888,
				"z": 0.8947325889,
				"element": "C" 
			},
			{
				"x": 1.0748439941,
				"y": 0.6875645325,
				"z": 0.0210150187,
				"element": "O" 
			},
			{
				"x": -1.093827957,
				"y": 0.5338658529,
				"z": 0.7299950923,
				"element": "N" 
			},
			{
				"x": -1.8241458701,
				"y": 1.0065042297,
				"z": -0.3877008494,
				"element": "C" 
			},
			{
				"x": -1.2124828902,
				"y": 1.4315459044,
				"z": -1.5753175925,
				"element": "C" 
			},
			{
				"x": -2.025265968,
				"y": 1.8802415869,
				"z": -2.6144885749,
				"element": "C" 
			},
			{
				"x": -1.1969131183,
				"y": 2.4619411374,
				"z": -4.2336149884,
				"element": "Br" 
			},
			{
				"x": -3.4141749019,
				"y": 1.9187226983,
				"z": -2.5129658918,
				"element": "C" 
			},
			{
				"x": -4.0039780244,
				"y": 1.4904684527,
				"z": -1.3230414985,
				"element": "C" 
			},
			{
				"x": -3.2214606349,
				"y": 1.0376052122,
				"z": -0.2657528192,
				"element": "C" 
			},
			{
				"x": 4.2720709267,
				"y": -0.5164733662,
				"z": 0.7463988934,
				"element": "C" 
			},
			{
				"x": 3.6092630425,
				"y": -0.3109627419,
				"z": -0.3963798668,
				"element": "O" 
			},
			{
				"x": 5.3913653099,
				"y": -0.9753642892,
				"z": 0.7637049012,
				"element": "O" 
			},
			{
				"x": 3.9444876291,
				"y": 0.1866752058,
				"z": 4.148904674,
				"element": "H" 
			},
			{
				"x": 5.3210724609,
				"y": 0.5313055859,
				"z": 3.0709292861,
				"element": "H" 
			},
			{
				"x": 4.8703882488,
				"y": -1.13829088,
				"z": 3.405950202,
				"element": "H" 
			},
			{
				"x": 3.1155050396,
				"y": 0.8862371332,
				"z": 1.8885902921,
				"element": "H" 
			},
			{
				"x": -0.1446145541,
				"y": -0.5729190083,
				"z": 2.805840505,
				"element": "H" 
			},
			{
				"x": 0.9331697802,
				"y": 0.8188673178,
				"z": 2.8828883023,
				"element": "H" 
			},
			{
				"x": -1.6651145774,
				"y": 0.2608258715,
				"z": 1.5173453427,
				"element": "H" 
			},
			{
				"x": -0.138406802,
				"y": 1.4076102492,
				"z": -1.675757046,
				"element": "H" 
			},
			{
				"x": -4.0169027655,
				"y": 2.2727434644,
				"z": -3.340587008,
				"element": "H" 
			},
			{
				"x": -5.0845434868,
				"y": 1.5108358812,
				"z": -1.2208699945,
				"element": "H" 
			},
			{
				"x": -3.6936711564,
				"y": 0.7068003321,
				"z": 0.6560688609,
				"element": "H" 
			},
			{
				"x": 2.7053387865,
				"y": 0.0380582231,
				"z": -0.2302446795,
				"element": "H" 
			}
		],
		 "valence_orbital": [ 
			{
				"type": "occ",
				"energy": -0.29323,
				"method": "rhf"
			},
			{
				"type": "occ",
				"energy": -0.26518,
				"method": "rhf"
			},
			{
				"type": "occ",
				"energy": -0.26337,
				"method": "rhf"
			},
			{
				"type": "occ",
				"energy": -0.24921,
				"method": "rhf"
			},
			{
				"type": "occ",
				"energy": -0.23989,
				"method": "rhf"
			},
			{
				"type": "unocc",
				"energy": -0.0513,
				"method": "rhf"
			},
			{
				"type": "unocc",
				"energy": -0.03043,
				"method": "rhf"
			},
			{
				"type": "unocc",
				"energy": -0.00277,
				"method": "rhf"
			},
			{
				"type": "unocc",
				"energy": -0.00031,
				"method": "rhf"
			},
			{
				"type": "unocc",
				"energy": 0.00306,
				"method": "rhf"
			}
		],
		"cosmo_sigma_profile": { 
			"-0.025": 0.0,
			"-0.024": 0.0,
			"-0.023": 0.0,
			"-0.022": 0.0,
			"-0.021": 0.0,
			"-0.02": 0.0,
			"-0.019": 0.0,
			"-0.018": 0.0,
			"-0.017": 1.30493750479,
			"-0.016": 1.44849399898,
			"-0.015": 1.70066507016,
			"-0.014": 1.54594116669,
			"-0.013": 1.62110924317,
			"-0.012": 2.00578169752,
			"-0.011": 1.122826875,
			"-0.01": 2.33670372532,
			"-0.009": 6.2613808855,
			"-0.008": 8.35687887602,
			"-0.007": 11.7646042678,
			"-0.006": 10.5600704724,
			"-0.005": 12.0113899295,
			"-0.004": 16.4656682282,
			"-0.003": 15.5035978187,
			"-0.002": 17.2196587133,
			"-0.001": 19.8854683227,
			"0.0": 21.7053768573,
			"0.001": 21.5049046153,
			"0.002": 26.0264706526,
			"0.003": 26.9569926849,
			"0.004": 22.6041267484,
			"0.005": 12.3864700107,
			"0.006": 5.20254656055,
			"0.007": 5.13540009497,
			"0.008": 5.31599726839,
			"0.009": 3.90217864869,
			"0.01": 3.29609908177,
			"0.011": 5.43946219147,
			"0.012": 6.25651510383,
			"0.013": 2.93805422503,
			"0.014": 0.421357776626,
			"0.015": 0.0,
			"0.016": 0.0,
			"0.017": 0.0,
			"0.018": 0.0,
			"0.019": 0.0,
			"0.02": 0.0,
			"0.021": 0.0,
			"0.022": 0.0,
			"0.023": 0.0,
			"0.024": 0.0,
			"0.025": 0.0
		}
	}
}
