{
	 "smiles": "CC1=CC2=CC=NC=C2C=C1", 
	 "Tm": 358.65, 
	 "num_atms": 20, 
	 "gaussian": { 
		 "optdone": 1, 
		 "sigma_profile": "yes", 
		 "theory": "DFT", 
		 "functional": "B3LYP", 
		 "basiset": "6-31G**", 
		 "properties": { 
			 "R2extent": 2229.4096, 
			 "electric_dipole_moment_norm": 3.05993569867, 
			 "electric_quadrupole_moment_norm": 10.4443046504, 
			 "total_energy": -441.251785996, 
			 "HOMO_LUMO_gap": 0.17853, 
			 "cosmo_polarized_energy": -6.98, 
			 "cosmo_cavitation_energy": 23.45, 
			 "cosmo_dispersion_energy": -17.55, 
			 "cosmo_repulsion_energy": 1.38, 
			 "cosmo_total_nonelectrostatic_energy": 7.27, 
			 "SMD_solvation_energy": 2.45 
		},
		"coords": [
			{
				"x": 0.8180114483,
				"y": 3.2359341799,
				"z": 0.6430543094,
				"element": "C" 
			},
			{
				"x": 0.1467801569,
				"y": 1.8845412801,
				"z": 0.6261097198,
				"element": "C" 
			},
			{
				"x": -0.2310691632,
				"y": 1.2504280373,
				"z": 1.7925700454,
				"element": "C" 
			},
			{
				"x": -0.8626380859,
				"y": -0.0216850943,
				"z": 1.7703808249,
				"element": "C" 
			},
			{
				"x": -1.2732936362,
				"y": -0.7219003042,
				"z": 2.9339811114,
				"element": "C" 
			},
			{
				"x": -1.8780197022,
				"y": -1.9515556144,
				"z": 2.8051434943,
				"element": "C" 
			},
			{
				"x": -2.1177274356,
				"y": -2.5620161886,
				"z": 1.6113547746,
				"element": "N" 
			},
			{
				"x": -1.7415067376,
				"y": -1.9229474017,
				"z": 0.5219458832,
				"element": "C" 
			},
			{
				"x": -1.1082435597,
				"y": -0.6508253316,
				"z": 0.513269393,
				"element": "C" 
			},
			{
				"x": -0.7150361023,
				"y": 0.011284872,
				"z": -0.6791635072,
				"element": "C" 
			},
			{
				"x": -0.1061280904,
				"y": 1.2417818144,
				"z": -0.621404666,
				"element": "C" 
			},
			{
				"x": 0.9478320842,
				"y": 3.6074102305,
				"z": 1.6627944355,
				"element": "H" 
			},
			{
				"x": 0.2310658612,
				"y": 3.9758179752,
				"z": 0.0862068729,
				"element": "H" 
			},
			{
				"x": 1.8065710749,
				"y": 3.1922030025,
				"z": 0.171014942,
				"element": "H" 
			},
			{
				"x": -0.0462162725,
				"y": 1.7255402809,
				"z": 2.7532368631,
				"element": "H" 
			},
			{
				"x": -1.1100482434,
				"y": -0.2878294215,
				"z": 3.9165678462,
				"element": "H" 
			},
			{
				"x": -2.1996794161,
				"y": -2.5033185936,
				"z": 3.6856936176,
				"element": "H" 
			},
			{
				"x": -1.93736588,
				"y": -2.4192517014,
				"z": -0.4298972419,
				"element": "H" 
			},
			{
				"x": -0.902337417,
				"y": -0.4683779502,
				"z": -1.6366189902,
				"element": "H" 
			},
			{
				"x": 0.1920491164,
				"y": 1.7424659287,
				"z": -1.5392397279,
				"element": "H" 
			}
		],
		 "valence_orbital": [ 
			{
				"type": "occ",
				"energy": -0.33848,
				"method": "rhf"
			},
			{
				"type": "occ",
				"energy": -0.29356,
				"method": "rhf"
			},
			{
				"type": "occ",
				"energy": -0.25356,
				"method": "rhf"
			},
			{
				"type": "occ",
				"energy": -0.24914,
				"method": "rhf"
			},
			{
				"type": "occ",
				"energy": -0.22552,
				"method": "rhf"
			},
			{
				"type": "unocc",
				"energy": -0.04699,
				"method": "rhf"
			},
			{
				"type": "unocc",
				"energy": -0.02052,
				"method": "rhf"
			},
			{
				"type": "unocc",
				"energy": 0.02751,
				"method": "rhf"
			},
			{
				"type": "unocc",
				"energy": 0.08311,
				"method": "rhf"
			},
			{
				"type": "unocc",
				"energy": 0.09839,
				"method": "rhf"
			}
		],
		"cosmo_sigma_profile": { 
			"-0.025": 0.0,
			"-0.024": 0.0,
			"-0.023": 0.0,
			"-0.022": 0.0,
			"-0.021": 0.0,
			"-0.02": 0.0,
			"-0.019": 0.0,
			"-0.018": 0.0,
			"-0.017": 0.0,
			"-0.016": 0.0,
			"-0.015": 0.0,
			"-0.014": 0.0,
			"-0.013": 0.0,
			"-0.012": 0.0,
			"-0.011": 0.0,
			"-0.01": 0.0,
			"-0.009": 0.0,
			"-0.008": 0.0,
			"-0.007": 1.88724711764,
			"-0.006": 12.8376546784,
			"-0.005": 13.651191506,
			"-0.004": 19.1059671748,
			"-0.003": 15.7728515613,
			"-0.002": 14.1610969934,
			"-0.001": 13.8076581019,
			"0.0": 14.9384801618,
			"0.001": 13.1678437671,
			"0.002": 16.6441987346,
			"0.003": 21.1718565857,
			"0.004": 13.5814715908,
			"0.005": 3.7626395965,
			"0.006": 1.83011243616,
			"0.007": 0.900976767192,
			"0.008": 1.76690293398,
			"0.009": 1.28175067136,
			"0.01": 0.757964404277,
			"0.011": 1.15320999761,
			"0.012": 1.3004698498,
			"0.013": 0.824858031729,
			"0.014": 0.881423397455,
			"0.015": 0.656261120987,
			"0.016": 1.23663527555,
			"0.017": 0.475914003816,
			"0.018": 0.00868015907447,
			"0.019": 0.0,
			"0.02": 0.0,
			"0.021": 0.0,
			"0.022": 0.0,
			"0.023": 0.0,
			"0.024": 0.0,
			"0.025": 0.0
		}
	}
}
