{
	 "smiles": "CCOC(=O)CN1C(=O)CNC1=O", 
	 "Tm": 383.15, 
	 "num_atms": 23, 
	 "gaussian": { 
		 "optdone": 1, 
		 "sigma_profile": "yes", 
		 "theory": "DFT", 
		 "functional": "B3LYP", 
		 "basiset": "6-31G**", 
		 "properties": { 
			 "R2extent": 2652.1035, 
			 "electric_dipole_moment_norm": 4.2542511891, 
			 "electric_quadrupole_moment_norm": 14.3538232447, 
			 "total_energy": -683.218632012, 
			 "HOMO_LUMO_gap": 0.24899, 
			 "cosmo_polarized_energy": -18.36, 
			 "cosmo_cavitation_energy": 28.07, 
			 "cosmo_dispersion_energy": -19.28, 
			 "cosmo_repulsion_energy": 1.6, 
			 "cosmo_total_nonelectrostatic_energy": 10.39, 
			 "SMD_solvation_energy": 6.76 
		},
		"coords": [
			{
				"x": 0.6757904754,
				"y": -2.6372359913,
				"z": -0.6405807255,
				"element": "C" 
			},
			{
				"x": -0.1758585364,
				"y": -1.7012055053,
				"z": -1.4754392289,
				"element": "C" 
			},
			{
				"x": -0.192851609,
				"y": -0.4147255738,
				"z": -0.8065448195,
				"element": "O" 
			},
			{
				"x": -0.9021018361,
				"y": 0.5473023756,
				"z": -1.4163525594,
				"element": "C" 
			},
			{
				"x": -1.5089124553,
				"y": 0.4107197973,
				"z": -2.4545727821,
				"element": "O" 
			},
			{
				"x": -0.8862622112,
				"y": 1.8716068058,
				"z": -0.653328168,
				"element": "C" 
			},
			{
				"x": -0.0511680175,
				"y": 1.9031073218,
				"z": 0.5227819221,
				"element": "N" 
			},
			{
				"x": 1.3123535613,
				"y": 2.121382543,
				"z": 0.5053308488,
				"element": "C" 
			},
			{
				"x": 1.9889269381,
				"y": 2.3978672044,
				"z": -0.4626902208,
				"element": "O" 
			},
			{
				"x": 1.7841260499,
				"y": 1.9516163732,
				"z": 1.9545933387,
				"element": "C" 
			},
			{
				"x": 0.5518518634,
				"y": 1.6316084176,
				"z": 2.6454563694,
				"element": "N" 
			},
			{
				"x": -0.5316867685,
				"y": 1.5604785924,
				"z": 1.8103961611,
				"element": "C" 
			},
			{
				"x": -1.6824815325,
				"y": 1.2833040066,
				"z": 2.0795002894,
				"element": "O" 
			},
			{
				"x": 1.6993157924,
				"y": -2.2614858111,
				"z": -0.5529519491,
				"element": "H" 
			},
			{
				"x": 0.7116012917,
				"y": -3.6237833004,
				"z": -1.1129073535,
				"element": "H" 
			},
			{
				"x": 0.2602763329,
				"y": -2.7524173564,
				"z": 0.3646293141,
				"element": "H" 
			},
			{
				"x": 0.2255920839,
				"y": -1.5636477439,
				"z": -2.4838464596,
				"element": "H" 
			},
			{
				"x": -1.2064102529,
				"y": -2.0553538985,
				"z": -1.5737180645,
				"element": "H" 
			},
			{
				"x": -1.9135565483,
				"y": 2.0877208395,
				"z": -0.3495089695,
				"element": "H" 
			},
			{
				"x": -0.5543849196,
				"y": 2.6455155494,
				"z": -1.349403784,
				"element": "H" 
			},
			{
				"x": 2.2491647356,
				"y": 2.8804113749,
				"z": 2.3054199031,
				"element": "H" 
			},
			{
				"x": 2.5313751114,
				"y": 1.1505064905,
				"z": 2.0041506035,
				"element": "H" 
			},
			{
				"x": 0.470000451,
				"y": 1.3741074885,
				"z": 3.6152863343,
				"element": "H" 
			}
		],
		 "valence_orbital": [ 
			{
				"type": "occ",
				"energy": -0.30289,
				"method": "rhf"
			},
			{
				"type": "occ",
				"energy": -0.29262,
				"method": "rhf"
			},
			{
				"type": "occ",
				"energy": -0.27672,
				"method": "rhf"
			},
			{
				"type": "occ",
				"energy": -0.26977,
				"method": "rhf"
			},
			{
				"type": "occ",
				"energy": -0.26194,
				"method": "rhf"
			},
			{
				"type": "unocc",
				"energy": -0.01295,
				"method": "rhf"
			},
			{
				"type": "unocc",
				"energy": 0.00847,
				"method": "rhf"
			},
			{
				"type": "unocc",
				"energy": 0.05544,
				"method": "rhf"
			},
			{
				"type": "unocc",
				"energy": 0.07365,
				"method": "rhf"
			},
			{
				"type": "unocc",
				"energy": 0.09566,
				"method": "rhf"
			}
		],
		"cosmo_sigma_profile": { 
			"-0.025": 0.0,
			"-0.024": 0.0,
			"-0.023": 0.0,
			"-0.022": 0.0,
			"-0.021": 0.0,
			"-0.02": 0.0,
			"-0.019": 0.0,
			"-0.018": 0.0,
			"-0.017": 0.0,
			"-0.016": 0.744279185763,
			"-0.015": 1.16837704738,
			"-0.014": 1.26400712224,
			"-0.013": 1.29865892352,
			"-0.012": 0.783919910181,
			"-0.011": 0.771646148281,
			"-0.01": 0.937939336928,
			"-0.009": 1.96847639796,
			"-0.008": 8.5654525947,
			"-0.007": 10.1767588891,
			"-0.006": 12.3485185274,
			"-0.005": 16.7150379727,
			"-0.004": 21.0343436922,
			"-0.003": 19.0056088781,
			"-0.002": 15.4433691928,
			"-0.001": 12.773753226,
			"0.0": 12.4958435431,
			"0.001": 9.63306885425,
			"0.002": 6.98836033972,
			"0.003": 7.79942153741,
			"0.004": 7.14595203755,
			"0.005": 4.17509888751,
			"0.006": 3.03731897799,
			"0.007": 4.24693940165,
			"0.008": 3.99520341847,
			"0.009": 4.03445607705,
			"0.01": 5.78162310732,
			"0.011": 9.82129312714,
			"0.012": 12.5017757369,
			"0.013": 4.71195302715,
			"0.014": 0.293238500553,
			"0.015": 0.0,
			"0.016": 0.0,
			"0.017": 0.0,
			"0.018": 0.0,
			"0.019": 0.0,
			"0.02": 0.0,
			"0.021": 0.0,
			"0.022": 0.0,
			"0.023": 0.0,
			"0.024": 0.0,
			"0.025": 0.0
		}
	}
}
