{
	 "smiles": "COC1=C(OC)C=C(C(F)=C1)S(Cl)(=O)=O", 
	 "Tm": 356.15, 
	 "num_atms": 23, 
	 "gaussian": { 
		 "optdone": 1, 
		 "sigma_profile": "yes", 
		 "theory": "DFT", 
		 "functional": "B3LYP", 
		 "basiset": "6-31G**", 
		 "properties": { 
			 "R2extent": 5411.2241, 
			 "electric_dipole_moment_norm": 7.92268172338, 
			 "electric_quadrupole_moment_norm": 15.458143853, 
			 "total_energy": -1568.67447741, 
			 "HOMO_LUMO_gap": 0.16668, 
			 "cosmo_polarized_energy": -12.93, 
			 "cosmo_cavitation_energy": 31.31, 
			 "cosmo_dispersion_energy": -22.9, 
			 "cosmo_repulsion_energy": 1.75, 
			 "cosmo_total_nonelectrostatic_energy": 10.16, 
			 "SMD_solvation_energy": 6.22 
		},
		"coords": [
			{
				"x": -2.5813450905,
				"y": 1.4103101852,
				"z": 0.0524308665,
				"element": "C" 
			},
			{
				"x": -1.8747558162,
				"y": 0.4842344036,
				"z": 0.874519462,
				"element": "O" 
			},
			{
				"x": -0.6333686825,
				"y": 0.102397884,
				"z": 0.5036198935,
				"element": "C" 
			},
			{
				"x": 0.0330550795,
				"y": -0.788149776,
				"z": 1.387297235,
				"element": "C" 
			},
			{
				"x": -0.5395421794,
				"y": -1.1765181166,
				"z": 2.5663448096,
				"element": "O" 
			},
			{
				"x": -1.6332503218,
				"y": -2.0969837476,
				"z": 2.4596843022,
				"element": "C" 
			},
			{
				"x": 1.318378474,
				"y": -1.2120491388,
				"z": 1.086705275,
				"element": "C" 
			},
			{
				"x": 1.9647952609,
				"y": -0.7640019423,
				"z": -0.0743428361,
				"element": "C" 
			},
			{
				"x": 1.2949711664,
				"y": 0.0955022947,
				"z": -0.9431443463,
				"element": "C" 
			},
			{
				"x": 1.8783113911,
				"y": 0.5090210782,
				"z": -2.0736677232,
				"element": "F" 
			},
			{
				"x": 0.005258123,
				"y": 0.5318781024,
				"z": -0.6652658506,
				"element": "C" 
			},
			{
				"x": 3.6308861774,
				"y": -1.2942369965,
				"z": -0.3841772922,
				"element": "S" 
			},
			{
				"x": 3.3551110295,
				"y": -2.6288928702,
				"z": -2.0266589102,
				"element": "Cl" 
			},
			{
				"x": 4.0655964036,
				"y": -2.1179688692,
				"z": 0.7373887079,
				"element": "O" 
			},
			{
				"x": 4.4346985229,
				"y": -0.1908905212,
				"z": -0.8886013883,
				"element": "O" 
			},
			{
				"x": -2.0355047269,
				"y": 2.3564287385,
				"z": -0.0374853183,
				"element": "H" 
			},
			{
				"x": -3.5322106928,
				"y": 1.5865473067,
				"z": 0.5552421159,
				"element": "H" 
			},
			{
				"x": -2.7674092732,
				"y": 0.996949805,
				"z": -0.9458044865,
				"element": "H" 
			},
			{
				"x": -1.3165378489,
				"y": -3.02149343,
				"z": 1.9613848325,
				"element": "H" 
			},
			{
				"x": -2.4757554595,
				"y": -1.6560967772,
				"z": 1.9188404316,
				"element": "H" 
			},
			{
				"x": -1.9353868377,
				"y": -2.3235027653,
				"z": 3.4834027229,
				"element": "H" 
			},
			{
				"x": 1.8295035321,
				"y": -1.8804087176,
				"z": 1.7692355487,
				"element": "H" 
			},
			{
				"x": -0.467198231,
				"y": 1.2048238704,
				"z": -1.3686480515,
				"element": "H" 
			}
		],
		 "valence_orbital": [ 
			{
				"type": "occ",
				"energy": -0.32433,
				"method": "rhf"
			},
			{
				"type": "occ",
				"energy": -0.30756,
				"method": "rhf"
			},
			{
				"type": "occ",
				"energy": -0.2975,
				"method": "rhf"
			},
			{
				"type": "occ",
				"energy": -0.27907,
				"method": "rhf"
			},
			{
				"type": "occ",
				"energy": -0.2498,
				"method": "rhf"
			},
			{
				"type": "unocc",
				"energy": -0.08312,
				"method": "rhf"
			},
			{
				"type": "unocc",
				"energy": -0.03881,
				"method": "rhf"
			},
			{
				"type": "unocc",
				"energy": -0.02862,
				"method": "rhf"
			},
			{
				"type": "unocc",
				"energy": 0.04491,
				"method": "rhf"
			},
			{
				"type": "unocc",
				"energy": 0.06527,
				"method": "rhf"
			}
		],
		"cosmo_sigma_profile": { 
			"-0.025": 0.0,
			"-0.024": 0.0,
			"-0.023": 0.0,
			"-0.022": 0.0,
			"-0.021": 0.0,
			"-0.02": 0.0,
			"-0.019": 0.0,
			"-0.018": 0.0,
			"-0.017": 0.0,
			"-0.016": 0.0,
			"-0.015": 0.0,
			"-0.014": 0.0,
			"-0.013": 0.0,
			"-0.012": 0.0,
			"-0.011": 0.0,
			"-0.01": 0.383422765677,
			"-0.009": 2.25408211534,
			"-0.008": 3.35561077289,
			"-0.007": 7.90217052759,
			"-0.006": 12.6282784205,
			"-0.005": 16.2199039306,
			"-0.004": 19.6617365916,
			"-0.003": 21.0389522306,
			"-0.002": 23.6065755784,
			"-0.001": 22.498410392,
			"0.0": 17.8669733729,
			"0.001": 11.8820336912,
			"0.002": 17.6818251931,
			"0.003": 21.989795849,
			"0.004": 12.0490539839,
			"0.005": 5.72331899588,
			"0.006": 6.13648612196,
			"0.007": 8.35370036135,
			"0.008": 12.2616373778,
			"0.009": 6.73443021176,
			"0.01": 1.79247869674,
			"0.011": 1.11039283232,
			"0.012": 0.0,
			"0.013": 0.0,
			"0.014": 0.0,
			"0.015": 0.0,
			"0.016": 0.0,
			"0.017": 0.0,
			"0.018": 0.0,
			"0.019": 0.0,
			"0.02": 0.0,
			"0.021": 0.0,
			"0.022": 0.0,
			"0.023": 0.0,
			"0.024": 0.0,
			"0.025": 0.0
		}
	}
}
