{
	 "smiles": "COC1=CC2=C(C=C(C(=O)C3=CC=CC4=C3C=CC=C4)C(=O)O2)C(OC)=C1", 
	 "Tm": 483.15, 
	 "num_atms": 43, 
	 "gaussian": { 
		 "optdone": 1, 
		 "sigma_profile": "yes", 
		 "theory": "DFT", 
		 "functional": "B3LYP", 
		 "basiset": "6-31G**", 
		 "properties": { 
			 "R2extent": 12305.1152, 
			 "electric_dipole_moment_norm": 11.093972321, 
			 "electric_quadrupole_moment_norm": 43.8125385585, 
			 "total_energy": -1224.0855179, 
			 "HOMO_LUMO_gap": 0.14479, 
			 "cosmo_polarized_energy": -24.95, 
			 "cosmo_cavitation_energy": 47.89, 
			 "cosmo_dispersion_energy": -32.93, 
			 "cosmo_repulsion_energy": 2.48, 
			 "cosmo_total_nonelectrostatic_energy": 17.45, 
			 "SMD_solvation_energy": 10.88 
		},
		"coords": [
			{
				"x": 1.6763505701,
				"y": -0.2593479397,
				"z": -5.6736497511,
				"element": "C" 
			},
			{
				"x": 0.3251334812,
				"y": -0.088096278,
				"z": -5.2669113543,
				"element": "O" 
			},
			{
				"x": -0.031970279,
				"y": -0.4100453382,
				"z": -3.9989103942,
				"element": "C" 
			},
			{
				"x": -1.3799518823,
				"y": -0.2093060722,
				"z": -3.688985761,
				"element": "C" 
			},
			{
				"x": -1.8163592155,
				"y": -0.5148805192,
				"z": -2.4064523943,
				"element": "C" 
			},
			{
				"x": -0.9481763692,
				"y": -1.0217944778,
				"z": -1.4160216099,
				"element": "C" 
			},
			{
				"x": -1.4972050244,
				"y": -1.3300126353,
				"z": -0.1373111267,
				"element": "C" 
			},
			{
				"x": -2.8229684426,
				"y": -1.1499578034,
				"z": 0.1404082915,
				"element": "C" 
			},
			{
				"x": -3.411344616,
				"y": -1.6402887021,
				"z": 1.42724326,
				"element": "C" 
			},
			{
				"x": -4.5344864999,
				"y": -2.1172304637,
				"z": 1.463925227,
				"element": "O" 
			},
			{
				"x": -2.5419606216,
				"y": -1.6603913745,
				"z": 2.662590282,
				"element": "C" 
			},
			{
				"x": -2.5079353846,
				"y": -2.8550317632,
				"z": 3.3616207764,
				"element": "C" 
			},
			{
				"x": -1.7133544088,
				"y": -3.007925461,
				"z": 4.5178228578,
				"element": "C" 
			},
			{
				"x": -0.9714770525,
				"y": -1.9477856026,
				"z": 4.9858555853,
				"element": "C" 
			},
			{
				"x": -1.0102327229,
				"y": -0.6872100452,
				"z": 4.3328934022,
				"element": "C" 
			},
			{
				"x": -1.8120981595,
				"y": -0.5255927119,
				"z": 3.1515699786,
				"element": "C" 
			},
			{
				"x": -1.8803719536,
				"y": 0.7685653247,
				"z": 2.561887915,
				"element": "C" 
			},
			{
				"x": -1.1731261856,
				"y": 1.8276804045,
				"z": 3.0859484146,
				"element": "C" 
			},
			{
				"x": -0.3581556852,
				"y": 1.6560659855,
				"z": 4.2300712752,
				"element": "C" 
			},
			{
				"x": -0.285310194,
				"y": 0.4255823888,
				"z": 4.8400270138,
				"element": "C" 
			},
			{
				"x": -3.7157314167,
				"y": -0.564798015,
				"z": -0.8699628703,
				"element": "C" 
			},
			{
				"x": -4.8699836318,
				"y": -0.2513434074,
				"z": -0.741953637,
				"element": "O" 
			},
			{
				"x": -3.1269220045,
				"y": -0.3022628587,
				"z": -2.1249136189,
				"element": "O" 
			},
			{
				"x": 0.4141205757,
				"y": -1.2148531547,
				"z": -1.7632443771,
				"element": "C" 
			},
			{
				"x": 1.1985282912,
				"y": -1.7057313118,
				"z": -0.7709266017,
				"element": "O" 
			},
			{
				"x": 2.5782373122,
				"y": -1.9301496284,
				"z": -1.0299654951,
				"element": "C" 
			},
			{
				"x": 0.874747832,
				"y": -0.9117787026,
				"z": -3.0425629781,
				"element": "C" 
			},
			{
				"x": 1.7156227941,
				"y": 0.0611164927,
				"z": -6.7152648125,
				"element": "H" 
			},
			{
				"x": 2.358165319,
				"y": 0.3613238744,
				"z": -5.0793834409,
				"element": "H" 
			},
			{
				"x": 1.987453414,
				"y": -1.3091185891,
				"z": -5.6073233415,
				"element": "H" 
			},
			{
				"x": -2.0646730038,
				"y": 0.1785842432,
				"z": -4.4321283566,
				"element": "H" 
			},
			{
				"x": -0.8385317018,
				"y": -1.7411915884,
				"z": 0.6202360949,
				"element": "H" 
			},
			{
				"x": -3.1022695208,
				"y": -3.6860512829,
				"z": 2.9953507834,
				"element": "H" 
			},
			{
				"x": -1.6910454845,
				"y": -3.9643241337,
				"z": 5.0316608987,
				"element": "H" 
			},
			{
				"x": -0.3536329642,
				"y": -2.0552643285,
				"z": 5.8738338702,
				"element": "H" 
			},
			{
				"x": -2.5132009313,
				"y": 0.9266021413,
				"z": 1.6965015941,
				"element": "H" 
			},
			{
				"x": -1.2479797259,
				"y": 2.8065175408,
				"z": 2.6212251214,
				"element": "H" 
			},
			{
				"x": 0.1959800485,
				"y": 2.4999787027,
				"z": 4.6304983288,
				"element": "H" 
			},
			{
				"x": 0.3212165591,
				"y": 0.2865223616,
				"z": 5.7314056215,
				"element": "H" 
			},
			{
				"x": 2.9963522998,
				"y": -2.3185142621,
				"z": -0.1008505584,
				"element": "H" 
			},
			{
				"x": 3.0914300018,
				"y": -0.998577219,
				"z": -1.2974873339,
				"element": "H" 
			},
			{
				"x": 2.7205007698,
				"y": -2.6680045131,
				"z": -1.8288302721,
				"element": "H" 
			},
			{
				"x": 1.9127158143,
				"y": -1.0601792768,
				"z": -3.2997365069,
				"element": "H" 
			}
		],
		 "valence_orbital": [ 
			{
				"type": "occ",
				"energy": -0.24825,
				"method": "rhf"
			},
			{
				"type": "occ",
				"energy": -0.24132,
				"method": "rhf"
			},
			{
				"type": "occ",
				"energy": -0.23925,
				"method": "rhf"
			},
			{
				"type": "occ",
				"energy": -0.22156,
				"method": "rhf"
			},
			{
				"type": "occ",
				"energy": -0.21782,
				"method": "rhf"
			},
			{
				"type": "unocc",
				"energy": -0.07303,
				"method": "rhf"
			},
			{
				"type": "unocc",
				"energy": -0.05067,
				"method": "rhf"
			},
			{
				"type": "unocc",
				"energy": -0.01566,
				"method": "rhf"
			},
			{
				"type": "unocc",
				"energy": -0.0109,
				"method": "rhf"
			},
			{
				"type": "unocc",
				"energy": -0.00086,
				"method": "rhf"
			}
		],
		"cosmo_sigma_profile": { 
			"-0.025": 0.0,
			"-0.024": 0.0,
			"-0.023": 0.0,
			"-0.022": 0.0,
			"-0.021": 0.0,
			"-0.02": 0.0,
			"-0.019": 0.0,
			"-0.018": 0.0,
			"-0.017": 0.0,
			"-0.016": 0.0,
			"-0.015": 0.0,
			"-0.014": 0.0,
			"-0.013": 0.0,
			"-0.012": 0.0,
			"-0.011": 0.0,
			"-0.01": 0.0,
			"-0.009": 0.0211363204464,
			"-0.008": 2.1394432312,
			"-0.007": 10.042678921,
			"-0.006": 34.8215077687,
			"-0.005": 36.8007835075,
			"-0.004": 38.0400253121,
			"-0.003": 27.3010006503,
			"-0.002": 22.212968494,
			"-0.001": 21.7631264229,
			"0.0": 29.3113101437,
			"0.001": 27.0393183352,
			"0.002": 27.572294868,
			"0.003": 27.3775598387,
			"0.004": 21.7358667436,
			"0.005": 11.5420449036,
			"0.006": 5.20127480293,
			"0.007": 3.50912202035,
			"0.008": 5.65188476158,
			"0.009": 4.8271445469,
			"0.01": 5.10451186519,
			"0.011": 7.21094257794,
			"0.012": 9.0097538283,
			"0.013": 3.98295799302,
			"0.014": 1.71848331233,
			"0.015": 0.670809558532,
			"0.016": 0.0,
			"0.017": 0.0,
			"0.018": 0.0,
			"0.019": 0.0,
			"0.02": 0.0,
			"0.021": 0.0,
			"0.022": 0.0,
			"0.023": 0.0,
			"0.024": 0.0,
			"0.025": 0.0
		}
	}
}
