{
	 "smiles": "CC1(CCOCO1)C1=CC=CC=C1", 
	 "Tm": 310.65, 
	 "num_atms": 27, 
	 "gaussian": { 
		 "optdone": 1, 
		 "sigma_profile": "yes", 
		 "theory": "DFT", 
		 "functional": "B3LYP", 
		 "basiset": "6-31G**", 
		 "properties": { 
			 "R2extent": 2668.6845, 
			 "electric_dipole_moment_norm": 1.88875555062, 
			 "electric_quadrupole_moment_norm": 7.87055933209, 
			 "total_energy": -578.035619315, 
			 "HOMO_LUMO_gap": 0.23788, 
			 "cosmo_polarized_energy": -7.82, 
			 "cosmo_cavitation_energy": 28.07, 
			 "cosmo_dispersion_energy": -20.57, 
			 "cosmo_repulsion_energy": 1.62, 
			 "cosmo_total_nonelectrostatic_energy": 9.12, 
			 "SMD_solvation_energy": 4.95 
		},
		"coords": [
			{
				"x": 0.3314253161,
				"y": -0.1545611703,
				"z": 1.8217532302,
				"element": "C" 
			},
			{
				"x": -0.1572189087,
				"y": 0.7209560665,
				"z": 0.6573868327,
				"element": "C" 
			},
			{
				"x": 0.180091648,
				"y": 2.2199438463,
				"z": 0.8909862276,
				"element": "C" 
			},
			{
				"x": -0.8245383248,
				"y": 3.1050893292,
				"z": 0.1552507822,
				"element": "C" 
			},
			{
				"x": -2.169164334,
				"y": 2.8504233099,
				"z": 0.5805802556,
				"element": "O" 
			},
			{
				"x": -2.3176091659,
				"y": 1.5972334064,
				"z": 1.2078409546,
				"element": "C" 
			},
			{
				"x": -1.5971231929,
				"y": 0.5749024081,
				"z": 0.5692043604,
				"element": "O" 
			},
			{
				"x": 0.4228033303,
				"y": 0.2337132012,
				"z": -0.6760246308,
				"element": "C" 
			},
			{
				"x": 1.8133752348,
				"y": 0.1724766092,
				"z": -0.8568844899,
				"element": "C" 
			},
			{
				"x": 2.3614287878,
				"y": -0.2693417771,
				"z": -2.0602037972,
				"element": "C" 
			},
			{
				"x": 1.5264590251,
				"y": -0.6598169041,
				"z": -3.1095019608,
				"element": "C" 
			},
			{
				"x": 0.1437378509,
				"y": -0.6022526154,
				"z": -2.9402179502,
				"element": "C" 
			},
			{
				"x": -0.4048875158,
				"y": -0.1596961382,
				"z": -1.7337472075,
				"element": "C" 
			},
			{
				"x": -0.1404533013,
				"y": 0.164856868,
				"z": 2.7569017489,
				"element": "H" 
			},
			{
				"x": 0.0694731868,
				"y": -1.199800902,
				"z": 1.6391493101,
				"element": "H" 
			},
			{
				"x": 1.4158424777,
				"y": -0.0852578964,
				"z": 1.9496863681,
				"element": "H" 
			},
			{
				"x": 0.1558836065,
				"y": 2.4478788342,
				"z": 1.9630580582,
				"element": "H" 
			},
			{
				"x": 1.193547874,
				"y": 2.4377940212,
				"z": 0.5432120449,
				"element": "H" 
			},
			{
				"x": -0.6209983874,
				"y": 4.1659754779,
				"z": 0.3367434605,
				"element": "H" 
			},
			{
				"x": -0.7504899532,
				"y": 2.9263292859,
				"z": -0.9263651132,
				"element": "H" 
			},
			{
				"x": -3.3750018012,
				"y": 1.3299484096,
				"z": 1.1402179542,
				"element": "H" 
			},
			{
				"x": -2.030061389,
				"y": 1.6618437338,
				"z": 2.271944493,
				"element": "H" 
			},
			{
				"x": 2.4810069326,
				"y": 0.4720755587,
				"z": -0.0529513411,
				"element": "H" 
			},
			{
				"x": 3.4408571613,
				"y": -0.3084755649,
				"z": -2.1776078367,
				"element": "H" 
			},
			{
				"x": 1.951441462,
				"y": -1.0044873846,
				"z": -4.0478766716,
				"element": "H" 
			},
			{
				"x": -0.5165145875,
				"y": -0.9022802956,
				"z": -3.7493892105,
				"element": "H" 
			},
			{
				"x": -1.4787130321,
				"y": -0.1168697176,
				"z": -1.6011458715,
				"element": "H" 
			}
		],
		 "valence_orbital": [ 
			{
				"type": "occ",
				"energy": -0.31194,
				"method": "rhf"
			},
			{
				"type": "occ",
				"energy": -0.26493,
				"method": "rhf"
			},
			{
				"type": "occ",
				"energy": -0.2486,
				"method": "rhf"
			},
			{
				"type": "occ",
				"energy": -0.24591,
				"method": "rhf"
			},
			{
				"type": "occ",
				"energy": -0.24022,
				"method": "rhf"
			},
			{
				"type": "unocc",
				"energy": -0.00234,
				"method": "rhf"
			},
			{
				"type": "unocc",
				"energy": 0.00319,
				"method": "rhf"
			},
			{
				"type": "unocc",
				"energy": 0.07861,
				"method": "rhf"
			},
			{
				"type": "unocc",
				"energy": 0.09987,
				"method": "rhf"
			},
			{
				"type": "unocc",
				"energy": 0.11066,
				"method": "rhf"
			}
		],
		"cosmo_sigma_profile": { 
			"-0.025": 0.0,
			"-0.024": 0.0,
			"-0.023": 0.0,
			"-0.022": 0.0,
			"-0.021": 0.0,
			"-0.02": 0.0,
			"-0.019": 0.0,
			"-0.018": 0.0,
			"-0.017": 0.0,
			"-0.016": 0.0,
			"-0.015": 0.0,
			"-0.014": 0.0,
			"-0.013": 0.0,
			"-0.012": 0.0,
			"-0.011": 0.0,
			"-0.01": 0.0,
			"-0.009": 0.0,
			"-0.008": 0.0,
			"-0.007": 0.344848873098,
			"-0.006": 7.47322502277,
			"-0.005": 18.7394881719,
			"-0.004": 24.5807786458,
			"-0.003": 28.8639369304,
			"-0.002": 22.7563915209,
			"-0.001": 17.5721383197,
			"0.0": 15.6355392796,
			"0.001": 14.0349897158,
			"0.002": 11.325664875,
			"0.003": 9.44527798517,
			"0.004": 11.8134803287,
			"0.005": 10.9731039428,
			"0.006": 10.209959886,
			"0.007": 4.38689287501,
			"0.008": 3.07843421516,
			"0.009": 1.48736184531,
			"0.01": 1.87682281923,
			"0.011": 2.13868507742,
			"0.012": 1.66093933564,
			"0.013": 2.04600697561,
			"0.014": 0.1965234909,
			"0.015": 0.0,
			"0.016": 0.0,
			"0.017": 0.0,
			"0.018": 0.0,
			"0.019": 0.0,
			"0.02": 0.0,
			"0.021": 0.0,
			"0.022": 0.0,
			"0.023": 0.0,
			"0.024": 0.0,
			"0.025": 0.0
		}
	}
}
