{
	 "smiles": "NC1=C(OC2=CC=CC=C2)N=CC=C1", 
	 "Tm": 381.15, 
	 "num_atms": 24, 
	 "gaussian": { 
		 "optdone": 1, 
		 "sigma_profile": "yes", 
		 "theory": "DFT", 
		 "functional": "B3LYP", 
		 "basiset": "6-31G**", 
		 "properties": { 
			 "R2extent": 3497.1312, 
			 "electric_dipole_moment_norm": 2.10127002311, 
			 "electric_quadrupole_moment_norm": 11.9908277788, 
			 "total_energy": -609.918292283, 
			 "HOMO_LUMO_gap": 0.18676, 
			 "cosmo_polarized_energy": -10.91, 
			 "cosmo_cavitation_energy": 28.35, 
			 "cosmo_dispersion_energy": -20.9, 
			 "cosmo_repulsion_energy": 1.66, 
			 "cosmo_total_nonelectrostatic_energy": 9.11, 
			 "SMD_solvation_energy": 4.25 
		},
		"coords": [
			{
				"x": -1.6627799089,
				"y": -1.0062403732,
				"z": -3.6039032394,
				"element": "N" 
			},
			{
				"x": -1.9973696115,
				"y": -0.5467151584,
				"z": -2.3370596496,
				"element": "C" 
			},
			{
				"x": -0.984248403,
				"y": -0.3080868225,
				"z": -1.372990232,
				"element": "C" 
			},
			{
				"x": 0.2783197337,
				"y": -0.6767626637,
				"z": -1.7824971194,
				"element": "O" 
			},
			{
				"x": 1.4162498647,
				"y": -0.312381843,
				"z": -1.0749663893,
				"element": "C" 
			},
			{
				"x": 1.6612256788,
				"y": 1.0020013237,
				"z": -0.6723069202,
				"element": "C" 
			},
			{
				"x": 2.8742992735,
				"y": 1.3042704047,
				"z": -0.054723761,
				"element": "C" 
			},
			{
				"x": 3.83651267,
				"y": 0.3126673712,
				"z": 0.1539226278,
				"element": "C" 
			},
			{
				"x": 3.5794040694,
				"y": -0.994950028,
				"z": -0.2598785011,
				"element": "C" 
			},
			{
				"x": 2.3664304816,
				"y": -1.3123536333,
				"z": -0.8729564529,
				"element": "C" 
			},
			{
				"x": -1.191161129,
				"y": 0.1745115531,
				"z": -0.1691135314,
				"element": "N" 
			},
			{
				"x": -2.4543024696,
				"y": 0.4738356989,
				"z": 0.1877960724,
				"element": "C" 
			},
			{
				"x": -3.5334354221,
				"y": 0.2790011817,
				"z": -0.6631582675,
				"element": "C" 
			},
			{
				"x": -3.2995329485,
				"y": -0.2392505348,
				"z": -1.941776713,
				"element": "C" 
			},
			{
				"x": -2.3900012864,
				"y": -1.5060386568,
				"z": -4.0952241672,
				"element": "H" 
			},
			{
				"x": -0.7568175619,
				"y": -1.4493638591,
				"z": -3.6612721118,
				"element": "H" 
			},
			{
				"x": 0.9121742578,
				"y": 1.7675135742,
				"z": -0.8327212879,
				"element": "H" 
			},
			{
				"x": 3.0682882482,
				"y": 2.3248558536,
				"z": 0.2626877375,
				"element": "H" 
			},
			{
				"x": 4.7785163929,
				"y": 0.5589405352,
				"z": 0.6345733746,
				"element": "H" 
			},
			{
				"x": 4.3203294264,
				"y": -1.7738097327,
				"z": -0.104153562,
				"element": "H" 
			},
			{
				"x": 2.1453165741,
				"y": -2.3229161088,
				"z": -1.2007652006,
				"element": "H" 
			},
			{
				"x": -2.5871543462,
				"y": 0.8740686846,
				"z": 1.1895980172,
				"element": "H" 
			},
			{
				"x": -4.5407103167,
				"y": 0.5247942368,
				"z": -0.3430015024,
				"element": "H" 
			},
			{
				"x": -4.1216532674,
				"y": -0.3981910035,
				"z": -2.6350092206,
				"element": "H" 
			}
		],
		 "valence_orbital": [ 
			{
				"type": "occ",
				"energy": -0.2645,
				"method": "rhf"
			},
			{
				"type": "occ",
				"energy": -0.26293,
				"method": "rhf"
			},
			{
				"type": "occ",
				"energy": -0.24505,
				"method": "rhf"
			},
			{
				"type": "occ",
				"energy": -0.23156,
				"method": "rhf"
			},
			{
				"type": "occ",
				"energy": -0.19928,
				"method": "rhf"
			},
			{
				"type": "unocc",
				"energy": -0.01252,
				"method": "rhf"
			},
			{
				"type": "unocc",
				"energy": 0.00336,
				"method": "rhf"
			},
			{
				"type": "unocc",
				"energy": 0.0082,
				"method": "rhf"
			},
			{
				"type": "unocc",
				"energy": 0.01927,
				"method": "rhf"
			},
			{
				"type": "unocc",
				"energy": 0.0848,
				"method": "rhf"
			}
		],
		"cosmo_sigma_profile": { 
			"-0.025": 0.0,
			"-0.024": 0.0,
			"-0.023": 0.0,
			"-0.022": 0.0,
			"-0.021": 0.0,
			"-0.02": 0.0,
			"-0.019": 0.0,
			"-0.018": 0.0,
			"-0.017": 0.0,
			"-0.016": 0.0,
			"-0.015": 0.0,
			"-0.014": 0.0,
			"-0.013": 0.85106255316,
			"-0.012": 1.7355449517,
			"-0.011": 2.33028895389,
			"-0.01": 2.59428897212,
			"-0.009": 2.42731556311,
			"-0.008": 2.37485288794,
			"-0.007": 4.03449593474,
			"-0.006": 12.617173837,
			"-0.005": 16.051516279,
			"-0.004": 17.3255615066,
			"-0.003": 16.7960963628,
			"-0.002": 12.0146413075,
			"-0.001": 12.4873973476,
			"0.0": 13.3255428646,
			"0.001": 13.6524674764,
			"0.002": 16.3983602162,
			"0.003": 21.0285436617,
			"0.004": 20.9245595686,
			"0.005": 16.4393146654,
			"0.006": 7.07884373365,
			"0.007": 2.23308744493,
			"0.008": 2.05327975096,
			"0.009": 2.46087333805,
			"0.01": 1.73863379278,
			"0.011": 1.73335845105,
			"0.012": 1.7791694869,
			"0.013": 1.33598851569,
			"0.014": 1.1946838307,
			"0.015": 0.0958456032624,
			"0.016": 0.0,
			"0.017": 0.0,
			"0.018": 0.0,
			"0.019": 0.0,
			"0.02": 0.0,
			"0.021": 0.0,
			"0.022": 0.0,
			"0.023": 0.0,
			"0.024": 0.0,
			"0.025": 0.0
		}
	}
}
