{
	 "smiles": "OC(=O)C1=C(F)C=C2N=NNC2=C1", 
	 "Tm": 542.15, 
	 "num_atms": 17, 
	 "gaussian": { 
		 "optdone": 1, 
		 "sigma_profile": "yes", 
		 "theory": "DFT", 
		 "functional": "B3LYP", 
		 "basiset": "6-31G**", 
		 "properties": { 
			 "R2extent": 2976.4999, 
			 "electric_dipole_moment_norm": 1.30353608312, 
			 "electric_quadrupole_moment_norm": 23.4287849593, 
			 "total_energy": -683.662210223, 
			 "HOMO_LUMO_gap": 0.18156, 
			 "cosmo_polarized_energy": -18.5, 
			 "cosmo_cavitation_energy": 22.75, 
			 "cosmo_dispersion_energy": -17.37, 
			 "cosmo_repulsion_energy": 1.33, 
			 "cosmo_total_nonelectrostatic_energy": 6.7, 
			 "SMD_solvation_energy": 3.84 
		},
		"coords": [
			{
				"x": -1.0859193479,
				"y": -1.7510978274,
				"z": 0.736217864,
				"element": "O" 
			},
			{
				"x": -0.1887295065,
				"y": -0.7538832504,
				"z": 0.8319658372,
				"element": "C" 
			},
			{
				"x": 0.4972916764,
				"y": -0.6336475824,
				"z": 1.8216017815,
				"element": "O" 
			},
			{
				"x": -0.0640079885,
				"y": 0.2073783151,
				"z": -0.3285449402,
				"element": "C" 
			},
			{
				"x": -0.8195904077,
				"y": 0.1512389276,
				"z": -1.5291278287,
				"element": "C" 
			},
			{
				"x": -1.7451293187,
				"y": -0.8482853666,
				"z": -1.6712940681,
				"element": "F" 
			},
			{
				"x": -0.6912207451,
				"y": 1.0367680369,
				"z": -2.575229231,
				"element": "C" 
			},
			{
				"x": 0.2618244046,
				"y": 2.0529909226,
				"z": -2.4099231978,
				"element": "C" 
			},
			{
				"x": 0.6314832164,
				"y": 3.081281445,
				"z": -3.2502750294,
				"element": "N" 
			},
			{
				"x": 1.5573029127,
				"y": 3.7706690319,
				"z": -2.6657104679,
				"element": "N" 
			},
			{
				"x": 1.8159664714,
				"y": 3.2255620026,
				"z": -1.4486455998,
				"element": "N" 
			},
			{
				"x": 1.0264560998,
				"y": 2.1321546256,
				"z": -1.2268241441,
				"element": "C" 
			},
			{
				"x": 0.8795003575,
				"y": 1.2228698924,
				"z": -0.1785009678,
				"element": "C" 
			},
			{
				"x": -1.5539521694,
				"y": -1.7113519656,
				"z": -0.1129998763,
				"element": "H" 
			},
			{
				"x": -1.2963739916,
				"y": 0.9442077883,
				"z": -3.4687738256,
				"element": "H" 
			},
			{
				"x": 2.5189126459,
				"y": 3.648619083,
				"z": -0.8608356943,
				"element": "H" 
			},
			{
				"x": 1.4524856908,
				"y": 1.2591259211,
				"z": 0.7408993883,
				"element": "H" 
			}
		],
		 "valence_orbital": [ 
			{
				"type": "occ",
				"energy": -0.32211,
				"method": "rhf"
			},
			{
				"type": "occ",
				"energy": -0.29382,
				"method": "rhf"
			},
			{
				"type": "occ",
				"energy": -0.28563,
				"method": "rhf"
			},
			{
				"type": "occ",
				"energy": -0.28099,
				"method": "rhf"
			},
			{
				"type": "occ",
				"energy": -0.26669,
				"method": "rhf"
			},
			{
				"type": "unocc",
				"energy": -0.08513,
				"method": "rhf"
			},
			{
				"type": "unocc",
				"energy": -0.03291,
				"method": "rhf"
			},
			{
				"type": "unocc",
				"energy": -0.00031,
				"method": "rhf"
			},
			{
				"type": "unocc",
				"energy": 0.05316,
				"method": "rhf"
			},
			{
				"type": "unocc",
				"energy": 0.05736,
				"method": "rhf"
			}
		],
		"cosmo_sigma_profile": { 
			"-0.025": 0.0,
			"-0.024": 0.0,
			"-0.023": 0.0,
			"-0.022": 0.0,
			"-0.021": 0.0,
			"-0.02": 0.0,
			"-0.019": 0.480218725176,
			"-0.018": 2.13912902661,
			"-0.017": 1.4510015234,
			"-0.016": 1.22878761078,
			"-0.015": 1.15566500091,
			"-0.014": 1.55286316704,
			"-0.013": 1.15946014599,
			"-0.012": 1.90094752257,
			"-0.011": 1.9007421664,
			"-0.01": 4.06821007203,
			"-0.009": 5.19758721612,
			"-0.008": 5.14247344749,
			"-0.007": 4.57040550008,
			"-0.006": 4.98829251391,
			"-0.005": 5.87149098418,
			"-0.004": 6.08727115066,
			"-0.003": 9.6988211522,
			"-0.002": 17.5354876799,
			"-0.001": 19.3673763793,
			"0.0": 14.9111335621,
			"0.001": 7.42348954463,
			"0.002": 7.32527572435,
			"0.003": 5.67957639086,
			"0.004": 3.89013693106,
			"0.005": 4.06903771686,
			"0.006": 4.38573646028,
			"0.007": 4.17844997102,
			"0.008": 5.65608546635,
			"0.009": 7.15331141988,
			"0.01": 7.50507639587,
			"0.011": 7.88246903895,
			"0.012": 5.5017233373,
			"0.013": 1.90300987605,
			"0.014": 1.15173626136,
			"0.015": 0.353848578349,
			"0.016": 0.0,
			"0.017": 0.0,
			"0.018": 0.0,
			"0.019": 0.0,
			"0.02": 0.0,
			"0.021": 0.0,
			"0.022": 0.0,
			"0.023": 0.0,
			"0.024": 0.0,
			"0.025": 0.0
		}
	}
}
