{
	 "smiles": "CC1=NC(=NC=C1C=O)C1=CC=CC=C1", 
	 "Tm": 375.15, 
	 "num_atms": 25, 
	 "gaussian": { 
		 "optdone": 1, 
		 "sigma_profile": "yes", 
		 "theory": "DFT", 
		 "functional": "B3LYP", 
		 "basiset": "6-31G**", 
		 "properties": { 
			 "R2extent": 4614.1506, 
			 "electric_dipole_moment_norm": 1.84764287945, 
			 "electric_quadrupole_moment_norm": 9.63900352215, 
			 "total_energy": -648.034333685, 
			 "HOMO_LUMO_gap": 0.15876, 
			 "cosmo_polarized_energy": -9.35, 
			 "cosmo_cavitation_energy": 29.69, 
			 "cosmo_dispersion_energy": -21.74, 
			 "cosmo_repulsion_energy": 1.67, 
			 "cosmo_total_nonelectrostatic_energy": 9.63, 
			 "SMD_solvation_energy": 4.06 
		},
		"coords": [
			{
				"x": -3.881398331,
				"y": 0.8228365967,
				"z": -1.3997677232,
				"element": "C" 
			},
			{
				"x": -2.4713411341,
				"y": 1.2081623607,
				"z": -1.0569101469,
				"element": "C" 
			},
			{
				"x": -1.5194785944,
				"y": 0.3071481883,
				"z": -1.3114347218,
				"element": "N" 
			},
			{
				"x": -0.2390954296,
				"y": 0.6107081964,
				"z": -1.0194480225,
				"element": "C" 
			},
			{
				"x": 0.1771998795,
				"y": 1.77419107,
				"z": -0.4788689218,
				"element": "N" 
			},
			{
				"x": -0.770673085,
				"y": 2.6694591465,
				"z": -0.2262185855,
				"element": "C" 
			},
			{
				"x": -2.1294958531,
				"y": 2.4614561309,
				"z": -0.4883017106,
				"element": "C" 
			},
			{
				"x": -3.0855359487,
				"y": 3.5327751752,
				"z": -0.1630718883,
				"element": "C" 
			},
			{
				"x": -4.290942746,
				"y": 3.4924617963,
				"z": -0.335477444,
				"element": "O" 
			},
			{
				"x": 0.7887117744,
				"y": -0.4117872639,
				"z": -1.3152577195,
				"element": "C" 
			},
			{
				"x": 2.1422231461,
				"y": -0.1581090475,
				"z": -1.0350739548,
				"element": "C" 
			},
			{
				"x": 3.1084274927,
				"y": -1.1210349104,
				"z": -1.3139360932,
				"element": "C" 
			},
			{
				"x": 2.7377313268,
				"y": -2.346369066,
				"z": -1.8744897085,
				"element": "C" 
			},
			{
				"x": 1.3935607542,
				"y": -2.6053467043,
				"z": -2.1556723995,
				"element": "C" 
			},
			{
				"x": 0.4231904514,
				"y": -1.6459690462,
				"z": -1.8788352443,
				"element": "C" 
			},
			{
				"x": -4.5224675085,
				"y": 0.8631204679,
				"z": -0.5140470676,
				"element": "H" 
			},
			{
				"x": -3.8851248583,
				"y": -0.1829471544,
				"z": -1.8213783675,
				"element": "H" 
			},
			{
				"x": -4.3169419087,
				"y": 1.5315924981,
				"z": -2.110438095,
				"element": "H" 
			},
			{
				"x": -0.4432340966,
				"y": 3.6139467724,
				"z": 0.2112982971,
				"element": "H" 
			},
			{
				"x": -2.6084853492,
				"y": 4.4374194803,
				"z": 0.277025478,
				"element": "H" 
			},
			{
				"x": 2.4151542842,
				"y": 0.7965222176,
				"z": -0.6004152597,
				"element": "H" 
			},
			{
				"x": 4.1523517201,
				"y": -0.9168482733,
				"z": -1.0942783978,
				"element": "H" 
			},
			{
				"x": 3.4932545451,
				"y": -3.096315357,
				"z": -2.0912783792,
				"element": "H" 
			},
			{
				"x": 1.1023877559,
				"y": -3.5567446639,
				"z": -2.5913126826,
				"element": "H" 
			},
			{
				"x": -0.6230782872,
				"y": -1.8323286103,
				"z": -2.0913112412,
				"element": "H" 
			}
		],
		 "valence_orbital": [ 
			{
				"type": "occ",
				"energy": -0.30024,
				"method": "rhf"
			},
			{
				"type": "occ",
				"energy": -0.2614,
				"method": "rhf"
			},
			{
				"type": "occ",
				"energy": -0.25636,
				"method": "rhf"
			},
			{
				"type": "occ",
				"energy": -0.25588,
				"method": "rhf"
			},
			{
				"type": "occ",
				"energy": -0.24462,
				"method": "rhf"
			},
			{
				"type": "unocc",
				"energy": -0.08586,
				"method": "rhf"
			},
			{
				"type": "unocc",
				"energy": -0.04554,
				"method": "rhf"
			},
			{
				"type": "unocc",
				"energy": -0.01743,
				"method": "rhf"
			},
			{
				"type": "unocc",
				"energy": -0.00282,
				"method": "rhf"
			},
			{
				"type": "unocc",
				"energy": 0.04176,
				"method": "rhf"
			}
		],
		"cosmo_sigma_profile": { 
			"-0.025": 0.0,
			"-0.024": 0.0,
			"-0.023": 0.0,
			"-0.022": 0.0,
			"-0.021": 0.0,
			"-0.02": 0.0,
			"-0.019": 0.0,
			"-0.018": 0.0,
			"-0.017": 0.0,
			"-0.016": 0.0,
			"-0.015": 0.0,
			"-0.014": 0.0,
			"-0.013": 0.0,
			"-0.012": 0.0,
			"-0.011": 0.0,
			"-0.01": 0.206187504893,
			"-0.009": 2.73318213078,
			"-0.008": 3.64604290289,
			"-0.007": 4.87499731425,
			"-0.006": 9.93129108796,
			"-0.005": 15.597760096,
			"-0.004": 21.3539995194,
			"-0.003": 22.5069551033,
			"-0.002": 22.1111937713,
			"-0.001": 19.2409360149,
			"0.0": 14.8191824613,
			"0.001": 15.0839204339,
			"0.002": 16.3785108177,
			"0.003": 15.8244456552,
			"0.004": 17.5288953649,
			"0.005": 10.0185026809,
			"0.006": 4.99256743315,
			"0.007": 4.34130720813,
			"0.008": 4.88797936738,
			"0.009": 3.03409125159,
			"0.01": 3.55095325875,
			"0.011": 3.61140837006,
			"0.012": 1.96786938188,
			"0.013": 0.459513474529,
			"0.014": 0.0,
			"0.015": 0.0,
			"0.016": 0.0,
			"0.017": 0.0,
			"0.018": 0.0,
			"0.019": 0.0,
			"0.02": 0.0,
			"0.021": 0.0,
			"0.022": 0.0,
			"0.023": 0.0,
			"0.024": 0.0,
			"0.025": 0.0
		}
	}
}
