{
	 "smiles": "CCC1C2=C(C=CC=C2)N(C)C11OC2=C(C=CC=C2[N+]([O-])=O)C=C1", 
	 "Tm": 421.15, 
	 "num_atms": 42, 
	 "gaussian": { 
		 "optdone": 1, 
		 "sigma_profile": "yes", 
		 "theory": "DFT", 
		 "functional": "B3LYP", 
		 "basiset": "6-31G**", 
		 "properties": { 
			 "R2extent": 8794.4032, 
			 "electric_dipole_moment_norm": 5.4325428788, 
			 "electric_quadrupole_moment_norm": 22.8286431539, 
			 "total_energy": -1069.92822091, 
			 "HOMO_LUMO_gap": 0.11714, 
			 "cosmo_polarized_energy": -13.46, 
			 "cosmo_cavitation_energy": 43.87, 
			 "cosmo_dispersion_energy": -29.91, 
			 "cosmo_repulsion_energy": 2.24, 
			 "cosmo_total_nonelectrostatic_energy": 16.2, 
			 "SMD_solvation_energy": 8.38 
		},
		"coords": [
			{
				"x": 3.0307635877,
				"y": -1.117904489,
				"z": -1.3627796709,
				"element": "C" 
			},
			{
				"x": 2.2410694523,
				"y": -0.4851709501,
				"z": -0.2138792577,
				"element": "C" 
			},
			{
				"x": 0.7170657515,
				"y": -0.7358415402,
				"z": -0.3091706148,
				"element": "C" 
			},
			{
				"x": 0.331828167,
				"y": -2.1843731658,
				"z": -0.074009545,
				"element": "C" 
			},
			{
				"x": -0.1742467249,
				"y": -2.3073169644,
				"z": 1.2338988702,
				"element": "C" 
			},
			{
				"x": -0.5772422543,
				"y": -3.5427848057,
				"z": 1.7398852482,
				"element": "C" 
			},
			{
				"x": -0.4548838369,
				"y": -4.6663433981,
				"z": 0.9104246599,
				"element": "C" 
			},
			{
				"x": 0.0361164547,
				"y": -4.5561222151,
				"z": -0.3896059407,
				"element": "C" 
			},
			{
				"x": 0.4327309908,
				"y": -3.3033389106,
				"z": -0.8867272758,
				"element": "C" 
			},
			{
				"x": -0.2103859947,
				"y": -1.0597689669,
				"z": 1.862529461,
				"element": "N" 
			},
			{
				"x": -1.0027606176,
				"y": -0.8351783234,
				"z": 3.0558657789,
				"element": "C" 
			},
			{
				"x": -0.0958858258,
				"y": -0.0189072634,
				"z": 0.8303248071,
				"element": "C" 
			},
			{
				"x": 0.6820030235,
				"y": 1.0701943976,
				"z": 1.3729637478,
				"element": "O" 
			},
			{
				"x": 0.1660085271,
				"y": 2.2772028316,
				"z": 1.6756223153,
				"element": "C" 
			},
			{
				"x": -1.1606371576,
				"y": 2.6331256694,
				"z": 1.338319554,
				"element": "C" 
			},
			{
				"x": -1.6531902609,
				"y": 3.8924465651,
				"z": 1.6928597303,
				"element": "C" 
			},
			{
				"x": -0.8657193863,
				"y": 4.8081643742,
				"z": 2.3910127293,
				"element": "C" 
			},
			{
				"x": 0.4362274167,
				"y": 4.4641974987,
				"z": 2.7324560168,
				"element": "C" 
			},
			{
				"x": 0.9553820698,
				"y": 3.2189878846,
				"z": 2.3651105515,
				"element": "C" 
			},
			{
				"x": 2.3528673685,
				"y": 2.9523464787,
				"z": 2.7235347764,
				"element": "N" 
			},
			{
				"x": 3.0052823356,
				"y": 2.1890494036,
				"z": 2.0157645512,
				"element": "O" 
			},
			{
				"x": 2.7972645762,
				"y": 3.5434634666,
				"z": 3.7109001656,
				"element": "O" 
			},
			{
				"x": -1.9489710563,
				"y": 1.6472575117,
				"z": 0.6153379347,
				"element": "C" 
			},
			{
				"x": -1.4509950241,
				"y": 0.4326322452,
				"z": 0.3532974962,
				"element": "C" 
			},
			{
				"x": 4.0916018586,
				"y": -0.8617394372,
				"z": -1.2793506642,
				"element": "H" 
			},
			{
				"x": 2.9539400057,
				"y": -2.2091752003,
				"z": -1.3606993919,
				"element": "H" 
			},
			{
				"x": 2.6800067022,
				"y": -0.7568129285,
				"z": -2.3374158011,
				"element": "H" 
			},
			{
				"x": 2.6055415998,
				"y": -0.8635055186,
				"z": 0.7471712361,
				"element": "H" 
			},
			{
				"x": 2.4155171313,
				"y": 0.5937604303,
				"z": -0.1972316793,
				"element": "H" 
			},
			{
				"x": 0.3643299973,
				"y": -0.3663690264,
				"z": -1.279804391,
				"element": "H" 
			},
			{
				"x": -0.9814035572,
				"y": -3.6390033389,
				"z": 2.742217025,
				"element": "H" 
			},
			{
				"x": -0.7642950489,
				"y": -5.6367863696,
				"z": 1.2885998743,
				"element": "H" 
			},
			{
				"x": 0.1051446209,
				"y": -5.4356667904,
				"z": -1.0220702898,
				"element": "H" 
			},
			{
				"x": 0.8000981892,
				"y": -3.2130922972,
				"z": -1.9050289802,
				"element": "H" 
			},
			{
				"x": -0.8370127443,
				"y": 0.1832610121,
				"z": 3.4124325248,
				"element": "H" 
			},
			{
				"x": -2.0822652649,
				"y": -0.9847718283,
				"z": 2.9017669642,
				"element": "H" 
			},
			{
				"x": -0.6680188474,
				"y": -1.5156332893,
				"z": 3.8443061925,
				"element": "H" 
			},
			{
				"x": -2.672926945,
				"y": 4.1472160296,
				"z": 1.4163065107,
				"element": "H" 
			},
			{
				"x": -1.2613166863,
				"y": 5.7805322643,
				"z": 2.6633933521,
				"element": "H" 
			},
			{
				"x": 1.0804252776,
				"y": 5.1402106258,
				"z": 3.2807274819,
				"element": "H" 
			},
			{
				"x": -2.9468736929,
				"y": 1.9276336754,
				"z": 0.2877625448,
				"element": "H" 
			},
			{
				"x": -2.0229841779,
				"y": -0.3153753472,
				"z": -0.1879185983,
				"element": "H" 
			}
		],
		 "valence_orbital": [ 
			{
				"type": "occ",
				"energy": -0.2822,
				"method": "rhf"
			},
			{
				"type": "occ",
				"energy": -0.26113,
				"method": "rhf"
			},
			{
				"type": "occ",
				"energy": -0.24501,
				"method": "rhf"
			},
			{
				"type": "occ",
				"energy": -0.23061,
				"method": "rhf"
			},
			{
				"type": "occ",
				"energy": -0.19556,
				"method": "rhf"
			},
			{
				"type": "unocc",
				"energy": -0.07842,
				"method": "rhf"
			},
			{
				"type": "unocc",
				"energy": -0.04796,
				"method": "rhf"
			},
			{
				"type": "unocc",
				"energy": -0.00262,
				"method": "rhf"
			},
			{
				"type": "unocc",
				"energy": -0.00097,
				"method": "rhf"
			},
			{
				"type": "unocc",
				"energy": 0.01427,
				"method": "rhf"
			}
		],
		"cosmo_sigma_profile": { 
			"-0.025": 0.0,
			"-0.024": 0.0,
			"-0.023": 0.0,
			"-0.022": 0.0,
			"-0.021": 0.0,
			"-0.02": 0.0,
			"-0.019": 0.0,
			"-0.018": 0.0,
			"-0.017": 0.0,
			"-0.016": 0.0,
			"-0.015": 0.0,
			"-0.014": 0.0,
			"-0.013": 0.0,
			"-0.012": 0.0,
			"-0.011": 0.0,
			"-0.01": 0.0,
			"-0.009": 0.0,
			"-0.008": 2.02910909762,
			"-0.007": 9.09665916101,
			"-0.006": 12.4692582703,
			"-0.005": 22.4560268659,
			"-0.004": 27.4255338905,
			"-0.003": 33.7961320914,
			"-0.002": 36.2161268107,
			"-0.001": 33.6633914407,
			"0.0": 29.942135913,
			"0.001": 30.1898524314,
			"0.002": 24.4531387583,
			"0.003": 17.5348450508,
			"0.004": 10.8037843554,
			"0.005": 12.2559334962,
			"0.006": 12.9200497867,
			"0.007": 13.0109297127,
			"0.008": 9.5277110019,
			"0.009": 6.55051370745,
			"0.01": 3.64937394269,
			"0.011": 0.585546900321,
			"0.012": 0.0,
			"0.013": 0.0,
			"0.014": 0.0,
			"0.015": 0.0,
			"0.016": 0.0,
			"0.017": 0.0,
			"0.018": 0.0,
			"0.019": 0.0,
			"0.02": 0.0,
			"0.021": 0.0,
			"0.022": 0.0,
			"0.023": 0.0,
			"0.024": 0.0,
			"0.025": 0.0
		}
	}
}
