{
	 "smiles": "CN1C=CC2=C1CC(C)(C)CC2=O", 
	 "Tm": 382.15, 
	 "num_atms": 28, 
	 "gaussian": { 
		 "optdone": 1, 
		 "sigma_profile": "yes", 
		 "theory": "DFT", 
		 "functional": "B3LYP", 
		 "basiset": "6-31G**", 
		 "properties": { 
			 "R2extent": 2444.8742, 
			 "electric_dipole_moment_norm": 5.87472138999, 
			 "electric_quadrupole_moment_norm": 7.22225227405, 
			 "total_energy": -558.198087655, 
			 "HOMO_LUMO_gap": 0.19679, 
			 "cosmo_polarized_energy": -13.6, 
			 "cosmo_cavitation_energy": 29.21, 
			 "cosmo_dispersion_energy": -20.68, 
			 "cosmo_repulsion_energy": 1.61, 
			 "cosmo_total_nonelectrostatic_energy": 10.15, 
			 "SMD_solvation_energy": 5.63 
		},
		"coords": [
			{
				"x": 2.5426630182,
				"y": 0.2593790529,
				"z": -2.4567290653,
				"element": "C" 
			},
			{
				"x": 1.7422965481,
				"y": 0.6858651726,
				"z": -1.3217424794,
				"element": "N" 
			},
			{
				"x": 1.833018361,
				"y": 1.9290155522,
				"z": -0.7016598795,
				"element": "C" 
			},
			{
				"x": 0.9387971119,
				"y": 1.9727778988,
				"z": 0.3354568317,
				"element": "C" 
			},
			{
				"x": 0.2769121619,
				"y": 0.7062251794,
				"z": 0.3594550069,
				"element": "C" 
			},
			{
				"x": 0.7945127923,
				"y": -0.0621230477,
				"z": -0.6781976346,
				"element": "C" 
			},
			{
				"x": 0.3877482808,
				"y": -1.4618912607,
				"z": -1.0125069496,
				"element": "C" 
			},
			{
				"x": -1.0336207039,
				"y": -1.7700493375,
				"z": -0.4574343022,
				"element": "C" 
			},
			{
				"x": -1.2712896331,
				"y": -3.2890712172,
				"z": -0.5055173397,
				"element": "C" 
			},
			{
				"x": -2.1019722968,
				"y": -1.0677968623,
				"z": -1.3201887472,
				"element": "C" 
			},
			{
				"x": -1.1313671648,
				"y": -1.278948639,
				"z": 1.0103682966,
				"element": "C" 
			},
			{
				"x": -0.762443398,
				"y": 0.1924549635,
				"z": 1.2456398937,
				"element": "C" 
			},
			{
				"x": -1.2845109546,
				"y": 0.845749687,
				"z": 2.140744253,
				"element": "O" 
			},
			{
				"x": 3.1501611466,
				"y": 1.099869579,
				"z": -2.7955809946,
				"element": "H" 
			},
			{
				"x": 1.9060465865,
				"y": -0.0624857368,
				"z": -3.2867894097,
				"element": "H" 
			},
			{
				"x": 3.2100109997,
				"y": -0.5658899005,
				"z": -2.1863814962,
				"element": "H" 
			},
			{
				"x": 2.5332700369,
				"y": 2.6657877114,
				"z": -1.0680032082,
				"element": "H" 
			},
			{
				"x": 0.7624970116,
				"y": 2.7980970198,
				"z": 1.0091499472,
				"element": "H" 
			},
			{
				"x": 0.4039029981,
				"y": -1.6373733831,
				"z": -2.0964266806,
				"element": "H" 
			},
			{
				"x": 1.1043986263,
				"y": -2.1766298585,
				"z": -0.5782758443,
				"element": "H" 
			},
			{
				"x": -2.2707923441,
				"y": -3.5396709762,
				"z": -0.1343140253,
				"element": "H" 
			},
			{
				"x": -0.5411930052,
				"y": -3.8279948206,
				"z": 0.1088454632,
				"element": "H" 
			},
			{
				"x": -1.1930477361,
				"y": -3.6678065961,
				"z": -1.5314813531,
				"element": "H" 
			},
			{
				"x": -3.1044662783,
				"y": -1.2651661811,
				"z": -0.9258963754,
				"element": "H" 
			},
			{
				"x": -2.0715456504,
				"y": -1.4350492969,
				"z": -2.3525246242,
				"element": "H" 
			},
			{
				"x": -1.9591729427,
				"y": 0.0162251408,
				"z": -1.3428468849,
				"element": "H" 
			},
			{
				"x": -2.1385107693,
				"y": -1.4379218279,
				"z": 1.408695068,
				"element": "H" 
			},
			{
				"x": -0.4491028025,
				"y": -1.8760780152,
				"z": 1.6344425337,
				"element": "H" 
			}
		],
		 "valence_orbital": [ 
			{
				"type": "occ",
				"energy": -0.32448,
				"method": "rhf"
			},
			{
				"type": "occ",
				"energy": -0.31808,
				"method": "rhf"
			},
			{
				"type": "occ",
				"energy": -0.23823,
				"method": "rhf"
			},
			{
				"type": "occ",
				"energy": -0.22083,
				"method": "rhf"
			},
			{
				"type": "occ",
				"energy": -0.21215,
				"method": "rhf"
			},
			{
				"type": "unocc",
				"energy": -0.01536,
				"method": "rhf"
			},
			{
				"type": "unocc",
				"energy": 0.03781,
				"method": "rhf"
			},
			{
				"type": "unocc",
				"energy": 0.06787,
				"method": "rhf"
			},
			{
				"type": "unocc",
				"energy": 0.08732,
				"method": "rhf"
			},
			{
				"type": "unocc",
				"energy": 0.10901,
				"method": "rhf"
			}
		],
		"cosmo_sigma_profile": { 
			"-0.025": 0.0,
			"-0.024": 0.0,
			"-0.023": 0.0,
			"-0.022": 0.0,
			"-0.021": 0.0,
			"-0.02": 0.0,
			"-0.019": 0.0,
			"-0.018": 0.0,
			"-0.017": 0.0,
			"-0.016": 0.0,
			"-0.015": 0.0,
			"-0.014": 0.0,
			"-0.013": 0.0,
			"-0.012": 0.0,
			"-0.011": 0.0,
			"-0.01": 0.0,
			"-0.009": 0.0553560234215,
			"-0.008": 2.13319500728,
			"-0.007": 4.1959298331,
			"-0.006": 8.9896621234,
			"-0.005": 12.3417907489,
			"-0.004": 22.0190791686,
			"-0.003": 34.0953185374,
			"-0.002": 25.7193836301,
			"-0.001": 20.4465817145,
			"0.0": 20.2305811872,
			"0.001": 19.3570209377,
			"0.002": 9.14030009276,
			"0.003": 5.74821946771,
			"0.004": 5.19356414241,
			"0.005": 6.98918794364,
			"0.006": 6.59014862308,
			"0.007": 5.03026818151,
			"0.008": 2.27711886306,
			"0.009": 1.38651438855,
			"0.01": 1.81765950756,
			"0.011": 1.98603057304,
			"0.012": 2.23481277077,
			"0.013": 4.49114379377,
			"0.014": 4.23506736111,
			"0.015": 1.56312390825,
			"0.016": 0.0416147092246,
			"0.017": 0.0,
			"0.018": 0.0,
			"0.019": 0.0,
			"0.02": 0.0,
			"0.021": 0.0,
			"0.022": 0.0,
			"0.023": 0.0,
			"0.024": 0.0,
			"0.025": 0.0
		}
	}
}
