{
	 "smiles": "CC(Cl)C(=O)NC1=C(Cl)C=C(Cl)C=N1", 
	 "Tm": 387.15, 
	 "num_atms": 21, 
	 "gaussian": { 
		 "optdone": 1, 
		 "sigma_profile": "yes", 
		 "theory": "DFT", 
		 "functional": "B3LYP", 
		 "basiset": "6-31G**", 
		 "properties": { 
			 "R2extent": 4879.7169, 
			 "electric_dipole_moment_norm": 2.71919383274, 
			 "electric_quadrupole_moment_norm": 12.0922144477, 
			 "total_energy": -1874.38914088, 
			 "HOMO_LUMO_gap": 0.18492, 
			 "cosmo_polarized_energy": -9.79, 
			 "cosmo_cavitation_energy": 30.91, 
			 "cosmo_dispersion_energy": -22.52, 
			 "cosmo_repulsion_energy": 1.8, 
			 "cosmo_total_nonelectrostatic_energy": 10.2, 
			 "SMD_solvation_energy": 4.66 
		},
		"coords": [
			{
				"x": 0.3866840803,
				"y": -2.2615256627,
				"z": 3.1782399221,
				"element": "C" 
			},
			{
				"x": 0.1995968115,
				"y": -1.228605189,
				"z": 2.0825244461,
				"element": "C" 
			},
			{
				"x": -1.3290773063,
				"y": -0.2525994153,
				"z": 2.3807224691,
				"element": "Cl" 
			},
			{
				"x": 1.3578635933,
				"y": -0.2311029721,
				"z": 2.0359192279,
				"element": "C" 
			},
			{
				"x": 2.1354265673,
				"y": -0.1077529162,
				"z": 2.9655413656,
				"element": "O" 
			},
			{
				"x": 1.530219699,
				"y": 0.5867191505,
				"z": 0.9185284768,
				"element": "N" 
			},
			{
				"x": 0.9114260108,
				"y": 0.6556596756,
				"z": -0.3246457679,
				"element": "C" 
			},
			{
				"x": 1.173169538,
				"y": 1.7583222335,
				"z": -1.1737723381,
				"element": "C" 
			},
			{
				"x": 2.2477231439,
				"y": 3.0486990886,
				"z": -0.6684781079,
				"element": "Cl" 
			},
			{
				"x": 0.5748747536,
				"y": 1.8225989143,
				"z": -2.4227281814,
				"element": "C" 
			},
			{
				"x": -0.2795928246,
				"y": 0.7859950383,
				"z": -2.8003415464,
				"element": "C" 
			},
			{
				"x": -1.0697490902,
				"y": 0.8099302936,
				"z": -4.3583980909,
				"element": "Cl" 
			},
			{
				"x": -0.4886852063,
				"y": -0.2684934756,
				"z": -1.9161186549,
				"element": "C" 
			},
			{
				"x": 0.1013912882,
				"y": -0.3270267228,
				"z": -0.7213860614,
				"element": "N" 
			},
			{
				"x": 0.5308586109,
				"y": -1.7825025677,
				"z": 4.1473264116,
				"element": "H" 
			},
			{
				"x": 1.276558696,
				"y": -2.8614674073,
				"z": 2.9601292704,
				"element": "H" 
			},
			{
				"x": -0.4805951592,
				"y": -2.9236712342,
				"z": 3.2207861254,
				"element": "H" 
			},
			{
				"x": 0.0443064946,
				"y": -1.6715159285,
				"z": 1.1011262674,
				"element": "H" 
			},
			{
				"x": 2.257498801,
				"y": 1.2724601666,
				"z": 1.0856958752,
				"element": "H" 
			},
			{
				"x": 0.7654828222,
				"y": 2.6612814758,
				"z": -3.0816744615,
				"element": "H" 
			},
			{
				"x": -1.145281324,
				"y": -1.0924025453,
				"z": -2.1810966472,
				"element": "H" 
			}
		],
		 "valence_orbital": [ 
			{
				"type": "occ",
				"energy": -0.30387,
				"method": "rhf"
			},
			{
				"type": "occ",
				"energy": -0.29864,
				"method": "rhf"
			},
			{
				"type": "occ",
				"energy": -0.29309,
				"method": "rhf"
			},
			{
				"type": "occ",
				"energy": -0.27506,
				"method": "rhf"
			},
			{
				"type": "occ",
				"energy": -0.248,
				"method": "rhf"
			},
			{
				"type": "unocc",
				"energy": -0.06308,
				"method": "rhf"
			},
			{
				"type": "unocc",
				"energy": -0.05177,
				"method": "rhf"
			},
			{
				"type": "unocc",
				"energy": -0.01444,
				"method": "rhf"
			},
			{
				"type": "unocc",
				"energy": -0.01157,
				"method": "rhf"
			},
			{
				"type": "unocc",
				"energy": 0.02879,
				"method": "rhf"
			}
		],
		"cosmo_sigma_profile": { 
			"-0.025": 0.0,
			"-0.024": 0.0,
			"-0.023": 0.0,
			"-0.022": 0.0,
			"-0.021": 0.0,
			"-0.02": 0.0,
			"-0.019": 0.0,
			"-0.018": 0.0,
			"-0.017": 0.0,
			"-0.016": 0.0,
			"-0.015": 0.0,
			"-0.014": 0.0,
			"-0.013": 0.0,
			"-0.012": 0.194313555358,
			"-0.011": 1.11929181205,
			"-0.01": 1.90899255164,
			"-0.009": 3.47270408942,
			"-0.008": 4.66054914021,
			"-0.007": 5.76104903456,
			"-0.006": 8.89867959512,
			"-0.005": 9.92596439079,
			"-0.004": 14.5920571973,
			"-0.003": 16.3957605297,
			"-0.002": 23.8740764746,
			"-0.001": 32.8822005122,
			"0.0": 22.6494421381,
			"0.001": 17.239339747,
			"0.002": 19.0819970685,
			"0.003": 22.3976682065,
			"0.004": 16.1420236899,
			"0.005": 10.2501314376,
			"0.006": 8.11888648186,
			"0.007": 2.38018876565,
			"0.008": 1.42471033643,
			"0.009": 1.31048195543,
			"0.01": 2.42888776874,
			"0.011": 4.35084806322,
			"0.012": 2.79215089469,
			"0.013": 0.0014223864225,
			"0.014": 0.0,
			"0.015": 0.0,
			"0.016": 0.0,
			"0.017": 0.0,
			"0.018": 0.0,
			"0.019": 0.0,
			"0.02": 0.0,
			"0.021": 0.0,
			"0.022": 0.0,
			"0.023": 0.0,
			"0.024": 0.0,
			"0.025": 0.0
		}
	}
}
