{
	 "smiles": "O=CC1=C2C=CC3=CC=CC4=C3C2=C(C=C1)C=C4", 
	 "Tm": 400.15, 
	 "num_atms": 28, 
	 "gaussian": { 
		 "optdone": 1, 
		 "sigma_profile": "yes", 
		 "theory": "DFT", 
		 "functional": "B3LYP", 
		 "basiset": "6-31G**", 
		 "properties": { 
			 "R2extent": 4122.1053, 
			 "electric_dipole_moment_norm": 3.70662348506, 
			 "electric_quadrupole_moment_norm": 14.0645590699, 
			 "total_energy": -729.097178757, 
			 "HOMO_LUMO_gap": 0.12516, 
			 "cosmo_polarized_energy": -9.3, 
			 "cosmo_cavitation_energy": 31.13, 
			 "cosmo_dispersion_energy": -23.39, 
			 "cosmo_repulsion_energy": 1.69, 
			 "cosmo_total_nonelectrostatic_energy": 9.42, 
			 "SMD_solvation_energy": 5.28 
		},
		"coords": [
			{
				"x": 2.9133583135,
				"y": 1.6119233875,
				"z": 2.7629357006,
				"element": "O" 
			},
			{
				"x": 3.2482603018,
				"y": 0.6539899074,
				"z": 2.0852396732,
				"element": "C" 
			},
			{
				"x": 2.4766262769,
				"y": -0.0149407084,
				"z": 1.0184200667,
				"element": "C" 
			},
			{
				"x": 1.1709277948,
				"y": 0.3694539058,
				"z": 0.5988064861,
				"element": "C" 
			},
			{
				"x": 0.4506916137,
				"y": 1.4700069488,
				"z": 1.1791675434,
				"element": "C" 
			},
			{
				"x": -0.7988859348,
				"y": 1.8013976368,
				"z": 0.7441119413,
				"element": "C" 
			},
			{
				"x": -1.4526493843,
				"y": 1.0760838499,
				"z": -0.304629658,
				"element": "C" 
			},
			{
				"x": -2.7400264482,
				"y": 1.4085811501,
				"z": -0.7610083904,
				"element": "C" 
			},
			{
				"x": -3.344660053,
				"y": 0.6807059828,
				"z": -1.783028441,
				"element": "C" 
			},
			{
				"x": -2.6794088796,
				"y": -0.3940606953,
				"z": -2.3721427141,
				"element": "C" 
			},
			{
				"x": -1.3924568359,
				"y": -0.7622887599,
				"z": -1.9486776216,
				"element": "C" 
			},
			{
				"x": -0.7640263187,
				"y": -0.0216379621,
				"z": -0.9009539761,
				"element": "C" 
			},
			{
				"x": 0.5446631845,
				"y": -0.3752348177,
				"z": -0.4513531224,
				"element": "C" 
			},
			{
				"x": 1.2207333903,
				"y": -1.4794158498,
				"z": -1.0610939083,
				"element": "C" 
			},
			{
				"x": 2.5083058517,
				"y": -1.8252034651,
				"z": -0.6169501958,
				"element": "C" 
			},
			{
				"x": 3.1131508523,
				"y": -1.103700881,
				"z": 0.3993486664,
				"element": "C" 
			},
			{
				"x": 0.5652332446,
				"y": -2.2058907517,
				"z": -2.1117881906,
				"element": "C" 
			},
			{
				"x": -0.6827371763,
				"y": -1.8638435239,
				"z": -2.5360429145,
				"element": "C" 
			},
			{
				"x": 4.2463676577,
				"y": 0.1878007991,
				"z": 2.248460421,
				"element": "H" 
			},
			{
				"x": 0.9305507832,
				"y": 2.027521007,
				"z": 1.9719937523,
				"element": "H" 
			},
			{
				"x": -1.3250016661,
				"y": 2.6376856897,
				"z": 1.1975753689,
				"element": "H" 
			},
			{
				"x": -3.2616152613,
				"y": 2.2455010499,
				"z": -0.3043686327,
				"element": "H" 
			},
			{
				"x": -4.3397807285,
				"y": 0.9513343091,
				"z": -2.1233802253,
				"element": "H" 
			},
			{
				"x": -3.1552076495,
				"y": -0.959078875,
				"z": -3.1692985549,
				"element": "H" 
			},
			{
				"x": 3.0234868164,
				"y": -2.6629920678,
				"z": -1.0782978123,
				"element": "H" 
			},
			{
				"x": 4.1099862077,
				"y": -1.3808775055,
				"z": 0.7345510998,
				"element": "H" 
			},
			{
				"x": 1.091560856,
				"y": -3.0417204759,
				"z": -2.5646783737,
				"element": "H" 
			},
			{
				"x": -1.1653468089,
				"y": -2.4239992848,
				"z": -3.3327179882,
				"element": "H" 
			}
		],
		 "valence_orbital": [ 
			{
				"type": "occ",
				"energy": -0.28038,
				"method": "rhf"
			},
			{
				"type": "occ",
				"energy": -0.26097,
				"method": "rhf"
			},
			{
				"type": "occ",
				"energy": -0.24695,
				"method": "rhf"
			},
			{
				"type": "occ",
				"energy": -0.24083,
				"method": "rhf"
			},
			{
				"type": "occ",
				"energy": -0.20863,
				"method": "rhf"
			},
			{
				"type": "unocc",
				"energy": -0.08347,
				"method": "rhf"
			},
			{
				"type": "unocc",
				"energy": -0.0363,
				"method": "rhf"
			},
			{
				"type": "unocc",
				"energy": -0.0167,
				"method": "rhf"
			},
			{
				"type": "unocc",
				"energy": -0.00995,
				"method": "rhf"
			},
			{
				"type": "unocc",
				"energy": 0.02834,
				"method": "rhf"
			}
		],
		"cosmo_sigma_profile": { 
			"-0.025": 0.0,
			"-0.024": 0.0,
			"-0.023": 0.0,
			"-0.022": 0.0,
			"-0.021": 0.0,
			"-0.02": 0.0,
			"-0.019": 0.0,
			"-0.018": 0.0,
			"-0.017": 0.0,
			"-0.016": 0.0,
			"-0.015": 0.0,
			"-0.014": 0.0,
			"-0.013": 0.0,
			"-0.012": 0.0,
			"-0.011": 0.0,
			"-0.01": 0.0,
			"-0.009": 0.0,
			"-0.008": 0.312918813171,
			"-0.007": 9.5870900821,
			"-0.006": 22.8087492769,
			"-0.005": 17.5624349866,
			"-0.004": 17.9159883301,
			"-0.003": 13.252676604,
			"-0.002": 12.7814205456,
			"-0.001": 12.3064035615,
			"0.0": 13.848588553,
			"0.001": 18.6154006543,
			"0.002": 41.7015350267,
			"0.003": 35.8859680961,
			"0.004": 16.4694834271,
			"0.005": 2.70989722585,
			"0.006": 1.9232186402,
			"0.007": 1.72159329793,
			"0.008": 1.7967638707,
			"0.009": 1.86010548533,
			"0.01": 1.91734934975,
			"0.011": 2.89438205784,
			"0.012": 2.43178787553,
			"0.013": 1.2866949777,
			"0.014": 0.115160386045,
			"0.015": 0.0,
			"0.016": 0.0,
			"0.017": 0.0,
			"0.018": 0.0,
			"0.019": 0.0,
			"0.02": 0.0,
			"0.021": 0.0,
			"0.022": 0.0,
			"0.023": 0.0,
			"0.024": 0.0,
			"0.025": 0.0
		}
	}
}
