{
	 "smiles": "OC(=O)C1=COC(=N1)C1=C(Cl)C=CC=C1", 
	 "Tm": 453.15, 
	 "num_atms": 21, 
	 "gaussian": { 
		 "optdone": 1, 
		 "sigma_profile": "yes", 
		 "theory": "DFT", 
		 "functional": "B3LYP", 
		 "basiset": "6-31G**", 
		 "properties": { 
			 "R2extent": 5829.2167, 
			 "electric_dipole_moment_norm": 5.73309445762, 
			 "electric_quadrupole_moment_norm": 26.8464000497, 
			 "total_energy": -1125.29163936, 
			 "HOMO_LUMO_gap": 0.18046, 
			 "cosmo_polarized_energy": -12.59, 
			 "cosmo_cavitation_energy": 28.58, 
			 "cosmo_dispersion_energy": -21.22, 
			 "cosmo_repulsion_energy": 1.65, 
			 "cosmo_total_nonelectrostatic_energy": 9.01, 
			 "SMD_solvation_energy": 5.85 
		},
		"coords": [
			{
				"x": -0.122070835,
				"y": -2.2900562509,
				"z": 4.8596722783,
				"element": "O" 
			},
			{
				"x": 0.4519406016,
				"y": -1.1031761683,
				"z": 5.1457803761,
				"element": "C" 
			},
			{
				"x": 0.600793184,
				"y": -0.7037627703,
				"z": 6.277139634,
				"element": "O" 
			},
			{
				"x": 0.8784580223,
				"y": -0.3429361878,
				"z": 3.9463796904,
				"element": "C" 
			},
			{
				"x": 1.496196137,
				"y": 0.866796608,
				"z": 3.8731635619,
				"element": "C" 
			},
			{
				"x": 1.690312903,
				"y": 1.1484139454,
				"z": 2.5569691905,
				"element": "O" 
			},
			{
				"x": 1.178920876,
				"y": 0.0848626404,
				"z": 1.8719912187,
				"element": "C" 
			},
			{
				"x": 0.6830151686,
				"y": -0.8287335175,
				"z": 2.6644602994,
				"element": "N" 
			},
			{
				"x": 1.1797821129,
				"y": 0.0528289817,
				"z": 0.4075548697,
				"element": "C" 
			},
			{
				"x": 1.9490697236,
				"y": 0.8715653793,
				"z": -0.4435640171,
				"element": "C" 
			},
			{
				"x": 3.0803061964,
				"y": 2.0704161021,
				"z": 0.156349396,
				"element": "Cl" 
			},
			{
				"x": 1.8583471584,
				"y": 0.7403520571,
				"z": -1.8313371687,
				"element": "C" 
			},
			{
				"x": 1.0093328603,
				"y": -0.2070658339,
				"z": -2.3959139193,
				"element": "C" 
			},
			{
				"x": 0.2451875284,
				"y": -1.0353508614,
				"z": -1.5708030985,
				"element": "C" 
			},
			{
				"x": 0.3325098267,
				"y": -0.9018944861,
				"z": -0.1924360754,
				"element": "C" 
			},
			{
				"x": -0.1286593097,
				"y": -2.3965765601,
				"z": 3.8912520856,
				"element": "H" 
			},
			{
				"x": 1.8381519526,
				"y": 1.588735856,
				"z": 4.5956969524,
				"element": "H" 
			},
			{
				"x": 2.4645079257,
				"y": 1.3847315429,
				"z": -2.4578908703,
				"element": "H" 
			},
			{
				"x": 0.9490233037,
				"y": -0.2963897687,
				"z": -3.4761428748,
				"element": "H" 
			},
			{
				"x": -0.4194685077,
				"y": -1.7781547966,
				"z": -1.9998684278,
				"element": "H" 
			},
			{
				"x": -0.2580568287,
				"y": -1.5329059115,
				"z": 0.4617468989,
				"element": "H" 
			}
		],
		 "valence_orbital": [ 
			{
				"type": "occ",
				"energy": -0.31772,
				"method": "rhf"
			},
			{
				"type": "occ",
				"energy": -0.30437,
				"method": "rhf"
			},
			{
				"type": "occ",
				"energy": -0.27628,
				"method": "rhf"
			},
			{
				"type": "occ",
				"energy": -0.26834,
				"method": "rhf"
			},
			{
				"type": "occ",
				"energy": -0.2498,
				"method": "rhf"
			},
			{
				"type": "unocc",
				"energy": -0.06934,
				"method": "rhf"
			},
			{
				"type": "unocc",
				"energy": -0.04124,
				"method": "rhf"
			},
			{
				"type": "unocc",
				"energy": -0.0306,
				"method": "rhf"
			},
			{
				"type": "unocc",
				"energy": 0.01509,
				"method": "rhf"
			},
			{
				"type": "unocc",
				"energy": 0.02772,
				"method": "rhf"
			}
		],
		"cosmo_sigma_profile": { 
			"-0.025": 0.0,
			"-0.024": 0.0,
			"-0.023": 0.0,
			"-0.022": 0.0,
			"-0.021": 0.0,
			"-0.02": 0.0,
			"-0.019": 0.0,
			"-0.018": 0.0,
			"-0.017": 0.0,
			"-0.016": 0.0,
			"-0.015": 0.20150298992,
			"-0.014": 0.738477429807,
			"-0.013": 0.304767278659,
			"-0.012": 1.412821533,
			"-0.011": 2.43459323636,
			"-0.01": 2.72218099015,
			"-0.009": 1.73023044324,
			"-0.008": 3.07042187364,
			"-0.007": 9.43975351145,
			"-0.006": 10.7473638386,
			"-0.005": 10.912252088,
			"-0.004": 12.6422092085,
			"-0.003": 15.7884452722,
			"-0.002": 18.7502779363,
			"-0.001": 19.2560422693,
			"0.0": 16.3388735218,
			"0.001": 20.724808733,
			"0.002": 21.0564632278,
			"0.003": 16.879454025,
			"0.004": 11.7000852003,
			"0.005": 6.98236402722,
			"0.006": 4.4495296299,
			"0.007": 2.7766441583,
			"0.008": 2.95825940863,
			"0.009": 4.008688879,
			"0.01": 5.18441986491,
			"0.011": 5.07362005048,
			"0.012": 4.01884011904,
			"0.013": 1.07971828165,
			"0.014": 0.0,
			"0.015": 0.0,
			"0.016": 0.0,
			"0.017": 0.0,
			"0.018": 0.0,
			"0.019": 0.0,
			"0.02": 0.0,
			"0.021": 0.0,
			"0.022": 0.0,
			"0.023": 0.0,
			"0.024": 0.0,
			"0.025": 0.0
		}
	}
}
