{
	 "smiles": "COC1=C(OC(F)F)C=C(C=O)C=C1", 
	 "Tm": 309.15, 
	 "num_atms": 22, 
	 "gaussian": { 
		 "optdone": 1, 
		 "sigma_profile": "yes", 
		 "theory": "DFT", 
		 "functional": "B3LYP", 
		 "basiset": "6-31G**", 
		 "properties": { 
			 "R2extent": 3773.5195, 
			 "electric_dipole_moment_norm": 2.91931513886, 
			 "electric_quadrupole_moment_norm": 11.6279591494, 
			 "total_energy": -773.094594645, 
			 "HOMO_LUMO_gap": 0.18795, 
			 "cosmo_polarized_energy": -9.77, 
			 "cosmo_cavitation_energy": 28.07, 
			 "cosmo_dispersion_energy": -19.42, 
			 "cosmo_repulsion_energy": 1.5, 
			 "cosmo_total_nonelectrostatic_energy": 10.15, 
			 "SMD_solvation_energy": 7.87 
		},
		"coords": [
			{
				"x": 2.1790155862,
				"y": 1.2897522375,
				"z": -1.6851088788,
				"element": "C" 
			},
			{
				"x": 2.2053480511,
				"y": -0.1000959909,
				"z": -1.3140653786,
				"element": "O" 
			},
			{
				"x": 1.1701905962,
				"y": -0.5368913072,
				"z": -0.5326976719,
				"element": "C" 
			},
			{
				"x": 1.0268288824,
				"y": -0.1172427284,
				"z": 0.8026430356,
				"element": "C" 
			},
			{
				"x": 1.8941329139,
				"y": 0.8350958362,
				"z": 1.3283990836,
				"element": "O" 
			},
			{
				"x": 3.1474983263,
				"y": 0.364290686,
				"z": 1.674205603,
				"element": "C" 
			},
			{
				"x": 3.0882874083,
				"y": -0.271082152,
				"z": 2.8747256212,
				"element": "F" 
			},
			{
				"x": 3.9345146566,
				"y": 1.4463725529,
				"z": 1.8141451793,
				"element": "F" 
			},
			{
				"x": -0.0011178657,
				"y": -0.6154777085,
				"z": 1.5920056443,
				"element": "C" 
			},
			{
				"x": -0.9014472804,
				"y": -1.5476943058,
				"z": 1.0610013924,
				"element": "C" 
			},
			{
				"x": -1.9976731274,
				"y": -2.0753662047,
				"z": 1.9036696737,
				"element": "C" 
			},
			{
				"x": -2.8211142809,
				"y": -2.8889507224,
				"z": 1.5305541798,
				"element": "O" 
			},
			{
				"x": -0.7516085194,
				"y": -1.983962844,
				"z": -0.264440882,
				"element": "C" 
			},
			{
				"x": 0.2752098358,
				"y": -1.4809803789,
				"z": -1.0531366622,
				"element": "C" 
			},
			{
				"x": 2.2462631921,
				"y": 1.9402353846,
				"z": -0.8091896103,
				"element": "H" 
			},
			{
				"x": 3.0479751589,
				"y": 1.4423929847,
				"z": -2.3267897354,
				"element": "H" 
			},
			{
				"x": 1.2661941631,
				"y": 1.5176370022,
				"z": -2.247235108,
				"element": "H" 
			},
			{
				"x": 3.5690143392,
				"y": -0.3197770204,
				"z": 0.931131475,
				"element": "H" 
			},
			{
				"x": -0.0854798618,
				"y": -0.2733712935,
				"z": 2.6195361829,
				"element": "H" 
			},
			{
				"x": -2.0243103092,
				"y": -1.6669748339,
				"z": 2.9382849792,
				"element": "H" 
			},
			{
				"x": -1.4568284306,
				"y": -2.711368369,
				"z": -0.6529637473,
				"element": "H" 
			},
			{
				"x": 0.4121065651,
				"y": -1.8008408245,
				"z": -2.0809743755,
				"element": "H" 
			}
		],
		 "valence_orbital": [ 
			{
				"type": "occ",
				"energy": -0.33681,
				"method": "rhf"
			},
			{
				"type": "occ",
				"energy": -0.30024,
				"method": "rhf"
			},
			{
				"type": "occ",
				"energy": -0.27536,
				"method": "rhf"
			},
			{
				"type": "occ",
				"energy": -0.26079,
				"method": "rhf"
			},
			{
				"type": "occ",
				"energy": -0.25768,
				"method": "rhf"
			},
			{
				"type": "unocc",
				"energy": -0.06973,
				"method": "rhf"
			},
			{
				"type": "unocc",
				"energy": -0.02641,
				"method": "rhf"
			},
			{
				"type": "unocc",
				"energy": 0.03039,
				"method": "rhf"
			},
			{
				"type": "unocc",
				"energy": 0.07155,
				"method": "rhf"
			},
			{
				"type": "unocc",
				"energy": 0.10601,
				"method": "rhf"
			}
		],
		"cosmo_sigma_profile": { 
			"-0.025": 0.0,
			"-0.024": 0.0,
			"-0.023": 0.0,
			"-0.022": 0.0,
			"-0.021": 0.0,
			"-0.02": 0.0,
			"-0.019": 0.0,
			"-0.018": 0.0,
			"-0.017": 0.0,
			"-0.016": 0.0,
			"-0.015": 0.0,
			"-0.014": 0.0,
			"-0.013": 0.0,
			"-0.012": 0.0,
			"-0.011": 0.0,
			"-0.01": 0.885182990039,
			"-0.009": 2.58306039763,
			"-0.008": 5.65158970132,
			"-0.007": 7.01692936421,
			"-0.006": 12.3529345031,
			"-0.005": 12.8040077991,
			"-0.004": 17.2144997663,
			"-0.003": 18.1060868796,
			"-0.002": 16.2026792465,
			"-0.001": 12.5745940421,
			"0.0": 16.111665511,
			"0.001": 20.4548632781,
			"0.002": 15.1732678406,
			"0.003": 19.5692406568,
			"0.004": 18.5911969599,
			"0.005": 4.72489894547,
			"0.006": 3.0048905466,
			"0.007": 3.61271022581,
			"0.008": 3.82769115566,
			"0.009": 2.71429375952,
			"0.01": 3.67845566435,
			"0.011": 4.52637787726,
			"0.012": 2.45363052913,
			"0.013": 0.768228440931,
			"0.014": 0.0,
			"0.015": 0.0,
			"0.016": 0.0,
			"0.017": 0.0,
			"0.018": 0.0,
			"0.019": 0.0,
			"0.02": 0.0,
			"0.021": 0.0,
			"0.022": 0.0,
			"0.023": 0.0,
			"0.024": 0.0,
			"0.025": 0.0
		}
	}
}
