{
	 "smiles": "NC1=C2C=NC=CC2=NC=C1", 
	 "Tm": 528.15, 
	 "num_atms": 18, 
	 "gaussian": { 
		 "optdone": 1, 
		 "sigma_profile": "yes", 
		 "theory": "DFT", 
		 "functional": "B3LYP", 
		 "basiset": "6-31G**", 
		 "properties": { 
			 "R2extent": 1645.2364, 
			 "electric_dipole_moment_norm": 4.00251071454, 
			 "electric_quadrupole_moment_norm": 13.5297134567, 
			 "total_energy": -473.328044182, 
			 "HOMO_LUMO_gap": 0.17149, 
			 "cosmo_polarized_energy": -14.63, 
			 "cosmo_cavitation_energy": 21.81, 
			 "cosmo_dispersion_energy": -16.76, 
			 "cosmo_repulsion_energy": 1.31, 
			 "cosmo_total_nonelectrostatic_energy": 6.36, 
			 "SMD_solvation_energy": 0.65 
		},
		"coords": [
			{
				"x": -1.9449965622,
				"y": -0.8117292723,
				"z": 2.3353773218,
				"element": "N" 
			},
			{
				"x": -1.2361664114,
				"y": -1.0126021192,
				"z": 1.1734345415,
				"element": "C" 
			},
			{
				"x": -0.9184113203,
				"y": 0.0786227818,
				"z": 0.2955978872,
				"element": "C" 
			},
			{
				"x": -1.2849059647,
				"y": 1.42824925,
				"z": 0.5329438384,
				"element": "C" 
			},
			{
				"x": -0.982251485,
				"y": 2.4384669995,
				"z": -0.2595738637,
				"element": "N" 
			},
			{
				"x": -0.2725072556,
				"y": 2.1530887898,
				"z": -1.3846242805,
				"element": "C" 
			},
			{
				"x": 0.1272787453,
				"y": 0.8857413747,
				"z": -1.7403525899,
				"element": "C" 
			},
			{
				"x": -0.1926400448,
				"y": -0.2113406138,
				"z": -0.9008389816,
				"element": "C" 
			},
			{
				"x": 0.1960173864,
				"y": -1.4653845996,
				"z": -1.2672111641,
				"element": "N" 
			},
			{
				"x": -0.138721978,
				"y": -2.4411626727,
				"z": -0.4399309681,
				"element": "C" 
			},
			{
				"x": -0.8364539934,
				"y": -2.2822185091,
				"z": 0.7718694319,
				"element": "C" 
			},
			{
				"x": -1.9108879783,
				"y": 0.0996826428,
				"z": 2.7642882924,
				"element": "H" 
			},
			{
				"x": -1.9606480943,
				"y": -1.5752683238,
				"z": 2.9948772152,
				"element": "H" 
			},
			{
				"x": -1.8744926142,
				"y": 1.6870709426,
				"z": 1.4131010546,
				"element": "H" 
			},
			{
				"x": -0.0334640107,
				"y": 3.0060436006,
				"z": -2.0158684248,
				"element": "H" 
			},
			{
				"x": 0.6820497733,
				"y": 0.6944685998,
				"z": -2.652551913,
				"element": "H" 
			},
			{
				"x": 0.1692201253,
				"y": -3.4445539994,
				"z": -0.7340943688,
				"element": "H" 
			},
			{
				"x": -1.0514183172,
				"y": -3.1499748717,
				"z": 1.3890569714,
				"element": "H" 
			}
		],
		 "valence_orbital": [ 
			{
				"type": "occ",
				"energy": -0.2734,
				"method": "rhf"
			},
			{
				"type": "occ",
				"energy": -0.26385,
				"method": "rhf"
			},
			{
				"type": "occ",
				"energy": -0.25764,
				"method": "rhf"
			},
			{
				"type": "occ",
				"energy": -0.25192,
				"method": "rhf"
			},
			{
				"type": "occ",
				"energy": -0.22232,
				"method": "rhf"
			},
			{
				"type": "unocc",
				"energy": -0.05083,
				"method": "rhf"
			},
			{
				"type": "unocc",
				"energy": -0.02277,
				"method": "rhf"
			},
			{
				"type": "unocc",
				"energy": 0.02608,
				"method": "rhf"
			},
			{
				"type": "unocc",
				"energy": 0.05757,
				"method": "rhf"
			},
			{
				"type": "unocc",
				"energy": 0.08781,
				"method": "rhf"
			}
		],
		"cosmo_sigma_profile": { 
			"-0.025": 0.0,
			"-0.024": 0.0,
			"-0.023": 0.0,
			"-0.022": 0.0,
			"-0.021": 0.0,
			"-0.02": 0.0,
			"-0.019": 0.0,
			"-0.018": 0.0,
			"-0.017": 0.0,
			"-0.016": 0.0,
			"-0.015": 0.259697572821,
			"-0.014": 2.40289449256,
			"-0.013": 2.95994493839,
			"-0.012": 3.25247674339,
			"-0.011": 3.62761764017,
			"-0.01": 2.42937707682,
			"-0.009": 2.49127763874,
			"-0.008": 3.31803195216,
			"-0.007": 4.56323058241,
			"-0.006": 9.63803849124,
			"-0.005": 8.62452241689,
			"-0.004": 9.49999464107,
			"-0.003": 7.30607120539,
			"-0.002": 7.71960088349,
			"-0.001": 7.15015263479,
			"0.0": 9.15806873396,
			"0.001": 18.436966206,
			"0.002": 16.8692059875,
			"0.003": 15.4705564451,
			"0.004": 7.56978932182,
			"0.005": 4.70488445223,
			"0.006": 3.35388215529,
			"0.007": 3.26959795104,
			"0.008": 3.92238640134,
			"0.009": 2.67033088788,
			"0.01": 3.04676880902,
			"0.011": 1.80628866608,
			"0.012": 1.85942221466,
			"0.013": 1.4517087611,
			"0.014": 2.38717247223,
			"0.015": 1.54364123222,
			"0.016": 1.45429390566,
			"0.017": 0.971299692235,
			"0.018": 0.0642416434067,
			"0.019": 0.0,
			"0.02": 0.0,
			"0.021": 0.0,
			"0.022": 0.0,
			"0.023": 0.0,
			"0.024": 0.0,
			"0.025": 0.0
		}
	}
}
