{
	 "smiles": "CC1=CC[C@@H]2C3CCC4CC(=O)CCC4(C)C3CCC12C", 
	 "Tm": 413.15, 
	 "num_atms": 51, 
	 "gaussian": { 
		 "optdone": 1, 
		 "sigma_profile": "yes", 
		 "theory": "DFT", 
		 "functional": "B3LYP", 
		 "basiset": "6-31G**", 
		 "properties": { 
			 "R2extent": 6756.6798, 
			 "electric_dipole_moment_norm": 3.4455831103, 
			 "electric_quadrupole_moment_norm": 25.3425814733, 
			 "total_energy": -855.438864819, 
			 "HOMO_LUMO_gap": 0.21907, 
			 "cosmo_polarized_energy": -8.08, 
			 "cosmo_cavitation_energy": 43.44, 
			 "cosmo_dispersion_energy": -30.41, 
			 "cosmo_repulsion_energy": 2.25, 
			 "cosmo_total_nonelectrostatic_energy": 15.28, 
			 "SMD_solvation_energy": 6.56 
		},
		"coords": [
			{
				"x": 3.4142427909,
				"y": -1.3183744372,
				"z": -2.268627207,
				"element": "C" 
			},
			{
				"x": 3.0671124147,
				"y": -0.8260633181,
				"z": -0.8930650541,
				"element": "C" 
			},
			{
				"x": 3.0648236824,
				"y": -1.5576495033,
				"z": 0.2259848471,
				"element": "C" 
			},
			{
				"x": 2.6932395584,
				"y": -0.7628770321,
				"z": 1.4474045192,
				"element": "C" 
			},
			{
				"x": 2.2239912026,
				"y": 0.6162706312,
				"z": 0.885957895,
				"element": "C" 
			},
			{
				"x": 0.6916750606,
				"y": 0.8143681606,
				"z": 1.0554413661,
				"element": "C" 
			},
			{
				"x": 0.2319222745,
				"y": 2.2785031219,
				"z": 1.1884627719,
				"element": "C" 
			},
			{
				"x": -1.2711495603,
				"y": 2.342948921,
				"z": 1.4939881942,
				"element": "C" 
			},
			{
				"x": -2.1083952902,
				"y": 1.6137137296,
				"z": 0.4229312106,
				"element": "C" 
			},
			{
				"x": -3.6323500139,
				"y": 1.7174995814,
				"z": 0.6763222707,
				"element": "C" 
			},
			{
				"x": -4.2424582748,
				"y": 0.5538167569,
				"z": 1.4530972314,
				"element": "C" 
			},
			{
				"x": -5.4389169943,
				"y": 0.3311456219,
				"z": 1.4291792443,
				"element": "O" 
			},
			{
				"x": -3.2704333612,
				"y": -0.274039899,
				"z": 2.2716185588,
				"element": "C" 
			},
			{
				"x": -2.0128095726,
				"y": -0.7298271566,
				"z": 1.4840502231,
				"element": "C" 
			},
			{
				"x": -1.6621353377,
				"y": 0.1321998038,
				"z": 0.2271755694,
				"element": "C" 
			},
			{
				"x": -2.423688988,
				"y": -0.4853861393,
				"z": -0.9705607355,
				"element": "C" 
			},
			{
				"x": -0.1168667553,
				"y": 0.0665329288,
				"z": -0.0319559926,
				"element": "C" 
			},
			{
				"x": 0.2859956642,
				"y": 0.5370556526,
				"z": -1.4626686113,
				"element": "C" 
			},
			{
				"x": 1.6686939944,
				"y": 1.2121573706,
				"z": -1.5615671343,
				"element": "C" 
			},
			{
				"x": 2.7329376769,
				"y": 0.6423028865,
				"z": -0.6055291876,
				"element": "C" 
			},
			{
				"x": 4.0185823071,
				"y": 1.4921568401,
				"z": -0.7209140149,
				"element": "C" 
			},
			{
				"x": 2.5743866301,
				"y": -1.2052270566,
				"z": -2.9655888848,
				"element": "H" 
			},
			{
				"x": 3.6917115509,
				"y": -2.3762000979,
				"z": -2.2500879264,
				"element": "H" 
			},
			{
				"x": 4.2543348992,
				"y": -0.759251216,
				"z": -2.6996282377,
				"element": "H" 
			},
			{
				"x": 3.3252906221,
				"y": -2.6125571965,
				"z": 0.2706731193,
				"element": "H" 
			},
			{
				"x": 1.9074045855,
				"y": -1.2521079838,
				"z": 2.0396338439,
				"element": "H" 
			},
			{
				"x": 3.5514926362,
				"y": -0.6542942905,
				"z": 2.1264449229,
				"element": "H" 
			},
			{
				"x": 2.7127216945,
				"y": 1.4227152095,
				"z": 1.4455882652,
				"element": "H" 
			},
			{
				"x": 0.451875824,
				"y": 0.357173994,
				"z": 2.0246239953,
				"element": "H" 
			},
			{
				"x": 0.799073126,
				"y": 2.7702069402,
				"z": 1.9893081478,
				"element": "H" 
			},
			{
				"x": 0.436118779,
				"y": 2.8475011269,
				"z": 0.2738038731,
				"element": "H" 
			},
			{
				"x": -1.4559147741,
				"y": 1.9115894259,
				"z": 2.487198313,
				"element": "H" 
			},
			{
				"x": -1.5996042914,
				"y": 3.3886070303,
				"z": 1.5518019335,
				"element": "H" 
			},
			{
				"x": -1.9104486412,
				"y": 2.1378784969,
				"z": -0.5221229575,
				"element": "H" 
			},
			{
				"x": -3.8585426211,
				"y": 2.6324494908,
				"z": 1.2421261137,
				"element": "H" 
			},
			{
				"x": -4.1970400535,
				"y": 1.8019754098,
				"z": -0.2570085473,
				"element": "H" 
			},
			{
				"x": -2.9608579501,
				"y": 0.3687747879,
				"z": 3.1078979373,
				"element": "H" 
			},
			{
				"x": -3.8122089887,
				"y": -1.1192341759,
				"z": 2.7029023515,
				"element": "H" 
			},
			{
				"x": -1.1701956673,
				"y": -0.764880806,
				"z": 2.1789742573,
				"element": "H" 
			},
			{
				"x": -2.1609600324,
				"y": -1.7619811733,
				"z": 1.1481825643,
				"element": "H" 
			},
			{
				"x": -2.3677388876,
				"y": 0.1374267511,
				"z": -1.8680140681,
				"element": "H" 
			},
			{
				"x": -2.0088015097,
				"y": -1.4692616277,
				"z": -1.2175003187,
				"element": "H" 
			},
			{
				"x": -3.4843457885,
				"y": -0.6338741767,
				"z": -0.7438705028,
				"element": "H" 
			},
			{
				"x": 0.1596923036,
				"y": -0.9938649085,
				"z": 0.0427798021,
				"element": "H" 
			},
			{
				"x": 0.2539067728,
				"y": -0.3292903689,
				"z": -2.1321359476,
				"element": "H" 
			},
			{
				"x": -0.4529727517,
				"y": 1.2409813461,
				"z": -1.8598918603,
				"element": "H" 
			},
			{
				"x": 2.0304521569,
				"y": 1.1463834206,
				"z": -2.5953637153,
				"element": "H" 
			},
			{
				"x": 1.5738381381,
				"y": 2.2852538929,
				"z": -1.3591434757,
				"element": "H" 
			},
			{
				"x": 3.8131842433,
				"y": 2.5413437324,
				"z": -0.4789491556,
				"element": "H" 
			},
			{
				"x": 4.791659942,
				"y": 1.1304815417,
				"z": -0.0348222287,
				"element": "H" 
			},
			{
				"x": 4.4310755745,
				"y": 1.4629279599,
				"z": -1.7357375784,
				"element": "H" 
			}
		],
		 "valence_orbital": [ 
			{
				"type": "occ",
				"energy": -0.28606,
				"method": "rhf"
			},
			{
				"type": "occ",
				"energy": -0.28198,
				"method": "rhf"
			},
			{
				"type": "occ",
				"energy": -0.27814,
				"method": "rhf"
			},
			{
				"type": "occ",
				"energy": -0.23024,
				"method": "rhf"
			},
			{
				"type": "occ",
				"energy": -0.22702,
				"method": "rhf"
			},
			{
				"type": "unocc",
				"energy": -0.00795,
				"method": "rhf"
			},
			{
				"type": "unocc",
				"energy": 0.03025,
				"method": "rhf"
			},
			{
				"type": "unocc",
				"energy": 0.06745,
				"method": "rhf"
			},
			{
				"type": "unocc",
				"energy": 0.07573,
				"method": "rhf"
			},
			{
				"type": "unocc",
				"energy": 0.08209,
				"method": "rhf"
			}
		],
		"cosmo_sigma_profile": { 
			"-0.025": 0.0,
			"-0.024": 0.0,
			"-0.023": 0.0,
			"-0.022": 0.0,
			"-0.021": 0.0,
			"-0.02": 0.0,
			"-0.019": 0.0,
			"-0.018": 0.0,
			"-0.017": 0.0,
			"-0.016": 0.0,
			"-0.015": 0.0,
			"-0.014": 0.0,
			"-0.013": 0.0,
			"-0.012": 0.0,
			"-0.011": 0.0,
			"-0.01": 0.0,
			"-0.009": 0.0,
			"-0.008": 0.0,
			"-0.007": 0.0,
			"-0.006": 1.58745743966,
			"-0.005": 6.79085220745,
			"-0.004": 10.5786406701,
			"-0.003": 32.1945841462,
			"-0.002": 61.8037169551,
			"-0.001": 64.591778999,
			"0.0": 53.8056998118,
			"0.001": 45.4075398165,
			"0.002": 19.4678913984,
			"0.003": 5.51412273339,
			"0.004": 5.56690015085,
			"0.005": 3.52785952866,
			"0.006": 3.64833922406,
			"0.007": 1.58644861536,
			"0.008": 1.54822976522,
			"0.009": 1.73045276029,
			"0.01": 1.27199890427,
			"0.011": 2.47982716642,
			"0.012": 4.25034221331,
			"0.013": 3.95364122954,
			"0.014": 1.7932137485,
			"0.015": 0.0,
			"0.016": 0.0,
			"0.017": 0.0,
			"0.018": 0.0,
			"0.019": 0.0,
			"0.02": 0.0,
			"0.021": 0.0,
			"0.022": 0.0,
			"0.023": 0.0,
			"0.024": 0.0,
			"0.025": 0.0
		}
	}
}
