{
	 "smiles": "CC(C)CCCC(C)C1CCC2C3CCC4=CC(O)CCC4(C)C3CCC12C", 
	 "Tm": 405.15, 
	 "num_atms": 74, 
	 "gaussian": { 
		 "optdone": 1, 
		 "sigma_profile": "yes", 
		 "theory": "DFT", 
		 "functional": "B3LYP", 
		 "basiset": "6-31G**", 
		 "properties": { 
			 "R2extent": 15433.623, 
			 "electric_dipole_moment_norm": 1.61123060112, 
			 "electric_quadrupole_moment_norm": 14.8002796055, 
			 "total_energy": -1131.8498185, 
			 "HOMO_LUMO_gap": 0.24908, 
			 "cosmo_polarized_energy": -7.68, 
			 "cosmo_cavitation_energy": 62.42, 
			 "cosmo_dispersion_energy": -41.4, 
			 "cosmo_repulsion_energy": 3.08, 
			 "cosmo_total_nonelectrostatic_energy": 24.1, 
			 "SMD_solvation_energy": 8.49 
		},
		"coords": [
			{
				"x": 0.6538322706,
				"y": 1.5631796746,
				"z": 4.7993020061,
				"element": "C" 
			},
			{
				"x": -0.4144095015,
				"y": 2.6364828553,
				"z": 5.057305472,
				"element": "C" 
			},
			{
				"x": -0.526725716,
				"y": 2.9344045561,
				"z": 6.5603103378,
				"element": "C" 
			},
			{
				"x": -0.1400821854,
				"y": 3.9391294887,
				"z": 4.2768267666,
				"element": "C" 
			},
			{
				"x": -0.1112021906,
				"y": 3.8350756202,
				"z": 2.7414522573,
				"element": "C" 
			},
			{
				"x": -1.437165804,
				"y": 3.3882805929,
				"z": 2.1072780261,
				"element": "C" 
			},
			{
				"x": -1.4699307022,
				"y": 3.4654123693,
				"z": 0.5582979272,
				"element": "C" 
			},
			{
				"x": -1.663033668,
				"y": 4.9330194612,
				"z": 0.1317459383,
				"element": "C" 
			},
			{
				"x": -2.5595939528,
				"y": 2.498100878,
				"z": -0.0051132122,
				"element": "C" 
			},
			{
				"x": -3.1142413054,
				"y": 2.8442511739,
				"z": -1.4316532801,
				"element": "C" 
			},
			{
				"x": -2.4975218142,
				"y": 1.8326862593,
				"z": -2.4398252692,
				"element": "C" 
			},
			{
				"x": -1.4817739611,
				"y": 1.0376666234,
				"z": -1.6049278193,
				"element": "C" 
			},
			{
				"x": -0.9990956844,
				"y": -0.3206137545,
				"z": -2.1365866912,
				"element": "C" 
			},
			{
				"x": -0.3860705272,
				"y": -0.1945470435,
				"z": -3.5403923213,
				"element": "C" 
			},
			{
				"x": 0.1788037561,
				"y": -1.5338704217,
				"z": -4.0380691818,
				"element": "C" 
			},
			{
				"x": 1.1547935526,
				"y": -2.1283270951,
				"z": -3.048659399,
				"element": "C" 
			},
			{
				"x": 2.3947791531,
				"y": -2.4651832884,
				"z": -3.4289933927,
				"element": "C" 
			},
			{
				"x": 3.4407673312,
				"y": -3.0745085785,
				"z": -2.5376952796,
				"element": "C" 
			},
			{
				"x": 4.1465389232,
				"y": -4.0437731052,
				"z": -3.3184473792,
				"element": "O" 
			},
			{
				"x": 2.7897991312,
				"y": -3.6837592513,
				"z": -1.2959763478,
				"element": "C" 
			},
			{
				"x": 1.8124407437,
				"y": -2.6833808095,
				"z": -0.6702457729,
				"element": "C" 
			},
			{
				"x": 0.638860454,
				"y": -2.2971041403,
				"z": -1.6128999145,
				"element": "C" 
			},
			{
				"x": -0.4205756663,
				"y": -3.4300865466,
				"z": -1.5902742448,
				"element": "C" 
			},
			{
				"x": 0.0325063791,
				"y": -0.921914108,
				"z": -1.1426856738,
				"element": "C" 
			},
			{
				"x": -0.5266513872,
				"y": -0.9540189617,
				"z": 0.2965139497,
				"element": "C" 
			},
			{
				"x": -1.056229893,
				"y": 0.4129967432,
				"z": 0.7798067472,
				"element": "C" 
			},
			{
				"x": -2.107827016,
				"y": 0.9979498373,
				"z": -0.1841179901,
				"element": "C" 
			},
			{
				"x": -3.3869612901,
				"y": 0.1272924526,
				"z": -0.1203358993,
				"element": "C" 
			},
			{
				"x": 0.7008532615,
				"y": 1.2723279664,
				"z": 3.7452588714,
				"element": "H" 
			},
			{
				"x": 1.6481958588,
				"y": 1.9250808007,
				"z": 5.0899394096,
				"element": "H" 
			},
			{
				"x": 0.4484941754,
				"y": 0.658005071,
				"z": 5.3813691208,
				"element": "H" 
			},
			{
				"x": -1.3832869648,
				"y": 2.2349158782,
				"z": 4.7277969087,
				"element": "H" 
			},
			{
				"x": 0.4157995844,
				"y": 3.3381221959,
				"z": 6.9507354125,
				"element": "H" 
			},
			{
				"x": -0.7597601355,
				"y": 2.0283059126,
				"z": 7.1303197461,
				"element": "H" 
			},
			{
				"x": -1.3121504254,
				"y": 3.6704513928,
				"z": 6.7647603568,
				"element": "H" 
			},
			{
				"x": 0.8212940501,
				"y": 4.3484024562,
				"z": 4.6200553214,
				"element": "H" 
			},
			{
				"x": -0.9008358264,
				"y": 4.680132196,
				"z": 4.5608466939,
				"element": "H" 
			},
			{
				"x": 0.6865487402,
				"y": 3.1491384101,
				"z": 2.4262190499,
				"element": "H" 
			},
			{
				"x": 0.1735640293,
				"y": 4.8180957994,
				"z": 2.3456569602,
				"element": "H" 
			},
			{
				"x": -2.2569370067,
				"y": 4.0095634865,
				"z": 2.4989592758,
				"element": "H" 
			},
			{
				"x": -1.660835452,
				"y": 2.3680510694,
				"z": 2.4309606156,
				"element": "H" 
			},
			{
				"x": -0.4864616014,
				"y": 3.1493349434,
				"z": 0.1819470919,
				"element": "H" 
			},
			{
				"x": -0.9926538869,
				"y": 5.5899735624,
				"z": 0.6948415591,
				"element": "H" 
			},
			{
				"x": -2.6889152224,
				"y": 5.2699866851,
				"z": 0.3238819656,
				"element": "H" 
			},
			{
				"x": -1.4486627869,
				"y": 5.096470683,
				"z": -0.9279478301,
				"element": "H" 
			},
			{
				"x": -3.3934054259,
				"y": 2.5407618121,
				"z": 0.7084352315,
				"element": "H" 
			},
			{
				"x": -4.2060023102,
				"y": 2.7682152611,
				"z": -1.4330532305,
				"element": "H" 
			},
			{
				"x": -2.8908087903,
				"y": 3.8717756408,
				"z": -1.7189592383,
				"element": "H" 
			},
			{
				"x": -2.0314311374,
				"y": 2.3344981651,
				"z": -3.2931844527,
				"element": "H" 
			},
			{
				"x": -3.2660538408,
				"y": 1.1666685614,
				"z": -2.8502874434,
				"element": "H" 
			},
			{
				"x": -0.5802645627,
				"y": 1.6664747692,
				"z": -1.5168143096,
				"element": "H" 
			},
			{
				"x": -1.8647523725,
				"y": -0.9956655985,
				"z": -2.2082913918,
				"element": "H" 
			},
			{
				"x": 0.4231478218,
				"y": 0.5493323906,
				"z": -3.5121298498,
				"element": "H" 
			},
			{
				"x": -1.1339470451,
				"y": 0.1797322945,
				"z": -4.2490570905,
				"element": "H" 
			},
			{
				"x": -0.6582750703,
				"y": -2.229236613,
				"z": -4.1970804537,
				"element": "H" 
			},
			{
				"x": 0.6649140109,
				"y": -1.408557311,
				"z": -5.0115506458,
				"element": "H" 
			},
			{
				"x": 2.7055341698,
				"y": -2.3088041661,
				"z": -4.4608861044,
				"element": "H" 
			},
			{
				"x": 4.1451823133,
				"y": -2.282272712,
				"z": -2.2201961478,
				"element": "H" 
			},
			{
				"x": 4.8617925842,
				"y": -4.3907294345,
				"z": -2.7693151107,
				"element": "H" 
			},
			{
				"x": 3.5555878239,
				"y": -3.9752930225,
				"z": -0.5648243274,
				"element": "H" 
			},
			{
				"x": 2.2731420202,
				"y": -4.6000650062,
				"z": -1.6034617882,
				"element": "H" 
			},
			{
				"x": 2.368814945,
				"y": -1.7738682465,
				"z": -0.4030822545,
				"element": "H" 
			},
			{
				"x": 1.4170705685,
				"y": -3.0889279998,
				"z": 0.2670242075,
				"element": "H" 
			},
			{
				"x": -1.2870779502,
				"y": -3.2037910574,
				"z": -2.217051301,
				"element": "H" 
			},
			{
				"x": -0.7847457471,
				"y": -3.6121829329,
				"z": -0.5746741022,
				"element": "H" 
			},
			{
				"x": 0.0111032457,
				"y": -4.3645531189,
				"z": -1.9606058722,
				"element": "H" 
			},
			{
				"x": 0.8828040229,
				"y": -0.2196044788,
				"z": -1.1383397211,
				"element": "H" 
			},
			{
				"x": -1.3270414933,
				"y": -1.6986278103,
				"z": 0.3674737395,
				"element": "H" 
			},
			{
				"x": 0.2531577358,
				"y": -1.2846644665,
				"z": 0.9909284994,
				"element": "H" 
			},
			{
				"x": -1.4696783901,
				"y": 0.2927713929,
				"z": 1.7890214473,
				"element": "H" 
			},
			{
				"x": -0.2067326496,
				"y": 1.100832165,
				"z": 0.8668773181,
				"element": "H" 
			},
			{
				"x": -4.177053863,
				"y": 0.5033070111,
				"z": -0.7757896628,
				"element": "H" 
			},
			{
				"x": -3.7830512947,
				"y": 0.1317647897,
				"z": 0.9016226797,
				"element": "H" 
			},
			{
				"x": -3.2081091396,
				"y": -0.9147902692,
				"z": -0.3960895131,
				"element": "H" 
			}
		],
		 "valence_orbital": [ 
			{
				"type": "occ",
				"energy": -0.28582,
				"method": "rhf"
			},
			{
				"type": "occ",
				"energy": -0.27529,
				"method": "rhf"
			},
			{
				"type": "occ",
				"energy": -0.26692,
				"method": "rhf"
			},
			{
				"type": "occ",
				"energy": -0.26229,
				"method": "rhf"
			},
			{
				"type": "occ",
				"energy": -0.22593,
				"method": "rhf"
			},
			{
				"type": "unocc",
				"energy": 0.02315,
				"method": "rhf"
			},
			{
				"type": "unocc",
				"energy": 0.06959,
				"method": "rhf"
			},
			{
				"type": "unocc",
				"energy": 0.07849,
				"method": "rhf"
			},
			{
				"type": "unocc",
				"energy": 0.08507,
				"method": "rhf"
			},
			{
				"type": "unocc",
				"energy": 0.08611,
				"method": "rhf"
			}
		],
		"cosmo_sigma_profile": { 
			"-0.025": 0.0,
			"-0.024": 0.0,
			"-0.023": 0.0,
			"-0.022": 0.0,
			"-0.021": 0.0,
			"-0.02": 0.0,
			"-0.019": 0.0,
			"-0.018": 0.0,
			"-0.017": 0.0,
			"-0.016": 0.0,
			"-0.015": 0.589441176769,
			"-0.014": 0.942194593982,
			"-0.013": 1.06443322456,
			"-0.012": 0.681980660834,
			"-0.011": 0.645470171809,
			"-0.01": 1.04676563434,
			"-0.009": 0.504813711642,
			"-0.008": 1.10039697901,
			"-0.007": 1.54573357689,
			"-0.006": 0.912420681877,
			"-0.005": 1.14477256897,
			"-0.004": 2.40047558791,
			"-0.003": 21.2903859083,
			"-0.002": 69.0709881076,
			"-0.001": 101.962037178,
			"0.0": 107.16613145,
			"0.001": 84.4684719904,
			"0.002": 46.3003909847,
			"0.003": 8.16671792485,
			"0.004": 3.63641550153,
			"0.005": 3.30760180836,
			"0.006": 2.72426602302,
			"0.007": 2.60871451578,
			"0.008": 1.72076269652,
			"0.009": 1.23692940684,
			"0.01": 1.46174430286,
			"0.011": 1.61995671189,
			"0.012": 1.14377331891,
			"0.013": 1.96664241192,
			"0.014": 1.82392068046,
			"0.015": 1.2914490412,
			"0.016": 0.00512190892746,
			"0.017": 0.0,
			"0.018": 0.0,
			"0.019": 0.0,
			"0.02": 0.0,
			"0.021": 0.0,
			"0.022": 0.0,
			"0.023": 0.0,
			"0.024": 0.0,
			"0.025": 0.0
		}
	}
}
