{
	 "smiles": "CCOC(=O)NC1=CC(O)=CC=C1", 
	 "Tm": 369.15, 
	 "num_atms": 24, 
	 "gaussian": { 
		 "optdone": 1, 
		 "sigma_profile": "yes", 
		 "theory": "DFT", 
		 "functional": "B3LYP", 
		 "basiset": "6-31G**", 
		 "properties": { 
			 "R2extent": 4422.8608, 
			 "electric_dipole_moment_norm": 0.336133827515, 
			 "electric_quadrupole_moment_norm": 17.621148006, 
			 "total_energy": -630.032162927, 
			 "HOMO_LUMO_gap": 0.20773, 
			 "cosmo_polarized_energy": -14.68, 
			 "cosmo_cavitation_energy": 28.42, 
			 "cosmo_dispersion_energy": -20.74, 
			 "cosmo_repulsion_energy": 1.66, 
			 "cosmo_total_nonelectrostatic_energy": 9.35, 
			 "SMD_solvation_energy": 6.54 
		},
		"coords": [
			{
				"x": -0.8934013277,
				"y": 0.3155505147,
				"z": 2.7893668475,
				"element": "C" 
			},
			{
				"x": -2.1426232797,
				"y": -0.0021373751,
				"z": 1.9902200688,
				"element": "C" 
			},
			{
				"x": -1.7567328264,
				"y": -0.0814991866,
				"z": 0.5971540797,
				"element": "O" 
			},
			{
				"x": -2.7648875,
				"y": -0.358410234,
				"z": -0.2551148142,
				"element": "C" 
			},
			{
				"x": -3.9228167628,
				"y": -0.5342658972,
				"z": 0.080774045,
				"element": "O" 
			},
			{
				"x": -2.3731183576,
				"y": -0.4277558139,
				"z": -1.574975268,
				"element": "N" 
			},
			{
				"x": -1.1420704949,
				"y": -0.2736690817,
				"z": -2.2442681817,
				"element": "C" 
			},
			{
				"x": -1.1793073338,
				"y": -0.4291998653,
				"z": -3.6414722549,
				"element": "C" 
			},
			{
				"x": -0.0176413667,
				"y": -0.2976468069,
				"z": -4.4020578102,
				"element": "C" 
			},
			{
				"x": -0.0157670968,
				"y": -0.4419833025,
				"z": -5.7606970477,
				"element": "O" 
			},
			{
				"x": 1.2029434227,
				"y": -0.0083566417,
				"z": -3.7826252353,
				"element": "C" 
			},
			{
				"x": 1.2272996765,
				"y": 0.1432040352,
				"z": -2.4004407184,
				"element": "C" 
			},
			{
				"x": 0.0775252431,
				"y": 0.0161457738,
				"z": -1.6174140279,
				"element": "C" 
			},
			{
				"x": -0.4594463799,
				"y": 1.2699135251,
				"z": 2.4771136053,
				"element": "H" 
			},
			{
				"x": -0.1381640458,
				"y": -0.465995614,
				"z": 2.6651332405,
				"element": "H" 
			},
			{
				"x": -1.1440240904,
				"y": 0.3843042012,
				"z": 3.8524576511,
				"element": "H" 
			},
			{
				"x": -2.9089572968,
				"y": 0.7707721302,
				"z": 2.0998965423,
				"element": "H" 
			},
			{
				"x": -2.5894601992,
				"y": -0.9556241831,
				"z": 2.2867185601,
				"element": "H" 
			},
			{
				"x": -3.1690970015,
				"y": -0.6363542818,
				"z": -2.1607465166,
				"element": "H" 
			},
			{
				"x": -2.1240356526,
				"y": -0.6544550743,
				"z": -4.1342580341,
				"element": "H" 
			},
			{
				"x": -0.9118161918,
				"y": -0.6384122243,
				"z": -6.0629404634,
				"element": "H" 
			},
			{
				"x": 2.096391619,
				"y": 0.090610608,
				"z": -4.3887304265,
				"element": "H" 
			},
			{
				"x": 2.1697377424,
				"y": 0.3679212655,
				"z": -1.9089921496,
				"element": "H" 
			},
			{
				"x": 0.1257695007,
				"y": 0.1388435288,
				"z": -0.5467016917,
				"element": "H" 
			}
		],
		 "valence_orbital": [ 
			{
				"type": "occ",
				"energy": -0.30355,
				"method": "rhf"
			},
			{
				"type": "occ",
				"energy": -0.29469,
				"method": "rhf"
			},
			{
				"type": "occ",
				"energy": -0.27749,
				"method": "rhf"
			},
			{
				"type": "occ",
				"energy": -0.23391,
				"method": "rhf"
			},
			{
				"type": "occ",
				"energy": -0.21171,
				"method": "rhf"
			},
			{
				"type": "unocc",
				"energy": -0.00398,
				"method": "rhf"
			},
			{
				"type": "unocc",
				"energy": 0.0107,
				"method": "rhf"
			},
			{
				"type": "unocc",
				"energy": 0.0663,
				"method": "rhf"
			},
			{
				"type": "unocc",
				"energy": 0.06686,
				"method": "rhf"
			},
			{
				"type": "unocc",
				"energy": 0.07633,
				"method": "rhf"
			}
		],
		"cosmo_sigma_profile": { 
			"-0.025": 0.0,
			"-0.024": 0.0,
			"-0.023": 0.0,
			"-0.022": 0.0,
			"-0.021": 0.0,
			"-0.02": 0.0,
			"-0.019": 0.0,
			"-0.018": 0.257535891665,
			"-0.017": 1.04593684827,
			"-0.016": 1.18362002311,
			"-0.015": 1.38185709728,
			"-0.014": 3.0381369721,
			"-0.013": 1.93395773473,
			"-0.012": 1.36065085345,
			"-0.011": 2.04443651947,
			"-0.01": 2.39007458783,
			"-0.009": 3.07375650071,
			"-0.008": 2.51625125504,
			"-0.007": 1.29109531135,
			"-0.006": 4.39410781788,
			"-0.005": 11.5349449331,
			"-0.004": 17.6501436339,
			"-0.003": 19.1374207826,
			"-0.002": 17.6063091086,
			"-0.001": 16.7672822493,
			"0.0": 18.1043019022,
			"0.001": 11.8546565578,
			"0.002": 11.979962847,
			"0.003": 12.8680755485,
			"0.004": 15.1778704075,
			"0.005": 13.6836425903,
			"0.006": 9.17230755388,
			"0.007": 2.55252666482,
			"0.008": 1.57244875164,
			"0.009": 3.35722503186,
			"0.01": 3.27627438201,
			"0.011": 3.24161072647,
			"0.012": 4.07729616843,
			"0.013": 5.27488197326,
			"0.014": 0.376909157066,
			"0.015": 0.0,
			"0.016": 0.0,
			"0.017": 0.0,
			"0.018": 0.0,
			"0.019": 0.0,
			"0.02": 0.0,
			"0.021": 0.0,
			"0.022": 0.0,
			"0.023": 0.0,
			"0.024": 0.0,
			"0.025": 0.0
		}
	}
}
