{
	 "smiles": "C1CCCC1", 
	 "Tm": 179.25, 
	 "num_atms": 15, 
	 "gaussian": { 
		 "optdone": 1, 
		 "sigma_profile": "yes", 
		 "theory": "DFT", 
		 "functional": "B3LYP", 
		 "basiset": "6-31G**", 
		 "properties": { 
			 "R2extent": 960.4595, 
			 "electric_dipole_moment_norm": 0.00483011387029, 
			 "electric_quadrupole_moment_norm": 0.632591542783, 
			 "total_energy": -196.567471909, 
			 "HOMO_LUMO_gap": 0.39387, 
			 "cosmo_polarized_energy": -0.4, 
			 "cosmo_cavitation_energy": 15.9, 
			 "cosmo_dispersion_energy": -12.53, 
			 "cosmo_repulsion_energy": 1.12, 
			 "cosmo_total_nonelectrostatic_energy": 4.48, 
			 "SMD_solvation_energy": 2.13 
		},
		"coords": [
			{
				"x": -1.4662873926,
				"y": -2.0275808945,
				"z": 0.4003288841,
				"element": "C" 
			},
			{
				"x": -2.5449274189,
				"y": -0.9276384731,
				"z": 0.456498277,
				"element": "C" 
			},
			{
				"x": -1.7518843956,
				"y": 0.3259826503,
				"z": 0.8578199018,
				"element": "C" 
			},
			{
				"x": -0.783300794,
				"y": -0.1966028312,
				"z": 1.9372787741,
				"element": "C" 
			},
			{
				"x": -0.4415000274,
				"y": -1.6540186346,
				"z": 1.5107518939,
				"element": "C" 
			},
			{
				"x": -1.8800557372,
				"y": -3.0326710517,
				"z": 0.5291018556,
				"element": "H" 
			},
			{
				"x": -0.9779594649,
				"y": -2.0094172077,
				"z": -0.5811912305,
				"element": "H" 
			},
			{
				"x": -3.0906686244,
				"y": -0.8151182661,
				"z": -0.4861527445,
				"element": "H" 
			},
			{
				"x": -3.2834327887,
				"y": -1.1611370894,
				"z": 1.2348438183,
				"element": "H" 
			},
			{
				"x": -2.3840977032,
				"y": 1.1470674328,
				"z": 1.2116783275,
				"element": "H" 
			},
			{
				"x": -1.1885143645,
				"y": 0.6982348687,
				"z": -0.0080764533,
				"element": "H" 
			},
			{
				"x": -1.2891912806,
				"y": -0.2000991009,
				"z": 2.9100301487,
				"element": "H" 
			},
			{
				"x": 0.1069369953,
				"y": 0.430787123,
				"z": 2.0461414774,
				"element": "H" 
			},
			{
				"x": 0.5839966208,
				"y": -1.7303538993,
				"z": 1.1354438552,
				"element": "H" 
			},
			{
				"x": -0.511213624,
				"y": -2.3357346262,
				"z": 2.3644032147,
				"element": "H" 
			}
		],
		 "valence_orbital": [ 
			{
				"type": "occ",
				"energy": -0.33032,
				"method": "rhf"
			},
			{
				"type": "occ",
				"energy": -0.32647,
				"method": "rhf"
			},
			{
				"type": "occ",
				"energy": -0.32312,
				"method": "rhf"
			},
			{
				"type": "occ",
				"energy": -0.31694,
				"method": "rhf"
			},
			{
				"type": "occ",
				"energy": -0.30834,
				"method": "rhf"
			},
			{
				"type": "unocc",
				"energy": 0.08553,
				"method": "rhf"
			},
			{
				"type": "unocc",
				"energy": 0.10113,
				"method": "rhf"
			},
			{
				"type": "unocc",
				"energy": 0.14744,
				"method": "rhf"
			},
			{
				"type": "unocc",
				"energy": 0.14792,
				"method": "rhf"
			},
			{
				"type": "unocc",
				"energy": 0.17228,
				"method": "rhf"
			}
		],
		"cosmo_sigma_profile": { 
			"-0.025": 0.0,
			"-0.024": 0.0,
			"-0.023": 0.0,
			"-0.022": 0.0,
			"-0.021": 0.0,
			"-0.02": 0.0,
			"-0.019": 0.0,
			"-0.018": 0.0,
			"-0.017": 0.0,
			"-0.016": 0.0,
			"-0.015": 0.0,
			"-0.014": 0.0,
			"-0.013": 0.0,
			"-0.012": 0.0,
			"-0.011": 0.0,
			"-0.01": 0.0,
			"-0.009": 0.0,
			"-0.008": 0.0,
			"-0.007": 0.0,
			"-0.006": 0.0,
			"-0.005": 0.0,
			"-0.004": 0.0,
			"-0.003": 1.75567466737,
			"-0.002": 17.928935202,
			"-0.001": 24.7183836832,
			"0.0": 32.798524104,
			"0.001": 24.1200512012,
			"0.002": 19.9564123381,
			"0.003": 0.99684820716,
			"0.004": 0.0,
			"0.005": 0.0,
			"0.006": 0.0,
			"0.007": 0.0,
			"0.008": 0.0,
			"0.009": 0.0,
			"0.01": 0.0,
			"0.011": 0.0,
			"0.012": 0.0,
			"0.013": 0.0,
			"0.014": 0.0,
			"0.015": 0.0,
			"0.016": 0.0,
			"0.017": 0.0,
			"0.018": 0.0,
			"0.019": 0.0,
			"0.02": 0.0,
			"0.021": 0.0,
			"0.022": 0.0,
			"0.023": 0.0,
			"0.024": 0.0,
			"0.025": 0.0
		}
	}
}
