{
	 "smiles": "FC(F)(F)C1=CC2=NSN=C2C=C1", 
	 "Tm": 309.65, 
	 "num_atms": 16, 
	 "gaussian": { 
		 "optdone": 1, 
		 "sigma_profile": "yes", 
		 "theory": "DFT", 
		 "functional": "B3LYP", 
		 "basiset": "6-31G**", 
		 "properties": { 
			 "R2extent": 4410.1328, 
			 "electric_dipole_moment_norm": 1.1208551066, 
			 "electric_quadrupole_moment_norm": 3.42092046239, 
			 "total_energy": -1075.74438272, 
			 "HOMO_LUMO_gap": 0.15936, 
			 "cosmo_polarized_energy": -5.36, 
			 "cosmo_cavitation_energy": 23.99, 
			 "cosmo_dispersion_energy": -18.17, 
			 "cosmo_repulsion_energy": 1.3, 
			 "cosmo_total_nonelectrostatic_energy": 7.11, 
			 "SMD_solvation_energy": 1.88 
		},
		"coords": [
			{
				"x": 0.0552517379,
				"y": -0.7783370095,
				"z": -2.3406550234,
				"element": "F" 
			},
			{
				"x": 0.8831473229,
				"y": -1.1303891444,
				"z": -1.337878014,
				"element": "C" 
			},
			{
				"x": 1.691583797,
				"y": -0.0757439274,
				"z": -1.0857392488,
				"element": "F" 
			},
			{
				"x": 1.6763315233,
				"y": -2.1268943337,
				"z": -1.7931464486,
				"element": "F" 
			},
			{
				"x": 0.1406224226,
				"y": -1.5526134068,
				"z": -0.0975623015,
				"element": "C" 
			},
			{
				"x": -1.2293218878,
				"y": -1.5496361483,
				"z": -0.0683342662,
				"element": "C" 
			},
			{
				"x": -1.8692553634,
				"y": -1.9599626673,
				"z": 1.1361587022,
				"element": "C" 
			},
			{
				"x": -3.1908817503,
				"y": -2.0194817216,
				"z": 1.3446663687,
				"element": "N" 
			},
			{
				"x": -3.3852420201,
				"y": -2.5504283656,
				"z": 2.8862064625,
				"element": "S" 
			},
			{
				"x": -1.8155566293,
				"y": -2.7228526315,
				"z": 3.3415125778,
				"element": "N" 
			},
			{
				"x": -1.0791729348,
				"y": -2.363848981,
				"z": 2.2825141218,
				"element": "C" 
			},
			{
				"x": 0.3449661487,
				"y": -2.3513658636,
				"z": 2.2069107451,
				"element": "C" 
			},
			{
				"x": 0.9279050107,
				"y": -1.9519726308,
				"z": 1.0356356253,
				"element": "C" 
			},
			{
				"x": -1.8202789488,
				"y": -1.2481451579,
				"z": -0.9241179736,
				"element": "H" 
			},
			{
				"x": 0.931431497,
				"y": -2.654351182,
				"z": 3.0668706929,
				"element": "H" 
			},
			{
				"x": 2.0090700744,
				"y": -1.9314768287,
				"z": 0.9461579797,
				"element": "H" 
			}
		],
		 "valence_orbital": [ 
			{
				"type": "occ",
				"energy": -0.34592,
				"method": "rhf"
			},
			{
				"type": "occ",
				"energy": -0.33462,
				"method": "rhf"
			},
			{
				"type": "occ",
				"energy": -0.31295,
				"method": "rhf"
			},
			{
				"type": "occ",
				"energy": -0.28034,
				"method": "rhf"
			},
			{
				"type": "occ",
				"energy": -0.2605,
				"method": "rhf"
			},
			{
				"type": "unocc",
				"energy": -0.10114,
				"method": "rhf"
			},
			{
				"type": "unocc",
				"energy": -0.01859,
				"method": "rhf"
			},
			{
				"type": "unocc",
				"energy": -0.00789,
				"method": "rhf"
			},
			{
				"type": "unocc",
				"energy": 0.00068,
				"method": "rhf"
			},
			{
				"type": "unocc",
				"energy": 0.06004,
				"method": "rhf"
			}
		],
		"cosmo_sigma_profile": { 
			"-0.025": 0.0,
			"-0.024": 0.0,
			"-0.023": 0.0,
			"-0.022": 0.0,
			"-0.021": 0.0,
			"-0.02": 0.0,
			"-0.019": 0.0,
			"-0.018": 0.0,
			"-0.017": 0.0,
			"-0.016": 0.0,
			"-0.015": 0.0,
			"-0.014": 0.0,
			"-0.013": 0.0,
			"-0.012": 0.0,
			"-0.011": 0.0,
			"-0.01": 0.0,
			"-0.009": 0.396540902213,
			"-0.008": 4.5779754932,
			"-0.007": 3.99750458896,
			"-0.006": 5.91121096346,
			"-0.005": 8.65590060608,
			"-0.004": 10.4459581907,
			"-0.003": 15.1121139667,
			"-0.002": 21.6136778586,
			"-0.001": 19.2941240958,
			"0.0": 21.507695752,
			"0.001": 16.6432697938,
			"0.002": 26.5416291096,
			"0.003": 22.913646905,
			"0.004": 2.62547573901,
			"0.005": 2.06177247526,
			"0.006": 2.24986406377,
			"0.007": 2.22571162778,
			"0.008": 1.31870971483,
			"0.009": 2.49536131262,
			"0.01": 1.86237522878,
			"0.011": 2.10651720527,
			"0.012": 1.77748372849,
			"0.013": 0.711661200038,
			"0.014": 0.0,
			"0.015": 0.0,
			"0.016": 0.0,
			"0.017": 0.0,
			"0.018": 0.0,
			"0.019": 0.0,
			"0.02": 0.0,
			"0.021": 0.0,
			"0.022": 0.0,
			"0.023": 0.0,
			"0.024": 0.0,
			"0.025": 0.0
		}
	}
}
