{
	 "smiles": "CC1=CC(=CC(=C1)C(C)(C)C)C(C)(C)C", 
	 "Tm": 305.15, 
	 "num_atms": 39, 
	 "gaussian": { 
		 "optdone": 1, 
		 "sigma_profile": "yes", 
		 "theory": "DFT", 
		 "functional": "B3LYP", 
		 "basiset": "6-31G**", 
		 "properties": { 
			 "R2extent": 4281.927, 
			 "electric_dipole_moment_norm": 0.0579448876088, 
			 "electric_quadrupole_moment_norm": 3.94572805956, 
			 "total_energy": -586.098671737, 
			 "HOMO_LUMO_gap": 0.23514, 
			 "cosmo_polarized_energy": -3.51, 
			 "cosmo_cavitation_energy": 37.78, 
			 "cosmo_dispersion_energy": -25.55, 
			 "cosmo_repulsion_energy": 2.01, 
			 "cosmo_total_nonelectrostatic_energy": 14.24, 
			 "SMD_solvation_energy": 6.73 
		},
		"coords": [
			{
				"x": 2.9677617043,
				"y": 2.8925801778,
				"z": -1.6888008742,
				"element": "C" 
			},
			{
				"x": 2.0819816881,
				"y": 1.8350794043,
				"z": -1.0698158396,
				"element": "C" 
			},
			{
				"x": 2.6219432331,
				"y": 0.7962961174,
				"z": -0.3153317847,
				"element": "C" 
			},
			{
				"x": 1.8106790803,
				"y": -0.194262332,
				"z": 0.2670118807,
				"element": "C" 
			},
			{
				"x": 0.432173981,
				"y": -0.1041151118,
				"z": 0.0639917881,
				"element": "C" 
			},
			{
				"x": -0.1545889553,
				"y": 0.9295051877,
				"z": -0.6919005342,
				"element": "C" 
			},
			{
				"x": 0.6904064305,
				"y": 1.8893401002,
				"z": -1.2502083714,
				"element": "C" 
			},
			{
				"x": -1.6851562711,
				"y": 0.9612619487,
				"z": -0.8708234892,
				"element": "C" 
			},
			{
				"x": -2.3650841086,
				"y": 1.0678961052,
				"z": 0.5151882228,
				"element": "C" 
			},
			{
				"x": -2.1523455099,
				"y": 2.1558883736,
				"z": -1.7240914778,
				"element": "C" 
			},
			{
				"x": -2.1508129032,
				"y": -0.3379776668,
				"z": -1.5706069873,
				"element": "C" 
			},
			{
				"x": 2.4603496465,
				"y": -1.3217508008,
				"z": 1.0926416651,
				"element": "C" 
			},
			{
				"x": 1.4249812552,
				"y": -2.3159945393,
				"z": 1.6517822252,
				"element": "C" 
			},
			{
				"x": 3.4481222959,
				"y": -2.1103501085,
				"z": 0.1998118954,
				"element": "C" 
			},
			{
				"x": 3.2289798706,
				"y": -0.7079192211,
				"z": 2.287176028,
				"element": "C" 
			},
			{
				"x": 4.0230220683,
				"y": 2.7120764819,
				"z": -1.4654285242,
				"element": "H" 
			},
			{
				"x": 2.7147083045,
				"y": 3.8929975029,
				"z": -1.3182683415,
				"element": "H" 
			},
			{
				"x": 2.8571530621,
				"y": 2.9185771466,
				"z": -2.7792872943,
				"element": "H" 
			},
			{
				"x": 3.6997302742,
				"y": 0.7602107624,
				"z": -0.1797600815,
				"element": "H" 
			},
			{
				"x": -0.2156253224,
				"y": -0.8541154171,
				"z": 0.5014015961,
				"element": "H" 
			},
			{
				"x": 0.2810588616,
				"y": 2.7029623476,
				"z": -1.8399055793,
				"element": "H" 
			},
			{
				"x": -2.0590816421,
				"y": 1.9840941855,
				"z": 1.0309829956,
				"element": "H" 
			},
			{
				"x": -3.4555534501,
				"y": 1.0873973614,
				"z": 0.4056394126,
				"element": "H" 
			},
			{
				"x": -2.1107234236,
				"y": 0.2218545753,
				"z": 1.1603017742,
				"element": "H" 
			},
			{
				"x": -1.8808932905,
				"y": 3.1135935756,
				"z": -1.2679596883,
				"element": "H" 
			},
			{
				"x": -3.2427025421,
				"y": 2.1348770823,
				"z": -1.8226720986,
				"element": "H" 
			},
			{
				"x": -1.7292890542,
				"y": 2.1258480037,
				"z": -2.7335725738,
				"element": "H" 
			},
			{
				"x": -1.8890013823,
				"y": -1.2289701969,
				"z": -0.9924616545,
				"element": "H" 
			},
			{
				"x": -3.2391800579,
				"y": -0.3331454674,
				"z": -1.7007096465,
				"element": "H" 
			},
			{
				"x": -1.6908953613,
				"y": -0.4353665183,
				"z": -2.5596008633,
				"element": "H" 
			},
			{
				"x": 0.8631966578,
				"y": -2.8119882074,
				"z": 0.8533954481,
				"element": "H" 
			},
			{
				"x": 0.7094555398,
				"y": -1.826615628,
				"z": 2.3207675042,
				"element": "H" 
			},
			{
				"x": 1.9354776714,
				"y": -3.0946131361,
				"z": 2.2281109504,
				"element": "H" 
			},
			{
				"x": 2.9291076446,
				"y": -2.5633215386,
				"z": -0.651382692,
				"element": "H" 
			},
			{
				"x": 3.9250193772,
				"y": -2.9132026948,
				"z": 0.773807598,
				"element": "H" 
			},
			{
				"x": 4.2404968576,
				"y": -1.4687090949,
				"z": -0.1965310113,
				"element": "H" 
			},
			{
				"x": 4.0140071983,
				"y": -0.0214382992,
				"z": 1.9568425331,
				"element": "H" 
			},
			{
				"x": 2.5518887796,
				"y": -0.1495319691,
				"z": 2.9420467017,
				"element": "H" 
			},
			{
				"x": 3.7041317921,
				"y": -1.4964484919,
				"z": 2.8821191884,
				"element": "H" 
			}
		],
		 "valence_orbital": [ 
			{
				"type": "occ",
				"energy": -0.31438,
				"method": "rhf"
			},
			{
				"type": "occ",
				"energy": -0.30389,
				"method": "rhf"
			},
			{
				"type": "occ",
				"energy": -0.30051,
				"method": "rhf"
			},
			{
				"type": "occ",
				"energy": -0.2279,
				"method": "rhf"
			},
			{
				"type": "occ",
				"energy": -0.22619,
				"method": "rhf"
			},
			{
				"type": "unocc",
				"energy": 0.00895,
				"method": "rhf"
			},
			{
				"type": "unocc",
				"energy": 0.01017,
				"method": "rhf"
			},
			{
				"type": "unocc",
				"energy": 0.07866,
				"method": "rhf"
			},
			{
				"type": "unocc",
				"energy": 0.09487,
				"method": "rhf"
			},
			{
				"type": "unocc",
				"energy": 0.11419,
				"method": "rhf"
			}
		],
		"cosmo_sigma_profile": { 
			"-0.025": 0.0,
			"-0.024": 0.0,
			"-0.023": 0.0,
			"-0.022": 0.0,
			"-0.021": 0.0,
			"-0.02": 0.0,
			"-0.019": 0.0,
			"-0.018": 0.0,
			"-0.017": 0.0,
			"-0.016": 0.0,
			"-0.015": 0.0,
			"-0.014": 0.0,
			"-0.013": 0.0,
			"-0.012": 0.0,
			"-0.011": 0.0,
			"-0.01": 0.0,
			"-0.009": 0.0,
			"-0.008": 0.0,
			"-0.007": 0.0,
			"-0.006": 0.0,
			"-0.005": 1.00835959894,
			"-0.004": 10.9469630608,
			"-0.003": 27.8757570038,
			"-0.002": 54.1338080704,
			"-0.001": 42.1863189778,
			"0.0": 41.7614022542,
			"0.001": 49.8568760826,
			"0.002": 29.913908959,
			"0.003": 7.6456392459,
			"0.004": 7.12450178251,
			"0.005": 5.96624495008,
			"0.006": 5.79881526645,
			"0.007": 5.92628099823,
			"0.008": 1.86667166729,
			"0.009": 0.0,
			"0.01": 0.0,
			"0.011": 0.0,
			"0.012": 0.0,
			"0.013": 0.0,
			"0.014": 0.0,
			"0.015": 0.0,
			"0.016": 0.0,
			"0.017": 0.0,
			"0.018": 0.0,
			"0.019": 0.0,
			"0.02": 0.0,
			"0.021": 0.0,
			"0.022": 0.0,
			"0.023": 0.0,
			"0.024": 0.0,
			"0.025": 0.0
		}
	}
}
