{
	 "smiles": "CC1=CC=C(C=C1)S(F)(=O)=O", 
	 "Tm": 314.35, 
	 "num_atms": 18, 
	 "gaussian": { 
		 "optdone": 1, 
		 "sigma_profile": "yes", 
		 "theory": "DFT", 
		 "functional": "B3LYP", 
		 "basiset": "6-31G**", 
		 "properties": { 
			 "R2extent": 5064.9198, 
			 "electric_dipole_moment_norm": 5.97009421115, 
			 "electric_quadrupole_moment_norm": 21.9202387289, 
			 "total_energy": -919.382037438, 
			 "HOMO_LUMO_gap": 0.22152, 
			 "cosmo_polarized_energy": -8.95, 
			 "cosmo_cavitation_energy": 24.03, 
			 "cosmo_dispersion_energy": -18.24, 
			 "cosmo_repulsion_energy": 1.39, 
			 "cosmo_total_nonelectrostatic_energy": 7.18, 
			 "SMD_solvation_energy": 3.73 
		},
		"coords": [
			{
				"x": -1.0503828654,
				"y": 2.0951732129,
				"z": 1.0190813551,
				"element": "C" 
			},
			{
				"x": -0.4619060814,
				"y": 0.8225045888,
				"z": 1.5766189678,
				"element": "C" 
			},
			{
				"x": 0.7568595487,
				"y": 0.3243187588,
				"z": 1.091811747,
				"element": "C" 
			},
			{
				"x": 1.3238004152,
				"y": -0.832771233,
				"z": 1.6191377745,
				"element": "C" 
			},
			{
				"x": 0.6538623039,
				"y": -1.499851158,
				"z": 2.6465772908,
				"element": "C" 
			},
			{
				"x": -0.5594976178,
				"y": -1.0304706601,
				"z": 3.1538358686,
				"element": "C" 
			},
			{
				"x": -1.107586966,
				"y": 0.1284412764,
				"z": 2.6112387163,
				"element": "C" 
			},
			{
				"x": 1.3595150435,
				"y": -2.9786786164,
				"z": 3.3218444059,
				"element": "S" 
			},
			{
				"x": 0.6764857081,
				"y": -4.0813243362,
				"z": 2.3426735323,
				"element": "F" 
			},
			{
				"x": 2.7819408081,
				"y": -3.0333595361,
				"z": 3.0377900003,
				"element": "O" 
			},
			{
				"x": 0.8152035003,
				"y": -3.239620292,
				"z": 4.6419176722,
				"element": "O" 
			},
			{
				"x": -0.6949422719,
				"y": 2.9666534066,
				"z": 1.5826546606,
				"element": "H" 
			},
			{
				"x": -2.1422899905,
				"y": 2.091400682,
				"z": 1.0795773797,
				"element": "H" 
			},
			{
				"x": -0.7648897482,
				"y": 2.2441623931,
				"z": -0.0259594584,
				"element": "H" 
			},
			{
				"x": 1.269943981,
				"y": 0.8508944114,
				"z": 0.2919650931,
				"element": "H" 
			},
			{
				"x": 2.2709221885,
				"y": -1.2117918842,
				"z": 1.2516171677,
				"element": "H" 
			},
			{
				"x": -1.053176816,
				"y": -1.5607843174,
				"z": 3.9605853319,
				"element": "H" 
			},
			{
				"x": -2.05136114,
				"y": 0.5021033034,
				"z": 2.9985324946,
				"element": "H" 
			}
		],
		 "valence_orbital": [ 
			{
				"type": "occ",
				"energy": -0.33846,
				"method": "rhf"
			},
			{
				"type": "occ",
				"energy": -0.33737,
				"method": "rhf"
			},
			{
				"type": "occ",
				"energy": -0.3211,
				"method": "rhf"
			},
			{
				"type": "occ",
				"energy": -0.28288,
				"method": "rhf"
			},
			{
				"type": "occ",
				"energy": -0.27813,
				"method": "rhf"
			},
			{
				"type": "unocc",
				"energy": -0.05661,
				"method": "rhf"
			},
			{
				"type": "unocc",
				"energy": -0.03295,
				"method": "rhf"
			},
			{
				"type": "unocc",
				"energy": 0.02805,
				"method": "rhf"
			},
			{
				"type": "unocc",
				"energy": 0.05859,
				"method": "rhf"
			},
			{
				"type": "unocc",
				"energy": 0.08519,
				"method": "rhf"
			}
		],
		"cosmo_sigma_profile": { 
			"-0.025": 0.0,
			"-0.024": 0.0,
			"-0.023": 0.0,
			"-0.022": 0.0,
			"-0.021": 0.0,
			"-0.02": 0.0,
			"-0.019": 0.0,
			"-0.018": 0.0,
			"-0.017": 0.0,
			"-0.016": 0.0,
			"-0.015": 0.0,
			"-0.014": 0.0,
			"-0.013": 0.0,
			"-0.012": 0.0,
			"-0.011": 0.0,
			"-0.01": 0.0,
			"-0.009": 0.0,
			"-0.008": 1.80677569162,
			"-0.007": 7.07237469754,
			"-0.006": 10.7044311728,
			"-0.005": 15.0776081391,
			"-0.004": 13.7929250864,
			"-0.003": 12.7413198768,
			"-0.002": 15.2838497256,
			"-0.001": 18.268677239,
			"0.0": 15.2791794527,
			"0.001": 13.4809422784,
			"0.002": 21.6120803739,
			"0.003": 14.4675302066,
			"0.004": 3.29463505222,
			"0.005": 3.23955474605,
			"0.006": 3.09794999302,
			"0.007": 3.93866493356,
			"0.008": 8.18749752109,
			"0.009": 9.78948152067,
			"0.01": 1.46389170396,
			"0.011": 0.0,
			"0.012": 0.0,
			"0.013": 0.0,
			"0.014": 0.0,
			"0.015": 0.0,
			"0.016": 0.0,
			"0.017": 0.0,
			"0.018": 0.0,
			"0.019": 0.0,
			"0.02": 0.0,
			"0.021": 0.0,
			"0.022": 0.0,
			"0.023": 0.0,
			"0.024": 0.0,
			"0.025": 0.0
		}
	}
}
