{
	 "smiles": "OC(=O)C1CCCN(C1)S(=O)(=O)C1=CC=C(Br)C=C1", 
	 "Tm": 481.15, 
	 "num_atms": 33, 
	 "gaussian": { 
		 "optdone": 1, 
		 "sigma_profile": "yes", 
		 "theory": "DFT", 
		 "functional": "B3LYP", 
		 "basiset": "6-31G**", 
		 "properties": { 
			 "R2extent": 9312.9315, 
			 "electric_dipole_moment_norm": 4.67109930102, 
			 "electric_quadrupole_moment_norm": 14.2148762875, 
			 "total_energy": -3790.90377089, 
			 "HOMO_LUMO_gap": 0.20226, 
			 "cosmo_polarized_energy": -18.33, 
			 "cosmo_cavitation_energy": 39.6, 
			 "cosmo_dispersion_energy": -28.33, 
			 "cosmo_repulsion_energy": 2.17, 
			 "cosmo_total_nonelectrostatic_energy": 13.43, 
			 "SMD_solvation_energy": 4.55 
		},
		"coords": [
			{
				"x": 2.916544801,
				"y": -2.3094196979,
				"z": 2.7472800287,
				"element": "O" 
			},
			{
				"x": 2.1623794389,
				"y": -1.1878136872,
				"z": 2.6530194721,
				"element": "C" 
			},
			{
				"x": 2.5199148915,
				"y": -0.1227396136,
				"z": 3.1075585438,
				"element": "O" 
			},
			{
				"x": 0.8620341241,
				"y": -1.4449419576,
				"z": 1.9160931993,
				"element": "C" 
			},
			{
				"x": 0.0253350679,
				"y": -2.5614721583,
				"z": 2.5778477401,
				"element": "C" 
			},
			{
				"x": -1.301031518,
				"y": -2.7398807714,
				"z": 1.8283292791,
				"element": "C" 
			},
			{
				"x": -2.0607463973,
				"y": -1.4169067973,
				"z": 1.7055339344,
				"element": "C" 
			},
			{
				"x": -1.1839603179,
				"y": -0.4217526099,
				"z": 1.0477172646,
				"element": "N" 
			},
			{
				"x": 0.0528736251,
				"y": -0.1462000728,
				"z": 1.8023753581,
				"element": "C" 
			},
			{
				"x": -1.991149632,
				"y": 0.9774363201,
				"z": 0.5058337613,
				"element": "S" 
			},
			{
				"x": -3.2741177027,
				"y": 0.5185603044,
				"z": -0.0359288086,
				"element": "O" 
			},
			{
				"x": -1.9437887821,
				"y": 2.045801013,
				"z": 1.513843761,
				"element": "O" 
			},
			{
				"x": -0.9386481428,
				"y": 1.4820684942,
				"z": -0.8584646811,
				"element": "C" 
			},
			{
				"x": -0.9246211832,
				"y": 0.7190389524,
				"z": -2.0289984189,
				"element": "C" 
			},
			{
				"x": -0.1371141497,
				"y": 1.1276513965,
				"z": -3.1017083299,
				"element": "C" 
			},
			{
				"x": 0.6198832639,
				"y": 2.2965345934,
				"z": -2.9855189697,
				"element": "C" 
			},
			{
				"x": 1.7005127697,
				"y": 2.8529330868,
				"z": -4.4549274905,
				"element": "Br" 
			},
			{
				"x": 0.5999702228,
				"y": 3.0654708104,
				"z": -1.8230317843,
				"element": "C" 
			},
			{
				"x": -0.1909402894,
				"y": 2.6540582694,
				"z": -0.7489136619,
				"element": "C" 
			},
			{
				"x": 3.722736697,
				"y": -2.0541585198,
				"z": 3.226966594,
				"element": "H" 
			},
			{
				"x": 1.1303242689,
				"y": -1.7801405025,
				"z": 0.9046641877,
				"element": "H" 
			},
			{
				"x": -0.1758355716,
				"y": -2.2862421909,
				"z": 3.6221352856,
				"element": "H" 
			},
			{
				"x": 0.594475822,
				"y": -3.4947353957,
				"z": 2.5951504133,
				"element": "H" 
			},
			{
				"x": -1.108958849,
				"y": -3.1341287987,
				"z": 0.8230733784,
				"element": "H" 
			},
			{
				"x": -1.9353672273,
				"y": -3.4666152697,
				"z": 2.3480279595,
				"element": "H" 
			},
			{
				"x": -2.3680096398,
				"y": -1.0654175168,
				"z": 2.7037172287,
				"element": "H" 
			},
			{
				"x": -2.957900644,
				"y": -1.532610007,
				"z": 1.0969306123,
				"element": "H" 
			},
			{
				"x": -0.1659596922,
				"y": 0.253960826,
				"z": 2.8016957278,
				"element": "H" 
			},
			{
				"x": 0.638028422,
				"y": 0.6091110989,
				"z": 1.273633644,
				"element": "H" 
			},
			{
				"x": -1.5291226863,
				"y": -0.1784729952,
				"z": -2.1010937597,
				"element": "H" 
			},
			{
				"x": -0.1122270608,
				"y": 0.5514365059,
				"z": -4.0192658466,
				"element": "H" 
			},
			{
				"x": 1.1893621923,
				"y": 3.9725168302,
				"z": -1.7570742444,
				"element": "H" 
			},
			{
				"x": -0.2379761209,
				"y": 3.2369700607,
				"z": 0.164398622,
				"element": "H" 
			}
		],
		 "valence_orbital": [ 
			{
				"type": "occ",
				"energy": -0.29922,
				"method": "rhf"
			},
			{
				"type": "occ",
				"energy": -0.28524,
				"method": "rhf"
			},
			{
				"type": "occ",
				"energy": -0.28322,
				"method": "rhf"
			},
			{
				"type": "occ",
				"energy": -0.26812,
				"method": "rhf"
			},
			{
				"type": "occ",
				"energy": -0.25227,
				"method": "rhf"
			},
			{
				"type": "unocc",
				"energy": -0.05001,
				"method": "rhf"
			},
			{
				"type": "unocc",
				"energy": -0.0331,
				"method": "rhf"
			},
			{
				"type": "unocc",
				"energy": -0.00617,
				"method": "rhf"
			},
			{
				"type": "unocc",
				"energy": -0.00322,
				"method": "rhf"
			},
			{
				"type": "unocc",
				"energy": 0.05538,
				"method": "rhf"
			}
		],
		"cosmo_sigma_profile": { 
			"-0.025": 0.0,
			"-0.024": 0.0,
			"-0.023": 0.0,
			"-0.022": 0.0,
			"-0.021": 0.0,
			"-0.02": 0.0,
			"-0.019": 0.0646815991219,
			"-0.018": 0.678839689283,
			"-0.017": 1.07406412246,
			"-0.016": 0.726387808104,
			"-0.015": 0.782145672295,
			"-0.014": 1.0271785757,
			"-0.013": 0.374034497296,
			"-0.012": 0.65894416215,
			"-0.011": 1.05372557839,
			"-0.01": 0.666396453604,
			"-0.009": 0.765802949638,
			"-0.008": 6.12518113154,
			"-0.007": 9.55437213931,
			"-0.006": 10.9121045943,
			"-0.005": 20.4168048356,
			"-0.004": 28.6936482709,
			"-0.003": 28.6525057231,
			"-0.002": 24.8133944625,
			"-0.001": 23.4016420887,
			"0.0": 23.9436360024,
			"0.001": 28.3202496575,
			"0.002": 16.4677324221,
			"0.003": 16.3776872362,
			"0.004": 15.2019992987,
			"0.005": 5.49060525747,
			"0.006": 5.29814675092,
			"0.007": 5.78548754919,
			"0.008": 6.60535958765,
			"0.009": 6.18606099651,
			"0.01": 9.11996800892,
			"0.011": 11.7209415168,
			"0.012": 5.48751897538,
			"0.013": 0.00446619745901,
			"0.014": 0.0,
			"0.015": 0.0,
			"0.016": 0.0,
			"0.017": 0.0,
			"0.018": 0.0,
			"0.019": 0.0,
			"0.02": 0.0,
			"0.021": 0.0,
			"0.022": 0.0,
			"0.023": 0.0,
			"0.024": 0.0,
			"0.0": 0.0
		}
	}
}
