{
	 "smiles": "CNC(=O)C1=C(N)C=C(Cl)C=C1", 
	 "Tm": 367.15, 
	 "num_atms": 21, 
	 "gaussian": { 
		 "optdone": 1, 
		 "sigma_profile": "yes", 
		 "theory": "DFT", 
		 "functional": "B3LYP", 
		 "basiset": "6-31G**", 
		 "properties": { 
			 "R2extent": 3032.082, 
			 "electric_dipole_moment_norm": 2.32427731134, 
			 "electric_quadrupole_moment_norm": 16.0086512196, 
			 "total_energy": -955.21674709, 
			 "HOMO_LUMO_gap": 0.17409, 
			 "cosmo_polarized_energy": -11.87, 
			 "cosmo_cavitation_energy": 26.25, 
			 "cosmo_dispersion_energy": -19.74, 
			 "cosmo_repulsion_energy": 1.59, 
			 "cosmo_total_nonelectrostatic_energy": 8.09, 
			 "SMD_solvation_energy": 4.24 
		},
		"coords": [
			{
				"x": 0.8863767062,
				"y": 1.5969263119,
				"z": 2.1520457066,
				"element": "C" 
			},
			{
				"x": -0.4002752614,
				"y": 1.7356759914,
				"z": 1.4816729105,
				"element": "N" 
			},
			{
				"x": -0.7890685007,
				"y": 1.2637089954,
				"z": 0.2526354542,
				"element": "C" 
			},
			{
				"x": -1.7183799915,
				"y": 1.8285536359,
				"z": -0.3408254875,
				"element": "O" 
			},
			{
				"x": -0.1037413054,
				"y": 0.0664207914,
				"z": -0.3161547125,
				"element": "C" 
			},
			{
				"x": -0.0159688129,
				"y": -0.0850913321,
				"z": -1.7315408877,
				"element": "C" 
			},
			{
				"x": -0.4903879319,
				"y": 0.8803956926,
				"z": -2.584341413,
				"element": "N" 
			},
			{
				"x": 0.620404213,
				"y": -1.2332933728,
				"z": -2.2485668004,
				"element": "C" 
			},
			{
				"x": 1.0986405639,
				"y": -2.2129857598,
				"z": -1.3929525127,
				"element": "C" 
			},
			{
				"x": 1.8685478504,
				"y": -3.6368906886,
				"z": -2.0804410229,
				"element": "Cl" 
			},
			{
				"x": 0.9717325436,
				"y": -2.1124115329,
				"z": -0.005394441,
				"element": "C" 
			},
			{
				"x": 0.3715990987,
				"y": -0.9669990255,
				"z": 0.5050052155,
				"element": "C" 
			},
			{
				"x": 1.6283532708,
				"y": 1.1811040129,
				"z": 1.4693956982,
				"element": "H" 
			},
			{
				"x": 1.2363600916,
				"y": 2.5826903229,
				"z": 2.4740688213,
				"element": "H" 
			},
			{
				"x": 0.8294679658,
				"y": 0.9513532636,
				"z": 3.0372835803,
				"element": "H" 
			},
			{
				"x": -0.9722627499,
				"y": 2.5236393027,
				"z": 1.7577700565,
				"element": "H" 
			},
			{
				"x": -1.2062322926,
				"y": 1.4783325877,
				"z": -2.1841914242,
				"element": "H" 
			},
			{
				"x": -0.6070565973,
				"y": 0.616473262,
				"z": -3.5505987593,
				"element": "H" 
			},
			{
				"x": 0.7183031682,
				"y": -1.3547352947,
				"z": -3.3223111523,
				"element": "H" 
			},
			{
				"x": 1.3247216422,
				"y": -2.9043140585,
				"z": 0.6435202487,
				"element": "H" 
			},
			{
				"x": 0.2412663292,
				"y": -0.8851531053,
				"z": 1.5788209217,
				"element": "H" 
			}
		],
		 "valence_orbital": [ 
			{
				"type": "occ",
				"energy": -0.30566,
				"method": "rhf"
			},
			{
				"type": "occ",
				"energy": -0.26417,
				"method": "rhf"
			},
			{
				"type": "occ",
				"energy": -0.25346,
				"method": "rhf"
			},
			{
				"type": "occ",
				"energy": -0.246,
				"method": "rhf"
			},
			{
				"type": "occ",
				"energy": -0.21007,
				"method": "rhf"
			},
			{
				"type": "unocc",
				"energy": -0.03598,
				"method": "rhf"
			},
			{
				"type": "unocc",
				"energy": 0.00167,
				"method": "rhf"
			},
			{
				"type": "unocc",
				"energy": 0.03071,
				"method": "rhf"
			},
			{
				"type": "unocc",
				"energy": 0.0496,
				"method": "rhf"
			},
			{
				"type": "unocc",
				"energy": 0.08191,
				"method": "rhf"
			}
		],
		"cosmo_sigma_profile": { 
			"-0.025": 0.0,
			"-0.024": 0.0,
			"-0.023": 0.0,
			"-0.022": 0.0,
			"-0.021": 0.0,
			"-0.02": 0.0,
			"-0.019": 0.0,
			"-0.018": 0.0,
			"-0.017": 0.0,
			"-0.016": 0.0,
			"-0.015": 0.0,
			"-0.014": 0.0922659574528,
			"-0.013": 2.26132216757,
			"-0.012": 2.48497632201,
			"-0.011": 3.01608406409,
			"-0.01": 2.28679552414,
			"-0.009": 2.16406212567,
			"-0.008": 3.9700356576,
			"-0.007": 5.73433471362,
			"-0.006": 9.24265980577,
			"-0.005": 11.766330279,
			"-0.004": 12.8443048798,
			"-0.003": 13.5348591363,
			"-0.002": 16.3077775415,
			"-0.001": 10.7950567555,
			"0.0": 11.2789665212,
			"0.001": 12.5743396432,
			"0.002": 17.141201141,
			"0.003": 21.6691775628,
			"0.004": 21.2240757525,
			"0.005": 10.7880119244,
			"0.006": 2.3554899391,
			"0.007": 1.36329654791,
			"0.008": 2.16122298489,
			"0.009": 2.67492555655,
			"0.01": 1.49301960949,
			"0.011": 2.03121853849,
			"0.012": 2.31344421362,
			"0.013": 3.29953370409,
			"0.014": 1.86171587931,
			"0.015": 0.201863360311,
			"0.016": 0.0,
			"0.017": 0.0,
			"0.018": 0.0,
			"0.019": 0.0,
			"0.02": 0.0,
			"0.021": 0.0,
			"0.022": 0.0,
			"0.023": 0.0,
			"0.024": 0.0,
			"0.025": 0.0
		}
	}
}
