{
	 "smiles": "ClCC(=O)N1CCC2=C1C=CC(=C2)S(=O)(=O)N1CCCCC1", 
	 "Tm": 459.15, 
	 "num_atms": 41, 
	 "gaussian": { 
		 "optdone": 1, 
		 "sigma_profile": "yes", 
		 "theory": "DFT", 
		 "functional": "B3LYP", 
		 "basiset": "6-31G**", 
		 "properties": { 
			 "R2extent": 10660.8598, 
			 "electric_dipole_moment_norm": 4.87850995797, 
			 "electric_quadrupole_moment_norm": 19.9299439013, 
			 "total_energy": -1776.55475872, 
			 "HOMO_LUMO_gap": 0.17905, 
			 "cosmo_polarized_energy": -19.5, 
			 "cosmo_cavitation_energy": 44.68, 
			 "cosmo_dispersion_energy": -32.13, 
			 "cosmo_repulsion_energy": 2.44, 
			 "cosmo_total_nonelectrostatic_energy": 14.99, 
			 "SMD_solvation_energy": 4.88 
		},
		"coords": [
			{
				"x": 1.9490906194,
				"y": -4.7332680597,
				"z": 2.4863175425,
				"element": "Cl" 
			},
			{
				"x": 3.1396698334,
				"y": -3.3646973473,
				"z": 2.42227588,
				"element": "C" 
			},
			{
				"x": 3.9060771102,
				"y": -3.3500504378,
				"z": 1.1052767338,
				"element": "C" 
			},
			{
				"x": 4.9720326794,
				"y": -3.9443317772,
				"z": 1.0145592257,
				"element": "O" 
			},
			{
				"x": 3.4179683959,
				"y": -2.6127018384,
				"z": 0.0478707266,
				"element": "N" 
			},
			{
				"x": 4.2839411607,
				"y": -2.4653223318,
				"z": -1.1492211908,
				"element": "C" 
			},
			{
				"x": 3.7690132099,
				"y": -1.1850257141,
				"z": -1.8382931967,
				"element": "C" 
			},
			{
				"x": 2.3919806717,
				"y": -1.0086694986,
				"z": -1.2410045413,
				"element": "C" 
			},
			{
				"x": 2.2355590524,
				"y": -1.8614522762,
				"z": -0.1323457233,
				"element": "C" 
			},
			{
				"x": 1.0239853447,
				"y": -1.9089387004,
				"z": 0.5682999886,
				"element": "C" 
			},
			{
				"x": -0.005875298,
				"y": -1.0541324243,
				"z": 0.1737482621,
				"element": "C" 
			},
			{
				"x": 0.1705015009,
				"y": -0.1832453547,
				"z": -0.902974782,
				"element": "C" 
			},
			{
				"x": 1.3657179465,
				"y": -0.1619945122,
				"z": -1.6308199766,
				"element": "C" 
			},
			{
				"x": -1.1932484141,
				"y": 0.8524091191,
				"z": -1.4327519229,
				"element": "S" 
			},
			{
				"x": -0.7441441437,
				"y": 1.5836054728,
				"z": -2.6283354791,
				"element": "O" 
			},
			{
				"x": -2.4175145472,
				"y": 0.0454658288,
				"z": -1.4759929832,
				"element": "O" 
			},
			{
				"x": -1.3619098944,
				"y": 1.8940504464,
				"z": -0.0969487328,
				"element": "N" 
			},
			{
				"x": -2.7291394966,
				"y": 2.432158246,
				"z": 0.0903402399,
				"element": "C" 
			},
			{
				"x": -2.8293993872,
				"y": 3.0683993121,
				"z": 1.479697074,
				"element": "C" 
			},
			{
				"x": -1.7595151519,
				"y": 4.1515390538,
				"z": 1.6738117447,
				"element": "C" 
			},
			{
				"x": -0.364004148,
				"y": 3.5852693191,
				"z": 1.3790736308,
				"element": "C" 
			},
			{
				"x": -0.3123729593,
				"y": 2.929485878,
				"z": -0.0049585209,
				"element": "C" 
			},
			{
				"x": 3.8688671395,
				"y": -3.5523352552,
				"z": 3.207767273,
				"element": "H" 
			},
			{
				"x": 2.5910657531,
				"y": -2.444076075,
				"z": 2.6202298872,
				"element": "H" 
			},
			{
				"x": 5.3254919991,
				"y": -2.4200135539,
				"z": -0.8327624714,
				"element": "H" 
			},
			{
				"x": 4.1652856939,
				"y": -3.3485665877,
				"z": -1.7863948628,
				"element": "H" 
			},
			{
				"x": 4.4077180384,
				"y": -0.3239617642,
				"z": -1.6042465522,
				"element": "H" 
			},
			{
				"x": 3.7481148642,
				"y": -1.2869302421,
				"z": -2.9265981349,
				"element": "H" 
			},
			{
				"x": 0.846326457,
				"y": -2.6200475428,
				"z": 1.3636129851,
				"element": "H" 
			},
			{
				"x": -0.9577437468,
				"y": -1.0822714162,
				"z": 0.6924591879,
				"element": "H" 
			},
			{
				"x": 1.4623041785,
				"y": 0.5009599319,
				"z": -2.4842117045,
				"element": "H" 
			},
			{
				"x": -3.4341632786,
				"y": 1.6076468955,
				"z": -0.0192591101,
				"element": "H" 
			},
			{
				"x": -2.9607940237,
				"y": 3.1828903122,
				"z": -0.6828812299,
				"element": "H" 
			},
			{
				"x": -2.7073201076,
				"y": 2.2844738169,
				"z": 2.2372799645,
				"element": "H" 
			},
			{
				"x": -3.8344100542,
				"y": 3.4877466692,
				"z": 1.6039240265,
				"element": "H" 
			},
			{
				"x": -1.9630439748,
				"y": 4.9891284745,
				"z": 0.9921152861,
				"element": "H" 
			},
			{
				"x": -1.8013214325,
				"y": 4.5562131354,
				"z": 2.6911743605,
				"element": "H" 
			},
			{
				"x": -0.1011520885,
				"y": 2.8351854038,
				"z": 2.1351893663,
				"element": "H" 
			},
			{
				"x": 0.3946678221,
				"y": 4.3750423323,
				"z": 1.4253755708,
				"element": "H" 
			},
			{
				"x": -0.4425975112,
				"y": 3.6844475492,
				"z": -0.795302224,
				"element": "H" 
			},
			{
				"x": 0.6600901874,
				"y": 2.4538155133,
				"z": -0.1614956172,
				"element": "H" 
			}
		],
		 "valence_orbital": [ 
			{
				"type": "occ",
				"energy": -0.29567,
				"method": "rhf"
			},
			{
				"type": "occ",
				"energy": -0.27508,
				"method": "rhf"
			},
			{
				"type": "occ",
				"energy": -0.27272,
				"method": "rhf"
			},
			{
				"type": "occ",
				"energy": -0.25475,
				"method": "rhf"
			},
			{
				"type": "occ",
				"energy": -0.23385,
				"method": "rhf"
			},
			{
				"type": "unocc",
				"energy": -0.0548,
				"method": "rhf"
			},
			{
				"type": "unocc",
				"energy": -0.03205,
				"method": "rhf"
			},
			{
				"type": "unocc",
				"energy": -0.01886,
				"method": "rhf"
			},
			{
				"type": "unocc",
				"energy": 0.04622,
				"method": "rhf"
			},
			{
				"type": "unocc",
				"energy": 0.05946,
				"method": "rhf"
			}
		],
		"cosmo_sigma_profile": { 
			"-0.025": 0.0,
			"-0.024": 0.0,
			"-0.023": 0.0,
			"-0.022": 0.0,
			"-0.021": 0.0,
			"-0.02": 0.0,
			"-0.019": 0.0,
			"-0.018": 0.0,
			"-0.017": 0.0,
			"-0.016": 0.0,
			"-0.015": 0.0,
			"-0.014": 0.0,
			"-0.013": 0.0,
			"-0.012": 0.0,
			"-0.011": 0.0,
			"-0.01": 0.0,
			"-0.009": 2.344439501,
			"-0.008": 5.58270506336,
			"-0.007": 7.52482486586,
			"-0.006": 15.9101350387,
			"-0.005": 21.4088517793,
			"-0.004": 29.5746454763,
			"-0.003": 45.754757726,
			"-0.002": 40.4076900744,
			"-0.001": 32.7896284363,
			"0.0": 27.4395500314,
			"0.001": 18.3914279982,
			"0.002": 19.8683409047,
			"0.003": 14.1442817263,
			"0.004": 11.2901383338,
			"0.005": 12.8191134228,
			"0.006": 4.80357177762,
			"0.007": 4.14909073085,
			"0.008": 4.58810243712,
			"0.009": 5.68961445479,
			"0.01": 7.14019234471,
			"0.011": 10.8610082502,
			"0.012": 9.81082647818,
			"0.013": 2.185103338,
			"0.014": 0.0683408641576,
			"0.015": 0.0,
			"0.016": 0.0,
			"0.017": 0.0,
			"0.018": 0.0,
			"0.019": 0.0,
			"0.02": 0.0,
			"0.021": 0.0,
			"0.022": 0.0,
			"0.023": 0.0,
			"0.024": 0.0,
			"0.025": 0.0
		}
	}
}
