{
	 "smiles": "O=CC1=CN(N=N1)C1=CC=CC=C1", 
	 "Tm": 371.15, 
	 "num_atms": 20, 
	 "gaussian": { 
		 "optdone": 1, 
		 "sigma_profile": "yes", 
		 "theory": "DFT", 
		 "functional": "B3LYP", 
		 "basiset": "6-31G**", 
		 "properties": { 
			 "R2extent": 3425.8781, 
			 "electric_dipole_moment_norm": 4.76864037961, 
			 "electric_quadrupole_moment_norm": 10.2723748754, 
			 "total_energy": -586.599362407, 
			 "HOMO_LUMO_gap": 0.18792, 
			 "cosmo_polarized_energy": -12.37, 
			 "cosmo_cavitation_energy": 25.57, 
			 "cosmo_dispersion_energy": -18.8, 
			 "cosmo_repulsion_energy": 1.46, 
			 "cosmo_total_nonelectrostatic_energy": 8.22, 
			 "SMD_solvation_energy": 4.42 
		},
		"coords": [
			{
				"x": -2.2873073874,
				"y": -1.3406651857,
				"z": -5.0330925364,
				"element": "O" 
			},
			{
				"x": -1.6452784094,
				"y": -0.3435852052,
				"z": -4.7561055528,
				"element": "C" 
			},
			{
				"x": -1.0415330854,
				"y": -0.1081526309,
				"z": -3.4417407689,
				"element": "C" 
			},
			{
				"x": -1.0700736869,
				"y": -0.9103999825,
				"z": -2.3163483333,
				"element": "C" 
			},
			{
				"x": -0.3620976428,
				"y": -0.2243855886,
				"z": -1.3903921013,
				"element": "N" 
			},
			{
				"x": 0.0881871379,
				"y": 0.9604599116,
				"z": -1.9254323419,
				"element": "N" 
			},
			{
				"x": -0.3223095933,
				"y": 1.0205087542,
				"z": -3.1491282676,
				"element": "N" 
			},
			{
				"x": -0.055498379,
				"y": -0.5611505639,
				"z": -0.0376528327,
				"element": "C" 
			},
			{
				"x": -0.5110499575,
				"y": -1.764247828,
				"z": 0.5100750684,
				"element": "C" 
			},
			{
				"x": -0.2012464549,
				"y": -2.0754683119,
				"z": 1.8334014102,
				"element": "C" 
			},
			{
				"x": 0.5566588023,
				"y": -1.196743203,
				"z": 2.6081642372,
				"element": "C" 
			},
			{
				"x": 1.0059532835,
				"y": 0.0017342349,
				"z": 2.0500842004,
				"element": "C" 
			},
			{
				"x": 0.7052801373,
				"y": 0.3279216629,
				"z": 0.7294956891,
				"element": "C" 
			},
			{
				"x": -1.4678024142,
				"y": 0.4703079683,
				"z": -5.4875972115,
				"element": "H" 
			},
			{
				"x": -1.5300899644,
				"y": -1.8691283658,
				"z": -2.1478628336,
				"element": "H" 
			},
			{
				"x": -1.1009458156,
				"y": -2.4580021737,
				"z": -0.0782343499,
				"element": "H" 
			},
			{
				"x": -0.556439959,
				"y": -3.0103720925,
				"z": 2.2556618078,
				"element": "H" 
			},
			{
				"x": 0.7949884924,
				"y": -1.4439684562,
				"z": 3.6379224314,
				"element": "H" 
			},
			{
				"x": 1.596298374,
				"y": 0.6922740564,
				"z": 2.6445112397,
				"element": "H" 
			},
			{
				"x": 1.0479065225,
				"y": 1.2538629994,
				"z": 0.2859710457,
				"element": "H" 
			}
		],
		 "valence_orbital": [ 
			{
				"type": "occ",
				"energy": -0.2873,
				"method": "rhf"
			},
			{
				"type": "occ",
				"energy": -0.28467,
				"method": "rhf"
			},
			{
				"type": "occ",
				"energy": -0.27521,
				"method": "rhf"
			},
			{
				"type": "occ",
				"energy": -0.25986,
				"method": "rhf"
			},
			{
				"type": "occ",
				"energy": -0.2547,
				"method": "rhf"
			},
			{
				"type": "unocc",
				"energy": -0.06678,
				"method": "rhf"
			},
			{
				"type": "unocc",
				"energy": -0.0435,
				"method": "rhf"
			},
			{
				"type": "unocc",
				"energy": -0.0248,
				"method": "rhf"
			},
			{
				"type": "unocc",
				"energy": 0.0133,
				"method": "rhf"
			},
			{
				"type": "unocc",
				"energy": 0.06625,
				"method": "rhf"
			}
		],
		"cosmo_sigma_profile": { 
			"-0.025": 0.0,
			"-0.024": 0.0,
			"-0.023": 0.0,
			"-0.022": 0.0,
			"-0.021": 0.0,
			"-0.02": 0.0,
			"-0.019": 0.0,
			"-0.018": 0.0,
			"-0.017": 0.0,
			"-0.016": 0.0,
			"-0.015": 0.0,
			"-0.014": 0.0,
			"-0.013": 0.837804886155,
			"-0.012": 1.65295432806,
			"-0.011": 2.03099654936,
			"-0.01": 2.07040499809,
			"-0.009": 1.3796335807,
			"-0.008": 2.42039319855,
			"-0.007": 7.75418349757,
			"-0.006": 13.3561703573,
			"-0.005": 14.8270004399,
			"-0.004": 14.771172195,
			"-0.003": 15.173820236,
			"-0.002": 16.0672330998,
			"-0.001": 14.2199979373,
			"0.0": 12.3329712797,
			"0.001": 11.951865267,
			"0.002": 12.7207440884,
			"0.003": 13.9345946477,
			"0.004": 11.6641600214,
			"0.005": 3.72604850682,
			"0.006": 3.58574214052,
			"0.007": 3.86783854058,
			"0.008": 3.9901922042,
			"0.009": 6.25266501883,
			"0.01": 5.62304606218,
			"0.011": 5.41721014263,
			"0.012": 3.41649493878,
			"0.013": 1.33261665638,
			"0.014": 0.502628381732,
			"0.015": 0.0365697363709,
			"0.016": 0.0,
			"0.017": 0.0,
			"0.018": 0.0,
			"0.019": 0.0,
			"0.02": 0.0,
			"0.021": 0.0,
			"0.022": 0.0,
			"0.023": 0.0,
			"0.024": 0.0,
			"0.025": 0.0
		}
	}
}
