{
	 "smiles": "OC(=O)C1=C(CSC2CCCCC2)C2=C(O1)C=CC=C2", 
	 "Tm": 432.15, 
	 "num_atms": 38, 
	 "gaussian": { 
		 "optdone": 1, 
		 "sigma_profile": "yes", 
		 "theory": "DFT", 
		 "functional": "B3LYP", 
		 "basiset": "6-31G**", 
		 "properties": { 
			 "R2extent": 8288.5092, 
			 "electric_dipole_moment_norm": 5.83708734387, 
			 "electric_quadrupole_moment_norm": 27.5008209712, 
			 "total_energy": -1244.41109083, 
			 "HOMO_LUMO_gap": 0.16799, 
			 "cosmo_polarized_energy": -18.06, 
			 "cosmo_cavitation_energy": 41.2, 
			 "cosmo_dispersion_energy": -29.38, 
			 "cosmo_repulsion_energy": 2.23, 
			 "cosmo_total_nonelectrostatic_energy": 14.05, 
			 "SMD_solvation_energy": 6.98 
		},
		"coords": [
			{
				"x": 0.0964288844,
				"y": -3.6141509161,
				"z": -2.8720523104,
				"element": "O" 
			},
			{
				"x": -1.2177604563,
				"y": -3.2768763466,
				"z": -3.0195091404,
				"element": "C" 
			},
			{
				"x": -2.0540237862,
				"y": -4.1207659436,
				"z": -3.2171851609,
				"element": "O" 
			},
			{
				"x": -1.5200368804,
				"y": -1.828054965,
				"z": -2.9088892963,
				"element": "C" 
			},
			{
				"x": -0.9632968485,
				"y": -0.7920761532,
				"z": -2.1970153853,
				"element": "C" 
			},
			{
				"x": 0.2031870969,
				"y": -0.8160067777,
				"z": -1.2574057138,
				"element": "C" 
			},
			{
				"x": -0.3524566563,
				"y": -0.4495017347,
				"z": 0.4705162848,
				"element": "S" 
			},
			{
				"x": 1.2070197919,
				"y": -0.8173148267,
				"z": 1.4102028674,
				"element": "C" 
			},
			{
				"x": 0.8645028429,
				"y": -0.8280200848,
				"z": 2.9304216661,
				"element": "C" 
			},
			{
				"x": 1.3837270351,
				"y": 0.4166939545,
				"z": 3.6798781153,
				"element": "C" 
			},
			{
				"x": 1.2097279519,
				"y": 1.6863617243,
				"z": 2.8370735214,
				"element": "C" 
			},
			{
				"x": 2.0422132231,
				"y": 1.6143030049,
				"z": 1.532636077,
				"element": "C" 
			},
			{
				"x": 2.3517877622,
				"y": 0.1623830823,
				"z": 1.1115960361,
				"element": "C" 
			},
			{
				"x": -1.7883096239,
				"y": 0.3593729716,
				"z": -2.4875850352,
				"element": "C" 
			},
			{
				"x": -2.7876088206,
				"y": -0.0982925984,
				"z": -3.3640918742,
				"element": "C" 
			},
			{
				"x": -2.6312932405,
				"y": -1.4287164235,
				"z": -3.6117405183,
				"element": "O" 
			},
			{
				"x": -3.7810068621,
				"y": 0.7187063967,
				"z": -3.895352606,
				"element": "C" 
			},
			{
				"x": -3.7516179659,
				"y": 2.0550836835,
				"z": -3.5064427316,
				"element": "C" 
			},
			{
				"x": -2.7663106873,
				"y": 2.5443735534,
				"z": -2.6237962009,
				"element": "C" 
			},
			{
				"x": -1.7820575784,
				"y": 1.7119449257,
				"z": -2.1047033946,
				"element": "C" 
			},
			{
				"x": 0.6469192745,
				"y": -2.8239084492,
				"z": -2.9648472939,
				"element": "H" 
			},
			{
				"x": 0.6819573288,
				"y": -1.7984762355,
				"z": -1.2404917162,
				"element": "H" 
			},
			{
				"x": 0.945836087,
				"y": -0.0707922381,
				"z": -1.5612633641,
				"element": "H" 
			},
			{
				"x": 1.5027769615,
				"y": -1.8251528419,
				"z": 1.0993355046,
				"element": "H" 
			},
			{
				"x": -0.2206587413,
				"y": -0.9084756218,
				"z": 3.0622017672,
				"element": "H" 
			},
			{
				"x": 1.2880990023,
				"y": -1.7336430004,
				"z": 3.3787836018,
				"element": "H" 
			},
			{
				"x": 2.4449061868,
				"y": 0.2880880756,
				"z": 3.9304102933,
				"element": "H" 
			},
			{
				"x": 0.8553967575,
				"y": 0.511039393,
				"z": 4.6349841868,
				"element": "H" 
			},
			{
				"x": 0.1473201201,
				"y": 1.7988617413,
				"z": 2.5894607838,
				"element": "H" 
			},
			{
				"x": 1.4886756958,
				"y": 2.5732830824,
				"z": 3.4164276523,
				"element": "H" 
			},
			{
				"x": 1.504590203,
				"y": 2.1272218567,
				"z": 0.7285565757,
				"element": "H" 
			},
			{
				"x": 2.9923248946,
				"y": 2.146570438,
				"z": 1.6581909588,
				"element": "H" 
			},
			{
				"x": 3.2295302662,
				"y": -0.202502659,
				"z": 1.6625992769,
				"element": "H" 
			},
			{
				"x": 2.6342347471,
				"y": 0.1242193365,
				"z": 0.0535532427,
				"element": "H" 
			},
			{
				"x": -4.5332916377,
				"y": 0.3252608605,
				"z": -4.5696293546,
				"element": "H" 
			},
			{
				"x": -4.5067150457,
				"y": 2.7353153068,
				"z": -3.8885180546,
				"element": "H" 
			},
			{
				"x": -2.7825763533,
				"y": 3.593090425,
				"z": -2.3433474287,
				"element": "H" 
			},
			{
				"x": -1.035440929,
				"y": 2.0904540034,
				"z": -1.4144618318,
				"element": "H" 
			}
		],
		 "valence_orbital": [ 
			{
				"type": "occ",
				"energy": -0.29547,
				"method": "rhf"
			},
			{
				"type": "occ",
				"energy": -0.28141,
				"method": "rhf"
			},
			{
				"type": "occ",
				"energy": -0.24911,
				"method": "rhf"
			},
			{
				"type": "occ",
				"energy": -0.23685,
				"method": "rhf"
			},
			{
				"type": "occ",
				"energy": -0.22785,
				"method": "rhf"
			},
			{
				"type": "unocc",
				"energy": -0.05986,
				"method": "rhf"
			},
			{
				"type": "unocc",
				"energy": -0.00201,
				"method": "rhf"
			},
			{
				"type": "unocc",
				"energy": 0.00235,
				"method": "rhf"
			},
			{
				"type": "unocc",
				"energy": 0.02522,
				"method": "rhf"
			},
			{
				"type": "unocc",
				"energy": 0.04929,
				"method": "rhf"
			}
		],
		"cosmo_sigma_profile": { 
			"-0.025": 0.0,
			"-0.024": 0.0,
			"-0.023": 0.0,
			"-0.022": 0.0,
			"-0.021": 0.0,
			"-0.02": 0.0,
			"-0.019": 0.164064881554,
			"-0.018": 1.03042171235,
			"-0.017": 0.778089215388,
			"-0.016": 1.01558131992,
			"-0.015": 1.15287553032,
			"-0.014": 0.848272698809,
			"-0.013": 0.887558265719,
			"-0.012": 1.22614257722,
			"-0.011": 0.952368305856,
			"-0.01": 0.354724929724,
			"-0.009": 1.2078013527,
			"-0.008": 2.14328226553,
			"-0.007": 5.64849054385,
			"-0.006": 12.1524587479,
			"-0.005": 17.447092995,
			"-0.004": 18.3457784572,
			"-0.003": 25.3938725199,
			"-0.002": 32.8251323612,
			"-0.001": 35.6412022399,
			"0.0": 37.3018796299,
			"0.001": 29.4524867901,
			"0.002": 17.604416231,
			"0.003": 15.0234503058,
			"0.004": 16.8227428668,
			"0.005": 8.53761298588,
			"0.006": 6.46723375465,
			"0.007": 6.41353939975,
			"0.008": 5.49092414419,
			"0.009": 6.15040726589,
			"0.01": 7.07126077428,
			"0.011": 7.16088622368,
			"0.012": 3.41167724036,
			"0.013": 0.243259572702,
			"0.014": 0.0,
			"0.015": 0.0,
			"0.016": 0.0,
			"0.017": 0.0,
			"0.018": 0.0,
			"0.019": 0.0,
			"0.02": 0.0,
			"0.021": 0.0,
			"0.022": 0.0,
			"0.023": 0.0,
			"0.024": 0.0,
			"0.025": 0.0
		}
	}
}
