{
	 "smiles": "CC(C)(C(O)=O)C1=CC2=C(OCCO2)C=C1", 
	 "Tm": 399.15, 
	 "num_atms": 30, 
	 "gaussian": { 
		 "optdone": 1, 
		 "sigma_profile": "yes", 
		 "theory": "DFT", 
		 "functional": "B3LYP", 
		 "basiset": "6-31G**", 
		 "properties": { 
			 "R2extent": 4682.9463, 
			 "electric_dipole_moment_norm": 2.87862031189, 
			 "electric_quadrupole_moment_norm": 10.2233488178, 
			 "total_energy": -766.612153471, 
			 "HOMO_LUMO_gap": 0.20398, 
			 "cosmo_polarized_energy": -12.85, 
			 "cosmo_cavitation_energy": 32.28, 
			 "cosmo_dispersion_energy": -23.45, 
			 "cosmo_repulsion_energy": 1.83, 
			 "cosmo_total_nonelectrostatic_energy": 10.66, 
			 "SMD_solvation_energy": 6.92 
		},
		"coords": [
			{
				"x": 1.7361932379,
				"y": 1.9684981781,
				"z": 1.9370758258,
				"element": "C" 
			},
			{
				"x": 1.4312308845,
				"y": 2.5069069906,
				"z": 0.5249980585,
				"element": "C" 
			},
			{
				"x": 0.5915960661,
				"y": 3.796854061,
				"z": 0.6414689865,
				"element": "C" 
			},
			{
				"x": 2.7489673801,
				"y": 2.8445552006,
				"z": -0.1867271401,
				"element": "C" 
			},
			{
				"x": 3.6843095584,
				"y": 1.8755530108,
				"z": -0.0386631757,
				"element": "O" 
			},
			{
				"x": 2.9622672642,
				"y": 3.8443327397,
				"z": -0.8400539681,
				"element": "O" 
			},
			{
				"x": 0.6948478067,
				"y": 1.4841220308,
				"z": -0.3647049455,
				"element": "C" 
			},
			{
				"x": 0.1977046452,
				"y": 0.2795387555,
				"z": 0.1385942454,
				"element": "C" 
			},
			{
				"x": -0.4962700837,
				"y": -0.6115338097,
				"z": -0.6821720851,
				"element": "C" 
			},
			{
				"x": -0.6896580446,
				"y": -0.3151165323,
				"z": -2.0394836861,
				"element": "C" 
			},
			{
				"x": -1.3483297634,
				"y": -1.1733029865,
				"z": -2.8872194078,
				"element": "O" 
			},
			{
				"x": -1.4891328429,
				"y": -2.4951084166,
				"z": -2.3680785885,
				"element": "C" 
			},
			{
				"x": -1.9433654873,
				"y": -2.4436725562,
				"z": -0.9177488913,
				"element": "C" 
			},
			{
				"x": -0.9683298878,
				"y": -1.7742823637,
				"z": -0.1191674164,
				"element": "O" 
			},
			{
				"x": -0.200647165,
				"y": 0.8881277493,
				"z": -2.5490797925,
				"element": "C" 
			},
			{
				"x": 0.4767387884,
				"y": 1.7783942071,
				"z": -1.7221659215,
				"element": "C" 
			},
			{
				"x": 2.3144406747,
				"y": 1.0433821591,
				"z": 1.9058677354,
				"element": "H" 
			},
			{
				"x": 0.8053541726,
				"y": 1.7863325218,
				"z": 2.4822046916,
				"element": "H" 
			},
			{
				"x": 2.3102095661,
				"y": 2.707930894,
				"z": 2.5038795019,
				"element": "H" 
			},
			{
				"x": 0.41006573,
				"y": 4.245401778,
				"z": -0.3361015207,
				"element": "H" 
			},
			{
				"x": 1.1070067673,
				"y": 4.539439619,
				"z": 1.2587333356,
				"element": "H" 
			},
			{
				"x": -0.3719689491,
				"y": 3.5654787498,
				"z": 1.1046271787,
				"element": "H" 
			},
			{
				"x": 4.4541507429,
				"y": 2.1706378637,
				"z": -0.5533366412,
				"element": "H" 
			},
			{
				"x": 0.3246776681,
				"y": -0.0056228386,
				"z": 1.1760827958,
				"element": "H" 
			},
			{
				"x": -2.2264821273,
				"y": -2.9998445649,
				"z": -2.9976366423,
				"element": "H" 
			},
			{
				"x": -0.5316974159,
				"y": -3.0295153293,
				"z": -2.4396697817,
				"element": "H" 
			},
			{
				"x": -2.9075864751,
				"y": -1.9213028709,
				"z": -0.8479315642,
				"element": "H" 
			},
			{
				"x": -2.0515606718,
				"y": -3.4477877303,
				"z": -0.4995894596,
				"element": "H" 
			},
			{
				"x": -0.3570903834,
				"y": 1.1036444155,
				"z": -3.6012858956,
				"element": "H" 
			},
			{
				"x": 0.8572583442,
				"y": 2.7044590745,
				"z": -2.141615831,
				"element": "H" 
			}
		],
		 "valence_orbital": [ 
			{
				"type": "occ",
				"energy": -0.30888,
				"method": "rhf"
			},
			{
				"type": "occ",
				"energy": -0.30261,
				"method": "rhf"
			},
			{
				"type": "occ",
				"energy": -0.26855,
				"method": "rhf"
			},
			{
				"type": "occ",
				"energy": -0.23346,
				"method": "rhf"
			},
			{
				"type": "occ",
				"energy": -0.2079,
				"method": "rhf"
			},
			{
				"type": "unocc",
				"energy": -0.00392,
				"method": "rhf"
			},
			{
				"type": "unocc",
				"energy": 0.00903,
				"method": "rhf"
			},
			{
				"type": "unocc",
				"energy": 0.02536,
				"method": "rhf"
			},
			{
				"type": "unocc",
				"energy": 0.07876,
				"method": "rhf"
			},
			{
				"type": "unocc",
				"energy": 0.08579,
				"method": "rhf"
			}
		],
		"cosmo_sigma_profile": { 
			"-0.025": 0.0,
			"-0.024": 0.0,
			"-0.023": 0.0,
			"-0.022": 0.0,
			"-0.021": 0.0,
			"-0.02": 0.0,
			"-0.019": 0.00429558115791,
			"-0.018": 0.545480659086,
			"-0.017": 1.10694835663,
			"-0.016": 0.685848727631,
			"-0.015": 0.667440005674,
			"-0.014": 1.16758398367,
			"-0.013": 0.489366604452,
			"-0.012": 0.450563998182,
			"-0.011": 0.701914664604,
			"-0.01": 0.629597429143,
			"-0.009": 0.628597944897,
			"-0.008": 0.870045820472,
			"-0.007": 6.49848127878,
			"-0.006": 13.3812616583,
			"-0.005": 19.0683837732,
			"-0.004": 21.4210053395,
			"-0.003": 23.4124564531,
			"-0.002": 16.4847751647,
			"-0.001": 18.0958196225,
			"0.0": 20.8444464199,
			"0.001": 15.9452332301,
			"0.002": 11.0719648876,
			"0.003": 13.3098743854,
			"0.004": 15.5461806803,
			"0.005": 14.10687981,
			"0.006": 7.05104323177,
			"0.007": 5.24453086985,
			"0.008": 5.85144960473,
			"0.009": 5.26758076186,
			"0.01": 4.32689084585,
			"0.011": 4.47948786054,
			"0.012": 4.18640481958,
			"0.013": 0.326664490986,
			"0.014": 0.0,
			"0.015": 0.0,
			"0.016": 0.0,
			"0.017": 0.0,
			"0.018": 0.0,
			"0.019": 0.0,
			"0.02": 0.0,
			"0.021": 0.0,
			"0.022": 0.0,
			"0.023": 0.0,
			"0.024": 0.0,
			"0.025": 0.0
		}
	}
}
