{
	 "smiles": "C[C@@H](O)C1OC(=O)[C@H](C)[C@@H](O[C@@H]2O[C@H](C)C[C@@H]([C@H]2O)N(C)C)[C@@H](C)C[C@@H](C)C(=O)C=C[C@H]1C", 
	 "Tm": 430.15, 
	 "num_atms": 76, 
	 "gaussian": { 
		 "optdone": 1, 
		 "sigma_profile": "yes", 
		 "theory": "DFT", 
		 "functional": "B3LYP", 
		 "basiset": "6-31G**", 
		 "properties": { 
			 "R2extent": 15652.641, 
			 "electric_dipole_moment_norm": 6.37530348297, 
			 "electric_quadrupole_moment_norm": 26.0110098754, 
			 "total_energy": -1559.84541095, 
			 "HOMO_LUMO_gap": 0.16841, 
			 "cosmo_polarized_energy": -22.26, 
			 "cosmo_cavitation_energy": 66.92, 
			 "cosmo_dispersion_energy": -41.01, 
			 "cosmo_repulsion_energy": 3.01, 
			 "cosmo_total_nonelectrostatic_energy": 28.91, 
			 "SMD_solvation_energy": 10.79 
		},
		"coords": [
			{
				"x": -1.4213457924,
				"y": -3.6961741982,
				"z": -0.6550770367,
				"element": "C" 
			},
			{
				"x": -0.0382976203,
				"y": -4.2146742333,
				"z": -1.0492451445,
				"element": "C" 
			},
			{
				"x": -0.0894873698,
				"y": -4.9746462799,
				"z": -2.2627531485,
				"element": "O" 
			},
			{
				"x": 0.9804606115,
				"y": -3.0723767746,
				"z": -1.269722404,
				"element": "C" 
			},
			{
				"x": 1.0148029241,
				"y": -2.0533657353,
				"z": -0.2459266493,
				"element": "O" 
			},
			{
				"x": 1.0541485772,
				"y": -2.2807410885,
				"z": 1.0823848687,
				"element": "C" 
			},
			{
				"x": 0.8541110316,
				"y": -3.3561916949,
				"z": 1.6063055722,
				"element": "O" 
			},
			{
				"x": 1.4031745358,
				"y": -1.0036876182,
				"z": 1.8653604801,
				"element": "C" 
			},
			{
				"x": 0.4910734903,
				"y": -0.9071964358,
				"z": 3.1018025236,
				"element": "C" 
			},
			{
				"x": 1.4430454757,
				"y": 0.2571791572,
				"z": 0.9683626674,
				"element": "C" 
			},
			{
				"x": 0.0907167031,
				"y": 0.7540168109,
				"z": 0.9009900485,
				"element": "O" 
			},
			{
				"x": -0.3286012357,
				"y": 1.2649287741,
				"z": -0.3453995416,
				"element": "C" 
			},
			{
				"x": -0.1589243689,
				"y": 2.6668501637,
				"z": -0.4518602607,
				"element": "O" 
			},
			{
				"x": -1.0706885308,
				"y": 3.5395393575,
				"z": 0.249408419,
				"element": "C" 
			},
			{
				"x": -0.5705116848,
				"y": 3.8719550469,
				"z": 1.6541468775,
				"element": "C" 
			},
			{
				"x": -2.5196002828,
				"y": 2.998453679,
				"z": 0.2473205285,
				"element": "C" 
			},
			{
				"x": -2.6859530072,
				"y": 2.0021757079,
				"z": -0.9091662112,
				"element": "C" 
			},
			{
				"x": -1.78407464,
				"y": 0.8026341792,
				"z": -0.6065964672,
				"element": "C" 
			},
			{
				"x": -1.7902804535,
				"y": -0.1065545624,
				"z": -1.6979224204,
				"element": "O" 
			},
			{
				"x": -4.0416672189,
				"y": 1.5324605391,
				"z": -1.2456167577,
				"element": "N" 
			},
			{
				"x": -4.7817942751,
				"y": 2.4707289318,
				"z": -2.0842007928,
				"element": "C" 
			},
			{
				"x": -4.8497755555,
				"y": 1.0955510417,
				"z": -0.1077084447,
				"element": "C" 
			},
			{
				"x": 2.4751558287,
				"y": 1.3695987484,
				"z": 1.3175441496,
				"element": "C" 
			},
			{
				"x": 2.7246090799,
				"y": 1.6213462742,
				"z": 2.8120320006,
				"element": "C" 
			},
			{
				"x": 3.7667138559,
				"y": 1.2751380398,
				"z": 0.4484466094,
				"element": "C" 
			},
			{
				"x": 4.7956058315,
				"y": 0.1011672641,
				"z": 0.5381980579,
				"element": "C" 
			},
			{
				"x": 5.5040306105,
				"y": -0.0264424987,
				"z": 1.8916591691,
				"element": "C" 
			},
			{
				"x": 4.2374586544,
				"y": -1.2572360988,
				"z": 0.0780818278,
				"element": "C" 
			},
			{
				"x": 4.0713671593,
				"y": -2.1595369215,
				"z": 0.8897937335,
				"element": "O" 
			},
			{
				"x": 3.9513442741,
				"y": -1.3944892825,
				"z": -1.3764731985,
				"element": "C" 
			},
			{
				"x": 3.238427169,
				"y": -2.3246613471,
				"z": -2.0485761704,
				"element": "C" 
			},
			{
				"x": 2.4199748291,
				"y": -3.5399994971,
				"z": -1.6386586866,
				"element": "C" 
			},
			{
				"x": 3.0740093328,
				"y": -4.5250275981,
				"z": -0.6540932789,
				"element": "C" 
			},
			{
				"x": -2.1446022662,
				"y": -4.5122576118,
				"z": -0.7460250864,
				"element": "H" 
			},
			{
				"x": -1.4259548724,
				"y": -3.3492226427,
				"z": 0.3798285418,
				"element": "H" 
			},
			{
				"x": -1.736328247,
				"y": -2.8603073089,
				"z": -1.2919791277,
				"element": "H" 
			},
			{
				"x": 0.3228901325,
				"y": -4.9060980752,
				"z": -0.2884121012,
				"element": "H" 
			},
			{
				"x": -0.5899687741,
				"y": -4.4566568835,
				"z": -2.9089240443,
				"element": "H" 
			},
			{
				"x": 0.59951252,
				"y": -2.5004651663,
				"z": -2.1261867099,
				"element": "H" 
			},
			{
				"x": 2.421746956,
				"y": -1.2075369162,
				"z": 2.2128754516,
				"element": "H" 
			},
			{
				"x": 0.5001040265,
				"y": -1.8635294752,
				"z": 3.6283469694,
				"element": "H" 
			},
			{
				"x": 0.8325465879,
				"y": -0.1287313949,
				"z": 3.7866381378,
				"element": "H" 
			},
			{
				"x": -0.5351011718,
				"y": -0.676221982,
				"z": 2.809564047,
				"element": "H" 
			},
			{
				"x": 1.7023929376,
				"y": -0.0710764105,
				"z": -0.0389368656,
				"element": "H" 
			},
			{
				"x": 0.2942171174,
				"y": 0.8573827342,
				"z": -1.1492777563,
				"element": "H" 
			},
			{
				"x": -1.0439413092,
				"y": 4.4516972806,
				"z": -0.3592657696,
				"element": "H" 
			},
			{
				"x": -0.5491102941,
				"y": 2.9728755918,
				"z": 2.2751018585,
				"element": "H" 
			},
			{
				"x": 0.4389261621,
				"y": 4.2916717371,
				"z": 1.6144313224,
				"element": "H" 
			},
			{
				"x": -1.2295827871,
				"y": 4.610174578,
				"z": 2.1258232007,
				"element": "H" 
			},
			{
				"x": -2.7338820729,
				"y": 2.4955497463,
				"z": 1.1988847266,
				"element": "H" 
			},
			{
				"x": -3.2181302968,
				"y": 3.8384979805,
				"z": 0.1669807234,
				"element": "H" 
			},
			{
				"x": -2.2944651389,
				"y": 2.4622759606,
				"z": -1.8242932948,
				"element": "H" 
			},
			{
				"x": -2.131770422,
				"y": 0.3043302299,
				"z": 0.3108185262,
				"element": "H" 
			},
			{
				"x": -2.7111909385,
				"y": -0.0790610075,
				"z": -2.0128397492,
				"element": "H" 
			},
			{
				"x": -5.7132196294,
				"y": 2.0028113047,
				"z": -2.4198342652,
				"element": "H" 
			},
			{
				"x": -5.0487166801,
				"y": 3.4104387626,
				"z": -1.5676471419,
				"element": "H" 
			},
			{
				"x": -4.1915001328,
				"y": 2.7241981692,
				"z": -2.9697004621,
				"element": "H" 
			},
			{
				"x": -5.7535113885,
				"y": 0.602180991,
				"z": -0.4795573106,
				"element": "H" 
			},
			{
				"x": -4.3012697351,
				"y": 0.37000298,
				"z": 0.497916307,
				"element": "H" 
			},
			{
				"x": -5.1658276147,
				"y": 1.9231094913,
				"z": 0.5506654176,
				"element": "H" 
			},
			{
				"x": 2.0004539219,
				"y": 2.2790960078,
				"z": 0.9314760555,
				"element": "H" 
			},
			{
				"x": 3.4494429918,
				"y": 2.4317357398,
				"z": 2.947363232,
				"element": "H" 
			},
			{
				"x": 1.7984600379,
				"y": 1.9253958029,
				"z": 3.3093810089,
				"element": "H" 
			},
			{
				"x": 3.1125743831,
				"y": 0.7454856803,
				"z": 3.3378625418,
				"element": "H" 
			},
			{
				"x": 4.3440402994,
				"y": 2.188690311,
				"z": 0.6410779494,
				"element": "H" 
			},
			{
				"x": 3.4457341586,
				"y": 1.3477516372,
				"z": -0.5988222327,
				"element": "H" 
			},
			{
				"x": 5.5557127899,
				"y": 0.3704609273,
				"z": -0.2112862129,
				"element": "H" 
			},
			{
				"x": 5.8646118957,
				"y": 0.9497059165,
				"z": 2.2303991436,
				"element": "H" 
			},
			{
				"x": 6.3630754432,
				"y": -0.6994329543,
				"z": 1.8127744297,
				"element": "H" 
			},
			{
				"x": 4.8463503411,
				"y": -0.4407978071,
				"z": 2.6568107411,
				"element": "H" 
			},
			{
				"x": 4.3719854944,
				"y": -0.5932990682,
				"z": -1.9831056814,
				"element": "H" 
			},
			{
				"x": 3.1853028756,
				"y": -2.1351607071,
				"z": -3.1223214991,
				"element": "H" 
			},
			{
				"x": 2.2560521993,
				"y": -4.101113917,
				"z": -2.5661301825,
				"element": "H" 
			},
			{
				"x": 2.5126605818,
				"y": -5.4637529468,
				"z": -0.6522989382,
				"element": "H" 
			},
			{
				"x": 4.0922664547,
				"y": -4.7505343857,
				"z": -0.986687068,
				"element": "H" 
			},
			{
				"x": 3.1327855246,
				"y": -4.1369847501,
				"z": 0.3584702475,
				"element": "H" 
			}
		],
		 "valence_orbital": [ 
			{
				"type": "occ",
				"energy": -0.25774,
				"method": "rhf"
			},
			{
				"type": "occ",
				"energy": -0.25521,
				"method": "rhf"
			},
			{
				"type": "occ",
				"energy": -0.24513,
				"method": "rhf"
			},
			{
				"type": "occ",
				"energy": -0.23917,
				"method": "rhf"
			},
			{
				"type": "occ",
				"energy": -0.2259,
				"method": "rhf"
			},
			{
				"type": "unocc",
				"energy": -0.05749,
				"method": "rhf"
			},
			{
				"type": "unocc",
				"energy": 0.02259,
				"method": "rhf"
			},
			{
				"type": "unocc",
				"energy": 0.05467,
				"method": "rhf"
			},
			{
				"type": "unocc",
				"energy": 0.06645,
				"method": "rhf"
			},
			{
				"type": "unocc",
				"energy": 0.07008,
				"method": "rhf"
			}
		],
		"cosmo_sigma_profile": { 
			"-0.025": 0.0,
			"-0.024": 0.0,
			"-0.023": 0.0,
			"-0.022": 0.0,
			"-0.021": 0.0,
			"-0.02": 0.0,
			"-0.019": 0.0,
			"-0.018": 0.0,
			"-0.017": 0.0,
			"-0.016": 0.0432955801551,
			"-0.015": 1.05404916987,
			"-0.014": 0.752763530554,
			"-0.013": 1.23620980974,
			"-0.012": 1.128640704,
			"-0.011": 1.04814203725,
			"-0.01": 0.977508853046,
			"-0.009": 1.47654888994,
			"-0.008": 1.66680540851,
			"-0.007": 2.1633450105,
			"-0.006": 10.565669114,
			"-0.005": 18.4466731929,
			"-0.004": 34.6819998257,
			"-0.003": 60.428055182,
			"-0.002": 71.5486286338,
			"-0.001": 67.9065103878,
			"0.0": 60.0123858984,
			"0.001": 44.803536652,
			"0.002": 29.3829658296,
			"0.003": 17.2017181397,
			"0.004": 14.4960420068,
			"0.005": 14.3337881622,
			"0.006": 12.6002206688,
			"0.007": 11.8626242352,
			"0.008": 6.74178267815,
			"0.009": 5.39218730715,
			"0.01": 5.81321097146,
			"0.011": 5.44673983068,
			"0.012": 7.04350635938,
			"0.013": 3.29104861272,
			"0.014": 1.54461259441,
			"0.015": 0.103525728747,
			"0.016": 0.0,
			"0.017": 0.0,
			"0.018": 0.0,
			"0.019": 0.0,
			"0.02": 0.0,
			"0.021": 0.0,
			"0.022": 0.0,
			"0.023": 0.0,
			"0.024": 0.0,
			"0.025": 0.0
		}
	}
}
