{
	 "smiles": "CCOC(=O)C1=CC2=C(S1)SC1=C(C2C2=CC=CC=C2)C(N)=C(N1)C(=O)OCC", 
	 "Tm": 406.15, 
	 "num_atms": 49, 
	 "gaussian": { 
		 "optdone": 1, 
		 "sigma_profile": "yes", 
		 "theory": "DFT", 
		 "functional": "B3LYP", 
		 "basiset": "6-31G**", 
		 "properties": { 
			 "R2extent": 17952.734, 
			 "electric_dipole_moment_norm": 5.33088641222, 
			 "electric_quadrupole_moment_norm": 11.2614580703, 
			 "total_energy": -2019.08790848, 
			 "HOMO_LUMO_gap": 0.13629, 
			 "cosmo_polarized_energy": -18.83, 
			 "cosmo_cavitation_energy": 56.48, 
			 "cosmo_dispersion_energy": -39.34, 
			 "cosmo_repulsion_energy": 2.96, 
			 "cosmo_total_nonelectrostatic_energy": 20.1, 
			 "SMD_solvation_energy": 10.07 
		},
		"coords": [
			{
				"x": 2.3533284088,
				"y": 1.1589388261,
				"z": -6.4197283291,
				"element": "C" 
			},
			{
				"x": 3.3785146887,
				"y": 1.6461851354,
				"z": -5.4137936795,
				"element": "C" 
			},
			{
				"x": 2.7945782774,
				"y": 1.5064517457,
				"z": -4.0981134258,
				"element": "O" 
			},
			{
				"x": 3.5779541317,
				"y": 1.8979328471,
				"z": -3.0684352977,
				"element": "C" 
			},
			{
				"x": 4.7032960563,
				"y": 2.345574601,
				"z": -3.1987287209,
				"element": "O" 
			},
			{
				"x": 2.9071107898,
				"y": 1.71919394,
				"z": -1.7757487576,
				"element": "C" 
			},
			{
				"x": 1.6619569597,
				"y": 1.2223382066,
				"z": -1.4884249104,
				"element": "C" 
			},
			{
				"x": 1.3533750862,
				"y": 1.1937034521,
				"z": -0.0967153027,
				"element": "C" 
			},
			{
				"x": 2.4058481034,
				"y": 1.6862198984,
				"z": 0.6502336126,
				"element": "C" 
			},
			{
				"x": 3.7617727846,
				"y": 2.1820003061,
				"z": -0.324604636,
				"element": "S" 
			},
			{
				"x": 2.5246639743,
				"y": 1.8585668289,
				"z": 2.4037480399,
				"element": "S" 
			},
			{
				"x": 0.8703575391,
				"y": 1.3906715172,
				"z": 2.7813633778,
				"element": "C" 
			},
			{
				"x": -0.1038780414,
				"y": 0.8979813991,
				"z": 1.9230177418,
				"element": "C" 
			},
			{
				"x": 0.024867884,
				"y": 0.6770409879,
				"z": 0.4380156866,
				"element": "C" 
			},
			{
				"x": -0.1970846652,
				"y": -0.7899386691,
				"z": 0.0406815247,
				"element": "C" 
			},
			{
				"x": 0.6077034864,
				"y": -1.8076145223,
				"z": 0.5727002253,
				"element": "C" 
			},
			{
				"x": 0.4075443225,
				"y": -3.1361669833,
				"z": 0.204065425,
				"element": "C" 
			},
			{
				"x": -0.6047658156,
				"y": -3.4722880153,
				"z": -0.7006372643,
				"element": "C" 
			},
			{
				"x": -1.4133698845,
				"y": -2.469509967,
				"z": -1.2332251758,
				"element": "C" 
			},
			{
				"x": -1.2081189414,
				"y": -1.1359552226,
				"z": -0.8640364792,
				"element": "C" 
			},
			{
				"x": -1.2697095284,
				"y": 0.6821452398,
				"z": 2.7191419482,
				"element": "C" 
			},
			{
				"x": -2.4969546328,
				"y": 0.2544172468,
				"z": 2.2429624261,
				"element": "N" 
			},
			{
				"x": -0.9543527469,
				"y": 1.0469695701,
				"z": 4.0328869838,
				"element": "C" 
			},
			{
				"x": 0.3688721094,
				"y": 1.4849402612,
				"z": 4.0367717258,
				"element": "N" 
			},
			{
				"x": -1.6779843231,
				"y": 1.0287537699,
				"z": 5.2786024508,
				"element": "C" 
			},
			{
				"x": -1.2118500138,
				"y": 1.3831823375,
				"z": 6.3533380865,
				"element": "O" 
			},
			{
				"x": -2.9541459096,
				"y": 0.5640951691,
				"z": 5.1326714406,
				"element": "O" 
			},
			{
				"x": -3.7399894723,
				"y": 0.5166050302,
				"z": 6.3433130407,
				"element": "C" 
			},
			{
				"x": -5.1153609832,
				"y": -0.0084163621,
				"z": 5.976413257,
				"element": "C" 
			},
			{
				"x": 2.0979693945,
				"y": 0.110357844,
				"z": -6.2416732559,
				"element": "H" 
			},
			{
				"x": 2.757596392,
				"y": 1.2474759162,
				"z": -7.4328887099,
				"element": "H" 
			},
			{
				"x": 1.4361008073,
				"y": 1.7521574716,
				"z": -6.3625765271,
				"element": "H" 
			},
			{
				"x": 4.3039415988,
				"y": 1.0629602743,
				"z": -5.4530961585,
				"element": "H" 
			},
			{
				"x": 3.6449851065,
				"y": 2.6959473869,
				"z": -5.5722149017,
				"element": "H" 
			},
			{
				"x": 0.9840681549,
				"y": 0.8735963006,
				"z": -2.2584332797,
				"element": "H" 
			},
			{
				"x": -0.7707978692,
				"y": 1.2521534451,
				"z": -0.0599352045,
				"element": "H" 
			},
			{
				"x": 1.3916249682,
				"y": -1.5521594865,
				"z": 1.2802153438,
				"element": "H" 
			},
			{
				"x": 1.0408635203,
				"y": -3.9128661405,
				"z": 0.6234130819,
				"element": "H" 
			},
			{
				"x": -0.7602032691,
				"y": -4.508847389,
				"z": -0.9852841105,
				"element": "H" 
			},
			{
				"x": -2.2031808109,
				"y": -2.719415921,
				"z": -1.9361042311,
				"element": "H" 
			},
			{
				"x": -1.8389276672,
				"y": -0.3558433518,
				"z": -1.2852253199,
				"element": "H" 
			},
			{
				"x": -3.1441162855,
				"y": -0.0052859391,
				"z": 2.9761462174,
				"element": "H" 
			},
			{
				"x": -2.4447197956,
				"y": -0.4242976799,
				"z": 1.4938902115,
				"element": "H" 
			},
			{
				"x": 0.8221728076,
				"y": 1.8194731506,
				"z": 4.8736515607,
				"element": "H" 
			},
			{
				"x": -3.7873718718,
				"y": 1.5213946282,
				"z": 6.7745184321,
				"element": "H" 
			},
			{
				"x": -3.2358351646,
				"y": -0.1283146828,
				"z": 7.0700815896,
				"element": "H" 
			},
			{
				"x": -5.6031077893,
				"y": 0.6460614946,
				"z": 5.2478858072,
				"element": "H" 
			},
			{
				"x": -5.7454562214,
				"y": -0.0559620848,
				"z": 6.8700071922,
				"element": "H" 
			},
			{
				"x": -5.0511856499,
				"y": -1.0144038113,
				"z": 5.5504872485,
				"element": "H" 
			}
		],
		 "valence_orbital": [ 
			{
				"type": "occ",
				"energy": -0.2596,
				"method": "rhf"
			},
			{
				"type": "occ",
				"energy": -0.25122,
				"method": "rhf"
			},
			{
				"type": "occ",
				"energy": -0.23827,
				"method": "rhf"
			},
			{
				"type": "occ",
				"energy": -0.21372,
				"method": "rhf"
			},
			{
				"type": "occ",
				"energy": -0.1913,
				"method": "rhf"
			},
			{
				"type": "unocc",
				"energy": -0.05501,
				"method": "rhf"
			},
			{
				"type": "unocc",
				"energy": -0.02026,
				"method": "rhf"
			},
			{
				"type": "unocc",
				"energy": -0.0133,
				"method": "rhf"
			},
			{
				"type": "unocc",
				"energy": -0.00953,
				"method": "rhf"
			},
			{
				"type": "unocc",
				"energy": -0.00185,
				"method": "rhf"
			}
		],
		"cosmo_sigma_profile": { 
			"-0.025": 0.0,
			"-0.024": 0.0,
			"-0.023": 0.0,
			"-0.022": 0.0,
			"-0.021": 0.0,
			"-0.02": 0.0,
			"-0.019": 0.0,
			"-0.018": 0.0,
			"-0.017": 0.0,
			"-0.016": 0.415057122023,
			"-0.015": 1.18144463514,
			"-0.014": 0.697118157341,
			"-0.013": 1.34457627221,
			"-0.012": 1.02848868831,
			"-0.011": 0.63620890096,
			"-0.01": 0.735648994731,
			"-0.009": 3.17664894837,
			"-0.008": 2.448106299,
			"-0.007": 3.51961655781,
			"-0.006": 13.7797610796,
			"-0.005": 28.0634267513,
			"-0.004": 43.1740695975,
			"-0.003": 44.6964666738,
			"-0.002": 36.4436329229,
			"-0.001": 39.2022827927,
			"0.0": 39.5897122679,
			"0.001": 42.3159947115,
			"0.002": 38.0491771132,
			"0.003": 30.2379496601,
			"0.004": 24.9717183334,
			"0.005": 16.1254321489,
			"0.006": 7.71387837491,
			"0.007": 3.73200878734,
			"0.008": 3.55344893865,
			"0.009": 3.42800356184,
			"0.01": 4.36933693359,
			"0.011": 5.61577850535,
			"0.012": 7.38782309134,
			"0.013": 5.09104556145,
			"0.014": 0.566360103582,
			"0.015": 0.0186888741674,
			"0.016": 0.0,
			"0.017": 0.0,
			"0.018": 0.0,
			"0.019": 0.0,
			"0.02": 0.0,
			"0.021": 0.0,
			"0.022": 0.0,
			"0.023": 0.0,
			"0.024": 0.0,
			"0.025": 0.0
		}
	}
}
