{
	 "smiles": "NC1=C(C=C(F)C=C1)N1C=CC=C1", 
	 "Tm": 358.15, 
	 "num_atms": 22, 
	 "gaussian": { 
		 "optdone": 1, 
		 "sigma_profile": "yes", 
		 "theory": "DFT", 
		 "functional": "B3LYP", 
		 "basiset": "6-31G**", 
		 "properties": { 
			 "R2extent": 2814.3339, 
			 "electric_dipole_moment_norm": 2.56748313334, 
			 "electric_quadrupole_moment_norm": 7.49231651093, 
			 "total_energy": -595.810036378, 
			 "HOMO_LUMO_gap": 0.18617, 
			 "cosmo_polarized_energy": -8.61, 
			 "cosmo_cavitation_energy": 26.3, 
			 "cosmo_dispersion_energy": -19.09, 
			 "cosmo_repulsion_energy": 1.47, 
			 "cosmo_total_nonelectrostatic_energy": 8.69, 
			 "SMD_solvation_energy": 5.74 
		},
		"coords": [
			{
				"x": 0.3653906232,
				"y": 0.1392459264,
				"z": 1.8974761435,
				"element": "N" 
			},
			{
				"x": -0.1106052525,
				"y": -0.9431892273,
				"z": 1.1543921832,
				"element": "C" 
			},
			{
				"x": -0.6618489713,
				"y": -0.766567842,
				"z": -0.1357742605,
				"element": "C" 
			},
			{
				"x": -1.1033912076,
				"y": -1.8662768967,
				"z": -0.8776330933,
				"element": "C" 
			},
			{
				"x": -1.0034203451,
				"y": -3.1402799915,
				"z": -0.3384912061,
				"element": "C" 
			},
			{
				"x": -1.436815119,
				"y": -4.197032686,
				"z": -1.062861692,
				"element": "F" 
			},
			{
				"x": -0.4573686608,
				"y": -3.3510473047,
				"z": 0.9211935622,
				"element": "C" 
			},
			{
				"x": -0.0131659507,
				"y": -2.2529707949,
				"z": 1.6531606312,
				"element": "C" 
			},
			{
				"x": -0.8063010078,
				"y": 0.5405945121,
				"z": -0.6819334001,
				"element": "N" 
			},
			{
				"x": 0.2036154052,
				"y": 1.4784416665,
				"z": -0.8429610524,
				"element": "C" 
			},
			{
				"x": -0.3284403716,
				"y": 2.577751765,
				"z": -1.4771333561,
				"element": "C" 
			},
			{
				"x": -1.7072093691,
				"y": 2.3078078513,
				"z": -1.718931828,
				"element": "C" 
			},
			{
				"x": -1.972260014,
				"y": 1.0506135959,
				"z": -1.2274687893,
				"element": "C" 
			},
			{
				"x": -0.0403535723,
				"y": 1.0330554755,
				"z": 1.6506811932,
				"element": "H" 
			},
			{
				"x": 0.374370993,
				"y": -0.0139827698,
				"z": 2.8966568378,
				"element": "H" 
			},
			{
				"x": -1.5099358108,
				"y": -1.7251318968,
				"z": -1.8724193404,
				"element": "H" 
			},
			{
				"x": -0.3852366183,
				"y": -4.358006212,
				"z": 1.3171452353,
				"element": "H" 
			},
			{
				"x": 0.4122519296,
				"y": -2.4062037704,
				"z": 2.6413250264,
				"element": "H" 
			},
			{
				"x": 1.2081891449,
				"y": 1.2600844112,
				"z": -0.5144513975,
				"element": "H" 
			},
			{
				"x": 0.2141726185,
				"y": 3.4742618498,
				"z": -1.7431259239,
				"element": "H" 
			},
			{
				"x": -2.424964478,
				"y": 2.9650918166,
				"z": -2.1895247989,
				"element": "H" 
			},
			{
				"x": -2.8869739657,
				"y": 0.4786405218,
				"z": -1.1859206744,
				"element": "H" 
			}
		],
		 "valence_orbital": [ 
			{
				"type": "occ",
				"energy": -0.30859,
				"method": "rhf"
			},
			{
				"type": "occ",
				"energy": -0.27229,
				"method": "rhf"
			},
			{
				"type": "occ",
				"energy": -0.23445,
				"method": "rhf"
			},
			{
				"type": "occ",
				"energy": -0.2113,
				"method": "rhf"
			},
			{
				"type": "occ",
				"energy": -0.20349,
				"method": "rhf"
			},
			{
				"type": "unocc",
				"energy": -0.01732,
				"method": "rhf"
			},
			{
				"type": "unocc",
				"energy": 0.01103,
				"method": "rhf"
			},
			{
				"type": "unocc",
				"energy": 0.04173,
				"method": "rhf"
			},
			{
				"type": "unocc",
				"energy": 0.07566,
				"method": "rhf"
			},
			{
				"type": "unocc",
				"energy": 0.09213,
				"method": "rhf"
			}
		],
		"cosmo_sigma_profile": { 
			"-0.025": 0.0,
			"-0.024": 0.0,
			"-0.023": 0.0,
			"-0.022": 0.0,
			"-0.021": 0.0,
			"-0.02": 0.0,
			"-0.019": 0.0,
			"-0.018": 0.0,
			"-0.017": 0.0,
			"-0.016": 0.0,
			"-0.015": 0.0,
			"-0.014": 0.0,
			"-0.013": 0.555535553383,
			"-0.012": 1.63005196158,
			"-0.011": 1.5116361283,
			"-0.01": 3.06395677443,
			"-0.009": 2.5500563326,
			"-0.008": 3.04706270143,
			"-0.007": 7.24577785493,
			"-0.006": 9.88682064715,
			"-0.005": 12.987052076,
			"-0.004": 12.9654259006,
			"-0.003": 10.6005189414,
			"-0.002": 12.7569980459,
			"-0.001": 11.754524536,
			"0.0": 14.0429785465,
			"0.001": 14.6287566722,
			"0.002": 18.2028783738,
			"0.003": 17.3224108143,
			"0.004": 19.6061082057,
			"0.005": 16.6633374701,
			"0.006": 5.53656115946,
			"0.007": 5.54356128189,
			"0.008": 4.99629950944,
			"0.009": 1.38409539277,
			"0.01": 0.421136915317,
			"0.011": 0.668397986229,
			"0.012": 0.628745487251,
			"0.013": 0.404728403786,
			"0.014": 0.0757595035259,
			"0.015": 0.0,
			"0.016": 0.0,
			"0.017": 0.0,
			"0.018": 0.0,
			"0.019": 0.0,
			"0.02": 0.0,
			"0.021": 0.0,
			"0.022": 0.0,
			"0.023": 0.0,
			"0.024": 0.0,
			"0.025": 0.0
		}
	}
}
