{
	 "smiles": "COC(=O)C1=CN=CC(C)=C1", 
	 "Tm": 317.15, 
	 "num_atms": 20, 
	 "gaussian": { 
		 "optdone": 1, 
		 "sigma_profile": "yes", 
		 "theory": "DFT", 
		 "functional": "B3LYP", 
		 "basiset": "6-31G**", 
		 "properties": { 
			 "R2extent": 2616.005, 
			 "electric_dipole_moment_norm": 3.95188977832, 
			 "electric_quadrupole_moment_norm": 10.5549948659, 
			 "total_energy": -515.484725836, 
			 "HOMO_LUMO_gap": 0.20164, 
			 "cosmo_polarized_energy": -9.37, 
			 "cosmo_cavitation_energy": 24.48, 
			 "cosmo_dispersion_energy": -17.95, 
			 "cosmo_repulsion_energy": 1.44, 
			 "cosmo_total_nonelectrostatic_energy": 7.97, 
			 "SMD_solvation_energy": 4.56 
		},
		"coords": [
			{
				"x": -2.6158639009,
				"y": -0.3328292206,
				"z": -4.1473587469,
				"element": "C" 
			},
			{
				"x": -1.9145875653,
				"y": -0.0231656656,
				"z": -2.9325253022,
				"element": "O" 
			},
			{
				"x": -2.1390637861,
				"y": -0.8754200426,
				"z": -1.9057733176,
				"element": "C" 
			},
			{
				"x": -2.8767892316,
				"y": -1.8373757494,
				"z": -1.9880037937,
				"element": "O" 
			},
			{
				"x": -1.3824914137,
				"y": -0.4957482441,
				"z": -0.6808895363,
				"element": "C" 
			},
			{
				"x": -1.5210049915,
				"y": -1.2948962224,
				"z": 0.4632036865,
				"element": "C" 
			},
			{
				"x": -0.8884581817,
				"y": -1.0434167497,
				"z": 1.6105683737,
				"element": "N" 
			},
			{
				"x": -0.0874534329,
				"y": 0.0295721884,
				"z": 1.6489773611,
				"element": "C" 
			},
			{
				"x": 0.1325548689,
				"y": 0.9027074714,
				"z": 0.5752432541,
				"element": "C" 
			},
			{
				"x": 1.0527697968,
				"y": 2.0910578333,
				"z": 0.7037313127,
				"element": "C" 
			},
			{
				"x": -0.541115404,
				"y": 0.6181259014,
				"z": -0.6158016458,
				"element": "C" 
			},
			{
				"x": -3.6960299647,
				"y": -0.3181367036,
				"z": -3.9821662212,
				"element": "H" 
			},
			{
				"x": -2.3261015482,
				"y": 0.4398106428,
				"z": -4.8593394534,
				"element": "H" 
			},
			{
				"x": -2.330015003,
				"y": -1.3214664833,
				"z": -4.5149643045,
				"element": "H" 
			},
			{
				"x": -2.1715631207,
				"y": -2.1647683134,
				"z": 0.429068918,
				"element": "H" 
			},
			{
				"x": 0.416580315,
				"y": 0.2112890129,
				"z": 2.5981548138,
				"element": "H" 
			},
			{
				"x": 1.488989778,
				"y": 2.1477318845,
				"z": 1.704732328,
				"element": "H" 
			},
			{
				"x": 0.5194022409,
				"y": 3.0298927979,
				"z": 0.5174285361,
				"element": "H" 
			},
			{
				"x": 1.8757836339,
				"y": 2.0374953403,
				"z": -0.0176051524,
				"element": "H" 
			},
			{
				"x": -0.4178430893,
				"y": 1.2517403218,
				"z": -1.4884811102,
				"element": "H" 
			}
		],
		 "valence_orbital": [ 
			{
				"type": "occ",
				"energy": -0.30673,
				"method": "rhf"
			},
			{
				"type": "occ",
				"energy": -0.28868,
				"method": "rhf"
			},
			{
				"type": "occ",
				"energy": -0.28157,
				"method": "rhf"
			},
			{
				"type": "occ",
				"energy": -0.26074,
				"method": "rhf"
			},
			{
				"type": "occ",
				"energy": -0.25521,
				"method": "rhf"
			},
			{
				"type": "unocc",
				"energy": -0.05357,
				"method": "rhf"
			},
			{
				"type": "unocc",
				"energy": -0.02508,
				"method": "rhf"
			},
			{
				"type": "unocc",
				"energy": 0.04903,
				"method": "rhf"
			},
			{
				"type": "unocc",
				"energy": 0.09684,
				"method": "rhf"
			},
			{
				"type": "unocc",
				"energy": 0.10901,
				"method": "rhf"
			}
		],
		"cosmo_sigma_profile": { 
			"-0.025": 0.0,
			"-0.024": 0.0,
			"-0.023": 0.0,
			"-0.022": 0.0,
			"-0.021": 0.0,
			"-0.02": 0.0,
			"-0.019": 0.0,
			"-0.018": 0.0,
			"-0.017": 0.0,
			"-0.016": 0.0,
			"-0.015": 0.0,
			"-0.014": 0.0,
			"-0.013": 0.0,
			"-0.012": 0.0,
			"-0.011": 0.0,
			"-0.01": 0.0,
			"-0.009": 0.0,
			"-0.008": 0.0,
			"-0.007": 2.46562939301,
			"-0.006": 10.5316088895,
			"-0.005": 16.4574116383,
			"-0.004": 20.2525284736,
			"-0.003": 20.3779736876,
			"-0.002": 17.465930829,
			"-0.001": 19.0927472485,
			"0.0": 20.7808573702,
			"0.001": 17.5946967051,
			"0.002": 7.50236571752,
			"0.003": 5.63089113479,
			"0.004": 5.50169021457,
			"0.005": 5.20469775465,
			"0.006": 3.00307794349,
			"0.007": 2.70265559229,
			"0.008": 3.08385997471,
			"0.009": 2.2811695906,
			"0.01": 2.77425978033,
			"0.011": 4.70492141215,
			"0.012": 4.21734258392,
			"0.013": 0.708029736007,
			"0.014": 1.0052830868,
			"0.015": 0.915718015211,
			"0.016": 0.680046515944,
			"0.017": 0.0965894901962,
			"0.018": 0.0,
			"0.019": 0.0,
			"0.02": 0.0,
			"0.021": 0.0,
			"0.022": 0.0,
			"0.023": 0.0,
			"0.024": 0.0,
			"0.025": 0.0
		}
	}
}
