{
	 "smiles": "O=CC1=C(N=C2SCCN12)C1=CC=CC=C1", 
	 "Tm": 401.15, 
	 "num_atms": 26, 
	 "gaussian": { 
		 "optdone": 1, 
		 "sigma_profile": "yes", 
		 "theory": "DFT", 
		 "functional": "B3LYP", 
		 "basiset": "6-31G**", 
		 "properties": { 
			 "R2extent": 5442.4483, 
			 "electric_dipole_moment_norm": 1.25572407797, 
			 "electric_quadrupole_moment_norm": 26.722314475, 
			 "total_energy": -1046.21204323, 
			 "HOMO_LUMO_gap": 0.15232, 
			 "cosmo_polarized_energy": -12.87, 
			 "cosmo_cavitation_energy": 31.44, 
			 "cosmo_dispersion_energy": -23.71, 
			 "cosmo_repulsion_energy": 1.78, 
			 "cosmo_total_nonelectrostatic_energy": 9.51, 
			 "SMD_solvation_energy": 3.61 
		},
		"coords": [
			{
				"x": -3.5566386204,
				"y": 2.5566556926,
				"z": -0.7096742449,
				"element": "O" 
			},
			{
				"x": -2.7555569362,
				"y": 1.6764115833,
				"z": -0.4067343576,
				"element": "C" 
			},
			{
				"x": -1.3446461832,
				"y": 1.7275523939,
				"z": -0.7179585537,
				"element": "C" 
			},
			{
				"x": -0.2795301826,
				"y": 0.8306005671,
				"z": -0.5153790368,
				"element": "C" 
			},
			{
				"x": 0.8509166273,
				"y": 1.2668354382,
				"z": -1.1689471417,
				"element": "N" 
			},
			{
				"x": 0.4907757693,
				"y": 2.4030174386,
				"z": -1.7342942887,
				"element": "C" 
			},
			{
				"x": 1.3702880042,
				"y": 3.6044288506,
				"z": -2.6745927572,
				"element": "S" 
			},
			{
				"x": -0.2519112955,
				"y": 4.4138362549,
				"z": -3.0952173567,
				"element": "C" 
			},
			{
				"x": -1.2523074684,
				"y": 4.0385614263,
				"z": -1.9827368407,
				"element": "C" 
			},
			{
				"x": -0.8030191972,
				"y": 2.7322646028,
				"z": -1.5160908006,
				"element": "N" 
			},
			{
				"x": -0.2573267422,
				"y": -0.4294322966,
				"z": 0.2403381067,
				"element": "C" 
			},
			{
				"x": -1.053651005,
				"y": -0.6309238381,
				"z": 1.3809829161,
				"element": "C" 
			},
			{
				"x": -1.0129253815,
				"y": -1.843033311,
				"z": 2.0688334602,
				"element": "C" 
			},
			{
				"x": -0.1668966547,
				"y": -2.8667028454,
				"z": 1.6388847462,
				"element": "C" 
			},
			{
				"x": 0.6473551823,
				"y": -2.667017787,
				"z": 0.5207143635,
				"element": "C" 
			},
			{
				"x": 0.6064529333,
				"y": -1.4597060746,
				"z": -0.171425169,
				"element": "C" 
			},
			{
				"x": -3.0848478303,
				"y": 0.7613158881,
				"z": 0.1198709568,
				"element": "H" 
			},
			{
				"x": -0.5796970702,
				"y": 4.0333228373,
				"z": -4.0652413058,
				"element": "H" 
			},
			{
				"x": -0.1008634625,
				"y": 5.491482721,
				"z": -3.1638336778,
				"element": "H" 
			},
			{
				"x": -2.2786353284,
				"y": 3.9797121583,
				"z": -2.3449004924,
				"element": "H" 
			},
			{
				"x": -1.2202854605,
				"y": 4.7550116531,
				"z": -1.1533147731,
				"element": "H" 
			},
			{
				"x": -1.6766413137,
				"y": 0.1756896636,
				"z": 1.7535377846,
				"element": "H" 
			},
			{
				"x": -1.6313803312,
				"y": -1.9807335977,
				"z": 2.951041782,
				"element": "H" 
			},
			{
				"x": -0.1332935173,
				"y": -3.8090664176,
				"z": 2.1778812942,
				"element": "H" 
			},
			{
				"x": 1.3154438507,
				"y": -3.4556877922,
				"z": 0.1866375134,
				"element": "H" 
			},
			{
				"x": 1.2370216141,
				"y": -1.2944952095,
				"z": -1.0382821268,
				"element": "H" 
			}
		],
		 "valence_orbital": [ 
			{
				"type": "occ",
				"energy": -0.28904,
				"method": "rhf"
			},
			{
				"type": "occ",
				"energy": -0.25813,
				"method": "rhf"
			},
			{
				"type": "occ",
				"energy": -0.25118,
				"method": "rhf"
			},
			{
				"type": "occ",
				"energy": -0.24931,
				"method": "rhf"
			},
			{
				"type": "occ",
				"energy": -0.21429,
				"method": "rhf"
			},
			{
				"type": "unocc",
				"energy": -0.06197,
				"method": "rhf"
			},
			{
				"type": "unocc",
				"energy": -0.00746,
				"method": "rhf"
			},
			{
				"type": "unocc",
				"energy": -0.00469,
				"method": "rhf"
			},
			{
				"type": "unocc",
				"energy": -0.00103,
				"method": "rhf"
			},
			{
				"type": "unocc",
				"energy": 0.03642,
				"method": "rhf"
			}
		],
		"cosmo_sigma_profile": { 
			"-0.025": 0.0,
			"-0.024": 0.0,
			"-0.023": 0.0,
			"-0.022": 0.0,
			"-0.021": 0.0,
			"-0.02": 0.0,
			"-0.019": 0.0,
			"-0.018": 0.0,
			"-0.017": 0.0,
			"-0.016": 0.0,
			"-0.015": 0.0,
			"-0.014": 0.0,
			"-0.013": 0.0,
			"-0.012": 0.0,
			"-0.011": 0.0,
			"-0.01": 0.0,
			"-0.009": 0.169797595884,
			"-0.008": 3.24383490962,
			"-0.007": 14.2973484038,
			"-0.006": 20.7018919987,
			"-0.005": 20.8506304994,
			"-0.004": 21.3902293372,
			"-0.003": 14.8839580605,
			"-0.002": 14.8054077281,
			"-0.001": 15.7995730323,
			"0.0": 15.3910724273,
			"0.001": 18.350767949,
			"0.002": 15.723495744,
			"0.003": 16.1708048551,
			"0.004": 16.4054079725,
			"0.005": 16.0467870386,
			"0.006": 6.31918398895,
			"0.007": 4.10819595625,
			"0.008": 2.51170759132,
			"0.009": 2.99388974818,
			"0.01": 2.6331477734,
			"0.011": 4.10734101567,
			"0.012": 3.72231358808,
			"0.013": 2.53573723312,
			"0.014": 1.27570194355,
			"0.015": 0.375580659413,
			"0.016": 0.0,
			"0.017": 0.0,
			"0.018": 0.0,
			"0.019": 0.0,
			"0.02": 0.0,
			"0.021": 0.0,
			"0.022": 0.0,
			"0.023": 0.0,
			"0.024": 0.0,
			"0.025": 0.0
		}
	}
}
