{
	 "smiles": "NC1=C(F)C=CC(=C1)N1CCOC1=O", 
	 "Tm": 393.15, 
	 "num_atms": 23, 
	 "gaussian": { 
		 "optdone": 1, 
		 "sigma_profile": "yes", 
		 "theory": "DFT", 
		 "functional": "B3LYP", 
		 "basiset": "6-31G**", 
		 "properties": { 
			 "R2extent": 3464.9126, 
			 "electric_dipole_moment_norm": 3.33386283011, 
			 "electric_quadrupole_moment_norm": 21.1872312625, 
			 "total_energy": -708.181142961, 
			 "HOMO_LUMO_gap": 0.20035, 
			 "cosmo_polarized_energy": -15.65, 
			 "cosmo_cavitation_energy": 26.98, 
			 "cosmo_dispersion_energy": -20.37, 
			 "cosmo_repulsion_energy": 1.57, 
			 "cosmo_total_nonelectrostatic_energy": 8.18, 
			 "SMD_solvation_energy": 5.77 
		},
		"coords": [
			{
				"x": -2.5280988689,
				"y": -2.3926465547,
				"z": 2.0681916182,
				"element": "N" 
			},
			{
				"x": -1.3213623243,
				"y": -2.04689443,
				"z": 1.4734290638,
				"element": "C" 
			},
			{
				"x": -0.4358881924,
				"y": -3.0548992662,
				"z": 1.0620215823,
				"element": "C" 
			},
			{
				"x": -0.8433233227,
				"y": -4.3456264281,
				"z": 1.2038998533,
				"element": "F" 
			},
			{
				"x": 0.7982762134,
				"y": -2.7689508504,
				"z": 0.5163351285,
				"element": "C" 
			},
			{
				"x": 1.1958125188,
				"y": -1.438153126,
				"z": 0.3608016984,
				"element": "C" 
			},
			{
				"x": 0.3307445845,
				"y": -0.406667685,
				"z": 0.7584167554,
				"element": "C" 
			},
			{
				"x": -0.9196877803,
				"y": -0.715344156,
				"z": 1.316290651,
				"element": "C" 
			},
			{
				"x": 0.7512037562,
				"y": 0.9392680252,
				"z": 0.6121742005,
				"element": "N" 
			},
			{
				"x": 2.0751058624,
				"y": 1.2929035635,
				"z": 0.1162084722,
				"element": "C" 
			},
			{
				"x": 2.0656122997,
				"y": 2.8154517704,
				"z": 0.3073835517,
				"element": "C" 
			},
			{
				"x": 0.6772602005,
				"y": 3.1667343509,
				"z": 0.3656603416,
				"element": "O" 
			},
			{
				"x": -0.0718044815,
				"y": 2.0571718427,
				"z": 0.6515454838,
				"element": "C" 
			},
			{
				"x": -1.2547793857,
				"y": 2.1215763459,
				"z": 0.8896420397,
				"element": "O" 
			},
			{
				"x": -2.8436872253,
				"y": -3.3301818363,
				"z": 1.8641099917,
				"element": "H" 
			},
			{
				"x": -3.2595397662,
				"y": -1.6994737006,
				"z": 2.0023869641,
				"element": "H" 
			},
			{
				"x": 1.4428281371,
				"y": -3.5855975794,
				"z": 0.209328704,
				"element": "H" 
			},
			{
				"x": 2.1635145173,
				"y": -1.2265597353,
				"z": -0.0756365909,
				"element": "H" 
			},
			{
				"x": -1.583428602,
				"y": 0.0844114843,
				"z": 1.6150288131,
				"element": "H" 
			},
			{
				"x": 2.8642209448,
				"y": 0.8085497866,
				"z": 0.6984544084,
				"element": "H" 
			},
			{
				"x": 2.1946014356,
				"y": 1.004358838,
				"z": -0.9372057351,
				"element": "H" 
			},
			{
				"x": 2.5445023618,
				"y": 3.1104443569,
				"z": 1.2478861495,
				"element": "H" 
			},
			{
				"x": 2.5295171173,
				"y": 3.3586249836,
				"z": -0.5179531452,
				"element": "H" 
			}
		],
		 "valence_orbital": [ 
			{
				"type": "occ",
				"energy": -0.29851,
				"method": "rhf"
			},
			{
				"type": "occ",
				"energy": -0.28687,
				"method": "rhf"
			},
			{
				"type": "occ",
				"energy": -0.27755,
				"method": "rhf"
			},
			{
				"type": "occ",
				"energy": -0.22412,
				"method": "rhf"
			},
			{
				"type": "occ",
				"energy": -0.20164,
				"method": "rhf"
			},
			{
				"type": "unocc",
				"energy": -0.00129,
				"method": "rhf"
			},
			{
				"type": "unocc",
				"energy": 0.00907,
				"method": "rhf"
			},
			{
				"type": "unocc",
				"energy": 0.05592,
				"method": "rhf"
			},
			{
				"type": "unocc",
				"energy": 0.0755,
				"method": "rhf"
			},
			{
				"type": "unocc",
				"energy": 0.08301,
				"method": "rhf"
			}
		],
		"cosmo_sigma_profile": { 
			"-0.025": 0.0,
			"-0.024": 0.0,
			"-0.023": 0.0,
			"-0.022": 0.0,
			"-0.021": 0.0,
			"-0.02": 0.0,
			"-0.019": 0.0,
			"-0.018": 0.0,
			"-0.017": 0.0,
			"-0.016": 0.0,
			"-0.015": 0.0,
			"-0.014": 0.0,
			"-0.013": 0.708032062017,
			"-0.012": 1.92684738696,
			"-0.011": 2.30804572244,
			"-0.01": 2.63623172138,
			"-0.009": 2.86676121463,
			"-0.008": 2.76661954376,
			"-0.007": 16.7472304427,
			"-0.006": 21.3485963326,
			"-0.005": 15.6038047344,
			"-0.004": 12.4567315102,
			"-0.003": 7.6904019823,
			"-0.002": 7.36381775302,
			"-0.001": 8.15760519291,
			"0.0": 7.60591902498,
			"0.001": 10.627168826,
			"0.002": 13.0834146771,
			"0.003": 13.2977364406,
			"0.004": 18.3343378304,
			"0.005": 16.7018449526,
			"0.006": 4.710334952,
			"0.007": 2.85907821241,
			"0.008": 3.46353167446,
			"0.009": 4.69600850249,
			"0.01": 4.93633129161,
			"0.011": 3.96918128217,
			"0.012": 4.71468898798,
			"0.013": 2.98292129708,
			"0.014": 0.497721489816,
			"0.015": 0.0,
			"0.016": 0.0,
			"0.017": 0.0,
			"0.018": 0.0,
			"0.019": 0.0,
			"0.02": 0.0,
			"0.021": 0.0,
			"0.022": 0.0,
			"0.023": 0.0,
			"0.024": 0.0,
			"0.025": 0.0
		}
	}
}
