{
	 "smiles": "CC(=O)C1=C(O)C(C)=C(OCC=C)C(CC2=CC(C(C)=O)=C(O)C(C)=C2OCC=C)=C1", 
	 "Tm": 416.15, 
	 "num_atms": 59, 
	 "gaussian": { 
		 "optdone": 1, 
		 "sigma_profile": "yes", 
		 "theory": "DFT", 
		 "functional": "B3LYP", 
		 "basiset": "6-31G**", 
		 "properties": { 
			 "R2extent": 14665.559, 
			 "electric_dipole_moment_norm": 4.90030070608, 
			 "electric_quadrupole_moment_norm": 26.2639854432, 
			 "total_energy": -1420.8376284, 
			 "HOMO_LUMO_gap": 0.1603, 
			 "cosmo_polarized_energy": -19.99, 
			 "cosmo_cavitation_energy": 61.34, 
			 "cosmo_dispersion_energy": -38.24, 
			 "cosmo_repulsion_energy": 2.87, 
			 "cosmo_total_nonelectrostatic_energy": 25.96, 
			 "SMD_solvation_energy": 13.31 
		},
		"coords": [
			{
				"x": -1.345878011,
				"y": -5.6997487251,
				"z": 1.887367561,
				"element": "C" 
			},
			{
				"x": -0.5980543119,
				"y": -4.6032420107,
				"z": 1.1561639299,
				"element": "C" 
			},
			{
				"x": 0.5469174364,
				"y": -4.805779793,
				"z": 0.7689092162,
				"element": "O" 
			},
			{
				"x": -1.237269548,
				"y": -3.2694006854,
				"z": 0.8932358256,
				"element": "C" 
			},
			{
				"x": -2.5069822916,
				"y": -2.8512701827,
				"z": 1.3362601612,
				"element": "C" 
			},
			{
				"x": -3.2643709684,
				"y": -3.7091744048,
				"z": 2.0822444281,
				"element": "O" 
			},
			{
				"x": -3.0048517727,
				"y": -1.5716579229,
				"z": 1.0204479557,
				"element": "C" 
			},
			{
				"x": -4.3900814222,
				"y": -1.1685040973,
				"z": 1.4687294121,
				"element": "C" 
			},
			{
				"x": -2.2044623491,
				"y": -0.7001073591,
				"z": 0.2665932691,
				"element": "C" 
			},
			{
				"x": -2.737366854,
				"y": 0.5157606011,
				"z": -0.0995056633,
				"element": "O" 
			},
			{
				"x": -2.3081421728,
				"y": 1.6639844647,
				"z": 0.6715525802,
				"element": "C" 
			},
			{
				"x": -3.0717820092,
				"y": 2.8581834585,
				"z": 0.1867201425,
				"element": "C" 
			},
			{
				"x": -2.5019423594,
				"y": 3.896814921,
				"z": -0.4238846549,
				"element": "C" 
			},
			{
				"x": -0.9242664941,
				"y": -1.0806014206,
				"z": -0.1915347106,
				"element": "C" 
			},
			{
				"x": -0.0784374606,
				"y": -0.1524724611,
				"z": -1.0398778649,
				"element": "C" 
			},
			{
				"x": 1.0096609235,
				"y": 0.6201125162,
				"z": -0.2939979346,
				"element": "C" 
			},
			{
				"x": 1.7244971357,
				"y": 0.06717581,
				"z": 0.7577973317,
				"element": "C" 
			},
			{
				"x": 2.7516523693,
				"y": 0.7644922033,
				"z": 1.4240044259,
				"element": "C" 
			},
			{
				"x": 3.5063795338,
				"y": 0.1683846419,
				"z": 2.5344066647,
				"element": "C" 
			},
			{
				"x": 3.19963048,
				"y": -1.240070823,
				"z": 2.999069557,
				"element": "C" 
			},
			{
				"x": 4.4055859172,
				"y": 0.8054507576,
				"z": 3.1108722655,
				"element": "O" 
			},
			{
				"x": 3.0552937002,
				"y": 2.0888179434,
				"z": 1.0088477418,
				"element": "C" 
			},
			{
				"x": 4.0138734497,
				"y": 2.8150922175,
				"z": 1.5998915489,
				"element": "O" 
			},
			{
				"x": 2.3399975971,
				"y": 2.6911994387,
				"z": -0.047389695,
				"element": "C" 
			},
			{
				"x": 2.6610467306,
				"y": 4.1109360014,
				"z": -0.4356146371,
				"element": "C" 
			},
			{
				"x": 1.3438083174,
				"y": 1.9433757869,
				"z": -0.6806077295,
				"element": "C" 
			},
			{
				"x": 0.6043855812,
				"y": 2.5481546437,
				"z": -1.6809544387,
				"element": "O" 
			},
			{
				"x": 1.1292071563,
				"y": 2.3923607541,
				"z": -3.0151967194,
				"element": "C" 
			},
			{
				"x": 0.183462646,
				"y": 3.0542380506,
				"z": -3.9691670471,
				"element": "C" 
			},
			{
				"x": 0.5534148151,
				"y": 3.9549919464,
				"z": -4.8782720419,
				"element": "C" 
			},
			{
				"x": -0.4889949226,
				"y": -2.3617447367,
				"z": 0.1253211629,
				"element": "C" 
			},
			{
				"x": -1.6031624994,
				"y": -5.3853054262,
				"z": 2.9031379654,
				"element": "H" 
			},
			{
				"x": -2.2927000591,
				"y": -5.9312216539,
				"z": 1.3910081167,
				"element": "H" 
			},
			{
				"x": -0.7064802151,
				"y": -6.5830163755,
				"z": 1.9178161369,
				"element": "H" 
			},
			{
				"x": -4.0974258123,
				"y": -3.2784524079,
				"z": 2.3123111331,
				"element": "H" 
			},
			{
				"x": -5.1512492085,
				"y": -1.8874047385,
				"z": 1.135224669,
				"element": "H" 
			},
			{
				"x": -4.4667848988,
				"y": -1.0816752381,
				"z": 2.5614719903,
				"element": "H" 
			},
			{
				"x": -4.654442592,
				"y": -0.202772616,
				"z": 1.038974164,
				"element": "H" 
			},
			{
				"x": -1.2304861607,
				"y": 1.8161937804,
				"z": 0.5574804567,
				"element": "H" 
			},
			{
				"x": -2.5148379508,
				"y": 1.470622686,
				"z": 1.7347045208,
				"element": "H" 
			},
			{
				"x": -4.1474235218,
				"y": 2.8413972675,
				"z": 0.3576743252,
				"element": "H" 
			},
			{
				"x": -1.4354072007,
				"y": 3.919538634,
				"z": -0.6319073546,
				"element": "H" 
			},
			{
				"x": -3.086150225,
				"y": 4.7532622584,
				"z": -0.7485588528,
				"element": "H" 
			},
			{
				"x": 0.3948382921,
				"y": -0.7522770632,
				"z": -1.8291815488,
				"element": "H" 
			},
			{
				"x": -0.7298252087,
				"y": 0.5645400077,
				"z": -1.5430477226,
				"element": "H" 
			},
			{
				"x": 1.4762830749,
				"y": -0.9360208289,
				"z": 1.083998768,
				"element": "H" 
			},
			{
				"x": 3.3303532522,
				"y": -1.9631248844,
				"z": 2.1874161754,
				"element": "H" 
			},
			{
				"x": 2.1631432328,
				"y": -1.3228362842,
				"z": 3.3425940067,
				"element": "H" 
			},
			{
				"x": 3.8735084993,
				"y": -1.4890890305,
				"z": 3.8191366911,
				"element": "H" 
			},
			{
				"x": 4.3935438897,
				"y": 2.2329436989,
				"z": 2.314654277,
				"element": "H" 
			},
			{
				"x": 3.6420767284,
				"y": 4.1781178655,
				"z": -0.9208087549,
				"element": "H" 
			},
			{
				"x": 2.7140002626,
				"y": 4.7459099021,
				"z": 0.4537130906,
				"element": "H" 
			},
			{
				"x": 1.9051146369,
				"y": 4.509012731,
				"z": -1.1134131591,
				"element": "H" 
			},
			{
				"x": 1.218553941,
				"y": 1.3191114532,
				"z": -3.2405336141,
				"element": "H" 
			},
			{
				"x": 2.1313278454,
				"y": 2.8354246284,
				"z": -3.0814747863,
				"element": "H" 
			},
			{
				"x": -0.8558730873,
				"y": 2.7383095606,
				"z": -3.894296593,
				"element": "H" 
			},
			{
				"x": -0.1581464205,
				"y": 4.3859718897,
				"z": -5.5759648949,
				"element": "H" 
			},
			{
				"x": 1.5844557197,
				"y": 4.2899402828,
				"z": -4.9644780971,
				"element": "H" 
			},
			{
				"x": 0.4720648437,
				"y": -2.7177516334,
				"z": -0.2329831519,
				"element": "H" 
			}
		],
		 "valence_orbital": [ 
			{
				"type": "occ",
				"energy": -0.24662,
				"method": "rhf"
			},
			{
				"type": "occ",
				"energy": -0.24475,
				"method": "rhf"
			},
			{
				"type": "occ",
				"energy": -0.24089,
				"method": "rhf"
			},
			{
				"type": "occ",
				"energy": -0.22785,
				"method": "rhf"
			},
			{
				"type": "occ",
				"energy": -0.2171,
				"method": "rhf"
			},
			{
				"type": "unocc",
				"energy": -0.0568,
				"method": "rhf"
			},
			{
				"type": "unocc",
				"energy": -0.04612,
				"method": "rhf"
			},
			{
				"type": "unocc",
				"energy": -0.00401,
				"method": "rhf"
			},
			{
				"type": "unocc",
				"energy": -0.00113,
				"method": "rhf"
			},
			{
				"type": "unocc",
				"energy": 0.00379,
				"method": "rhf"
			}
		],
		"cosmo_sigma_profile": { 
			"-0.025": 0.0,
			"-0.024": 0.0,
			"-0.023": 0.0,
			"-0.022": 0.0,
			"-0.021": 0.0,
			"-0.02": 0.0,
			"-0.019": 0.0,
			"-0.018": 0.0,
			"-0.017": 0.108103085497,
			"-0.016": 0.579518716031,
			"-0.015": 0.730033405001,
			"-0.014": 1.00265566237,
			"-0.013": 1.05108175501,
			"-0.012": 0.834656200748,
			"-0.011": 1.06661481066,
			"-0.01": 1.32275124153,
			"-0.009": 1.47387849995,
			"-0.008": 1.39953883204,
			"-0.007": 2.3624539955,
			"-0.006": 11.3959792403,
			"-0.005": 34.7117984147,
			"-0.004": 41.7604187651,
			"-0.003": 50.5122006192,
			"-0.002": 49.3770528761,
			"-0.001": 51.2162005955,
			"0.0": 42.6225558943,
			"0.001": 32.4029731759,
			"0.002": 38.3756654362,
			"0.003": 31.812597033,
			"0.004": 19.9923814088,
			"0.005": 16.8782262901,
			"0.006": 12.9786816061,
			"0.007": 6.40663416843,
			"0.008": 6.03600804776,
			"0.009": 6.43131284677,
			"0.01": 6.38357326868,
			"0.011": 5.26104795305,
			"0.012": 5.28047507668,
			"0.013": 3.175819501,
			"0.014": 0.758150113949,
			"0.015": 0.0,
			"0.016": 0.0,
			"0.017": 0.0,
			"0.018": 0.0,
			"0.019": 0.0,
			"0.02": 0.0,
			"0.021": 0.0,
			"0.022": 0.0,
			"0.023": 0.0,
			"0.024": 0.0,
			"0.025": 0.0
		}
	}
}
