{
	 "smiles": "OP(O)(=O)CCN(CP(C1=CC=CC=C1)C1=CC=CC=C1)CP(C1=CC=CC=C1)C1=CC=CC=C1", 
	 "Tm": 420.15, 
	 "num_atms": 65, 
	 "gaussian": { 
		 "optdone": 1, 
		 "sigma_profile": "yes", 
		 "theory": "DFT", 
		 "functional": "B3LYP", 
		 "basiset": "6-31G**", 
		 "properties": { 
			 "R2extent": 19942.8462, 
			 "electric_dipole_moment_norm": 3.21513887103, 
			 "electric_quadrupole_moment_norm": 19.2475374378, 
			 "total_energy": -2389.59084623, 
			 "HOMO_LUMO_gap": 0.18697, 
			 "cosmo_polarized_energy": -23.39, 
			 "cosmo_cavitation_energy": 70.33, 
			 "cosmo_dispersion_energy": -44.2, 
			 "cosmo_repulsion_energy": 3.39, 
			 "cosmo_total_nonelectrostatic_energy": 29.53, 
			 "SMD_solvation_energy": 12.71 
		},
		"coords": [
			{
				"x": -2.2452217432,
				"y": 2.29854178,
				"z": -2.4502491525,
				"element": "O" 
			},
			{
				"x": -2.3806185133,
				"y": 3.4249521529,
				"z": -1.275882025,
				"element": "P" 
			},
			{
				"x": -1.2503713526,
				"y": 4.4829638751,
				"z": -1.764999838,
				"element": "O" 
			},
			{
				"x": -3.7575016331,
				"y": 3.9563292353,
				"z": -1.1125764036,
				"element": "O" 
			},
			{
				"x": -1.6376591937,
				"y": 2.7850991492,
				"z": 0.2549958896,
				"element": "C" 
			},
			{
				"x": -0.1636077935,
				"y": 2.3115652288,
				"z": 0.2996764656,
				"element": "C" 
			},
			{
				"x": -0.0023734735,
				"y": 0.8514764028,
				"z": 0.1794254329,
				"element": "N" 
			},
			{
				"x": 0.0805313356,
				"y": 0.4026016642,
				"z": -1.2129366067,
				"element": "C" 
			},
			{
				"x": -0.6285495298,
				"y": -1.3409739829,
				"z": -1.4438566135,
				"element": "P" 
			},
			{
				"x": -0.2073533452,
				"y": -1.621846328,
				"z": -3.2237234703,
				"element": "C" 
			},
			{
				"x": 0.18239561,
				"y": -2.9192844754,
				"z": -3.5939080664,
				"element": "C" 
			},
			{
				"x": 0.5491909622,
				"y": -3.2128430755,
				"z": -4.908646288,
				"element": "C" 
			},
			{
				"x": 0.5417826173,
				"y": -2.2067928968,
				"z": -5.8754705472,
				"element": "C" 
			},
			{
				"x": 0.1618806321,
				"y": -0.9095690958,
				"z": -5.5233483357,
				"element": "C" 
			},
			{
				"x": -0.2115646859,
				"y": -0.6186127971,
				"z": -4.2103159358,
				"element": "C" 
			},
			{
				"x": -2.4408996811,
				"y": -0.9423648563,
				"z": -1.471066603,
				"element": "C" 
			},
			{
				"x": -3.0673702113,
				"y": -0.7396259154,
				"z": -0.2277829412,
				"element": "C" 
			},
			{
				"x": -4.4193905387,
				"y": -0.3975470814,
				"z": -0.1531961208,
				"element": "C" 
			},
			{
				"x": -5.1790904278,
				"y": -0.2706636349,
				"z": -1.3178163657,
				"element": "C" 
			},
			{
				"x": -4.5778607533,
				"y": -0.5003468231,
				"z": -2.5579874343,
				"element": "C" 
			},
			{
				"x": -3.2215811207,
				"y": -0.8355018566,
				"z": -2.6347568951,
				"element": "C" 
			},
			{
				"x": 1.1184765532,
				"y": 0.3292233671,
				"z": 0.9663980787,
				"element": "C" 
			},
			{
				"x": 0.8971699167,
				"y": 0.5083192727,
				"z": 2.831839459,
				"element": "P" 
			},
			{
				"x": -0.2343133805,
				"y": -0.8776770993,
				"z": 3.2999552159,
				"element": "C" 
			},
			{
				"x": -0.8391332444,
				"y": -0.777480633,
				"z": 4.5652700027,
				"element": "C" 
			},
			{
				"x": -1.7049492628,
				"y": -1.7674065696,
				"z": 5.0299730376,
				"element": "C" 
			},
			{
				"x": -2.0002348342,
				"y": -2.8702210839,
				"z": 4.2260827817,
				"element": "C" 
			},
			{
				"x": -1.4214799025,
				"y": -2.9759389142,
				"z": 2.9605025867,
				"element": "C" 
			},
			{
				"x": -0.5425565626,
				"y": -1.9910620525,
				"z": 2.5011179749,
				"element": "C" 
			},
			{
				"x": 2.5664873652,
				"y": -0.124762065,
				"z": 3.3397140354,
				"element": "C" 
			},
			{
				"x": 2.8819900276,
				"y": -1.4824977957,
				"z": 3.5027155599,
				"element": "C" 
			},
			{
				"x": 4.1702348119,
				"y": -1.8734534555,
				"z": 3.871445318,
				"element": "C" 
			},
			{
				"x": 5.1648869992,
				"y": -0.9152877929,
				"z": 4.0775655781,
				"element": "C" 
			},
			{
				"x": 4.8637502208,
				"y": 0.4387739269,
				"z": 3.9214689708,
				"element": "C" 
			},
			{
				"x": 3.5723769826,
				"y": 0.8296136607,
				"z": 3.5646049257,
				"element": "C" 
			},
			{
				"x": -2.9901983019,
				"y": 1.6734623853,
				"z": -2.4434499946,
				"element": "H" 
			},
			{
				"x": -1.6111656975,
				"y": 5.0841491531,
				"z": -2.4326170156,
				"element": "H" 
			},
			{
				"x": -1.7711521262,
				"y": 3.6170381747,
				"z": 0.9560781287,
				"element": "H" 
			},
			{
				"x": -2.286478441,
				"y": 1.9781395395,
				"z": 0.6075315102,
				"element": "H" 
			},
			{
				"x": 0.4470796705,
				"y": 2.8544322708,
				"z": -0.4387788652,
				"element": "H" 
			},
			{
				"x": 0.2183960513,
				"y": 2.5904927114,
				"z": 1.2844327239,
				"element": "H" 
			},
			{
				"x": 1.1197991529,
				"y": 0.3810128993,
				"z": -1.5855839607,
				"element": "H" 
			},
			{
				"x": -0.4791875007,
				"y": 1.0955172088,
				"z": -1.8387530352,
				"element": "H" 
			},
			{
				"x": 0.2031582818,
				"y": -3.702677962,
				"z": -2.8408832948,
				"element": "H" 
			},
			{
				"x": 0.8455210266,
				"y": -4.2235440375,
				"z": -5.1748678666,
				"element": "H" 
			},
			{
				"x": 0.8321411423,
				"y": -2.4305378224,
				"z": -6.8981322912,
				"element": "H" 
			},
			{
				"x": 0.1545811446,
				"y": -0.1224176902,
				"z": -6.2722889617,
				"element": "H" 
			},
			{
				"x": -0.5168280881,
				"y": 0.3933013419,
				"z": -3.9608430186,
				"element": "H" 
			},
			{
				"x": -2.491669714,
				"y": -0.8436049154,
				"z": 0.6865490511,
				"element": "H" 
			},
			{
				"x": -4.879532405,
				"y": -0.2335912725,
				"z": 0.8170959275,
				"element": "H" 
			},
			{
				"x": -6.229819794,
				"y": -0.0030451019,
				"z": -1.2604103823,
				"element": "H" 
			},
			{
				"x": -5.1638111691,
				"y": -0.422377241,
				"z": -3.4698952051,
				"element": "H" 
			},
			{
				"x": -2.7722521516,
				"y": -1.0102991891,
				"z": -3.6067376618,
				"element": "H" 
			},
			{
				"x": 1.2632190016,
				"y": -0.7225394041,
				"z": 0.7013516187,
				"element": "H" 
			},
			{
				"x": 2.0729242562,
				"y": 0.8383390545,
				"z": 0.7334706291,
				"element": "H" 
			},
			{
				"x": -0.6305047602,
				"y": 0.0883199177,
				"z": 5.1889043422,
				"element": "H" 
			},
			{
				"x": -2.1560897098,
				"y": -1.6722902136,
				"z": 6.0137245727,
				"element": "H" 
			},
			{
				"x": -2.682006617,
				"y": -3.6381012608,
				"z": 4.5806264458,
				"element": "H" 
			},
			{
				"x": -1.6516833159,
				"y": -3.8262417771,
				"z": 2.3245686906,
				"element": "H" 
			},
			{
				"x": -0.1125786604,
				"y": -2.0992418537,
				"z": 1.5107441437,
				"element": "H" 
			},
			{
				"x": 2.1169740007,
				"y": -2.2373395322,
				"z": 3.3488218242,
				"element": "H" 
			},
			{
				"x": 4.3972346514,
				"y": -2.9287141531,
				"z": 3.9968403869,
				"element": "H" 
			},
			{
				"x": 6.1667112604,
				"y": -1.221968862,
				"z": 4.3647842596,
				"element": "H" 
			},
			{
				"x": 5.629635476,
				"y": 1.1911341511,
				"z": 4.0883767523,
				"element": "H" 
			},
			{
				"x": 3.3389104855,
				"y": 1.8870940459,
				"z": 3.466308876,
				"element": "H" 
			}
		],
		 "valence_orbital": [ 
			{
				"type": "occ",
				"energy": -0.25213,
				"method": "rhf"
			},
			{
				"type": "occ",
				"energy": -0.25028,
				"method": "rhf"
			},
			{
				"type": "occ",
				"energy": -0.22773,
				"method": "rhf"
			},
			{
				"type": "occ",
				"energy": -0.2184,
				"method": "rhf"
			},
			{
				"type": "occ",
				"energy": -0.21202,
				"method": "rhf"
			},
			{
				"type": "unocc",
				"energy": -0.02505,
				"method": "rhf"
			},
			{
				"type": "unocc",
				"energy": -0.02221,
				"method": "rhf"
			},
			{
				"type": "unocc",
				"energy": -0.01469,
				"method": "rhf"
			},
			{
				"type": "unocc",
				"energy": -0.01063,
				"method": "rhf"
			},
			{
				"type": "unocc",
				"energy": -0.00919,
				"method": "rhf"
			}
		],
		"cosmo_sigma_profile": { 
			"-0.025": 0.0,
			"-0.024": 0.0,
			"-0.023": 0.0,
			"-0.022": 0.0,
			"-0.021": 0.0,
			"-0.02": 0.0190357618654,
			"-0.019": 0.894561500906,
			"-0.018": 1.08333821205,
			"-0.017": 1.08466451188,
			"-0.016": 0.299262196467,
			"-0.015": 0.298653092515,
			"-0.014": 0.984159660814,
			"-0.013": 0.563116668082,
			"-0.012": 1.16378413733,
			"-0.011": 0.486570451788,
			"-0.01": 1.16010756143,
			"-0.009": 0.84795750971,
			"-0.008": 1.73778651169,
			"-0.007": 3.73543631971,
			"-0.006": 23.2456960306,
			"-0.005": 38.5845347112,
			"-0.004": 51.203658642,
			"-0.003": 59.7926504403,
			"-0.002": 52.6732359502,
			"-0.001": 42.1321675042,
			"0.0": 36.1271537272,
			"0.001": 36.281978257,
			"0.002": 37.1473956101,
			"0.003": 37.27860354,
			"0.004": 38.1277784071,
			"0.005": 37.358676464,
			"0.006": 13.8261015089,
			"0.007": 5.18324419505,
			"0.008": 4.81465771553,
			"0.009": 4.50999577011,
			"0.01": 3.63359055444,
			"0.011": 1.24354524892,
			"0.012": 1.62320898399,
			"0.013": 1.44639954087,
			"0.014": 2.82507456558,
			"0.015": 7.34277349536,
			"0.016": 1.69001017616,
			"0.017": 0.0,
			"0.018": 0.0,
			"0.019": 0.0,
			"0.02": 0.0,
			"0.021": 0.0,
			"0.022": 0.0,
			"0.023": 0.0,
			"0.024": 0.0,
			"0.025": 0.0
		}
	}
}
