{
	 "smiles": "OC(=O)C1=CC=CC2=CC=CC(C(O)=O)=C12", 
	 "Tm": 533.15, 
	 "num_atms": 24, 
	 "gaussian": { 
		 "optdone": 1, 
		 "sigma_profile": "yes", 
		 "theory": "DFT", 
		 "functional": "B3LYP", 
		 "basiset": "6-31G**", 
		 "properties": { 
			 "R2extent": 3699.2139, 
			 "electric_dipole_moment_norm": 5.81094613467, 
			 "electric_quadrupole_moment_norm": 7.15969150523, 
			 "total_energy": -763.01660086, 
			 "HOMO_LUMO_gap": 0.16482, 
			 "cosmo_polarized_energy": -20.36, 
			 "cosmo_cavitation_energy": 28.61, 
			 "cosmo_dispersion_energy": -20.75, 
			 "cosmo_repulsion_energy": 1.58, 
			 "cosmo_total_nonelectrostatic_energy": 9.43, 
			 "SMD_solvation_energy": 6.51 
		},
		"coords": [
			{
				"x": 1.8771656345,
				"y": -0.1421613636,
				"z": 2.1679106232,
				"element": "O" 
			},
			{
				"x": 1.674467439,
				"y": -1.3554316704,
				"z": 1.5899515292,
				"element": "C" 
			},
			{
				"x": 1.4999925138,
				"y": -2.3607771793,
				"z": 2.2422548291,
				"element": "O" 
			},
			{
				"x": 1.8334449885,
				"y": -1.3190909498,
				"z": 0.1033933666,
				"element": "C" 
			},
			{
				"x": 2.4859331685,
				"y": -2.4197577906,
				"z": -0.4257223737,
				"element": "C" 
			},
			{
				"x": 2.8846759515,
				"y": -2.4634087749,
				"z": -1.7764921558,
				"element": "C" 
			},
			{
				"x": 2.6458175522,
				"y": -1.3795505402,
				"z": -2.586412453,
				"element": "C" 
			},
			{
				"x": 1.9384836118,
				"y": -0.2469394023,
				"z": -2.1013492842,
				"element": "C" 
			},
			{
				"x": 1.6900725121,
				"y": 0.8551697578,
				"z": -2.9643289893,
				"element": "C" 
			},
			{
				"x": 0.9810182878,
				"y": 1.9476989561,
				"z": -2.5308266094,
				"element": "C" 
			},
			{
				"x": 0.4449260414,
				"y": 1.9499118079,
				"z": -1.2253444802,
				"element": "C" 
			},
			{
				"x": 0.6502420288,
				"y": 0.8939254644,
				"z": -0.3518664863,
				"element": "C" 
			},
			{
				"x": -0.1901513369,
				"y": 0.8823825376,
				"z": 0.8962248757,
				"element": "C" 
			},
			{
				"x": -0.2200773399,
				"y": 2.0479856112,
				"z": 1.5960187082,
				"element": "O" 
			},
			{
				"x": -0.8798578484,
				"y": -0.0495220971,
				"z": 1.2317704572,
				"element": "O" 
			},
			{
				"x": 1.4659624673,
				"y": -0.2206557986,
				"z": -0.744254341,
				"element": "C" 
			},
			{
				"x": 1.7142986655,
				"y": -0.2701568014,
				"z": 3.1178822917,
				"element": "H" 
			},
			{
				"x": 2.7178230723,
				"y": -3.2429762696,
				"z": 0.2414513847,
				"element": "H" 
			},
			{
				"x": 3.4060442861,
				"y": -3.335820059,
				"z": -2.1575053347,
				"element": "H" 
			},
			{
				"x": 2.9869340618,
				"y": -1.373095403,
				"z": -3.6181338504,
				"element": "H" 
			},
			{
				"x": 2.0696595123,
				"y": 0.8107106829,
				"z": -3.9815008415,
				"element": "H" 
			},
			{
				"x": 0.7942995284,
				"y": 2.7874079236,
				"z": -3.1927199361,
				"element": "H" 
			},
			{
				"x": -0.1975144131,
				"y": 2.7716520237,
				"z": -0.9209776032,
				"element": "H" 
			},
			{
				"x": 0.4931396146,
				"y": 2.6228993346,
				"z": 1.2828766733,
				"element": "H" 
			}
		],
		 "valence_orbital": [ 
			{
				"type": "occ",
				"energy": -0.30211,
				"method": "rhf"
			},
			{
				"type": "occ",
				"energy": -0.27933,
				"method": "rhf"
			},
			{
				"type": "occ",
				"energy": -0.26907,
				"method": "rhf"
			},
			{
				"type": "occ",
				"energy": -0.26484,
				"method": "rhf"
			},
			{
				"type": "occ",
				"energy": -0.23733,
				"method": "rhf"
			},
			{
				"type": "unocc",
				"energy": -0.07251,
				"method": "rhf"
			},
			{
				"type": "unocc",
				"energy": -0.03711,
				"method": "rhf"
			},
			{
				"type": "unocc",
				"energy": -0.02406,
				"method": "rhf"
			},
			{
				"type": "unocc",
				"energy": 0.02931,
				"method": "rhf"
			},
			{
				"type": "unocc",
				"energy": 0.04771,
				"method": "rhf"
			}
		],
		"cosmo_sigma_profile": { 
			"-0.025": 0.0,
			"-0.024": 0.0,
			"-0.023": 0.0,
			"-0.022": 0.0,
			"-0.021": 0.0,
			"-0.02": 0.0,
			"-0.019": 0.223479908292,
			"-0.018": 2.15558063061,
			"-0.017": 0.904917558632,
			"-0.016": 1.43673243207,
			"-0.015": 1.71879174807,
			"-0.014": 1.30591823938,
			"-0.013": 2.0418176948,
			"-0.012": 0.810658567962,
			"-0.011": 1.98133318002,
			"-0.01": 0.892243230751,
			"-0.009": 2.24024697231,
			"-0.008": 4.5753975601,
			"-0.007": 12.2353619959,
			"-0.006": 14.5571840944,
			"-0.005": 14.0488656987,
			"-0.004": 8.91066082573,
			"-0.003": 10.6998759246,
			"-0.002": 10.1918920891,
			"-0.001": 11.3829658678,
			"0.0": 10.4363818055,
			"0.001": 20.9789381092,
			"0.002": 24.5253390552,
			"0.003": 15.6389798571,
			"0.004": 5.70875761301,
			"0.005": 4.24785200414,
			"0.006": 4.35495214419,
			"0.007": 5.45631062876,
			"0.008": 5.75591782192,
			"0.009": 5.4878456383,
			"0.01": 6.78599131396,
			"0.011": 10.0735906779,
			"0.012": 6.56590688827,
			"0.013": 0.876581123424,
			"0.014": 0.0,
			"0.015": 0.0,
			"0.016": 0.0,
			"0.017": 0.0,
			"0.018": 0.0,
			"0.019": 0.0,
			"0.02": 0.0,
			"0.021": 0.0,
			"0.022": 0.0,
			"0.023": 0.0,
			"0.024": 0.0,
			"0.025": 0.0
		}
	}
}
