{
	 "smiles": "NNC1=NC(=CC=C1)C(F)(F)F", 
	 "Tm": 336.15, 
	 "num_atms": 18, 
	 "gaussian": { 
		 "optdone": 1, 
		 "sigma_profile": "yes", 
		 "theory": "DFT", 
		 "functional": "B3LYP", 
		 "basiset": "6-31G**", 
		 "properties": { 
			 "R2extent": 2688.4381, 
			 "electric_dipole_moment_norm": 3.43116540843, 
			 "electric_quadrupole_moment_norm": 10.9039304978, 
			 "total_energy": -696.004370482, 
			 "HOMO_LUMO_gap": 0.18548, 
			 "cosmo_polarized_energy": -9.78, 
			 "cosmo_cavitation_energy": 23.98, 
			 "cosmo_dispersion_energy": -17.12, 
			 "cosmo_repulsion_energy": 1.33, 
			 "cosmo_total_nonelectrostatic_energy": 8.18, 
			 "SMD_solvation_energy": 4.93 
		},
		"coords": [
			{
				"x": -2.7478303283,
				"y": -0.5646867946,
				"z": -0.2212199781,
				"element": "N" 
			},
			{
				"x": -2.3503983531,
				"y": -1.4996196614,
				"z": 0.7561983415,
				"element": "N" 
			},
			{
				"x": -1.1408772427,
				"y": -1.3933813828,
				"z": 1.4101696152,
				"element": "C" 
			},
			{
				"x": -0.2533432095,
				"y": -0.5238844778,
				"z": 0.9166720033,
				"element": "N" 
			},
			{
				"x": 0.9383712134,
				"y": -0.4373356719,
				"z": 1.5235681368,
				"element": "C" 
			},
			{
				"x": 1.315803911,
				"y": -1.1801484534,
				"z": 2.6313840788,
				"element": "C" 
			},
			{
				"x": 0.3706346926,
				"y": -2.0834593976,
				"z": 3.1456246695,
				"element": "C" 
			},
			{
				"x": -0.8661591276,
				"y": -2.1999875711,
				"z": 2.5428007034,
				"element": "C" 
			},
			{
				"x": 1.8808071576,
				"y": 0.5696355374,
				"z": 0.8966509483,
				"element": "C" 
			},
			{
				"x": 2.1456431117,
				"y": 0.2623898897,
				"z": -0.388735358,
				"element": "F" 
			},
			{
				"x": 3.0620373894,
				"y": 0.6217248475,
				"z": 1.5529663873,
				"element": "F" 
			},
			{
				"x": 1.3546741648,
				"y": 1.8110545291,
				"z": 0.9123256882,
				"element": "F" 
			},
			{
				"x": -2.2612825665,
				"y": -0.8029396353,
				"z": -1.0841468638,
				"element": "H" 
			},
			{
				"x": -2.3821596777,
				"y": 0.3506000182,
				"z": 0.0466424794,
				"element": "H" 
			},
			{
				"x": -3.1252415371,
				"y": -1.882515212,
				"z": 1.2778786741,
				"element": "H" 
			},
			{
				"x": 2.2950485398,
				"y": -1.0624089045,
				"z": 3.0760350809,
				"element": "H" 
			},
			{
				"x": 0.6108907792,
				"y": -2.6885865619,
				"z": 4.0148687106,
				"element": "H" 
			},
			{
				"x": -1.6140189167,
				"y": -2.8930510974,
				"z": 2.9166166826,
				"element": "H" 
			}
		],
		 "valence_orbital": [ 
			{
				"type": "occ",
				"energy": -0.3222,
				"method": "rhf"
			},
			{
				"type": "occ",
				"energy": -0.29598,
				"method": "rhf"
			},
			{
				"type": "occ",
				"energy": -0.28221,
				"method": "rhf"
			},
			{
				"type": "occ",
				"energy": -0.27078,
				"method": "rhf"
			},
			{
				"type": "occ",
				"energy": -0.22472,
				"method": "rhf"
			},
			{
				"type": "unocc",
				"energy": -0.03924,
				"method": "rhf"
			},
			{
				"type": "unocc",
				"energy": -0.00831,
				"method": "rhf"
			},
			{
				"type": "unocc",
				"energy": 0.08137,
				"method": "rhf"
			},
			{
				"type": "unocc",
				"energy": 0.09047,
				"method": "rhf"
			},
			{
				"type": "unocc",
				"energy": 0.10612,
				"method": "rhf"
			}
		],
		"cosmo_sigma_profile": { 
			"-0.025": 0.0,
			"-0.024": 0.0,
			"-0.023": 0.0,
			"-0.022": 0.0,
			"-0.021": 0.0,
			"-0.02": 0.0,
			"-0.019": 0.0,
			"-0.018": 0.0,
			"-0.017": 0.0,
			"-0.016": 0.0,
			"-0.015": 0.0,
			"-0.014": 0.726672203486,
			"-0.013": 1.59796903094,
			"-0.012": 1.38545349376,
			"-0.011": 1.76935981199,
			"-0.01": 3.20907127372,
			"-0.009": 3.52594647637,
			"-0.008": 4.01922788829,
			"-0.007": 8.7420462609,
			"-0.006": 7.43215267446,
			"-0.005": 8.20191143391,
			"-0.004": 6.1701858211,
			"-0.003": 7.90549873785,
			"-0.002": 8.50419863734,
			"-0.001": 10.6533927342,
			"0.0": 10.1838433875,
			"0.001": 15.7442084844,
			"0.002": 25.3375179187,
			"0.003": 36.1718188009,
			"0.004": 9.02492622791,
			"0.005": 3.70733277016,
			"0.006": 3.5570872404,
			"0.007": 3.5308359147,
			"0.008": 3.07814217034,
			"0.009": 1.67860089861,
			"0.01": 0.875678920962,
			"0.011": 1.1887136078,
			"0.012": 0.561414921951,
			"0.013": 0.518830989908,
			"0.014": 0.654880337458,
			"0.015": 0.575448022095,
			"0.016": 0.777552435498,
			"0.017": 0.280567484489,
			"0.018": 0.0,
			"0.019": 0.0,
			"0.02": 0.0,
			"0.021": 0.0,
			"0.022": 0.0,
			"0.023": 0.0,
			"0.024": 0.0,
			"0.025": 0.0
		}
	}
}
