{
	 "smiles": "CC1(C)CCC(CC2=CC=C(Cl)C=C2)C1(O)CN1C=NC=N1", 
	 "Tm": 385.15, 
	 "num_atms": 44, 
	 "gaussian": { 
		 "optdone": 1, 
		 "sigma_profile": "yes", 
		 "theory": "DFT", 
		 "functional": "B3LYP", 
		 "basiset": "6-31G**", 
		 "properties": { 
			 "R2extent": 8646.9662, 
			 "electric_dipole_moment_norm": 4.02659965355, 
			 "electric_quadrupole_moment_norm": 17.0780146088, 
			 "total_energy": -1360.7350151, 
			 "HOMO_LUMO_gap": 0.22155, 
			 "cosmo_polarized_energy": -13.42, 
			 "cosmo_cavitation_energy": 44.05, 
			 "cosmo_dispersion_energy": -30.38, 
			 "cosmo_repulsion_energy": 2.27, 
			 "cosmo_total_nonelectrostatic_energy": 15.95, 
			 "SMD_solvation_energy": 5.0 
		},
		"coords": [
			{
				"x": 1.4646162738,
				"y": 2.336715102,
				"z": 1.0047642307,
				"element": "C" 
			},
			{
				"x": 0.4222288641,
				"y": 2.5452358947,
				"z": -0.1140442241,
				"element": "C" 
			},
			{
				"x": -0.187088344,
				"y": 3.9455348653,
				"z": 0.0755893553,
				"element": "C" 
			},
			{
				"x": 1.090140628,
				"y": 2.3853042146,
				"z": -1.4988046954,
				"element": "C" 
			},
			{
				"x": 1.2621681144,
				"y": 0.8709733738,
				"z": -1.6750555952,
				"element": "C" 
			},
			{
				"x": -0.0303775314,
				"y": 0.2623291918,
				"z": -1.083865568,
				"element": "C" 
			},
			{
				"x": 0.0958628912,
				"y": -1.1830147005,
				"z": -0.5227528614,
				"element": "C" 
			},
			{
				"x": 1.3404797665,
				"y": -1.5472010144,
				"z": 0.266729209,
				"element": "C" 
			},
			{
				"x": 2.3952553279,
				"y": -2.2261835694,
				"z": -0.3604830955,
				"element": "C" 
			},
			{
				"x": 3.5406960362,
				"y": -2.6095085758,
				"z": 0.3384296035,
				"element": "C" 
			},
			{
				"x": 3.6316275858,
				"y": -2.3133616915,
				"z": 1.6964313464,
				"element": "C" 
			},
			{
				"x": 5.0667359132,
				"y": -2.7957309081,
				"z": 2.5959128039,
				"element": "Cl" 
			},
			{
				"x": 2.6006415818,
				"y": -1.6431696338,
				"z": 2.3531213024,
				"element": "C" 
			},
			{
				"x": 1.4654861327,
				"y": -1.2650363565,
				"z": 1.6355292838,
				"element": "C" 
			},
			{
				"x": -0.6241443355,
				"y": 1.3616792117,
				"z": -0.1016301663,
				"element": "C" 
			},
			{
				"x": -0.817426906,
				"y": 0.9276709313,
				"z": 1.2366631124,
				"element": "O" 
			},
			{
				"x": -1.9978817486,
				"y": 1.847328147,
				"z": -0.6418157803,
				"element": "C" 
			},
			{
				"x": -2.9692523312,
				"y": 0.7633057637,
				"z": -0.780748047,
				"element": "N" 
			},
			{
				"x": -3.694023337,
				"y": 0.3697292379,
				"z": -1.8501923455,
				"element": "C" 
			},
			{
				"x": -4.4747968023,
				"y": -0.654236631,
				"z": -1.5383519697,
				"element": "N" 
			},
			{
				"x": -4.1834166299,
				"y": -0.85953139,
				"z": -0.2286600907,
				"element": "C" 
			},
			{
				"x": -3.2829072644,
				"y": -0.0270193901,
				"z": 0.2817750548,
				"element": "N" 
			},
			{
				"x": 0.9990723219,
				"y": 2.4314612065,
				"z": 1.9878629794,
				"element": "H" 
			},
			{
				"x": 2.247229484,
				"y": 3.0983565958,
				"z": 0.9158390206,
				"element": "H" 
			},
			{
				"x": 1.940349269,
				"y": 1.3552016563,
				"z": 0.9649550297,
				"element": "H" 
			},
			{
				"x": -0.8602098285,
				"y": 4.2347946616,
				"z": -0.7383524995,
				"element": "H" 
			},
			{
				"x": -0.7366723155,
				"y": 4.0156566688,
				"z": 1.0206732547,
				"element": "H" 
			},
			{
				"x": 0.6122717305,
				"y": 4.693362227,
				"z": 0.1076993769,
				"element": "H" 
			},
			{
				"x": 2.0341085105,
				"y": 2.9367795836,
				"z": -1.5638368224,
				"element": "H" 
			},
			{
				"x": 0.4337225509,
				"y": 2.7881150137,
				"z": -2.2832195351,
				"element": "H" 
			},
			{
				"x": 2.1389105946,
				"y": 0.5249323524,
				"z": -1.1205688235,
				"element": "H" 
			},
			{
				"x": 1.4136200452,
				"y": 0.5796643256,
				"z": -2.7198572938,
				"element": "H" 
			},
			{
				"x": -0.7472498556,
				"y": 0.171332172,
				"z": -1.9094477257,
				"element": "H" 
			},
			{
				"x": -0.7919967778,
				"y": -1.3971312604,
				"z": 0.0804705063,
				"element": "H" 
			},
			{
				"x": 0.044271758,
				"y": -1.8611468529,
				"z": -1.3824945539,
				"element": "H" 
			},
			{
				"x": 2.3202283013,
				"y": -2.4702243746,
				"z": -1.4174271846,
				"element": "H" 
			},
			{
				"x": 4.3467191307,
				"y": -3.1360635574,
				"z": -0.1608476433,
				"element": "H" 
			},
			{
				"x": 2.6843544485,
				"y": -1.4219282853,
				"z": 3.4116805228,
				"element": "H" 
			},
			{
				"x": 0.6686360327,
				"y": -0.7259973383,
				"z": 2.1359618709,
				"element": "H" 
			},
			{
				"x": -1.6480424164,
				"y": 0.4166218345,
				"z": 1.2687085008,
				"element": "H" 
			},
			{
				"x": -2.4175021206,
				"y": 2.5853895431,
				"z": 0.0455773736,
				"element": "H" 
			},
			{
				"x": -1.8987666651,
				"y": 2.3043873737,
				"z": -1.6290435675,
				"element": "H" 
			},
			{
				"x": -3.6251157378,
				"y": 0.8529302284,
				"z": -2.8151369658,
				"element": "H" 
			},
			{
				"x": -4.6416623457,
				"y": -1.6346058468,
				"z": 0.3699633163,
				"element": "H" 
			}
		],
		 "valence_orbital": [ 
			{
				"type": "occ",
				"energy": -0.29084,
				"method": "rhf"
			},
			{
				"type": "occ",
				"energy": -0.27926,
				"method": "rhf"
			},
			{
				"type": "occ",
				"energy": -0.26432,
				"method": "rhf"
			},
			{
				"type": "occ",
				"energy": -0.25454,
				"method": "rhf"
			},
			{
				"type": "occ",
				"energy": -0.23345,
				"method": "rhf"
			},
			{
				"type": "unocc",
				"energy": -0.0119,
				"method": "rhf"
			},
			{
				"type": "unocc",
				"energy": -0.00725,
				"method": "rhf"
			},
			{
				"type": "unocc",
				"energy": -0.00613,
				"method": "rhf"
			},
			{
				"type": "unocc",
				"energy": 0.03578,
				"method": "rhf"
			},
			{
				"type": "unocc",
				"energy": 0.03643,
				"method": "rhf"
			}
		],
		"cosmo_sigma_profile": { 
			"-0.025": 0.0,
			"-0.024": 0.0,
			"-0.023": 0.0,
			"-0.022": 0.0,
			"-0.021": 0.0,
			"-0.02": 0.0,
			"-0.019": 0.0,
			"-0.018": 0.0,
			"-0.017": 0.0,
			"-0.016": 0.0,
			"-0.015": 0.0,
			"-0.014": 0.0,
			"-0.013": 0.0,
			"-0.012": 0.0,
			"-0.011": 1.02783571828,
			"-0.01": 3.41993150644,
			"-0.009": 3.8807172006,
			"-0.008": 4.53540860609,
			"-0.007": 7.08251351497,
			"-0.006": 12.6689447421,
			"-0.005": 13.0709936474,
			"-0.004": 18.9430451112,
			"-0.003": 23.2980195005,
			"-0.002": 34.9011220992,
			"-0.001": 37.9906430019,
			"0.0": 36.8907990156,
			"0.001": 38.4145981332,
			"0.002": 28.7671503713,
			"0.003": 20.5204613981,
			"0.004": 22.8376755682,
			"0.005": 16.0434862827,
			"0.006": 4.56303951603,
			"0.007": 3.57096576079,
			"0.008": 3.73098727576,
			"0.009": 2.55253625601,
			"0.01": 1.84717289291,
			"0.011": 1.82938146559,
			"0.012": 2.01035517793,
			"0.013": 1.04483111911,
			"0.014": 0.83029503317,
			"0.015": 1.40428532813,
			"0.016": 0.82849976985,
			"0.017": 0.206208433951,
			"0.018": 0.0,
			"0.019": 0.0,
			"0.02": 0.0,
			"0.021": 0.0,
			"0.022": 0.0,
			"0.023": 0.0,
			"0.024": 0.0,
			"0.025": 0.0
		}
	}
}
