{
	 "smiles": "CC(NC(=O)OC(C)(C)C)C(N)=NO", 
	 "Tm": 413.15, 
	 "num_atms": 31, 
	 "gaussian": { 
		 "optdone": 1, 
		 "sigma_profile": "yes", 
		 "theory": "DFT", 
		 "functional": "B3LYP", 
		 "basiset": "6-31G**", 
		 "properties": { 
			 "R2extent": 4173.7668, 
			 "electric_dipole_moment_norm": 3.04753533368, 
			 "electric_quadrupole_moment_norm": 4.76550651138, 
			 "total_energy": -705.015204478, 
			 "HOMO_LUMO_gap": 0.24668, 
			 "cosmo_polarized_energy": -17.2, 
			 "cosmo_cavitation_energy": 33.84, 
			 "cosmo_dispersion_energy": -23.4, 
			 "cosmo_repulsion_energy": 1.92, 
			 "cosmo_total_nonelectrostatic_energy": 12.36, 
			 "SMD_solvation_energy": 6.83 
		},
		"coords": [
			{
				"x": 0.2398099153,
				"y": -2.1323136045,
				"z": 2.3350629485,
				"element": "C" 
			},
			{
				"x": 0.8007744442,
				"y": -0.8443098049,
				"z": 1.7164495261,
				"element": "C" 
			},
			{
				"x": 0.1171414906,
				"y": -0.5797778863,
				"z": 0.4490339685,
				"element": "N" 
			},
			{
				"x": -0.0658222554,
				"y": 0.7057117842,
				"z": -0.0039496739,
				"element": "C" 
			},
			{
				"x": 0.4870579134,
				"y": 1.6814932782,
				"z": 0.4714521197,
				"element": "O" 
			},
			{
				"x": -0.9276037967,
				"y": 0.6885549269,
				"z": -1.0506032375,
				"element": "O" 
			},
			{
				"x": -1.2789643113,
				"y": 1.9311132926,
				"z": -1.7580005438,
				"element": "C" 
			},
			{
				"x": -2.2450280171,
				"y": 1.4369347355,
				"z": -2.8378349196,
				"element": "C" 
			},
			{
				"x": -0.0256395383,
				"y": 2.547176142,
				"z": -2.3888058778,
				"element": "C" 
			},
			{
				"x": -1.9817296823,
				"y": 2.8987471063,
				"z": -0.7998331402,
				"element": "C" 
			},
			{
				"x": 2.3087691332,
				"y": -0.9481221698,
				"z": 1.526843867,
				"element": "C" 
			},
			{
				"x": 2.7681741213,
				"y": -1.567086028,
				"z": 0.3872583995,
				"element": "N" 
			},
			{
				"x": 3.0375264875,
				"y": -0.5460659209,
				"z": 2.508714117,
				"element": "N" 
			},
			{
				"x": 4.4140378161,
				"y": -0.795148625,
				"z": 2.2111780203,
				"element": "O" 
			},
			{
				"x": 0.7346256432,
				"y": -2.3245266767,
				"z": 3.2890304203,
				"element": "H" 
			},
			{
				"x": 0.4221249,
				"y": -2.9914302311,
				"z": 1.6806128739,
				"element": "H" 
			},
			{
				"x": -0.8372081357,
				"y": -2.0405382786,
				"z": 2.5105124489,
				"element": "H" 
			},
			{
				"x": 0.6307173473,
				"y": -0.0018272562,
				"z": 2.3918469684,
				"element": "H" 
			},
			{
				"x": -0.531124641,
				"y": -1.2710410542,
				"z": 0.0998895704,
				"element": "H" 
			},
			{
				"x": -2.5891788699,
				"y": 2.2777795979,
				"z": -3.4472489089,
				"element": "H" 
			},
			{
				"x": -1.7540494542,
				"y": 0.7119806635,
				"z": -3.4936830521,
				"element": "H" 
			},
			{
				"x": -3.1179111786,
				"y": 0.9571546516,
				"z": -2.3854664103,
				"element": "H" 
			},
			{
				"x": 0.675316929,
				"y": 2.8781500969,
				"z": -1.6221029864,
				"element": "H" 
			},
			{
				"x": 0.4721891791,
				"y": 1.8176017598,
				"z": -3.0356822047,
				"element": "H" 
			},
			{
				"x": -0.308891698,
				"y": 3.4073982557,
				"z": -3.0039597902,
				"element": "H" 
			},
			{
				"x": -2.8461489474,
				"y": 2.4130688913,
				"z": -0.3358303004,
				"element": "H" 
			},
			{
				"x": -1.3020134945,
				"y": 3.2355726104,
				"z": -0.0168431398,
				"element": "H" 
			},
			{
				"x": -2.3408934995,
				"y": 3.7706426636,
				"z": -1.3561663965,
				"element": "H" 
			},
			{
				"x": 3.7616724274,
				"y": -1.4530288435,
				"z": 0.2363230284,
				"element": "H" 
			},
			{
				"x": 2.1877001724,
				"y": -1.4221919255,
				"z": -0.4275841449,
				"element": "H" 
			},
			{
				"x": 4.8559695998,
				"y": -0.3430721511,
				"z": 2.9396864501,
				"element": "H" 
			}
		],
		 "valence_orbital": [ 
			{
				"type": "occ",
				"energy": -0.29013,
				"method": "rhf"
			},
			{
				"type": "occ",
				"energy": -0.26756,
				"method": "rhf"
			},
			{
				"type": "occ",
				"energy": -0.26544,
				"method": "rhf"
			},
			{
				"type": "occ",
				"energy": -0.26018,
				"method": "rhf"
			},
			{
				"type": "occ",
				"energy": -0.20553,
				"method": "rhf"
			},
			{
				"type": "unocc",
				"energy": 0.04115,
				"method": "rhf"
			},
			{
				"type": "unocc",
				"energy": 0.04983,
				"method": "rhf"
			},
			{
				"type": "unocc",
				"energy": 0.07152,
				"method": "rhf"
			},
			{
				"type": "unocc",
				"energy": 0.08665,
				"method": "rhf"
			},
			{
				"type": "unocc",
				"energy": 0.09518,
				"method": "rhf"
			}
		],
		"cosmo_sigma_profile": { 
			"-0.025": 0.0,
			"-0.024": 0.0,
			"-0.023": 0.0,
			"-0.022": 0.0,
			"-0.021": 0.0,
			"-0.02": 0.0,
			"-0.019": 0.0,
			"-0.018": 0.0,
			"-0.017": 0.116446321791,
			"-0.016": 0.826981948199,
			"-0.015": 1.02747689342,
			"-0.014": 1.09448089722,
			"-0.013": 1.68742418155,
			"-0.012": 1.69774255496,
			"-0.011": 3.37805195108,
			"-0.01": 3.51724232067,
			"-0.009": 3.57303624139,
			"-0.008": 4.31471663779,
			"-0.007": 3.56884319442,
			"-0.006": 4.47981452895,
			"-0.005": 7.17424025378,
			"-0.004": 21.9936201051,
			"-0.003": 24.0326142189,
			"-0.002": 25.5330821582,
			"-0.001": 26.4232405357,
			"0.0": 32.1972820166,
			"0.001": 20.1524581239,
			"0.002": 9.09800127469,
			"0.003": 7.52860136148,
			"0.004": 6.17781317582,
			"0.005": 6.08369080808,
			"0.006": 6.51103825209,
			"0.007": 7.56598297248,
			"0.008": 6.78871224044,
			"0.009": 6.57321157279,
			"0.01": 5.63073699561,
			"0.011": 4.24434513124,
			"0.012": 4.00395929239,
			"0.013": 3.70334233813,
			"0.014": 1.20898216666,
			"0.015": 0.738721588752,
			"0.016": 0.116364945677,
			"0.017": 0.0,
			"0.018": 0.0,
			"0.019": 0.0,
			"0.02": 0.0,
			"0.021": 0.0,
			"0.022": 0.0,
			"0.023": 0.0,
			"0.024": 0.0,
			"0.025": 0.0
		}
	}
}
