{
	 "smiles": "OC(=O)CNC(=O)C1=CC=CC=C1", 
	 "Tm": 495.15, 
	 "num_atms": 22, 
	 "gaussian": { 
		 "optdone": 1, 
		 "sigma_profile": "yes", 
		 "theory": "DFT", 
		 "functional": "B3LYP", 
		 "basiset": "6-31G**", 
		 "properties": { 
			 "R2extent": 3928.3222, 
			 "electric_dipole_moment_norm": 6.65998405554, 
			 "electric_quadrupole_moment_norm": 23.1212182488, 
			 "total_energy": -628.83659487, 
			 "HOMO_LUMO_gap": 0.19201, 
			 "cosmo_polarized_energy": -17.76, 
			 "cosmo_cavitation_energy": 26.51, 
			 "cosmo_dispersion_energy": -19.64, 
			 "cosmo_repulsion_energy": 1.55, 
			 "cosmo_total_nonelectrostatic_energy": 8.42, 
			 "SMD_solvation_energy": 5.69 
		},
		"coords": [
			{
				"x": -1.67100536,
				"y": -3.3437081687,
				"z": -2.1380614471,
				"element": "O" 
			},
			{
				"x": -2.5787262867,
				"y": -2.5812801215,
				"z": -2.7582632967,
				"element": "C" 
			},
			{
				"x": -2.8273382255,
				"y": -2.685288391,
				"z": -3.9363429565,
				"element": "O" 
			},
			{
				"x": -3.3177475532,
				"y": -1.5732485452,
				"z": -1.853939137,
				"element": "C" 
			},
			{
				"x": -2.450128482,
				"y": -0.6182774459,
				"z": -1.1675148493,
				"element": "N" 
			},
			{
				"x": -1.6858951091,
				"y": -0.9709625333,
				"z": -0.0995027848,
				"element": "C" 
			},
			{
				"x": -1.608223476,
				"y": -2.1554479733,
				"z": 0.2677722773,
				"element": "O" 
			},
			{
				"x": -0.9448383601,
				"y": 0.1157170251,
				"z": 0.6076784398,
				"element": "C" 
			},
			{
				"x": 0.1670400455,
				"y": -0.2535712817,
				"z": 1.3777135992,
				"element": "C" 
			},
			{
				"x": 0.9026454958,
				"y": 0.7149847406,
				"z": 2.0559775731,
				"element": "C" 
			},
			{
				"x": 0.5279637066,
				"y": 2.0590128898,
				"z": 1.9805554015,
				"element": "C" 
			},
			{
				"x": -0.5894425244,
				"y": 2.4319166127,
				"z": 1.2303074592,
				"element": "C" 
			},
			{
				"x": -1.324925938,
				"y": 1.4649083207,
				"z": 0.5466491226,
				"element": "C" 
			},
			{
				"x": -1.6286964783,
				"y": -3.1030209016,
				"z": -1.178389318,
				"element": "H" 
			},
			{
				"x": -3.8803568849,
				"y": -2.1303628321,
				"z": -1.0959639458,
				"element": "H" 
			},
			{
				"x": -4.0179642428,
				"y": -1.0210083902,
				"z": -2.4796541827,
				"element": "H" 
			},
			{
				"x": -2.3315885366,
				"y": 0.2960532454,
				"z": -1.5759348655,
				"element": "H" 
			},
			{
				"x": 0.4353011399,
				"y": -1.3030980091,
				"z": 1.4290509613,
				"element": "H" 
			},
			{
				"x": 1.7673306649,
				"y": 0.4230637322,
				"z": 2.6442277526,
				"element": "H" 
			},
			{
				"x": 1.1005487113,
				"y": 2.8137456482,
				"z": 2.5116336035,
				"element": "H" 
			},
			{
				"x": -0.893962452,
				"y": 3.4731544139,
				"z": 1.1857053645,
				"element": "H" 
			},
			{
				"x": -2.2146898543,
				"y": 1.7630179649,
				"z": -0.0008047712,
				"element": "H" 
			}
		],
		 "valence_orbital": [ 
			{
				"type": "occ",
				"energy": -0.29847,
				"method": "rhf"
			},
			{
				"type": "occ",
				"energy": -0.28486,
				"method": "rhf"
			},
			{
				"type": "occ",
				"energy": -0.2771,
				"method": "rhf"
			},
			{
				"type": "occ",
				"energy": -0.27267,
				"method": "rhf"
			},
			{
				"type": "occ",
				"energy": -0.25215,
				"method": "rhf"
			},
			{
				"type": "unocc",
				"energy": -0.06014,
				"method": "rhf"
			},
			{
				"type": "unocc",
				"energy": -0.02559,
				"method": "rhf"
			},
			{
				"type": "unocc",
				"energy": 0.0118,
				"method": "rhf"
			},
			{
				"type": "unocc",
				"energy": 0.03673,
				"method": "rhf"
			},
			{
				"type": "unocc",
				"energy": 0.05924,
				"method": "rhf"
			}
		],
		"cosmo_sigma_profile": { 
			"-0.025": 0.0,
			"-0.024": 0.0,
			"-0.023": 0.0,
			"-0.022": 0.0,
			"-0.021": 0.0,
			"-0.02": 0.0,
			"-0.019": 0.0,
			"-0.018": 0.0,
			"-0.017": 0.0,
			"-0.016": 0.734549514127,
			"-0.015": 1.47974806529,
			"-0.014": 1.34518030142,
			"-0.013": 1.46214279665,
			"-0.012": 1.49235391551,
			"-0.011": 1.42567387689,
			"-0.01": 1.25225804741,
			"-0.009": 2.50328051912,
			"-0.008": 5.76991455628,
			"-0.007": 7.63455753305,
			"-0.006": 12.9260760733,
			"-0.005": 16.6054108226,
			"-0.004": 15.7253262639,
			"-0.003": 12.9107554329,
			"-0.002": 13.517452033,
			"-0.001": 12.8581961189,
			"0.0": 9.24858517844,
			"0.001": 11.3917587618,
			"0.002": 10.9078623792,
			"0.003": 13.1140754777,
			"0.004": 14.7210110887,
			"0.005": 3.87598896051,
			"0.006": 3.31718755382,
			"0.007": 3.13042109147,
			"0.008": 3.82751154657,
			"0.009": 4.44411036684,
			"0.01": 5.68418221599,
			"0.011": 7.64205339897,
			"0.012": 7.50344265835,
			"0.013": 3.24622122793,
			"0.014": 0.228694608304,
			"0.015": 0.0,
			"0.016": 0.0,
			"0.017": 0.0,
			"0.018": 0.0,
			"0.019": 0.0,
			"0.02": 0.0,
			"0.021": 0.0,
			"0.022": 0.0,
			"0.023": 0.0,
			"0.024": 0.0,
			"0.025": 0.0
		}
	}
}
