{
	 "smiles": "C[C@]12CCC3C(CC[C@H]4CC(CC(O)=O)=CC[C@]34C)C1CCC2=O", 
	 "Tm": 449.15, 
	 "num_atms": 54, 
	 "gaussian": { 
		 "optdone": 1, 
		 "sigma_profile": "yes", 
		 "theory": "DFT", 
		 "functional": "B3LYP", 
		 "basiset": "6-31G**", 
		 "properties": { 
			 "R2extent": 10237.3515, 
			 "electric_dipole_moment_norm": 3.11408296614, 
			 "electric_quadrupole_moment_norm": 42.8434487249, 
			 "total_energy": -1043.99240004, 
			 "HOMO_LUMO_gap": 0.21699, 
			 "cosmo_polarized_energy": -19.59, 
			 "cosmo_cavitation_energy": 47.98, 
			 "cosmo_dispersion_energy": -32.84, 
			 "cosmo_repulsion_energy": 2.43, 
			 "cosmo_total_nonelectrostatic_energy": 17.58, 
			 "SMD_solvation_energy": 8.18 
		},
		"coords": [
			{
				"x": 3.6261292177,
				"y": -2.4763091927,
				"z": -1.2175832543,
				"element": "C" 
			},
			{
				"x": 2.4141803968,
				"y": -1.519335882,
				"z": -1.3162947584,
				"element": "C" 
			},
			{
				"x": 2.8430956007,
				"y": -0.1023970454,
				"z": -0.911821809,
				"element": "C" 
			},
			{
				"x": 1.6985112196,
				"y": 0.9434931328,
				"z": -0.8877000394,
				"element": "C" 
			},
			{
				"x": 0.2721135715,
				"y": 0.3307499356,
				"z": -0.8656679316,
				"element": "C" 
			},
			{
				"x": 0.2551458207,
				"y": -0.9434925091,
				"z": 0.0100366219,
				"element": "C" 
			},
			{
				"x": 0.5380915659,
				"y": -0.5811777463,
				"z": 1.4921765331,
				"element": "C" 
			},
			{
				"x": -0.2065877263,
				"y": 0.7040606443,
				"z": 1.9479896327,
				"element": "C" 
			},
			{
				"x": -1.3777180543,
				"y": 0.9886444568,
				"z": 1.0031871867,
				"element": "C" 
			},
			{
				"x": -2.4032562923,
				"y": 2.0163143518,
				"z": 1.4946193838,
				"element": "C" 
			},
			{
				"x": -3.5079056495,
				"y": 2.2072279845,
				"z": 0.471997407,
				"element": "C" 
			},
			{
				"x": -4.7811886759,
				"y": 2.8983681337,
				"z": 0.9288543432,
				"element": "C" 
			},
			{
				"x": -5.6003585581,
				"y": 2.028850689,
				"z": 1.8872995033,
				"element": "C" 
			},
			{
				"x": -5.3022368609,
				"y": 2.1534213868,
				"z": 3.2135818885,
				"element": "O" 
			},
			{
				"x": -6.4419637904,
				"y": 1.2454092098,
				"z": 1.5315366692,
				"element": "O" 
			},
			{
				"x": -3.3715251733,
				"y": 1.7772884942,
				"z": -0.7914823097,
				"element": "C" 
			},
			{
				"x": -2.1269883056,
				"y": 1.122970876,
				"z": -1.347140098,
				"element": "C" 
			},
			{
				"x": -0.8882747629,
				"y": 1.3231558516,
				"z": -0.4400892669,
				"element": "C" 
			},
			{
				"x": -0.4504879246,
				"y": 2.8007667979,
				"z": -0.5697946276,
				"element": "C" 
			},
			{
				"x": 1.2016263354,
				"y": -2.0643848906,
				"z": -0.5114569854,
				"element": "C" 
			},
			{
				"x": 0.5121972695,
				"y": -3.0614948069,
				"z": -1.4931025438,
				"element": "C" 
			},
			{
				"x": 0.7407140578,
				"y": -2.5081171067,
				"z": -2.9105333825,
				"element": "C" 
			},
			{
				"x": 1.9458677176,
				"y": -1.5716798177,
				"z": -2.7858411565,
				"element": "C" 
			},
			{
				"x": 2.4674618324,
				"y": -0.9676951687,
				"z": -3.699642835,
				"element": "O" 
			},
			{
				"x": 3.3670767384,
				"y": -3.5025931381,
				"z": -1.4989111319,
				"element": "H" 
			},
			{
				"x": 4.0034494453,
				"y": -2.4972931727,
				"z": -0.1894282486,
				"element": "H" 
			},
			{
				"x": 4.4327623511,
				"y": -2.1404891087,
				"z": -1.8763844942,
				"element": "H" 
			},
			{
				"x": 3.3118207897,
				"y": -0.166005592,
				"z": 0.0776829283,
				"element": "H" 
			},
			{
				"x": 3.6252831883,
				"y": 0.2253305081,
				"z": -1.6042643985,
				"element": "H" 
			},
			{
				"x": 1.8488534471,
				"y": 1.5888239172,
				"z": -0.0179628932,
				"element": "H" 
			},
			{
				"x": 1.7875114684,
				"y": 1.5922439969,
				"z": -1.7633823238,
				"element": "H" 
			},
			{
				"x": 0.0492535233,
				"y": 0.0332563015,
				"z": -1.8989525682,
				"element": "H" 
			},
			{
				"x": -0.759187726,
				"y": -1.3590096891,
				"z": -0.0287962849,
				"element": "H" 
			},
			{
				"x": 0.2322426577,
				"y": -1.4313208279,
				"z": 2.1142107798,
				"element": "H" 
			},
			{
				"x": 1.6156987635,
				"y": -0.4661167344,
				"z": 1.6524141917,
				"element": "H" 
			},
			{
				"x": -0.568131076,
				"y": 0.5866858051,
				"z": 2.9766828277,
				"element": "H" 
			},
			{
				"x": 0.4769643991,
				"y": 1.562152072,
				"z": 1.9641915517,
				"element": "H" 
			},
			{
				"x": -1.947929932,
				"y": 0.0527755008,
				"z": 0.9281136759,
				"element": "H" 
			},
			{
				"x": -2.8324429864,
				"y": 1.6592781,
				"z": 2.4409500338,
				"element": "H" 
			},
			{
				"x": -1.9288202378,
				"y": 2.9833675482,
				"z": 1.7256484317,
				"element": "H" 
			},
			{
				"x": -5.4231296728,
				"y": 3.1067911525,
				"z": 0.070743905,
				"element": "H" 
			},
			{
				"x": -4.5379959564,
				"y": 3.8590561742,
				"z": 1.4070479369,
				"element": "H" 
			},
			{
				"x": -4.6387908358,
				"y": 2.8451025519,
				"z": 3.3412262312,
				"element": "H" 
			},
			{
				"x": -4.2010751829,
				"y": 1.9106184893,
				"z": -1.4844918871,
				"element": "H" 
			},
			{
				"x": -2.3182077912,
				"y": 0.0476498531,
				"z": -1.4888851913,
				"element": "H" 
			},
			{
				"x": -1.9261519304,
				"y": 1.5201618972,
				"z": -2.3522246003,
				"element": "H" 
			},
			{
				"x": -0.0131108909,
				"y": 2.9868893023,
				"z": -1.5551768353,
				"element": "H" 
			},
			{
				"x": 0.2901627165,
				"y": 3.0928354309,
				"z": 0.1796543706,
				"element": "H" 
			},
			{
				"x": -1.3066559365,
				"y": 3.4715379103,
				"z": -0.4692751712,
				"element": "H" 
			},
			{
				"x": 1.5582189966,
				"y": -2.6224730091,
				"z": 0.3629220501,
				"element": "H" 
			},
			{
				"x": 0.981561754,
				"y": -4.0466904439,
				"z": -1.400177205,
				"element": "H" 
			},
			{
				"x": -0.5474724396,
				"y": -3.1968327626,
				"z": -1.2566422842,
				"element": "H" 
			},
			{
				"x": 0.9343022991,
				"y": -3.2722348419,
				"z": -3.6700420522,
				"element": "H" 
			},
			{
				"x": -0.1089027749,
				"y": -1.9201349696,
				"z": -3.2767195159,
				"element": "H" 
			}
		],
		 "valence_orbital": [ 
			{
				"type": "occ",
				"energy": -0.28216,
				"method": "rhf"
			},
			{
				"type": "occ",
				"energy": -0.28048,
				"method": "rhf"
			},
			{
				"type": "occ",
				"energy": -0.27555,
				"method": "rhf"
			},
			{
				"type": "occ",
				"energy": -0.24185,
				"method": "rhf"
			},
			{
				"type": "occ",
				"energy": -0.23448,
				"method": "rhf"
			},
			{
				"type": "unocc",
				"energy": -0.01749,
				"method": "rhf"
			},
			{
				"type": "unocc",
				"energy": -0.00461,
				"method": "rhf"
			},
			{
				"type": "unocc",
				"energy": 0.03003,
				"method": "rhf"
			},
			{
				"type": "unocc",
				"energy": 0.05114,
				"method": "rhf"
			},
			{
				"type": "unocc",
				"energy": 0.0581,
				"method": "rhf"
			}
		],
		"cosmo_sigma_profile": { 
			"-0.025": 0.0,
			"-0.024": 0.0,
			"-0.023": 0.0,
			"-0.022": 0.0,
			"-0.021": 0.0,
			"-0.02": 0.0,
			"-0.019": 0.012827737412,
			"-0.018": 0.962826128807,
			"-0.017": 0.899672765395,
			"-0.016": 0.813048539932,
			"-0.015": 1.10393790522,
			"-0.014": 1.06207386868,
			"-0.013": 1.22063631124,
			"-0.012": 1.01958575192,
			"-0.011": 1.06714948429,
			"-0.01": 1.22708244477,
			"-0.009": 1.32138565306,
			"-0.008": 1.46706119455,
			"-0.007": 1.62395784927,
			"-0.006": 3.80947290325,
			"-0.005": 11.6333926298,
			"-0.004": 17.8008122829,
			"-0.003": 41.4534952814,
			"-0.002": 62.3095175905,
			"-0.001": 59.2078639401,
			"0.0": 44.4759779649,
			"0.001": 31.7020695184,
			"0.002": 16.1226885939,
			"0.003": 7.46543495472,
			"0.004": 5.8128308392,
			"0.005": 5.28496323487,
			"0.006": 4.70654918841,
			"0.007": 4.04817861839,
			"0.008": 4.54662848703,
			"0.009": 4.84081668941,
			"0.01": 5.78138275946,
			"0.011": 8.2019394193,
			"0.012": 10.0073653145,
			"0.013": 5.85171510077,
			"0.014": 0.551825648283,
			"0.015": 0.0,
			"0.016": 0.0,
			"0.017": 0.0,
			"0.018": 0.0,
			"0.019": 0.0,
			"0.02": 0.0,
			"0.021": 0.0,
			"0.022": 0.0,
			"0.023": 0.0,
			"0.024": 0.0,
			"0.025": 0.0
		}
	}
}
