{
	 "smiles": "BrC1CCCN(C1=O)C1=CC=CC=C1", 
	 "Tm": 354.15, 
	 "num_atms": 26, 
	 "gaussian": { 
		 "optdone": 1, 
		 "sigma_profile": "yes", 
		 "theory": "DFT", 
		 "functional": "B3LYP", 
		 "basiset": "6-31G**", 
		 "properties": { 
			 "R2extent": 6871.2206, 
			 "electric_dipole_moment_norm": 4.99361680749, 
			 "electric_quadrupole_moment_norm": 21.3945826183, 
			 "total_energy": -3127.79242676, 
			 "HOMO_LUMO_gap": 0.21083, 
			 "cosmo_polarized_energy": -14.43, 
			 "cosmo_cavitation_energy": 30.34, 
			 "cosmo_dispersion_energy": -22.68, 
			 "cosmo_repulsion_energy": 1.78, 
			 "cosmo_total_nonelectrostatic_energy": 9.45, 
			 "SMD_solvation_energy": 3.81 
		},
		"coords": [
			{
				"x": 2.527322983,
				"y": 4.5668180834,
				"z": -1.6045733802,
				"element": "Br" 
			},
			{
				"x": 1.9532974995,
				"y": 2.966333265,
				"z": -0.6239853759,
				"element": "C" 
			},
			{
				"x": 3.0393716465,
				"y": 1.8828326786,
				"z": -0.675270775,
				"element": "C" 
			},
			{
				"x": 2.5361606081,
				"y": 0.568344314,
				"z": -0.0221490119,
				"element": "C" 
			},
			{
				"x": 1.1054071192,
				"y": 0.7030315635,
				"z": 0.5165913679,
				"element": "C" 
			},
			{
				"x": 0.2174868591,
				"y": 1.2779391511,
				"z": -0.5073474398,
				"element": "N" 
			},
			{
				"x": 0.5978010192,
				"y": 2.4526299123,
				"z": -1.1433124393,
				"element": "C" 
			},
			{
				"x": -0.0648200231,
				"y": 3.0148940791,
				"z": -1.9948793893,
				"element": "O" 
			},
			{
				"x": -1.0681646444,
				"y": 0.6925405669,
				"z": -0.7340833612,
				"element": "C" 
			},
			{
				"x": -1.5940514468,
				"y": 0.5820177304,
				"z": -2.0293751687,
				"element": "C" 
			},
			{
				"x": -2.8362062277,
				"y": -0.0190520861,
				"z": -2.223814356,
				"element": "C" 
			},
			{
				"x": -3.5649764002,
				"y": -0.5222816864,
				"z": -1.1440201391,
				"element": "C" 
			},
			{
				"x": -3.0428621085,
				"y": -0.4103422147,
				"z": 0.1441234285,
				"element": "C" 
			},
			{
				"x": -1.8055290583,
				"y": 0.2000556613,
				"z": 0.3517205476,
				"element": "C" 
			},
			{
				"x": 1.8186223133,
				"y": 3.3162759655,
				"z": 0.4030210487,
				"element": "H" 
			},
			{
				"x": 3.3066173128,
				"y": 1.7114843732,
				"z": -1.7212141508,
				"element": "H" 
			},
			{
				"x": 3.9372253171,
				"y": 2.2589986004,
				"z": -0.1785984223,
				"element": "H" 
			},
			{
				"x": 2.5520615305,
				"y": -0.2409012836,
				"z": -0.7583078207,
				"element": "H" 
			},
			{
				"x": 3.1919926624,
				"y": 0.2663507049,
				"z": 0.8009451197,
				"element": "H" 
			},
			{
				"x": 1.0927929029,
				"y": 1.3127937542,
				"z": 1.4313484544,
				"element": "H" 
			},
			{
				"x": 0.715284205,
				"y": -0.2799954934,
				"z": 0.7823906893,
				"element": "H" 
			},
			{
				"x": -1.037299194,
				"y": 0.9755984759,
				"z": -2.8688873237,
				"element": "H" 
			},
			{
				"x": -3.2327682639,
				"y": -0.0990948057,
				"z": -3.2318472128,
				"element": "H" 
			},
			{
				"x": -4.530260597,
				"y": -0.9926264093,
				"z": -1.3053188037,
				"element": "H" 
			},
			{
				"x": -3.6010452617,
				"y": -0.7873799496,
				"z": 0.9962391764,
				"element": "H" 
			},
			{
				"x": -1.4237607534,
				"y": 0.3066350491,
				"z": 1.3622047377,
				"element": "H" 
			}
		],
		 "valence_orbital": [ 
			{
				"type": "occ",
				"energy": -0.271,
				"method": "rhf"
			},
			{
				"type": "occ",
				"energy": -0.26948,
				"method": "rhf"
			},
			{
				"type": "occ",
				"energy": -0.25944,
				"method": "rhf"
			},
			{
				"type": "occ",
				"energy": -0.24919,
				"method": "rhf"
			},
			{
				"type": "occ",
				"energy": -0.22594,
				"method": "rhf"
			},
			{
				"type": "unocc",
				"energy": -0.01511,
				"method": "rhf"
			},
			{
				"type": "unocc",
				"energy": -0.00412,
				"method": "rhf"
			},
			{
				"type": "unocc",
				"energy": 0.00289,
				"method": "rhf"
			},
			{
				"type": "unocc",
				"energy": 0.02742,
				"method": "rhf"
			},
			{
				"type": "unocc",
				"energy": 0.07118,
				"method": "rhf"
			}
		],
		"cosmo_sigma_profile": { 
			"-0.025": 0.0,
			"-0.024": 0.0,
			"-0.023": 0.0,
			"-0.022": 0.0,
			"-0.021": 0.0,
			"-0.02": 0.0,
			"-0.019": 0.0,
			"-0.018": 0.0,
			"-0.017": 0.0,
			"-0.016": 0.0,
			"-0.015": 0.0,
			"-0.014": 0.0,
			"-0.013": 0.0,
			"-0.012": 0.0,
			"-0.011": 0.0,
			"-0.01": 0.0737998527869,
			"-0.009": 3.05880558145,
			"-0.008": 2.65810492594,
			"-0.007": 3.2980740974,
			"-0.006": 11.6199761863,
			"-0.005": 24.6523395279,
			"-0.004": 31.1420992264,
			"-0.003": 22.7450293865,
			"-0.002": 17.0437208639,
			"-0.001": 17.9403446644,
			"0.0": 11.773645707,
			"0.001": 9.30056451366,
			"0.002": 12.3877157296,
			"0.003": 10.7555751089,
			"0.004": 13.6521254038,
			"0.005": 17.2160033316,
			"0.006": 12.9454175869,
			"0.007": 2.75786931532,
			"0.008": 2.2827298894,
			"0.009": 2.33129557139,
			"0.01": 1.82200315754,
			"0.011": 2.76593195634,
			"0.012": 3.11002453562,
			"0.013": 4.29748205107,
			"0.014": 1.72688379535,
			"0.015": 0.127272726584,
			"0.016": 0.0,
			"0.017": 0.0,
			"0.018": 0.0,
			"0.019": 0.0,
			"0.02": 0.0,
			"0.021": 0.0,
			"0.022": 0.0,
			"0.023": 0.0,
			"0.024": 0.0,
			"0.025": 0.0
		}
	}
}
