{
	 "smiles": "OC(=O)CCS(=O)(=O)NC1=CC=CC=C1", 
	 "Tm": 401.15, 
	 "num_atms": 26, 
	 "gaussian": { 
		 "optdone": 1, 
		 "sigma_profile": "yes", 
		 "theory": "DFT", 
		 "functional": "B3LYP", 
		 "basiset": "6-31G**", 
		 "properties": { 
			 "R2extent": 3732.3271, 
			 "electric_dipole_moment_norm": 6.39404616655, 
			 "electric_quadrupole_moment_norm": 21.2024283072, 
			 "total_energy": -1103.36512609, 
			 "HOMO_LUMO_gap": 0.22496, 
			 "cosmo_polarized_energy": -20.81, 
			 "cosmo_cavitation_energy": 31.06, 
			 "cosmo_dispersion_energy": -22.5, 
			 "cosmo_repulsion_energy": 1.73, 
			 "cosmo_total_nonelectrostatic_energy": 10.29, 
			 "SMD_solvation_energy": 5.7 
		},
		"coords": [
			{
				"x": 1.8469743602,
				"y": 2.4351379541,
				"z": 0.9186538836,
				"element": "O" 
			},
			{
				"x": 2.2265567792,
				"y": 2.3846095928,
				"z": -0.366745684,
				"element": "C" 
			},
			{
				"x": 2.7789065611,
				"y": 3.318495168,
				"z": -0.8991736365,
				"element": "O" 
			},
			{
				"x": 1.9229057053,
				"y": 1.0922963897,
				"z": -1.1400963332,
				"element": "C" 
			},
			{
				"x": 2.4317522714,
				"y": -0.2089301775,
				"z": -0.4920929991,
				"element": "C" 
			},
			{
				"x": 1.2547271244,
				"y": -1.0295888903,
				"z": 0.6175619835,
				"element": "S" 
			},
			{
				"x": 1.9179070897,
				"y": -2.1869537497,
				"z": 1.2193184523,
				"element": "O" 
			},
			{
				"x": 0.6534434933,
				"y": 0.0254971672,
				"z": 1.4621493415,
				"element": "O" 
			},
			{
				"x": 0.0789364974,
				"y": -1.6665602886,
				"z": -0.4180532721,
				"element": "N" 
			},
			{
				"x": -1.1778984827,
				"y": -0.996476286,
				"z": -0.6571598091,
				"element": "C" 
			},
			{
				"x": -2.1058026458,
				"y": -0.7782755799,
				"z": 0.367596579,
				"element": "C" 
			},
			{
				"x": -3.3194847687,
				"y": -0.1556428401,
				"z": 0.0767550064,
				"element": "C" 
			},
			{
				"x": -3.6117025347,
				"y": 0.2431289502,
				"z": -1.2296893578,
				"element": "C" 
			},
			{
				"x": -2.686693964,
				"y": 0.0205932733,
				"z": -2.2512058184,
				"element": "C" 
			},
			{
				"x": -1.4683690514,
				"y": -0.5973215621,
				"z": -1.9656985157,
				"element": "C" 
			},
			{
				"x": 1.3629745517,
				"y": 1.6264753096,
				"z": 1.1948929512,
				"element": "H" 
			},
			{
				"x": 0.8448480463,
				"y": 1.0341180279,
				"z": -1.3291584772,
				"element": "H" 
			},
			{
				"x": 2.408947253,
				"y": 1.2095558503,
				"z": -2.1100642715,
				"element": "H" 
			},
			{
				"x": 3.3185810227,
				"y": -0.0473408711,
				"z": 0.1287640462,
				"element": "H" 
			},
			{
				"x": 2.6773359468,
				"y": -0.9643196309,
				"z": -1.2411315722,
				"element": "H" 
			},
			{
				"x": 0.0185427696,
				"y": -2.6627752475,
				"z": -0.2219500808,
				"element": "H" 
			},
			{
				"x": -1.8684817722,
				"y": -1.0805717197,
				"z": 1.3816189154,
				"element": "H" 
			},
			{
				"x": -4.0370665221,
				"y": 0.0183572165,
				"z": 0.87273901,
				"element": "H" 
			},
			{
				"x": -4.558656047,
				"y": 0.726547059,
				"z": -1.4504073113,
				"element": "H" 
			},
			{
				"x": -2.9114642245,
				"y": 0.3258435705,
				"z": -3.2686128866,
				"element": "H" 
			},
			{
				"x": -0.7405194591,
				"y": -0.7866986857,
				"z": -2.7484101436,
				"element": "H" 
			}
		],
		 "valence_orbital": [ 
			{
				"type": "occ",
				"energy": -0.30293,
				"method": "rhf"
			},
			{
				"type": "occ",
				"energy": -0.30135,
				"method": "rhf"
			},
			{
				"type": "occ",
				"energy": -0.27567,
				"method": "rhf"
			},
			{
				"type": "occ",
				"energy": -0.27411,
				"method": "rhf"
			},
			{
				"type": "occ",
				"energy": -0.26113,
				"method": "rhf"
			},
			{
				"type": "unocc",
				"energy": -0.03617,
				"method": "rhf"
			},
			{
				"type": "unocc",
				"energy": -0.02693,
				"method": "rhf"
			},
			{
				"type": "unocc",
				"energy": 0.01333,
				"method": "rhf"
			},
			{
				"type": "unocc",
				"energy": 0.03568,
				"method": "rhf"
			},
			{
				"type": "unocc",
				"energy": 0.0505,
				"method": "rhf"
			}
		],
		"cosmo_sigma_profile": { 
			"-0.025": 0.0,
			"-0.024": 0.0,
			"-0.023": 0.0,
			"-0.022": 0.0,
			"-0.021": 0.0,
			"-0.02": 0.0,
			"-0.019": 0.0,
			"-0.018": 0.0,
			"-0.017": 0.0,
			"-0.016": 0.328003621975,
			"-0.015": 0.7470346067,
			"-0.014": 1.1993567228,
			"-0.013": 0.705403349556,
			"-0.012": 0.811540921878,
			"-0.011": 1.3829898138,
			"-0.01": 3.71743979901,
			"-0.009": 6.83872664797,
			"-0.008": 7.74605464625,
			"-0.007": 10.2566584205,
			"-0.006": 19.4539170919,
			"-0.005": 19.6520125063,
			"-0.004": 20.1196778908,
			"-0.003": 13.973696307,
			"-0.002": 11.1700209728,
			"-0.001": 11.7923116858,
			"0.0": 9.52261834849,
			"0.001": 10.5415480029,
			"0.002": 10.7623540172,
			"0.003": 11.4050859303,
			"0.004": 13.6395861019,
			"0.005": 9.19946462758,
			"0.006": 5.01524806189,
			"0.007": 5.30267443752,
			"0.008": 5.65456822378,
			"0.009": 6.14042474859,
			"0.01": 11.2712183943,
			"0.011": 9.17379486173,
			"0.012": 6.24274974012,
			"0.013": 3.1205038702,
			"0.014": 0.435574649454,
			"0.015": 0.0,
			"0.016": 0.0,
			"0.017": 0.0,
			"0.018": 0.0,
			"0.019": 0.0,
			"0.02": 0.0,
			"0.021": 0.0,
			"0.022": 0.0,
			"0.023": 0.0,
			"0.024": 0.0,
			"0.025": 0.0
		}
	}
}
