{
	 "smiles": "CNC(=O)NCCC(O)=O", 
	 "Tm": 403.15, 
	 "num_atms": 20, 
	 "gaussian": { 
		 "optdone": 1, 
		 "sigma_profile": "yes", 
		 "theory": "DFT", 
		 "functional": "B3LYP", 
		 "basiset": "6-31G**", 
		 "properties": { 
			 "R2extent": 2458.0543, 
			 "electric_dipole_moment_norm": 5.32549722467, 
			 "electric_quadrupole_moment_norm": 16.6397364691, 
			 "total_energy": -531.769927945, 
			 "HOMO_LUMO_gap": 0.25285, 
			 "cosmo_polarized_energy": -20.09, 
			 "cosmo_cavitation_energy": 24.39, 
			 "cosmo_dispersion_energy": -17.69, 
			 "cosmo_repulsion_energy": 1.49, 
			 "cosmo_total_nonelectrostatic_energy": 8.2, 
			 "SMD_solvation_energy": 4.95 
		},
		"coords": [
			{
				"x": 0.2401636922,
				"y": 3.3640756974,
				"z": 0.8783028279,
				"element": "C" 
			},
			{
				"x": 0.7845207283,
				"y": 2.8227479978,
				"z": -0.3551370004,
				"element": "N" 
			},
			{
				"x": 0.2852574235,
				"y": 1.7240324764,
				"z": -1.0299075852,
				"element": "C" 
			},
			{
				"x": 0.5546608495,
				"y": 1.5073581595,
				"z": -2.2078599146,
				"element": "O" 
			},
			{
				"x": -0.5384741794,
				"y": 0.8965032564,
				"z": -0.2881471152,
				"element": "N" 
			},
			{
				"x": -0.9751771333,
				"y": -0.3694427551,
				"z": -0.8561852216,
				"element": "C" 
			},
			{
				"x": 0.1273882605,
				"y": -1.4491224337,
				"z": -0.8569078169,
				"element": "C" 
			},
			{
				"x": -0.3343025328,
				"y": -2.787080606,
				"z": -1.3906306409,
				"element": "C" 
			},
			{
				"x": -1.4948702129,
				"y": -3.1902166765,
				"z": -0.8054499761,
				"element": "O" 
			},
			{
				"x": 0.233343978,
				"y": -3.457719445,
				"z": -2.2223546498,
				"element": "O" 
			},
			{
				"x": -0.8446910966,
				"y": 3.5299380251,
				"z": 0.8318190085,
				"element": "H" 
			},
			{
				"x": 0.4533586283,
				"y": 2.7106365637,
				"z": 1.7346676641,
				"element": "H" 
			},
			{
				"x": 0.7249608809,
				"y": 4.3203364934,
				"z": 1.0845289046,
				"element": "H" 
			},
			{
				"x": 1.2439348096,
				"y": 3.4623958418,
				"z": -0.9863660082,
				"element": "H" 
			},
			{
				"x": -0.4966891024,
				"y": 0.9568978819,
				"z": 0.7187432478,
				"element": "H" 
			},
			{
				"x": -1.8445864156,
				"y": -0.7174878671,
				"z": -0.293344933,
				"element": "H" 
			},
			{
				"x": -1.2902327745,
				"y": -0.1733314913,
				"z": -1.8833113741,
				"element": "H" 
			},
			{
				"x": 0.4785789764,
				"y": -1.6090332365,
				"z": 0.1712208274,
				"element": "H" 
			},
			{
				"x": 0.9715297529,
				"y": -1.1187370564,
				"z": -1.4633116575,
				"element": "H" 
			},
			{
				"x": -1.7078745326,
				"y": -4.0509508258,
				"z": -1.2038685865,
				"element": "H" 
			}
		],
		 "valence_orbital": [ 
			{
				"type": "occ",
				"energy": -0.31695,
				"method": "rhf"
			},
			{
				"type": "occ",
				"energy": -0.27733,
				"method": "rhf"
			},
			{
				"type": "occ",
				"energy": -0.25807,
				"method": "rhf"
			},
			{
				"type": "occ",
				"energy": -0.24908,
				"method": "rhf"
			},
			{
				"type": "occ",
				"energy": -0.24401,
				"method": "rhf"
			},
			{
				"type": "unocc",
				"energy": 0.00884,
				"method": "rhf"
			},
			{
				"type": "unocc",
				"energy": 0.05644,
				"method": "rhf"
			},
			{
				"type": "unocc",
				"energy": 0.06511,
				"method": "rhf"
			},
			{
				"type": "unocc",
				"energy": 0.07792,
				"method": "rhf"
			},
			{
				"type": "unocc",
				"energy": 0.09407,
				"method": "rhf"
			}
		],
		"cosmo_sigma_profile": { 
			"-0.025": 0.0,
			"-0.024": 0.0,
			"-0.023": 0.0,
			"-0.022": 0.0,
			"-0.021": 0.0,
			"-0.02": 0.0,
			"-0.019": 0.016787141267,
			"-0.018": 0.660494646574,
			"-0.017": 0.886668298939,
			"-0.016": 0.935046837643,
			"-0.015": 0.748763171152,
			"-0.014": 1.02132518013,
			"-0.013": 2.05996525495,
			"-0.012": 2.78463880308,
			"-0.011": 3.88921344539,
			"-0.01": 3.04856655842,
			"-0.009": 3.4473467646,
			"-0.008": 2.69484154382,
			"-0.007": 6.39116252699,
			"-0.006": 9.62415356613,
			"-0.005": 11.5195444771,
			"-0.004": 12.21344129,
			"-0.003": 15.1732982198,
			"-0.002": 17.8836166857,
			"-0.001": 12.0883228619,
			"0.0": 7.63619866536,
			"0.001": 6.67703515575,
			"0.002": 6.67594934646,
			"0.003": 6.07063525608,
			"0.004": 5.87261893591,
			"0.005": 6.2927955196,
			"0.006": 4.52950619966,
			"0.007": 4.75469429487,
			"0.008": 5.0856984259,
			"0.009": 4.77510365294,
			"0.01": 3.47005277827,
			"0.011": 4.88239261706,
			"0.012": 5.97251297216,
			"0.013": 2.4970754157,
			"0.014": 3.48853119043,
			"0.015": 4.68046453937,
			"0.016": 0.318732736946,
			"0.017": 0.0,
			"0.018": 0.0,
			"0.019": 0.0,
			"0.02": 0.0,
			"0.021": 0.0,
			"0.022": 0.0,
			"0.023": 0.0,
			"0.024": 0.0,
			"0.025": 0.0
		}
	}
}
