{
	 "smiles": "CCCNC(=O)C(C(F)(F)F)C(F)(F)F", 
	 "Tm": 379.15, 
	 "num_atms": 24, 
	 "gaussian": { 
		 "optdone": 1, 
		 "sigma_profile": "yes", 
		 "theory": "DFT", 
		 "functional": "B3LYP", 
		 "basiset": "6-31G**", 
		 "properties": { 
			 "R2extent": 3135.6735, 
			 "electric_dipole_moment_norm": 2.93131331829, 
			 "electric_quadrupole_moment_norm": 7.68486531047, 
			 "total_energy": -1001.21056236, 
			 "HOMO_LUMO_gap": 0.26231, 
			 "cosmo_polarized_energy": -8.83, 
			 "cosmo_cavitation_energy": 28.94, 
			 "cosmo_dispersion_energy": -19.69, 
			 "cosmo_repulsion_energy": 1.46, 
			 "cosmo_total_nonelectrostatic_energy": 10.7, 
			 "SMD_solvation_energy": 7.14 
		},
		"coords": [
			{
				"x": 1.1579459353,
				"y": 3.3966228228,
				"z": -2.2144325032,
				"element": "C" 
			},
			{
				"x": 0.9900485521,
				"y": 1.8864357681,
				"z": -2.4076758769,
				"element": "C" 
			},
			{
				"x": -0.2356378574,
				"y": 1.2958722421,
				"z": -1.6930939575,
				"element": "C" 
			},
			{
				"x": -0.2002711698,
				"y": 1.453759071,
				"z": -0.2383924665,
				"element": "N" 
			},
			{
				"x": 0.1434679576,
				"y": 0.6150911412,
				"z": 0.7770660001,
				"element": "C" 
			},
			{
				"x": 0.2488556529,
				"y": 1.0175131892,
				"z": 1.9278279641,
				"element": "O" 
			},
			{
				"x": 0.3664193314,
				"y": -0.9078057788,
				"z": 0.5455751866,
				"element": "C" 
			},
			{
				"x": 1.5307687503,
				"y": -1.3024543445,
				"z": -0.3680151193,
				"element": "C" 
			},
			{
				"x": 2.5284794453,
				"y": -0.3989028796,
				"z": -0.2601336051,
				"element": "F" 
			},
			{
				"x": 2.0243699774,
				"y": -2.5007350224,
				"z": -0.0111599641,
				"element": "F" 
			},
			{
				"x": 1.2000769985,
				"y": -1.3852884814,
				"z": -1.6751748428,
				"element": "F" 
			},
			{
				"x": -0.9188083261,
				"y": -1.6883776262,
				"z": 0.2632428761,
				"element": "C" 
			},
			{
				"x": -1.8390040137,
				"y": -1.3962666965,
				"z": 1.1989725736,
				"element": "F" 
			},
			{
				"x": -1.4666483128,
				"y": -1.4154039672,
				"z": -0.9395778714,
				"element": "F" 
			},
			{
				"x": -0.6874009528,
				"y": -3.0146839166,
				"z": 0.3043147264,
				"element": "F" 
			},
			{
				"x": 0.2738050925,
				"y": 3.9448785855,
				"z": -2.5609205992,
				"element": "H" 
			},
			{
				"x": 2.01926581,
				"y": 3.7694294942,
				"z": -2.7766190676,
				"element": "H" 
			},
			{
				"x": 1.3245631625,
				"y": 3.6540463871,
				"z": -1.1626719877,
				"element": "H" 
			},
			{
				"x": 1.8875810703,
				"y": 1.361960281,
				"z": -2.0634251639,
				"element": "H" 
			},
			{
				"x": 0.8846763726,
				"y": 1.6618447363,
				"z": -3.4767292523,
				"element": "H" 
			},
			{
				"x": -1.1474954483,
				"y": 1.7908143711,
				"z": -2.0501523077,
				"element": "H" 
			},
			{
				"x": -0.3388610824,
				"y": 0.2421285701,
				"z": -1.9324053966,
				"element": "H" 
			},
			{
				"x": -0.3073632714,
				"y": 2.3979791276,
				"z": 0.1126531562,
				"element": "H" 
			},
			{
				"x": 0.6760663261,
				"y": -1.2349570739,
				"z": 1.5402274987,
				"element": "H" 
			}
		],
		 "valence_orbital": [ 
			{
				"type": "occ",
				"energy": -0.36227,
				"method": "rhf"
			},
			{
				"type": "occ",
				"energy": -0.35708,
				"method": "rhf"
			},
			{
				"type": "occ",
				"energy": -0.35196,
				"method": "rhf"
			},
			{
				"type": "occ",
				"energy": -0.2705,
				"method": "rhf"
			},
			{
				"type": "occ",
				"energy": -0.26415,
				"method": "rhf"
			},
			{
				"type": "unocc",
				"energy": -0.00184,
				"method": "rhf"
			},
			{
				"type": "unocc",
				"energy": 0.06474,
				"method": "rhf"
			},
			{
				"type": "unocc",
				"energy": 0.08055,
				"method": "rhf"
			},
			{
				"type": "unocc",
				"energy": 0.09311,
				"method": "rhf"
			},
			{
				"type": "unocc",
				"energy": 0.10787,
				"method": "rhf"
			}
		],
		"cosmo_sigma_profile": { 
			"-0.025": 0.0,
			"-0.024": 0.0,
			"-0.023": 0.0,
			"-0.022": 0.0,
			"-0.021": 0.0,
			"-0.02": 0.0,
			"-0.019": 0.0,
			"-0.018": 0.0,
			"-0.017": 0.0,
			"-0.016": 0.0,
			"-0.015": 0.0,
			"-0.014": 0.116268563085,
			"-0.013": 0.754409639578,
			"-0.012": 1.06695571957,
			"-0.011": 2.03320882138,
			"-0.01": 3.08638092221,
			"-0.009": 2.3853859724,
			"-0.008": 2.94497074953,
			"-0.007": 2.39950200186,
			"-0.006": 2.95143899291,
			"-0.005": 5.82865905748,
			"-0.004": 9.09047658985,
			"-0.003": 16.4951937242,
			"-0.002": 17.6686052471,
			"-0.001": 24.683086464,
			"0.0": 28.9043701684,
			"0.001": 40.8522290931,
			"0.002": 44.6537232972,
			"0.003": 3.1395984852,
			"0.004": 1.35132451677,
			"0.005": 1.10228217799,
			"0.006": 1.54660025309,
			"0.007": 1.02878919824,
			"0.008": 1.19415674049,
			"0.009": 1.47282252781,
			"0.01": 1.19189974047,
			"0.011": 1.63770144715,
			"0.012": 4.35194127223,
			"0.013": 4.33333424362,
			"0.014": 0.169953648045,
			"0.015": 0.0,
			"0.016": 0.0,
			"0.017": 0.0,
			"0.018": 0.0,
			"0.019": 0.0,
			"0.02": 0.0,
			"0.021": 0.0,
			"0.022": 0.0,
			"0.023": 0.0,
			"0.024": 0.0,
			"0.025": 0.0
		}
	}
}
