{
	 "smiles": "CNC(CC1=CC=C(O)C=C1)C(O)=O", 
	 "Tm": 566.15, 
	 "num_atms": 27, 
	 "gaussian": { 
		 "optdone": 1, 
		 "sigma_profile": "yes", 
		 "theory": "DFT", 
		 "functional": "B3LYP", 
		 "basiset": "6-31G**", 
		 "properties": { 
			 "R2extent": 3731.1097, 
			 "electric_dipole_moment_norm": 2.40706296968, 
			 "electric_quadrupole_moment_norm": 12.065694893, 
			 "total_energy": -669.322548525, 
			 "HOMO_LUMO_gap": 0.19706, 
			 "cosmo_polarized_energy": -16.02, 
			 "cosmo_cavitation_energy": 30.73, 
			 "cosmo_dispersion_energy": -21.48, 
			 "cosmo_repulsion_energy": 1.71, 
			 "cosmo_total_nonelectrostatic_energy": 10.97, 
			 "SMD_solvation_energy": 5.01 
		},
		"coords": [
			{
				"x": 1.4688306088,
				"y": 2.3537323425,
				"z": 0.758969212,
				"element": "C" 
			},
			{
				"x": 2.2289035289,
				"y": 1.4817764684,
				"z": -0.1244002374,
				"element": "N" 
			},
			{
				"x": 1.8936440022,
				"y": 0.0718122526,
				"z": -0.1473226724,
				"element": "C" 
			},
			{
				"x": 0.4650942901,
				"y": -0.3513454177,
				"z": -0.6425257994,
				"element": "C" 
			},
			{
				"x": -0.6692298527,
				"y": -0.1127236287,
				"z": 0.3323892368,
				"element": "C" 
			},
			{
				"x": -0.6993287263,
				"y": -0.7533563085,
				"z": 1.5779781303,
				"element": "C" 
			},
			{
				"x": -1.7515039119,
				"y": -0.5563987894,
				"z": 2.4719787229,
				"element": "C" 
			},
			{
				"x": -2.8105244228,
				"y": 0.2903454528,
				"z": 2.1287026133,
				"element": "C" 
			},
			{
				"x": -3.8712692161,
				"y": 0.5253927573,
				"z": 2.9584338089,
				"element": "O" 
			},
			{
				"x": -2.8063018775,
				"y": 0.9305079059,
				"z": 0.8852895732,
				"element": "C" 
			},
			{
				"x": -1.7464308719,
				"y": 0.7243469952,
				"z": 0.0063144552,
				"element": "C" 
			},
			{
				"x": 2.8935861474,
				"y": -0.6032060077,
				"z": -1.0781516349,
				"element": "C" 
			},
			{
				"x": 3.1991089931,
				"y": -1.8601407329,
				"z": -0.6795724406,
				"element": "O" 
			},
			{
				"x": 3.3339872487,
				"y": -0.1121501582,
				"z": -2.0944037874,
				"element": "O" 
			},
			{
				"x": 1.9430323022,
				"y": 3.3407598552,
				"z": 0.7680946645,
				"element": "H" 
			},
			{
				"x": 1.5089714137,
				"y": 1.9600140374,
				"z": 1.7808702618,
				"element": "H" 
			},
			{
				"x": 0.4075730314,
				"y": 2.4850514713,
				"z": 0.5019226045,
				"element": "H" 
			},
			{
				"x": 2.2810524197,
				"y": 1.8377827585,
				"z": -1.0736379794,
				"element": "H" 
			},
			{
				"x": 2.0374624613,
				"y": -0.3371828696,
				"z": 0.8599207872,
				"element": "H" 
			},
			{
				"x": 0.5051881598,
				"y": -1.4228796225,
				"z": -0.8808201638,
				"element": "H" 
			},
			{
				"x": 0.267773962,
				"y": 0.1696521122,
				"z": -1.5864234405,
				"element": "H" 
			},
			{
				"x": 0.1067101743,
				"y": -1.4270093422,
				"z": 1.859002729,
				"element": "H" 
			},
			{
				"x": -1.751803769,
				"y": -1.0663411253,
				"z": 3.4334704109,
				"element": "H" 
			},
			{
				"x": -3.7504658644,
				"y": 0.0247724587,
				"z": 3.7755681999,
				"element": "H" 
			},
			{
				"x": -3.6359578236,
				"y": 1.5799400684,
				"z": 0.6259387031,
				"element": "H" 
			},
			{
				"x": -1.7563493057,
				"y": 1.2268517234,
				"z": -0.9579205522,
				"element": "H" 
			},
			{
				"x": 3.7928468983,
				"y": -2.2232046571,
				"z": -1.3590654053,
				"element": "H" 
			}
		],
		 "valence_orbital": [ 
			{
				"type": "occ",
				"energy": -0.31915,
				"method": "rhf"
			},
			{
				"type": "occ",
				"energy": -0.27679,
				"method": "rhf"
			},
			{
				"type": "occ",
				"energy": -0.25453,
				"method": "rhf"
			},
			{
				"type": "occ",
				"energy": -0.22835,
				"method": "rhf"
			},
			{
				"type": "occ",
				"energy": -0.20414,
				"method": "rhf"
			},
			{
				"type": "unocc",
				"energy": -0.00708,
				"method": "rhf"
			},
			{
				"type": "unocc",
				"energy": 0.00323,
				"method": "rhf"
			},
			{
				"type": "unocc",
				"energy": 0.01732,
				"method": "rhf"
			},
			{
				"type": "unocc",
				"energy": 0.06867,
				"method": "rhf"
			},
			{
				"type": "unocc",
				"energy": 0.07534,
				"method": "rhf"
			}
		],
		"cosmo_sigma_profile": { 
			"-0.025": 0.0,
			"-0.024": 0.0,
			"-0.023": 0.0,
			"-0.022": 0.0,
			"-0.021": 0.0,
			"-0.02": 0.0,
			"-0.019": 0.0768880594554,
			"-0.018": 0.915127958962,
			"-0.017": 1.92158415477,
			"-0.016": 2.15876416678,
			"-0.015": 1.87656836487,
			"-0.014": 1.90236047534,
			"-0.013": 1.15871498165,
			"-0.012": 1.46547167778,
			"-0.011": 1.81585136772,
			"-0.01": 2.17146429596,
			"-0.009": 2.00200800299,
			"-0.008": 2.72599523109,
			"-0.007": 3.01783636725,
			"-0.006": 7.45642258079,
			"-0.005": 14.3983653577,
			"-0.004": 17.2884004073,
			"-0.003": 20.4387992217,
			"-0.002": 17.1579588074,
			"-0.001": 19.7197195135,
			"0.0": 18.3623063652,
			"0.001": 12.4399490782,
			"0.002": 10.0006773988,
			"0.003": 10.5444047899,
			"0.004": 13.843691616,
			"0.005": 13.8288137788,
			"0.006": 9.93949406992,
			"0.007": 3.44587117775,
			"0.008": 6.18318354011,
			"0.009": 4.89551169949,
			"0.01": 4.56314419599,
			"0.011": 6.9025419955,
			"0.012": 5.27985123986,
			"0.013": 0.477086972414,
			"0.014": 0.470170690688,
			"0.015": 0.226061219469,
			"0.016": 0.387637967713,
			"0.017": 0.0,
			"0.018": 0.0,
			"0.019": 0.0,
			"0.02": 0.0,
			"0.021": 0.0,
			"0.022": 0.0,
			"0.023": 0.0,
			"0.024": 0.0,
			"0.025": 0.0
		}
	}
}
