{
	 "smiles": "OC(=O)C1=C(Cl)C=CC(=C1)N1CCCC1=O", 
	 "Tm": 433.15, 
	 "num_atms": 26, 
	 "gaussian": { 
		 "optdone": 1, 
		 "sigma_profile": "yes", 
		 "theory": "DFT", 
		 "functional": "B3LYP", 
		 "basiset": "6-31G**", 
		 "properties": { 
			 "R2extent": 5672.7555, 
			 "electric_dipole_moment_norm": 3.23354834818, 
			 "electric_quadrupole_moment_norm": 8.6047209641, 
			 "total_energy": -1165.84556541, 
			 "HOMO_LUMO_gap": 0.17036, 
			 "cosmo_polarized_energy": -14.29, 
			 "cosmo_cavitation_energy": 31.38, 
			 "cosmo_dispersion_energy": -23.49, 
			 "cosmo_repulsion_energy": 1.82, 
			 "cosmo_total_nonelectrostatic_energy": 9.72, 
			 "SMD_solvation_energy": 6.25 
		},
		"coords": [
			{
				"x": -2.3392935978,
				"y": -4.2269863403,
				"z": -2.372969868,
				"element": "O" 
			},
			{
				"x": -1.7329322676,
				"y": -3.7264899577,
				"z": -1.2807606633,
				"element": "C" 
			},
			{
				"x": -1.6534172808,
				"y": -4.3648860218,
				"z": -0.2464019224,
				"element": "O" 
			},
			{
				"x": -1.1767333147,
				"y": -2.3443992954,
				"z": -1.4306313531,
				"element": "C" 
			},
			{
				"x": -1.1801544918,
				"y": -1.5281235877,
				"z": -2.576025231,
				"element": "C" 
			},
			{
				"x": -1.8543682645,
				"y": -1.9963212448,
				"z": -4.1251699004,
				"element": "Cl" 
			},
			{
				"x": -0.611007184,
				"y": -0.2528039768,
				"z": -2.5121526702,
				"element": "C" 
			},
			{
				"x": -0.0352364305,
				"y": 0.2329371906,
				"z": -1.3463141479,
				"element": "C" 
			},
			{
				"x": -0.0176081821,
				"y": -0.5681008709,
				"z": -0.1879217199,
				"element": "C" 
			},
			{
				"x": -0.592081386,
				"y": -1.8396297073,
				"z": -0.2564812058,
				"element": "C" 
			},
			{
				"x": 0.5670871914,
				"y": -0.1305329108,
				"z": 1.019339797,
				"element": "N" 
			},
			{
				"x": 0.7081385259,
				"y": -1.0307603532,
				"z": 2.1728756874,
				"element": "C" 
			},
			{
				"x": 1.6264998321,
				"y": -0.2573617937,
				"z": 3.1358907481,
				"element": "C" 
			},
			{
				"x": 1.3605897814,
				"y": 1.2104204972,
				"z": 2.7875338272,
				"element": "C" 
			},
			{
				"x": 0.9250219148,
				"y": 1.1804197616,
				"z": 1.3258647298,
				"element": "C" 
			},
			{
				"x": 0.8796613793,
				"y": 2.1389233349,
				"z": 0.5737256495,
				"element": "O" 
			},
			{
				"x": -2.6415710471,
				"y": -5.1145175352,
				"z": -2.1157445512,
				"element": "H" 
			},
			{
				"x": -0.6191872105,
				"y": 0.3676048141,
				"z": -3.4013030195,
				"element": "H" 
			},
			{
				"x": 0.3909583831,
				"y": 1.2252721922,
				"z": -1.3181394465,
				"element": "H" 
			},
			{
				"x": -0.6190882593,
				"y": -2.497413592,
				"z": 0.6018085249,
				"element": "H" 
			},
			{
				"x": 1.1408054033,
				"y": -1.9855028203,
				"z": 1.8612217351,
				"element": "H" 
			},
			{
				"x": -0.274069503,
				"y": -1.2366717237,
				"z": 2.6200690001,
				"element": "H" 
			},
			{
				"x": 1.4224465707,
				"y": -0.5065629617,
				"z": 4.1795142682,
				"element": "H" 
			},
			{
				"x": 2.6712812924,
				"y": -0.5096438341,
				"z": 2.9296383643,
				"element": "H" 
			},
			{
				"x": 2.2183382965,
				"y": 1.8744872395,
				"z": 2.9105457247,
				"element": "H" 
			},
			{
				"x": 0.5336198487,
				"y": 1.6308434974,
				"z": 3.3736876432,
				"element": "H" 
			}
		],
		 "valence_orbital": [ 
			{
				"type": "occ",
				"energy": -0.29224,
				"method": "rhf"
			},
			{
				"type": "occ",
				"energy": -0.28363,
				"method": "rhf"
			},
			{
				"type": "occ",
				"energy": -0.26998,
				"method": "rhf"
			},
			{
				"type": "occ",
				"energy": -0.25891,
				"method": "rhf"
			},
			{
				"type": "occ",
				"energy": -0.22677,
				"method": "rhf"
			},
			{
				"type": "unocc",
				"energy": -0.05641,
				"method": "rhf"
			},
			{
				"type": "unocc",
				"energy": -0.02467,
				"method": "rhf"
			},
			{
				"type": "unocc",
				"energy": 0.0201,
				"method": "rhf"
			},
			{
				"type": "unocc",
				"energy": 0.03048,
				"method": "rhf"
			},
			{
				"type": "unocc",
				"energy": 0.05938,
				"method": "rhf"
			}
		],
		"cosmo_sigma_profile": { 
			"-0.025": 0.0,
			"-0.024": 0.0,
			"-0.023": 0.0,
			"-0.022": 0.0,
			"-0.021": 0.0,
			"-0.02": 0.0,
			"-0.019": 0.202418373562,
			"-0.018": 0.773619624889,
			"-0.017": 0.735638782295,
			"-0.016": 1.12419961225,
			"-0.015": 0.785734334362,
			"-0.014": 0.587748419496,
			"-0.013": 0.631259437131,
			"-0.012": 0.791081378044,
			"-0.011": 0.776763903521,
			"-0.01": 0.534450139304,
			"-0.009": 0.293352612344,
			"-0.008": 1.11134861451,
			"-0.007": 4.3704107674,
			"-0.006": 12.7905221526,
			"-0.005": 22.2442533336,
			"-0.004": 24.0425532252,
			"-0.003": 18.3779521913,
			"-0.002": 17.2398345148,
			"-0.001": 18.6014296237,
			"0.0": 17.3712952654,
			"0.001": 21.4605481598,
			"0.002": 20.0702873973,
			"0.003": 10.8709234079,
			"0.004": 11.298707478,
			"0.005": 7.45654788693,
			"0.006": 4.64351724035,
			"0.007": 4.20053551261,
			"0.008": 5.51907321623,
			"0.009": 5.10749147847,
			"0.01": 3.21458414006,
			"0.011": 6.37779430099,
			"0.012": 5.23957534521,
			"0.013": 2.45112696114,
			"0.014": 0.945303907391,
			"0.015": 0.0,
			"0.016": 0.0,
			"0.017": 0.0,
			"0.018": 0.0,
			"0.019": 0.0,
			"0.02": 0.0,
			"0.021": 0.0,
			"0.022": 0.0,
			"0.023": 0.0,
			"0.024": 0.0,
			"0.025": 0.0
		}
	}
}
