{
	 "smiles": "NC(=S)COC1=CC=CC=C1Cl", 
	 "Tm": 389.15, 
	 "num_atms": 20, 
	 "gaussian": { 
		 "optdone": 1, 
		 "sigma_profile": "yes", 
		 "theory": "DFT", 
		 "functional": "B3LYP", 
		 "basiset": "6-31G**", 
		 "properties": { 
			 "R2extent": 4091.0018, 
			 "electric_dipole_moment_norm": 3.62663163004, 
			 "electric_quadrupole_moment_norm": 20.0382048161, 
			 "total_energy": -1298.02453648, 
			 "HOMO_LUMO_gap": 0.17963, 
			 "cosmo_polarized_energy": -14.13, 
			 "cosmo_cavitation_energy": 28.0, 
			 "cosmo_dispersion_energy": -20.94, 
			 "cosmo_repulsion_energy": 1.63, 
			 "cosmo_total_nonelectrostatic_energy": 8.69, 
			 "SMD_solvation_energy": 3.74 
		},
		"coords": [
			{
				"x": -0.8328387306,
				"y": 2.8748660706,
				"z": -1.7941034523,
				"element": "N" 
			},
			{
				"x": 0.4215601244,
				"y": 3.0812659892,
				"z": -1.3825837709,
				"element": "C" 
			},
			{
				"x": 1.4890612036,
				"y": 4.1602345445,
				"z": -2.0606117141,
				"element": "S" 
			},
			{
				"x": 0.854886066,
				"y": 2.2345398009,
				"z": -0.1959669126,
				"element": "C" 
			},
			{
				"x": -0.2214341908,
				"y": 1.3922846317,
				"z": 0.2069074865,
				"element": "O" 
			},
			{
				"x": -0.0533479286,
				"y": 0.5437201317,
				"z": 1.2589418226,
				"element": "C" 
			},
			{
				"x": 1.1270284285,
				"y": 0.4267485292,
				"z": 2.0009509817,
				"element": "C" 
			},
			{
				"x": 1.2004506997,
				"y": -0.475158367,
				"z": 3.0651254268,
				"element": "C" 
			},
			{
				"x": 0.1050921391,
				"y": -1.2668203805,
				"z": 3.4008823033,
				"element": "C" 
			},
			{
				"x": -1.0774955176,
				"y": -1.1569081952,
				"z": 2.6656490082,
				"element": "C" 
			},
			{
				"x": -1.1546646214,
				"y": -0.2604273645,
				"z": 1.6057207793,
				"element": "C" 
			},
			{
				"x": -2.6427385867,
				"y": -0.1265147605,
				"z": 0.6856141749,
				"element": "Cl" 
			},
			{
				"x": -1.4192800555,
				"y": 2.1966549621,
				"z": -1.3244644215,
				"element": "H" 
			},
			{
				"x": -1.1846713174,
				"y": 3.4044122741,
				"z": -2.5780969502,
				"element": "H" 
			},
			{
				"x": 1.7276850904,
				"y": 1.6411758353,
				"z": -0.4921563496,
				"element": "H" 
			},
			{
				"x": 1.1548342543,
				"y": 2.9042969697,
				"z": 0.6183113861,
				"element": "H" 
			},
			{
				"x": 1.9886638264,
				"y": 1.0350901058,
				"z": 1.7532186419,
				"element": "H" 
			},
			{
				"x": 2.1246121143,
				"y": -0.5521045583,
				"z": 3.6295032601,
				"element": "H" 
			},
			{
				"x": 0.1621271081,
				"y": -1.9673343678,
				"z": 4.2274880833,
				"element": "H" 
			},
			{
				"x": -1.9439301065,
				"y": -1.762621851,
				"z": 2.9078702168,
				"element": "H" 
			}
		],
		 "valence_orbital": [ 
			{
				"type": "occ",
				"energy": -0.32127,
				"method": "rhf"
			},
			{
				"type": "occ",
				"energy": -0.26358,
				"method": "rhf"
			},
			{
				"type": "occ",
				"energy": -0.24268,
				"method": "rhf"
			},
			{
				"type": "occ",
				"energy": -0.2316,
				"method": "rhf"
			},
			{
				"type": "occ",
				"energy": -0.21511,
				"method": "rhf"
			},
			{
				"type": "unocc",
				"energy": -0.03548,
				"method": "rhf"
			},
			{
				"type": "unocc",
				"energy": -0.02208,
				"method": "rhf"
			},
			{
				"type": "unocc",
				"energy": -0.01011,
				"method": "rhf"
			},
			{
				"type": "unocc",
				"energy": 0.0182,
				"method": "rhf"
			},
			{
				"type": "unocc",
				"energy": 0.06961,
				"method": "rhf"
			}
		],
		"cosmo_sigma_profile": { 
			"-0.025": 0.0,
			"-0.024": 0.0,
			"-0.023": 0.0,
			"-0.022": 0.0,
			"-0.021": 0.0,
			"-0.02": 0.0,
			"-0.019": 0.0,
			"-0.018": 0.0,
			"-0.017": 0.0,
			"-0.016": 0.216000217258,
			"-0.015": 1.15881660564,
			"-0.014": 1.60613780333,
			"-0.013": 0.989625964933,
			"-0.012": 1.94322830698,
			"-0.011": 1.70638018041,
			"-0.01": 1.68235131189,
			"-0.009": 2.00197488707,
			"-0.008": 8.44531020292,
			"-0.007": 10.1193545132,
			"-0.006": 12.3419665698,
			"-0.005": 12.1354239178,
			"-0.004": 11.7779900749,
			"-0.003": 11.0911387004,
			"-0.002": 12.2611817622,
			"-0.001": 11.293233192,
			"0.0": 12.8157251902,
			"0.001": 16.8155610363,
			"0.002": 17.2241317759,
			"0.003": 18.8297822006,
			"0.004": 20.0480754182,
			"0.005": 11.2106762421,
			"0.006": 4.12086987649,
			"0.007": 3.77437465325,
			"0.008": 4.98243521884,
			"0.009": 7.09465725018,
			"0.01": 4.99545345409,
			"0.011": 3.81470207982,
			"0.012": 2.17152624338,
			"0.013": 0.0566810979353,
			"0.014": 0.0,
			"0.015": 0.0,
			"0.016": 0.0,
			"0.017": 0.0,
			"0.018": 0.0,
			"0.019": 0.0,
			"0.02": 0.0,
			"0.021": 0.0,
			"0.022": 0.0,
			"0.023": 0.0,
			"0.024": 0.0,
			"0.025": 0.0
		}
	}
}
