{
	 "smiles": "CC1=NN(C=C1C=O)C1=CC=C(Br)C=C1", 
	 "Tm": 385.15, 
	 "num_atms": 24, 
	 "gaussian": { 
		 "optdone": 1, 
		 "sigma_profile": "yes", 
		 "theory": "DFT", 
		 "functional": "B3LYP", 
		 "basiset": "6-31G**", 
		 "properties": { 
			 "R2extent": 7963.5668, 
			 "electric_dipole_moment_norm": 2.37128344362, 
			 "electric_quadrupole_moment_norm": 20.5427373955, 
			 "total_energy": -3180.70496856, 
			 "HOMO_LUMO_gap": 0.17311, 
			 "cosmo_polarized_energy": -12.19, 
			 "cosmo_cavitation_energy": 31.46, 
			 "cosmo_dispersion_energy": -23.27, 
			 "cosmo_repulsion_energy": 1.8, 
			 "cosmo_total_nonelectrostatic_energy": 9.98, 
			 "SMD_solvation_energy": 4.81 
		},
		"coords": [
			{
				"x": -1.8044516003,
				"y": 1.8245545574,
				"z": 3.1868074243,
				"element": "C" 
			},
			{
				"x": -0.9891306685,
				"y": 0.987557003,
				"z": 2.255827368,
				"element": "C" 
			},
			{
				"x": -1.5118557039,
				"y": 0.4822785067,
				"z": 1.1499588343,
				"element": "N" 
			},
			{
				"x": -0.5008562645,
				"y": -0.2201372732,
				"z": 0.5436979736,
				"element": "N" 
			},
			{
				"x": 0.6482023453,
				"y": -0.1582884826,
				"z": 1.2606163937,
				"element": "C" 
			},
			{
				"x": 0.3887062051,
				"y": 0.6133840079,
				"z": 2.3827417394,
				"element": "C" 
			},
			{
				"x": 1.3297443672,
				"y": 0.9526074591,
				"z": 3.4413035851,
				"element": "C" 
			},
			{
				"x": 1.0586054059,
				"y": 1.6373815923,
				"z": 4.4146685907,
				"element": "O" 
			},
			{
				"x": -0.7519294262,
				"y": -0.8887288058,
				"z": -0.6834215473,
				"element": "C" 
			},
			{
				"x": -2.029335975,
				"y": -0.8167743577,
				"z": -1.2518852379,
				"element": "C" 
			},
			{
				"x": -2.293277978,
				"y": -1.4663584809,
				"z": -2.4545142768,
				"element": "C" 
			},
			{
				"x": -1.2823573212,
				"y": -2.1870449658,
				"z": -3.0886421865,
				"element": "C" 
			},
			{
				"x": -1.6444340887,
				"y": -3.0774059747,
				"z": -4.7370862655,
				"element": "Br" 
			},
			{
				"x": -0.0079965933,
				"y": -2.264045099,
				"z": -2.5301645497,
				"element": "C" 
			},
			{
				"x": 0.2575234184,
				"y": -1.6144511912,
				"z": -1.3267146401,
				"element": "C" 
			},
			{
				"x": -2.8219609025,
				"y": 1.9245727904,
				"z": 2.8037832102,
				"element": "H" 
			},
			{
				"x": -1.36014602,
				"y": 2.8173112696,
				"z": 3.3052359396,
				"element": "H" 
			},
			{
				"x": -1.8329528117,
				"y": 1.3780157353,
				"z": 4.1852086035,
				"element": "H" 
			},
			{
				"x": 1.5583730442,
				"y": -0.6472610501,
				"z": 0.9490738728,
				"element": "H" 
			},
			{
				"x": 2.3529018006,
				"y": 0.53531491,
				"z": 3.3074815915,
				"element": "H" 
			},
			{
				"x": -2.7998212448,
				"y": -0.2520338113,
				"z": -0.7432801914,
				"element": "H" 
			},
			{
				"x": -3.2820516554,
				"y": -1.4109756158,
				"z": -2.8950797771,
				"element": "H" 
			},
			{
				"x": 0.7738147272,
				"y": -2.8258472179,
				"z": -3.0278307871,
				"element": "H" 
			},
			{
				"x": 1.2540869402,
				"y": -1.6845255056,
				"z": -0.9059856673,
				"element": "H" 
			}
		],
		 "valence_orbital": [ 
			{
				"type": "occ",
				"energy": -0.28384,
				"method": "rhf"
			},
			{
				"type": "occ",
				"energy": -0.2808,
				"method": "rhf"
			},
			{
				"type": "occ",
				"energy": -0.27058,
				"method": "rhf"
			},
			{
				"type": "occ",
				"energy": -0.25378,
				"method": "rhf"
			},
			{
				"type": "occ",
				"energy": -0.23361,
				"method": "rhf"
			},
			{
				"type": "unocc",
				"energy": -0.0605,
				"method": "rhf"
			},
			{
				"type": "unocc",
				"energy": -0.03079,
				"method": "rhf"
			},
			{
				"type": "unocc",
				"energy": -0.02433,
				"method": "rhf"
			},
			{
				"type": "unocc",
				"energy": -0.00127,
				"method": "rhf"
			},
			{
				"type": "unocc",
				"energy": 0.02193,
				"method": "rhf"
			}
		],
		"cosmo_sigma_profile": { 
			"-0.025": 0.0,
			"-0.024": 0.0,
			"-0.023": 0.0,
			"-0.022": 0.0,
			"-0.021": 0.0,
			"-0.02": 0.0,
			"-0.019": 0.0,
			"-0.018": 0.0,
			"-0.017": 0.0,
			"-0.016": 0.0,
			"-0.015": 0.0,
			"-0.014": 0.0,
			"-0.013": 0.329938743312,
			"-0.012": 1.47547375498,
			"-0.011": 2.10987283702,
			"-0.01": 2.17017625983,
			"-0.009": 2.92226062985,
			"-0.008": 4.30223558178,
			"-0.007": 8.32193722909,
			"-0.006": 10.5668940654,
			"-0.005": 12.5779010294,
			"-0.004": 13.8158387388,
			"-0.003": 14.9270067829,
			"-0.002": 17.9880774787,
			"-0.001": 22.8923696815,
			"0.0": 23.3575001753,
			"0.001": 25.2780054763,
			"0.002": 26.2832761043,
			"0.003": 19.3259608937,
			"0.004": 14.7099650617,
			"0.005": 7.28650871944,
			"0.006": 3.10898494087,
			"0.007": 4.08819452453,
			"0.008": 3.13723419892,
			"0.009": 2.26536169505,
			"0.01": 4.35721799099,
			"0.011": 3.19570075623,
			"0.012": 3.42275721379,
			"0.013": 1.7321327667,
			"0.014": 0.292175533743,
			"0.015": 0.0,
			"0.016": 0.0,
			"0.017": 0.0,
			"0.018": 0.0,
			"0.019": 0.0,
			"0.02": 0.0,
			"0.021": 0.0,
			"0.022": 0.0,
			"0.023": 0.0,
			"0.024": 0.0,
			"0.025": 0.0
		}
	}
}
