{
	 "smiles": "CC1=CC=C2C(C)=CC=CC2=C1C", 
	 "Tm": 306.65, 
	 "num_atms": 27, 
	 "gaussian": { 
		 "optdone": 1, 
		 "sigma_profile": "yes", 
		 "theory": "DFT", 
		 "functional": "B3LYP", 
		 "basiset": "6-31G**", 
		 "properties": { 
			 "R2extent": 2526.2686, 
			 "electric_dipole_moment_norm": 0.423784449927, 
			 "electric_quadrupole_moment_norm": 6.79676151634, 
			 "total_energy": -503.850916545, 
			 "HOMO_LUMO_gap": 0.1687, 
			 "cosmo_polarized_energy": -4.6, 
			 "cosmo_cavitation_energy": 28.5, 
			 "cosmo_dispersion_energy": -21.09, 
			 "cosmo_repulsion_energy": 1.62, 
			 "cosmo_total_nonelectrostatic_energy": 9.04, 
			 "SMD_solvation_energy": 4.58 
		},
		"coords": [
			{
				"x": -2.1831942071,
				"y": -2.8426848972,
				"z": -0.5772018026,
				"element": "C" 
			},
			{
				"x": -1.1159483401,
				"y": -1.7984593247,
				"z": -0.3207567882,
				"element": "C" 
			},
			{
				"x": -0.0193089819,
				"y": -2.148151404,
				"z": 0.5094859355,
				"element": "C" 
			},
			{
				"x": 0.9906659706,
				"y": -1.2612776455,
				"z": 0.7925352247,
				"element": "C" 
			},
			{
				"x": 0.9719795051,
				"y": 0.0527648987,
				"z": 0.2573524759,
				"element": "C" 
			},
			{
				"x": 2.0130444002,
				"y": 0.9987775728,
				"z": 0.536524238,
				"element": "C" 
			},
			{
				"x": 3.1794097125,
				"y": 0.6249797616,
				"z": 1.4204232425,
				"element": "C" 
			},
			{
				"x": 1.9368964612,
				"y": 2.261945395,
				"z": -0.014593274,
				"element": "C" 
			},
			{
				"x": 0.8563251649,
				"y": 2.6360336573,
				"z": -0.8444400598,
				"element": "C" 
			},
			{
				"x": -0.1511018116,
				"y": 1.7425772745,
				"z": -1.1233242383,
				"element": "C" 
			},
			{
				"x": -0.1299286886,
				"y": 0.4243848898,
				"z": -0.5849660951,
				"element": "C" 
			},
			{
				"x": -1.1737046245,
				"y": -0.5201983666,
				"z": -0.8663711103,
				"element": "C" 
			},
			{
				"x": -2.3226126007,
				"y": -0.1007551505,
				"z": -1.7574256663,
				"element": "C" 
			},
			{
				"x": -3.1705116531,
				"y": -2.5174600866,
				"z": -0.229592113,
				"element": "H" 
			},
			{
				"x": -2.2796002755,
				"y": -3.0809764861,
				"z": -1.6427219628,
				"element": "H" 
			},
			{
				"x": -1.9441726271,
				"y": -3.7731819204,
				"z": -0.0554475779,
				"element": "H" 
			},
			{
				"x": 0.0148428321,
				"y": -3.1500822885,
				"z": 0.9301172327,
				"element": "H" 
			},
			{
				"x": 1.8101679146,
				"y": -1.5707317119,
				"z": 1.4321241682,
				"element": "H" 
			},
			{
				"x": 3.8715509621,
				"y": 1.4647608149,
				"z": 1.52245903,
				"element": "H" 
			},
			{
				"x": 3.7429610178,
				"y": -0.2233902861,
				"z": 1.014146543,
				"element": "H" 
			},
			{
				"x": 2.8523053492,
				"y": 0.3389555282,
				"z": 2.4271853164,
				"element": "H" 
			},
			{
				"x": 2.7232106607,
				"y": 2.9831459596,
				"z": 0.1936169546,
				"element": "H" 
			},
			{
				"x": 0.8254181799,
				"y": 3.6381801735,
				"z": -1.2630485688,
				"element": "H" 
			},
			{
				"x": -0.9715988631,
				"y": 2.0485882783,
				"z": -1.7621147166,
				"element": "H" 
			},
			{
				"x": -3.0479783412,
				"y": -0.9025006065,
				"z": -1.8952261989,
				"element": "H" 
			},
			{
				"x": -2.8607153677,
				"y": 0.7588075258,
				"z": -1.3403851252,
				"element": "H" 
			},
			{
				"x": -1.9708017487,
				"y": 0.1963484449,
				"z": -2.7525550639,
				"element": "H" 
			}
		],
		 "valence_orbital": [ 
			{
				"type": "occ",
				"energy": -0.31334,
				"method": "rhf"
			},
			{
				"type": "occ",
				"energy": -0.30942,
				"method": "rhf"
			},
			{
				"type": "occ",
				"energy": -0.2597,
				"method": "rhf"
			},
			{
				"type": "occ",
				"energy": -0.23065,
				"method": "rhf"
			},
			{
				"type": "occ",
				"energy": -0.20131,
				"method": "rhf"
			},
			{
				"type": "unocc",
				"energy": -0.03261,
				"method": "rhf"
			},
			{
				"type": "unocc",
				"energy": 0.00084,
				"method": "rhf"
			},
			{
				"type": "unocc",
				"energy": 0.04379,
				"method": "rhf"
			},
			{
				"type": "unocc",
				"energy": 0.09757,
				"method": "rhf"
			},
			{
				"type": "unocc",
				"energy": 0.09899,
				"method": "rhf"
			}
		],
		"cosmo_sigma_profile": { 
			"-0.025": 0.0,
			"-0.024": 0.0,
			"-0.023": 0.0,
			"-0.022": 0.0,
			"-0.021": 0.0,
			"-0.02": 0.0,
			"-0.019": 0.0,
			"-0.018": 0.0,
			"-0.017": 0.0,
			"-0.016": 0.0,
			"-0.015": 0.0,
			"-0.014": 0.0,
			"-0.013": 0.0,
			"-0.012": 0.0,
			"-0.011": 0.0,
			"-0.01": 0.0,
			"-0.009": 0.0,
			"-0.008": 0.0,
			"-0.007": 0.0,
			"-0.006": 0.404091309444,
			"-0.005": 8.77117817902,
			"-0.004": 25.8010288051,
			"-0.003": 30.242393935,
			"-0.002": 24.7205617316,
			"-0.001": 21.1670944234,
			"0.0": 27.5760972216,
			"0.001": 19.2524449906,
			"0.002": 10.861179297,
			"0.003": 10.05784766,
			"0.004": 12.2242090497,
			"0.005": 19.0842432176,
			"0.006": 14.0593860013,
			"0.007": 1.19371431968,
			"0.008": 0.0,
			"0.009": 0.0,
			"0.01": 0.0,
			"0.011": 0.0,
			"0.012": 0.0,
			"0.013": 0.0,
			"0.014": 0.0,
			"0.015": 0.0,
			"0.016": 0.0,
			"0.017": 0.0,
			"0.018": 0.0,
			"0.019": 0.0,
			"0.02": 0.0,
			"0.021": 0.0,
			"0.022": 0.0,
			"0.023": 0.0,
			"0.024": 0.0,
			"0.025": 0.0
		}
	}
}
