{
	 "smiles": "CC(C)(C)OC(=O)N1CCOCC1C(O)=O", 
	 "Tm": 436.15, 
	 "num_atms": 33, 
	 "gaussian": { 
		 "optdone": 1, 
		 "sigma_profile": "yes", 
		 "theory": "DFT", 
		 "functional": "B3LYP", 
		 "basiset": "6-31G**", 
		 "properties": { 
			 "R2extent": 4187.563, 
			 "electric_dipole_moment_norm": 1.30188916963, 
			 "electric_quadrupole_moment_norm": 15.7064695276, 
			 "total_energy": -822.207164569, 
			 "HOMO_LUMO_gap": 0.23999, 
			 "cosmo_polarized_energy": -15.03, 
			 "cosmo_cavitation_energy": 34.79, 
			 "cosmo_dispersion_energy": -23.54, 
			 "cosmo_repulsion_energy": 1.85, 
			 "cosmo_total_nonelectrostatic_energy": 13.1, 
			 "SMD_solvation_energy": 7.81 
		},
		"coords": [
			{
				"x": 2.5555779918,
				"y": -0.8737626719,
				"z": 0.9704686238,
				"element": "C" 
			},
			{
				"x": 1.0846779091,
				"y": -0.7724446354,
				"z": 1.3866192567,
				"element": "C" 
			},
			{
				"x": 0.5654901001,
				"y": -2.0686557108,
				"z": 2.0166821322,
				"element": "C" 
			},
			{
				"x": 0.8623952197,
				"y": 0.4170104121,
				"z": 2.3240477734,
				"element": "C" 
			},
			{
				"x": 0.2610232442,
				"y": -0.4144417957,
				"z": 0.2181250103,
				"element": "O" 
			},
			{
				"x": 0.1925241056,
				"y": -1.2240620677,
				"z": -0.8645296814,
				"element": "C" 
			},
			{
				"x": 0.7453058428,
				"y": -2.3058551488,
				"z": -0.9930113849,
				"element": "O" 
			},
			{
				"x": -0.6073030922,
				"y": -0.6512539538,
				"z": -1.8242396701,
				"element": "N" 
			},
			{
				"x": -0.7906604838,
				"y": -1.3169492533,
				"z": -3.1061543055,
				"element": "C" 
			},
			{
				"x": -2.2894940227,
				"y": -1.4265203431,
				"z": -3.4243185309,
				"element": "C" 
			},
			{
				"x": -3.033388728,
				"y": -0.2905230376,
				"z": -2.9665847863,
				"element": "O" 
			},
			{
				"x": -2.2488007348,
				"y": 0.8672118164,
				"z": -2.7973776357,
				"element": "C" 
			},
			{
				"x": -1.2259660876,
				"y": 0.6556839564,
				"z": -1.6500777221,
				"element": "C" 
			},
			{
				"x": -0.2547054009,
				"y": 1.8330402774,
				"z": -1.6299548459,
				"element": "C" 
			},
			{
				"x": 0.9097913028,
				"y": 1.5746193638,
				"z": -2.2657045518,
				"element": "O" 
			},
			{
				"x": -0.5258997338,
				"y": 2.9127630994,
				"z": -1.1538642463,
				"element": "O" 
			},
			{
				"x": 2.7119005252,
				"y": -1.7092412209,
				"z": 0.2876950518,
				"element": "H" 
			},
			{
				"x": 2.8736094277,
				"y": 0.0507880307,
				"z": 0.4783336451,
				"element": "H" 
			},
			{
				"x": 3.1792702796,
				"y": -1.0195876952,
				"z": 1.8583167889,
				"element": "H" 
			},
			{
				"x": 0.7023164133,
				"y": -2.9136032834,
				"z": 1.3416960469,
				"element": "H" 
			},
			{
				"x": -0.4980190474,
				"y": -1.9742184664,
				"z": 2.2579325786,
				"element": "H" 
			},
			{
				"x": 1.1078965634,
				"y": -2.2658427549,
				"z": 2.9471117994,
				"element": "H" 
			},
			{
				"x": 1.4373873575,
				"y": 0.2808606355,
				"z": 3.2447647852,
				"element": "H" 
			},
			{
				"x": 1.181194885,
				"y": 1.3494963538,
				"z": 1.8495182689,
				"element": "H" 
			},
			{
				"x": -0.1952865137,
				"y": 0.5100975047,
				"z": 2.5868813736,
				"element": "H" 
			},
			{
				"x": -0.2606782579,
				"y": -0.7635657612,
				"z": -3.8922237192,
				"element": "H" 
			},
			{
				"x": -0.3359119315,
				"y": -2.3052536129,
				"z": -3.0354677791,
				"element": "H" 
			},
			{
				"x": -2.7259221818,
				"y": -2.2931569673,
				"z": -2.9178595041,
				"element": "H" 
			},
			{
				"x": -2.4285169568,
				"y": -1.5548279819,
				"z": -4.5084191592,
				"element": "H" 
			},
			{
				"x": -1.730479504,
				"y": 1.1497604657,
				"z": -3.7271094456,
				"element": "H" 
			},
			{
				"x": -2.9221309307,
				"y": 1.6829583421,
				"z": -2.5280986683,
				"element": "H" 
			},
			{
				"x": -1.7626243119,
				"y": 0.6897902376,
				"z": -0.699143025,
				"element": "H" 
			},
			{
				"x": 1.4268267517,
				"y": 2.3968858664,
				"z": -2.2229544734,
				"element": "H" 
			}
		],
		 "valence_orbital": [ 
			{
				"type": "occ",
				"energy": -0.29287,
				"method": "rhf"
			},
			{
				"type": "occ",
				"energy": -0.29087,
				"method": "rhf"
			},
			{
				"type": "occ",
				"energy": -0.26771,
				"method": "rhf"
			},
			{
				"type": "occ",
				"energy": -0.26105,
				"method": "rhf"
			},
			{
				"type": "occ",
				"energy": -0.24033,
				"method": "rhf"
			},
			{
				"type": "unocc",
				"energy": -0.00034,
				"method": "rhf"
			},
			{
				"type": "unocc",
				"energy": 0.04814,
				"method": "rhf"
			},
			{
				"type": "unocc",
				"energy": 0.06176,
				"method": "rhf"
			},
			{
				"type": "unocc",
				"energy": 0.08724,
				"method": "rhf"
			},
			{
				"type": "unocc",
				"energy": 0.09175,
				"method": "rhf"
			}
		],
		"cosmo_sigma_profile": { 
			"-0.025": 0.0,
			"-0.024": 0.0,
			"-0.023": 0.0,
			"-0.022": 0.0,
			"-0.021": 0.0,
			"-0.02": 0.0,
			"-0.019": 0.134464068534,
			"-0.018": 1.15559120825,
			"-0.017": 0.754558773525,
			"-0.016": 0.815387880586,
			"-0.015": 0.993656817435,
			"-0.014": 0.160567272494,
			"-0.013": 0.6281358286,
			"-0.012": 1.09991497742,
			"-0.011": 0.763520449953,
			"-0.01": 0.616544995648,
			"-0.009": 0.517850477302,
			"-0.008": 0.611985084094,
			"-0.007": 3.61620286198,
			"-0.006": 11.0263991535,
			"-0.005": 18.6877447107,
			"-0.004": 26.2767741928,
			"-0.003": 25.5348780275,
			"-0.002": 22.4912089295,
			"-0.001": 23.3351192051,
			"0.0": 29.8488761656,
			"0.001": 22.3711017475,
			"0.002": 11.0554774015,
			"0.003": 9.80258748812,
			"0.004": 9.71012342834,
			"0.005": 6.34906470688,
			"0.006": 5.49952415295,
			"0.007": 6.18997517062,
			"0.008": 3.61418300281,
			"0.009": 3.72649546092,
			"0.01": 5.02004318353,
			"0.011": 7.71581334749,
			"0.012": 6.95621008108,
			"0.013": 3.53416225893,
			"0.014": 0.115132620775,
			"0.015": 0.0,
			"0.016": 0.0,
			"0.017": 0.0,
			"0.018": 0.0,
			"0.019": 0.0,
			"0.02": 0.0,
			"0.021": 0.0,
			"0.022": 0.0,
			"0.023": 0.0,
			"0.024": 0.0,
			"0.025": 0.0
		}
	}
}
