{
	 "smiles": "CC(C)C1=C(O)C(C(O)=O)=C(C)C=C1", 
	 "Tm": 400.15, 
	 "num_atms": 28, 
	 "gaussian": { 
		 "optdone": 1, 
		 "sigma_profile": "yes", 
		 "theory": "DFT", 
		 "functional": "B3LYP", 
		 "basiset": "6-31G**", 
		 "properties": { 
			 "R2extent": 3861.0789, 
			 "electric_dipole_moment_norm": 6.71182426319, 
			 "electric_quadrupole_moment_norm": 21.6915509992, 
			 "total_energy": -653.305900527, 
			 "HOMO_LUMO_gap": 0.19797, 
			 "cosmo_polarized_energy": -15.19, 
			 "cosmo_cavitation_energy": 29.69, 
			 "cosmo_dispersion_energy": -21.95, 
			 "cosmo_repulsion_energy": 1.7, 
			 "cosmo_total_nonelectrostatic_energy": 9.45, 
			 "SMD_solvation_energy": 6.3 
		},
		"coords": [
			{
				"x": -0.3315856294,
				"y": -2.0032108834,
				"z": 0.9971964878,
				"element": "C" 
			},
			{
				"x": 0.1276090256,
				"y": -1.462187078,
				"z": -0.3752094953,
				"element": "C" 
			},
			{
				"x": -0.7677395231,
				"y": -2.0089611921,
				"z": -1.4970231544,
				"element": "C" 
			},
			{
				"x": 0.2315932246,
				"y": 0.0613872197,
				"z": -0.3591129556,
				"element": "C" 
			},
			{
				"x": 1.3166937476,
				"y": 0.6980022079,
				"z": 0.2693301179,
				"element": "C" 
			},
			{
				"x": 2.3050132133,
				"y": -0.0747207352,
				"z": 0.8550166342,
				"element": "O" 
			},
			{
				"x": 1.4511391379,
				"y": 2.1022001665,
				"z": 0.3569842371,
				"element": "C" 
			},
			{
				"x": 2.6278571621,
				"y": 2.7695449966,
				"z": 1.0360169773,
				"element": "C" 
			},
			{
				"x": 3.712783583,
				"y": 2.0222425512,
				"z": 1.3184536168,
				"element": "O" 
			},
			{
				"x": 2.6375275949,
				"y": 3.9517649201,
				"z": 1.3094335613,
				"element": "O" 
			},
			{
				"x": 0.432908288,
				"y": 2.9093642721,
				"z": -0.2178990971,
				"element": "C" 
			},
			{
				"x": 0.4440706611,
				"y": 4.4198946957,
				"z": -0.2005049982,
				"element": "C" 
			},
			{
				"x": -0.6400587008,
				"y": 2.2747654556,
				"z": -0.8504757018,
				"element": "C" 
			},
			{
				"x": -0.7407818452,
				"y": 0.8890611616,
				"z": -0.9200458215,
				"element": "C" 
			},
			{
				"x": 0.3176767759,
				"y": -1.6616824772,
				"z": 1.8089709877,
				"element": "H" 
			},
			{
				"x": -0.3397586549,
				"y": -3.0984533978,
				"z": 1.0021889783,
				"element": "H" 
			},
			{
				"x": -1.345427946,
				"y": -1.6542317491,
				"z": 1.2178256584,
				"element": "H" 
			},
			{
				"x": 1.1324881099,
				"y": -1.8740965719,
				"z": -0.5811069694,
				"element": "H" 
			},
			{
				"x": -0.7024438423,
				"y": -3.1007765665,
				"z": -1.5278718953,
				"element": "H" 
			},
			{
				"x": -1.8191026789,
				"y": -1.7522183225,
				"z": -1.3310333733,
				"element": "H" 
			},
			{
				"x": -0.4717935502,
				"y": -1.621480699,
				"z": -2.4763688674,
				"element": "H" 
			},
			{
				"x": 2.2293833716,
				"y": -0.9900292538,
				"z": 0.5567091473,
				"element": "H" 
			},
			{
				"x": 3.5340629037,
				"y": 1.0835650969,
				"z": 1.1273459375,
				"element": "H" 
			},
			{
				"x": 0.3738557344,
				"y": 4.8084523308,
				"z": 0.8179493084,
				"element": "H" 
			},
			{
				"x": 1.3734085006,
				"y": 4.8256959451,
				"z": -0.606563739,
				"element": "H" 
			},
			{
				"x": -0.3974852096,
				"y": 4.7992012327,
				"z": -0.787234651,
				"element": "H" 
			},
			{
				"x": -1.4169544789,
				"y": 2.8855191909,
				"z": -1.3002937717,
				"element": "H" 
			},
			{
				"x": -1.5951389749,
				"y": 0.4486874832,
				"z": -1.4229771592,
				"element": "H" 
			}
		],
		 "valence_orbital": [ 
			{
				"type": "occ",
				"energy": -0.33372,
				"method": "rhf"
			},
			{
				"type": "occ",
				"energy": -0.29279,
				"method": "rhf"
			},
			{
				"type": "occ",
				"energy": -0.25647,
				"method": "rhf"
			},
			{
				"type": "occ",
				"energy": -0.25161,
				"method": "rhf"
			},
			{
				"type": "occ",
				"energy": -0.23747,
				"method": "rhf"
			},
			{
				"type": "unocc",
				"energy": -0.0395,
				"method": "rhf"
			},
			{
				"type": "unocc",
				"energy": -0.00472,
				"method": "rhf"
			},
			{
				"type": "unocc",
				"energy": 0.03558,
				"method": "rhf"
			},
			{
				"type": "unocc",
				"energy": 0.06066,
				"method": "rhf"
			},
			{
				"type": "unocc",
				"energy": 0.08211,
				"method": "rhf"
			}
		],
		"cosmo_sigma_profile": { 
			"-0.025": 0.0,
			"-0.024": 0.0,
			"-0.023": 0.0,
			"-0.022": 0.0,
			"-0.021": 0.0,
			"-0.02": 0.0,
			"-0.019": 0.0,
			"-0.018": 0.316281155007,
			"-0.017": 0.744422424908,
			"-0.016": 0.808649778858,
			"-0.015": 0.587656375774,
			"-0.014": 0.705341288658,
			"-0.013": 1.30308509092,
			"-0.012": 0.77796764307,
			"-0.011": 0.876990783517,
			"-0.01": 1.4416207937,
			"-0.009": 1.65049285577,
			"-0.008": 2.04219811168,
			"-0.007": 1.67862862769,
			"-0.006": 5.08706655504,
			"-0.005": 10.0240385169,
			"-0.004": 13.9545109988,
			"-0.003": 24.3462617194,
			"-0.002": 26.3771999166,
			"-0.001": 25.3344139023,
			"0.0": 26.4468267849,
			"0.001": 24.5146573841,
			"0.002": 11.7369354948,
			"0.003": 10.327283552,
			"0.004": 10.0304173933,
			"0.005": 4.60404585109,
			"0.006": 2.8713184824,
			"0.007": 2.77667187338,
			"0.008": 2.46881506686,
			"0.009": 2.34697463677,
			"0.01": 3.50805267958,
			"0.011": 3.86579004255,
			"0.012": 4.89814797658,
			"0.013": 3.54130157163,
			"0.014": 1.7402458445,
			"0.015": 0.0956402331417,
			"0.016": 0.0,
			"0.017": 0.0,
			"0.018": 0.0,
			"0.019": 0.0,
			"0.02": 0.0,
			"0.021": 0.0,
			"0.022": 0.0,
			"0.023": 0.0,
			"0.024": 0.0,
			"0.025": 0.0
		}
	}
}
