{
	 "smiles": "CC1=C(CCO)C(=O)N2C(NC3=C2C=CC=C3)=C1C#N", 
	 "Tm": 523.15, 
	 "num_atms": 33, 
	 "gaussian": { 
		 "optdone": 1, 
		 "sigma_profile": "yes", 
		 "theory": "DFT", 
		 "functional": "B3LYP", 
		 "basiset": "6-31G**", 
		 "properties": { 
			 "R2extent": 6523.9128, 
			 "electric_dipole_moment_norm": 2.24784462541, 
			 "electric_quadrupole_moment_norm": 30.3241447126, 
			 "total_energy": -894.144362113, 
			 "HOMO_LUMO_gap": 0.15649, 
			 "cosmo_polarized_energy": -21.16, 
			 "cosmo_cavitation_energy": 36.9, 
			 "cosmo_dispersion_energy": -26.27, 
			 "cosmo_repulsion_energy": 1.97, 
			 "cosmo_total_nonelectrostatic_energy": 12.59, 
			 "SMD_solvation_energy": 7.32 
		},
		"coords": [
			{
				"x": 1.3025833947,
				"y": -2.7803108272,
				"z": 1.103292788,
				"element": "C" 
			},
			{
				"x": 0.2500513416,
				"y": -1.7113298276,
				"z": 0.9300457631,
				"element": "C" 
			},
			{
				"x": -0.2178420481,
				"y": -1.3635041265,
				"z": -0.325155959,
				"element": "C" 
			},
			{
				"x": 0.2536810304,
				"y": -2.0045603796,
				"z": -1.6111061752,
				"element": "C" 
			},
			{
				"x": 1.3745408002,
				"y": -1.2245162197,
				"z": -2.3212677605,
				"element": "C" 
			},
			{
				"x": 2.6144733051,
				"y": -1.2356978817,
				"z": -1.6157109101,
				"element": "O" 
			},
			{
				"x": -1.2002116883,
				"y": -0.3146370542,
				"z": -0.5146438315,
				"element": "C" 
			},
			{
				"x": -1.6553989069,
				"y": 0.0758602358,
				"z": -1.589351847,
				"element": "O" 
			},
			{
				"x": -1.6576144191,
				"y": 0.2979793635,
				"z": 0.6912091819,
				"element": "N" 
			},
			{
				"x": -1.2033358818,
				"y": -0.0554341542,
				"z": 1.9342067751,
				"element": "C" 
			},
			{
				"x": -1.8400979951,
				"y": 0.7266262708,
				"z": 2.8553473419,
				"element": "N" 
			},
			{
				"x": -2.7126388341,
				"y": 1.5977210181,
				"z": 2.2044937652,
				"element": "C" 
			},
			{
				"x": -2.6040523049,
				"y": 1.3338782714,
				"z": 0.8263713626,
				"element": "C" 
			},
			{
				"x": -3.351167043,
				"y": 2.0392907846,
				"z": -0.1126828543,
				"element": "C" 
			},
			{
				"x": -4.2148864606,
				"y": 3.021934505,
				"z": 0.3782426573,
				"element": "C" 
			},
			{
				"x": -4.3237942851,
				"y": 3.2851900217,
				"z": 1.7515414533,
				"element": "C" 
			},
			{
				"x": -3.572980993,
				"y": 2.5764833003,
				"z": 2.6923566502,
				"element": "C" 
			},
			{
				"x": -0.2513190168,
				"y": -1.0541867926,
				"z": 2.1045734388,
				"element": "C" 
			},
			{
				"x": 0.1599593563,
				"y": -1.3493128165,
				"z": 3.4303988246,
				"element": "C" 
			},
			{
				"x": 0.4483426126,
				"y": -1.5397502857,
				"z": 4.5452093887,
				"element": "N" 
			},
			{
				"x": 0.938573696,
				"y": -3.7508846054,
				"z": 0.7476925347,
				"element": "H" 
			},
			{
				"x": 2.1860078889,
				"y": -2.517284807,
				"z": 0.5168996839,
				"element": "H" 
			},
			{
				"x": 1.5949457226,
				"y": -2.8947947427,
				"z": 2.1484914646,
				"element": "H" 
			},
			{
				"x": 0.5851860011,
				"y": -3.0343904951,
				"z": -1.4369572633,
				"element": "H" 
			},
			{
				"x": -0.5974486042,
				"y": -2.0502870034,
				"z": -2.2993107033,
				"element": "H" 
			},
			{
				"x": 1.5010454527,
				"y": -1.6179093232,
				"z": -3.3411380368,
				"element": "H" 
			},
			{
				"x": 1.0827499079,
				"y": -0.1746804172,
				"z": -2.4113757713,
				"element": "H" 
			},
			{
				"x": 3.0231712052,
				"y": -2.0987310522,
				"z": -1.7581232487,
				"element": "H" 
			},
			{
				"x": -1.6695473028,
				"y": 0.6613781911,
				"z": 3.8477478564,
				"element": "H" 
			},
			{
				"x": -3.249149305,
				"y": 1.8189324977,
				"z": -1.1661564106,
				"element": "H" 
			},
			{
				"x": -4.8143914938,
				"y": 3.5941613067,
				"z": -0.3223876948,
				"element": "H" 
			},
			{
				"x": -5.0057508655,
				"y": 4.0568512986,
				"z": 2.0947731688,
				"element": "H" 
			},
			{
				"x": -3.6565842675,
				"y": 2.7801157466,
				"z": 3.7547743672,
				"element": "H" 
			}
		],
		 "valence_orbital": [ 
			{
				"type": "occ",
				"energy": -0.27377,
				"method": "rhf"
			},
			{
				"type": "occ",
				"energy": -0.26379,
				"method": "rhf"
			},
			{
				"type": "occ",
				"energy": -0.25975,
				"method": "rhf"
			},
			{
				"type": "occ",
				"energy": -0.25207,
				"method": "rhf"
			},
			{
				"type": "occ",
				"energy": -0.20317,
				"method": "rhf"
			},
			{
				"type": "unocc",
				"energy": -0.04668,
				"method": "rhf"
			},
			{
				"type": "unocc",
				"energy": -0.02637,
				"method": "rhf"
			},
			{
				"type": "unocc",
				"energy": -0.00399,
				"method": "rhf"
			},
			{
				"type": "unocc",
				"energy": 0.00045,
				"method": "rhf"
			},
			{
				"type": "unocc",
				"energy": 0.0257,
				"method": "rhf"
			}
		],
		"cosmo_sigma_profile": { 
			"-0.025": 0.0,
			"-0.024": 0.0,
			"-0.023": 0.0,
			"-0.022": 0.0,
			"-0.021": 0.0,
			"-0.02": 0.0,
			"-0.019": 0.0,
			"-0.018": 0.410280282832,
			"-0.017": 0.924886068385,
			"-0.016": 0.774730178609,
			"-0.015": 2.53464858529,
			"-0.014": 2.10737750762,
			"-0.013": 1.79891704363,
			"-0.012": 1.62313515801,
			"-0.011": 2.44002822076,
			"-0.01": 2.70073663142,
			"-0.009": 2.77589140213,
			"-0.008": 3.73439470232,
			"-0.007": 5.48659908725,
			"-0.006": 9.86193436386,
			"-0.005": 16.4014462087,
			"-0.004": 20.7928757372,
			"-0.003": 25.3989913323,
			"-0.002": 26.4801961976,
			"-0.001": 28.2359356122,
			"0.0": 22.3008222778,
			"0.001": 19.1827637565,
			"0.002": 15.6364074206,
			"0.003": 13.8358002646,
			"0.004": 12.7537983886,
			"0.005": 7.85565672382,
			"0.006": 5.78570677375,
			"0.007": 5.1656799763,
			"0.008": 4.22111669265,
			"0.009": 6.12888267786,
			"0.01": 6.0335489289,
			"0.011": 6.05091718592,
			"0.012": 6.2189899288,
			"0.013": 6.34824453213,
			"0.014": 2.79506202336,
			"0.015": 0.472797775414,
			"0.016": 0.0,
			"0.017": 0.0,
			"0.018": 0.0,
			"0.019": 0.0,
			"0.02": 0.0,
			"0.021": 0.0,
			"0.022": 0.0,
			"0.023": 0.0,
			"0.024": 0.0,
			"0.025": 0.0
		}
	}
}
