{
	 "smiles": "OC(=O)C1=C(Cl)C=C(Cl)C=C1O", 
	 "Tm": 463.15, 
	 "num_atms": 16, 
	 "gaussian": { 
		 "optdone": 1, 
		 "sigma_profile": "yes", 
		 "theory": "DFT", 
		 "functional": "B3LYP", 
		 "basiset": "6-31G**", 
		 "properties": { 
			 "R2extent": 3018.7655, 
			 "electric_dipole_moment_norm": 2.74055158864, 
			 "electric_quadrupole_moment_norm": 7.51586011113, 
			 "total_energy": -1415.22519255, 
			 "HOMO_LUMO_gap": 0.17661, 
			 "cosmo_polarized_energy": -8.71, 
			 "cosmo_cavitation_energy": 23.89, 
			 "cosmo_dispersion_energy": -18.7, 
			 "cosmo_repulsion_energy": 1.46, 
			 "cosmo_total_nonelectrostatic_energy": 6.65, 
			 "SMD_solvation_energy": 5.01 
		},
		"coords": [
			{
				"x": -1.5291166324,
				"y": -2.7469629429,
				"z": -0.2622060035,
				"element": "O" 
			},
			{
				"x": -1.6306574868,
				"y": -1.5062153317,
				"z": -0.7360501815,
				"element": "C" 
			},
			{
				"x": -2.3026802972,
				"y": -1.3433624347,
				"z": -1.7556363772,
				"element": "O" 
			},
			{
				"x": -0.9612748841,
				"y": -0.3534648435,
				"z": -0.0657542586,
				"element": "C" 
			},
			{
				"x": -0.1612413315,
				"y": -0.3723907654,
				"z": 1.1029123229,
				"element": "C" 
			},
			{
				"x": 0.1802151579,
				"y": -1.8686922361,
				"z": 1.9948562873,
				"element": "Cl" 
			},
			{
				"x": 0.4200596947,
				"y": 0.7578028305,
				"z": 1.6506089313,
				"element": "C" 
			},
			{
				"x": 0.2051056297,
				"y": 1.9869618632,
				"z": 1.0137026216,
				"element": "C" 
			},
			{
				"x": 0.9347074217,
				"y": 3.4202173618,
				"z": 1.6971621453,
				"element": "Cl" 
			},
			{
				"x": -0.5618108035,
				"y": 2.0878083119,
				"z": -0.1284616173,
				"element": "C" 
			},
			{
				"x": -1.148007061,
				"y": 0.9320995763,
				"z": -0.6763339894,
				"element": "C" 
			},
			{
				"x": -1.8732533007,
				"y": 1.1033289255,
				"z": -1.7758280183,
				"element": "O" 
			},
			{
				"x": -0.9827788339,
				"y": -2.7859738061,
				"z": 0.5417977559,
				"element": "H" 
			},
			{
				"x": 1.0236417326,
				"y": 0.6932827567,
				"z": 2.5459013159,
				"element": "H" 
			},
			{
				"x": -0.7312758122,
				"y": 3.0349777901,
				"z": -0.6246396947,
				"element": "H" 
			},
			{
				"x": -2.2147331934,
				"y": 0.1963829444,
				"z": -2.0329312396,
				"element": "H" 
			}
		],
		 "valence_orbital": [ 
			{
				"type": "occ",
				"energy": -0.33481,
				"method": "rhf"
			},
			{
				"type": "occ",
				"energy": -0.3284,
				"method": "rhf"
			},
			{
				"type": "occ",
				"energy": -0.30211,
				"method": "rhf"
			},
			{
				"type": "occ",
				"energy": -0.2784,
				"method": "rhf"
			},
			{
				"type": "occ",
				"energy": -0.2538,
				"method": "rhf"
			},
			{
				"type": "unocc",
				"energy": -0.07719,
				"method": "rhf"
			},
			{
				"type": "unocc",
				"energy": -0.02952,
				"method": "rhf"
			},
			{
				"type": "unocc",
				"energy": -0.02473,
				"method": "rhf"
			},
			{
				"type": "unocc",
				"energy": 0.02405,
				"method": "rhf"
			},
			{
				"type": "unocc",
				"energy": 0.02507,
				"method": "rhf"
			}
		],
		"cosmo_sigma_profile": { 
			"-0.025": 0.0,
			"-0.024": 0.0,
			"-0.023": 0.0,
			"-0.022": 0.0,
			"-0.021": 0.0,
			"-0.02": 0.0,
			"-0.019": 0.0,
			"-0.018": 0.0,
			"-0.017": 0.0,
			"-0.016": 0.0,
			"-0.015": 0.0,
			"-0.014": 0.0,
			"-0.013": 0.122462350153,
			"-0.012": 0.795077513667,
			"-0.011": 0.876025194309,
			"-0.01": 1.46397261966,
			"-0.009": 3.57136409457,
			"-0.008": 4.56192651801,
			"-0.007": 5.93226481315,
			"-0.006": 5.88034808292,
			"-0.005": 9.31364538991,
			"-0.004": 11.2558226294,
			"-0.003": 10.4902326808,
			"-0.002": 15.6380383314,
			"-0.001": 21.5143317472,
			"0.0": 24.9628706528,
			"0.001": 16.6927696393,
			"0.002": 15.3088643081,
			"0.003": 13.3486492075,
			"0.004": 6.79394470607,
			"0.005": 3.27847634109,
			"0.006": 4.33499599031,
			"0.007": 3.14171475272,
			"0.008": 4.72930818982,
			"0.009": 5.16158642376,
			"0.01": 5.01518682611,
			"0.011": 2.20426417616,
			"0.012": 1.07019048631,
			"0.013": 0.0085976297364,
			"0.014": 0.0,
			"0.015": 0.0,
			"0.016": 0.0,
			"0.017": 0.0,
			"0.018": 0.0,
			"0.019": 0.0,
			"0.02": 0.0,
			"0.021": 0.0,
			"0.022": 0.0,
			"0.023": 0.0,
			"0.024": 0.0,
			"0.025": 0.0
		}
	}
}
