{
	 "smiles": "OC(=O)C=CS(=O)(=O)C1=CC=CC=C1", 
	 "Tm": 464.15, 
	 "num_atms": 22, 
	 "gaussian": { 
		 "optdone": 1, 
		 "sigma_profile": "yes", 
		 "theory": "DFT", 
		 "functional": "B3LYP", 
		 "basiset": "6-31G**", 
		 "properties": { 
			 "R2extent": 3980.5317, 
			 "electric_dipole_moment_norm": 3.65570093689, 
			 "electric_quadrupole_moment_norm": 25.1095152026, 
			 "total_energy": -1046.77508619, 
			 "HOMO_LUMO_gap": 0.19581, 
			 "cosmo_polarized_energy": -17.8, 
			 "cosmo_cavitation_energy": 29.53, 
			 "cosmo_dispersion_energy": -21.36, 
			 "cosmo_repulsion_energy": 1.65, 
			 "cosmo_total_nonelectrostatic_energy": 9.83, 
			 "SMD_solvation_energy": 6.14 
		},
		"coords": [
			{
				"x": 1.3729437995,
				"y": 4.4294313254,
				"z": 1.9799097437,
				"element": "O" 
			},
			{
				"x": 1.0324243883,
				"y": 3.1240584011,
				"z": 2.054178084,
				"element": "C" 
			},
			{
				"x": 0.6903220749,
				"y": 2.5800552568,
				"z": 3.0835113478,
				"element": "O" 
			},
			{
				"x": 1.1384077175,
				"y": 2.4660908186,
				"z": 0.7246892003,
				"element": "C" 
			},
			{
				"x": 0.8405875994,
				"y": 1.1715942445,
				"z": 0.6109195669,
				"element": "C" 
			},
			{
				"x": 0.9516114901,
				"y": 0.327160464,
				"z": -0.9726613086,
				"element": "S" 
			},
			{
				"x": -0.0680857851,
				"y": 0.9061630602,
				"z": -1.8604178139,
				"element": "O" 
			},
			{
				"x": 2.3676926244,
				"y": 0.3058598478,
				"z": -1.3693845518,
				"element": "O" 
			},
			{
				"x": 0.4559850559,
				"y": -1.3496718114,
				"z": -0.5640001747,
				"element": "C" 
			},
			{
				"x": -0.8932708104,
				"y": -1.6989261443,
				"z": -0.6516874632,
				"element": "C" 
			},
			{
				"x": -1.271301564,
				"y": -3.0029648294,
				"z": -0.3310844273,
				"element": "C" 
			},
			{
				"x": -0.3077437969,
				"y": -3.933913414,
				"z": 0.0653687756,
				"element": "C" 
			},
			{
				"x": 1.0398194202,
				"y": -3.5717851798,
				"z": 0.1377497163,
				"element": "C" 
			},
			{
				"x": 1.4323248109,
				"y": -2.2713334618,
				"z": -0.1799668231,
				"element": "C" 
			},
			{
				"x": 1.2818194967,
				"y": 4.7905674167,
				"z": 2.8778635365,
				"element": "H" 
			},
			{
				"x": 1.4587703728,
				"y": 3.0700704259,
				"z": -0.1182454039,
				"element": "H" 
			},
			{
				"x": 0.5212680268,
				"y": 0.5795994131,
				"z": 1.4641695455,
				"element": "H" 
			},
			{
				"x": -1.620495892,
				"y": -0.9647709707,
				"z": -0.9815827729,
				"element": "H" 
			},
			{
				"x": -2.3152989695,
				"y": -3.2934832005,
				"z": -0.3973298087,
				"element": "H" 
			},
			{
				"x": -0.6074614501,
				"y": -4.9481802656,
				"z": 0.3122564579,
				"element": "H" 
			},
			{
				"x": 1.7856065183,
				"y": -4.3028284123,
				"z": 0.4345644372,
				"element": "H" 
			},
			{
				"x": 2.4747748722,
				"y": -1.9727929843,
				"z": -0.1509198638,
				"element": "H" 
			}
		],
		 "valence_orbital": [ 
			{
				"type": "occ",
				"energy": -0.30064,
				"method": "rhf"
			},
			{
				"type": "occ",
				"energy": -0.29465,
				"method": "rhf"
			},
			{
				"type": "occ",
				"energy": -0.2887,
				"method": "rhf"
			},
			{
				"type": "occ",
				"energy": -0.28132,
				"method": "rhf"
			},
			{
				"type": "occ",
				"energy": -0.27734,
				"method": "rhf"
			},
			{
				"type": "unocc",
				"energy": -0.08153,
				"method": "rhf"
			},
			{
				"type": "unocc",
				"energy": -0.04659,
				"method": "rhf"
			},
			{
				"type": "unocc",
				"energy": -0.02702,
				"method": "rhf"
			},
			{
				"type": "unocc",
				"energy": 0.05473,
				"method": "rhf"
			},
			{
				"type": "unocc",
				"energy": 0.05543,
				"method": "rhf"
			}
		],
		"cosmo_sigma_profile": { 
			"-0.025": 0.0,
			"-0.024": 0.0,
			"-0.023": 0.0,
			"-0.022": 0.0,
			"-0.021": 0.0,
			"-0.02": 0.0,
			"-0.019": 0.583226857798,
			"-0.018": 0.845795936017,
			"-0.017": 1.41801342487,
			"-0.016": 0.520702525231,
			"-0.015": 0.452564972953,
			"-0.014": 0.872762381899,
			"-0.013": 0.842979276722,
			"-0.012": 0.589444830217,
			"-0.011": 0.697754923927,
			"-0.01": 1.83089472858,
			"-0.009": 3.00814406778,
			"-0.008": 5.05140404568,
			"-0.007": 13.6979797367,
			"-0.006": 16.5358974147,
			"-0.005": 16.1389030509,
			"-0.004": 14.2155661609,
			"-0.003": 14.4594988787,
			"-0.002": 11.4978920382,
			"-0.001": 14.3498001418,
			"0.0": 13.6621708423,
			"0.001": 14.8282933451,
			"0.002": 16.2169931156,
			"0.003": 13.5716152575,
			"0.004": 6.13927400787,
			"0.005": 4.92195738194,
			"0.006": 5.37881353727,
			"0.007": 4.96231059963,
			"0.008": 6.17425783343,
			"0.009": 5.98582133464,
			"0.01": 11.515484081,
			"0.011": 13.9303024456,
			"0.012": 2.05488983869,
			"0.013": 0.0,
			"0.014": 0.0,
			"0.015": 0.0,
			"0.016": 0.0,
			"0.017": 0.0,
			"0.018": 0.0,
			"0.019": 0.0,
			"0.02": 0.0,
			"0.021": 0.0,
			"0.022": 0.0,
			"0.023": 0.0,
			"0.024": 0.0,
			"0.025": 0.0
		}
	}
}
