{
	 "smiles": "NC1=CC=CC2=C1N=CC=C2", 
	 "Tm": 340.65, 
	 "num_atms": 19, 
	 "gaussian": { 
		 "optdone": 1, 
		 "sigma_profile": "yes", 
		 "theory": "DFT", 
		 "functional": "B3LYP", 
		 "basiset": "6-31G**", 
		 "properties": { 
			 "R2extent": 2047.7683, 
			 "electric_dipole_moment_norm": 0.878362095038, 
			 "electric_quadrupole_moment_norm": 12.2716381877, 
			 "total_energy": -457.29592596, 
			 "HOMO_LUMO_gap": 0.14811, 
			 "cosmo_polarized_energy": -8.05, 
			 "cosmo_cavitation_energy": 22.42, 
			 "cosmo_dispersion_energy": -17.2, 
			 "cosmo_repulsion_energy": 1.36, 
			 "cosmo_total_nonelectrostatic_energy": 6.58, 
			 "SMD_solvation_energy": 2.67 
		},
		"coords": [
			{
				"x": 0.9597425833,
				"y": 2.0686664255,
				"z": -0.1992997405,
				"element": "N" 
			},
			{
				"x": 0.2345103434,
				"y": 0.9771864312,
				"z": -0.6250705288,
				"element": "C" 
			},
			{
				"x": 0.7363459631,
				"y": 0.0143558676,
				"z": -1.4924873259,
				"element": "C" 
			},
			{
				"x": -0.0740613506,
				"y": -1.049011583,
				"z": -1.9436759577,
				"element": "C" 
			},
			{
				"x": -1.3881323254,
				"y": -1.1761681731,
				"z": -1.5463501868,
				"element": "C" 
			},
			{
				"x": -1.9369991447,
				"y": -0.2219494809,
				"z": -0.6513082907,
				"element": "C" 
			},
			{
				"x": -1.1281135498,
				"y": 0.8560393627,
				"z": -0.1765027576,
				"element": "C" 
			},
			{
				"x": -1.5807772685,
				"y": 1.7894870958,
				"z": 0.7050669394,
				"element": "N" 
			},
			{
				"x": -2.8282699872,
				"y": 1.6990807054,
				"z": 1.1248317386,
				"element": "C" 
			},
			{
				"x": -3.7221255203,
				"y": 0.6839335194,
				"z": 0.7071699505,
				"element": "C" 
			},
			{
				"x": -3.272617025,
				"y": -0.2722060979,
				"z": -0.1742132066,
				"element": "C" 
			},
			{
				"x": 0.5399447317,
				"y": 2.5610201884,
				"z": 0.5786409849,
				"element": "H" 
			},
			{
				"x": 1.9640099171,
				"y": 1.9810095166,
				"z": -0.1799319798,
				"element": "H" 
			},
			{
				"x": 1.7645388539,
				"y": 0.0893988944,
				"z": -1.836643068,
				"element": "H" 
			},
			{
				"x": 0.3571449982,
				"y": -1.7783558451,
				"z": -2.6240527108,
				"element": "H" 
			},
			{
				"x": -2.0070889918,
				"y": -1.9939708864,
				"z": -1.9033215285,
				"element": "H" 
			},
			{
				"x": -3.1608250278,
				"y": 2.4575371112,
				"z": 1.8323853267,
				"element": "H" 
			},
			{
				"x": -4.7387651454,
				"y": 0.6689013208,
				"z": 1.0874150135,
				"element": "H" 
			},
			{
				"x": -3.9263620543,
				"y": -1.0722543725,
				"z": -0.5128526719,
				"element": "H" 
			}
		],
		 "valence_orbital": [ 
			{
				"type": "occ",
				"energy": -0.31786,
				"method": "rhf"
			},
			{
				"type": "occ",
				"energy": -0.27206,
				"method": "rhf"
			},
			{
				"type": "occ",
				"energy": -0.25602,
				"method": "rhf"
			},
			{
				"type": "occ",
				"energy": -0.24469,
				"method": "rhf"
			},
			{
				"type": "occ",
				"energy": -0.18975,
				"method": "rhf"
			},
			{
				"type": "unocc",
				"energy": -0.04164,
				"method": "rhf"
			},
			{
				"type": "unocc",
				"energy": -0.00857,
				"method": "rhf"
			},
			{
				"type": "unocc",
				"energy": 0.03946,
				"method": "rhf"
			},
			{
				"type": "unocc",
				"energy": 0.09133,
				"method": "rhf"
			},
			{
				"type": "unocc",
				"energy": 0.10001,
				"method": "rhf"
			}
		],
		"cosmo_sigma_profile": { 
			"-0.025": 0.0,
			"-0.024": 0.0,
			"-0.023": 0.0,
			"-0.022": 0.0,
			"-0.021": 0.0,
			"-0.02": 0.0,
			"-0.019": 0.0,
			"-0.018": 0.0,
			"-0.017": 0.0,
			"-0.016": 0.0,
			"-0.015": 0.0,
			"-0.014": 0.0,
			"-0.013": 0.526137358548,
			"-0.012": 1.3792950928,
			"-0.011": 1.11893352207,
			"-0.01": 1.77924081248,
			"-0.009": 1.74232409302,
			"-0.008": 2.73633799248,
			"-0.007": 4.28423246062,
			"-0.006": 11.9333184994,
			"-0.005": 14.1628357843,
			"-0.004": 12.1079648042,
			"-0.003": 11.9380363818,
			"-0.002": 9.29889203437,
			"-0.001": 8.18080098608,
			"0.0": 8.11572448989,
			"0.001": 9.69051025508,
			"0.002": 15.143755136,
			"0.003": 20.381389755,
			"0.004": 12.3719184837,
			"0.005": 10.3051337591,
			"0.006": 9.34105820201,
			"0.007": 4.21382316233,
			"0.008": 2.54234797179,
			"0.009": 1.81632951132,
			"0.01": 1.91167879075,
			"0.011": 1.40619249711,
			"0.012": 0.583180082905,
			"0.013": 0.480504160074,
			"0.014": 0.0810577536324,
			"0.015": 0.0,
			"0.016": 0.0,
			"0.017": 0.0,
			"0.018": 0.0,
			"0.019": 0.0,
			"0.02": 0.0,
			"0.021": 0.0,
			"0.022": 0.0,
			"0.023": 0.0,
			"0.024": 0.0,
			"0.025": 0.0
		}
	}
}
