{
	 "smiles": "CC1=CC(C(=O)CCl)=C(C)N1CC1CCCO1", 
	 "Tm": 362.15, 
	 "num_atms": 35, 
	 "gaussian": { 
		 "optdone": 1, 
		 "sigma_profile": "yes", 
		 "theory": "DFT", 
		 "functional": "B3LYP", 
		 "basiset": "6-31G**", 
		 "properties": { 
			 "R2extent": 5817.5349, 
			 "electric_dipole_moment_norm": 6.61144049962, 
			 "electric_quadrupole_moment_norm": 12.6069253321, 
			 "total_energy": -1171.62381632, 
			 "HOMO_LUMO_gap": 0.16804, 
			 "cosmo_polarized_energy": -13.61, 
			 "cosmo_cavitation_energy": 37.2, 
			 "cosmo_dispersion_energy": -26.27, 
			 "cosmo_repulsion_energy": 2.06, 
			 "cosmo_total_nonelectrostatic_energy": 13.0, 
			 "SMD_solvation_energy": 6.16 
		},
		"coords": [
			{
				"x": 1.0399203733,
				"y": 0.1544438906,
				"z": -2.6321702375,
				"element": "C" 
			},
			{
				"x": 0.446752497,
				"y": -0.4957215435,
				"z": -1.4222063736,
				"element": "C" 
			},
			{
				"x": -0.0038055564,
				"y": -1.777550067,
				"z": -1.2610595138,
				"element": "C" 
			},
			{
				"x": -0.3791411481,
				"y": -1.9511108652,
				"z": 0.1133823426,
				"element": "C" 
			},
			{
				"x": -0.9247771734,
				"y": -3.1560899531,
				"z": 0.7289597058,
				"element": "C" 
			},
			{
				"x": -1.2628213943,
				"y": -3.2536058442,
				"z": 1.9060070915,
				"element": "O" 
			},
			{
				"x": -1.1419124819,
				"y": -4.3847086573,
				"z": -0.1684825275,
				"element": "C" 
			},
			{
				"x": 0.4257477925,
				"y": -5.1751001658,
				"z": -0.6471115128,
				"element": "Cl" 
			},
			{
				"x": -0.138474267,
				"y": -0.733679033,
				"z": 0.7628283441,
				"element": "C" 
			},
			{
				"x": -0.2796757185,
				"y": -0.3765351181,
				"z": 2.2077386457,
				"element": "C" 
			},
			{
				"x": 0.3470869575,
				"y": 0.1432136088,
				"z": -0.1776469439,
				"element": "N" 
			},
			{
				"x": 0.7000722497,
				"y": 1.5375110936,
				"z": 0.0653674754,
				"element": "C" 
			},
			{
				"x": -0.4433652879,
				"y": 2.5601301924,
				"z": -0.0607981082,
				"element": "C" 
			},
			{
				"x": -1.3242572001,
				"y": 2.4896567185,
				"z": -1.315743021,
				"element": "C" 
			},
			{
				"x": -2.6354045895,
				"y": 3.1135284388,
				"z": -0.8174265122,
				"element": "C" 
			},
			{
				"x": -2.703041102,
				"y": 2.5830343559,
				"z": 0.6187922035,
				"element": "C" 
			},
			{
				"x": -1.3413596551,
				"y": 2.4252654987,
				"z": 1.0479120323,
				"element": "O" 
			},
			{
				"x": 1.0199674973,
				"y": -0.5572273704,
				"z": -3.4608968175,
				"element": "H" 
			},
			{
				"x": 0.4992117012,
				"y": 1.0511907636,
				"z": -2.9554092381,
				"element": "H" 
			},
			{
				"x": 2.0880909937,
				"y": 0.4425375023,
				"z": -2.4776251606,
				"element": "H" 
			},
			{
				"x": -0.0224610724,
				"y": -2.5289658861,
				"z": -2.037290366,
				"element": "H" 
			},
			{
				"x": -1.6593872165,
				"y": -4.1321476815,
				"z": -1.0958595677,
				"element": "H" 
			},
			{
				"x": -1.7071942487,
				"y": -5.1215432414,
				"z": 0.398990424,
				"element": "H" 
			},
			{
				"x": -0.8311349983,
				"y": 0.5576452615,
				"z": 2.335786228,
				"element": "H" 
			},
			{
				"x": -0.790673015,
				"y": -1.1902908665,
				"z": 2.7197424496,
				"element": "H" 
			},
			{
				"x": 0.7063519499,
				"y": -0.2496346508,
				"z": 2.6764666972,
				"element": "H" 
			},
			{
				"x": 1.1188056335,
				"y": 1.6210258455,
				"z": 1.0715253783,
				"element": "H" 
			},
			{
				"x": 1.4915152,
				"y": 1.8153182532,
				"z": -0.636333888,
				"element": "H" 
			},
			{
				"x": 0.0369768106,
				"y": 3.5521250156,
				"z": -0.002804227,
				"element": "H" 
			},
			{
				"x": -1.4886637972,
				"y": 1.4463479283,
				"z": -1.6041827471,
				"element": "H" 
			},
			{
				"x": -0.8860712244,
				"y": 3.0203081912,
				"z": -2.1656710692,
				"element": "H" 
			},
			{
				"x": -3.505356569,
				"y": 2.8284654784,
				"z": -1.4151071069,
				"element": "H" 
			},
			{
				"x": -2.5655738153,
				"y": 4.2069629192,
				"z": -0.8206949384,
				"element": "H" 
			},
			{
				"x": -3.2099965477,
				"y": 1.6093636047,
				"z": 0.6629433169,
				"element": "H" 
			},
			{
				"x": -3.2103515773,
				"y": 3.2656363829,
				"z": 1.3088775422,
				"element": "H" 
			}
		],
		 "valence_orbital": [ 
			{
				"type": "occ",
				"energy": -0.29057,
				"method": "rhf"
			},
			{
				"type": "occ",
				"energy": -0.2621,
				"method": "rhf"
			},
			{
				"type": "occ",
				"energy": -0.24011,
				"method": "rhf"
			},
			{
				"type": "occ",
				"energy": -0.23567,
				"method": "rhf"
			},
			{
				"type": "occ",
				"energy": -0.20556,
				"method": "rhf"
			},
			{
				"type": "unocc",
				"energy": -0.03752,
				"method": "rhf"
			},
			{
				"type": "unocc",
				"energy": 0.02931,
				"method": "rhf"
			},
			{
				"type": "unocc",
				"energy": 0.04411,
				"method": "rhf"
			},
			{
				"type": "unocc",
				"energy": 0.06886,
				"method": "rhf"
			},
			{
				"type": "unocc",
				"energy": 0.08954,
				"method": "rhf"
			}
		],
		"cosmo_sigma_profile": { 
			"-0.025": 0.0,
			"-0.024": 0.0,
			"-0.023": 0.0,
			"-0.022": 0.0,
			"-0.021": 0.0,
			"-0.02": 0.0,
			"-0.019": 0.0,
			"-0.018": 0.0,
			"-0.017": 0.0,
			"-0.016": 0.0,
			"-0.015": 0.0,
			"-0.014": 0.0,
			"-0.013": 0.0,
			"-0.012": 0.0,
			"-0.011": 0.0,
			"-0.01": 0.0,
			"-0.009": 0.0184876192418,
			"-0.008": 1.43373286795,
			"-0.007": 5.39030777785,
			"-0.006": 11.2986980801,
			"-0.005": 20.0015470337,
			"-0.004": 33.3899093936,
			"-0.003": 33.2833820819,
			"-0.002": 27.7512484045,
			"-0.001": 25.3358066288,
			"0.0": 25.8211187071,
			"0.001": 16.5478512557,
			"0.002": 13.4591334141,
			"0.003": 14.8353804814,
			"0.004": 13.3942554559,
			"0.005": 14.5268048549,
			"0.006": 15.2497652517,
			"0.007": 5.5430783055,
			"0.008": 2.29621154711,
			"0.009": 2.40733780029,
			"0.01": 2.4644086117,
			"0.011": 3.31616587025,
			"0.012": 3.48222604908,
			"0.013": 2.61199993074,
			"0.014": 0.489944836774,
			"0.015": 0.0,
			"0.016": 0.0,
			"0.017": 0.0,
			"0.018": 0.0,
			"0.019": 0.0,
			"0.02": 0.0,
			"0.021": 0.0,
			"0.022": 0.0,
			"0.023": 0.0,
			"0.024": 0.0,
			"0.025": 0.0
		}
	}
}
