{
	 "smiles": "CN(CCCN1C2=CC=CC=C2CCC2=C1C=CC=C2)CC(=O)C1=CC=C(Cl)C=C1", 
	 "Tm": 378.15, 
	 "num_atms": 57, 
	 "gaussian": { 
		 "optdone": 1, 
		 "sigma_profile": "yes", 
		 "theory": "DFT", 
		 "functional": "B3LYP", 
		 "basiset": "6-31G**", 
		 "properties": { 
			 "R2extent": 12585.3292, 
			 "electric_dipole_moment_norm": 2.88752535054, 
			 "electric_quadrupole_moment_norm": 18.8970096378, 
			 "total_energy": -1651.9466116, 
			 "HOMO_LUMO_gap": 0.13337, 
			 "cosmo_polarized_energy": -12.65, 
			 "cosmo_cavitation_energy": 57.52, 
			 "cosmo_dispersion_energy": -36.06, 
			 "cosmo_repulsion_energy": 2.64, 
			 "cosmo_total_nonelectrostatic_energy": 24.11, 
			 "SMD_solvation_energy": 8.89 
		},
		"coords": [
			{
				"x": 2.3049414222,
				"y": -0.4278761764,
				"z": -2.2226790552,
				"element": "C" 
			},
			{
				"x": 1.9739009092,
				"y": 0.7504072175,
				"z": -1.4173952737,
				"element": "N" 
			},
			{
				"x": 1.2597081446,
				"y": 1.760218882,
				"z": -2.209774376,
				"element": "C" 
			},
			{
				"x": -0.1648778008,
				"y": 1.3948891826,
				"z": -2.6523257586,
				"element": "C" 
			},
			{
				"x": -1.2297009729,
				"y": 1.3521374537,
				"z": -1.538478657,
				"element": "C" 
			},
			{
				"x": -1.4019044024,
				"y": 0.0416009601,
				"z": -0.899995555,
				"element": "N" 
			},
			{
				"x": -1.9558380472,
				"y": 0.023889146,
				"z": 0.4184163463,
				"element": "C" 
			},
			{
				"x": -2.6875446689,
				"y": 1.1429802015,
				"z": 0.8687126239,
				"element": "C" 
			},
			{
				"x": -3.2174151236,
				"y": 1.2137942636,
				"z": 2.1536015979,
				"element": "C" 
			},
			{
				"x": -3.0473630939,
				"y": 0.1462485277,
				"z": 3.0314692528,
				"element": "C" 
			},
			{
				"x": -2.3430997317,
				"y": -0.971005461,
				"z": 2.5913615547,
				"element": "C" 
			},
			{
				"x": -1.7830225268,
				"y": -1.0675381302,
				"z": 1.3082996867,
				"element": "C" 
			},
			{
				"x": -1.0291664652,
				"y": -2.3600748376,
				"z": 1.0194016418,
				"element": "C" 
			},
			{
				"x": -0.2119896169,
				"y": -2.426950075,
				"z": -0.2782635332,
				"element": "C" 
			},
			{
				"x": -1.0904340309,
				"y": -2.3055138717,
				"z": -1.4928968799,
				"element": "C" 
			},
			{
				"x": -1.6931571233,
				"y": -1.0632143314,
				"z": -1.7643233366,
				"element": "C" 
			},
			{
				"x": -2.5301908344,
				"y": -0.927474244,
				"z": -2.8807464011,
				"element": "C" 
			},
			{
				"x": -2.771873585,
				"y": -2.0142755635,
				"z": -3.7217764389,
				"element": "C" 
			},
			{
				"x": -2.1869611468,
				"y": -3.2510362672,
				"z": -3.4504357816,
				"element": "C" 
			},
			{
				"x": -1.3565149023,
				"y": -3.3880847526,
				"z": -2.3372770084,
				"element": "C" 
			},
			{
				"x": 3.1900402096,
				"y": 1.3428497845,
				"z": -0.8509380132,
				"element": "C" 
			},
			{
				"x": 3.9521322151,
				"y": 0.4331180853,
				"z": 0.122456459,
				"element": "C" 
			},
			{
				"x": 5.1046680134,
				"y": 0.1172106809,
				"z": -0.1370757785,
				"element": "O" 
			},
			{
				"x": 3.316020333,
				"y": 0.0067394809,
				"z": 1.407784239,
				"element": "C" 
			},
			{
				"x": 1.9774728317,
				"y": 0.2784791159,
				"z": 1.7304240359,
				"element": "C" 
			},
			{
				"x": 1.4496095478,
				"y": -0.112921741,
				"z": 2.9607981729,
				"element": "C" 
			},
			{
				"x": 2.2726731611,
				"y": -0.7787814218,
				"z": 3.8688510612,
				"element": "C" 
			},
			{
				"x": 1.6178855827,
				"y": -1.273564897,
				"z": 5.421798336,
				"element": "Cl" 
			},
			{
				"x": 3.6072070846,
				"y": -1.0667859406,
				"z": 3.5697065615,
				"element": "C" 
			},
			{
				"x": 4.1186489456,
				"y": -0.6733908226,
				"z": 2.339078658,
				"element": "C" 
			},
			{
				"x": 2.9378042329,
				"y": -0.1769509027,
				"z": -3.0942577847,
				"element": "H" 
			},
			{
				"x": 2.8460187498,
				"y": -1.1572706499,
				"z": -1.6146511591,
				"element": "H" 
			},
			{
				"x": 1.3932349143,
				"y": -0.9089829437,
				"z": -2.5814672509,
				"element": "H" 
			},
			{
				"x": 1.8440916099,
				"y": 2.022864247,
				"z": -3.1145562931,
				"element": "H" 
			},
			{
				"x": 1.2056793101,
				"y": 2.6742767255,
				"z": -1.6050279214,
				"element": "H" 
			},
			{
				"x": -0.4671692807,
				"y": 2.1773099364,
				"z": -3.3597649657,
				"element": "H" 
			},
			{
				"x": -0.1745725658,
				"y": 0.4658927208,
				"z": -3.228468186,
				"element": "H" 
			},
			{
				"x": -2.180913271,
				"y": 1.7342744397,
				"z": -1.9457835735,
				"element": "H" 
			},
			{
				"x": -0.9362799555,
				"y": 2.0527022629,
				"z": -0.751659558,
				"element": "H" 
			},
			{
				"x": -2.8673873898,
				"y": 1.9703203965,
				"z": 0.1933965035,
				"element": "H" 
			},
			{
				"x": -3.7722706166,
				"y": 2.0976843226,
				"z": 2.4554733086,
				"element": "H" 
			},
			{
				"x": -3.4534200037,
				"y": 0.1788771998,
				"z": 4.0378322275,
				"element": "H" 
			},
			{
				"x": -2.2014611695,
				"y": -1.8094080495,
				"z": 3.270161076,
				"element": "H" 
			},
			{
				"x": -1.7506028676,
				"y": -3.1888548105,
				"z": 1.0151960682,
				"element": "H" 
			},
			{
				"x": -0.3588822483,
				"y": -2.5505770714,
				"z": 1.8667275608,
				"element": "H" 
			},
			{
				"x": 0.5292769656,
				"y": -1.6209974692,
				"z": -0.2781520592,
				"element": "H" 
			},
			{
				"x": 0.3300920384,
				"y": -3.3784246377,
				"z": -0.3021124477,
				"element": "H" 
			},
			{
				"x": -2.999627748,
				"y": 0.0277230065,
				"z": -3.0929024785,
				"element": "H" 
			},
			{
				"x": -3.4236301648,
				"y": -1.8929518656,
				"z": -4.5823771117,
				"element": "H" 
			},
			{
				"x": -2.3717954746,
				"y": -4.1007239358,
				"z": -4.1010357728,
				"element": "H" 
			},
			{
				"x": -0.8917978519,
				"y": -4.3476816071,
				"z": -2.123460768,
				"element": "H" 
			},
			{
				"x": 2.9060998315,
				"y": 2.2530879661,
				"z": -0.3067459961,
				"element": "H" 
			},
			{
				"x": 3.921877729,
				"y": 1.6291006404,
				"z": -1.6264067885,
				"element": "H" 
			},
			{
				"x": 1.3355424321,
				"y": 0.7619424991,
				"z": 1.0033667046,
				"element": "H" 
			},
			{
				"x": 0.412011639,
				"y": 0.0856488755,
				"z": 3.2044703006,
				"element": "H" 
			},
			{
				"x": 4.2261957161,
				"y": -1.5871262591,
				"z": 4.2921974437,
				"element": "H" 
			},
			{
				"x": 5.1509311114,
				"y": -0.8781294854,
				"z": 2.0758305406,
				"element": "H" 
			}
		],
		 "valence_orbital": [ 
			{
				"type": "occ",
				"energy": -0.24648,
				"method": "rhf"
			},
			{
				"type": "occ",
				"energy": -0.24121,
				"method": "rhf"
			},
			{
				"type": "occ",
				"energy": -0.23528,
				"method": "rhf"
			},
			{
				"type": "occ",
				"energy": -0.22745,
				"method": "rhf"
			},
			{
				"type": "occ",
				"energy": -0.19594,
				"method": "rhf"
			},
			{
				"type": "unocc",
				"energy": -0.06257,
				"method": "rhf"
			},
			{
				"type": "unocc",
				"energy": -0.01645,
				"method": "rhf"
			},
			{
				"type": "unocc",
				"energy": -0.00671,
				"method": "rhf"
			},
			{
				"type": "unocc",
				"energy": 0.00038,
				"method": "rhf"
			},
			{
				"type": "unocc",
				"energy": 0.00429,
				"method": "rhf"
			}
		],
		"cosmo_sigma_profile": { 
			"-0.025": 0.0,
			"-0.024": 0.0,
			"-0.023": 0.0,
			"-0.022": 0.0,
			"-0.021": 0.0,
			"-0.02": 0.0,
			"-0.019": 0.0,
			"-0.018": 0.0,
			"-0.017": 0.0,
			"-0.016": 0.0,
			"-0.015": 0.0,
			"-0.014": 0.0,
			"-0.013": 0.0,
			"-0.012": 0.0,
			"-0.011": 0.0,
			"-0.01": 0.0,
			"-0.009": 0.0,
			"-0.008": 0.545380683245,
			"-0.007": 2.57116306696,
			"-0.006": 9.82807507065,
			"-0.005": 25.863026163,
			"-0.004": 37.3138429061,
			"-0.003": 50.6072976824,
			"-0.002": 55.6052172505,
			"-0.001": 51.2498093626,
			"0.0": 43.8816780311,
			"0.001": 38.681400774,
			"0.002": 35.1930192827,
			"0.003": 26.5583613874,
			"0.004": 26.1607851933,
			"0.005": 18.1330209293,
			"0.006": 14.0626564892,
			"0.007": 6.13208070136,
			"0.008": 2.07122758331,
			"0.009": 2.31822926479,
			"0.01": 2.86016385889,
			"0.011": 3.91848458194,
			"0.012": 2.97576587578,
			"0.013": 0.893472856479,
			"0.014": 0.0,
			"0.015": 0.0,
			"0.016": 0.0,
			"0.017": 0.0,
			"0.018": 0.0,
			"0.019": 0.0,
			"0.02": 0.0,
			"0.021": 0.0,
			"0.022": 0.0,
			"0.023": 0.0,
			"0.024": 0.0,
			"0.025": 0.0
		}
	}
}
