{
	 "smiles": "OC(=O)C1=CC=C(C=C1)N1C(=O)C2ON=C(C2C1=O)C(=O)C1=CC=C(Cl)C=C1", 
	 "Tm": 416.15, 
	 "num_atms": 39, 
	 "gaussian": { 
		 "optdone": 1, 
		 "sigma_profile": "yes", 
		 "theory": "DFT", 
		 "functional": "B3LYP", 
		 "basiset": "6-31G**", 
		 "properties": { 
			 "R2extent": 17938.389, 
			 "electric_dipole_moment_norm": 2.11705000649, 
			 "electric_quadrupole_moment_norm": 16.6482790402, 
			 "total_energy": -1751.65955172, 
			 "HOMO_LUMO_gap": 0.16431, 
			 "cosmo_polarized_energy": -23.34, 
			 "cosmo_cavitation_energy": 48.15, 
			 "cosmo_dispersion_energy": -34.26, 
			 "cosmo_repulsion_energy": 2.55, 
			 "cosmo_total_nonelectrostatic_energy": 16.44, 
			 "SMD_solvation_energy": 10.47 
		},
		"coords": [
			{
				"x": -0.1402924921,
				"y": -0.0979859935,
				"z": 6.6564966859,
				"element": "O" 
			},
			{
				"x": -0.5941946979,
				"y": -1.0642669543,
				"z": 5.8205353533,
				"element": "C" 
			},
			{
				"x": -1.273744172,
				"y": -1.9924869537,
				"z": 6.2109816226,
				"element": "O" 
			},
			{
				"x": -0.1723869298,
				"y": -0.8571952659,
				"z": 4.409157722,
				"element": "C" 
			},
			{
				"x": -0.5842693108,
				"y": -1.7962732586,
				"z": 3.4553663185,
				"element": "C" 
			},
			{
				"x": -0.2237617331,
				"y": -1.6512485164,
				"z": 2.1210742014,
				"element": "C" 
			},
			{
				"x": 0.5632270097,
				"y": -0.558308661,
				"z": 1.7363984141,
				"element": "C" 
			},
			{
				"x": 0.9844305236,
				"y": 0.3844683497,
				"z": 2.6815187716,
				"element": "C" 
			},
			{
				"x": 0.6120017635,
				"y": 0.2337650596,
				"z": 4.0137416927,
				"element": "C" 
			},
			{
				"x": 0.9394302313,
				"y": -0.4071698223,
				"z": 0.363211003,
				"element": "N" 
			},
			{
				"x": 1.3391094714,
				"y": -1.4809142599,
				"z": -0.4536399375,
				"element": "C" 
			},
			{
				"x": 1.4493461318,
				"y": -2.6343428688,
				"z": -0.1141535133,
				"element": "O" 
			},
			{
				"x": 1.5995139578,
				"y": -0.9276442719,
				"z": -1.857941034,
				"element": "C" 
			},
			{
				"x": 0.5434330788,
				"y": -1.397283516,
				"z": -2.7567719997,
				"element": "O" 
			},
			{
				"x": -0.1659138972,
				"y": -0.3190270263,
				"z": -3.2449963413,
				"element": "N" 
			},
			{
				"x": 0.2757457642,
				"y": 0.7821909044,
				"z": -2.7496468684,
				"element": "C" 
			},
			{
				"x": 1.4030161479,
				"y": 0.5781072572,
				"z": -1.7591609901,
				"element": "C" 
			},
			{
				"x": 0.9534627477,
				"y": 0.8333482716,
				"z": -0.3095849063,
				"element": "C" 
			},
			{
				"x": 0.65856017,
				"y": 1.8988959763,
				"z": 0.1728578277,
				"element": "O" 
			},
			{
				"x": -0.1381982162,
				"y": 2.1522274023,
				"z": -3.1928565904,
				"element": "C" 
			},
			{
				"x": 0.677750099,
				"y": 3.0458252397,
				"z": -2.9944592086,
				"element": "O" 
			},
			{
				"x": -1.4473946338,
				"y": 2.4170086787,
				"z": -3.8494759423,
				"element": "C" 
			},
			{
				"x": -2.4700861655,
				"y": 1.4642826302,
				"z": -3.9859463989,
				"element": "C" 
			},
			{
				"x": -3.6751696237,
				"y": 1.8050306621,
				"z": -4.5957367737,
				"element": "C" 
			},
			{
				"x": -3.8580431378,
				"y": 3.1047923504,
				"z": -5.068236052,
				"element": "C" 
			},
			{
				"x": -5.3728593819,
				"y": 3.5355692845,
				"z": -5.835267325,
				"element": "Cl" 
			},
			{
				"x": -2.8565577806,
				"y": 4.0714795527,
				"z": -4.9400229405,
				"element": "C" 
			},
			{
				"x": -1.6597802344,
				"y": 3.7218637048,
				"z": -4.3290102152,
				"element": "C" 
			},
			{
				"x": -0.4727240015,
				"y": -0.3327701332,
				"z": 7.538409295,
				"element": "H" 
			},
			{
				"x": -1.1919421039,
				"y": -2.634566495,
				"z": 3.7776602121,
				"element": "H" 
			},
			{
				"x": -0.5372734501,
				"y": -2.3819618697,
				"z": 1.3868873563,
				"element": "H" 
			},
			{
				"x": 1.5834059331,
				"y": 1.2320448571,
				"z": 2.3754537414,
				"element": "H" 
			},
			{
				"x": 0.9322293094,
				"y": 0.9613692394,
				"z": 4.7501527956,
				"element": "H" 
			},
			{
				"x": 2.5541803939,
				"y": -1.2879457721,
				"z": -2.2459320617,
				"element": "H" 
			},
			{
				"x": 2.2607946075,
				"y": 1.2137473135,
				"z": -1.9881189425,
				"element": "H" 
			},
			{
				"x": -2.3264900819,
				"y": 0.4531610226,
				"z": -3.6271478135,
				"element": "H" 
			},
			{
				"x": -4.4664292517,
				"y": 1.0718103143,
				"z": -4.7028496578,
				"element": "H" 
			},
			{
				"x": -3.0199431964,
				"y": 5.0764488424,
				"z": -5.3124936438,
				"element": "H" 
			},
			{
				"x": -0.8662828483,
				"y": 4.4513547251,
				"z": -4.2100538566,
				"element": "H" 
			}
		],
		 "valence_orbital": [ 
			{
				"type": "occ",
				"energy": -0.27972,
				"method": "rhf"
			},
			{
				"type": "occ",
				"energy": -0.27311,
				"method": "rhf"
			},
			{
				"type": "occ",
				"energy": -0.27262,
				"method": "rhf"
			},
			{
				"type": "occ",
				"energy": -0.26405,
				"method": "rhf"
			},
			{
				"type": "occ",
				"energy": -0.26259,
				"method": "rhf"
			},
			{
				"type": "unocc",
				"energy": -0.09828,
				"method": "rhf"
			},
			{
				"type": "unocc",
				"energy": -0.0673,
				"method": "rhf"
			},
			{
				"type": "unocc",
				"energy": -0.05728,
				"method": "rhf"
			},
			{
				"type": "unocc",
				"energy": -0.03853,
				"method": "rhf"
			},
			{
				"type": "unocc",
				"energy": -0.02731,
				"method": "rhf"
			}
		],
		"cosmo_sigma_profile": { 
			"-0.025": 0.0,
			"-0.024": 0.0,
			"-0.023": 0.0,
			"-0.022": 0.0,
			"-0.021": 0.0,
			"-0.02": 0.0,
			"-0.019": 0.224699265977,
			"-0.018": 0.789110319131,
			"-0.017": 0.882479154729,
			"-0.016": 0.800597891343,
			"-0.015": 0.680569696167,
			"-0.014": 0.811357965018,
			"-0.013": 0.624728150803,
			"-0.012": 2.08394297907,
			"-0.011": 4.33012377854,
			"-0.01": 9.0594257574,
			"-0.009": 6.07333251921,
			"-0.008": 8.67239936916,
			"-0.007": 15.9210089992,
			"-0.006": 21.0798234558,
			"-0.005": 18.1001615245,
			"-0.004": 16.8304243838,
			"-0.003": 18.0835742113,
			"-0.002": 18.7865617632,
			"-0.001": 25.3675490526,
			"0.0": 32.0027793839,
			"0.001": 36.3218240692,
			"0.002": 35.8945612669,
			"0.003": 20.8045285878,
			"0.004": 17.8882576567,
			"0.005": 10.0791623845,
			"0.006": 12.0185709687,
			"0.007": 10.8410898057,
			"0.008": 11.2233298737,
			"0.009": 10.7023270962,
			"0.01": 13.7089366889,
			"0.011": 7.26035343079,
			"0.012": 2.79642593016,
			"0.013": 0.0,
			"0.014": 0.0,
			"0.015": 0.0,
			"0.016": 0.0,
			"0.017": 0.0,
			"0.018": 0.0,
			"0.019": 0.0,
			"0.02": 0.0,
			"0.021": 0.0,
			"0.022": 0.0,
			"0.023": 0.0,
			"0.024": 0.0,
			"0.025": 0.0
		}
	}
}
