{
	 "smiles": "CN1CCN(CC1)C1=C(C=O)C=CC=C1", 
	 "Tm": 319.15, 
	 "num_atms": 31, 
	 "gaussian": { 
		 "optdone": 1, 
		 "sigma_profile": "yes", 
		 "theory": "DFT", 
		 "functional": "B3LYP", 
		 "basiset": "6-31G**", 
		 "properties": { 
			 "R2extent": 4475.9295, 
			 "electric_dipole_moment_norm": 4.11626888578, 
			 "electric_quadrupole_moment_norm": 16.6718601077, 
			 "total_energy": -651.606157602, 
			 "HOMO_LUMO_gap": 0.1499, 
			 "cosmo_polarized_energy": -10.06, 
			 "cosmo_cavitation_energy": 32.19, 
			 "cosmo_dispersion_energy": -23.12, 
			 "cosmo_repulsion_energy": 1.79, 
			 "cosmo_total_nonelectrostatic_energy": 10.85, 
			 "SMD_solvation_energy": 2.95 
		},
		"coords": [
			{
				"x": -2.3709287744,
				"y": -0.5142997424,
				"z": -2.4787301401,
				"element": "C" 
			},
			{
				"x": -1.5068758828,
				"y": -0.7879899956,
				"z": -1.3419518514,
				"element": "N" 
			},
			{
				"x": -0.3001503705,
				"y": 0.0414215764,
				"z": -1.3687473642,
				"element": "C" 
			},
			{
				"x": 0.4417833447,
				"y": -0.0312753078,
				"z": -0.0391060676,
				"element": "C" 
			},
			{
				"x": -0.3753778309,
				"y": 0.5762668099,
				"z": 1.0366341756,
				"element": "N" 
			},
			{
				"x": -1.8245087495,
				"y": 0.4763235378,
				"z": 0.7922015934,
				"element": "C" 
			},
			{
				"x": -2.1947466524,
				"y": -0.7605129227,
				"z": -0.0368514499,
				"element": "C" 
			},
			{
				"x": 0.1111348029,
				"y": 0.3517416018,
				"z": 2.3496595068,
				"element": "C" 
			},
			{
				"x": 1.2728679977,
				"y": 1.0379199651,
				"z": 2.7826000837,
				"element": "C" 
			},
			{
				"x": 1.8762901382,
				"y": 2.1226859082,
				"z": 1.9737697618,
				"element": "C" 
			},
			{
				"x": 2.9395995069,
				"y": 2.6599427983,
				"z": 2.2359363195,
				"element": "O" 
			},
			{
				"x": 1.8216277787,
				"y": 0.7701840758,
				"z": 4.0464904951,
				"element": "C" 
			},
			{
				"x": 1.2165454456,
				"y": -0.1327851437,
				"z": 4.910798137,
				"element": "C" 
			},
			{
				"x": 0.0454708928,
				"y": -0.781713324,
				"z": 4.5044338719,
				"element": "C" 
			},
			{
				"x": -0.4947037197,
				"y": -0.5521390844,
				"z": 3.2405810403,
				"element": "C" 
			},
			{
				"x": -2.7834615663,
				"y": 0.5139241166,
				"z": -2.4927106783,
				"element": "H" 
			},
			{
				"x": -3.2085582272,
				"y": -1.2184220269,
				"z": -2.4922528943,
				"element": "H" 
			},
			{
				"x": -1.8063069928,
				"y": -0.6537127352,
				"z": -3.4073195878,
				"element": "H" 
			},
			{
				"x": 0.3605715329,
				"y": -0.3170883463,
				"z": -2.1677304042,
				"element": "H" 
			},
			{
				"x": -0.5218882304,
				"y": 1.1034072372,
				"z": -1.5931121234,
				"element": "H" 
			},
			{
				"x": 0.6703379082,
				"y": -1.0857851434,
				"z": 0.1845371252,
				"element": "H" 
			},
			{
				"x": 1.3962033598,
				"y": 0.4971924373,
				"z": -0.1265657572,
				"element": "H" 
			},
			{
				"x": -2.3531923118,
				"y": 0.4761742315,
				"z": 1.7482075607,
				"element": "H" 
			},
			{
				"x": -2.154635178,
				"y": 1.3777132019,
				"z": 0.257249481,
				"element": "H" 
			},
			{
				"x": -1.9433990384,
				"y": -1.6677916819,
				"z": 0.5311175913,
				"element": "H" 
			},
			{
				"x": -3.2784190187,
				"y": -0.7791987794,
				"z": -0.1969789942,
				"element": "H" 
			},
			{
				"x": 1.2666732837,
				"y": 2.4550976986,
				"z": 1.1109556749,
				"element": "H" 
			},
			{
				"x": 2.7151179945,
				"y": 1.3178051669,
				"z": 4.3305201974,
				"element": "H" 
			},
			{
				"x": 1.6396023263,
				"y": -0.3265633152,
				"z": 5.8916211893,
				"element": "H" 
			},
			{
				"x": -0.4413904116,
				"y": -1.4899661688,
				"z": 5.1695152221,
				"element": "H" 
			},
			{
				"x": -1.3789833576,
				"y": -1.1015566455,
				"z": 2.934628286,
				"element": "H" 
			}
		],
		 "valence_orbital": [ 
			{
				"type": "occ",
				"energy": -0.2721,
				"method": "rhf"
			},
			{
				"type": "occ",
				"energy": -0.2566,
				"method": "rhf"
			},
			{
				"type": "occ",
				"energy": -0.2446,
				"method": "rhf"
			},
			{
				"type": "occ",
				"energy": -0.21447,
				"method": "rhf"
			},
			{
				"type": "occ",
				"energy": -0.20537,
				"method": "rhf"
			},
			{
				"type": "unocc",
				"energy": -0.05547,
				"method": "rhf"
			},
			{
				"type": "unocc",
				"energy": -0.00653,
				"method": "rhf"
			},
			{
				"type": "unocc",
				"energy": 0.04045,
				"method": "rhf"
			},
			{
				"type": "unocc",
				"energy": 0.07051,
				"method": "rhf"
			},
			{
				"type": "unocc",
				"energy": 0.08974,
				"method": "rhf"
			}
		],
		"cosmo_sigma_profile": { 
			"-0.025": 0.0,
			"-0.024": 0.0,
			"-0.023": 0.0,
			"-0.022": 0.0,
			"-0.021": 0.0,
			"-0.02": 0.0,
			"-0.019": 0.0,
			"-0.018": 0.0,
			"-0.017": 0.0,
			"-0.016": 0.0,
			"-0.015": 0.0,
			"-0.014": 0.0,
			"-0.013": 0.0,
			"-0.012": 0.0,
			"-0.011": 0.0,
			"-0.01": 0.0,
			"-0.009": 0.0,
			"-0.008": 0.0,
			"-0.007": 0.701190929343,
			"-0.006": 8.00039251133,
			"-0.005": 15.1932112382,
			"-0.004": 24.394362599,
			"-0.003": 32.8026748337,
			"-0.002": 35.7318812566,
			"-0.001": 28.8665523431,
			"0.0": 21.9904291328,
			"0.001": 14.0400447948,
			"0.002": 11.5033398012,
			"0.003": 13.8342879043,
			"0.004": 13.7117142816,
			"0.005": 6.3616618653,
			"0.006": 3.09612561204,
			"0.007": 2.67094814702,
			"0.008": 2.37741950429,
			"0.009": 2.22020568017,
			"0.01": 2.79479637188,
			"0.011": 3.8211108137,
			"0.012": 4.91880246619,
			"0.013": 2.3597373826,
			"0.014": 0.71734837238,
			"0.015": 0.286184621495,
			"0.016": 0.42129519427,
			"0.017": 0.115930751615,
			"0.018": 0.0,
			"0.019": 0.0,
			"0.02": 0.0,
			"0.021": 0.0,
			"0.022": 0.0,
			"0.023": 0.0,
			"0.024": 0.0,
			"0.025": 0.0
		}
	}
}
