{
	 "smiles": "CC(C)CCC1=NOC(N)=C1", 
	 "Tm": 335.15, 
	 "num_atms": 25, 
	 "gaussian": { 
		 "optdone": 1, 
		 "sigma_profile": "yes", 
		 "theory": "DFT", 
		 "functional": "B3LYP", 
		 "basiset": "6-31G**", 
		 "properties": { 
			 "R2extent": 3275.6955, 
			 "electric_dipole_moment_norm": 3.6570384972, 
			 "electric_quadrupole_moment_norm": 16.6578538888, 
			 "total_energy": -497.983763673, 
			 "HOMO_LUMO_gap": 0.2319, 
			 "cosmo_polarized_energy": -12.76, 
			 "cosmo_cavitation_energy": 27.92, 
			 "cosmo_dispersion_energy": -20.12, 
			 "cosmo_repulsion_energy": 1.66, 
			 "cosmo_total_nonelectrostatic_energy": 9.46, 
			 "SMD_solvation_energy": 4.64 
		},
		"coords": [
			{
				"x": 1.0375733124,
				"y": -2.0310540568,
				"z": 3.2632156507,
				"element": "C" 
			},
			{
				"x": 0.3277074696,
				"y": -0.9767664435,
				"z": 2.4004585129,
				"element": "C" 
			},
			{
				"x": -1.1816877043,
				"y": -0.9729861832,
				"z": 2.6875346415,
				"element": "C" 
			},
			{
				"x": 0.6452108275,
				"y": -1.2037862875,
				"z": 0.9093989297,
				"element": "C" 
			},
			{
				"x": 0.1330192389,
				"y": -0.0953167802,
				"z": -0.0306273785,
				"element": "C" 
			},
			{
				"x": 0.5367378052,
				"y": -0.308988381,
				"z": -1.461594644,
				"element": "C" 
			},
			{
				"x": -0.3909726758,
				"y": -0.5555530136,
				"z": -2.3611931104,
				"element": "N" 
			},
			{
				"x": 0.319052083,
				"y": -0.7193690818,
				"z": -3.5839332588,
				"element": "O" 
			},
			{
				"x": 1.630974038,
				"y": -0.5577150592,
				"z": -3.3470029435,
				"element": "C" 
			},
			{
				"x": 2.4553293985,
				"y": -0.6240239532,
				"z": -4.4463670717,
				"element": "N" 
			},
			{
				"x": 1.8485111626,
				"y": -0.2972443931,
				"z": -2.019491623,
				"element": "C" 
			},
			{
				"x": 0.6786108442,
				"y": -3.0392657091,
				"z": 3.0226755696,
				"element": "H" 
			},
			{
				"x": 2.1213200085,
				"y": -2.0172707266,
				"z": 3.1027775053,
				"element": "H" 
			},
			{
				"x": 0.8541571496,
				"y": -1.8604636498,
				"z": 4.3295559686,
				"element": "H" 
			},
			{
				"x": 0.7278351682,
				"y": 0.0103411818,
				"z": 2.6792378356,
				"element": "H" 
			},
			{
				"x": -1.3753816183,
				"y": -0.8226773501,
				"z": 3.7551337271,
				"element": "H" 
			},
			{
				"x": -1.6347728059,
				"y": -1.9296614166,
				"z": 2.3995532897,
				"element": "H" 
			},
			{
				"x": -1.7051993142,
				"y": -0.1802364473,
				"z": 2.1446582989,
				"element": "H" 
			},
			{
				"x": 0.2227846277,
				"y": -2.1661147311,
				"z": 0.589389028,
				"element": "H" 
			},
			{
				"x": 1.7330007673,
				"y": -1.2938581034,
				"z": 0.790977285,
				"element": "H" 
			},
			{
				"x": -0.9585077465,
				"y": -0.0358886695,
				"z": 0.0003677641,
				"element": "H" 
			},
			{
				"x": 0.5196718388,
				"y": 0.8751988696,
				"z": 0.3085206598,
				"element": "H" 
			},
			{
				"x": 2.0581858142,
				"y": -1.1199583619,
				"z": -5.2333247946,
				"element": "H" 
			},
			{
				"x": 3.4101974791,
				"y": -0.8869059128,
				"z": -4.2496621865,
				"element": "H" 
			},
			{
				"x": 2.7875428319,
				"y": -0.1124353399,
				"z": -1.5216576554,
				"element": "H" 
			}
		],
		 "valence_orbital": [ 
			{
				"type": "occ",
				"energy": -0.31988,
				"method": "rhf"
			},
			{
				"type": "occ",
				"energy": -0.31665,
				"method": "rhf"
			},
			{
				"type": "occ",
				"energy": -0.28891,
				"method": "rhf"
			},
			{
				"type": "occ",
				"energy": -0.27113,
				"method": "rhf"
			},
			{
				"type": "occ",
				"energy": -0.21314,
				"method": "rhf"
			},
			{
				"type": "unocc",
				"energy": 0.01876,
				"method": "rhf"
			},
			{
				"type": "unocc",
				"energy": 0.06064,
				"method": "rhf"
			},
			{
				"type": "unocc",
				"energy": 0.08142,
				"method": "rhf"
			},
			{
				"type": "unocc",
				"energy": 0.08736,
				"method": "rhf"
			},
			{
				"type": "unocc",
				"energy": 0.1111,
				"method": "rhf"
			}
		],
		"cosmo_sigma_profile": { 
			"-0.025": 0.0,
			"-0.024": 0.0,
			"-0.023": 0.0,
			"-0.022": 0.0,
			"-0.021": 0.0,
			"-0.02": 0.0,
			"-0.019": 0.0,
			"-0.018": 0.0,
			"-0.017": 0.0,
			"-0.016": 0.0,
			"-0.015": 0.247183034407,
			"-0.014": 2.45661437771,
			"-0.013": 2.66811869934,
			"-0.012": 2.90991859826,
			"-0.011": 2.23129996849,
			"-0.01": 2.68208755965,
			"-0.009": 1.86966424736,
			"-0.008": 1.7567059871,
			"-0.007": 3.80237905785,
			"-0.006": 3.74507312991,
			"-0.005": 2.32085383299,
			"-0.004": 6.43705478145,
			"-0.003": 16.6047964132,
			"-0.002": 28.0421860686,
			"-0.001": 28.5036383383,
			"0.0": 23.7172892217,
			"0.001": 23.6394223969,
			"0.002": 15.8791735134,
			"0.003": 6.98049399984,
			"0.004": 7.48688942207,
			"0.005": 5.606618682,
			"0.006": 2.9672731124,
			"0.007": 3.13359058363,
			"0.008": 2.62836076844,
			"0.009": 6.29126360686,
			"0.01": 3.2732651152,
			"0.011": 2.64599767831,
			"0.012": 1.7374737428,
			"0.013": 1.62883861894,
			"0.014": 1.54274984158,
			"0.015": 1.40597727694,
			"0.016": 0.588456141423,
			"0.017": 0.0,
			"0.018": 0.0,
			"0.019": 0.0,
			"0.02": 0.0,
			"0.021": 0.0,
			"0.022": 0.0,
			"0.023": 0.0,
			"0.024": 0.0,
			"0.025": 0.0
		}
	}
}
