{
	 "smiles": "C1C2=CC=CC=C2C2=CC=CC=C12", 
	 "Tm": 387.15, 
	 "num_atms": 23, 
	 "gaussian": { 
		 "optdone": 1, 
		 "sigma_profile": "yes", 
		 "theory": "DFT", 
		 "functional": "B3LYP", 
		 "basiset": "6-31G**", 
		 "properties": { 
			 "R2extent": 2752.9577, 
			 "electric_dipole_moment_norm": 0.5008837989, 
			 "electric_quadrupole_moment_norm": 7.13419597572, 
			 "total_energy": -501.427926886, 
			 "HOMO_LUMO_gap": 0.18495, 
			 "cosmo_polarized_energy": -5.2, 
			 "cosmo_cavitation_energy": 26.09, 
			 "cosmo_dispersion_energy": -19.55, 
			 "cosmo_repulsion_energy": 1.51, 
			 "cosmo_total_nonelectrostatic_energy": 8.06, 
			 "SMD_solvation_energy": 3.69 
		},
		"coords": [
			{
				"x": -1.2935365288,
				"y": -1.3123733728,
				"z": -0.9165317908,
				"element": "C" 
			},
			{
				"x": -1.9128190332,
				"y": -0.1353903888,
				"z": -0.1892707153,
				"element": "C" 
			},
			{
				"x": -3.0249700867,
				"y": 0.6278158276,
				"z": -0.5269294214,
				"element": "C" 
			},
			{
				"x": -3.4090243795,
				"y": 1.6783697929,
				"z": 0.3145013531,
				"element": "C" 
			},
			{
				"x": -2.6849825689,
				"y": 1.9575423644,
				"z": 1.4790374831,
				"element": "C" 
			},
			{
				"x": -1.567208464,
				"y": 1.1943677119,
				"z": 1.8230821637,
				"element": "C" 
			},
			{
				"x": -1.1821793821,
				"y": 0.1453829334,
				"z": 0.9846498931,
				"element": "C" 
			},
			{
				"x": -0.0711748109,
				"y": -0.8115207018,
				"z": 1.0851875684,
				"element": "C" 
			},
			{
				"x": 0.9296681191,
				"y": -0.9561605256,
				"z": 2.0490239713,
				"element": "C" 
			},
			{
				"x": 1.8761011764,
				"y": -1.9709413549,
				"z": 1.8918143071,
				"element": "C" 
			},
			{
				"x": 1.8251080769,
				"y": -2.8299248505,
				"z": 0.7882421325,
				"element": "C" 
			},
			{
				"x": 0.8231860584,
				"y": -2.6867383638,
				"z": -0.1786086531,
				"element": "C" 
			},
			{
				"x": -0.1217976015,
				"y": -1.6780450645,
				"z": -0.0271575958,
				"element": "C" 
			},
			{
				"x": -2.0009325903,
				"y": -2.1452723535,
				"z": -1.0268761457,
				"element": "H" 
			},
			{
				"x": -0.9707386967,
				"y": -1.044282969,
				"z": -1.9315357218,
				"element": "H" 
			},
			{
				"x": -3.5915319722,
				"y": 0.4157913875,
				"z": -1.4303068165,
				"element": "H" 
			},
			{
				"x": -4.2760740488,
				"y": 2.2818741314,
				"z": 0.0616081728,
				"element": "H" 
			},
			{
				"x": -2.9957812783,
				"y": 2.7763747704,
				"z": 2.121823853,
				"element": "H" 
			},
			{
				"x": -1.0095471795,
				"y": 1.4166555352,
				"z": 2.7288026629,
				"element": "H" 
			},
			{
				"x": 0.975183847,
				"y": -0.2927192323,
				"z": 2.9083936761,
				"element": "H" 
			},
			{
				"x": 2.6600187068,
				"y": -2.0949987622,
				"z": 2.6336615833,
				"element": "H" 
			},
			{
				"x": 2.5691130427,
				"y": -3.6141067586,
				"z": 0.6811805873,
				"element": "H" 
			},
			{
				"x": 0.788819594,
				"y": -3.3571997563,
				"z": -1.0337925473,
				"element": "H" 
			}
		],
		 "valence_orbital": [ 
			{
				"type": "occ",
				"energy": -0.32729,
				"method": "rhf"
			},
			{
				"type": "occ",
				"energy": -0.27778,
				"method": "rhf"
			},
			{
				"type": "occ",
				"energy": -0.24709,
				"method": "rhf"
			},
			{
				"type": "occ",
				"energy": -0.23933,
				"method": "rhf"
			},
			{
				"type": "occ",
				"energy": -0.21177,
				"method": "rhf"
			},
			{
				"type": "unocc",
				"energy": -0.02682,
				"method": "rhf"
			},
			{
				"type": "unocc",
				"energy": -0.00794,
				"method": "rhf"
			},
			{
				"type": "unocc",
				"energy": 0.01222,
				"method": "rhf"
			},
			{
				"type": "unocc",
				"energy": 0.04432,
				"method": "rhf"
			},
			{
				"type": "unocc",
				"energy": 0.10125,
				"method": "rhf"
			}
		],
		"cosmo_sigma_profile": { 
			"-0.025": 0.0,
			"-0.024": 0.0,
			"-0.023": 0.0,
			"-0.022": 0.0,
			"-0.021": 0.0,
			"-0.02": 0.0,
			"-0.019": 0.0,
			"-0.018": 0.0,
			"-0.017": 0.0,
			"-0.016": 0.0,
			"-0.015": 0.0,
			"-0.014": 0.0,
			"-0.013": 0.0,
			"-0.012": 0.0,
			"-0.011": 0.0,
			"-0.01": 0.0,
			"-0.009": 0.0,
			"-0.008": 0.0,
			"-0.007": 0.0,
			"-0.006": 5.88916106463,
			"-0.005": 20.8956808374,
			"-0.004": 21.7733014474,
			"-0.003": 23.4162326845,
			"-0.002": 19.0361274934,
			"-0.001": 13.939697571,
			"0.0": 11.1956018804,
			"0.001": 12.3805596369,
			"0.002": 12.0940407856,
			"0.003": 16.6488579048,
			"0.004": 17.4190189504,
			"0.005": 16.7224859418,
			"0.006": 15.6574134992,
			"0.007": 2.1483380266,
			"0.008": 0.0,
			"0.009": 0.0,
			"0.01": 0.0,
			"0.011": 0.0,
			"0.012": 0.0,
			"0.013": 0.0,
			"0.014": 0.0,
			"0.015": 0.0,
			"0.016": 0.0,
			"0.017": 0.0,
			"0.018": 0.0,
			"0.019": 0.0,
			"0.02": 0.0,
			"0.021": 0.0,
			"0.022": 0.0,
			"0.023": 0.0,
			"0.024": 0.0,
			"0.025": 0.0
		}
	}
}
