{
	 "smiles": "CC1=NC(=N)C(C)=C(C)N1", 
	 "Tm": 470.15, 
	 "num_atms": 21, 
	 "gaussian": { 
		 "optdone": 1, 
		 "sigma_profile": "yes", 
		 "theory": "DFT", 
		 "functional": "B3LYP", 
		 "basiset": "6-31G**", 
		 "properties": { 
			 "R2extent": 2075.8819, 
			 "electric_dipole_moment_norm": 6.8471991858, 
			 "electric_quadrupole_moment_norm": 22.0707123716, 
			 "total_energy": -437.626651787, 
			 "HOMO_LUMO_gap": 0.19464, 
			 "cosmo_polarized_energy": -23.74, 
			 "cosmo_cavitation_energy": 23.72, 
			 "cosmo_dispersion_energy": -17.67, 
			 "cosmo_repulsion_energy": 1.43, 
			 "cosmo_total_nonelectrostatic_energy": 7.49, 
			 "SMD_solvation_energy": 1.77 
		},
		"coords": [
			{
				"x": 1.5598604308,
				"y": -1.1243366796,
				"z": 2.2054794331,
				"element": "C" 
			},
			{
				"x": 0.3006124311,
				"y": -0.4509145955,
				"z": 1.7278654822,
				"element": "C" 
			},
			{
				"x": -0.4959672011,
				"y": 0.1202302054,
				"z": 2.5604012027,
				"element": "N" 
			},
			{
				"x": -1.670613708,
				"y": 0.7458524893,
				"z": 2.0924187914,
				"element": "C" 
			},
			{
				"x": -2.4188091626,
				"y": 1.2965334045,
				"z": 2.9858337075,
				"element": "N" 
			},
			{
				"x": -1.942810976,
				"y": 0.7178789308,
				"z": 0.6298589465,
				"element": "C" 
			},
			{
				"x": -3.2007142464,
				"y": 1.3910976406,
				"z": 0.1523467906,
				"element": "C" 
			},
			{
				"x": -1.0583266299,
				"y": 0.0965239974,
				"z": -0.1928812016,
				"element": "C" 
			},
			{
				"x": -1.1325753527,
				"y": -0.0512411879,
				"z": -1.6879081515,
				"element": "C" 
			},
			{
				"x": 0.0727726561,
				"y": -0.4915580655,
				"z": 0.3686531804,
				"element": "N" 
			},
			{
				"x": 1.6192258079,
				"y": -1.0231671467,
				"z": 3.2882863641,
				"element": "H" 
			},
			{
				"x": 2.4485741619,
				"y": -0.6674929465,
				"z": 1.7539900244,
				"element": "H" 
			},
			{
				"x": 1.5626009524,
				"y": -2.1893725512,
				"z": 1.9446279878,
				"element": "H" 
			},
			{
				"x": -3.2390127769,
				"y": 1.7194063597,
				"z": 2.5495853885,
				"element": "H" 
			},
			{
				"x": -4.0837099801,
				"y": 0.9405851448,
				"z": 0.6229969474,
				"element": "H" 
			},
			{
				"x": -3.2012334697,
				"y": 2.4526358672,
				"z": 0.4303640165,
				"element": "H" 
			},
			{
				"x": -3.3379979446,
				"y": 1.3336728701,
				"z": -0.9279046836,
				"element": "H" 
			},
			{
				"x": -0.2575925616,
				"y": 0.4079493608,
				"z": -2.1650497229,
				"element": "H" 
			},
			{
				"x": -1.1415878874,
				"y": -1.1114137383,
				"z": -1.9708843747,
				"element": "H" 
			},
			{
				"x": -2.0225744113,
				"y": 0.4128042866,
				"z": -2.1079905611,
				"element": "H" 
			},
			{
				"x": 0.7352798682,
				"y": -0.9559736463,
				"z": -0.2340895675,
				"element": "H" 
			}
		],
		 "valence_orbital": [ 
			{
				"type": "occ",
				"energy": -0.32764,
				"method": "rhf"
			},
			{
				"type": "occ",
				"energy": -0.27263,
				"method": "rhf"
			},
			{
				"type": "occ",
				"energy": -0.25437,
				"method": "rhf"
			},
			{
				"type": "occ",
				"energy": -0.22732,
				"method": "rhf"
			},
			{
				"type": "occ",
				"energy": -0.19852,
				"method": "rhf"
			},
			{
				"type": "unocc",
				"energy": -0.00388,
				"method": "rhf"
			},
			{
				"type": "unocc",
				"energy": 0.00195,
				"method": "rhf"
			},
			{
				"type": "unocc",
				"energy": 0.05878,
				"method": "rhf"
			},
			{
				"type": "unocc",
				"energy": 0.09034,
				"method": "rhf"
			},
			{
				"type": "unocc",
				"energy": 0.11545,
				"method": "rhf"
			}
		],
		"cosmo_sigma_profile": { 
			"-0.025": 0.0,
			"-0.024": 0.0,
			"-0.023": 0.0,
			"-0.022": 0.0,
			"-0.021": 0.0,
			"-0.02": 0.0,
			"-0.019": 0.0,
			"-0.018": 0.0,
			"-0.017": 0.0,
			"-0.016": 0.558417608445,
			"-0.015": 1.01674166443,
			"-0.014": 1.56651641161,
			"-0.013": 0.931154441001,
			"-0.012": 1.38278698293,
			"-0.011": 1.78740114935,
			"-0.01": 1.69957957276,
			"-0.009": 1.30520239851,
			"-0.008": 2.02299989922,
			"-0.007": 4.86082543153,
			"-0.006": 11.9589215795,
			"-0.005": 14.0578009368,
			"-0.004": 16.1545810148,
			"-0.003": 16.4079303621,
			"-0.002": 18.6597716572,
			"-0.001": 18.8648177462,
			"0.0": 16.5116344792,
			"0.001": 9.3469159539,
			"0.002": 7.55390943782,
			"0.003": 4.68199236997,
			"0.004": 2.47951710301,
			"0.005": 2.54014275866,
			"0.006": 1.79562275013,
			"0.007": 1.77236936702,
			"0.008": 2.81962310243,
			"0.009": 1.43875720899,
			"0.01": 1.6522433191,
			"0.011": 1.65567043084,
			"0.012": 1.60701103248,
			"0.013": 1.85044856841,
			"0.014": 1.97706511671,
			"0.015": 2.06309792877,
			"0.016": 1.61299908071,
			"0.017": 1.79963009199,
			"0.018": 2.32197387848,
			"0.019": 1.9964513306,
			"0.02": 2.64832511278,
			"0.021": 1.61887993301,
			"0.022": 0.0590298546564,
			"0.023": 0.0,
			"0.024": 0.0,
			"0.025": 0.0
		}
	}
}
