{
	 "smiles": "O=C1C2=CC=CC=C2CSC2=CC=CC=C12", 
	 "Tm": 360.15, 
	 "num_atms": 26, 
	 "gaussian": { 
		 "optdone": 1, 
		 "sigma_profile": "yes", 
		 "theory": "DFT", 
		 "functional": "B3LYP", 
		 "basiset": "6-31G**", 
		 "properties": { 
			 "R2extent": 4087.9627, 
			 "electric_dipole_moment_norm": 1.76537245079, 
			 "electric_quadrupole_moment_norm": 13.2385724922, 
			 "total_energy": -1012.92461216, 
			 "HOMO_LUMO_gap": 0.15045, 
			 "cosmo_polarized_energy": -9.73, 
			 "cosmo_cavitation_energy": 30.51, 
			 "cosmo_dispersion_energy": -23.1, 
			 "cosmo_repulsion_energy": 1.7, 
			 "cosmo_total_nonelectrostatic_energy": 9.11, 
			 "SMD_solvation_energy": 4.79 
		},
		"coords": [
			{
				"x": 1.3297390026,
				"y": -1.3098688818,
				"z": 0.7015275763,
				"element": "O" 
			},
			{
				"x": 0.6122856747,
				"y": -0.3185584614,
				"z": 0.5935854005,
				"element": "C" 
			},
			{
				"x": 1.3137735224,
				"y": 0.9989743217,
				"z": 0.3926722876,
				"element": "C" 
			},
			{
				"x": 2.4722204124,
				"y": 0.955770571,
				"z": -0.4004367501,
				"element": "C" 
			},
			{
				"x": 3.2354061178,
				"y": 2.0987172535,
				"z": -0.617594929,
				"element": "C" 
			},
			{
				"x": 2.8680590798,
				"y": 3.3009182342,
				"z": -0.009842471,
				"element": "C" 
			},
			{
				"x": 1.7374204757,
				"y": 3.3474688885,
				"z": 0.8033949843,
				"element": "C" 
			},
			{
				"x": 0.9496647583,
				"y": 2.2088930599,
				"z": 1.0082365402,
				"element": "C" 
			},
			{
				"x": -0.2702739918,
				"y": 2.2787406638,
				"z": 1.8780519969,
				"element": "C" 
			},
			{
				"x": -1.8088960727,
				"y": 2.1779390819,
				"z": 0.891101943,
				"element": "S" 
			},
			{
				"x": -1.9301138639,
				"y": 0.4372384062,
				"z": 0.5447273377,
				"element": "C" 
			},
			{
				"x": -3.2541947329,
				"y": 0.0238275178,
				"z": 0.2992468167,
				"element": "C" 
			},
			{
				"x": -3.5669087618,
				"y": -1.3044900113,
				"z": 0.0509233394,
				"element": "C" 
			},
			{
				"x": -2.5541616949,
				"y": -2.2684730916,
				"z": 0.0715382611,
				"element": "C" 
			},
			{
				"x": -1.2482299346,
				"y": -1.872097663,
				"z": 0.3055296145,
				"element": "C" 
			},
			{
				"x": -0.8860381623,
				"y": -0.5210388065,
				"z": 0.5171829985,
				"element": "C" 
			},
			{
				"x": 2.7603017729,
				"y": 0.0064573574,
				"z": -0.8383560232,
				"element": "H" 
			},
			{
				"x": 4.1173702014,
				"y": 2.0501943502,
				"z": -1.2491158668,
				"element": "H" 
			},
			{
				"x": 3.4626998994,
				"y": 4.1969668722,
				"z": -0.162256941,
				"element": "H" 
			},
			{
				"x": 1.4593491567,
				"y": 4.2781542699,
				"z": 1.2912755827,
				"element": "H" 
			},
			{
				"x": -0.3305763107,
				"y": 3.2369430096,
				"z": 2.3999788624,
				"element": "H" 
			},
			{
				"x": -0.2987494549,
				"y": 1.4844170058,
				"z": 2.6302538474,
				"element": "H" 
			},
			{
				"x": -4.046770491,
				"y": 0.7656396635,
				"z": 0.3355511546,
				"element": "H" 
			},
			{
				"x": -4.5988676664,
				"y": -1.5888088247,
				"z": -0.1338426196,
				"element": "H" 
			},
			{
				"x": -2.7834132841,
				"y": -3.315535672,
				"z": -0.1003567807,
				"element": "H" 
			},
			{
				"x": -0.4426956521,
				"y": -2.5966891147,
				"z": 0.3089238377,
				"element": "H" 
			}
		],
		 "valence_orbital": [ 
			{
				"type": "occ",
				"energy": -0.26536,
				"method": "rhf"
			},
			{
				"type": "occ",
				"energy": -0.25942,
				"method": "rhf"
			},
			{
				"type": "occ",
				"energy": -0.25234,
				"method": "rhf"
			},
			{
				"type": "occ",
				"energy": -0.24596,
				"method": "rhf"
			},
			{
				"type": "occ",
				"energy": -0.22018,
				"method": "rhf"
			},
			{
				"type": "unocc",
				"energy": -0.06973,
				"method": "rhf"
			},
			{
				"type": "unocc",
				"energy": -0.01532,
				"method": "rhf"
			},
			{
				"type": "unocc",
				"energy": -0.01397,
				"method": "rhf"
			},
			{
				"type": "unocc",
				"energy": -0.00764,
				"method": "rhf"
			},
			{
				"type": "unocc",
				"energy": 0.03347,
				"method": "rhf"
			}
		],
		"cosmo_sigma_profile": { 
			"-0.025": 0.0,
			"-0.024": 0.0,
			"-0.023": 0.0,
			"-0.022": 0.0,
			"-0.021": 0.0,
			"-0.02": 0.0,
			"-0.019": 0.0,
			"-0.018": 0.0,
			"-0.017": 0.0,
			"-0.016": 0.0,
			"-0.015": 0.0,
			"-0.014": 0.0,
			"-0.013": 0.0,
			"-0.012": 0.0,
			"-0.011": 0.0,
			"-0.01": 0.0,
			"-0.009": 0.0,
			"-0.008": 2.86439024576,
			"-0.007": 10.0527407758,
			"-0.006": 17.8913628631,
			"-0.005": 19.2858074901,
			"-0.004": 20.5958776125,
			"-0.003": 15.8180699263,
			"-0.002": 15.0620373376,
			"-0.001": 13.1260513091,
			"0.0": 15.9308436152,
			"0.001": 14.8567442796,
			"0.002": 19.5362007652,
			"0.003": 26.0231001646,
			"0.004": 25.6903628249,
			"0.005": 8.37400917994,
			"0.006": 4.89599211952,
			"0.007": 4.34467377007,
			"0.008": 2.38364393914,
			"0.009": 2.16780710363,
			"0.01": 1.89543934519,
			"0.011": 2.71629938275,
			"0.012": 3.07135351548,
			"0.013": 0.590126332611,
			"0.014": 0.0,
			"0.015": 0.0,
			"0.016": 0.0,
			"0.017": 0.0,
			"0.018": 0.0,
			"0.019": 0.0,
			"0.02": 0.0,
			"0.021": 0.0,
			"0.022": 0.0,
			"0.023": 0.0,
			"0.024": 0.0,
			"0.025": 0.0
		}
	}
}
