{
	 "smiles": "OC(=O)CCNC1=NC=CS1", 
	 "Tm": 445.15, 
	 "num_atms": 19, 
	 "gaussian": { 
		 "optdone": 1, 
		 "sigma_profile": "yes", 
		 "theory": "DFT", 
		 "functional": "B3LYP", 
		 "basiset": "6-31G**", 
		 "properties": { 
			 "R2extent": 2448.1901, 
			 "electric_dipole_moment_norm": 1.8374769604, 
			 "electric_quadrupole_moment_norm": 6.60185001344, 
			 "total_energy": -891.606766002, 
			 "HOMO_LUMO_gap": 0.19864, 
			 "cosmo_polarized_energy": -11.8, 
			 "cosmo_cavitation_energy": 24.97, 
			 "cosmo_dispersion_energy": -18.78, 
			 "cosmo_repulsion_energy": 1.48, 
			 "cosmo_total_nonelectrostatic_energy": 7.68, 
			 "SMD_solvation_energy": 3.41 
		},
		"coords": [
			{
				"x": -1.6592273944,
				"y": -0.4623492021,
				"z": 3.0774327102,
				"element": "O" 
			},
			{
				"x": -1.4191940088,
				"y": -0.9312448242,
				"z": 1.8341706265,
				"element": "C" 
			},
			{
				"x": -2.3124142672,
				"y": -1.1326283006,
				"z": 1.0334498072,
				"element": "O" 
			},
			{
				"x": 0.0545899766,
				"y": -1.1542333695,
				"z": 1.5843918471,
				"element": "C" 
			},
			{
				"x": 0.3193263464,
				"y": -1.8965443704,
				"z": 0.2672909386,
				"element": "C" 
			},
			{
				"x": -0.1335889125,
				"y": -1.1779687664,
				"z": -0.9184658546,
				"element": "N" 
			},
			{
				"x": 0.592916559,
				"y": -0.1056400601,
				"z": -1.3676176387,
				"element": "C" 
			},
			{
				"x": 1.7882839591,
				"y": 0.2106566644,
				"z": -0.9444901397,
				"element": "N" 
			},
			{
				"x": 2.2757291204,
				"y": 1.2978189679,
				"z": -1.6418296735,
				"element": "C" 
			},
			{
				"x": 1.4660308142,
				"y": 1.8348780883,
				"z": -2.591501876,
				"element": "C" 
			},
			{
				"x": -0.0311569627,
				"y": 0.9289653504,
				"z": -2.6679823405,
				"element": "S" 
			},
			{
				"x": -2.6207892999,
				"y": -0.33162794,
				"z": 3.140661898,
				"element": "H" 
			},
			{
				"x": 0.4734386139,
				"y": -1.7021044979,
				"z": 2.4363462146,
				"element": "H" 
			},
			{
				"x": 0.5571457581,
				"y": -0.1799380009,
				"z": 1.570428164,
				"element": "H" 
			},
			{
				"x": -0.1879608209,
				"y": -2.8656169471,
				"z": 0.2750264655,
				"element": "H" 
			},
			{
				"x": 1.3916457939,
				"y": -2.0712695964,
				"z": 0.1643985058,
				"element": "H" 
			},
			{
				"x": -1.1407933644,
				"y": -1.0988016601,
				"z": -0.9804501717,
				"element": "H" 
			},
			{
				"x": 3.2628816188,
				"y": 1.6732765912,
				"z": -1.3963426976,
				"element": "H" 
			},
			{
				"x": 1.6366364704,
				"y": 2.6847718735,
				"z": -3.2354167854,
				"element": "H" 
			}
		],
		 "valence_orbital": [ 
			{
				"type": "occ",
				"energy": -0.30049,
				"method": "rhf"
			},
			{
				"type": "occ",
				"energy": -0.2883,
				"method": "rhf"
			},
			{
				"type": "occ",
				"energy": -0.26941,
				"method": "rhf"
			},
			{
				"type": "occ",
				"energy": -0.26771,
				"method": "rhf"
			},
			{
				"type": "occ",
				"energy": -0.20076,
				"method": "rhf"
			},
			{
				"type": "unocc",
				"energy": -0.00212,
				"method": "rhf"
			},
			{
				"type": "unocc",
				"energy": 0.00191,
				"method": "rhf"
			},
			{
				"type": "unocc",
				"energy": 0.01837,
				"method": "rhf"
			},
			{
				"type": "unocc",
				"energy": 0.06698,
				"method": "rhf"
			},
			{
				"type": "unocc",
				"energy": 0.07407,
				"method": "rhf"
			}
		],
		"cosmo_sigma_profile": { 
			"-0.025": 0.0,
			"-0.024": 0.0,
			"-0.023": 0.0,
			"-0.022": 0.0,
			"-0.021": 0.0,
			"-0.02": 0.0,
			"-0.019": 0.0011262808734,
			"-0.018": 0.771194333552,
			"-0.017": 0.873368391122,
			"-0.016": 0.963131212816,
			"-0.015": 0.671266189464,
			"-0.014": 1.00520912499,
			"-0.013": 0.525490852286,
			"-0.012": 0.912288018608,
			"-0.011": 1.29505474675,
			"-0.01": 1.88383819728,
			"-0.009": 1.57976071754,
			"-0.008": 3.50536171362,
			"-0.007": 5.61434168588,
			"-0.006": 11.6878164501,
			"-0.005": 14.2402799796,
			"-0.004": 14.3002834425,
			"-0.003": 13.6718125809,
			"-0.002": 12.1591932964,
			"-0.001": 11.1533965765,
			"0.0": 8.84080171778,
			"0.001": 10.3763464835,
			"0.002": 12.7689612982,
			"0.003": 12.3079604153,
			"0.004": 14.6777186548,
			"0.005": 12.245494264,
			"0.006": 7.34359361334,
			"0.007": 4.53799293759,
			"0.008": 5.3450090304,
			"0.009": 4.29479586774,
			"0.01": 3.85386798599,
			"0.011": 3.51799251598,
			"0.012": 2.39408817297,
			"0.013": 0.692055414515,
			"0.014": 0.552562490247,
			"0.015": 0.0,
			"0.016": 0.0,
			"0.017": 0.0,
			"0.018": 0.0,
			"0.019": 0.0,
			"0.02": 0.0,
			"0.021": 0.0,
			"0.022": 0.0,
			"0.023": 0.0,
			"0.024": 0.0,
			"0.025": 0.0
		}
	}
}
