{
	 "smiles": "OCC1OC(O)C(O)C1O", 
	 "Tm": 363.15, 
	 "num_atms": 20, 
	 "gaussian": { 
		 "optdone": 1, 
		 "sigma_profile": "yes", 
		 "theory": "DFT", 
		 "functional": "B3LYP", 
		 "basiset": "6-31G**", 
		 "properties": { 
			 "R2extent": 1786.3771, 
			 "electric_dipole_moment_norm": 3.14222162172, 
			 "electric_quadrupole_moment_norm": 11.9311364291, 
			 "total_energy": -572.635441233, 
			 "HOMO_LUMO_gap": 0.3057, 
			 "cosmo_polarized_energy": -15.48, 
			 "cosmo_cavitation_energy": 22.02, 
			 "cosmo_dispersion_energy": -16.98, 
			 "cosmo_repulsion_energy": 1.41, 
			 "cosmo_total_nonelectrostatic_energy": 6.44, 
			 "SMD_solvation_energy": 3.56 
		},
		"coords": [
			{
				"x": -3.3390202918,
				"y": -0.7457281546,
				"z": -1.0141049774,
				"element": "O" 
			},
			{
				"x": -2.5350160868,
				"y": -0.6476500834,
				"z": 0.1695430735,
				"element": "C" 
			},
			{
				"x": -1.7623605569,
				"y": 0.6596423988,
				"z": 0.0597841486,
				"element": "C" 
			},
			{
				"x": -0.9914932298,
				"y": 0.8122299844,
				"z": 1.2628912318,
				"element": "O" 
			},
			{
				"x": 0.2425885437,
				"y": 1.4034730618,
				"z": 0.9385988926,
				"element": "C" 
			},
			{
				"x": 0.1053198909,
				"y": 2.7973849679,
				"z": 0.8020780906,
				"element": "O" 
			},
			{
				"x": 0.6138415713,
				"y": 0.7741909735,
				"z": -0.4115558721,
				"element": "C" 
			},
			{
				"x": 1.5784788552,
				"y": 1.5921022054,
				"z": -1.0568086,
				"element": "O" 
			},
			{
				"x": -0.7470497758,
				"y": 0.6898123574,
				"z": -1.1227513781,
				"element": "C" 
			},
			{
				"x": -0.7639741067,
				"y": -0.4470379085,
				"z": -1.9676266068,
				"element": "O" 
			},
			{
				"x": -3.8293687835,
				"y": -1.5763206634,
				"z": -0.9821327993,
				"element": "H" 
			},
			{
				"x": -1.8301169162,
				"y": -1.4852023124,
				"z": 0.2448568399,
				"element": "H" 
			},
			{
				"x": -3.1560593877,
				"y": -0.6278363633,
				"z": 1.074163624,
				"element": "H" 
			},
			{
				"x": -2.4762376945,
				"y": 1.4871520569,
				"z": -0.0303156871,
				"element": "H" 
			},
			{
				"x": 0.9294522785,
				"y": 1.1550521751,
				"z": 1.7574665311,
				"element": "H" 
			},
			{
				"x": 0.7134124844,
				"y": 3.057687326,
				"z": 0.0912139843,
				"element": "H" 
			},
			{
				"x": 0.98722591,
				"y": -0.2473321378,
				"z": -0.2606606726,
				"element": "H" 
			},
			{
				"x": 1.6725363008,
				"y": 1.2858076644,
				"z": -1.9679973249,
				"element": "H" 
			},
			{
				"x": -0.8932879112,
				"y": 1.6122009028,
				"z": -1.7039490436,
				"element": "H" 
			},
			{
				"x": -1.6986710939,
				"y": -0.648328451,
				"z": -2.1436934545,
				"element": "H" 
			}
		],
		 "valence_orbital": [ 
			{
				"type": "occ",
				"energy": -0.29704,
				"method": "rhf"
			},
			{
				"type": "occ",
				"energy": -0.28423,
				"method": "rhf"
			},
			{
				"type": "occ",
				"energy": -0.28117,
				"method": "rhf"
			},
			{
				"type": "occ",
				"energy": -0.26469,
				"method": "rhf"
			},
			{
				"type": "occ",
				"energy": -0.26115,
				"method": "rhf"
			},
			{
				"type": "unocc",
				"energy": 0.04455,
				"method": "rhf"
			},
			{
				"type": "unocc",
				"energy": 0.06929,
				"method": "rhf"
			},
			{
				"type": "unocc",
				"energy": 0.09749,
				"method": "rhf"
			},
			{
				"type": "unocc",
				"energy": 0.10245,
				"method": "rhf"
			},
			{
				"type": "unocc",
				"energy": 0.12714,
				"method": "rhf"
			}
		],
		"cosmo_sigma_profile": { 
			"-0.025": 0.0,
			"-0.024": 0.0,
			"-0.023": 0.0,
			"-0.022": 0.0,
			"-0.021": 0.0,
			"-0.02": 0.0,
			"-0.019": 0.0,
			"-0.018": 0.0,
			"-0.017": 0.869169736149,
			"-0.016": 1.89459656788,
			"-0.015": 2.27491149551,
			"-0.014": 1.5693857516,
			"-0.013": 1.52875392419,
			"-0.012": 1.58437716972,
			"-0.011": 1.59956938953,
			"-0.01": 2.43577815905,
			"-0.009": 1.98874241136,
			"-0.008": 3.16805101697,
			"-0.007": 3.55282166458,
			"-0.006": 4.56981433446,
			"-0.005": 13.4028137616,
			"-0.004": 18.2478916058,
			"-0.003": 14.3920923701,
			"-0.002": 13.1746739044,
			"-0.001": 7.88528110599,
			"0.0": 6.04313939552,
			"0.001": 5.29296057541,
			"0.002": 6.87969382143,
			"0.003": 5.78211736525,
			"0.004": 5.05526284514,
			"0.005": 3.9533947823,
			"0.006": 5.35335166434,
			"0.007": 5.13814332746,
			"0.008": 4.86226442254,
			"0.009": 3.98302763623,
			"0.01": 5.18717565489,
			"0.011": 6.2824279197,
			"0.012": 6.01890988715,
			"0.013": 4.26609001903,
			"0.014": 1.85876708974,
			"0.015": 0.0,
			"0.016": 0.0,
			"0.017": 0.0,
			"0.018": 0.0,
			"0.019": 0.0,
			"0.02": 0.0,
			"0.021": 0.0,
			"0.022": 0.0,
			"0.023": 0.0,
			"0.024": 0.0,
			"0.025": 0.0
		}
	}
}
