{
	 "smiles": "OC(=O)C1=CC(Br)=C(N=C1)C#N", 
	 "Tm": 451.15, 
	 "num_atms": 15, 
	 "gaussian": { 
		 "optdone": 1, 
		 "sigma_profile": "yes", 
		 "theory": "DFT", 
		 "functional": "B3LYP", 
		 "basiset": "6-31G**", 
		 "properties": { 
			 "R2extent": 4936.5835, 
			 "electric_dipole_moment_norm": 4.1917106162, 
			 "electric_quadrupole_moment_norm": 21.1711586291, 
			 "total_energy": -3099.87395186, 
			 "HOMO_LUMO_gap": 0.17816, 
			 "cosmo_polarized_energy": -19.65, 
			 "cosmo_cavitation_energy": 24.35, 
			 "cosmo_dispersion_energy": -17.64, 
			 "cosmo_repulsion_energy": 1.4, 
			 "cosmo_total_nonelectrostatic_energy": 8.11, 
			 "SMD_solvation_energy": 4.29 
		},
		"coords": [
			{
				"x": -1.8146767542,
				"y": 1.0865215152,
				"z": 0.9227446648,
				"element": "O" 
			},
			{
				"x": -1.3150924491,
				"y": 0.5369891351,
				"z": 2.0570169513,
				"element": "C" 
			},
			{
				"x": -1.9374347303,
				"y": 0.58070475,
				"z": 3.0892115214,
				"element": "O" 
			},
			{
				"x": 0.0371652524,
				"y": -0.1112925349,
				"z": 1.9625646807,
				"element": "C" 
			},
			{
				"x": 0.9870472947,
				"y": 0.2143045619,
				"z": 0.9930043634,
				"element": "C" 
			},
			{
				"x": 2.221960319,
				"y": -0.4301622349,
				"z": 1.0138203648,
				"element": "C" 
			},
			{
				"x": 3.5341612578,
				"y": -0.000760066,
				"z": -0.2809007926,
				"element": "Br" 
			},
			{
				"x": 2.463705166,
				"y": -1.3897853862,
				"z": 2.0129909229,
				"element": "C" 
			},
			{
				"x": 1.5538455732,
				"y": -1.6958803588,
				"z": 2.9541026749,
				"element": "N" 
			},
			{
				"x": 0.3833484697,
				"y": -1.0668360894,
				"z": 2.9326186956,
				"element": "C" 
			},
			{
				"x": 3.715774533,
				"y": -2.0992218429,
				"z": 2.0832650282,
				"element": "C" 
			},
			{
				"x": 4.7205295074,
				"y": -2.6787299487,
				"z": 2.1480430427,
				"element": "N" 
			},
			{
				"x": -1.3011261226,
				"y": 0.8198759332,
				"z": 0.1476614837,
				"element": "H" 
			},
			{
				"x": 0.8037681942,
				"y": 0.9775166864,
				"z": 0.2432555749,
				"element": "H" 
			},
			{
				"x": -0.330875511,
				"y": -1.3193441198,
				"z": 3.7108008233,
				"element": "H" 
			}
		],
		 "valence_orbital": [ 
			{
				"type": "occ",
				"energy": -0.32828,
				"method": "rhf"
			},
			{
				"type": "occ",
				"energy": -0.32512,
				"method": "rhf"
			},
			{
				"type": "occ",
				"energy": -0.31425,
				"method": "rhf"
			},
			{
				"type": "occ",
				"energy": -0.29867,
				"method": "rhf"
			},
			{
				"type": "occ",
				"energy": -0.28845,
				"method": "rhf"
			},
			{
				"type": "unocc",
				"energy": -0.11029,
				"method": "rhf"
			},
			{
				"type": "unocc",
				"energy": -0.07589,
				"method": "rhf"
			},
			{
				"type": "unocc",
				"energy": -0.033,
				"method": "rhf"
			},
			{
				"type": "unocc",
				"energy": -0.01351,
				"method": "rhf"
			},
			{
				"type": "unocc",
				"energy": 0.01076,
				"method": "rhf"
			}
		],
		"cosmo_sigma_profile": { 
			"-0.025": 0.0,
			"-0.024": 0.0,
			"-0.023": 0.0,
			"-0.022": 0.0,
			"-0.021": 0.17315160595,
			"-0.02": 0.933744769209,
			"-0.019": 1.0886656811,
			"-0.018": 1.28691761441,
			"-0.017": 1.43195553934,
			"-0.016": 1.49966820535,
			"-0.015": 0.881221405699,
			"-0.014": 0.719883129303,
			"-0.013": 1.354174931,
			"-0.012": 1.78486207886,
			"-0.011": 1.41936800267,
			"-0.01": 1.87865296212,
			"-0.009": 2.66151759567,
			"-0.008": 3.06970727367,
			"-0.007": 4.80636081103,
			"-0.006": 8.21890141383,
			"-0.005": 12.7259318005,
			"-0.004": 16.0907117383,
			"-0.003": 13.4749183111,
			"-0.002": 11.5014239138,
			"-0.001": 7.71588605657,
			"0.0": 10.8774978529,
			"0.001": 10.6283347157,
			"0.002": 15.8277394415,
			"0.003": 9.01849724752,
			"0.004": 8.03301836109,
			"0.005": 6.27736594664,
			"0.006": 5.8293404412,
			"0.007": 6.50606928915,
			"0.008": 7.81775039863,
			"0.009": 8.24782997052,
			"0.01": 8.53313225692,
			"0.011": 6.88750024344,
			"0.012": 2.10183524146,
			"0.013": 0.0744472189197,
			"0.014": 0.0,
			"0.015": 0.0,
			"0.016": 0.0,
			"0.017": 0.0,
			"0.018": 0.0,
			"0.019": 0.0,
			"0.02": 0.0,
			"0.021": 0.0,
			"0.022": 0.0,
			"0.023": 0.0,
			"0.024": 0.0,
			"0.025": 0.0
		}
	}
}
