{
	 "smiles": "COC1=CC=C(C=C(C#N)C#N)C=C1", 
	 "Tm": 388.15, 
	 "num_atms": 22, 
	 "gaussian": { 
		 "optdone": 1, 
		 "sigma_profile": "yes", 
		 "theory": "DFT", 
		 "functional": "B3LYP", 
		 "basiset": "6-31G**", 
		 "properties": { 
			 "R2extent": 4139.5641, 
			 "electric_dipole_moment_norm": 8.95854868324, 
			 "electric_quadrupole_moment_norm": 14.0007854755, 
			 "total_energy": -608.653093992, 
			 "HOMO_LUMO_gap": 0.14171, 
			 "cosmo_polarized_energy": -15.51, 
			 "cosmo_cavitation_energy": 29.05, 
			 "cosmo_dispersion_energy": -20.01, 
			 "cosmo_repulsion_energy": 1.56, 
			 "cosmo_total_nonelectrostatic_energy": 10.6, 
			 "SMD_solvation_energy": 8.52 
		},
		"coords": [
			{
				"x": 3.9409483442,
				"y": -0.0883797209,
				"z": -2.3170618716,
				"element": "C" 
			},
			{
				"x": 3.227874075,
				"y": -0.7868498358,
				"z": -1.30082211,
				"element": "O" 
			},
			{
				"x": 2.1827670921,
				"y": -0.1761288695,
				"z": -0.6991164954,
				"element": "C" 
			},
			{
				"x": 1.7315794473,
				"y": 1.118173869,
				"z": -1.0003129743,
				"element": "C" 
			},
			{
				"x": 0.6431894946,
				"y": 1.6349003754,
				"z": -0.3089320901,
				"element": "C" 
			},
			{
				"x": -0.0285525055,
				"y": 0.9003305325,
				"z": 0.6908734455,
				"element": "C" 
			},
			{
				"x": -1.1472537404,
				"y": 1.5453993779,
				"z": 1.3397848401,
				"element": "C" 
			},
			{
				"x": -1.9962616674,
				"y": 1.1212733617,
				"z": 2.3286421887,
				"element": "C" 
			},
			{
				"x": -3.0358994241,
				"y": 1.9989445497,
				"z": 2.7806509432,
				"element": "C" 
			},
			{
				"x": -3.8772011112,
				"y": 2.7175672648,
				"z": 3.1418240626,
				"element": "N" 
			},
			{
				"x": -1.9395515268,
				"y": -0.1553699925,
				"z": 2.9719931407,
				"element": "C" 
			},
			{
				"x": -1.9048034742,
				"y": -1.1901739355,
				"z": 3.5044837056,
				"element": "N" 
			},
			{
				"x": 0.4463963002,
				"y": -0.4049371453,
				"z": 0.9766393533,
				"element": "C" 
			},
			{
				"x": 1.5274645958,
				"y": -0.9284642111,
				"z": 0.2955504128,
				"element": "C" 
			},
			{
				"x": 3.2904639678,
				"y": 0.1568384227,
				"z": -3.1649271941,
				"element": "H" 
			},
			{
				"x": 4.3947728243,
				"y": 0.8303922547,
				"z": -1.9271684794,
				"element": "H" 
			},
			{
				"x": 4.7267667238,
				"y": -0.767329507,
				"z": -2.6486909111,
				"element": "H" 
			},
			{
				"x": 2.216430947,
				"y": 1.7182408868,
				"z": -1.7603405106,
				"element": "H" 
			},
			{
				"x": 0.2993438429,
				"y": 2.6378923652,
				"z": -0.5474403951,
				"element": "H" 
			},
			{
				"x": -1.3558423399,
				"y": 2.5504361318,
				"z": 0.9798087684,
				"element": "H" 
			},
			{
				"x": -0.0340093863,
				"y": -1.0098803943,
				"z": 1.735009067,
				"element": "H" 
			},
			{
				"x": 1.8943775207,
				"y": -1.9262757802,
				"z": 0.5105531039,
				"element": "H" 
			}
		],
		 "valence_orbital": [ 
			{
				"type": "occ",
				"energy": -0.34395,
				"method": "rhf"
			},
			{
				"type": "occ",
				"energy": -0.33478,
				"method": "rhf"
			},
			{
				"type": "occ",
				"energy": -0.2983,
				"method": "rhf"
			},
			{
				"type": "occ",
				"energy": -0.28311,
				"method": "rhf"
			},
			{
				"type": "occ",
				"energy": -0.23807,
				"method": "rhf"
			},
			{
				"type": "unocc",
				"energy": -0.09636,
				"method": "rhf"
			},
			{
				"type": "unocc",
				"energy": -0.03017,
				"method": "rhf"
			},
			{
				"type": "unocc",
				"energy": -0.00261,
				"method": "rhf"
			},
			{
				"type": "unocc",
				"energy": 0.01027,
				"method": "rhf"
			},
			{
				"type": "unocc",
				"energy": 0.04231,
				"method": "rhf"
			}
		],
		"cosmo_sigma_profile": { 
			"-0.025": 0.0,
			"-0.024": 0.0,
			"-0.023": 0.0,
			"-0.022": 0.0,
			"-0.021": 0.0,
			"-0.02": 0.0,
			"-0.019": 0.0,
			"-0.018": 0.0,
			"-0.017": 0.0,
			"-0.016": 0.0,
			"-0.015": 0.0,
			"-0.014": 0.0,
			"-0.013": 0.0,
			"-0.012": 0.0,
			"-0.011": 0.299490821901,
			"-0.01": 3.03257817729,
			"-0.009": 2.80724915083,
			"-0.008": 3.96688850284,
			"-0.007": 10.3527980503,
			"-0.006": 15.8691367326,
			"-0.005": 15.8575117936,
			"-0.004": 17.6677852548,
			"-0.003": 20.3326212587,
			"-0.002": 18.269323251,
			"-0.001": 14.791886639,
			"0.0": 13.6516168335,
			"0.001": 15.3502398336,
			"0.002": 18.7008990699,
			"0.003": 10.4017054964,
			"0.004": 5.84034342257,
			"0.005": 5.45496662519,
			"0.006": 5.96249708805,
			"0.007": 6.93890215337,
			"0.008": 7.04245049874,
			"0.009": 7.39139497982,
			"0.01": 5.33897575702,
			"0.011": 5.41291585802,
			"0.012": 4.01802922113,
			"0.013": 1.00077990704,
			"0.014": 0.0,
			"0.015": 0.0,
			"0.016": 0.0,
			"0.017": 0.0,
			"0.018": 0.0,
			"0.019": 0.0,
			"0.02": 0.0,
			"0.021": 0.0,
			"0.022": 0.0,
			"0.023": 0.0,
			"0.024": 0.0,
			"0.025": 0.0
		}
	}
}
