{
	 "smiles": "OC1=C(Br)C(O)=C(Br)C=C1Br", 
	 "Tm": 388.15, 
	 "num_atms": 14, 
	 "gaussian": { 
		 "optdone": 1, 
		 "sigma_profile": "yes", 
		 "theory": "DFT", 
		 "functional": "B3LYP", 
		 "basiset": "6-31G**", 
		 "properties": { 
			 "R2extent": 5487.6387, 
			 "electric_dipole_moment_norm": 2.20163046173, 
			 "electric_quadrupole_moment_norm": 8.34690069547, 
			 "total_energy": -8095.09344786, 
			 "HOMO_LUMO_gap": 0.18979, 
			 "cosmo_polarized_energy": -8.94, 
			 "cosmo_cavitation_energy": 25.18, 
			 "cosmo_dispersion_energy": -20.37, 
			 "cosmo_repulsion_energy": 1.63, 
			 "cosmo_total_nonelectrostatic_energy": 6.44, 
			 "SMD_solvation_energy": 1.83 
		},
		"coords": [
			{
				"x": -0.7386120689,
				"y": -2.2214235883,
				"z": 0.3645525771,
				"element": "O" 
			},
			{
				"x": -0.0473790837,
				"y": -1.2109255379,
				"z": -0.1961340201,
				"element": "C" 
			},
			{
				"x": -0.2328222905,
				"y": 0.0875546953,
				"z": 0.3033402102,
				"element": "C" 
			},
			{
				"x": -1.4390284676,
				"y": 0.3683411915,
				"z": 1.7360526529,
				"element": "Br" 
			},
			{
				"x": 0.4587147906,
				"y": 1.1817916861,
				"z": -0.2391806403,
				"element": "C" 
			},
			{
				"x": 0.2398438537,
				"y": 2.4042473912,
				"z": 0.281370675,
				"element": "O" 
			},
			{
				"x": 1.3481205815,
				"y": 0.9473294433,
				"z": -1.3020866669,
				"element": "C" 
			},
			{
				"x": 2.2935664231,
				"y": 2.4357389874,
				"z": -2.0456418464,
				"element": "Br" 
			},
			{
				"x": 1.5490056506,
				"y": -0.3274304467,
				"z": -1.8138371495,
				"element": "C" 
			},
			{
				"x": 0.853085863,
				"y": -1.393320084,
				"z": -1.2599351239,
				"element": "C" 
			},
			{
				"x": 1.1097246328,
				"y": -3.1617580381,
				"z": -1.9447951965,
				"element": "Br" 
			},
			{
				"x": -0.5012147143,
				"y": -3.0469902834,
				"z": -0.0891610106,
				"element": "H" 
			},
			{
				"x": 0.7878698416,
				"y": 3.0468831013,
				"z": -0.1986922472,
				"element": "H" 
			},
			{
				"x": 2.2382249881,
				"y": -0.4879385177,
				"z": -2.6328522139,
				"element": "H" 
			}
		],
		 "valence_orbital": [ 
			{
				"type": "occ",
				"energy": -0.31788,
				"method": "rhf"
			},
			{
				"type": "occ",
				"energy": -0.29754,
				"method": "rhf"
			},
			{
				"type": "occ",
				"energy": -0.28423,
				"method": "rhf"
			},
			{
				"type": "occ",
				"energy": -0.24116,
				"method": "rhf"
			},
			{
				"type": "occ",
				"energy": -0.23382,
				"method": "rhf"
			},
			{
				"type": "unocc",
				"energy": -0.04403,
				"method": "rhf"
			},
			{
				"type": "unocc",
				"energy": -0.03104,
				"method": "rhf"
			},
			{
				"type": "unocc",
				"energy": -0.01348,
				"method": "rhf"
			},
			{
				"type": "unocc",
				"energy": 0.00668,
				"method": "rhf"
			},
			{
				"type": "unocc",
				"energy": 0.02148,
				"method": "rhf"
			}
		],
		"cosmo_sigma_profile": { 
			"-0.025": 0.0,
			"-0.024": 0.0,
			"-0.023": 0.0,
			"-0.022": 0.0,
			"-0.021": 0.0,
			"-0.02": 0.0,
			"-0.019": 0.0,
			"-0.018": 0.0,
			"-0.017": 0.0,
			"-0.016": 0.227375050832,
			"-0.015": 1.08918722033,
			"-0.014": 0.89513175766,
			"-0.013": 0.869965365393,
			"-0.012": 1.7096232075,
			"-0.011": 2.45075213034,
			"-0.01": 1.78336233716,
			"-0.009": 2.65794432827,
			"-0.008": 3.35031521176,
			"-0.007": 3.57542201138,
			"-0.006": 6.25880304185,
			"-0.005": 8.46195419128,
			"-0.004": 8.99158995969,
			"-0.003": 8.69693146778,
			"-0.002": 12.1406173358,
			"-0.001": 18.468024536,
			"0.0": 25.4988570438,
			"0.001": 25.2359089771,
			"0.002": 19.844411007,
			"0.003": 20.8070278845,
			"0.004": 14.1201200681,
			"0.005": 5.8472351494,
			"0.006": 4.12708101736,
			"0.007": 3.98705924338,
			"0.008": 4.28284902739,
			"0.009": 4.0816020399,
			"0.01": 2.97609340191,
			"0.011": 0.00111139313036,
			"0.012": 0.0,
			"0.013": 0.0,
			"0.014": 0.0,
			"0.015": 0.0,
			"0.016": 0.0,
			"0.017": 0.0,
			"0.018": 0.0,
			"0.019": 0.0,
			"0.02": 0.0,
			"0.021": 0.0,
			"0.022": 0.0,
			"0.023": 0.0,
			"0.024": 0.0,
			"0.025": 0.0
		}
	}
}
