{
	 "smiles": "CCN(CC)S(=O)(=O)C1=C(Cl)C=CC(=C1)C(O)=O", 
	 "Tm": 392.15, 
	 "num_atms": 32, 
	 "gaussian": { 
		 "optdone": 1, 
		 "sigma_profile": "yes", 
		 "theory": "DFT", 
		 "functional": "B3LYP", 
		 "basiset": "6-31G**", 
		 "properties": { 
			 "R2extent": 6252.9793, 
			 "electric_dipole_moment_norm": 3.64138642964, 
			 "electric_quadrupole_moment_norm": 15.1738081117, 
			 "total_energy": -1641.5782062, 
			 "HOMO_LUMO_gap": 0.17991, 
			 "cosmo_polarized_energy": -16.0, 
			 "cosmo_cavitation_energy": 37.79, 
			 "cosmo_dispersion_energy": -26.34, 
			 "cosmo_repulsion_energy": 1.99, 
			 "cosmo_total_nonelectrostatic_energy": 13.44, 
			 "SMD_solvation_energy": 6.84 
		},
		"coords": [
			{
				"x": 1.4711080517,
				"y": -0.0028122223,
				"z": 3.8397546822,
				"element": "C" 
			},
			{
				"x": 0.1919630369,
				"y": 0.7685728561,
				"z": 3.5180613399,
				"element": "C" 
			},
			{
				"x": -0.0251393499,
				"y": 0.9071056898,
				"z": 2.0612350302,
				"element": "N" 
			},
			{
				"x": 0.9355798541,
				"y": 1.7497144225,
				"z": 1.3120700095,
				"element": "C" 
			},
			{
				"x": 1.8483143065,
				"y": 0.9505691899,
				"z": 0.3798989172,
				"element": "C" 
			},
			{
				"x": -1.6072517009,
				"y": 0.8658883232,
				"z": 1.4935737751,
				"element": "S" 
			},
			{
				"x": -2.4796369154,
				"y": 0.4478283463,
				"z": 2.5913306144,
				"element": "O" 
			},
			{
				"x": -1.8930946856,
				"y": 2.0954999677,
				"z": 0.7432195003,
				"element": "O" 
			},
			{
				"x": -1.5997041254,
				"y": -0.4529213151,
				"z": 0.2452189239,
				"element": "C" 
			},
			{
				"x": -1.3729990128,
				"y": -1.8096003455,
				"z": 0.5291789942,
				"element": "C" 
			},
			{
				"x": -1.0088105526,
				"y": -2.3826458527,
				"z": 2.1368084748,
				"element": "Cl" 
			},
			{
				"x": -1.4292816335,
				"y": -2.7614355673,
				"z": -0.4931398525,
				"element": "C" 
			},
			{
				"x": -1.7152256261,
				"y": -2.3695015524,
				"z": -1.7951239028,
				"element": "C" 
			},
			{
				"x": -1.9488119344,
				"y": -1.0215057095,
				"z": -2.0886876725,
				"element": "C" 
			},
			{
				"x": -1.8930744282,
				"y": -0.0702968187,
				"z": -1.0653281041,
				"element": "C" 
			},
			{
				"x": -2.2545906536,
				"y": -0.6532461891,
				"z": -3.4982844445,
				"element": "C" 
			},
			{
				"x": -2.4606575214,
				"y": 0.673388263,
				"z": -3.6639980204,
				"element": "O" 
			},
			{
				"x": -2.3152207358,
				"y": -1.4462869515,
				"z": -4.4162538137,
				"element": "O" 
			},
			{
				"x": 2.3654741259,
				"y": 0.5070783374,
				"z": 3.4679251157,
				"element": "H" 
			},
			{
				"x": 1.5750281927,
				"y": -0.0964878672,
				"z": 4.9258726104,
				"element": "H" 
			},
			{
				"x": 1.4406657262,
				"y": -1.005845951,
				"z": 3.4062206843,
				"element": "H" 
			},
			{
				"x": -0.6727621848,
				"y": 0.2515547834,
				"z": 3.9321727632,
				"element": "H" 
			},
			{
				"x": 0.2267685255,
				"y": 1.7666109805,
				"z": 3.9791866894,
				"element": "H" 
			},
			{
				"x": 0.3839333671,
				"y": 2.507669896,
				"z": 0.7504466512,
				"element": "H" 
			},
			{
				"x": 1.5322573771,
				"y": 2.2881323493,
				"z": 2.0563758093,
				"element": "H" 
			},
			{
				"x": 2.5616619519,
				"y": 1.6218660659,
				"z": -0.1107370829,
				"element": "H" 
			},
			{
				"x": 1.2713391379,
				"y": 0.4458174671,
				"z": -0.4001851853,
				"element": "H" 
			},
			{
				"x": 2.4123553367,
				"y": 0.1907061399,
				"z": 0.9278495582,
				"element": "H" 
			},
			{
				"x": -1.2498113399,
				"y": -3.8035258393,
				"z": -0.2540230958,
				"element": "H" 
			},
			{
				"x": -1.763292789,
				"y": -3.0970239684,
				"z": -2.5980568694,
				"element": "H" 
			},
			{
				"x": -2.0803340614,
				"y": 0.9760262923,
				"z": -1.2719104515,
				"element": "H" 
			},
			{
				"x": -2.6551497395,
				"y": 0.8017067796,
				"z": -4.6069716477,
				"element": "H" 
			}
		],
		 "valence_orbital": [ 
			{
				"type": "occ",
				"energy": -0.3026,
				"method": "rhf"
			},
			{
				"type": "occ",
				"energy": -0.29119,
				"method": "rhf"
			},
			{
				"type": "occ",
				"energy": -0.28817,
				"method": "rhf"
			},
			{
				"type": "occ",
				"energy": -0.2721,
				"method": "rhf"
			},
			{
				"type": "occ",
				"energy": -0.25179,
				"method": "rhf"
			},
			{
				"type": "unocc",
				"energy": -0.07188,
				"method": "rhf"
			},
			{
				"type": "unocc",
				"energy": -0.04513,
				"method": "rhf"
			},
			{
				"type": "unocc",
				"energy": 0.00639,
				"method": "rhf"
			},
			{
				"type": "unocc",
				"energy": 0.02504,
				"method": "rhf"
			},
			{
				"type": "unocc",
				"energy": 0.06674,
				"method": "rhf"
			}
		],
		"cosmo_sigma_profile": { 
			"-0.025": 0.0,
			"-0.024": 0.0,
			"-0.023": 0.0,
			"-0.022": 0.0,
			"-0.021": 0.0,
			"-0.02": 0.0,
			"-0.019": 0.378280546259,
			"-0.018": 1.11106231224,
			"-0.017": 0.624317567534,
			"-0.016": 0.831054419516,
			"-0.015": 1.2183752898,
			"-0.014": 0.441046291516,
			"-0.013": 0.0819464021363,
			"-0.012": 0.721439353472,
			"-0.011": 1.18389071936,
			"-0.01": 0.701049304629,
			"-0.009": 1.30936528224,
			"-0.008": 3.16786478345,
			"-0.007": 5.394405535,
			"-0.006": 5.72150095677,
			"-0.005": 9.76395864798,
			"-0.004": 20.4560330521,
			"-0.003": 32.2043070944,
			"-0.002": 38.9273584972,
			"-0.001": 39.3554971056,
			"0.0": 33.5212277892,
			"0.001": 21.5296277115,
			"0.002": 12.5665320089,
			"0.003": 11.3766612204,
			"0.004": 7.10616695752,
			"0.005": 4.9918059417,
			"0.006": 7.20249042133,
			"0.007": 5.05894954275,
			"0.008": 5.53285110301,
			"0.009": 5.92568919463,
			"0.01": 9.1786763795,
			"0.011": 11.7383990248,
			"0.012": 2.1798799455,
			"0.013": 0.0,
			"0.014": 0.0,
			"0.015": 0.0,
			"0.016": 0.0,
			"0.017": 0.0,
			"0.018": 0.0,
			"0.019": 0.0,
			"0.02": 0.0,
			"0.021": 0.0,
			"0.022": 0.0,
			"0.023": 0.0,
			"0.024": 0.0,
			"0.0": 0.0
		}
	}
}
