{
	 "smiles": "C1CN2CN(C1)CCN1CCCN(C1)CC2", 
	 "Tm": 357.15, 
	 "num_atms": 40, 
	 "gaussian": { 
		 "optdone": 1, 
		 "sigma_profile": "yes", 
		 "theory": "DFT", 
		 "functional": "B3LYP", 
		 "basiset": "6-31G**", 
		 "properties": { 
			 "R2extent": 3586.3166, 
			 "electric_dipole_moment_norm": 1.10173805417, 
			 "electric_quadrupole_moment_norm": 7.11002284666, 
			 "total_energy": -690.700644679, 
			 "HOMO_LUMO_gap": 0.27943, 
			 "cosmo_polarized_energy": -5.24, 
			 "cosmo_cavitation_energy": 34.01, 
			 "cosmo_dispersion_energy": -25.75, 
			 "cosmo_repulsion_energy": 1.94, 
			 "cosmo_total_nonelectrostatic_energy": 10.19, 
			 "SMD_solvation_energy": -1.35 
		},
		"coords": [
			{
				"x": 0.0601859567,
				"y": -1.1565937247,
				"z": -3.4641977835,
				"element": "C" 
			},
			{
				"x": 1.016054436,
				"y": -2.0585361058,
				"z": -2.6539591124,
				"element": "C" 
			},
			{
				"x": 1.1352914493,
				"y": -1.6653368789,
				"z": -1.2445657132,
				"element": "N" 
			},
			{
				"x": 1.442366737,
				"y": -0.2526570609,
				"z": -1.1694093673,
				"element": "C" 
			},
			{
				"x": 0.4349307678,
				"y": 0.6075245466,
				"z": -1.8214066054,
				"element": "N" 
			},
			{
				"x": 0.4041798132,
				"y": 0.3272880573,
				"z": -3.254572929,
				"element": "C" 
			},
			{
				"x": 0.5884985168,
				"y": 2.0111317257,
				"z": -1.4368700749,
				"element": "C" 
			},
			{
				"x": -0.2190157374,
				"y": 2.3818638807,
				"z": -0.1669383031,
				"element": "C" 
			},
			{
				"x": -0.1303492042,
				"y": 1.3658093808,
				"z": 0.8824686409,
				"element": "N" 
			},
			{
				"x": -0.0940802942,
				"y": 1.8552319767,
				"z": 2.2581761479,
				"element": "C" 
			},
			{
				"x": 0.1788107254,
				"y": 0.6711160919,
				"z": 3.2002302305,
				"element": "C" 
			},
			{
				"x": -0.8321319211,
				"y": -0.4688830137,
				"z": 2.9512123461,
				"element": "C" 
			},
			{
				"x": -0.9513623708,
				"y": -0.84472186,
				"z": 1.5371110462,
				"element": "N" 
			},
			{
				"x": -1.1882266377,
				"y": 0.3447887335,
				"z": 0.7470279779,
				"element": "C" 
			},
			{
				"x": 0.1249412554,
				"y": -1.7430282459,
				"z": 1.0805021712,
				"element": "C" 
			},
			{
				"x": 0.0211717922,
				"y": -2.1487926675,
				"z": -0.4087909959,
				"element": "C" 
			},
			{
				"x": -0.975201627,
				"y": -1.3255061868,
				"z": -3.147031465,
				"element": "H" 
			},
			{
				"x": 0.1205424243,
				"y": -1.4098917639,
				"z": -4.5298289863,
				"element": "H" 
			},
			{
				"x": 0.7011710351,
				"y": -3.1066288195,
				"z": -2.7091787283,
				"element": "H" 
			},
			{
				"x": 2.0195402776,
				"y": -2.0011968208,
				"z": -3.0997594393,
				"element": "H" 
			},
			{
				"x": 2.4290679089,
				"y": -0.1066969089,
				"z": -1.6539993791,
				"element": "H" 
			},
			{
				"x": 1.5245822838,
				"y": 0.0672300371,
				"z": -0.1335094646,
				"element": "H" 
			},
			{
				"x": -0.3484071549,
				"y": 0.964166697,
				"z": -3.7338669535,
				"element": "H" 
			},
			{
				"x": 1.3776979424,
				"y": 0.5516847236,
				"z": -3.7398801784,
				"element": "H" 
			},
			{
				"x": 0.2410542945,
				"y": 2.6484253968,
				"z": -2.2591261478,
				"element": "H" 
			},
			{
				"x": 1.6526821835,
				"y": 2.2634180928,
				"z": -1.2785357391,
				"element": "H" 
			},
			{
				"x": 0.1709706076,
				"y": 3.3314915404,
				"z": 0.2191791276,
				"element": "H" 
			},
			{
				"x": -1.2713827399,
				"y": 2.5705293752,
				"z": -0.4464819039,
				"element": "H" 
			},
			{
				"x": -1.0486292893,
				"y": 2.3437754486,
				"z": 2.5476178685,
				"element": "H" 
			},
			{
				"x": 0.6955637356,
				"y": 2.6093716681,
				"z": 2.3554683045,
				"element": "H" 
			},
			{
				"x": 1.1998606469,
				"y": 0.3124942196,
				"z": 3.027034386,
				"element": "H" 
			},
			{
				"x": 0.1212446287,
				"y": 1.0004119917,
				"z": 4.2450358154,
				"element": "H" 
			},
			{
				"x": -1.8251516085,
				"y": -0.1419156928,
				"z": 3.291863901,
				"element": "H" 
			},
			{
				"x": -0.569147536,
				"y": -1.3562166813,
				"z": 3.5378796976,
				"element": "H" 
			},
			{
				"x": -1.2682828124,
				"y": 0.0945000574,
				"z": -0.3080220921,
				"element": "H" 
			},
			{
				"x": -2.1597567872,
				"y": 0.7668865576,
				"z": 1.0752182945,
				"element": "H" 
			},
			{
				"x": 1.1364343911,
				"y": -1.3497763991,
				"z": 1.2685566966,
				"element": "H" 
			},
			{
				"x": 0.0381716152,
				"y": -2.6466690759,
				"z": 1.6954076097,
				"element": "H" 
			},
			{
				"x": -0.9713142228,
				"y": -1.8551505603,
				"z": -0.7853267388,
				"element": "H" 
			},
			{
				"x": 0.0529245186,
				"y": -3.2427417323,
				"z": -0.4756321616,
				"element": "H" 
			}
		],
		 "valence_orbital": [ 
			{
				"type": "occ",
				"energy": -0.31003,
				"method": "rhf"
			},
			{
				"type": "occ",
				"energy": -0.21579,
				"method": "rhf"
			},
			{
				"type": "occ",
				"energy": -0.20558,
				"method": "rhf"
			},
			{
				"type": "occ",
				"energy": -0.19637,
				"method": "rhf"
			},
			{
				"type": "occ",
				"energy": -0.19519,
				"method": "rhf"
			},
			{
				"type": "unocc",
				"energy": 0.08424,
				"method": "rhf"
			},
			{
				"type": "unocc",
				"energy": 0.09548,
				"method": "rhf"
			},
			{
				"type": "unocc",
				"energy": 0.10324,
				"method": "rhf"
			},
			{
				"type": "unocc",
				"energy": 0.11001,
				"method": "rhf"
			},
			{
				"type": "unocc",
				"energy": 0.11041,
				"method": "rhf"
			}
		],
		"cosmo_sigma_profile": { 
			"-0.025": 0.0,
			"-0.024": 0.0,
			"-0.023": 0.0,
			"-0.022": 0.0,
			"-0.021": 0.0,
			"-0.02": 0.0,
			"-0.019": 0.0,
			"-0.018": 0.0,
			"-0.017": 0.0,
			"-0.016": 0.0,
			"-0.015": 0.0,
			"-0.014": 0.0,
			"-0.013": 0.0,
			"-0.012": 0.0,
			"-0.011": 0.0,
			"-0.01": 0.0,
			"-0.009": 0.0,
			"-0.008": 0.0,
			"-0.007": 0.0,
			"-0.006": 0.0,
			"-0.005": 0.0,
			"-0.004": 4.96514181635,
			"-0.003": 29.5979523948,
			"-0.002": 44.8602924329,
			"-0.001": 67.3934760462,
			"0.0": 51.4003238295,
			"0.001": 22.4411672589,
			"0.002": 7.44544791287,
			"0.003": 5.52582534514,
			"0.004": 4.65944665143,
			"0.005": 3.2592599386,
			"0.006": 3.79713319547,
			"0.007": 2.90084758511,
			"0.008": 2.65629508934,
			"0.009": 1.79574572294,
			"0.01": 1.12852849258,
			"0.011": 0.810530526757,
			"0.012": 1.80764036833,
			"0.013": 0.784868161328,
			"0.014": 0.5517725539,
			"0.015": 1.14385308722,
			"0.016": 0.879130254668,
			"0.017": 0.157109995721,
			"0.018": 0.0,
			"0.019": 0.0,
			"0.02": 0.0,
			"0.021": 0.0,
			"0.022": 0.0,
			"0.023": 0.0,
			"0.024": 0.0,
			"0.025": 0.0
		}
	}
}
