{
	 "smiles": "COC1=CC=C2C(=CC=CC2=C1C(F)(F)F)C(=S)N(C)CC(O)=O", 
	 "Tm": 437.15, 
	 "num_atms": 38, 
	 "gaussian": { 
		 "optdone": 1, 
		 "sigma_profile": "yes", 
		 "theory": "DFT", 
		 "functional": "B3LYP", 
		 "basiset": "6-31G**", 
		 "properties": { 
			 "R2extent": 8894.6573, 
			 "electric_dipole_moment_norm": 5.83019841858, 
			 "electric_quadrupole_moment_norm": 27.4772668328, 
			 "total_energy": -1596.27643536, 
			 "HOMO_LUMO_gap": 0.14393, 
			 "cosmo_polarized_energy": -21.81, 
			 "cosmo_cavitation_energy": 44.11, 
			 "cosmo_dispersion_energy": -29.76, 
			 "cosmo_repulsion_energy": 2.18, 
			 "cosmo_total_nonelectrostatic_energy": 16.54, 
			 "SMD_solvation_energy": 9.0 
		},
		"coords": [
			{
				"x": -1.3321574999,
				"y": -2.4832444138,
				"z": 3.5316420994,
				"element": "C" 
			},
			{
				"x": -1.3454577248,
				"y": -2.5490482715,
				"z": 2.1120414058,
				"element": "O" 
			},
			{
				"x": -1.1028116359,
				"y": -1.4293481982,
				"z": 1.3842749254,
				"element": "C" 
			},
			{
				"x": -0.7975427792,
				"y": -0.193520986,
				"z": 2.0138514474,
				"element": "C" 
			},
			{
				"x": -0.5538969865,
				"y": 0.9345164681,
				"z": 1.2745085916,
				"element": "C" 
			},
			{
				"x": -0.5973380731,
				"y": 0.910379662,
				"z": -0.141830545,
				"element": "C" 
			},
			{
				"x": -0.3541491201,
				"y": 2.0908367642,
				"z": -0.9167148406,
				"element": "C" 
			},
			{
				"x": -0.4216455229,
				"y": 2.0393490798,
				"z": -2.2947241074,
				"element": "C" 
			},
			{
				"x": -0.7170059867,
				"y": 0.8214344516,
				"z": -2.9418128934,
				"element": "C" 
			},
			{
				"x": -0.9504727035,
				"y": -0.329429604,
				"z": -2.2251491208,
				"element": "C" 
			},
			{
				"x": -0.9046570703,
				"y": -0.3284652344,
				"z": -0.7994651042,
				"element": "C" 
			},
			{
				"x": -1.1532125715,
				"y": -1.5042706098,
				"z": -0.0100696629,
				"element": "C" 
			},
			{
				"x": -1.4657676599,
				"y": -2.7896238451,
				"z": -0.7460003117,
				"element": "C" 
			},
			{
				"x": -2.571317316,
				"y": -2.6507957234,
				"z": -1.5262958636,
				"element": "F" 
			},
			{
				"x": -1.6817713439,
				"y": -3.8584844228,
				"z": 0.0313498941,
				"element": "F" 
			},
			{
				"x": -0.4488641549,
				"y": -3.1269121251,
				"z": -1.5873626621,
				"element": "F" 
			},
			{
				"x": -0.0756512807,
				"y": 3.406416668,
				"z": -0.2463040217,
				"element": "C" 
			},
			{
				"x": -1.328837807,
				"y": 4.4801316777,
				"z": 0.0037359094,
				"element": "S" 
			},
			{
				"x": 1.2062824606,
				"y": 3.6670908941,
				"z": 0.1153546558,
				"element": "N" 
			},
			{
				"x": 1.5334991921,
				"y": 4.9310591458,
				"z": 0.7801009367,
				"element": "C" 
			},
			{
				"x": 2.3045499945,
				"y": 2.7437059603,
				"z": -0.1086580587,
				"element": "C" 
			},
			{
				"x": 2.8247900766,
				"y": 2.1245706627,
				"z": 1.1843654633,
				"element": "C" 
			},
			{
				"x": 3.8981747674,
				"y": 1.3478045067,
				"z": 0.9279511717,
				"element": "O" 
			},
			{
				"x": 2.3644266777,
				"y": 2.2936379259,
				"z": 2.2893156054,
				"element": "O" 
			},
			{
				"x": -1.5707949222,
				"y": -3.4922010598,
				"z": 3.8702081312,
				"element": "H" 
			},
			{
				"x": -0.3458662939,
				"y": -2.1986850748,
				"z": 3.9180926692,
				"element": "H" 
			},
			{
				"x": -2.0878816741,
				"y": -1.7869141283,
				"z": 3.9143484414,
				"element": "H" 
			},
			{
				"x": -0.7566496877,
				"y": -0.1340587899,
				"z": 3.093426085,
				"element": "H" 
			},
			{
				"x": -0.3213368918,
				"y": 1.8610304583,
				"z": 1.7870351169,
				"element": "H" 
			},
			{
				"x": -0.2609002846,
				"y": 2.9414344391,
				"z": -2.8765608052,
				"element": "H" 
			},
			{
				"x": -0.7650370002,
				"y": 0.7943391342,
				"z": -4.0264094411,
				"element": "H" 
			},
			{
				"x": -1.1767268094,
				"y": -1.2410183259,
				"z": -2.7584121576,
				"element": "H" 
			},
			{
				"x": 2.6116761066,
				"y": 4.9740743079,
				"z": 0.9402591036,
				"element": "H" 
			},
			{
				"x": 1.0217307177,
				"y": 5.0002375639,
				"z": 1.7428066713,
				"element": "H" 
			},
			{
				"x": 1.2120141754,
				"y": 5.7738040129,
				"z": 0.1625975326,
				"element": "H" 
			},
			{
				"x": 3.1392369893,
				"y": 3.2576061921,
				"z": -0.60089504,
				"element": "H" 
			},
			{
				"x": 1.9927394687,
				"y": 1.939163362,
				"z": -0.7761048812,
				"element": "H" 
			},
			{
				"x": 4.1808301736,
				"y": 0.9690974755,
				"z": 1.7775036601,
				"element": "H" 
			}
		],
		 "valence_orbital": [ 
			{
				"type": "occ",
				"energy": -0.28855,
				"method": "rhf"
			},
			{
				"type": "occ",
				"energy": -0.24635,
				"method": "rhf"
			},
			{
				"type": "occ",
				"energy": -0.2317,
				"method": "rhf"
			},
			{
				"type": "occ",
				"energy": -0.2237,
				"method": "rhf"
			},
			{
				"type": "occ",
				"energy": -0.20078,
				"method": "rhf"
			},
			{
				"type": "unocc",
				"energy": -0.05685,
				"method": "rhf"
			},
			{
				"type": "unocc",
				"energy": -0.03581,
				"method": "rhf"
			},
			{
				"type": "unocc",
				"energy": -0.01765,
				"method": "rhf"
			},
			{
				"type": "unocc",
				"energy": -0.01213,
				"method": "rhf"
			},
			{
				"type": "unocc",
				"energy": 0.01163,
				"method": "rhf"
			}
		],
		"cosmo_sigma_profile": { 
			"-0.025": 0.0,
			"-0.024": 0.0,
			"-0.023": 0.0,
			"-0.022": 0.0,
			"-0.021": 0.0,
			"-0.02": 0.0,
			"-0.019": 0.819616020919,
			"-0.018": 0.777030610471,
			"-0.017": 1.39241977174,
			"-0.016": 0.607106889869,
			"-0.015": 0.200183804978,
			"-0.014": 0.338221723098,
			"-0.013": 0.534263160314,
			"-0.012": 1.17794963698,
			"-0.011": 1.64592185858,
			"-0.01": 1.91594084731,
			"-0.009": 3.68702722218,
			"-0.008": 5.85580300229,
			"-0.007": 11.7892105751,
			"-0.006": 21.3497282568,
			"-0.005": 25.5342786092,
			"-0.004": 25.5851767516,
			"-0.003": 23.4902472179,
			"-0.002": 15.697809352,
			"-0.001": 16.2354880296,
			"0.0": 17.3637244599,
			"0.001": 22.0922321714,
			"0.002": 28.7560658597,
			"0.003": 46.5454964638,
			"0.004": 20.1792463745,
			"0.005": 9.2055767103,
			"0.006": 10.1542023974,
			"0.007": 10.3173583807,
			"0.008": 11.444209372,
			"0.009": 7.94280009481,
			"0.01": 5.19692435191,
			"0.011": 4.56429964754,
			"0.012": 1.69517051537,
			"0.013": 0.277130725706,
			"0.014": 0.0,
			"0.015": 0.0,
			"0.016": 0.0,
			"0.017": 0.0,
			"0.018": 0.0,
			"0.019": 0.0,
			"0.02": 0.0,
			"0.021": 0.0,
			"0.022": 0.0,
			"0.023": 0.0,
			"0.024": 0.0,
			"0.025": 0.0
		}
	}
}
