{
	 "smiles": "OC1=CC(=CC(=C1)[N+]([O-])=O)[N+]([O-])=O", 
	 "Tm": 398.15, 
	 "num_atms": 17, 
	 "gaussian": { 
		 "optdone": 1, 
		 "sigma_profile": "yes", 
		 "theory": "DFT", 
		 "functional": "B3LYP", 
		 "basiset": "6-31G**", 
		 "properties": { 
			 "R2extent": 2752.8705, 
			 "electric_dipole_moment_norm": 4.6407698467, 
			 "electric_quadrupole_moment_norm": 21.7679971787, 
			 "total_energy": -716.459046165, 
			 "HOMO_LUMO_gap": 0.16071, 
			 "cosmo_polarized_energy": -15.51, 
			 "cosmo_cavitation_energy": 23.79, 
			 "cosmo_dispersion_energy": -17.47, 
			 "cosmo_repulsion_energy": 1.38, 
			 "cosmo_total_nonelectrostatic_energy": 7.69, 
			 "SMD_solvation_energy": 9.17 
		},
		"coords": [
			{
				"x": -2.6636015345,
				"y": -2.8405094689,
				"z": 0.8892144955,
				"element": "O" 
			},
			{
				"x": -1.6770640544,
				"y": -2.0080411875,
				"z": 0.4750685284,
				"element": "C" 
			},
			{
				"x": -1.0458571706,
				"y": -1.2306873507,
				"z": 1.4550394741,
				"element": "C" 
			},
			{
				"x": -0.0300836425,
				"y": -0.3657693421,
				"z": 1.0684231612,
				"element": "C" 
			},
			{
				"x": 0.3960996077,
				"y": -0.2301234239,
				"z": -0.2498042304,
				"element": "C" 
			},
			{
				"x": -0.2549838545,
				"y": -1.0178899364,
				"z": -1.1892418443,
				"element": "C" 
			},
			{
				"x": -1.2798675732,
				"y": -1.9028359638,
				"z": -0.8613569607,
				"element": "C" 
			},
			{
				"x": 0.1541391809,
				"y": -0.9172716812,
				"z": -2.605588019,
				"element": "N" 
			},
			{
				"x": 1.0585058831,
				"y": -0.1338726935,
				"z": -2.8787825676,
				"element": "O" 
			},
			{
				"x": -0.4392410701,
				"y": -1.6272744215,
				"z": -3.415805171,
				"element": "O" 
			},
			{
				"x": 0.6308326611,
				"y": 0.4510967281,
				"z": 2.1098774641,
				"element": "N" 
			},
			{
				"x": 0.2399864512,
				"y": 0.3161933332,
				"z": 3.2666513755,
				"element": "O" 
			},
			{
				"x": 1.5262107874,
				"y": 1.2088232742,
				"z": 1.7467980173,
				"element": "O" 
			},
			{
				"x": -3.027357273,
				"y": -3.3256155455,
				"z": 0.1364598393,
				"element": "H" 
			},
			{
				"x": -1.3429832298,
				"y": -1.301838851,
				"z": 2.493309547,
				"element": "H" 
			},
			{
				"x": 1.1889108665,
				"y": 0.4499576149,
				"z": -0.5258787033,
				"element": "H" 
			},
			{
				"x": -1.7434460354,
				"y": -2.4870410844,
				"z": -1.648484406,
				"element": "H" 
			}
		],
		 "valence_orbital": [ 
			{
				"type": "occ",
				"energy": -0.3221,
				"method": "rhf"
			},
			{
				"type": "occ",
				"energy": -0.31333,
				"method": "rhf"
			},
			{
				"type": "occ",
				"energy": -0.31129,
				"method": "rhf"
			},
			{
				"type": "occ",
				"energy": -0.3086,
				"method": "rhf"
			},
			{
				"type": "occ",
				"energy": -0.27563,
				"method": "rhf"
			},
			{
				"type": "unocc",
				"energy": -0.11492,
				"method": "rhf"
			},
			{
				"type": "unocc",
				"energy": -0.10176,
				"method": "rhf"
			},
			{
				"type": "unocc",
				"energy": -0.02334,
				"method": "rhf"
			},
			{
				"type": "unocc",
				"energy": -0.01054,
				"method": "rhf"
			},
			{
				"type": "unocc",
				"energy": 0.03575,
				"method": "rhf"
			}
		],
		"cosmo_sigma_profile": { 
			"-0.025": 0.0,
			"-0.024": 0.0,
			"-0.023": 0.0,
			"-0.022": 0.0,
			"-0.021": 0.0,
			"-0.02": 0.175146470365,
			"-0.019": 1.36720969803,
			"-0.018": 1.54959519446,
			"-0.017": 1.0304026349,
			"-0.016": 1.0580012301,
			"-0.015": 1.13745169494,
			"-0.014": 1.32980481782,
			"-0.013": 1.12990911055,
			"-0.012": 0.999804488762,
			"-0.011": 0.885116947987,
			"-0.01": 1.10303179197,
			"-0.009": 1.58192150717,
			"-0.008": 4.28774559052,
			"-0.007": 5.97081047231,
			"-0.006": 6.12160200834,
			"-0.005": 9.25326588759,
			"-0.004": 8.65067254744,
			"-0.003": 16.3502390655,
			"-0.002": 23.3858032764,
			"-0.001": 12.6787083875,
			"0.0": 6.50073503081,
			"0.001": 5.64998616421,
			"0.002": 6.37264833459,
			"0.003": 5.58198525089,
			"0.004": 7.04171941626,
			"0.005": 7.61449813179,
			"0.006": 14.0328283902,
			"0.007": 17.8330432276,
			"0.008": 11.1682294419,
			"0.009": 8.18730082504,
			"0.01": 1.46344773007,
			"0.011": 0.0,
			"0.012": 0.0,
			"0.013": 0.0,
			"0.014": 0.0,
			"0.015": 0.0,
			"0.016": 0.0,
			"0.017": 0.0,
			"0.018": 0.0,
			"0.019": 0.0,
			"0.02": 0.0,
			"0.021": 0.0,
			"0.022": 0.0,
			"0.023": 0.0,
			"0.024": 0.0,
			"0.025": 0.0
		}
	}
}
