{
	 "smiles": "CCCCCCCC(=O)OCCCCCC", 
	 "Tm": 242.55, 
	 "num_atms": 44, 
	 "gaussian": { 
		 "optdone": 1, 
		 "sigma_profile": "yes", 
		 "theory": "DFT", 
		 "functional": "B3LYP", 
		 "basiset": "6-31G**", 
		 "properties": { 
			 "R2extent": 7634.1438, 
			 "electric_dipole_moment_norm": 1.88239591479, 
			 "electric_quadrupole_moment_norm": 12.8990154105, 
			 "total_energy": -700.857327008, 
			 "HOMO_LUMO_gap": 0.27712, 
			 "cosmo_polarized_energy": -6.5, 
			 "cosmo_cavitation_energy": 43.73, 
			 "cosmo_dispersion_energy": -29.63, 
			 "cosmo_repulsion_energy": 2.41, 
			 "cosmo_total_nonelectrostatic_energy": 16.51, 
			 "SMD_solvation_energy": 7.09 
		},
		"coords": [
			{
				"x": -1.159289964,
				"y": 3.5846362131,
				"z": 3.1376131604,
				"element": "C" 
			},
			{
				"x": -0.1143376871,
				"y": 2.5948194342,
				"z": 3.6667191838,
				"element": "C" 
			},
			{
				"x": 1.2917457758,
				"y": 2.7941701538,
				"z": 3.0681664024,
				"element": "C" 
			},
			{
				"x": 1.4559820203,
				"y": 2.4045082987,
				"z": 1.5802211651,
				"element": "C" 
			},
			{
				"x": 1.9786581775,
				"y": 0.9798830573,
				"z": 1.3211253316,
				"element": "C" 
			},
			{
				"x": 1.0601433049,
				"y": -0.1573861555,
				"z": 1.7885262084,
				"element": "C" 
			},
			{
				"x": 1.6011555082,
				"y": -1.558405125,
				"z": 1.4408954455,
				"element": "C" 
			},
			{
				"x": 1.7055436229,
				"y": -1.8228688264,
				"z": -0.0490675892,
				"element": "C" 
			},
			{
				"x": 2.7243786185,
				"y": -2.1136647808,
				"z": -0.6396047627,
				"element": "O" 
			},
			{
				"x": 0.4948508735,
				"y": -1.7051582761,
				"z": -0.6476961292,
				"element": "O" 
			},
			{
				"x": 0.4474710899,
				"y": -1.9393522746,
				"z": -2.0748037231,
				"element": "C" 
			},
			{
				"x": 0.7636117452,
				"y": -0.6639017266,
				"z": -2.8546851112,
				"element": "C" 
			},
			{
				"x": 0.6893122991,
				"y": -0.8294022049,
				"z": -4.3890790044,
				"element": "C" 
			},
			{
				"x": -0.6755803919,
				"y": -0.5278804988,
				"z": -5.0376524177,
				"element": "C" 
			},
			{
				"x": -1.848322956,
				"y": -1.4583709337,
				"z": -4.6831321036,
				"element": "C" 
			},
			{
				"x": -1.6565538453,
				"y": -2.9155327484,
				"z": -5.1197511262,
				"element": "C" 
			},
			{
				"x": -0.8652778396,
				"y": 4.618562469,
				"z": 3.3529509014,
				"element": "H" 
			},
			{
				"x": -2.1366675956,
				"y": 3.4133192599,
				"z": 3.6008213611,
				"element": "H" 
			},
			{
				"x": -1.2920518361,
				"y": 3.4998228569,
				"z": 2.0536915994,
				"element": "H" 
			},
			{
				"x": -0.0477800457,
				"y": 2.7025966998,
				"z": 4.7571549219,
				"element": "H" 
			},
			{
				"x": -0.4604428949,
				"y": 1.5701522504,
				"z": 3.4853999479,
				"element": "H" 
			},
			{
				"x": 1.5608129662,
				"y": 3.8514014872,
				"z": 3.193883249,
				"element": "H" 
			},
			{
				"x": 2.0225793426,
				"y": 2.2315588476,
				"z": 3.6650218803,
				"element": "H" 
			},
			{
				"x": 2.1594728805,
				"y": 3.1005176462,
				"z": 1.1073176296,
				"element": "H" 
			},
			{
				"x": 0.5047016792,
				"y": 2.5428242677,
				"z": 1.0490599794,
				"element": "H" 
			},
			{
				"x": 2.960551272,
				"y": 0.8661770725,
				"z": 1.8022875944,
				"element": "H" 
			},
			{
				"x": 2.1599389685,
				"y": 0.8714257648,
				"z": 0.2433750003,
				"element": "H" 
			},
			{
				"x": 0.0647227024,
				"y": -0.0410434238,
				"z": 1.3444680891,
				"element": "H" 
			},
			{
				"x": 0.9293154766,
				"y": -0.1098867027,
				"z": 2.8754064684,
				"element": "H" 
			},
			{
				"x": 2.599369988,
				"y": -1.7081679366,
				"z": 1.8608374243,
				"element": "H" 
			},
			{
				"x": 0.9364271221,
				"y": -2.3190955713,
				"z": 1.8678400662,
				"element": "H" 
			},
			{
				"x": 1.1617768058,
				"y": -2.7278651852,
				"z": -2.3269563522,
				"element": "H" 
			},
			{
				"x": -0.5671907051,
				"y": -2.296995011,
				"z": -2.2586633902,
				"element": "H" 
			},
			{
				"x": 0.0869769538,
				"y": 0.1357393401,
				"z": -2.5269956768,
				"element": "H" 
			},
			{
				"x": 1.7768961035,
				"y": -0.3594168595,
				"z": -2.5727271075,
				"element": "H" 
			},
			{
				"x": 1.4183033926,
				"y": -0.1452802811,
				"z": -4.8389373441,
				"element": "H" 
			},
			{
				"x": 1.0291910923,
				"y": -1.8359259037,
				"z": -4.6675916632,
				"element": "H" 
			},
			{
				"x": -0.9569254752,
				"y": 0.5027686926,
				"z": -4.7817904018,
				"element": "H" 
			},
			{
				"x": -0.5434345537,
				"y": -0.5414724308,
				"z": -6.1284960054,
				"element": "H" 
			},
			{
				"x": -2.0489382079,
				"y": -1.4160138614,
				"z": -3.6048199781,
				"element": "H" 
			},
			{
				"x": -2.7522168513,
				"y": -1.0621168396,
				"z": -5.1634705742,
				"element": "H" 
			},
			{
				"x": -2.545342352,
				"y": -3.5147126134,
				"z": -4.8962531804,
				"element": "H" 
			},
			{
				"x": -1.4747565578,
				"y": -2.9809821107,
				"z": -6.1988070954,
				"element": "H" 
			},
			{
				"x": -0.8076800226,
				"y": -3.3897855303,
				"z": -4.6160022734,
				"element": "H" 
			}
		],
		 "valence_orbital": [ 
			{
				"type": "occ",
				"energy": -0.31229,
				"method": "rhf"
			},
			{
				"type": "occ",
				"energy": -0.30738,
				"method": "rhf"
			},
			{
				"type": "occ",
				"energy": -0.30657,
				"method": "rhf"
			},
			{
				"type": "occ",
				"energy": -0.28792,
				"method": "rhf"
			},
			{
				"type": "occ",
				"energy": -0.26141,
				"method": "rhf"
			},
			{
				"type": "unocc",
				"energy": 0.01571,
				"method": "rhf"
			},
			{
				"type": "unocc",
				"energy": 0.07586,
				"method": "rhf"
			},
			{
				"type": "unocc",
				"energy": 0.08599,
				"method": "rhf"
			},
			{
				"type": "unocc",
				"energy": 0.10072,
				"method": "rhf"
			},
			{
				"type": "unocc",
				"energy": 0.10748,
				"method": "rhf"
			}
		],
		"cosmo_sigma_profile": { 
			"-0.025": 0.0,
			"-0.024": 0.0,
			"-0.023": 0.0,
			"-0.022": 0.0,
			"-0.021": 0.0,
			"-0.02": 0.0,
			"-0.019": 0.0,
			"-0.018": 0.0,
			"-0.017": 0.0,
			"-0.016": 0.0,
			"-0.015": 0.0,
			"-0.014": 0.0,
			"-0.013": 0.0,
			"-0.012": 0.0,
			"-0.011": 0.0,
			"-0.01": 0.0,
			"-0.009": 0.0,
			"-0.008": 0.0,
			"-0.007": 0.0,
			"-0.006": 0.812055761583,
			"-0.005": 4.42949225611,
			"-0.004": 9.85495499313,
			"-0.003": 25.8103299662,
			"-0.002": 61.3883986838,
			"-0.001": 65.9022943224,
			"0.0": 63.6453236229,
			"0.001": 52.041072867,
			"0.002": 21.6370547224,
			"0.003": 3.93573340267,
			"0.004": 3.51880047124,
			"0.005": 2.72573953875,
			"0.006": 3.42330257915,
			"0.007": 2.68109138098,
			"0.008": 1.17986541641,
			"0.009": 2.16156698213,
			"0.01": 2.24642179373,
			"0.011": 2.38414884444,
			"0.012": 3.92312024757,
			"0.013": 2.41563834498,
			"0.014": 0.189850242349,
			"0.015": 0.0,
			"0.016": 0.0,
			"0.017": 0.0,
			"0.018": 0.0,
			"0.019": 0.0,
			"0.02": 0.0,
			"0.021": 0.0,
			"0.022": 0.0,
			"0.023": 0.0,
			"0.024": 0.0,
			"0.025": 0.0
		}
	}
}
