{
	 "smiles": "CC1=C(SC=N1)C=C", 
	 "Tm": 258.15, 
	 "num_atms": 15, 
	 "gaussian": { 
		 "optdone": 1, 
		 "sigma_profile": "yes", 
		 "theory": "DFT", 
		 "functional": "B3LYP", 
		 "basiset": "6-31G**", 
		 "properties": { 
			 "R2extent": 1322.9033, 
			 "electric_dipole_moment_norm": 1.16388098189, 
			 "electric_quadrupole_moment_norm": 6.51065239742, 
			 "total_energy": -685.767792796, 
			 "HOMO_LUMO_gap": 0.17857, 
			 "cosmo_polarized_energy": -5.47, 
			 "cosmo_cavitation_energy": 20.26, 
			 "cosmo_dispersion_energy": -15.46, 
			 "cosmo_repulsion_energy": 1.21, 
			 "cosmo_total_nonelectrostatic_energy": 6.01, 
			 "SMD_solvation_energy": 2.79 
		},
		"coords": [
			{
				"x": 1.0454362313,
				"y": 0.5962283475,
				"z": 2.139606632,
				"element": "C" 
			},
			{
				"x": -0.2133467415,
				"y": 0.0086822205,
				"z": 1.5703351043,
				"element": "C" 
			},
			{
				"x": -0.3821600196,
				"y": -0.4936827776,
				"z": 0.2906505759,
				"element": "C" 
			},
			{
				"x": -2.0159886722,
				"y": -1.1119828605,
				"z": 0.1351105574,
				"element": "S" 
			},
			{
				"x": -2.3241782762,
				"y": -0.6338344849,
				"z": 1.7780833036,
				"element": "C" 
			},
			{
				"x": -1.3190386695,
				"y": -0.0779623549,
				"z": 2.3890316352,
				"element": "N" 
			},
			{
				"x": 0.5340965538,
				"y": -0.5951038097,
				"z": -0.8389584657,
				"element": "C" 
			},
			{
				"x": 1.6594198184,
				"y": 0.1094995791,
				"z": -1.0358399322,
				"element": "C" 
			},
			{
				"x": 1.9312505525,
				"y": 0.0523782046,
				"z": 1.7971519586,
				"element": "H" 
			},
			{
				"x": 0.9987096177,
				"y": 0.5566951743,
				"z": 3.2298023258,
				"element": "H" 
			},
			{
				"x": 1.1707260163,
				"y": 1.6469157407,
				"z": 1.8493246068,
				"element": "H" 
			},
			{
				"x": -3.2941254162,
				"y": -0.7996686505,
				"z": 2.2319434992,
				"element": "H" 
			},
			{
				"x": 0.2548935632,
				"y": -1.3255328741,
				"z": -1.597008305,
				"element": "H" 
			},
			{
				"x": 1.9975996095,
				"y": 0.8843734234,
				"z": -0.3582517169,
				"element": "H" 
			},
			{
				"x": 2.2711058325,
				"y": -0.0715048781,
				"z": -1.9135817789,
				"element": "H" 
			}
		],
		 "valence_orbital": [ 
			{
				"type": "occ",
				"energy": -0.35153,
				"method": "rhf"
			},
			{
				"type": "occ",
				"energy": -0.31336,
				"method": "rhf"
			},
			{
				"type": "occ",
				"energy": -0.27188,
				"method": "rhf"
			},
			{
				"type": "occ",
				"energy": -0.27026,
				"method": "rhf"
			},
			{
				"type": "occ",
				"energy": -0.22262,
				"method": "rhf"
			},
			{
				"type": "unocc",
				"energy": -0.04405,
				"method": "rhf"
			},
			{
				"type": "unocc",
				"energy": 0.01125,
				"method": "rhf"
			},
			{
				"type": "unocc",
				"energy": 0.01694,
				"method": "rhf"
			},
			{
				"type": "unocc",
				"energy": 0.07518,
				"method": "rhf"
			},
			{
				"type": "unocc",
				"energy": 0.10307,
				"method": "rhf"
			}
		],
		"cosmo_sigma_profile": { 
			"-0.025": 0.0,
			"-0.024": 0.0,
			"-0.023": 0.0,
			"-0.022": 0.0,
			"-0.021": 0.0,
			"-0.02": 0.0,
			"-0.019": 0.0,
			"-0.018": 0.0,
			"-0.017": 0.0,
			"-0.016": 0.0,
			"-0.015": 0.0,
			"-0.014": 0.0,
			"-0.013": 0.0,
			"-0.012": 0.0,
			"-0.011": 0.0,
			"-0.01": 0.639946575094,
			"-0.009": 2.36118551073,
			"-0.008": 2.00410159315,
			"-0.007": 2.59091541212,
			"-0.006": 5.7969422701,
			"-0.005": 10.1233968927,
			"-0.004": 11.7111297171,
			"-0.003": 13.6241781671,
			"-0.002": 13.0549667807,
			"-0.001": 14.8220789508,
			"0.0": 13.4047073796,
			"0.001": 17.4132951963,
			"0.002": 17.0113427907,
			"0.003": 14.2768295994,
			"0.004": 7.42320289792,
			"0.005": 4.77277635095,
			"0.006": 3.30587760821,
			"0.007": 1.58674929275,
			"0.008": 1.30034520376,
			"0.009": 1.00605464481,
			"0.01": 0.983548556292,
			"0.011": 1.03654619934,
			"0.012": 1.09475470513,
			"0.013": 1.13471171755,
			"0.014": 0.70997507937,
			"0.015": 0.860338902322,
			"0.016": 0.191231017044,
			"0.017": 0.0,
			"0.018": 0.0,
			"0.019": 0.0,
			"0.02": 0.0,
			"0.021": 0.0,
			"0.022": 0.0,
			"0.023": 0.0,
			"0.024": 0.0,
			"0.025": 0.0
		}
	}
}
