{
	 "smiles": "OCC1OC(OC2=CC3=C(C=C2)C=C(Br)C=C3)C(O)C(O)C1O", 
	 "Tm": 492.15, 
	 "num_atms": 40, 
	 "gaussian": { 
		 "optdone": 1, 
		 "sigma_profile": "yes", 
		 "theory": "DFT", 
		 "functional": "B3LYP", 
		 "basiset": "6-31G**", 
		 "properties": { 
			 "R2extent": 16310.9697, 
			 "electric_dipole_moment_norm": 3.24002639187, 
			 "electric_quadrupole_moment_norm": 26.985124095, 
			 "total_energy": -3642.66157587, 
			 "HOMO_LUMO_gap": 0.16864, 
			 "cosmo_polarized_energy": -18.2, 
			 "cosmo_cavitation_energy": 43.53, 
			 "cosmo_dispersion_energy": -31.78, 
			 "cosmo_repulsion_energy": 2.41, 
			 "cosmo_total_nonelectrostatic_energy": 14.15, 
			 "SMD_solvation_energy": 5.4 
		},
		"coords": [
			{
				"x": 1.0773533771,
				"y": 3.1604979272,
				"z": -2.0369198025,
				"element": "O" 
			},
			{
				"x": 0.9261273728,
				"y": 1.7437523101,
				"z": -1.879345231,
				"element": "C" 
			},
			{
				"x": -0.5034031142,
				"y": 1.3955899623,
				"z": -2.3102151357,
				"element": "C" 
			},
			{
				"x": -0.7591590481,
				"y": 0.0011707622,
				"z": -2.0481294368,
				"element": "O" 
			},
			{
				"x": -1.3309723329,
				"y": -0.3606684684,
				"z": -0.8095243353,
				"element": "C" 
			},
			{
				"x": -0.4475974997,
				"y": -0.1811558642,
				"z": 0.2854856462,
				"element": "O" 
			},
			{
				"x": 0.558986137,
				"y": -1.0957443983,
				"z": 0.4827524817,
				"element": "C" 
			},
			{
				"x": 1.0515180831,
				"y": -1.9487130826,
				"z": -0.4842328816,
				"element": "C" 
			},
			{
				"x": 2.0934049641,
				"y": -2.8603770244,
				"z": -0.1609173907,
				"element": "C" 
			},
			{
				"x": 2.6387384489,
				"y": -2.8753201145,
				"z": 1.162748333,
				"element": "C" 
			},
			{
				"x": 2.112051833,
				"y": -1.9681850449,
				"z": 2.1240801921,
				"element": "C" 
			},
			{
				"x": 1.0987952961,
				"y": -1.1027269529,
				"z": 1.796942029,
				"element": "C" 
			},
			{
				"x": 3.6834102366,
				"y": -3.7829735313,
				"z": 1.4781421815,
				"element": "C" 
			},
			{
				"x": 4.1635163761,
				"y": -4.6362572915,
				"z": 0.5131950516,
				"element": "C" 
			},
			{
				"x": 5.5718537016,
				"y": -5.8593759036,
				"z": 0.9374659318,
				"element": "Br" 
			},
			{
				"x": 3.639912499,
				"y": -4.634510149,
				"z": -0.7999048201,
				"element": "C" 
			},
			{
				"x": 2.6259385006,
				"y": -3.7609088939,
				"z": -1.1225081401,
				"element": "C" 
			},
			{
				"x": -2.6534184812,
				"y": 0.4224812461,
				"z": -0.5012420865,
				"element": "C" 
			},
			{
				"x": -2.7229058197,
				"y": 0.9402561783,
				"z": 0.8144212252,
				"element": "O" 
			},
			{
				"x": -2.8685086253,
				"y": 1.5595372934,
				"z": -1.5269867534,
				"element": "C" 
			},
			{
				"x": -3.9473361573,
				"y": 2.3725065012,
				"z": -1.131464731,
				"element": "O" 
			},
			{
				"x": -1.5623876523,
				"y": 2.3409358915,
				"z": -1.6953350666,
				"element": "C" 
			},
			{
				"x": -1.1750123468,
				"y": 2.8438851331,
				"z": -0.4132604452,
				"element": "O" 
			},
			{
				"x": 1.9998313852,
				"y": 3.3894537449,
				"z": -1.8696381378,
				"element": "H" 
			},
			{
				"x": 1.6403870062,
				"y": 1.1907795581,
				"z": -2.5020792562,
				"element": "H" 
			},
			{
				"x": 1.0692093997,
				"y": 1.4462462121,
				"z": -0.8357215487,
				"element": "H" 
			},
			{
				"x": -0.5774915789,
				"y": 1.4788754469,
				"z": -3.399867285,
				"element": "H" 
			},
			{
				"x": -1.5337290974,
				"y": -1.4307778273,
				"z": -0.9213844068,
				"element": "H" 
			},
			{
				"x": 0.675106499,
				"y": -1.9121421895,
				"z": -1.4996978247,
				"element": "H" 
			},
			{
				"x": 2.5184890002,
				"y": -1.974374796,
				"z": 3.1317322933,
				"element": "H" 
			},
			{
				"x": 0.678118293,
				"y": -0.4180890929,
				"z": 2.5259570266,
				"element": "H" 
			},
			{
				"x": 4.0960854488,
				"y": -3.796366296,
				"z": 2.4813542111,
				"element": "H" 
			},
			{
				"x": 4.0398021994,
				"y": -5.3199288354,
				"z": -1.53834846,
				"element": "H" 
			},
			{
				"x": 2.2187421036,
				"y": -3.756180269,
				"z": -2.1300394234,
				"element": "H" 
			},
			{
				"x": -3.4882211161,
				"y": -0.2801030985,
				"z": -0.5803652295,
				"element": "H" 
			},
			{
				"x": -1.9517757527,
				"y": 1.524868162,
				"z": 0.9101796091,
				"element": "H" 
			},
			{
				"x": -3.1236422146,
				"y": 1.1263955987,
				"z": -2.5012140551,
				"element": "H" 
			},
			{
				"x": -3.8799969024,
				"y": 2.424518819,
				"z": -0.1639539614,
				"element": "H" 
			},
			{
				"x": -1.7285069784,
				"y": 3.1798233614,
				"z": -2.3815589411,
				"element": "H" 
			},
			{
				"x": -0.3802134431,
				"y": 3.3779050156,
				"z": -0.5712014261,
				"element": "H" 
			}
		],
		 "valence_orbital": [ 
			{
				"type": "occ",
				"energy": -0.27449,
				"method": "rhf"
			},
			{
				"type": "occ",
				"energy": -0.26547,
				"method": "rhf"
			},
			{
				"type": "occ",
				"energy": -0.25488,
				"method": "rhf"
			},
			{
				"type": "occ",
				"energy": -0.24201,
				"method": "rhf"
			},
			{
				"type": "occ",
				"energy": -0.21675,
				"method": "rhf"
			},
			{
				"type": "unocc",
				"energy": -0.04811,
				"method": "rhf"
			},
			{
				"type": "unocc",
				"energy": -0.01723,
				"method": "rhf"
			},
			{
				"type": "unocc",
				"energy": 0.00782,
				"method": "rhf"
			},
			{
				"type": "unocc",
				"energy": 0.01989,
				"method": "rhf"
			},
			{
				"type": "unocc",
				"energy": 0.03824,
				"method": "rhf"
			}
		],
		"cosmo_sigma_profile": { 
			"-0.025": 0.0,
			"-0.024": 0.0,
			"-0.023": 0.0,
			"-0.022": 0.0,
			"-0.021": 0.0,
			"-0.02": 0.0,
			"-0.019": 0.0,
			"-0.018": 0.0,
			"-0.017": 0.503881862153,
			"-0.016": 0.982057014358,
			"-0.015": 1.50391102029,
			"-0.014": 0.555851934315,
			"-0.013": 0.95488255087,
			"-0.012": 0.97531917137,
			"-0.011": 0.927940073712,
			"-0.01": 1.95284414373,
			"-0.009": 2.02008291272,
			"-0.008": 3.88137563253,
			"-0.007": 13.6475377797,
			"-0.006": 24.8487261013,
			"-0.005": 25.7249103823,
			"-0.004": 23.6835301601,
			"-0.003": 20.076316599,
			"-0.002": 18.546526984,
			"-0.001": 16.1099065944,
			"0.0": 19.7944049664,
			"0.001": 23.9324507857,
			"0.002": 28.5920157456,
			"0.003": 40.5606134949,
			"0.004": 25.3888262838,
			"0.005": 13.7570281146,
			"0.006": 5.25877707802,
			"0.007": 5.45824486922,
			"0.008": 4.00989821361,
			"0.009": 4.60810855849,
			"0.01": 4.98919900807,
			"0.011": 3.93958035554,
			"0.012": 3.34489955002,
			"0.013": 3.73245154492,
			"0.014": 2.65005036997,
			"0.015": 0.112232984248,
			"0.016": 0.0,
			"0.017": 0.0,
			"0.018": 0.0,
			"0.019": 0.0,
			"0.02": 0.0,
			"0.021": 0.0,
			"0.022": 0.0,
			"0.023": 0.0,
			"0.024": 0.0,
			"0.025": 0.0
		}
	}
}
