{
	 "smiles": "FC(F)(F)C(F)(F)C(F)(F)C(F)(F)C(F)(F)C(F)(F)C(F)(F)C(F)(F)S(F)(=O)=O", 
	 "Tm": 272.15, 
	 "num_atms": 29, 
	 "gaussian": { 
		 "optdone": 1, 
		 "sigma_profile": "yes", 
		 "theory": "DFT", 
		 "functional": "B3LYP", 
		 "basiset": "6-31G**", 
		 "properties": { 
			 "R2extent": 13091.5321, 
			 "electric_dipole_moment_norm": 2.10804438521, 
			 "electric_quadrupole_moment_norm": 9.73558423927, 
			 "total_energy": -2650.44763272, 
			 "HOMO_LUMO_gap": 0.30778, 
			 "cosmo_polarized_energy": -4.05, 
			 "cosmo_cavitation_energy": 41.64, 
			 "cosmo_dispersion_energy": -27.73, 
			 "cosmo_repulsion_energy": 1.71, 
			 "cosmo_total_nonelectrostatic_energy": 15.62, 
			 "SMD_solvation_energy": 11.54 
		},
		"coords": [
			{
				"x": 0.2412438854,
				"y": 3.0172632346,
				"z": 4.5765514485,
				"element": "F" 
			},
			{
				"x": 0.9794001575,
				"y": 1.9074409402,
				"z": 4.7098932682,
				"element": "C" 
			},
			{
				"x": 0.6798939492,
				"y": 1.3240749906,
				"z": 5.8757167098,
				"element": "F" 
			},
			{
				"x": 2.2742982532,
				"y": 2.2359578832,
				"z": 4.7110107357,
				"element": "F" 
			},
			{
				"x": 0.6696487335,
				"y": 0.9117085711,
				"z": 3.5593246953,
				"element": "C" 
			},
			{
				"x": 1.5751522805,
				"y": -0.090000724,
				"z": 3.628559817,
				"element": "F" 
			},
			{
				"x": -0.5699193896,
				"y": 0.4146602493,
				"z": 3.77152702,
				"element": "F" 
			},
			{
				"x": 0.7041175885,
				"y": 1.5502846239,
				"z": 2.1455523201,
				"element": "C" 
			},
			{
				"x": -0.4129447116,
				"y": 2.2897318868,
				"z": 1.9842199213,
				"element": "F" 
			},
			{
				"x": 1.786369867,
				"y": 2.3641310281,
				"z": 2.0743801161,
				"element": "F" 
			},
			{
				"x": 0.8326305224,
				"y": 0.5857708788,
				"z": 0.9212852202,
				"element": "C" 
			},
			{
				"x": 2.0378319826,
				"y": -0.0185253488,
				"z": 0.9679334414,
				"element": "F" 
			},
			{
				"x": 0.7827845802,
				"y": 1.3887196267,
				"z": -0.1714694254,
				"element": "F" 
			},
			{
				"x": -0.2620931753,
				"y": -0.496615832,
				"z": 0.7650673724,
				"element": "C" 
			},
			{
				"x": -1.4754315866,
				"y": 0.0931109545,
				"z": 0.7722655487,
				"element": "F" 
			},
			{
				"x": -0.1720476707,
				"y": -1.341009973,
				"z": 1.8213569486,
				"element": "F" 
			},
			{
				"x": -0.1621191759,
				"y": -1.4169615779,
				"z": -0.4965964711,
				"element": "C" 
			},
			{
				"x": -1.2115746957,
				"y": -2.2723658058,
				"z": -0.3999270546,
				"element": "F" 
			},
			{
				"x": 0.9869115021,
				"y": -2.1171859952,
				"z": -0.4255784499,
				"element": "F" 
			},
			{
				"x": -0.2381967489,
				"y": -0.7423457938,
				"z": -1.8982437135,
				"element": "C" 
			},
			{
				"x": 0.9846031454,
				"y": -0.2587700421,
				"z": -2.2197047911,
				"element": "F" 
			},
			{
				"x": -1.1341978696,
				"y": 0.2618267037,
				"z": -1.879967817,
				"element": "F" 
			},
			{
				"x": -0.6567007779,
				"y": -1.7398681746,
				"z": -3.0155815499,
				"element": "C" 
			},
			{
				"x": -1.9778886501,
				"y": -1.9379241499,
				"z": -2.9875237478,
				"element": "F" 
			},
			{
				"x": -0.006834446,
				"y": -2.9036093528,
				"z": -2.8808315535,
				"element": "F" 
			},
			{
				"x": -0.2178860518,
				"y": -1.0582100541,
				"z": -4.7221565064,
				"element": "S" 
			},
			{
				"x": -1.1644567365,
				"y": -2.0889479685,
				"z": -5.5243796773,
				"element": "F" 
			},
			{
				"x": -0.7923615802,
				"y": 0.2603889328,
				"z": -4.8666249593,
				"element": "O" 
			},
			{
				"x": 1.1490668189,
				"y": -1.3929297118,
				"z": -5.0483588663,
				"element": "O" 
			}
		],
		 "valence_orbital": [ 
			{
				"type": "occ",
				"energy": -0.38335,
				"method": "rhf"
			},
			{
				"type": "occ",
				"energy": -0.37753,
				"method": "rhf"
			},
			{
				"type": "occ",
				"energy": -0.36308,
				"method": "rhf"
			},
			{
				"type": "occ",
				"energy": -0.35916,
				"method": "rhf"
			},
			{
				"type": "occ",
				"energy": -0.35138,
				"method": "rhf"
			},
			{
				"type": "unocc",
				"energy": -0.0436,
				"method": "rhf"
			},
			{
				"type": "unocc",
				"energy": -0.00692,
				"method": "rhf"
			},
			{
				"type": "unocc",
				"energy": -0.00075,
				"method": "rhf"
			},
			{
				"type": "unocc",
				"energy": 0.005,
				"method": "rhf"
			},
			{
				"type": "unocc",
				"energy": 0.0181,
				"method": "rhf"
			}
		],
		"cosmo_sigma_profile": { 
			"-0.025": 0.0,
			"-0.024": 0.0,
			"-0.023": 0.0,
			"-0.022": 0.0,
			"-0.021": 0.0,
			"-0.02": 0.0,
			"-0.019": 0.0,
			"-0.018": 0.0,
			"-0.017": 0.0,
			"-0.016": 0.0,
			"-0.015": 0.0,
			"-0.014": 0.0,
			"-0.013": 0.0,
			"-0.012": 0.0,
			"-0.011": 0.0,
			"-0.01": 0.0,
			"-0.009": 0.0,
			"-0.008": 0.210773705734,
			"-0.007": 1.01576428114,
			"-0.006": 2.12971537038,
			"-0.005": 4.08203684424,
			"-0.004": 7.91997253269,
			"-0.003": 14.5502170356,
			"-0.002": 28.5837889642,
			"-0.001": 57.9378686493,
			"0.0": 109.428251976,
			"0.001": 76.8475865306,
			"0.002": 4.89853091178,
			"0.003": 3.73950747883,
			"0.004": 3.64448982719,
			"0.005": 4.57430784569,
			"0.006": 11.7088067641,
			"0.007": 4.57328784225,
			"0.008": 0.0,
			"0.009": 0.0,
			"0.01": 0.0,
			"0.011": 0.0,
			"0.012": 0.0,
			"0.013": 0.0,
			"0.014": 0.0,
			"0.015": 0.0,
			"0.016": 0.0,
			"0.017": 0.0,
			"0.018": 0.0,
			"0.019": 0.0,
			"0.02": 0.0,
			"0.021": 0.0,
			"0.022": 0.0,
			"0.023": 0.0,
			"0.024": 0.0,
			"0.025": 0.0
		}
	}
}
