{
	 "smiles": "ON=C(Cl)C1=CC=C(Cl)C=C1", 
	 "Tm": 551.15, 
	 "num_atms": 16, 
	 "gaussian": { 
		 "optdone": 1, 
		 "sigma_profile": "yes", 
		 "theory": "DFT", 
		 "functional": "B3LYP", 
		 "basiset": "6-31G**", 
		 "properties": { 
			 "R2extent": 3573.4262, 
			 "electric_dipole_moment_norm": 1.54687360182, 
			 "electric_quadrupole_moment_norm": 11.2796347295, 
			 "total_energy": -1320.05935857, 
			 "HOMO_LUMO_gap": 0.18012, 
			 "cosmo_polarized_energy": -7.8, 
			 "cosmo_cavitation_energy": 24.5, 
			 "cosmo_dispersion_energy": -18.57, 
			 "cosmo_repulsion_energy": 1.5, 
			 "cosmo_total_nonelectrostatic_energy": 7.43, 
			 "SMD_solvation_energy": 4.17 
		},
		"coords": [
			{
				"x": -1.8137847127,
				"y": -0.988567322,
				"z": 3.3884708568,
				"element": "O" 
			},
			{
				"x": -1.2259009381,
				"y": -0.3988410987,
				"z": 2.2872769564,
				"element": "N" 
			},
			{
				"x": -0.0023915591,
				"y": -0.7150157322,
				"z": 2.0962680854,
				"element": "C" 
			},
			{
				"x": 0.8414024525,
				"y": -1.8239897463,
				"z": 3.1775023985,
				"element": "Cl" 
			},
			{
				"x": 0.7407320198,
				"y": -0.1497131997,
				"z": 0.9497168744,
				"element": "C" 
			},
			{
				"x": 0.0832267144,
				"y": 0.7372045018,
				"z": 0.075794425,
				"element": "C" 
			},
			{
				"x": 0.7475370558,
				"y": 1.2888052532,
				"z": -1.0121233365,
				"element": "C" 
			},
			{
				"x": 2.0855280817,
				"y": 0.9562120544,
				"z": -1.2380118399,
				"element": "C" 
			},
			{
				"x": 2.9280465047,
				"y": 1.6512358834,
				"z": -2.6115441047,
				"element": "Cl" 
			},
			{
				"x": 2.7576975513,
				"y": 0.0816168417,
				"z": -0.3882956387,
				"element": "C" 
			},
			{
				"x": 2.082996428,
				"y": -0.4673788113,
				"z": 0.7013436501,
				"element": "C" 
			},
			{
				"x": -2.7132326491,
				"y": -0.6325720896,
				"z": 3.3608906158,
				"element": "H" 
			},
			{
				"x": -0.9545277553,
				"y": 0.988496325,
				"z": 0.2600394165,
				"element": "H" 
			},
			{
				"x": 0.2363292196,
				"y": 1.9712206945,
				"z": -1.6818814263,
				"element": "H" 
			},
			{
				"x": 3.7960106071,
				"y": -0.1688115312,
				"z": -0.5740153174,
				"element": "H" 
			},
			{
				"x": 2.6089309795,
				"y": -1.1474020229,
				"z": 1.3603683847,
				"element": "H" 
			}
		],
		 "valence_orbital": [ 
			{
				"type": "occ",
				"energy": -0.31796,
				"method": "rhf"
			},
			{
				"type": "occ",
				"energy": -0.30072,
				"method": "rhf"
			},
			{
				"type": "occ",
				"energy": -0.28601,
				"method": "rhf"
			},
			{
				"type": "occ",
				"energy": -0.27292,
				"method": "rhf"
			},
			{
				"type": "occ",
				"energy": -0.23861,
				"method": "rhf"
			},
			{
				"type": "unocc",
				"energy": -0.05849,
				"method": "rhf"
			},
			{
				"type": "unocc",
				"energy": -0.02152,
				"method": "rhf"
			},
			{
				"type": "unocc",
				"energy": 0.01514,
				"method": "rhf"
			},
			{
				"type": "unocc",
				"energy": 0.02462,
				"method": "rhf"
			},
			{
				"type": "unocc",
				"energy": 0.03058,
				"method": "rhf"
			}
		],
		"cosmo_sigma_profile": { 
			"-0.025": 0.0,
			"-0.024": 0.0,
			"-0.023": 0.0,
			"-0.022": 0.0,
			"-0.021": 0.0,
			"-0.02": 0.0,
			"-0.019": 0.459793922625,
			"-0.018": 1.10354188612,
			"-0.017": 0.949326695926,
			"-0.016": 1.01181726766,
			"-0.015": 0.800713326488,
			"-0.014": 0.63271152841,
			"-0.013": 0.658954355709,
			"-0.012": 0.791751513399,
			"-0.011": 0.475422211552,
			"-0.01": 0.848909363427,
			"-0.009": 0.858632488787,
			"-0.008": 1.93211711977,
			"-0.007": 5.85966591417,
			"-0.006": 8.29089126091,
			"-0.005": 6.68162203539,
			"-0.004": 5.82343703213,
			"-0.003": 6.91490166838,
			"-0.002": 11.5663954606,
			"-0.001": 16.5863564302,
			"0.0": 18.7519200472,
			"0.001": 24.8085149654,
			"0.002": 27.4069614022,
			"0.003": 20.4988500327,
			"0.004": 18.067945432,
			"0.005": 7.32138553028,
			"0.006": 3.58892074257,
			"0.007": 2.75711580369,
			"0.008": 1.83361551769,
			"0.009": 2.63713235679,
			"0.01": 1.47787125594,
			"0.011": 0.0,
			"0.012": 0.0,
			"0.013": 0.0,
			"0.014": 0.0,
			"0.015": 0.0,
			"0.016": 0.0,
			"0.017": 0.0,
			"0.018": 0.0,
			"0.019": 0.0,
			"0.02": 0.0,
			"0.021": 0.0,
			"0.022": 0.0,
			"0.023": 0.0,
			"0.024": 0.0,
			"0.025": 0.0
		}
	}
}
