{
	 "smiles": "CC1=C(C=CC(=C1)C1=NN=CO1)[N+]([O-])=O", 
	 "Tm": 393.15, 
	 "num_atms": 22, 
	 "gaussian": { 
		 "optdone": 1, 
		 "sigma_profile": "yes", 
		 "theory": "DFT", 
		 "functional": "B3LYP", 
		 "basiset": "6-31G**", 
		 "properties": { 
			 "R2extent": 3902.1582, 
			 "electric_dipole_moment_norm": 3.15453722438, 
			 "electric_quadrupole_moment_norm": 21.6886313724, 
			 "total_energy": -736.970462276, 
			 "HOMO_LUMO_gap": 0.16412, 
			 "cosmo_polarized_energy": -13.61, 
			 "cosmo_cavitation_energy": 27.77, 
			 "cosmo_dispersion_energy": -20.51, 
			 "cosmo_repulsion_energy": 1.56, 
			 "cosmo_total_nonelectrostatic_energy": 8.82, 
			 "SMD_solvation_energy": 6.16 
		},
		"coords": [
			{
				"x": -0.0102069976,
				"y": -1.7814864701,
				"z": 2.6154040504,
				"element": "C" 
			},
			{
				"x": -0.0429968288,
				"y": -0.6109022628,
				"z": 1.6633502103,
				"element": "C" 
			},
			{
				"x": 0.1365067629,
				"y": 0.7429539107,
				"z": 2.0201290981,
				"element": "C" 
			},
			{
				"x": 0.0792119173,
				"y": 1.7773426349,
				"z": 1.0822793866,
				"element": "C" 
			},
			{
				"x": -0.1498432882,
				"y": 1.4939963521,
				"z": -0.2552960575,
				"element": "C" 
			},
			{
				"x": -0.3341106484,
				"y": 0.1607619885,
				"z": -0.6484982789,
				"element": "C" 
			},
			{
				"x": -0.2837490153,
				"y": -0.8619045464,
				"z": 0.307857836,
				"element": "C" 
			},
			{
				"x": -0.5828989766,
				"y": -0.1888052833,
				"z": -2.0425213495,
				"element": "C" 
			},
			{
				"x": -0.7736535033,
				"y": -1.3675260815,
				"z": -2.5600202562,
				"element": "N" 
			},
			{
				"x": -0.9674832806,
				"y": -1.1770763042,
				"z": -3.926651628,
				"element": "N" 
			},
			{
				"x": -0.878374654,
				"y": 0.0972141086,
				"z": -4.1229625671,
				"element": "C" 
			},
			{
				"x": -0.6365442428,
				"y": 0.7995826691,
				"z": -2.9862265485,
				"element": "O" 
			},
			{
				"x": 0.3971762907,
				"y": 1.1527539874,
				"z": 3.4130941213,
				"element": "N" 
			},
			{
				"x": 0.3092740258,
				"y": 2.3513911228,
				"z": 3.6799572637,
				"element": "O" 
			},
			{
				"x": 0.6954599099,
				"y": 0.2829266462,
				"z": 4.2316174028,
				"element": "O" 
			},
			{
				"x": -0.297593146,
				"y": -2.6924002685,
				"z": 2.084926005,
				"element": "H" 
			},
			{
				"x": -0.6854355475,
				"y": -1.6353317296,
				"z": 3.461701409,
				"element": "H" 
			},
			{
				"x": 0.9867015314,
				"y": -1.9184305117,
				"z": 3.0414762948,
				"element": "H" 
			},
			{
				"x": 0.2167407846,
				"y": 2.7940327537,
				"z": 1.4265510989,
				"element": "H" 
			},
			{
				"x": -0.187602275,
				"y": 2.2933744056,
				"z": -0.9862915337,
				"element": "H" 
			},
			{
				"x": -0.4377318592,
				"y": -1.8838745975,
				"z": -0.0216347858,
				"element": "H" 
			},
			{
				"x": -0.9703469596,
				"y": 0.644707476,
				"z": -5.0482411716,
				"element": "H" 
			}
		],
		 "valence_orbital": [ 
			{
				"type": "occ",
				"energy": -0.31146,
				"method": "rhf"
			},
			{
				"type": "occ",
				"energy": -0.29558,
				"method": "rhf"
			},
			{
				"type": "occ",
				"energy": -0.29455,
				"method": "rhf"
			},
			{
				"type": "occ",
				"energy": -0.28087,
				"method": "rhf"
			},
			{
				"type": "occ",
				"energy": -0.26768,
				"method": "rhf"
			},
			{
				"type": "unocc",
				"energy": -0.10356,
				"method": "rhf"
			},
			{
				"type": "unocc",
				"energy": -0.04662,
				"method": "rhf"
			},
			{
				"type": "unocc",
				"energy": -0.03454,
				"method": "rhf"
			},
			{
				"type": "unocc",
				"energy": -0.0039,
				"method": "rhf"
			},
			{
				"type": "unocc",
				"energy": 0.04205,
				"method": "rhf"
			}
		],
		"cosmo_sigma_profile": { 
			"-0.025": 0.0,
			"-0.024": 0.0,
			"-0.023": 0.0,
			"-0.022": 0.0,
			"-0.021": 0.0,
			"-0.02": 0.0,
			"-0.019": 0.0,
			"-0.018": 0.0,
			"-0.017": 0.0,
			"-0.016": 0.0,
			"-0.015": 0.0,
			"-0.014": 0.0,
			"-0.013": 1.19114778687,
			"-0.012": 2.24787716632,
			"-0.011": 1.87753680721,
			"-0.01": 1.34423941745,
			"-0.009": 1.5381630206,
			"-0.008": 3.30453943587,
			"-0.007": 7.74518307904,
			"-0.006": 9.26562591195,
			"-0.005": 13.535671119,
			"-0.004": 18.5430172608,
			"-0.003": 17.6628215329,
			"-0.002": 20.0287553665,
			"-0.001": 23.1934543295,
			"0.0": 22.4989459628,
			"0.001": 12.3567959209,
			"0.002": 7.86473504348,
			"0.003": 5.93034584179,
			"0.004": 3.70600953602,
			"0.005": 4.95082508627,
			"0.006": 6.83748702108,
			"0.007": 7.57747823645,
			"0.008": 9.14950161416,
			"0.009": 6.78112248556,
			"0.01": 5.39678509931,
			"0.011": 3.48592608992,
			"0.012": 2.71950443568,
			"0.013": 2.08433589663,
			"0.014": 1.09587221951,
			"0.015": 0.158661730323,
			"0.016": 0.0,
			"0.017": 0.0,
			"0.018": 0.0,
			"0.019": 0.0,
			"0.02": 0.0,
			"0.021": 0.0,
			"0.022": 0.0,
			"0.023": 0.0,
			"0.024": 0.0,
			"0.025": 0.0
		}
	}
}
