{
	 "smiles": "CN(C)CCCNC(=O)C1=C(Cl)N=CC=C1", 
	 "Tm": 372.15, 
	 "num_atms": 32, 
	 "gaussian": { 
		 "optdone": 1, 
		 "sigma_profile": "yes", 
		 "theory": "DFT", 
		 "functional": "B3LYP", 
		 "basiset": "6-31G**", 
		 "properties": { 
			 "R2extent": 5513.5112, 
			 "electric_dipole_moment_norm": 5.01331936645, 
			 "electric_quadrupole_moment_norm": 17.3867565621, 
			 "total_energy": -1128.48110132, 
			 "HOMO_LUMO_gap": 0.18541, 
			 "cosmo_polarized_energy": -14.2, 
			 "cosmo_cavitation_energy": 36.42, 
			 "cosmo_dispersion_energy": -24.89, 
			 "cosmo_repulsion_energy": 1.97, 
			 "cosmo_total_nonelectrostatic_energy": 13.51, 
			 "SMD_solvation_energy": 4.23 
		},
		"coords": [
			{
				"x": -0.3624677227,
				"y": -3.8321307172,
				"z": -1.1812584532,
				"element": "C" 
			},
			{
				"x": -0.1250823006,
				"y": -2.4280119363,
				"z": -1.5051315165,
				"element": "N" 
			},
			{
				"x": 0.3600408823,
				"y": -2.2934786276,
				"z": -2.8755025708,
				"element": "C" 
			},
			{
				"x": -1.3185322851,
				"y": -1.6169432673,
				"z": -1.2484947217,
				"element": "C" 
			},
			{
				"x": -1.0573503188,
				"y": -0.1028138444,
				"z": -1.2821555039,
				"element": "C" 
			},
			{
				"x": 0.2092962379,
				"y": 0.3311818277,
				"z": -0.5203791297,
				"element": "C" 
			},
			{
				"x": 0.3381378852,
				"y": -0.2896678142,
				"z": 0.7906141807,
				"element": "N" 
			},
			{
				"x": -0.0106496105,
				"y": 0.1929613554,
				"z": 2.013437163,
				"element": "C" 
			},
			{
				"x": -0.0652484741,
				"y": -0.5173551712,
				"z": 3.0126468306,
				"element": "O" 
			},
			{
				"x": -0.3800796367,
				"y": 1.6569629983,
				"z": 2.1293162319,
				"element": "C" 
			},
			{
				"x": 0.4936880123,
				"y": 2.744036406,
				"z": 1.9595852141,
				"element": "C" 
			},
			{
				"x": 2.171996189,
				"y": 2.4561594116,
				"z": 1.4928266793,
				"element": "Cl" 
			},
			{
				"x": 0.1700936681,
				"y": 4.0103911319,
				"z": 2.1522402824,
				"element": "N" 
			},
			{
				"x": -1.0797393548,
				"y": 4.2846939229,
				"z": 2.546546001,
				"element": "C" 
			},
			{
				"x": -2.0341459641,
				"y": 3.2977258978,
				"z": 2.7831440437,
				"element": "C" 
			},
			{
				"x": -1.6666967009,
				"y": 1.9698842276,
				"z": 2.5821917788,
				"element": "C" 
			},
			{
				"x": 0.5622986452,
				"y": -4.4023954767,
				"z": -1.3139561982,
				"element": "H" 
			},
			{
				"x": -1.1425865724,
				"y": -4.2977261241,
				"z": -1.8129471658,
				"element": "H" 
			},
			{
				"x": -0.6726637553,
				"y": -3.9271314003,
				"z": -0.135927396,
				"element": "H" 
			},
			{
				"x": 0.6070487119,
				"y": -1.2519296852,
				"z": -3.0975642089,
				"element": "H" 
			},
			{
				"x": -0.3763025522,
				"y": -2.6366344671,
				"z": -3.6271913384,
				"element": "H" 
			},
			{
				"x": 1.2720492192,
				"y": -2.8851443256,
				"z": -3.00105869,
				"element": "H" 
			},
			{
				"x": -2.1414330826,
				"y": -1.8595377751,
				"z": -1.949313481,
				"element": "H" 
			},
			{
				"x": -1.6755337694,
				"y": -1.8833281417,
				"z": -0.2474484065,
				"element": "H" 
			},
			{
				"x": -0.9753951225,
				"y": 0.2606698495,
				"z": -2.3138225476,
				"element": "H" 
			},
			{
				"x": -1.9356013013,
				"y": 0.3943631939,
				"z": -0.8520765554,
				"element": "H" 
			},
			{
				"x": 1.1003186697,
				"y": 0.0666886489,
				"z": -1.0969647885,
				"element": "H" 
			},
			{
				"x": 0.2183280737,
				"y": 1.4161636934,
				"z": -0.4068288574,
				"element": "H" 
			},
			{
				"x": 0.5590391009,
				"y": -1.2787448337,
				"z": 0.7841762319,
				"element": "H" 
			},
			{
				"x": -1.3139520267,
				"y": 5.3377301287,
				"z": 2.6855385235,
				"element": "H" 
			},
			{
				"x": -3.0298390586,
				"y": 3.5611288905,
				"z": 3.1236885868,
				"element": "H" 
			},
			{
				"x": -2.3623356862,
				"y": 1.1601320239,
				"z": 2.7796697819,
				"element": "H" 
			}
		],
		 "valence_orbital": [ 
			{
				"type": "occ",
				"energy": -0.28138,
				"method": "rhf"
			},
			{
				"type": "occ",
				"energy": -0.26557,
				"method": "rhf"
			},
			{
				"type": "occ",
				"energy": -0.25083,
				"method": "rhf"
			},
			{
				"type": "occ",
				"energy": -0.24303,
				"method": "rhf"
			},
			{
				"type": "occ",
				"energy": -0.2271,
				"method": "rhf"
			},
			{
				"type": "unocc",
				"energy": -0.04169,
				"method": "rhf"
			},
			{
				"type": "unocc",
				"energy": -0.03173,
				"method": "rhf"
			},
			{
				"type": "unocc",
				"energy": 0.02454,
				"method": "rhf"
			},
			{
				"type": "unocc",
				"energy": 0.03908,
				"method": "rhf"
			},
			{
				"type": "unocc",
				"energy": 0.06314,
				"method": "rhf"
			}
		],
		"cosmo_sigma_profile": { 
			"-0.025": 0.0,
			"-0.024": 0.0,
			"-0.023": 0.0,
			"-0.022": 0.0,
			"-0.021": 0.0,
			"-0.02": 0.0,
			"-0.019": 0.0,
			"-0.018": 0.0,
			"-0.017": 0.0,
			"-0.016": 0.0,
			"-0.015": 0.0,
			"-0.014": 0.0,
			"-0.013": 0.0,
			"-0.012": 0.0,
			"-0.011": 0.0,
			"-0.01": 0.227371986882,
			"-0.009": 0.694731000304,
			"-0.008": 5.27679902363,
			"-0.007": 7.72186007539,
			"-0.006": 8.02033817185,
			"-0.005": 10.701356245,
			"-0.004": 23.7312657394,
			"-0.003": 27.6075364686,
			"-0.002": 34.3573674559,
			"-0.001": 41.324500022,
			"0.0": 37.1849709755,
			"0.001": 18.2884248344,
			"0.002": 10.969459179,
			"0.003": 11.787297558,
			"0.004": 10.5193126348,
			"0.005": 7.49989891996,
			"0.006": 4.45441457472,
			"0.007": 3.62084315126,
			"0.008": 2.86001497439,
			"0.009": 2.73729933771,
			"0.01": 2.74451342118,
			"0.011": 2.30965107666,
			"0.012": 2.70644528447,
			"0.013": 6.24336339624,
			"0.014": 4.70508348207,
			"0.015": 0.349701021641,
			"0.016": 0.0,
			"0.017": 0.0,
			"0.018": 0.0,
			"0.019": 0.0,
			"0.02": 0.0,
			"0.021": 0.0,
			"0.022": 0.0,
			"0.023": 0.0,
			"0.024": 0.0,
			"0.025": 0.0
		}
	}
}
