{
	 "smiles": "CS(=O)(=O)C1=CSC(C(Cl)=O)=C1Cl", 
	 "Tm": 456.15, 
	 "num_atms": 17, 
	 "gaussian": { 
		 "optdone": 1, 
		 "sigma_profile": "yes", 
		 "theory": "DFT", 
		 "functional": "B3LYP", 
		 "basiset": "6-31G**", 
		 "properties": { 
			 "R2extent": 4123.6432, 
			 "electric_dipole_moment_norm": 5.50158131268, 
			 "electric_quadrupole_moment_norm": 26.2289419642, 
			 "total_energy": -2173.37830922, 
			 "HOMO_LUMO_gap": 0.17749, 
			 "cosmo_polarized_energy": -19.9, 
			 "cosmo_cavitation_energy": 28.46, 
			 "cosmo_dispersion_energy": -21.78, 
			 "cosmo_repulsion_energy": 1.62, 
			 "cosmo_total_nonelectrostatic_energy": 8.3, 
			 "SMD_solvation_energy": 4.87 
		},
		"coords": [
			{
				"x": 2.5829071745,
				"y": -1.0306538244,
				"z": 2.8438509011,
				"element": "C" 
			},
			{
				"x": 2.2313217369,
				"y": -0.6750205464,
				"z": 1.108113328,
				"element": "S" 
			},
			{
				"x": 2.0323336022,
				"y": -1.9571049982,
				"z": 0.4241541041,
				"element": "O" 
			},
			{
				"x": 3.2387480085,
				"y": 0.281903906,
				"z": 0.6384960901,
				"element": "O" 
			},
			{
				"x": 0.6363916596,
				"y": 0.1785678516,
				"z": 1.1674340724,
				"element": "C" 
			},
			{
				"x": -0.0619276972,
				"y": 0.4472695489,
				"z": 2.3159036216,
				"element": "C" 
			},
			{
				"x": -1.5368866872,
				"y": 1.2701069468,
				"z": 2.0186131189,
				"element": "S" 
			},
			{
				"x": -1.2427448563,
				"y": 1.2735857135,
				"z": 0.2900568108,
				"element": "C" 
			},
			{
				"x": -2.3154358837,
				"y": 1.9233092114,
				"z": -0.4730904354,
				"element": "C" 
			},
			{
				"x": -2.1378263696,
				"y": 1.9936978124,
				"z": -2.252342493,
				"element": "Cl" 
			},
			{
				"x": -3.287727107,
				"y": 2.3988227647,
				"z": 0.0487465291,
				"element": "O" 
			},
			{
				"x": -0.0381015083,
				"y": 0.6521206893,
				"z": -0.0058592676,
				"element": "C" 
			},
			{
				"x": 0.6401869975,
				"y": 0.4339764024,
				"z": -1.5738319943,
				"element": "Cl" 
			},
			{
				"x": 2.6774416657,
				"y": -0.1020857317,
				"z": 3.4079810591,
				"element": "H" 
			},
			{
				"x": 1.8192764506,
				"y": -1.6911276268,
				"z": 3.2562363893,
				"element": "H" 
			},
			{
				"x": 3.5443618163,
				"y": -1.5477065618,
				"z": 2.8205633054,
				"element": "H" 
			},
			{
				"x": 0.2139809974,
				"y": 0.2034384422,
				"z": 3.3316748605,
				"element": "H" 
			}
		],
		 "valence_orbital": [ 
			{
				"type": "occ",
				"energy": -0.31784,
				"method": "rhf"
			},
			{
				"type": "occ",
				"energy": -0.3087,
				"method": "rhf"
			},
			{
				"type": "occ",
				"energy": -0.30355,
				"method": "rhf"
			},
			{
				"type": "occ",
				"energy": -0.28885,
				"method": "rhf"
			},
			{
				"type": "occ",
				"energy": -0.28296,
				"method": "rhf"
			},
			{
				"type": "unocc",
				"energy": -0.10547,
				"method": "rhf"
			},
			{
				"type": "unocc",
				"energy": -0.03545,
				"method": "rhf"
			},
			{
				"type": "unocc",
				"energy": -0.02848,
				"method": "rhf"
			},
			{
				"type": "unocc",
				"energy": -0.0012,
				"method": "rhf"
			},
			{
				"type": "unocc",
				"energy": 0.01272,
				"method": "rhf"
			}
		],
		"cosmo_sigma_profile": { 
			"-0.025": 0.0,
			"-0.024": 0.0,
			"-0.023": 0.0,
			"-0.022": 0.0,
			"-0.021": 0.0,
			"-0.02": 0.0,
			"-0.019": 0.0,
			"-0.018": 0.0,
			"-0.017": 0.0,
			"-0.016": 0.0,
			"-0.015": 0.0,
			"-0.014": 0.0,
			"-0.013": 1.00160336722,
			"-0.012": 3.37004510194,
			"-0.011": 4.12964464589,
			"-0.01": 6.92817921209,
			"-0.009": 6.47835702171,
			"-0.008": 5.90976895224,
			"-0.007": 5.818771029,
			"-0.006": 7.61645244634,
			"-0.005": 11.7837146307,
			"-0.004": 13.4881715456,
			"-0.003": 16.8929981682,
			"-0.002": 17.0029339769,
			"-0.001": 14.8231871861,
			"0.0": 16.2991475257,
			"0.001": 12.2897434696,
			"0.002": 16.2900802148,
			"0.003": 14.909011939,
			"0.004": 7.78424200279,
			"0.005": 5.51864878803,
			"0.006": 4.87547216526,
			"0.007": 6.66901393135,
			"0.008": 7.30278680164,
			"0.009": 6.16255462071,
			"0.01": 9.29106299848,
			"0.011": 11.5108633528,
			"0.012": 1.31234003511,
			"0.013": 0.0,
			"0.014": 0.0,
			"0.015": 0.0,
			"0.016": 0.0,
			"0.017": 0.0,
			"0.018": 0.0,
			"0.019": 0.0,
			"0.02": 0.0,
			"0.021": 0.0,
			"0.022": 0.0,
			"0.023": 0.0,
			"0.024": 0.0,
			"0.025": 0.0
		}
	}
}
