{
	 "smiles": "OC(=O)C1=CC=C(C=C1)S(=O)(=O)NC1=NC=CS1", 
	 "Tm": 563.15, 
	 "num_atms": 26, 
	 "gaussian": { 
		 "optdone": 1, 
		 "sigma_profile": "yes", 
		 "theory": "DFT", 
		 "functional": "B3LYP", 
		 "basiset": "6-31G**", 
		 "properties": { 
			 "R2extent": 6615.9529, 
			 "electric_dipole_moment_norm": 3.67153181247, 
			 "electric_quadrupole_moment_norm": 28.2816287068, 
			 "total_energy": -1592.57573248, 
			 "HOMO_LUMO_gap": 0.15627, 
			 "cosmo_polarized_energy": -24.39, 
			 "cosmo_cavitation_energy": 35.2, 
			 "cosmo_dispersion_energy": -25.54, 
			 "cosmo_repulsion_energy": 1.88, 
			 "cosmo_total_nonelectrostatic_energy": 11.53, 
			 "SMD_solvation_energy": 4.83 
		},
		"coords": [
			{
				"x": -0.1025287613,
				"y": 4.1133164146,
				"z": -2.6875109721,
				"element": "O" 
			},
			{
				"x": -0.9763243636,
				"y": 3.1190340749,
				"z": -2.3866509894,
				"element": "C" 
			},
			{
				"x": -2.1109852893,
				"y": 3.1596941481,
				"z": -2.7968039168,
				"element": "O" 
			},
			{
				"x": -0.4574431374,
				"y": 1.9938271639,
				"z": -1.5341301181,
				"element": "C" 
			},
			{
				"x": 0.9057005295,
				"y": 1.6785909817,
				"z": -1.4368612971,
				"element": "C" 
			},
			{
				"x": 1.3283880981,
				"y": 0.6148218372,
				"z": -0.6427704672,
				"element": "C" 
			},
			{
				"x": 0.3734019817,
				"y": -0.1283640318,
				"z": 0.0536248963,
				"element": "C" 
			},
			{
				"x": -0.9922487259,
				"y": 0.1520659852,
				"z": -0.0513383739,
				"element": "C" 
			},
			{
				"x": -1.4012834093,
				"y": 1.2128143722,
				"z": -0.8539073211,
				"element": "C" 
			},
			{
				"x": 0.9222136673,
				"y": -1.4718800088,
				"z": 1.1136336365,
				"element": "S" 
			},
			{
				"x": -0.1910068177,
				"y": -2.4039834447,
				"z": 1.2673021097,
				"element": "O" 
			},
			{
				"x": 2.2568872031,
				"y": -1.8730487307,
				"z": 0.6805150819,
				"element": "O" 
			},
			{
				"x": 1.1745579505,
				"y": -0.7902050659,
				"z": 2.6544432151,
				"element": "N" 
			},
			{
				"x": 0.1576453582,
				"y": -0.2547439676,
				"z": 3.4509553166,
				"element": "C" 
			},
			{
				"x": 0.308461718,
				"y": 0.8802506274,
				"z": 4.0729297484,
				"element": "N" 
			},
			{
				"x": -0.777883686,
				"y": 1.1292843931,
				"z": 4.8826067901,
				"element": "C" 
			},
			{
				"x": -1.764664819,
				"y": 0.1900708182,
				"z": 4.8679688248,
				"element": "C" 
			},
			{
				"x": -1.3298229381,
				"y": -1.1209508653,
				"z": 3.8090068091,
				"element": "S" 
			},
			{
				"x": 0.7031569429,
				"y": 4.0317665356,
				"z": -2.1587144275,
				"element": "H" 
			},
			{
				"x": 1.6472929018,
				"y": 2.2273921799,
				"z": -2.011479715,
				"element": "H" 
			},
			{
				"x": 2.3766600818,
				"y": 0.3439320887,
				"z": -0.5819516402,
				"element": "H" 
			},
			{
				"x": -1.7147473369,
				"y": -0.4657144121,
				"z": 0.4695085755,
				"element": "H" 
			},
			{
				"x": -2.4525690321,
				"y": 1.4504034507,
				"z": -0.9732769721,
				"element": "H" 
			},
			{
				"x": 2.0302376703,
				"y": -0.2428380864,
				"z": 2.7010714762,
				"element": "H" 
			},
			{
				"x": -0.7988772147,
				"y": 2.0435179869,
				"z": 5.4636307539,
				"element": "H" 
			},
			{
				"x": -2.714018572,
				"y": 0.1960455548,
				"z": 5.3839989763,
				"element": "H" 
			}
		],
		 "valence_orbital": [ 
			{
				"type": "occ",
				"energy": -0.29779,
				"method": "rhf"
			},
			{
				"type": "occ",
				"energy": -0.29686,
				"method": "rhf"
			},
			{
				"type": "occ",
				"energy": -0.29435,
				"method": "rhf"
			},
			{
				"type": "occ",
				"energy": -0.28696,
				"method": "rhf"
			},
			{
				"type": "occ",
				"energy": -0.24254,
				"method": "rhf"
			},
			{
				"type": "unocc",
				"energy": -0.08627,
				"method": "rhf"
			},
			{
				"type": "unocc",
				"energy": -0.04867,
				"method": "rhf"
			},
			{
				"type": "unocc",
				"energy": -0.03801,
				"method": "rhf"
			},
			{
				"type": "unocc",
				"energy": 0.00724,
				"method": "rhf"
			},
			{
				"type": "unocc",
				"energy": 0.01315,
				"method": "rhf"
			}
		],
		"cosmo_sigma_profile": { 
			"-0.025": 0.0,
			"-0.024": 0.0,
			"-0.023": 0.0,
			"-0.022": 0.0,
			"-0.021": 0.0,
			"-0.02": 0.0242316322774,
			"-0.019": 0.740032606915,
			"-0.018": 1.18462632235,
			"-0.017": 1.37086985207,
			"-0.016": 2.43327963772,
			"-0.015": 1.33490472614,
			"-0.014": 1.76132356163,
			"-0.013": 2.72354556386,
			"-0.012": 1.82287996445,
			"-0.011": 2.24552536283,
			"-0.01": 2.87739762177,
			"-0.009": 5.46257077558,
			"-0.008": 9.48154212048,
			"-0.007": 10.9304539586,
			"-0.006": 10.9746611922,
			"-0.005": 12.1049062241,
			"-0.004": 11.6507012301,
			"-0.003": 17.2248170793,
			"-0.002": 14.8597190694,
			"-0.001": 18.203365227,
			"0.0": 26.4006677055,
			"0.001": 21.9166661657,
			"0.002": 16.8945166514,
			"0.003": 13.7375857544,
			"0.004": 9.70965252944,
			"0.005": 8.25134156178,
			"0.006": 7.25874195345,
			"0.007": 6.83478745754,
			"0.008": 8.17553098311,
			"0.009": 11.1858613684,
			"0.01": 13.481545667,
			"0.011": 7.53668422492,
			"0.012": 3.45986295595,
			"0.013": 1.16915543894,
			"0.014": 0.520916300323,
			"0.015": 0.0173832604721,
			"0.016": 0.0,
			"0.017": 0.0,
			"0.018": 0.0,
			"0.019": 0.0,
			"0.02": 0.0,
			"0.021": 0.0,
			"0.022": 0.0,
			"0.023": 0.0,
			"0.024": 0.0,
			"0.025": 0.0
		}
	}
}
