{
	 "smiles": "CC1=C(C)C=C(C(=C1)[N+]([O-])=O)S(Cl)(=O)=O", 
	 "Tm": 353.15, 
	 "num_atms": 23, 
	 "gaussian": { 
		 "optdone": 1, 
		 "sigma_profile": "yes", 
		 "theory": "DFT", 
		 "functional": "B3LYP", 
		 "basiset": "6-31G**", 
		 "properties": { 
			 "R2extent": 4940.6863, 
			 "electric_dipole_moment_norm": 8.28614143616, 
			 "electric_quadrupole_moment_norm": 10.1804536726, 
			 "total_energy": -1523.52587463, 
			 "HOMO_LUMO_gap": 0.17868, 
			 "cosmo_polarized_energy": -14.66, 
			 "cosmo_cavitation_energy": 30.68, 
			 "cosmo_dispersion_energy": -22.6, 
			 "cosmo_repulsion_energy": 1.72, 
			 "cosmo_total_nonelectrostatic_energy": 9.8, 
			 "SMD_solvation_energy": 6.14 
		},
		"coords": [
			{
				"x": -0.1707725212,
				"y": -2.1764314681,
				"z": -1.6120838267,
				"element": "C" 
			},
			{
				"x": -0.1131854539,
				"y": -0.8532420232,
				"z": -0.8927397478,
				"element": "C" 
			},
			{
				"x": 0.2106536573,
				"y": 0.3360654242,
				"z": -1.5783044497,
				"element": "C" 
			},
			{
				"x": 0.5087113173,
				"y": 0.3270118432,
				"z": -3.0559835857,
				"element": "C" 
			},
			{
				"x": 0.2381411124,
				"y": 1.5422979546,
				"z": -0.8694318599,
				"element": "C" 
			},
			{
				"x": -0.0148020804,
				"y": 1.5975453753,
				"z": 0.5013384664,
				"element": "C" 
			},
			{
				"x": -0.3238760367,
				"y": 0.4095192549,
				"z": 1.1773952067,
				"element": "C" 
			},
			{
				"x": -0.3837942549,
				"y": -0.7903119147,
				"z": 0.4767457112,
				"element": "C" 
			},
			{
				"x": -0.542911741,
				"y": 0.3282545488,
				"z": 2.6326797463,
				"element": "N" 
			},
			{
				"x": 0.0709390602,
				"y": 1.1200197265,
				"z": 3.3382042133,
				"element": "O" 
			},
			{
				"x": -1.2928699349,
				"y": -0.558356768,
				"z": 3.0347862477,
				"element": "O" 
			},
			{
				"x": -0.0959276436,
				"y": 3.2698886922,
				"z": 1.1922890407,
				"element": "S" 
			},
			{
				"x": 1.7688184279,
				"y": 3.4817794231,
				"z": 2.1570660417,
				"element": "Cl" 
			},
			{
				"x": -0.0443214763,
				"y": 4.1966221322,
				"z": 0.0665544094,
				"element": "O" 
			},
			{
				"x": -1.1554190423,
				"y": 3.3518753952,
				"z": 2.184725484,
				"element": "O" 
			},
			{
				"x": -0.903997602,
				"y": -2.1538933669,
				"z": -2.4264315547,
				"element": "H" 
			},
			{
				"x": -0.445587163,
				"y": -2.9860093392,
				"z": -0.9329028656,
				"element": "H" 
			},
			{
				"x": 0.7965511614,
				"y": -2.425988413,
				"z": -2.0632656727,
				"element": "H" 
			},
			{
				"x": 1.3634325203,
				"y": -0.3200619996,
				"z": -3.2846282232,
				"element": "H" 
			},
			{
				"x": 0.7384314322,
				"y": 1.3302949941,
				"z": -3.420457753,
				"element": "H" 
			},
			{
				"x": -0.3420233362,
				"y": -0.055659406,
				"z": -3.6316514334,
				"element": "H" 
			},
			{
				"x": 0.44556948,
				"y": 2.4688652969,
				"z": -1.3918663447,
				"element": "H" 
			},
			{
				"x": -0.6426598825,
				"y": -1.6848853625,
				"z": 1.0310627497,
				"element": "H" 
			}
		],
		 "valence_orbital": [ 
			{
				"type": "occ",
				"energy": -0.32017,
				"method": "rhf"
			},
			{
				"type": "occ",
				"energy": -0.31207,
				"method": "rhf"
			},
			{
				"type": "occ",
				"energy": -0.30976,
				"method": "rhf"
			},
			{
				"type": "occ",
				"energy": -0.29634,
				"method": "rhf"
			},
			{
				"type": "occ",
				"energy": -0.28725,
				"method": "rhf"
			},
			{
				"type": "unocc",
				"energy": -0.10857,
				"method": "rhf"
			},
			{
				"type": "unocc",
				"energy": -0.0831,
				"method": "rhf"
			},
			{
				"type": "unocc",
				"energy": -0.05501,
				"method": "rhf"
			},
			{
				"type": "unocc",
				"energy": -0.03031,
				"method": "rhf"
			},
			{
				"type": "unocc",
				"energy": 0.03681,
				"method": "rhf"
			}
		],
		"cosmo_sigma_profile": { 
			"-0.025": 0.0,
			"-0.024": 0.0,
			"-0.023": 0.0,
			"-0.022": 0.0,
			"-0.021": 0.0,
			"-0.02": 0.0,
			"-0.019": 0.0,
			"-0.018": 0.0,
			"-0.017": 0.0,
			"-0.016": 0.0,
			"-0.015": 0.0,
			"-0.014": 0.0,
			"-0.013": 0.0,
			"-0.012": 0.0,
			"-0.011": 0.0,
			"-0.01": 0.0,
			"-0.009": 1.03012741579,
			"-0.008": 4.62054081212,
			"-0.007": 4.75662902905,
			"-0.006": 15.384353499,
			"-0.005": 18.7584794892,
			"-0.004": 15.9159466799,
			"-0.003": 21.3875616481,
			"-0.002": 30.6087936606,
			"-0.001": 29.1289371916,
			"0.0": 11.6738250611,
			"0.001": 7.96624971227,
			"0.002": 11.4189850702,
			"0.003": 13.4650978776,
			"0.004": 7.48588151491,
			"0.005": 7.40169910156,
			"0.006": 10.4657627163,
			"0.007": 14.6604666847,
			"0.008": 14.6289402077,
			"0.009": 6.49062465643,
			"0.01": 0.193269942654,
			"0.011": 0.0,
			"0.012": 0.0,
			"0.013": 0.0,
			"0.014": 0.0,
			"0.015": 0.0,
			"0.016": 0.0,
			"0.017": 0.0,
			"0.018": 0.0,
			"0.019": 0.0,
			"0.02": 0.0,
			"0.021": 0.0,
			"0.022": 0.0,
			"0.023": 0.0,
			"0.024": 0.0,
			"0.025": 0.0
		}
	}
}
