{
	 "smiles": "ClS(=O)(=O)C1=CSC=C1", 
	 "Tm": 317.65, 
	 "num_atms": 12, 
	 "gaussian": { 
		 "optdone": 1, 
		 "sigma_profile": "yes", 
		 "theory": "DFT", 
		 "functional": "B3LYP", 
		 "basiset": "6-31G**", 
		 "properties": { 
			 "R2extent": 2300.845, 
			 "electric_dipole_moment_norm": 4.92337706559, 
			 "electric_quadrupole_moment_norm": 6.77467540846, 
			 "total_energy": -1561.1571169, 
			 "HOMO_LUMO_gap": 0.18949, 
			 "cosmo_polarized_energy": -9.02, 
			 "cosmo_cavitation_energy": 21.72, 
			 "cosmo_dispersion_energy": -17.16, 
			 "cosmo_repulsion_energy": 1.31, 
			 "cosmo_total_nonelectrostatic_energy": 5.86, 
			 "SMD_solvation_energy": 2.71 
		},
		"coords": [
			{
				"x": -0.0310808873,
				"y": -2.437882795,
				"z": 2.7853369348,
				"element": "Cl" 
			},
			{
				"x": 0.8527714819,
				"y": -0.6831831744,
				"z": 1.9527816034,
				"element": "S" 
			},
			{
				"x": 2.2531230706,
				"y": -1.0128479356,
				"z": 1.7233927175,
				"element": "O" 
			},
			{
				"x": 0.4332916829,
				"y": 0.4262249488,
				"z": 2.7989097143,
				"element": "O" 
			},
			{
				"x": 0.0203984951,
				"y": -0.575040839,
				"z": 0.3977705711,
				"element": "C" 
			},
			{
				"x": -1.046456473,
				"y": 0.2640716082,
				"z": 0.2069188222,
				"element": "C" 
			},
			{
				"x": -1.6068641362,
				"y": 0.1511585216,
				"z": -1.4166314755,
				"element": "S" 
			},
			{
				"x": -0.3993784122,
				"y": -1.0338899405,
				"z": -1.8185106702,
				"element": "C" 
			},
			{
				"x": 0.4028014368,
				"y": -1.3281578247,
				"z": -0.7549401945,
				"element": "C" 
			},
			{
				"x": -1.5042668392,
				"y": 0.926351903,
				"z": 0.9272933215,
				"element": "H" 
			},
			{
				"x": -0.3505076843,
				"y": -1.4344459871,
				"z": -2.8214328645,
				"element": "H" 
			},
			{
				"x": 1.2280682648,
				"y": -2.0279584852,
				"z": -0.77568848,
				"element": "H" 
			}
		],
		 "valence_orbital": [ 
			{
				"type": "occ",
				"energy": -0.33969,
				"method": "rhf"
			},
			{
				"type": "occ",
				"energy": -0.33467,
				"method": "rhf"
			},
			{
				"type": "occ",
				"energy": -0.3146,
				"method": "rhf"
			},
			{
				"type": "occ",
				"energy": -0.29261,
				"method": "rhf"
			},
			{
				"type": "occ",
				"energy": -0.27928,
				"method": "rhf"
			},
			{
				"type": "unocc",
				"energy": -0.08979,
				"method": "rhf"
			},
			{
				"type": "unocc",
				"energy": -0.05152,
				"method": "rhf"
			},
			{
				"type": "unocc",
				"energy": -0.00714,
				"method": "rhf"
			},
			{
				"type": "unocc",
				"energy": 0.00357,
				"method": "rhf"
			},
			{
				"type": "unocc",
				"energy": 0.05672,
				"method": "rhf"
			}
		],
		"cosmo_sigma_profile": { 
			"-0.025": 0.0,
			"-0.024": 0.0,
			"-0.023": 0.0,
			"-0.022": 0.0,
			"-0.021": 0.0,
			"-0.02": 0.0,
			"-0.019": 0.0,
			"-0.018": 0.0,
			"-0.017": 0.0,
			"-0.016": 0.0,
			"-0.015": 0.0,
			"-0.014": 0.0,
			"-0.013": 0.0,
			"-0.012": 0.0749950414694,
			"-0.011": 1.63901331315,
			"-0.01": 3.36067444669,
			"-0.009": 5.27979049499,
			"-0.008": 5.31530084891,
			"-0.007": 4.98352893535,
			"-0.006": 5.57916270176,
			"-0.005": 7.26920007152,
			"-0.004": 7.01262744772,
			"-0.003": 8.08826446934,
			"-0.002": 11.0859455368,
			"-0.001": 13.8178046787,
			"0.0": 21.8300296368,
			"0.001": 18.5671364171,
			"0.002": 13.5157356566,
			"0.003": 16.2078865527,
			"0.004": 8.89030223867,
			"0.005": 3.27269859722,
			"0.006": 3.04204805175,
			"0.007": 6.44538872501,
			"0.008": 10.2046108882,
			"0.009": 4.67852331032,
			"0.01": 0.0233595871226,
			"0.011": 0.0,
			"0.012": 0.0,
			"0.013": 0.0,
			"0.014": 0.0,
			"0.015": 0.0,
			"0.016": 0.0,
			"0.017": 0.0,
			"0.018": 0.0,
			"0.019": 0.0,
			"0.02": 0.0,
			"0.021": 0.0,
			"0.022": 0.0,
			"0.023": 0.0,
			"0.024": 0.0,
			"0.025": 0.0
		}
	}
}
