{
	 "smiles": "CCC(=N/NC1=CC(NN=C(/CC)C(O)=O)=CC=C1)C(O)=O", 
	 "Tm": 463.15, 
	 "num_atms": 40, 
	 "gaussian": { 
		 "optdone": 1, 
		 "sigma_profile": "yes", 
		 "theory": "DFT", 
		 "functional": "B3LYP", 
		 "basiset": "6-31G**", 
		 "properties": { 
			 "R2extent": 13504.4976, 
			 "electric_dipole_moment_norm": 3.80924517588, 
			 "electric_quadrupole_moment_norm": 72.5469501597, 
			 "total_energy": -1064.21633986, 
			 "HOMO_LUMO_gap": 0.15108, 
			 "cosmo_polarized_energy": -30.35, 
			 "cosmo_cavitation_energy": 45.69, 
			 "cosmo_dispersion_energy": -31.71, 
			 "cosmo_repulsion_energy": 2.46, 
			 "cosmo_total_nonelectrostatic_energy": 16.43, 
			 "SMD_solvation_energy": 9.45 
		},
		"coords": [
			{
				"x": -0.8242558301,
				"y": -0.5404940908,
				"z": 5.801274171,
				"element": "C" 
			},
			{
				"x": 0.2651875193,
				"y": -1.485642451,
				"z": 5.2546454283,
				"element": "C" 
			},
			{
				"x": 1.5425730687,
				"y": -0.7693464809,
				"z": 4.9046974605,
				"element": "C" 
			},
			{
				"x": 1.8190624241,
				"y": -0.161700664,
				"z": 3.7942857208,
				"element": "N" 
			},
			{
				"x": 0.9295899536,
				"y": -0.1242698794,
				"z": 2.7987089884,
				"element": "N" 
			},
			{
				"x": 1.2149972825,
				"y": 0.4719426209,
				"z": 1.5649473505,
				"element": "C" 
			},
			{
				"x": 0.2173455126,
				"y": 0.4482930578,
				"z": 0.5826320858,
				"element": "C" 
			},
			{
				"x": 0.4462266314,
				"y": 1.034415591,
				"z": -0.6683292772,
				"element": "C" 
			},
			{
				"x": -0.5841259903,
				"y": 0.9764591938,
				"z": -1.613884416,
				"element": "N" 
			},
			{
				"x": -0.4649090775,
				"y": 1.5132425382,
				"z": -2.8310076355,
				"element": "N" 
			},
			{
				"x": -1.4573610493,
				"y": 1.4888998452,
				"z": -3.6635868987,
				"element": "C" 
			},
			{
				"x": -2.8207968771,
				"y": 0.8925142189,
				"z": -3.4341030646,
				"element": "C" 
			},
			{
				"x": -2.8719899711,
				"y": -0.6214000214,
				"z": -3.7248027851,
				"element": "C" 
			},
			{
				"x": -1.1721967306,
				"y": 2.09098219,
				"z": -5.0075333053,
				"element": "C" 
			},
			{
				"x": 0.0680743512,
				"y": 2.5894783869,
				"z": -5.1705539636,
				"element": "O" 
			},
			{
				"x": -2.0012695415,
				"y": 2.1225540521,
				"z": -5.8918348884,
				"element": "O" 
			},
			{
				"x": 1.6756916673,
				"y": 1.6488562691,
				"z": -0.9422858339,
				"element": "C" 
			},
			{
				"x": 2.6545629818,
				"y": 1.6599874458,
				"z": 0.0488134306,
				"element": "C" 
			},
			{
				"x": 2.4484867514,
				"y": 1.0820199606,
				"z": 1.2994438337,
				"element": "C" 
			},
			{
				"x": 2.615719145,
				"y": -0.6981982406,
				"z": 5.9503568198,
				"element": "C" 
			},
			{
				"x": 3.7287019304,
				"y": -0.0274032429,
				"z": 5.5973276149,
				"element": "O" 
			},
			{
				"x": 2.4886107545,
				"y": -1.206274921,
				"z": 7.0440003124,
				"element": "O" 
			},
			{
				"x": -0.4767050166,
				"y": -0.0575723121,
				"z": 6.7182926176,
				"element": "H" 
			},
			{
				"x": -1.0841419331,
				"y": 0.246203298,
				"z": 5.0849156854,
				"element": "H" 
			},
			{
				"x": -1.7344995766,
				"y": -1.1001761928,
				"z": 6.0363515268,
				"element": "H" 
			},
			{
				"x": 0.5099379206,
				"y": -2.2285781567,
				"z": 6.0168627919,
				"element": "H" 
			},
			{
				"x": -0.1096419304,
				"y": -2.0373377958,
				"z": 4.3807557227,
				"element": "H" 
			},
			{
				"x": 0.0315060646,
				"y": -0.5808020857,
				"z": 2.9129516178,
				"element": "H" 
			},
			{
				"x": -0.7389596845,
				"y": -0.0272218351,
				"z": 0.7920526742,
				"element": "H" 
			},
			{
				"x": -1.4621000814,
				"y": 0.5502584085,
				"z": -1.3390779625,
				"element": "H" 
			},
			{
				"x": -3.1536139016,
				"y": 1.096638451,
				"z": -2.4063978433,
				"element": "H" 
			},
			{
				"x": -3.5154343428,
				"y": 1.4087518083,
				"z": -4.1002696928,
				"element": "H" 
			},
			{
				"x": -3.8764437446,
				"y": -1.0135411658,
				"z": -3.5394911655,
				"element": "H" 
			},
			{
				"x": -2.167160876,
				"y": -1.1841213655,
				"z": -3.1033720611,
				"element": "H" 
			},
			{
				"x": -2.6215433779,
				"y": -0.8113998088,
				"z": -4.7717593204,
				"element": "H" 
			},
			{
				"x": 0.5448530481,
				"y": 2.4423245506,
				"z": -4.3330645458,
				"element": "H" 
			},
			{
				"x": 1.8518913757,
				"y": 2.103395266,
				"z": -1.9077756371,
				"element": "H" 
			},
			{
				"x": 3.6088285177,
				"y": 2.1344336108,
				"z": -0.160182227,
				"element": "H" 
			},
			{
				"x": 3.2198903557,
				"y": 1.0986523415,
				"z": 2.0573868437,
				"element": "H" 
			},
			{
				"x": 3.5912122766,
				"y": 0.2894776055,
				"z": 4.6857098267,
				"element": "H" 
			}
		],
		 "valence_orbital": [ 
			{
				"type": "occ",
				"energy": -0.29325,
				"method": "rhf"
			},
			{
				"type": "occ",
				"energy": -0.27135,
				"method": "rhf"
			},
			{
				"type": "occ",
				"energy": -0.27102,
				"method": "rhf"
			},
			{
				"type": "occ",
				"energy": -0.23518,
				"method": "rhf"
			},
			{
				"type": "occ",
				"energy": -0.22029,
				"method": "rhf"
			},
			{
				"type": "unocc",
				"energy": -0.06921,
				"method": "rhf"
			},
			{
				"type": "unocc",
				"energy": -0.05872,
				"method": "rhf"
			},
			{
				"type": "unocc",
				"energy": -0.01697,
				"method": "rhf"
			},
			{
				"type": "unocc",
				"energy": 0.01347,
				"method": "rhf"
			},
			{
				"type": "unocc",
				"energy": 0.03975,
				"method": "rhf"
			}
		],
		"cosmo_sigma_profile": { 
			"-0.025": 0.0,
			"-0.024": 0.0,
			"-0.023": 0.0,
			"-0.022": 0.0,
			"-0.021": 0.0,
			"-0.02": 0.0,
			"-0.019": 0.0,
			"-0.018": 0.0,
			"-0.017": 0.0,
			"-0.016": 0.0379703712753,
			"-0.015": 1.38535595834,
			"-0.014": 2.89895256756,
			"-0.013": 2.71070773233,
			"-0.012": 4.38400619586,
			"-0.011": 5.13321441939,
			"-0.01": 4.92561391941,
			"-0.009": 5.1435422014,
			"-0.008": 6.24210075636,
			"-0.007": 7.91816484556,
			"-0.006": 10.2341304276,
			"-0.005": 12.9851833512,
			"-0.004": 20.5818906945,
			"-0.003": 32.827753668,
			"-0.002": 37.5827760223,
			"-0.001": 32.0626215482,
			"0.0": 28.8291873439,
			"0.001": 22.1499061897,
			"0.002": 23.4550789084,
			"0.003": 15.6832775482,
			"0.004": 14.1499524646,
			"0.005": 12.9574115791,
			"0.006": 6.2354646563,
			"0.007": 4.60582249187,
			"0.008": 4.67679580291,
			"0.009": 6.9930190823,
			"0.01": 9.08064263623,
			"0.011": 9.06265055134,
			"0.012": 10.7246819635,
			"0.013": 5.35057738439,
			"0.014": 1.1234598839,
			"0.015": 0.0,
			"0.016": 0.0,
			"0.017": 0.0,
			"0.018": 0.0,
			"0.019": 0.0,
			"0.02": 0.0,
			"0.021": 0.0,
			"0.022": 0.0,
			"0.023": 0.0,
			"0.024": 0.0,
			"0.025": 0.0
		}
	}
}
