{
	 "smiles": "COC(=O)C=CN(C)C", 
	 "Tm": 317.15, 
	 "num_atms": 20, 
	 "gaussian": { 
		 "optdone": 1, 
		 "sigma_profile": "yes", 
		 "theory": "DFT", 
		 "functional": "B3LYP", 
		 "basiset": "6-31G**", 
		 "properties": { 
			 "R2extent": 2155.2547, 
			 "electric_dipole_moment_norm": 3.75755839076, 
			 "electric_quadrupole_moment_norm": 11.0984460719, 
			 "total_energy": -440.459334248, 
			 "HOMO_LUMO_gap": 0.19794, 
			 "cosmo_polarized_energy": -11.09, 
			 "cosmo_cavitation_energy": 23.8, 
			 "cosmo_dispersion_energy": -17.3, 
			 "cosmo_repulsion_energy": 1.44, 
			 "cosmo_total_nonelectrostatic_energy": 7.93, 
			 "SMD_solvation_energy": 5.97 
		},
		"coords": [
			{
				"x": 1.9835007485,
				"y": 2.884188136,
				"z": -2.5638392572,
				"element": "C" 
			},
			{
				"x": 1.3010907278,
				"y": 1.7161121658,
				"z": -2.0991186495,
				"element": "O" 
			},
			{
				"x": 1.488771126,
				"y": 1.4279018076,
				"z": -0.7777847317,
				"element": "C" 
			},
			{
				"x": 2.1885196392,
				"y": 2.1192460395,
				"z": -0.0518610494,
				"element": "O" 
			},
			{
				"x": 0.7629791218,
				"y": 0.2212357809,
				"z": -0.3985733724,
				"element": "C" 
			},
			{
				"x": 0.8563906479,
				"y": -0.208946953,
				"z": 0.8871591582,
				"element": "C" 
			},
			{
				"x": 0.2225385982,
				"y": -1.2667058967,
				"z": 1.4610233458,
				"element": "N" 
			},
			{
				"x": -0.6140492492,
				"y": -2.1382358207,
				"z": 0.6549325783,
				"element": "C" 
			},
			{
				"x": 0.6719073382,
				"y": -1.7775583864,
				"z": 2.7462326236,
				"element": "C" 
			},
			{
				"x": 1.6577258435,
				"y": 3.772952416,
				"z": -2.0158070679,
				"element": "H" 
			},
			{
				"x": 3.0655312489,
				"y": 2.7814986101,
				"z": -2.4407585894,
				"element": "H" 
			},
			{
				"x": 1.7295821587,
				"y": 2.9762956819,
				"z": -3.6208524142,
				"element": "H" 
			},
			{
				"x": 0.1866079069,
				"y": -0.2864607646,
				"z": -1.1612627588,
				"element": "H" 
			},
			{
				"x": 1.4937408657,
				"y": 0.3642787502,
				"z": 1.5565681699,
				"element": "H" 
			},
			{
				"x": -0.0236276407,
				"y": -2.780521786,
				"z": -0.015284804,
				"element": "H" 
			},
			{
				"x": -1.2104649484,
				"y": -2.7761384068,
				"z": 1.311699553,
				"element": "H" 
			},
			{
				"x": -1.2958585,
				"y": -1.5394138897,
				"z": 0.0441866699,
				"element": "H" 
			},
			{
				"x": 1.3524864931,
				"y": -2.6353793839,
				"z": 2.6393537691,
				"element": "H" 
			},
			{
				"x": -0.1863970945,
				"y": -2.0954993491,
				"z": 3.3480534895,
				"element": "H" 
			},
			{
				"x": 1.1988249686,
				"y": -0.989548751,
				"z": 3.288433337,
				"element": "H" 
			}
		],
		 "valence_orbital": [ 
			{
				"type": "occ",
				"energy": -0.33359,
				"method": "rhf"
			},
			{
				"type": "occ",
				"energy": -0.31519,
				"method": "rhf"
			},
			{
				"type": "occ",
				"energy": -0.27406,
				"method": "rhf"
			},
			{
				"type": "occ",
				"energy": -0.2467,
				"method": "rhf"
			},
			{
				"type": "occ",
				"energy": -0.20327,
				"method": "rhf"
			},
			{
				"type": "unocc",
				"energy": -0.00533,
				"method": "rhf"
			},
			{
				"type": "unocc",
				"energy": 0.07978,
				"method": "rhf"
			},
			{
				"type": "unocc",
				"energy": 0.10679,
				"method": "rhf"
			},
			{
				"type": "unocc",
				"energy": 0.11663,
				"method": "rhf"
			},
			{
				"type": "unocc",
				"energy": 0.12179,
				"method": "rhf"
			}
		],
		"cosmo_sigma_profile": { 
			"-0.025": 0.0,
			"-0.024": 0.0,
			"-0.023": 0.0,
			"-0.022": 0.0,
			"-0.021": 0.0,
			"-0.02": 0.0,
			"-0.019": 0.0,
			"-0.018": 0.0,
			"-0.017": 0.0,
			"-0.016": 0.0,
			"-0.015": 0.0,
			"-0.014": 0.0,
			"-0.013": 0.0,
			"-0.012": 0.0,
			"-0.011": 0.0,
			"-0.01": 0.0,
			"-0.009": 0.00139829243435,
			"-0.008": 1.20080505064,
			"-0.007": 2.15060816283,
			"-0.006": 7.56041976509,
			"-0.005": 18.7448006179,
			"-0.004": 21.6553087018,
			"-0.003": 27.7237660221,
			"-0.002": 25.02882534,
			"-0.001": 9.92353362401,
			"0.0": 7.49232699473,
			"0.001": 6.62063338071,
			"0.002": 7.3721373504,
			"0.003": 6.57004165771,
			"0.004": 9.73389477697,
			"0.005": 7.44317687016,
			"0.006": 4.86116576508,
			"0.007": 3.37558044852,
			"0.008": 2.84930873058,
			"0.009": 2.33048287761,
			"0.01": 2.98660907179,
			"0.011": 1.55470392867,
			"0.012": 2.36710794654,
			"0.013": 3.05083907218,
			"0.014": 4.47515712198,
			"0.015": 0.0214637394265,
			"0.016": 0.0,
			"0.017": 0.0,
			"0.018": 0.0,
			"0.019": 0.0,
			"0.02": 0.0,
			"0.021": 0.0,
			"0.022": 0.0,
			"0.023": 0.0,
			"0.024": 0.0,
			"0.025": 0.0
		}
	}
}
