{
	 "smiles": "CCN(CC)CC(=O)NC1=C(N)C=C(C=C1)C(F)(F)F", 
	 "Tm": 368.15, 
	 "num_atms": 38, 
	 "gaussian": { 
		 "optdone": 1, 
		 "sigma_profile": "yes", 
		 "theory": "DFT", 
		 "functional": "B3LYP", 
		 "basiset": "6-31G**", 
		 "properties": { 
			 "R2extent": 9428.031, 
			 "electric_dipole_moment_norm": 3.45055351792, 
			 "electric_quadrupole_moment_norm": 15.4861612387, 
			 "total_energy": -1045.25653682, 
			 "HOMO_LUMO_gap": 0.17893, 
			 "cosmo_polarized_energy": -15.05, 
			 "cosmo_cavitation_energy": 41.44, 
			 "cosmo_dispersion_energy": -28.61, 
			 "cosmo_repulsion_energy": 2.15, 
			 "cosmo_total_nonelectrostatic_energy": 14.98, 
			 "SMD_solvation_energy": 6.11 
		},
		"coords": [
			{
				"x": -0.0306114228,
				"y": 4.5172862443,
				"z": 0.3359597748,
				"element": "C" 
			},
			{
				"x": -0.0457832332,
				"y": 3.0648868966,
				"z": -0.1477208519,
				"element": "C" 
			},
			{
				"x": 0.8602881575,
				"y": 2.8180509535,
				"z": -1.2758298863,
				"element": "N" 
			},
			{
				"x": 2.2813837324,
				"y": 2.8947412327,
				"z": -0.8958979646,
				"element": "C" 
			},
			{
				"x": 3.2401498345,
				"y": 2.7957912845,
				"z": -2.0817359985,
				"element": "C" 
			},
			{
				"x": 0.4870063317,
				"y": 1.6350453161,
				"z": -2.0505503588,
				"element": "C" 
			},
			{
				"x": 0.6686105132,
				"y": 0.2959536061,
				"z": -1.3155992431,
				"element": "C" 
			},
			{
				"x": 1.791512441,
				"y": -0.1730063412,
				"z": -1.1155120316,
				"element": "O" 
			},
			{
				"x": -0.4874344156,
				"y": -0.2975994401,
				"z": -0.8832499947,
				"element": "N" 
			},
			{
				"x": -0.6557385286,
				"y": -1.452272711,
				"z": -0.0634522436,
				"element": "C" 
			},
			{
				"x": 0.0425682156,
				"y": -2.6663290801,
				"z": -0.2853554947,
				"element": "C" 
			},
			{
				"x": 0.9495327157,
				"y": -2.8095525576,
				"z": -1.3222499142,
				"element": "N" 
			},
			{
				"x": -0.2788586284,
				"y": -3.7584926583,
				"z": 0.5429255547,
				"element": "C" 
			},
			{
				"x": -1.2578020545,
				"y": -3.6710100621,
				"z": 1.5264328663,
				"element": "C" 
			},
			{
				"x": -1.9454522007,
				"y": -2.4726045871,
				"z": 1.7359229669,
				"element": "C" 
			},
			{
				"x": -1.6278630222,
				"y": -1.3784863927,
				"z": 0.9408550571,
				"element": "C" 
			},
			{
				"x": -1.6178805281,
				"y": -4.8886720025,
				"z": 2.331794496,
				"element": "C" 
			},
			{
				"x": -2.0013957395,
				"y": -4.5652706645,
				"z": 3.5875651151,
				"element": "F" 
			},
			{
				"x": -2.6474918255,
				"y": -5.5705611691,
				"z": 1.7748624437,
				"element": "F" 
			},
			{
				"x": -0.5861110677,
				"y": -5.7568451508,
				"z": 2.4340411209,
				"element": "F" 
			},
			{
				"x": 0.9153160722,
				"y": 4.7896365827,
				"z": 0.8120073267,
				"element": "H" 
			},
			{
				"x": -0.2011069394,
				"y": 5.1992786628,
				"z": -0.5023258968,
				"element": "H" 
			},
			{
				"x": -0.822290288,
				"y": 4.6707597297,
				"z": 1.0765540263,
				"element": "H" 
			},
			{
				"x": -1.0620351827,
				"y": 2.8339802141,
				"z": -0.4923664055,
				"element": "H" 
			},
			{
				"x": 0.1558347806,
				"y": 2.3906290994,
				"z": 0.7063213846,
				"element": "H" 
			},
			{
				"x": 2.5450926799,
				"y": 2.1262888893,
				"z": -0.1499309447,
				"element": "H" 
			},
			{
				"x": 2.4234955408,
				"y": 3.8677073182,
				"z": -0.4160851383,
				"element": "H" 
			},
			{
				"x": 2.9515048697,
				"y": 3.489854051,
				"z": -2.8779703289,
				"element": "H" 
			},
			{
				"x": 3.2773635276,
				"y": 1.7810741539,
				"z": -2.4860755487,
				"element": "H" 
			},
			{
				"x": 4.2525346509,
				"y": 3.0536976932,
				"z": -1.7554424345,
				"element": "H" 
			},
			{
				"x": -0.5509670673,
				"y": 1.7603920978,
				"z": -2.3826225763,
				"element": "H" 
			},
			{
				"x": 1.1094887455,
				"y": 1.5834988244,
				"z": -2.9470199598,
				"element": "H" 
			},
			{
				"x": -1.3344267731,
				"y": 0.2310200655,
				"z": -1.038705338,
				"element": "H" 
			},
			{
				"x": 1.4719306666,
				"y": -3.6749946081,
				"z": -1.2877308675,
				"element": "H" 
			},
			{
				"x": 1.5470572446,
				"y": -1.993598378,
				"z": -1.4527404392,
				"element": "H" 
			},
			{
				"x": 0.2511600396,
				"y": -4.694671625,
				"z": 0.3980488742,
				"element": "H" 
			},
			{
				"x": -2.6967855623,
				"y": -2.3941437993,
				"z": 2.5125665998,
				"element": "H" 
			},
			{
				"x": -2.1395962799,
				"y": -0.4323616881,
				"z": 1.0983122532,
				"element": "H" 
			}
		],
		 "valence_orbital": [ 
			{
				"type": "occ",
				"energy": -0.30619,
				"method": "rhf"
			},
			{
				"type": "occ",
				"energy": -0.27964,
				"method": "rhf"
			},
			{
				"type": "occ",
				"energy": -0.24939,
				"method": "rhf"
			},
			{
				"type": "occ",
				"energy": -0.21517,
				"method": "rhf"
			},
			{
				"type": "occ",
				"energy": -0.20929,
				"method": "rhf"
			},
			{
				"type": "unocc",
				"energy": -0.03036,
				"method": "rhf"
			},
			{
				"type": "unocc",
				"energy": -0.00042,
				"method": "rhf"
			},
			{
				"type": "unocc",
				"energy": 0.01128,
				"method": "rhf"
			},
			{
				"type": "unocc",
				"energy": 0.05045,
				"method": "rhf"
			},
			{
				"type": "unocc",
				"energy": 0.09472,
				"method": "rhf"
			}
		],
		"cosmo_sigma_profile": { 
			"-0.025": 0.0,
			"-0.024": 0.0,
			"-0.023": 0.0,
			"-0.022": 0.0,
			"-0.021": 0.0,
			"-0.02": 0.0,
			"-0.019": 0.0,
			"-0.018": 0.0,
			"-0.017": 0.0,
			"-0.016": 0.0,
			"-0.015": 0.559714868972,
			"-0.014": 1.3026194167,
			"-0.013": 1.158841942,
			"-0.012": 3.21249207761,
			"-0.011": 3.88467025687,
			"-0.01": 3.01708661396,
			"-0.009": 4.40777480536,
			"-0.008": 4.02564724415,
			"-0.007": 4.79335681796,
			"-0.006": 8.68117439745,
			"-0.005": 10.8075895637,
			"-0.004": 14.1515204189,
			"-0.003": 20.1824572487,
			"-0.002": 28.1766579724,
			"-0.001": 33.3662236088,
			"0.0": 30.5998448824,
			"0.001": 30.1820785478,
			"0.002": 27.2930569963,
			"0.003": 44.8055270968,
			"0.004": 19.3581658692,
			"0.005": 5.93856115677,
			"0.006": 4.55043589251,
			"0.007": 3.38724594247,
			"0.008": 2.78099898615,
			"0.009": 4.12012878544,
			"0.01": 2.64971105848,
			"0.011": 3.05349517463,
			"0.012": 3.31631721756,
			"0.013": 1.26348695107,
			"0.014": 0.911142486923,
			"0.015": 0.189050510095,
			"0.016": 0.0,
			"0.017": 0.0,
			"0.018": 0.0,
			"0.019": 0.0,
			"0.02": 0.0,
			"0.021": 0.0,
			"0.022": 0.0,
			"0.023": 0.0,
			"0.024": 0.0,
			"0.025": 0.0
		}
	}
}
