{
	 "smiles": "CC1=C(CO)C(C)=NO1", 
	 "Tm": 349.65, 
	 "num_atms": 18, 
	 "gaussian": { 
		 "optdone": 1, 
		 "sigma_profile": "yes", 
		 "theory": "DFT", 
		 "functional": "B3LYP", 
		 "basiset": "6-31G**", 
		 "properties": { 
			 "R2extent": 1418.2947, 
			 "electric_dipole_moment_norm": 4.30771166166, 
			 "electric_quadrupole_moment_norm": 8.75028516507, 
			 "total_energy": -439.2095809, 
			 "HOMO_LUMO_gap": 0.24493, 
			 "cosmo_polarized_energy": -12.57, 
			 "cosmo_cavitation_energy": 21.71, 
			 "cosmo_dispersion_energy": -15.9, 
			 "cosmo_repulsion_energy": 1.34, 
			 "cosmo_total_nonelectrostatic_energy": 7.15, 
			 "SMD_solvation_energy": 4.1 
		},
		"coords": [
			{
				"x": -0.7220994506,
				"y": 1.3618741003,
				"z": 1.722892126,
				"element": "C" 
			},
			{
				"x": -0.9651429984,
				"y": 0.8616479372,
				"z": 0.3405557954,
				"element": "C" 
			},
			{
				"x": -0.6807722657,
				"y": -0.306563077,
				"z": -0.3073515692,
				"element": "C" 
			},
			{
				"x": 0.0236181193,
				"y": -1.5234402967,
				"z": 0.192740006,
				"element": "C" 
			},
			{
				"x": 1.2480946663,
				"y": -1.6767954542,
				"z": -0.5283752099,
				"element": "O" 
			},
			{
				"x": -1.1968981807,
				"y": -0.0964615294,
				"z": -1.6293422523,
				"element": "C" 
			},
			{
				"x": -1.1552361862,
				"y": -1.042510561,
				"z": -2.7880684969,
				"element": "C" 
			},
			{
				"x": -1.7458218075,
				"y": 1.0884788903,
				"z": -1.7546139062,
				"element": "N" 
			},
			{
				"x": -1.6065212464,
				"y": 1.7021783186,
				"z": -0.4978142017,
				"element": "O" 
			},
			{
				"x": -0.1742866479,
				"y": 2.3093680128,
				"z": 1.6984196754,
				"element": "H" 
			},
			{
				"x": -0.1377145277,
				"y": 0.6390719137,
				"z": 2.2959757224,
				"element": "H" 
			},
			{
				"x": -1.6663799639,
				"y": 1.5395322319,
				"z": 2.2489064103,
				"element": "H" 
			},
			{
				"x": 0.2051544872,
				"y": -1.430746734,
				"z": 1.2746230863,
				"element": "H" 
			},
			{
				"x": -0.6193086361,
				"y": -2.407454929,
				"z": 0.052054,
				"element": "H" 
			},
			{
				"x": 1.6171116536,
				"y": -2.5401484524,
				"z": -0.3009219013,
				"element": "H" 
			},
			{
				"x": -1.758763623,
				"y": -1.9350406148,
				"z": -2.5851538039,
				"element": "H" 
			},
			{
				"x": -1.5453620173,
				"y": -0.5582604941,
				"z": -3.6853245897,
				"element": "H" 
			},
			{
				"x": -0.1281713752,
				"y": -1.373229262,
				"z": -2.9657008908,
				"element": "H" 
			}
		],
		 "valence_orbital": [ 
			{
				"type": "occ",
				"energy": -0.34533,
				"method": "rhf"
			},
			{
				"type": "occ",
				"energy": -0.29223,
				"method": "rhf"
			},
			{
				"type": "occ",
				"energy": -0.27898,
				"method": "rhf"
			},
			{
				"type": "occ",
				"energy": -0.27125,
				"method": "rhf"
			},
			{
				"type": "occ",
				"energy": -0.24435,
				"method": "rhf"
			},
			{
				"type": "unocc",
				"energy": 0.00058,
				"method": "rhf"
			},
			{
				"type": "unocc",
				"energy": 0.04274,
				"method": "rhf"
			},
			{
				"type": "unocc",
				"energy": 0.08329,
				"method": "rhf"
			},
			{
				"type": "unocc",
				"energy": 0.09602,
				"method": "rhf"
			},
			{
				"type": "unocc",
				"energy": 0.11339,
				"method": "rhf"
			}
		],
		"cosmo_sigma_profile": { 
			"-0.025": 0.0,
			"-0.024": 0.0,
			"-0.023": 0.0,
			"-0.022": 0.0,
			"-0.021": 0.0,
			"-0.02": 0.0,
			"-0.019": 0.0,
			"-0.018": 0.0,
			"-0.017": 0.0,
			"-0.016": 0.534574236313,
			"-0.015": 1.38998912598,
			"-0.014": 0.474369550197,
			"-0.013": 1.21859740708,
			"-0.012": 1.09787339098,
			"-0.011": 0.894309643683,
			"-0.01": 0.558284024115,
			"-0.009": 0.560301315167,
			"-0.008": 0.805195559157,
			"-0.007": 1.9868150684,
			"-0.006": 8.00235911073,
			"-0.005": 15.3617051569,
			"-0.004": 17.4541943922,
			"-0.003": 16.9115214843,
			"-0.002": 18.0625027649,
			"-0.001": 14.588156832,
			"0.0": 9.5747039188,
			"0.001": 7.17467537571,
			"0.002": 7.02353708075,
			"0.003": 4.93175464188,
			"0.004": 4.32661208899,
			"0.005": 3.57893744776,
			"0.006": 4.29549921585,
			"0.007": 4.29869870504,
			"0.008": 4.5644132192,
			"0.009": 6.39228202936,
			"0.01": 3.2558741576,
			"0.011": 2.81546772123,
			"0.012": 2.4184467591,
			"0.013": 2.78261576871,
			"0.014": 2.33691525677,
			"0.015": 1.16800469658,
			"0.016": 0.0373480635677,
			"0.017": 0.0,
			"0.018": 0.0,
			"0.019": 0.0,
			"0.02": 0.0,
			"0.021": 0.0,
			"0.022": 0.0,
			"0.023": 0.0,
			"0.024": 0.0,
			"0.025": 0.0
		}
	}
}
