{
	 "smiles": "CC(CO)C1=C(O)C(O)=C2C(=C1O)C(=O)C(O)=C1C(C)(C)CCCC21C", 
	 "Tm": 510.15, 
	 "num_atms": 52, 
	 "gaussian": { 
		 "optdone": 1, 
		 "sigma_profile": "yes", 
		 "theory": "DFT", 
		 "functional": "B3LYP", 
		 "basiset": "6-31G**", 
		 "properties": { 
			 "R2extent": 9998.2385, 
			 "electric_dipole_moment_norm": 2.66498615944, 
			 "electric_quadrupole_moment_norm": 11.3433528853, 
			 "total_energy": -1229.15813822, 
			 "HOMO_LUMO_gap": 0.13132, 
			 "cosmo_polarized_energy": -12.73, 
			 "cosmo_cavitation_energy": 46.85, 
			 "cosmo_dispersion_energy": -34.21, 
			 "cosmo_repulsion_energy": 2.52, 
			 "cosmo_total_nonelectrostatic_energy": 15.16, 
			 "SMD_solvation_energy": 8.75 
		},
		"coords": [
			{
				"x": 4.9428865053,
				"y": -1.306460075,
				"z": 1.1868602355,
				"element": "C" 
			},
			{
				"x": 3.5809491829,
				"y": -1.8341271082,
				"z": 1.6699775824,
				"element": "C" 
			},
			{
				"x": 3.4885289794,
				"y": -1.7595832258,
				"z": 3.2020679334,
				"element": "C" 
			},
			{
				"x": 2.3100608478,
				"y": -2.4381982087,
				"z": 3.6916275806,
				"element": "O" 
			},
			{
				"x": 2.3450559736,
				"y": -1.2408897014,
				"z": 0.9974679617,
				"element": "C" 
			},
			{
				"x": 1.2127464245,
				"y": -2.0508326484,
				"z": 0.8440937941,
				"element": "C" 
			},
			{
				"x": 1.1408036257,
				"y": -3.3123349411,
				"z": 1.3759103645,
				"element": "O" 
			},
			{
				"x": 0.0620572709,
				"y": -1.6584388206,
				"z": 0.1275698545,
				"element": "C" 
			},
			{
				"x": -0.9709762838,
				"y": -2.5565264897,
				"z": 0.0597137986,
				"element": "O" 
			},
			{
				"x": -0.0128482458,
				"y": -0.3931978413,
				"z": -0.4514886107,
				"element": "C" 
			},
			{
				"x": 1.0838193227,
				"y": 0.480441109,
				"z": -0.2221466404,
				"element": "C" 
			},
			{
				"x": 2.2401324457,
				"y": 0.0720394758,
				"z": 0.5051619925,
				"element": "C" 
			},
			{
				"x": 3.2457271005,
				"y": 0.937090892,
				"z": 0.7337416621,
				"element": "O" 
			},
			{
				"x": 1.0236362713,
				"y": 1.828622225,
				"z": -0.7302402959,
				"element": "C" 
			},
			{
				"x": 1.9319071301,
				"y": 2.6859634039,
				"z": -0.5400360688,
				"element": "O" 
			},
			{
				"x": -0.1226119485,
				"y": 2.260330645,
				"z": -1.5359273206,
				"element": "C" 
			},
			{
				"x": -0.0116659231,
				"y": 3.5552850425,
				"z": -1.9468465755,
				"element": "O" 
			},
			{
				"x": -1.1501062378,
				"y": 1.4418572338,
				"z": -1.8699128844,
				"element": "C" 
			},
			{
				"x": -2.2663823632,
				"y": 1.9269304963,
				"z": -2.8206351624,
				"element": "C" 
			},
			{
				"x": -3.0983368003,
				"y": 3.0468148484,
				"z": -2.1488892405,
				"element": "C" 
			},
			{
				"x": -1.6486728828,
				"y": 2.4975902594,
				"z": -4.1271961542,
				"element": "C" 
			},
			{
				"x": -3.1998771914,
				"y": 0.7561813105,
				"z": -3.2225421643,
				"element": "C" 
			},
			{
				"x": -2.3982596548,
				"y": -0.5119710748,
				"z": -3.5059108191,
				"element": "C" 
			},
			{
				"x": -1.685019756,
				"y": -1.0351972538,
				"z": -2.2470145473,
				"element": "C" 
			},
			{
				"x": -1.2726369577,
				"y": 0.0678216104,
				"z": -1.1992019733,
				"element": "C" 
			},
			{
				"x": -2.3791763548,
				"y": 0.2005929039,
				"z": -0.0933598385,
				"element": "C" 
			},
			{
				"x": 5.7392753566,
				"y": -1.9507566292,
				"z": 1.5753809227,
				"element": "H" 
			},
			{
				"x": 4.999471345,
				"y": -1.3228203464,
				"z": 0.0954617107,
				"element": "H" 
			},
			{
				"x": 5.1285267441,
				"y": -0.2823272064,
				"z": 1.5107106523,
				"element": "H" 
			},
			{
				"x": 3.5594271707,
				"y": -2.9049632475,
				"z": 1.42536311,
				"element": "H" 
			},
			{
				"x": 4.3474579736,
				"y": -2.267993337,
				"z": 3.652642942,
				"element": "H" 
			},
			{
				"x": 3.4934436046,
				"y": -0.7170884591,
				"z": 3.5410629938,
				"element": "H" 
			},
			{
				"x": 1.6293793152,
				"y": -1.7736305849,
				"z": 3.8564758321,
				"element": "H" 
			},
			{
				"x": 1.5876828633,
				"y": -3.2904085181,
				"z": 2.2523563231,
				"element": "H" 
			},
			{
				"x": -0.6813565153,
				"y": -3.3289500223,
				"z": 0.5737763739,
				"element": "H" 
			},
			{
				"x": 2.9847422824,
				"y": 1.7954498233,
				"z": 0.2984924417,
				"element": "H" 
			},
			{
				"x": 0.8482566107,
				"y": 3.8480685559,
				"z": -1.5806333439,
				"element": "H" 
			},
			{
				"x": -3.5763243853,
				"y": 2.6960223428,
				"z": -1.2291913979,
				"element": "H" 
			},
			{
				"x": -2.4724820896,
				"y": 3.9079453697,
				"z": -1.9047639141,
				"element": "H" 
			},
			{
				"x": -3.8895150293,
				"y": 3.3788842113,
				"z": -2.8315204881,
				"element": "H" 
			},
			{
				"x": -1.0626409878,
				"y": 1.7426339808,
				"z": -4.6597672356,
				"element": "H" 
			},
			{
				"x": -2.4557247285,
				"y": 2.8263661759,
				"z": -4.7914832218,
				"element": "H" 
			},
			{
				"x": -0.9987702589,
				"y": 3.3477673248,
				"z": -3.9272469126,
				"element": "H" 
			},
			{
				"x": -3.9431113919,
				"y": 0.5591209916,
				"z": -2.4413194425,
				"element": "H" 
			},
			{
				"x": -3.7700367968,
				"y": 1.060099169,
				"z": -4.1081365208,
				"element": "H" 
			},
			{
				"x": -3.0475904807,
				"y": -1.2991974829,
				"z": -3.9056715552,
				"element": "H" 
			},
			{
				"x": -1.6633772033,
				"y": -0.3002543741,
				"z": -4.2912795845,
				"element": "H" 
			},
			{
				"x": -0.7900248474,
				"y": -1.5881647624,
				"z": -2.5463380449,
				"element": "H" 
			},
			{
				"x": -2.3221572795,
				"y": -1.7560137914,
				"z": -1.7324538541,
				"element": "H" 
			},
			{
				"x": -2.0856154929,
				"y": 0.9580414676,
				"z": 0.6392984773,
				"element": "H" 
			},
			{
				"x": -3.3412619177,
				"y": 0.4931490961,
				"z": -0.5154829719,
				"element": "H" 
			},
			{
				"x": -2.5076143418,
				"y": -0.7566838141,
				"z": 0.4157222444,
				"element": "H" 
			}
		],
		 "valence_orbital": [ 
			{
				"type": "occ",
				"energy": -0.29101,
				"method": "rhf"
			},
			{
				"type": "occ",
				"energy": -0.26843,
				"method": "rhf"
			},
			{
				"type": "occ",
				"energy": -0.24102,
				"method": "rhf"
			},
			{
				"type": "occ",
				"energy": -0.2223,
				"method": "rhf"
			},
			{
				"type": "occ",
				"energy": -0.19725,
				"method": "rhf"
			},
			{
				"type": "unocc",
				"energy": -0.06593,
				"method": "rhf"
			},
			{
				"type": "unocc",
				"energy": -0.00404,
				"method": "rhf"
			},
			{
				"type": "unocc",
				"energy": 0.02179,
				"method": "rhf"
			},
			{
				"type": "unocc",
				"energy": 0.05184,
				"method": "rhf"
			},
			{
				"type": "unocc",
				"energy": 0.08223,
				"method": "rhf"
			}
		],
		"cosmo_sigma_profile": { 
			"-0.025": 0.0,
			"-0.024": 0.0,
			"-0.023": 0.0,
			"-0.022": 0.0,
			"-0.021": 0.0,
			"-0.02": 0.0,
			"-0.019": 0.0,
			"-0.018": 0.0,
			"-0.017": 0.269251817918,
			"-0.016": 0.931577887161,
			"-0.015": 1.15366619706,
			"-0.014": 1.30674969473,
			"-0.013": 0.416459952664,
			"-0.012": 1.52305475623,
			"-0.011": 2.53268032746,
			"-0.01": 2.84128549691,
			"-0.009": 2.02726560574,
			"-0.008": 2.29150636328,
			"-0.007": 2.87181576869,
			"-0.006": 3.88450690452,
			"-0.005": 7.59283102756,
			"-0.004": 15.8547593198,
			"-0.003": 29.3786078252,
			"-0.002": 40.6340132294,
			"-0.001": 48.4973791908,
			"0.0": 48.305449315,
			"0.001": 46.8654235571,
			"0.002": 31.6641762309,
			"0.003": 17.1329488884,
			"0.004": 10.6979302451,
			"0.005": 11.5119931471,
			"0.006": 9.63500692112,
			"0.007": 7.61011492836,
			"0.008": 8.66203780534,
			"0.009": 4.57344217743,
			"0.01": 2.30838317934,
			"0.011": 1.00123352684,
			"0.012": 0.803471731806,
			"0.013": 0.500654594133,
			"0.014": 0.0,
			"0.015": 0.0,
			"0.016": 0.0,
			"0.017": 0.0,
			"0.018": 0.0,
			"0.019": 0.0,
			"0.02": 0.0,
			"0.021": 0.0,
			"0.022": 0.0,
			"0.023": 0.0,
			"0.024": 0.0,
			"0.025": 0.0
		}
	}
}
