{
	 "smiles": "NC1=CC=C(C=C1)S(=O)(=O)CCO", 
	 "Tm": 380.15, 
	 "num_atms": 24, 
	 "gaussian": { 
		 "optdone": 1, 
		 "sigma_profile": "yes", 
		 "theory": "DFT", 
		 "functional": "B3LYP", 
		 "basiset": "6-31G**", 
		 "properties": { 
			 "R2extent": 3412.4542, 
			 "electric_dipole_moment_norm": 5.08204209939, 
			 "electric_quadrupole_moment_norm": 28.5682164218, 
			 "total_energy": -990.020103153, 
			 "HOMO_LUMO_gap": 0.20309, 
			 "cosmo_polarized_energy": -23.17, 
			 "cosmo_cavitation_energy": 29.12, 
			 "cosmo_dispersion_energy": -21.45, 
			 "cosmo_repulsion_energy": 1.68, 
			 "cosmo_total_nonelectrostatic_energy": 9.35, 
			 "SMD_solvation_energy": 4.19 
		},
		"coords": [
			{
				"x": 0.1679522167,
				"y": -3.8278009637,
				"z": 0.4073238614,
				"element": "N" 
			},
			{
				"x": 0.0790820074,
				"y": -2.4600398653,
				"z": 0.5929687354,
				"element": "C" 
			},
			{
				"x": 1.1121474585,
				"y": -1.7551285089,
				"z": 1.2430544402,
				"element": "C" 
			},
			{
				"x": 1.0457303133,
				"y": -0.3753042274,
				"z": 1.3845423187,
				"element": "C" 
			},
			{
				"x": -0.0535336954,
				"y": 0.3241554958,
				"z": 0.8764246252,
				"element": "C" 
			},
			{
				"x": -1.0948427216,
				"y": -0.3611200712,
				"z": 0.2411281272,
				"element": "C" 
			},
			{
				"x": -1.0278434578,
				"y": -1.7397495936,
				"z": 0.0978596961,
				"element": "C" 
			},
			{
				"x": -0.1461652535,
				"y": 2.0984280643,
				"z": 1.0656855156,
				"element": "S" 
			},
			{
				"x": 0.7903168132,
				"y": 2.4918170621,
				"z": 2.1353379447,
				"element": "O" 
			},
			{
				"x": -1.5678842991,
				"y": 2.4791236941,
				"z": 1.120442931,
				"element": "O" 
			},
			{
				"x": 0.5109926216,
				"y": 2.7752429524,
				"z": -0.4927254688,
				"element": "C" 
			},
			{
				"x": 2.0131638158,
				"y": 2.548524277,
				"z": -0.6898200147,
				"element": "C" 
			},
			{
				"x": 2.4544868806,
				"y": 3.091260985,
				"z": -1.9251483486,
				"element": "O" 
			},
			{
				"x": 0.7969192451,
				"y": -4.3313793563,
				"z": 1.0151803086,
				"element": "H" 
			},
			{
				"x": -0.6928194837,
				"y": -4.3203476512,
				"z": 0.2198844732,
				"element": "H" 
			},
			{
				"x": 1.9641799598,
				"y": -2.3000634455,
				"z": 1.6407637606,
				"element": "H" 
			},
			{
				"x": 1.8278233464,
				"y": 0.1649174779,
				"z": 1.9074916444,
				"element": "H" 
			},
			{
				"x": -1.9615256956,
				"y": 0.1864981076,
				"z": -0.1145494853,
				"element": "H" 
			},
			{
				"x": -1.8371549592,
				"y": -2.2735367098,
				"z": -0.3932561802,
				"element": "H" 
			},
			{
				"x": 0.2728550748,
				"y": 3.8429420831,
				"z": -0.4275366081,
				"element": "H" 
			},
			{
				"x": -0.0704760264,
				"y": 2.3405182983,
				"z": -1.309774123,
				"element": "H" 
			},
			{
				"x": 2.2259547948,
				"y": 1.4766281483,
				"z": -0.7378394546,
				"element": "H" 
			},
			{
				"x": 2.5622479052,
				"y": 2.9605215533,
				"z": 0.1663447606,
				"element": "H" 
			},
			{
				"x": 2.4484931391,
				"y": 4.0540921936,
				"z": -1.8475834597,
				"element": "H" 
			}
		],
		 "valence_orbital": [ 
			{
				"type": "occ",
				"energy": -0.2925,
				"method": "rhf"
			},
			{
				"type": "occ",
				"energy": -0.2876,
				"method": "rhf"
			},
			{
				"type": "occ",
				"energy": -0.26886,
				"method": "rhf"
			},
			{
				"type": "occ",
				"energy": -0.26614,
				"method": "rhf"
			},
			{
				"type": "occ",
				"energy": -0.22576,
				"method": "rhf"
			},
			{
				"type": "unocc",
				"energy": -0.02267,
				"method": "rhf"
			},
			{
				"type": "unocc",
				"energy": -0.01846,
				"method": "rhf"
			},
			{
				"type": "unocc",
				"energy": 0.05602,
				"method": "rhf"
			},
			{
				"type": "unocc",
				"energy": 0.06277,
				"method": "rhf"
			},
			{
				"type": "unocc",
				"energy": 0.08465,
				"method": "rhf"
			}
		],
		"cosmo_sigma_profile": { 
			"-0.025": 0.0,
			"-0.024": 0.0,
			"-0.023": 0.0,
			"-0.022": 0.0,
			"-0.021": 0.0,
			"-0.02": 0.0,
			"-0.019": 0.0,
			"-0.018": 0.0,
			"-0.017": 0.131703587757,
			"-0.016": 0.944797826105,
			"-0.015": 1.42597665827,
			"-0.014": 0.856776766566,
			"-0.013": 4.06752670978,
			"-0.012": 3.9439494628,
			"-0.011": 4.52774727362,
			"-0.01": 4.43158854025,
			"-0.009": 4.97629232987,
			"-0.008": 6.61162496795,
			"-0.007": 9.61744943416,
			"-0.006": 12.062093079,
			"-0.005": 13.8685206719,
			"-0.004": 14.71564461,
			"-0.003": 13.7614772381,
			"-0.002": 10.9997717398,
			"-0.001": 8.25826343586,
			"0.0": 8.69595379558,
			"0.001": 10.0556808951,
			"0.002": 10.0130541284,
			"0.003": 12.8123550864,
			"0.004": 16.1528811702,
			"0.005": 6.13671916138,
			"0.006": 4.30437257314,
			"0.007": 4.48844302725,
			"0.008": 4.34420141434,
			"0.009": 4.63637508859,
			"0.01": 5.48463020301,
			"0.011": 10.1499211033,
			"0.012": 10.8048953668,
			"0.013": 5.07948827759,
			"0.014": 1.42375090924,
			"0.015": 0.0,
			"0.016": 0.0,
			"0.017": 0.0,
			"0.018": 0.0,
			"0.019": 0.0,
			"0.02": 0.0,
			"0.021": 0.0,
			"0.022": 0.0,
			"0.023": 0.0,
			"0.024": 0.0,
			"0.025": 0.0
		}
	}
}
