{
	 "smiles": "OC(=O)C1=NC2=C(C=CC=C2)N=C1", 
	 "Tm": 479.15, 
	 "num_atms": 19, 
	 "gaussian": { 
		 "optdone": 1, 
		 "sigma_profile": "yes", 
		 "theory": "DFT", 
		 "functional": "B3LYP", 
		 "basiset": "6-31G**", 
		 "properties": { 
			 "R2extent": 2576.559, 
			 "electric_dipole_moment_norm": 5.82255150342, 
			 "electric_quadrupole_moment_norm": 7.7967650048, 
			 "total_energy": -606.537198035, 
			 "HOMO_LUMO_gap": 0.16373, 
			 "cosmo_polarized_energy": -11.6, 
			 "cosmo_cavitation_energy": 24.18, 
			 "cosmo_dispersion_energy": -18.26, 
			 "cosmo_repulsion_energy": 1.42, 
			 "cosmo_total_nonelectrostatic_energy": 7.34, 
			 "SMD_solvation_energy": 2.93 
		},
		"coords": [
			{
				"x": 0.9371517188,
				"y": 2.7745265667,
				"z": -2.1771886641,
				"element": "O" 
			},
			{
				"x": 0.4997050325,
				"y": 1.5372983667,
				"z": -2.4549391089,
				"element": "C" 
			},
			{
				"x": 0.1740786551,
				"y": 1.1786605152,
				"z": -3.5636024311,
				"element": "O" 
			},
			{
				"x": 0.4513141402,
				"y": 0.6254917178,
				"z": -1.2553405836,
				"element": "C" 
			},
			{
				"x": 0.8341087875,
				"y": 1.1387076528,
				"z": -0.101223845,
				"element": "N" 
			},
			{
				"x": 0.7935861307,
				"y": 0.3225683579,
				"z": 0.9871288978,
				"element": "C" 
			},
			{
				"x": 0.3490216764,
				"y": -1.0329667409,
				"z": 0.8531780471,
				"element": "C" 
			},
			{
				"x": 0.3150883228,
				"y": -1.8649566842,
				"z": 2.0006612672,
				"element": "C" 
			},
			{
				"x": 0.7066917675,
				"y": -1.365853723,
				"z": 3.222973449,
				"element": "C" 
			},
			{
				"x": 1.1466498135,
				"y": -0.0224348713,
				"z": 3.3523612957,
				"element": "C" 
			},
			{
				"x": 1.1912733701,
				"y": 0.8109068113,
				"z": 2.257749641,
				"element": "C" 
			},
			{
				"x": -0.0411351696,
				"y": -1.5368864461,
				"z": -0.3538392816,
				"element": "N" 
			},
			{
				"x": 0.0107281155,
				"y": -0.7202446917,
				"z": -1.3843170303,
				"element": "C" 
			},
			{
				"x": 1.1296857638,
				"y": 2.7940460761,
				"z": -1.2175466387,
				"element": "H" 
			},
			{
				"x": -0.0249571019,
				"y": -2.8876215418,
				"z": 1.8759766017,
				"element": "H" 
			},
			{
				"x": 0.6808000824,
				"y": -2.0027196235,
				"z": 4.1020081039,
				"element": "H" 
			},
			{
				"x": 1.4500055051,
				"y": 0.3464435167,
				"z": 4.327421239,
				"element": "H" 
			},
			{
				"x": 1.5237755794,
				"y": 1.8412740547,
				"z": 2.3314801846,
				"element": "H" 
			},
			{
				"x": -0.2929721898,
				"y": -1.0899393134,
				"z": -2.3596411437,
				"element": "H" 
			}
		],
		 "valence_orbital": [ 
			{
				"type": "occ",
				"energy": -0.31771,
				"method": "rhf"
			},
			{
				"type": "occ",
				"energy": -0.29156,
				"method": "rhf"
			},
			{
				"type": "occ",
				"energy": -0.27933,
				"method": "rhf"
			},
			{
				"type": "occ",
				"energy": -0.26631,
				"method": "rhf"
			},
			{
				"type": "occ",
				"energy": -0.26405,
				"method": "rhf"
			},
			{
				"type": "unocc",
				"energy": -0.10032,
				"method": "rhf"
			},
			{
				"type": "unocc",
				"energy": -0.05732,
				"method": "rhf"
			},
			{
				"type": "unocc",
				"energy": -0.01298,
				"method": "rhf"
			},
			{
				"type": "unocc",
				"energy": 0.01717,
				"method": "rhf"
			},
			{
				"type": "unocc",
				"energy": 0.07969,
				"method": "rhf"
			}
		],
		"cosmo_sigma_profile": { 
			"-0.025": 0.0,
			"-0.024": 0.0,
			"-0.023": 0.0,
			"-0.022": 0.0,
			"-0.021": 0.0,
			"-0.02": 0.0,
			"-0.019": 0.0,
			"-0.018": 0.0,
			"-0.017": 0.0,
			"-0.016": 0.0,
			"-0.015": 0.0,
			"-0.014": 0.130671654137,
			"-0.013": 0.721144329035,
			"-0.012": 0.60448047378,
			"-0.011": 0.193671600811,
			"-0.01": 0.966036503203,
			"-0.009": 1.01283494452,
			"-0.008": 1.8181924928,
			"-0.007": 10.0407593171,
			"-0.006": 13.9089529749,
			"-0.005": 14.4931446764,
			"-0.004": 13.9975841456,
			"-0.003": 15.6288990646,
			"-0.002": 11.0105066694,
			"-0.001": 13.3044775208,
			"0.0": 15.4155538565,
			"0.001": 17.456046615,
			"0.002": 16.8167264334,
			"0.003": 8.03847749011,
			"0.004": 3.73428928906,
			"0.005": 3.25400632694,
			"0.006": 3.45849169432,
			"0.007": 3.79653810437,
			"0.008": 3.69919064451,
			"0.009": 5.38667954173,
			"0.01": 6.17992474458,
			"0.011": 5.74608084688,
			"0.012": 3.27072050629,
			"0.013": 1.01558126718,
			"0.014": 0.542326071334,
			"0.015": 0.0277614199192,
			"0.016": 0.0,
			"0.017": 0.0,
			"0.018": 0.0,
			"0.019": 0.0,
			"0.02": 0.0,
			"0.021": 0.0,
			"0.022": 0.0,
			"0.023": 0.0,
			"0.024": 0.0,
			"0.025": 0.0
		}
	}
}
