{
	 "smiles": "O=S(=O)(NCC#C)C1=CC=CC=C1", 
	 "Tm": 334.15, 
	 "num_atms": 22, 
	 "gaussian": { 
		 "optdone": 1, 
		 "sigma_profile": "yes", 
		 "theory": "DFT", 
		 "functional": "B3LYP", 
		 "basiset": "6-31G**", 
		 "properties": { 
			 "R2extent": 3045.6587, 
			 "electric_dipole_moment_norm": 4.18413195299, 
			 "electric_quadrupole_moment_norm": 12.1060490318, 
			 "total_energy": -951.615533041, 
			 "HOMO_LUMO_gap": 0.22261, 
			 "cosmo_polarized_energy": -14.46, 
			 "cosmo_cavitation_energy": 28.91, 
			 "cosmo_dispersion_energy": -20.48, 
			 "cosmo_repulsion_energy": 1.58, 
			 "cosmo_total_nonelectrostatic_energy": 10.01, 
			 "SMD_solvation_energy": 5.01 
		},
		"coords": [
			{
				"x": -0.9577798855,
				"y": 1.297262913,
				"z": -1.1414819609,
				"element": "O" 
			},
			{
				"x": -0.3189509844,
				"y": 0.986813907,
				"z": 0.1401187641,
				"element": "S" 
			},
			{
				"x": -0.281549215,
				"y": 1.9670443932,
				"z": 1.2337677488,
				"element": "O" 
			},
			{
				"x": 1.2531557352,
				"y": 0.5033993227,
				"z": -0.2773241578,
				"element": "N" 
			},
			{
				"x": 2.2751352448,
				"y": 0.5956191081,
				"z": 0.7870200389,
				"element": "C" 
			},
			{
				"x": 3.583570904,
				"y": 0.2148744872,
				"z": 0.2617491401,
				"element": "C" 
			},
			{
				"x": 4.6686060048,
				"y": -0.0745435884,
				"z": -0.1796801113,
				"element": "C" 
			},
			{
				"x": -1.0141865781,
				"y": -0.5277223281,
				"z": 0.8012134047,
				"element": "C" 
			},
			{
				"x": -1.304578624,
				"y": -1.579510674,
				"z": -0.0721633025,
				"element": "C" 
			},
			{
				"x": -1.8603116752,
				"y": -2.7478504712,
				"z": 0.4441002597,
				"element": "C" 
			},
			{
				"x": -2.1222177721,
				"y": -2.8552908852,
				"z": 1.8139155577,
				"element": "C" 
			},
			{
				"x": -1.8338262444,
				"y": -1.7939070896,
				"z": 2.6727954932,
				"element": "C" 
			},
			{
				"x": -1.2765878901,
				"y": -0.6166608906,
				"z": 2.1684370002,
				"element": "C" 
			},
			{
				"x": 1.5106302042,
				"y": 1.0071544904,
				"z": -1.1243097701,
				"element": "H" 
			},
			{
				"x": 2.320052304,
				"y": 1.6010234844,
				"z": 1.2271138096,
				"element": "H" 
			},
			{
				"x": 1.9831428627,
				"y": -0.0922998233,
				"z": 1.5896412167,
				"element": "H" 
			},
			{
				"x": 5.6265280566,
				"y": -0.3382227665,
				"z": -0.5648594469,
				"element": "H" 
			},
			{
				"x": -1.1040340746,
				"y": -1.4756513588,
				"z": -1.1329085045,
				"element": "H" 
			},
			{
				"x": -2.0927844174,
				"y": -3.5735473288,
				"z": -0.2214203636,
				"element": "H" 
			},
			{
				"x": -2.5567184985,
				"y": -3.7684807716,
				"z": 2.2099291521,
				"element": "H" 
			},
			{
				"x": -2.0453354626,
				"y": -1.877413814,
				"z": 3.7344377502,
				"element": "H" 
			},
			{
				"x": -1.0571599943,
				"y": 0.2282096841,
				"z": 2.8117082815,
				"element": "H" 
			}
		],
		 "valence_orbital": [ 
			{
				"type": "occ",
				"energy": -0.29415,
				"method": "rhf"
			},
			{
				"type": "occ",
				"energy": -0.28334,
				"method": "rhf"
			},
			{
				"type": "occ",
				"energy": -0.27713,
				"method": "rhf"
			},
			{
				"type": "occ",
				"energy": -0.2733,
				"method": "rhf"
			},
			{
				"type": "occ",
				"energy": -0.26452,
				"method": "rhf"
			},
			{
				"type": "unocc",
				"energy": -0.04191,
				"method": "rhf"
			},
			{
				"type": "unocc",
				"energy": -0.02268,
				"method": "rhf"
			},
			{
				"type": "unocc",
				"energy": 0.02124,
				"method": "rhf"
			},
			{
				"type": "unocc",
				"energy": 0.04238,
				"method": "rhf"
			},
			{
				"type": "unocc",
				"energy": 0.06538,
				"method": "rhf"
			}
		],
		"cosmo_sigma_profile": { 
			"-0.025": 0.0,
			"-0.024": 0.0,
			"-0.023": 0.0,
			"-0.022": 0.0,
			"-0.021": 0.0,
			"-0.02": 0.0,
			"-0.019": 0.0,
			"-0.018": 0.0,
			"-0.017": 0.0,
			"-0.016": 0.0,
			"-0.015": 0.445795270708,
			"-0.014": 0.746048032506,
			"-0.013": 1.58293847283,
			"-0.012": 1.89295745549,
			"-0.011": 1.81037360623,
			"-0.01": 1.85491453091,
			"-0.009": 2.052168947,
			"-0.008": 3.60451488264,
			"-0.007": 12.8606264484,
			"-0.006": 17.6330183769,
			"-0.005": 17.3832455847,
			"-0.004": 13.0920354568,
			"-0.003": 11.0951484271,
			"-0.002": 11.5935493229,
			"-0.001": 11.2486126376,
			"0.0": 13.2681375966,
			"0.001": 14.0530542608,
			"0.002": 16.5845241375,
			"0.003": 18.6822649513,
			"0.004": 9.78595330462,
			"0.005": 9.62349406339,
			"0.006": 10.9707958384,
			"0.007": 4.69473311453,
			"0.008": 3.89326434763,
			"0.009": 4.15442702892,
			"0.01": 7.88474537353,
			"0.011": 8.10327794401,
			"0.012": 1.94341457316,
			"0.013": 0.0,
			"0.014": 0.0,
			"0.015": 0.0,
			"0.016": 0.0,
			"0.017": 0.0,
			"0.018": 0.0,
			"0.019": 0.0,
			"0.02": 0.0,
			"0.021": 0.0,
			"0.022": 0.0,
			"0.023": 0.0,
			"0.024": 0.0,
			"0.025": 0.0
		}
	}
}
