{
	 "smiles": "ClP(C1=CC=CC=C1)C1=CC=CC=C1", 
	 "Tm": 288.15, 
	 "num_atms": 24, 
	 "gaussian": { 
		 "optdone": 1, 
		 "sigma_profile": "yes", 
		 "theory": "DFT", 
		 "functional": "B3LYP", 
		 "basiset": "6-31G**", 
		 "properties": { 
			 "R2extent": 3935.7581, 
			 "electric_dipole_moment_norm": 3.24348499765, 
			 "electric_quadrupole_moment_norm": 15.162890975, 
			 "total_energy": -1264.86826288, 
			 "HOMO_LUMO_gap": 0.17943, 
			 "cosmo_polarized_energy": -7.18, 
			 "cosmo_cavitation_energy": 30.82, 
			 "cosmo_dispersion_energy": -22.8, 
			 "cosmo_repulsion_energy": 1.93, 
			 "cosmo_total_nonelectrostatic_energy": 9.95, 
			 "SMD_solvation_energy": 4.82 
		},
		"coords": [
			{
				"x": -2.7828314157,
				"y": -0.3086392498,
				"z": 1.3990830094,
				"element": "Cl" 
			},
			{
				"x": -1.7933517007,
				"y": -0.4751600958,
				"z": -0.4830726875,
				"element": "P" 
			},
			{
				"x": -0.418808543,
				"y": 0.7422660984,
				"z": -0.2562943707,
				"element": "C" 
			},
			{
				"x": -0.5863350561,
				"y": 1.9345770913,
				"z": 0.4638320971,
				"element": "C" 
			},
			{
				"x": 0.4212822911,
				"y": 2.899875834,
				"z": 0.4774602678,
				"element": "C" 
			},
			{
				"x": 1.6028951771,
				"y": 2.6968807116,
				"z": -0.2372324596,
				"element": "C" 
			},
			{
				"x": 1.7736563574,
				"y": 1.5195592775,
				"z": -0.9674504376,
				"element": "C" 
			},
			{
				"x": 0.7715080636,
				"y": 0.5491766572,
				"z": -0.9789769343,
				"element": "C" 
			},
			{
				"x": -0.9050592049,
				"y": -2.0753114159,
				"z": -0.2718897659,
				"element": "C" 
			},
			{
				"x": -1.2451047585,
				"y": -3.1057309094,
				"z": -1.1610205186,
				"element": "C" 
			},
			{
				"x": -0.6227487323,
				"y": -4.3533866524,
				"z": -1.0712857483,
				"element": "C" 
			},
			{
				"x": 0.3368993516,
				"y": -4.5809668651,
				"z": -0.0855310835,
				"element": "C" 
			},
			{
				"x": 0.6777039238,
				"y": -3.5615121139,
				"z": 0.81024238,
				"element": "C" 
			},
			{
				"x": 0.0633350051,
				"y": -2.3152034382,
				"z": 0.717720854,
				"element": "C" 
			},
			{
				"x": -1.4975314721,
				"y": 2.1021716337,
				"z": 1.02844602,
				"element": "H" 
			},
			{
				"x": 0.2810041677,
				"y": 3.8120097917,
				"z": 1.0505749508,
				"element": "H" 
			},
			{
				"x": 2.3852074433,
				"y": 3.4502166514,
				"z": -0.2249338603,
				"element": "H" 
			},
			{
				"x": 2.6908853897,
				"y": 1.3505521591,
				"z": -1.5244877495,
				"element": "H" 
			},
			{
				"x": 0.9240075571,
				"y": -0.3654816539,
				"z": -1.5446163835,
				"element": "H" 
			},
			{
				"x": -1.9986726155,
				"y": -2.9296695325,
				"z": -1.9242564235,
				"element": "H" 
			},
			{
				"x": -0.8904241288,
				"y": -5.1436217092,
				"z": -1.7665812384,
				"element": "H" 
			},
			{
				"x": 0.8196094953,
				"y": -5.5513203517,
				"z": -0.0110733935,
				"element": "H" 
			},
			{
				"x": 1.4229219979,
				"y": -3.7412349427,
				"z": 1.5798868434,
				"element": "H" 
			},
			{
				"x": 0.3299514069,
				"y": -1.5251469751,
				"z": 1.4129566323,
				"element": "H" 
			}
		],
		 "valence_orbital": [ 
			{
				"type": "occ",
				"energy": -0.27421,
				"method": "rhf"
			},
			{
				"type": "occ",
				"energy": -0.26436,
				"method": "rhf"
			},
			{
				"type": "occ",
				"energy": -0.26023,
				"method": "rhf"
			},
			{
				"type": "occ",
				"energy": -0.25582,
				"method": "rhf"
			},
			{
				"type": "occ",
				"energy": -0.23323,
				"method": "rhf"
			},
			{
				"type": "unocc",
				"energy": -0.0538,
				"method": "rhf"
			},
			{
				"type": "unocc",
				"energy": -0.02017,
				"method": "rhf"
			},
			{
				"type": "unocc",
				"energy": -0.01673,
				"method": "rhf"
			},
			{
				"type": "unocc",
				"energy": -0.00688,
				"method": "rhf"
			},
			{
				"type": "unocc",
				"energy": 0.01278,
				"method": "rhf"
			}
		],
		"cosmo_sigma_profile": { 
			"-0.025": 0.0,
			"-0.024": 0.0,
			"-0.023": 0.0,
			"-0.022": 0.0,
			"-0.021": 0.0,
			"-0.02": 0.0,
			"-0.019": 0.0,
			"-0.018": 0.0,
			"-0.017": 0.0,
			"-0.016": 0.0,
			"-0.015": 0.0,
			"-0.014": 0.0,
			"-0.013": 0.0,
			"-0.012": 0.0,
			"-0.011": 0.0,
			"-0.01": 0.0,
			"-0.009": 0.0,
			"-0.008": 0.00315010920985,
			"-0.007": 1.99050486133,
			"-0.006": 16.6549974135,
			"-0.005": 22.3330800604,
			"-0.004": 23.3991794802,
			"-0.003": 18.3922189505,
			"-0.002": 17.3442891775,
			"-0.001": 13.6358679087,
			"0.0": 16.0397096283,
			"0.001": 16.824262271,
			"0.002": 20.5884580663,
			"0.003": 23.6461364723,
			"0.004": 28.517979056,
			"0.005": 18.1503502153,
			"0.006": 9.24001687694,
			"0.007": 2.78935421724,
			"0.008": 0.803204922468,
			"0.009": 0.543010634759,
			"0.01": 0.192969289128,
			"0.011": 0.0,
			"0.012": 0.0,
			"0.013": 0.0,
			"0.014": 0.0,
			"0.015": 0.0,
			"0.016": 0.0,
			"0.017": 0.0,
			"0.018": 0.0,
			"0.019": 0.0,
			"0.02": 0.0,
			"0.021": 0.0,
			"0.022": 0.0,
			"0.023": 0.0,
			"0.024": 0.0,
			"0.025": 0.0
		}
	}
}
