{
	 "smiles": "CC(C)C1=CC=C(OCC(O)=O)C=C1", 
	 "Tm": 359.15, 
	 "num_atms": 28, 
	 "gaussian": { 
		 "optdone": 1, 
		 "sigma_profile": "yes", 
		 "theory": "DFT", 
		 "functional": "B3LYP", 
		 "basiset": "6-31G**", 
		 "properties": { 
			 "R2extent": 5276.4728, 
			 "electric_dipole_moment_norm": 4.89200941127, 
			 "electric_quadrupole_moment_norm": 25.1236943117, 
			 "total_energy": -653.290206229, 
			 "HOMO_LUMO_gap": 0.21652, 
			 "cosmo_polarized_energy": -12.35, 
			 "cosmo_cavitation_energy": 31.58, 
			 "cosmo_dispersion_energy": -22.64, 
			 "cosmo_repulsion_energy": 1.81, 
			 "cosmo_total_nonelectrostatic_energy": 10.75, 
			 "SMD_solvation_energy": 7.08 
		},
		"coords": [
			{
				"x": 3.5550175409,
				"y": 0.9389428315,
				"z": -1.4142734018,
				"element": "C" 
			},
			{
				"x": 3.0147975598,
				"y": 0.5286155509,
				"z": -0.0312416257,
				"element": "C" 
			},
			{
				"x": 2.9800739898,
				"y": 1.7332559377,
				"z": 0.9283079198,
				"element": "C" 
			},
			{
				"x": 1.6585741752,
				"y": -0.1564480223,
				"z": -0.1317971294,
				"element": "C" 
			},
			{
				"x": 1.4896005815,
				"y": -1.481254505,
				"z": 0.2771498166,
				"element": "C" 
			},
			{
				"x": 0.2540033032,
				"y": -2.1327471463,
				"z": 0.194818629,
				"element": "C" 
			},
			{
				"x": -0.8465461291,
				"y": -1.4410524198,
				"z": -0.3111041079,
				"element": "C" 
			},
			{
				"x": -2.107682391,
				"y": -1.9824374866,
				"z": -0.4373100708,
				"element": "O" 
			},
			{
				"x": -2.3312053047,
				"y": -3.3260960108,
				"z": -0.0350850129,
				"element": "C" 
			},
			{
				"x": -3.8003623885,
				"y": -3.6774190792,
				"z": -0.2780351626,
				"element": "C" 
			},
			{
				"x": -4.5513221821,
				"y": -2.6937751417,
				"z": -0.7989360161,
				"element": "O" 
			},
			{
				"x": -4.2351763728,
				"y": -4.7698498262,
				"z": -0.0129670737,
				"element": "O" 
			},
			{
				"x": -0.7058495136,
				"y": -0.1123851956,
				"z": -0.728238877,
				"element": "C" 
			},
			{
				"x": 0.5310321761,
				"y": 0.5138719586,
				"z": -0.6369696463,
				"element": "C" 
			},
			{
				"x": 4.5555412092,
				"y": 1.3758799739,
				"z": -1.3247429515,
				"element": "H" 
			},
			{
				"x": 2.9087848114,
				"y": 1.6863202139,
				"z": -1.8879909623,
				"element": "H" 
			},
			{
				"x": 3.6172985716,
				"y": 0.0781421538,
				"z": -2.0871741896,
				"element": "H" 
			},
			{
				"x": 3.7134010843,
				"y": -0.206640286,
				"z": 0.3895473788,
				"element": "H" 
			},
			{
				"x": 2.632955972,
				"y": 1.4380382846,
				"z": 1.9232973313,
				"element": "H" 
			},
			{
				"x": 3.9773255553,
				"y": 2.1746990308,
				"z": 1.0312668669,
				"element": "H" 
			},
			{
				"x": 2.3081223153,
				"y": 2.5162519324,
				"z": 0.5595476231,
				"element": "H" 
			},
			{
				"x": 2.3410861617,
				"y": -2.0293475507,
				"z": 0.6729412091,
				"element": "H" 
			},
			{
				"x": 0.1704063673,
				"y": -3.1618230956,
				"z": 0.5242581393,
				"element": "H" 
			},
			{
				"x": -2.1158667811,
				"y": -3.4690202662,
				"z": 1.0311835529,
				"element": "H" 
			},
			{
				"x": -1.7114697674,
				"y": -4.0270666123,
				"z": -0.6080649551,
				"element": "H" 
			},
			{
				"x": -3.9782589731,
				"y": -1.9157092068,
				"z": -0.9226561069,
				"element": "H" 
			},
			{
				"x": -1.5726930627,
				"y": 0.4109120238,
				"z": -1.119370043,
				"element": "H" 
			},
			{
				"x": 0.6175114916,
				"y": 1.5456419594,
				"z": -0.9665611346,
				"element": "H" 
			}
		],
		 "valence_orbital": [ 
			{
				"type": "occ",
				"energy": -0.32968,
				"method": "rhf"
			},
			{
				"type": "occ",
				"energy": -0.31197,
				"method": "rhf"
			},
			{
				"type": "occ",
				"energy": -0.27524,
				"method": "rhf"
			},
			{
				"type": "occ",
				"energy": -0.2624,
				"method": "rhf"
			},
			{
				"type": "occ",
				"energy": -0.23151,
				"method": "rhf"
			},
			{
				"type": "unocc",
				"energy": -0.01499,
				"method": "rhf"
			},
			{
				"type": "unocc",
				"energy": -0.00164,
				"method": "rhf"
			},
			{
				"type": "unocc",
				"energy": 0.01086,
				"method": "rhf"
			},
			{
				"type": "unocc",
				"energy": 0.07393,
				"method": "rhf"
			},
			{
				"type": "unocc",
				"energy": 0.08231,
				"method": "rhf"
			}
		],
		"cosmo_sigma_profile": { 
			"-0.025": 0.0,
			"-0.024": 0.0,
			"-0.023": 0.0,
			"-0.022": 0.0,
			"-0.021": 0.0,
			"-0.02": 0.0,
			"-0.019": 0.0,
			"-0.018": 0.0,
			"-0.017": 0.0,
			"-0.016": 0.0,
			"-0.015": 0.243407699324,
			"-0.014": 0.542222254586,
			"-0.013": 0.429844217313,
			"-0.012": 0.876363093875,
			"-0.011": 0.685401024596,
			"-0.01": 0.540415728036,
			"-0.009": 1.07730131301,
			"-0.008": 8.64151487127,
			"-0.007": 9.26883717349,
			"-0.006": 9.25999829998,
			"-0.005": 13.0846207643,
			"-0.004": 14.3595495656,
			"-0.003": 19.8281247857,
			"-0.002": 21.6555076308,
			"-0.001": 22.1606197773,
			"0.0": 20.6256732037,
			"0.001": 23.71288266,
			"0.002": 15.9150794984,
			"0.003": 12.1411854965,
			"0.004": 10.1907453939,
			"0.005": 11.3508455054,
			"0.006": 6.97722481118,
			"0.007": 2.30604988318,
			"0.008": 2.81571001974,
			"0.009": 4.61405449278,
			"0.01": 4.47210782573,
			"0.011": 4.60798200174,
			"0.012": 5.19641448015,
			"0.013": 1.22778489146,
			"0.014": 0.0,
			"0.015": 0.0,
			"0.016": 0.0,
			"0.017": 0.0,
			"0.018": 0.0,
			"0.019": 0.0,
			"0.02": 0.0,
			"0.021": 0.0,
			"0.022": 0.0,
			"0.023": 0.0,
			"0.024": 0.0,
			"0.025": 0.0
		}
	}
}
