{
	 "smiles": "COC1=CC(=CC=C1)C1(CCCC1)C(O)=O", 
	 "Tm": 399.15, 
	 "num_atms": 32, 
	 "gaussian": { 
		 "optdone": 1, 
		 "sigma_profile": "yes", 
		 "theory": "DFT", 
		 "functional": "B3LYP", 
		 "basiset": "6-31G**", 
		 "properties": { 
			 "R2extent": 4195.1849, 
			 "electric_dipole_moment_norm": 2.40387776312, 
			 "electric_quadrupole_moment_norm": 5.01697712472, 
			 "total_energy": -730.706599997, 
			 "HOMO_LUMO_gap": 0.20539, 
			 "cosmo_polarized_energy": -11.51, 
			 "cosmo_cavitation_energy": 33.64, 
			 "cosmo_dispersion_energy": -23.72, 
			 "cosmo_repulsion_energy": 1.86, 
			 "cosmo_total_nonelectrostatic_energy": 11.78, 
			 "SMD_solvation_energy": 6.91 
		},
		"coords": [
			{
				"x": -2.3094933243,
				"y": 2.4394674258,
				"z": 1.0341552432,
				"element": "C" 
			},
			{
				"x": -1.4516191703,
				"y": 2.1727721699,
				"z": 2.1308936412,
				"element": "O" 
			},
			{
				"x": -0.3873166301,
				"y": 1.3379004734,
				"z": 1.9373475262,
				"element": "C" 
			},
			{
				"x": -0.0853610404,
				"y": 0.7146225291,
				"z": 0.720626552,
				"element": "C" 
			},
			{
				"x": 1.0276225023,
				"y": -0.1330290526,
				"z": 0.6165743658,
				"element": "C" 
			},
			{
				"x": 1.84318471,
				"y": -0.3312637908,
				"z": 1.7373878956,
				"element": "C" 
			},
			{
				"x": 1.5357277643,
				"y": 0.2947828537,
				"z": 2.9479613941,
				"element": "C" 
			},
			{
				"x": 0.426202342,
				"y": 1.1242050484,
				"z": 3.0581507666,
				"element": "C" 
			},
			{
				"x": 1.3804843305,
				"y": -0.8328406662,
				"z": -0.7016671545,
				"element": "C" 
			},
			{
				"x": 0.3053500512,
				"y": -0.7668013184,
				"z": -1.8137563301,
				"element": "C" 
			},
			{
				"x": 0.741028098,
				"y": -1.844313333,
				"z": -2.8247239661,
				"element": "C" 
			},
			{
				"x": 1.4386218277,
				"y": -2.9480122429,
				"z": -1.9773714307,
				"element": "C" 
			},
			{
				"x": 1.5781196566,
				"y": -2.3638977395,
				"z": -0.548738062,
				"element": "C" 
			},
			{
				"x": 2.6947245718,
				"y": -0.2034725258,
				"z": -1.1899516593,
				"element": "C" 
			},
			{
				"x": 2.507802316,
				"y": 1.0198017253,
				"z": -1.7427368935,
				"element": "O" 
			},
			{
				"x": 3.7978181895,
				"y": -0.6964468253,
				"z": -1.0846483342,
				"element": "O" 
			},
			{
				"x": -2.7909273765,
				"y": 1.5254087275,
				"z": 0.6623746311,
				"element": "H" 
			},
			{
				"x": -3.0760037593,
				"y": 3.1194995093,
				"z": 1.4094446155,
				"element": "H" 
			},
			{
				"x": -1.773842151,
				"y": 2.9226390069,
				"z": 0.2065825782,
				"element": "H" 
			},
			{
				"x": -0.707873253,
				"y": 0.8882798905,
				"z": -0.1466250391,
				"element": "H" 
			},
			{
				"x": 2.7202869389,
				"y": -0.9656226709,
				"z": 1.6634698693,
				"element": "H" 
			},
			{
				"x": 2.1710616002,
				"y": 0.1331509141,
				"z": 3.8142190213,
				"element": "H" 
			},
			{
				"x": 0.171170776,
				"y": 1.6183005637,
				"z": 3.9897692615,
				"element": "H" 
			},
			{
				"x": -0.6596946969,
				"y": -1.0367274086,
				"z": -1.3692225168,
				"element": "H" 
			},
			{
				"x": 0.2060597588,
				"y": 0.2252946461,
				"z": -2.2596205245,
				"element": "H" 
			},
			{
				"x": -0.1049714654,
				"y": -2.2253371842,
				"z": -3.4042722217,
				"element": "H" 
			},
			{
				"x": 1.446366613,
				"y": -1.4146852452,
				"z": -3.545102143,
				"element": "H" 
			},
			{
				"x": 2.4199049541,
				"y": -3.1921116124,
				"z": -2.3937104429,
				"element": "H" 
			},
			{
				"x": 0.8592864578,
				"y": -3.8760751702,
				"z": -1.9643472211,
				"element": "H" 
			},
			{
				"x": 2.5381832664,
				"y": -2.6061023222,
				"z": -0.0908158288,
				"element": "H" 
			},
			{
				"x": 0.7859614738,
				"y": -2.7412530002,
				"z": 0.1058378722,
				"element": "H" 
			},
			{
				"x": 3.3943346685,
				"y": 1.3455666247,
				"z": -1.9721854654,
				"element": "H" 
			}
		],
		 "valence_orbital": [ 
			{
				"type": "occ",
				"energy": -0.31282,
				"method": "rhf"
			},
			{
				"type": "occ",
				"energy": -0.31108,
				"method": "rhf"
			},
			{
				"type": "occ",
				"energy": -0.27183,
				"method": "rhf"
			},
			{
				"type": "occ",
				"energy": -0.24401,
				"method": "rhf"
			},
			{
				"type": "occ",
				"energy": -0.21584,
				"method": "rhf"
			},
			{
				"type": "unocc",
				"energy": -0.01045,
				"method": "rhf"
			},
			{
				"type": "unocc",
				"energy": 0.01244,
				"method": "rhf"
			},
			{
				"type": "unocc",
				"energy": 0.02381,
				"method": "rhf"
			},
			{
				"type": "unocc",
				"energy": 0.0727,
				"method": "rhf"
			},
			{
				"type": "unocc",
				"energy": 0.09257,
				"method": "rhf"
			}
		],
		"cosmo_sigma_profile": { 
			"-0.025": 0.0,
			"-0.024": 0.0,
			"-0.023": 0.0,
			"-0.022": 0.0,
			"-0.021": 0.0,
			"-0.02": 0.0,
			"-0.019": 0.0,
			"-0.018": 0.501469756942,
			"-0.017": 1.12409475993,
			"-0.016": 0.822897470488,
			"-0.015": 0.985591181392,
			"-0.014": 0.854940132914,
			"-0.013": 0.501525278319,
			"-0.012": 0.869578812664,
			"-0.011": 0.884709144458,
			"-0.01": 1.13011936214,
			"-0.009": 0.609943151599,
			"-0.008": 0.946823216802,
			"-0.007": 1.10375544723,
			"-0.006": 7.14311656132,
			"-0.005": 17.4211131636,
			"-0.004": 17.0391679449,
			"-0.003": 28.2957727651,
			"-0.002": 26.9349376705,
			"-0.001": 25.9727666174,
			"0.0": 21.8892454971,
			"0.001": 22.3622862917,
			"0.002": 13.5762486965,
			"0.003": 12.2022425707,
			"0.004": 12.8478136604,
			"0.005": 14.4971775229,
			"0.006": 9.66397721883,
			"0.007": 4.37893205586,
			"0.008": 4.55235385018,
			"0.009": 3.5547043392,
			"0.01": 3.09603830183,
			"0.011": 3.85205721606,
			"0.012": 3.92434568616,
			"0.013": 0.213555390839,
			"0.014": 0.0,
			"0.015": 0.0,
			"0.016": 0.0,
			"0.017": 0.0,
			"0.018": 0.0,
			"0.019": 0.0,
			"0.02": 0.0,
			"0.021": 0.0,
			"0.022": 0.0,
			"0.023": 0.0,
			"0.024": 0.0,
			"0.025": 0.0
		}
	}
}
