{
	 "smiles": "OC(=O)C1=NOC(=C1)C1=CC=C(Cl)C=C1", 
	 "Tm": 459.15, 
	 "num_atms": 21, 
	 "gaussian": { 
		 "optdone": 1, 
		 "sigma_profile": "yes", 
		 "theory": "DFT", 
		 "functional": "B3LYP", 
		 "basiset": "6-31G**", 
		 "properties": { 
			 "R2extent": 5640.64, 
			 "electric_dipole_moment_norm": 3.3732137851, 
			 "electric_quadrupole_moment_norm": 25.8908488822, 
			 "total_energy": -1125.25732647, 
			 "HOMO_LUMO_gap": 0.1721, 
			 "cosmo_polarized_energy": -12.25, 
			 "cosmo_cavitation_energy": 29.07, 
			 "cosmo_dispersion_energy": -21.64, 
			 "cosmo_repulsion_energy": 1.67, 
			 "cosmo_total_nonelectrostatic_energy": 9.11, 
			 "SMD_solvation_energy": 5.92 
		},
		"coords": [
			{
				"x": -4.8098309351,
				"y": 0.6149497023,
				"z": -2.602241171,
				"element": "O" 
			},
			{
				"x": -4.4253110572,
				"y": 0.8431732937,
				"z": -1.3323008171,
				"element": "C" 
			},
			{
				"x": -5.1761079595,
				"y": 1.2683631202,
				"z": -0.4884725118,
				"element": "O" 
			},
			{
				"x": -2.9904703172,
				"y": 0.5317312856,
				"z": -1.0467742661,
				"element": "C" 
			},
			{
				"x": -2.219942887,
				"y": 0.0712895723,
				"z": -2.0106219264,
				"element": "N" 
			},
			{
				"x": -0.976812279,
				"y": -0.113271885,
				"z": -1.4371458338,
				"element": "O" 
			},
			{
				"x": -1.0238849724,
				"y": 0.2442713823,
				"z": -0.1234437581,
				"element": "C" 
			},
			{
				"x": -2.2927819137,
				"y": 0.6653398022,
				"z": 0.1777774857,
				"element": "C" 
			},
			{
				"x": 0.2091665149,
				"y": 0.1141309908,
				"z": 0.6464205128,
				"element": "C" 
			},
			{
				"x": 1.3867164794,
				"y": -0.3610872664,
				"z": 0.0449551033,
				"element": "C" 
			},
			{
				"x": 2.5600843067,
				"y": -0.4834156559,
				"z": 0.7830452198,
				"element": "C" 
			},
			{
				"x": 2.5586125114,
				"y": -0.1286788412,
				"z": 2.1324513525,
				"element": "C" 
			},
			{
				"x": 4.0338160971,
				"y": -0.2808357217,
				"z": 3.0666190901,
				"element": "Cl" 
			},
			{
				"x": 1.4008450055,
				"y": 0.3458737326,
				"z": 2.7517172536,
				"element": "C" 
			},
			{
				"x": 0.232605762,
				"y": 0.4650078639,
				"z": 2.0066895867,
				"element": "C" 
			},
			{
				"x": -4.0514345019,
				"y": 0.276906685,
				"z": -3.1111736646,
				"element": "H" 
			},
			{
				"x": -2.6943388992,
				"y": 1.0190448868,
				"z": 1.1131915468,
				"element": "H" 
			},
			{
				"x": 1.3810575707,
				"y": -0.6350221944,
				"z": -1.0041517768,
				"element": "H" 
			},
			{
				"x": 3.4684617492,
				"y": -0.8500821468,
				"z": 0.3186685678,
				"element": "H" 
			},
			{
				"x": 1.4175354285,
				"y": 0.6169445361,
				"z": 3.8011728117,
				"element": "H" 
			},
			{
				"x": -0.6665857031,
				"y": 0.8340668577,
				"z": 2.4895171948,
				"element": "H" 
			}
		],
		 "valence_orbital": [ 
			{
				"type": "occ",
				"energy": -0.31883,
				"method": "rhf"
			},
			{
				"type": "occ",
				"energy": -0.30709,
				"method": "rhf"
			},
			{
				"type": "occ",
				"energy": -0.28912,
				"method": "rhf"
			},
			{
				"type": "occ",
				"energy": -0.28665,
				"method": "rhf"
			},
			{
				"type": "occ",
				"energy": -0.25091,
				"method": "rhf"
			},
			{
				"type": "unocc",
				"energy": -0.07881,
				"method": "rhf"
			},
			{
				"type": "unocc",
				"energy": -0.0483,
				"method": "rhf"
			},
			{
				"type": "unocc",
				"energy": -0.03441,
				"method": "rhf"
			},
			{
				"type": "unocc",
				"energy": 0.01367,
				"method": "rhf"
			},
			{
				"type": "unocc",
				"energy": 0.02846,
				"method": "rhf"
			}
		],
		"cosmo_sigma_profile": { 
			"-0.025": 0.0,
			"-0.024": 0.0,
			"-0.023": 0.0,
			"-0.022": 0.0,
			"-0.021": 0.0,
			"-0.02": 0.0,
			"-0.019": 0.0,
			"-0.018": 0.0,
			"-0.017": 0.235191624887,
			"-0.016": 0.30178143834,
			"-0.015": 0.719527283198,
			"-0.014": 0.550524970572,
			"-0.013": 0.533303301646,
			"-0.012": 0.784880336347,
			"-0.011": 0.922141526719,
			"-0.01": 2.49749436666,
			"-0.009": 3.78207857996,
			"-0.008": 6.8442571181,
			"-0.007": 9.58100652991,
			"-0.006": 10.3608700894,
			"-0.005": 9.73897406426,
			"-0.004": 8.96638698607,
			"-0.003": 12.469754471,
			"-0.002": 18.3247408536,
			"-0.001": 21.4819198905,
			"0.0": 19.0979633652,
			"0.001": 21.0192634278,
			"0.002": 23.1458381345,
			"0.003": 11.6729838361,
			"0.004": 15.1036209147,
			"0.005": 8.2730642979,
			"0.006": 4.99778258273,
			"0.007": 3.86636878343,
			"0.008": 5.16570200894,
			"0.009": 5.76034388643,
			"0.01": 4.96250288456,
			"0.011": 4.55976822013,
			"0.012": 1.52640864523,
			"0.013": 0.0350116911166,
			"0.014": 0.0,
			"0.015": 0.0,
			"0.016": 0.0,
			"0.017": 0.0,
			"0.018": 0.0,
			"0.019": 0.0,
			"0.02": 0.0,
			"0.021": 0.0,
			"0.022": 0.0,
			"0.023": 0.0,
			"0.024": 0.0,
			"0.025": 0.0
		}
	}
}
