{
	 "smiles": "CCCCCCCCCCC(C)=C", 
	 "Tm": 242.15, 
	 "num_atms": 39, 
	 "gaussian": { 
		 "optdone": 1, 
		 "sigma_profile": "yes", 
		 "theory": "DFT", 
		 "functional": "B3LYP", 
		 "basiset": "6-31G**", 
		 "properties": { 
			 "R2extent": 4979.6846, 
			 "electric_dipole_moment_norm": 0.374768875442, 
			 "electric_quadrupole_moment_norm": 2.79154328105, 
			 "total_energy": -511.061982718, 
			 "HOMO_LUMO_gap": 0.26052, 
			 "cosmo_polarized_energy": -1.9, 
			 "cosmo_cavitation_energy": 38.29, 
			 "cosmo_dispersion_energy": -25.6, 
			 "cosmo_repulsion_energy": 2.08, 
			 "cosmo_total_nonelectrostatic_energy": 14.77, 
			 "SMD_solvation_energy": 6.0 
		},
		"coords": [
			{
				"x": 2.6646808894,
				"y": -3.0839532692,
				"z": 0.6103479738,
				"element": "C" 
			},
			{
				"x": 3.4385521832,
				"y": -1.8071585753,
				"z": 0.9590000767,
				"element": "C" 
			},
			{
				"x": 2.8283584308,
				"y": -0.990200239,
				"z": 2.1121008321,
				"element": "C" 
			},
			{
				"x": 1.4210946116,
				"y": -0.4182349747,
				"z": 1.863213154,
				"element": "C" 
			},
			{
				"x": 1.3559975838,
				"y": 0.6286952465,
				"z": 0.7385320404,
				"element": "C" 
			},
			{
				"x": -0.0123338967,
				"y": 1.3245864106,
				"z": 0.5610185072,
				"element": "C" 
			},
			{
				"x": -1.0016082902,
				"y": 0.6599874148,
				"z": -0.4136966567,
				"element": "C" 
			},
			{
				"x": -1.5065913211,
				"y": -0.7380180536,
				"z": -0.0194588346,
				"element": "C" 
			},
			{
				"x": -2.6215607434,
				"y": -1.2913426199,
				"z": -0.9319840758,
				"element": "C" 
			},
			{
				"x": -4.0775692497,
				"y": -0.9328880079,
				"z": -0.5479296325,
				"element": "C" 
			},
			{
				"x": -4.4487169699,
				"y": 0.5422831034,
				"z": -0.5837660618,
				"element": "C" 
			},
			{
				"x": -4.4551898163,
				"y": 1.2771277907,
				"z": 0.7348907659,
				"element": "C" 
			},
			{
				"x": -4.7825763894,
				"y": 1.1490198978,
				"z": -1.7282922466,
				"element": "C" 
			},
			{
				"x": 2.5630070173,
				"y": -3.735871049,
				"z": 1.4860563296,
				"element": "H" 
			},
			{
				"x": 3.1772807146,
				"y": -3.6551639701,
				"z": -0.1707851821,
				"element": "H" 
			},
			{
				"x": 1.655815727,
				"y": -2.8644455371,
				"z": 0.2449894935,
				"element": "H" 
			},
			{
				"x": 4.4651532469,
				"y": -2.0788006564,
				"z": 1.2367566217,
				"element": "H" 
			},
			{
				"x": 3.529391546,
				"y": -1.1790570514,
				"z": 0.0636583128,
				"element": "H" 
			},
			{
				"x": 3.5073565771,
				"y": -0.1602104522,
				"z": 2.3524496551,
				"element": "H" 
			},
			{
				"x": 2.7957464245,
				"y": -1.6239230938,
				"z": 3.0092762986,
				"element": "H" 
			},
			{
				"x": 1.0737366721,
				"y": 0.0530744758,
				"z": 2.7928762227,
				"element": "H" 
			},
			{
				"x": 0.7182098995,
				"y": -1.235452619,
				"z": 1.6664085373,
				"element": "H" 
			},
			{
				"x": 1.6552058032,
				"y": 0.1793432699,
				"z": -0.2181244128,
				"element": "H" 
			},
			{
				"x": 2.1133274665,
				"y": 1.3947069276,
				"z": 0.955095984,
				"element": "H" 
			},
			{
				"x": 0.1640230627,
				"y": 2.3441610636,
				"z": 0.1955344611,
				"element": "H" 
			},
			{
				"x": -0.4896688494,
				"y": 1.441791306,
				"z": 1.5449557117,
				"element": "H" 
			},
			{
				"x": -1.8585317863,
				"y": 1.3299156321,
				"z": -0.5448775367,
				"element": "H" 
			},
			{
				"x": -0.5297331938,
				"y": 0.5905392924,
				"z": -1.4045801753,
				"element": "H" 
			},
			{
				"x": -1.8546392422,
				"y": -0.7320596853,
				"z": 1.0235393708,
				"element": "H" 
			},
			{
				"x": -0.6620699177,
				"y": -1.4369907378,
				"z": -0.0458023961,
				"element": "H" 
			},
			{
				"x": -2.5602743898,
				"y": -2.3870757952,
				"z": -0.9396985664,
				"element": "H" 
			},
			{
				"x": -2.4367082643,
				"y": -0.9705040372,
				"z": -1.9656814915,
				"element": "H" 
			},
			{
				"x": -4.7388838349,
				"y": -1.4771032681,
				"z": -1.2329585492,
				"element": "H" 
			},
			{
				"x": -4.2793366659,
				"y": -1.3325857812,
				"z": 0.4548796827,
				"element": "H" 
			},
			{
				"x": -4.7049351534,
				"y": 2.3346054515,
				"z": 0.6107292713,
				"element": "H" 
			},
			{
				"x": -3.4828945179,
				"y": 1.2124017076,
				"z": 1.2383852501,
				"element": "H" 
			},
			{
				"x": -5.1884808801,
				"y": 0.8318892717,
				"z": 1.4202279737,
				"element": "H" 
			},
			{
				"x": -4.8070095029,
				"y": 0.6114880094,
				"z": -2.6731075692,
				"element": "H" 
			},
			{
				"x": -5.0416249805,
				"y": 2.2037232022,
				"z": -1.7629791395,
				"element": "H" 
			}
		],
		 "valence_orbital": [ 
			{
				"type": "occ",
				"energy": -0.31089,
				"method": "rhf"
			},
			{
				"type": "occ",
				"energy": -0.30613,
				"method": "rhf"
			},
			{
				"type": "occ",
				"energy": -0.29647,
				"method": "rhf"
			},
			{
				"type": "occ",
				"energy": -0.29564,
				"method": "rhf"
			},
			{
				"type": "occ",
				"energy": -0.23569,
				"method": "rhf"
			},
			{
				"type": "unocc",
				"energy": 0.02483,
				"method": "rhf"
			},
			{
				"type": "unocc",
				"energy": 0.07111,
				"method": "rhf"
			},
			{
				"type": "unocc",
				"energy": 0.0895,
				"method": "rhf"
			},
			{
				"type": "unocc",
				"energy": 0.10233,
				"method": "rhf"
			},
			{
				"type": "unocc",
				"energy": 0.11026,
				"method": "rhf"
			}
		],
		"cosmo_sigma_profile": { 
			"-0.025": 0.0,
			"-0.024": 0.0,
			"-0.023": 0.0,
			"-0.022": 0.0,
			"-0.021": 0.0,
			"-0.02": 0.0,
			"-0.019": 0.0,
			"-0.018": 0.0,
			"-0.017": 0.0,
			"-0.016": 0.0,
			"-0.015": 0.0,
			"-0.014": 0.0,
			"-0.013": 0.0,
			"-0.012": 0.0,
			"-0.011": 0.0,
			"-0.01": 0.0,
			"-0.009": 0.0,
			"-0.008": 0.0,
			"-0.007": 0.0,
			"-0.006": 0.0,
			"-0.005": 0.00305838838619,
			"-0.004": 2.81938370944,
			"-0.003": 13.4527098391,
			"-0.002": 41.6701207658,
			"-0.001": 64.8387013514,
			"0.0": 67.1742326037,
			"0.001": 58.3332475755,
			"0.002": 26.6690495843,
			"0.003": 5.30580795475,
			"0.004": 4.40023586994,
			"0.005": 4.28915716827,
			"0.006": 2.81538214523,
			"0.007": 1.5937399737,
			"0.008": 0.409522992502,
			"0.009": 0.0,
			"0.01": 0.0,
			"0.011": 0.0,
			"0.012": 0.0,
			"0.013": 0.0,
			"0.014": 0.0,
			"0.015": 0.0,
			"0.016": 0.0,
			"0.017": 0.0,
			"0.018": 0.0,
			"0.019": 0.0,
			"0.02": 0.0,
			"0.021": 0.0,
			"0.022": 0.0,
			"0.023": 0.0,
			"0.024": 0.0,
			"0.025": 0.0
		}
	}
}
