{
	 "smiles": "COC1=C(C=CC(N)=C1)[N+]([O-])=O", 
	 "Tm": 400.15, 
	 "num_atms": 20, 
	 "gaussian": { 
		 "optdone": 1, 
		 "sigma_profile": "yes", 
		 "theory": "DFT", 
		 "functional": "B3LYP", 
		 "basiset": "6-31G**", 
		 "properties": { 
			 "R2extent": 2542.8874, 
			 "electric_dipole_moment_norm": 8.00980695648, 
			 "electric_quadrupole_moment_norm": 17.6659200029, 
			 "total_energy": -606.625220695, 
			 "HOMO_LUMO_gap": 0.16277, 
			 "cosmo_polarized_energy": -19.9, 
			 "cosmo_cavitation_energy": 24.62, 
			 "cosmo_dispersion_energy": -18.31, 
			 "cosmo_repulsion_energy": 1.47, 
			 "cosmo_total_nonelectrostatic_energy": 7.78, 
			 "SMD_solvation_energy": 7.32 
		},
		"coords": [
			{
				"x": -2.0808216286,
				"y": -0.2682209667,
				"z": 0.2548796875,
				"element": "C" 
			},
			{
				"x": -0.9097879031,
				"y": -0.1870665884,
				"z": 1.0560768358,
				"element": "O" 
			},
			{
				"x": 0.2988319488,
				"y": -0.2181855892,
				"z": 0.4604107821,
				"element": "C" 
			},
			{
				"x": 1.4679961518,
				"y": -0.0995498098,
				"z": 1.260376839,
				"element": "C" 
			},
			{
				"x": 2.7260028994,
				"y": -0.1079357106,
				"z": 0.6474093703,
				"element": "C" 
			},
			{
				"x": 2.8688420211,
				"y": -0.2406609558,
				"z": -0.7199278828,
				"element": "C" 
			},
			{
				"x": 1.7215425605,
				"y": -0.3658137715,
				"z": -1.5283778079,
				"element": "C" 
			},
			{
				"x": 1.836816452,
				"y": -0.4539776981,
				"z": -2.9008615585,
				"element": "N" 
			},
			{
				"x": 0.4528157431,
				"y": -0.3498186644,
				"z": -0.924090393,
				"element": "C" 
			},
			{
				"x": 1.4397565482,
				"y": 0.028656402,
				"z": 2.7111629063,
				"element": "N" 
			},
			{
				"x": 0.3711791737,
				"y": -0.1114971784,
				"z": 3.3053963929,
				"element": "O" 
			},
			{
				"x": 2.5145839658,
				"y": 0.2671495084,
				"z": 3.2786368547,
				"element": "O" 
			},
			{
				"x": -2.1321754813,
				"y": -1.2188300288,
				"z": -0.2901933512,
				"element": "H" 
			},
			{
				"x": -2.1424692451,
				"y": 0.5642691233,
				"z": -0.4567499456,
				"element": "H" 
			},
			{
				"x": -2.9150149798,
				"y": -0.2088969444,
				"z": 0.9543676435,
				"element": "H" 
			},
			{
				"x": 3.5905347279,
				"y": -0.0094269529,
				"z": 1.2913778824,
				"element": "H" 
			},
			{
				"x": 3.8567317717,
				"y": -0.246261446,
				"z": -1.1701549791,
				"element": "H" 
			},
			{
				"x": 1.0494724155,
				"y": -0.8215118144,
				"z": -3.4134037738,
				"element": "H" 
			},
			{
				"x": 2.7337699599,
				"y": -0.7315322898,
				"z": -3.2699530351,
				"element": "H" 
			},
			{
				"x": -0.4226071016,
				"y": -0.4332886243,
				"z": -1.5562824675,
				"element": "H" 
			}
		],
		 "valence_orbital": [ 
			{
				"type": "occ",
				"energy": -0.27948,
				"method": "rhf"
			},
			{
				"type": "occ",
				"energy": -0.27904,
				"method": "rhf"
			},
			{
				"type": "occ",
				"energy": -0.25827,
				"method": "rhf"
			},
			{
				"type": "occ",
				"energy": -0.24618,
				"method": "rhf"
			},
			{
				"type": "occ",
				"energy": -0.22313,
				"method": "rhf"
			},
			{
				"type": "unocc",
				"energy": -0.06036,
				"method": "rhf"
			},
			{
				"type": "unocc",
				"energy": -0.00504,
				"method": "rhf"
			},
			{
				"type": "unocc",
				"energy": 0.02434,
				"method": "rhf"
			},
			{
				"type": "unocc",
				"energy": 0.05874,
				"method": "rhf"
			},
			{
				"type": "unocc",
				"energy": 0.08493,
				"method": "rhf"
			}
		],
		"cosmo_sigma_profile": { 
			"-0.025": 0.0,
			"-0.024": 0.0,
			"-0.023": 0.0,
			"-0.022": 0.0,
			"-0.021": 0.0,
			"-0.02": 0.0,
			"-0.019": 0.0,
			"-0.018": 0.0,
			"-0.017": 0.0,
			"-0.016": 0.0,
			"-0.015": 0.0,
			"-0.014": 1.50770542287,
			"-0.013": 3.20105667917,
			"-0.012": 3.06424785164,
			"-0.011": 3.68814368731,
			"-0.01": 2.9687037466,
			"-0.009": 2.4278271299,
			"-0.008": 3.7792543005,
			"-0.007": 6.57500855558,
			"-0.006": 13.7102912938,
			"-0.005": 12.174846074,
			"-0.004": 12.5890170138,
			"-0.003": 11.7681579865,
			"-0.002": 8.65900555459,
			"-0.001": 8.70916459095,
			"0.0": 9.18064672677,
			"0.001": 11.1155629703,
			"0.002": 13.3217570848,
			"0.003": 13.5732761211,
			"0.004": 7.63294203194,
			"0.005": 4.13779101159,
			"0.006": 4.03295994648,
			"0.007": 3.89794008117,
			"0.008": 4.84651981971,
			"0.009": 9.25256828906,
			"0.01": 8.77000755579,
			"0.011": 6.07651625666,
			"0.012": 3.57692445213,
			"0.013": 1.33011970135,
			"0.014": 0.273949730813,
			"0.015": 0.0,
			"0.016": 0.0,
			"0.017": 0.0,
			"0.018": 0.0,
			"0.019": 0.0,
			"0.02": 0.0,
			"0.021": 0.0,
			"0.022": 0.0,
			"0.023": 0.0,
			"0.024": 0.0,
			"0.025": 0.0
		}
	}
}
