{
	 "smiles": "CCCCCCCCCCCCOC1=CC=C(C=C1)C(C)=O", 
	 "Tm": 318.65, 
	 "num_atms": 54, 
	 "gaussian": { 
		 "optdone": 1, 
		 "sigma_profile": "yes", 
		 "theory": "DFT", 
		 "functional": "B3LYP", 
		 "basiset": "6-31G**", 
		 "properties": { 
			 "R2extent": 16482.1908, 
			 "electric_dipole_moment_norm": 3.41954820992, 
			 "electric_quadrupole_moment_norm": 14.8479734166, 
			 "total_energy": -931.890406562, 
			 "HOMO_LUMO_gap": 0.18263, 
			 "cosmo_polarized_energy": -10.4, 
			 "cosmo_cavitation_energy": 54.2, 
			 "cosmo_dispersion_energy": -36.81, 
			 "cosmo_repulsion_energy": 2.89, 
			 "cosmo_total_nonelectrostatic_energy": 20.28, 
			 "SMD_solvation_energy": 8.62 
		},
		"coords": [
			{
				"x": -3.4553937956,
				"y": 3.5601288643,
				"z": -5.6168610994,
				"element": "C" 
			},
			{
				"x": -2.6967725897,
				"y": 3.9168532735,
				"z": -4.3326714784,
				"element": "C" 
			},
			{
				"x": -1.9239895389,
				"y": 2.746623114,
				"z": -3.6981691267,
				"element": "C" 
			},
			{
				"x": -2.8184457552,
				"y": 1.6376355284,
				"z": -3.1255190259,
				"element": "C" 
			},
			{
				"x": -2.0882073747,
				"y": 0.406651664,
				"z": -2.5571265002,
				"element": "C" 
			},
			{
				"x": -1.1820322968,
				"y": 0.6551192339,
				"z": -1.329684704,
				"element": "C" 
			},
			{
				"x": 0.293893752,
				"y": 0.9390631657,
				"z": -1.6567701338,
				"element": "C" 
			},
			{
				"x": 1.201251735,
				"y": 1.0796953401,
				"z": -0.4222301133,
				"element": "C" 
			},
			{
				"x": 0.9050459273,
				"y": 2.3153783814,
				"z": 0.441989044,
				"element": "C" 
			},
			{
				"x": 1.9247614519,
				"y": 2.6250168674,
				"z": 1.5535642833,
				"element": "C" 
			},
			{
				"x": 1.996001755,
				"y": 1.6239738847,
				"z": 2.7270105604,
				"element": "C" 
			},
			{
				"x": 2.9538867133,
				"y": 0.4505465222,
				"z": 2.5025382414,
				"element": "C" 
			},
			{
				"x": 3.1430116611,
				"y": -0.3247279493,
				"z": 3.6941457697,
				"element": "O" 
			},
			{
				"x": 2.2473635947,
				"y": -1.2861225747,
				"z": 4.0383517625,
				"element": "C" 
			},
			{
				"x": 2.5373905047,
				"y": -1.9796689223,
				"z": 5.2260028944,
				"element": "C" 
			},
			{
				"x": 1.6989253805,
				"y": -2.9927285022,
				"z": 5.6666629925,
				"element": "C" 
			},
			{
				"x": 0.5473666822,
				"y": -3.3459547552,
				"z": 4.9400174146,
				"element": "C" 
			},
			{
				"x": 0.2694727218,
				"y": -2.6442988336,
				"z": 3.7580006281,
				"element": "C" 
			},
			{
				"x": 1.098659759,
				"y": -1.6250434039,
				"z": 3.3035037608,
				"element": "C" 
			},
			{
				"x": -0.3911938627,
				"y": -4.4247766752,
				"z": 5.3634998977,
				"element": "C" 
			},
			{
				"x": -0.0958917281,
				"y": -5.192146591,
				"z": 6.6438199661,
				"element": "C" 
			},
			{
				"x": -1.3830851887,
				"y": -4.6940490333,
				"z": 4.6985302051,
				"element": "O" 
			},
			{
				"x": -3.9428428542,
				"y": 4.4430375765,
				"z": -6.0434775604,
				"element": "H" 
			},
			{
				"x": -2.7752725584,
				"y": 3.1572267316,
				"z": -6.3765685877,
				"element": "H" 
			},
			{
				"x": -4.2341742183,
				"y": 2.8113275126,
				"z": -5.4402761056,
				"element": "H" 
			},
			{
				"x": -1.9877434116,
				"y": 4.7247958306,
				"z": -4.5544520938,
				"element": "H" 
			},
			{
				"x": -3.3997109688,
				"y": 4.3267941528,
				"z": -3.594184584,
				"element": "H" 
			},
			{
				"x": -1.2419742496,
				"y": 2.3168790879,
				"z": -4.4465280205,
				"element": "H" 
			},
			{
				"x": -1.2877765748,
				"y": 3.1473372457,
				"z": -2.8995958613,
				"element": "H" 
			},
			{
				"x": -3.5044138495,
				"y": 1.2873592028,
				"z": -3.9071043169,
				"element": "H" 
			},
			{
				"x": -3.4548761485,
				"y": 2.0675470917,
				"z": -2.3381095506,
				"element": "H" 
			},
			{
				"x": -1.4986318166,
				"y": -0.0684876299,
				"z": -3.354144772,
				"element": "H" 
			},
			{
				"x": -2.8555305223,
				"y": -0.3267716038,
				"z": -2.2800415232,
				"element": "H" 
			},
			{
				"x": -1.2133071077,
				"y": -0.2321364495,
				"z": -0.6824209533,
				"element": "H" 
			},
			{
				"x": -1.6039390849,
				"y": 1.4738223735,
				"z": -0.731623741,
				"element": "H" 
			},
			{
				"x": 0.3823532142,
				"y": 1.8441040681,
				"z": -2.2704969091,
				"element": "H" 
			},
			{
				"x": 0.6733316963,
				"y": 0.1161556505,
				"z": -2.2773853399,
				"element": "H" 
			},
			{
				"x": 1.1119880915,
				"y": 0.1659987941,
				"z": 0.1815025435,
				"element": "H" 
			},
			{
				"x": 2.2469537033,
				"y": 1.124388938,
				"z": -0.7571329055,
				"element": "H" 
			},
			{
				"x": 0.8546324204,
				"y": 3.1913167448,
				"z": -0.2197500915,
				"element": "H" 
			},
			{
				"x": -0.0905820712,
				"y": 2.2239758811,
				"z": 0.8952876402,
				"element": "H" 
			},
			{
				"x": 2.9246669446,
				"y": 2.7432785171,
				"z": 1.1108878481,
				"element": "H" 
			},
			{
				"x": 1.6694995517,
				"y": 3.6069430828,
				"z": 1.9691803767,
				"element": "H" 
			},
			{
				"x": 2.3489377376,
				"y": 2.1438067925,
				"z": 3.6252409368,
				"element": "H" 
			},
			{
				"x": 0.9917232898,
				"y": 1.2518976826,
				"z": 2.9635579179,
				"element": "H" 
			},
			{
				"x": 3.9527405267,
				"y": 0.8304329412,
				"z": 2.266927119,
				"element": "H" 
			},
			{
				"x": 2.646384688,
				"y": -0.1981264317,
				"z": 1.6761182697,
				"element": "H" 
			},
			{
				"x": 3.4291691655,
				"y": -1.7029202041,
				"z": 5.7784738794,
				"element": "H" 
			},
			{
				"x": 1.9474925341,
				"y": -3.5128669697,
				"z": 6.5863247151,
				"element": "H" 
			},
			{
				"x": -0.6215336574,
				"y": -2.9184336193,
				"z": 3.2025782732,
				"element": "H" 
			},
			{
				"x": 0.845434411,
				"y": -1.101007112,
				"z": 2.3897913887,
				"element": "H" 
			},
			{
				"x": -0.8799966807,
				"y": -5.9350562025,
				"z": 6.7925579227,
				"element": "H" 
			},
			{
				"x": 0.8754159551,
				"y": -5.6959758942,
				"z": 6.586937647,
				"element": "H" 
			},
			{
				"x": -0.0644376632,
				"y": -4.5198123806,
				"z": 7.5084211992,
				"element": "H" 
			}
		],
		 "valence_orbital": [ 
			{
				"type": "occ",
				"energy": -0.30229,
				"method": "rhf"
			},
			{
				"type": "occ",
				"energy": -0.29937,
				"method": "rhf"
			},
			{
				"type": "occ",
				"energy": -0.25792,
				"method": "rhf"
			},
			{
				"type": "occ",
				"energy": -0.23803,
				"method": "rhf"
			},
			{
				"type": "occ",
				"energy": -0.22378,
				"method": "rhf"
			},
			{
				"type": "unocc",
				"energy": -0.04115,
				"method": "rhf"
			},
			{
				"type": "unocc",
				"energy": -0.00656,
				"method": "rhf"
			},
			{
				"type": "unocc",
				"energy": 0.05337,
				"method": "rhf"
			},
			{
				"type": "unocc",
				"energy": 0.0632,
				"method": "rhf"
			},
			{
				"type": "unocc",
				"energy": 0.08273,
				"method": "rhf"
			}
		],
		"cosmo_sigma_profile": { 
			"-0.025": 0.0,
			"-0.024": 0.0,
			"-0.023": 0.0,
			"-0.022": 0.0,
			"-0.021": 0.0,
			"-0.02": 0.0,
			"-0.019": 0.0,
			"-0.018": 0.0,
			"-0.017": 0.0,
			"-0.016": 0.0,
			"-0.015": 0.0,
			"-0.014": 0.0,
			"-0.013": 0.0,
			"-0.012": 0.0,
			"-0.011": 0.0,
			"-0.01": 0.0,
			"-0.009": 0.0,
			"-0.008": 0.104395001501,
			"-0.007": 1.54020683143,
			"-0.006": 10.2919623475,
			"-0.005": 17.8577965392,
			"-0.004": 19.0021540082,
			"-0.003": 25.0938588314,
			"-0.002": 52.377366014,
			"-0.001": 71.832996211,
			"0.0": 75.1377167308,
			"0.001": 57.9434701545,
			"0.002": 29.0468850666,
			"0.003": 15.048583232,
			"0.004": 15.5045456214,
			"0.005": 4.45850110955,
			"0.006": 3.75961163589,
			"0.007": 3.5393822064,
			"0.008": 1.98818731504,
			"0.009": 2.49316538939,
			"0.01": 3.46147993118,
			"0.011": 2.3598994252,
			"0.012": 3.50043193088,
			"0.013": 3.45507086378,
			"0.014": 0.707720423942,
			"0.015": 0.0,
			"0.016": 0.0,
			"0.017": 0.0,
			"0.018": 0.0,
			"0.019": 0.0,
			"0.02": 0.0,
			"0.021": 0.0,
			"0.022": 0.0,
			"0.023": 0.0,
			"0.024": 0.0,
			"0.025": 0.0
		}
	}
}
