{
	 "smiles": "CC1=C(Br)SC(NC(N)=N)=N1", 
	 "Tm": 477.15, 
	 "num_atms": 18, 
	 "gaussian": { 
		 "optdone": 1, 
		 "sigma_profile": "yes", 
		 "theory": "DFT", 
		 "functional": "B3LYP", 
		 "basiset": "6-31G**", 
		 "properties": { 
			 "R2extent": 4472.4483, 
			 "electric_dipole_moment_norm": 2.22662625063, 
			 "electric_quadrupole_moment_norm": 10.085138823, 
			 "total_energy": -3383.34549417, 
			 "HOMO_LUMO_gap": 0.18171, 
			 "cosmo_polarized_energy": -12.07, 
			 "cosmo_cavitation_energy": 26.27, 
			 "cosmo_dispersion_energy": -20.39, 
			 "cosmo_repulsion_energy": 1.62, 
			 "cosmo_total_nonelectrostatic_energy": 7.5, 
			 "SMD_solvation_energy": 1.54 
		},
		"coords": [
			{
				"x": 0.9168895896,
				"y": 1.634461402,
				"z": -3.0882826588,
				"element": "C" 
			},
			{
				"x": 0.823483382,
				"y": 0.5549971898,
				"z": -2.0495984324,
				"element": "C" 
			},
			{
				"x": 1.2444370211,
				"y": -0.7336696364,
				"z": -2.1900461929,
				"element": "C" 
			},
			{
				"x": 2.0526354334,
				"y": -1.5163046054,
				"z": -3.6986175635,
				"element": "Br" 
			},
			{
				"x": 0.94655671,
				"y": -1.6705900707,
				"z": -0.7343184092,
				"element": "S" 
			},
			{
				"x": 0.2606721429,
				"y": -0.2043728385,
				"z": -0.0232402784,
				"element": "C" 
			},
			{
				"x": -0.2250067435,
				"y": -0.2379150867,
				"z": 1.2541906009,
				"element": "N" 
			},
			{
				"x": -0.7860688733,
				"y": 0.7999428819,
				"z": 2.0331826694,
				"element": "C" 
			},
			{
				"x": -1.0761526583,
				"y": 1.9532962158,
				"z": 1.3522248793,
				"element": "N" 
			},
			{
				"x": -0.9914832067,
				"y": 0.497560806,
				"z": 3.2636812128,
				"element": "N" 
			},
			{
				"x": 0.2682278716,
				"y": 0.8391518786,
				"z": -0.8124627082,
				"element": "N" 
			},
			{
				"x": 1.9561978276,
				"y": 1.816539852,
				"z": -3.3806220492,
				"element": "H" 
			},
			{
				"x": 0.366682836,
				"y": 1.3624738358,
				"z": -3.9949082047,
				"element": "H" 
			},
			{
				"x": 0.4986128974,
				"y": 2.5607555588,
				"z": -2.691220024,
				"element": "H" 
			},
			{
				"x": -0.1075572852,
				"y": -1.0802229366,
				"z": 1.7998632532,
				"element": "H" 
			},
			{
				"x": -1.242628442,
				"y": 2.7744674055,
				"z": 1.911391802,
				"element": "H" 
			},
			{
				"x": -0.6572265657,
				"y": 2.0742968476,
				"z": 0.4338786206,
				"element": "H" 
			},
			{
				"x": -1.428971937,
				"y": 1.2702313006,
				"z": 3.7635034831,
				"element": "H" 
			}
		],
		 "valence_orbital": [ 
			{
				"type": "occ",
				"energy": -0.28845,
				"method": "rhf"
			},
			{
				"type": "occ",
				"energy": -0.28475,
				"method": "rhf"
			},
			{
				"type": "occ",
				"energy": -0.2703,
				"method": "rhf"
			},
			{
				"type": "occ",
				"energy": -0.24165,
				"method": "rhf"
			},
			{
				"type": "occ",
				"energy": -0.20833,
				"method": "rhf"
			},
			{
				"type": "unocc",
				"energy": -0.02662,
				"method": "rhf"
			},
			{
				"type": "unocc",
				"energy": -0.01509,
				"method": "rhf"
			},
			{
				"type": "unocc",
				"energy": -0.00143,
				"method": "rhf"
			},
			{
				"type": "unocc",
				"energy": 0.03665,
				"method": "rhf"
			},
			{
				"type": "unocc",
				"energy": 0.07409,
				"method": "rhf"
			}
		],
		"cosmo_sigma_profile": { 
			"-0.025": 0.0,
			"-0.024": 0.0,
			"-0.023": 0.0,
			"-0.022": 0.0,
			"-0.021": 0.0,
			"-0.02": 0.0,
			"-0.019": 0.0,
			"-0.018": 0.0,
			"-0.017": 0.0,
			"-0.016": 0.362672256003,
			"-0.015": 1.24307039349,
			"-0.014": 2.13834513237,
			"-0.013": 2.54577005814,
			"-0.012": 2.27618823971,
			"-0.011": 3.06987085637,
			"-0.01": 2.79357618298,
			"-0.009": 3.03118331056,
			"-0.008": 4.36724250099,
			"-0.007": 2.51450717417,
			"-0.006": 2.81174874828,
			"-0.005": 8.05827785504,
			"-0.004": 9.01973449695,
			"-0.003": 11.2726011864,
			"-0.002": 13.672962114,
			"-0.001": 20.6717164538,
			"0.0": 22.5265489276,
			"0.001": 21.8680095772,
			"0.002": 23.0624054781,
			"0.003": 19.9401218932,
			"0.004": 10.6331982154,
			"0.005": 4.84523811477,
			"0.006": 3.96010908087,
			"0.007": 2.37088053754,
			"0.008": 2.28849492408,
			"0.009": 2.01589722433,
			"0.01": 1.51149361059,
			"0.011": 1.31065615252,
			"0.012": 1.53126374076,
			"0.013": 1.73136962123,
			"0.014": 0.634408448622,
			"0.015": 1.13818651258,
			"0.016": 1.04639254833,
			"0.017": 1.38059492677,
			"0.018": 0.989956343227,
			"0.019": 0.0613617780347,
			"0.02": 0.0,
			"0.021": 0.0,
			"0.022": 0.0,
			"0.023": 0.0,
			"0.024": 0.0,
			"0.025": 0.0
		}
	}
}
