{
	 "smiles": "CCCCCCCCCCCCN1C2=CC=CC=C2C(C)(C)C11OC2=CC=C(C=C2C=C1)[N+]([O-])=O", 
	 "Tm": 382.15, 
	 "num_atms": 75, 
	 "gaussian": { 
		 "optdone": 1, 
		 "sigma_profile": "yes", 
		 "theory": "DFT", 
		 "functional": "B3LYP", 
		 "basiset": "6-31G**", 
		 "properties": { 
			 "R2extent": 20437.385, 
			 "electric_dipole_moment_norm": 5.320615767, 
			 "electric_quadrupole_moment_norm": 26.8841495592, 
			 "total_energy": -1502.41203547, 
			 "HOMO_LUMO_gap": 0.12298, 
			 "cosmo_polarized_energy": -12.9, 
			 "cosmo_cavitation_energy": 73.04, 
			 "cosmo_dispersion_energy": -43.94, 
			 "cosmo_repulsion_energy": 3.29, 
			 "cosmo_total_nonelectrostatic_energy": 32.39, 
			 "SMD_solvation_energy": 11.94 
		},
		"coords": [
			{
				"x": 0.1631587597,
				"y": 3.0462789181,
				"z": -2.554705877,
				"element": "C" 
			},
			{
				"x": -0.0065669343,
				"y": 4.5337887771,
				"z": -2.223317336,
				"element": "C" 
			},
			{
				"x": -1.125915506,
				"y": 4.8367704645,
				"z": -1.2125878858,
				"element": "C" 
			},
			{
				"x": -2.5413554772,
				"y": 4.5193994163,
				"z": -1.7181358047,
				"element": "C" 
			},
			{
				"x": -3.6696194999,
				"y": 4.9551181352,
				"z": -0.7655133843,
				"element": "C" 
			},
			{
				"x": -3.710011714,
				"y": 4.2495871908,
				"z": 0.6024806413,
				"element": "C" 
			},
			{
				"x": -3.9779816106,
				"y": 2.7386426192,
				"z": 0.527178313,
				"element": "C" 
			},
			{
				"x": -4.2203216341,
				"y": 2.0669014785,
				"z": 1.8910074809,
				"element": "C" 
			},
			{
				"x": -3.042703501,
				"y": 2.113908519,
				"z": 2.8830634476,
				"element": "C" 
			},
			{
				"x": -1.7468414089,
				"y": 1.426016535,
				"z": 2.418918503,
				"element": "C" 
			},
			{
				"x": -1.8715630383,
				"y": -0.0878299274,
				"z": 2.2001995183,
				"element": "C" 
			},
			{
				"x": -0.5367520661,
				"y": -0.7242252892,
				"z": 1.7880195577,
				"element": "C" 
			},
			{
				"x": -0.6176433749,
				"y": -2.1718199562,
				"z": 1.6086465727,
				"element": "N" 
			},
			{
				"x": -0.3943303326,
				"y": -3.0598900647,
				"z": 2.672356558,
				"element": "C" 
			},
			{
				"x": -0.3533363071,
				"y": -2.7898040946,
				"z": 4.0394582975,
				"element": "C" 
			},
			{
				"x": -0.1044217053,
				"y": -3.8570599383,
				"z": 4.9138014051,
				"element": "C" 
			},
			{
				"x": 0.0965706863,
				"y": -5.1521321462,
				"z": 4.4372752291,
				"element": "C" 
			},
			{
				"x": 0.045211159,
				"y": -5.4078378842,
				"z": 3.0575781833,
				"element": "C" 
			},
			{
				"x": -0.1993158873,
				"y": -4.3608625409,
				"z": 2.183574223,
				"element": "C" 
			},
			{
				"x": -0.3729258739,
				"y": -4.3480987803,
				"z": 0.6726522173,
				"element": "C" 
			},
			{
				"x": -1.8110387894,
				"y": -4.811885455,
				"z": 0.3391564244,
				"element": "C" 
			},
			{
				"x": 0.6326303445,
				"y": -5.2167923976,
				"z": -0.0937005294,
				"element": "C" 
			},
			{
				"x": -0.1968248105,
				"y": -2.8004975779,
				"z": 0.3730949977,
				"element": "C" 
			},
			{
				"x": 1.2632265695,
				"y": -2.5821514325,
				"z": 0.2241592406,
				"element": "O" 
			},
			{
				"x": 1.8047289846,
				"y": -1.7769480347,
				"z": -0.7083513527,
				"element": "C" 
			},
			{
				"x": 3.1774104046,
				"y": -1.5033877748,
				"z": -0.6064435047,
				"element": "C" 
			},
			{
				"x": 3.7930545172,
				"y": -0.6950875683,
				"z": -1.5510176632,
				"element": "C" 
			},
			{
				"x": 3.0291840719,
				"y": -0.157242544,
				"z": -2.5924683909,
				"element": "C" 
			},
			{
				"x": 1.6673831405,
				"y": -0.4238319625,
				"z": -2.7109254099,
				"element": "C" 
			},
			{
				"x": 1.0395820554,
				"y": -1.2379708161,
				"z": -1.7676579125,
				"element": "C" 
			},
			{
				"x": -0.3778581009,
				"y": -1.5554733321,
				"z": -1.7943940388,
				"element": "C" 
			},
			{
				"x": -0.9481566684,
				"y": -2.274593186,
				"z": -0.8163228531,
				"element": "C" 
			},
			{
				"x": 3.6717900613,
				"y": 0.7107793154,
				"z": -3.5748252923,
				"element": "N" 
			},
			{
				"x": 2.9627614099,
				"y": 1.213569703,
				"z": -4.4518207725,
				"element": "O" 
			},
			{
				"x": 4.8861034471,
				"y": 0.8951815581,
				"z": -3.4734637441,
				"element": "O" 
			},
			{
				"x": 1.0121937103,
				"y": 2.8804657783,
				"z": -3.2253838045,
				"element": "H" 
			},
			{
				"x": -0.7267133276,
				"y": 2.6353503276,
				"z": -3.0438608091,
				"element": "H" 
			},
			{
				"x": 0.3403507778,
				"y": 2.4602621799,
				"z": -1.6444407237,
				"element": "H" 
			},
			{
				"x": 0.940435833,
				"y": 4.9184531584,
				"z": -1.8238689633,
				"element": "H" 
			},
			{
				"x": -0.1940917805,
				"y": 5.0947966649,
				"z": -3.1491520557,
				"element": "H" 
			},
			{
				"x": -1.0808373254,
				"y": 5.9011023048,
				"z": -0.9423322028,
				"element": "H" 
			},
			{
				"x": -0.9249270262,
				"y": 4.2812460017,
				"z": -0.2858610714,
				"element": "H" 
			},
			{
				"x": -2.6896724078,
				"y": 5.0269375472,
				"z": -2.6814319595,
				"element": "H" 
			},
			{
				"x": -2.6321787574,
				"y": 3.4469576999,
				"z": -1.9302965869,
				"element": "H" 
			},
			{
				"x": -3.5887830499,
				"y": 6.0380752959,
				"z": -0.5988719951,
				"element": "H" 
			},
			{
				"x": -4.6340637946,
				"y": 4.7978146836,
				"z": -1.2679817635,
				"element": "H" 
			},
			{
				"x": -4.501007846,
				"y": 4.7155845571,
				"z": 1.2065710923,
				"element": "H" 
			},
			{
				"x": -2.7736413399,
				"y": 4.4385420781,
				"z": 1.1419216018,
				"element": "H" 
			},
			{
				"x": -4.8644291839,
				"y": 2.5702693033,
				"z": -0.1001230493,
				"element": "H" 
			},
			{
				"x": -3.1498985296,
				"y": 2.237468363,
				"z": 0.0097995455,
				"element": "H" 
			},
			{
				"x": -5.0870867538,
				"y": 2.5442428644,
				"z": 2.3681196171,
				"element": "H" 
			},
			{
				"x": -4.5129930964,
				"y": 1.0225186147,
				"z": 1.722954492,
				"element": "H" 
			},
			{
				"x": -3.3669140207,
				"y": 1.653133209,
				"z": 3.8261232343,
				"element": "H" 
			},
			{
				"x": -2.8144615174,
				"y": 3.1590046791,
				"z": 3.1258585498,
				"element": "H" 
			},
			{
				"x": -0.9683321872,
				"y": 1.6124770564,
				"z": 3.1714393839,
				"element": "H" 
			},
			{
				"x": -1.3844129967,
				"y": 1.8974208007,
				"z": 1.4950315328,
				"element": "H" 
			},
			{
				"x": -2.2389631561,
				"y": -0.5661936047,
				"z": 3.1173583614,
				"element": "H" 
			},
			{
				"x": -2.6114278666,
				"y": -0.3079073843,
				"z": 1.4217782135,
				"element": "H" 
			},
			{
				"x": -0.2071999664,
				"y": -0.2823004958,
				"z": 0.843302004,
				"element": "H" 
			},
			{
				"x": 0.2403271858,
				"y": -0.4912431475,
				"z": 2.530238529,
				"element": "H" 
			},
			{
				"x": -0.5024591679,
				"y": -1.7868247471,
				"z": 4.4251280748,
				"element": "H" 
			},
			{
				"x": -0.0638891639,
				"y": -3.6644054955,
				"z": 5.9822533285,
				"element": "H" 
			},
			{
				"x": 0.2920277328,
				"y": -5.9632181691,
				"z": 5.1318171391,
				"element": "H" 
			},
			{
				"x": 0.2011553641,
				"y": -6.4164379279,
				"z": 2.6834103129,
				"element": "H" 
			},
			{
				"x": -1.9510569164,
				"y": -5.833136243,
				"z": 0.7043104273,
				"element": "H" 
			},
			{
				"x": -2.5611049188,
				"y": -4.1799470812,
				"z": 0.8236689211,
				"element": "H" 
			},
			{
				"x": -1.9931023521,
				"y": -4.8128332844,
				"z": -0.7407317063,
				"element": "H" 
			},
			{
				"x": 0.4455907655,
				"y": -6.2737800108,
				"z": 0.1213376282,
				"element": "H" 
			},
			{
				"x": 0.5245676698,
				"y": -5.0763867018,
				"z": -1.1746458488,
				"element": "H" 
			},
			{
				"x": 1.6612569749,
				"y": -4.9857090473,
				"z": 0.18464722,
				"element": "H" 
			},
			{
				"x": 3.7359373153,
				"y": -1.9344043278,
				"z": 0.2170297048,
				"element": "H" 
			},
			{
				"x": 4.8500037086,
				"y": -0.466442087,
				"z": -1.4975983048,
				"element": "H" 
			},
			{
				"x": 1.1094562231,
				"y": 0.0092671029,
				"z": -3.5324820696,
				"element": "H" 
			},
			{
				"x": -0.9745392444,
				"y": -1.1784893629,
				"z": -2.6208526252,
				"element": "H" 
			},
			{
				"x": -2.0125269379,
				"y": -2.4756510792,
				"z": -0.8268524332,
				"element": "H" 
			}
		],
		 "valence_orbital": [ 
			{
				"type": "occ",
				"energy": -0.28185,
				"method": "rhf"
			},
			{
				"type": "occ",
				"energy": -0.26208,
				"method": "rhf"
			},
			{
				"type": "occ",
				"energy": -0.24742,
				"method": "rhf"
			},
			{
				"type": "occ",
				"energy": -0.23198,
				"method": "rhf"
			},
			{
				"type": "occ",
				"energy": -0.20243,
				"method": "rhf"
			},
			{
				"type": "unocc",
				"energy": -0.07945,
				"method": "rhf"
			},
			{
				"type": "unocc",
				"energy": -0.05283,
				"method": "rhf"
			},
			{
				"type": "unocc",
				"energy": -0.00318,
				"method": "rhf"
			},
			{
				"type": "unocc",
				"energy": 0.00057,
				"method": "rhf"
			},
			{
				"type": "unocc",
				"energy": 0.01217,
				"method": "rhf"
			}
		],
		"cosmo_sigma_profile": { 
			"-0.025": 0.0,
			"-0.024": 0.0,
			"-0.023": 0.0,
			"-0.022": 0.0,
			"-0.021": 0.0,
			"-0.02": 0.0,
			"-0.019": 0.0,
			"-0.018": 0.0,
			"-0.017": 0.0,
			"-0.016": 0.0,
			"-0.015": 0.0,
			"-0.014": 0.0,
			"-0.013": 0.0,
			"-0.012": 0.0,
			"-0.011": 0.0,
			"-0.01": 0.0,
			"-0.009": 0.0,
			"-0.008": 1.86010940386,
			"-0.007": 7.06840050897,
			"-0.006": 8.96869412485,
			"-0.005": 17.2789478934,
			"-0.004": 25.3600469987,
			"-0.003": 38.4553778852,
			"-0.002": 64.7371018797,
			"-0.001": 93.0897655653,
			"0.0": 101.230776285,
			"0.001": 92.4264427933,
			"0.002": 38.8616954066,
			"0.003": 14.0702543698,
			"0.004": 11.0838403403,
			"0.005": 10.812086296,
			"0.006": 13.1945152106,
			"0.007": 11.0244142349,
			"0.008": 9.70704213363,
			"0.009": 4.91054250957,
			"0.01": 3.95246332488,
			"0.011": 1.60512731562,
			"0.012": 0.0,
			"0.013": 0.0,
			"0.014": 0.0,
			"0.015": 0.0,
			"0.016": 0.0,
			"0.017": 0.0,
			"0.018": 0.0,
			"0.019": 0.0,
			"0.02": 0.0,
			"0.021": 0.0,
			"0.022": 0.0,
			"0.023": 0.0,
			"0.024": 0.0,
			"0.025": 0.0
		}
	}
}
