{
	 "smiles": "ClC1=CC=CC(COC2=C(C=O)C=CC=C2)=C1", 
	 "Tm": 312.65, 
	 "num_atms": 28, 
	 "gaussian": { 
		 "optdone": 1, 
		 "sigma_profile": "yes", 
		 "theory": "DFT", 
		 "functional": "B3LYP", 
		 "basiset": "6-31G**", 
		 "properties": { 
			 "R2extent": 6030.6492, 
			 "electric_dipole_moment_norm": 2.4760322615, 
			 "electric_quadrupole_moment_norm": 16.7938170715, 
			 "total_energy": -1150.73852868, 
			 "HOMO_LUMO_gap": 0.17859, 
			 "cosmo_polarized_energy": -13.06, 
			 "cosmo_cavitation_energy": 34.65, 
			 "cosmo_dispersion_energy": -24.31, 
			 "cosmo_repulsion_energy": 1.9, 
			 "cosmo_total_nonelectrostatic_energy": 12.23, 
			 "SMD_solvation_energy": 6.76 
		},
		"coords": [
			{
				"x": 3.9700289277,
				"y": -0.0209237376,
				"z": -2.8520547771,
				"element": "Cl" 
			},
			{
				"x": 2.4338037035,
				"y": -0.7610271946,
				"z": -2.4192559202,
				"element": "C" 
			},
			{
				"x": 1.4291191109,
				"y": -0.8663544789,
				"z": -3.3790594763,
				"element": "C" 
			},
			{
				"x": 0.2143703055,
				"y": -1.4511586143,
				"z": -3.0151344384,
				"element": "C" 
			},
			{
				"x": 0.0103264352,
				"y": -1.9239261313,
				"z": -1.7195811999,
				"element": "C" 
			},
			{
				"x": 1.0261278689,
				"y": -1.8089659482,
				"z": -0.7633845875,
				"element": "C" 
			},
			{
				"x": 0.8337153913,
				"y": -2.3698841264,
				"z": 0.632581352,
				"element": "C" 
			},
			{
				"x": -0.5129911377,
				"y": -2.2878380216,
				"z": 1.0954818729,
				"element": "O" 
			},
			{
				"x": -1.0053792752,
				"y": -1.1112890801,
				"z": 1.5557186814,
				"element": "C" 
			},
			{
				"x": -2.3468848244,
				"y": -1.1217048092,
				"z": 2.020449935,
				"element": "C" 
			},
			{
				"x": -3.2359893272,
				"y": -2.3037108078,
				"z": 1.9703841707,
				"element": "C" 
			},
			{
				"x": -2.9913916713,
				"y": -3.3955594225,
				"z": 1.4962356919,
				"element": "O" 
			},
			{
				"x": -2.8881079384,
				"y": 0.0598009114,
				"z": 2.5480722763,
				"element": "C" 
			},
			{
				"x": -2.1535386898,
				"y": 1.2388661867,
				"z": 2.6142113989,
				"element": "C" 
			},
			{
				"x": -0.8433874633,
				"y": 1.238216296,
				"z": 2.1338296397,
				"element": "C" 
			},
			{
				"x": -0.269380114,
				"y": 0.0803720996,
				"z": 1.6069188547,
				"element": "C" 
			},
			{
				"x": 2.2449527597,
				"y": -1.2210557393,
				"z": -1.1165071848,
				"element": "C" 
			},
			{
				"x": 1.5950952558,
				"y": -0.4969611413,
				"z": -4.3847874518,
				"element": "H" 
			},
			{
				"x": -0.5768005416,
				"y": -1.5386268786,
				"z": -3.7538612858,
				"element": "H" 
			},
			{
				"x": -0.9343329093,
				"y": -2.3779525981,
				"z": -1.4382683868,
				"element": "H" 
			},
			{
				"x": 1.0416669788,
				"y": -3.4446555375,
				"z": 0.6357306169,
				"element": "H" 
			},
			{
				"x": 1.5229210431,
				"y": -1.8995564614,
				"z": 1.3451121292,
				"element": "H" 
			},
			{
				"x": -4.2335721862,
				"y": -2.0991053058,
				"z": 2.4260643462,
				"element": "H" 
			},
			{
				"x": -3.9148495339,
				"y": 0.0364459639,
				"z": 2.9065848745,
				"element": "H" 
			},
			{
				"x": -2.5921086546,
				"y": 2.1426547953,
				"z": 3.0239951017,
				"element": "H" 
			},
			{
				"x": -0.2532688691,
				"y": 2.1498986338,
				"z": 2.162286927,
				"element": "H" 
			},
			{
				"x": 0.7417822322,
				"y": 0.1194404057,
				"z": 1.2226897356,
				"element": "H" 
			},
			{
				"x": 3.0442731235,
				"y": -1.1195392578,
				"z": -0.3885528959,
				"element": "H" 
			}
		],
		 "valence_orbital": [ 
			{
				"type": "occ",
				"energy": -0.26854,
				"method": "rhf"
			},
			{
				"type": "occ",
				"energy": -0.26442,
				"method": "rhf"
			},
			{
				"type": "occ",
				"energy": -0.25078,
				"method": "rhf"
			},
			{
				"type": "occ",
				"energy": -0.24177,
				"method": "rhf"
			},
			{
				"type": "occ",
				"energy": -0.23551,
				"method": "rhf"
			},
			{
				"type": "unocc",
				"energy": -0.05692,
				"method": "rhf"
			},
			{
				"type": "unocc",
				"energy": -0.02286,
				"method": "rhf"
			},
			{
				"type": "unocc",
				"energy": -0.02056,
				"method": "rhf"
			},
			{
				"type": "unocc",
				"energy": -0.00493,
				"method": "rhf"
			},
			{
				"type": "unocc",
				"energy": 0.02529,
				"method": "rhf"
			}
		],
		"cosmo_sigma_profile": { 
			"-0.025": 0.0,
			"-0.024": 0.0,
			"-0.023": 0.0,
			"-0.022": 0.0,
			"-0.021": 0.0,
			"-0.02": 0.0,
			"-0.019": 0.0,
			"-0.018": 0.0,
			"-0.017": 0.0,
			"-0.016": 0.0,
			"-0.015": 0.0,
			"-0.014": 0.0,
			"-0.013": 0.0,
			"-0.012": 0.0,
			"-0.011": 0.0,
			"-0.01": 0.0,
			"-0.009": 0.581249896062,
			"-0.008": 3.89854498663,
			"-0.007": 13.6198502206,
			"-0.006": 21.7399988129,
			"-0.005": 22.2369345081,
			"-0.004": 19.1360832194,
			"-0.003": 16.5526418718,
			"-0.002": 14.6789669288,
			"-0.001": 16.4530783898,
			"0.0": 18.7596417146,
			"0.001": 21.1002671038,
			"0.002": 26.8489096739,
			"0.003": 27.367956833,
			"0.004": 24.704203277,
			"0.005": 9.52264717327,
			"0.006": 2.16192228193,
			"0.007": 1.69751241763,
			"0.008": 2.01354602296,
			"0.009": 2.01759024724,
			"0.01": 2.22039688607,
			"0.011": 2.9420504418,
			"0.012": 4.89592986807,
			"0.013": 2.94734590689,
			"0.014": 1.47776304414,
			"0.015": 0.701045693255,
			"0.016": 0.0136284193368,
			"0.017": 0.0,
			"0.018": 0.0,
			"0.019": 0.0,
			"0.02": 0.0,
			"0.021": 0.0,
			"0.022": 0.0,
			"0.023": 0.0,
			"0.024": 0.0,
			"0.025": 0.0
		}
	}
}
