{
	 "smiles": "CC1=C(N)C(C)=C(C=C1)[N+]([O-])=O", 
	 "Tm": 354.15, 
	 "num_atms": 22, 
	 "gaussian": { 
		 "optdone": 1, 
		 "sigma_profile": "yes", 
		 "theory": "DFT", 
		 "functional": "B3LYP", 
		 "basiset": "6-31G**", 
		 "properties": { 
			 "R2extent": 2157.6789, 
			 "electric_dipole_moment_norm": 5.87768548495, 
			 "electric_quadrupole_moment_norm": 7.88983115662, 
			 "total_energy": -570.741903413, 
			 "HOMO_LUMO_gap": 0.14486, 
			 "cosmo_polarized_energy": -12.22, 
			 "cosmo_cavitation_energy": 25.22, 
			 "cosmo_dispersion_energy": -18.79, 
			 "cosmo_repulsion_energy": 1.48, 
			 "cosmo_total_nonelectrostatic_energy": 7.92, 
			 "SMD_solvation_energy": 6.38 
		},
		"coords": [
			{
				"x": 2.6513985236,
				"y": 2.1131978972,
				"z": -0.0187306172,
				"element": "C" 
			},
			{
				"x": 1.4330079012,
				"y": 1.2427711744,
				"z": 0.1590799196,
				"element": "C" 
			},
			{
				"x": 1.3475763528,
				"y": -0.0065187512,
				"z": -0.4984088096,
				"element": "C" 
			},
			{
				"x": 2.3806989688,
				"y": -0.4053133796,
				"z": -1.3490926642,
				"element": "N" 
			},
			{
				"x": 0.2053427859,
				"y": -0.8335977122,
				"z": -0.3619398988,
				"element": "C" 
			},
			{
				"x": 0.1415717807,
				"y": -2.1065880161,
				"z": -1.1720662496,
				"element": "C" 
			},
			{
				"x": -0.8143169333,
				"y": -0.3661522103,
				"z": 0.4826244431,
				"element": "C" 
			},
			{
				"x": -0.7600447098,
				"y": 0.8680087201,
				"z": 1.1300224917,
				"element": "C" 
			},
			{
				"x": 0.3681578042,
				"y": 1.6585740098,
				"z": 0.9601399323,
				"element": "C" 
			},
			{
				"x": -2.0129805272,
				"y": -1.1753805995,
				"z": 0.758380718,
				"element": "N" 
			},
			{
				"x": -3.0535421834,
				"y": -0.5751378121,
				"z": 1.0291997901,
				"element": "O" 
			},
			{
				"x": -1.9090983664,
				"y": -2.4042094419,
				"z": 0.7380290152,
				"element": "O" 
			},
			{
				"x": 2.8182008157,
				"y": 2.3632568312,
				"z": -1.0741709693,
				"element": "H" 
			},
			{
				"x": 2.5464944022,
				"y": 3.0501346757,
				"z": 0.5328321772,
				"element": "H" 
			},
			{
				"x": 3.5641765702,
				"y": 1.6215954909,
				"z": 0.3463503229,
				"element": "H" 
			},
			{
				"x": 2.4915660985,
				"y": -1.4014337969,
				"z": -1.469217442,
				"element": "H" 
			},
			{
				"x": 3.2659371792,
				"y": 0.0563235559,
				"z": -1.201762793,
				"element": "H" 
			},
			{
				"x": 0.7588996706,
				"y": -2.8982353601,
				"z": -0.7261080884,
				"element": "H" 
			},
			{
				"x": -0.8672428209,
				"y": -2.5049371728,
				"z": -1.2398255578,
				"element": "H" 
			},
			{
				"x": 0.5145743287,
				"y": -1.919101124,
				"z": -2.1848693638,
				"element": "H" 
			},
			{
				"x": -1.588457174,
				"y": 1.1769935614,
				"z": 1.7534486581,
				"element": "H" 
			},
			{
				"x": 0.4313795326,
				"y": 2.6175494599,
				"z": 1.4664849855,
				"element": "H" 
			}
		],
		 "valence_orbital": [ 
			{
				"type": "occ",
				"energy": -0.29802,
				"method": "rhf"
			},
			{
				"type": "occ",
				"energy": -0.29472,
				"method": "rhf"
			},
			{
				"type": "occ",
				"energy": -0.28182,
				"method": "rhf"
			},
			{
				"type": "occ",
				"energy": -0.25463,
				"method": "rhf"
			},
			{
				"type": "occ",
				"energy": -0.21785,
				"method": "rhf"
			},
			{
				"type": "unocc",
				"energy": -0.07299,
				"method": "rhf"
			},
			{
				"type": "unocc",
				"energy": -0.00452,
				"method": "rhf"
			},
			{
				"type": "unocc",
				"energy": 0.01107,
				"method": "rhf"
			},
			{
				"type": "unocc",
				"energy": 0.06265,
				"method": "rhf"
			},
			{
				"type": "unocc",
				"energy": 0.09184,
				"method": "rhf"
			}
		],
		"cosmo_sigma_profile": { 
			"-0.025": 0.0,
			"-0.024": 0.0,
			"-0.023": 0.0,
			"-0.022": 0.0,
			"-0.021": 0.0,
			"-0.02": 0.0,
			"-0.019": 0.0,
			"-0.018": 0.0,
			"-0.017": 0.0,
			"-0.016": 0.0,
			"-0.015": 0.0,
			"-0.014": 0.0,
			"-0.013": 0.172950906025,
			"-0.012": 1.70350202061,
			"-0.011": 2.66638176281,
			"-0.01": 2.8493809217,
			"-0.009": 3.06060998934,
			"-0.008": 3.2785279091,
			"-0.007": 2.85683175444,
			"-0.006": 9.11130153866,
			"-0.005": 13.7394875708,
			"-0.004": 14.3993095385,
			"-0.003": 13.9858296316,
			"-0.002": 15.111302353,
			"-0.001": 17.089363656,
			"0.0": 15.6900176016,
			"0.001": 9.67436446193,
			"0.002": 11.6159360488,
			"0.003": 13.1905202031,
			"0.004": 10.8766002873,
			"0.005": 4.50466194316,
			"0.006": 4.56069223317,
			"0.007": 5.75120136433,
			"0.008": 10.2710951989,
			"0.009": 6.27842777161,
			"0.01": 4.42796526302,
			"0.011": 1.75752738518,
			"0.012": 0.512000178992,
			"0.013": 0.446634544006,
			"0.014": 0.0930305952509,
			"0.015": 0.0,
			"0.016": 0.0,
			"0.017": 0.0,
			"0.018": 0.0,
			"0.019": 0.0,
			"0.02": 0.0,
			"0.021": 0.0,
			"0.022": 0.0,
			"0.023": 0.0,
			"0.024": 0.0,
			"0.025": 0.0
		}
	}
}
