{
	 "smiles": "[O-][N+](=O)C1=CC(=CC=C1)C1=CC=CC=C1", 
	 "Tm": 333.65, 
	 "num_atms": 24, 
	 "gaussian": { 
		 "optdone": 1, 
		 "sigma_profile": "yes", 
		 "theory": "DFT", 
		 "functional": "B3LYP", 
		 "basiset": "6-31G**", 
		 "properties": { 
			 "R2extent": 4139.5856, 
			 "electric_dipole_moment_norm": 4.83919460344, 
			 "electric_quadrupole_moment_norm": 15.7388731677, 
			 "total_energy": -667.808319115, 
			 "HOMO_LUMO_gap": 0.15496, 
			 "cosmo_polarized_energy": -9.0, 
			 "cosmo_cavitation_energy": 29.04, 
			 "cosmo_dispersion_energy": -21.19, 
			 "cosmo_repulsion_energy": 1.63, 
			 "cosmo_total_nonelectrostatic_energy": 9.48, 
			 "SMD_solvation_energy": 7.04 
		},
		"coords": [
			{
				"x": -1.6425004254,
				"y": -2.0452675837,
				"z": -4.1084606138,
				"element": "O" 
			},
			{
				"x": -1.9253509075,
				"y": -1.8159376828,
				"z": -2.9331488891,
				"element": "N" 
			},
			{
				"x": -2.9880188859,
				"y": -2.1252092423,
				"z": -2.3954179654,
				"element": "O" 
			},
			{
				"x": -0.9188907814,
				"y": -1.1182898785,
				"z": -2.1124436288,
				"element": "C" 
			},
			{
				"x": -1.2117582332,
				"y": -0.8580550357,
				"z": -0.7774065977,
				"element": "C" 
			},
			{
				"x": -0.2670587738,
				"y": -0.1993700864,
				"z": 0.0227455297,
				"element": "C" 
			},
			{
				"x": 0.9547934165,
				"y": 0.1746417487,
				"z": -0.566174206,
				"element": "C" 
			},
			{
				"x": 1.2297247884,
				"y": -0.1003187384,
				"z": -1.9061098058,
				"element": "C" 
			},
			{
				"x": 0.2902200182,
				"y": -0.7537855468,
				"z": -2.7005114145,
				"element": "C" 
			},
			{
				"x": -0.5538228313,
				"y": 0.0930141465,
				"z": 1.450558096,
				"element": "C" 
			},
			{
				"x": 0.4569104284,
				"y": -0.0020222547,
				"z": 2.4218231311,
				"element": "C" 
			},
			{
				"x": 0.1876029067,
				"y": 0.273021106,
				"z": 3.761691573,
				"element": "C" 
			},
			{
				"x": -1.0976092953,
				"y": 0.6481373602,
				"z": 4.1574127393,
				"element": "C" 
			},
			{
				"x": -2.1116041779,
				"y": 0.7455166779,
				"z": 3.2026299811,
				"element": "C" 
			},
			{
				"x": -1.8427086036,
				"y": 0.4710266224,
				"z": 1.8626666591,
				"element": "C" 
			},
			{
				"x": -2.1599381873,
				"y": -1.1903943559,
				"z": -0.3744151701,
				"element": "H" 
			},
			{
				"x": 1.6886173736,
				"y": 0.7080565199,
				"z": 0.0300244425,
				"element": "H" 
			},
			{
				"x": 2.1782536161,
				"y": 0.2054318699,
				"z": -2.3363504957,
				"element": "H" 
			},
			{
				"x": 0.470186085,
				"y": -0.980431357,
				"z": -3.7434871233,
				"element": "H" 
			},
			{
				"x": 1.4533275224,
				"y": -0.3204882689,
				"z": 2.1296468221,
				"element": "H" 
			},
			{
				"x": 0.9808065709,
				"y": 0.1849973181,
				"z": 4.4984984736,
				"element": "H" 
			},
			{
				"x": -1.3074754264,
				"y": 0.8619056353,
				"z": 5.2012801106,
				"element": "H" 
			},
			{
				"x": -3.113018042,
				"y": 1.0434007853,
				"z": 3.4994488811,
				"element": "H" 
			},
			{
				"x": -2.6328881552,
				"y": 0.574120241,
				"z": 1.1247994712,
				"element": "H" 
			}
		],
		 "valence_orbital": [ 
			{
				"type": "occ",
				"energy": -0.29463,
				"method": "rhf"
			},
			{
				"type": "occ",
				"energy": -0.28952,
				"method": "rhf"
			},
			{
				"type": "occ",
				"energy": -0.28051,
				"method": "rhf"
			},
			{
				"type": "occ",
				"energy": -0.26189,
				"method": "rhf"
			},
			{
				"type": "occ",
				"energy": -0.24292,
				"method": "rhf"
			},
			{
				"type": "unocc",
				"energy": -0.08796,
				"method": "rhf"
			},
			{
				"type": "unocc",
				"energy": -0.04521,
				"method": "rhf"
			},
			{
				"type": "unocc",
				"energy": -0.01383,
				"method": "rhf"
			},
			{
				"type": "unocc",
				"energy": -0.00703,
				"method": "rhf"
			},
			{
				"type": "unocc",
				"energy": 0.01901,
				"method": "rhf"
			}
		],
		"cosmo_sigma_profile": { 
			"-0.025": 0.0,
			"-0.024": 0.0,
			"-0.023": 0.0,
			"-0.022": 0.0,
			"-0.021": 0.0,
			"-0.02": 0.0,
			"-0.019": 0.0,
			"-0.018": 0.0,
			"-0.017": 0.0,
			"-0.016": 0.0,
			"-0.015": 0.0,
			"-0.014": 0.0,
			"-0.013": 0.0,
			"-0.012": 0.0,
			"-0.011": 0.0,
			"-0.01": 0.0,
			"-0.009": 0.0,
			"-0.008": 0.708302036737,
			"-0.007": 7.12250585368,
			"-0.006": 18.178967535,
			"-0.005": 19.0569129579,
			"-0.004": 18.3395269553,
			"-0.003": 14.7731108414,
			"-0.002": 15.6327876779,
			"-0.001": 17.7120629791,
			"0.0": 16.5384153717,
			"0.001": 21.9772875349,
			"0.002": 19.590063026,
			"0.003": 11.3111422721,
			"0.004": 11.8319445888,
			"0.005": 12.6879132069,
			"0.006": 5.66040125871,
			"0.007": 7.6809485885,
			"0.008": 7.70242045323,
			"0.009": 4.47681586144,
			"0.01": 2.7514096812,
			"0.011": 0.111040077569,
			"0.012": 0.0,
			"0.013": 0.0,
			"0.014": 0.0,
			"0.015": 0.0,
			"0.016": 0.0,
			"0.017": 0.0,
			"0.018": 0.0,
			"0.019": 0.0,
			"0.02": 0.0,
			"0.021": 0.0,
			"0.022": 0.0,
			"0.023": 0.0,
			"0.024": 0.0,
			"0.025": 0.0
		}
	}
}
