{
	 "smiles": "CC1=C(C=CC=C1)C(N)CC(O)=O", 
	 "Tm": 499.15, 
	 "num_atms": 26, 
	 "gaussian": { 
		 "optdone": 1, 
		 "sigma_profile": "yes", 
		 "theory": "DFT", 
		 "functional": "B3LYP", 
		 "basiset": "6-31G**", 
		 "properties": { 
			 "R2extent": 3093.8304, 
			 "electric_dipole_moment_norm": 1.21718725347, 
			 "electric_quadrupole_moment_norm": 7.15361107553, 
			 "total_energy": -594.110113035, 
			 "HOMO_LUMO_gap": 0.2248, 
			 "cosmo_polarized_energy": -12.03, 
			 "cosmo_cavitation_energy": 28.19, 
			 "cosmo_dispersion_energy": -20.29, 
			 "cosmo_repulsion_energy": 1.61, 
			 "cosmo_total_nonelectrostatic_energy": 9.51, 
			 "SMD_solvation_energy": 5.47 
		},
		"coords": [
			{
				"x": 1.0927981616,
				"y": 1.3128939487,
				"z": -0.8500412209,
				"element": "C" 
			},
			{
				"x": 1.7318739905,
				"y": -0.0424870918,
				"z": -0.6387541899,
				"element": "C" 
			},
			{
				"x": 1.309478018,
				"y": -0.9705488658,
				"z": 0.3432772173,
				"element": "C" 
			},
			{
				"x": 2.00580574,
				"y": -2.1833353948,
				"z": 0.4662915486,
				"element": "C" 
			},
			{
				"x": 3.0997431238,
				"y": -2.5007479585,
				"z": -0.3361075886,
				"element": "C" 
			},
			{
				"x": 3.5119202198,
				"y": -1.5909956211,
				"z": -1.3067970508,
				"element": "C" 
			},
			{
				"x": 2.8263928509,
				"y": -0.3860639514,
				"z": -1.4473454486,
				"element": "C" 
			},
			{
				"x": 0.1288262224,
				"y": -0.7768213466,
				"z": 1.3039557344,
				"element": "C" 
			},
			{
				"x": -1.078889767,
				"y": -0.3171396877,
				"z": 0.6164754683,
				"element": "N" 
			},
			{
				"x": 0.4489571605,
				"y": 0.13418213,
				"z": 2.5349635906,
				"element": "C" 
			},
			{
				"x": 0.1135943143,
				"y": 1.6022190342,
				"z": 2.3889602017,
				"element": "C" 
			},
			{
				"x": 1.2106133604,
				"y": 2.395003122,
				"z": 2.3332055015,
				"element": "O" 
			},
			{
				"x": -1.0126998869,
				"y": 2.0529786164,
				"z": 2.36632472,
				"element": "O" 
			},
			{
				"x": 1.5086835688,
				"y": 2.0448349315,
				"z": -0.1487456184,
				"element": "H" 
			},
			{
				"x": 0.0145383572,
				"y": 1.2719143581,
				"z": -0.6911605602,
				"element": "H" 
			},
			{
				"x": 1.2988748105,
				"y": 1.6772969781,
				"z": -1.8611261467,
				"element": "H" 
			},
			{
				"x": 1.6726607189,
				"y": -2.9026137751,
				"z": 1.2117915233,
				"element": "H" 
			},
			{
				"x": 3.611701151,
				"y": -3.4505360014,
				"z": -0.2108410804,
				"element": "H" 
			},
			{
				"x": 4.3543198247,
				"y": -1.8167930782,
				"z": -1.9547315895,
				"element": "H" 
			},
			{
				"x": 3.1455677397,
				"y": 0.3216607018,
				"z": -2.2089147518,
				"element": "H" 
			},
			{
				"x": -0.0187797683,
				"y": -1.7681309833,
				"z": 1.763412517,
				"element": "H" 
			},
			{
				"x": -1.7690902317,
				"y": 0.0356216036,
				"z": 1.2726982109,
				"element": "H" 
			},
			{
				"x": -1.4887616141,
				"y": -1.074094754,
				"z": 0.0787103982,
				"element": "H" 
			},
			{
				"x": -0.1710672533,
				"y": -0.2107507724,
				"z": 3.3695943172,
				"element": "H" 
			},
			{
				"x": 1.4964166778,
				"y": 0.0089393254,
				"z": 2.8135450107,
				"element": "H" 
			},
			{
				"x": 0.8789225104,
				"y": 3.3059145324,
				"z": 2.2525592861,
				"element": "H" 
			}
		],
		 "valence_orbital": [ 
			{
				"type": "occ",
				"energy": -0.31819,
				"method": "rhf"
			},
			{
				"type": "occ",
				"energy": -0.27685,
				"method": "rhf"
			},
			{
				"type": "occ",
				"energy": -0.2419,
				"method": "rhf"
			},
			{
				"type": "occ",
				"energy": -0.23217,
				"method": "rhf"
			},
			{
				"type": "occ",
				"energy": -0.23002,
				"method": "rhf"
			},
			{
				"type": "unocc",
				"energy": -0.00522,
				"method": "rhf"
			},
			{
				"type": "unocc",
				"energy": 0.00545,
				"method": "rhf"
			},
			{
				"type": "unocc",
				"energy": 0.01112,
				"method": "rhf"
			},
			{
				"type": "unocc",
				"energy": 0.07314,
				"method": "rhf"
			},
			{
				"type": "unocc",
				"energy": 0.08662,
				"method": "rhf"
			}
		],
		"cosmo_sigma_profile": { 
			"-0.025": 0.0,
			"-0.024": 0.0,
			"-0.023": 0.0,
			"-0.022": 0.0,
			"-0.021": 0.0,
			"-0.02": 0.0,
			"-0.019": 0.0539563743029,
			"-0.018": 0.586343648893,
			"-0.017": 1.18762307211,
			"-0.016": 0.562468193607,
			"-0.015": 0.358357011101,
			"-0.014": 0.750149949501,
			"-0.013": 0.955156413982,
			"-0.012": 0.797877752483,
			"-0.011": 0.797063777524,
			"-0.01": 1.59670418244,
			"-0.009": 1.84354548562,
			"-0.008": 2.82298730287,
			"-0.007": 3.14743540632,
			"-0.006": 7.99213235757,
			"-0.005": 17.298486897,
			"-0.004": 18.9699620985,
			"-0.003": 22.18656642,
			"-0.002": 15.8034788106,
			"-0.001": 13.4647374473,
			"0.0": 12.0585469879,
			"0.001": 14.2578450488,
			"0.002": 12.683819759,
			"0.003": 11.4729973021,
			"0.004": 11.541004137,
			"0.005": 10.6365110067,
			"0.006": 10.2325984657,
			"0.007": 7.85667969986,
			"0.008": 3.36426052512,
			"0.009": 4.0223189791,
			"0.01": 4.3839434178,
			"0.011": 4.03536885316,
			"0.012": 3.5936250927,
			"0.013": 0.169177808369,
			"0.014": 0.0,
			"0.015": 0.0,
			"0.016": 0.0,
			"0.017": 0.0,
			"0.018": 0.0,
			"0.019": 0.0,
			"0.02": 0.0,
			"0.021": 0.0,
			"0.022": 0.0,
			"0.023": 0.0,
			"0.024": 0.0,
			"0.025": 0.0
		}
	}
}
