{
	 "smiles": "COC1=CC(C=C2/C(=O)NN=C2C2=C(O)C3=CC=CC=C3N(C)C2=O)=CC(OC)=C1OC", 
	 "Tm": 469.15, 
	 "num_atms": 53, 
	 "gaussian": { 
		 "optdone": 1, 
		 "sigma_profile": "yes", 
		 "theory": "DFT", 
		 "functional": "B3LYP", 
		 "basiset": "6-31G**", 
		 "properties": { 
			 "R2extent": 19014.4618, 
			 "electric_dipole_moment_norm": 1.94969971534, 
			 "electric_quadrupole_moment_norm": 24.6593434649, 
			 "total_energy": -1504.66345045, 
			 "HOMO_LUMO_gap": 0.11954, 
			 "cosmo_polarized_energy": -19.23, 
			 "cosmo_cavitation_energy": 56.01, 
			 "cosmo_dispersion_energy": -39.73, 
			 "cosmo_repulsion_energy": 2.91, 
			 "cosmo_total_nonelectrostatic_energy": 19.19, 
			 "SMD_solvation_energy": 12.28 
		},
		"coords": [
			{
				"x": -5.0658475827,
				"y": 1.703071334,
				"z": -2.7919422531,
				"element": "C" 
			},
			{
				"x": -5.2604733809,
				"y": 1.4350034272,
				"z": -1.4059334702,
				"element": "O" 
			},
			{
				"x": -4.1664893374,
				"y": 1.0918280397,
				"z": -0.6676447032,
				"element": "C" 
			},
			{
				"x": -2.8840311222,
				"y": 0.9679199505,
				"z": -1.1907389642,
				"element": "C" 
			},
			{
				"x": -1.8020634107,
				"y": 0.6256653634,
				"z": -0.3483989483,
				"element": "C" 
			},
			{
				"x": -0.4269500575,
				"y": 0.4577313821,
				"z": -0.7711006,
				"element": "C" 
			},
			{
				"x": 0.2180705555,
				"y": 0.5279287455,
				"z": -1.9784926259,
				"element": "C" 
			},
			{
				"x": -0.3331770212,
				"y": 0.8089353602,
				"z": -3.3375025203,
				"element": "C" 
			},
			{
				"x": -1.4414623045,
				"y": 1.1671345486,
				"z": -3.7373107184,
				"element": "O" 
			},
			{
				"x": 0.7367191567,
				"y": 0.5721032109,
				"z": -4.1706509134,
				"element": "N" 
			},
			{
				"x": 1.89498925,
				"y": 0.2497504439,
				"z": -3.5134723352,
				"element": "N" 
			},
			{
				"x": 1.6422962039,
				"y": 0.2177462207,
				"z": -2.2189959635,
				"element": "C" 
			},
			{
				"x": 2.7380799035,
				"y": -0.2470703391,
				"z": -1.3432372026,
				"element": "C" 
			},
			{
				"x": 3.7506967004,
				"y": -1.0381812051,
				"z": -1.8816831394,
				"element": "C" 
			},
			{
				"x": 3.839733525,
				"y": -1.345066865,
				"z": -3.1744378389,
				"element": "O" 
			},
			{
				"x": 4.7815537959,
				"y": -1.6050837422,
				"z": -1.0421075957,
				"element": "C" 
			},
			{
				"x": 5.7527633457,
				"y": -2.4775655405,
				"z": -1.5676715392,
				"element": "C" 
			},
			{
				"x": 6.7282498954,
				"y": -3.0262710554,
				"z": -0.7514951318,
				"element": "C" 
			},
			{
				"x": 6.7469708167,
				"y": -2.6970467171,
				"z": 0.6110650359,
				"element": "C" 
			},
			{
				"x": 5.8054712157,
				"y": -1.8308857398,
				"z": 1.1509697468,
				"element": "C" 
			},
			{
				"x": 4.8050159105,
				"y": -1.2693095807,
				"z": 0.3316021964,
				"element": "C" 
			},
			{
				"x": 3.8591885665,
				"y": -0.3871995408,
				"z": 0.8335835732,
				"element": "N" 
			},
			{
				"x": 3.9289421456,
				"y": 0.0279456824,
				"z": 2.2347380608,
				"element": "C" 
			},
			{
				"x": 2.8285360618,
				"y": 0.1745403413,
				"z": 0.052768494,
				"element": "C" 
			},
			{
				"x": 2.0611202833,
				"y": 0.9938051442,
				"z": 0.5701867498,
				"element": "O" 
			},
			{
				"x": -2.0456596106,
				"y": 0.4319770473,
				"z": 1.0282414665,
				"element": "C" 
			},
			{
				"x": -3.3292933298,
				"y": 0.5436337786,
				"z": 1.5520319629,
				"element": "C" 
			},
			{
				"x": -3.5246927624,
				"y": 0.2718448154,
				"z": 2.8829318984,
				"element": "O" 
			},
			{
				"x": -3.9182503111,
				"y": 1.3839100836,
				"z": 3.6937108767,
				"element": "C" 
			},
			{
				"x": -4.4091416772,
				"y": 0.8635948888,
				"z": 0.7095399197,
				"element": "C" 
			},
			{
				"x": -5.6517454891,
				"y": 1.0043113621,
				"z": 1.2570557537,
				"element": "O" 
			},
			{
				"x": -6.6463260682,
				"y": 0.0592625673,
				"z": 0.8381435035,
				"element": "C" 
			},
			{
				"x": -6.049561839,
				"y": 1.9656691665,
				"z": -3.1835628685,
				"element": "H" 
			},
			{
				"x": -4.3737141761,
				"y": 2.538937828,
				"z": -2.9438454372,
				"element": "H" 
			},
			{
				"x": -4.67915215,
				"y": 0.8253703535,
				"z": -3.3224217247,
				"element": "H" 
			},
			{
				"x": -2.6855007275,
				"y": 1.1419462894,
				"z": -2.2394692963,
				"element": "H" 
			},
			{
				"x": 0.2368282527,
				"y": 0.2430460671,
				"z": 0.0575292592,
				"element": "H" 
			},
			{
				"x": 0.7529888473,
				"y": 0.7540308735,
				"z": -5.1617152459,
				"element": "H" 
			},
			{
				"x": 3.1475342953,
				"y": -0.8016959099,
				"z": -3.6525374366,
				"element": "H" 
			},
			{
				"x": 5.7131632543,
				"y": -2.7084034004,
				"z": -2.6256436048,
				"element": "H" 
			},
			{
				"x": 7.4713609137,
				"y": -3.7014633181,
				"z": -1.1631681289,
				"element": "H" 
			},
			{
				"x": 7.5079033507,
				"y": -3.1196883135,
				"z": 1.2608625658,
				"element": "H" 
			},
			{
				"x": 5.846622698,
				"y": -1.592276667,
				"z": 2.2056546982,
				"element": "H" 
			},
			{
				"x": 4.8929868428,
				"y": 0.4997927983,
				"z": 2.4480648136,
				"element": "H" 
			},
			{
				"x": 3.1278481991,
				"y": 0.7440365691,
				"z": 2.3987688398,
				"element": "H" 
			},
			{
				"x": 3.796010421,
				"y": -0.8322001624,
				"z": 2.8987320999,
				"element": "H" 
			},
			{
				"x": -1.2370399603,
				"y": 0.1743968576,
				"z": 1.7039901153,
				"element": "H" 
			},
			{
				"x": -3.1575697892,
				"y": 2.1747753081,
				"z": 3.6660248988,
				"element": "H" 
			},
			{
				"x": -4.8821899558,
				"y": 1.7894626001,
				"z": 3.3743726417,
				"element": "H" 
			},
			{
				"x": -3.9998569809,
				"y": 1.0006034876,
				"z": 4.7129878295,
				"element": "H" 
			},
			{
				"x": -7.5483260414,
				"y": 0.3065505313,
				"z": 1.4007050031,
				"element": "H" 
			},
			{
				"x": -6.3332312172,
				"y": -0.9620487737,
				"z": 1.0846895489,
				"element": "H" 
			},
			{
				"x": -6.844098104,
				"y": 0.141294403,
				"z": -0.2331713461,
				"element": "H" 
			}
		],
		 "valence_orbital": [ 
			{
				"type": "occ",
				"energy": -0.24929,
				"method": "rhf"
			},
			{
				"type": "occ",
				"energy": -0.22755,
				"method": "rhf"
			},
			{
				"type": "occ",
				"energy": -0.22551,
				"method": "rhf"
			},
			{
				"type": "occ",
				"energy": -0.21574,
				"method": "rhf"
			},
			{
				"type": "occ",
				"energy": -0.20588,
				"method": "rhf"
			},
			{
				"type": "unocc",
				"energy": -0.08634,
				"method": "rhf"
			},
			{
				"type": "unocc",
				"energy": -0.05101,
				"method": "rhf"
			},
			{
				"type": "unocc",
				"energy": -0.00992,
				"method": "rhf"
			},
			{
				"type": "unocc",
				"energy": 0.01197,
				"method": "rhf"
			},
			{
				"type": "unocc",
				"energy": 0.01751,
				"method": "rhf"
			}
		],
		"cosmo_sigma_profile": { 
			"-0.025": 0.0,
			"-0.024": 0.0,
			"-0.023": 0.0,
			"-0.022": 0.0,
			"-0.021": 0.0,
			"-0.02": 0.0,
			"-0.019": 0.0,
			"-0.018": 0.0,
			"-0.017": 0.352729802247,
			"-0.016": 1.19241037448,
			"-0.015": 1.26196166278,
			"-0.014": 0.570634726707,
			"-0.013": 1.04312892852,
			"-0.012": 0.895585439284,
			"-0.011": 0.964554071187,
			"-0.01": 0.708078015339,
			"-0.009": 0.645423360712,
			"-0.008": 1.11946893128,
			"-0.007": 4.70351362803,
			"-0.006": 20.6524295972,
			"-0.005": 30.4571630084,
			"-0.004": 38.048138802,
			"-0.003": 41.4103190325,
			"-0.002": 40.8739160785,
			"-0.001": 36.6448710576,
			"0.0": 37.5016022259,
			"0.001": 37.0047047185,
			"0.002": 35.072373113,
			"0.003": 30.7641421966,
			"0.004": 22.0481491819,
			"0.005": 12.6896306069,
			"0.006": 8.95649059306,
			"0.007": 8.95258707061,
			"0.008": 8.47592971307,
			"0.009": 6.15630179453,
			"0.01": 6.16343881427,
			"0.011": 4.08369139902,
			"0.012": 4.55700642102,
			"0.013": 3.64042228549,
			"0.014": 1.03653086816,
			"0.015": 0.0,
			"0.016": 0.0,
			"0.017": 0.0,
			"0.018": 0.0,
			"0.019": 0.0,
			"0.02": 0.0,
			"0.021": 0.0,
			"0.022": 0.0,
			"0.023": 0.0,
			"0.024": 0.0,
			"0.025": 0.0
		}
	}
}
