{
	 "smiles": "OC(=O)C1=C(C=CC=C1)N1CCCCC1", 
	 "Tm": 333.15, 
	 "num_atms": 30, 
	 "gaussian": { 
		 "optdone": 1, 
		 "sigma_profile": "yes", 
		 "theory": "DFT", 
		 "functional": "B3LYP", 
		 "basiset": "6-31G**", 
		 "properties": { 
			 "R2extent": 3563.8194, 
			 "electric_dipole_moment_norm": 6.44834288248, 
			 "electric_quadrupole_moment_norm": 16.5794144725, 
			 "total_energy": -671.531623446, 
			 "HOMO_LUMO_gap": 0.20362, 
			 "cosmo_polarized_energy": -13.56, 
			 "cosmo_cavitation_energy": 31.04, 
			 "cosmo_dispersion_energy": -22.39, 
			 "cosmo_repulsion_energy": 1.72, 
			 "cosmo_total_nonelectrostatic_energy": 10.38, 
			 "SMD_solvation_energy": 5.81 
		},
		"coords": [
			{
				"x": -0.345610665,
				"y": -0.3459582372,
				"z": 2.4234248659,
				"element": "O" 
			},
			{
				"x": -1.5232324066,
				"y": -0.8200664401,
				"z": 1.9996040731,
				"element": "C" 
			},
			{
				"x": -2.2331434384,
				"y": -1.5064631459,
				"z": 2.7054586928,
				"element": "O" 
			},
			{
				"x": -1.9193338234,
				"y": -0.4679847784,
				"z": 0.5791503044,
				"element": "C" 
			},
			{
				"x": -1.1932976007,
				"y": 0.3992127919,
				"z": -0.264416838,
				"element": "C" 
			},
			{
				"x": -1.6367384223,
				"y": 0.6210664427,
				"z": -1.5739081612,
				"element": "C" 
			},
			{
				"x": -2.7840671459,
				"y": -0.0098148612,
				"z": -2.0524960062,
				"element": "C" 
			},
			{
				"x": -3.5111049947,
				"y": -0.8615229811,
				"z": -1.2180347428,
				"element": "C" 
			},
			{
				"x": -3.0778908088,
				"y": -1.0828342055,
				"z": 0.0853391432,
				"element": "C" 
			},
			{
				"x": -0.01068432,
				"y": 1.0641567394,
				"z": 0.2435091271,
				"element": "N" 
			},
			{
				"x": 1.1790069771,
				"y": 1.0175055305,
				"z": -0.6312580207,
				"element": "C" 
			},
			{
				"x": 2.4409995731,
				"y": 1.2976878533,
				"z": 0.2119078154,
				"element": "C" 
			},
			{
				"x": 2.1428473257,
				"y": 2.2838388601,
				"z": 1.3657038386,
				"element": "C" 
			},
			{
				"x": 1.0035092376,
				"y": 3.2316561373,
				"z": 0.9734686923,
				"element": "C" 
			},
			{
				"x": -0.3003468782,
				"y": 2.4497947525,
				"z": 0.7138189897,
				"element": "C" 
			},
			{
				"x": 0.0504698454,
				"y": 0.179897002,
				"z": 1.6634085982,
				"element": "H" 
			},
			{
				"x": -1.0807799233,
				"y": 1.2931790892,
				"z": -2.220485715,
				"element": "H" 
			},
			{
				"x": -3.111197237,
				"y": 0.1689501329,
				"z": -3.0728490472,
				"element": "H" 
			},
			{
				"x": -4.4079865849,
				"y": -1.3519158145,
				"z": -1.5842245501,
				"element": "H" 
			},
			{
				"x": -3.6157476834,
				"y": -1.742594577,
				"z": 0.7574742694,
				"element": "H" 
			},
			{
				"x": 1.0961294832,
				"y": 1.7480209221,
				"z": -1.4516374882,
				"element": "H" 
			},
			{
				"x": 1.2273820785,
				"y": 0.0269833102,
				"z": -1.0901290605,
				"element": "H" 
			},
			{
				"x": 3.2164890281,
				"y": 1.7035634955,
				"z": -0.4478984852,
				"element": "H" 
			},
			{
				"x": 2.831040171,
				"y": 0.3590077389,
				"z": 0.6189648204,
				"element": "H" 
			},
			{
				"x": 1.8562918236,
				"y": 1.7302436253,
				"z": 2.2673565514,
				"element": "H" 
			},
			{
				"x": 3.0431733635,
				"y": 2.8506905189,
				"z": 1.6233403252,
				"element": "H" 
			},
			{
				"x": 1.2906793743,
				"y": 3.7890561026,
				"z": 0.0733056746,
				"element": "H" 
			},
			{
				"x": 0.8223390392,
				"y": 3.9776497009,
				"z": 1.7538698229,
				"element": "H" 
			},
			{
				"x": -0.9248090496,
				"y": 2.9794757043,
				"z": -0.0206252163,
				"element": "H" 
			},
			{
				"x": -0.8854863381,
				"y": 2.3576185903,
				"z": 1.6350577266,
				"element": "H" 
			}
		],
		 "valence_orbital": [ 
			{
				"type": "occ",
				"energy": -0.28892,
				"method": "rhf"
			},
			{
				"type": "occ",
				"energy": -0.2664,
				"method": "rhf"
			},
			{
				"type": "occ",
				"energy": -0.26091,
				"method": "rhf"
			},
			{
				"type": "occ",
				"energy": -0.25248,
				"method": "rhf"
			},
			{
				"type": "occ",
				"energy": -0.24448,
				"method": "rhf"
			},
			{
				"type": "unocc",
				"energy": -0.04086,
				"method": "rhf"
			},
			{
				"type": "unocc",
				"energy": -0.01625,
				"method": "rhf"
			},
			{
				"type": "unocc",
				"energy": 0.06207,
				"method": "rhf"
			},
			{
				"type": "unocc",
				"energy": 0.06673,
				"method": "rhf"
			},
			{
				"type": "unocc",
				"energy": 0.08167,
				"method": "rhf"
			}
		],
		"cosmo_sigma_profile": { 
			"-0.025": 0.0,
			"-0.024": 0.0,
			"-0.023": 0.0,
			"-0.022": 0.0,
			"-0.021": 0.0,
			"-0.02": 0.0,
			"-0.019": 0.0,
			"-0.018": 0.0,
			"-0.017": 0.0,
			"-0.016": 0.0,
			"-0.015": 0.0,
			"-0.014": 0.0,
			"-0.013": 0.0,
			"-0.012": 0.0,
			"-0.011": 0.0,
			"-0.01": 0.0,
			"-0.009": 0.0,
			"-0.008": 0.0,
			"-0.007": 2.03109126557,
			"-0.006": 8.37921319802,
			"-0.005": 13.3790101224,
			"-0.004": 23.8436626617,
			"-0.003": 36.3488863265,
			"-0.002": 36.1974059135,
			"-0.001": 27.5736540728,
			"0.0": 19.7405661152,
			"0.001": 12.3255502507,
			"0.002": 10.3737219009,
			"0.003": 12.5495983284,
			"0.004": 9.47595104762,
			"0.005": 2.1929730837,
			"0.006": 2.36795694023,
			"0.007": 2.05963045507,
			"0.008": 2.49929600482,
			"0.009": 2.07292683624,
			"0.01": 3.14580743503,
			"0.011": 4.25927647931,
			"0.012": 6.5808185208,
			"0.013": 4.96753312775,
			"0.014": 1.71861225542,
			"0.015": 0.158538717378,
			"0.016": 0.0,
			"0.017": 0.0,
			"0.018": 0.0,
			"0.019": 0.0,
			"0.02": 0.0,
			"0.021": 0.0,
			"0.022": 0.0,
			"0.023": 0.0,
			"0.024": 0.0,
			"0.025": 0.0
		}
	}
}
