{
	 "smiles": "NC1=C(C#N)C(C2=C(O1)N(N=C2C(F)(F)F)C1=CC=CC=C1)C1=CC=C(F)C=C1", 
	 "Tm": 475.15, 
	 "num_atms": 41, 
	 "gaussian": { 
		 "optdone": 1, 
		 "sigma_profile": "yes", 
		 "theory": "DFT", 
		 "functional": "B3LYP", 
		 "basiset": "6-31G**", 
		 "properties": { 
			 "R2extent": 11861.9287, 
			 "electric_dipole_moment_norm": 6.67678758236, 
			 "electric_quadrupole_moment_norm": 18.7711830131, 
			 "total_energy": -1462.89411713, 
			 "HOMO_LUMO_gap": 0.18521, 
			 "cosmo_polarized_energy": -20.02, 
			 "cosmo_cavitation_energy": 48.84, 
			 "cosmo_dispersion_energy": -31.95, 
			 "cosmo_repulsion_energy": 2.33, 
			 "cosmo_total_nonelectrostatic_energy": 19.22, 
			 "SMD_solvation_energy": 10.42 
		},
		"coords": [
			{
				"x": 3.1339254886,
				"y": 0.0314559061,
				"z": -1.7203793852,
				"element": "N" 
			},
			{
				"x": 1.853227026,
				"y": -0.2862159189,
				"z": -1.3679321212,
				"element": "C" 
			},
			{
				"x": 0.861175493,
				"y": -0.7137899217,
				"z": -2.2062130468,
				"element": "C" 
			},
			{
				"x": 1.1858578994,
				"y": -0.7686388795,
				"z": -3.5873646286,
				"element": "C" 
			},
			{
				"x": 1.4950759943,
				"y": -0.8030029728,
				"z": -4.7120612945,
				"element": "N" 
			},
			{
				"x": -0.5466238869,
				"y": -1.1313303684,
				"z": -1.7612908332,
				"element": "C" 
			},
			{
				"x": -0.5795846672,
				"y": -1.0132283056,
				"z": -0.2614439236,
				"element": "C" 
			},
			{
				"x": 0.4902503504,
				"y": -0.5591062645,
				"z": 0.4655500345,
				"element": "C" 
			},
			{
				"x": 1.703907674,
				"y": -0.1667761561,
				"z": -0.0053846845,
				"element": "O" 
			},
			{
				"x": 0.1744924524,
				"y": -0.5517799413,
				"z": 1.7919723677,
				"element": "N" 
			},
			{
				"x": -1.1024396079,
				"y": -0.9916609582,
				"z": 1.9627635789,
				"element": "N" 
			},
			{
				"x": -1.5458297532,
				"y": -1.2692689353,
				"z": 0.7423136865,
				"element": "C" 
			},
			{
				"x": -2.9460251505,
				"y": -1.7649407657,
				"z": 0.5466131916,
				"element": "C" 
			},
			{
				"x": -3.7779501995,
				"y": -0.7717924942,
				"z": 0.1671814025,
				"element": "F" 
			},
			{
				"x": -2.9760334591,
				"y": -2.7008244655,
				"z": -0.4350839381,
				"element": "F" 
			},
			{
				"x": -3.4484128252,
				"y": -2.3155546953,
				"z": 1.6613296332,
				"element": "F" 
			},
			{
				"x": 0.9462440784,
				"y": -0.1416461339,
				"z": 2.9190132427,
				"element": "C" 
			},
			{
				"x": 2.3377332831,
				"y": -0.2805690525,
				"z": 2.9203597247,
				"element": "C" 
			},
			{
				"x": 3.0612663142,
				"y": 0.1317382136,
				"z": 4.0396835224,
				"element": "C" 
			},
			{
				"x": 2.4065969009,
				"y": 0.6602850306,
				"z": 5.1527039093,
				"element": "C" 
			},
			{
				"x": 1.0147212964,
				"y": 0.7781159873,
				"z": 5.1442795018,
				"element": "C" 
			},
			{
				"x": 0.2782826741,
				"y": 0.3843903567,
				"z": 4.0294604172,
				"element": "C" 
			},
			{
				"x": -1.6399730507,
				"y": -0.3118197869,
				"z": -2.4529305713,
				"element": "C" 
			},
			{
				"x": -1.6832857813,
				"y": 1.0829612317,
				"z": -2.3274879571,
				"element": "C" 
			},
			{
				"x": -2.6793004993,
				"y": 1.8288130004,
				"z": -2.9522444658,
				"element": "C" 
			},
			{
				"x": -3.6370459598,
				"y": 1.1606639081,
				"z": -3.7094259934,
				"element": "C" 
			},
			{
				"x": -4.6039562662,
				"y": 1.8776470097,
				"z": -4.318252958,
				"element": "F" 
			},
			{
				"x": -3.6244894505,
				"y": -0.2199997517,
				"z": -3.8561138591,
				"element": "C" 
			},
			{
				"x": -2.6185015771,
				"y": -0.9498426253,
				"z": -3.2210647759,
				"element": "C" 
			},
			{
				"x": 3.6195832665,
				"y": 0.6702200927,
				"z": -1.1071544168,
				"element": "H" 
			},
			{
				"x": 3.3113043908,
				"y": 0.1459537809,
				"z": -2.708653992,
				"element": "H" 
			},
			{
				"x": -0.7070587715,
				"y": -2.1801104778,
				"z": -2.0431213666,
				"element": "H" 
			},
			{
				"x": 2.846705044,
				"y": -0.7126896536,
				"z": 2.0677468582,
				"element": "H" 
			},
			{
				"x": 4.1417303219,
				"y": 0.0237911196,
				"z": 4.0424194259,
				"element": "H" 
			},
			{
				"x": 2.975809888,
				"y": 0.9735959753,
				"z": 6.0224368589,
				"element": "H" 
			},
			{
				"x": 0.4964019998,
				"y": 1.1844097904,
				"z": 6.007495648,
				"element": "H" 
			},
			{
				"x": -0.8015172404,
				"y": 0.4672977288,
				"z": 4.0068571906,
				"element": "H" 
			},
			{
				"x": -0.9280362403,
				"y": 1.5936138398,
				"z": -1.7364585539,
				"element": "H" 
			},
			{
				"x": -2.7245288092,
				"y": 2.9088655732,
				"z": -2.8638085918,
				"element": "H" 
			},
			{
				"x": -4.3879023788,
				"y": -0.7042190288,
				"z": -4.4550695153,
				"element": "H" 
			},
			{
				"x": -2.6004962617,
				"y": -2.0310109915,
				"z": -3.3238393222,
				"element": "H" 
			}
		],
		 "valence_orbital": [ 
			{
				"type": "occ",
				"energy": -0.26374,
				"method": "rhf"
			},
			{
				"type": "occ",
				"energy": -0.25929,
				"method": "rhf"
			},
			{
				"type": "occ",
				"energy": -0.25028,
				"method": "rhf"
			},
			{
				"type": "occ",
				"energy": -0.24041,
				"method": "rhf"
			},
			{
				"type": "occ",
				"energy": -0.23044,
				"method": "rhf"
			},
			{
				"type": "unocc",
				"energy": -0.04523,
				"method": "rhf"
			},
			{
				"type": "unocc",
				"energy": -0.02461,
				"method": "rhf"
			},
			{
				"type": "unocc",
				"energy": -0.02149,
				"method": "rhf"
			},
			{
				"type": "unocc",
				"energy": -0.01212,
				"method": "rhf"
			},
			{
				"type": "unocc",
				"energy": 0.0017,
				"method": "rhf"
			}
		],
		"cosmo_sigma_profile": { 
			"-0.025": 0.0,
			"-0.024": 0.0,
			"-0.023": 0.0,
			"-0.022": 0.0,
			"-0.021": 0.0,
			"-0.02": 0.0,
			"-0.019": 0.0,
			"-0.018": 0.0,
			"-0.017": 0.0,
			"-0.016": 0.180519276288,
			"-0.015": 1.36488153885,
			"-0.014": 1.97218997675,
			"-0.013": 2.49793993328,
			"-0.012": 2.34799128359,
			"-0.011": 2.21200491154,
			"-0.01": 2.01984115818,
			"-0.009": 0.952690594867,
			"-0.008": 2.95820564047,
			"-0.007": 10.1663217981,
			"-0.006": 23.4384387794,
			"-0.005": 23.6441914456,
			"-0.004": 24.2845958444,
			"-0.003": 22.3220196941,
			"-0.002": 23.8672943923,
			"-0.001": 23.8259852706,
			"0.0": 27.1498434016,
			"0.001": 31.5584299885,
			"0.002": 41.7027622165,
			"0.003": 45.9954961326,
			"0.004": 36.2635400086,
			"0.005": 10.9871947742,
			"0.006": 4.36801032227,
			"0.007": 4.47992188798,
			"0.008": 4.67468369577,
			"0.009": 3.86393975939,
			"0.01": 3.97462375503,
			"0.011": 4.14896344836,
			"0.012": 3.01043730217,
			"0.013": 2.71428301664,
			"0.014": 1.03862201899,
			"0.015": 0.0,
			"0.016": 0.0,
			"0.017": 0.0,
			"0.018": 0.0,
			"0.019": 0.0,
			"0.02": 0.0,
			"0.021": 0.0,
			"0.022": 0.0,
			"0.023": 0.0,
			"0.024": 0.0,
			"0.025": 0.0
		}
	}
}
