{
	 "smiles": "OC(=O)CC1=CC(=CC=C1)C(F)(F)F", 
	 "Tm": 350.65, 
	 "num_atms": 21, 
	 "gaussian": { 
		 "optdone": 1, 
		 "sigma_profile": "yes", 
		 "theory": "DFT", 
		 "functional": "B3LYP", 
		 "basiset": "6-31G**", 
		 "properties": { 
			 "R2extent": 4093.42, 
			 "electric_dipole_moment_norm": 3.31512494636, 
			 "electric_quadrupole_moment_norm": 9.90928714288, 
			 "total_energy": -797.169638463, 
			 "HOMO_LUMO_gap": 0.23296, 
			 "cosmo_polarized_energy": -11.72, 
			 "cosmo_cavitation_energy": 27.69, 
			 "cosmo_dispersion_energy": -19.17, 
			 "cosmo_repulsion_energy": 1.48, 
			 "cosmo_total_nonelectrostatic_energy": 9.99, 
			 "SMD_solvation_energy": 7.09 
		},
		"coords": [
			{
				"x": 2.8593426251,
				"y": 2.7963954696,
				"z": -1.2702227806,
				"element": "O" 
			},
			{
				"x": 1.5718448424,
				"y": 2.385134435,
				"z": -1.3808870965,
				"element": "C" 
			},
			{
				"x": 0.7029361209,
				"y": 3.0697188457,
				"z": -1.8671033662,
				"element": "O" 
			},
			{
				"x": 1.4109924402,
				"y": 0.9824573001,
				"z": -0.8102301033,
				"element": "C" 
			},
			{
				"x": 0.0137815059,
				"y": 0.4285845768,
				"z": -0.9481768905,
				"element": "C" 
			},
			{
				"x": -0.9525029002,
				"y": 0.6900566349,
				"z": 0.0276647988,
				"element": "C" 
			},
			{
				"x": -2.2479455505,
				"y": 0.1881894383,
				"z": -0.1056306027,
				"element": "C" 
			},
			{
				"x": -2.5965599347,
				"y": -0.5825857838,
				"z": -1.2176810973,
				"element": "C" 
			},
			{
				"x": -1.6377809873,
				"y": -0.8469546087,
				"z": -2.1934997224,
				"element": "C" 
			},
			{
				"x": -0.3425534018,
				"y": -0.3464657242,
				"z": -2.0574994173,
				"element": "C" 
			},
			{
				"x": -3.257957785,
				"y": 0.4237717405,
				"z": 0.9849531166,
				"element": "C" 
			},
			{
				"x": -3.0172208584,
				"y": 1.5688077245,
				"z": 1.6605857663,
				"element": "F" 
			},
			{
				"x": -3.2478692633,
				"y": -0.5782542818,
				"z": 1.896771921,
				"element": "F" 
			},
			{
				"x": -4.5166369317,
				"y": 0.4944169019,
				"z": 0.4981278898,
				"element": "F" 
			},
			{
				"x": 2.8894550242,
				"y": 3.6936425637,
				"z": -1.6428322201,
				"element": "H" 
			},
			{
				"x": 1.7200387557,
				"y": 1.0258645612,
				"z": 0.2408406409,
				"element": "H" 
			},
			{
				"x": 2.1455312911,
				"y": 0.3400644862,
				"z": -1.308714631,
				"element": "H" 
			},
			{
				"x": -0.7010993806,
				"y": 1.2949489183,
				"z": 0.893071614,
				"element": "H" 
			},
			{
				"x": -3.6071805888,
				"y": -0.9634526189,
				"z": -1.3170053218,
				"element": "H" 
			},
			{
				"x": -1.8997896182,
				"y": -1.4433227914,
				"z": -3.0620638686,
				"element": "H" 
			},
			{
				"x": 0.399074595,
				"y": -0.557417788,
				"z": -2.8236686292,
				"element": "H" 
			}
		],
		 "valence_orbital": [ 
			{
				"type": "occ",
				"energy": -0.35347,
				"method": "rhf"
			},
			{
				"type": "occ",
				"energy": -0.32666,
				"method": "rhf"
			},
			{
				"type": "occ",
				"energy": -0.2841,
				"method": "rhf"
			},
			{
				"type": "occ",
				"energy": -0.2682,
				"method": "rhf"
			},
			{
				"type": "occ",
				"energy": -0.26179,
				"method": "rhf"
			},
			{
				"type": "unocc",
				"energy": -0.02883,
				"method": "rhf"
			},
			{
				"type": "unocc",
				"energy": -0.01942,
				"method": "rhf"
			},
			{
				"type": "unocc",
				"energy": 0.00463,
				"method": "rhf"
			},
			{
				"type": "unocc",
				"energy": 0.07283,
				"method": "rhf"
			},
			{
				"type": "unocc",
				"energy": 0.08203,
				"method": "rhf"
			}
		],
		"cosmo_sigma_profile": { 
			"-0.025": 0.0,
			"-0.024": 0.0,
			"-0.023": 0.0,
			"-0.022": 0.0,
			"-0.021": 0.0,
			"-0.02": 0.0,
			"-0.019": 0.0396756518756,
			"-0.018": 0.82258644482,
			"-0.017": 0.984162695854,
			"-0.016": 0.583596381705,
			"-0.015": 0.875735942109,
			"-0.014": 1.02183084247,
			"-0.013": 0.352190056902,
			"-0.012": 0.550934421892,
			"-0.011": 0.92442740283,
			"-0.01": 0.497900414018,
			"-0.009": 0.509093771191,
			"-0.008": 3.31052776268,
			"-0.007": 12.2882351512,
			"-0.006": 13.6178532237,
			"-0.005": 11.658006857,
			"-0.004": 12.2169304243,
			"-0.003": 10.3164952058,
			"-0.002": 10.7912064975,
			"-0.001": 11.3883427671,
			"0.0": 10.8429612905,
			"0.001": 15.5364854513,
			"0.002": 25.7802344585,
			"0.003": 38.8130801714,
			"0.004": 9.63095716276,
			"0.005": 2.79216900896,
			"0.006": 3.78009557131,
			"0.007": 3.03662755437,
			"0.008": 3.00361699913,
			"0.009": 3.57333164162,
			"0.01": 3.36757624405,
			"0.011": 4.38367292638,
			"0.012": 3.5468111993,
			"0.013": 0.194279547359,
			"0.014": 0.0,
			"0.015": 0.0,
			"0.016": 0.0,
			"0.017": 0.0,
			"0.018": 0.0,
			"0.019": 0.0,
			"0.02": 0.0,
			"0.021": 0.0,
			"0.022": 0.0,
			"0.023": 0.0,
			"0.024": 0.0,
			"0.025": 0.0
		}
	}
}
