{
	 "smiles": "O=C(C1=NOC(=C1S(=O)(=O)C1=CC=CC=C1)C1=CC2=C(C=CC=C2)C=C1)C1=CC=C2C=CC=CC2=C1", 
	 "Tm": 393.15, 
	 "num_atms": 55, 
	 "gaussian": { 
		 "optdone": 1, 
		 "sigma_profile": "yes", 
		 "theory": "DFT", 
		 "functional": "B3LYP", 
		 "basiset": "6-31G**", 
		 "properties": { 
			 "R2extent": 22763.616, 
			 "electric_dipole_moment_norm": 5.1001416245, 
			 "electric_quadrupole_moment_norm": 33.8471631127, 
			 "total_energy": -1908.37042289, 
			 "HOMO_LUMO_gap": 0.13717, 
			 "cosmo_polarized_energy": -21.58, 
			 "cosmo_cavitation_energy": 61.41, 
			 "cosmo_dispersion_energy": -42.12, 
			 "cosmo_repulsion_energy": 3.04, 
			 "cosmo_total_nonelectrostatic_energy": 22.34, 
			 "SMD_solvation_energy": 9.07 
		},
		"coords": [
			{
				"x": -1.5883588323,
				"y": 0.5591622151,
				"z": -2.4198663698,
				"element": "O" 
			},
			{
				"x": -1.7322824259,
				"y": 0.3406035902,
				"z": -1.2238092131,
				"element": "C" 
			},
			{
				"x": -0.5751057309,
				"y": -0.295916328,
				"z": -0.5025880716,
				"element": "C" 
			},
			{
				"x": -0.7979496802,
				"y": -1.1783221569,
				"z": 0.4473572022,
				"element": "N" 
			},
			{
				"x": 0.4413877496,
				"y": -1.6979488625,
				"z": 0.7840211407,
				"element": "O" 
			},
			{
				"x": 1.4171331313,
				"y": -1.112990907,
				"z": 0.0453262528,
				"element": "C" 
			},
			{
				"x": 0.8266232792,
				"y": -0.1902536304,
				"z": -0.7940775534,
				"element": "C" 
			},
			{
				"x": 1.7137849554,
				"y": 0.9134028033,
				"z": -1.9005818715,
				"element": "S" 
			},
			{
				"x": 1.6374581714,
				"y": 0.3892425549,
				"z": -3.2695326938,
				"element": "O" 
			},
			{
				"x": 3.0240467013,
				"y": 1.1321156074,
				"z": -1.2667221126,
				"element": "O" 
			},
			{
				"x": 0.83264325,
				"y": 2.4762783696,
				"z": -1.8230043141,
				"element": "C" 
			},
			{
				"x": 0.1085766629,
				"y": 2.9053046128,
				"z": -2.9351996588,
				"element": "C" 
			},
			{
				"x": -0.5008110407,
				"y": 4.1599703424,
				"z": -2.8942663625,
				"element": "C" 
			},
			{
				"x": -0.3861944459,
				"y": 4.9595984728,
				"z": -1.7551905366,
				"element": "C" 
			},
			{
				"x": 0.3488029031,
				"y": 4.5179695705,
				"z": -0.6511686786,
				"element": "C" 
			},
			{
				"x": 0.9736901955,
				"y": 3.2721317727,
				"z": -0.6828919657,
				"element": "C" 
			},
			{
				"x": 2.7708057034,
				"y": -1.610217502,
				"z": 0.2985602354,
				"element": "C" 
			},
			{
				"x": 3.1110738306,
				"y": -2.0161387716,
				"z": 1.5798798702,
				"element": "C" 
			},
			{
				"x": 4.3952386835,
				"y": -2.5402223934,
				"z": 1.8645731862,
				"element": "C" 
			},
			{
				"x": 5.3468943683,
				"y": -2.6611743895,
				"z": 0.7998832583,
				"element": "C" 
			},
			{
				"x": 6.6334029928,
				"y": -3.1881515797,
				"z": 1.0879498309,
				"element": "C" 
			},
			{
				"x": 6.964552922,
				"y": -3.5760556008,
				"z": 2.3672899588,
				"element": "C" 
			},
			{
				"x": 6.0237145541,
				"y": -3.4562372947,
				"z": 3.420495855,
				"element": "C" 
			},
			{
				"x": 4.7680783298,
				"y": -2.9498310715,
				"z": 3.1743648049,
				"element": "C" 
			},
			{
				"x": 4.964130393,
				"y": -2.2546331611,
				"z": -0.5073323363,
				"element": "C" 
			},
			{
				"x": 3.7161506498,
				"y": -1.7422067569,
				"z": -0.7594927868,
				"element": "C" 
			},
			{
				"x": -3.0003369879,
				"y": 0.6583648981,
				"z": -0.5108613706,
				"element": "C" 
			},
			{
				"x": -3.1407853733,
				"y": 0.6391499829,
				"z": 0.9071101831,
				"element": "C" 
			},
			{
				"x": -4.3379496376,
				"y": 0.9804900143,
				"z": 1.4892761876,
				"element": "C" 
			},
			{
				"x": -5.4615144637,
				"y": 1.35441304,
				"z": 0.7036077771,
				"element": "C" 
			},
			{
				"x": -6.7114784637,
				"y": 1.7069708156,
				"z": 1.2777212069,
				"element": "C" 
			},
			{
				"x": -7.7754946529,
				"y": 2.0638090252,
				"z": 0.4795065766,
				"element": "C" 
			},
			{
				"x": -7.6423955826,
				"y": 2.0860770156,
				"z": -0.9321452442,
				"element": "C" 
			},
			{
				"x": -6.4450969361,
				"y": 1.7502185527,
				"z": -1.5200431531,
				"element": "C" 
			},
			{
				"x": -5.3257087151,
				"y": 1.3769934546,
				"z": -0.7243294507,
				"element": "C" 
			},
			{
				"x": -4.0815169358,
				"y": 1.029994141,
				"z": -1.2973135095,
				"element": "C" 
			},
			{
				"x": 0.0287175859,
				"y": 2.2601716146,
				"z": -3.8015615094,
				"element": "H" 
			},
			{
				"x": -1.0668623571,
				"y": 4.5102455982,
				"z": -3.7518931824,
				"element": "H" 
			},
			{
				"x": -0.8661138846,
				"y": 5.9336195256,
				"z": -1.7284735588,
				"element": "H" 
			},
			{
				"x": 0.4456862471,
				"y": 5.1478907677,
				"z": 0.2278205083,
				"element": "H" 
			},
			{
				"x": 1.576558071,
				"y": 2.9282379604,
				"z": 0.1509575569,
				"element": "H" 
			},
			{
				"x": 2.3889036018,
				"y": -1.9271666362,
				"z": 2.3855716351,
				"element": "H" 
			},
			{
				"x": 7.3544571889,
				"y": -3.279579092,
				"z": 0.2799979767,
				"element": "H" 
			},
			{
				"x": 7.9524854681,
				"y": -3.9767586608,
				"z": 2.5749389826,
				"element": "H" 
			},
			{
				"x": 6.299156673,
				"y": -3.7666364475,
				"z": 4.4240589911,
				"element": "H" 
			},
			{
				"x": 4.0427516687,
				"y": -2.8564627011,
				"z": 3.9784222121,
				"element": "H" 
			},
			{
				"x": 5.6789009853,
				"y": -2.3585574646,
				"z": -1.3188340115,
				"element": "H" 
			},
			{
				"x": 3.4415676748,
				"y": -1.4528092407,
				"z": -1.7662892486,
				"element": "H" 
			},
			{
				"x": -2.3026847229,
				"y": 0.3467864727,
				"z": 1.5261865454,
				"element": "H" 
			},
			{
				"x": -4.438530336,
				"y": 0.9667889488,
				"z": 2.5712668647,
				"element": "H" 
			},
			{
				"x": -6.8155372935,
				"y": 1.6894413375,
				"z": 2.3593744139,
				"element": "H" 
			},
			{
				"x": -8.7268323073,
				"y": 2.3304066975,
				"z": 0.9308389315,
				"element": "H" 
			},
			{
				"x": -8.4919111167,
				"y": 2.3691594889,
				"z": -1.5464490638,
				"element": "H" 
			},
			{
				"x": -6.3357219907,
				"y": 1.7641438966,
				"z": -2.6011398898,
				"element": "H" 
			},
			{
				"x": -3.957000678,
				"y": 1.0487174889,
				"z": -2.3756004273,
				"element": "H" 
			}
		],
		 "valence_orbital": [ 
			{
				"type": "occ",
				"energy": -0.26615,
				"method": "rhf"
			},
			{
				"type": "occ",
				"energy": -0.25609,
				"method": "rhf"
			},
			{
				"type": "occ",
				"energy": -0.24339,
				"method": "rhf"
			},
			{
				"type": "occ",
				"energy": -0.22788,
				"method": "rhf"
			},
			{
				"type": "occ",
				"energy": -0.22225,
				"method": "rhf"
			},
			{
				"type": "unocc",
				"energy": -0.08508,
				"method": "rhf"
			},
			{
				"type": "unocc",
				"energy": -0.06565,
				"method": "rhf"
			},
			{
				"type": "unocc",
				"energy": -0.04123,
				"method": "rhf"
			},
			{
				"type": "unocc",
				"energy": -0.03714,
				"method": "rhf"
			},
			{
				"type": "unocc",
				"energy": -0.03288,
				"method": "rhf"
			}
		],
		"cosmo_sigma_profile": { 
			"-0.025": 0.0,
			"-0.024": 0.0,
			"-0.023": 0.0,
			"-0.022": 0.0,
			"-0.021": 0.0,
			"-0.02": 0.0,
			"-0.019": 0.0,
			"-0.018": 0.0,
			"-0.017": 0.0,
			"-0.016": 0.0,
			"-0.015": 0.0,
			"-0.014": 0.0,
			"-0.013": 0.0,
			"-0.012": 0.0,
			"-0.011": 0.0,
			"-0.01": 0.0,
			"-0.009": 0.0,
			"-0.008": 1.24671838072,
			"-0.007": 18.5452995356,
			"-0.006": 39.0874137411,
			"-0.005": 41.8451302579,
			"-0.004": 41.0404301796,
			"-0.003": 30.727086158,
			"-0.002": 29.0120888222,
			"-0.001": 27.9520225459,
			"0.0": 29.937784505,
			"0.001": 34.6637213225,
			"0.002": 56.259421383,
			"0.003": 53.0093672656,
			"0.004": 30.1474756303,
			"0.005": 12.3137826126,
			"0.006": 7.34981277921,
			"0.007": 6.66352229312,
			"0.008": 6.94153151122,
			"0.009": 7.13976785983,
			"0.01": 11.8499620925,
			"0.011": 8.9977163901,
			"0.012": 1.07469524009,
			"0.013": 0.0,
			"0.014": 0.0,
			"0.015": 0.0,
			"0.016": 0.0,
			"0.017": 0.0,
			"0.018": 0.0,
			"0.019": 0.0,
			"0.02": 0.0,
			"0.021": 0.0,
			"0.022": 0.0,
			"0.023": 0.0,
			"0.024": 0.0,
			"0.025": 0.0
		}
	}
}
