{
	 "smiles": "C1COC(OC1)C1=CC=CC=C1", 
	 "Tm": 314.15, 
	 "num_atms": 24, 
	 "gaussian": { 
		 "optdone": 1, 
		 "sigma_profile": "yes", 
		 "theory": "DFT", 
		 "functional": "B3LYP", 
		 "basiset": "6-31G**", 
		 "properties": { 
			 "R2extent": 2887.4845, 
			 "electric_dipole_moment_norm": 1.25040769751, 
			 "electric_quadrupole_moment_norm": 7.66845526296, 
			 "total_energy": -538.721651918, 
			 "HOMO_LUMO_gap": 0.24155, 
			 "cosmo_polarized_energy": -6.15, 
			 "cosmo_cavitation_energy": 25.99, 
			 "cosmo_dispersion_energy": -19.57, 
			 "cosmo_repulsion_energy": 1.57, 
			 "cosmo_total_nonelectrostatic_energy": 7.99, 
			 "SMD_solvation_energy": 4.17 
		},
		"coords": [
			{
				"x": -3.5216263821,
				"y": 0.5386793132,
				"z": -2.7631253688,
				"element": "C" 
			},
			{
				"x": -2.9151912976,
				"y": -0.545678553,
				"z": -1.8528863668,
				"element": "C" 
			},
			{
				"x": -1.6575922103,
				"y": -0.9619162464,
				"z": -2.3937408603,
				"element": "O" 
			},
			{
				"x": -0.6809466776,
				"y": 0.0687354113,
				"z": -2.3092601071,
				"element": "C" 
			},
			{
				"x": -1.2619169724,
				"y": 1.3521824007,
				"z": -2.4336527702,
				"element": "O" 
			},
			{
				"x": -2.3525269598,
				"y": 1.3486630508,
				"z": -3.3566348894,
				"element": "C" 
			},
			{
				"x": 0.1091273676,
				"y": 0.0208957168,
				"z": -1.0093234621,
				"element": "C" 
			},
			{
				"x": 0.6437881411,
				"y": 1.1851596273,
				"z": -0.4457492185,
				"element": "C" 
			},
			{
				"x": 1.4101500932,
				"y": 1.113661325,
				"z": 0.7185419453,
				"element": "C" 
			},
			{
				"x": 1.6502733454,
				"y": -0.1194264282,
				"z": 1.3280719818,
				"element": "C" 
			},
			{
				"x": 1.1191603539,
				"y": -1.28285898,
				"z": 0.7677923496,
				"element": "C" 
			},
			{
				"x": 0.3536630293,
				"y": -1.2133687178,
				"z": -0.3968551377,
				"element": "C" 
			},
			{
				"x": -4.1914644439,
				"y": 1.1800052693,
				"z": -2.1796167171,
				"element": "H" 
			},
			{
				"x": -4.1112311396,
				"y": 0.0919079208,
				"z": -3.5711726015,
				"element": "H" 
			},
			{
				"x": -2.7822249404,
				"y": -0.1663135359,
				"z": -0.8315392213,
				"element": "H" 
			},
			{
				"x": -3.5375993499,
				"y": -1.4420601804,
				"z": -1.8060425262,
				"element": "H" 
			},
			{
				"x": -0.0157810108,
				"y": -0.1237818443,
				"z": -3.1685372272,
				"element": "H" 
			},
			{
				"x": -2.0309477616,
				"y": 0.9197152837,
				"z": -4.316443885,
				"element": "H" 
			},
			{
				"x": -2.6146924829,
				"y": 2.3960374571,
				"z": -3.5227896372,
				"element": "H" 
			},
			{
				"x": 0.4479634467,
				"y": 2.1417851512,
				"z": -0.9173489331,
				"element": "H" 
			},
			{
				"x": 1.817255023,
				"y": 2.0230982425,
				"z": 1.1519548578,
				"element": "H" 
			},
			{
				"x": 2.2465786648,
				"y": -0.1731284527,
				"z": 2.2346691039,
				"element": "H" 
			},
			{
				"x": 1.2989109736,
				"y": -2.2454305672,
				"z": 1.2386651926,
				"element": "H" 
			},
			{
				"x": -0.0696288097,
				"y": -2.1119626639,
				"z": -0.8338765014,
				"element": "H" 
			}
		],
		 "valence_orbital": [ 
			{
				"type": "occ",
				"energy": -0.29566,
				"method": "rhf"
			},
			{
				"type": "occ",
				"energy": -0.28034,
				"method": "rhf"
			},
			{
				"type": "occ",
				"energy": -0.24937,
				"method": "rhf"
			},
			{
				"type": "occ",
				"energy": -0.24344,
				"method": "rhf"
			},
			{
				"type": "occ",
				"energy": -0.24148,
				"method": "rhf"
			},
			{
				"type": "unocc",
				"energy": 7e-05,
				"method": "rhf"
			},
			{
				"type": "unocc",
				"energy": 0.00523,
				"method": "rhf"
			},
			{
				"type": "unocc",
				"energy": 0.0932,
				"method": "rhf"
			},
			{
				"type": "unocc",
				"energy": 0.1046,
				"method": "rhf"
			},
			{
				"type": "unocc",
				"energy": 0.11114,
				"method": "rhf"
			}
		],
		"cosmo_sigma_profile": { 
			"-0.025": 0.0,
			"-0.024": 0.0,
			"-0.023": 0.0,
			"-0.022": 0.0,
			"-0.021": 0.0,
			"-0.02": 0.0,
			"-0.019": 0.0,
			"-0.018": 0.0,
			"-0.017": 0.0,
			"-0.016": 0.0,
			"-0.015": 0.0,
			"-0.014": 0.0,
			"-0.013": 0.0,
			"-0.012": 0.0,
			"-0.011": 0.0,
			"-0.01": 0.0,
			"-0.009": 0.0,
			"-0.008": 0.0,
			"-0.007": 0.0,
			"-0.006": 2.97469674913,
			"-0.005": 14.4211920122,
			"-0.004": 25.6336312252,
			"-0.003": 31.6194261048,
			"-0.002": 21.4897091495,
			"-0.001": 16.0891783063,
			"0.0": 12.9930576665,
			"0.001": 11.2821639749,
			"0.002": 11.5596062765,
			"0.003": 11.1123582563,
			"0.004": 11.1748239807,
			"0.005": 11.8677205542,
			"0.006": 10.7552407334,
			"0.007": 2.36385840838,
			"0.008": 2.57820761193,
			"0.009": 2.58922344701,
			"0.01": 1.98844975086,
			"0.011": 0.901594853614,
			"0.012": 1.04227842517,
			"0.013": 0.607287982407,
			"0.014": 0.0,
			"0.015": 0.0,
			"0.016": 0.0,
			"0.017": 0.0,
			"0.018": 0.0,
			"0.019": 0.0,
			"0.02": 0.0,
			"0.021": 0.0,
			"0.022": 0.0,
			"0.023": 0.0,
			"0.024": 0.0,
			"0.025": 0.0
		}
	}
}
