{
	 "smiles": "CC(=N/O)C1=CC(=C(O)C(=C1)C(C)(C)C)C(C)(C)C", 
	 "Tm": 473.15, 
	 "num_atms": 44, 
	 "gaussian": { 
		 "optdone": 1, 
		 "sigma_profile": "yes", 
		 "theory": "DFT", 
		 "functional": "B3LYP", 
		 "basiset": "6-31G**", 
		 "properties": { 
			 "R2extent": 6209.0789, 
			 "electric_dipole_moment_norm": 1.76656483323, 
			 "electric_quadrupole_moment_norm": 9.70528972417, 
			 "total_energy": -829.935933014, 
			 "HOMO_LUMO_gap": 0.17673, 
			 "cosmo_polarized_energy": -10.38, 
			 "cosmo_cavitation_energy": 42.32, 
			 "cosmo_dispersion_energy": -29.09, 
			 "cosmo_repulsion_energy": 2.24, 
			 "cosmo_total_nonelectrostatic_energy": 15.47, 
			 "SMD_solvation_energy": 7.91 
		},
		"coords": [
			{
				"x": -1.4882644921,
				"y": -3.1149926716,
				"z": -0.3196256368,
				"element": "C" 
			},
			{
				"x": -1.8309154881,
				"y": -1.645981307,
				"z": -0.3150097845,
				"element": "C" 
			},
			{
				"x": -3.0122396656,
				"y": -1.1834596882,
				"z": -0.5446246139,
				"element": "N" 
			},
			{
				"x": -3.9590209294,
				"y": -2.1908808759,
				"z": -0.8021459096,
				"element": "O" 
			},
			{
				"x": -0.7727092156,
				"y": -0.6419110296,
				"z": -0.0333653938,
				"element": "C" 
			},
			{
				"x": -1.0662366598,
				"y": 0.7281066001,
				"z": -0.0217290685,
				"element": "C" 
			},
			{
				"x": -0.1004918875,
				"y": 1.699372814,
				"z": 0.2389999081,
				"element": "C" 
			},
			{
				"x": 1.2210091978,
				"y": 1.2498063903,
				"z": 0.4986222167,
				"element": "C" 
			},
			{
				"x": 2.2402531594,
				"y": 2.1325525932,
				"z": 0.7667218008,
				"element": "O" 
			},
			{
				"x": 1.567658729,
				"y": -0.1204575628,
				"z": 0.4978133751,
				"element": "C" 
			},
			{
				"x": 0.5444757295,
				"y": -1.0350392719,
				"z": 0.2280215764,
				"element": "C" 
			},
			{
				"x": 3.0113517117,
				"y": -0.5988677183,
				"z": 0.7819007183,
				"element": "C" 
			},
			{
				"x": 3.9864117814,
				"y": -0.0269917361,
				"z": -0.2775119458,
				"element": "C" 
			},
			{
				"x": 3.4528080437,
				"y": -0.1640120186,
				"z": 2.2018023122,
				"element": "C" 
			},
			{
				"x": 3.1292867685,
				"y": -2.136518875,
				"z": 0.7222554269,
				"element": "C" 
			},
			{
				"x": -0.4766522017,
				"y": 3.2032163101,
				"z": 0.2406057248,
				"element": "C" 
			},
			{
				"x": -0.2329498901,
				"y": 3.8310279966,
				"z": 1.640426431,
				"element": "C" 
			},
			{
				"x": -1.9728925393,
				"y": 3.4218407408,
				"z": -0.0700707848,
				"element": "C" 
			},
			{
				"x": 0.306231388,
				"y": 3.9687936718,
				"z": -0.8612769078,
				"element": "C" 
			},
			{
				"x": -1.0878403258,
				"y": -3.4195954154,
				"z": 0.6533159355,
				"element": "H" 
			},
			{
				"x": -2.3682183202,
				"y": -3.7156172436,
				"z": -0.5398482737,
				"element": "H" 
			},
			{
				"x": -0.7190811304,
				"y": -3.3282889694,
				"z": -1.0697126268,
				"element": "H" 
			},
			{
				"x": -4.7607560953,
				"y": -1.6724259944,
				"z": -0.9468376784,
				"element": "H" 
			},
			{
				"x": -2.0876748497,
				"y": 1.0149094458,
				"z": -0.2255573728,
				"element": "H" 
			},
			{
				"x": 1.9032360449,
				"y": 3.0330340877,
				"z": 0.7434345745,
				"element": "H" 
			},
			{
				"x": 0.7827408361,
				"y": -2.0889548048,
				"z": 0.2216282381,
				"element": "H" 
			},
			{
				"x": 5.0035812988,
				"y": -0.3846422958,
				"z": -0.0795486139,
				"element": "H" 
			},
			{
				"x": 4.0000038826,
				"y": 1.0629495139,
				"z": -0.2701598874,
				"element": "H" 
			},
			{
				"x": 3.7034258577,
				"y": -0.3615964471,
				"z": -1.2816216721,
				"element": "H" 
			},
			{
				"x": 2.7902316872,
				"y": -0.5957389155,
				"z": 2.9600116397,
				"element": "H" 
			},
			{
				"x": 4.4693594254,
				"y": -0.5220624075,
				"z": 2.4022539672,
				"element": "H" 
			},
			{
				"x": 3.4437633425,
				"y": 0.9200665111,
				"z": 2.3153430604,
				"element": "H" 
			},
			{
				"x": 4.1652184511,
				"y": -2.4237411939,
				"z": 0.9288290447,
				"element": "H" 
			},
			{
				"x": 2.8707224599,
				"y": -2.5336884677,
				"z": -0.2650624181,
				"element": "H" 
			},
			{
				"x": 2.4983082822,
				"y": -2.6296315964,
				"z": 1.4693245894,
				"element": "H" 
			},
			{
				"x": -0.8578798656,
				"y": 3.333037715,
				"z": 2.3879935155,
				"element": "H" 
			},
			{
				"x": -0.4975844999,
				"y": 4.8939547205,
				"z": 1.629317501,
				"element": "H" 
			},
			{
				"x": 0.7982286962,
				"y": 3.7569494208,
				"z": 2.0000902761,
				"element": "H" 
			},
			{
				"x": -2.190373679,
				"y": 4.4948164078,
				"z": -0.0583785819,
				"element": "H" 
			},
			{
				"x": -2.6187304382,
				"y": 2.9449248587,
				"z": 0.6729548757,
				"element": "H" 
			},
			{
				"x": -2.2453538383,
				"y": 3.039502307,
				"z": -1.0581153521,
				"element": "H" 
			},
			{
				"x": 0.036201061,
				"y": 5.0303386322,
				"z": -0.8484491328,
				"element": "H" 
			},
			{
				"x": 0.0550218894,
				"y": 3.5661512455,
				"z": -1.8472585946,
				"element": "H" 
			},
			{
				"x": 1.3955362876,
				"y": 3.9098445239,
				"z": -0.7712564579,
				"element": "H" 
			}
		],
		 "valence_orbital": [ 
			{
				"type": "occ",
				"energy": -0.30097,
				"method": "rhf"
			},
			{
				"type": "occ",
				"energy": -0.26232,
				"method": "rhf"
			},
			{
				"type": "occ",
				"energy": -0.25723,
				"method": "rhf"
			},
			{
				"type": "occ",
				"energy": -0.23704,
				"method": "rhf"
			},
			{
				"type": "occ",
				"energy": -0.19873,
				"method": "rhf"
			},
			{
				"type": "unocc",
				"energy": -0.022,
				"method": "rhf"
			},
			{
				"type": "unocc",
				"energy": 0.00653,
				"method": "rhf"
			},
			{
				"type": "unocc",
				"energy": 0.05871,
				"method": "rhf"
			},
			{
				"type": "unocc",
				"energy": 0.06266,
				"method": "rhf"
			},
			{
				"type": "unocc",
				"energy": 0.08227,
				"method": "rhf"
			}
		],
		"cosmo_sigma_profile": { 
			"-0.025": 0.0,
			"-0.024": 0.0,
			"-0.023": 0.0,
			"-0.022": 0.0,
			"-0.021": 0.0,
			"-0.02": 0.0,
			"-0.019": 0.0,
			"-0.018": 0.0,
			"-0.017": 0.490173851678,
			"-0.016": 0.998620410467,
			"-0.015": 1.2283161872,
			"-0.014": 1.12067180025,
			"-0.013": 1.50219215624,
			"-0.012": 1.38187749703,
			"-0.011": 0.714762666665,
			"-0.01": 1.46368450077,
			"-0.009": 1.66623810616,
			"-0.008": 1.74608946176,
			"-0.007": 1.40102411316,
			"-0.006": 1.59932242924,
			"-0.005": 6.63317896754,
			"-0.004": 12.6599986475,
			"-0.003": 33.7829096421,
			"-0.002": 43.3273145551,
			"-0.001": 38.8996775263,
			"0.0": 42.7308916595,
			"0.001": 38.0051577494,
			"0.002": 25.9443063514,
			"0.003": 14.023186815,
			"0.004": 14.6464547622,
			"0.005": 15.7736287776,
			"0.006": 10.0689505648,
			"0.007": 5.99817786688,
			"0.008": 3.71077676267,
			"0.009": 4.1148827022,
			"0.01": 2.65252383004,
			"0.011": 0.828740015209,
			"0.012": 0.0,
			"0.013": 0.0,
			"0.014": 0.0,
			"0.015": 0.0,
			"0.016": 0.0,
			"0.017": 0.0,
			"0.018": 0.0,
			"0.019": 0.0,
			"0.02": 0.0,
			"0.021": 0.0,
			"0.022": 0.0,
			"0.023": 0.0,
			"0.024": 0.0,
			"0.025": 0.0
		}
	}
}
