{
	 "smiles": "COC1=CC(F)=C(Br)C=C1F", 
	 "Tm": 336.15, 
	 "num_atms": 16, 
	 "gaussian": { 
		 "optdone": 1, 
		 "sigma_profile": "yes", 
		 "theory": "DFT", 
		 "functional": "B3LYP", 
		 "basiset": "6-31G**", 
		 "properties": { 
			 "R2extent": 3304.1577, 
			 "electric_dipole_moment_norm": 2.71569394999, 
			 "electric_quadrupole_moment_norm": 3.23824210028, 
			 "total_energy": -3116.02795616, 
			 "HOMO_LUMO_gap": 0.20319, 
			 "cosmo_polarized_energy": -4.51, 
			 "cosmo_cavitation_energy": 23.54, 
			 "cosmo_dispersion_energy": -17.76, 
			 "cosmo_repulsion_energy": 1.38, 
			 "cosmo_total_nonelectrostatic_energy": 7.16, 
			 "SMD_solvation_energy": 4.69 
		},
		"coords": [
			{
				"x": -2.9551654307,
				"y": -1.2600265628,
				"z": 1.3956310556,
				"element": "C" 
			},
			{
				"x": -1.682471492,
				"y": -1.6680399989,
				"z": 0.8859989844,
				"element": "O" 
			},
			{
				"x": -0.9142830932,
				"y": -0.8321440904,
				"z": 0.1450862332,
				"element": "C" 
			},
			{
				"x": 0.3083316911,
				"y": -1.3660416713,
				"z": -0.2879773554,
				"element": "C" 
			},
			{
				"x": 1.1845704783,
				"y": -0.6128844064,
				"z": -1.0529680399,
				"element": "C" 
			},
			{
				"x": 2.3424679998,
				"y": -1.1670847186,
				"z": -1.4438810366,
				"element": "F" 
			},
			{
				"x": 0.8811188325,
				"y": 0.6991381427,
				"z": -1.4174162663,
				"element": "C" 
			},
			{
				"x": 2.0974853594,
				"y": 1.7098909921,
				"z": -2.4654715348,
				"element": "Br" 
			},
			{
				"x": -0.3278054217,
				"y": 1.2444079438,
				"z": -0.9960147598,
				"element": "C" 
			},
			{
				"x": -1.2070178107,
				"y": 0.4900959807,
				"z": -0.2291506355,
				"element": "C" 
			},
			{
				"x": -2.3688501126,
				"y": 1.0787371872,
				"z": 0.1499683473,
				"element": "F" 
			},
			{
				"x": -2.8624787125,
				"y": -0.4098903137,
				"z": 2.0769534876,
				"element": "H" 
			},
			{
				"x": -3.3305703172,
				"y": -2.1272115319,
				"z": 1.940588952,
				"element": "H" 
			},
			{
				"x": -3.6484631757,
				"y": -1.00410801,
				"z": 0.5898308495,
				"element": "H" 
			},
			{
				"x": 0.5640280671,
				"y": -2.3833634429,
				"z": -0.0161565578,
				"element": "H" 
			},
			{
				"x": -0.6035968619,
				"y": 2.2592245005,
				"z": -1.2561217236,
				"element": "H" 
			}
		],
		 "valence_orbital": [ 
			{
				"type": "occ",
				"energy": -0.34069,
				"method": "rhf"
			},
			{
				"type": "occ",
				"energy": -0.29556,
				"method": "rhf"
			},
			{
				"type": "occ",
				"energy": -0.29258,
				"method": "rhf"
			},
			{
				"type": "occ",
				"energy": -0.26007,
				"method": "rhf"
			},
			{
				"type": "occ",
				"energy": -0.22672,
				"method": "rhf"
			},
			{
				"type": "unocc",
				"energy": -0.02353,
				"method": "rhf"
			},
			{
				"type": "unocc",
				"energy": -0.00276,
				"method": "rhf"
			},
			{
				"type": "unocc",
				"energy": -0.00264,
				"method": "rhf"
			},
			{
				"type": "unocc",
				"energy": 0.07465,
				"method": "rhf"
			},
			{
				"type": "unocc",
				"energy": 0.11317,
				"method": "rhf"
			}
		],
		"cosmo_sigma_profile": { 
			"-0.025": 0.0,
			"-0.024": 0.0,
			"-0.023": 0.0,
			"-0.022": 0.0,
			"-0.021": 0.0,
			"-0.02": 0.0,
			"-0.019": 0.0,
			"-0.018": 0.0,
			"-0.017": 0.0,
			"-0.016": 0.0,
			"-0.015": 0.0,
			"-0.014": 0.0,
			"-0.013": 0.0,
			"-0.012": 0.0,
			"-0.011": 0.0,
			"-0.01": 0.0,
			"-0.009": 1.17442870703,
			"-0.008": 2.87786176753,
			"-0.007": 2.16594490899,
			"-0.006": 7.17420505537,
			"-0.005": 11.4917947236,
			"-0.004": 13.0974198721,
			"-0.003": 13.4070255656,
			"-0.002": 10.3469344687,
			"-0.001": 13.4008516508,
			"0.0": 24.3335577238,
			"0.001": 23.5566706028,
			"0.002": 15.0666179423,
			"0.003": 20.5496859846,
			"0.004": 22.2618447276,
			"0.005": 5.97629288059,
			"0.006": 1.81848557312,
			"0.007": 1.40841533112,
			"0.008": 0.99964984901,
			"0.009": 1.3399741331,
			"0.01": 0.0150601962192,
			"0.011": 0.0,
			"0.012": 0.0,
			"0.013": 0.0,
			"0.014": 0.0,
			"0.015": 0.0,
			"0.016": 0.0,
			"0.017": 0.0,
			"0.018": 0.0,
			"0.019": 0.0,
			"0.02": 0.0,
			"0.021": 0.0,
			"0.022": 0.0,
			"0.023": 0.0,
			"0.024": 0.0,
			"0.025": 0.0
		}
	}
}
