{
	 "smiles": "C=CCNC(=O)NCC=C", 
	 "Tm": 364.65, 
	 "num_atms": 22, 
	 "gaussian": { 
		 "optdone": 1, 
		 "sigma_profile": "yes", 
		 "theory": "DFT", 
		 "functional": "B3LYP", 
		 "basiset": "6-31G**", 
		 "properties": { 
			 "R2extent": 2113.8664, 
			 "electric_dipole_moment_norm": 3.19472833743, 
			 "electric_quadrupole_moment_norm": 8.60877799052, 
			 "total_energy": -458.665102974, 
			 "HOMO_LUMO_gap": 0.23948, 
			 "cosmo_polarized_energy": -12.13, 
			 "cosmo_cavitation_energy": 25.71, 
			 "cosmo_dispersion_energy": -17.65, 
			 "cosmo_repulsion_energy": 1.45, 
			 "cosmo_total_nonelectrostatic_energy": 9.52, 
			 "SMD_solvation_energy": 5.27 
		},
		"coords": [
			{
				"x": -3.363704861,
				"y": 0.2986006051,
				"z": -2.0262740233,
				"element": "C" 
			},
			{
				"x": -2.8145384243,
				"y": -0.7379322533,
				"z": -1.3931228993,
				"element": "C" 
			},
			{
				"x": -1.4274571301,
				"y": -1.2705693959,
				"z": -1.6567583893,
				"element": "C" 
			},
			{
				"x": -0.7308226149,
				"y": -1.6529528895,
				"z": -0.4199081261,
				"element": "N" 
			},
			{
				"x": 0.611341158,
				"y": -1.4025040136,
				"z": -0.1584743084,
				"element": "C" 
			},
			{
				"x": 1.324040617,
				"y": -2.2342523333,
				"z": 0.392805638,
				"element": "O" 
			},
			{
				"x": 1.1075428935,
				"y": -0.1647327353,
				"z": -0.5511100203,
				"element": "N" 
			},
			{
				"x": 0.3855368399,
				"y": 1.1082936514,
				"z": -0.4117100121,
				"element": "C" 
			},
			{
				"x": 0.5515365623,
				"y": 1.9978053083,
				"z": -1.6193663056,
				"element": "C" 
			},
			{
				"x": -0.4194845085,
				"y": 2.7331042989,
				"z": -2.1609657802,
				"element": "C" 
			},
			{
				"x": -4.38179085,
				"y": 0.6166497869,
				"z": -1.8221046544,
				"element": "H" 
			},
			{
				"x": -2.8174135747,
				"y": 0.8604454594,
				"z": -2.7797947426,
				"element": "H" 
			},
			{
				"x": -3.3920756969,
				"y": -1.2814961558,
				"z": -0.6451443674,
				"element": "H" 
			},
			{
				"x": -1.4971061633,
				"y": -2.1516128028,
				"z": -2.3138859511,
				"element": "H" 
			},
			{
				"x": -0.8275658954,
				"y": -0.5325698563,
				"z": -2.19346898,
				"element": "H" 
			},
			{
				"x": -0.948915428,
				"y": -2.5851014037,
				"z": -0.090850236,
				"element": "H" 
			},
			{
				"x": 2.0851919145,
				"y": -0.1190157146,
				"z": -0.2925676428,
				"element": "H" 
			},
			{
				"x": -0.6711467467,
				"y": 0.9036331372,
				"z": -0.2269759683,
				"element": "H" 
			},
			{
				"x": 0.7604489562,
				"y": 1.6350797691,
				"z": 0.4798151531,
				"element": "H" 
			},
			{
				"x": 1.5579380355,
				"y": 2.0407803099,
				"z": -2.0362448682,
				"element": "H" 
			},
			{
				"x": -0.2345341573,
				"y": 3.3854006964,
				"z": -3.0092844015,
				"element": "H" 
			},
			{
				"x": -1.4331209256,
				"y": 2.7166465316,
				"z": -1.7683091142,
				"element": "H" 
			}
		],
		 "valence_orbital": [ 
			{
				"type": "occ",
				"energy": -0.27505,
				"method": "rhf"
			},
			{
				"type": "occ",
				"energy": -0.26905,
				"method": "rhf"
			},
			{
				"type": "occ",
				"energy": -0.25974,
				"method": "rhf"
			},
			{
				"type": "occ",
				"energy": -0.24989,
				"method": "rhf"
			},
			{
				"type": "occ",
				"energy": -0.23451,
				"method": "rhf"
			},
			{
				"type": "unocc",
				"energy": 0.00497,
				"method": "rhf"
			},
			{
				"type": "unocc",
				"energy": 0.00809,
				"method": "rhf"
			},
			{
				"type": "unocc",
				"energy": 0.04906,
				"method": "rhf"
			},
			{
				"type": "unocc",
				"energy": 0.08456,
				"method": "rhf"
			},
			{
				"type": "unocc",
				"energy": 0.10751,
				"method": "rhf"
			}
		],
		"cosmo_sigma_profile": { 
			"-0.025": 0.0,
			"-0.024": 0.0,
			"-0.023": 0.0,
			"-0.022": 0.0,
			"-0.021": 0.0,
			"-0.02": 0.0,
			"-0.019": 0.0,
			"-0.018": 0.0,
			"-0.017": 0.0,
			"-0.016": 0.0,
			"-0.015": 0.0,
			"-0.014": 0.0,
			"-0.013": 0.871469095419,
			"-0.012": 2.34169707694,
			"-0.011": 2.04225442547,
			"-0.01": 1.95214781852,
			"-0.009": 2.2632764287,
			"-0.008": 2.02020156724,
			"-0.007": 2.30161124833,
			"-0.006": 5.89424186149,
			"-0.005": 15.2130675253,
			"-0.004": 15.6216500915,
			"-0.003": 20.0973269084,
			"-0.002": 21.0073571369,
			"-0.001": 18.871173494,
			"0.0": 15.6893988704,
			"0.001": 11.6990682391,
			"0.002": 10.2320758771,
			"0.003": 10.2374695872,
			"0.004": 8.15602842003,
			"0.005": 8.63587432802,
			"0.006": 6.34841478332,
			"0.007": 2.13320176853,
			"0.008": 1.38005871482,
			"0.009": 1.99440584496,
			"0.01": 1.17916639711,
			"0.011": 0.880046969064,
			"0.012": 1.50592279408,
			"0.013": 2.38490596566,
			"0.014": 5.50947134501,
			"0.015": 3.93358096211,
			"0.016": 0.0563924563088,
			"0.017": 0.0,
			"0.018": 0.0,
			"0.019": 0.0,
			"0.02": 0.0,
			"0.021": 0.0,
			"0.022": 0.0,
			"0.023": 0.0,
			"0.024": 0.0,
			"0.025": 0.0
		}
	}
}
