{
	 "smiles": "ClS(=O)(=O)C1=CC=C(OCC2=CC=CC=C2)C=C1", 
	 "Tm": 369.15, 
	 "num_atms": 29, 
	 "gaussian": { 
		 "optdone": 1, 
		 "sigma_profile": "yes", 
		 "theory": "DFT", 
		 "functional": "B3LYP", 
		 "basiset": "6-31G**", 
		 "properties": { 
			 "R2extent": 8529.2033, 
			 "electric_dipole_moment_norm": 7.25461759295, 
			 "electric_quadrupole_moment_norm": 23.1510614297, 
			 "total_energy": -1585.9895445, 
			 "HOMO_LUMO_gap": 0.17323, 
			 "cosmo_polarized_energy": -12.31, 
			 "cosmo_cavitation_energy": 37.05, 
			 "cosmo_dispersion_energy": -26.78, 
			 "cosmo_repulsion_energy": 2.04, 
			 "cosmo_total_nonelectrostatic_energy": 12.31, 
			 "SMD_solvation_energy": 5.11 
		},
		"coords": [
			{
				"x": 1.3740399693,
				"y": -3.2046785002,
				"z": 4.3294958549,
				"element": "Cl" 
			},
			{
				"x": 2.776799061,
				"y": -2.2673198072,
				"z": 3.0052277898,
				"element": "S" 
			},
			{
				"x": 3.6791581352,
				"y": -1.5075907461,
				"z": 3.8625073362,
				"element": "O" 
			},
			{
				"x": 3.2494925964,
				"y": -3.3251224494,
				"z": 2.1196524452,
				"element": "O" 
			},
			{
				"x": 1.7376570486,
				"y": -1.1516184089,
				"z": 2.0992990624,
				"element": "C" 
			},
			{
				"x": 1.1468408663,
				"y": -1.5849442849,
				"z": 0.9127446257,
				"element": "C" 
			},
			{
				"x": 0.3378158755,
				"y": -0.7108937028,
				"z": 0.1914746456,
				"element": "C" 
			},
			{
				"x": 0.1262016667,
				"y": 0.5924465129,
				"z": 0.6692512863,
				"element": "C" 
			},
			{
				"x": -0.627414585,
				"y": 1.5323745899,
				"z": 0.045940921,
				"element": "O" 
			},
			{
				"x": -1.194540715,
				"y": 1.2554661406,
				"z": -1.2416792286,
				"element": "C" 
			},
			{
				"x": -2.4143548536,
				"y": 0.3578181238,
				"z": -1.1995571527,
				"element": "C" 
			},
			{
				"x": -3.3223305808,
				"y": 0.4327893129,
				"z": -0.1364464431,
				"element": "C" 
			},
			{
				"x": -4.4677882774,
				"y": -0.3628782109,
				"z": -0.1322579554,
				"element": "C" 
			},
			{
				"x": -4.7232212428,
				"y": -1.2342385558,
				"z": -1.1937740582,
				"element": "C" 
			},
			{
				"x": -3.8242196776,
				"y": -1.3103691682,
				"z": -2.258444644,
				"element": "C" 
			},
			{
				"x": -2.6727933956,
				"y": -0.520864083,
				"z": -2.2579084874,
				"element": "C" 
			},
			{
				"x": 0.7245928776,
				"y": 1.0102143905,
				"z": 1.8725686091,
				"element": "C" 
			},
			{
				"x": 1.5286610471,
				"y": 0.1421556412,
				"z": 2.5924305631,
				"element": "C" 
			},
			{
				"x": 1.3224202447,
				"y": -2.5931769239,
				"z": 0.5547221924,
				"element": "H" 
			},
			{
				"x": -0.1352486999,
				"y": -1.0554713076,
				"z": -0.7187023072,
				"element": "H" 
			},
			{
				"x": -1.4625334574,
				"y": 2.2472997063,
				"z": -1.6194293041,
				"element": "H" 
			},
			{
				"x": -0.4282917196,
				"y": 0.8441590485,
				"z": -1.9106918284,
				"element": "H" 
			},
			{
				"x": -3.1225023729,
				"y": 1.1088893346,
				"z": 0.6892440709,
				"element": "H" 
			},
			{
				"x": -5.1625834394,
				"y": -0.3019206836,
				"z": 0.7003686308,
				"element": "H" 
			},
			{
				"x": -5.6158698771,
				"y": -1.8527100906,
				"z": -1.1887816171,
				"element": "H" 
			},
			{
				"x": -4.0128795477,
				"y": -1.9892835972,
				"z": -3.0849511891,
				"element": "H" 
			},
			{
				"x": -1.9716328553,
				"y": -0.5888229286,
				"z": -3.0870127935,
				"element": "H" 
			},
			{
				"x": 0.5484138418,
				"y": 2.024674417,
				"z": 2.2129772473,
				"element": "H" 
			},
			{
				"x": 2.003312067,
				"y": 0.4580162308,
				"z": 3.514531728,
				"element": "H" 
			}
		],
		 "valence_orbital": [ 
			{
				"type": "occ",
				"energy": -0.30438,
				"method": "rhf"
			},
			{
				"type": "occ",
				"energy": -0.28528,
				"method": "rhf"
			},
			{
				"type": "occ",
				"energy": -0.26659,
				"method": "rhf"
			},
			{
				"type": "occ",
				"energy": -0.26178,
				"method": "rhf"
			},
			{
				"type": "occ",
				"energy": -0.2547,
				"method": "rhf"
			},
			{
				"type": "unocc",
				"energy": -0.08147,
				"method": "rhf"
			},
			{
				"type": "unocc",
				"energy": -0.03474,
				"method": "rhf"
			},
			{
				"type": "unocc",
				"energy": -0.02927,
				"method": "rhf"
			},
			{
				"type": "unocc",
				"energy": -0.02103,
				"method": "rhf"
			},
			{
				"type": "unocc",
				"energy": -0.01819,
				"method": "rhf"
			}
		],
		"cosmo_sigma_profile": { 
			"-0.025": 0.0,
			"-0.024": 0.0,
			"-0.023": 0.0,
			"-0.022": 0.0,
			"-0.021": 0.0,
			"-0.02": 0.0,
			"-0.019": 0.0,
			"-0.018": 0.0,
			"-0.017": 0.0,
			"-0.016": 0.0,
			"-0.015": 0.0,
			"-0.014": 0.0,
			"-0.013": 0.0,
			"-0.012": 0.0,
			"-0.011": 0.0,
			"-0.01": 0.0,
			"-0.009": 0.656663507647,
			"-0.008": 5.26206047187,
			"-0.007": 12.6410940432,
			"-0.006": 17.7962737138,
			"-0.005": 21.6622475386,
			"-0.004": 19.8732716428,
			"-0.003": 18.9833950847,
			"-0.002": 16.4539846935,
			"-0.001": 21.0670684974,
			"0.0": 22.4045056641,
			"0.001": 29.6503509018,
			"0.002": 22.8775945271,
			"0.003": 22.2160440317,
			"0.004": 22.7855406303,
			"0.005": 14.6864749076,
			"0.006": 7.01603313444,
			"0.007": 6.47966602212,
			"0.008": 10.5429992537,
			"0.009": 6.4956285686,
			"0.01": 0.287209734888,
			"0.011": 0.0,
			"0.012": 0.0,
			"0.013": 0.0,
			"0.014": 0.0,
			"0.015": 0.0,
			"0.016": 0.0,
			"0.017": 0.0,
			"0.018": 0.0,
			"0.019": 0.0,
			"0.02": 0.0,
			"0.021": 0.0,
			"0.022": 0.0,
			"0.023": 0.0,
			"0.024": 0.0,
			"0.025": 0.0
		}
	}
}
