{
	 "smiles": "CC1=C2N=CN=C(Cl)C2=CC=C1", 
	 "Tm": 405.15, 
	 "num_atms": 19, 
	 "gaussian": { 
		 "optdone": 1, 
		 "sigma_profile": "yes", 
		 "theory": "DFT", 
		 "functional": "B3LYP", 
		 "basiset": "6-31G**", 
		 "properties": { 
			 "R2extent": 3505.6231, 
			 "electric_dipole_moment_norm": 3.08493898481, 
			 "electric_quadrupole_moment_norm": 7.25026153873, 
			 "total_energy": -916.8845232, 
			 "HOMO_LUMO_gap": 0.17233, 
			 "cosmo_polarized_energy": -6.44, 
			 "cosmo_cavitation_energy": 24.64, 
			 "cosmo_dispersion_energy": -18.66, 
			 "cosmo_repulsion_energy": 1.46, 
			 "cosmo_total_nonelectrostatic_energy": 7.44, 
			 "SMD_solvation_energy": 1.49 
		},
		"coords": [
			{
				"x": -2.3689206683,
				"y": -0.4408828594,
				"z": 0.8750478228,
				"element": "C" 
			},
			{
				"x": -0.8982976408,
				"y": -0.2194886065,
				"z": 0.6423505989,
				"element": "C" 
			},
			{
				"x": 0.0548683585,
				"y": -0.7642662302,
				"z": 1.5581750296,
				"element": "C" 
			},
			{
				"x": -0.3986214174,
				"y": -1.4780398991,
				"z": 2.6300633826,
				"element": "N" 
			},
			{
				"x": 0.5065364929,
				"y": -1.9612381894,
				"z": 3.4467020064,
				"element": "C" 
			},
			{
				"x": 1.8584324678,
				"y": -1.8293905027,
				"z": 3.3442369833,
				"element": "N" 
			},
			{
				"x": 2.2936299013,
				"y": -1.1492978394,
				"z": 2.3232032572,
				"element": "C" 
			},
			{
				"x": 4.0426948885,
				"y": -0.9748359962,
				"z": 2.184299067,
				"element": "Cl" 
			},
			{
				"x": 1.4536245192,
				"y": -0.5544916123,
				"z": 1.338276601,
				"element": "C" 
			},
			{
				"x": 1.8933100364,
				"y": 0.1903296277,
				"z": 0.2171327855,
				"element": "C" 
			},
			{
				"x": 0.9608740022,
				"y": 0.7064473144,
				"z": -0.6528019162,
				"element": "C" 
			},
			{
				"x": -0.422794215,
				"y": 0.5002212097,
				"z": -0.4372347004,
				"element": "C" 
			},
			{
				"x": -2.6784695211,
				"y": -0.0383060248,
				"z": 1.8445607835,
				"element": "H" 
			},
			{
				"x": -2.9631500038,
				"y": 0.0358150706,
				"z": 0.0912797814,
				"element": "H" 
			},
			{
				"x": -2.6071829252,
				"y": -1.5088805285,
				"z": 0.8961165541,
				"element": "H" 
			},
			{
				"x": 0.159002765,
				"y": -2.5317801891,
				"z": 4.3049229906,
				"element": "H" 
			},
			{
				"x": 2.9544106239,
				"y": 0.343409433,
				"z": 0.0597477685,
				"element": "H" 
			},
			{
				"x": 1.2842072156,
				"y": 1.2794887397,
				"z": -1.5165376704,
				"element": "H" 
			},
			{
				"x": -1.1326548795,
				"y": 0.9218870824,
				"z": -1.1440411252,
				"element": "H" 
			}
		],
		 "valence_orbital": [ 
			{
				"type": "occ",
				"energy": -0.31086,
				"method": "rhf"
			},
			{
				"type": "occ",
				"energy": -0.30576,
				"method": "rhf"
			},
			{
				"type": "occ",
				"energy": -0.27755,
				"method": "rhf"
			},
			{
				"type": "occ",
				"energy": -0.26429,
				"method": "rhf"
			},
			{
				"type": "occ",
				"energy": -0.24547,
				"method": "rhf"
			},
			{
				"type": "unocc",
				"energy": -0.07314,
				"method": "rhf"
			},
			{
				"type": "unocc",
				"energy": -0.04058,
				"method": "rhf"
			},
			{
				"type": "unocc",
				"energy": 0.00818,
				"method": "rhf"
			},
			{
				"type": "unocc",
				"energy": 0.02713,
				"method": "rhf"
			},
			{
				"type": "unocc",
				"energy": 0.06727,
				"method": "rhf"
			}
		],
		"cosmo_sigma_profile": { 
			"-0.025": 0.0,
			"-0.024": 0.0,
			"-0.023": 0.0,
			"-0.022": 0.0,
			"-0.021": 0.0,
			"-0.02": 0.0,
			"-0.019": 0.0,
			"-0.018": 0.0,
			"-0.017": 0.0,
			"-0.016": 0.0,
			"-0.015": 0.0,
			"-0.014": 0.0,
			"-0.013": 0.0,
			"-0.012": 0.0,
			"-0.011": 0.0,
			"-0.01": 0.0,
			"-0.009": 0.0123248224883,
			"-0.008": 1.57063343866,
			"-0.007": 4.94544645188,
			"-0.006": 8.95074727725,
			"-0.005": 10.5373940175,
			"-0.004": 11.8266594061,
			"-0.003": 15.0066034295,
			"-0.002": 18.5134153682,
			"-0.001": 24.1422854408,
			"0.0": 24.0819775216,
			"0.001": 18.9286686192,
			"0.002": 18.0331454757,
			"0.003": 14.9300128656,
			"0.004": 7.7251449707,
			"0.005": 3.8903235904,
			"0.006": 2.96058720114,
			"0.007": 2.35572304118,
			"0.008": 3.10732455586,
			"0.009": 1.80203946715,
			"0.01": 2.20702082036,
			"0.011": 1.82707586541,
			"0.012": 1.39589832225,
			"0.013": 1.41075117511,
			"0.014": 0.309082504082,
			"0.015": 0.0,
			"0.016": 0.0,
			"0.017": 0.0,
			"0.018": 0.0,
			"0.019": 0.0,
			"0.02": 0.0,
			"0.021": 0.0,
			"0.022": 0.0,
			"0.023": 0.0,
			"0.024": 0.0,
			"0.025": 0.0
		}
	}
}
