{
	 "smiles": "C(OC1=CC=CC=C1)C1CO1", 
	 "Tm": 276.9, 
	 "num_atms": 21, 
	 "gaussian": { 
		 "optdone": 1, 
		 "sigma_profile": "yes", 
		 "theory": "DFT", 
		 "functional": "B3LYP", 
		 "basiset": "6-31G**", 
		 "properties": { 
			 "R2extent": 2693.7192, 
			 "electric_dipole_moment_norm": 0.837296518564, 
			 "electric_quadrupole_moment_norm": 6.45448461072, 
			 "total_energy": -499.370381798, 
			 "HOMO_LUMO_gap": 0.21957, 
			 "cosmo_polarized_energy": -7.83, 
			 "cosmo_cavitation_energy": 24.96, 
			 "cosmo_dispersion_energy": -18.47, 
			 "cosmo_repulsion_energy": 1.5, 
			 "cosmo_total_nonelectrostatic_energy": 8.0, 
			 "SMD_solvation_energy": 4.47 
		},
		"coords": [
			{
				"x": 0.3625791285,
				"y": -1.5747002395,
				"z": -0.4012065256,
				"element": "C" 
			},
			{
				"x": -0.580074414,
				"y": -0.5104623778,
				"z": -0.3798072254,
				"element": "O" 
			},
			{
				"x": -0.2653313859,
				"y": 0.6553062467,
				"z": -1.0239838951,
				"element": "C" 
			},
			{
				"x": -1.2176278881,
				"y": 1.679921971,
				"z": -0.9212119585,
				"element": "C" 
			},
			{
				"x": -0.9927668983,
				"y": 2.9021114855,
				"z": -1.5447565694,
				"element": "C" 
			},
			{
				"x": 0.1794961193,
				"y": 3.1219565782,
				"z": -2.2768001233,
				"element": "C" 
			},
			{
				"x": 1.1209254858,
				"y": 2.1002780825,
				"z": -2.3756052517,
				"element": "C" 
			},
			{
				"x": 0.9095544497,
				"y": 0.8643136643,
				"z": -1.7551065682,
				"element": "C" 
			},
			{
				"x": -0.207177886,
				"y": -2.6907758838,
				"z": 0.4399405389,
				"element": "C" 
			},
			{
				"x": -0.9436221194,
				"y": -3.8058746317,
				"z": -0.1679447982,
				"element": "C" 
			},
			{
				"x": 0.4194325124,
				"y": -3.962128797,
				"z": 0.253151964,
				"element": "O" 
			},
			{
				"x": 0.5380900851,
				"y": -1.9353016824,
				"z": -1.4241127195,
				"element": "H" 
			},
			{
				"x": 1.3262821819,
				"y": -1.2459218737,
				"z": 0.0137624907,
				"element": "H" 
			},
			{
				"x": -2.1202176246,
				"y": 1.4919735516,
				"z": -0.3487927377,
				"element": "H" 
			},
			{
				"x": -1.736847112,
				"y": 3.6889783484,
				"z": -1.4584041968,
				"element": "H" 
			},
			{
				"x": 0.3528522334,
				"y": 4.077319875,
				"z": -2.7621503209,
				"element": "H" 
			},
			{
				"x": 2.0353988345,
				"y": 2.2554834649,
				"z": -2.9413485552,
				"element": "H" 
			},
			{
				"x": 1.6558528149,
				"y": 0.0843174486,
				"z": -1.8495975599,
				"element": "H" 
			},
			{
				"x": -0.4204652765,
				"y": -2.426081858,
				"z": 1.4767914116,
				"element": "H" 
			},
			{
				"x": -1.1054690898,
				"y": -3.8172469642,
				"z": -1.2458125759,
				"element": "H" 
			},
			{
				"x": -1.6803641509,
				"y": -4.3502664085,
				"z": 0.421695176,
				"element": "H" 
			}
		],
		 "valence_orbital": [ 
			{
				"type": "occ",
				"energy": -0.32335,
				"method": "rhf"
			},
			{
				"type": "occ",
				"energy": -0.30828,
				"method": "rhf"
			},
			{
				"type": "occ",
				"energy": -0.27599,
				"method": "rhf"
			},
			{
				"type": "occ",
				"energy": -0.25045,
				"method": "rhf"
			},
			{
				"type": "occ",
				"energy": -0.22069,
				"method": "rhf"
			},
			{
				"type": "unocc",
				"energy": -0.00112,
				"method": "rhf"
			},
			{
				"type": "unocc",
				"energy": 0.01284,
				"method": "rhf"
			},
			{
				"type": "unocc",
				"energy": 0.08198,
				"method": "rhf"
			},
			{
				"type": "unocc",
				"energy": 0.09302,
				"method": "rhf"
			},
			{
				"type": "unocc",
				"energy": 0.10104,
				"method": "rhf"
			}
		],
		"cosmo_sigma_profile": { 
			"-0.025": 0.0,
			"-0.024": 0.0,
			"-0.023": 0.0,
			"-0.022": 0.0,
			"-0.021": 0.0,
			"-0.02": 0.0,
			"-0.019": 0.0,
			"-0.018": 0.0,
			"-0.017": 0.0,
			"-0.016": 0.0,
			"-0.015": 0.0,
			"-0.014": 0.0,
			"-0.013": 0.0,
			"-0.012": 0.0,
			"-0.011": 0.0,
			"-0.01": 0.0,
			"-0.009": 0.0,
			"-0.008": 0.0,
			"-0.007": 3.1272768832,
			"-0.006": 18.2418543314,
			"-0.005": 22.3409773128,
			"-0.004": 19.8083227679,
			"-0.003": 17.7479302388,
			"-0.002": 11.8979660423,
			"-0.001": 11.3784139242,
			"0.0": 9.51294949342,
			"0.001": 9.30703565413,
			"0.002": 9.22705368698,
			"0.003": 10.7246416531,
			"0.004": 13.3485416765,
			"0.005": 12.8917830522,
			"0.006": 11.4892788454,
			"0.007": 3.27887855116,
			"0.008": 3.07014937982,
			"0.009": 2.93674532161,
			"0.01": 2.63482556945,
			"0.011": 3.28108018164,
			"0.012": 2.04579917223,
			"0.013": 0.148832023726,
			"0.014": 0.0,
			"0.015": 0.0,
			"0.016": 0.0,
			"0.017": 0.0,
			"0.018": 0.0,
			"0.019": 0.0,
			"0.02": 0.0,
			"0.021": 0.0,
			"0.022": 0.0,
			"0.023": 0.0,
			"0.024": 0.0,
			"0.025": 0.0
		}
	}
}
