{
	 "smiles": "CC(CO)(NC(=O)C1=CC=CC=C1)C(O)=O", 
	 "Tm": 429.15, 
	 "num_atms": 29, 
	 "gaussian": { 
		 "optdone": 1, 
		 "sigma_profile": "yes", 
		 "theory": "DFT", 
		 "functional": "B3LYP", 
		 "basiset": "6-31G**", 
		 "properties": { 
			 "R2extent": 4292.0602, 
			 "electric_dipole_moment_norm": 6.54563316876, 
			 "electric_quadrupole_moment_norm": 19.9521643751, 
			 "total_energy": -782.68247382, 
			 "HOMO_LUMO_gap": 0.19587, 
			 "cosmo_polarized_energy": -17.43, 
			 "cosmo_cavitation_energy": 32.07, 
			 "cosmo_dispersion_energy": -23.09, 
			 "cosmo_repulsion_energy": 1.79, 
			 "cosmo_total_nonelectrostatic_energy": 10.77, 
			 "SMD_solvation_energy": 6.67 
		},
		"coords": [
			{
				"x": 0.6679388288,
				"y": 2.5599792269,
				"z": -1.5618347051,
				"element": "C" 
			},
			{
				"x": 1.3601785984,
				"y": 1.8366342812,
				"z": -0.3865881118,
				"element": "C" 
			},
			{
				"x": 2.7579574087,
				"y": 1.3408768855,
				"z": -0.8002854002,
				"element": "C" 
			},
			{
				"x": 2.5714627535,
				"y": 0.2811501307,
				"z": -1.7417085125,
				"element": "O" 
			},
			{
				"x": 0.612065966,
				"y": 0.6175374723,
				"z": -0.0033074435,
				"element": "N" 
			},
			{
				"x": -0.6816279728,
				"y": 0.5567083111,
				"z": 0.3957009643,
				"element": "C" 
			},
			{
				"x": -1.3412824921,
				"y": 1.5675899456,
				"z": 0.7053103201,
				"element": "O" 
			},
			{
				"x": -1.3115431903,
				"y": -0.8005269101,
				"z": 0.4614267481,
				"element": "C" 
			},
			{
				"x": -0.5709499029,
				"y": -1.9912608868,
				"z": 0.5090363999,
				"element": "C" 
			},
			{
				"x": -1.2236263336,
				"y": -3.2215232617,
				"z": 0.5715662549,
				"element": "C" 
			},
			{
				"x": -2.6190018879,
				"y": -3.2741492367,
				"z": 0.5854391299,
				"element": "C" 
			},
			{
				"x": -3.3613499736,
				"y": -2.0912800397,
				"z": 0.5500381029,
				"element": "C" 
			},
			{
				"x": -2.7117949565,
				"y": -0.8604608861,
				"z": 0.496231049,
				"element": "C" 
			},
			{
				"x": 1.5664743907,
				"y": 2.8389189156,
				"z": 0.7874598626,
				"element": "C" 
			},
			{
				"x": 0.486539082,
				"y": 3.2353717106,
				"z": 1.44809654,
				"element": "O" 
			},
			{
				"x": 2.6719175046,
				"y": 3.2806558507,
				"z": 1.0247041236,
				"element": "O" 
			},
			{
				"x": -0.3603173372,
				"y": 2.8218979487,
				"z": -1.3072970232,
				"element": "H" 
			},
			{
				"x": 1.2116789378,
				"y": 3.4774112128,
				"z": -1.8065085397,
				"element": "H" 
			},
			{
				"x": 0.6665127691,
				"y": 1.9077719033,
				"z": -2.4388856937,
				"element": "H" 
			},
			{
				"x": 3.2984606779,
				"y": 0.9947313914,
				"z": 0.0886819688,
				"element": "H" 
			},
			{
				"x": 3.3155943017,
				"y": 2.1782992436,
				"z": -1.2305048525,
				"element": "H" 
			},
			{
				"x": 3.435466592,
				"y": -0.0934481726,
				"z": -1.9497158678,
				"element": "H" 
			},
			{
				"x": 0.9956433721,
				"y": -0.2064373047,
				"z": -0.452682813,
				"element": "H" 
			},
			{
				"x": 0.5145487591,
				"y": -1.9677911583,
				"z": 0.5342267432,
				"element": "H" 
			},
			{
				"x": -0.6426619485,
				"y": -4.1377055119,
				"z": 0.6178970919,
				"element": "H" 
			},
			{
				"x": -3.1254634915,
				"y": -4.2338113227,
				"z": 0.6321288481,
				"element": "H" 
			},
			{
				"x": -4.4464589538,
				"y": -2.128557254,
				"z": 0.5680318936,
				"element": "H" 
			},
			{
				"x": -3.2692187941,
				"y": 0.069474967,
				"z": 0.480478855,
				"element": "H" 
			},
			{
				"x": -0.3199427077,
				"y": 2.7174425481,
				"z": 1.159364067,
				"element": "H" 
			}
		],
		 "valence_orbital": [ 
			{
				"type": "occ",
				"energy": -0.28657,
				"method": "rhf"
			},
			{
				"type": "occ",
				"energy": -0.28315,
				"method": "rhf"
			},
			{
				"type": "occ",
				"energy": -0.27064,
				"method": "rhf"
			},
			{
				"type": "occ",
				"energy": -0.26677,
				"method": "rhf"
			},
			{
				"type": "occ",
				"energy": -0.24993,
				"method": "rhf"
			},
			{
				"type": "unocc",
				"energy": -0.05406,
				"method": "rhf"
			},
			{
				"type": "unocc",
				"energy": -0.01964,
				"method": "rhf"
			},
			{
				"type": "unocc",
				"energy": 0.0201,
				"method": "rhf"
			},
			{
				"type": "unocc",
				"energy": 0.03781,
				"method": "rhf"
			},
			{
				"type": "unocc",
				"energy": 0.05282,
				"method": "rhf"
			}
		],
		"cosmo_sigma_profile": { 
			"-0.025": 0.0,
			"-0.024": 0.0,
			"-0.023": 0.0,
			"-0.022": 0.0,
			"-0.021": 0.0,
			"-0.02": 0.0,
			"-0.019": 0.0,
			"-0.018": 0.0,
			"-0.017": 0.589558626535,
			"-0.016": 1.15117555798,
			"-0.015": 1.01797027698,
			"-0.014": 0.998704138555,
			"-0.013": 1.01748712958,
			"-0.012": 0.724456367033,
			"-0.011": 0.998626875775,
			"-0.01": 2.17158223244,
			"-0.009": 2.26690985336,
			"-0.008": 2.41657463615,
			"-0.007": 4.79369979428,
			"-0.006": 11.8756968436,
			"-0.005": 20.8440810204,
			"-0.004": 20.4225396754,
			"-0.003": 21.1796156856,
			"-0.002": 21.9823572975,
			"-0.001": 19.386954572,
			"0.0": 15.6308041801,
			"0.001": 14.5381462481,
			"0.002": 13.0223562169,
			"0.003": 15.0988261692,
			"0.004": 15.666229414,
			"0.005": 5.31346831841,
			"0.006": 5.06889746224,
			"0.007": 4.35432970569,
			"0.008": 4.27312746387,
			"0.009": 5.89985395189,
			"0.01": 5.50049338792,
			"0.011": 7.58882252754,
			"0.012": 5.76612685461,
			"0.013": 2.29510150784,
			"0.014": 0.357625723646,
			"0.015": 0.0,
			"0.016": 0.0,
			"0.017": 0.0,
			"0.018": 0.0,
			"0.019": 0.0,
			"0.02": 0.0,
			"0.021": 0.0,
			"0.022": 0.0,
			"0.023": 0.0,
			"0.024": 0.0,
			"0.025": 0.0
		}
	}
}
