{
	 "smiles": "CC1=CC=CC(C(Cl)=O)=C1C", 
	 "Tm": 275.15, 
	 "num_atms": 20, 
	 "gaussian": { 
		 "optdone": 1, 
		 "sigma_profile": "yes", 
		 "theory": "DFT", 
		 "functional": "B3LYP", 
		 "basiset": "6-31G**", 
		 "properties": { 
			 "R2extent": 2709.9164, 
			 "electric_dipole_moment_norm": 4.36554665878, 
			 "electric_quadrupole_moment_norm": 7.73379901278, 
			 "total_energy": -883.81603604, 
			 "HOMO_LUMO_gap": 0.18453, 
			 "cosmo_polarized_energy": -5.89, 
			 "cosmo_cavitation_energy": 24.87, 
			 "cosmo_dispersion_energy": -18.54, 
			 "cosmo_repulsion_energy": 1.47, 
			 "cosmo_total_nonelectrostatic_energy": 7.81, 
			 "SMD_solvation_energy": 4.79 
		},
		"coords": [
			{
				"x": -3.4538398976,
				"y": 0.7669303158,
				"z": -0.0324837323,
				"element": "C" 
			},
			{
				"x": -2.0661378457,
				"y": 0.7741328671,
				"z": -0.6387958794,
				"element": "C" 
			},
			{
				"x": -1.9135629677,
				"y": 0.3458160764,
				"z": -1.9628646834,
				"element": "C" 
			},
			{
				"x": -0.6689591739,
				"y": 0.3251979393,
				"z": -2.5877276267,
				"element": "C" 
			},
			{
				"x": 0.4515810477,
				"y": 0.7386618993,
				"z": -1.8838037564,
				"element": "C" 
			},
			{
				"x": 0.3346323,
				"y": 1.1661781088,
				"z": -0.5506392916,
				"element": "C" 
			},
			{
				"x": 1.5422393573,
				"y": 1.5608940696,
				"z": 0.2137413898,
				"element": "C" 
			},
			{
				"x": 3.063095892,
				"y": 1.8467681239,
				"z": -0.8037988039,
				"element": "Cl" 
			},
			{
				"x": 1.6453133827,
				"y": 1.7217419224,
				"z": 1.3923961295,
				"element": "O" 
			},
			{
				"x": -0.9341153686,
				"y": 1.1938751541,
				"z": 0.0957462774,
				"element": "C" 
			},
			{
				"x": -1.0974344451,
				"y": 1.6623675138,
				"z": 1.5234341557,
				"element": "C" 
			},
			{
				"x": -3.7851029345,
				"y": 1.7732596016,
				"z": 0.2477403496,
				"element": "H" 
			},
			{
				"x": -3.5048812058,
				"y": 0.1472684399,
				"z": 0.8691661968,
				"element": "H" 
			},
			{
				"x": -4.1800949966,
				"y": 0.3704655703,
				"z": -0.7463932981,
				"element": "H" 
			},
			{
				"x": -2.7936482883,
				"y": 0.0225810616,
				"z": -2.5127901699,
				"element": "H" 
			},
			{
				"x": -0.5750122697,
				"y": -0.0113919432,
				"z": -3.6152748882,
				"element": "H" 
			},
			{
				"x": 1.4257659768,
				"y": 0.7272764008,
				"z": -2.3541518932,
				"element": "H" 
			},
			{
				"x": -0.5795184956,
				"y": 2.6077081155,
				"z": 1.7000243579,
				"element": "H" 
			},
			{
				"x": -0.6610669821,
				"y": 0.9460848713,
				"z": 2.2270666272,
				"element": "H" 
			},
			{
				"x": -2.1480530854,
				"y": 1.794183892,
				"z": 1.779308539,
				"element": "H" 
			}
		],
		 "valence_orbital": [ 
			{
				"type": "occ",
				"energy": -0.31233,
				"method": "rhf"
			},
			{
				"type": "occ",
				"energy": -0.31154,
				"method": "rhf"
			},
			{
				"type": "occ",
				"energy": -0.28403,
				"method": "rhf"
			},
			{
				"type": "occ",
				"energy": -0.26921,
				"method": "rhf"
			},
			{
				"type": "occ",
				"energy": -0.25563,
				"method": "rhf"
			},
			{
				"type": "unocc",
				"energy": -0.0711,
				"method": "rhf"
			},
			{
				"type": "unocc",
				"energy": -0.01734,
				"method": "rhf"
			},
			{
				"type": "unocc",
				"energy": 0.01791,
				"method": "rhf"
			},
			{
				"type": "unocc",
				"energy": 0.03153,
				"method": "rhf"
			},
			{
				"type": "unocc",
				"energy": 0.08808,
				"method": "rhf"
			}
		],
		"cosmo_sigma_profile": { 
			"-0.025": 0.0,
			"-0.024": 0.0,
			"-0.023": 0.0,
			"-0.022": 0.0,
			"-0.021": 0.0,
			"-0.02": 0.0,
			"-0.019": 0.0,
			"-0.018": 0.0,
			"-0.017": 0.0,
			"-0.016": 0.0,
			"-0.015": 0.0,
			"-0.014": 0.0,
			"-0.013": 0.0,
			"-0.012": 0.0,
			"-0.011": 0.0,
			"-0.01": 0.0,
			"-0.009": 0.0,
			"-0.008": 0.0,
			"-0.007": 1.37129690283,
			"-0.006": 6.79755599972,
			"-0.005": 10.4112700137,
			"-0.004": 19.4800831137,
			"-0.003": 17.7562459521,
			"-0.002": 19.2015249103,
			"-0.001": 22.1101244134,
			"0.0": 21.5605016164,
			"0.001": 15.2256806267,
			"0.002": 15.4613344717,
			"0.003": 17.0363589171,
			"0.004": 10.2515540444,
			"0.005": 9.08327045799,
			"0.006": 5.02843396363,
			"0.007": 2.87092241519,
			"0.008": 2.87119803576,
			"0.009": 3.12998571661,
			"0.01": 0.768846407788,
			"0.011": 0.0,
			"0.012": 0.0,
			"0.013": 0.0,
			"0.014": 0.0,
			"0.015": 0.0,
			"0.016": 0.0,
			"0.017": 0.0,
			"0.018": 0.0,
			"0.019": 0.0,
			"0.02": 0.0,
			"0.021": 0.0,
			"0.022": 0.0,
			"0.023": 0.0,
			"0.024": 0.0,
			"0.025": 0.0
		}
	}
}
