{
	 "smiles": "CCOC1=C(OCC)C=C(C=C1)S(N)(=O)=O", 
	 "Tm": 426.15, 
	 "num_atms": 31, 
	 "gaussian": { 
		 "optdone": 1, 
		 "sigma_profile": "yes", 
		 "theory": "DFT", 
		 "functional": "B3LYP", 
		 "basiset": "6-31G**", 
		 "properties": { 
			 "R2extent": 5287.3079, 
			 "electric_dipole_moment_norm": 4.28906097182, 
			 "electric_quadrupole_moment_norm": 19.1940761255, 
			 "total_energy": -1143.85530066, 
			 "HOMO_LUMO_gap": 0.21256, 
			 "cosmo_polarized_energy": -16.11, 
			 "cosmo_cavitation_energy": 36.03, 
			 "cosmo_dispersion_energy": -25.67, 
			 "cosmo_repulsion_energy": 2.02, 
			 "cosmo_total_nonelectrostatic_energy": 12.37, 
			 "SMD_solvation_energy": 6.41 
		},
		"coords": [
			{
				"x": -3.3836316732,
				"y": 1.5408057958,
				"z": -2.977610796,
				"element": "C" 
			},
			{
				"x": -2.4848386507,
				"y": 1.3719436857,
				"z": -1.7670665839,
				"element": "C" 
			},
			{
				"x": -1.9271670336,
				"y": 0.0396707928,
				"z": -1.8200573284,
				"element": "O" 
			},
			{
				"x": -1.0813351919,
				"y": -0.2928690481,
				"z": -0.7942489707,
				"element": "C" 
			},
			{
				"x": 0.1876128338,
				"y": 0.311270206,
				"z": -0.6576933481,
				"element": "C" 
			},
			{
				"x": 0.6086896206,
				"y": 1.2931326199,
				"z": -1.5209321199,
				"element": "O" 
			},
			{
				"x": 0.96217824,
				"y": 0.8327954114,
				"z": -2.8441062495,
				"element": "C" 
			},
			{
				"x": 1.4172569441,
				"y": 2.0380997525,
				"z": -3.6452822501,
				"element": "C" 
			},
			{
				"x": 1.0239632626,
				"y": -0.0712659966,
				"z": 0.3890739542,
				"element": "C" 
			},
			{
				"x": 0.6023261519,
				"y": -1.0570857056,
				"z": 1.282912447,
				"element": "C" 
			},
			{
				"x": -0.6321681777,
				"y": -1.6895506389,
				"z": 1.1387577029,
				"element": "C" 
			},
			{
				"x": -1.4711899481,
				"y": -1.2947980011,
				"z": 0.0981324243,
				"element": "C" 
			},
			{
				"x": 1.6848871749,
				"y": -1.5353934487,
				"z": 2.6247072649,
				"element": "S" 
			},
			{
				"x": 1.3237456623,
				"y": -0.4142859558,
				"z": 3.847729075,
				"element": "N" 
			},
			{
				"x": 1.2514001547,
				"y": -2.8547245122,
				"z": 3.0965386982,
				"element": "O" 
			},
			{
				"x": 3.0657672057,
				"y": -1.2659887254,
				"z": 2.2114616176,
				"element": "O" 
			},
			{
				"x": -2.8113321889,
				"y": 1.4404166598,
				"z": -3.9044841061,
				"element": "H" 
			},
			{
				"x": -4.1762460935,
				"y": 0.7871756864,
				"z": -2.9801848217,
				"element": "H" 
			},
			{
				"x": -3.8470370092,
				"y": 2.5322651072,
				"z": -2.9639952607,
				"element": "H" 
			},
			{
				"x": -3.0562519296,
				"y": 1.4774817611,
				"z": -0.8348799061,
				"element": "H" 
			},
			{
				"x": -1.6758107504,
				"y": 2.1095217627,
				"z": -1.7602167456,
				"element": "H" 
			},
			{
				"x": 1.7672392403,
				"y": 0.0908307323,
				"z": -2.7572681015,
				"element": "H" 
			},
			{
				"x": 0.0955894819,
				"y": 0.3469493818,
				"z": -3.306528234,
				"element": "H" 
			},
			{
				"x": 0.6121560315,
				"y": 2.7733059607,
				"z": -3.7355843433,
				"element": "H" 
			},
			{
				"x": 1.7151829227,
				"y": 1.7276583766,
				"z": -4.6516277183,
				"element": "H" 
			},
			{
				"x": 2.2720177384,
				"y": 2.5217821901,
				"z": -3.1641035516,
				"element": "H" 
			},
			{
				"x": 2.000906276,
				"y": 0.3892612973,
				"z": 0.4821337364,
				"element": "H" 
			},
			{
				"x": -0.9225291819,
				"y": -2.4763017242,
				"z": 1.8254526644,
				"element": "H" 
			},
			{
				"x": -2.4421466666,
				"y": -1.7575822315,
				"z": -0.0452744548,
				"element": "H" 
			},
			{
				"x": 2.1812175457,
				"y": 0.060006906,
				"z": 4.1191574978,
				"element": "H" 
			},
			{
				"x": 0.9073480078,
				"y": -0.9012280979,
				"z": 4.6371878077,
				"element": "H" 
			}
		],
		 "valence_orbital": [ 
			{
				"type": "occ",
				"energy": -0.30218,
				"method": "rhf"
			},
			{
				"type": "occ",
				"energy": -0.28909,
				"method": "rhf"
			},
			{
				"type": "occ",
				"energy": -0.27229,
				"method": "rhf"
			},
			{
				"type": "occ",
				"energy": -0.25757,
				"method": "rhf"
			},
			{
				"type": "occ",
				"energy": -0.24344,
				"method": "rhf"
			},
			{
				"type": "unocc",
				"energy": -0.03088,
				"method": "rhf"
			},
			{
				"type": "unocc",
				"energy": -0.0145,
				"method": "rhf"
			},
			{
				"type": "unocc",
				"energy": 0.0563,
				"method": "rhf"
			},
			{
				"type": "unocc",
				"energy": 0.07659,
				"method": "rhf"
			},
			{
				"type": "unocc",
				"energy": 0.08364,
				"method": "rhf"
			}
		],
		"cosmo_sigma_profile": { 
			"-0.025": 0.0,
			"-0.024": 0.0,
			"-0.023": 0.0,
			"-0.022": 0.0,
			"-0.021": 0.0,
			"-0.02": 0.0,
			"-0.019": 0.0,
			"-0.018": 0.0,
			"-0.017": 0.0,
			"-0.016": 0.0,
			"-0.015": 0.985375025264,
			"-0.014": 2.2559885625,
			"-0.013": 2.28527696755,
			"-0.012": 3.02393767102,
			"-0.011": 2.4436518561,
			"-0.01": 1.35180370158,
			"-0.009": 1.47688627942,
			"-0.008": 1.67002580702,
			"-0.007": 4.80934124658,
			"-0.006": 6.14445031141,
			"-0.005": 10.2594867821,
			"-0.004": 22.7280904163,
			"-0.003": 32.5170087071,
			"-0.002": 31.0987596163,
			"-0.001": 27.0221640303,
			"0.0": 25.3439546279,
			"0.001": 21.0423996425,
			"0.002": 17.3647380251,
			"0.003": 10.219692492,
			"0.004": 7.58254737444,
			"0.005": 5.46135461098,
			"0.006": 5.38297783176,
			"0.007": 5.53871993228,
			"0.008": 5.7541212337,
			"0.009": 5.92651597795,
			"0.01": 9.05717935244,
			"0.011": 11.3319511213,
			"0.012": 3.73106425373,
			"0.013": 0.315307925336,
			"0.014": 0.0,
			"0.015": 0.0,
			"0.016": 0.0,
			"0.017": 0.0,
			"0.018": 0.0,
			"0.019": 0.0,
			"0.02": 0.0,
			"0.021": 0.0,
			"0.022": 0.0,
			"0.023": 0.0,
			"0.024": 0.0,
			"0.025": 0.0
		}
	}
}
