{
	 "smiles": "C[C@H](N)C(N)=O", 
	 "Tm": 341.15, 
	 "num_atms": 14, 
	 "gaussian": { 
		 "optdone": 1, 
		 "sigma_profile": "yes", 
		 "theory": "DFT", 
		 "functional": "B3LYP", 
		 "basiset": "6-31G**", 
		 "properties": { 
			 "R2extent": 1174.1869, 
			 "electric_dipole_moment_norm": 3.54944367894, 
			 "electric_quadrupole_moment_norm": 12.9828136839, 
			 "total_energy": -303.88738185, 
			 "HOMO_LUMO_gap": 0.26485, 
			 "cosmo_polarized_energy": -12.63, 
			 "cosmo_cavitation_energy": 16.99, 
			 "cosmo_dispersion_energy": -12.77, 
			 "cosmo_repulsion_energy": 1.14, 
			 "cosmo_total_nonelectrostatic_energy": 5.35, 
			 "SMD_solvation_energy": 3.43 
		},
		"coords": [
			{
				"x": 2.156922617,
				"y": -1.2881045162,
				"z": 0.3331913709,
				"element": "C" 
			},
			{
				"x": 1.2494167478,
				"y": -0.0591769956,
				"z": 0.21358573,
				"element": "C" 
			},
			{
				"x": 0.846258616,
				"y": 0.2961443488,
				"z": -1.1586817374,
				"element": "N" 
			},
			{
				"x": 1.8843173591,
				"y": 1.1532185225,
				"z": 0.9304365531,
				"element": "C" 
			},
			{
				"x": 1.5970705168,
				"y": 2.3503450209,
				"z": 0.3567264835,
				"element": "N" 
			},
			{
				"x": 2.5588392542,
				"y": 1.0229978636,
				"z": 1.9443549027,
				"element": "O" 
			},
			{
				"x": 3.0769588134,
				"y": -1.1463195396,
				"z": -0.2460476454,
				"element": "H" 
			},
			{
				"x": 1.6487592769,
				"y": -2.1820172056,
				"z": -0.0431371675,
				"element": "H" 
			},
			{
				"x": 2.4425743013,
				"y": -1.4484712627,
				"z": 1.3745531658,
				"element": "H" 
			},
			{
				"x": 0.3211356356,
				"y": -0.2554329132,
				"z": 0.7681467065,
				"element": "H" 
			},
			{
				"x": 0.1894561244,
				"y": -0.3929276247,
				"z": -1.5154838374,
				"element": "H" 
			},
			{
				"x": 1.6591541642,
				"y": 0.2570483685,
				"z": -1.7717224963,
				"element": "H" 
			},
			{
				"x": 1.9217150797,
				"y": 3.1943208996,
				"z": 0.8011843578,
				"element": "H" 
			},
			{
				"x": 1.0109214936,
				"y": 2.3671750336,
				"z": -0.4656063863,
				"element": "H" 
			}
		],
		 "valence_orbital": [ 
			{
				"type": "occ",
				"energy": -0.36052,
				"method": "rhf"
			},
			{
				"type": "occ",
				"energy": -0.34605,
				"method": "rhf"
			},
			{
				"type": "occ",
				"energy": -0.26556,
				"method": "rhf"
			},
			{
				"type": "occ",
				"energy": -0.2552,
				"method": "rhf"
			},
			{
				"type": "occ",
				"energy": -0.23066,
				"method": "rhf"
			},
			{
				"type": "unocc",
				"energy": 0.03419,
				"method": "rhf"
			},
			{
				"type": "unocc",
				"energy": 0.07935,
				"method": "rhf"
			},
			{
				"type": "unocc",
				"energy": 0.11156,
				"method": "rhf"
			},
			{
				"type": "unocc",
				"energy": 0.12274,
				"method": "rhf"
			},
			{
				"type": "unocc",
				"energy": 0.13833,
				"method": "rhf"
			}
		],
		"cosmo_sigma_profile": { 
			"-0.025": 0.0,
			"-0.024": 0.0,
			"-0.023": 0.0,
			"-0.022": 0.0,
			"-0.021": 0.0,
			"-0.02": 0.0,
			"-0.019": 0.0,
			"-0.018": 0.0,
			"-0.017": 0.0,
			"-0.016": 0.0,
			"-0.015": 0.0,
			"-0.014": 0.200114841571,
			"-0.013": 1.21548796887,
			"-0.012": 0.872057085042,
			"-0.011": 1.62760593038,
			"-0.01": 4.53597469638,
			"-0.009": 4.07007638446,
			"-0.008": 5.17315557566,
			"-0.007": 5.64648221992,
			"-0.006": 5.11941796922,
			"-0.005": 7.42436452654,
			"-0.004": 8.2269143718,
			"-0.003": 8.67618289456,
			"-0.002": 7.92285233526,
			"-0.001": 9.25602736861,
			"0.0": 8.63970971466,
			"0.001": 9.03551534044,
			"0.002": 5.92055323085,
			"0.003": 4.23272264362,
			"0.004": 4.21020745011,
			"0.005": 2.91092957747,
			"0.006": 3.41820148796,
			"0.007": 1.32722504476,
			"0.008": 1.95221572406,
			"0.009": 2.61068941572,
			"0.01": 1.44286032036,
			"0.011": 2.23133815146,
			"0.012": 2.60239468976,
			"0.013": 2.06217778801,
			"0.014": 5.44296847951,
			"0.015": 3.40976708056,
			"0.016": 0.214410584412,
			"0.017": 0.0,
			"0.018": 0.0,
			"0.019": 0.0,
			"0.02": 0.0,
			"0.021": 0.0,
			"0.022": 0.0,
			"0.023": 0.0,
			"0.024": 0.0,
			"0.025": 0.0
		}
	}
}
