{
	 "smiles": "CCC(=C(C1=CC=CC=C1)C1=CC=C(OCCN(C)C)C=C1)C1=CC=CC=C1", 
	 "Tm": 369.15, 
	 "num_atms": 57, 
	 "gaussian": { 
		 "optdone": 1, 
		 "sigma_profile": "yes", 
		 "theory": "DFT", 
		 "functional": "B3LYP", 
		 "basiset": "6-31G**", 
		 "properties": { 
			 "R2extent": 15898.9733, 
			 "electric_dipole_moment_norm": 1.62901326575, 
			 "electric_quadrupole_moment_norm": 11.0762440728, 
			 "total_energy": -1138.19622714, 
			 "HOMO_LUMO_gap": 0.16671, 
			 "cosmo_polarized_energy": -10.5, 
			 "cosmo_cavitation_energy": 58.03, 
			 "cosmo_dispersion_energy": -38.17, 
			 "cosmo_repulsion_energy": 2.96, 
			 "cosmo_total_nonelectrostatic_energy": 22.82, 
			 "SMD_solvation_energy": 7.53 
		},
		"coords": [
			{
				"x": -0.2113800877,
				"y": -0.50670344,
				"z": -4.2992583117,
				"element": "C" 
			},
			{
				"x": 0.4116647367,
				"y": 0.4137775096,
				"z": -3.2352702705,
				"element": "C" 
			},
			{
				"x": 1.2030220787,
				"y": -0.3170648057,
				"z": -2.1621770374,
				"element": "C" 
			},
			{
				"x": 0.8419785881,
				"y": -0.3265004111,
				"z": -0.8496959856,
				"element": "C" 
			},
			{
				"x": 1.7200961708,
				"y": -0.8699855657,
				"z": 0.2349058655,
				"element": "C" 
			},
			{
				"x": 3.0671126912,
				"y": -0.4883001254,
				"z": 0.3532189267,
				"element": "C" 
			},
			{
				"x": 3.8620219304,
				"y": -0.9749961313,
				"z": 1.3905995126,
				"element": "C" 
			},
			{
				"x": 3.3280340395,
				"y": -1.8550146938,
				"z": 2.3337126527,
				"element": "C" 
			},
			{
				"x": 1.9877476206,
				"y": -2.2353991618,
				"z": 2.2362807462,
				"element": "C" 
			},
			{
				"x": 1.1910544462,
				"y": -1.739081941,
				"z": 1.2055179339,
				"element": "C" 
			},
			{
				"x": -0.4528579599,
				"y": 0.2442632527,
				"z": -0.3649554427,
				"element": "C" 
			},
			{
				"x": -1.6952936552,
				"y": -0.1856230029,
				"z": -0.8664635932,
				"element": "C" 
			},
			{
				"x": -2.8914537521,
				"y": 0.3366868185,
				"z": -0.3892743234,
				"element": "C" 
			},
			{
				"x": -2.8864918902,
				"y": 1.31474019,
				"z": 0.6152360351,
				"element": "C" 
			},
			{
				"x": -4.1176952412,
				"y": 1.7729761154,
				"z": 0.9942492286,
				"element": "O" 
			},
			{
				"x": -4.2277395312,
				"y": 2.738164817,
				"z": 2.0399750633,
				"element": "C" 
			},
			{
				"x": -4.1566415671,
				"y": 2.0778873475,
				"z": 3.4227608708,
				"element": "C" 
			},
			{
				"x": -4.1822081188,
				"y": 3.061432444,
				"z": 4.5030809611,
				"element": "N" 
			},
			{
				"x": -5.500660713,
				"y": 3.657463135,
				"z": 4.6916675487,
				"element": "C" 
			},
			{
				"x": -3.6863413158,
				"y": 2.4989910976,
				"z": 5.7540483685,
				"element": "C" 
			},
			{
				"x": -1.6616346862,
				"y": 1.7475385903,
				"z": 1.1413232841,
				"element": "C" 
			},
			{
				"x": -0.4708707151,
				"y": 1.2061387877,
				"z": 0.6558130904,
				"element": "C" 
			},
			{
				"x": 2.4145424813,
				"y": -1.0350829984,
				"z": -2.6665461413,
				"element": "C" 
			},
			{
				"x": 3.3815721236,
				"y": -0.3757285557,
				"z": -3.445591752,
				"element": "C" 
			},
			{
				"x": 4.4904830462,
				"y": -1.0582777302,
				"z": -3.9460791756,
				"element": "C" 
			},
			{
				"x": 4.6494937367,
				"y": -2.4220156942,
				"z": -3.6939382863,
				"element": "C" 
			},
			{
				"x": 3.6902709963,
				"y": -3.0949508802,
				"z": -2.9345627924,
				"element": "C" 
			},
			{
				"x": 2.5868274384,
				"y": -2.4096467188,
				"z": -2.4285130716,
				"element": "C" 
			},
			{
				"x": -0.9453097675,
				"y": -1.1878915496,
				"z": -3.8561339626,
				"element": "H" 
			},
			{
				"x": -0.7222814219,
				"y": 0.0832786044,
				"z": -5.067316303,
				"element": "H" 
			},
			{
				"x": 0.5510594113,
				"y": -1.1167588997,
				"z": -4.7926786505,
				"element": "H" 
			},
			{
				"x": 1.0928539872,
				"y": 1.1085574554,
				"z": -3.7460091862,
				"element": "H" 
			},
			{
				"x": -0.3646349098,
				"y": 1.0288858474,
				"z": -2.7759155208,
				"element": "H" 
			},
			{
				"x": 3.4896079074,
				"y": 0.1962092801,
				"z": -0.3748478726,
				"element": "H" 
			},
			{
				"x": 4.8999925042,
				"y": -0.662089095,
				"z": 1.4637750744,
				"element": "H" 
			},
			{
				"x": 3.9479561474,
				"y": -2.235170383,
				"z": 3.1407876533,
				"element": "H" 
			},
			{
				"x": 1.5600271859,
				"y": -2.9163019343,
				"z": 2.9672120316,
				"element": "H" 
			},
			{
				"x": 0.1455967809,
				"y": -2.0271875331,
				"z": 1.1444205461,
				"element": "H" 
			},
			{
				"x": -1.7212326273,
				"y": -0.9533072088,
				"z": -1.633704578,
				"element": "H" 
			},
			{
				"x": -3.8470182399,
				"y": -0.0011604815,
				"z": -0.7772966152,
				"element": "H" 
			},
			{
				"x": -5.2004626865,
				"y": 3.2081631687,
				"z": 1.8751273216,
				"element": "H" 
			},
			{
				"x": -3.462189747,
				"y": 3.517314795,
				"z": 1.9515798911,
				"element": "H" 
			},
			{
				"x": -4.9694107757,
				"y": 1.3307553687,
				"z": 3.5047785695,
				"element": "H" 
			},
			{
				"x": -3.2143387724,
				"y": 1.5248678807,
				"z": 3.4889161016,
				"element": "H" 
			},
			{
				"x": -5.4495896214,
				"y": 4.4146433487,
				"z": 5.4802592428,
				"element": "H" 
			},
			{
				"x": -5.8351774441,
				"y": 4.1580237909,
				"z": 3.7790265858,
				"element": "H" 
			},
			{
				"x": -6.2734197992,
				"y": 2.9175507012,
				"z": 4.9777894325,
				"element": "H" 
			},
			{
				"x": -2.6696094668,
				"y": 2.1187241156,
				"z": 5.6149319937,
				"element": "H" 
			},
			{
				"x": -4.3113064774,
				"y": 1.6717489697,
				"z": 6.1423907478,
				"element": "H" 
			},
			{
				"x": -3.6528631075,
				"y": 3.2808096566,
				"z": 6.5197861427,
				"element": "H" 
			},
			{
				"x": -1.619495734,
				"y": 2.4946178604,
				"z": 1.9252254374,
				"element": "H" 
			},
			{
				"x": 0.4697355471,
				"y": 1.5438197794,
				"z": 1.0812489567,
				"element": "H" 
			},
			{
				"x": 3.276513253,
				"y": 0.6867247932,
				"z": -3.647180658,
				"element": "H" 
			},
			{
				"x": 5.2308050794,
				"y": -0.5229541415,
				"z": -4.534417534,
				"element": "H" 
			},
			{
				"x": 5.5099257321,
				"y": -2.9552614317,
				"z": -4.0879930513,
				"element": "H" 
			},
			{
				"x": 3.7987928519,
				"y": -4.1580024028,
				"z": -2.7377680762,
				"element": "H" 
			},
			{
				"x": 1.8443213194,
				"y": -2.9388986044,
				"z": -1.8398576246,
				"element": "H" 
			}
		],
		 "valence_orbital": [ 
			{
				"type": "occ",
				"energy": -0.24244,
				"method": "rhf"
			},
			{
				"type": "occ",
				"energy": -0.24005,
				"method": "rhf"
			},
			{
				"type": "occ",
				"energy": -0.22534,
				"method": "rhf"
			},
			{
				"type": "occ",
				"energy": -0.21764,
				"method": "rhf"
			},
			{
				"type": "occ",
				"energy": -0.194,
				"method": "rhf"
			},
			{
				"type": "unocc",
				"energy": -0.02729,
				"method": "rhf"
			},
			{
				"type": "unocc",
				"energy": -0.00355,
				"method": "rhf"
			},
			{
				"type": "unocc",
				"energy": 0.00038,
				"method": "rhf"
			},
			{
				"type": "unocc",
				"energy": 0.00827,
				"method": "rhf"
			},
			{
				"type": "unocc",
				"energy": 0.01184,
				"method": "rhf"
			}
		],
		"cosmo_sigma_profile": { 
			"-0.025": 0.0,
			"-0.024": 0.0,
			"-0.023": 0.0,
			"-0.022": 0.0,
			"-0.021": 0.0,
			"-0.02": 0.0,
			"-0.019": 0.0,
			"-0.018": 0.0,
			"-0.017": 0.0,
			"-0.016": 0.0,
			"-0.015": 0.0,
			"-0.014": 0.0,
			"-0.013": 0.0,
			"-0.012": 0.0,
			"-0.011": 0.0,
			"-0.01": 0.0,
			"-0.009": 0.0,
			"-0.008": 0.0,
			"-0.007": 0.52498165401,
			"-0.006": 9.66573630558,
			"-0.005": 27.9339662521,
			"-0.004": 40.7425293728,
			"-0.003": 45.3375215509,
			"-0.002": 47.6771187465,
			"-0.001": 55.2363104116,
			"0.0": 52.0806915525,
			"0.001": 38.9721422007,
			"0.002": 28.4905710712,
			"0.003": 27.1436805054,
			"0.004": 26.6756459168,
			"0.005": 26.1249859921,
			"0.006": 18.0105551287,
			"0.007": 4.89189565983,
			"0.008": 1.56321370326,
			"0.009": 2.62149678218,
			"0.01": 1.78637060528,
			"0.011": 0.827858166866,
			"0.012": 0.763478525202,
			"0.013": 0.359349542408,
			"0.014": 0.297461752683,
			"0.015": 0.359218224802,
			"0.016": 0.209622733553,
			"0.017": 0.0,
			"0.018": 0.0,
			"0.019": 0.0,
			"0.02": 0.0,
			"0.021": 0.0,
			"0.022": 0.0,
			"0.023": 0.0,
			"0.024": 0.0,
			"0.025": 0.0
		}
	}
}
