{
	 "smiles": "OC1CCCNC1", 
	 "Tm": 331.15, 
	 "num_atms": 18, 
	 "gaussian": { 
		 "optdone": 1, 
		 "sigma_profile": "yes", 
		 "theory": "DFT", 
		 "functional": "B3LYP", 
		 "basiset": "6-31G**", 
		 "properties": { 
			 "R2extent": 927.459, 
			 "electric_dipole_moment_norm": 1.3398547272, 
			 "electric_quadrupole_moment_norm": 8.21366341409, 
			 "total_energy": -327.128443316, 
			 "HOMO_LUMO_gap": 0.28532, 
			 "cosmo_polarized_energy": -8.78, 
			 "cosmo_cavitation_energy": 19.03, 
			 "cosmo_dispersion_energy": -14.66, 
			 "cosmo_repulsion_energy": 1.24, 
			 "cosmo_total_nonelectrostatic_energy": 5.61, 
			 "SMD_solvation_energy": 0.08 
		},
		"coords": [
			{
				"x": 2.0396292358,
				"y": 1.3071194366,
				"z": 1.080713241,
				"element": "O" 
			},
			{
				"x": 1.5129827961,
				"y": 0.4508478853,
				"z": 0.0715077544,
				"element": "C" 
			},
			{
				"x": 1.0609889602,
				"y": 1.221492734,
				"z": -1.1751913688,
				"element": "C" 
			},
			{
				"x": 0.4596802455,
				"y": 0.2727657902,
				"z": -2.2255016547,
				"element": "C" 
			},
			{
				"x": -0.6495261797,
				"y": -0.592024163,
				"z": -1.6012500787,
				"element": "C" 
			},
			{
				"x": -0.2391861988,
				"y": -1.3094791918,
				"z": -0.3897736127,
				"element": "N" 
			},
			{
				"x": 0.3620010469,
				"y": -0.4209567669,
				"z": 0.6076131632,
				"element": "C" 
			},
			{
				"x": 1.3379718198,
				"y": 1.9227660116,
				"z": 1.3339165602,
				"element": "H" 
			},
			{
				"x": 2.3498231968,
				"y": -0.2068747145,
				"z": -0.2008039489,
				"element": "H" 
			},
			{
				"x": 1.9024591869,
				"y": 1.7923407062,
				"z": -1.5831042887,
				"element": "H" 
			},
			{
				"x": 0.2968954818,
				"y": 1.9547027089,
				"z": -0.8707316608,
				"element": "H" 
			},
			{
				"x": 1.2481934297,
				"y": -0.3832408056,
				"z": -2.6209143729,
				"element": "H" 
			},
			{
				"x": 0.0677794865,
				"y": 0.8410734306,
				"z": -3.0784877528,
				"element": "H" 
			},
			{
				"x": -1.0249604763,
				"y": -1.3237440925,
				"z": -2.3251269092,
				"element": "H" 
			},
			{
				"x": -1.5004252042,
				"y": 0.0507177484,
				"z": -1.332721002,
				"element": "H" 
			},
			{
				"x": 0.4305356631,
				"y": -2.0346887317,
				"z": -0.6390738753,
				"element": "H" 
			},
			{
				"x": 0.7116992133,
				"y": -1.0142614377,
				"z": 1.4589148579,
				"element": "H" 
			},
			{
				"x": -0.4292417033,
				"y": 0.2454434518,
				"z": 0.9874149486,
				"element": "H" 
			}
		],
		 "valence_orbital": [ 
			{
				"type": "occ",
				"energy": -0.34771,
				"method": "rhf"
			},
			{
				"type": "occ",
				"energy": -0.33172,
				"method": "rhf"
			},
			{
				"type": "occ",
				"energy": -0.31445,
				"method": "rhf"
			},
			{
				"type": "occ",
				"energy": -0.27351,
				"method": "rhf"
			},
			{
				"type": "occ",
				"energy": -0.2114,
				"method": "rhf"
			},
			{
				"type": "unocc",
				"energy": 0.07392,
				"method": "rhf"
			},
			{
				"type": "unocc",
				"energy": 0.08308,
				"method": "rhf"
			},
			{
				"type": "unocc",
				"energy": 0.10564,
				"method": "rhf"
			},
			{
				"type": "unocc",
				"energy": 0.12702,
				"method": "rhf"
			},
			{
				"type": "unocc",
				"energy": 0.14764,
				"method": "rhf"
			}
		],
		"cosmo_sigma_profile": { 
			"-0.025": 0.0,
			"-0.024": 0.0,
			"-0.023": 0.0,
			"-0.022": 0.0,
			"-0.021": 0.0,
			"-0.02": 0.0,
			"-0.019": 0.0,
			"-0.018": 0.0,
			"-0.017": 0.0,
			"-0.016": 0.0,
			"-0.015": 0.17459991819,
			"-0.014": 0.843464849102,
			"-0.013": 1.28686514458,
			"-0.012": 0.481747713387,
			"-0.011": 1.17726953366,
			"-0.01": 1.15688626789,
			"-0.009": 2.82709046244,
			"-0.008": 2.64749539704,
			"-0.007": 2.08030992665,
			"-0.006": 3.09177823964,
			"-0.005": 4.08285397527,
			"-0.004": 6.85914356559,
			"-0.003": 18.6242779099,
			"-0.002": 20.3555484521,
			"-0.001": 18.9946032656,
			"0.0": 16.0228423816,
			"0.001": 10.8169973774,
			"0.002": 3.98210656109,
			"0.003": 2.16849756504,
			"0.004": 2.85027874926,
			"0.005": 2.66418108349,
			"0.006": 2.0084718008,
			"0.007": 2.02047368502,
			"0.008": 1.35931460561,
			"0.009": 1.90523416909,
			"0.01": 2.74817671809,
			"0.011": 1.44584883489,
			"0.012": 2.03116438313,
			"0.013": 2.68499126615,
			"0.014": 2.52327895022,
			"0.015": 1.60943398798,
			"0.016": 0.634481903049,
			"0.017": 0.895104555862,
			"0.018": 0.387850269649,
			"0.019": 0.29441439344,
			"0.02": 0.0,
			"0.021": 0.0,
			"0.022": 0.0,
			"0.023": 0.0,
			"0.024": 0.0,
			"0.025": 0.0
		}
	}
}
