{
	 "smiles": "CC(=O)OCN1C(=O)NC(C1=O)(C1=CC=CC=C1)C1=CC=CC=C1", 
	 "Tm": 431.15, 
	 "num_atms": 40, 
	 "gaussian": { 
		 "optdone": 1, 
		 "sigma_profile": "yes", 
		 "theory": "DFT", 
		 "functional": "B3LYP", 
		 "basiset": "6-31G**", 
		 "properties": { 
			 "R2extent": 9763.4494, 
			 "electric_dipole_moment_norm": 4.24722830208, 
			 "electric_quadrupole_moment_norm": 28.5022078433, 
			 "total_energy": -1106.00644585, 
			 "HOMO_LUMO_gap": 0.21707, 
			 "cosmo_polarized_energy": -19.18, 
			 "cosmo_cavitation_energy": 45.16, 
			 "cosmo_dispersion_energy": -30.1, 
			 "cosmo_repulsion_energy": 2.35, 
			 "cosmo_total_nonelectrostatic_energy": 17.41, 
			 "SMD_solvation_energy": 10.19 
		},
		"coords": [
			{
				"x": 3.9566034081,
				"y": -1.1510575728,
				"z": 3.052559269,
				"element": "C" 
			},
			{
				"x": 2.5851155677,
				"y": -1.5085030615,
				"z": 3.5691264348,
				"element": "C" 
			},
			{
				"x": 2.3412105738,
				"y": -2.2719488017,
				"z": 4.4772447637,
				"element": "O" 
			},
			{
				"x": 1.6205214393,
				"y": -0.8530238119,
				"z": 2.8746924781,
				"element": "O" 
			},
			{
				"x": 0.2741982511,
				"y": -1.1381810133,
				"z": 3.2991681032,
				"element": "C" 
			},
			{
				"x": -0.6166401085,
				"y": -0.4316302012,
				"z": 2.4306463294,
				"element": "N" 
			},
			{
				"x": -1.0686425772,
				"y": 0.8861414314,
				"z": 2.6941383218,
				"element": "C" 
			},
			{
				"x": -0.8615813958,
				"y": 1.5080573778,
				"z": 3.7141875262,
				"element": "O" 
			},
			{
				"x": -1.7690785929,
				"y": 1.2730330456,
				"z": 1.5810682958,
				"element": "N" 
			},
			{
				"x": -1.9672576164,
				"y": 0.1976520428,
				"z": 0.599381273,
				"element": "C" 
			},
			{
				"x": -1.1085031288,
				"y": -0.9298559468,
				"z": 1.23708947,
				"element": "C" 
			},
			{
				"x": -0.9089492611,
				"y": -2.0382271298,
				"z": 0.789706545,
				"element": "O" 
			},
			{
				"x": -3.4568100644,
				"y": -0.1728989606,
				"z": 0.5129459197,
				"element": "C" 
			},
			{
				"x": -3.9854171554,
				"y": -1.33702585,
				"z": 1.0812670214,
				"element": "C" 
			},
			{
				"x": -5.3604152056,
				"y": -1.5825865929,
				"z": 1.03656051,
				"element": "C" 
			},
			{
				"x": -6.2214610529,
				"y": -0.6694016459,
				"z": 0.4300719995,
				"element": "C" 
			},
			{
				"x": -5.7002265861,
				"y": 0.4922298799,
				"z": -0.1448587443,
				"element": "C" 
			},
			{
				"x": -4.3285928703,
				"y": 0.7344636292,
				"z": -0.1086556745,
				"element": "C" 
			},
			{
				"x": -1.3771829127,
				"y": 0.5381545214,
				"z": -0.7776678066,
				"element": "C" 
			},
			{
				"x": -0.6480793277,
				"y": 1.7113728833,
				"z": -0.9923248553,
				"element": "C" 
			},
			{
				"x": -0.1089724649,
				"y": 1.985944043,
				"z": -2.2520510154,
				"element": "C" 
			},
			{
				"x": -0.28324715,
				"y": 1.0856002356,
				"z": -3.3020076133,
				"element": "C" 
			},
			{
				"x": -1.0004895525,
				"y": -0.0944999865,
				"z": -3.0876684404,
				"element": "C" 
			},
			{
				"x": -1.546694204,
				"y": -0.3669501205,
				"z": -1.8353897264,
				"element": "C" 
			},
			{
				"x": 4.1211256242,
				"y": -0.0733513351,
				"z": 3.1431366861,
				"element": "H" 
			},
			{
				"x": 4.7096200083,
				"y": -1.6925583307,
				"z": 3.6239878677,
				"element": "H" 
			},
			{
				"x": 4.0352966742,
				"y": -1.4062010456,
				"z": 1.9917478602,
				"element": "H" 
			},
			{
				"x": 0.1254904552,
				"y": -0.7876352548,
				"z": 4.3212231309,
				"element": "H" 
			},
			{
				"x": 0.0819545747,
				"y": -2.2089078992,
				"z": 3.2226197255,
				"element": "H" 
			},
			{
				"x": -2.4184984504,
				"y": 2.0414140267,
				"z": 1.66511278,
				"element": "H" 
			},
			{
				"x": -3.330670458,
				"y": -2.0691214709,
				"z": 1.5404370942,
				"element": "H" 
			},
			{
				"x": -5.7542678416,
				"y": -2.4938035614,
				"z": 1.4771514153,
				"element": "H" 
			},
			{
				"x": -7.289588373,
				"y": -0.8629143623,
				"z": 0.3979571918,
				"element": "H" 
			},
			{
				"x": -6.3603213617,
				"y": 1.2059655932,
				"z": -0.6291869221,
				"element": "H" 
			},
			{
				"x": -3.9276272299,
				"y": 1.6279448882,
				"z": -0.5800983645,
				"element": "H" 
			},
			{
				"x": -0.4983526362,
				"y": 2.4071725186,
				"z": -0.1739146701,
				"element": "H" 
			},
			{
				"x": 0.4501630498,
				"y": 2.9042923304,
				"z": -2.4069067616,
				"element": "H" 
			},
			{
				"x": 0.1373505739,
				"y": 1.2986889352,
				"z": -4.2805042205,
				"element": "H" 
			},
			{
				"x": -1.1363282667,
				"y": -0.8047113515,
				"z": -3.898122962,
				"element": "H" 
			},
			{
				"x": -2.0984543555,
				"y": -1.2862320753,
				"z": -1.6712702354,
				"element": "H" 
			}
		],
		 "valence_orbital": [ 
			{
				"type": "occ",
				"energy": -0.2697,
				"method": "rhf"
			},
			{
				"type": "occ",
				"energy": -0.2652,
				"method": "rhf"
			},
			{
				"type": "occ",
				"energy": -0.26156,
				"method": "rhf"
			},
			{
				"type": "occ",
				"energy": -0.25537,
				"method": "rhf"
			},
			{
				"type": "occ",
				"energy": -0.24785,
				"method": "rhf"
			},
			{
				"type": "unocc",
				"energy": -0.03078,
				"method": "rhf"
			},
			{
				"type": "unocc",
				"energy": -0.02136,
				"method": "rhf"
			},
			{
				"type": "unocc",
				"energy": -0.01766,
				"method": "rhf"
			},
			{
				"type": "unocc",
				"energy": -0.00433,
				"method": "rhf"
			},
			{
				"type": "unocc",
				"energy": 0.00018,
				"method": "rhf"
			}
		],
		"cosmo_sigma_profile": { 
			"-0.025": 0.0,
			"-0.024": 0.0,
			"-0.023": 0.0,
			"-0.022": 0.0,
			"-0.021": 0.0,
			"-0.02": 0.0,
			"-0.019": 0.0,
			"-0.018": 0.0,
			"-0.017": 0.0,
			"-0.016": 0.0873098757946,
			"-0.015": 0.774291059262,
			"-0.014": 0.738119117032,
			"-0.013": 1.44172058388,
			"-0.012": 1.01496506883,
			"-0.011": 0.691666616957,
			"-0.01": 1.44742244811,
			"-0.009": 1.41740320018,
			"-0.008": 2.32053587772,
			"-0.007": 7.27648426936,
			"-0.006": 25.8781489817,
			"-0.005": 34.7913472335,
			"-0.004": 34.4423950308,
			"-0.003": 28.9756355857,
			"-0.002": 26.243904795,
			"-0.001": 21.2275227217,
			"0.0": 17.3440625969,
			"0.001": 19.2271067346,
			"0.002": 19.9303783505,
			"0.003": 21.5981324902,
			"0.004": 22.9150415238,
			"0.005": 21.7534199087,
			"0.006": 7.64236044742,
			"0.007": 4.34965376299,
			"0.008": 5.13197710503,
			"0.009": 4.49717965107,
			"0.01": 6.65483692235,
			"0.011": 11.1308201231,
			"0.012": 8.21737337405,
			"0.013": 1.38161003687,
			"0.014": 0.0,
			"0.015": 0.0,
			"0.016": 0.0,
			"0.017": 0.0,
			"0.018": 0.0,
			"0.019": 0.0,
			"0.02": 0.0,
			"0.021": 0.0,
			"0.022": 0.0,
			"0.023": 0.0,
			"0.024": 0.0,
			"0.025": 0.0
		}
	}
}
