{
	 "smiles": "CCC(C)N1N=CN(C1=O)C1=CC=C(C=C1)N1CCN(CC1)C1=CC=C(OC[C@H]2CO[C@@](CN3C=NC=N3)(O2)C2=CC=C(Cl)C=C2Cl)C=C1", 
	 "Tm": 439.35, 
	 "num_atms": 87, 
	 "gaussian": { 
		 "optdone": 1, 
		 "sigma_profile": "yes", 
		 "theory": "DFT", 
		 "functional": "B3LYP", 
		 "basiset": "6-31G**", 
		 "properties": { 
			 "R2extent": 34937.4137, 
			 "electric_dipole_moment_norm": 5.84452712458, 
			 "electric_quadrupole_moment_norm": 18.796630639, 
			 "total_energy": -3015.86304957, 
			 "HOMO_LUMO_gap": 0.14968, 
			 "cosmo_polarized_energy": -29.47, 
			 "cosmo_cavitation_energy": 87.75, 
			 "cosmo_dispersion_energy": -52.68, 
			 "cosmo_repulsion_energy": 3.83, 
			 "cosmo_total_nonelectrostatic_energy": 38.9, 
			 "SMD_solvation_energy": 9.74 
		},
		"coords": [
			{
				"x": -1.8814098817,
				"y": 6.4564934225,
				"z": -1.512277499,
				"element": "C" 
			},
			{
				"x": -0.6467170169,
				"y": 6.4730498817,
				"z": -2.420191584,
				"element": "C" 
			},
			{
				"x": -0.6285184248,
				"y": 5.4259902336,
				"z": -3.5556708068,
				"element": "C" 
			},
			{
				"x": -1.8228753214,
				"y": 5.5179597577,
				"z": -4.5096887573,
				"element": "C" 
			},
			{
				"x": -0.4874907924,
				"y": 4.0623343727,
				"z": -3.0416168507,
				"element": "N" 
			},
			{
				"x": -1.5470543836,
				"y": 3.3442846332,
				"z": -2.5281139601,
				"element": "N" 
			},
			{
				"x": -1.0298547537,
				"y": 2.2102592782,
				"z": -2.1605929018,
				"element": "C" 
			},
			{
				"x": 0.3288759024,
				"y": 2.1457939133,
				"z": -2.4048040019,
				"element": "N" 
			},
			{
				"x": 0.7085580532,
				"y": 3.3776192524,
				"z": -2.9789333086,
				"element": "C" 
			},
			{
				"x": 1.8228514187,
				"y": 3.748972723,
				"z": -3.3292444357,
				"element": "O" 
			},
			{
				"x": 1.1922806921,
				"y": 1.0430001805,
				"z": -2.1578580566,
				"element": "C" 
			},
			{
				"x": 2.5301468752,
				"y": 1.2463759373,
				"z": -1.8022169996,
				"element": "C" 
			},
			{
				"x": 3.3528750791,
				"y": 0.1595852138,
				"z": -1.530105263,
				"element": "C" 
			},
			{
				"x": 2.8701906916,
				"y": -1.1671499292,
				"z": -1.5732326656,
				"element": "C" 
			},
			{
				"x": 1.5247772608,
				"y": -1.3516571919,
				"z": -1.9535322686,
				"element": "C" 
			},
			{
				"x": 0.7091918843,
				"y": -0.2648907602,
				"z": -2.2559282107,
				"element": "C" 
			},
			{
				"x": 3.7203601924,
				"y": -2.2309417635,
				"z": -1.2643435884,
				"element": "N" 
			},
			{
				"x": 3.3389894866,
				"y": -3.618183925,
				"z": -1.4659894012,
				"element": "C" 
			},
			{
				"x": 2.7618964668,
				"y": -4.2503374808,
				"z": -0.1761589891,
				"element": "C" 
			},
			{
				"x": 3.5039504306,
				"y": -3.7651749416,
				"z": 0.9949525617,
				"element": "N" 
			},
			{
				"x": 4.8332736581,
				"y": -3.276061551,
				"z": 0.6693861019,
				"element": "C" 
			},
			{
				"x": 4.7902596504,
				"y": -2.0530542862,
				"z": -0.2794718564,
				"element": "C" 
			},
			{
				"x": 2.7988968925,
				"y": -3.2803885344,
				"z": 2.1048145279,
				"element": "C" 
			},
			{
				"x": 3.2505216773,
				"y": -2.2000309989,
				"z": 2.8905804185,
				"element": "C" 
			},
			{
				"x": 2.5130059984,
				"y": -1.7418775612,
				"z": 3.9781311662,
				"element": "C" 
			},
			{
				"x": 1.2944992901,
				"y": -2.3316935244,
				"z": 4.3243684275,
				"element": "C" 
			},
			{
				"x": 0.6728190871,
				"y": -1.803944838,
				"z": 5.439931861,
				"element": "O" 
			},
			{
				"x": -0.7081134691,
				"y": -2.0194322293,
				"z": 5.6778753379,
				"element": "C" 
			},
			{
				"x": -1.6101700854,
				"y": -0.9960537609,
				"z": 4.9915770141,
				"element": "C" 
			},
			{
				"x": -1.1504173502,
				"y": 0.4786633909,
				"z": 5.1267582635,
				"element": "C" 
			},
			{
				"x": -1.0270621245,
				"y": 0.9426899611,
				"z": 3.7788466323,
				"element": "O" 
			},
			{
				"x": -1.7470092064,
				"y": 0.0376576635,
				"z": 2.9537356878,
				"element": "C" 
			},
			{
				"x": -0.968928851,
				"y": 0.0168552577,
				"z": 1.6209773069,
				"element": "C" 
			},
			{
				"x": -1.4745854118,
				"y": -0.9153517343,
				"z": 0.6343838357,
				"element": "N" 
			},
			{
				"x": -1.2031141861,
				"y": -2.2326474133,
				"z": 0.5008867568,
				"element": "C" 
			},
			{
				"x": -1.8575985224,
				"y": -2.7395248433,
				"z": -0.5315630157,
				"element": "N" 
			},
			{
				"x": -2.5404717905,
				"y": -1.6602442058,
				"z": -1.0045718147,
				"element": "C" 
			},
			{
				"x": -2.3434985578,
				"y": -0.528717728,
				"z": -0.3404038672,
				"element": "N" 
			},
			{
				"x": -1.6113873786,
				"y": -1.2186425257,
				"z": 3.5784116133,
				"element": "O" 
			},
			{
				"x": -3.212016638,
				"y": 0.5027635262,
				"z": 2.817797169,
				"element": "C" 
			},
			{
				"x": -3.4475489727,
				"y": 1.8843062652,
				"z": 2.9093283302,
				"element": "C" 
			},
			{
				"x": -4.7154389522,
				"y": 2.4410786448,
				"z": 2.7817878526,
				"element": "C" 
			},
			{
				"x": -5.7958717187,
				"y": 1.5912830647,
				"z": 2.5572399741,
				"element": "C" 
			},
			{
				"x": -7.4115777465,
				"y": 2.2541775965,
				"z": 2.400988682,
				"element": "Cl" 
			},
			{
				"x": -5.6129793449,
				"y": 0.2164740437,
				"z": 2.4560913629,
				"element": "C" 
			},
			{
				"x": -4.3272523914,
				"y": -0.3181829224,
				"z": 2.5804154928,
				"element": "C" 
			},
			{
				"x": -4.2213241258,
				"y": -2.0647203523,
				"z": 2.4159124416,
				"element": "Cl" 
			},
			{
				"x": 0.8416395564,
				"y": -3.4211869507,
				"z": 3.5776087209,
				"element": "C" 
			},
			{
				"x": 1.587718974,
				"y": -3.8879439512,
				"z": 2.4933704176,
				"element": "C" 
			},
			{
				"x": -2.7934144099,
				"y": 6.7082743234,
				"z": -2.0628813859,
				"element": "H" 
			},
			{
				"x": -1.7708856863,
				"y": 7.1904589467,
				"z": -0.7071060272,
				"element": "H" 
			},
			{
				"x": -2.0307435028,
				"y": 5.4720252619,
				"z": -1.0610231003,
				"element": "H" 
			},
			{
				"x": 0.258547385,
				"y": 6.3246066624,
				"z": -1.819326856,
				"element": "H" 
			},
			{
				"x": -0.5455298481,
				"y": 7.4617860533,
				"z": -2.8870503622,
				"element": "H" 
			},
			{
				"x": 0.296737508,
				"y": 5.5791161293,
				"z": -4.1207545797,
				"element": "H" 
			},
			{
				"x": -1.6918607653,
				"y": 4.8378144435,
				"z": -5.3561860567,
				"element": "H" 
			},
			{
				"x": -2.7552257957,
				"y": 5.2540899565,
				"z": -4.0059068825,
				"element": "H" 
			},
			{
				"x": -1.9118646379,
				"y": 6.5375165923,
				"z": -4.897773411,
				"element": "H" 
			},
			{
				"x": -1.5865810177,
				"y": 1.4130124571,
				"z": -1.6845188125,
				"element": "H" 
			},
			{
				"x": 2.9276076004,
				"y": 2.2532355759,
				"z": -1.7750939119,
				"element": "H" 
			},
			{
				"x": 4.3960979916,
				"y": 0.3459431013,
				"z": -1.3003085209,
				"element": "H" 
			},
			{
				"x": 1.0874149248,
				"y": -2.3419211155,
				"z": -2.0013225613,
				"element": "H" 
			},
			{
				"x": -0.3175460077,
				"y": -0.4460530593,
				"z": -2.5545227083,
				"element": "H" 
			},
			{
				"x": 2.6191654368,
				"y": -3.6981223563,
				"z": -2.2816605043,
				"element": "H" 
			},
			{
				"x": 4.2262916272,
				"y": -4.175993632,
				"z": -1.7920540895,
				"element": "H" 
			},
			{
				"x": 2.7935575367,
				"y": -5.3482686494,
				"z": -0.2580790294,
				"element": "H" 
			},
			{
				"x": 1.7128360243,
				"y": -3.9595262118,
				"z": -0.0717156879,
				"element": "H" 
			},
			{
				"x": 5.3924885134,
				"y": -4.0944009035,
				"z": 0.1990996695,
				"element": "H" 
			},
			{
				"x": 5.3776501714,
				"y": -3.0289300068,
				"z": 1.5827529572,
				"element": "H" 
			},
			{
				"x": 4.5812333625,
				"y": -1.1496561931,
				"z": 0.3009035808,
				"element": "H" 
			},
			{
				"x": 5.7758987167,
				"y": -1.9199133524,
				"z": -0.7543342189,
				"element": "H" 
			},
			{
				"x": 4.1720150627,
				"y": -1.6848233703,
				"z": 2.6454652301,
				"element": "H" 
			},
			{
				"x": 2.8681872545,
				"y": -0.9008256909,
				"z": 4.5652115165,
				"element": "H" 
			},
			{
				"x": -0.8376600276,
				"y": -1.9187680724,
				"z": 6.7610410162,
				"element": "H" 
			},
			{
				"x": -1.0266088721,
				"y": -3.0303774466,
				"z": 5.4041025157,
				"element": "H" 
			},
			{
				"x": -2.6291166685,
				"y": -1.1257892469,
				"z": 5.3856617408,
				"element": "H" 
			},
			{
				"x": -0.1703854056,
				"y": 0.5658156521,
				"z": 5.5997723614,
				"element": "H" 
			},
			{
				"x": -1.8844562749,
				"y": 1.0790535769,
				"z": 5.6767687751,
				"element": "H" 
			},
			{
				"x": 0.0614059614,
				"y": -0.2494340703,
				"z": 1.8645145473,
				"element": "H" 
			},
			{
				"x": -0.9875056178,
				"y": 1.0146532148,
				"z": 1.1815976151,
				"element": "H" 
			},
			{
				"x": -0.535952181,
				"y": -2.7559900626,
				"z": 1.1709944843,
				"element": "H" 
			},
			{
				"x": -3.1977217597,
				"y": -1.7034060616,
				"z": -1.862497872,
				"element": "H" 
			},
			{
				"x": -2.5987132147,
				"y": 2.5318068172,
				"z": 3.0979593371,
				"element": "H" 
			},
			{
				"x": -4.8631792058,
				"y": 3.5121401434,
				"z": 2.8570514409,
				"element": "H" 
			},
			{
				"x": -6.4550399151,
				"y": -0.4406421097,
				"z": 2.2783098567,
				"element": "H" 
			},
			{
				"x": -0.0876995412,
				"y": -3.9236994818,
				"z": 3.8186718248,
				"element": "H" 
			},
			{
				"x": 1.2286634586,
				"y": -4.7603401251,
				"z": 1.9573902545,
				"element": "H" 
			}
		],
		 "valence_orbital": [ 
			{
				"type": "occ",
				"energy": -0.25201,
				"method": "rhf"
			},
			{
				"type": "occ",
				"energy": -0.24535,
				"method": "rhf"
			},
			{
				"type": "occ",
				"energy": -0.21101,
				"method": "rhf"
			},
			{
				"type": "occ",
				"energy": -0.19019,
				"method": "rhf"
			},
			{
				"type": "occ",
				"energy": -0.18333,
				"method": "rhf"
			},
			{
				"type": "unocc",
				"energy": -0.03365,
				"method": "rhf"
			},
			{
				"type": "unocc",
				"energy": -0.02834,
				"method": "rhf"
			},
			{
				"type": "unocc",
				"energy": -0.01191,
				"method": "rhf"
			},
			{
				"type": "unocc",
				"energy": -0.00323,
				"method": "rhf"
			},
			{
				"type": "unocc",
				"energy": -0.0001,
				"method": "rhf"
			}
		],
		"cosmo_sigma_profile": { 
			"-0.025": 0.0,
			"-0.024": 0.0,
			"-0.023": 0.0,
			"-0.022": 0.0,
			"-0.021": 0.0,
			"-0.02": 0.0,
			"-0.019": 0.0,
			"-0.018": 0.0,
			"-0.017": 0.0,
			"-0.016": 0.0,
			"-0.015": 0.0,
			"-0.014": 0.0,
			"-0.013": 0.0,
			"-0.012": 0.0,
			"-0.011": 0.0,
			"-0.01": 0.0,
			"-0.009": 0.684240050596,
			"-0.008": 6.25175185393,
			"-0.007": 16.8625407559,
			"-0.006": 32.4744298069,
			"-0.005": 46.6287346744,
			"-0.004": 60.922070946,
			"-0.003": 70.8590986368,
			"-0.002": 60.2375661452,
			"-0.001": 58.9116378826,
			"0.0": 59.2716688447,
			"0.001": 55.7194687501,
			"0.002": 48.2638829755,
			"0.003": 40.0165012139,
			"0.004": 41.1362562866,
			"0.005": 29.3853477114,
			"0.006": 21.202958195,
			"0.007": 10.7975926198,
			"0.008": 7.72766857651,
			"0.009": 6.36296888398,
			"0.01": 5.95206470889,
			"0.011": 4.53805154803,
			"0.012": 3.6500293322,
			"0.013": 4.65154860419,
			"0.014": 5.25514737077,
			"0.015": 0.951124042031,
			"0.016": 1.07867594353,
			"0.017": 0.254333932567,
			"0.018": 0.0,
			"0.019": 0.0,
			"0.02": 0.0,
			"0.021": 0.0,
			"0.022": 0.0,
			"0.023": 0.0,
			"0.024": 0.0,
			"0.025": 0.0
		}
	}
}
