{
	 "smiles": "CC1=NOC(NC(=O)CCl)=C1", 
	 "Tm": 380.15, 
	 "num_atms": 18, 
	 "gaussian": { 
		 "optdone": 1, 
		 "sigma_profile": "yes", 
		 "theory": "DFT", 
		 "functional": "B3LYP", 
		 "basiset": "6-31G**", 
		 "properties": { 
			 "R2extent": 2590.9257, 
			 "electric_dipole_moment_norm": 2.64700295806, 
			 "electric_quadrupole_moment_norm": 11.2385115078, 
			 "total_energy": -952.95823491, 
			 "HOMO_LUMO_gap": 0.19427, 
			 "cosmo_polarized_energy": -13.55, 
			 "cosmo_cavitation_energy": 24.52, 
			 "cosmo_dispersion_energy": -18.11, 
			 "cosmo_repulsion_energy": 1.48, 
			 "cosmo_total_nonelectrostatic_energy": 7.89, 
			 "SMD_solvation_energy": 4.92 
		},
		"coords": [
			{
				"x": 3.6913397858,
				"y": -1.1021067487,
				"z": 0.4231887906,
				"element": "C" 
			},
			{
				"x": 2.3871406158,
				"y": -0.3752444732,
				"z": 0.3142189913,
				"element": "C" 
			},
			{
				"x": 2.3754585944,
				"y": 0.907115163,
				"z": 0.0262245377,
				"element": "N" 
			},
			{
				"x": 1.0126909466,
				"y": 1.2714630551,
				"z": 0.001388592,
				"element": "O" 
			},
			{
				"x": 0.2689191225,
				"y": 0.1866962536,
				"z": 0.2942870446,
				"element": "C" 
			},
			{
				"x": -1.0923144602,
				"y": 0.4379321616,
				"z": 0.3208096599,
				"element": "N" 
			},
			{
				"x": -2.1818059692,
				"y": -0.3880320458,
				"z": 0.0860296963,
				"element": "C" 
			},
			{
				"x": -3.3105389402,
				"y": 0.0655440139,
				"z": 0.1099482627,
				"element": "O" 
			},
			{
				"x": -1.9168988371,
				"y": -1.8533476257,
				"z": -0.2291919924,
				"element": "C" 
			},
			{
				"x": -1.7664588735,
				"y": -2.8328900054,
				"z": 1.2895704926,
				"element": "Cl" 
			},
			{
				"x": 1.0717410508,
				"y": -0.8980002357,
				"z": 0.5074641372,
				"element": "C" 
			},
			{
				"x": 3.810559376,
				"y": -1.5397428631,
				"z": 1.4195799952,
				"element": "H" 
			},
			{
				"x": 4.518642897,
				"y": -0.4135141958,
				"z": 0.2411626056,
				"element": "H" 
			},
			{
				"x": 3.7453633956,
				"y": -1.9173036233,
				"z": -0.3057001345,
				"element": "H" 
			},
			{
				"x": -1.3530853993,
				"y": 1.4116929605,
				"z": 0.4344355036,
				"element": "H" 
			},
			{
				"x": -1.0039759846,
				"y": -2.0050070375,
				"z": -0.8058942973,
				"element": "H" 
			},
			{
				"x": -2.7845797975,
				"y": -2.2313870888,
				"z": -0.7655280369,
				"element": "H" 
			},
			{
				"x": 0.790202477,
				"y": -1.8912676646,
				"z": 0.8159061519,
				"element": "H" 
			}
		],
		 "valence_orbital": [ 
			{
				"type": "occ",
				"energy": -0.3204,
				"method": "rhf"
			},
			{
				"type": "occ",
				"energy": -0.31289,
				"method": "rhf"
			},
			{
				"type": "occ",
				"energy": -0.29728,
				"method": "rhf"
			},
			{
				"type": "occ",
				"energy": -0.2843,
				"method": "rhf"
			},
			{
				"type": "occ",
				"energy": -0.24694,
				"method": "rhf"
			},
			{
				"type": "unocc",
				"energy": -0.05267,
				"method": "rhf"
			},
			{
				"type": "unocc",
				"energy": -0.00728,
				"method": "rhf"
			},
			{
				"type": "unocc",
				"energy": 0.03745,
				"method": "rhf"
			},
			{
				"type": "unocc",
				"energy": 0.05357,
				"method": "rhf"
			},
			{
				"type": "unocc",
				"energy": 0.07428,
				"method": "rhf"
			}
		],
		"cosmo_sigma_profile": { 
			"-0.025": 0.0,
			"-0.024": 0.0,
			"-0.023": 0.0,
			"-0.022": 0.0,
			"-0.021": 0.0,
			"-0.02": 0.0,
			"-0.019": 0.0,
			"-0.018": 0.0,
			"-0.017": 0.268277826157,
			"-0.016": 1.14930052959,
			"-0.015": 0.572944973003,
			"-0.014": 0.819720228773,
			"-0.013": 1.01103845092,
			"-0.012": 0.742416671751,
			"-0.011": 1.00810272617,
			"-0.01": 0.986493678712,
			"-0.009": 4.66900798251,
			"-0.008": 6.32873469661,
			"-0.007": 6.78490328009,
			"-0.006": 9.12650583112,
			"-0.005": 11.9196219764,
			"-0.004": 11.6743903499,
			"-0.003": 13.0631156523,
			"-0.002": 15.095231423,
			"-0.001": 16.0176245326,
			"0.0": 11.6953407327,
			"0.001": 12.6863843011,
			"0.002": 10.5073741364,
			"0.003": 9.22634455405,
			"0.004": 9.63181427374,
			"0.005": 8.16594033294,
			"0.006": 3.75708807256,
			"0.007": 5.47277393718,
			"0.008": 4.65690230335,
			"0.009": 2.96143064437,
			"0.01": 4.04360145543,
			"0.011": 6.5479213746,
			"0.012": 4.54326744419,
			"0.013": 1.29165416503,
			"0.014": 1.23591553133,
			"0.015": 0.166915551406,
			"0.016": 0.0,
			"0.017": 0.0,
			"0.018": 0.0,
			"0.019": 0.0,
			"0.02": 0.0,
			"0.021": 0.0,
			"0.022": 0.0,
			"0.023": 0.0,
			"0.024": 0.0,
			"0.025": 0.0
		}
	}
}
