{
	 "smiles": "CC1CCCCN1", 
	 "Tm": 268.65, 
	 "num_atms": 20, 
	 "gaussian": { 
		 "optdone": 1, 
		 "sigma_profile": "yes", 
		 "theory": "DFT", 
		 "functional": "B3LYP", 
		 "basiset": "6-31G**", 
		 "properties": { 
			 "R2extent": 1254.3524, 
			 "electric_dipole_moment_norm": 0.833945549781, 
			 "electric_quadrupole_moment_norm": 3.11695807479, 
			 "total_energy": -291.23173106, 
			 "HOMO_LUMO_gap": 0.28595, 
			 "cosmo_polarized_energy": -3.37, 
			 "cosmo_cavitation_energy": 19.99, 
			 "cosmo_dispersion_energy": -15.39, 
			 "cosmo_repulsion_energy": 1.3, 
			 "cosmo_total_nonelectrostatic_energy": 5.9, 
			 "SMD_solvation_energy": 0.85 
		},
		"coords": [
			{
				"x": -0.0425234421,
				"y": 0.9486354308,
				"z": 1.1402908141,
				"element": "C" 
			},
			{
				"x": 1.2671588532,
				"y": 0.8200708123,
				"z": 0.3358846694,
				"element": "C" 
			},
			{
				"x": 2.4497066622,
				"y": 0.3257662169,
				"z": 1.193339757,
				"element": "C" 
			},
			{
				"x": 2.3565781468,
				"y": -1.1753209956,
				"z": 1.5122039437,
				"element": "C" 
			},
			{
				"x": 2.1784045539,
				"y": -1.9891898775,
				"z": 0.2220324129,
				"element": "C" 
			},
			{
				"x": 0.9857929433,
				"y": -1.461872872,
				"z": -0.5819922766,
				"element": "C" 
			},
			{
				"x": 1.1726814075,
				"y": -0.0348189948,
				"z": -0.8601315302,
				"element": "N" 
			},
			{
				"x": -0.3687234443,
				"y": -0.0044370359,
				"z": 1.5675286775,
				"element": "H" 
			},
			{
				"x": -0.851629177,
				"y": 1.3190891267,
				"z": 0.499970623,
				"element": "H" 
			},
			{
				"x": 0.0765563793,
				"y": 1.6582660752,
				"z": 1.9669185814,
				"element": "H" 
			},
			{
				"x": 1.5210094457,
				"y": 1.824919635,
				"z": -0.0281244106,
				"element": "H" 
			},
			{
				"x": 3.3740973558,
				"y": 0.5106423456,
				"z": 0.6327620041,
				"element": "H" 
			},
			{
				"x": 2.5077031874,
				"y": 0.9142013932,
				"z": 2.1167807539,
				"element": "H" 
			},
			{
				"x": 1.5081645337,
				"y": -1.3665527277,
				"z": 2.1831521194,
				"element": "H" 
			},
			{
				"x": 3.2541789669,
				"y": -1.4998002845,
				"z": 2.051921655,
				"element": "H" 
			},
			{
				"x": 3.0822032122,
				"y": -1.9015897364,
				"z": -0.3940361918,
				"element": "H" 
			},
			{
				"x": 2.0355344255,
				"y": -3.0524366516,
				"z": 0.4488301888,
				"element": "H" 
			},
			{
				"x": 0.9150666089,
				"y": -1.9852739292,
				"z": -1.5424855217,
				"element": "H" 
			},
			{
				"x": 0.0544421514,
				"y": -1.6889410734,
				"z": -0.0288037682,
				"element": "H" 
			},
			{
				"x": 0.4245972299,
				"y": 0.3012431428,
				"z": -1.460742501,
				"element": "H" 
			}
		],
		 "valence_orbital": [ 
			{
				"type": "occ",
				"energy": -0.33439,
				"method": "rhf"
			},
			{
				"type": "occ",
				"energy": -0.3155,
				"method": "rhf"
			},
			{
				"type": "occ",
				"energy": -0.30431,
				"method": "rhf"
			},
			{
				"type": "occ",
				"energy": -0.2978,
				"method": "rhf"
			},
			{
				"type": "occ",
				"energy": -0.20986,
				"method": "rhf"
			},
			{
				"type": "unocc",
				"energy": 0.07609,
				"method": "rhf"
			},
			{
				"type": "unocc",
				"energy": 0.11195,
				"method": "rhf"
			},
			{
				"type": "unocc",
				"energy": 0.12392,
				"method": "rhf"
			},
			{
				"type": "unocc",
				"energy": 0.13504,
				"method": "rhf"
			},
			{
				"type": "unocc",
				"energy": 0.14671,
				"method": "rhf"
			}
		],
		"cosmo_sigma_profile": { 
			"-0.025": 0.0,
			"-0.024": 0.0,
			"-0.023": 0.0,
			"-0.022": 0.0,
			"-0.021": 0.0,
			"-0.02": 0.0,
			"-0.019": 0.0,
			"-0.018": 0.0,
			"-0.017": 0.0,
			"-0.016": 0.0,
			"-0.015": 0.0,
			"-0.014": 0.0,
			"-0.013": 0.0,
			"-0.012": 0.0,
			"-0.011": 0.0,
			"-0.01": 0.0680166162016,
			"-0.009": 0.976746875783,
			"-0.008": 1.36241767869,
			"-0.007": 0.857161740819,
			"-0.006": 1.60519102717,
			"-0.005": 1.39949715505,
			"-0.004": 1.6167525824,
			"-0.003": 9.40387219099,
			"-0.002": 25.492901617,
			"-0.001": 28.0328766105,
			"0.0": 33.8440923329,
			"0.001": 27.0661476845,
			"0.002": 9.07460064902,
			"0.003": 1.65247193767,
			"0.004": 1.09782243741,
			"0.005": 1.15679430716,
			"0.006": 0.66006416053,
			"0.007": 0.767023894831,
			"0.008": 0.595981911063,
			"0.009": 1.25907741892,
			"0.01": 0.680936075686,
			"0.011": 0.367061860112,
			"0.012": 0.522421001258,
			"0.013": 0.503540496886,
			"0.014": 0.782156196066,
			"0.015": 0.543942904965,
			"0.016": 0.52501178685,
			"0.017": 0.4319495781,
			"0.018": 0.352354997633,
			"0.019": 0.306355464868,
			"0.02": 0.0,
			"0.021": 0.0,
			"0.022": 0.0,
			"0.023": 0.0,
			"0.024": 0.0,
			"0.025": 0.0
		}
	}
}
