{
	 "smiles": "FC1=CC(F)=C(C=C1)N1N=CC(Cl)=C(Cl)C1=O", 
	 "Tm": 447.15, 
	 "num_atms": 21, 
	 "gaussian": { 
		 "optdone": 1, 
		 "sigma_profile": "yes", 
		 "theory": "DFT", 
		 "functional": "B3LYP", 
		 "basiset": "6-31G**", 
		 "properties": { 
			 "R2extent": 6581.9026, 
			 "electric_dipole_moment_norm": 3.14863171552, 
			 "electric_quadrupole_moment_norm": 7.13112485867, 
			 "total_energy": -1688.20979883, 
			 "HOMO_LUMO_gap": 0.15997, 
			 "cosmo_polarized_energy": -10.76, 
			 "cosmo_cavitation_energy": 31.35, 
			 "cosmo_dispersion_energy": -22.61, 
			 "cosmo_repulsion_energy": 1.7, 
			 "cosmo_total_nonelectrostatic_energy": 10.44, 
			 "SMD_solvation_energy": 5.97 
		},
		"coords": [
			{
				"x": -0.7271153583,
				"y": 1.0716943061,
				"z": -4.1398732219,
				"element": "F" 
			},
			{
				"x": -0.3485063795,
				"y": 0.7172888704,
				"z": -2.8997602198,
				"element": "C" 
			},
			{
				"x": -0.1188008867,
				"y": -0.62838424,
				"z": -2.6349569503,
				"element": "C" 
			},
			{
				"x": 0.2777103224,
				"y": -0.9792243606,
				"z": -1.3515959945,
				"element": "C" 
			},
			{
				"x": 0.5492921581,
				"y": -2.2624474292,
				"z": -1.0849999557,
				"element": "F" 
			},
			{
				"x": 0.4233131802,
				"y": -0.0206362024,
				"z": -0.3446322151,
				"element": "C" 
			},
			{
				"x": 0.1893256438,
				"y": 1.3211919228,
				"z": -0.6483515851,
				"element": "C" 
			},
			{
				"x": -0.1941202615,
				"y": 1.7043127401,
				"z": -1.9311943434,
				"element": "C" 
			},
			{
				"x": 0.8380180458,
				"y": -0.4060047205,
				"z": 0.9718736858,
				"element": "N" 
			},
			{
				"x": 1.9326103301,
				"y": 0.2289676579,
				"z": 1.4348825878,
				"element": "N" 
			},
			{
				"x": 2.3403579972,
				"y": -0.052232307,
				"z": 2.6380965135,
				"element": "C" 
			},
			{
				"x": 1.6880626451,
				"y": -1.004169641,
				"z": 3.4843321699,
				"element": "C" 
			},
			{
				"x": 2.3712239346,
				"y": -1.2924070123,
				"z": 5.0539516541,
				"element": "Cl" 
			},
			{
				"x": 0.5666388679,
				"y": -1.6356891288,
				"z": 3.0299092052,
				"element": "C" 
			},
			{
				"x": -0.3216470078,
				"y": -2.7824611623,
				"z": 3.9545824447,
				"element": "Cl" 
			},
			{
				"x": 0.0342172697,
				"y": -1.3301121536,
				"z": 1.6927008481,
				"element": "C" 
			},
			{
				"x": -0.986635671,
				"y": -1.7919217633,
				"z": 1.2186967717,
				"element": "O" 
			},
			{
				"x": -0.2311317799,
				"y": -1.3824210095,
				"z": -3.4040361754,
				"element": "H" 
			},
			{
				"x": 0.3172349966,
				"y": 2.0623427776,
				"z": 0.132570439,
				"element": "H" 
			},
			{
				"x": -0.3804435512,
				"y": 2.7414606478,
				"z": -2.1833745514,
				"element": "H" 
			},
			{
				"x": 3.2246955045,
				"y": 0.4710522077,
				"z": 2.9843788927,
				"element": "H" 
			}
		],
		 "valence_orbital": [ 
			{
				"type": "occ",
				"energy": -0.30529,
				"method": "rhf"
			},
			{
				"type": "occ",
				"energy": -0.27885,
				"method": "rhf"
			},
			{
				"type": "occ",
				"energy": -0.27536,
				"method": "rhf"
			},
			{
				"type": "occ",
				"energy": -0.26531,
				"method": "rhf"
			},
			{
				"type": "occ",
				"energy": -0.24706,
				"method": "rhf"
			},
			{
				"type": "unocc",
				"energy": -0.08709,
				"method": "rhf"
			},
			{
				"type": "unocc",
				"energy": -0.03179,
				"method": "rhf"
			},
			{
				"type": "unocc",
				"energy": -0.02184,
				"method": "rhf"
			},
			{
				"type": "unocc",
				"energy": -0.01679,
				"method": "rhf"
			},
			{
				"type": "unocc",
				"energy": -0.01139,
				"method": "rhf"
			}
		],
		"cosmo_sigma_profile": { 
			"-0.025": 0.0,
			"-0.024": 0.0,
			"-0.023": 0.0,
			"-0.022": 0.0,
			"-0.021": 0.0,
			"-0.02": 0.0,
			"-0.019": 0.0,
			"-0.018": 0.0,
			"-0.017": 0.0,
			"-0.016": 0.0,
			"-0.015": 0.0,
			"-0.014": 0.0,
			"-0.013": 0.0,
			"-0.012": 0.0,
			"-0.011": 0.0933722707992,
			"-0.01": 1.63263810791,
			"-0.009": 3.43354483833,
			"-0.008": 6.63397926461,
			"-0.007": 8.32050764569,
			"-0.006": 10.0271551349,
			"-0.005": 11.1436702607,
			"-0.004": 16.0280967051,
			"-0.003": 18.6058076714,
			"-0.002": 16.2754711721,
			"-0.001": 22.2550444514,
			"0.0": 26.3395153695,
			"0.001": 23.8101881365,
			"0.002": 26.5325895464,
			"0.003": 26.4958281519,
			"0.004": 12.88234695,
			"0.005": 3.95521873106,
			"0.006": 3.41756933148,
			"0.007": 3.13610118886,
			"0.008": 2.9790194069,
			"0.009": 3.25350035852,
			"0.01": 3.0109782461,
			"0.011": 4.10792102011,
			"0.012": 3.70129484812,
			"0.013": 0.600482149628,
			"0.014": 0.0,
			"0.015": 0.0,
			"0.016": 0.0,
			"0.017": 0.0,
			"0.018": 0.0,
			"0.019": 0.0,
			"0.02": 0.0,
			"0.021": 0.0,
			"0.022": 0.0,
			"0.023": 0.0,
			"0.024": 0.0,
			"0.025": 0.0
		}
	}
}
