{
	 "smiles": "CCC1CCC2=CC=CC=C2C1", 
	 "Tm": 230.35, 
	 "num_atms": 28, 
	 "gaussian": { 
		 "optdone": 1, 
		 "sigma_profile": "yes", 
		 "theory": "DFT", 
		 "functional": "B3LYP", 
		 "basiset": "6-31G**", 
		 "properties": { 
			 "R2extent": 2623.6104, 
			 "electric_dipole_moment_norm": 0.644854130792, 
			 "electric_quadrupole_moment_norm": 3.90269592718, 
			 "total_energy": -466.947844063, 
			 "HOMO_LUMO_gap": 0.23259, 
			 "cosmo_polarized_energy": -3.1, 
			 "cosmo_cavitation_energy": 28.49, 
			 "cosmo_dispersion_energy": -20.99, 
			 "cosmo_repulsion_energy": 1.67, 
			 "cosmo_total_nonelectrostatic_energy": 9.17, 
			 "SMD_solvation_energy": 3.98 
		},
		"coords": [
			{
				"x": 4.0951923861,
				"y": 0.7796021629,
				"z": -1.4590342757,
				"element": "C" 
			},
			{
				"x": 2.7195664296,
				"y": 0.3620448682,
				"z": -1.9921705971,
				"element": "C" 
			},
			{
				"x": 1.5448886697,
				"y": 0.6281297225,
				"z": -1.0348448601,
				"element": "C" 
			},
			{
				"x": 0.1946519426,
				"y": 0.2978495663,
				"z": -1.6899438762,
				"element": "C" 
			},
			{
				"x": -0.9747081064,
				"y": 0.7304770158,
				"z": -0.7985669945,
				"element": "C" 
			},
			{
				"x": -0.8237614449,
				"y": 0.2860831834,
				"z": 0.6452233399,
				"element": "C" 
			},
			{
				"x": -1.9400053779,
				"y": 0.2879755422,
				"z": 1.4945493745,
				"element": "C" 
			},
			{
				"x": -1.834502038,
				"y": -0.0816176723,
				"z": 2.8326745483,
				"element": "C" 
			},
			{
				"x": -0.591845928,
				"y": -0.4628299321,
				"z": 3.3449900814,
				"element": "C" 
			},
			{
				"x": 0.5219210021,
				"y": -0.4689804658,
				"z": 2.5096065127,
				"element": "C" 
			},
			{
				"x": 0.426301977,
				"y": -0.101237067,
				"z": 1.159103492,
				"element": "C" 
			},
			{
				"x": 1.6655596862,
				"y": -0.1596220176,
				"z": 0.2809409892,
				"element": "C" 
			},
			{
				"x": 4.1070590276,
				"y": 1.8406500869,
				"z": -1.1836141356,
				"element": "H" 
			},
			{
				"x": 4.8712463181,
				"y": 0.6257623241,
				"z": -2.2159333726,
				"element": "H" 
			},
			{
				"x": 4.3847526976,
				"y": 0.2045328528,
				"z": -0.5737182975,
				"element": "H" 
			},
			{
				"x": 2.7345950845,
				"y": -0.7070706597,
				"z": -2.2486294256,
				"element": "H" 
			},
			{
				"x": 2.5256036257,
				"y": 0.895434656,
				"z": -2.9322897416,
				"element": "H" 
			},
			{
				"x": 1.5441443612,
				"y": 1.7026418003,
				"z": -0.7907864324,
				"element": "H" 
			},
			{
				"x": 0.115354005,
				"y": 0.7865108296,
				"z": -2.6686960573,
				"element": "H" 
			},
			{
				"x": 0.1423665408,
				"y": -0.7847124916,
				"z": -1.8740190003,
				"element": "H" 
			},
			{
				"x": -1.9226012996,
				"y": 0.3543824567,
				"z": -1.2024937268,
				"element": "H" 
			},
			{
				"x": -1.054431376,
				"y": 1.8275438848,
				"z": -0.8240920061,
				"element": "H" 
			},
			{
				"x": -2.9062260083,
				"y": 0.5858091581,
				"z": 1.0924614869,
				"element": "H" 
			},
			{
				"x": -2.7133115553,
				"y": -0.0738244631,
				"z": 3.4714076244,
				"element": "H" 
			},
			{
				"x": -0.4925387802,
				"y": -0.7515413422,
				"z": 4.3876464072,
				"element": "H" 
			},
			{
				"x": 1.4907697297,
				"y": -0.7651801227,
				"z": 2.9065872101,
				"element": "H" 
			},
			{
				"x": 1.8762023909,
				"y": -1.2128513779,
				"z": 0.0355516399,
				"element": "H" 
			},
			{
				"x": 2.5289560403,
				"y": 0.1885375012,
				"z": 0.8593900927,
				"element": "H" 
			}
		],
		 "valence_orbital": [ 
			{
				"type": "occ",
				"energy": -0.31826,
				"method": "rhf"
			},
			{
				"type": "occ",
				"energy": -0.30093,
				"method": "rhf"
			},
			{
				"type": "occ",
				"energy": -0.29885,
				"method": "rhf"
			},
			{
				"type": "occ",
				"energy": -0.23506,
				"method": "rhf"
			},
			{
				"type": "occ",
				"energy": -0.22813,
				"method": "rhf"
			},
			{
				"type": "unocc",
				"energy": 0.00446,
				"method": "rhf"
			},
			{
				"type": "unocc",
				"energy": 0.01043,
				"method": "rhf"
			},
			{
				"type": "unocc",
				"energy": 0.09012,
				"method": "rhf"
			},
			{
				"type": "unocc",
				"energy": 0.10545,
				"method": "rhf"
			},
			{
				"type": "unocc",
				"energy": 0.11294,
				"method": "rhf"
			}
		],
		"cosmo_sigma_profile": { 
			"-0.025": 0.0,
			"-0.024": 0.0,
			"-0.023": 0.0,
			"-0.022": 0.0,
			"-0.021": 0.0,
			"-0.02": 0.0,
			"-0.019": 0.0,
			"-0.018": 0.0,
			"-0.017": 0.0,
			"-0.016": 0.0,
			"-0.015": 0.0,
			"-0.014": 0.0,
			"-0.013": 0.0,
			"-0.012": 0.0,
			"-0.011": 0.0,
			"-0.01": 0.0,
			"-0.009": 0.0,
			"-0.008": 0.0,
			"-0.007": 0.0,
			"-0.006": 0.19964263764,
			"-0.005": 4.97022693881,
			"-0.004": 8.58605175074,
			"-0.003": 20.6382143727,
			"-0.002": 37.8259867632,
			"-0.001": 38.0941383602,
			"0.0": 36.7749541359,
			"0.001": 24.4008890264,
			"0.002": 14.3136852152,
			"0.003": 7.38623436539,
			"0.004": 6.28597164492,
			"0.005": 7.27306820761,
			"0.006": 7.12438048311,
			"0.007": 6.94836639957,
			"0.008": 1.05049962164,
			"0.009": 0.0,
			"0.01": 0.0,
			"0.011": 0.0,
			"0.012": 0.0,
			"0.013": 0.0,
			"0.014": 0.0,
			"0.015": 0.0,
			"0.016": 0.0,
			"0.017": 0.0,
			"0.018": 0.0,
			"0.019": 0.0,
			"0.02": 0.0,
			"0.021": 0.0,
			"0.022": 0.0,
			"0.023": 0.0,
			"0.024": 0.0,
			"0.025": 0.0
		}
	}
}
