{
	 "smiles": "CC1=CC=C2C=CC=CC2=C1N(=O)=O", 
	 "Tm": 354.65, 
	 "num_atms": 23, 
	 "gaussian": { 
		 "optdone": 1, 
		 "sigma_profile": "yes", 
		 "theory": "DFT", 
		 "functional": "B3LYP", 
		 "basiset": "6-31G**", 
		 "properties": { 
			 "R2extent": 2667.7249, 
			 "electric_dipole_moment_norm": 4.00630954995, 
			 "electric_quadrupole_moment_norm": 11.7370690375, 
			 "total_energy": -629.703979671, 
			 "HOMO_LUMO_gap": 0.14971, 
			 "cosmo_polarized_energy": -8.55, 
			 "cosmo_cavitation_energy": 26.88, 
			 "cosmo_dispersion_energy": -19.81, 
			 "cosmo_repulsion_energy": 1.52, 
			 "cosmo_total_nonelectrostatic_energy": 8.58, 
			 "SMD_solvation_energy": 6.51 
		},
		"coords": [
			{
				"x": 0.707392619,
				"y": -0.7667701193,
				"z": 2.4968808633,
				"element": "C" 
			},
			{
				"x": 0.8303511804,
				"y": -0.1193084439,
				"z": 1.137798995,
				"element": "C" 
			},
			{
				"x": 1.9847751138,
				"y": 0.6585075432,
				"z": 0.858041497,
				"element": "C" 
			},
			{
				"x": 2.1729587185,
				"y": 1.261180949,
				"z": -0.3609554696,
				"element": "C" 
			},
			{
				"x": 1.2097023226,
				"y": 1.1415996667,
				"z": -1.3947939671,
				"element": "C" 
			},
			{
				"x": 1.4108464749,
				"y": 1.7475087524,
				"z": -2.6637099318,
				"element": "C" 
			},
			{
				"x": 0.4754776647,
				"y": 1.6186380574,
				"z": -3.6628422654,
				"element": "C" 
			},
			{
				"x": -0.7037869101,
				"y": 0.8742290473,
				"z": -3.4265765554,
				"element": "C" 
			},
			{
				"x": -0.9375730095,
				"y": 0.2799373069,
				"z": -2.2062697258,
				"element": "C" 
			},
			{
				"x": 0.0100913303,
				"y": 0.3943274262,
				"z": -1.1508320242,
				"element": "C" 
			},
			{
				"x": -0.1239020884,
				"y": -0.219829199,
				"z": 0.1352259604,
				"element": "C" 
			},
			{
				"x": -1.336786052,
				"y": -1.004962341,
				"z": 0.4172775791,
				"element": "N" 
			},
			{
				"x": -2.4277275761,
				"y": -0.5076106098,
				"z": 0.1339153648,
				"element": "O" 
			},
			{
				"x": -1.1912472365,
				"y": -2.1134772537,
				"z": 0.9329097143,
				"element": "O" 
			},
			{
				"x": 0.9863023154,
				"y": -1.8237230845,
				"z": 2.4499390256,
				"element": "H" 
			},
			{
				"x": -0.3106797296,
				"y": -0.72878675,
				"z": 2.8908868389,
				"element": "H" 
			},
			{
				"x": 1.3712610705,
				"y": -0.2664373725,
				"z": 3.2065728684,
				"element": "H" 
			},
			{
				"x": 2.7312287549,
				"y": 0.7685870154,
				"z": 1.6390438658,
				"element": "H" 
			},
			{
				"x": 3.0707180938,
				"y": 1.8440016158,
				"z": -0.5488640445,
				"element": "H" 
			},
			{
				"x": 2.32475486,
				"y": 2.3118265871,
				"z": -2.8286698712,
				"element": "H" 
			},
			{
				"x": 0.6381132737,
				"y": 2.0829960238,
				"z": -4.6307575047,
				"element": "H" 
			},
			{
				"x": -1.440496384,
				"y": 0.7715131519,
				"z": -4.2178079415,
				"element": "H" 
			},
			{
				"x": -1.8545748063,
				"y": -0.2703479696,
				"z": -2.0440132717,
				"element": "H" 
			}
		],
		 "valence_orbital": [ 
			{
				"type": "occ",
				"energy": -0.30667,
				"method": "rhf"
			},
			{
				"type": "occ",
				"energy": -0.29962,
				"method": "rhf"
			},
			{
				"type": "occ",
				"energy": -0.28073,
				"method": "rhf"
			},
			{
				"type": "occ",
				"energy": -0.25643,
				"method": "rhf"
			},
			{
				"type": "occ",
				"energy": -0.23166,
				"method": "rhf"
			},
			{
				"type": "unocc",
				"energy": -0.08195,
				"method": "rhf"
			},
			{
				"type": "unocc",
				"energy": -0.04512,
				"method": "rhf"
			},
			{
				"type": "unocc",
				"energy": -0.02483,
				"method": "rhf"
			},
			{
				"type": "unocc",
				"energy": 0.02232,
				"method": "rhf"
			},
			{
				"type": "unocc",
				"energy": 0.07901,
				"method": "rhf"
			}
		],
		"cosmo_sigma_profile": { 
			"-0.025": 0.0,
			"-0.024": 0.0,
			"-0.023": 0.0,
			"-0.022": 0.0,
			"-0.021": 0.0,
			"-0.02": 0.0,
			"-0.019": 0.0,
			"-0.018": 0.0,
			"-0.017": 0.0,
			"-0.016": 0.0,
			"-0.015": 0.0,
			"-0.014": 0.0,
			"-0.013": 0.0,
			"-0.012": 0.0,
			"-0.011": 0.0,
			"-0.01": 0.0,
			"-0.009": 0.0,
			"-0.008": 0.531243625546,
			"-0.007": 8.13019426092,
			"-0.006": 14.680027257,
			"-0.005": 17.6298819742,
			"-0.004": 16.928327272,
			"-0.003": 14.1035277132,
			"-0.002": 14.979284922,
			"-0.001": 16.5176221394,
			"0.0": 13.5431615747,
			"0.001": 17.2020006074,
			"0.002": 18.901987929,
			"0.003": 18.0570842531,
			"0.004": 12.4369446368,
			"0.005": 4.72211075307,
			"0.006": 4.77616574249,
			"0.007": 6.99126047583,
			"0.008": 8.05612007887,
			"0.009": 4.70668477362,
			"0.01": 2.34794592709,
			"0.011": 0.113247499778,
			"0.012": 0.0,
			"0.013": 0.0,
			"0.014": 0.0,
			"0.015": 0.0,
			"0.016": 0.0,
			"0.017": 0.0,
			"0.018": 0.0,
			"0.019": 0.0,
			"0.02": 0.0,
			"0.021": 0.0,
			"0.022": 0.0,
			"0.023": 0.0,
			"0.024": 0.0,
			"0.025": 0.0
		}
	}
}
