{
	 "smiles": "CC1=CC=C(NC(=O)CCC2C3CCC(C)(C2=O)C3(C)C)C=C1", 
	 "Tm": 387.15, 
	 "num_atms": 50, 
	 "gaussian": { 
		 "optdone": 1, 
		 "sigma_profile": "yes", 
		 "theory": "DFT", 
		 "functional": "B3LYP", 
		 "basiset": "6-31G**", 
		 "properties": { 
			 "R2extent": 10026.9322, 
			 "electric_dipole_moment_norm": 2.75533517743, 
			 "electric_quadrupole_moment_norm": 18.1771121474, 
			 "total_energy": -983.638096441, 
			 "HOMO_LUMO_gap": 0.20198, 
			 "cosmo_polarized_energy": -16.79, 
			 "cosmo_cavitation_energy": 48.53, 
			 "cosmo_dispersion_energy": -32.63, 
			 "cosmo_repulsion_energy": 2.46, 
			 "cosmo_total_nonelectrostatic_energy": 18.37, 
			 "SMD_solvation_energy": 8.54 
		},
		"coords": [
			{
				"x": 5.0594110652,
				"y": 0.269648848,
				"z": 5.2217880207,
				"element": "C" 
			},
			{
				"x": 4.3770293574,
				"y": 0.5388127134,
				"z": 3.9013393163,
				"element": "C" 
			},
			{
				"x": 3.0890778961,
				"y": 1.0854500898,
				"z": 3.8458158058,
				"element": "C" 
			},
			{
				"x": 2.4281781143,
				"y": 1.3160332846,
				"z": 2.6399691998,
				"element": "C" 
			},
			{
				"x": 3.066385485,
				"y": 0.9944706145,
				"z": 1.4328287903,
				"element": "C" 
			},
			{
				"x": 2.4793771379,
				"y": 1.1943204628,
				"z": 0.1631531198,
				"element": "N" 
			},
			{
				"x": 1.2340054982,
				"y": 1.6915001162,
				"z": -0.1535039215,
				"element": "C" 
			},
			{
				"x": 0.4182679732,
				"y": 2.0720448766,
				"z": 0.6786095688,
				"element": "O" 
			},
			{
				"x": 0.935110425,
				"y": 1.7010852395,
				"z": -1.6508400049,
				"element": "C" 
			},
			{
				"x": 0.4270001193,
				"y": 0.3521485974,
				"z": -2.205475032,
				"element": "C" 
			},
			{
				"x": -0.9594160422,
				"y": -0.0823568554,
				"z": -1.7069160785,
				"element": "C" 
			},
			{
				"x": -1.1666967422,
				"y": -0.6884375474,
				"z": -0.2911498469,
				"element": "C" 
			},
			{
				"x": -0.2351493868,
				"y": -1.9150602537,
				"z": -0.1400295213,
				"element": "C" 
			},
			{
				"x": -0.8749081507,
				"y": -2.9636126244,
				"z": -1.0994441872,
				"element": "C" 
			},
			{
				"x": -2.1592080008,
				"y": -2.2507007267,
				"z": -1.6479667283,
				"element": "C" 
			},
			{
				"x": -3.1753421737,
				"y": -3.1695201382,
				"z": -2.3029714079,
				"element": "C" 
			},
			{
				"x": -1.5674720296,
				"y": -1.1945867779,
				"z": -2.5879110643,
				"element": "C" 
			},
			{
				"x": -1.5296175107,
				"y": -1.2394753999,
				"z": -3.8007353632,
				"element": "O" 
			},
			{
				"x": -2.5794381364,
				"y": -1.3597494907,
				"z": -0.4256573716,
				"element": "C" 
			},
			{
				"x": -3.7300174011,
				"y": -0.3834796103,
				"z": -0.744446053,
				"element": "C" 
			},
			{
				"x": -3.0016911446,
				"y": -2.1535550005,
				"z": 0.8235527541,
				"element": "C" 
			},
			{
				"x": 4.3589398506,
				"y": 0.4503270488,
				"z": 1.470076662,
				"element": "C" 
			},
			{
				"x": 4.9994759717,
				"y": 0.2290702738,
				"z": 2.6853186638,
				"element": "C" 
			},
			{
				"x": 6.1485774011,
				"y": 0.3215260876,
				"z": 5.1282443591,
				"element": "H" 
			},
			{
				"x": 4.7522009225,
				"y": 0.9912430235,
				"z": 5.9850453632,
				"element": "H" 
			},
			{
				"x": 4.8137133171,
				"y": -0.7296848208,
				"z": 5.6034975186,
				"element": "H" 
			},
			{
				"x": 2.581829314,
				"y": 1.3444568319,
				"z": 4.7722802322,
				"element": "H" 
			},
			{
				"x": 1.4361375528,
				"y": 1.7437570435,
				"z": 2.6180530506,
				"element": "H" 
			},
			{
				"x": 3.0630236655,
				"y": 0.9322976145,
				"z": -0.6185759203,
				"element": "H" 
			},
			{
				"x": 1.8327304209,
				"y": 1.9973406299,
				"z": -2.2088638527,
				"element": "H" 
			},
			{
				"x": 0.1802115642,
				"y": 2.4760836183,
				"z": -1.8094940482,
				"element": "H" 
			},
			{
				"x": 0.3506451205,
				"y": 0.4398406837,
				"z": -3.2953003752,
				"element": "H" 
			},
			{
				"x": 1.1725093769,
				"y": -0.4302350051,
				"z": -2.0192140503,
				"element": "H" 
			},
			{
				"x": -1.6156335281,
				"y": 0.7915435698,
				"z": -1.8094264413,
				"element": "H" 
			},
			{
				"x": -1.0787498283,
				"y": 0.0462916071,
				"z": 0.5108791091,
				"element": "H" 
			},
			{
				"x": -0.2208877028,
				"y": -2.2702081166,
				"z": 0.8933780275,
				"element": "H" 
			},
			{
				"x": 0.8023655734,
				"y": -1.6883012025,
				"z": -0.3974282127,
				"element": "H" 
			},
			{
				"x": -0.2080366846,
				"y": -3.2640496045,
				"z": -1.9140448096,
				"element": "H" 
			},
			{
				"x": -1.1629679506,
				"y": -3.8799613554,
				"z": -0.5744770517,
				"element": "H" 
			},
			{
				"x": -4.0651321111,
				"y": -2.6179458516,
				"z": -2.6230560911,
				"element": "H" 
			},
			{
				"x": -3.4922313596,
				"y": -3.9646616472,
				"z": -1.6201556031,
				"element": "H" 
			},
			{
				"x": -2.7452030513,
				"y": -3.6334450279,
				"z": -3.1958197292,
				"element": "H" 
			},
			{
				"x": -3.6233291097,
				"y": 0.1339956776,
				"z": -1.7011761111,
				"element": "H" 
			},
			{
				"x": -4.6832990822,
				"y": -0.9211742933,
				"z": -0.7805559669,
				"element": "H" 
			},
			{
				"x": -3.8144138865,
				"y": 0.3782500446,
				"z": 0.0385778604,
				"element": "H" 
			},
			{
				"x": -2.2728776266,
				"y": -2.9010774402,
				"z": 1.141536303,
				"element": "H" 
			},
			{
				"x": -3.1585861602,
				"y": -1.4690203167,
				"z": 1.6649759112,
				"element": "H" 
			},
			{
				"x": -3.9492374194,
				"y": -2.673404881,
				"z": 0.6454772802,
				"element": "H" 
			},
			{
				"x": 4.8678799718,
				"y": 0.2024784828,
				"z": 0.5405775639,
				"element": "H" 
			},
			{
				"x": 6.0024591251,
				"y": -0.1906130921,
				"z": 2.6858603637,
				"element": "H" 
			}
		],
		 "valence_orbital": [ 
			{
				"type": "occ",
				"energy": -0.28902,
				"method": "rhf"
			},
			{
				"type": "occ",
				"energy": -0.2512,
				"method": "rhf"
			},
			{
				"type": "occ",
				"energy": -0.25005,
				"method": "rhf"
			},
			{
				"type": "occ",
				"energy": -0.22914,
				"method": "rhf"
			},
			{
				"type": "occ",
				"energy": -0.21497,
				"method": "rhf"
			},
			{
				"type": "unocc",
				"energy": -0.01299,
				"method": "rhf"
			},
			{
				"type": "unocc",
				"energy": -0.00961,
				"method": "rhf"
			},
			{
				"type": "unocc",
				"energy": -0.00145,
				"method": "rhf"
			},
			{
				"type": "unocc",
				"energy": 0.03902,
				"method": "rhf"
			},
			{
				"type": "unocc",
				"energy": 0.06159,
				"method": "rhf"
			}
		],
		"cosmo_sigma_profile": { 
			"-0.025": 0.0,
			"-0.024": 0.0,
			"-0.023": 0.0,
			"-0.022": 0.0,
			"-0.021": 0.0,
			"-0.02": 0.0,
			"-0.019": 0.0,
			"-0.018": 0.0,
			"-0.017": 0.0,
			"-0.016": 0.0,
			"-0.015": 0.499368916821,
			"-0.014": 1.28874017627,
			"-0.013": 1.56131260244,
			"-0.012": 1.26983242138,
			"-0.011": 1.53189684093,
			"-0.01": 2.04637136333,
			"-0.009": 1.64966096023,
			"-0.008": 1.88713239898,
			"-0.007": 2.11507084771,
			"-0.006": 4.53612449991,
			"-0.005": 14.5771807593,
			"-0.004": 26.540051468,
			"-0.003": 42.8935785604,
			"-0.002": 50.4220033997,
			"-0.001": 46.3769719304,
			"0.0": 43.2765725182,
			"0.001": 36.9508727889,
			"0.002": 17.0036215273,
			"0.003": 12.3720693911,
			"0.004": 12.3410095535,
			"0.005": 13.6978759527,
			"0.006": 12.5098711048,
			"0.007": 3.90970060778,
			"0.008": 3.27382230291,
			"0.009": 3.90947508362,
			"0.01": 2.96406175522,
			"0.011": 4.44404985271,
			"0.012": 6.50708331228,
			"0.013": 4.36413841941,
			"0.014": 1.34037209468,
			"0.015": 0.278404265002,
			"0.016": 0.0,
			"0.017": 0.0,
			"0.018": 0.0,
			"0.019": 0.0,
			"0.02": 0.0,
			"0.021": 0.0,
			"0.022": 0.0,
			"0.023": 0.0,
			"0.024": 0.0,
			"0.025": 0.0
		}
	}
}
