{
	 "smiles": "CCCCC1=CC=C(C=O)C=C1", 
	 "Tm": 230.15, 
	 "num_atms": 26, 
	 "gaussian": { 
		 "optdone": 1, 
		 "sigma_profile": "yes", 
		 "theory": "DFT", 
		 "functional": "B3LYP", 
		 "basiset": "6-31G**", 
		 "properties": { 
			 "R2extent": 3044.2405, 
			 "electric_dipole_moment_norm": 3.79394363427, 
			 "electric_quadrupole_moment_norm": 14.7314433858, 
			 "total_energy": -502.83940465, 
			 "HOMO_LUMO_gap": 0.19171, 
			 "cosmo_polarized_energy": -7.55, 
			 "cosmo_cavitation_energy": 28.8, 
			 "cosmo_dispersion_energy": -20.12, 
			 "cosmo_repulsion_energy": 1.62, 
			 "cosmo_total_nonelectrostatic_energy": 10.3, 
			 "SMD_solvation_energy": 5.63 
		},
		"coords": [
			{
				"x": -1.5581651949,
				"y": 1.3356951316,
				"z": -0.584292449,
				"element": "C" 
			},
			{
				"x": -1.6326990325,
				"y": 1.7703209122,
				"z": 0.8847716686,
				"element": "C" 
			},
			{
				"x": -0.3491645607,
				"y": 1.5696285941,
				"z": 1.7102991331,
				"element": "C" 
			},
			{
				"x": -0.0156854628,
				"y": 0.115288222,
				"z": 2.1192554069,
				"element": "C" 
			},
			{
				"x": 0.5065887513,
				"y": -0.7939073784,
				"z": 1.0257050004,
				"element": "C" 
			},
			{
				"x": -0.1865754819,
				"y": -1.9553152252,
				"z": 0.6561068906,
				"element": "C" 
			},
			{
				"x": 0.3096500684,
				"y": -2.7989520691,
				"z": -0.3361013701,
				"element": "C" 
			},
			{
				"x": 1.5163528833,
				"y": -2.49910584,
				"z": -0.9789721786,
				"element": "C" 
			},
			{
				"x": 2.0405311932,
				"y": -3.3960979807,
				"z": -2.0298048631,
				"element": "C" 
			},
			{
				"x": 3.0784723092,
				"y": -3.2185774071,
				"z": -2.6403646179,
				"element": "O" 
			},
			{
				"x": 2.2229550069,
				"y": -1.3426400103,
				"z": -0.6107413233,
				"element": "C" 
			},
			{
				"x": 1.7232714861,
				"y": -0.5069477203,
				"z": 0.3781640142,
				"element": "C" 
			},
			{
				"x": -1.4026182895,
				"y": 0.2592832289,
				"z": -0.6901697576,
				"element": "H" 
			},
			{
				"x": -2.4845227532,
				"y": 1.5915682112,
				"z": -1.1097006655,
				"element": "H" 
			},
			{
				"x": -0.7340396014,
				"y": 1.8397806847,
				"z": -1.1019070425,
				"element": "H" 
			},
			{
				"x": -1.888273232,
				"y": 2.8373024531,
				"z": 0.9191049409,
				"element": "H" 
			},
			{
				"x": -2.4626963592,
				"y": 1.2496035523,
				"z": 1.3826405137,
				"element": "H" 
			},
			{
				"x": 0.503820188,
				"y": 2.0057596498,
				"z": 1.1734208318,
				"element": "H" 
			},
			{
				"x": -0.4470078986,
				"y": 2.1470717535,
				"z": 2.6381318433,
				"element": "H" 
			},
			{
				"x": -0.904249615,
				"y": -0.3388968305,
				"z": 2.5743223869,
				"element": "H" 
			},
			{
				"x": 0.7431249341,
				"y": 0.1585166385,
				"z": 2.9123056867,
				"element": "H" 
			},
			{
				"x": -1.1231823813,
				"y": -2.1968068862,
				"z": 1.1518798955,
				"element": "H" 
			},
			{
				"x": -0.2387899188,
				"y": -3.6962342114,
				"z": -0.614800456,
				"element": "H" 
			},
			{
				"x": 1.4012750796,
				"y": -4.2835817098,
				"z": -2.2394417938,
				"element": "H" 
			},
			{
				"x": 3.1609377854,
				"y": -1.1279027961,
				"z": -1.1133690458,
				"element": "H" 
			},
			{
				"x": 2.2815900963,
				"y": 0.3815470333,
				"z": 0.6621573506,
				"element": "H" 
			}
		],
		 "valence_orbital": [ 
			{
				"type": "occ",
				"energy": -0.32645,
				"method": "rhf"
			},
			{
				"type": "occ",
				"energy": -0.32436,
				"method": "rhf"
			},
			{
				"type": "occ",
				"energy": -0.26307,
				"method": "rhf"
			},
			{
				"type": "occ",
				"energy": -0.25093,
				"method": "rhf"
			},
			{
				"type": "occ",
				"energy": -0.25085,
				"method": "rhf"
			},
			{
				"type": "unocc",
				"energy": -0.05914,
				"method": "rhf"
			},
			{
				"type": "unocc",
				"energy": -0.01339,
				"method": "rhf"
			},
			{
				"type": "unocc",
				"energy": 0.03986,
				"method": "rhf"
			},
			{
				"type": "unocc",
				"energy": 0.08422,
				"method": "rhf"
			},
			{
				"type": "unocc",
				"energy": 0.10063,
				"method": "rhf"
			}
		],
		"cosmo_sigma_profile": { 
			"-0.025": 0.0,
			"-0.024": 0.0,
			"-0.023": 0.0,
			"-0.022": 0.0,
			"-0.021": 0.0,
			"-0.02": 0.0,
			"-0.019": 0.0,
			"-0.018": 0.0,
			"-0.017": 0.0,
			"-0.016": 0.0,
			"-0.015": 0.0,
			"-0.014": 0.0,
			"-0.013": 0.0,
			"-0.012": 0.0,
			"-0.011": 0.0,
			"-0.01": 0.0,
			"-0.009": 0.0,
			"-0.008": 0.169930432386,
			"-0.007": 3.29318317196,
			"-0.006": 8.48857449764,
			"-0.005": 11.1716686171,
			"-0.004": 15.3285985911,
			"-0.003": 18.4572143286,
			"-0.002": 26.8005030025,
			"-0.001": 27.493533947,
			"0.0": 29.6166666687,
			"0.001": 24.8185965468,
			"0.002": 17.8054306953,
			"0.003": 13.407800472,
			"0.004": 9.23761667557,
			"0.005": 2.52938846127,
			"0.006": 1.60389043357,
			"0.007": 1.12442263105,
			"0.008": 1.80845113013,
			"0.009": 1.85450863223,
			"0.01": 2.4516367304,
			"0.011": 3.83904538892,
			"0.012": 3.84467076796,
			"0.013": 1.28962451108,
			"0.014": 0.0566902987479,
			"0.015": 0.0,
			"0.016": 0.0,
			"0.017": 0.0,
			"0.018": 0.0,
			"0.019": 0.0,
			"0.02": 0.0,
			"0.021": 0.0,
			"0.022": 0.0,
			"0.023": 0.0,
			"0.024": 0.0,
			"0.025": 0.0
		}
	}
}
