{
	 "smiles": "C1N=CC=NC1C1=CC=C(C=C1)C1CN=CC=N1", 
	 "Tm": 535.15, 
	 "num_atms": 32, 
	 "gaussian": { 
		 "optdone": 1, 
		 "sigma_profile": "yes", 
		 "theory": "DFT", 
		 "functional": "B3LYP", 
		 "basiset": "6-31G**", 
		 "properties": { 
			 "R2extent": 5767.001, 
			 "electric_dipole_moment_norm": 0.224222612597, 
			 "electric_quadrupole_moment_norm": 11.2010321484, 
			 "total_energy": -760.840490915, 
			 "HOMO_LUMO_gap": 0.16466, 
			 "cosmo_polarized_energy": -14.12, 
			 "cosmo_cavitation_energy": 34.89, 
			 "cosmo_dispersion_energy": -25.13, 
			 "cosmo_repulsion_energy": 1.93, 
			 "cosmo_total_nonelectrostatic_energy": 11.69, 
			 "SMD_solvation_energy": -5.16 
		},
		"coords": [
			{
				"x": -1.5715144787,
				"y": -0.6354416234,
				"z": -3.9849380001,
				"element": "C" 
			},
			{
				"x": -1.6175152425,
				"y": -2.1036370656,
				"z": -4.0265546977,
				"element": "N" 
			},
			{
				"x": -0.5090934543,
				"y": -2.6674465415,
				"z": -4.3190113685,
				"element": "C" 
			},
			{
				"x": 0.7504285557,
				"y": -1.9216332164,
				"z": -4.557820957,
				"element": "C" 
			},
			{
				"x": 0.9290785685,
				"y": -0.7001907742,
				"z": -4.2281329807,
				"element": "N" 
			},
			{
				"x": -0.2221651343,
				"y": -0.0381661925,
				"z": -3.5585777242,
				"element": "C" 
			},
			{
				"x": 0.055950583,
				"y": -0.0317539462,
				"z": -2.0582307726,
				"element": "C" 
			},
			{
				"x": -0.6448800893,
				"y": -0.8313606892,
				"z": -1.1493535395,
				"element": "C" 
			},
			{
				"x": -0.3404281613,
				"y": -0.8017245601,
				"z": 0.2148105995,
				"element": "C" 
			},
			{
				"x": 0.6795669124,
				"y": 0.0208178987,
				"z": 0.7043457025,
				"element": "C" 
			},
			{
				"x": 1.3832512064,
				"y": 0.8203169522,
				"z": -0.2092156587,
				"element": "C" 
			},
			{
				"x": 1.076956433,
				"y": 0.7947894989,
				"z": -1.5649677179,
				"element": "C" 
			},
			{
				"x": 1.0416721512,
				"y": 0.1059350441,
				"z": 2.1842442967,
				"element": "C" 
			},
			{
				"x": 0.5323723572,
				"y": -1.045815939,
				"z": 3.0636057811,
				"element": "C" 
			},
			{
				"x": -0.8792497635,
				"y": -0.9491937884,
				"z": 3.4604180315,
				"element": "N" 
			},
			{
				"x": -1.3200085077,
				"y": 0.2427965285,
				"z": 3.5903833951,
				"element": "C" 
			},
			{
				"x": -0.5026369516,
				"y": 1.4511782126,
				"z": 3.3231896997,
				"element": "C" 
			},
			{
				"x": 0.6016191689,
				"y": 1.4370499084,
				"z": 2.6805816537,
				"element": "N" 
			},
			{
				"x": -1.8206403587,
				"y": -0.2853547294,
				"z": -4.9969527519,
				"element": "H" 
			},
			{
				"x": -2.3737842704,
				"y": -0.2808010853,
				"z": -3.3304373165,
				"element": "H" 
			},
			{
				"x": -0.4849903832,
				"y": -3.7573414501,
				"z": -4.3972116126,
				"element": "H" 
			},
			{
				"x": 1.5838234427,
				"y": -2.4562911698,
				"z": -5.0213892026,
				"element": "H" 
			},
			{
				"x": -0.1980427031,
				"y": 1.0049993496,
				"z": -3.8958356252,
				"element": "H" 
			},
			{
				"x": -1.4338569759,
				"y": -1.4910466966,
				"z": -1.4960886782,
				"element": "H" 
			},
			{
				"x": -0.9133620994,
				"y": -1.4256922985,
				"z": 0.8932919241,
				"element": "H" 
			},
			{
				"x": 2.1703523754,
				"y": 1.4754686052,
				"z": 0.1540714776,
				"element": "H" 
			},
			{
				"x": 1.6410521103,
				"y": 1.4135902215,
				"z": -2.2575150267,
				"element": "H" 
			},
			{
				"x": 2.1363328056,
				"y": 0.1154501306,
				"z": 2.2487185635,
				"element": "H" 
			},
			{
				"x": 1.1177353005,
				"y": -1.0794873791,
				"z": 3.9936662734,
				"element": "H" 
			},
			{
				"x": 0.6887768426,
				"y": -2.0082561654,
				"z": 2.5665931243,
				"element": "H" 
			},
			{
				"x": -2.3543444184,
				"y": 0.382069638,
				"z": 3.914911946,
				"element": "H" 
			},
			{
				"x": -0.8801558211,
				"y": 2.4147733222,
				"z": 3.6757011619,
				"element": "H" 
			}
		],
		 "valence_orbital": [ 
			{
				"type": "occ",
				"energy": -0.27525,
				"method": "rhf"
			},
			{
				"type": "occ",
				"energy": -0.25031,
				"method": "rhf"
			},
			{
				"type": "occ",
				"energy": -0.24265,
				"method": "rhf"
			},
			{
				"type": "occ",
				"energy": -0.23437,
				"method": "rhf"
			},
			{
				"type": "occ",
				"energy": -0.23433,
				"method": "rhf"
			},
			{
				"type": "unocc",
				"energy": -0.06967,
				"method": "rhf"
			},
			{
				"type": "unocc",
				"energy": -0.06787,
				"method": "rhf"
			},
			{
				"type": "unocc",
				"energy": -0.0046,
				"method": "rhf"
			},
			{
				"type": "unocc",
				"energy": -0.00258,
				"method": "rhf"
			},
			{
				"type": "unocc",
				"energy": 0.05898,
				"method": "rhf"
			}
		],
		"cosmo_sigma_profile": { 
			"-0.025": 0.0,
			"-0.024": 0.0,
			"-0.023": 0.0,
			"-0.022": 0.0,
			"-0.021": 0.0,
			"-0.02": 0.0,
			"-0.019": 0.0,
			"-0.018": 0.0,
			"-0.017": 0.0,
			"-0.016": 0.0,
			"-0.015": 0.0,
			"-0.014": 0.0,
			"-0.013": 0.0,
			"-0.012": 0.0,
			"-0.011": 0.0,
			"-0.01": 0.0,
			"-0.009": 0.0,
			"-0.008": 2.17252716479,
			"-0.007": 13.5414239958,
			"-0.006": 15.5663791365,
			"-0.005": 31.1786499881,
			"-0.004": 31.0210085538,
			"-0.003": 26.3720892069,
			"-0.002": 19.8144255557,
			"-0.001": 16.1180284851,
			"0.0": 14.8267974236,
			"0.001": 14.5081450096,
			"0.002": 12.383799542,
			"0.003": 10.777866371,
			"0.004": 13.0746782896,
			"0.005": 13.6209489465,
			"0.006": 7.40546625377,
			"0.007": 5.91683633459,
			"0.008": 5.63537115752,
			"0.009": 3.56702281473,
			"0.01": 2.95468542502,
			"0.011": 3.382593722,
			"0.012": 2.96081964355,
			"0.013": 3.67795479995,
			"0.014": 3.44900546193,
			"0.015": 2.63373663958,
			"0.016": 1.5143718756,
			"0.017": 0.0168476817891,
			"0.018": 0.0,
			"0.019": 0.0,
			"0.02": 0.0,
			"0.021": 0.0,
			"0.022": 0.0,
			"0.023": 0.0,
			"0.024": 0.0,
			"0.025": 0.0
		}
	}
}
