{
	 "smiles": "CCCSC1=CC(N)=C(C=C1)[N+]([O-])=O", 
	 "Tm": 345.65, 
	 "num_atms": 26, 
	 "gaussian": { 
		 "optdone": 1, 
		 "sigma_profile": "yes", 
		 "theory": "DFT", 
		 "functional": "B3LYP", 
		 "basiset": "6-31G**", 
		 "properties": { 
			 "R2extent": 4488.3196, 
			 "electric_dipole_moment_norm": 4.63325834484, 
			 "electric_quadrupole_moment_norm": 23.9684802664, 
			 "total_energy": -1008.24640332, 
			 "HOMO_LUMO_gap": 0.14474, 
			 "cosmo_polarized_energy": -12.79, 
			 "cosmo_cavitation_energy": 30.81, 
			 "cosmo_dispersion_energy": -23.08, 
			 "cosmo_repulsion_energy": 1.79, 
			 "cosmo_total_nonelectrostatic_energy": 9.52, 
			 "SMD_solvation_energy": 6.77 
		},
		"coords": [
			{
				"x": 0.1371991197,
				"y": 2.8217396209,
				"z": -2.5127240264,
				"element": "C" 
			},
			{
				"x": -0.1127985362,
				"y": 2.817940068,
				"z": -1.0026106782,
				"element": "C" 
			},
			{
				"x": -1.4825143156,
				"y": 2.2601802221,
				"z": -0.5947271233,
				"element": "C" 
			},
			{
				"x": -1.7666573288,
				"y": 0.4827490962,
				"z": -0.9692109685,
				"element": "S" 
			},
			{
				"x": -0.7161633384,
				"y": -0.395311335,
				"z": 0.1657344515,
				"element": "C" 
			},
			{
				"x": -0.4769980689,
				"y": -1.7330852525,
				"z": -0.1290166827,
				"element": "C" 
			},
			{
				"x": 0.2883021803,
				"y": -2.5698069779,
				"z": 0.7155707561,
				"element": "C" 
			},
			{
				"x": 0.4875815818,
				"y": -3.8665334296,
				"z": 0.374342565,
				"element": "N" 
			},
			{
				"x": 0.8290559104,
				"y": -1.9719676337,
				"z": 1.8922828099,
				"element": "C" 
			},
			{
				"x": 0.5882499925,
				"y": -0.6188363495,
				"z": 2.1777383456,
				"element": "C" 
			},
			{
				"x": -0.1735015882,
				"y": 0.1712327754,
				"z": 1.3422352928,
				"element": "C" 
			},
			{
				"x": 1.6321807548,
				"y": -2.7130510857,
				"z": 2.8337122457,
				"element": "N" 
			},
			{
				"x": 1.8569459753,
				"y": -3.9214247552,
				"z": 2.6170486283,
				"element": "O" 
			},
			{
				"x": 2.0710999281,
				"y": -2.1272469223,
				"z": 3.8262443975,
				"element": "O" 
			},
			{
				"x": -0.6130002011,
				"y": 3.4256136353,
				"z": -3.0362303938,
				"element": "H" 
			},
			{
				"x": 0.0979111091,
				"y": 1.8087566035,
				"z": -2.9237697994,
				"element": "H" 
			},
			{
				"x": 1.1216965827,
				"y": 3.2406975981,
				"z": -2.7422075049,
				"element": "H" 
			},
			{
				"x": 0.6766631724,
				"y": 2.2540533539,
				"z": -0.4931068066,
				"element": "H" 
			},
			{
				"x": -0.0543869448,
				"y": 3.8451170601,
				"z": -0.6174671334,
				"element": "H" 
			},
			{
				"x": -1.6920055557,
				"y": 2.4355916238,
				"z": 0.4640553738,
				"element": "H" 
			},
			{
				"x": -2.2820094048,
				"y": 2.7547567441,
				"z": -1.1572519566,
				"element": "H" 
			},
			{
				"x": -0.8804508866,
				"y": -2.1630829083,
				"z": -1.0418308474,
				"element": "H" 
			},
			{
				"x": 0.0479784319,
				"y": -4.2413212134,
				"z": -0.4490249284,
				"element": "H" 
			},
			{
				"x": 1.0200934873,
				"y": -4.4494271261,
				"z": 1.0041064056,
				"element": "H" 
			},
			{
				"x": 1.0172998839,
				"y": -0.2171416628,
				"z": 3.0870410381,
				"element": "H" 
			},
			{
				"x": -0.3507719413,
				"y": 1.2063082506,
				"z": 1.6032665396,
				"element": "H" 
			}
		],
		 "valence_orbital": [ 
			{
				"type": "occ",
				"energy": -0.29882,
				"method": "rhf"
			},
			{
				"type": "occ",
				"energy": -0.29227,
				"method": "rhf"
			},
			{
				"type": "occ",
				"energy": -0.27929,
				"method": "rhf"
			},
			{
				"type": "occ",
				"energy": -0.22853,
				"method": "rhf"
			},
			{
				"type": "occ",
				"energy": -0.22234,
				"method": "rhf"
			},
			{
				"type": "unocc",
				"energy": -0.0776,
				"method": "rhf"
			},
			{
				"type": "unocc",
				"energy": -0.00631,
				"method": "rhf"
			},
			{
				"type": "unocc",
				"energy": 0.00761,
				"method": "rhf"
			},
			{
				"type": "unocc",
				"energy": 0.03319,
				"method": "rhf"
			},
			{
				"type": "unocc",
				"energy": 0.05948,
				"method": "rhf"
			}
		],
		"cosmo_sigma_profile": { 
			"-0.025": 0.0,
			"-0.024": 0.0,
			"-0.023": 0.0,
			"-0.022": 0.0,
			"-0.021": 0.0,
			"-0.02": 0.0,
			"-0.019": 0.0,
			"-0.018": 0.0,
			"-0.017": 0.0,
			"-0.016": 0.0,
			"-0.015": 0.330789976048,
			"-0.014": 1.46081629073,
			"-0.013": 1.90748054014,
			"-0.012": 1.20363841082,
			"-0.011": 1.06879719932,
			"-0.01": 2.42927620042,
			"-0.009": 2.72596775029,
			"-0.008": 3.82550989618,
			"-0.007": 6.09774950613,
			"-0.006": 7.9708845934,
			"-0.005": 9.92934347325,
			"-0.004": 12.0126543681,
			"-0.003": 20.8115775435,
			"-0.002": 20.4247504706,
			"-0.001": 21.4696234626,
			"0.0": 23.048691848,
			"0.001": 21.6144237105,
			"0.002": 19.0731973915,
			"0.003": 18.1333535625,
			"0.004": 10.8001748889,
			"0.005": 6.50330866798,
			"0.006": 6.38263385741,
			"0.007": 5.15334853301,
			"0.008": 5.97150875948,
			"0.009": 6.873436973,
			"0.01": 3.90667072303,
			"0.011": 3.9586610263,
			"0.012": 0.662661376832,
			"0.013": 0.0,
			"0.014": 0.0,
			"0.015": 0.0,
			"0.016": 0.0,
			"0.017": 0.0,
			"0.018": 0.0,
			"0.019": 0.0,
			"0.02": 0.0,
			"0.021": 0.0,
			"0.022": 0.0,
			"0.023": 0.0,
			"0.024": 0.0,
			"0.025": 0.0
		}
	}
}
