{
	 "smiles": "NC(=O)C1=C(N)SC2=C1CCCCC2", 
	 "Tm": 470.15, 
	 "num_atms": 28, 
	 "gaussian": { 
		 "optdone": 1, 
		 "sigma_profile": "yes", 
		 "theory": "DFT", 
		 "functional": "B3LYP", 
		 "basiset": "6-31G**", 
		 "properties": { 
			 "R2extent": 3734.8819, 
			 "electric_dipole_moment_norm": 2.32686396036, 
			 "electric_quadrupole_moment_norm": 10.091182127, 
			 "total_energy": -972.440594436, 
			 "HOMO_LUMO_gap": 0.17873, 
			 "cosmo_polarized_energy": -12.44, 
			 "cosmo_cavitation_energy": 29.95, 
			 "cosmo_dispersion_energy": -23.26, 
			 "cosmo_repulsion_energy": 1.79, 
			 "cosmo_total_nonelectrostatic_energy": 8.47, 
			 "SMD_solvation_energy": 4.21 
		},
		"coords": [
			{
				"x": -2.7065517862,
				"y": -1.3429147952,
				"z": 0.0393043597,
				"element": "N" 
			},
			{
				"x": -2.0923674016,
				"y": -1.6101772682,
				"z": 1.2458112373,
				"element": "C" 
			},
			{
				"x": -2.7344381772,
				"y": -2.2196868296,
				"z": 2.116997534,
				"element": "O" 
			},
			{
				"x": -0.7055885142,
				"y": -1.1601496604,
				"z": 1.4565068829,
				"element": "C" 
			},
			{
				"x": -0.0075648827,
				"y": -1.6814985831,
				"z": 2.5468801546,
				"element": "C" 
			},
			{
				"x": -0.4553671159,
				"y": -2.5850687657,
				"z": 3.461663567,
				"element": "N" 
			},
			{
				"x": 1.6358171343,
				"y": -1.1009033357,
				"z": 2.5856888061,
				"element": "S" 
			},
			{
				"x": 1.3820241814,
				"y": -0.1004005862,
				"z": 1.1500037776,
				"element": "C" 
			},
			{
				"x": 0.1060188386,
				"y": -0.2265837873,
				"z": 0.6765022336,
				"element": "C" 
			},
			{
				"x": -0.4450287339,
				"y": 0.5988881855,
				"z": -0.4765049057,
				"element": "C" 
			},
			{
				"x": 0.2340635488,
				"y": 1.9643907049,
				"z": -0.6864460092,
				"element": "C" 
			},
			{
				"x": 1.591496177,
				"y": 1.9281579288,
				"z": -1.4064800413,
				"element": "C" 
			},
			{
				"x": 2.571212783,
				"y": 0.8628811739,
				"z": -0.8841164503,
				"element": "C" 
			},
			{
				"x": 2.5602006472,
				"y": 0.699951742,
				"z": 0.6463263591,
				"element": "C" 
			},
			{
				"x": -2.1489375715,
				"y": -1.212029321,
				"z": -0.7897627451,
				"element": "H" 
			},
			{
				"x": -3.5825735787,
				"y": -1.8321836975,
				"z": -0.0821624573,
				"element": "H" 
			},
			{
				"x": 0.0257616222,
				"y": -2.6606721668,
				"z": 4.3439761725,
				"element": "H" 
			},
			{
				"x": -1.4685144367,
				"y": -2.6910348867,
				"z": 3.4417215505,
				"element": "H" 
			},
			{
				"x": -0.4059721078,
				"y": 0.0283690968,
				"z": -1.4198396785,
				"element": "H" 
			},
			{
				"x": -1.5051334638,
				"y": 0.780604093,
				"z": -0.2785760496,
				"element": "H" 
			},
			{
				"x": -0.4439797658,
				"y": 2.6068940576,
				"z": -1.2612029797,
				"element": "H" 
			},
			{
				"x": 0.3439687798,
				"y": 2.443632508,
				"z": 0.293570583,
				"element": "H" 
			},
			{
				"x": 2.0509737056,
				"y": 2.921151003,
				"z": -1.317214187,
				"element": "H" 
			},
			{
				"x": 1.4330452591,
				"y": 1.7637447555,
				"z": -2.4803867384,
				"element": "H" 
			},
			{
				"x": 3.584872853,
				"y": 1.1210326106,
				"z": -1.2134942438,
				"element": "H" 
			},
			{
				"x": 2.3425382927,
				"y": -0.1116359997,
				"z": -1.3313982942,
				"element": "H" 
			},
			{
				"x": 3.4801233476,
				"y": 0.186282897,
				"z": 0.9508227066,
				"element": "H" 
			},
			{
				"x": 2.6033003658,
				"y": 1.6887589264,
				"z": 1.1276088559,
				"element": "H" 
			}
		],
		 "valence_orbital": [ 
			{
				"type": "occ",
				"energy": -0.29131,
				"method": "rhf"
			},
			{
				"type": "occ",
				"energy": -0.26443,
				"method": "rhf"
			},
			{
				"type": "occ",
				"energy": -0.24698,
				"method": "rhf"
			},
			{
				"type": "occ",
				"energy": -0.23882,
				"method": "rhf"
			},
			{
				"type": "occ",
				"energy": -0.18428,
				"method": "rhf"
			},
			{
				"type": "unocc",
				"energy": -0.00555,
				"method": "rhf"
			},
			{
				"type": "unocc",
				"energy": 0.01301,
				"method": "rhf"
			},
			{
				"type": "unocc",
				"energy": 0.0249,
				"method": "rhf"
			},
			{
				"type": "unocc",
				"energy": 0.07643,
				"method": "rhf"
			},
			{
				"type": "unocc",
				"energy": 0.08772,
				"method": "rhf"
			}
		],
		"cosmo_sigma_profile": { 
			"-0.025": 0.0,
			"-0.024": 0.0,
			"-0.023": 0.0,
			"-0.022": 0.0,
			"-0.021": 0.0,
			"-0.02": 0.0,
			"-0.019": 0.0,
			"-0.018": 0.0,
			"-0.017": 0.0,
			"-0.016": 0.0,
			"-0.015": 0.0292099913093,
			"-0.014": 0.842432677632,
			"-0.013": 2.10858497622,
			"-0.012": 3.30253665177,
			"-0.011": 3.68057447021,
			"-0.01": 3.93030822927,
			"-0.009": 3.41096266659,
			"-0.008": 4.5664939747,
			"-0.007": 3.90059887139,
			"-0.006": 3.46788564793,
			"-0.005": 3.19157020871,
			"-0.004": 7.69949296349,
			"-0.003": 13.3725393536,
			"-0.002": 30.3098215832,
			"-0.001": 31.7984081258,
			"0.0": 25.5593138948,
			"0.001": 17.771796959,
			"0.002": 10.7823278801,
			"0.003": 11.8087646732,
			"0.004": 12.9916330855,
			"0.005": 14.6459055707,
			"0.006": 7.15783740691,
			"0.007": 3.12689053567,
			"0.008": 3.21791527259,
			"0.009": 2.4138895768,
			"0.01": 1.81095708383,
			"0.011": 1.77970500114,
			"0.012": 2.26422829767,
			"0.013": 2.15352250652,
			"0.014": 2.12490215908,
			"0.015": 0.971504363539,
			"0.016": 0.0,
			"0.017": 0.0,
			"0.018": 0.0,
			"0.019": 0.0,
			"0.02": 0.0,
			"0.021": 0.0,
			"0.022": 0.0,
			"0.023": 0.0,
			"0.024": 0.0,
			"0.025": 0.0
		}
	}
}
