{
	 "smiles": "OC(=O)C1=COC(Br)=C1", 
	 "Tm": 407.15, 
	 "num_atms": 12, 
	 "gaussian": { 
		 "optdone": 1, 
		 "sigma_profile": "yes", 
		 "theory": "DFT", 
		 "functional": "B3LYP", 
		 "basiset": "6-31G**", 
		 "properties": { 
			 "R2extent": 2641.809, 
			 "electric_dipole_moment_norm": 3.51252247537, 
			 "electric_quadrupole_moment_norm": 11.7551143248, 
			 "total_energy": -2989.38140616, 
			 "HOMO_LUMO_gap": 0.20511, 
			 "cosmo_polarized_energy": -13.96, 
			 "cosmo_cavitation_energy": 19.97, 
			 "cosmo_dispersion_energy": -15.34, 
			 "cosmo_repulsion_energy": 1.27, 
			 "cosmo_total_nonelectrostatic_energy": 5.9, 
			 "SMD_solvation_energy": 4.66 
		},
		"coords": [
			{
				"x": -2.4980108495,
				"y": -0.5249257044,
				"z": 0.1751805719,
				"element": "O" 
			},
			{
				"x": -1.8016743647,
				"y": 0.6288990981,
				"z": 0.0057576809,
				"element": "C" 
			},
			{
				"x": -2.3758786252,
				"y": 1.6924032415,
				"z": -0.0031520357,
				"element": "O" 
			},
			{
				"x": -0.3337644497,
				"y": 0.5047456831,
				"z": -0.1609520983,
				"element": "C" 
			},
			{
				"x": 0.4790882536,
				"y": 1.58942763,
				"z": -0.3388788467,
				"element": "C" 
			},
			{
				"x": 1.7733110094,
				"y": 1.2006674862,
				"z": -0.4652644824,
				"element": "O" 
			},
			{
				"x": 1.7851225822,
				"y": -0.1574831838,
				"z": -0.3659228669,
				"element": "C" 
			},
			{
				"x": 3.4457969247,
				"y": -0.9962099505,
				"z": -0.5029331383,
				"element": "Br" 
			},
			{
				"x": 0.5316630642,
				"y": -0.6487765262,
				"z": -0.1791422444,
				"element": "C" 
			},
			{
				"x": -1.9089484812,
				"y": -1.2913730582,
				"z": 0.1609624773,
				"element": "H" 
			},
			{
				"x": 0.2783181945,
				"y": 2.6472543663,
				"z": -0.3933059033,
				"element": "H" 
			},
			{
				"x": 0.2816767417,
				"y": -1.6943290821,
				"z": -0.0715491141,
				"element": "H" 
			}
		],
		 "valence_orbital": [ 
			{
				"type": "occ",
				"energy": -0.32765,
				"method": "rhf"
			},
			{
				"type": "occ",
				"energy": -0.32147,
				"method": "rhf"
			},
			{
				"type": "occ",
				"energy": -0.30815,
				"method": "rhf"
			},
			{
				"type": "occ",
				"energy": -0.28219,
				"method": "rhf"
			},
			{
				"type": "occ",
				"energy": -0.25008,
				"method": "rhf"
			},
			{
				"type": "unocc",
				"energy": -0.04497,
				"method": "rhf"
			},
			{
				"type": "unocc",
				"energy": -0.00936,
				"method": "rhf"
			},
			{
				"type": "unocc",
				"energy": -0.00775,
				"method": "rhf"
			},
			{
				"type": "unocc",
				"energy": 0.04512,
				"method": "rhf"
			},
			{
				"type": "unocc",
				"energy": 0.1037,
				"method": "rhf"
			}
		],
		"cosmo_sigma_profile": { 
			"-0.025": 0.0,
			"-0.024": 0.0,
			"-0.023": 0.0,
			"-0.022": 0.0,
			"-0.021": 0.0,
			"-0.02": 0.0132363873917,
			"-0.019": 0.763017487277,
			"-0.018": 1.49569410563,
			"-0.017": 1.5058212822,
			"-0.016": 0.415855612994,
			"-0.015": 0.529045729403,
			"-0.014": 1.59463273757,
			"-0.013": 1.73181590731,
			"-0.012": 1.30839378842,
			"-0.011": 2.3284653442,
			"-0.01": 2.57402700282,
			"-0.009": 2.7151799737,
			"-0.008": 2.2908267275,
			"-0.007": 5.03177188762,
			"-0.006": 4.16976915908,
			"-0.005": 5.18282198913,
			"-0.004": 4.56782978657,
			"-0.003": 6.48159083291,
			"-0.002": 8.88811390937,
			"-0.001": 14.2447271008,
			"0.0": 16.7136760477,
			"0.001": 15.57994621,
			"0.002": 16.3696475284,
			"0.003": 13.0409962838,
			"0.004": 3.36111044599,
			"0.005": 4.21565309771,
			"0.006": 2.6464985734,
			"0.007": 2.60658596946,
			"0.008": 2.70948067654,
			"0.009": 3.19864228169,
			"0.01": 5.00137960027,
			"0.011": 5.37217894268,
			"0.012": 4.57580299728,
			"0.013": 1.33597903719,
			"0.014": 0.0,
			"0.015": 0.0,
			"0.016": 0.0,
			"0.017": 0.0,
			"0.018": 0.0,
			"0.019": 0.0,
			"0.02": 0.0,
			"0.021": 0.0,
			"0.022": 0.0,
			"0.023": 0.0,
			"0.024": 0.0,
			"0.025": 0.0
		}
	}
}
