{
	 "smiles": "CCCS(=O)(=O)N1CCC(N)CC1", 
	 "Tm": 323.15, 
	 "num_atms": 31, 
	 "gaussian": { 
		 "optdone": 1, 
		 "sigma_profile": "yes", 
		 "theory": "DFT", 
		 "functional": "B3LYP", 
		 "basiset": "6-31G**", 
		 "properties": { 
			 "R2extent": 4871.6929, 
			 "electric_dipole_moment_norm": 4.70206707842, 
			 "electric_quadrupole_moment_norm": 17.9247277025, 
			 "total_energy": -973.784110829, 
			 "HOMO_LUMO_gap": 0.29693, 
			 "cosmo_polarized_energy": -16.15, 
			 "cosmo_cavitation_energy": 32.22, 
			 "cosmo_dispersion_energy": -23.32, 
			 "cosmo_repulsion_energy": 1.82, 
			 "cosmo_total_nonelectrostatic_energy": 10.72, 
			 "SMD_solvation_energy": 2.71 
		},
		"coords": [
			{
				"x": 3.4934290246,
				"y": 0.0328548717,
				"z": -1.397488756,
				"element": "C" 
			},
			{
				"x": 2.6619150314,
				"y": -0.4878151353,
				"z": -0.2200995263,
				"element": "C" 
			},
			{
				"x": 2.5441219022,
				"y": -2.0141354491,
				"z": -0.1415928317,
				"element": "C" 
			},
			{
				"x": 1.376344148,
				"y": -2.7739586792,
				"z": -1.3099323466,
				"element": "S" 
			},
			{
				"x": 1.4341075262,
				"y": -4.2247361035,
				"z": -1.0792147238,
				"element": "O" 
			},
			{
				"x": 1.6044864368,
				"y": -2.2293236827,
				"z": -2.6550474033,
				"element": "O" 
			},
			{
				"x": -0.1140307679,
				"y": -2.1426247088,
				"z": -0.7690493854,
				"element": "N" 
			},
			{
				"x": -1.0604696169,
				"y": -1.7424515445,
				"z": -1.8334285338,
				"element": "C" 
			},
			{
				"x": -2.1623718871,
				"y": -0.8693478438,
				"z": -1.2285342885,
				"element": "C" 
			},
			{
				"x": -2.8911994649,
				"y": -1.5820672162,
				"z": -0.0825099539,
				"element": "C" 
			},
			{
				"x": -3.9420920292,
				"y": -0.7123712848,
				"z": 0.4513840063,
				"element": "N" 
			},
			{
				"x": -1.8603859257,
				"y": -2.0731352004,
				"z": 0.9533859924,
				"element": "C" 
			},
			{
				"x": -0.7577915005,
				"y": -2.9201460177,
				"z": 0.3086253069,
				"element": "C" 
			},
			{
				"x": 3.0579522527,
				"y": -0.2661734543,
				"z": -2.3528307628,
				"element": "H" 
			},
			{
				"x": 3.5520864424,
				"y": 1.1255208193,
				"z": -1.3686504911,
				"element": "H" 
			},
			{
				"x": 4.5173714391,
				"y": -0.3557104569,
				"z": -1.355634089,
				"element": "H" 
			},
			{
				"x": 1.6538948264,
				"y": -0.0583329261,
				"z": -0.2370403583,
				"element": "H" 
			},
			{
				"x": 3.1173950533,
				"y": -0.1585843238,
				"z": 0.7223515417,
				"element": "H" 
			},
			{
				"x": 3.4929504091,
				"y": -2.5164570237,
				"z": -0.3573261507,
				"element": "H" 
			},
			{
				"x": 2.2117445001,
				"y": -2.3476058284,
				"z": 0.8456458211,
				"element": "H" 
			},
			{
				"x": -1.5074206591,
				"y": -2.6300766732,
				"z": -2.3095249815,
				"element": "H" 
			},
			{
				"x": -0.5052165149,
				"y": -1.2022394205,
				"z": -2.5997491078,
				"element": "H" 
			},
			{
				"x": -2.8822515745,
				"y": -0.5938033013,
				"z": -2.0059574344,
				"element": "H" 
			},
			{
				"x": -1.7154362947,
				"y": 0.0606915393,
				"z": -0.8510328951,
				"element": "H" 
			},
			{
				"x": -3.3947636678,
				"y": -2.4653168385,
				"z": -0.502966311,
				"element": "H" 
			},
			{
				"x": -3.5192077419,
				"y": 0.1050290325,
				"z": 0.8889486349,
				"element": "H" 
			},
			{
				"x": -4.4533955751,
				"y": -1.1945728809,
				"z": 1.1877552129,
				"element": "H" 
			},
			{
				"x": -1.4052714069,
				"y": -1.2024067062,
				"z": 1.4445677664,
				"element": "H" 
			},
			{
				"x": -2.3575830814,
				"y": -2.6657745984,
				"z": 1.7317085967,
				"element": "H" 
			},
			{
				"x": -0.0052021768,
				"y": -3.1960757831,
				"z": 1.0517732224,
				"element": "H" 
			},
			{
				"x": -1.1739091068,
				"y": -3.8589531816,
				"z": -0.0868357707,
				"element": "H" 
			}
		],
		 "valence_orbital": [ 
			{
				"type": "occ",
				"energy": -0.30812,
				"method": "rhf"
			},
			{
				"type": "occ",
				"energy": -0.29517,
				"method": "rhf"
			},
			{
				"type": "occ",
				"energy": -0.28979,
				"method": "rhf"
			},
			{
				"type": "occ",
				"energy": -0.25317,
				"method": "rhf"
			},
			{
				"type": "occ",
				"energy": -0.24061,
				"method": "rhf"
			},
			{
				"type": "unocc",
				"energy": 0.05632,
				"method": "rhf"
			},
			{
				"type": "unocc",
				"energy": 0.06865,
				"method": "rhf"
			},
			{
				"type": "unocc",
				"energy": 0.07887,
				"method": "rhf"
			},
			{
				"type": "unocc",
				"energy": 0.0803,
				"method": "rhf"
			},
			{
				"type": "unocc",
				"energy": 0.09289,
				"method": "rhf"
			}
		],
		"cosmo_sigma_profile": { 
			"-0.025": 0.0,
			"-0.024": 0.0,
			"-0.023": 0.0,
			"-0.022": 0.0,
			"-0.021": 0.0,
			"-0.02": 0.0,
			"-0.019": 0.0,
			"-0.018": 0.0,
			"-0.017": 0.0,
			"-0.016": 0.0,
			"-0.015": 0.0,
			"-0.014": 0.0,
			"-0.013": 0.0,
			"-0.012": 0.0,
			"-0.011": 0.0,
			"-0.01": 0.356665806968,
			"-0.009": 2.98383723213,
			"-0.008": 5.7447877112,
			"-0.007": 7.65973314255,
			"-0.006": 8.24937168128,
			"-0.005": 10.8285496561,
			"-0.004": 26.3242493124,
			"-0.003": 36.4952026612,
			"-0.002": 28.4517295586,
			"-0.001": 23.047962598,
			"0.0": 18.3688636327,
			"0.001": 15.1056377283,
			"0.002": 8.18417939369,
			"0.003": 4.87400349165,
			"0.004": 5.05256478924,
			"0.005": 4.27525189745,
			"0.006": 4.6188911168,
			"0.007": 3.18971705615,
			"0.008": 3.98358987676,
			"0.009": 3.74142327186,
			"0.01": 5.12570982454,
			"0.011": 8.48577488558,
			"0.012": 7.99054699976,
			"0.013": 1.75813017385,
			"0.014": 0.684168095482,
			"0.015": 0.890756778676,
			"0.016": 0.509429308177,
			"0.017": 0.304503238924,
			"0.018": 0.561368562235,
			"0.019": 0.753482180616,
			"0.02": 0.141498718225,
			"0.021": 0.0,
			"0.022": 0.0,
			"0.023": 0.0,
			"0.024": 0.0,
			"0.025": 0.0
		}
	}
}
