{
	 "smiles": "CC1(C)C2CCC1(C)C(=O)OC2=O", 
	 "Tm": 494.15, 
	 "num_atms": 27, 
	 "gaussian": { 
		 "optdone": 1, 
		 "sigma_profile": "yes", 
		 "theory": "DFT", 
		 "functional": "B3LYP", 
		 "basiset": "6-31G**", 
		 "properties": { 
			 "R2extent": 2935.8502, 
			 "electric_dipole_moment_norm": 5.47071555649, 
			 "electric_quadrupole_moment_norm": 15.7622454765, 
			 "total_energy": -615.198776256, 
			 "HOMO_LUMO_gap": 0.24236, 
			 "cosmo_polarized_energy": -12.58, 
			 "cosmo_cavitation_energy": 27.02, 
			 "cosmo_dispersion_energy": -19.56, 
			 "cosmo_repulsion_energy": 1.51, 
			 "cosmo_total_nonelectrostatic_energy": 8.97, 
			 "SMD_solvation_energy": 5.99 
		},
		"coords": [
			{
				"x": -0.1464195312,
				"y": 0.1667453878,
				"z": -2.7182452086,
				"element": "C" 
			},
			{
				"x": -0.1636874578,
				"y": -0.2253148911,
				"z": -1.2292177518,
				"element": "C" 
			},
			{
				"x": -1.2643342559,
				"y": 0.5985842786,
				"z": -0.5338134005,
				"element": "C" 
			},
			{
				"x": 1.2004208181,
				"y": -0.011768414,
				"z": -0.518464201,
				"element": "C" 
			},
			{
				"x": 1.0518471225,
				"y": -0.7661404979,
				"z": 0.8354616026,
				"element": "C" 
			},
			{
				"x": 0.0657826728,
				"y": -1.9235841522,
				"z": 0.531883476,
				"element": "C" 
			},
			{
				"x": -0.3242227865,
				"y": -1.765396003,
				"z": -0.9765192037,
				"element": "C" 
			},
			{
				"x": -1.69050687,
				"y": -2.3668128019,
				"z": -1.3076847201,
				"element": "C" 
			},
			{
				"x": 0.7519330264,
				"y": -2.5025426623,
				"z": -1.7763808745,
				"element": "C" 
			},
			{
				"x": 0.6007541499,
				"y": -3.550688262,
				"z": -2.3439186029,
				"element": "O" 
			},
			{
				"x": 2.0244186213,
				"y": -1.9362015601,
				"z": -1.8082118124,
				"element": "O" 
			},
			{
				"x": 2.3110096553,
				"y": -0.6697870815,
				"z": -1.3037618566,
				"element": "C" 
			},
			{
				"x": 3.4093970298,
				"y": -0.2221950387,
				"z": -1.4896178839,
				"element": "O" 
			},
			{
				"x": 0.6214085007,
				"y": -0.3570890909,
				"z": -3.2948285067,
				"element": "H" 
			},
			{
				"x": 0.0377278074,
				"y": 1.2407855738,
				"z": -2.8253450692,
				"element": "H" 
			},
			{
				"x": -1.1132647323,
				"y": -0.0476405631,
				"z": -3.1843228205,
				"element": "H" 
			},
			{
				"x": -2.2285452297,
				"y": 0.4579592524,
				"z": -1.0307000243,
				"element": "H" 
			},
			{
				"x": -1.3940612342,
				"y": 0.3446907944,
				"z": 0.5212086492,
				"element": "H" 
			},
			{
				"x": -1.0196738418,
				"y": 1.6646543851,
				"z": -0.5909305536,
				"element": "H" 
			},
			{
				"x": 1.4741550677,
				"y": 1.038197468,
				"z": -0.3941049214,
				"element": "H" 
			},
			{
				"x": 0.6487784421,
				"y": -0.0857826126,
				"z": 1.5898902646,
				"element": "H" 
			},
			{
				"x": 2.0166147873,
				"y": -1.1167968089,
				"z": 1.2117102592,
				"element": "H" 
			},
			{
				"x": -0.8385094763,
				"y": -1.8482551578,
				"z": 1.142499897,
				"element": "H" 
			},
			{
				"x": 0.4953080668,
				"y": -2.9093785552,
				"z": 0.7321560021,
				"element": "H" 
			},
			{
				"x": -2.4703263352,
				"y": -1.9066582978,
				"z": -0.695344521,
				"element": "H" 
			},
			{
				"x": -1.9461112826,
				"y": -2.2271022975,
				"z": -2.3618461005,
				"element": "H" 
			},
			{
				"x": -1.6889927347,
				"y": -3.4420823915,
				"z": -1.1167521174,
				"element": "H" 
			}
		],
		 "valence_orbital": [ 
			{
				"type": "occ",
				"energy": -0.34626,
				"method": "rhf"
			},
			{
				"type": "occ",
				"energy": -0.32575,
				"method": "rhf"
			},
			{
				"type": "occ",
				"energy": -0.3199,
				"method": "rhf"
			},
			{
				"type": "occ",
				"energy": -0.29195,
				"method": "rhf"
			},
			{
				"type": "occ",
				"energy": -0.2694,
				"method": "rhf"
			},
			{
				"type": "unocc",
				"energy": -0.02704,
				"method": "rhf"
			},
			{
				"type": "unocc",
				"energy": 0.01022,
				"method": "rhf"
			},
			{
				"type": "unocc",
				"energy": 0.05221,
				"method": "rhf"
			},
			{
				"type": "unocc",
				"energy": 0.08532,
				"method": "rhf"
			},
			{
				"type": "unocc",
				"energy": 0.09425,
				"method": "rhf"
			}
		],
		"cosmo_sigma_profile": { 
			"-0.025": 0.0,
			"-0.024": 0.0,
			"-0.023": 0.0,
			"-0.022": 0.0,
			"-0.021": 0.0,
			"-0.02": 0.0,
			"-0.019": 0.0,
			"-0.018": 0.0,
			"-0.017": 0.0,
			"-0.016": 0.0,
			"-0.015": 0.0,
			"-0.014": 0.0,
			"-0.013": 0.0,
			"-0.012": 0.0,
			"-0.011": 0.0,
			"-0.01": 0.0,
			"-0.009": 0.0,
			"-0.008": 0.0,
			"-0.007": 0.733057602638,
			"-0.006": 7.08052114909,
			"-0.005": 17.8069003942,
			"-0.004": 32.1273861519,
			"-0.003": 30.0306788008,
			"-0.002": 24.1385680453,
			"-0.001": 21.5397307949,
			"0.0": 17.686913283,
			"0.001": 6.56713067163,
			"0.002": 2.41844951347,
			"0.003": 3.01003540935,
			"0.004": 3.67109845174,
			"0.005": 2.58905967339,
			"0.006": 3.34511951186,
			"0.007": 3.84306086268,
			"0.008": 5.62834008802,
			"0.009": 7.79782033413,
			"0.01": 9.41836563813,
			"0.011": 8.9429987024,
			"0.012": 1.67788190244,
			"0.013": 0.0,
			"0.014": 0.0,
			"0.015": 0.0,
			"0.016": 0.0,
			"0.017": 0.0,
			"0.018": 0.0,
			"0.019": 0.0,
			"0.02": 0.0,
			"0.021": 0.0,
			"0.022": 0.0,
			"0.023": 0.0,
			"0.024": 0.0,
			"0.025": 0.0
		}
	}
}
