{
	 "smiles": "OC(=O)C1=C(C=C(Cl)C=C1)N1CCCC1=O", 
	 "Tm": 492.15, 
	 "num_atms": 26, 
	 "gaussian": { 
		 "optdone": 1, 
		 "sigma_profile": "yes", 
		 "theory": "DFT", 
		 "functional": "B3LYP", 
		 "basiset": "6-31G**", 
		 "properties": { 
			 "R2extent": 4382.5123, 
			 "electric_dipole_moment_norm": 5.42248860764, 
			 "electric_quadrupole_moment_norm": 19.6879115226, 
			 "total_energy": -1165.84321803, 
			 "HOMO_LUMO_gap": 0.20517, 
			 "cosmo_polarized_energy": -16.41, 
			 "cosmo_cavitation_energy": 31.45, 
			 "cosmo_dispersion_energy": -22.67, 
			 "cosmo_repulsion_energy": 1.78, 
			 "cosmo_total_nonelectrostatic_energy": 10.55, 
			 "SMD_solvation_energy": 6.44 
		},
		"coords": [
			{
				"x": 2.1521188412,
				"y": 2.1134217763,
				"z": 1.2168279042,
				"element": "O" 
			},
			{
				"x": 1.5923956889,
				"y": 2.6066348706,
				"z": 0.1096449107,
				"element": "C" 
			},
			{
				"x": 2.06300218,
				"y": 3.5634442137,
				"z": -0.4674821568,
				"element": "O" 
			},
			{
				"x": 0.3127066429,
				"y": 1.9691250038,
				"z": -0.3882615825,
				"element": "C" 
			},
			{
				"x": 0.0819745568,
				"y": 0.5910859842,
				"z": -0.558508011,
				"element": "C" 
			},
			{
				"x": -1.1349692925,
				"y": 0.145373794,
				"z": -1.0914545405,
				"element": "C" 
			},
			{
				"x": -2.1154796464,
				"y": 1.0616060414,
				"z": -1.4543084294,
				"element": "C" 
			},
			{
				"x": -3.6351190412,
				"y": 0.4793819117,
				"z": -2.1070755453,
				"element": "Cl" 
			},
			{
				"x": -1.9034588166,
				"y": 2.4324423577,
				"z": -1.3073254734,
				"element": "C" 
			},
			{
				"x": -0.6896794073,
				"y": 2.8660867478,
				"z": -0.7884258855,
				"element": "C" 
			},
			{
				"x": 1.0581090282,
				"y": -0.4164817763,
				"z": -0.269543424,
				"element": "N" 
			},
			{
				"x": 1.6913148687,
				"y": -1.2214593551,
				"z": -1.3293392061,
				"element": "C" 
			},
			{
				"x": 2.2218265587,
				"y": -2.4551284631,
				"z": -0.5690010284,
				"element": "C" 
			},
			{
				"x": 2.4118628697,
				"y": -1.9514508766,
				"z": 0.870747041,
				"element": "C" 
			},
			{
				"x": 1.4557441107,
				"y": -0.7744052875,
				"z": 0.989254935,
				"element": "C" 
			},
			{
				"x": 1.1240420721,
				"y": -0.1959979793,
				"z": 2.0244838471,
				"element": "O" 
			},
			{
				"x": 1.6111619345,
				"y": 1.3956789445,
				"z": 1.6301140362,
				"element": "H" 
			},
			{
				"x": -1.3104277033,
				"y": -0.9174173169,
				"z": -1.2136569015,
				"element": "H" 
			},
			{
				"x": -2.6694327593,
				"y": 3.1406423058,
				"z": -1.6018253915,
				"element": "H" 
			},
			{
				"x": -0.4880756752,
				"y": 3.9274203052,
				"z": -0.6933147192,
				"element": "H" 
			},
			{
				"x": 0.9641665729,
				"y": -1.4772603919,
				"z": -2.1041066247,
				"element": "H" 
			},
			{
				"x": 2.4968831609,
				"y": -0.6445782665,
				"z": -1.8013139094,
				"element": "H" 
			},
			{
				"x": 3.1372507927,
				"y": -2.8470948427,
				"z": -1.0168266082,
				"element": "H" 
			},
			{
				"x": 1.4710144541,
				"y": -3.2510123014,
				"z": -0.591390192,
				"element": "H" 
			},
			{
				"x": 3.4250651548,
				"y": -1.5722548136,
				"z": 1.0524192938,
				"element": "H" 
			},
			{
				"x": 2.198802854,
				"y": -2.691502586,
				"z": 1.6448676614,
				"element": "H" 
			}
		],
		 "valence_orbital": [ 
			{
				"type": "occ",
				"energy": -0.29576,
				"method": "rhf"
			},
			{
				"type": "occ",
				"energy": -0.28427,
				"method": "rhf"
			},
			{
				"type": "occ",
				"energy": -0.27586,
				"method": "rhf"
			},
			{
				"type": "occ",
				"energy": -0.26444,
				"method": "rhf"
			},
			{
				"type": "occ",
				"energy": -0.25504,
				"method": "rhf"
			},
			{
				"type": "unocc",
				"energy": -0.04987,
				"method": "rhf"
			},
			{
				"type": "unocc",
				"energy": -0.03865,
				"method": "rhf"
			},
			{
				"type": "unocc",
				"energy": -0.00532,
				"method": "rhf"
			},
			{
				"type": "unocc",
				"energy": 0.01617,
				"method": "rhf"
			},
			{
				"type": "unocc",
				"energy": 0.03348,
				"method": "rhf"
			}
		],
		"cosmo_sigma_profile": { 
			"-0.025": 0.0,
			"-0.024": 0.0,
			"-0.023": 0.0,
			"-0.022": 0.0,
			"-0.021": 0.0,
			"-0.02": 0.0,
			"-0.019": 0.0,
			"-0.018": 0.0,
			"-0.017": 0.0,
			"-0.016": 0.0,
			"-0.015": 0.0,
			"-0.014": 0.0,
			"-0.013": 0.0,
			"-0.012": 0.0,
			"-0.011": 0.0,
			"-0.01": 0.0,
			"-0.009": 0.809161050026,
			"-0.008": 5.17471380957,
			"-0.007": 8.15410043255,
			"-0.006": 16.8492576997,
			"-0.005": 26.9393733834,
			"-0.004": 26.0997676808,
			"-0.003": 19.3583241219,
			"-0.002": 17.0604183943,
			"-0.001": 14.7324465746,
			"0.0": 18.5110815931,
			"0.001": 18.0467879387,
			"0.002": 13.9131148367,
			"0.003": 11.0913333263,
			"0.004": 12.0723349803,
			"0.005": 3.49722401361,
			"0.006": 4.35002575966,
			"0.007": 3.4599791185,
			"0.008": 3.92724336803,
			"0.009": 3.78183786711,
			"0.01": 5.38360594652,
			"0.011": 8.44236211685,
			"0.012": 7.4695811834,
			"0.013": 3.78294565836,
			"0.014": 0.252924842086,
			"0.015": 0.0,
			"0.016": 0.0,
			"0.017": 0.0,
			"0.018": 0.0,
			"0.019": 0.0,
			"0.02": 0.0,
			"0.021": 0.0,
			"0.022": 0.0,
			"0.023": 0.0,
			"0.024": 0.0,
			"0.025": 0.0
		}
	}
}
