{
	 "smiles": "C1OC2=CC=C(C=C(OC3=CC=CC=C3)C3=NC4=C(S3)C=CC=C4)C=C2O1", 
	 "Tm": 443.15, 
	 "num_atms": 42, 
	 "gaussian": { 
		 "optdone": 1, 
		 "sigma_profile": "yes", 
		 "theory": "DFT", 
		 "functional": "B3LYP", 
		 "basiset": "6-31G**", 
		 "properties": { 
			 "R2extent": 13277.9738, 
			 "electric_dipole_moment_norm": 1.42586042094, 
			 "electric_quadrupole_moment_norm": 14.0064304161, 
			 "total_energy": -1525.94822442, 
			 "HOMO_LUMO_gap": 0.12743, 
			 "cosmo_polarized_energy": -11.56, 
			 "cosmo_cavitation_energy": 48.56, 
			 "cosmo_dispersion_energy": -34.94, 
			 "cosmo_repulsion_energy": 2.57, 
			 "cosmo_total_nonelectrostatic_energy": 16.19, 
			 "SMD_solvation_energy": 7.52 
		},
		"coords": [
			{
				"x": 5.8967777583,
				"y": -1.3363628076,
				"z": -3.2411977326,
				"element": "C" 
			},
			{
				"x": 5.8183037385,
				"y": -0.5378040597,
				"z": -2.0511175197,
				"element": "O" 
			},
			{
				"x": 4.5014857356,
				"y": -0.5404239686,
				"z": -1.6770706814,
				"element": "C" 
			},
			{
				"x": 3.9162275313,
				"y": 0.054905646,
				"z": -0.5753942219,
				"element": "C" 
			},
			{
				"x": 2.5309939149,
				"y": -0.0936171972,
				"z": -0.4178188313,
				"element": "C" 
			},
			{
				"x": 1.7510535237,
				"y": -0.8174633426,
				"z": -1.3428038661,
				"element": "C" 
			},
			{
				"x": 0.310554105,
				"y": -1.0249973878,
				"z": -1.2657011458,
				"element": "C" 
			},
			{
				"x": -0.7144325415,
				"y": -0.5956514307,
				"z": -0.4808822234,
				"element": "C" 
			},
			{
				"x": -1.9925299943,
				"y": -1.0200995049,
				"z": -0.8716314192,
				"element": "O" 
			},
			{
				"x": -2.4735995402,
				"y": -2.2445618484,
				"z": -0.4361295333,
				"element": "C" 
			},
			{
				"x": -1.7791457838,
				"y": -3.0938276248,
				"z": 0.4277753575,
				"element": "C" 
			},
			{
				"x": -2.3663971601,
				"y": -4.3042829189,
				"z": 0.8059839391,
				"element": "C" 
			},
			{
				"x": -3.6257549578,
				"y": -4.6690308685,
				"z": 0.3311968138,
				"element": "C" 
			},
			{
				"x": -4.3072021439,
				"y": -3.8077328793,
				"z": -0.533912015,
				"element": "C" 
			},
			{
				"x": -3.7374983166,
				"y": -2.5971856005,
				"z": -0.9198145131,
				"element": "C" 
			},
			{
				"x": -0.7865380004,
				"y": 0.3262202514,
				"z": 0.6455385603,
				"element": "C" 
			},
			{
				"x": 0.1978917472,
				"y": 0.8453584064,
				"z": 1.3224271022,
				"element": "N" 
			},
			{
				"x": -0.2538042086,
				"y": 1.6943426933,
				"z": 2.3123069816,
				"element": "C" 
			},
			{
				"x": -1.6628833892,
				"y": 1.8263901578,
				"z": 2.3983173825,
				"element": "C" 
			},
			{
				"x": -2.4174151232,
				"y": 0.8385183303,
				"z": 1.1707997294,
				"element": "S" 
			},
			{
				"x": -2.2558085424,
				"y": 2.6506209462,
				"z": 3.3592287617,
				"element": "C" 
			},
			{
				"x": -1.4249471029,
				"y": 3.3436672191,
				"z": 4.2350653817,
				"element": "C" 
			},
			{
				"x": -0.0253926778,
				"y": 3.2196621404,
				"z": 4.1588317676,
				"element": "C" 
			},
			{
				"x": 0.5670148509,
				"y": 2.4014180121,
				"z": 3.2065303865,
				"element": "C" 
			},
			{
				"x": 2.3909169847,
				"y": -1.423925864,
				"z": -2.4647783429,
				"element": "C" 
			},
			{
				"x": 3.7485917715,
				"y": -1.2649151472,
				"z": -2.599914557,
				"element": "C" 
			},
			{
				"x": 4.5708351264,
				"y": -1.7434237637,
				"z": -3.5932477591,
				"element": "O" 
			},
			{
				"x": 6.3252395549,
				"y": -0.736881508,
				"z": -4.0526440651,
				"element": "H" 
			},
			{
				"x": 6.5148596478,
				"y": -2.221778293,
				"z": -3.0439676172,
				"element": "H" 
			},
			{
				"x": 4.5081189593,
				"y": 0.6130602472,
				"z": 0.1412832988,
				"element": "H" 
			},
			{
				"x": 2.039682843,
				"y": 0.3542656646,
				"z": 0.4359744166,
				"element": "H" 
			},
			{
				"x": -0.0589021721,
				"y": -1.6837192114,
				"z": -2.0496482633,
				"element": "H" 
			},
			{
				"x": -0.797844229,
				"y": -2.8192228364,
				"z": 0.7964935783,
				"element": "H" 
			},
			{
				"x": -1.8267196073,
				"y": -4.9636952872,
				"z": 1.4799044081,
				"element": "H" 
			},
			{
				"x": -4.0723046797,
				"y": -5.6123071416,
				"z": 0.6299848614,
				"element": "H" 
			},
			{
				"x": -5.2887189431,
				"y": -4.0788989101,
				"z": -0.9122955951,
				"element": "H" 
			},
			{
				"x": -4.2503308852,
				"y": -1.9148614215,
				"z": -1.5897690648,
				"element": "H" 
			},
			{
				"x": -3.3347575807,
				"y": 2.7493453053,
				"z": 3.4229856139,
				"element": "H" 
			},
			{
				"x": -1.8655244492,
				"y": 3.9894427492,
				"z": 4.9887600112,
				"element": "H" 
			},
			{
				"x": 0.5980068712,
				"y": 3.7721447899,
				"z": 4.8553579358,
				"element": "H" 
			},
			{
				"x": 1.6447767405,
				"y": 2.2961616557,
				"z": 3.1375368797,
				"element": "H" 
			},
			{
				"x": 1.8229206246,
				"y": -1.9907533913,
				"z": -3.1944442007,
				"element": "H" 
			}
		],
		 "valence_orbital": [ 
			{
				"type": "occ",
				"energy": -0.24967,
				"method": "rhf"
			},
			{
				"type": "occ",
				"energy": -0.23479,
				"method": "rhf"
			},
			{
				"type": "occ",
				"energy": -0.23107,
				"method": "rhf"
			},
			{
				"type": "occ",
				"energy": -0.2233,
				"method": "rhf"
			},
			{
				"type": "occ",
				"energy": -0.19828,
				"method": "rhf"
			},
			{
				"type": "unocc",
				"energy": -0.07085,
				"method": "rhf"
			},
			{
				"type": "unocc",
				"energy": -0.00712,
				"method": "rhf"
			},
			{
				"type": "unocc",
				"energy": -0.00357,
				"method": "rhf"
			},
			{
				"type": "unocc",
				"energy": -0.00039,
				"method": "rhf"
			},
			{
				"type": "unocc",
				"energy": 0.00238,
				"method": "rhf"
			}
		],
		"cosmo_sigma_profile": { 
			"-0.025": 0.0,
			"-0.024": 0.0,
			"-0.023": 0.0,
			"-0.022": 0.0,
			"-0.021": 0.0,
			"-0.02": 0.0,
			"-0.019": 0.0,
			"-0.018": 0.0,
			"-0.017": 0.0,
			"-0.016": 0.0,
			"-0.015": 0.0,
			"-0.014": 0.0,
			"-0.013": 0.0,
			"-0.012": 0.0,
			"-0.011": 0.0,
			"-0.01": 0.0,
			"-0.009": 0.129914095848,
			"-0.008": 6.7196495684,
			"-0.007": 15.0168179258,
			"-0.006": 25.042329508,
			"-0.005": 25.9516120441,
			"-0.004": 25.7199501312,
			"-0.003": 23.6844186341,
			"-0.002": 19.490983365,
			"-0.001": 23.9884881075,
			"0.0": 27.5983384986,
			"0.001": 28.9369415895,
			"0.002": 45.1864771182,
			"0.003": 44.1909453828,
			"0.004": 37.7545083704,
			"0.005": 22.1858972932,
			"0.006": 9.27672116363,
			"0.007": 4.30684541452,
			"0.008": 4.59842725656,
			"0.009": 3.40321862977,
			"0.01": 0.79491410183,
			"0.011": 0.0,
			"0.012": 0.0,
			"0.013": 0.0,
			"0.014": 0.0,
			"0.015": 0.0,
			"0.016": 0.0,
			"0.017": 0.0,
			"0.018": 0.0,
			"0.019": 0.0,
			"0.02": 0.0,
			"0.021": 0.0,
			"0.022": 0.0,
			"0.023": 0.0,
			"0.024": 0.0,
			"0.025": 0.0
		}
	}
}
