{
	 "smiles": "NC(CC1=NC2=C(N1)C=CC=C2)=NO", 
	 "Tm": 412.15, 
	 "num_atms": 24, 
	 "gaussian": { 
		 "optdone": 1, 
		 "sigma_profile": "yes", 
		 "theory": "DFT", 
		 "functional": "B3LYP", 
		 "basiset": "6-31G**", 
		 "properties": { 
			 "R2extent": 3770.1452, 
			 "electric_dipole_moment_norm": 2.79753249311, 
			 "electric_quadrupole_moment_norm": 7.94563299555, 
			 "total_energy": -643.184570501, 
			 "HOMO_LUMO_gap": 0.18449, 
			 "cosmo_polarized_energy": -17.08, 
			 "cosmo_cavitation_energy": 28.28, 
			 "cosmo_dispersion_energy": -21.31, 
			 "cosmo_repulsion_energy": 1.7, 
			 "cosmo_total_nonelectrostatic_energy": 8.67, 
			 "SMD_solvation_energy": 2.91 
		},
		"coords": [
			{
				"x": -3.033318166,
				"y": -0.1714729071,
				"z": 0.1589770268,
				"element": "N" 
			},
			{
				"x": -2.8428884243,
				"y": 0.7908698447,
				"z": -0.7970286753,
				"element": "C" 
			},
			{
				"x": -1.6141378278,
				"y": 1.6659187322,
				"z": -0.6692713348,
				"element": "C" 
			},
			{
				"x": -0.332552945,
				"y": 0.8815387597,
				"z": -0.6464341693,
				"element": "C" 
			},
			{
				"x": -0.0702173229,
				"y": -0.1040101092,
				"z": 0.1827478658,
				"element": "N" 
			},
			{
				"x": 1.2112170919,
				"y": -0.5305495305,
				"z": -0.1427276412,
				"element": "C" 
			},
			{
				"x": 1.7257979136,
				"y": 0.2454986116,
				"z": -1.2090247607,
				"element": "C" 
			},
			{
				"x": 0.7104297384,
				"y": 1.1411991969,
				"z": -1.5058453675,
				"element": "N" 
			},
			{
				"x": 2.9989169088,
				"y": 0.0397481926,
				"z": -1.742580475,
				"element": "C" 
			},
			{
				"x": 3.7580106605,
				"y": -0.9804607661,
				"z": -1.1738818325,
				"element": "C" 
			},
			{
				"x": 3.2620999787,
				"y": -1.7630030647,
				"z": -0.1118177904,
				"element": "C" 
			},
			{
				"x": 1.9918236669,
				"y": -1.5506011141,
				"z": 0.4147687304,
				"element": "C" 
			},
			{
				"x": -3.6463536992,
				"y": 1.0778028473,
				"z": -1.7656359731,
				"element": "N" 
			},
			{
				"x": -4.7611090906,
				"y": 0.1816946972,
				"z": -1.7261328085,
				"element": "O" 
			},
			{
				"x": -2.1782538755,
				"y": -0.5366228139,
				"z": 0.5684147064,
				"element": "H" 
			},
			{
				"x": -3.7499771022,
				"y": -0.8467300718,
				"z": -0.0689921739,
				"element": "H" 
			},
			{
				"x": -1.6870606239,
				"y": 2.2384653569,
				"z": 0.2649774325,
				"element": "H" 
			},
			{
				"x": -1.6235073147,
				"y": 2.376155415,
				"z": -1.4987059562,
				"element": "H" 
			},
			{
				"x": 0.7132640964,
				"y": 1.8378690871,
				"z": -2.2346587031,
				"element": "H" 
			},
			{
				"x": 3.3836445379,
				"y": 0.6408115497,
				"z": -2.5610179747,
				"element": "H" 
			},
			{
				"x": 4.7545462656,
				"y": -1.1767056077,
				"z": -1.5579739287,
				"element": "H" 
			},
			{
				"x": 3.8883787188,
				"y": -2.5476491538,
				"z": 0.3020655628,
				"element": "H" 
			},
			{
				"x": 1.6062380077,
				"y": -2.1500330633,
				"z": 1.2331010129,
				"element": "H" 
			},
			{
				"x": -5.2602911932,
				"y": 0.4560659111,
				"z": -2.5043227726,
				"element": "H" 
			}
		],
		 "valence_orbital": [ 
			{
				"type": "occ",
				"energy": -0.28303,
				"method": "rhf"
			},
			{
				"type": "occ",
				"energy": -0.26656,
				"method": "rhf"
			},
			{
				"type": "occ",
				"energy": -0.23248,
				"method": "rhf"
			},
			{
				"type": "occ",
				"energy": -0.22659,
				"method": "rhf"
			},
			{
				"type": "occ",
				"energy": -0.20426,
				"method": "rhf"
			},
			{
				"type": "unocc",
				"energy": -0.01977,
				"method": "rhf"
			},
			{
				"type": "unocc",
				"energy": 0.01825,
				"method": "rhf"
			},
			{
				"type": "unocc",
				"energy": 0.03743,
				"method": "rhf"
			},
			{
				"type": "unocc",
				"energy": 0.05711,
				"method": "rhf"
			},
			{
				"type": "unocc",
				"energy": 0.0671,
				"method": "rhf"
			}
		],
		"cosmo_sigma_profile": { 
			"-0.025": 0.0,
			"-0.024": 0.0,
			"-0.023": 0.0,
			"-0.022": 0.0,
			"-0.021": 0.0,
			"-0.02": 0.0,
			"-0.019": 0.0,
			"-0.018": 0.0,
			"-0.017": 0.46518269155,
			"-0.016": 2.44692821731,
			"-0.015": 2.81090260211,
			"-0.014": 2.27057625906,
			"-0.013": 2.45186369184,
			"-0.012": 1.70848745697,
			"-0.011": 2.65122978512,
			"-0.01": 3.00264840688,
			"-0.009": 3.33736602221,
			"-0.008": 3.30709525024,
			"-0.007": 6.5384646154,
			"-0.006": 10.4149466836,
			"-0.005": 12.8425970991,
			"-0.004": 14.2371141786,
			"-0.003": 12.5414021841,
			"-0.002": 10.0841353696,
			"-0.001": 10.9489249057,
			"0.0": 11.3063348723,
			"0.001": 13.6360125313,
			"0.002": 13.5322535909,
			"0.003": 11.3811399435,
			"0.004": 12.8101289805,
			"0.005": 15.1780920259,
			"0.006": 13.3922044114,
			"0.007": 6.79428858301,
			"0.008": 6.24520833998,
			"0.009": 5.1049087553,
			"0.01": 3.42248180865,
			"0.011": 4.20656165511,
			"0.012": 2.84381229827,
			"0.013": 1.3834573137,
			"0.014": 0.893328808793,
			"0.015": 0.838174395998,
			"0.016": 0.0,
			"0.017": 0.0,
			"0.018": 0.0,
			"0.019": 0.0,
			"0.02": 0.0,
			"0.021": 0.0,
			"0.022": 0.0,
			"0.023": 0.0,
			"0.024": 0.0,
			"0.025": 0.0
		}
	}
}
