{
	 "smiles": "CS(=O)(=O)NC1=C(C=CC=C1)C(O)=O", 
	 "Tm": 449.15, 
	 "num_atms": 23, 
	 "gaussian": { 
		 "optdone": 1, 
		 "sigma_profile": "yes", 
		 "theory": "DFT", 
		 "functional": "B3LYP", 
		 "basiset": "6-31G**", 
		 "properties": { 
			 "R2extent": 3380.9725, 
			 "electric_dipole_moment_norm": 7.07025779657, 
			 "electric_quadrupole_moment_norm": 11.9419292662, 
			 "total_energy": -1064.05691034, 
			 "HOMO_LUMO_gap": 0.1774, 
			 "cosmo_polarized_energy": -21.76, 
			 "cosmo_cavitation_energy": 28.39, 
			 "cosmo_dispersion_energy": -21.2, 
			 "cosmo_repulsion_energy": 1.61, 
			 "cosmo_total_nonelectrostatic_energy": 8.8, 
			 "SMD_solvation_energy": 5.52 
		},
		"coords": [
			{
				"x": -2.6082958977,
				"y": 1.0270854237,
				"z": -2.0783893425,
				"element": "C" 
			},
			{
				"x": -1.8614198207,
				"y": -0.602908303,
				"z": -2.2841257065,
				"element": "S" 
			},
			{
				"x": -2.6940165999,
				"y": -1.5579365568,
				"z": -1.5518196016,
				"element": "O" 
			},
			{
				"x": -1.5354556422,
				"y": -0.7931270209,
				"z": -3.6935134754,
				"element": "O" 
			},
			{
				"x": -0.363385346,
				"y": -0.4674751777,
				"z": -1.5210197072,
				"element": "N" 
			},
			{
				"x": -0.1115759838,
				"y": -0.2793386746,
				"z": -0.1589513545,
				"element": "C" 
			},
			{
				"x": 1.0755767418,
				"y": 0.3971850792,
				"z": 0.2465558588,
				"element": "C" 
			},
			{
				"x": 1.3628788826,
				"y": 0.4950307362,
				"z": 1.6207392112,
				"element": "C" 
			},
			{
				"x": 0.4958588752,
				"y": 0.0062803657,
				"z": 2.5869918481,
				"element": "C" 
			},
			{
				"x": -0.6897527757,
				"y": -0.6114494758,
				"z": 2.1774029946,
				"element": "C" 
			},
			{
				"x": -0.9879002577,
				"y": -0.7666233465,
				"z": 0.8295269644,
				"element": "C" 
			},
			{
				"x": 2.0004313894,
				"y": 0.9778554025,
				"z": -0.7664671735,
				"element": "C" 
			},
			{
				"x": 2.9004268226,
				"y": 1.8944523264,
				"z": -0.339325742,
				"element": "O" 
			},
			{
				"x": 1.9897448916,
				"y": 0.6902916513,
				"z": -1.9520008974,
				"element": "O" 
			},
			{
				"x": -1.992932449,
				"y": 1.7626692779,
				"z": -2.5975338423,
				"element": "H" 
			},
			{
				"x": -2.6805090493,
				"y": 1.2522557094,
				"z": -1.0130556205,
				"element": "H" 
			},
			{
				"x": -3.6044549699,
				"y": 0.9787506828,
				"z": -2.5217693406,
				"element": "H" 
			},
			{
				"x": 0.3976929709,
				"y": -0.1771066879,
				"z": -2.1430305153,
				"element": "H" 
			},
			{
				"x": 2.3059139543,
				"y": 0.9290497411,
				"z": 1.9443792548,
				"element": "H" 
			},
			{
				"x": 0.7442769609,
				"y": 0.0895582948,
				"z": 3.6396040436,
				"element": "H" 
			},
			{
				"x": -1.3799395551,
				"y": -1.0056873962,
				"z": 2.9175352292,
				"element": "H" 
			},
			{
				"x": -1.882079759,
				"y": -1.2939205524,
				"z": 0.5224287187,
				"element": "H" 
			},
			{
				"x": 2.7044166171,
				"y": 2.1661085009,
				"z": 0.5674381958,
				"element": "H" 
			}
		],
		 "valence_orbital": [ 
			{
				"type": "occ",
				"energy": -0.3138,
				"method": "rhf"
			},
			{
				"type": "occ",
				"energy": -0.30906,
				"method": "rhf"
			},
			{
				"type": "occ",
				"energy": -0.29192,
				"method": "rhf"
			},
			{
				"type": "occ",
				"energy": -0.28256,
				"method": "rhf"
			},
			{
				"type": "occ",
				"energy": -0.24439,
				"method": "rhf"
			},
			{
				"type": "unocc",
				"energy": -0.06699,
				"method": "rhf"
			},
			{
				"type": "unocc",
				"energy": -0.02857,
				"method": "rhf"
			},
			{
				"type": "unocc",
				"energy": 0.03144,
				"method": "rhf"
			},
			{
				"type": "unocc",
				"energy": 0.04765,
				"method": "rhf"
			},
			{
				"type": "unocc",
				"energy": 0.06579,
				"method": "rhf"
			}
		],
		"cosmo_sigma_profile": { 
			"-0.025": 0.0,
			"-0.024": 0.0,
			"-0.023": 0.0,
			"-0.022": 0.0,
			"-0.021": 0.0,
			"-0.02": 0.0263013405338,
			"-0.019": 0.586053076763,
			"-0.018": 0.860128907803,
			"-0.017": 1.40009885186,
			"-0.016": 0.801152274487,
			"-0.015": 0.670794827387,
			"-0.014": 0.851307382658,
			"-0.013": 0.983728450064,
			"-0.012": 1.2493326623,
			"-0.011": 1.21732678521,
			"-0.01": 1.90499317735,
			"-0.009": 5.04574877757,
			"-0.008": 6.4065928033,
			"-0.007": 10.558499712,
			"-0.006": 15.0264116692,
			"-0.005": 18.750546071,
			"-0.004": 15.8962969076,
			"-0.003": 10.844806509,
			"-0.002": 10.4490152281,
			"-0.001": 10.1761749112,
			"0.0": 9.5858688954,
			"0.001": 10.5742962911,
			"0.002": 15.4823731491,
			"0.003": 14.0177546107,
			"0.004": 7.65420369655,
			"0.005": 4.72343702249,
			"0.006": 4.60243263795,
			"0.007": 5.29668439786,
			"0.008": 5.96012421188,
			"0.009": 7.32810330705,
			"0.01": 12.7362192809,
			"0.011": 11.9319032195,
			"0.012": 3.391816755,
			"0.013": 0.375339666058,
			"0.014": 0.0,
			"0.015": 0.0,
			"0.016": 0.0,
			"0.017": 0.0,
			"0.018": 0.0,
			"0.019": 0.0,
			"0.02": 0.0,
			"0.021": 0.0,
			"0.022": 0.0,
			"0.023": 0.0,
			"0.024": 0.0,
			"0.025": 0.0
		}
	}
}
