{
	 "smiles": "CC1(NC(=O)NC1=O)C1=CC=C(N)C=C1", 
	 "Tm": 461.15, 
	 "num_atms": 26, 
	 "gaussian": { 
		 "optdone": 1, 
		 "sigma_profile": "yes", 
		 "theory": "DFT", 
		 "functional": "B3LYP", 
		 "basiset": "6-31G**", 
		 "properties": { 
			 "R2extent": 3858.488, 
			 "electric_dipole_moment_norm": 3.21220937829, 
			 "electric_quadrupole_moment_norm": 18.6335585611, 
			 "total_energy": -702.443399573, 
			 "HOMO_LUMO_gap": 0.1939, 
			 "cosmo_polarized_energy": -20.34, 
			 "cosmo_cavitation_energy": 29.95, 
			 "cosmo_dispersion_energy": -21.51, 
			 "cosmo_repulsion_energy": 1.7, 
			 "cosmo_total_nonelectrostatic_energy": 10.14, 
			 "SMD_solvation_energy": 6.78 
		},
		"coords": [
			{
				"x": -0.7587042495,
				"y": 1.5941958794,
				"z": 0.9694981261,
				"element": "C" 
			},
			{
				"x": -0.3052400054,
				"y": 0.1584155724,
				"z": 1.3057996253,
				"element": "C" 
			},
			{
				"x": 0.9525841931,
				"y": 0.1606409708,
				"z": 2.0522270826,
				"element": "N" 
			},
			{
				"x": 0.835109247,
				"y": -0.2638806621,
				"z": 3.3516543115,
				"element": "C" 
			},
			{
				"x": 1.6806046936,
				"y": -0.2857106074,
				"z": 4.2216398436,
				"element": "O" 
			},
			{
				"x": -0.5052091316,
				"y": -0.6825955033,
				"z": 3.4865024022,
				"element": "N" 
			},
			{
				"x": -1.2691386697,
				"y": -0.4425243001,
				"z": 2.3659684196,
				"element": "C" 
			},
			{
				"x": -2.4591477137,
				"y": -0.6392445729,
				"z": 2.2363835679,
				"element": "O" 
			},
			{
				"x": -0.2592152467,
				"y": -0.7299429464,
				"z": 0.0583400174,
				"element": "C" 
			},
			{
				"x": -1.4176931133,
				"y": -0.931011935,
				"z": -0.7080045543,
				"element": "C" 
			},
			{
				"x": -1.3952437967,
				"y": -1.7182683214,
				"z": -1.853061955,
				"element": "C" 
			},
			{
				"x": -0.205830618,
				"y": -2.335664265,
				"z": -2.2798325176,
				"element": "C" 
			},
			{
				"x": -0.1677830846,
				"y": -3.0736248,
				"z": -3.4624180025,
				"element": "N" 
			},
			{
				"x": 0.9514222072,
				"y": -2.1443009511,
				"z": -1.5084193187,
				"element": "C" 
			},
			{
				"x": 0.9185549136,
				"y": -1.3585217139,
				"z": -0.3588752586,
				"element": "C" 
			},
			{
				"x": -0.0699455488,
				"y": 2.04282408,
				"z": 0.2472024017,
				"element": "H" 
			},
			{
				"x": -0.781325319,
				"y": 2.2134611749,
				"z": 1.8716463589,
				"element": "H" 
			},
			{
				"x": -1.758325755,
				"y": 1.5835789055,
				"z": 0.5309560066,
				"element": "H" 
			},
			{
				"x": 1.7645881091,
				"y": 0.6917509504,
				"z": 1.7775002409,
				"element": "H" 
			},
			{
				"x": -0.8673281759,
				"y": -1.057452965,
				"z": 4.3515352513,
				"element": "H" 
			},
			{
				"x": -2.35764931,
				"y": -0.495471941,
				"z": -0.3864925091,
				"element": "H" 
			},
			{
				"x": -2.3080880971,
				"y": -1.8601536412,
				"z": -2.4265080268,
				"element": "H" 
			},
			{
				"x": -1.0537541564,
				"y": -3.4581287066,
				"z": -3.7600730619,
				"element": "H" 
			},
			{
				"x": 0.5790271125,
				"y": -3.751664976,
				"z": -3.5248844041,
				"element": "H" 
			},
			{
				"x": 1.8830179233,
				"y": -2.6159985387,
				"z": -1.8116215065,
				"element": "H" 
			},
			{
				"x": 1.824713592,
				"y": -1.2473061862,
				"z": 0.2272374594,
				"element": "H" 
			}
		],
		 "valence_orbital": [ 
			{
				"type": "occ",
				"energy": -0.28522,
				"method": "rhf"
			},
			{
				"type": "occ",
				"energy": -0.26763,
				"method": "rhf"
			},
			{
				"type": "occ",
				"energy": -0.25972,
				"method": "rhf"
			},
			{
				"type": "occ",
				"energy": -0.25005,
				"method": "rhf"
			},
			{
				"type": "occ",
				"energy": -0.205,
				"method": "rhf"
			},
			{
				"type": "unocc",
				"energy": -0.0111,
				"method": "rhf"
			},
			{
				"type": "unocc",
				"energy": -0.00171,
				"method": "rhf"
			},
			{
				"type": "unocc",
				"energy": 0.01605,
				"method": "rhf"
			},
			{
				"type": "unocc",
				"energy": 0.06313,
				"method": "rhf"
			},
			{
				"type": "unocc",
				"energy": 0.07618,
				"method": "rhf"
			}
		],
		"cosmo_sigma_profile": { 
			"-0.025": 0.0,
			"-0.024": 0.0,
			"-0.023": 0.0,
			"-0.022": 0.0,
			"-0.021": 0.0,
			"-0.02": 0.0,
			"-0.019": 0.0,
			"-0.018": 0.0,
			"-0.017": 0.234266802979,
			"-0.016": 1.49468542491,
			"-0.015": 1.48028790307,
			"-0.014": 2.45692295324,
			"-0.013": 2.42652503033,
			"-0.012": 3.59711603374,
			"-0.011": 5.04123779977,
			"-0.01": 5.0773673428,
			"-0.009": 4.73021371008,
			"-0.008": 5.76018751265,
			"-0.007": 5.43689827218,
			"-0.006": 8.70140013358,
			"-0.005": 13.6707823698,
			"-0.004": 14.1753919662,
			"-0.003": 15.8977829377,
			"-0.002": 16.2466247984,
			"-0.001": 16.4509214749,
			"0.0": 12.5272173714,
			"0.001": 9.27488629425,
			"0.002": 8.97624600052,
			"0.003": 8.30711566524,
			"0.004": 9.05317697309,
			"0.005": 10.7874503322,
			"0.006": 13.7861150381,
			"0.007": 6.43950426943,
			"0.008": 3.03713852596,
			"0.009": 3.53130507175,
			"0.01": 3.91334630331,
			"0.011": 6.25619307205,
			"0.012": 8.89792080788,
			"0.013": 7.59460171726,
			"0.014": 1.45361221601,
			"0.015": 0.187681644168,
			"0.016": 0.0,
			"0.017": 0.0,
			"0.018": 0.0,
			"0.019": 0.0,
			"0.02": 0.0,
			"0.021": 0.0,
			"0.022": 0.0,
			"0.023": 0.0,
			"0.024": 0.0,
			"0.025": 0.0
		}
	}
}
