{
	 "smiles": "COC1=CC=C(C=C1)S(=O)(=O)NCC(O)=O", 
	 "Tm": 405.15, 
	 "num_atms": 27, 
	 "gaussian": { 
		 "optdone": 1, 
		 "sigma_profile": "yes", 
		 "theory": "DFT", 
		 "functional": "B3LYP", 
		 "basiset": "6-31G**", 
		 "properties": { 
			 "R2extent": 5558.11, 
			 "electric_dipole_moment_norm": 5.63468029439, 
			 "electric_quadrupole_moment_norm": 17.94031097, 
			 "total_energy": -1178.56848405, 
			 "HOMO_LUMO_gap": 0.2115, 
			 "cosmo_polarized_energy": -24.27, 
			 "cosmo_cavitation_energy": 33.02, 
			 "cosmo_dispersion_energy": -23.83, 
			 "cosmo_repulsion_energy": 1.82, 
			 "cosmo_total_nonelectrostatic_energy": 11.01, 
			 "SMD_solvation_energy": 6.34 
		},
		"coords": [
			{
				"x": -0.5066532527,
				"y": -3.0679824878,
				"z": 2.2695516707,
				"element": "C" 
			},
			{
				"x": -1.1288643194,
				"y": -1.8096771801,
				"z": 2.4999509187,
				"element": "O" 
			},
			{
				"x": -1.0787480202,
				"y": -0.8705043548,
				"z": 1.5216974127,
				"element": "C" 
			},
			{
				"x": -0.4413999723,
				"y": -1.0441095712,
				"z": 0.284740858,
				"element": "C" 
			},
			{
				"x": -0.4552729358,
				"y": -0.0093009894,
				"z": -0.6514325438,
				"element": "C" 
			},
			{
				"x": -1.0966274774,
				"y": 1.1935578191,
				"z": -0.3493068079,
				"element": "C" 
			},
			{
				"x": -1.7387599363,
				"y": 1.3702714203,
				"z": 0.8843930124,
				"element": "C" 
			},
			{
				"x": -1.730251323,
				"y": 0.3417481484,
				"z": 1.8132794861,
				"element": "C" 
			},
			{
				"x": -1.0855814698,
				"y": 2.5273226946,
				"z": -1.5401044758,
				"element": "S" 
			},
			{
				"x": -0.948294692,
				"y": 1.9243656551,
				"z": -2.8664260297,
				"element": "O" 
			},
			{
				"x": -2.1589842094,
				"y": 3.459316492,
				"z": -1.1936264533,
				"element": "O" 
			},
			{
				"x": 0.3385486929,
				"y": 3.4058652062,
				"z": -1.2891805904,
				"element": "N" 
			},
			{
				"x": 1.621375134,
				"y": 2.7188249426,
				"z": -1.4068300507,
				"element": "C" 
			},
			{
				"x": 1.9628623675,
				"y": 2.2969466332,
				"z": -2.833354001,
				"element": "C" 
			},
			{
				"x": 1.8349457934,
				"y": 3.3030246833,
				"z": -3.7133711478,
				"element": "O" 
			},
			{
				"x": 2.368982661,
				"y": 1.1923731545,
				"z": -3.1188686029,
				"element": "O" 
			},
			{
				"x": -0.6748519374,
				"y": -3.6539853667,
				"z": 3.1737248602,
				"element": "H" 
			},
			{
				"x": -0.954102599,
				"y": -3.5866427068,
				"z": 1.4130051819,
				"element": "H" 
			},
			{
				"x": 0.5722035798,
				"y": -2.9590272455,
				"z": 2.1040390201,
				"element": "H" 
			},
			{
				"x": 0.056631598,
				"y": -1.9734314589,
				"z": 0.0373310713,
				"element": "H" 
			},
			{
				"x": 0.0217260159,
				"y": -0.1416694724,
				"z": -1.616932118,
				"element": "H" 
			},
			{
				"x": -2.2580177932,
				"y": 2.2997711611,
				"z": 1.0920017867,
				"element": "H" 
			},
			{
				"x": -2.2284475766,
				"y": 0.4431138399,
				"z": 2.7715159746,
				"element": "H" 
			},
			{
				"x": 0.2456324663,
				"y": 4.0037902874,
				"z": -0.4745265429,
				"element": "H" 
			},
			{
				"x": 2.3909055925,
				"y": 3.4282726523,
				"z": -1.0839382728,
				"element": "H" 
			},
			{
				"x": 1.7032568068,
				"y": 1.8203423689,
				"z": -0.7831315367,
				"element": "H" 
			},
			{
				"x": 2.0418868063,
				"y": 2.9310236748,
				"z": -4.5870020796,
				"element": "H" 
			}
		],
		 "valence_orbital": [ 
			{
				"type": "occ",
				"energy": -0.30281,
				"method": "rhf"
			},
			{
				"type": "occ",
				"energy": -0.29234,
				"method": "rhf"
			},
			{
				"type": "occ",
				"energy": -0.27725,
				"method": "rhf"
			},
			{
				"type": "occ",
				"energy": -0.27232,
				"method": "rhf"
			},
			{
				"type": "occ",
				"energy": -0.24179,
				"method": "rhf"
			},
			{
				"type": "unocc",
				"energy": -0.03029,
				"method": "rhf"
			},
			{
				"type": "unocc",
				"energy": -0.02366,
				"method": "rhf"
			},
			{
				"type": "unocc",
				"energy": -0.00178,
				"method": "rhf"
			},
			{
				"type": "unocc",
				"energy": 0.06224,
				"method": "rhf"
			},
			{
				"type": "unocc",
				"energy": 0.07454,
				"method": "rhf"
			}
		],
		"cosmo_sigma_profile": { 
			"-0.025": 0.0,
			"-0.024": 0.0,
			"-0.023": 0.0,
			"-0.022": 0.0,
			"-0.021": 0.0,
			"-0.02": 0.0,
			"-0.019": 0.393731720001,
			"-0.018": 0.881214530912,
			"-0.017": 0.784202784022,
			"-0.016": 1.3626306829,
			"-0.015": 2.71172373307,
			"-0.014": 1.67335598024,
			"-0.013": 1.3612777461,
			"-0.012": 2.49899565824,
			"-0.011": 2.20576685189,
			"-0.01": 3.17499531993,
			"-0.009": 4.79979363052,
			"-0.008": 3.75660661949,
			"-0.007": 10.6689344726,
			"-0.006": 18.3852595432,
			"-0.005": 19.3270906081,
			"-0.004": 17.6040436388,
			"-0.003": 14.826942556,
			"-0.002": 11.0765839465,
			"-0.001": 10.7331524144,
			"0.0": 11.3998292692,
			"0.001": 14.40480033,
			"0.002": 18.4987196217,
			"0.003": 13.313071541,
			"0.004": 6.28542354722,
			"0.005": 6.62364502284,
			"0.006": 8.26126917112,
			"0.007": 6.97034455382,
			"0.008": 8.40148898706,
			"0.009": 8.75643627894,
			"0.01": 11.3983986693,
			"0.011": 14.2255397296,
			"0.012": 5.41771937813,
			"0.013": 0.0614921621371,
			"0.014": 0.0,
			"0.015": 0.0,
			"0.016": 0.0,
			"0.017": 0.0,
			"0.018": 0.0,
			"0.019": 0.0,
			"0.02": 0.0,
			"0.021": 0.0,
			"0.022": 0.0,
			"0.023": 0.0,
			"0.024": 0.0,
			"0.025": 0.0
		}
	}
}
