{
	 "smiles": "COC1=CC=C(C=C1)C(O)C(O)=O", 
	 "Tm": 383.15, 
	 "num_atms": 23, 
	 "gaussian": { 
		 "optdone": 1, 
		 "sigma_profile": "yes", 
		 "theory": "DFT", 
		 "functional": "B3LYP", 
		 "basiset": "6-31G**", 
		 "properties": { 
			 "R2extent": 3507.4157, 
			 "electric_dipole_moment_norm": 5.4447380791, 
			 "electric_quadrupole_moment_norm": 17.9522529102, 
			 "total_energy": -649.869382823, 
			 "HOMO_LUMO_gap": 0.20994, 
			 "cosmo_polarized_energy": -16.59, 
			 "cosmo_cavitation_energy": 27.41, 
			 "cosmo_dispersion_energy": -19.86, 
			 "cosmo_repulsion_energy": 1.59, 
			 "cosmo_total_nonelectrostatic_energy": 9.14, 
			 "SMD_solvation_energy": 6.76 
		},
		"coords": [
			{
				"x": -0.0544647833,
				"y": -1.5844727252,
				"z": 4.9833747934,
				"element": "C" 
			},
			{
				"x": -0.546081418,
				"y": -1.7843836984,
				"z": 3.666084547,
				"element": "O" 
			},
			{
				"x": -0.4209498176,
				"y": -0.7690181762,
				"z": 2.7676446217,
				"element": "C" 
			},
			{
				"x": 0.136570112,
				"y": 0.4838247927,
				"z": 3.0516816851,
				"element": "C" 
			},
			{
				"x": 0.2042997114,
				"y": 1.4521259276,
				"z": 2.0476240677,
				"element": "C" 
			},
			{
				"x": -0.2697511438,
				"y": 1.1963315551,
				"z": 0.7606111671,
				"element": "C" 
			},
			{
				"x": -0.8185346577,
				"y": -0.0680494045,
				"z": 0.4865152094,
				"element": "C" 
			},
			{
				"x": -0.9008364129,
				"y": -1.0375882004,
				"z": 1.4755332402,
				"element": "C" 
			},
			{
				"x": -0.1696168273,
				"y": 2.2458735262,
				"z": -0.3271832383,
				"element": "C" 
			},
			{
				"x": -1.3493359252,
				"y": 2.3133940031,
				"z": -1.1391481512,
				"element": "O" 
			},
			{
				"x": 1.0135149083,
				"y": 1.9444522022,
				"z": -1.2732462981,
				"element": "C" 
			},
			{
				"x": 0.6517264714,
				"y": 1.535119632,
				"z": -2.5012176154,
				"element": "O" 
			},
			{
				"x": 2.1615006919,
				"y": 2.0501463403,
				"z": -0.9212519875,
				"element": "O" 
			},
			{
				"x": -0.5790118066,
				"y": -0.7648036138,
				"z": 5.4908520048,
				"element": "H" 
			},
			{
				"x": -0.2424967724,
				"y": -2.5161013032,
				"z": 5.5187410455,
				"element": "H" 
			},
			{
				"x": 1.0231277736,
				"y": -1.3777075298,
				"z": 4.9851400253,
				"element": "H" 
			},
			{
				"x": 0.5132414928,
				"y": 0.7168109708,
				"z": 4.0402868774,
				"element": "H" 
			},
			{
				"x": 0.6399039243,
				"y": 2.4209662013,
				"z": 2.2758679269,
				"element": "H" 
			},
			{
				"x": -1.1814124699,
				"y": -0.2937624019,
				"z": -0.5124181871,
				"element": "H" 
			},
			{
				"x": -1.3239482525,
				"y": -2.0159787456,
				"z": 1.2734423877,
				"element": "H" 
			},
			{
				"x": 0.0415898488,
				"y": 3.2233915702,
				"z": 0.1244660999,
				"element": "H" 
			},
			{
				"x": -2.1117962526,
				"y": 2.0963387799,
				"z": -0.5869096277,
				"element": "H" 
			},
			{
				"x": -0.3220383948,
				"y": 1.6024902976,
				"z": -2.5403905938,
				"element": "H" 
			}
		],
		 "valence_orbital": [ 
			{
				"type": "occ",
				"energy": -0.31495,
				"method": "rhf"
			},
			{
				"type": "occ",
				"energy": -0.29926,
				"method": "rhf"
			},
			{
				"type": "occ",
				"energy": -0.26611,
				"method": "rhf"
			},
			{
				"type": "occ",
				"energy": -0.26159,
				"method": "rhf"
			},
			{
				"type": "occ",
				"energy": -0.22851,
				"method": "rhf"
			},
			{
				"type": "unocc",
				"energy": -0.01857,
				"method": "rhf"
			},
			{
				"type": "unocc",
				"energy": -0.01116,
				"method": "rhf"
			},
			{
				"type": "unocc",
				"energy": 0.02676,
				"method": "rhf"
			},
			{
				"type": "unocc",
				"energy": 0.06564,
				"method": "rhf"
			},
			{
				"type": "unocc",
				"energy": 0.08648,
				"method": "rhf"
			}
		],
		"cosmo_sigma_profile": { 
			"-0.025": 0.0,
			"-0.024": 0.0,
			"-0.023": 0.0,
			"-0.022": 0.0,
			"-0.021": 0.0,
			"-0.02": 0.0,
			"-0.019": 0.0,
			"-0.018": 0.0,
			"-0.017": 0.302945687466,
			"-0.016": 0.655773252633,
			"-0.015": 0.777821988867,
			"-0.014": 0.813947597224,
			"-0.013": 1.74850510178,
			"-0.012": 1.43980704999,
			"-0.011": 0.916468274586,
			"-0.01": 1.31030200021,
			"-0.009": 1.99882668629,
			"-0.008": 2.69479593232,
			"-0.007": 7.67997560633,
			"-0.006": 16.6985288309,
			"-0.005": 20.7446312586,
			"-0.004": 18.6263173354,
			"-0.003": 16.0855938835,
			"-0.002": 12.2811023482,
			"-0.001": 7.86595572628,
			"0.0": 8.53830700783,
			"0.001": 8.92729167467,
			"0.002": 9.73497390448,
			"0.003": 12.3450520696,
			"0.004": 14.350278706,
			"0.005": 10.1850181768,
			"0.006": 5.03968554645,
			"0.007": 4.88253965449,
			"0.008": 5.81153859598,
			"0.009": 4.75963022218,
			"0.01": 7.49339284843,
			"0.011": 5.3060702873,
			"0.012": 5.31556243378,
			"0.013": 1.92902173194,
			"0.014": 0.0460904785616,
			"0.015": 0.0,
			"0.016": 0.0,
			"0.017": 0.0,
			"0.018": 0.0,
			"0.019": 0.0,
			"0.02": 0.0,
			"0.021": 0.0,
			"0.022": 0.0,
			"0.023": 0.0,
			"0.024": 0.0,
			"0.025": 0.0
		}
	}
}
