{
	 "smiles": "ClC1=CC=C(COC(CN2C=CN=C2)C2=CC=C(Cl)C=C2Cl)C(Cl)=C1", 
	 "Tm": 434.15, 
	 "num_atms": 39, 
	 "gaussian": { 
		 "optdone": 1, 
		 "sigma_profile": "yes", 
		 "theory": "DFT", 
		 "functional": "B3LYP", 
		 "basiset": "6-31G**", 
		 "properties": { 
			 "R2extent": 14066.455, 
			 "electric_dipole_moment_norm": 3.49858998026, 
			 "electric_quadrupole_moment_norm": 17.1084115522, 
			 "total_energy": -2719.82944425, 
			 "HOMO_LUMO_gap": 0.17899, 
			 "cosmo_polarized_energy": -16.2, 
			 "cosmo_cavitation_energy": 50.87, 
			 "cosmo_dispersion_energy": -33.37, 
			 "cosmo_repulsion_energy": 2.56, 
			 "cosmo_total_nonelectrostatic_energy": 20.06, 
			 "SMD_solvation_energy": 5.95 
		},
		"coords": [
			{
				"x": -3.7604096383,
				"y": 4.377281696,
				"z": 3.549853791,
				"element": "Cl" 
			},
			{
				"x": -2.6844868551,
				"y": 3.106709722,
				"z": 3.0013108759,
				"element": "C" 
			},
			{
				"x": -1.449687861,
				"y": 3.4380294169,
				"z": 2.4473088579,
				"element": "C" 
			},
			{
				"x": -0.611833244,
				"y": 2.4100596698,
				"z": 2.0202905544,
				"element": "C" 
			},
			{
				"x": -0.9692347923,
				"y": 1.061235182,
				"z": 2.1328529393,
				"element": "C" 
			},
			{
				"x": -0.035962578,
				"y": -0.0162431848,
				"z": 1.6472663733,
				"element": "C" 
			},
			{
				"x": -0.5253519916,
				"y": -0.5112103642,
				"z": 0.3986616263,
				"element": "O" 
			},
			{
				"x": 0.1187406416,
				"y": -1.6910511009,
				"z": -0.0595557405,
				"element": "C" 
			},
			{
				"x": -0.8313678088,
				"y": -2.3303037907,
				"z": -1.0937985095,
				"element": "C" 
			},
			{
				"x": -1.0271709754,
				"y": -1.5398475416,
				"z": -2.2969261729,
				"element": "N" 
			},
			{
				"x": -0.4481695991,
				"y": -1.7564889417,
				"z": -3.5352928764,
				"element": "C" 
			},
			{
				"x": -0.9035669619,
				"y": -0.7424254705,
				"z": -4.338965171,
				"element": "C" 
			},
			{
				"x": -1.7426083996,
				"y": 0.0951672531,
				"z": -3.6369832013,
				"element": "N" 
			},
			{
				"x": -1.7937817592,
				"y": -0.4089479015,
				"z": -2.4225922621,
				"element": "C" 
			},
			{
				"x": 1.5075469046,
				"y": -1.4093089758,
				"z": -0.6175073166,
				"element": "C" 
			},
			{
				"x": 1.781833895,
				"y": -0.1697304696,
				"z": -1.2120504847,
				"element": "C" 
			},
			{
				"x": 3.0305962877,
				"y": 0.1304588956,
				"z": -1.7491781982,
				"element": "C" 
			},
			{
				"x": 4.0371276264,
				"y": -0.8327382241,
				"z": -1.6941905687,
				"element": "C" 
			},
			{
				"x": 5.6212525012,
				"y": -0.477268332,
				"z": -2.3571557242,
				"element": "Cl" 
			},
			{
				"x": 3.8080360719,
				"y": -2.0810451907,
				"z": -1.1201123503,
				"element": "C" 
			},
			{
				"x": 2.5450176587,
				"y": -2.3506053541,
				"z": -0.5932530221,
				"element": "C" 
			},
			{
				"x": 2.2888905704,
				"y": -3.9502754389,
				"z": 0.1076059044,
				"element": "Cl" 
			},
			{
				"x": -2.2228542752,
				"y": 0.7740378343,
				"z": 2.6944068639,
				"element": "C" 
			},
			{
				"x": -2.7547220134,
				"y": -0.8913042805,
				"z": 2.8816229888,
				"element": "Cl" 
			},
			{
				"x": -3.0850643975,
				"y": 1.77769956,
				"z": 3.1319615994,
				"element": "C" 
			},
			{
				"x": -1.1534182629,
				"y": 4.4760564033,
				"z": 2.3514977533,
				"element": "H" 
			},
			{
				"x": 0.3517732287,
				"y": 2.6590759924,
				"z": 1.5848069787,
				"element": "H" 
			},
			{
				"x": 0.9756139773,
				"y": 0.3939793644,
				"z": 1.5296195104,
				"element": "H" 
			},
			{
				"x": 0.0155436309,
				"y": -0.8384117507,
				"z": 2.3747285549,
				"element": "H" 
			},
			{
				"x": 0.2037466323,
				"y": -2.4093566415,
				"z": 0.7682718037,
				"element": "H" 
			},
			{
				"x": -0.4408647143,
				"y": -3.308842803,
				"z": -1.3829378416,
				"element": "H" 
			},
			{
				"x": -1.797765754,
				"y": -2.4805264303,
				"z": -0.6036567387,
				"element": "H" 
			},
			{
				"x": 0.2083969323,
				"y": -2.5941436434,
				"z": -3.7152736609,
				"element": "H" 
			},
			{
				"x": -0.6798633022,
				"y": -0.5719062189,
				"z": -5.3831392309,
				"element": "H" 
			},
			{
				"x": -2.3517967617,
				"y": -0.0105595292,
				"z": -1.5873086371,
				"element": "H" 
			},
			{
				"x": 0.985942723,
				"y": 0.5664566834,
				"z": -1.2481619272,
				"element": "H" 
			},
			{
				"x": 3.2204485652,
				"y": 1.0939082794,
				"z": -2.2080366508,
				"element": "H" 
			},
			{
				"x": 4.5912217719,
				"y": -2.8279092377,
				"z": -1.0810918537,
				"element": "H" 
			},
			{
				"x": -4.0456476738,
				"y": 1.5279948637,
				"z": 3.5650011638,
				"element": "H" 
			}
		],
		 "valence_orbital": [ 
			{
				"type": "occ",
				"energy": -0.26594,
				"method": "rhf"
			},
			{
				"type": "occ",
				"energy": -0.26165,
				"method": "rhf"
			},
			{
				"type": "occ",
				"energy": -0.25774,
				"method": "rhf"
			},
			{
				"type": "occ",
				"energy": -0.25649,
				"method": "rhf"
			},
			{
				"type": "occ",
				"energy": -0.22014,
				"method": "rhf"
			},
			{
				"type": "unocc",
				"energy": -0.04115,
				"method": "rhf"
			},
			{
				"type": "unocc",
				"energy": -0.03533,
				"method": "rhf"
			},
			{
				"type": "unocc",
				"energy": -0.03426,
				"method": "rhf"
			},
			{
				"type": "unocc",
				"energy": -0.0335,
				"method": "rhf"
			},
			{
				"type": "unocc",
				"energy": -0.00388,
				"method": "rhf"
			}
		],
		"cosmo_sigma_profile": { 
			"-0.025": 0.0,
			"-0.024": 0.0,
			"-0.023": 0.0,
			"-0.022": 0.0,
			"-0.021": 0.0,
			"-0.02": 0.0,
			"-0.019": 0.0,
			"-0.018": 0.0,
			"-0.017": 0.0,
			"-0.016": 0.0,
			"-0.015": 0.0,
			"-0.014": 0.0,
			"-0.013": 0.0,
			"-0.012": 0.0,
			"-0.011": 0.0,
			"-0.01": 0.0,
			"-0.009": 0.933445826879,
			"-0.008": 8.59071437896,
			"-0.007": 16.7592523717,
			"-0.006": 22.7292010387,
			"-0.005": 25.3921110804,
			"-0.004": 24.6933617733,
			"-0.003": 26.081619172,
			"-0.002": 22.584594188,
			"-0.001": 28.1844662697,
			"0.0": 36.3357580296,
			"0.001": 47.3776345632,
			"0.002": 45.3184686663,
			"0.003": 34.9714446026,
			"0.004": 39.1946208572,
			"0.005": 14.5472256473,
			"0.006": 5.45916847494,
			"0.007": 3.09729124,
			"0.008": 1.19057837238,
			"0.009": 1.72432008097,
			"0.01": 1.56714225626,
			"0.011": 1.44786734372,
			"0.012": 0.980727250168,
			"0.013": 1.47468990987,
			"0.014": 1.16356030416,
			"0.015": 1.55367562525,
			"0.016": 0.73571354665,
			"0.017": 1.23216773764,
			"0.018": 1.0033300209,
			"0.019": 0.141861782365,
			"0.02": 0.0,
			"0.021": 0.0,
			"0.022": 0.0,
			"0.023": 0.0,
			"0.024": 0.0,
			"0.025": 0.0
		}
	}
}
