{
	 "smiles": "NC1=C2C(=O)N(C3CC3)C(=O)C2=CC=C1", 
	 "Tm": 433.15, 
	 "num_atms": 25, 
	 "gaussian": { 
		 "optdone": 1, 
		 "sigma_profile": "yes", 
		 "theory": "DFT", 
		 "functional": "B3LYP", 
		 "basiset": "6-31G**", 
		 "properties": { 
			 "R2extent": 3770.3175, 
			 "electric_dipole_moment_norm": 3.34592016641, 
			 "electric_quadrupole_moment_norm": 12.8373466452, 
			 "total_energy": -685.156958906, 
			 "HOMO_LUMO_gap": 0.14474, 
			 "cosmo_polarized_energy": -11.69, 
			 "cosmo_cavitation_energy": 28.78, 
			 "cosmo_dispersion_energy": -21.34, 
			 "cosmo_repulsion_energy": 1.64, 
			 "cosmo_total_nonelectrostatic_energy": 9.08, 
			 "SMD_solvation_energy": 5.2 
		},
		"coords": [
			{
				"x": 1.3874820074,
				"y": -1.8457833212,
				"z": 0.2216914999,
				"element": "N" 
			},
			{
				"x": 0.1998969495,
				"y": -1.6342303327,
				"z": 0.8651861702,
				"element": "C" 
			},
			{
				"x": -0.5748464371,
				"y": -0.4961491231,
				"z": 0.6021775619,
				"element": "C" 
			},
			{
				"x": -0.2735240715,
				"y": 0.6436436699,
				"z": -0.2760306709,
				"element": "C" 
			},
			{
				"x": 0.722631564,
				"y": 0.8332570065,
				"z": -0.9632880676,
				"element": "O" 
			},
			{
				"x": -1.3698833926,
				"y": 1.5218105528,
				"z": -0.1776713946,
				"element": "N" 
			},
			{
				"x": -1.4123819613,
				"y": 2.7599024563,
				"z": -0.9170719177,
				"element": "C" 
			},
			{
				"x": -2.0072933368,
				"y": 4.0214863624,
				"z": -0.3492364071,
				"element": "C" 
			},
			{
				"x": -2.6871916719,
				"y": 3.3092944734,
				"z": -1.5006915683,
				"element": "C" 
			},
			{
				"x": -2.3423359078,
				"y": 1.0263982881,
				"z": 0.7079702087,
				"element": "C" 
			},
			{
				"x": -3.3925877254,
				"y": 1.5746410845,
				"z": 0.9904064993,
				"element": "O" 
			},
			{
				"x": -1.8122726494,
				"y": -0.2791188478,
				"z": 1.2112143721,
				"element": "C" 
			},
			{
				"x": -2.3531425552,
				"y": -1.1710953155,
				"z": 2.1180103554,
				"element": "C" 
			},
			{
				"x": -1.584117904,
				"y": -2.3169940959,
				"z": 2.4007638506,
				"element": "C" 
			},
			{
				"x": -0.3500266711,
				"y": -2.5486404492,
				"z": 1.8008527674,
				"element": "C" 
			},
			{
				"x": 2.0361650617,
				"y": -2.523086281,
				"z": 0.5881405809,
				"element": "H" 
			},
			{
				"x": 1.7596977215,
				"y": -1.0767840382,
				"z": -0.3201195093,
				"element": "H" 
			},
			{
				"x": -0.5060750208,
				"y": 2.8472217305,
				"z": -1.5057528169,
				"element": "H" 
			},
			{
				"x": -1.4764296984,
				"y": 4.9502767525,
				"z": -0.535695871,
				"element": "H" 
			},
			{
				"x": -2.5018890124,
				"y": 3.9565210269,
				"z": 0.6126237487,
				"element": "H" 
			},
			{
				"x": -2.6350030746,
				"y": 3.7368234299,
				"z": -2.4975372799,
				"element": "H" 
			},
			{
				"x": -3.6111762813,
				"y": 2.794176321,
				"z": -1.2662195449,
				"element": "H" 
			},
			{
				"x": -3.314113616,
				"y": -0.9933843912,
				"z": 2.5870890269,
				"element": "H" 
			},
			{
				"x": -1.9608849504,
				"y": -3.0489235056,
				"z": 3.1096537172,
				"element": "H" 
			},
			{
				"x": 0.2060026339,
				"y": -3.4498634533,
				"z": 2.045934689,
				"element": "H" 
			}
		],
		 "valence_orbital": [ 
			{
				"type": "occ",
				"energy": -0.28316,
				"method": "rhf"
			},
			{
				"type": "occ",
				"energy": -0.27413,
				"method": "rhf"
			},
			{
				"type": "occ",
				"energy": -0.2635,
				"method": "rhf"
			},
			{
				"type": "occ",
				"energy": -0.24293,
				"method": "rhf"
			},
			{
				"type": "occ",
				"energy": -0.21977,
				"method": "rhf"
			},
			{
				"type": "unocc",
				"energy": -0.07503,
				"method": "rhf"
			},
			{
				"type": "unocc",
				"energy": -0.01646,
				"method": "rhf"
			},
			{
				"type": "unocc",
				"energy": 0.03682,
				"method": "rhf"
			},
			{
				"type": "unocc",
				"energy": 0.07779,
				"method": "rhf"
			},
			{
				"type": "unocc",
				"energy": 0.08251,
				"method": "rhf"
			}
		],
		"cosmo_sigma_profile": { 
			"-0.025": 0.0,
			"-0.024": 0.0,
			"-0.023": 0.0,
			"-0.022": 0.0,
			"-0.021": 0.0,
			"-0.02": 0.0,
			"-0.019": 0.0,
			"-0.018": 0.0,
			"-0.017": 0.0,
			"-0.016": 0.0,
			"-0.015": 0.0147607019562,
			"-0.014": 0.984017005413,
			"-0.013": 1.57415010319,
			"-0.012": 1.23500822505,
			"-0.011": 1.67863671942,
			"-0.01": 2.13914064225,
			"-0.009": 2.91069206741,
			"-0.008": 1.89034378908,
			"-0.007": 5.19199711565,
			"-0.006": 9.31767672483,
			"-0.005": 13.4861986413,
			"-0.004": 16.5686022592,
			"-0.003": 14.4719764535,
			"-0.002": 14.9926190099,
			"-0.001": 20.3149768116,
			"0.0": 18.7070166639,
			"0.001": 19.8476288207,
			"0.002": 21.6691150864,
			"0.003": 19.0944107896,
			"0.004": 9.86587032397,
			"0.005": 5.40746210328,
			"0.006": 4.14818138768,
			"0.007": 3.48095533861,
			"0.008": 3.30768077841,
			"0.009": 4.01583066646,
			"0.01": 4.81123156879,
			"0.011": 5.77394470896,
			"0.012": 3.12242017417,
			"0.013": 0.144317018158,
			"0.014": 0.0,
			"0.015": 0.0,
			"0.016": 0.0,
			"0.017": 0.0,
			"0.018": 0.0,
			"0.019": 0.0,
			"0.02": 0.0,
			"0.021": 0.0,
			"0.022": 0.0,
			"0.023": 0.0,
			"0.024": 0.0,
			"0.025": 0.0
		}
	}
}
