{
	 "smiles": "CSCC(N)C(O)=O", 
	 "Tm": 513.15, 
	 "num_atms": 17, 
	 "gaussian": { 
		 "optdone": 1, 
		 "sigma_profile": "yes", 
		 "theory": "DFT", 
		 "functional": "B3LYP", 
		 "basiset": "6-31G**", 
		 "properties": { 
			 "R2extent": 1513.7833, 
			 "electric_dipole_moment_norm": 2.90423640395, 
			 "electric_quadrupole_moment_norm": 7.57401649853, 
			 "total_energy": -761.240732402, 
			 "HOMO_LUMO_gap": 0.21204, 
			 "cosmo_polarized_energy": -13.42, 
			 "cosmo_cavitation_energy": 21.33, 
			 "cosmo_dispersion_energy": -16.16, 
			 "cosmo_repulsion_energy": 1.32, 
			 "cosmo_total_nonelectrostatic_energy": 6.49, 
			 "SMD_solvation_energy": 4.15 
		},
		"coords": [
			{
				"x": -2.300880891,
				"y": -0.4975145612,
				"z": 1.1608674526,
				"element": "C" 
			},
			{
				"x": -2.3265227723,
				"y": -2.071777043,
				"z": 0.2369083114,
				"element": "S" 
			},
			{
				"x": -1.1928528446,
				"y": -1.7172620357,
				"z": -1.1595506736,
				"element": "C" 
			},
			{
				"x": 0.2277687237,
				"y": -1.2224898505,
				"z": -0.8178902107,
				"element": "C" 
			},
			{
				"x": 0.7516066854,
				"y": -1.7970284341,
				"z": 0.4153108402,
				"element": "N" 
			},
			{
				"x": 0.2847603111,
				"y": 0.3056934127,
				"z": -0.7559311983,
				"element": "C" 
			},
			{
				"x": 1.3997944129,
				"y": 0.7371898016,
				"z": -0.1230383136,
				"element": "O" 
			},
			{
				"x": -0.510251832,
				"y": 1.0668516649,
				"z": -1.2628338794,
				"element": "O" 
			},
			{
				"x": -1.3176404663,
				"y": -0.3434255135,
				"z": 1.6107539368,
				"element": "H" 
			},
			{
				"x": -3.0483806853,
				"y": -0.5933549452,
				"z": 1.9517611126,
				"element": "H" 
			},
			{
				"x": -2.5640302753,
				"y": 0.3434034542,
				"z": 0.5161090366,
				"element": "H" 
			},
			{
				"x": -1.6512402274,
				"y": -0.9975773836,
				"z": -1.8411157149,
				"element": "H" 
			},
			{
				"x": -1.1247483484,
				"y": -2.6772689243,
				"z": -1.6804855264,
				"element": "H" 
			},
			{
				"x": 0.8407136895,
				"y": -1.4594241775,
				"z": -1.7122093893,
				"element": "H" 
			},
			{
				"x": 1.7454802757,
				"y": -1.61022413,
				"z": 0.5007218653,
				"element": "H" 
			},
			{
				"x": 0.6072055718,
				"y": -2.8018256709,
				"z": 0.4238651045,
				"element": "H" 
			},
			{
				"x": 1.3773186725,
				"y": 1.7080343361,
				"z": -0.1645427537,
				"element": "H" 
			}
		],
		 "valence_orbital": [ 
			{
				"type": "occ",
				"energy": -0.32752,
				"method": "rhf"
			},
			{
				"type": "occ",
				"energy": -0.30234,
				"method": "rhf"
			},
			{
				"type": "occ",
				"energy": -0.28898,
				"method": "rhf"
			},
			{
				"type": "occ",
				"energy": -0.24368,
				"method": "rhf"
			},
			{
				"type": "occ",
				"energy": -0.21199,
				"method": "rhf"
			},
			{
				"type": "unocc",
				"energy": 5e-05,
				"method": "rhf"
			},
			{
				"type": "unocc",
				"energy": 0.0467,
				"method": "rhf"
			},
			{
				"type": "unocc",
				"energy": 0.06692,
				"method": "rhf"
			},
			{
				"type": "unocc",
				"energy": 0.0852,
				"method": "rhf"
			},
			{
				"type": "unocc",
				"energy": 0.09393,
				"method": "rhf"
			}
		],
		"cosmo_sigma_profile": { 
			"-0.025": 0.0,
			"-0.024": 0.0,
			"-0.023": 0.0,
			"-0.022": 0.0,
			"-0.021": 0.0,
			"-0.02": 0.0,
			"-0.019": 0.17538623429,
			"-0.018": 0.945015220428,
			"-0.017": 0.393678388795,
			"-0.016": 1.45233229821,
			"-0.015": 0.889507912679,
			"-0.014": 0.284838884516,
			"-0.013": 0.316786839886,
			"-0.012": 0.944808013583,
			"-0.011": 0.911579571628,
			"-0.01": 3.12854292399,
			"-0.009": 1.95061477601,
			"-0.008": 3.27189624791,
			"-0.007": 7.24058480915,
			"-0.006": 12.3456022349,
			"-0.005": 9.84140765101,
			"-0.004": 9.11165003574,
			"-0.003": 12.8366324815,
			"-0.002": 12.3789023911,
			"-0.001": 10.5458743993,
			"0.0": 9.21187142104,
			"0.001": 6.12969585433,
			"0.002": 5.32936817764,
			"0.003": 6.51770420239,
			"0.004": 5.90912184911,
			"0.005": 6.20152748967,
			"0.006": 5.95117432398,
			"0.007": 6.65284144051,
			"0.008": 5.31014585402,
			"0.009": 4.66674664014,
			"0.01": 5.26702815074,
			"0.011": 6.33479842903,
			"0.012": 3.90884527265,
			"0.013": 0.996988640909,
			"0.014": 0.728516800215,
			"0.015": 0.0706697479826,
			"0.016": 0.0,
			"0.017": 0.0,
			"0.018": 0.0,
			"0.019": 0.0,
			"0.02": 0.0,
			"0.021": 0.0,
			"0.022": 0.0,
			"0.023": 0.0,
			"0.024": 0.0,
			"0.025": 0.0
		}
	}
}
