{
	 "smiles": "CC1=NN(CN(CN2N=C(C)C=C2C)CC2=CC=CC=C2)C(C)=C1", 
	 "Tm": 344.15, 
	 "num_atms": 49, 
	 "gaussian": { 
		 "optdone": 1, 
		 "sigma_profile": "yes", 
		 "theory": "DFT", 
		 "functional": "B3LYP", 
		 "basiset": "6-31G**", 
		 "properties": { 
			 "R2extent": 8415.3665, 
			 "electric_dipole_moment_norm": 3.59379752629, 
			 "electric_quadrupole_moment_norm": 7.84954425938, 
			 "total_energy": -1012.8228951, 
			 "HOMO_LUMO_gap": 0.21785, 
			 "cosmo_polarized_energy": -16.01, 
			 "cosmo_cavitation_energy": 50.69, 
			 "cosmo_dispersion_energy": -32.12, 
			 "cosmo_repulsion_energy": 2.5, 
			 "cosmo_total_nonelectrostatic_energy": 21.07, 
			 "SMD_solvation_energy": 6.4 
		},
		"coords": [
			{
				"x": 2.3856709587,
				"y": -1.3311706774,
				"z": -2.4567593623,
				"element": "C" 
			},
			{
				"x": 2.1918534413,
				"y": -0.8933772883,
				"z": -1.0365966981,
				"element": "C" 
			},
			{
				"x": 0.9662904389,
				"y": -0.7034648404,
				"z": -0.5484244245,
				"element": "N" 
			},
			{
				"x": 1.1455905733,
				"y": -0.2878071016,
				"z": 0.7313710429,
				"element": "N" 
			},
			{
				"x": -0.0279525144,
				"y": -0.1133403473,
				"z": 1.6137112485,
				"element": "C" 
			},
			{
				"x": -1.1289813611,
				"y": 0.6549366811,
				"z": 1.114203649,
				"element": "N" 
			},
			{
				"x": -1.0096869054,
				"y": 2.0889680266,
				"z": 1.0168293765,
				"element": "C" 
			},
			{
				"x": -0.5148306583,
				"y": 2.6607926954,
				"z": -0.2422824286,
				"element": "N" 
			},
			{
				"x": -1.390586657,
				"y": 2.7333876476,
				"z": -1.281694734,
				"element": "N" 
			},
			{
				"x": -0.7160543847,
				"y": 3.3087642552,
				"z": -2.2748320539,
				"element": "C" 
			},
			{
				"x": -1.3724232667,
				"y": 3.5480035384,
				"z": -3.6009087534,
				"element": "C" 
			},
			{
				"x": 0.6020321603,
				"y": 3.6283978728,
				"z": -1.8678765732,
				"element": "C" 
			},
			{
				"x": 0.702947659,
				"y": 3.2029190031,
				"z": -0.5560378718,
				"element": "C" 
			},
			{
				"x": 1.8602383283,
				"y": 3.2921440864,
				"z": 0.3880825486,
				"element": "C" 
			},
			{
				"x": -2.0358869619,
				"y": 0.0113843006,
				"z": 0.1436833621,
				"element": "C" 
			},
			{
				"x": -2.6087529127,
				"y": -1.2925993749,
				"z": 0.6629724798,
				"element": "C" 
			},
			{
				"x": -3.4720297895,
				"y": -1.3057162761,
				"z": 1.768539694,
				"element": "C" 
			},
			{
				"x": -4.0186829922,
				"y": -2.5014089242,
				"z": 2.2318320893,
				"element": "C" 
			},
			{
				"x": -3.7070297772,
				"y": -3.7069645485,
				"z": 1.595798771,
				"element": "C" 
			},
			{
				"x": -2.8435769007,
				"y": -3.7068241657,
				"z": 0.5001887061,
				"element": "C" 
			},
			{
				"x": -2.2966658801,
				"y": -2.5062415591,
				"z": 0.03904825,
				"element": "C" 
			},
			{
				"x": 2.4691646644,
				"y": -0.248495896,
				"z": 1.0812670788,
				"element": "C" 
			},
			{
				"x": 2.9664112221,
				"y": 0.1105803014,
				"z": 2.4486668999,
				"element": "C" 
			},
			{
				"x": 3.1722240745,
				"y": -0.6239494724,
				"z": -0.0506537906,
				"element": "C" 
			},
			{
				"x": 2.9275145088,
				"y": -0.5769242283,
				"z": -3.0387495882,
				"element": "H" 
			},
			{
				"x": 1.414660992,
				"y": -1.4935935576,
				"z": -2.9299754162,
				"element": "H" 
			},
			{
				"x": 2.9602577311,
				"y": -2.2624731353,
				"z": -2.5147466382,
				"element": "H" 
			},
			{
				"x": -0.4054553005,
				"y": -1.1082976055,
				"z": 1.8675238336,
				"element": "H" 
			},
			{
				"x": 0.3528584852,
				"y": 0.3501619297,
				"z": 2.5283247746,
				"element": "H" 
			},
			{
				"x": -2.0043840413,
				"y": 2.5253502601,
				"z": 1.1506318737,
				"element": "H" 
			},
			{
				"x": -0.3594561666,
				"y": 2.4439032239,
				"z": 1.8204730433,
				"element": "H" 
			},
			{
				"x": -0.8672828362,
				"y": 2.9980715838,
				"z": -4.4033281346,
				"element": "H" 
			},
			{
				"x": -2.4136490523,
				"y": 3.2195798399,
				"z": -3.5638871853,
				"element": "H" 
			},
			{
				"x": -1.3538786971,
				"y": 4.6095225183,
				"z": -3.8728638666,
				"element": "H" 
			},
			{
				"x": 1.3760534665,
				"y": 4.1141286897,
				"z": -2.4454110942,
				"element": "H" 
			},
			{
				"x": 2.6021074685,
				"y": 3.9863521717,
				"z": -0.0139386862,
				"element": "H" 
			},
			{
				"x": 1.5644340475,
				"y": 3.6662155405,
				"z": 1.3752183171,
				"element": "H" 
			},
			{
				"x": 2.3514331546,
				"y": 2.3232379264,
				"z": 0.5238786279,
				"element": "H" 
			},
			{
				"x": -1.5378323204,
				"y": -0.1536646241,
				"z": -0.8162438853,
				"element": "H" 
			},
			{
				"x": -2.8453432991,
				"y": 0.7256052742,
				"z": -0.038742453,
				"element": "H" 
			},
			{
				"x": -3.712085478,
				"y": -0.3687205847,
				"z": 2.2649035504,
				"element": "H" 
			},
			{
				"x": -4.6914568866,
				"y": -2.4949596106,
				"z": 3.0852176278,
				"element": "H" 
			},
			{
				"x": -4.1348541359,
				"y": -4.6390201092,
				"z": 1.9545166882,
				"element": "H" 
			},
			{
				"x": -2.5920040957,
				"y": -4.640507606,
				"z": 0.0046194303,
				"element": "H" 
			},
			{
				"x": -1.6110235571,
				"y": -2.5037953243,
				"z": -0.8037445536,
				"element": "H" 
			},
			{
				"x": 2.63440828,
				"y": 1.1049747465,
				"z": 2.7693297463,
				"element": "H" 
			},
			{
				"x": 2.6391224458,
				"y": -0.6070933525,
				"z": 3.2102794685,
				"element": "H" 
			},
			{
				"x": 4.058796449,
				"y": 0.114236791,
				"z": 2.4480580172,
				"element": "H" 
			},
			{
				"x": 4.246776279,
				"y": -0.6926086943,
				"z": -0.1463720035,
				"element": "H" 
			}
		],
		 "valence_orbital": [ 
			{
				"type": "occ",
				"energy": -0.2373,
				"method": "rhf"
			},
			{
				"type": "occ",
				"energy": -0.23014,
				"method": "rhf"
			},
			{
				"type": "occ",
				"energy": -0.22426,
				"method": "rhf"
			},
			{
				"type": "occ",
				"energy": -0.22081,
				"method": "rhf"
			},
			{
				"type": "occ",
				"energy": -0.21724,
				"method": "rhf"
			},
			{
				"type": "unocc",
				"energy": 0.00061,
				"method": "rhf"
			},
			{
				"type": "unocc",
				"energy": 0.00695,
				"method": "rhf"
			},
			{
				"type": "unocc",
				"energy": 0.02422,
				"method": "rhf"
			},
			{
				"type": "unocc",
				"energy": 0.03278,
				"method": "rhf"
			},
			{
				"type": "unocc",
				"energy": 0.06783,
				"method": "rhf"
			}
		],
		"cosmo_sigma_profile": { 
			"-0.025": 0.0,
			"-0.024": 0.0,
			"-0.023": 0.0,
			"-0.022": 0.0,
			"-0.021": 0.0,
			"-0.02": 0.0,
			"-0.019": 0.0,
			"-0.018": 0.0,
			"-0.017": 0.0,
			"-0.016": 0.0,
			"-0.015": 0.0,
			"-0.014": 0.0,
			"-0.013": 0.0,
			"-0.012": 0.0,
			"-0.011": 0.0,
			"-0.01": 0.0,
			"-0.009": 0.0501217343774,
			"-0.008": 2.20103650533,
			"-0.007": 5.73232188844,
			"-0.006": 10.0682990618,
			"-0.005": 27.6157088745,
			"-0.004": 39.3224978871,
			"-0.003": 44.2939773219,
			"-0.002": 36.1572363297,
			"-0.001": 41.2255284846,
			"0.0": 38.9544940441,
			"0.001": 26.7194362584,
			"0.002": 19.124754373,
			"0.003": 18.8780561622,
			"0.004": 21.2547149838,
			"0.005": 20.0995010842,
			"0.006": 19.4493735341,
			"0.007": 13.4326318764,
			"0.008": 5.99378722476,
			"0.009": 3.2742356594,
			"0.01": 2.5083740894,
			"0.011": 1.25827148737,
			"0.012": 0.960865631363,
			"0.013": 0.533815134642,
			"0.014": 0.893156164935,
			"0.015": 0.257589661164,
			"0.016": 0.0,
			"0.017": 0.0,
			"0.018": 0.0,
			"0.019": 0.0,
			"0.02": 0.0,
			"0.021": 0.0,
			"0.022": 0.0,
			"0.023": 0.0,
			"0.024": 0.0,
			"0.025": 0.0
		}
	}
}
