{
	 "smiles": "OC(=O)C1=CC(=NC(Cl)=C1)N1CCCC1", 
	 "Tm": 489.15, 
	 "num_atms": 26, 
	 "gaussian": { 
		 "optdone": 1, 
		 "sigma_profile": "yes", 
		 "theory": "DFT", 
		 "functional": "B3LYP", 
		 "basiset": "6-31G**", 
		 "properties": { 
			 "R2extent": 4578.9432, 
			 "electric_dipole_moment_norm": 3.91160055604, 
			 "electric_quadrupole_moment_norm": 18.6638442345, 
			 "total_energy": -1107.85357661, 
			 "HOMO_LUMO_gap": 0.15396, 
			 "cosmo_polarized_energy": -14.9, 
			 "cosmo_cavitation_energy": 31.23, 
			 "cosmo_dispersion_energy": -23.17, 
			 "cosmo_repulsion_energy": 1.84, 
			 "cosmo_total_nonelectrostatic_energy": 9.9, 
			 "SMD_solvation_energy": 4.0 
		},
		"coords": [
			{
				"x": -1.7842586755,
				"y": 0.2071618254,
				"z": 3.9174327161,
				"element": "O" 
			},
			{
				"x": -1.4694749876,
				"y": 0.7457706938,
				"z": 2.7132766775,
				"element": "C" 
			},
			{
				"x": -1.5568067952,
				"y": 1.9365454997,
				"z": 2.5335202258,
				"element": "O" 
			},
			{
				"x": -1.010131764,
				"y": -0.216892925,
				"z": 1.6498472846,
				"element": "C" 
			},
			{
				"x": -0.2503515103,
				"y": 0.2950336325,
				"z": 0.6079288554,
				"element": "C" 
			},
			{
				"x": 0.2008946597,
				"y": -0.5920394023,
				"z": -0.4006433117,
				"element": "C" 
			},
			{
				"x": -0.0977007206,
				"y": -1.9132703068,
				"z": -0.3635576959,
				"element": "N" 
			},
			{
				"x": -0.8323751357,
				"y": -2.3544207437,
				"z": 0.6339952901,
				"element": "C" 
			},
			{
				"x": -1.2103302874,
				"y": -4.0810005893,
				"z": 0.6187424519,
				"element": "Cl" 
			},
			{
				"x": -1.3326615135,
				"y": -1.5840313137,
				"z": 1.6816174314,
				"element": "C" 
			},
			{
				"x": 0.9551574422,
				"y": -0.1718400251,
				"z": -1.4488913624,
				"element": "N" 
			},
			{
				"x": 1.4794594544,
				"y": -1.0868195793,
				"z": -2.471677258,
				"element": "C" 
			},
			{
				"x": 2.5061415745,
				"y": -0.2228196035,
				"z": -3.2171732007,
				"element": "C" 
			},
			{
				"x": 1.929383193,
				"y": 1.1982016813,
				"z": -3.1004806426,
				"element": "C" 
			},
			{
				"x": 1.3274562263,
				"y": 1.2246966611,
				"z": -1.6860917713,
				"element": "C" 
			},
			{
				"x": -1.5270191366,
				"y": -0.7255883195,
				"z": 3.9437325765,
				"element": "H" 
			},
			{
				"x": -0.0182109786,
				"y": 1.3515105841,
				"z": 0.595344428,
				"element": "H" 
			},
			{
				"x": -1.9773522353,
				"y": -2.0280380414,
				"z": 2.4302487919,
				"element": "H" 
			},
			{
				"x": 0.6716324646,
				"y": -1.4273341753,
				"z": -3.1336717738,
				"element": "H" 
			},
			{
				"x": 1.9104378054,
				"y": -1.9760410094,
				"z": -2.0051149416,
				"element": "H" 
			},
			{
				"x": 2.6472904998,
				"y": -0.545260064,
				"z": -4.251914876,
				"element": "H" 
			},
			{
				"x": 3.4778519839,
				"y": -0.2782550586,
				"z": -2.713478938,
				"element": "H" 
			},
			{
				"x": 2.6748978028,
				"y": 1.9837427675,
				"z": -3.247411419,
				"element": "H" 
			},
			{
				"x": 1.1371660829,
				"y": 1.3452984267,
				"z": -3.8428185283,
				"element": "H" 
			},
			{
				"x": 2.0612897919,
				"y": 1.5662316724,
				"z": -0.9407700218,
				"element": "H" 
			},
			{
				"x": 0.4547147585,
				"y": 1.8842577122,
				"z": -1.6174909879,
				"element": "H" 
			}
		],
		 "valence_orbital": [ 
			{
				"type": "occ",
				"energy": -0.30859,
				"method": "rhf"
			},
			{
				"type": "occ",
				"energy": -0.28574,
				"method": "rhf"
			},
			{
				"type": "occ",
				"energy": -0.28125,
				"method": "rhf"
			},
			{
				"type": "occ",
				"energy": -0.27654,
				"method": "rhf"
			},
			{
				"type": "occ",
				"energy": -0.21626,
				"method": "rhf"
			},
			{
				"type": "unocc",
				"energy": -0.0623,
				"method": "rhf"
			},
			{
				"type": "unocc",
				"energy": -0.0168,
				"method": "rhf"
			},
			{
				"type": "unocc",
				"energy": 0.02977,
				"method": "rhf"
			},
			{
				"type": "unocc",
				"energy": 0.0422,
				"method": "rhf"
			},
			{
				"type": "unocc",
				"energy": 0.06689,
				"method": "rhf"
			}
		],
		"cosmo_sigma_profile": { 
			"-0.025": 0.0,
			"-0.024": 0.0,
			"-0.023": 0.0,
			"-0.022": 0.0,
			"-0.021": 0.0,
			"-0.02": 0.0,
			"-0.019": 0.433158387967,
			"-0.018": 0.974911209662,
			"-0.017": 0.918717142252,
			"-0.016": 0.834639111444,
			"-0.015": 1.26395029787,
			"-0.014": 1.17476039064,
			"-0.013": 0.889141110251,
			"-0.012": 1.21415068958,
			"-0.011": 1.07576881287,
			"-0.01": 1.54518093858,
			"-0.009": 1.27888240975,
			"-0.008": 1.16156756168,
			"-0.007": 1.95369891387,
			"-0.006": 5.11590731308,
			"-0.005": 7.80102556055,
			"-0.004": 21.8744689272,
			"-0.003": 31.5065674928,
			"-0.002": 25.4764908459,
			"-0.001": 19.6705636049,
			"0.0": 24.1937685435,
			"0.001": 19.7221304388,
			"0.002": 12.2418731112,
			"0.003": 9.51287098873,
			"0.004": 12.2551656548,
			"0.005": 9.17695831445,
			"0.006": 5.10142981289,
			"0.007": 5.11676582363,
			"0.008": 4.64353948202,
			"0.009": 5.33397562971,
			"0.01": 6.37824599687,
			"0.011": 6.17725729865,
			"0.012": 3.51339017984,
			"0.013": 0.389854767006,
			"0.014": 0.0,
			"0.015": 0.0,
			"0.016": 0.0,
			"0.017": 0.0,
			"0.018": 0.0,
			"0.019": 0.0,
			"0.02": 0.0,
			"0.021": 0.0,
			"0.022": 0.0,
			"0.023": 0.0,
			"0.024": 0.0,
			"0.025": 0.0
		}
	}
}
