{
	 "smiles": "CC(C)C(O)C(C)C", 
	 "Tm": 203.15, 
	 "num_atms": 24, 
	 "gaussian": { 
		 "optdone": 1, 
		 "sigma_profile": "yes", 
		 "theory": "DFT", 
		 "functional": "B3LYP", 
		 "basiset": "6-31G**", 
		 "properties": { 
			 "R2extent": 1599.7862, 
			 "electric_dipole_moment_norm": 1.49714353687, 
			 "electric_quadrupole_moment_norm": 5.6789368019, 
			 "total_energy": -351.621939552, 
			 "HOMO_LUMO_gap": 0.32338, 
			 "cosmo_polarized_energy": -5.29, 
			 "cosmo_cavitation_energy": 24.05, 
			 "cosmo_dispersion_energy": -17.21, 
			 "cosmo_repulsion_energy": 1.42, 
			 "cosmo_total_nonelectrostatic_energy": 8.26, 
			 "SMD_solvation_energy": 4.45 
		},
		"coords": [
			{
				"x": -1.6412752139,
				"y": -0.3265481499,
				"z": -2.929257392,
				"element": "C" 
			},
			{
				"x": -0.8572687746,
				"y": -0.174858392,
				"z": -1.6128388999,
				"element": "C" 
			},
			{
				"x": -1.4084096895,
				"y": 1.0202375822,
				"z": -0.8163625459,
				"element": "C" 
			},
			{
				"x": 0.6559982901,
				"y": -0.0890653994,
				"z": -1.9231696614,
				"element": "C" 
			},
			{
				"x": 0.8963728274,
				"y": 1.2153669755,
				"z": -2.4589724616,
				"element": "O" 
			},
			{
				"x": 1.6677578536,
				"y": -0.4183321515,
				"z": -0.7927519627,
				"element": "C" 
			},
			{
				"x": 1.535605929,
				"y": -1.8673056352,
				"z": -0.3020031866,
				"element": "C" 
			},
			{
				"x": 1.689974207,
				"y": 0.5758727843,
				"z": 0.3770464652,
				"element": "C" 
			},
			{
				"x": -1.4697684247,
				"y": 0.5401105024,
				"z": -3.5755658909,
				"element": "H" 
			},
			{
				"x": -2.7171640176,
				"y": -0.4025100215,
				"z": -2.7395862243,
				"element": "H" 
			},
			{
				"x": -1.3342437375,
				"y": -1.223433553,
				"z": -3.4789679519,
				"element": "H" 
			},
			{
				"x": -1.0128255802,
				"y": -1.0887706653,
				"z": -1.0242305815,
				"element": "H" 
			},
			{
				"x": -2.4919215001,
				"y": 0.9172412271,
				"z": -0.6921805572,
				"element": "H" 
			},
			{
				"x": -1.2141707644,
				"y": 1.9557334887,
				"z": -1.3473739153,
				"element": "H" 
			},
			{
				"x": -0.9692808369,
				"y": 1.1031078385,
				"z": 0.1796305663,
				"element": "H" 
			},
			{
				"x": 0.8475564883,
				"y": -0.842788223,
				"z": -2.7077281068,
				"element": "H" 
			},
			{
				"x": 1.8088996863,
				"y": 1.2423195222,
				"z": -2.7740011876,
				"element": "H" 
			},
			{
				"x": 2.650416397,
				"y": -0.3419347084,
				"z": -1.2889805301,
				"element": "H" 
			},
			{
				"x": 0.6118693638,
				"y": -2.0155228818,
				"z": 0.2679715366,
				"element": "H" 
			},
			{
				"x": 2.3700566025,
				"y": -2.1301865088,
				"z": 0.3565683042,
				"element": "H" 
			},
			{
				"x": 1.5325245127,
				"y": -2.579190192,
				"z": -1.1355041779,
				"element": "H" 
			},
			{
				"x": 0.844944332,
				"y": 0.4241068854,
				"z": 1.0558106329,
				"element": "H" 
			},
			{
				"x": 2.6046032497,
				"y": 0.4492192211,
				"z": 0.9667657079,
				"element": "H" 
			},
			{
				"x": 1.6562487999,
				"y": 1.6063304543,
				"z": 0.0131820204,
				"element": "H" 
			}
		],
		 "valence_orbital": [ 
			{
				"type": "occ",
				"energy": -0.3286,
				"method": "rhf"
			},
			{
				"type": "occ",
				"energy": -0.31974,
				"method": "rhf"
			},
			{
				"type": "occ",
				"energy": -0.31561,
				"method": "rhf"
			},
			{
				"type": "occ",
				"energy": -0.29508,
				"method": "rhf"
			},
			{
				"type": "occ",
				"energy": -0.25786,
				"method": "rhf"
			},
			{
				"type": "unocc",
				"energy": 0.06552,
				"method": "rhf"
			},
			{
				"type": "unocc",
				"energy": 0.0957,
				"method": "rhf"
			},
			{
				"type": "unocc",
				"energy": 0.11417,
				"method": "rhf"
			},
			{
				"type": "unocc",
				"energy": 0.12765,
				"method": "rhf"
			},
			{
				"type": "unocc",
				"energy": 0.13821,
				"method": "rhf"
			}
		],
		"cosmo_sigma_profile": { 
			"-0.025": 0.0,
			"-0.024": 0.0,
			"-0.023": 0.0,
			"-0.022": 0.0,
			"-0.021": 0.0,
			"-0.02": 0.0,
			"-0.019": 0.0,
			"-0.018": 0.0,
			"-0.017": 0.0,
			"-0.016": 0.0,
			"-0.015": 0.253340633599,
			"-0.014": 0.816289076625,
			"-0.013": 1.11390473925,
			"-0.012": 1.18063443778,
			"-0.011": 0.440087737245,
			"-0.01": 1.04751716768,
			"-0.009": 1.22416849982,
			"-0.008": 0.999269248939,
			"-0.007": 1.0446580879,
			"-0.006": 0.399825168644,
			"-0.005": 1.74119326919,
			"-0.004": 1.7501437802,
			"-0.003": 9.55476416273,
			"-0.002": 30.1297284898,
			"-0.001": 29.308604532,
			"0.0": 29.3316881817,
			"0.001": 28.8374200975,
			"0.002": 23.7346592154,
			"0.003": 4.9852472766,
			"0.004": 1.46624751707,
			"0.005": 1.53927364886,
			"0.006": 1.93452408968,
			"0.007": 1.75513019241,
			"0.008": 2.58987522499,
			"0.009": 1.42823569177,
			"0.01": 1.1130808431,
			"0.011": 1.51049868084,
			"0.012": 1.74444549221,
			"0.013": 0.909121451512,
			"0.014": 0.0334457370455,
			"0.015": 0.0,
			"0.016": 0.0,
			"0.017": 0.0,
			"0.018": 0.0,
			"0.019": 0.0,
			"0.02": 0.0,
			"0.021": 0.0,
			"0.022": 0.0,
			"0.023": 0.0,
			"0.024": 0.0,
			"0.025": 0.0
		}
	}
}
