{
	 "smiles": "OC(=O)C=CC1=CC=C(OCC2=CN3C=CC=CC3=N2)C=C1", 
	 "Tm": 464.15, 
	 "num_atms": 36, 
	 "gaussian": { 
		 "optdone": 1, 
		 "sigma_profile": "yes", 
		 "theory": "DFT", 
		 "functional": "B3LYP", 
		 "basiset": "6-31G**", 
		 "properties": { 
			 "R2extent": 15676.2114, 
			 "electric_dipole_moment_norm": 7.41923067171, 
			 "electric_quadrupole_moment_norm": 46.564501703, 
			 "total_energy": -991.4020222, 
			 "HOMO_LUMO_gap": 0.15331, 
			 "cosmo_polarized_energy": -24.34, 
			 "cosmo_cavitation_energy": 42.33, 
			 "cosmo_dispersion_energy": -30.75, 
			 "cosmo_repulsion_energy": 2.3, 
			 "cosmo_total_nonelectrostatic_energy": 13.88, 
			 "SMD_solvation_energy": 7.16 
		},
		"coords": [
			{
				"x": 1.7912270423,
				"y": -2.5668369144,
				"z": -8.6217238825,
				"element": "O" 
			},
			{
				"x": 2.4900543146,
				"y": -2.7347659617,
				"z": -7.4609860197,
				"element": "C" 
			},
			{
				"x": 3.5279996871,
				"y": -3.3591522017,
				"z": -7.4755904622,
				"element": "O" 
			},
			{
				"x": 1.8904779215,
				"y": -2.1158262813,
				"z": -6.2550392158,
				"element": "C" 
			},
			{
				"x": 2.5137921152,
				"y": -2.2328535982,
				"z": -5.0658920155,
				"element": "C" 
			},
			{
				"x": 2.1041298243,
				"y": -1.708097808,
				"z": -3.7693814877,
				"element": "C" 
			},
			{
				"x": 0.930428029,
				"y": -0.9611353037,
				"z": -3.5649671276,
				"element": "C" 
			},
			{
				"x": 0.5790193743,
				"y": -0.4797097829,
				"z": -2.3081376764,
				"element": "C" 
			},
			{
				"x": 1.4100482248,
				"y": -0.73979829,
				"z": -1.2064229994,
				"element": "C" 
			},
			{
				"x": 1.1635928326,
				"y": -0.3186595426,
				"z": 0.0616295306,
				"element": "O" 
			},
			{
				"x": -0.014812361,
				"y": 0.4423005314,
				"z": 0.3172953086,
				"element": "C" 
			},
			{
				"x": -0.0490540599,
				"y": 0.7774820438,
				"z": 1.7750263046,
				"element": "C" 
			},
			{
				"x": 0.8722735854,
				"y": 0.4337877412,
				"z": 2.7437397474,
				"element": "C" 
			},
			{
				"x": 0.3840315564,
				"y": 0.9791439078,
				"z": 3.9140225958,
				"element": "N" 
			},
			{
				"x": 0.8746350428,
				"y": 0.9616227409,
				"z": 5.1968823127,
				"element": "C" 
			},
			{
				"x": 0.1777108072,
				"y": 1.5936338255,
				"z": 6.1882652406,
				"element": "C" 
			},
			{
				"x": -1.0443265818,
				"y": 2.263419865,
				"z": 5.8945606332,
				"element": "C" 
			},
			{
				"x": -1.5358607762,
				"y": 2.281472322,
				"z": 4.6114339104,
				"element": "C" 
			},
			{
				"x": -0.8206965436,
				"y": 1.6298749516,
				"z": 3.5800653515,
				"element": "C" 
			},
			{
				"x": -1.0838504344,
				"y": 1.5074206244,
				"z": 2.2808042388,
				"element": "N" 
			},
			{
				"x": 2.5865018122,
				"y": -1.4834090192,
				"z": -1.3872516498,
				"element": "C" 
			},
			{
				"x": 2.9211319936,
				"y": -1.9552739144,
				"z": -2.6461092236,
				"element": "C" 
			},
			{
				"x": 0.989481842,
				"y": -2.0518565517,
				"z": -8.4572110247,
				"element": "H" 
			},
			{
				"x": 0.9514124607,
				"y": -1.5752077063,
				"z": -6.3563294953,
				"element": "H" 
			},
			{
				"x": 3.4468064056,
				"y": -2.7950156376,
				"z": -5.0818240734,
				"element": "H" 
			},
			{
				"x": 0.2723283889,
				"y": -0.7474642706,
				"z": -4.4017411945,
				"element": "H" 
			},
			{
				"x": -0.3341138199,
				"y": 0.0916470483,
				"z": -2.1940801237,
				"element": "H" 
			},
			{
				"x": -0.9111916879,
				"y": -0.131160881,
				"z": 0.0422344893,
				"element": "H" 
			},
			{
				"x": -0.0154380431,
				"y": 1.3645224849,
				"z": -0.2806217145,
				"element": "H" 
			},
			{
				"x": 1.7911883799,
				"y": -0.1266364062,
				"z": 2.7015564067,
				"element": "H" 
			},
			{
				"x": 1.8085389325,
				"y": 0.4345102714,
				"z": 5.350497521,
				"element": "H" 
			},
			{
				"x": 0.5693797829,
				"y": 1.5766861373,
				"z": 7.19875629,
				"element": "H" 
			},
			{
				"x": -1.5855430672,
				"y": 2.7603387951,
				"z": 6.6928744493,
				"element": "H" 
			},
			{
				"x": -2.4617502494,
				"y": 2.7806000022,
				"z": 4.3502342699,
				"element": "H" 
			},
			{
				"x": 3.2172487824,
				"y": -1.6753836161,
				"z": -0.5257393695,
				"element": "H" 
			},
			{
				"x": 3.8344984861,
				"y": -2.529919605,
				"z": -2.7741298448,
				"element": "H" 
			}
		],
		 "valence_orbital": [ 
			{
				"type": "occ",
				"energy": -0.26736,
				"method": "rhf"
			},
			{
				"type": "occ",
				"energy": -0.26173,
				"method": "rhf"
			},
			{
				"type": "occ",
				"energy": -0.24583,
				"method": "rhf"
			},
			{
				"type": "occ",
				"energy": -0.22172,
				"method": "rhf"
			},
			{
				"type": "occ",
				"energy": -0.21604,
				"method": "rhf"
			},
			{
				"type": "unocc",
				"energy": -0.06273,
				"method": "rhf"
			},
			{
				"type": "unocc",
				"energy": -0.03916,
				"method": "rhf"
			},
			{
				"type": "unocc",
				"energy": -0.01497,
				"method": "rhf"
			},
			{
				"type": "unocc",
				"energy": -0.001,
				"method": "rhf"
			},
			{
				"type": "unocc",
				"energy": 0.02767,
				"method": "rhf"
			}
		],
		"cosmo_sigma_profile": { 
			"-0.025": 0.0,
			"-0.024": 0.0,
			"-0.023": 0.0,
			"-0.022": 0.0,
			"-0.021": 0.0,
			"-0.02": 0.0,
			"-0.019": 0.351485578119,
			"-0.018": 1.3108278542,
			"-0.017": 1.11855126034,
			"-0.016": 1.054835303,
			"-0.015": 0.910669207261,
			"-0.014": 1.42846879538,
			"-0.013": 0.497470574706,
			"-0.012": 0.854957996001,
			"-0.011": 1.79072160508,
			"-0.01": 1.38260095186,
			"-0.009": 5.53673838162,
			"-0.008": 6.60639104016,
			"-0.007": 18.890354703,
			"-0.006": 24.7611827586,
			"-0.005": 20.5625154364,
			"-0.004": 17.7528345151,
			"-0.003": 14.7091517346,
			"-0.002": 16.3366317256,
			"-0.001": 16.601497633,
			"0.0": 20.6670973658,
			"0.001": 23.1867627797,
			"0.002": 30.0444765285,
			"0.003": 35.1643071234,
			"0.004": 25.8019650736,
			"0.005": 6.93509025485,
			"0.006": 5.91918700159,
			"0.007": 4.69396858746,
			"0.008": 3.70779974657,
			"0.009": 2.94008453478,
			"0.01": 5.12221911533,
			"0.011": 5.81700482929,
			"0.012": 6.98043586065,
			"0.013": 5.40388701856,
			"0.014": 1.87830730062,
			"0.015": 1.31082300065,
			"0.016": 0.729778236653,
			"0.017": 0.722399000629,
			"0.018": 0.333742270398,
			"0.019": 0.0,
			"0.02": 0.0,
			"0.021": 0.0,
			"0.022": 0.0,
			"0.023": 0.0,
			"0.024": 0.0,
			"0.025": 0.0
		}
	}
}
