{
	 "smiles": "O=CC1=CC2=CC=CC=C2C=C1", 
	 "Tm": 334.65, 
	 "num_atms": 20, 
	 "gaussian": { 
		 "optdone": 1, 
		 "sigma_profile": "yes", 
		 "theory": "DFT", 
		 "functional": "B3LYP", 
		 "basiset": "6-31G**", 
		 "properties": { 
			 "R2extent": 2202.5898, 
			 "electric_dipole_moment_norm": 3.499591349, 
			 "electric_quadrupole_moment_norm": 10.5803947507, 
			 "total_energy": -499.219179154, 
			 "HOMO_LUMO_gap": 0.15614, 
			 "cosmo_polarized_energy": -8.24, 
			 "cosmo_cavitation_energy": 24.36, 
			 "cosmo_dispersion_energy": -17.96, 
			 "cosmo_repulsion_energy": 1.39, 
			 "cosmo_total_nonelectrostatic_energy": 7.79, 
			 "SMD_solvation_energy": 4.95 
		},
		"coords": [
			{
				"x": 1.7215951734,
				"y": 3.3819456152,
				"z": 1.0549587928,
				"element": "O" 
			},
			{
				"x": 0.6753932455,
				"y": 2.8052961325,
				"z": 1.2864372159,
				"element": "C" 
			},
			{
				"x": 0.3080534431,
				"y": 1.4742243491,
				"z": 0.7529632378,
				"element": "C" 
			},
			{
				"x": 1.1832141418,
				"y": 0.7911356075,
				"z": -0.0743451077,
				"element": "C" 
			},
			{
				"x": 0.849505823,
				"y": -0.4812832869,
				"z": -0.5934000701,
				"element": "C" 
			},
			{
				"x": 1.7298592102,
				"y": -1.2053329776,
				"z": -1.4457148354,
				"element": "C" 
			},
			{
				"x": 1.3761862877,
				"y": -2.4411543056,
				"z": -1.9344910738,
				"element": "C" 
			},
			{
				"x": 0.1235596942,
				"y": -3.0122429911,
				"z": -1.5935646082,
				"element": "C" 
			},
			{
				"x": -0.7514684586,
				"y": -2.3385863868,
				"z": -0.7714510446,
				"element": "C" 
			},
			{
				"x": -0.4189275517,
				"y": -1.0604115346,
				"z": -0.2486244093,
				"element": "C" 
			},
			{
				"x": -1.2988448779,
				"y": -0.336693534,
				"z": 0.6032888316,
				"element": "C" 
			},
			{
				"x": -0.9460852283,
				"y": 0.8980024189,
				"z": 1.0919073469,
				"element": "C" 
			},
			{
				"x": -0.0972326053,
				"y": 3.2694851603,
				"z": 1.9403580934,
				"element": "H" 
			},
			{
				"x": 2.1362673749,
				"y": 1.251917689,
				"z": -0.3194734969,
				"element": "H" 
			},
			{
				"x": 2.6878637253,
				"y": -0.7612164967,
				"z": -1.7024769179,
				"element": "H" 
			},
			{
				"x": 2.0544282664,
				"y": -2.986198928,
				"z": -2.5841949136,
				"element": "H" 
			},
			{
				"x": -0.1430889046,
				"y": -3.9890509225,
				"z": -1.9866065482,
				"element": "H" 
			},
			{
				"x": -1.7112043295,
				"y": -2.7770196174,
				"z": -0.5106920643,
				"element": "H" 
			},
			{
				"x": -2.25733199,
				"y": -0.7794591201,
				"z": 0.8610498186,
				"element": "H" 
			},
			{
				"x": -1.6221424396,
				"y": 1.4474431287,
				"z": 1.7428717529,
				"element": "H" 
			}
		],
		 "valence_orbital": [ 
			{
				"type": "occ",
				"energy": -0.33164,
				"method": "rhf"
			},
			{
				"type": "occ",
				"energy": -0.29535,
				"method": "rhf"
			},
			{
				"type": "occ",
				"energy": -0.25599,
				"method": "rhf"
			},
			{
				"type": "occ",
				"energy": -0.25336,
				"method": "rhf"
			},
			{
				"type": "occ",
				"energy": -0.22751,
				"method": "rhf"
			},
			{
				"type": "unocc",
				"energy": -0.07137,
				"method": "rhf"
			},
			{
				"type": "unocc",
				"energy": -0.03606,
				"method": "rhf"
			},
			{
				"type": "unocc",
				"energy": 0.00935,
				"method": "rhf"
			},
			{
				"type": "unocc",
				"energy": 0.03221,
				"method": "rhf"
			},
			{
				"type": "unocc",
				"energy": 0.09014,
				"method": "rhf"
			}
		],
		"cosmo_sigma_profile": { 
			"-0.025": 0.0,
			"-0.024": 0.0,
			"-0.023": 0.0,
			"-0.022": 0.0,
			"-0.021": 0.0,
			"-0.02": 0.0,
			"-0.019": 0.0,
			"-0.018": 0.0,
			"-0.017": 0.0,
			"-0.016": 0.0,
			"-0.015": 0.0,
			"-0.014": 0.0,
			"-0.013": 0.0,
			"-0.012": 0.0,
			"-0.011": 0.0,
			"-0.01": 0.0,
			"-0.009": 0.0,
			"-0.008": 0.325056812213,
			"-0.007": 6.76052828329,
			"-0.006": 19.0273495871,
			"-0.005": 16.4162615982,
			"-0.004": 15.5498002721,
			"-0.003": 12.3167161697,
			"-0.002": 11.8064994296,
			"-0.001": 8.83862511064,
			"0.0": 11.8613405115,
			"0.001": 12.3404988446,
			"0.002": 20.3284662811,
			"0.003": 24.6627943654,
			"0.004": 14.2043131043,
			"0.005": 3.97323887261,
			"0.006": 1.51328409273,
			"0.007": 1.5210621542,
			"0.008": 1.89241398523,
			"0.009": 1.66535347766,
			"0.01": 2.59022292785,
			"0.011": 4.10640344671,
			"0.012": 3.32618978664,
			"0.013": 0.951454683152,
			"0.014": 0.00216759439919,
			"0.015": 0.0,
			"0.016": 0.0,
			"0.017": 0.0,
			"0.018": 0.0,
			"0.019": 0.0,
			"0.02": 0.0,
			"0.021": 0.0,
			"0.022": 0.0,
			"0.023": 0.0,
			"0.024": 0.0,
			"0.025": 0.0
		}
	}
}
