{
	 "smiles": "C=CCC1(CC=C)C(=O)NC(=O)NC1=O", 
	 "Tm": 445.15, 
	 "num_atms": 27, 
	 "gaussian": { 
		 "optdone": 1, 
		 "sigma_profile": "yes", 
		 "theory": "DFT", 
		 "functional": "B3LYP", 
		 "basiset": "6-31G**", 
		 "properties": { 
			 "R2extent": 3313.8473, 
			 "electric_dipole_moment_norm": 1.0310878818, 
			 "electric_quadrupole_moment_norm": 8.10786150782, 
			 "total_energy": -723.475796095, 
			 "HOMO_LUMO_gap": 0.21299, 
			 "cosmo_polarized_energy": -16.66, 
			 "cosmo_cavitation_energy": 31.35, 
			 "cosmo_dispersion_energy": -21.0, 
			 "cosmo_repulsion_energy": 1.66, 
			 "cosmo_total_nonelectrostatic_energy": 12.0, 
			 "SMD_solvation_energy": 8.3 
		},
		"coords": [
			{
				"x": 3.5318992547,
				"y": -1.5445654568,
				"z": -1.3217810942,
				"element": "C" 
			},
			{
				"x": 2.7627552703,
				"y": -0.5783913101,
				"z": -1.8251562882,
				"element": "C" 
			},
			{
				"x": 1.32013545,
				"y": -0.7577646549,
				"z": -2.2244335453,
				"element": "C" 
			},
			{
				"x": 0.3197882832,
				"y": -0.0753825737,
				"z": -1.2525107416,
				"element": "C" 
			},
			{
				"x": -1.1708536457,
				"y": -0.2713523012,
				"z": -1.7400592235,
				"element": "C" 
			},
			{
				"x": -1.5257620662,
				"y": 0.3840295507,
				"z": -3.0446837298,
				"element": "C" 
			},
			{
				"x": -2.516152953,
				"y": 1.2649249069,
				"z": -3.1871652573,
				"element": "C" 
			},
			{
				"x": 0.3762158491,
				"y": -0.7872468816,
				"z": 0.1034535199,
				"element": "C" 
			},
			{
				"x": 0.4065746603,
				"y": -1.9982114018,
				"z": 0.2081611519,
				"element": "O" 
			},
			{
				"x": 0.300759113,
				"y": 0.0178455095,
				"z": 1.2333026508,
				"element": "N" 
			},
			{
				"x": 0.3282595428,
				"y": 1.4068658491,
				"z": 1.2961709804,
				"element": "C" 
			},
			{
				"x": 0.2736307633,
				"y": 2.0199342505,
				"z": 2.3422517962,
				"element": "O" 
			},
			{
				"x": 0.4334215197,
				"y": 2.0307142594,
				"z": 0.0581021045,
				"element": "N" 
			},
			{
				"x": 0.6042283631,
				"y": 1.4245774823,
				"z": -1.1831877886,
				"element": "C" 
			},
			{
				"x": 0.9085234758,
				"y": 2.0859118251,
				"z": -2.1564758609,
				"element": "O" 
			},
			{
				"x": 4.5683772908,
				"y": -1.363011272,
				"z": -1.052262173,
				"element": "H" 
			},
			{
				"x": 3.1519284272,
				"y": -2.5503749833,
				"z": -1.1622915287,
				"element": "H" 
			},
			{
				"x": 3.1760256161,
				"y": 0.4190730741,
				"z": -1.9690866493,
				"element": "H" 
			},
			{
				"x": 1.0663546119,
				"y": -1.8201799333,
				"z": -2.2583079597,
				"element": "H" 
			},
			{
				"x": 1.1633947513,
				"y": -0.3277710512,
				"z": -3.2174940155,
				"element": "H" 
			},
			{
				"x": -1.3104690455,
				"y": -1.3576706564,
				"z": -1.8058603657,
				"element": "H" 
			},
			{
				"x": -1.8485923425,
				"y": 0.0898975791,
				"z": -0.9575237626,
				"element": "H" 
			},
			{
				"x": -0.949785631,
				"y": 0.0870998816,
				"z": -3.918573504,
				"element": "H" 
			},
			{
				"x": -3.1214929793,
				"y": 1.5879668689,
				"z": -2.3431749161,
				"element": "H" 
			},
			{
				"x": -2.7609326619,
				"y": 1.6938857547,
				"z": -4.1538382872,
				"element": "H" 
			},
			{
				"x": 0.2735646256,
				"y": -0.4562919473,
				"z": 2.12855246,
				"element": "H" 
			},
			{
				"x": 0.5552044569,
				"y": 3.0363876316,
				"z": 0.0906720276,
				"element": "H" 
			}
		],
		 "valence_orbital": [ 
			{
				"type": "occ",
				"energy": -0.30304,
				"method": "rhf"
			},
			{
				"type": "occ",
				"energy": -0.30217,
				"method": "rhf"
			},
			{
				"type": "occ",
				"energy": -0.26886,
				"method": "rhf"
			},
			{
				"type": "occ",
				"energy": -0.26545,
				"method": "rhf"
			},
			{
				"type": "occ",
				"energy": -0.26261,
				"method": "rhf"
			},
			{
				"type": "unocc",
				"energy": -0.04962,
				"method": "rhf"
			},
			{
				"type": "unocc",
				"energy": -0.00831,
				"method": "rhf"
			},
			{
				"type": "unocc",
				"energy": 0.00402,
				"method": "rhf"
			},
			{
				"type": "unocc",
				"energy": 0.01465,
				"method": "rhf"
			},
			{
				"type": "unocc",
				"energy": 0.05376,
				"method": "rhf"
			}
		],
		"cosmo_sigma_profile": { 
			"-0.025": 0.0,
			"-0.024": 0.0,
			"-0.023": 0.0,
			"-0.022": 0.0,
			"-0.021": 0.0,
			"-0.02": 0.0,
			"-0.019": 0.0,
			"-0.018": 0.0,
			"-0.017": 0.482190566507,
			"-0.016": 1.54466677445,
			"-0.015": 2.54688478991,
			"-0.014": 0.926087545676,
			"-0.013": 1.61967990113,
			"-0.012": 1.69365898335,
			"-0.011": 2.03870875207,
			"-0.01": 1.60154605218,
			"-0.009": 1.96305876998,
			"-0.008": 3.34434291048,
			"-0.007": 4.25608980185,
			"-0.006": 9.78388354646,
			"-0.005": 19.0232435455,
			"-0.004": 22.1384673717,
			"-0.003": 22.7607185855,
			"-0.002": 20.5398342312,
			"-0.001": 16.7940074371,
			"0.0": 13.2026577876,
			"0.001": 12.3766697772,
			"0.002": 10.5228290421,
			"0.003": 11.5911946738,
			"0.004": 10.0821062861,
			"0.005": 9.25032486411,
			"0.006": 6.36166964367,
			"0.007": 4.27357648515,
			"0.008": 4.05177079453,
			"0.009": 4.57692326392,
			"0.01": 7.51101172389,
			"0.011": 13.5797485253,
			"0.012": 7.12517392778,
			"0.013": 0.000997514861881,
			"0.014": 0.0,
			"0.015": 0.0,
			"0.016": 0.0,
			"0.017": 0.0,
			"0.018": 0.0,
			"0.019": 0.0,
			"0.02": 0.0,
			"0.021": 0.0,
			"0.022": 0.0,
			"0.023": 0.0,
			"0.024": 0.0,
			"0.025": 0.0
		}
	}
}
