{
	 "smiles": "CC(C)=CCCC(C)=C/CO", 
	 "Tm": 323.15, 
	 "num_atms": 29, 
	 "gaussian": { 
		 "optdone": 1, 
		 "sigma_profile": "yes", 
		 "theory": "DFT", 
		 "functional": "B3LYP", 
		 "basiset": "6-31G**", 
		 "properties": { 
			 "R2extent": 2433.0579, 
			 "electric_dipole_moment_norm": 2.34859290001, 
			 "electric_quadrupole_moment_norm": 5.78392252887, 
			 "total_energy": -467.107327103, 
			 "HOMO_LUMO_gap": 0.24671, 
			 "cosmo_polarized_energy": -6.41, 
			 "cosmo_cavitation_energy": 29.81, 
			 "cosmo_dispersion_energy": -20.44, 
			 "cosmo_repulsion_energy": 1.65, 
			 "cosmo_total_nonelectrostatic_energy": 11.03, 
			 "SMD_solvation_energy": 5.0 
		},
		"coords": [
			{
				"x": 0.9261202963,
				"y": -2.1284216436,
				"z": 3.1151677817,
				"element": "C" 
			},
			{
				"x": 1.2142248573,
				"y": -2.1461101874,
				"z": 1.6336571382,
				"element": "C" 
			},
			{
				"x": 1.1531959939,
				"y": -3.5177053759,
				"z": 1.0010927989,
				"element": "C" 
			},
			{
				"x": 1.5166276038,
				"y": -1.0593789781,
				"z": 0.8994507115,
				"element": "C" 
			},
			{
				"x": 1.6482991445,
				"y": 0.3693472233,
				"z": 1.3620760472,
				"element": "C" 
			},
			{
				"x": 0.4366358542,
				"y": 1.2750190369,
				"z": 0.9940205086,
				"element": "C" 
			},
			{
				"x": 0.1418345715,
				"y": 1.3447333827,
				"z": -0.4905003114,
				"element": "C" 
			},
			{
				"x": 1.1259817268,
				"y": 2.1449758607,
				"z": -1.3113701191,
				"element": "C" 
			},
			{
				"x": -0.9024220168,
				"y": 0.7327325318,
				"z": -1.0751921873,
				"element": "C" 
			},
			{
				"x": -1.9395773467,
				"y": -0.1310479379,
				"z": -0.4003358098,
				"element": "C" 
			},
			{
				"x": -1.6051162872,
				"y": -1.5196136524,
				"z": -0.4273600003,
				"element": "O" 
			},
			{
				"x": 0.9684785754,
				"y": -1.1297236158,
				"z": 3.5533440326,
				"element": "H" 
			},
			{
				"x": -0.0704682316,
				"y": -2.5414914066,
				"z": 3.3162337676,
				"element": "H" 
			},
			{
				"x": 1.6396780289,
				"y": -2.765629582,
				"z": 3.6535957363,
				"element": "H" 
			},
			{
				"x": 0.1608057575,
				"y": -3.9689064927,
				"z": 1.1286499116,
				"element": "H" 
			},
			{
				"x": 1.8695600907,
				"y": -4.1988620853,
				"z": 1.4789164791,
				"element": "H" 
			},
			{
				"x": 1.3764948133,
				"y": -3.4859719749,
				"z": -0.0688411457,
				"element": "H" 
			},
			{
				"x": 1.6980891092,
				"y": -1.2156366961,
				"z": -0.1641944356,
				"element": "H" 
			},
			{
				"x": 2.5580567137,
				"y": 0.7957221245,
				"z": 0.919658326,
				"element": "H" 
			},
			{
				"x": 1.7883157034,
				"y": 0.4206012777,
				"z": 2.4463267671,
				"element": "H" 
			},
			{
				"x": 0.6502533401,
				"y": 2.2868174985,
				"z": 1.3660492481,
				"element": "H" 
			},
			{
				"x": -0.4363128091,
				"y": 0.9149824434,
				"z": 1.5455984077,
				"element": "H" 
			},
			{
				"x": 0.86030921,
				"y": 2.1468264685,
				"z": -2.3718032596,
				"element": "H" 
			},
			{
				"x": 1.1665533677,
				"y": 3.187096843,
				"z": -0.9674814005,
				"element": "H" 
			},
			{
				"x": 2.146114652,
				"y": 1.7500285323,
				"z": -1.2215455159,
				"element": "H" 
			},
			{
				"x": -0.9944721955,
				"y": 0.8096855278,
				"z": -2.158476558,
				"element": "H" 
			},
			{
				"x": -2.1258315201,
				"y": 0.2092959075,
				"z": 0.6294315498,
				"element": "H" 
			},
			{
				"x": -2.8913515782,
				"y": -0.0493937967,
				"z": -0.9352561455,
				"element": "H" 
			},
			{
				"x": -0.7479774251,
				"y": -1.5994712328,
				"z": 0.0177876764,
				"element": "H" 
			}
		],
		 "valence_orbital": [ 
			{
				"type": "occ",
				"energy": -0.32059,
				"method": "rhf"
			},
			{
				"type": "occ",
				"energy": -0.31372,
				"method": "rhf"
			},
			{
				"type": "occ",
				"energy": -0.25379,
				"method": "rhf"
			},
			{
				"type": "occ",
				"energy": -0.24206,
				"method": "rhf"
			},
			{
				"type": "occ",
				"energy": -0.23237,
				"method": "rhf"
			},
			{
				"type": "unocc",
				"energy": 0.01434,
				"method": "rhf"
			},
			{
				"type": "unocc",
				"energy": 0.02203,
				"method": "rhf"
			},
			{
				"type": "unocc",
				"energy": 0.07826,
				"method": "rhf"
			},
			{
				"type": "unocc",
				"energy": 0.09667,
				"method": "rhf"
			},
			{
				"type": "unocc",
				"energy": 0.10956,
				"method": "rhf"
			}
		],
		"cosmo_sigma_profile": { 
			"-0.025": 0.0,
			"-0.024": 0.0,
			"-0.023": 0.0,
			"-0.022": 0.0,
			"-0.021": 0.0,
			"-0.02": 0.0,
			"-0.019": 0.0,
			"-0.018": 0.0,
			"-0.017": 0.0,
			"-0.016": 0.0,
			"-0.015": 0.0,
			"-0.014": 0.0,
			"-0.013": 0.0,
			"-0.012": 0.0,
			"-0.011": 0.0,
			"-0.01": 0.0,
			"-0.009": 0.0,
			"-0.008": 0.0,
			"-0.007": 0.0,
			"-0.006": 0.0,
			"-0.005": 1.1619164312,
			"-0.004": 17.5529682483,
			"-0.003": 38.236374623,
			"-0.002": 37.2752627962,
			"-0.001": 34.9537813785,
			"0.0": 35.5025771871,
			"0.001": 22.6072899469,
			"0.002": 8.34997026024,
			"0.003": 6.94934218864,
			"0.004": 5.28718247026,
			"0.005": 5.27408304013,
			"0.006": 3.92339476888,
			"0.007": 1.73406306303,
			"0.008": 1.32945719185,
			"0.009": 1.09218122657,
			"0.01": 1.77018983009,
			"0.011": 1.10293403736,
			"0.012": 0.867703928398,
			"0.013": 1.74103137799,
			"0.014": 1.82196856992,
			"0.015": 2.50427958156,
			"0.016": 0.41120061901,
			"0.017": 0.0,
			"0.018": 0.0,
			"0.019": 0.0,
			"0.02": 0.0,
			"0.021": 0.0,
			"0.022": 0.0,
			"0.023": 0.0,
			"0.024": 0.0,
			"0.025": 0.0
		}
	}
}
