{
	 "smiles": "C[C@@H]1C[C@H]2C3CCC4=CC(=O)C=C[C@]4(C)[C@@]3(Cl)[C@@H](O)C[C@]2(C)[C@@]1(O)C(=O)CCl", 
	 "Tm": 492.15, 
	 "num_atms": 56, 
	 "gaussian": { 
		 "optdone": 1, 
		 "sigma_profile": "yes", 
		 "theory": "DFT", 
		 "functional": "B3LYP", 
		 "basiset": "6-31G**", 
		 "properties": { 
			 "R2extent": 13709.7158, 
			 "electric_dipole_moment_norm": 4.22494862691, 
			 "electric_quadrupole_moment_norm": 55.1430439241, 
			 "total_energy": -2076.46084761, 
			 "HOMO_LUMO_gap": 0.17703, 
			 "cosmo_polarized_energy": -27.06, 
			 "cosmo_cavitation_energy": 52.25, 
			 "cosmo_dispersion_energy": -35.8, 
			 "cosmo_repulsion_energy": 2.61, 
			 "cosmo_total_nonelectrostatic_energy": 19.06, 
			 "SMD_solvation_energy": 8.75 
		},
		"coords": [
			{
				"x": -4.4436093245,
				"y": -0.9708243616,
				"z": 1.2019017435,
				"element": "C" 
			},
			{
				"x": -3.3572292126,
				"y": -0.3941018647,
				"z": 0.2869383212,
				"element": "C" 
			},
			{
				"x": -2.5708587708,
				"y": -1.4813813184,
				"z": -0.5123621646,
				"element": "C" 
			},
			{
				"x": -1.1090638148,
				"y": -1.2908101539,
				"z": -0.0753796646,
				"element": "C" 
			},
			{
				"x": 0.0178451742,
				"y": -1.8841902029,
				"z": -0.9303061603,
				"element": "C" 
			},
			{
				"x": -0.1891999846,
				"y": -3.3884140127,
				"z": -1.1868904827,
				"element": "C" 
			},
			{
				"x": 0.9802514845,
				"y": -4.0365983426,
				"z": -1.9509321982,
				"element": "C" 
			},
			{
				"x": 2.3212366144,
				"y": -3.6792248543,
				"z": -1.3610840795,
				"element": "C" 
			},
			{
				"x": 3.2422882249,
				"y": -4.6117117305,
				"z": -1.05941352,
				"element": "C" 
			},
			{
				"x": 4.5629719059,
				"y": -4.2916705966,
				"z": -0.488132019,
				"element": "C" 
			},
			{
				"x": 5.3920640804,
				"y": -5.1613498833,
				"z": -0.2305332924,
				"element": "O" 
			},
			{
				"x": 4.8340258676,
				"y": -2.8577622187,
				"z": -0.2505862773,
				"element": "C" 
			},
			{
				"x": 3.9298988591,
				"y": -1.9126605005,
				"z": -0.5373856893,
				"element": "C" 
			},
			{
				"x": 2.5884875555,
				"y": -2.1884478857,
				"z": -1.1742894122,
				"element": "C" 
			},
			{
				"x": 2.6741574026,
				"y": -1.5644468206,
				"z": -2.6109322193,
				"element": "C" 
			},
			{
				"x": 1.4066572505,
				"y": -1.5906590804,
				"z": -0.2918887711,
				"element": "C" 
			},
			{
				"x": 1.4943218795,
				"y": -2.4962650999,
				"z": 1.3445760863,
				"element": "Cl" 
			},
			{
				"x": 1.5816966466,
				"y": -0.0987834886,
				"z": 0.1399096628,
				"element": "C" 
			},
			{
				"x": 1.9064841629,
				"y": 0.6578818344,
				"z": -1.0292630141,
				"element": "O" 
			},
			{
				"x": 0.356472353,
				"y": 0.4905418422,
				"z": 0.8796591663,
				"element": "C" 
			},
			{
				"x": -0.9807174565,
				"y": 0.2370068598,
				"z": 0.1600643154,
				"element": "C" 
			},
			{
				"x": -1.0862693569,
				"y": 1.0678089398,
				"z": -1.1387256519,
				"element": "C" 
			},
			{
				"x": -2.2748074195,
				"y": 0.4524695405,
				"z": 1.0430528877,
				"element": "C" 
			},
			{
				"x": -1.9785007391,
				"y": -0.0526464222,
				"z": 2.3492428017,
				"element": "O" 
			},
			{
				"x": -2.6892144793,
				"y": 1.9329224145,
				"z": 1.169036055,
				"element": "C" 
			},
			{
				"x": -3.3682184483,
				"y": 2.4911523623,
				"z": 0.3349152908,
				"element": "O" 
			},
			{
				"x": -2.1764548778,
				"y": 2.644008772,
				"z": 2.4260322757,
				"element": "C" 
			},
			{
				"x": -2.4162464385,
				"y": 4.4201948048,
				"z": 2.3714946794,
				"element": "Cl" 
			},
			{
				"x": -4.9511406087,
				"y": -0.1902706361,
				"z": 1.7820500688,
				"element": "H" 
			},
			{
				"x": -5.2112401483,
				"y": -1.4709021846,
				"z": 0.6041713106,
				"element": "H" 
			},
			{
				"x": -4.0455763313,
				"y": -1.7244303654,
				"z": 1.8933323606,
				"element": "H" 
			},
			{
				"x": -3.8451854567,
				"y": 0.2963142414,
				"z": -0.4047688768,
				"element": "H" 
			},
			{
				"x": -2.9370365761,
				"y": -2.4873287348,
				"z": -0.2850820052,
				"element": "H" 
			},
			{
				"x": -2.6954482934,
				"y": -1.3338007115,
				"z": -1.5911702878,
				"element": "H" 
			},
			{
				"x": -1.0224218973,
				"y": -1.747492453,
				"z": 0.9158418077,
				"element": "H" 
			},
			{
				"x": 0.0277933884,
				"y": -1.3708698926,
				"z": -1.9002003909,
				"element": "H" 
			},
			{
				"x": -1.1151686304,
				"y": -3.5314857509,
				"z": -1.753951461,
				"element": "H" 
			},
			{
				"x": -0.3209301905,
				"y": -3.8972712638,
				"z": -0.2263333358,
				"element": "H" 
			},
			{
				"x": 0.8623749741,
				"y": -5.124436747,
				"z": -1.9692019988,
				"element": "H" 
			},
			{
				"x": 0.9484988678,
				"y": -3.7030528218,
				"z": -2.9976176407,
				"element": "H" 
			},
			{
				"x": 3.0451217037,
				"y": -5.6680887591,
				"z": -1.2248467474,
				"element": "H" 
			},
			{
				"x": 5.8074025043,
				"y": -2.6147022216,
				"z": 0.1658211053,
				"element": "H" 
			},
			{
				"x": 4.1679161061,
				"y": -0.863477006,
				"z": -0.3787200733,
				"element": "H" 
			},
			{
				"x": 1.7183520775,
				"y": -1.5914421318,
				"z": -3.1375213912,
				"element": "H" 
			},
			{
				"x": 3.0048427274,
				"y": -0.5298010677,
				"z": -2.568665612,
				"element": "H" 
			},
			{
				"x": 3.3946677991,
				"y": -2.1506734018,
				"z": -3.1879034495,
				"element": "H" 
			},
			{
				"x": 2.4300663685,
				"y": -0.0656462457,
				"z": 0.8351450582,
				"element": "H" 
			},
			{
				"x": 1.8649199223,
				"y": 1.5938857784,
				"z": -0.7943071744,
				"element": "H" 
			},
			{
				"x": 0.5480515452,
				"y": 1.5666261846,
				"z": 1.0081611646,
				"element": "H" 
			},
			{
				"x": 0.3149722469,
				"y": 0.0560144824,
				"z": 1.8803942841,
				"element": "H" 
			},
			{
				"x": -0.2956552409,
				"y": 0.7968353411,
				"z": -1.8375585783,
				"element": "H" 
			},
			{
				"x": -2.0496944023,
				"y": 0.9506341871,
				"z": -1.6379204581,
				"element": "H" 
			},
			{
				"x": -0.9757086666,
				"y": 2.1353324635,
				"z": -0.9232595117,
				"element": "H" 
			},
			{
				"x": -2.7997148119,
				"y": -0.3555950984,
				"z": 2.7569934264,
				"element": "H" 
			},
			{
				"x": -1.1150839756,
				"y": 2.4410730385,
				"z": 2.5772995155,
				"element": "H" 
			},
			{
				"x": -2.7015441397,
				"y": 2.2607132445,
				"z": 3.3036002215,
				"element": "H" 
			}
		],
		 "valence_orbital": [ 
			{
				"type": "occ",
				"energy": -0.28602,
				"method": "rhf"
			},
			{
				"type": "occ",
				"energy": -0.26609,
				"method": "rhf"
			},
			{
				"type": "occ",
				"energy": -0.25688,
				"method": "rhf"
			},
			{
				"type": "occ",
				"energy": -0.25366,
				"method": "rhf"
			},
			{
				"type": "occ",
				"energy": -0.23153,
				"method": "rhf"
			},
			{
				"type": "unocc",
				"energy": -0.0545,
				"method": "rhf"
			},
			{
				"type": "unocc",
				"energy": -0.04134,
				"method": "rhf"
			},
			{
				"type": "unocc",
				"energy": -0.00443,
				"method": "rhf"
			},
			{
				"type": "unocc",
				"energy": 0.00341,
				"method": "rhf"
			},
			{
				"type": "unocc",
				"energy": 0.02131,
				"method": "rhf"
			}
		],
		"cosmo_sigma_profile": { 
			"-0.025": 0.0,
			"-0.024": 0.0,
			"-0.023": 0.0,
			"-0.022": 0.0,
			"-0.021": 0.0,
			"-0.02": 0.0,
			"-0.019": 0.0,
			"-0.018": 0.0,
			"-0.017": 0.0,
			"-0.016": 0.403437424937,
			"-0.015": 0.847039303627,
			"-0.014": 1.5618588524,
			"-0.013": 2.80812756527,
			"-0.012": 2.33529313478,
			"-0.011": 1.99063908897,
			"-0.01": 3.80000147754,
			"-0.009": 3.91772143976,
			"-0.008": 5.66375333706,
			"-0.007": 8.92110117384,
			"-0.006": 14.9190757401,
			"-0.005": 19.3644921755,
			"-0.004": 24.9498271985,
			"-0.003": 39.3697838185,
			"-0.002": 43.4583431166,
			"-0.001": 39.0461042932,
			"0.0": 33.7781377725,
			"0.001": 26.5326624542,
			"0.002": 19.9196602401,
			"0.003": 17.7020466088,
			"0.004": 17.6599495067,
			"0.005": 20.4558812611,
			"0.006": 16.2821126091,
			"0.007": 8.72805285231,
			"0.008": 5.73287702633,
			"0.009": 4.05031258493,
			"0.01": 5.60790696982,
			"0.011": 5.94405863177,
			"0.012": 4.62056545262,
			"0.013": 5.58864514946,
			"0.014": 3.45209363907,
			"0.015": 0.773110085466,
			"0.016": 0.0,
			"0.017": 0.0,
			"0.018": 0.0,
			"0.019": 0.0,
			"0.02": 0.0,
			"0.021": 0.0,
			"0.022": 0.0,
			"0.023": 0.0,
			"0.024": 0.0,
			"0.025": 0.0
		}
	}
}
