{
	 "smiles": "CC(=O)ON1C2=CC=C(OC(C)=O)C=C2C(OC(C)=O)=C1C1=CC=CC=C1", 
	 "Tm": 468.15, 
	 "num_atms": 44, 
	 "gaussian": { 
		 "optdone": 1, 
		 "sigma_profile": "yes", 
		 "theory": "DFT", 
		 "functional": "B3LYP", 
		 "basiset": "6-31G**", 
		 "properties": { 
			 "R2extent": 11335.1748, 
			 "electric_dipole_moment_norm": 8.18619463365, 
			 "electric_quadrupole_moment_norm": 34.9457632448, 
			 "total_energy": -1278.4345481, 
			 "HOMO_LUMO_gap": 0.16007, 
			 "cosmo_polarized_energy": -23.22, 
			 "cosmo_cavitation_energy": 50.36, 
			 "cosmo_dispersion_energy": -32.69, 
			 "cosmo_repulsion_energy": 2.53, 
			 "cosmo_total_nonelectrostatic_energy": 20.2, 
			 "SMD_solvation_energy": 12.0 
		},
		"coords": [
			{
				"x": -5.4139922158,
				"y": 0.1578638917,
				"z": 0.6309103647,
				"element": "C" 
			},
			{
				"x": -4.0450097603,
				"y": 0.2952224915,
				"z": 0.0217321403,
				"element": "C" 
			},
			{
				"x": -3.7591063787,
				"y": 0.5435094511,
				"z": -1.1132965212,
				"element": "O" 
			},
			{
				"x": -3.087598625,
				"y": 0.0520958414,
				"z": 1.0215929076,
				"element": "O" 
			},
			{
				"x": -1.7708408413,
				"y": 0.0831965557,
				"z": 0.5725571089,
				"element": "N" 
			},
			{
				"x": -1.0919221917,
				"y": 1.2774477416,
				"z": 0.4105980083,
				"element": "C" 
			},
			{
				"x": -1.3412806935,
				"y": 2.5362540486,
				"z": 0.9577235643,
				"element": "C" 
			},
			{
				"x": -0.427906374,
				"y": 3.5457236816,
				"z": 0.6800435248,
				"element": "C" 
			},
			{
				"x": 0.7049979733,
				"y": 3.2844966116,
				"z": -0.1152092995,
				"element": "C" 
			},
			{
				"x": 1.5628998409,
				"y": 4.3440382748,
				"z": -0.4110781617,
				"element": "O" 
			},
			{
				"x": 2.6563354875,
				"y": 4.6348115379,
				"z": 0.3733649112,
				"element": "C" 
			},
			{
				"x": 2.9081028917,
				"y": 3.7473275493,
				"z": 1.5738492521,
				"element": "C" 
			},
			{
				"x": 3.3468662598,
				"y": 5.5706607568,
				"z": 0.0630556837,
				"element": "O" 
			},
			{
				"x": 0.9447004314,
				"y": 2.0408828842,
				"z": -0.6804447691,
				"element": "C" 
			},
			{
				"x": 0.0224140345,
				"y": 1.011685061,
				"z": -0.4269831647,
				"element": "C" 
			},
			{
				"x": -0.0938762855,
				"y": -0.3652939734,
				"z": -0.8167725445,
				"element": "C" 
			},
			{
				"x": 0.8436183967,
				"y": -1.1441733355,
				"z": -1.475064601,
				"element": "O" 
			},
			{
				"x": 1.3180538316,
				"y": -0.7482717069,
				"z": -2.7026302386,
				"element": "C" 
			},
			{
				"x": 2.3264231687,
				"y": -1.7527950881,
				"z": -3.2011472704,
				"element": "C" 
			},
			{
				"x": 0.9705886884,
				"y": 0.2586576512,
				"z": -3.2656786549,
				"element": "O" 
			},
			{
				"x": -1.2171973883,
				"y": -0.9165299851,
				"z": -0.2367380941,
				"element": "C" 
			},
			{
				"x": -1.7486248266,
				"y": -2.2798366865,
				"z": -0.2841419348,
				"element": "C" 
			},
			{
				"x": -2.3303077639,
				"y": -2.8743303158,
				"z": 0.851262862,
				"element": "C" 
			},
			{
				"x": -2.8215383632,
				"y": -4.1771505934,
				"z": 0.7931086443,
				"element": "C" 
			},
			{
				"x": -2.7389482913,
				"y": -4.910225759,
				"z": -0.3925540708,
				"element": "C" 
			},
			{
				"x": -2.1640332016,
				"y": -4.3283116746,
				"z": -1.5246410627,
				"element": "C" 
			},
			{
				"x": -1.6768153156,
				"y": -3.0244199297,
				"z": -1.4748995174,
				"element": "C" 
			},
			{
				"x": -5.6147288274,
				"y": -0.9007225363,
				"z": 0.8244840496,
				"element": "H" 
			},
			{
				"x": -6.1541438992,
				"y": 0.5457044071,
				"z": -0.0681622134,
				"element": "H" 
			},
			{
				"x": -5.4715845269,
				"y": 0.6878835326,
				"z": 1.5845241404,
				"element": "H" 
			},
			{
				"x": -2.2136032158,
				"y": 2.7178829307,
				"z": 1.5757066556,
				"element": "H" 
			},
			{
				"x": -0.5768874099,
				"y": 4.5503009329,
				"z": 1.0614232229,
				"element": "H" 
			},
			{
				"x": 2.053527018,
				"y": 3.757835248,
				"z": 2.2563850503,
				"element": "H" 
			},
			{
				"x": 3.0594486361,
				"y": 2.7084000646,
				"z": 1.2678243172,
				"element": "H" 
			},
			{
				"x": 3.7961359822,
				"y": 4.1162196576,
				"z": 2.0853195331,
				"element": "H" 
			},
			{
				"x": 1.7976076179,
				"y": 1.8948044474,
				"z": -1.3314639148,
				"element": "H" 
			},
			{
				"x": 3.1844558184,
				"y": -1.7867173516,
				"z": -2.5228450126,
				"element": "H" 
			},
			{
				"x": 2.6555909951,
				"y": -1.4676945359,
				"z": -4.199598016,
				"element": "H" 
			},
			{
				"x": 1.887210169,
				"y": -2.754240373,
				"z": -3.2180934834,
				"element": "H" 
			},
			{
				"x": -2.382795732,
				"y": -2.3166548243,
				"z": 1.7800245089,
				"element": "H" 
			},
			{
				"x": -3.2621069482,
				"y": -4.6238402152,
				"z": 1.6799219069,
				"element": "H" 
			},
			{
				"x": -3.1210864329,
				"y": -5.9259430751,
				"z": -0.4346666122,
				"element": "H" 
			},
			{
				"x": -2.1045069438,
				"y": -4.8878732776,
				"z": -2.4536633345,
				"element": "H" 
			},
			{
				"x": -1.255934789,
				"y": -2.5676800143,
				"z": -2.3634398647,
				"element": "H" 
			}
		],
		 "valence_orbital": [ 
			{
				"type": "occ",
				"energy": -0.27247,
				"method": "rhf"
			},
			{
				"type": "occ",
				"energy": -0.26579,
				"method": "rhf"
			},
			{
				"type": "occ",
				"energy": -0.26144,
				"method": "rhf"
			},
			{
				"type": "occ",
				"energy": -0.22503,
				"method": "rhf"
			},
			{
				"type": "occ",
				"energy": -0.20943,
				"method": "rhf"
			},
			{
				"type": "unocc",
				"energy": -0.04936,
				"method": "rhf"
			},
			{
				"type": "unocc",
				"energy": -0.01732,
				"method": "rhf"
			},
			{
				"type": "unocc",
				"energy": -0.01182,
				"method": "rhf"
			},
			{
				"type": "unocc",
				"energy": -0.00285,
				"method": "rhf"
			},
			{
				"type": "unocc",
				"energy": -0.00084,
				"method": "rhf"
			}
		],
		"cosmo_sigma_profile": { 
			"-0.025": 0.0,
			"-0.024": 0.0,
			"-0.023": 0.0,
			"-0.022": 0.0,
			"-0.021": 0.0,
			"-0.02": 0.0,
			"-0.019": 0.0,
			"-0.018": 0.0,
			"-0.017": 0.0,
			"-0.016": 0.0,
			"-0.015": 0.0,
			"-0.014": 0.0,
			"-0.013": 0.0,
			"-0.012": 0.0,
			"-0.011": 0.0,
			"-0.01": 0.0,
			"-0.009": 0.0,
			"-0.008": 1.37995906331,
			"-0.007": 15.191518697,
			"-0.006": 38.3439628617,
			"-0.005": 37.3377484077,
			"-0.004": 36.3253146179,
			"-0.003": 34.560017406,
			"-0.002": 32.4271967238,
			"-0.001": 19.7497487057,
			"0.0": 19.3602541496,
			"0.001": 22.267178325,
			"0.002": 23.4933443378,
			"0.003": 24.4904968179,
			"0.004": 20.6256142096,
			"0.005": 15.5556985449,
			"0.006": 9.21832744695,
			"0.007": 7.74849615716,
			"0.008": 7.16183384723,
			"0.009": 7.87946561207,
			"0.01": 11.016483277,
			"0.011": 10.9836247811,
			"0.012": 6.6061372497,
			"0.013": 1.09868706975,
			"0.014": 0.0,
			"0.015": 0.0,
			"0.016": 0.0,
			"0.017": 0.0,
			"0.018": 0.0,
			"0.019": 0.0,
			"0.02": 0.0,
			"0.021": 0.0,
			"0.022": 0.0,
			"0.023": 0.0,
			"0.024": 0.0,
			"0.025": 0.0
		}
	}
}
