{
	 "smiles": "OC(=O)C1=CC=C(C=C1)N1CCNC1=O", 
	 "Tm": 587.15, 
	 "num_atms": 25, 
	 "gaussian": { 
		 "optdone": 1, 
		 "sigma_profile": "yes", 
		 "theory": "DFT", 
		 "functional": "B3LYP", 
		 "basiset": "6-31G**", 
		 "properties": { 
			 "R2extent": 4872.7441, 
			 "electric_dipole_moment_norm": 7.44250827947, 
			 "electric_quadrupole_moment_norm": 28.0923805478, 
			 "total_energy": -722.298536925, 
			 "HOMO_LUMO_gap": 0.18479, 
			 "cosmo_polarized_energy": -22.39, 
			 "cosmo_cavitation_energy": 28.85, 
			 "cosmo_dispersion_energy": -21.83, 
			 "cosmo_repulsion_energy": 1.68, 
			 "cosmo_total_nonelectrostatic_energy": 8.71, 
			 "SMD_solvation_energy": 5.23 
		},
		"coords": [
			{
				"x": -4.6627983437,
				"y": 3.2217958391,
				"z": -1.8118518365,
				"element": "O" 
			},
			{
				"x": -3.4509198422,
				"y": 3.6484772153,
				"z": -1.3592671921,
				"element": "C" 
			},
			{
				"x": -3.229648788,
				"y": 4.8350278761,
				"z": -1.2716189821,
				"element": "O" 
			},
			{
				"x": -2.4576708324,
				"y": 2.5960111642,
				"z": -0.9896043631,
				"element": "C" 
			},
			{
				"x": -1.3561040797,
				"y": 2.9795704539,
				"z": -0.2157711886,
				"element": "C" 
			},
			{
				"x": -0.3921761934,
				"y": 2.0557894136,
				"z": 0.1650340726,
				"element": "C" 
			},
			{
				"x": -0.4942008818,
				"y": 0.7069240511,
				"z": -0.2308961017,
				"element": "C" 
			},
			{
				"x": -1.588620856,
				"y": 0.3175475086,
				"z": -1.0295625017,
				"element": "C" 
			},
			{
				"x": -2.5443304467,
				"y": 1.2560377203,
				"z": -1.397182176,
				"element": "C" 
			},
			{
				"x": 0.4805957517,
				"y": -0.2110865683,
				"z": 0.1874820503,
				"element": "N" 
			},
			{
				"x": 1.6176836218,
				"y": 0.1804565345,
				"z": 1.0235891273,
				"element": "C" 
			},
			{
				"x": 2.2940601642,
				"y": -1.1672396514,
				"z": 1.3377830705,
				"element": "C" 
			},
			{
				"x": 1.8610531099,
				"y": -1.9735268095,
				"z": 0.2081249903,
				"element": "N" 
			},
			{
				"x": 0.6727223502,
				"y": -1.5061758118,
				"z": -0.3262839336,
				"element": "C" 
			},
			{
				"x": -0.045395313,
				"y": -2.1137191492,
				"z": -1.1008482997,
				"element": "O" 
			},
			{
				"x": -4.7504041011,
				"y": 2.2678024808,
				"z": -1.6813588145,
				"element": "H" 
			},
			{
				"x": -1.2707742899,
				"y": 4.0195253378,
				"z": 0.0804070124,
				"element": "H" 
			},
			{
				"x": 0.4450460109,
				"y": 2.3929518894,
				"z": 0.7643587031,
				"element": "H" 
			},
			{
				"x": -1.6626975759,
				"y": -0.7076303218,
				"z": -1.3619338117,
				"element": "H" 
			},
			{
				"x": -3.3509088636,
				"y": 0.9220346277,
				"z": -2.046562988,
				"element": "H" 
			},
			{
				"x": 1.2866713229,
				"y": 0.6915175667,
				"z": 1.9312018094,
				"element": "H" 
			},
			{
				"x": 2.2925363569,
				"y": 0.8498577962,
				"z": 0.473505435,
				"element": "H" 
			},
			{
				"x": 3.3824989628,
				"y": -1.0754073168,
				"z": 1.3838381448,
				"element": "H" 
			},
			{
				"x": 1.9381582304,
				"y": -1.5713379806,
				"z": 2.2961811623,
				"element": "H" 
			},
			{
				"x": 1.9872245257,
				"y": -2.9752038658,
				"z": 0.1944366114,
				"element": "H" 
			}
		],
		 "valence_orbital": [ 
			{
				"type": "occ",
				"energy": -0.281,
				"method": "rhf"
			},
			{
				"type": "occ",
				"energy": -0.27033,
				"method": "rhf"
			},
			{
				"type": "occ",
				"energy": -0.26635,
				"method": "rhf"
			},
			{
				"type": "occ",
				"energy": -0.26303,
				"method": "rhf"
			},
			{
				"type": "occ",
				"energy": -0.22732,
				"method": "rhf"
			},
			{
				"type": "unocc",
				"energy": -0.04253,
				"method": "rhf"
			},
			{
				"type": "unocc",
				"energy": -0.01567,
				"method": "rhf"
			},
			{
				"type": "unocc",
				"energy": 0.03293,
				"method": "rhf"
			},
			{
				"type": "unocc",
				"energy": 0.06186,
				"method": "rhf"
			},
			{
				"type": "unocc",
				"energy": 0.06599,
				"method": "rhf"
			}
		],
		"cosmo_sigma_profile": { 
			"-0.025": 0.0,
			"-0.024": 0.0,
			"-0.023": 0.0,
			"-0.022": 0.0,
			"-0.021": 0.0,
			"-0.02": 0.0,
			"-0.019": 0.109068890379,
			"-0.018": 0.530684783937,
			"-0.017": 1.03336740068,
			"-0.016": 1.24216164852,
			"-0.015": 0.973407833194,
			"-0.014": 2.08826777769,
			"-0.013": 1.81083012414,
			"-0.012": 2.44443825562,
			"-0.011": 2.6566569755,
			"-0.01": 1.85738541877,
			"-0.009": 1.98682800186,
			"-0.008": 2.92879836551,
			"-0.007": 7.98057110742,
			"-0.006": 17.1659754017,
			"-0.005": 22.5530965051,
			"-0.004": 17.1394143856,
			"-0.003": 11.4935700176,
			"-0.002": 9.46714202656,
			"-0.001": 9.4472823133,
			"0.0": 10.2072185989,
			"0.001": 12.2880689771,
			"0.002": 12.4257218658,
			"0.003": 15.9305587664,
			"0.004": 12.4564343253,
			"0.005": 4.44118646378,
			"0.006": 4.44849017728,
			"0.007": 4.92510788978,
			"0.008": 4.22581043997,
			"0.009": 5.2419253974,
			"0.01": 5.22512850425,
			"0.011": 6.61102511108,
			"0.012": 9.22226767333,
			"0.013": 5.83029241399,
			"0.014": 1.67400978659,
			"0.015": 0.0,
			"0.016": 0.0,
			"0.017": 0.0,
			"0.018": 0.0,
			"0.019": 0.0,
			"0.02": 0.0,
			"0.021": 0.0,
			"0.022": 0.0,
			"0.023": 0.0,
			"0.024": 0.0,
			"0.025": 0.0
		}
	}
}
