{
	 "smiles": "CC(C)C1CCC(C)CC1OC(=O)C(=O)C=CC1=CC=CC=C1", 
	 "Tm": 318.65, 
	 "num_atms": 49, 
	 "gaussian": { 
		 "optdone": 1, 
		 "sigma_profile": "yes", 
		 "theory": "DFT", 
		 "functional": "B3LYP", 
		 "basiset": "6-31G**", 
		 "properties": { 
			 "R2extent": 12327.4712, 
			 "electric_dipole_moment_norm": 0.815610415578, 
			 "electric_quadrupole_moment_norm": 23.1350724743, 
			 "total_energy": -1003.47352743, 
			 "HOMO_LUMO_gap": 0.14528, 
			 "cosmo_polarized_energy": -10.63, 
			 "cosmo_cavitation_energy": 49.24, 
			 "cosmo_dispersion_energy": -33.85, 
			 "cosmo_repulsion_energy": 2.57, 
			 "cosmo_total_nonelectrostatic_energy": 17.96, 
			 "SMD_solvation_energy": 9.1 
		},
		"coords": [
			{
				"x": 0.8057061877,
				"y": -1.8703709656,
				"z": 1.8960666448,
				"element": "C" 
			},
			{
				"x": 1.1410038277,
				"y": -0.4121441975,
				"z": 2.251718325,
				"element": "C" 
			},
			{
				"x": 1.5426453307,
				"y": -0.2928666908,
				"z": 3.7321872909,
				"element": "C" 
			},
			{
				"x": 2.203073593,
				"y": 0.2687093534,
				"z": 1.3417126629,
				"element": "C" 
			},
			{
				"x": 3.6276626702,
				"y": -0.3252430283,
				"z": 1.5020939146,
				"element": "C" 
			},
			{
				"x": 4.5318446021,
				"y": 0.0310312894,
				"z": 0.3149367299,
				"element": "C" 
			},
			{
				"x": 4.0443389932,
				"y": -0.6309981273,
				"z": -0.9982484766,
				"element": "C" 
			},
			{
				"x": 4.5519771323,
				"y": 0.1350650483,
				"z": -2.2270035457,
				"element": "C" 
			},
			{
				"x": 2.4974086953,
				"y": -0.7811463299,
				"z": -0.9978842127,
				"element": "C" 
			},
			{
				"x": 1.8448928765,
				"y": 0.3274330336,
				"z": -0.1751694946,
				"element": "C" 
			},
			{
				"x": 0.4095520455,
				"y": 0.2398029228,
				"z": -0.4031237519,
				"element": "O" 
			},
			{
				"x": -0.2919893034,
				"y": 1.3728544665,
				"z": -0.342761198,
				"element": "C" 
			},
			{
				"x": 0.1668768793,
				"y": 2.4747880352,
				"z": -0.1107739108,
				"element": "O" 
			},
			{
				"x": -1.8014288643,
				"y": 1.1052383624,
				"z": -0.6032627305,
				"element": "C" 
			},
			{
				"x": -2.1856498556,
				"y": -0.054450643,
				"z": -0.6767673988,
				"element": "O" 
			},
			{
				"x": -2.587725384,
				"y": 2.3331918658,
				"z": -0.7164635034,
				"element": "C" 
			},
			{
				"x": -3.9126353687,
				"y": 2.5381970208,
				"z": -0.9591507984,
				"element": "C" 
			},
			{
				"x": -5.0822847516,
				"y": 1.6963869195,
				"z": -1.1954485814,
				"element": "C" 
			},
			{
				"x": -6.299558751,
				"y": 2.3761659281,
				"z": -1.4317385618,
				"element": "C" 
			},
			{
				"x": -7.4813047091,
				"y": 1.6843183753,
				"z": -1.6703985261,
				"element": "C" 
			},
			{
				"x": -7.476596375,
				"y": 0.2871072039,
				"z": -1.6778403833,
				"element": "C" 
			},
			{
				"x": -6.2841712327,
				"y": -0.4028418425,
				"z": -1.4450849425,
				"element": "C" 
			},
			{
				"x": -5.0971164307,
				"y": 0.2846039291,
				"z": -1.2056427674,
				"element": "C" 
			},
			{
				"x": 1.6868007475,
				"y": -2.5206669292,
				"z": 1.943340856,
				"element": "H" 
			},
			{
				"x": 0.0757930425,
				"y": -2.2689772378,
				"z": 2.6093666871,
				"element": "H" 
			},
			{
				"x": 0.3656256447,
				"y": -1.9491264754,
				"z": 0.8993955802,
				"element": "H" 
			},
			{
				"x": 0.2145785611,
				"y": 0.1631865545,
				"z": 2.1302362398,
				"element": "H" 
			},
			{
				"x": 0.7250765928,
				"y": -0.6294154324,
				"z": 4.3784768363,
				"element": "H" 
			},
			{
				"x": 2.4180853142,
				"y": -0.9081641484,
				"z": 3.9672541863,
				"element": "H" 
			},
			{
				"x": 1.7782151311,
				"y": 0.7424518606,
				"z": 4.0038489378,
				"element": "H" 
			},
			{
				"x": 2.2481034143,
				"y": 1.3130654164,
				"z": 1.6770774616,
				"element": "H" 
			},
			{
				"x": 4.0685958167,
				"y": 0.0377725431,
				"z": 2.4358077145,
				"element": "H" 
			},
			{
				"x": 3.5768767167,
				"y": -1.4179386382,
				"z": 1.5921859347,
				"element": "H" 
			},
			{
				"x": 4.5504778186,
				"y": 1.1235268243,
				"z": 0.192973112,
				"element": "H" 
			},
			{
				"x": 5.5672576672,
				"y": -0.2673216377,
				"z": 0.5155848259,
				"element": "H" 
			},
			{
				"x": 4.4667596436,
				"y": -1.6434946738,
				"z": -1.0373155137,
				"element": "H" 
			},
			{
				"x": 4.3007256018,
				"y": -0.3880177995,
				"z": -3.1559597827,
				"element": "H" 
			},
			{
				"x": 4.110319752,
				"y": 1.1377652546,
				"z": -2.2787108054,
				"element": "H" 
			},
			{
				"x": 5.6404702445,
				"y": 0.2571947276,
				"z": -2.1942187359,
				"element": "H" 
			},
			{
				"x": 2.2080137694,
				"y": -1.7533603502,
				"z": -0.5879350445,
				"element": "H" 
			},
			{
				"x": 2.1079886754,
				"y": -0.7450161856,
				"z": -2.0210058752,
				"element": "H" 
			},
			{
				"x": 2.158945723,
				"y": 1.3008785834,
				"z": -0.5624741402,
				"element": "H" 
			},
			{
				"x": -1.9861078172,
				"y": 3.2262774293,
				"z": -0.5849821256,
				"element": "H" 
			},
			{
				"x": -4.1731734219,
				"y": 3.5968431581,
				"z": -0.9891158855,
				"element": "H" 
			},
			{
				"x": -6.3069996738,
				"y": 3.4632314031,
				"z": -1.4265563605,
				"element": "H" 
			},
			{
				"x": -8.4028261043,
				"y": 2.2302658147,
				"z": -1.8495964988,
				"element": "H" 
			},
			{
				"x": -8.3967961512,
				"y": -0.2597832672,
				"z": -1.8631408132,
				"element": "H" 
			},
			{
				"x": -6.2777438687,
				"y": -1.4890233149,
				"z": -1.4492352771,
				"element": "H" 
			},
			{
				"x": -4.1756846469,
				"y": -0.2523854088,
				"z": -1.024854298,
				"element": "H" 
			}
		],
		 "valence_orbital": [ 
			{
				"type": "occ",
				"energy": -0.29222,
				"method": "rhf"
			},
			{
				"type": "occ",
				"energy": -0.28226,
				"method": "rhf"
			},
			{
				"type": "occ",
				"energy": -0.25724,
				"method": "rhf"
			},
			{
				"type": "occ",
				"energy": -0.24232,
				"method": "rhf"
			},
			{
				"type": "occ",
				"energy": -0.23811,
				"method": "rhf"
			},
			{
				"type": "unocc",
				"energy": -0.09283,
				"method": "rhf"
			},
			{
				"type": "unocc",
				"energy": -0.02347,
				"method": "rhf"
			},
			{
				"type": "unocc",
				"energy": -0.00573,
				"method": "rhf"
			},
			{
				"type": "unocc",
				"energy": 0.03906,
				"method": "rhf"
			},
			{
				"type": "unocc",
				"energy": 0.0745,
				"method": "rhf"
			}
		],
		"cosmo_sigma_profile": { 
			"-0.025": 0.0,
			"-0.024": 0.0,
			"-0.023": 0.0,
			"-0.022": 0.0,
			"-0.021": 0.0,
			"-0.02": 0.0,
			"-0.019": 0.0,
			"-0.018": 0.0,
			"-0.017": 0.0,
			"-0.016": 0.0,
			"-0.015": 0.0,
			"-0.014": 0.0,
			"-0.013": 0.0,
			"-0.012": 0.0,
			"-0.011": 0.0,
			"-0.01": 0.0,
			"-0.009": 0.00618754864335,
			"-0.008": 1.81536776555,
			"-0.007": 5.77752731529,
			"-0.006": 11.5360458337,
			"-0.005": 13.4298941396,
			"-0.004": 19.2109675451,
			"-0.003": 29.6356682235,
			"-0.002": 53.9085062103,
			"-0.001": 53.1615108984,
			"0.0": 48.3925562347,
			"0.001": 45.7891175637,
			"0.002": 32.55005642,
			"0.003": 19.0363076404,
			"0.004": 17.7053573744,
			"0.005": 6.09406430988,
			"0.006": 3.69319823802,
			"0.007": 3.83138379595,
			"0.008": 3.70892804025,
			"0.009": 4.35193550772,
			"0.01": 4.88128482179,
			"0.011": 5.18334920458,
			"0.012": 1.58422353863,
			"0.013": 0.624561064967,
			"0.014": 0.0,
			"0.015": 0.0,
			"0.016": 0.0,
			"0.017": 0.0,
			"0.018": 0.0,
			"0.019": 0.0,
			"0.02": 0.0,
			"0.021": 0.0,
			"0.022": 0.0,
			"0.023": 0.0,
			"0.024": 0.0,
			"0.025": 0.0
		}
	}
}
