{
	 "smiles": "COC1=CC=C(C=C1)C1=CCNC1", 
	 "Tm": 368.15, 
	 "num_atms": 26, 
	 "gaussian": { 
		 "optdone": 1, 
		 "sigma_profile": "yes", 
		 "theory": "DFT", 
		 "functional": "B3LYP", 
		 "basiset": "6-31G**", 
		 "properties": { 
			 "R2extent": 3454.8314, 
			 "electric_dipole_moment_norm": 1.85783964324, 
			 "electric_quadrupole_moment_norm": 15.9977150728, 
			 "total_energy": -556.942280994, 
			 "HOMO_LUMO_gap": 0.18041, 
			 "cosmo_polarized_energy": -9.16, 
			 "cosmo_cavitation_energy": 28.63, 
			 "cosmo_dispersion_energy": -21.45, 
			 "cosmo_repulsion_energy": 1.69, 
			 "cosmo_total_nonelectrostatic_energy": 8.87, 
			 "SMD_solvation_energy": 2.23 
		},
		"coords": [
			{
				"x": -0.9149163841,
				"y": 4.3138587749,
				"z": 1.8589565818,
				"element": "C" 
			},
			{
				"x": -1.592435994,
				"y": 3.0677660667,
				"z": 1.8484845131,
				"element": "O" 
			},
			{
				"x": -1.0627949833,
				"y": 2.0524538147,
				"z": 1.1067545535,
				"element": "C" 
			},
			{
				"x": 0.1083239658,
				"y": 2.1409262022,
				"z": 0.3488272859,
				"element": "C" 
			},
			{
				"x": 0.5529534413,
				"y": 1.0272563684,
				"z": -0.3686903063,
				"element": "C" 
			},
			{
				"x": -0.144308369,
				"y": -0.1899362457,
				"z": -0.3617734418,
				"element": "C" 
			},
			{
				"x": -1.3212748532,
				"y": -0.2520556738,
				"z": 0.4158045404,
				"element": "C" 
			},
			{
				"x": -1.7741988335,
				"y": 0.8408665504,
				"z": 1.1345971131,
				"element": "C" 
			},
			{
				"x": 0.3430680528,
				"y": -1.3427741093,
				"z": -1.1297321239,
				"element": "C" 
			},
			{
				"x": -0.2729771959,
				"y": -2.5116639346,
				"z": -1.3754963591,
				"element": "C" 
			},
			{
				"x": 0.567885564,
				"y": -3.3915947966,
				"z": -2.2692681681,
				"element": "C" 
			},
			{
				"x": 1.8890801045,
				"y": -2.7261706941,
				"z": -2.3340357967,
				"element": "N" 
			},
			{
				"x": 1.6811395535,
				"y": -1.3406163882,
				"z": -1.8644553035,
				"element": "C" 
			},
			{
				"x": -0.8564664851,
				"y": 4.7519421796,
				"z": 0.8540997488,
				"element": "H" 
			},
			{
				"x": -1.5011552449,
				"y": 4.9711867129,
				"z": 2.5029774138,
				"element": "H" 
			},
			{
				"x": 0.0997817884,
				"y": 4.2201910966,
				"z": 2.2673088728,
				"element": "H" 
			},
			{
				"x": 0.6800547013,
				"y": 3.0605099961,
				"z": 0.3077931071,
				"element": "H" 
			},
			{
				"x": 1.4629742718,
				"y": 1.1232570661,
				"z": -0.9527851509,
				"element": "H" 
			},
			{
				"x": -1.8839371935,
				"y": -1.1793877011,
				"z": 0.4628952975,
				"element": "H" 
			},
			{
				"x": -2.6777681761,
				"y": 0.7862027312,
				"z": 1.7332386778,
				"element": "H" 
			},
			{
				"x": -1.2707330365,
				"y": -2.7896977123,
				"z": -1.052521491,
				"element": "H" 
			},
			{
				"x": 0.6675238668,
				"y": -4.4225826329,
				"z": -1.9058252335,
				"element": "H" 
			},
			{
				"x": 0.1216207152,
				"y": -3.4630159842,
				"z": -3.274918571,
				"element": "H" 
			},
			{
				"x": 2.4970474205,
				"y": -3.1884066496,
				"z": -1.6648076493,
				"element": "H" 
			},
			{
				"x": 1.6417254796,
				"y": -0.6458674845,
				"z": -2.718550168,
				"element": "H" 
			},
			{
				"x": 2.5195878237,
				"y": -1.0147475528,
				"z": -1.2368779425,
				"element": "H" 
			}
		],
		 "valence_orbital": [ 
			{
				"type": "occ",
				"energy": -0.32188,
				"method": "rhf"
			},
			{
				"type": "occ",
				"energy": -0.26095,
				"method": "rhf"
			},
			{
				"type": "occ",
				"energy": -0.24952,
				"method": "rhf"
			},
			{
				"type": "occ",
				"energy": -0.2194,
				"method": "rhf"
			},
			{
				"type": "occ",
				"energy": -0.19869,
				"method": "rhf"
			},
			{
				"type": "unocc",
				"energy": -0.01828,
				"method": "rhf"
			},
			{
				"type": "unocc",
				"energy": 0.0001,
				"method": "rhf"
			},
			{
				"type": "unocc",
				"energy": 0.06947,
				"method": "rhf"
			},
			{
				"type": "unocc",
				"energy": 0.08678,
				"method": "rhf"
			},
			{
				"type": "unocc",
				"energy": 0.092,
				"method": "rhf"
			}
		],
		"cosmo_sigma_profile": { 
			"-0.025": 0.0,
			"-0.024": 0.0,
			"-0.023": 0.0,
			"-0.022": 0.0,
			"-0.021": 0.0,
			"-0.02": 0.0,
			"-0.019": 0.0,
			"-0.018": 0.0,
			"-0.017": 0.0,
			"-0.016": 0.0,
			"-0.015": 0.0,
			"-0.014": 0.0,
			"-0.013": 0.0,
			"-0.012": 0.0,
			"-0.011": 0.0,
			"-0.01": 0.846371878063,
			"-0.009": 1.72361046488,
			"-0.008": 1.27872077136,
			"-0.007": 1.88900766217,
			"-0.006": 10.4857066615,
			"-0.005": 22.1909160506,
			"-0.004": 23.1929623042,
			"-0.003": 24.6144113451,
			"-0.002": 18.700550037,
			"-0.001": 16.4495307921,
			"0.0": 12.381447921,
			"0.001": 11.8515660184,
			"0.002": 11.8010958455,
			"0.003": 12.6218391914,
			"0.004": 13.8412537293,
			"0.005": 18.6006407389,
			"0.006": 9.39473251071,
			"0.007": 2.25163599844,
			"0.008": 1.58740522241,
			"0.009": 2.37412450519,
			"0.01": 2.31399045426,
			"0.011": 0.961578567706,
			"0.012": 0.844518908762,
			"0.013": 0.809849433469,
			"0.014": 0.60657489372,
			"0.015": 0.517980436707,
			"0.016": 0.238230102293,
			"0.017": 1.01943821309,
			"0.018": 0.548878480896,
			"0.019": 0.397430593259,
			"0.02": 0.0539924804631,
			"0.021": 0.0,
			"0.022": 0.0,
			"0.023": 0.0,
			"0.024": 0.0,
			"0.025": 0.0
		}
	}
}
