{
	 "smiles": "OC1C(O)C(=CC(Cl)=C1Cl)C(O)=O", 
	 "Tm": 471.15, 
	 "num_atms": 19, 
	 "gaussian": { 
		 "optdone": 1, 
		 "sigma_profile": "yes", 
		 "theory": "DFT", 
		 "functional": "B3LYP", 
		 "basiset": "6-31G**", 
		 "properties": { 
			 "R2extent": 4413.2054, 
			 "electric_dipole_moment_norm": 2.12202888529, 
			 "electric_quadrupole_moment_norm": 13.3158748984, 
			 "total_energy": -1491.60239819, 
			 "HOMO_LUMO_gap": 0.15651, 
			 "cosmo_polarized_energy": -14.34, 
			 "cosmo_cavitation_energy": 27.08, 
			 "cosmo_dispersion_energy": -19.97, 
			 "cosmo_repulsion_energy": 1.6, 
			 "cosmo_total_nonelectrostatic_energy": 8.71, 
			 "SMD_solvation_energy": 5.16 
		},
		"coords": [
			{
				"x": 0.0247964155,
				"y": -2.1752525556,
				"z": 0.4170885548,
				"element": "O" 
			},
			{
				"x": 0.0854445468,
				"y": -1.4268969172,
				"z": -0.7944554907,
				"element": "C" 
			},
			{
				"x": 0.0717035713,
				"y": 0.0586462471,
				"z": -0.391240875,
				"element": "C" 
			},
			{
				"x": 0.9059868954,
				"y": 0.7520685362,
				"z": -1.3174601789,
				"element": "O" 
			},
			{
				"x": -1.3129927282,
				"y": 0.6687366965,
				"z": -0.3654260955,
				"element": "C" 
			},
			{
				"x": -2.3469078096,
				"y": 0.1095146198,
				"z": -1.0250003241,
				"element": "C" 
			},
			{
				"x": -2.2009257498,
				"y": -1.1323545651,
				"z": -1.767216854,
				"element": "C" 
			},
			{
				"x": -3.5744760465,
				"y": -1.634889721,
				"z": -2.7190422047,
				"element": "Cl" 
			},
			{
				"x": -1.0513631446,
				"y": -1.8336338281,
				"z": -1.7093066154,
				"element": "C" 
			},
			{
				"x": -0.8152742951,
				"y": -3.3369820707,
				"z": -2.5551415965,
				"element": "Cl" 
			},
			{
				"x": -1.5295272991,
				"y": 1.9768226381,
				"z": 0.2927293071,
				"element": "C" 
			},
			{
				"x": -0.34880677,
				"y": 2.5380269733,
				"z": 0.6913502285,
				"element": "O" 
			},
			{
				"x": -2.594454393,
				"y": 2.5333846122,
				"z": 0.4599699638,
				"element": "O" 
			},
			{
				"x": 0.079656041,
				"y": -3.1147145527,
				"z": 0.1943374555,
				"element": "H" 
			},
			{
				"x": 1.0356143795,
				"y": -1.5924703845,
				"z": -1.3189308497,
				"element": "H" 
			},
			{
				"x": 0.5037978509,
				"y": 0.0852702961,
				"z": 0.6172297551,
				"element": "H" 
			},
			{
				"x": 1.0032539049,
				"y": 1.653521996,
				"z": -0.9794012244,
				"element": "H" 
			},
			{
				"x": -3.3138932839,
				"y": 0.6019159486,
				"z": -1.0283971094,
				"element": "H" 
			},
			{
				"x": -0.5780320857,
				"y": 3.388986031,
				"z": 1.1004141535,
				"element": "H" 
			}
		],
		 "valence_orbital": [ 
			{
				"type": "occ",
				"energy": -0.31118,
				"method": "rhf"
			},
			{
				"type": "occ",
				"energy": -0.29738,
				"method": "rhf"
			},
			{
				"type": "occ",
				"energy": -0.29077,
				"method": "rhf"
			},
			{
				"type": "occ",
				"energy": -0.28376,
				"method": "rhf"
			},
			{
				"type": "occ",
				"energy": -0.24607,
				"method": "rhf"
			},
			{
				"type": "unocc",
				"energy": -0.08956,
				"method": "rhf"
			},
			{
				"type": "unocc",
				"energy": -0.00735,
				"method": "rhf"
			},
			{
				"type": "unocc",
				"energy": 0.00517,
				"method": "rhf"
			},
			{
				"type": "unocc",
				"energy": 0.04799,
				"method": "rhf"
			},
			{
				"type": "unocc",
				"energy": 0.05652,
				"method": "rhf"
			}
		],
		"cosmo_sigma_profile": { 
			"-0.025": 0.0,
			"-0.024": 0.0,
			"-0.023": 0.0,
			"-0.022": 0.0,
			"-0.021": 0.0,
			"-0.02": 0.0,
			"-0.019": 0.450387328129,
			"-0.018": 0.930126727035,
			"-0.017": 0.852843740734,
			"-0.016": 1.36191941066,
			"-0.015": 1.57122804503,
			"-0.014": 0.957175990854,
			"-0.013": 1.13385108809,
			"-0.012": 3.33129197537,
			"-0.011": 2.6681904965,
			"-0.01": 1.89117648088,
			"-0.009": 2.1765200569,
			"-0.008": 3.17955648987,
			"-0.007": 5.30279395539,
			"-0.006": 7.09281777503,
			"-0.005": 7.2970652643,
			"-0.004": 10.9158341959,
			"-0.003": 13.5076576405,
			"-0.002": 14.7819472652,
			"-0.001": 18.5974902469,
			"0.0": 18.78570932,
			"0.001": 14.7469203793,
			"0.002": 19.0182750686,
			"0.003": 18.4621345083,
			"0.004": 11.9071313818,
			"0.005": 5.70162485823,
			"0.006": 3.51797419405,
			"0.007": 2.8511693644,
			"0.008": 3.87009445925,
			"0.009": 5.04636321618,
			"0.01": 4.29002222828,
			"0.011": 8.02106731792,
			"0.012": 4.85022558981,
			"0.013": 0.226620422647,
			"0.014": 0.0,
			"0.015": 0.0,
			"0.016": 0.0,
			"0.017": 0.0,
			"0.018": 0.0,
			"0.019": 0.0,
			"0.02": 0.0,
			"0.021": 0.0,
			"0.022": 0.0,
			"0.023": 0.0,
			"0.024": 0.0,
			"0.025": 0.0
		}
	}
}
