{
	 "smiles": "CC1CN(CC(C)O1)C1=NC=C(C=C1)C(O)=O", 
	 "Tm": 493.15, 
	 "num_atms": 33, 
	 "gaussian": { 
		 "optdone": 1, 
		 "sigma_profile": "yes", 
		 "theory": "DFT", 
		 "functional": "B3LYP", 
		 "basiset": "6-31G**", 
		 "properties": { 
			 "R2extent": 6339.972, 
			 "electric_dipole_moment_norm": 3.45786478914, 
			 "electric_quadrupole_moment_norm": 14.8954229722, 
			 "total_energy": -802.115951819, 
			 "HOMO_LUMO_gap": 0.17322, 
			 "cosmo_polarized_energy": -14.05, 
			 "cosmo_cavitation_energy": 35.12, 
			 "cosmo_dispersion_energy": -25.48, 
			 "cosmo_repulsion_energy": 1.98, 
			 "cosmo_total_nonelectrostatic_energy": 11.62, 
			 "SMD_solvation_energy": 5.91 
		},
		"coords": [
			{
				"x": -2.6185038445,
				"y": 1.1650506333,
				"z": 0.9974662054,
				"element": "C" 
			},
			{
				"x": -1.8454780742,
				"y": 1.9309138707,
				"z": -0.0818723421,
				"element": "C" 
			},
			{
				"x": -1.3265397627,
				"y": 1.0187248167,
				"z": -1.2091200807,
				"element": "C" 
			},
			{
				"x": -0.1986963354,
				"y": 0.2237667768,
				"z": -0.7388641258,
				"element": "N" 
			},
			{
				"x": 0.8771089109,
				"y": 1.0434247945,
				"z": -0.1746723005,
				"element": "C" 
			},
			{
				"x": 0.3340487407,
				"y": 1.9471286937,
				"z": 0.9338263528,
				"element": "C" 
			},
			{
				"x": 1.3730401087,
				"y": 2.945102807,
				"z": 1.4239778056,
				"element": "C" 
			},
			{
				"x": -0.7780656545,
				"y": 2.7123470981,
				"z": 0.4556810505,
				"element": "O" 
			},
			{
				"x": 0.0218529421,
				"y": -1.0871458562,
				"z": -1.0968458181,
				"element": "C" 
			},
			{
				"x": 1.1818739731,
				"y": -1.6349828855,
				"z": -0.6686168944,
				"element": "N" 
			},
			{
				"x": 1.4339619754,
				"y": -2.908201718,
				"z": -0.9505187295,
				"element": "C" 
			},
			{
				"x": 0.5739829753,
				"y": -3.7409022601,
				"z": -1.6763357791,
				"element": "C" 
			},
			{
				"x": -0.624657788,
				"y": -3.1680898748,
				"z": -2.1354089985,
				"element": "C" 
			},
			{
				"x": -0.909746156,
				"y": -1.8461011971,
				"z": -1.8560481112,
				"element": "C" 
			},
			{
				"x": 0.9658256154,
				"y": -5.1377773,
				"z": -1.9244345343,
				"element": "C" 
			},
			{
				"x": 0.0387608779,
				"y": -5.8286857417,
				"z": -2.6442995536,
				"element": "O" 
			},
			{
				"x": 1.9984481168,
				"y": -5.6587999823,
				"z": -1.5440630292,
				"element": "O" 
			},
			{
				"x": -2.8666717801,
				"y": 1.8380384404,
				"z": 1.8227331033,
				"element": "H" 
			},
			{
				"x": -2.0460265633,
				"y": 0.3222087652,
				"z": 1.3942541772,
				"element": "H" 
			},
			{
				"x": -3.552736097,
				"y": 0.7689236535,
				"z": 0.5852855649,
				"element": "H" 
			},
			{
				"x": -2.5172322547,
				"y": 2.6680896129,
				"z": -0.5370682448,
				"element": "H" 
			},
			{
				"x": -1.0146163338,
				"y": 1.6426136288,
				"z": -2.0612494949,
				"element": "H" 
			},
			{
				"x": -2.1401233944,
				"y": 0.3756653951,
				"z": -1.5432374946,
				"element": "H" 
			},
			{
				"x": 1.3114740804,
				"y": 1.6726639148,
				"z": -0.968746539,
				"element": "H" 
			},
			{
				"x": 1.6524147116,
				"y": 0.3793757251,
				"z": 0.2035171159,
				"element": "H" 
			},
			{
				"x": 0.0129024195,
				"y": 1.3109070041,
				"z": 1.7727545102,
				"element": "H" 
			},
			{
				"x": 0.9408803404,
				"y": 3.5873120406,
				"z": 2.1957224706,
				"element": "H" 
			},
			{
				"x": 1.7116731587,
				"y": 3.5815769214,
				"z": 0.6004325313,
				"element": "H" 
			},
			{
				"x": 2.2392260139,
				"y": 2.426305624,
				"z": 1.8461986265,
				"element": "H" 
			},
			{
				"x": 2.3761115165,
				"y": -3.3124028219,
				"z": -0.58684192,
				"element": "H" 
			},
			{
				"x": -1.3209577385,
				"y": -3.7650958897,
				"z": -2.7145097596,
				"element": "H" 
			},
			{
				"x": -1.8280328414,
				"y": -1.41173007,
				"z": -2.2284326958,
				"element": "H" 
			},
			{
				"x": 0.4035981412,
				"y": -6.7231246194,
				"z": -2.7429630685,
				"element": "H" 
			}
		],
		 "valence_orbital": [ 
			{
				"type": "occ",
				"energy": -0.2868,
				"method": "rhf"
			},
			{
				"type": "occ",
				"energy": -0.27225,
				"method": "rhf"
			},
			{
				"type": "occ",
				"energy": -0.26151,
				"method": "rhf"
			},
			{
				"type": "occ",
				"energy": -0.2551,
				"method": "rhf"
			},
			{
				"type": "occ",
				"energy": -0.2097,
				"method": "rhf"
			},
			{
				"type": "unocc",
				"energy": -0.03648,
				"method": "rhf"
			},
			{
				"type": "unocc",
				"energy": -0.02054,
				"method": "rhf"
			},
			{
				"type": "unocc",
				"energy": 0.06072,
				"method": "rhf"
			},
			{
				"type": "unocc",
				"energy": 0.07708,
				"method": "rhf"
			},
			{
				"type": "unocc",
				"energy": 0.08558,
				"method": "rhf"
			}
		],
		"cosmo_sigma_profile": { 
			"-0.025": 0.0,
			"-0.024": 0.0,
			"-0.023": 0.0,
			"-0.022": 0.0,
			"-0.021": 0.0,
			"-0.02": 0.0,
			"-0.019": 0.0148772616662,
			"-0.018": 0.447324588623,
			"-0.017": 0.767780850643,
			"-0.016": 1.21806334756,
			"-0.015": 0.727010953008,
			"-0.014": 0.273314494068,
			"-0.013": 0.478450960627,
			"-0.012": 0.490931857328,
			"-0.011": 1.02557409222,
			"-0.01": 0.822602291811,
			"-0.009": 1.90562717343,
			"-0.008": 2.54090522015,
			"-0.007": 3.63761586336,
			"-0.006": 6.06918050151,
			"-0.005": 12.6419422217,
			"-0.004": 28.2235592416,
			"-0.003": 28.6242787511,
			"-0.002": 23.7243540856,
			"-0.001": 26.7218269825,
			"0.0": 27.9963630777,
			"0.001": 25.0475973184,
			"0.002": 17.7697184438,
			"0.003": 12.1269666519,
			"0.004": 7.8016043178,
			"0.005": 6.53552773462,
			"0.006": 4.64687975209,
			"0.007": 6.2924948388,
			"0.008": 5.91156899919,
			"0.009": 3.91634155812,
			"0.01": 4.14613104356,
			"0.011": 3.08848681855,
			"0.012": 7.60707754645,
			"0.013": 2.94246441312,
			"0.014": 0.122744766215,
			"0.015": 0.0,
			"0.016": 0.0,
			"0.017": 0.0,
			"0.018": 0.0,
			"0.019": 0.0,
			"0.02": 0.0,
			"0.021": 0.0,
			"0.022": 0.0,
			"0.023": 0.0,
			"0.024": 0.0,
			"0.025": 0.0
		}
	}
}
