{
	 "smiles": "CCCC(CN1C=NC=N1)C1=CC=C(Cl)C=C1Cl", 
	 "Tm": 333.45, 
	 "num_atms": 33, 
	 "gaussian": { 
		 "optdone": 1, 
		 "sigma_profile": "yes", 
		 "theory": "DFT", 
		 "functional": "B3LYP", 
		 "basiset": "6-31G**", 
		 "properties": { 
			 "R2extent": 6574.5725, 
			 "electric_dipole_moment_norm": 3.26967700545, 
			 "electric_quadrupole_moment_norm": 11.0746579135, 
			 "total_energy": -1589.05824277, 
			 "HOMO_LUMO_gap": 0.2212, 
			 "cosmo_polarized_energy": -13.13, 
			 "cosmo_cavitation_energy": 39.31, 
			 "cosmo_dispersion_energy": -26.61, 
			 "cosmo_repulsion_energy": 2.09, 
			 "cosmo_total_nonelectrostatic_energy": 14.8, 
			 "SMD_solvation_energy": 3.84 
		},
		"coords": [
			{
				"x": -3.7635158821,
				"y": 0.2408458458,
				"z": -0.6009870533,
				"element": "C" 
			},
			{
				"x": -2.2861610648,
				"y": 0.6270190695,
				"z": -0.4770379477,
				"element": "C" 
			},
			{
				"x": -1.5622647,
				"y": -0.1486454619,
				"z": 0.6323821578,
				"element": "C" 
			},
			{
				"x": -0.0859982688,
				"y": 0.2527544304,
				"z": 0.8266204795,
				"element": "C" 
			},
			{
				"x": 0.5185083116,
				"y": -0.3643169091,
				"z": 2.1174820151,
				"element": "C" 
			},
			{
				"x": 0.5669002831,
				"y": -1.8201726278,
				"z": 2.1481925131,
				"element": "N" 
			},
			{
				"x": -0.3516365296,
				"y": -2.7048716789,
				"z": 2.6066062553,
				"element": "C" 
			},
			{
				"x": 0.0725459212,
				"y": -3.9462661222,
				"z": 2.4415387124,
				"element": "N" 
			},
			{
				"x": 1.2926237463,
				"y": -3.7616586424,
				"z": 1.8629670981,
				"element": "C" 
			},
			{
				"x": 1.6420110097,
				"y": -2.4983403358,
				"z": 1.6642950759,
				"element": "N" 
			},
			{
				"x": 0.8036208745,
				"y": 0.0081055756,
				"z": -0.3854610521,
				"element": "C" 
			},
			{
				"x": 0.6424795307,
				"y": -1.1224540339,
				"z": -1.2006739017,
				"element": "C" 
			},
			{
				"x": 1.4524135447,
				"y": -1.3742814939,
				"z": -2.3045125614,
				"element": "C" 
			},
			{
				"x": 2.467278728,
				"y": -0.4722315601,
				"z": -2.6144715217,
				"element": "C" 
			},
			{
				"x": 3.4990776172,
				"y": -0.7601447229,
				"z": -4.004024885,
				"element": "Cl" 
			},
			{
				"x": 2.6777775906,
				"y": 0.6609883233,
				"z": -1.8347044575,
				"element": "C" 
			},
			{
				"x": 1.8476285758,
				"y": 0.8802075247,
				"z": -0.735462432,
				"element": "C" 
			},
			{
				"x": 2.1773389549,
				"y": 2.3264258273,
				"z": 0.2233111735,
				"element": "Cl" 
			},
			{
				"x": -4.3061108523,
				"y": 0.4337770666,
				"z": 0.3315656764,
				"element": "H" 
			},
			{
				"x": -3.8779045767,
				"y": -0.8236608635,
				"z": -0.8352340465,
				"element": "H" 
			},
			{
				"x": -4.2565024427,
				"y": 0.8097698242,
				"z": -1.3954308566,
				"element": "H" 
			},
			{
				"x": -1.780572199,
				"y": 0.4570353608,
				"z": -1.4346825738,
				"element": "H" 
			},
			{
				"x": -2.2025248084,
				"y": 1.7033050861,
				"z": -0.2755353146,
				"element": "H" 
			},
			{
				"x": -2.0831001021,
				"y": 0.0303870988,
				"z": 1.5836530585,
				"element": "H" 
			},
			{
				"x": -1.6512160038,
				"y": -1.226224837,
				"z": 0.4464763349,
				"element": "H" 
			},
			{
				"x": -0.0752533583,
				"y": 1.330932999,
				"z": 1.0215100104,
				"element": "H" 
			},
			{
				"x": 1.5416570399,
				"y": -0.0119707982,
				"z": 2.2595787702,
				"element": "H" 
			},
			{
				"x": -0.0762240886,
				"y": -0.0401034281,
				"z": 2.9774119634,
				"element": "H" 
			},
			{
				"x": -1.2888873872,
				"y": -2.4013065483,
				"z": 3.0525184134,
				"element": "H" 
			},
			{
				"x": 1.9458813268,
				"y": -4.5781595057,
				"z": 1.5872214263,
				"element": "H" 
			},
			{
				"x": -0.1407282199,
				"y": -1.8345230138,
				"z": -0.9649245702,
				"element": "H" 
			},
			{
				"x": 1.3008134212,
				"y": -2.2583773116,
				"z": -2.9129118942,
				"element": "H" 
			},
			{
				"x": 3.469044008,
				"y": 1.3606558631,
				"z": -2.072976066,
				"element": "H" 
			}
		],
		 "valence_orbital": [ 
			{
				"type": "occ",
				"energy": -0.2887,
				"method": "rhf"
			},
			{
				"type": "occ",
				"energy": -0.27588,
				"method": "rhf"
			},
			{
				"type": "occ",
				"energy": -0.26898,
				"method": "rhf"
			},
			{
				"type": "occ",
				"energy": -0.26163,
				"method": "rhf"
			},
			{
				"type": "occ",
				"energy": -0.24778,
				"method": "rhf"
			},
			{
				"type": "unocc",
				"energy": -0.02658,
				"method": "rhf"
			},
			{
				"type": "unocc",
				"energy": -0.02605,
				"method": "rhf"
			},
			{
				"type": "unocc",
				"energy": 0.00322,
				"method": "rhf"
			},
			{
				"type": "unocc",
				"energy": 0.00374,
				"method": "rhf"
			},
			{
				"type": "unocc",
				"energy": 0.04621,
				"method": "rhf"
			}
		],
		"cosmo_sigma_profile": { 
			"-0.025": 0.0,
			"-0.024": 0.0,
			"-0.023": 0.0,
			"-0.022": 0.0,
			"-0.021": 0.0,
			"-0.02": 0.0,
			"-0.019": 0.0,
			"-0.018": 0.0,
			"-0.017": 0.0,
			"-0.016": 0.0,
			"-0.015": 0.0,
			"-0.014": 0.0,
			"-0.013": 0.0,
			"-0.012": 0.0,
			"-0.011": 0.00669769748589,
			"-0.01": 1.44774749174,
			"-0.009": 3.30607310328,
			"-0.008": 6.48210241087,
			"-0.007": 12.0600616805,
			"-0.006": 11.6366574467,
			"-0.005": 14.1029802447,
			"-0.004": 15.4823966166,
			"-0.003": 22.7096949251,
			"-0.002": 28.5624558194,
			"-0.001": 29.7489461836,
			"0.0": 31.6376440003,
			"0.001": 36.0332097185,
			"0.002": 28.7084100332,
			"0.003": 19.967874119,
			"0.004": 19.8171509914,
			"0.005": 9.27997316073,
			"0.006": 2.36808972306,
			"0.007": 3.16059761086,
			"0.008": 3.70348789099,
			"0.009": 2.64486131095,
			"0.01": 1.98452258832,
			"0.011": 2.30214065857,
			"0.012": 1.97806979855,
			"0.013": 2.25412758218,
			"0.014": 2.08738977269,
			"0.015": 0.834753747718,
			"0.016": 1.30716537924,
			"0.017": 0.427256181831,
			"0.018": 0.0,
			"0.019": 0.0,
			"0.02": 0.0,
			"0.021": 0.0,
			"0.022": 0.0,
			"0.023": 0.0,
			"0.024": 0.0,
			"0.025": 0.0
		}
	}
}
