{
	 "smiles": "CC(C)C(=O)C1=CC2=C(NC(=O)O2)C=C1", 
	 "Tm": 462.15, 
	 "num_atms": 26, 
	 "gaussian": { 
		 "optdone": 1, 
		 "sigma_profile": "yes", 
		 "theory": "DFT", 
		 "functional": "B3LYP", 
		 "basiset": "6-31G**", 
		 "properties": { 
			 "R2extent": 6217.4649, 
			 "electric_dipole_moment_norm": 5.8575105574, 
			 "electric_quadrupole_moment_norm": 32.7162956011, 
			 "total_energy": -706.252589137, 
			 "HOMO_LUMO_gap": 0.178, 
			 "cosmo_polarized_energy": -17.0, 
			 "cosmo_cavitation_energy": 30.09, 
			 "cosmo_dispersion_energy": -22.05, 
			 "cosmo_repulsion_energy": 1.72, 
			 "cosmo_total_nonelectrostatic_energy": 9.76, 
			 "SMD_solvation_energy": 6.95 
		},
		"coords": [
			{
				"x": 1.693595352,
				"y": -1.7429877243,
				"z": -0.8095134911,
				"element": "C" 
			},
			{
				"x": 1.0724948912,
				"y": -0.3855030729,
				"z": -0.4619966169,
				"element": "C" 
			},
			{
				"x": 1.653467953,
				"y": 0.1758298846,
				"z": 0.8554254803,
				"element": "C" 
			},
			{
				"x": -0.4503080859,
				"y": -0.5039468401,
				"z": -0.3269397977,
				"element": "C" 
			},
			{
				"x": -0.9615146039,
				"y": -1.5739864994,
				"z": -0.0261329437,
				"element": "O" 
			},
			{
				"x": -1.3189475814,
				"y": 0.7052546241,
				"z": -0.5237414983,
				"element": "C" 
			},
			{
				"x": -2.7054572849,
				"y": 0.5283258479,
				"z": -0.317512869,
				"element": "C" 
			},
			{
				"x": -3.5140460414,
				"y": 1.6245483775,
				"z": -0.4961655169,
				"element": "C" 
			},
			{
				"x": -3.0132045075,
				"y": 2.8818085542,
				"z": -0.8673438246,
				"element": "C" 
			},
			{
				"x": -4.1234657731,
				"y": 3.7072788824,
				"z": -0.9442594324,
				"element": "N" 
			},
			{
				"x": -5.280525296,
				"y": 3.002229492,
				"z": -0.6343695564,
				"element": "C" 
			},
			{
				"x": -6.4165916572,
				"y": 3.3911521794,
				"z": -0.5992750198,
				"element": "O" 
			},
			{
				"x": -4.8835121163,
				"y": 1.6994817952,
				"z": -0.3558915803,
				"element": "O" 
			},
			{
				"x": -1.6536809436,
				"y": 3.0746419595,
				"z": -1.0738407706,
				"element": "C" 
			},
			{
				"x": -0.8184555167,
				"y": 1.9652910072,
				"z": -0.8963947022,
				"element": "C" 
			},
			{
				"x": 1.3144607742,
				"y": -2.1213397442,
				"z": -1.7634679111,
				"element": "H" 
			},
			{
				"x": 1.4517671597,
				"y": -2.4829620589,
				"z": -0.0429834936,
				"element": "H" 
			},
			{
				"x": 2.7820779295,
				"y": -1.6543486923,
				"z": -0.8838824781,
				"element": "H" 
			},
			{
				"x": 1.3020687565,
				"y": 0.3220275369,
				"z": -1.2680258605,
				"element": "H" 
			},
			{
				"x": 1.2318352589,
				"y": 1.1528988808,
				"z": 1.1097673972,
				"element": "H" 
			},
			{
				"x": 2.7395999263,
				"y": 0.2844342497,
				"z": 0.7733905135,
				"element": "H" 
			},
			{
				"x": 1.4427110094,
				"y": -0.5083353182,
				"z": 1.6838494923,
				"element": "H" 
			},
			{
				"x": -3.0868490177,
				"y": -0.4444111562,
				"z": -0.0316714649,
				"element": "H" 
			},
			{
				"x": -4.1521133024,
				"y": 4.6853340493,
				"z": -1.1847669427,
				"element": "H" 
			},
			{
				"x": -1.2509553778,
				"y": 4.0397629826,
				"z": -1.361903439,
				"element": "H" 
			},
			{
				"x": 0.2452480951,
				"y": 2.0988208033,
				"z": -1.0546536732,
				"element": "H" 
			}
		],
		 "valence_orbital": [ 
			{
				"type": "occ",
				"energy": -0.32473,
				"method": "rhf"
			},
			{
				"type": "occ",
				"energy": -0.30055,
				"method": "rhf"
			},
			{
				"type": "occ",
				"energy": -0.26658,
				"method": "rhf"
			},
			{
				"type": "occ",
				"energy": -0.2503,
				"method": "rhf"
			},
			{
				"type": "occ",
				"energy": -0.23856,
				"method": "rhf"
			},
			{
				"type": "unocc",
				"energy": -0.06056,
				"method": "rhf"
			},
			{
				"type": "unocc",
				"energy": -0.0227,
				"method": "rhf"
			},
			{
				"type": "unocc",
				"energy": 0.0308,
				"method": "rhf"
			},
			{
				"type": "unocc",
				"energy": 0.04451,
				"method": "rhf"
			},
			{
				"type": "unocc",
				"energy": 0.06352,
				"method": "rhf"
			}
		],
		"cosmo_sigma_profile": { 
			"-0.025": 0.0,
			"-0.024": 0.0,
			"-0.023": 0.0,
			"-0.022": 0.0,
			"-0.021": 0.0,
			"-0.02": 0.0,
			"-0.019": 0.0,
			"-0.018": 0.675576392221,
			"-0.017": 1.58080438778,
			"-0.016": 1.41921148995,
			"-0.015": 1.12285337313,
			"-0.014": 0.77557000758,
			"-0.013": 1.27041361251,
			"-0.012": 1.26300582839,
			"-0.011": 1.10125570564,
			"-0.01": 0.780926512313,
			"-0.009": 1.87224262751,
			"-0.008": 3.48904457785,
			"-0.007": 5.9042852357,
			"-0.006": 6.76560505061,
			"-0.005": 9.76456181826,
			"-0.004": 11.8051042813,
			"-0.003": 22.584633081,
			"-0.002": 24.0444428785,
			"-0.001": 24.415458167,
			"0.0": 21.7600733383,
			"0.001": 23.4891205907,
			"0.002": 15.7439759524,
			"0.003": 9.40091718585,
			"0.004": 4.28579570654,
			"0.005": 4.02042429671,
			"0.006": 4.61992305055,
			"0.007": 4.7659802499,
			"0.008": 4.6321753751,
			"0.009": 4.15805861887,
			"0.01": 3.90627120876,
			"0.011": 8.97053717522,
			"0.012": 7.70454481336,
			"0.013": 1.24722859956,
			"0.014": 0.0,
			"0.015": 0.0,
			"0.016": 0.0,
			"0.017": 0.0,
			"0.018": 0.0,
			"0.019": 0.0,
			"0.02": 0.0,
			"0.021": 0.0,
			"0.022": 0.0,
			"0.023": 0.0,
			"0.024": 0.0,
			"0.025": 0.0
		}
	}
}
