{
	 "smiles": "ClCCNC(=O)N(CCCl)N=O", 
	 "Tm": 304.15, 
	 "num_atms": 21, 
	 "gaussian": { 
		 "optdone": 1, 
		 "sigma_profile": "yes", 
		 "theory": "DFT", 
		 "functional": "B3LYP", 
		 "basiset": "6-31G**", 
		 "properties": { 
			 "R2extent": 3852.4321, 
			 "electric_dipole_moment_norm": 1.36637846514, 
			 "electric_quadrupole_moment_norm": 13.7065312479, 
			 "total_energy": -1430.9866256, 
			 "HOMO_LUMO_gap": 0.18024, 
			 "cosmo_polarized_energy": -14.62, 
			 "cosmo_cavitation_energy": 28.87, 
			 "cosmo_dispersion_energy": -20.32, 
			 "cosmo_repulsion_energy": 1.68, 
			 "cosmo_total_nonelectrostatic_energy": 10.23, 
			 "SMD_solvation_energy": 5.53 
		},
		"coords": [
			{
				"x": -2.6632258073,
				"y": 0.7388689631,
				"z": -2.3084423777,
				"element": "Cl" 
			},
			{
				"x": -1.7310189629,
				"y": -0.3392675708,
				"z": -1.190110748,
				"element": "C" 
			},
			{
				"x": -0.2486975687,
				"y": -0.3248337243,
				"z": -1.5632757363,
				"element": "C" 
			},
			{
				"x": 0.5144802606,
				"y": -1.2574323958,
				"z": -0.7358490668,
				"element": "N" 
			},
			{
				"x": 1.4711794323,
				"y": -1.0267537634,
				"z": 0.2078908533,
				"element": "C" 
			},
			{
				"x": 2.2798603036,
				"y": -1.869118465,
				"z": 0.5569019989,
				"element": "O" 
			},
			{
				"x": 1.49505169,
				"y": 0.2760359453,
				"z": 0.814817842,
				"element": "N" 
			},
			{
				"x": 2.7050931769,
				"y": 0.7256060426,
				"z": 1.5073508089,
				"element": "C" 
			},
			{
				"x": 3.3554164028,
				"y": 1.9342527709,
				"z": 0.8436642755,
				"element": "C" 
			},
			{
				"x": 3.9207998594,
				"y": 1.5684000008,
				"z": -0.8400755272,
				"element": "Cl" 
			},
			{
				"x": 0.3082024349,
				"y": 0.9118582266,
				"z": 1.0052802519,
				"element": "N" 
			},
			{
				"x": 0.3832757365,
				"y": 1.9251087596,
				"z": 1.6794100087,
				"element": "O" 
			},
			{
				"x": -1.876630064,
				"y": 0.0309864174,
				"z": -0.1767192942,
				"element": "H" 
			},
			{
				"x": -2.1571394926,
				"y": -1.3396605214,
				"z": -1.2849690391,
				"element": "H" 
			},
			{
				"x": -0.1289946776,
				"y": -0.6169408555,
				"z": -2.6115975304,
				"element": "H" 
			},
			{
				"x": 0.1564686492,
				"y": 0.6811930768,
				"z": -1.4582646973,
				"element": "H" 
			},
			{
				"x": 0.571435429,
				"y": -2.2131193626,
				"z": -1.0623768478,
				"element": "H" 
			},
			{
				"x": 3.3785409321,
				"y": -0.1293067964,
				"z": 1.5423430232,
				"element": "H" 
			},
			{
				"x": 2.4208646972,
				"y": 1.0121557009,
				"z": 2.5256126636,
				"element": "H" 
			},
			{
				"x": 4.234727131,
				"y": 2.2381060589,
				"z": 1.4137981386,
				"element": "H" 
			},
			{
				"x": 2.6617104377,
				"y": 2.7701614923,
				"z": 0.7716110003,
				"element": "H" 
			}
		],
		 "valence_orbital": [ 
			{
				"type": "occ",
				"energy": -0.30292,
				"method": "rhf"
			},
			{
				"type": "occ",
				"energy": -0.30072,
				"method": "rhf"
			},
			{
				"type": "occ",
				"energy": -0.2963,
				"method": "rhf"
			},
			{
				"type": "occ",
				"energy": -0.27951,
				"method": "rhf"
			},
			{
				"type": "occ",
				"energy": -0.25948,
				"method": "rhf"
			},
			{
				"type": "unocc",
				"energy": -0.07924,
				"method": "rhf"
			},
			{
				"type": "unocc",
				"energy": 0.00939,
				"method": "rhf"
			},
			{
				"type": "unocc",
				"energy": 0.01523,
				"method": "rhf"
			},
			{
				"type": "unocc",
				"energy": 0.02581,
				"method": "rhf"
			},
			{
				"type": "unocc",
				"energy": 0.06885,
				"method": "rhf"
			}
		],
		"cosmo_sigma_profile": { 
			"-0.025": 0.0,
			"-0.024": 0.0,
			"-0.023": 0.0,
			"-0.022": 0.0,
			"-0.021": 0.0,
			"-0.02": 0.0,
			"-0.019": 0.0,
			"-0.018": 0.0,
			"-0.017": 0.0,
			"-0.016": 0.153164384207,
			"-0.015": 1.19512444449,
			"-0.014": 1.28686315748,
			"-0.013": 0.955327049949,
			"-0.012": 1.05913798498,
			"-0.011": 1.24274498092,
			"-0.01": 1.61887027372,
			"-0.009": 2.02914794492,
			"-0.008": 7.47587453314,
			"-0.007": 13.0880926184,
			"-0.006": 14.9099660438,
			"-0.005": 15.8020189157,
			"-0.004": 14.0229417663,
			"-0.003": 13.2304493629,
			"-0.002": 9.87215479591,
			"-0.001": 11.6539593265,
			"0.0": 13.4522359104,
			"0.001": 13.4997957873,
			"0.002": 12.4484493408,
			"0.003": 9.43620033412,
			"0.004": 12.3432441835,
			"0.005": 15.6973907481,
			"0.006": 19.7778667636,
			"0.007": 7.44339061208,
			"0.008": 4.3026998087,
			"0.009": 3.10933627954,
			"0.01": 3.10853671092,
			"0.011": 3.40234304025,
			"0.012": 4.47920108099,
			"0.013": 0.54906412738,
			"0.014": 0.0,
			"0.015": 0.0,
			"0.016": 0.0,
			"0.017": 0.0,
			"0.018": 0.0,
			"0.019": 0.0,
			"0.02": 0.0,
			"0.021": 0.0,
			"0.022": 0.0,
			"0.023": 0.0,
			"0.024": 0.0,
			"0.025": 0.0
		}
	}
}
