{
	 "smiles": "CNC1=NC2=C(C=CC=C2)C=C1", 
	 "Tm": 343.15, 
	 "num_atms": 22, 
	 "gaussian": { 
		 "optdone": 1, 
		 "sigma_profile": "yes", 
		 "theory": "DFT", 
		 "functional": "B3LYP", 
		 "basiset": "6-31G**", 
		 "properties": { 
			 "R2extent": 2415.8476, 
			 "electric_dipole_moment_norm": 2.3361730715, 
			 "electric_quadrupole_moment_norm": 11.1020180756, 
			 "total_energy": -496.609638997, 
			 "HOMO_LUMO_gap": 0.1597, 
			 "cosmo_polarized_energy": -9.11, 
			 "cosmo_cavitation_energy": 25.36, 
			 "cosmo_dispersion_energy": -19.18, 
			 "cosmo_repulsion_energy": 1.51, 
			 "cosmo_total_nonelectrostatic_energy": 7.69, 
			 "SMD_solvation_energy": 2.13 
		},
		"coords": [
			{
				"x": -3.2112047241,
				"y": 0.547714413,
				"z": -1.8703296307,
				"element": "C" 
			},
			{
				"x": -2.19905499,
				"y": -0.3288445703,
				"z": -1.3225718467,
				"element": "N" 
			},
			{
				"x": -0.9252050532,
				"y": 0.0597364789,
				"z": -0.9857840744,
				"element": "C" 
			},
			{
				"x": -0.2225841088,
				"y": -0.8054301647,
				"z": -0.2652245361,
				"element": "N" 
			},
			{
				"x": 1.0565269123,
				"y": -0.4866746268,
				"z": 0.0701737929,
				"element": "C" 
			},
			{
				"x": 1.6745509525,
				"y": 0.7464542118,
				"z": -0.3142368331,
				"element": "C" 
			},
			{
				"x": 3.0109752297,
				"y": 1.0133632532,
				"z": 0.0739400903,
				"element": "C" 
			},
			{
				"x": 3.7215867746,
				"y": 0.0960174159,
				"z": 0.81798435,
				"element": "C" 
			},
			{
				"x": 3.1132775381,
				"y": -1.124480841,
				"z": 1.2002777645,
				"element": "C" 
			},
			{
				"x": 1.8149175652,
				"y": -1.4114946502,
				"z": 0.8379122935,
				"element": "C" 
			},
			{
				"x": 0.884544606,
				"y": 1.6473754518,
				"z": -1.0774424821,
				"element": "C" 
			},
			{
				"x": -0.40194646,
				"y": 1.322979814,
				"z": -1.4167042911,
				"element": "C" 
			},
			{
				"x": -2.925502843,
				"y": 0.9190516328,
				"z": -2.8618996603,
				"element": "H" 
			},
			{
				"x": -4.1359744607,
				"y": -0.0204271752,
				"z": -1.9897871932,
				"element": "H" 
			},
			{
				"x": -3.4250176148,
				"y": 1.4163361827,
				"z": -1.229543132,
				"element": "H" 
			},
			{
				"x": -2.4938862361,
				"y": -1.1725268741,
				"z": -0.8531853853,
				"element": "H" 
			},
			{
				"x": 3.4664563648,
				"y": 1.9544998151,
				"z": -0.2257500435,
				"element": "H" 
			},
			{
				"x": 4.7456956324,
				"y": 0.3047889602,
				"z": 1.1126068763,
				"element": "H" 
			},
			{
				"x": 3.6804414512,
				"y": -1.8422389186,
				"z": 1.7867857292,
				"element": "H" 
			},
			{
				"x": 1.33566157,
				"y": -2.3425077989,
				"z": 1.1232423731,
				"element": "H" 
			},
			{
				"x": 1.3112598354,
				"y": 2.5979843926,
				"z": -1.3888526486,
				"element": "H" 
			},
			{
				"x": -1.0120179417,
				"y": 2.0036235978,
				"z": -1.9993115124,
				"element": "H" 
			}
		],
		 "valence_orbital": [ 
			{
				"type": "occ",
				"energy": -0.296,
				"method": "rhf"
			},
			{
				"type": "occ",
				"energy": -0.27301,
				"method": "rhf"
			},
			{
				"type": "occ",
				"energy": -0.24772,
				"method": "rhf"
			},
			{
				"type": "occ",
				"energy": -0.22611,
				"method": "rhf"
			},
			{
				"type": "occ",
				"energy": -0.19661,
				"method": "rhf"
			},
			{
				"type": "unocc",
				"energy": -0.03691,
				"method": "rhf"
			},
			{
				"type": "unocc",
				"energy": 0.00617,
				"method": "rhf"
			},
			{
				"type": "unocc",
				"energy": 0.03469,
				"method": "rhf"
			},
			{
				"type": "unocc",
				"energy": 0.08984,
				"method": "rhf"
			},
			{
				"type": "unocc",
				"energy": 0.09892,
				"method": "rhf"
			}
		],
		"cosmo_sigma_profile": { 
			"-0.025": 0.0,
			"-0.024": 0.0,
			"-0.023": 0.0,
			"-0.022": 0.0,
			"-0.021": 0.0,
			"-0.02": 0.0,
			"-0.019": 0.0,
			"-0.018": 0.0,
			"-0.017": 0.0,
			"-0.016": 0.0,
			"-0.015": 0.0,
			"-0.014": 0.0,
			"-0.013": 0.248822160932,
			"-0.012": 0.848350186253,
			"-0.011": 1.37706956669,
			"-0.01": 0.721488251385,
			"-0.009": 0.799173278518,
			"-0.008": 1.2252936683,
			"-0.007": 2.86223356435,
			"-0.006": 10.6373966122,
			"-0.005": 16.9766819451,
			"-0.004": 18.3572436259,
			"-0.003": 18.0305773676,
			"-0.002": 17.0390827959,
			"-0.001": 12.5497389408,
			"0.0": 9.89510040983,
			"0.001": 9.98250553194,
			"0.002": 13.0614230804,
			"0.003": 16.7932386962,
			"0.004": 17.0538121444,
			"0.005": 13.4944621375,
			"0.006": 7.99156633519,
			"0.007": 2.70033238866,
			"0.008": 2.60996641069,
			"0.009": 1.09293499612,
			"0.01": 0.922698019722,
			"0.011": 1.06525072658,
			"0.012": 0.988432874003,
			"0.013": 1.18658931868,
			"0.014": 0.993485268989,
			"0.015": 0.747213099449,
			"0.016": 0.0752109246491,
			"0.017": 0.0,
			"0.018": 0.0,
			"0.019": 0.0,
			"0.02": 0.0,
			"0.021": 0.0,
			"0.022": 0.0,
			"0.023": 0.0,
			"0.024": 0.0,
			"0.025": 0.0
		}
	}
}
