{
	 "smiles": "CCC1=C(C=C(C=C1)S(Cl)(=O)=O)C(O)=O", 
	 "Tm": 407.15, 
	 "num_atms": 24, 
	 "gaussian": { 
		 "optdone": 1, 
		 "sigma_profile": "yes", 
		 "theory": "DFT", 
		 "functional": "B3LYP", 
		 "basiset": "6-31G**", 
		 "properties": { 
			 "R2extent": 5350.0695, 
			 "electric_dipole_moment_norm": 6.72629089915, 
			 "electric_quadrupole_moment_norm": 16.804986861, 
			 "total_energy": -1507.59850449, 
			 "HOMO_LUMO_gap": 0.18881, 
			 "cosmo_polarized_energy": -18.77, 
			 "cosmo_cavitation_energy": 32.12, 
			 "cosmo_dispersion_energy": -22.98, 
			 "cosmo_repulsion_energy": 1.79, 
			 "cosmo_total_nonelectrostatic_energy": 10.93, 
			 "SMD_solvation_energy": 5.22 
		},
		"coords": [
			{
				"x": 1.1283698924,
				"y": -2.5039373232,
				"z": -1.5102624054,
				"element": "C" 
			},
			{
				"x": -0.114121419,
				"y": -1.5937485816,
				"z": -1.5916333927,
				"element": "C" 
			},
			{
				"x": -0.0036014466,
				"y": -0.4067901086,
				"z": -0.6536402799,
				"element": "C" 
			},
			{
				"x": -0.3557077968,
				"y": -0.4738242441,
				"z": 0.7134545092,
				"element": "C" 
			},
			{
				"x": -0.0914824746,
				"y": 0.6018384553,
				"z": 1.5693082045,
				"element": "C" 
			},
			{
				"x": 0.466697648,
				"y": 1.7624314413,
				"z": 1.0452535046,
				"element": "C" 
			},
			{
				"x": 0.7990176968,
				"y": 1.8757288611,
				"z": -0.3050336938,
				"element": "C" 
			},
			{
				"x": 0.5690319738,
				"y": 0.7826087026,
				"z": -1.1333282696,
				"element": "C" 
			},
			{
				"x": 0.7459624822,
				"y": 3.1573332699,
				"z": 2.1275240685,
				"element": "S" 
			},
			{
				"x": 2.7332523676,
				"y": 2.7800159308,
				"z": 2.7936345044,
				"element": "Cl" 
			},
			{
				"x": 0.8091541979,
				"y": 4.3737490983,
				"z": 1.326915563,
				"element": "O" 
			},
			{
				"x": -0.110241052,
				"y": 3.0360670576,
				"z": 3.299969454,
				"element": "O" 
			},
			{
				"x": -0.9725003288,
				"y": -1.6920228164,
				"z": 1.3574273111,
				"element": "C" 
			},
			{
				"x": -2.1262637755,
				"y": -2.1490532225,
				"z": 0.8005614349,
				"element": "O" 
			},
			{
				"x": -0.5084516585,
				"y": -2.2305699298,
				"z": 2.3299388645,
				"element": "O" 
			},
			{
				"x": 1.2515957239,
				"y": -2.9123945313,
				"z": -0.5028141227,
				"element": "H" 
			},
			{
				"x": 1.0316965949,
				"y": -3.3415670953,
				"z": -2.2072692809,
				"element": "H" 
			},
			{
				"x": 2.0381889742,
				"y": -1.9509833159,
				"z": -1.7629206356,
				"element": "H" 
			},
			{
				"x": -0.2308111045,
				"y": -1.2256887709,
				"z": -2.6165134131,
				"element": "H" 
			},
			{
				"x": -0.9990749234,
				"y": -2.1945987403,
				"z": -1.3674537802,
				"element": "H" 
			},
			{
				"x": -0.333948763,
				"y": 0.5300231491,
				"z": 2.6237606119,
				"element": "H" 
			},
			{
				"x": 1.2229425404,
				"y": 2.7962186455,
				"z": -0.6903639238,
				"element": "H" 
			},
			{
				"x": 0.841968172,
				"y": 0.8473888397,
				"z": -2.18281814,
				"element": "H" 
			},
			{
				"x": -2.4369735214,
				"y": -1.5272247714,
				"z": 0.126603307,
				"element": "H" 
			}
		],
		 "valence_orbital": [ 
			{
				"type": "occ",
				"energy": -0.33528,
				"method": "rhf"
			},
			{
				"type": "occ",
				"energy": -0.31762,
				"method": "rhf"
			},
			{
				"type": "occ",
				"energy": -0.30895,
				"method": "rhf"
			},
			{
				"type": "occ",
				"energy": -0.29363,
				"method": "rhf"
			},
			{
				"type": "occ",
				"energy": -0.28474,
				"method": "rhf"
			},
			{
				"type": "unocc",
				"energy": -0.09593,
				"method": "rhf"
			},
			{
				"type": "unocc",
				"energy": -0.06648,
				"method": "rhf"
			},
			{
				"type": "unocc",
				"energy": -0.05303,
				"method": "rhf"
			},
			{
				"type": "unocc",
				"energy": -0.00023,
				"method": "rhf"
			},
			{
				"type": "unocc",
				"energy": 0.04081,
				"method": "rhf"
			}
		],
		"cosmo_sigma_profile": { 
			"-0.025": 0.0,
			"-0.024": 0.0,
			"-0.023": 0.0,
			"-0.022": 0.0,
			"-0.021": 0.0,
			"-0.02": 0.0827941346104,
			"-0.019": 0.662935655319,
			"-0.018": 0.806776111917,
			"-0.017": 1.169435044,
			"-0.016": 0.971991510625,
			"-0.015": 1.20676222159,
			"-0.014": 0.812222027466,
			"-0.013": 0.870224545976,
			"-0.012": 0.735291354415,
			"-0.011": 0.843912947815,
			"-0.01": 1.04559352508,
			"-0.009": 2.02024265578,
			"-0.008": 6.09598946582,
			"-0.007": 9.4291375744,
			"-0.006": 9.15192531789,
			"-0.005": 9.24593133114,
			"-0.004": 15.6226193798,
			"-0.003": 21.9718435334,
			"-0.002": 23.135475051,
			"-0.001": 23.0098558885,
			"0.0": 24.3311562382,
			"0.001": 14.7144086429,
			"0.002": 11.9202340706,
			"0.003": 15.9371528366,
			"0.004": 9.14885415115,
			"0.005": 6.20324458961,
			"0.006": 4.97327904388,
			"0.007": 9.2200148305,
			"0.008": 12.2710131005,
			"0.009": 8.08848391572,
			"0.01": 5.11399981369,
			"0.011": 5.40508203913,
			"0.012": 2.42665116632,
			"0.013": 0.0753492906108,
			"0.014": 0.0,
			"0.015": 0.0,
			"0.016": 0.0,
			"0.017": 0.0,
			"0.018": 0.0,
			"0.019": 0.0,
			"0.02": 0.0,
			"0.021": 0.0,
			"0.022": 0.0,
			"0.023": 0.0,
			"0.024": 0.0,
			"0.025": 0.0
		}
	}
}
