{
	 "smiles": "CC(O)C1=NC2=C(C=C(Cl)C=C2)N1C", 
	 "Tm": 423.15, 
	 "num_atms": 25, 
	 "gaussian": { 
		 "optdone": 1, 
		 "sigma_profile": "yes", 
		 "theory": "DFT", 
		 "functional": "B3LYP", 
		 "basiset": "6-31G**", 
		 "properties": { 
			 "R2extent": 5190.341, 
			 "electric_dipole_moment_norm": 4.80540517126, 
			 "electric_quadrupole_moment_norm": 12.5734265385, 
			 "total_energy": -1032.62247716, 
			 "HOMO_LUMO_gap": 0.19609, 
			 "cosmo_polarized_energy": -13.09, 
			 "cosmo_cavitation_energy": 30.02, 
			 "cosmo_dispersion_energy": -21.98, 
			 "cosmo_repulsion_energy": 1.73, 
			 "cosmo_total_nonelectrostatic_energy": 9.76, 
			 "SMD_solvation_energy": 2.76 
		},
		"coords": [
			{
				"x": -2.219790943,
				"y": 0.2099986254,
				"z": 1.860698079,
				"element": "C" 
			},
			{
				"x": -2.164469541,
				"y": -0.2157440586,
				"z": 0.3868058117,
				"element": "C" 
			},
			{
				"x": -3.3428429967,
				"y": 0.1837912494,
				"z": -0.321909437,
				"element": "O" 
			},
			{
				"x": -0.9610018917,
				"y": 0.3419288424,
				"z": -0.3265035851,
				"element": "C" 
			},
			{
				"x": 0.1092097274,
				"y": -0.3873136305,
				"z": -0.5491844497,
				"element": "N" 
			},
			{
				"x": 1.0160496431,
				"y": 0.4729895493,
				"z": -1.1425034948,
				"element": "C" 
			},
			{
				"x": 0.4464827392,
				"y": 1.7611448514,
				"z": -1.2743729458,
				"element": "C" 
			},
			{
				"x": 1.1296395382,
				"y": 2.8360640786,
				"z": -1.8480709442,
				"element": "C" 
			},
			{
				"x": 2.4214844161,
				"y": 2.5658813709,
				"z": -2.2881457116,
				"element": "C" 
			},
			{
				"x": 3.3533630128,
				"y": 3.8713682247,
				"z": -3.0197765776,
				"element": "Cl" 
			},
			{
				"x": 3.0191160118,
				"y": 1.2965521368,
				"z": -2.1727836996,
				"element": "C" 
			},
			{
				"x": 2.3186967925,
				"y": 0.2406195963,
				"z": -1.5992106767,
				"element": "C" 
			},
			{
				"x": -0.826436196,
				"y": 1.6578657397,
				"z": -0.7416004994,
				"element": "N" 
			},
			{
				"x": -1.7855881367,
				"y": 2.7507880676,
				"z": -0.6665490953,
				"element": "C" 
			},
			{
				"x": -1.3134600854,
				"y": -0.1068016798,
				"z": 2.3844618383,
				"element": "H" 
			},
			{
				"x": -3.0773981204,
				"y": -0.2579768141,
				"z": 2.358677129,
				"element": "H" 
			},
			{
				"x": -2.3187066829,
				"y": 1.2952439062,
				"z": 1.9574705326,
				"element": "H" 
			},
			{
				"x": -2.036837866,
				"y": -1.30476674,
				"z": 0.3368440929,
				"element": "H" 
			},
			{
				"x": -4.1031228268,
				"y": -0.186074126,
				"z": 0.1454081681,
				"element": "H" 
			},
			{
				"x": 0.698799426,
				"y": 3.8254224994,
				"z": -1.9480622825,
				"element": "H" 
			},
			{
				"x": 4.0303171049,
				"y": 1.1548333901,
				"z": -2.5366521712,
				"element": "H" 
			},
			{
				"x": 2.7663500299,
				"y": -0.7432781322,
				"z": -1.5054313652,
				"element": "H" 
			},
			{
				"x": -1.8475694091,
				"y": 3.2500255883,
				"z": -1.6383747068,
				"element": "H" 
			},
			{
				"x": -1.4805099127,
				"y": 3.4859571725,
				"z": 0.0867320713,
				"element": "H" 
			},
			{
				"x": -2.7640738335,
				"y": 2.3447802924,
				"z": -0.4204660804,
				"element": "H" 
			}
		],
		 "valence_orbital": [ 
			{
				"type": "occ",
				"energy": -0.29651,
				"method": "rhf"
			},
			{
				"type": "occ",
				"energy": -0.28704,
				"method": "rhf"
			},
			{
				"type": "occ",
				"energy": -0.27138,
				"method": "rhf"
			},
			{
				"type": "occ",
				"energy": -0.23002,
				"method": "rhf"
			},
			{
				"type": "occ",
				"energy": -0.21858,
				"method": "rhf"
			},
			{
				"type": "unocc",
				"energy": -0.02249,
				"method": "rhf"
			},
			{
				"type": "unocc",
				"energy": 0.01422,
				"method": "rhf"
			},
			{
				"type": "unocc",
				"energy": 0.03602,
				"method": "rhf"
			},
			{
				"type": "unocc",
				"energy": 0.04423,
				"method": "rhf"
			},
			{
				"type": "unocc",
				"energy": 0.05808,
				"method": "rhf"
			}
		],
		"cosmo_sigma_profile": { 
			"-0.025": 0.0,
			"-0.024": 0.0,
			"-0.023": 0.0,
			"-0.022": 0.0,
			"-0.021": 0.0,
			"-0.02": 0.0,
			"-0.019": 0.0,
			"-0.018": 0.0,
			"-0.017": 0.0,
			"-0.016": 1.03164388848,
			"-0.015": 0.795745406346,
			"-0.014": 0.821521506039,
			"-0.013": 1.21736413458,
			"-0.012": 1.20674518128,
			"-0.011": 1.16448607552,
			"-0.01": 0.486679339235,
			"-0.009": 0.893972856437,
			"-0.008": 1.8428329217,
			"-0.007": 5.6459387414,
			"-0.006": 12.3492312859,
			"-0.005": 14.7849956653,
			"-0.004": 19.3662867571,
			"-0.003": 20.0496048859,
			"-0.002": 16.953620962,
			"-0.001": 16.0873429473,
			"0.0": 17.5084642521,
			"0.001": 12.7286470653,
			"0.002": 15.8478425398,
			"0.003": 22.8589557702,
			"0.004": 20.8092323724,
			"0.005": 14.2936793064,
			"0.006": 4.13210387519,
			"0.007": 2.37136420915,
			"0.008": 2.57080993813,
			"0.009": 1.81179311063,
			"0.01": 2.35071152431,
			"0.011": 2.09244798725,
			"0.012": 1.42263434143,
			"0.013": 1.29705326079,
			"0.014": 1.47093825986,
			"0.015": 0.865425781507,
			"0.016": 0.762401481469,
			"0.017": 0.651134984816,
			"0.018": 0.0602389787249,
			"0.019": 0.0,
			"0.02": 0.0,
			"0.021": 0.0,
			"0.022": 0.0,
			"0.023": 0.0,
			"0.024": 0.0,
			"0.025": 0.0
		}
	}
}
