{
	 "smiles": "CC1=NNC(N)=C1I", 
	 "Tm": 376.15, 
	 "num_atms": 14, 
	 "gaussian": { 
		 "optdone": 1, 
		 "sigma_profile": "yes", 
		 "theory": "DFT", 
		 "functional": "B3LYP", 
		 "basiset": "6-31G**", 
		 "properties": { 
			 "R2extent": 1401.2697, 
			 "electric_dipole_moment_norm": 2.90089853321, 
			 "electric_quadrupole_moment_norm": 13.5668096626, 
			 "total_energy": -331.663898674, 
			 "HOMO_LUMO_gap": 0.18287, 
			 "cosmo_polarized_energy": -12.85, 
			 "cosmo_cavitation_energy": 20.99, 
			 "cosmo_dispersion_energy": -17.06, 
			 "cosmo_repulsion_energy": 1.4, 
			 "cosmo_total_nonelectrostatic_energy": 5.33, 
			 "SMD_solvation_energy": 1.9 
		},
		"coords": [
			{
				"x": 1.4227882687,
				"y": 0.637753817,
				"z": 2.0933425029,
				"element": "C" 
			},
			{
				"x": 0.117707408,
				"y": 0.4642327695,
				"z": 1.3849753317,
				"element": "C" 
			},
			{
				"x": -0.3689451254,
				"y": 1.4240645387,
				"z": 0.6056290615,
				"element": "N" 
			},
			{
				"x": -1.5572210602,
				"y": 0.9326104189,
				"z": 0.1423999248,
				"element": "N" 
			},
			{
				"x": -1.839574536,
				"y": -0.312167269,
				"z": 0.6035444921,
				"element": "C" 
			},
			{
				"x": -2.9655765255,
				"y": -1.0215974324,
				"z": 0.2020714809,
				"element": "N" 
			},
			{
				"x": -0.7691609106,
				"y": -0.647811141,
				"z": 1.4214179379,
				"element": "C" 
			},
			{
				"x": -0.5796028228,
				"y": -2.4260284489,
				"z": 2.4936514479,
				"element": "I" 
			},
			{
				"x": 1.2976290944,
				"y": 0.582640626,
				"z": 3.1804132669,
				"element": "H" 
			},
			{
				"x": 1.8486751018,
				"y": 1.6105461073,
				"z": 1.8396709474,
				"element": "H" 
			},
			{
				"x": 2.1358561003,
				"y": -0.1436182661,
				"z": 1.8085576862,
				"element": "H" 
			},
			{
				"x": -2.0668439943,
				"y": 1.4540845272,
				"z": -0.5531280362,
				"element": "H" 
			},
			{
				"x": -3.0384234047,
				"y": -1.9128377324,
				"z": 0.6790906452,
				"element": "H" 
			},
			{
				"x": -3.8332075938,
				"y": -0.5044725145,
				"z": 0.2927633107,
				"element": "H" 
			}
		],
		 "valence_orbital": [ 
			{
				"type": "occ",
				"energy": -0.29666,
				"method": "rhf"
			},
			{
				"type": "occ",
				"energy": -0.29054,
				"method": "rhf"
			},
			{
				"type": "occ",
				"energy": -0.26795,
				"method": "rhf"
			},
			{
				"type": "occ",
				"energy": -0.23789,
				"method": "rhf"
			},
			{
				"type": "occ",
				"energy": -0.21031,
				"method": "rhf"
			},
			{
				"type": "unocc",
				"energy": -0.02744,
				"method": "rhf"
			},
			{
				"type": "unocc",
				"energy": 0.02625,
				"method": "rhf"
			},
			{
				"type": "unocc",
				"energy": 0.03362,
				"method": "rhf"
			},
			{
				"type": "unocc",
				"energy": 0.04845,
				"method": "rhf"
			},
			{
				"type": "unocc",
				"energy": 0.05537,
				"method": "rhf"
			}
		],
		"cosmo_sigma_profile": { 
			"-0.025": 0.0,
			"-0.024": 0.0,
			"-0.023": 0.0,
			"-0.022": 0.0,
			"-0.021": 0.0,
			"-0.02": 0.0,
			"-0.019": 0.0,
			"-0.018": 0.0,
			"-0.017": 0.100183039206,
			"-0.016": 1.33482492917,
			"-0.015": 1.66210436191,
			"-0.014": 2.3544372626,
			"-0.013": 2.99507427641,
			"-0.012": 2.46864418726,
			"-0.011": 3.69845885997,
			"-0.01": 3.65076401798,
			"-0.009": 2.60413043104,
			"-0.008": 1.81179976747,
			"-0.007": 3.8248825357,
			"-0.006": 3.90122792691,
			"-0.005": 4.236230113,
			"-0.004": 8.4374146001,
			"-0.003": 7.51553036397,
			"-0.002": 9.10392428818,
			"-0.001": 12.3970986768,
			"0.0": 14.5318308866,
			"0.001": 9.62854501699,
			"0.002": 10.6886491509,
			"0.003": 13.2925431874,
			"0.004": 17.3640676074,
			"0.005": 12.3478681102,
			"0.006": 3.27290304386,
			"0.007": 2.24868279652,
			"0.008": 2.04895007577,
			"0.009": 2.50209608352,
			"0.01": 1.92514658704,
			"0.011": 2.00644889523,
			"0.012": 2.00335254031,
			"0.013": 1.69786114706,
			"0.014": 1.42541105176,
			"0.015": 1.17216408407,
			"0.016": 1.02355027294,
			"0.017": 0.104697009701,
			"0.018": 0.0,
			"0.019": 0.0,
			"0.02": 0.0,
			"0.021": 0.0,
			"0.022": 0.0,
			"0.023": 0.0,
			"0.024": 0.0,
			"0.025": 0.0
		}
	}
}
