{
	 "smiles": "OC(=O)C1=CC=CC(CSC2=CC=CS2)=C1", 
	 "Tm": 382.15, 
	 "num_atms": 26, 
	 "gaussian": { 
		 "optdone": 1, 
		 "sigma_profile": "yes", 
		 "theory": "DFT", 
		 "functional": "B3LYP", 
		 "basiset": "6-31G**", 
		 "properties": { 
			 "R2extent": 5340.5771, 
			 "electric_dipole_moment_norm": 6.18699208744, 
			 "electric_quadrupole_moment_norm": 16.6032791918, 
			 "total_energy": -1410.11793504, 
			 "HOMO_LUMO_gap": 0.18461, 
			 "cosmo_polarized_energy": -17.5, 
			 "cosmo_cavitation_energy": 34.2, 
			 "cosmo_dispersion_energy": -24.37, 
			 "cosmo_repulsion_energy": 1.83, 
			 "cosmo_total_nonelectrostatic_energy": 11.66, 
			 "SMD_solvation_energy": 6.27 
		},
		"coords": [
			{
				"x": 3.0500365671,
				"y": -3.4275941516,
				"z": -1.4254794643,
				"element": "O" 
			},
			{
				"x": 1.7695039925,
				"y": -3.221454233,
				"z": -1.0140998052,
				"element": "C" 
			},
			{
				"x": 1.1835476878,
				"y": -4.0863577062,
				"z": -0.4069649258,
				"element": "O" 
			},
			{
				"x": 1.1598351392,
				"y": -1.8939010251,
				"z": -1.3552515831,
				"element": "C" 
			},
			{
				"x": 1.6161403309,
				"y": -1.0955892033,
				"z": -2.4152227302,
				"element": "C" 
			},
			{
				"x": 0.9881204889,
				"y": 0.1170927994,
				"z": -2.6911580052,
				"element": "C" 
			},
			{
				"x": -0.0908806493,
				"y": 0.5392098292,
				"z": -1.9135503388,
				"element": "C" 
			},
			{
				"x": -0.5672608954,
				"y": -0.2515986485,
				"z": -0.8576202701,
				"element": "C" 
			},
			{
				"x": -1.7335677785,
				"y": 0.2041834165,
				"z": -0.0251396406,
				"element": "C" 
			},
			{
				"x": -1.2842800368,
				"y": 0.9950804645,
				"z": 1.6040812706,
				"element": "S" 
			},
			{
				"x": -0.5391709759,
				"y": 2.5138293934,
				"z": 1.1074127719,
				"element": "C" 
			},
			{
				"x": -1.161819167,
				"y": 3.7181290762,
				"z": 0.8674844439,
				"element": "C" 
			},
			{
				"x": -0.2554484219,
				"y": 4.7668795188,
				"z": 0.5421446873,
				"element": "C" 
			},
			{
				"x": 1.0527809321,
				"y": 4.3565035497,
				"z": 0.5473519183,
				"element": "C" 
			},
			{
				"x": 1.1986898313,
				"y": 2.6805854834,
				"z": 0.9430500687,
				"element": "S" 
			},
			{
				"x": 0.0648055037,
				"y": -1.4711637725,
				"z": -0.5951001601,
				"element": "C" 
			},
			{
				"x": 3.4349809438,
				"y": -2.5981425905,
				"z": -1.7405838327,
				"element": "H" 
			},
			{
				"x": 2.4273664774,
				"y": -1.430897486,
				"z": -3.0568930174,
				"element": "H" 
			},
			{
				"x": 1.332319811,
				"y": 0.7300843854,
				"z": -3.518544646,
				"element": "H" 
			},
			{
				"x": -0.5756547647,
				"y": 1.4864915413,
				"z": -2.1323922793,
				"element": "H" 
			},
			{
				"x": -2.3534273579,
				"y": -0.6435974505,
				"z": 0.2816305684,
				"element": "H" 
			},
			{
				"x": -2.3657609661,
				"y": 0.9070469733,
				"z": -0.5719819275,
				"element": "H" 
			},
			{
				"x": -2.2367498123,
				"y": 3.8398201176,
				"z": 0.9369445809,
				"element": "H" 
			},
			{
				"x": -0.5609424349,
				"y": 5.7839068097,
				"z": 0.3238498106,
				"element": "H" 
			},
			{
				"x": 1.9362188947,
				"y": 4.9478696139,
				"z": 0.3471451872,
				"element": "H" 
			},
			{
				"x": -0.2816833396,
				"y": -2.1156167053,
				"z": 0.2068873187,
				"element": "H" 
			}
		],
		 "valence_orbital": [ 
			{
				"type": "occ",
				"energy": -0.26991,
				"method": "rhf"
			},
			{
				"type": "occ",
				"energy": -0.2663,
				"method": "rhf"
			},
			{
				"type": "occ",
				"energy": -0.25845,
				"method": "rhf"
			},
			{
				"type": "occ",
				"energy": -0.24493,
				"method": "rhf"
			},
			{
				"type": "occ",
				"energy": -0.23636,
				"method": "rhf"
			},
			{
				"type": "unocc",
				"energy": -0.05175,
				"method": "rhf"
			},
			{
				"type": "unocc",
				"energy": -0.03902,
				"method": "rhf"
			},
			{
				"type": "unocc",
				"energy": -0.02402,
				"method": "rhf"
			},
			{
				"type": "unocc",
				"energy": 0.02225,
				"method": "rhf"
			},
			{
				"type": "unocc",
				"energy": 0.03408,
				"method": "rhf"
			}
		],
		"cosmo_sigma_profile": { 
			"-0.025": 0.0,
			"-0.024": 0.0,
			"-0.023": 0.0,
			"-0.022": 0.0,
			"-0.021": 0.0,
			"-0.02": 0.0,
			"-0.019": 0.135172519605,
			"-0.018": 0.712398573356,
			"-0.017": 1.40807398788,
			"-0.016": 0.591129083512,
			"-0.015": 0.955552261246,
			"-0.014": 1.04520126685,
			"-0.013": 1.00339342644,
			"-0.012": 1.01046914436,
			"-0.011": 1.38251165413,
			"-0.01": 0.889614759511,
			"-0.009": 1.64069459005,
			"-0.008": 4.81689531597,
			"-0.007": 12.5189801625,
			"-0.006": 18.3063795826,
			"-0.005": 16.8911606648,
			"-0.004": 16.4839620201,
			"-0.003": 16.3427526027,
			"-0.002": 15.0797924032,
			"-0.001": 13.0683269878,
			"0.0": 13.7197366851,
			"0.001": 19.1370875661,
			"0.002": 25.3310757502,
			"0.003": 27.7513345188,
			"0.004": 21.1667674111,
			"0.005": 11.5862565576,
			"0.006": 5.05873401113,
			"0.007": 3.96265822192,
			"0.008": 5.18486432563,
			"0.009": 4.45417342647,
			"0.01": 4.26358265047,
			"0.011": 5.63961182286,
			"0.012": 4.69767081001,
			"0.013": 1.63103835773,
			"0.014": 0.0608661694254,
			"0.015": 0.0,
			"0.016": 0.0,
			"0.017": 0.0,
			"0.018": 0.0,
			"0.019": 0.0,
			"0.02": 0.0,
			"0.021": 0.0,
			"0.022": 0.0,
			"0.023": 0.0,
			"0.024": 0.0,
			"0.025": 0.0
		}
	}
}
