{
	 "smiles": "CC(F)(F)CCl", 
	 "Tm": 216.95, 
	 "num_atms": 11, 
	 "gaussian": { 
		 "optdone": 1, 
		 "sigma_profile": "yes", 
		 "theory": "DFT", 
		 "functional": "B3LYP", 
		 "basiset": "6-31G**", 
		 "properties": { 
			 "R2extent": 1124.3053, 
			 "electric_dipole_moment_norm": 1.6616138992, 
			 "electric_quadrupole_moment_norm": 5.78441373952, 
			 "total_energy": -777.215096493, 
			 "HOMO_LUMO_gap": 0.32051, 
			 "cosmo_polarized_energy": -4.86, 
			 "cosmo_cavitation_energy": 16.74, 
			 "cosmo_dispersion_energy": -12.21, 
			 "cosmo_repulsion_energy": 1.03, 
			 "cosmo_total_nonelectrostatic_energy": 5.55, 
			 "SMD_solvation_energy": 3.58 
		},
		"coords": [
			{
				"x": -0.5797623041,
				"y": 1.6179053469,
				"z": 0.9746232721,
				"element": "C" 
			},
			{
				"x": -0.7785407802,
				"y": 0.3557926791,
				"z": 1.7818493486,
				"element": "C" 
			},
			{
				"x": -1.6768810788,
				"y": 0.6059738404,
				"z": 2.7999334736,
				"element": "F" 
			},
			{
				"x": 0.4030030128,
				"y": 0.0038174709,
				"z": 2.377951203,
				"element": "F" 
			},
			{
				"x": -1.3458725258,
				"y": -0.8617226468,
				"z": 1.0542173012,
				"element": "C" 
			},
			{
				"x": -0.3037173564,
				"y": -1.4134514211,
				"z": -0.307796288,
				"element": "Cl" 
			},
			{
				"x": 0.1431946881,
				"y": 1.4483510108,
				"z": 0.1753319491,
				"element": "H" 
			},
			{
				"x": -1.527983922,
				"y": 1.9421606963,
				"z": 0.5391838275,
				"element": "H" 
			},
			{
				"x": -0.2061844866,
				"y": 2.4002434127,
				"z": 1.6388869867,
				"element": "H" 
			},
			{
				"x": -2.3292191528,
				"y": -0.6263253437,
				"z": 0.6471561699,
				"element": "H" 
			},
			{
				"x": -1.4259360943,
				"y": -1.6839450455,
				"z": 1.7654627564,
				"element": "H" 
			}
		],
		 "valence_orbital": [ 
			{
				"type": "occ",
				"energy": -0.39669,
				"method": "rhf"
			},
			{
				"type": "occ",
				"energy": -0.38545,
				"method": "rhf"
			},
			{
				"type": "occ",
				"energy": -0.35346,
				"method": "rhf"
			},
			{
				"type": "occ",
				"energy": -0.30861,
				"method": "rhf"
			},
			{
				"type": "occ",
				"energy": -0.30768,
				"method": "rhf"
			},
			{
				"type": "unocc",
				"energy": 0.01283,
				"method": "rhf"
			},
			{
				"type": "unocc",
				"energy": 0.08477,
				"method": "rhf"
			},
			{
				"type": "unocc",
				"energy": 0.1051,
				"method": "rhf"
			},
			{
				"type": "unocc",
				"energy": 0.12451,
				"method": "rhf"
			},
			{
				"type": "unocc",
				"energy": 0.14692,
				"method": "rhf"
			}
		],
		"cosmo_sigma_profile": { 
			"-0.025": 0.0,
			"-0.024": 0.0,
			"-0.023": 0.0,
			"-0.022": 0.0,
			"-0.021": 0.0,
			"-0.02": 0.0,
			"-0.019": 0.0,
			"-0.018": 0.0,
			"-0.017": 0.0,
			"-0.016": 0.0,
			"-0.015": 0.0,
			"-0.014": 0.0,
			"-0.013": 0.0,
			"-0.012": 0.0,
			"-0.011": 0.0,
			"-0.01": 0.0,
			"-0.009": 2.87336228445,
			"-0.008": 4.39844329298,
			"-0.007": 4.61701838971,
			"-0.006": 7.07995465634,
			"-0.005": 7.30933108475,
			"-0.004": 8.14787581105,
			"-0.003": 7.29385883345,
			"-0.002": 9.4270067331,
			"-0.001": 9.7644374455,
			"0.0": 6.75387213623,
			"0.001": 6.39617114645,
			"0.002": 6.5023981913,
			"0.003": 8.78819406158,
			"0.004": 20.002891364,
			"0.005": 20.116925041,
			"0.006": 4.69580886907,
			"0.007": 0.0,
			"0.008": 0.0,
			"0.009": 0.0,
			"0.01": 0.0,
			"0.011": 0.0,
			"0.012": 0.0,
			"0.013": 0.0,
			"0.014": 0.0,
			"0.015": 0.0,
			"0.016": 0.0,
			"0.017": 0.0,
			"0.018": 0.0,
			"0.019": 0.0,
			"0.02": 0.0,
			"0.021": 0.0,
			"0.022": 0.0,
			"0.023": 0.0,
			"0.024": 0.0,
			"0.025": 0.0
		}
	}
}
