{
	 "smiles": "SC1=C(Cl)C=C(C=C1)C#N", 
	 "Tm": 355.15, 
	 "num_atms": 14, 
	 "gaussian": { 
		 "optdone": 1, 
		 "sigma_profile": "yes", 
		 "theory": "DFT", 
		 "functional": "B3LYP", 
		 "basiset": "6-31G**", 
		 "properties": { 
			 "R2extent": 2532.8402, 
			 "electric_dipole_moment_norm": 3.49656682476, 
			 "electric_quadrupole_moment_norm": 11.0061605703, 
			 "total_energy": -1182.26389221, 
			 "HOMO_LUMO_gap": 0.18173, 
			 "cosmo_polarized_energy": -9.14, 
			 "cosmo_cavitation_energy": 22.97, 
			 "cosmo_dispersion_energy": -17.12, 
			 "cosmo_repulsion_energy": 1.33, 
			 "cosmo_total_nonelectrostatic_energy": 7.18, 
			 "SMD_solvation_energy": 4.55 
		},
		"coords": [
			{
				"x": -1.3829341303,
				"y": 3.2540324743,
				"z": -0.1853482464,
				"element": "S" 
			},
			{
				"x": -0.5316203249,
				"y": 1.7176953715,
				"z": 0.0490212353,
				"element": "C" 
			},
			{
				"x": 0.8075657304,
				"y": 1.577792236,
				"z": 0.4601842377,
				"element": "C" 
			},
			{
				"x": 1.810146864,
				"y": 2.9801102296,
				"z": 0.7958264282,
				"element": "Cl" 
			},
			{
				"x": 1.3881870865,
				"y": 0.3226357472,
				"z": 0.6163559656,
				"element": "C" 
			},
			{
				"x": 0.6377232062,
				"y": -0.833543187,
				"z": 0.3631674814,
				"element": "C" 
			},
			{
				"x": -0.7007828328,
				"y": -0.7130877869,
				"z": -0.0481244558,
				"element": "C" 
			},
			{
				"x": -1.26587362,
				"y": 0.5430910396,
				"z": -0.1995374784,
				"element": "C" 
			},
			{
				"x": 1.2370013454,
				"y": -2.1244035701,
				"z": 0.5244431225,
				"element": "C" 
			},
			{
				"x": 1.7206473729,
				"y": -3.1744349933,
				"z": 0.6544504776,
				"element": "N" 
			},
			{
				"x": -0.3576267819,
				"y": 4.0606959175,
				"z": 0.143948542,
				"element": "H" 
			},
			{
				"x": 2.4211663691,
				"y": 0.2446166026,
				"z": 0.9340313619,
				"element": "H" 
			},
			{
				"x": -1.2869814968,
				"y": -1.6036284132,
				"z": -0.2456993282,
				"element": "H" 
			},
			{
				"x": -2.3003187879,
				"y": 0.628828332,
				"z": -0.5176193434,
				"element": "H" 
			}
		],
		 "valence_orbital": [ 
			{
				"type": "occ",
				"energy": -0.34299,
				"method": "rhf"
			},
			{
				"type": "occ",
				"energy": -0.33716,
				"method": "rhf"
			},
			{
				"type": "occ",
				"energy": -0.31454,
				"method": "rhf"
			},
			{
				"type": "occ",
				"energy": -0.28118,
				"method": "rhf"
			},
			{
				"type": "occ",
				"energy": -0.24652,
				"method": "rhf"
			},
			{
				"type": "unocc",
				"energy": -0.06479,
				"method": "rhf"
			},
			{
				"type": "unocc",
				"energy": -0.04217,
				"method": "rhf"
			},
			{
				"type": "unocc",
				"energy": -0.01492,
				"method": "rhf"
			},
			{
				"type": "unocc",
				"energy": 0.01436,
				"method": "rhf"
			},
			{
				"type": "unocc",
				"energy": 0.03542,
				"method": "rhf"
			}
		],
		"cosmo_sigma_profile": { 
			"-0.025": 0.0,
			"-0.024": 0.0,
			"-0.023": 0.0,
			"-0.022": 0.0,
			"-0.021": 0.0,
			"-0.02": 0.0,
			"-0.019": 0.0,
			"-0.018": 0.0,
			"-0.017": 0.0,
			"-0.016": 0.0,
			"-0.015": 0.0,
			"-0.014": 0.0,
			"-0.013": 0.0,
			"-0.012": 0.0385283185094,
			"-0.011": 0.606640713641,
			"-0.01": 1.34307410774,
			"-0.009": 3.98368353347,
			"-0.008": 8.59278212435,
			"-0.007": 7.74486573875,
			"-0.006": 7.56677216107,
			"-0.005": 6.85354644434,
			"-0.004": 6.98974840387,
			"-0.003": 10.6686828304,
			"-0.002": 15.14344036,
			"-0.001": 16.6774302342,
			"0.0": 23.2141042196,
			"0.001": 18.9059995884,
			"0.002": 12.4505062217,
			"0.003": 11.6271508083,
			"0.004": 7.93310841351,
			"0.005": 5.21685706822,
			"0.006": 4.98932613865,
			"0.007": 4.73466153213,
			"0.008": 3.14465512196,
			"0.009": 3.62480323773,
			"0.01": 2.76516784593,
			"0.011": 2.95216665362,
			"0.012": 2.27074009687,
			"0.013": 1.23029219424,
			"0.014": 0.00770516278253,
			"0.015": 0.0,
			"0.016": 0.0,
			"0.017": 0.0,
			"0.018": 0.0,
			"0.019": 0.0,
			"0.02": 0.0,
			"0.021": 0.0,
			"0.022": 0.0,
			"0.023": 0.0,
			"0.024": 0.0,
			"0.025": 0.0
		}
	}
}
