{
	 "smiles": "NCCC1=CC=C(S1)S(=O)(=O)N1CCCCC1", 
	 "Tm": 348.15, 
	 "num_atms": 35, 
	 "gaussian": { 
		 "optdone": 1, 
		 "sigma_profile": "yes", 
		 "theory": "DFT", 
		 "functional": "B3LYP", 
		 "basiset": "6-31G**", 
		 "properties": { 
			 "R2extent": 5943.7278, 
			 "electric_dipole_moment_norm": 7.49509191271, 
			 "electric_quadrupole_moment_norm": 23.6902421159, 
			 "total_energy": -1486.26224684, 
			 "HOMO_LUMO_gap": 0.1902, 
			 "cosmo_polarized_energy": -16.21, 
			 "cosmo_cavitation_energy": 38.17, 
			 "cosmo_dispersion_energy": -27.75, 
			 "cosmo_repulsion_energy": 2.12, 
			 "cosmo_total_nonelectrostatic_energy": 12.54, 
			 "SMD_solvation_energy": 3.22 
		},
		"coords": [
			{
				"x": 1.3467460293,
				"y": -0.5086537499,
				"z": 4.0879094454,
				"element": "N" 
			},
			{
				"x": 2.2825489831,
				"y": -0.8704154316,
				"z": 3.0191339264,
				"element": "C" 
			},
			{
				"x": 2.5250004536,
				"y": 0.3090224485,
				"z": 2.0610113176,
				"element": "C" 
			},
			{
				"x": 1.3397941707,
				"y": 0.6855444851,
				"z": 1.2081612746,
				"element": "C" 
			},
			{
				"x": 0.0189488788,
				"y": 0.8281553961,
				"z": 1.5623478198,
				"element": "C" 
			},
			{
				"x": -0.8141250507,
				"y": 1.2333706135,
				"z": 0.4815176389,
				"element": "C" 
			},
			{
				"x": -0.1189947991,
				"y": 1.3965745073,
				"z": -0.6902785873,
				"element": "C" 
			},
			{
				"x": 1.5780769235,
				"y": 1.0682691728,
				"z": -0.4802211718,
				"element": "S" 
			},
			{
				"x": -0.8094053057,
				"y": 1.8578758881,
				"z": -2.26218351,
				"element": "S" 
			},
			{
				"x": 0.2705491684,
				"y": 2.4987919567,
				"z": -3.0160817796,
				"element": "O" 
			},
			{
				"x": -2.0727654552,
				"y": 2.5316476646,
				"z": -1.9555132192,
				"element": "O" 
			},
			{
				"x": -1.2125248822,
				"y": 0.4788562401,
				"z": -3.1125300861,
				"element": "N" 
			},
			{
				"x": -2.4191801118,
				"y": -0.2826773679,
				"z": -2.7564649326,
				"element": "C" 
			},
			{
				"x": -2.083023657,
				"y": -1.6078606976,
				"z": -2.0577718591,
				"element": "C" 
			},
			{
				"x": -1.0805141974,
				"y": -2.4250270147,
				"z": -2.8875799231,
				"element": "C" 
			},
			{
				"x": 0.1753953466,
				"y": -1.5963127117,
				"z": -3.1997380699,
				"element": "C" 
			},
			{
				"x": -0.1941046379,
				"y": -0.2648432363,
				"z": -3.8696746758,
				"element": "C" 
			},
			{
				"x": 1.7852509153,
				"y": 0.1555687175,
				"z": 4.7223367544,
				"element": "H" 
			},
			{
				"x": 1.1150416613,
				"y": -1.328025985,
				"z": 4.6431115945,
				"element": "H" 
			},
			{
				"x": 1.8480746575,
				"y": -1.7039869867,
				"z": 2.4562479965,
				"element": "H" 
			},
			{
				"x": 3.26546892,
				"y": -1.2117885128,
				"z": 3.3878972762,
				"element": "H" 
			},
			{
				"x": 3.3745786151,
				"y": 0.0566680664,
				"z": 1.4162859039,
				"element": "H" 
			},
			{
				"x": 2.8472833979,
				"y": 1.1804647869,
				"z": 2.6498982099,
				"element": "H" 
			},
			{
				"x": -0.3216649075,
				"y": 0.6443474779,
				"z": 2.5736198591,
				"element": "H" 
			},
			{
				"x": -1.8781253781,
				"y": 1.4223638011,
				"z": 0.5587845118,
				"element": "H" 
			},
			{
				"x": -3.062800691,
				"y": 0.3544283348,
				"z": -2.1484851847,
				"element": "H" 
			},
			{
				"x": -2.9604656698,
				"y": -0.4839895473,
				"z": -3.6922501083,
				"element": "H" 
			},
			{
				"x": -1.6601743211,
				"y": -1.3968476649,
				"z": -1.0677544311,
				"element": "H" 
			},
			{
				"x": -3.0078334126,
				"y": -2.1758365266,
				"z": -1.9000071943,
				"element": "H" 
			},
			{
				"x": -0.8090559729,
				"y": -3.3468548336,
				"z": -2.3609068667,
				"element": "H" 
			},
			{
				"x": -1.5566221546,
				"y": -2.7313389388,
				"z": -3.8304496637,
				"element": "H" 
			},
			{
				"x": 0.7256684874,
				"y": -1.3947379809,
				"z": -2.2725264376,
				"element": "H" 
			},
			{
				"x": 0.8513968888,
				"y": -2.153065446,
				"z": -3.859908997,
				"element": "H" 
			},
			{
				"x": -0.6151351085,
				"y": -0.4575782048,
				"z": -4.8671380555,
				"element": "H" 
			},
			{
				"x": 0.6726922158,
				"y": 0.3823912797,
				"z": -4.0083987757,
				"element": "H" 
			}
		],
		 "valence_orbital": [ 
			{
				"type": "occ",
				"energy": -0.29145,
				"method": "rhf"
			},
			{
				"type": "occ",
				"energy": -0.25917,
				"method": "rhf"
			},
			{
				"type": "occ",
				"energy": -0.25724,
				"method": "rhf"
			},
			{
				"type": "occ",
				"energy": -0.24971,
				"method": "rhf"
			},
			{
				"type": "occ",
				"energy": -0.22408,
				"method": "rhf"
			},
			{
				"type": "unocc",
				"energy": -0.03388,
				"method": "rhf"
			},
			{
				"type": "unocc",
				"energy": 0.01847,
				"method": "rhf"
			},
			{
				"type": "unocc",
				"energy": 0.04668,
				"method": "rhf"
			},
			{
				"type": "unocc",
				"energy": 0.06207,
				"method": "rhf"
			},
			{
				"type": "unocc",
				"energy": 0.07098,
				"method": "rhf"
			}
		],
		"cosmo_sigma_profile": { 
			"-0.025": 0.0,
			"-0.024": 0.0,
			"-0.023": 0.0,
			"-0.022": 0.0,
			"-0.021": 0.0,
			"-0.02": 0.0,
			"-0.019": 0.0,
			"-0.018": 0.0,
			"-0.017": 0.0,
			"-0.016": 0.0,
			"-0.015": 0.0,
			"-0.014": 0.0,
			"-0.013": 0.0,
			"-0.012": 0.0,
			"-0.011": 0.0147448777284,
			"-0.01": 1.596555761,
			"-0.009": 3.00693628849,
			"-0.008": 3.51654972568,
			"-0.007": 4.51330071431,
			"-0.006": 6.65295627034,
			"-0.005": 13.0098078023,
			"-0.004": 26.3012118546,
			"-0.003": 38.8804788252,
			"-0.002": 39.8968237686,
			"-0.001": 33.7941708156,
			"0.0": 25.5112821898,
			"0.001": 15.5343605551,
			"0.002": 14.2366531885,
			"0.003": 14.3184523762,
			"0.004": 11.0732128275,
			"0.005": 6.98162464018,
			"0.006": 5.2982056989,
			"0.007": 6.21213674599,
			"0.008": 5.10410016487,
			"0.009": 3.98876868733,
			"0.01": 6.83444297793,
			"0.011": 9.51919098425,
			"0.012": 4.79490270406,
			"0.013": 0.0111217256171,
			"0.014": 0.0,
			"0.015": 0.0,
			"0.016": 0.0,
			"0.017": 0.0,
			"0.018": 0.0,
			"0.019": 0.0,
			"0.02": 0.0,
			"0.021": 0.0,
			"0.022": 0.0,
			"0.023": 0.0,
			"0.024": 0.0,
			"0.025": 0.0
		}
	}
}
