{
	 "smiles": "OC(=O)COC1=C2C=CC=CC2=CC=C1", 
	 "Tm": 469.15, 
	 "num_atms": 25, 
	 "gaussian": { 
		 "optdone": 1, 
		 "sigma_profile": "yes", 
		 "theory": "DFT", 
		 "functional": "B3LYP", 
		 "basiset": "6-31G**", 
		 "properties": { 
			 "R2extent": 3925.8219, 
			 "electric_dipole_moment_norm": 4.27964120108, 
			 "electric_quadrupole_moment_norm": 20.5302652404, 
			 "total_energy": -688.972982697, 
			 "HOMO_LUMO_gap": 0.17303, 
			 "cosmo_polarized_energy": -20.3, 
			 "cosmo_cavitation_energy": 29.64, 
			 "cosmo_dispersion_energy": -21.66, 
			 "cosmo_repulsion_energy": 1.68, 
			 "cosmo_total_nonelectrostatic_energy": 9.65, 
			 "SMD_solvation_energy": 6.32 
		},
		"coords": [
			{
				"x": 4.6008139961,
				"y": -1.4056846472,
				"z": -0.1167212849,
				"element": "O" 
			},
			{
				"x": 3.2706025716,
				"y": -1.3949827878,
				"z": -0.4000515983,
				"element": "C" 
			},
			{
				"x": 2.8389072353,
				"y": -1.9456201161,
				"z": -1.3735907518,
				"element": "O" 
			},
			{
				"x": 2.4299406344,
				"y": -0.6314982612,
				"z": 0.6247068583,
				"element": "C" 
			},
			{
				"x": 1.0905326705,
				"y": -0.6942939031,
				"z": 0.2238168141,
				"element": "O" 
			},
			{
				"x": 0.1408291059,
				"y": -0.0757185261,
				"z": 0.9920100595,
				"element": "C" 
			},
			{
				"x": -1.1946003195,
				"y": -0.2015150545,
				"z": 0.4910212813,
				"element": "C" 
			},
			{
				"x": -1.484743716,
				"y": -0.9117832676,
				"z": -0.7024310917,
				"element": "C" 
			},
			{
				"x": -2.7835295086,
				"y": -1.0111707691,
				"z": -1.1530948748,
				"element": "C" 
			},
			{
				"x": -3.8403034462,
				"y": -0.4070501563,
				"z": -0.4319783084,
				"element": "C" 
			},
			{
				"x": -3.5816908139,
				"y": 0.2874493037,
				"z": 0.7291684051,
				"element": "C" 
			},
			{
				"x": -2.2570545674,
				"y": 0.412304472,
				"z": 1.2261369186,
				"element": "C" 
			},
			{
				"x": -1.9611640317,
				"y": 1.1239890624,
				"z": 2.4229231827,
				"element": "C" 
			},
			{
				"x": -0.6663205463,
				"y": 1.2210493101,
				"z": 2.8690351114,
				"element": "C" 
			},
			{
				"x": 0.4016183255,
				"y": 0.6196218662,
				"z": 2.1549737646,
				"element": "C" 
			},
			{
				"x": 4.7895432401,
				"y": -0.9196747696,
				"z": 0.6996027584,
				"element": "H" 
			},
			{
				"x": 2.7889740371,
				"y": 0.4094589192,
				"z": 0.679436177,
				"element": "H" 
			},
			{
				"x": 2.5778023152,
				"y": -1.0842359346,
				"z": 1.6190227446,
				"element": "H" 
			},
			{
				"x": -0.6680915994,
				"y": -1.3711087055,
				"z": -1.2479374517,
				"element": "H" 
			},
			{
				"x": -2.9987733846,
				"y": -1.5563332615,
				"z": -2.0674074843,
				"element": "H" 
			},
			{
				"x": -4.8594537975,
				"y": -0.492926055,
				"z": -0.7981513092,
				"element": "H" 
			},
			{
				"x": -4.3918230196,
				"y": 0.7524782058,
				"z": 1.2849496797,
				"element": "H" 
			},
			{
				"x": -2.7739005625,
				"y": 1.5871663184,
				"z": 2.9750881756,
				"element": "H" 
			},
			{
				"x": -0.4421582174,
				"y": 1.7644113935,
				"z": 3.7823539449,
				"element": "H" 
			},
			{
				"x": 1.4109433989,
				"y": 0.7170673639,
				"z": 2.5373182793,
				"element": "H" 
			}
		],
		 "valence_orbital": [ 
			{
				"type": "occ",
				"energy": -0.31842,
				"method": "rhf"
			},
			{
				"type": "occ",
				"energy": -0.28465,
				"method": "rhf"
			},
			{
				"type": "occ",
				"energy": -0.26485,
				"method": "rhf"
			},
			{
				"type": "occ",
				"energy": -0.24449,
				"method": "rhf"
			},
			{
				"type": "occ",
				"energy": -0.20666,
				"method": "rhf"
			},
			{
				"type": "unocc",
				"energy": -0.03363,
				"method": "rhf"
			},
			{
				"type": "unocc",
				"energy": -0.0113,
				"method": "rhf"
			},
			{
				"type": "unocc",
				"energy": 0.00082,
				"method": "rhf"
			},
			{
				"type": "unocc",
				"energy": 0.03562,
				"method": "rhf"
			},
			{
				"type": "unocc",
				"energy": 0.03962,
				"method": "rhf"
			}
		],
		"cosmo_sigma_profile": { 
			"-0.025": 0.0,
			"-0.024": 0.0,
			"-0.023": 0.0,
			"-0.022": 0.0,
			"-0.021": 0.0,
			"-0.02": 0.657647811041,
			"-0.019": 1.62716133865,
			"-0.018": 1.12593819025,
			"-0.017": 1.15836347706,
			"-0.016": 1.73531559876,
			"-0.015": 0.707683015529,
			"-0.014": 1.28111744045,
			"-0.013": 0.927859645403,
			"-0.012": 1.34983465268,
			"-0.011": 1.79598812254,
			"-0.01": 2.13892826488,
			"-0.009": 4.06058288895,
			"-0.008": 6.26230095668,
			"-0.007": 4.90825062509,
			"-0.006": 10.7350638797,
			"-0.005": 15.5273356575,
			"-0.004": 15.4472558216,
			"-0.003": 13.4779122631,
			"-0.002": 10.7979571873,
			"-0.001": 10.6935983321,
			"0.0": 9.88171649048,
			"0.001": 9.81387435231,
			"0.002": 13.1669084275,
			"0.003": 18.8299422329,
			"0.004": 23.6858441645,
			"0.005": 20.0382705267,
			"0.006": 6.75777336263,
			"0.007": 3.25693631065,
			"0.008": 3.28537726038,
			"0.009": 4.87634596687,
			"0.01": 6.1811096752,
			"0.011": 7.60322039718,
			"0.012": 3.10059172724,
			"0.013": 0.179884798358,
			"0.014": 0.0,
			"0.015": 0.0,
			"0.016": 0.0,
			"0.017": 0.0,
			"0.018": 0.0,
			"0.019": 0.0,
			"0.02": 0.0,
			"0.021": 0.0,
			"0.022": 0.0,
			"0.023": 0.0,
			"0.024": 0.0,
			"0.025": 0.0
		}
	}
}
