{
	 "smiles": "COCC1=C(N)C=CC(=C1)[N+]([O-])=O", 
	 "Tm": 357.15, 
	 "num_atms": 23, 
	 "gaussian": { 
		 "optdone": 1, 
		 "sigma_profile": "yes", 
		 "theory": "DFT", 
		 "functional": "B3LYP", 
		 "basiset": "6-31G**", 
		 "properties": { 
			 "R2extent": 3306.9423, 
			 "electric_dipole_moment_norm": 6.16871474458, 
			 "electric_quadrupole_moment_norm": 25.8624022782, 
			 "total_energy": -645.949772966, 
			 "HOMO_LUMO_gap": 0.15456, 
			 "cosmo_polarized_energy": -14.06, 
			 "cosmo_cavitation_energy": 27.14, 
			 "cosmo_dispersion_energy": -19.67, 
			 "cosmo_repulsion_energy": 1.57, 
			 "cosmo_total_nonelectrostatic_energy": 9.04, 
			 "SMD_solvation_energy": 7.39 
		},
		"coords": [
			{
				"x": 2.1938807177,
				"y": 0.9379911609,
				"z": 0.0277890038,
				"element": "C" 
			},
			{
				"x": 2.2805928832,
				"y": -0.480026044,
				"z": 0.00735922,
				"element": "O" 
			},
			{
				"x": 1.1255984307,
				"y": -1.1150172371,
				"z": -0.5483198113,
				"element": "C" 
			},
			{
				"x": -0.1075885068,
				"y": -1.0297053952,
				"z": 0.3250503046,
				"element": "C" 
			},
			{
				"x": -0.0456445488,
				"y": -1.4588899245,
				"z": 1.681690103,
				"element": "C" 
			},
			{
				"x": 1.1449110976,
				"y": -1.9059313345,
				"z": 2.2014302458,
				"element": "N" 
			},
			{
				"x": -1.224783209,
				"y": -1.4567662448,
				"z": 2.4578399548,
				"element": "C" 
			},
			{
				"x": -2.4298723604,
				"y": -1.0340520128,
				"z": 1.9225256844,
				"element": "C" 
			},
			{
				"x": -2.4712282765,
				"y": -0.5983939078,
				"z": 0.5963356597,
				"element": "C" 
			},
			{
				"x": -1.3192397651,
				"y": -0.5948846099,
				"z": -0.1937781809,
				"element": "C" 
			},
			{
				"x": -3.729515329,
				"y": -0.1393818011,
				"z": 0.0292606378,
				"element": "N" 
			},
			{
				"x": -3.7279027483,
				"y": 0.2478311726,
				"z": -1.1434283054,
				"element": "O" 
			},
			{
				"x": -4.7304891603,
				"y": -0.1612753241,
				"z": 0.7514185294,
				"element": "O" 
			},
			{
				"x": 1.3557989078,
				"y": 1.2926084251,
				"z": 0.6423843121,
				"element": "H" 
			},
			{
				"x": 3.1311032939,
				"y": 1.3073266569,
				"z": 0.4496105692,
				"element": "H" 
			},
			{
				"x": 2.0766238199,
				"y": 1.340277622,
				"z": -0.9888582361,
				"element": "H" 
			},
			{
				"x": 1.4239966806,
				"y": -2.1624057595,
				"z": -0.6753127809,
				"element": "H" 
			},
			{
				"x": 0.907461052,
				"y": -0.7021366211,
				"z": -1.5436713031,
				"element": "H" 
			},
			{
				"x": 1.195563979,
				"y": -2.0383356326,
				"z": 3.2001288528,
				"element": "H" 
			},
			{
				"x": 1.9848301602,
				"y": -1.5535616034,
				"z": 1.7576865562,
				"element": "H" 
			},
			{
				"x": -1.1796006736,
				"y": -1.7906669784,
				"z": 3.4909675749,
				"element": "H" 
			},
			{
				"x": -3.3385400374,
				"y": -1.0248845791,
				"z": 2.5115429802,
				"element": "H" 
			},
			{
				"x": -1.3931564075,
				"y": -0.2561200274,
				"z": -1.2210515709,
				"element": "H" 
			}
		],
		 "valence_orbital": [ 
			{
				"type": "occ",
				"energy": -0.29276,
				"method": "rhf"
			},
			{
				"type": "occ",
				"energy": -0.27972,
				"method": "rhf"
			},
			{
				"type": "occ",
				"energy": -0.27359,
				"method": "rhf"
			},
			{
				"type": "occ",
				"energy": -0.26991,
				"method": "rhf"
			},
			{
				"type": "occ",
				"energy": -0.2257,
				"method": "rhf"
			},
			{
				"type": "unocc",
				"energy": -0.07114,
				"method": "rhf"
			},
			{
				"type": "unocc",
				"energy": -0.02234,
				"method": "rhf"
			},
			{
				"type": "unocc",
				"energy": 0.01741,
				"method": "rhf"
			},
			{
				"type": "unocc",
				"energy": 0.07203,
				"method": "rhf"
			},
			{
				"type": "unocc",
				"energy": 0.08972,
				"method": "rhf"
			}
		],
		"cosmo_sigma_profile": { 
			"-0.025": 0.0,
			"-0.024": 0.0,
			"-0.023": 0.0,
			"-0.022": 0.0,
			"-0.021": 0.0,
			"-0.02": 0.0,
			"-0.019": 0.0,
			"-0.018": 0.0,
			"-0.017": 0.0,
			"-0.016": 0.0,
			"-0.015": 0.0,
			"-0.014": 0.746754278961,
			"-0.013": 1.37327019425,
			"-0.012": 1.63612449495,
			"-0.011": 1.67369278483,
			"-0.01": 2.0194630801,
			"-0.009": 2.50325105556,
			"-0.008": 2.34147999225,
			"-0.007": 5.49419416623,
			"-0.006": 9.16995253687,
			"-0.005": 13.0348391476,
			"-0.004": 17.2794921237,
			"-0.003": 18.496252694,
			"-0.002": 19.7904677282,
			"-0.001": 16.9137655462,
			"0.0": 13.7589844655,
			"0.001": 12.9435351306,
			"0.002": 16.0785479538,
			"0.003": 10.2505247511,
			"0.004": 5.34686321715,
			"0.005": 4.1674636377,
			"0.006": 5.04106312412,
			"0.007": 4.66361943401,
			"0.008": 8.16068663754,
			"0.009": 10.8117716576,
			"0.01": 5.49235971575,
			"0.011": 4.54903141028,
			"0.012": 1.29319654086,
			"0.013": 0.13232408945,
			"0.014": 0.0,
			"0.015": 0.0,
			"0.016": 0.0,
			"0.017": 0.0,
			"0.018": 0.0,
			"0.019": 0.0,
			"0.02": 0.0,
			"0.021": 0.0,
			"0.022": 0.0,
			"0.023": 0.0,
			"0.024": 0.0,
			"0.025": 0.0
		}
	}
}
