{
	 "smiles": "NC1=NC(=CS1)C1=CN=CC=C1", 
	 "Tm": 464.15, 
	 "num_atms": 19, 
	 "gaussian": { 
		 "optdone": 1, 
		 "sigma_profile": "yes", 
		 "theory": "DFT", 
		 "functional": "B3LYP", 
		 "basiset": "6-31G**", 
		 "properties": { 
			 "R2extent": 3420.3834, 
			 "electric_dipole_moment_norm": 3.25967491324, 
			 "electric_quadrupole_moment_norm": 17.7729431493, 
			 "total_energy": -871.504346209, 
			 "HOMO_LUMO_gap": 0.16865, 
			 "cosmo_polarized_energy": -13.92, 
			 "cosmo_cavitation_energy": 25.18, 
			 "cosmo_dispersion_energy": -19.52, 
			 "cosmo_repulsion_energy": 1.49, 
			 "cosmo_total_nonelectrostatic_energy": 7.16, 
			 "SMD_solvation_energy": 1.59 
		},
		"coords": [
			{
				"x": 1.8134152961,
				"y": 2.19050502,
				"z": 1.0196452183,
				"element": "N" 
			},
			{
				"x": 0.6408415237,
				"y": 1.5133744444,
				"z": 1.2598001815,
				"element": "C" 
			},
			{
				"x": -0.0782219465,
				"y": 0.952062742,
				"z": 0.3357270463,
				"element": "N" 
			},
			{
				"x": -1.2462764964,
				"y": 0.4133611484,
				"z": 0.8592738483,
				"element": "C" 
			},
			{
				"x": -1.4015783706,
				"y": 0.565458678,
				"z": 2.2108084608,
				"element": "C" 
			},
			{
				"x": -0.0523888718,
				"y": 1.4381772192,
				"z": 2.8882666318,
				"element": "S" 
			},
			{
				"x": -2.1814584273,
				"y": -0.2665195895,
				"z": -0.0537607797,
				"element": "C" 
			},
			{
				"x": -1.866833492,
				"y": -0.399056057,
				"z": -1.418598955,
				"element": "C" 
			},
			{
				"x": -2.6520207243,
				"y": -1.0017364806,
				"z": -2.3171413569,
				"element": "N" 
			},
			{
				"x": -3.812043158,
				"y": -1.509527346,
				"z": -1.8840655235,
				"element": "C" 
			},
			{
				"x": -4.230248154,
				"y": -1.4357824709,
				"z": -0.5537447267,
				"element": "C" 
			},
			{
				"x": -3.4047610062,
				"y": -0.8059988639,
				"z": 0.3708576407,
				"element": "C" 
			},
			{
				"x": 2.5025625287,
				"y": 2.1933896978,
				"z": 1.7577287778,
				"element": "H" 
			},
			{
				"x": 2.1939693482,
				"y": 2.0086154374,
				"z": 0.1000481229,
				"element": "H" 
			},
			{
				"x": -2.1992938312,
				"y": 0.221291343,
				"z": 2.8513270192,
				"element": "H" 
			},
			{
				"x": -0.9290860501,
				"y": 0.0095757147,
				"z": -1.7833700583,
				"element": "H" 
			},
			{
				"x": -4.4355185944,
				"y": -1.9956047719,
				"z": -2.6326176677,
				"element": "H" 
			},
			{
				"x": -5.1825292788,
				"y": -1.8613177909,
				"z": -0.2524998046,
				"element": "H" 
			},
			{
				"x": -3.7120302949,
				"y": -0.7324680742,
				"z": 1.4100159246,
				"element": "H" 
			}
		],
		 "valence_orbital": [ 
			{
				"type": "occ",
				"energy": -0.27987,
				"method": "rhf"
			},
			{
				"type": "occ",
				"energy": -0.27756,
				"method": "rhf"
			},
			{
				"type": "occ",
				"energy": -0.25387,
				"method": "rhf"
			},
			{
				"type": "occ",
				"energy": -0.24437,
				"method": "rhf"
			},
			{
				"type": "occ",
				"energy": -0.2077,
				"method": "rhf"
			},
			{
				"type": "unocc",
				"energy": -0.03905,
				"method": "rhf"
			},
			{
				"type": "unocc",
				"energy": -0.01195,
				"method": "rhf"
			},
			{
				"type": "unocc",
				"energy": 0.00358,
				"method": "rhf"
			},
			{
				"type": "unocc",
				"energy": 0.01065,
				"method": "rhf"
			},
			{
				"type": "unocc",
				"energy": 0.06529,
				"method": "rhf"
			}
		],
		"cosmo_sigma_profile": { 
			"-0.025": 0.0,
			"-0.024": 0.0,
			"-0.023": 0.0,
			"-0.022": 0.0,
			"-0.021": 0.0,
			"-0.02": 0.0,
			"-0.019": 0.0,
			"-0.018": 0.0,
			"-0.017": 0.0,
			"-0.016": 0.0,
			"-0.015": 0.514636392598,
			"-0.014": 1.72778893856,
			"-0.013": 2.92532606077,
			"-0.012": 3.05868020103,
			"-0.011": 2.72121007648,
			"-0.01": 2.77453718974,
			"-0.009": 4.1412779238,
			"-0.008": 4.96232019258,
			"-0.007": 5.93406193129,
			"-0.006": 9.16053531976,
			"-0.005": 9.43322537219,
			"-0.004": 9.78234105222,
			"-0.003": 8.34642619827,
			"-0.002": 8.08127848209,
			"-0.001": 8.35646319673,
			"0.0": 11.2954150052,
			"0.001": 15.0459728242,
			"0.002": 27.6099059862,
			"0.003": 23.0027573634,
			"0.004": 12.776102651,
			"0.005": 7.4205479723,
			"0.006": 4.11489485611,
			"0.007": 3.59365195487,
			"0.008": 4.42409391519,
			"0.009": 2.42175256042,
			"0.01": 3.03565733035,
			"0.011": 2.75914095697,
			"0.012": 1.45113717719,
			"0.013": 0.859551891015,
			"0.014": 0.795156277883,
			"0.015": 0.988979367352,
			"0.016": 0.869158683059,
			"0.017": 0.396641932115,
			"0.018": 0.0,
			"0.019": 0.0,
			"0.02": 0.0,
			"0.021": 0.0,
			"0.022": 0.0,
			"0.023": 0.0,
			"0.024": 0.0,
			"0.025": 0.0
		}
	}
}
