{
	 "smiles": "FC(F)(F)C1=CN=C(C=O)C=C1", 
	 "Tm": 305.15, 
	 "num_atms": 16, 
	 "gaussian": { 
		 "optdone": 1, 
		 "sigma_profile": "yes", 
		 "theory": "DFT", 
		 "functional": "B3LYP", 
		 "basiset": "6-31G**", 
		 "properties": { 
			 "R2extent": 3652.2297, 
			 "electric_dipole_moment_norm": 3.69286357587, 
			 "electric_quadrupole_moment_norm": 9.54430109542, 
			 "total_energy": -698.631323655, 
			 "HOMO_LUMO_gap": 0.17381, 
			 "cosmo_polarized_energy": -12.24, 
			 "cosmo_cavitation_energy": 22.99, 
			 "cosmo_dispersion_energy": -16.23, 
			 "cosmo_repulsion_energy": 1.23, 
			 "cosmo_total_nonelectrostatic_energy": 7.99, 
			 "SMD_solvation_energy": 5.03 
		},
		"coords": [
			{
				"x": 2.343585719,
				"y": 2.584454833,
				"z": 3.2244773754,
				"element": "F" 
			},
			{
				"x": 1.8135114762,
				"y": 1.3442692581,
				"z": 3.2234158581,
				"element": "C" 
			},
			{
				"x": 1.2103816671,
				"y": 1.1671826979,
				"z": 4.4188628868,
				"element": "F" 
			},
			{
				"x": 2.8306273508,
				"y": 0.4594124736,
				"z": 3.1529835478,
				"element": "F" 
			},
			{
				"x": 0.8404404366,
				"y": 1.1614380218,
				"z": 2.0885951818,
				"element": "C" 
			},
			{
				"x": 0.0156235041,
				"y": 2.2254253895,
				"z": 1.6901064412,
				"element": "C" 
			},
			{
				"x": -0.896289616,
				"y": 2.124303156,
				"z": 0.7279742751,
				"element": "N" 
			},
			{
				"x": -1.022182628,
				"y": 0.9353756622,
				"z": 0.1135078928,
				"element": "C" 
			},
			{
				"x": -2.0499902219,
				"y": 0.8135855488,
				"z": -0.9714177986,
				"element": "C" 
			},
			{
				"x": -2.7776330878,
				"y": 1.7075357568,
				"z": -1.3361659445,
				"element": "O" 
			},
			{
				"x": -0.2433428997,
				"y": -0.1808637269,
				"z": 0.4355814376,
				"element": "C" 
			},
			{
				"x": 0.7090944671,
				"y": -0.0669254175,
				"z": 1.4460017313,
				"element": "C" 
			},
			{
				"x": 0.1111033393,
				"y": 3.1963519013,
				"z": 2.1706936707,
				"element": "H" 
			},
			{
				"x": -2.0957416432,
				"y": -0.1985909922,
				"z": -1.433422314,
				"element": "H" 
			},
			{
				"x": -0.3818295206,
				"y": -1.1169613116,
				"z": -0.0975113441,
				"element": "H" 
			},
			{
				"x": 1.3393416571,
				"y": -0.9041932506,
				"z": 1.7254171026,
				"element": "H" 
			}
		],
		 "valence_orbital": [ 
			{
				"type": "occ",
				"energy": -0.39184,
				"method": "rhf"
			},
			{
				"type": "occ",
				"energy": -0.32057,
				"method": "rhf"
			},
			{
				"type": "occ",
				"energy": -0.29602,
				"method": "rhf"
			},
			{
				"type": "occ",
				"energy": -0.28576,
				"method": "rhf"
			},
			{
				"type": "occ",
				"energy": -0.26662,
				"method": "rhf"
			},
			{
				"type": "unocc",
				"energy": -0.09281,
				"method": "rhf"
			},
			{
				"type": "unocc",
				"energy": -0.05185,
				"method": "rhf"
			},
			{
				"type": "unocc",
				"energy": 0.00699,
				"method": "rhf"
			},
			{
				"type": "unocc",
				"energy": 0.08053,
				"method": "rhf"
			},
			{
				"type": "unocc",
				"energy": 0.11191,
				"method": "rhf"
			}
		],
		"cosmo_sigma_profile": { 
			"-0.025": 0.0,
			"-0.024": 0.0,
			"-0.023": 0.0,
			"-0.022": 0.0,
			"-0.021": 0.0,
			"-0.02": 0.0,
			"-0.019": 0.0,
			"-0.018": 0.0,
			"-0.017": 0.0,
			"-0.016": 0.0,
			"-0.015": 0.0,
			"-0.014": 0.0,
			"-0.013": 0.0,
			"-0.012": 0.0,
			"-0.011": 0.0,
			"-0.01": 0.950928459283,
			"-0.009": 5.43089690364,
			"-0.008": 8.1932439491,
			"-0.007": 9.28998853885,
			"-0.006": 7.59461173566,
			"-0.005": 9.14204496946,
			"-0.004": 7.86878274503,
			"-0.003": 12.1196218304,
			"-0.002": 16.4059319784,
			"-0.001": 15.7810967722,
			"0.0": 10.2266441828,
			"0.001": 10.1826764193,
			"0.002": 28.4824710393,
			"0.003": 13.6603645808,
			"0.004": 1.70677533564,
			"0.005": 2.42974659256,
			"0.006": 2.14205655675,
			"0.007": 2.83349281775,
			"0.008": 1.74083869427,
			"0.009": 3.69120189385,
			"0.01": 4.4059526504,
			"0.011": 4.0342661075,
			"0.012": 2.59399108324,
			"0.013": 1.49850929859,
			"0.014": 1.31815405052,
			"0.015": 0.901793740322,
			"0.016": 1.12457561735,
			"0.017": 0.0,
			"0.018": 0.0,
			"0.019": 0.0,
			"0.02": 0.0,
			"0.021": 0.0,
			"0.022": 0.0,
			"0.023": 0.0,
			"0.024": 0.0,
			"0.025": 0.0
		}
	}
}
