{
	 "smiles": "ClC1=C(Cl)C=C(C=C1)N=C=O", 
	 "Tm": 315.65, 
	 "num_atms": 14, 
	 "gaussian": { 
		 "optdone": 1, 
		 "sigma_profile": "yes", 
		 "theory": "DFT", 
		 "functional": "B3LYP", 
		 "basiset": "6-31G**", 
		 "properties": { 
			 "R2extent": 3314.0678, 
			 "electric_dipole_moment_norm": 1.1113452074, 
			 "electric_quadrupole_moment_norm": 11.5664213895, 
			 "total_energy": -1318.90694238, 
			 "HOMO_LUMO_gap": 0.20182, 
			 "cosmo_polarized_energy": -5.66, 
			 "cosmo_cavitation_energy": 23.82, 
			 "cosmo_dispersion_energy": -17.51, 
			 "cosmo_repulsion_energy": 1.41, 
			 "cosmo_total_nonelectrostatic_energy": 7.73, 
			 "SMD_solvation_energy": 5.93 
		},
		"coords": [
			{
				"x": 1.2412756093,
				"y": -2.6511550554,
				"z": 2.2666262149,
				"element": "Cl" 
			},
			{
				"x": 0.3735377312,
				"y": -1.2983071284,
				"z": 1.5890485869,
				"element": "C" 
			},
			{
				"x": -0.8970354031,
				"y": -1.4498607509,
				"z": 1.0163909256,
				"element": "C" 
			},
			{
				"x": -1.685107057,
				"y": -3.0048876482,
				"z": 0.9485444382,
				"element": "Cl" 
			},
			{
				"x": -1.5615002474,
				"y": -0.3456402657,
				"z": 0.4841010552,
				"element": "C" 
			},
			{
				"x": -0.964342507,
				"y": 0.9179758768,
				"z": 0.5187569023,
				"element": "C" 
			},
			{
				"x": 0.3069094185,
				"y": 1.0727457737,
				"z": 1.091090983,
				"element": "C" 
			},
			{
				"x": 0.9636557404,
				"y": -0.031634771,
				"z": 1.6197080629,
				"element": "C" 
			},
			{
				"x": -1.6720739581,
				"y": 1.9881490734,
				"z": -0.027254795,
				"element": "N" 
			},
			{
				"x": -1.5494703813,
				"y": 3.1801812635,
				"z": -0.203467396,
				"element": "C" 
			},
			{
				"x": -1.5579571286,
				"y": 4.3341074022,
				"z": -0.4343001377,
				"element": "O" 
			},
			{
				"x": -2.5430698177,
				"y": -0.4640888139,
				"z": 0.041972488,
				"element": "H" 
			},
			{
				"x": 0.7753839737,
				"y": 2.0511013787,
				"z": 1.1207459891,
				"element": "H" 
			},
			{
				"x": 1.9464940272,
				"y": 0.0791136653,
				"z": 2.0639366827,
				"element": "H" 
			}
		],
		 "valence_orbital": [ 
			{
				"type": "occ",
				"energy": -0.32375,
				"method": "rhf"
			},
			{
				"type": "occ",
				"energy": -0.31816,
				"method": "rhf"
			},
			{
				"type": "occ",
				"energy": -0.31774,
				"method": "rhf"
			},
			{
				"type": "occ",
				"energy": -0.27287,
				"method": "rhf"
			},
			{
				"type": "occ",
				"energy": -0.247,
				"method": "rhf"
			},
			{
				"type": "unocc",
				"energy": -0.04518,
				"method": "rhf"
			},
			{
				"type": "unocc",
				"energy": -0.0367,
				"method": "rhf"
			},
			{
				"type": "unocc",
				"energy": -0.01155,
				"method": "rhf"
			},
			{
				"type": "unocc",
				"energy": 0.00407,
				"method": "rhf"
			},
			{
				"type": "unocc",
				"energy": 0.05305,
				"method": "rhf"
			}
		],
		"cosmo_sigma_profile": { 
			"-0.025": 0.0,
			"-0.024": 0.0,
			"-0.023": 0.0,
			"-0.022": 0.0,
			"-0.021": 0.0,
			"-0.02": 0.0,
			"-0.019": 0.0,
			"-0.018": 0.0,
			"-0.017": 0.0,
			"-0.016": 0.0,
			"-0.015": 0.0,
			"-0.014": 0.0,
			"-0.013": 0.0,
			"-0.012": 0.0,
			"-0.011": 0.0,
			"-0.01": 0.0953962599079,
			"-0.009": 3.31166474854,
			"-0.008": 6.03946166844,
			"-0.007": 6.40349227599,
			"-0.006": 5.80332160874,
			"-0.005": 6.23615805466,
			"-0.004": 7.67851811615,
			"-0.003": 11.6904248675,
			"-0.002": 12.2307421746,
			"-0.001": 16.0845445956,
			"0.0": 25.3402205987,
			"0.001": 26.196699897,
			"0.002": 17.7774114745,
			"0.003": 17.1025164986,
			"0.004": 18.1824961757,
			"0.005": 6.70111738377,
			"0.006": 3.51973354179,
			"0.007": 7.44982957382,
			"0.008": 0.268050724928,
			"0.009": 0.0,
			"0.01": 0.0,
			"0.011": 0.0,
			"0.012": 0.0,
			"0.013": 0.0,
			"0.014": 0.0,
			"0.015": 0.0,
			"0.016": 0.0,
			"0.017": 0.0,
			"0.018": 0.0,
			"0.019": 0.0,
			"0.02": 0.0,
			"0.021": 0.0,
			"0.022": 0.0,
			"0.023": 0.0,
			"0.024": 0.0,
			"0.025": 0.0
		}
	}
}
