{
	 "smiles": "CC1(NC(=O)NC1=O)C1CC1", 
	 "Tm": 442.15, 
	 "num_atms": 21, 
	 "gaussian": { 
		 "optdone": 1, 
		 "sigma_profile": "yes", 
		 "theory": "DFT", 
		 "functional": "B3LYP", 
		 "basiset": "6-31G**", 
		 "properties": { 
			 "R2extent": 1830.6516, 
			 "electric_dipole_moment_norm": 2.8367488909, 
			 "electric_quadrupole_moment_norm": 13.0256209341, 
			 "total_energy": -532.734160741, 
			 "HOMO_LUMO_gap": 0.25034, 
			 "cosmo_polarized_energy": -15.47, 
			 "cosmo_cavitation_energy": 24.27, 
			 "cosmo_dispersion_energy": -17.4, 
			 "cosmo_repulsion_energy": 1.42, 
			 "cosmo_total_nonelectrostatic_energy": 8.29, 
			 "SMD_solvation_energy": 5.14 
		},
		"coords": [
			{
				"x": -0.6353385787,
				"y": 1.2533440837,
				"z": 0.9438045835,
				"element": "C" 
			},
			{
				"x": -0.7202433524,
				"y": -0.0145039425,
				"z": 0.0835190263,
				"element": "C" 
			},
			{
				"x": -1.6944595947,
				"y": 0.1323908901,
				"z": -1.0062051358,
				"element": "N" 
			},
			{
				"x": -1.1637752573,
				"y": -0.0942495597,
				"z": -2.2525643261,
				"element": "C" 
			},
			{
				"x": -1.7350850943,
				"y": -0.1651067225,
				"z": -3.3205748821,
				"element": "O" 
			},
			{
				"x": 0.2279188546,
				"y": -0.2220640975,
				"z": -2.0487377639,
				"element": "N" 
			},
			{
				"x": 0.5956629321,
				"y": -0.1676513548,
				"z": -0.7214389326,
				"element": "C" 
			},
			{
				"x": 1.7181383755,
				"y": -0.2269789048,
				"z": -0.2666846062,
				"element": "O" 
			},
			{
				"x": -0.9793449462,
				"y": -1.3087375102,
				"z": 0.8584579244,
				"element": "C" 
			},
			{
				"x": -0.4571594422,
				"y": -1.5630876347,
				"z": 2.2471943283,
				"element": "C" 
			},
			{
				"x": -1.9397015807,
				"y": -1.3890743923,
				"z": 2.0257725229,
				"element": "C" 
			},
			{
				"x": -0.5119486955,
				"y": 2.12625039,
				"z": 0.2980614838,
				"element": "H" 
			},
			{
				"x": -1.5452620565,
				"y": 1.3972428904,
				"z": 1.5330782833,
				"element": "H" 
			},
			{
				"x": 0.2240994258,
				"y": 1.1995200319,
				"z": 1.6153357904,
				"element": "H" 
			},
			{
				"x": -2.6860177625,
				"y": 0.0056286251,
				"z": -0.8676855526,
				"element": "H" 
			},
			{
				"x": 0.8757162529,
				"y": -0.3306158051,
				"z": -2.8159214056,
				"element": "H" 
			},
			{
				"x": -0.9865722917,
				"y": -2.1745059542,
				"z": 0.1986519378,
				"element": "H" 
			},
			{
				"x": 0.0740041368,
				"y": -0.764986565,
				"z": 2.7542021333,
				"element": "H" 
			},
			{
				"x": -0.0734653737,
				"y": -2.5545937563,
				"z": 2.4650954613,
				"element": "H" 
			},
			{
				"x": -2.3985741724,
				"y": -0.4762554968,
				"z": 2.3931782087,
				"element": "H" 
			},
			{
				"x": -2.583991779,
				"y": -2.2607652149,
				"z": 2.0865609209,
				"element": "H" 
			}
		],
		 "valence_orbital": [ 
			{
				"type": "occ",
				"energy": -0.31453,
				"method": "rhf"
			},
			{
				"type": "occ",
				"energy": -0.28766,
				"method": "rhf"
			},
			{
				"type": "occ",
				"energy": -0.28295,
				"method": "rhf"
			},
			{
				"type": "occ",
				"energy": -0.26611,
				"method": "rhf"
			},
			{
				"type": "occ",
				"energy": -0.25775,
				"method": "rhf"
			},
			{
				"type": "unocc",
				"energy": -0.00741,
				"method": "rhf"
			},
			{
				"type": "unocc",
				"energy": 0.05629,
				"method": "rhf"
			},
			{
				"type": "unocc",
				"energy": 0.07553,
				"method": "rhf"
			},
			{
				"type": "unocc",
				"energy": 0.08313,
				"method": "rhf"
			},
			{
				"type": "unocc",
				"energy": 0.08881,
				"method": "rhf"
			}
		],
		"cosmo_sigma_profile": { 
			"-0.025": 0.0,
			"-0.024": 0.0,
			"-0.023": 0.0,
			"-0.022": 0.0,
			"-0.021": 0.0,
			"-0.02": 0.0,
			"-0.019": 0.0,
			"-0.018": 0.0,
			"-0.017": 0.21213007314,
			"-0.016": 1.36930852428,
			"-0.015": 1.45052353129,
			"-0.014": 2.35977813816,
			"-0.013": 1.28872945372,
			"-0.012": 1.13378398294,
			"-0.011": 1.54808411984,
			"-0.01": 1.97603602049,
			"-0.009": 1.87945552887,
			"-0.008": 2.20513649878,
			"-0.007": 2.66462317585,
			"-0.006": 7.56216192444,
			"-0.005": 15.2869194439,
			"-0.004": 18.5054894861,
			"-0.003": 16.5274066199,
			"-0.002": 15.5576503038,
			"-0.001": 17.2056734371,
			"0.0": 11.9666851276,
			"0.001": 8.6055459891,
			"0.002": 6.36476496889,
			"0.003": 6.21424342852,
			"0.004": 5.30006069531,
			"0.005": 5.35326125648,
			"0.006": 3.38837495321,
			"0.007": 2.5733909844,
			"0.008": 3.15053281933,
			"0.009": 3.22257601709,
			"0.01": 2.8220051571,
			"0.011": 4.56400919583,
			"0.012": 9.55029844598,
			"0.013": 7.99856659639,
			"0.014": 1.02040234817,
			"0.015": 0.0,
			"0.016": 0.0,
			"0.017": 0.0,
			"0.018": 0.0,
			"0.019": 0.0,
			"0.02": 0.0,
			"0.021": 0.0,
			"0.022": 0.0,
			"0.023": 0.0,
			"0.024": 0.0,
			"0.025": 0.0
		}
	}
}
