{
	 "smiles": "CCCOC1=CC=C(C=C1)C(N)=NO", 
	 "Tm": 379.15, 
	 "num_atms": 28, 
	 "gaussian": { 
		 "optdone": 1, 
		 "sigma_profile": "yes", 
		 "theory": "DFT", 
		 "functional": "B3LYP", 
		 "basiset": "6-31G**", 
		 "properties": { 
			 "R2extent": 4654.8495, 
			 "electric_dipole_moment_norm": 2.04276722609, 
			 "electric_quadrupole_moment_norm": 10.1383007565, 
			 "total_energy": -649.403743015, 
			 "HOMO_LUMO_gap": 0.1846, 
			 "cosmo_polarized_energy": -13.15, 
			 "cosmo_cavitation_energy": 31.38, 
			 "cosmo_dispersion_energy": -22.98, 
			 "cosmo_repulsion_energy": 1.85, 
			 "cosmo_total_nonelectrostatic_energy": 10.25, 
			 "SMD_solvation_energy": 5.66 
		},
		"coords": [
			{
				"x": -2.5587052657,
				"y": -3.4341087712,
				"z": 0.2883860642,
				"element": "C" 
			},
			{
				"x": -1.54553833,
				"y": -2.7324936302,
				"z": 1.1979037376,
				"element": "C" 
			},
			{
				"x": -0.1245190756,
				"y": -2.7409206695,
				"z": 0.6307334992,
				"element": "C" 
			},
			{
				"x": -0.0274110656,
				"y": -2.0955438823,
				"z": -0.6430308897,
				"element": "O" 
			},
			{
				"x": 0.0829104528,
				"y": -0.7374672532,
				"z": -0.7163684349,
				"element": "C" 
			},
			{
				"x": 0.1704459256,
				"y": -0.2107078812,
				"z": -2.0136619926,
				"element": "C" 
			},
			{
				"x": 0.3023243677,
				"y": 1.1578248086,
				"z": -2.2088575541,
				"element": "C" 
			},
			{
				"x": 0.3428967222,
				"y": 2.0430999742,
				"z": -1.1178097499,
				"element": "C" 
			},
			{
				"x": 0.2542090514,
				"y": 1.5064965894,
				"z": 0.1731469505,
				"element": "C" 
			},
			{
				"x": 0.1272126686,
				"y": 0.1349178486,
				"z": 0.381709904,
				"element": "C" 
			},
			{
				"x": 0.4776837256,
				"y": 3.5026225533,
				"z": -1.321510577,
				"element": "C" 
			},
			{
				"x": 0.0990580389,
				"y": 4.0276861115,
				"z": -2.545299472,
				"element": "N" 
			},
			{
				"x": 0.9894046137,
				"y": 4.2061300295,
				"z": -0.3624518363,
				"element": "N" 
			},
			{
				"x": 0.9788476149,
				"y": 5.5858697756,
				"z": -0.7247207902,
				"element": "O" 
			},
			{
				"x": -2.592958661,
				"y": -2.9586321079,
				"z": -0.6957855816,
				"element": "H" 
			},
			{
				"x": -3.5643231103,
				"y": -3.3985474629,
				"z": 0.7183779002,
				"element": "H" 
			},
			{
				"x": -2.2944005782,
				"y": -4.4875228566,
				"z": 0.1406983148,
				"element": "H" 
			},
			{
				"x": -1.8618137883,
				"y": -1.6990494272,
				"z": 1.3805444864,
				"element": "H" 
			},
			{
				"x": -1.5118389864,
				"y": -3.2253081195,
				"z": 2.1786793328,
				"element": "H" 
			},
			{
				"x": 0.194263189,
				"y": -3.7702623505,
				"z": 0.4366277739,
				"element": "H" 
			},
			{
				"x": 0.5919923797,
				"y": -2.3009681088,
				"z": 1.3353768629,
				"element": "H" 
			},
			{
				"x": 0.1486099946,
				"y": -0.8984815835,
				"z": -2.8526424515,
				"element": "H" 
			},
			{
				"x": 0.4048236441,
				"y": 1.543151967,
				"z": -3.2186818731,
				"element": "H" 
			},
			{
				"x": 0.2810994983,
				"y": 2.1824457921,
				"z": 1.0207414411,
				"element": "H" 
			},
			{
				"x": 0.0517207928,
				"y": -0.2373201671,
				"z": 1.3962133065,
				"element": "H" 
			},
			{
				"x": -0.7005546501,
				"y": 3.5871824071,
				"z": -2.9773129467,
				"element": "H" 
			},
			{
				"x": 0.0699477386,
				"y": 5.038617735,
				"z": -2.5519950591,
				"element": "H" 
			},
			{
				"x": 1.3921130931,
				"y": 5.99408868,
				"z": 0.0449896345,
				"element": "H" 
			}
		],
		 "valence_orbital": [ 
			{
				"type": "occ",
				"energy": -0.3018,
				"method": "rhf"
			},
			{
				"type": "occ",
				"energy": -0.26608,
				"method": "rhf"
			},
			{
				"type": "occ",
				"energy": -0.25084,
				"method": "rhf"
			},
			{
				"type": "occ",
				"energy": -0.22977,
				"method": "rhf"
			},
			{
				"type": "occ",
				"energy": -0.19666,
				"method": "rhf"
			},
			{
				"type": "unocc",
				"energy": -0.01206,
				"method": "rhf"
			},
			{
				"type": "unocc",
				"energy": -0.00188,
				"method": "rhf"
			},
			{
				"type": "unocc",
				"energy": 0.06798,
				"method": "rhf"
			},
			{
				"type": "unocc",
				"energy": 0.08366,
				"method": "rhf"
			},
			{
				"type": "unocc",
				"energy": 0.09024,
				"method": "rhf"
			}
		],
		"cosmo_sigma_profile": { 
			"-0.025": 0.0,
			"-0.024": 0.0,
			"-0.023": 0.0,
			"-0.022": 0.0,
			"-0.021": 0.0,
			"-0.02": 0.0,
			"-0.019": 0.0,
			"-0.018": 0.0,
			"-0.017": 0.226822469399,
			"-0.016": 1.01915636924,
			"-0.015": 0.953007090556,
			"-0.014": 0.835439879747,
			"-0.013": 1.50093987407,
			"-0.012": 1.89851518085,
			"-0.011": 2.56872302848,
			"-0.01": 1.88158166747,
			"-0.009": 3.30642220182,
			"-0.008": 3.01717552425,
			"-0.007": 4.23450879344,
			"-0.006": 8.58134418917,
			"-0.005": 12.6823235878,
			"-0.004": 15.7237293509,
			"-0.003": 21.3193553335,
			"-0.002": 19.9148550121,
			"-0.001": 17.281107898,
			"0.0": 19.7321905058,
			"0.001": 17.6135410934,
			"0.002": 14.1218843188,
			"0.003": 14.6821247599,
			"0.004": 14.5309241199,
			"0.005": 14.8418496919,
			"0.006": 6.79061703736,
			"0.007": 5.51798222539,
			"0.008": 6.89180537424,
			"0.009": 5.96700519575,
			"0.01": 4.10088866768,
			"0.011": 2.21455679874,
			"0.012": 1.49510533236,
			"0.013": 0.741392387591,
			"0.014": 0.752946831204,
			"0.015": 0.11639796506,
			"0.016": 0.0,
			"0.017": 0.0,
			"0.018": 0.0,
			"0.019": 0.0,
			"0.02": 0.0,
			"0.021": 0.0,
			"0.022": 0.0,
			"0.023": 0.0,
			"0.024": 0.0,
			"0.025": 0.0
		}
	}
}
