{
	 "smiles": "CC1=NN=C(CCl)S1", 
	 "Tm": 350.15, 
	 "num_atms": 13, 
	 "gaussian": { 
		 "optdone": 1, 
		 "sigma_profile": "yes", 
		 "theory": "DFT", 
		 "functional": "B3LYP", 
		 "basiset": "6-31G**", 
		 "properties": { 
			 "R2extent": 3461.4352, 
			 "electric_dipole_moment_norm": 3.03344479264, 
			 "electric_quadrupole_moment_norm": 11.9956990584, 
			 "total_energy": -1123.29556997, 
			 "HOMO_LUMO_gap": 0.21512, 
			 "cosmo_polarized_energy": -10.16, 
			 "cosmo_cavitation_energy": 20.77, 
			 "cosmo_dispersion_energy": -16.02, 
			 "cosmo_repulsion_energy": 1.3, 
			 "cosmo_total_nonelectrostatic_energy": 6.05, 
			 "SMD_solvation_energy": 1.2 
		},
		"coords": [
			{
				"x": 0.2552296819,
				"y": -0.8759094215,
				"z": -1.7037048088,
				"element": "C" 
			},
			{
				"x": -0.4161654996,
				"y": -1.0875649424,
				"z": -0.3842487162,
				"element": "C" 
			},
			{
				"x": -1.0934494564,
				"y": -0.1602956277,
				"z": 0.2347043372,
				"element": "N" 
			},
			{
				"x": -1.6283036065,
				"y": -0.5774544536,
				"z": 1.4199445394,
				"element": "N" 
			},
			{
				"x": -1.3538359783,
				"y": -1.8198985857,
				"z": 1.7007041007,
				"element": "C" 
			},
			{
				"x": -1.8150746364,
				"y": -2.4632027263,
				"z": 2.9639973279,
				"element": "C" 
			},
			{
				"x": -3.0142511027,
				"y": -3.8034042213,
				"z": 2.6732324997,
				"element": "Cl" 
			},
			{
				"x": -0.3791799854,
				"y": -2.6156631399,
				"z": 0.4813227635,
				"element": "S" 
			},
			{
				"x": -0.1427069585,
				"y": -1.5529539789,
				"z": -2.4662851204,
				"element": "H" 
			},
			{
				"x": 0.077495769,
				"y": 0.1542923538,
				"z": -2.0172398863,
				"element": "H" 
			},
			{
				"x": 1.3344999545,
				"y": -1.0454347917,
				"z": -1.6347107341,
				"element": "H" 
			},
			{
				"x": -0.9931388015,
				"y": -2.9119052165,
				"z": 3.52284523,
				"element": "H" 
			},
			{
				"x": -2.3129193801,
				"y": -1.7069052482,
				"z": 3.5694384673,
				"element": "H" 
			}
		],
		 "valence_orbital": [ 
			{
				"type": "occ",
				"energy": -0.31146,
				"method": "rhf"
			},
			{
				"type": "occ",
				"energy": -0.30545,
				"method": "rhf"
			},
			{
				"type": "occ",
				"energy": -0.2998,
				"method": "rhf"
			},
			{
				"type": "occ",
				"energy": -0.28079,
				"method": "rhf"
			},
			{
				"type": "occ",
				"energy": -0.27298,
				"method": "rhf"
			},
			{
				"type": "unocc",
				"energy": -0.05786,
				"method": "rhf"
			},
			{
				"type": "unocc",
				"energy": -0.0064,
				"method": "rhf"
			},
			{
				"type": "unocc",
				"energy": 0.0073,
				"method": "rhf"
			},
			{
				"type": "unocc",
				"energy": 0.04045,
				"method": "rhf"
			},
			{
				"type": "unocc",
				"energy": 0.07575,
				"method": "rhf"
			}
		],
		"cosmo_sigma_profile": { 
			"-0.025": 0.0,
			"-0.024": 0.0,
			"-0.023": 0.0,
			"-0.022": 0.0,
			"-0.021": 0.0,
			"-0.02": 0.0,
			"-0.019": 0.0,
			"-0.018": 0.0,
			"-0.017": 0.0,
			"-0.016": 0.0,
			"-0.015": 0.0,
			"-0.014": 0.0,
			"-0.013": 0.0,
			"-0.012": 0.0,
			"-0.011": 0.0,
			"-0.01": 0.805271395007,
			"-0.009": 4.42008777532,
			"-0.008": 4.08075050399,
			"-0.007": 6.83058292844,
			"-0.006": 12.4575453591,
			"-0.005": 10.6598854353,
			"-0.004": 10.0504839642,
			"-0.003": 11.7585881967,
			"-0.002": 15.4212322617,
			"-0.001": 11.6480617648,
			"0.0": 11.291994184,
			"0.001": 12.0100607158,
			"0.002": 9.31624204974,
			"0.003": 6.27457499143,
			"0.004": 7.70777149101,
			"0.005": 10.4771151925,
			"0.006": 6.12435054469,
			"0.007": 2.1372742781,
			"0.008": 2.31274335601,
			"0.009": 2.60377150362,
			"0.01": 2.05319402215,
			"0.011": 3.43399612458,
			"0.012": 2.1843025814,
			"0.013": 2.49878432394,
			"0.014": 1.66405765485,
			"0.015": 0.266515988645,
			"0.016": 0.0,
			"0.017": 0.0,
			"0.018": 0.0,
			"0.019": 0.0,
			"0.02": 0.0,
			"0.021": 0.0,
			"0.022": 0.0,
			"0.023": 0.0,
			"0.024": 0.0,
			"0.025": 0.0
		}
	}
}
