{
	 "smiles": "O=CC1=CC2=C(NC=N2)C=C1", 
	 "Tm": 433.15, 
	 "num_atms": 17, 
	 "gaussian": { 
		 "optdone": 1, 
		 "sigma_profile": "yes", 
		 "theory": "DFT", 
		 "functional": "B3LYP", 
		 "basiset": "6-31G**", 
		 "properties": { 
			 "R2extent": 1832.5834, 
			 "electric_dipole_moment_norm": 5.55295922369, 
			 "electric_quadrupole_moment_norm": 16.1939659871, 
			 "total_energy": -493.193679519, 
			 "HOMO_LUMO_gap": 0.18971, 
			 "cosmo_polarized_energy": -16.77, 
			 "cosmo_cavitation_energy": 21.86, 
			 "cosmo_dispersion_energy": -16.38, 
			 "cosmo_repulsion_energy": 1.29, 
			 "cosmo_total_nonelectrostatic_energy": 6.76, 
			 "SMD_solvation_energy": 3.06 
		},
		"coords": [
			{
				"x": 1.1461933789,
				"y": -0.2172308593,
				"z": -3.9403019562,
				"element": "O" 
			},
			{
				"x": 1.2559883973,
				"y": 0.3610805561,
				"z": -2.8745067259,
				"element": "C" 
			},
			{
				"x": 0.4014127666,
				"y": 0.1251047562,
				"z": -1.6931863875,
				"element": "C" 
			},
			{
				"x": 0.6299298614,
				"y": 0.8579688956,
				"z": -0.5258447095,
				"element": "C" 
			},
			{
				"x": -0.1917741002,
				"y": 0.6161594954,
				"z": 0.5772503682,
				"element": "C" 
			},
			{
				"x": -1.221922883,
				"y": -0.3542593177,
				"z": 0.4822893253,
				"element": "C" 
			},
			{
				"x": -1.8247203018,
				"y": -0.3368286011,
				"z": 1.7229385889,
				"element": "N" 
			},
			{
				"x": -1.157337648,
				"y": 0.6056347486,
				"z": 2.4793926124,
				"element": "C" 
			},
			{
				"x": -0.1827030626,
				"y": 1.1948780333,
				"z": 1.840832178,
				"element": "N" 
			},
			{
				"x": -1.4611120066,
				"y": -1.0955136948,
				"z": -0.6824854814,
				"element": "C" 
			},
			{
				"x": -0.634739987,
				"y": -0.8399537316,
				"z": -1.7644021017,
				"element": "C" 
			},
			{
				"x": 2.040608964,
				"y": 1.1370409521,
				"z": -2.7252733324,
				"element": "H" 
			},
			{
				"x": 1.4242737178,
				"y": 1.5974151811,
				"z": -0.4722602505,
				"element": "H" 
			},
			{
				"x": -2.6035655038,
				"y": -0.9021714046,
				"z": 2.0239825984,
				"element": "H" 
			},
			{
				"x": -1.4459050743,
				"y": 0.808002463,
				"z": 3.5029857248,
				"element": "H" 
			},
			{
				"x": -2.2541586219,
				"y": -1.8350335711,
				"z": -0.7389113273,
				"element": "H" 
			},
			{
				"x": -0.758567897,
				"y": -1.3741939011,
				"z": -2.7006991236,
				"element": "H" 
			}
		],
		 "valence_orbital": [ 
			{
				"type": "occ",
				"energy": -0.32109,
				"method": "rhf"
			},
			{
				"type": "occ",
				"energy": -0.28563,
				"method": "rhf"
			},
			{
				"type": "occ",
				"energy": -0.24794,
				"method": "rhf"
			},
			{
				"type": "occ",
				"energy": -0.24503,
				"method": "rhf"
			},
			{
				"type": "occ",
				"energy": -0.24135,
				"method": "rhf"
			},
			{
				"type": "unocc",
				"energy": -0.05164,
				"method": "rhf"
			},
			{
				"type": "unocc",
				"energy": -0.02623,
				"method": "rhf"
			},
			{
				"type": "unocc",
				"energy": 0.03649,
				"method": "rhf"
			},
			{
				"type": "unocc",
				"energy": 0.06179,
				"method": "rhf"
			},
			{
				"type": "unocc",
				"energy": 0.06232,
				"method": "rhf"
			}
		],
		"cosmo_sigma_profile": { 
			"-0.025": 0.0,
			"-0.024": 0.0,
			"-0.023": 0.0,
			"-0.022": 0.0,
			"-0.021": 0.0,
			"-0.02": 0.0,
			"-0.019": 0.0,
			"-0.018": 0.0186174727647,
			"-0.017": 1.64304674413,
			"-0.016": 1.68366569916,
			"-0.015": 1.66830797149,
			"-0.014": 1.26973017466,
			"-0.013": 1.28971301618,
			"-0.012": 1.19568679905,
			"-0.011": 1.65174253519,
			"-0.01": 3.18272296698,
			"-0.009": 4.09852806712,
			"-0.008": 2.78527251354,
			"-0.007": 8.36897045894,
			"-0.006": 7.82753577611,
			"-0.005": 9.42898475779,
			"-0.004": 8.71997486207,
			"-0.003": 7.64321374697,
			"-0.002": 7.98473225347,
			"-0.001": 7.36927919626,
			"0.0": 12.3773087363,
			"0.001": 13.0121703242,
			"0.002": 13.9672212771,
			"0.003": 15.2888098815,
			"0.004": 7.90005440227,
			"0.005": 3.72551267379,
			"0.006": 3.31444559913,
			"0.007": 2.87215262924,
			"0.008": 3.10425102351,
			"0.009": 3.1475568922,
			"0.01": 3.15470921918,
			"0.011": 4.92532158376,
			"0.012": 5.3053561264,
			"0.013": 2.45045294724,
			"0.014": 1.27735728376,
			"0.015": 0.815250635865,
			"0.016": 1.0219967504,
			"0.017": 0.758022505258,
			"0.018": 0.0,
			"0.019": 0.0,
			"0.02": 0.0,
			"0.021": 0.0,
			"0.022": 0.0,
			"0.023": 0.0,
			"0.024": 0.0,
			"0.025": 0.0
		}
	}
}
