{
	 "smiles": "NC1=CC(=CC=C1N1CCOCC1)C(F)(F)F", 
	 "Tm": 409.15, 
	 "num_atms": 30, 
	 "gaussian": { 
		 "optdone": 1, 
		 "sigma_profile": "yes", 
		 "theory": "DFT", 
		 "functional": "B3LYP", 
		 "basiset": "6-31G**", 
		 "properties": { 
			 "R2extent": 5736.9465, 
			 "electric_dipole_moment_norm": 3.03838336126, 
			 "electric_quadrupole_moment_norm": 18.3922412169, 
			 "total_energy": -911.2335307, 
			 "HOMO_LUMO_gap": 0.1884, 
			 "cosmo_polarized_energy": -10.46, 
			 "cosmo_cavitation_energy": 33.23, 
			 "cosmo_dispersion_energy": -23.84, 
			 "cosmo_repulsion_energy": 1.78, 
			 "cosmo_total_nonelectrostatic_energy": 11.18, 
			 "SMD_solvation_energy": 6.04 
		},
		"coords": [
			{
				"x": -1.059089661,
				"y": 0.9110054244,
				"z": 2.405803838,
				"element": "N" 
			},
			{
				"x": 0.0821504295,
				"y": 0.8603419639,
				"z": 1.609512786,
				"element": "C" 
			},
			{
				"x": 1.3097863602,
				"y": 1.3700666298,
				"z": 2.0475821596,
				"element": "C" 
			},
			{
				"x": 2.4409255983,
				"y": 1.296626839,
				"z": 1.2335463399,
				"element": "C" 
			},
			{
				"x": 2.3672198973,
				"y": 0.7108717198,
				"z": -0.0306807929,
				"element": "C" 
			},
			{
				"x": 1.150001215,
				"y": 0.1863913506,
				"z": -0.4648253136,
				"element": "C" 
			},
			{
				"x": 0.0009596854,
				"y": 0.2510942274,
				"z": 0.3292394686,
				"element": "C" 
			},
			{
				"x": -1.2692318587,
				"y": -0.2642214742,
				"z": -0.0637625757,
				"element": "N" 
			},
			{
				"x": -1.659587854,
				"y": -0.1690499447,
				"z": -1.4843952388,
				"element": "C" 
			},
			{
				"x": -1.778792165,
				"y": -1.5420146484,
				"z": -2.1436730176,
				"element": "C" 
			},
			{
				"x": -2.740472449,
				"y": -2.3659499704,
				"z": -1.4895346712,
				"element": "O" 
			},
			{
				"x": -2.8604937826,
				"y": -2.1330477266,
				"z": -0.0860112422,
				"element": "C" 
			},
			{
				"x": -1.5814130163,
				"y": -1.5833934121,
				"z": 0.5307569392,
				"element": "C" 
			},
			{
				"x": 3.7567763389,
				"y": 1.8049925625,
				"z": 1.7515767627,
				"element": "C" 
			},
			{
				"x": 4.5705670549,
				"y": 2.215409345,
				"z": 0.7527337034,
				"element": "F" 
			},
			{
				"x": 3.6001250158,
				"y": 2.8487550014,
				"z": 2.599678376,
				"element": "F" 
			},
			{
				"x": 4.4320260385,
				"y": 0.8500184797,
				"z": 2.4359338288,
				"element": "F" 
			},
			{
				"x": -1.0536824807,
				"y": 1.6330518817,
				"z": 3.1135294981,
				"element": "H" 
			},
			{
				"x": -1.9084862056,
				"y": 0.9030250304,
				"z": 1.8508043327,
				"element": "H" 
			},
			{
				"x": 1.3753010616,
				"y": 1.8502422738,
				"z": 3.0190799006,
				"element": "H" 
			},
			{
				"x": 3.246155123,
				"y": 0.6598716149,
				"z": -0.6626965529,
				"element": "H" 
			},
			{
				"x": 1.0957935499,
				"y": -0.2846848901,
				"z": -1.4416227861,
				"element": "H" 
			},
			{
				"x": -0.940910459,
				"y": 0.4502475556,
				"z": -2.0272471055,
				"element": "H" 
			},
			{
				"x": -2.6324453721,
				"y": 0.3366259695,
				"z": -1.5571171456,
				"element": "H" 
			},
			{
				"x": -0.7960778534,
				"y": -2.0400320138,
				"z": -2.1572088145,
				"element": "H" 
			},
			{
				"x": -2.109931268,
				"y": -1.4362982385,
				"z": -3.1825241915,
				"element": "H" 
			},
			{
				"x": -3.6904211981,
				"y": -1.4358677002,
				"z": 0.1109343794,
				"element": "H" 
			},
			{
				"x": -3.1147508535,
				"y": -3.0928738003,
				"z": 0.3757121447,
				"element": "H" 
			},
			{
				"x": -1.7021313772,
				"y": -1.4725510037,
				"z": 1.6138011571,
				"element": "H" 
			},
			{
				"x": -0.7620695141,
				"y": -2.3017530461,
				"z": 0.3659738334,
				"element": "H" 
			}
		],
		 "valence_orbital": [ 
			{
				"type": "occ",
				"energy": -0.30613,
				"method": "rhf"
			},
			{
				"type": "occ",
				"energy": -0.26965,
				"method": "rhf"
			},
			{
				"type": "occ",
				"energy": -0.25266,
				"method": "rhf"
			},
			{
				"type": "occ",
				"energy": -0.22827,
				"method": "rhf"
			},
			{
				"type": "occ",
				"energy": -0.20597,
				"method": "rhf"
			},
			{
				"type": "unocc",
				"energy": -0.01757,
				"method": "rhf"
			},
			{
				"type": "unocc",
				"energy": 0.00251,
				"method": "rhf"
			},
			{
				"type": "unocc",
				"energy": 0.07058,
				"method": "rhf"
			},
			{
				"type": "unocc",
				"energy": 0.08305,
				"method": "rhf"
			},
			{
				"type": "unocc",
				"energy": 0.0993,
				"method": "rhf"
			}
		],
		"cosmo_sigma_profile": { 
			"-0.025": 0.0,
			"-0.024": 0.0,
			"-0.023": 0.0,
			"-0.022": 0.0,
			"-0.021": 0.0,
			"-0.02": 0.0,
			"-0.019": 0.0,
			"-0.018": 0.0,
			"-0.017": 0.0,
			"-0.016": 0.0,
			"-0.015": 0.0,
			"-0.014": 0.0,
			"-0.013": 0.2845691268,
			"-0.012": 1.49066062655,
			"-0.011": 1.52766518829,
			"-0.01": 2.26360934482,
			"-0.009": 2.1053422407,
			"-0.008": 2.92796009929,
			"-0.007": 3.79380142132,
			"-0.006": 7.10238353628,
			"-0.005": 14.2211767736,
			"-0.004": 24.2412751029,
			"-0.003": 27.2450636603,
			"-0.002": 21.1575852865,
			"-0.001": 14.7535088728,
			"0.0": 14.193969673,
			"0.001": 15.0189946846,
			"0.002": 20.6414641403,
			"0.003": 41.2740342394,
			"0.004": 21.1720669776,
			"0.005": 9.96350050625,
			"0.006": 2.16801455378,
			"0.007": 1.83502123958,
			"0.008": 1.96229658234,
			"0.009": 2.4174814727,
			"0.01": 1.33809908548,
			"0.011": 1.70432473424,
			"0.012": 1.96137155611,
			"0.013": 2.17035652654,
			"0.014": 1.11120738293,
			"0.015": 0.0,
			"0.016": 0.0,
			"0.017": 0.0,
			"0.018": 0.0,
			"0.019": 0.0,
			"0.02": 0.0,
			"0.021": 0.0,
			"0.022": 0.0,
			"0.023": 0.0,
			"0.024": 0.0,
			"0.025": 0.0
		}
	}
}
