{
	 "smiles": "COC1=CC(=CC=C1Br)[N+]([O-])=O", 
	 "Tm": 377.15, 
	 "num_atms": 18, 
	 "gaussian": { 
		 "optdone": 1, 
		 "sigma_profile": "yes", 
		 "theory": "DFT", 
		 "functional": "B3LYP", 
		 "basiset": "6-31G**", 
		 "properties": { 
			 "R2extent": 3995.7635, 
			 "electric_dipole_moment_norm": 2.98246207017, 
			 "electric_quadrupole_moment_norm": 15.4754433568, 
			 "total_energy": -3122.07173277, 
			 "HOMO_LUMO_gap": 0.15405, 
			 "cosmo_polarized_energy": -9.18, 
			 "cosmo_cavitation_energy": 25.43, 
			 "cosmo_dispersion_energy": -19.07, 
			 "cosmo_repulsion_energy": 1.52, 
			 "cosmo_total_nonelectrostatic_energy": 7.89, 
			 "SMD_solvation_energy": 6.44 
		},
		"coords": [
			{
				"x": 2.3137304356,
				"y": 2.1071909849,
				"z": -1.5141277368,
				"element": "C" 
			},
			{
				"x": 1.5934130588,
				"y": 2.4082413589,
				"z": -0.3230072981,
				"element": "O" 
			},
			{
				"x": 0.7056087582,
				"y": 1.5012893917,
				"z": 0.1404045985,
				"element": "C" 
			},
			{
				"x": 0.4406101576,
				"y": 0.2744830706,
				"z": -0.4734289485,
				"element": "C" 
			},
			{
				"x": -0.4989160597,
				"y": -0.5828812202,
				"z": 0.0976305681,
				"element": "C" 
			},
			{
				"x": -1.1920166694,
				"y": -0.27209103,
				"z": 1.2609678378,
				"element": "C" 
			},
			{
				"x": -0.9260990354,
				"y": 0.9525060081,
				"z": 1.8718336986,
				"element": "C" 
			},
			{
				"x": 0.0067429156,
				"y": 1.8278018989,
				"z": 1.3237890214,
				"element": "C" 
			},
			{
				"x": 0.3450325567,
				"y": 3.4866527992,
				"z": 2.1805086129,
				"element": "Br" 
			},
			{
				"x": -0.7599425564,
				"y": -1.8688818511,
				"z": -0.5679730365,
				"element": "N" 
			},
			{
				"x": -1.5905608577,
				"y": -2.617565894,
				"z": -0.055329221,
				"element": "O" 
			},
			{
				"x": -0.131230338,
				"y": -2.1182123189,
				"z": -1.5971424686,
				"element": "O" 
			},
			{
				"x": 1.6380941613,
				"y": 1.9744088361,
				"z": -2.3674639255,
				"element": "H" 
			},
			{
				"x": 2.9589202116,
				"y": 2.9674401607,
				"z": -1.6923592378,
				"element": "H" 
			},
			{
				"x": 2.9292814886,
				"y": 1.2079250746,
				"z": -1.3928394466,
				"element": "H" 
			},
			{
				"x": 0.9404501814,
				"y": -0.0355916199,
				"z": -1.3800367547,
				"element": "H" 
			},
			{
				"x": -1.912349322,
				"y": -0.969630532,
				"z": 1.6671351851,
				"element": "H" 
			},
			{
				"x": -1.4444690867,
				"y": 1.2344148822,
				"z": 2.7808385514,
				"element": "H" 
			}
		],
		 "valence_orbital": [ 
			{
				"type": "occ",
				"energy": -0.31161,
				"method": "rhf"
			},
			{
				"type": "occ",
				"energy": -0.29807,
				"method": "rhf"
			},
			{
				"type": "occ",
				"energy": -0.29345,
				"method": "rhf"
			},
			{
				"type": "occ",
				"energy": -0.27353,
				"method": "rhf"
			},
			{
				"type": "occ",
				"energy": -0.24838,
				"method": "rhf"
			},
			{
				"type": "unocc",
				"energy": -0.09433,
				"method": "rhf"
			},
			{
				"type": "unocc",
				"energy": -0.02608,
				"method": "rhf"
			},
			{
				"type": "unocc",
				"energy": -0.005,
				"method": "rhf"
			},
			{
				"type": "unocc",
				"energy": -0.00383,
				"method": "rhf"
			},
			{
				"type": "unocc",
				"energy": 0.08329,
				"method": "rhf"
			}
		],
		"cosmo_sigma_profile": { 
			"-0.025": 0.0,
			"-0.024": 0.0,
			"-0.023": 0.0,
			"-0.022": 0.0,
			"-0.021": 0.0,
			"-0.02": 0.0,
			"-0.019": 0.0,
			"-0.018": 0.0,
			"-0.017": 0.0,
			"-0.016": 0.0,
			"-0.015": 0.0,
			"-0.014": 0.0,
			"-0.013": 0.0,
			"-0.012": 0.0,
			"-0.011": 0.0,
			"-0.01": 0.0,
			"-0.009": 0.318050483316,
			"-0.008": 4.20756787243,
			"-0.007": 9.91569118937,
			"-0.006": 13.8506990092,
			"-0.005": 13.2210846601,
			"-0.004": 16.0140507516,
			"-0.003": 11.5410757467,
			"-0.002": 11.5210292991,
			"-0.001": 18.8939742408,
			"0.0": 22.0214435372,
			"0.001": 14.8408309465,
			"0.002": 9.73254961815,
			"0.003": 11.4955080948,
			"0.004": 11.1836451685,
			"0.005": 5.30370037863,
			"0.006": 5.84789386599,
			"0.007": 10.3386323398,
			"0.008": 8.82251793326,
			"0.009": 5.73018633547,
			"0.01": 2.49992851127,
			"0.011": 0.0429825836703,
			"0.012": 0.0,
			"0.013": 0.0,
			"0.014": 0.0,
			"0.015": 0.0,
			"0.016": 0.0,
			"0.017": 0.0,
			"0.018": 0.0,
			"0.019": 0.0,
			"0.02": 0.0,
			"0.021": 0.0,
			"0.022": 0.0,
			"0.023": 0.0,
			"0.024": 0.0,
			"0.025": 0.0
		}
	}
}
