{
	 "smiles": "CCOC(=O)C1=C(O)C=CC=C1", 
	 "Tm": 275.65, 
	 "num_atms": 22, 
	 "gaussian": { 
		 "optdone": 1, 
		 "sigma_profile": "yes", 
		 "theory": "DFT", 
		 "functional": "B3LYP", 
		 "basiset": "6-31G**", 
		 "properties": { 
			 "R2extent": 2640.9972, 
			 "electric_dipole_moment_norm": 3.10231291942, 
			 "electric_quadrupole_moment_norm": 8.60312846411, 
			 "total_energy": -574.665668734, 
			 "HOMO_LUMO_gap": 0.19168, 
			 "cosmo_polarized_energy": -12.89, 
			 "cosmo_cavitation_energy": 26.04, 
			 "cosmo_dispersion_energy": -19.17, 
			 "cosmo_repulsion_energy": 1.55, 
			 "cosmo_total_nonelectrostatic_energy": 8.42, 
			 "SMD_solvation_energy": 6.0 
		},
		"coords": [
			{
				"x": -2.6926991175,
				"y": -2.1479193109,
				"z": -1.0413463582,
				"element": "C" 
			},
			{
				"x": -1.3629949135,
				"y": -2.2914338384,
				"z": -1.7674148927,
				"element": "C" 
			},
			{
				"x": -0.5949012935,
				"y": -1.0676765331,
				"z": -1.7102695709,
				"element": "O" 
			},
			{
				"x": 0.1516305862,
				"y": -0.8819338506,
				"z": -0.6054445292,
				"element": "C" 
			},
			{
				"x": 0.1998356026,
				"y": -1.6855748236,
				"z": 0.310792091,
				"element": "O" 
			},
			{
				"x": 0.9249252288,
				"y": 0.396787518,
				"z": -0.5996144236,
				"element": "C" 
			},
			{
				"x": 0.9235230257,
				"y": 1.3798673378,
				"z": -1.6157580101,
				"element": "C" 
			},
			{
				"x": 0.1693088286,
				"y": 1.2125815509,
				"z": -2.7338862522,
				"element": "O" 
			},
			{
				"x": 1.709034176,
				"y": 2.532716522,
				"z": -1.4592164971,
				"element": "C" 
			},
			{
				"x": 2.4867971052,
				"y": 2.7220362103,
				"z": -0.322477575,
				"element": "C" 
			},
			{
				"x": 2.4964484068,
				"y": 1.7578566877,
				"z": 0.6887979802,
				"element": "C" 
			},
			{
				"x": 1.7204253043,
				"y": 0.6160259634,
				"z": 0.5383106871,
				"element": "C" 
			},
			{
				"x": -2.5301927675,
				"y": -1.9936536333,
				"z": 0.027907082,
				"element": "H" 
			},
			{
				"x": -3.2875319526,
				"y": -3.0583991864,
				"z": -1.17140783,
				"element": "H" 
			},
			{
				"x": -3.2636435983,
				"y": -1.3040386343,
				"z": -1.4397751423,
				"element": "H" 
			},
			{
				"x": -1.5087758947,
				"y": -2.4656869478,
				"z": -2.83624414,
				"element": "H" 
			},
			{
				"x": -0.7691232319,
				"y": -3.1043443924,
				"z": -1.3428585817,
				"element": "H" 
			},
			{
				"x": 0.2990735616,
				"y": 1.9811562643,
				"z": -3.3057120164,
				"element": "H" 
			},
			{
				"x": 1.7022777199,
				"y": 3.2846721053,
				"z": -2.2462603763,
				"element": "H" 
			},
			{
				"x": 3.0847051047,
				"y": 3.6241827756,
				"z": -0.2290334734,
				"element": "H" 
			},
			{
				"x": 3.100314273,
				"y": 1.8973272934,
				"z": 1.5794086529,
				"element": "H" 
			},
			{
				"x": 1.7026638464,
				"y": -0.1535490777,
				"z": 1.3021031759,
				"element": "H" 
			}
		],
		 "valence_orbital": [ 
			{
				"type": "occ",
				"energy": -0.32352,
				"method": "rhf"
			},
			{
				"type": "occ",
				"energy": -0.28739,
				"method": "rhf"
			},
			{
				"type": "occ",
				"energy": -0.2646,
				"method": "rhf"
			},
			{
				"type": "occ",
				"energy": -0.25765,
				"method": "rhf"
			},
			{
				"type": "occ",
				"energy": -0.22982,
				"method": "rhf"
			},
			{
				"type": "unocc",
				"energy": -0.03814,
				"method": "rhf"
			},
			{
				"type": "unocc",
				"energy": 0.00463,
				"method": "rhf"
			},
			{
				"type": "unocc",
				"energy": 0.06275,
				"method": "rhf"
			},
			{
				"type": "unocc",
				"energy": 0.06455,
				"method": "rhf"
			},
			{
				"type": "unocc",
				"energy": 0.09476,
				"method": "rhf"
			}
		],
		"cosmo_sigma_profile": { 
			"-0.025": 0.0,
			"-0.024": 0.0,
			"-0.023": 0.0,
			"-0.022": 0.0,
			"-0.021": 0.0,
			"-0.02": 0.0,
			"-0.019": 0.0,
			"-0.018": 0.911470847931,
			"-0.017": 0.87031384052,
			"-0.016": 1.55164997729,
			"-0.015": 0.759449242081,
			"-0.014": 1.46138839049,
			"-0.013": 0.959850806542,
			"-0.012": 0.359068628322,
			"-0.011": 0.884244042877,
			"-0.01": 1.33686050695,
			"-0.009": 1.31949598346,
			"-0.008": 0.870805009916,
			"-0.007": 2.63370309202,
			"-0.006": 7.61944864553,
			"-0.005": 11.927959408,
			"-0.004": 16.7739534187,
			"-0.003": 17.5465307679,
			"-0.002": 15.3983270914,
			"-0.001": 16.0788310959,
			"0.0": 17.8202459363,
			"0.001": 13.9391796048,
			"0.002": 14.5780999189,
			"0.003": 13.3701007099,
			"0.004": 13.927707406,
			"0.005": 6.5725295144,
			"0.006": 3.52108973613,
			"0.007": 3.27645778912,
			"0.008": 2.44571005294,
			"0.009": 3.00395600434,
			"0.01": 2.96024825433,
			"0.011": 3.1915184914,
			"0.012": 5.10999220689,
			"0.013": 2.91016197893,
			"0.014": 0.864483282809,
			"0.015": 0.0,
			"0.016": 0.0,
			"0.017": 0.0,
			"0.018": 0.0,
			"0.019": 0.0,
			"0.02": 0.0,
			"0.021": 0.0,
			"0.022": 0.0,
			"0.023": 0.0,
			"0.024": 0.0,
			"0.025": 0.0
		}
	}
}
