{
	 "smiles": "COC(=O)C1=CC2=C(C=C1)C(C=O)=CN2", 
	 "Tm": 495.15, 
	 "num_atms": 24, 
	 "gaussian": { 
		 "optdone": 1, 
		 "sigma_profile": "yes", 
		 "theory": "DFT", 
		 "functional": "B3LYP", 
		 "basiset": "6-31G**", 
		 "properties": { 
			 "R2extent": 4642.9556, 
			 "electric_dipole_moment_norm": 3.66328446206, 
			 "electric_quadrupole_moment_norm": 30.631047587, 
			 "total_energy": -705.029767788, 
			 "HOMO_LUMO_gap": 0.17648, 
			 "cosmo_polarized_energy": -18.74, 
			 "cosmo_cavitation_energy": 29.35, 
			 "cosmo_dispersion_energy": -21.49, 
			 "cosmo_repulsion_energy": 1.66, 
			 "cosmo_total_nonelectrostatic_energy": 9.52, 
			 "SMD_solvation_energy": 7.51 
		},
		"coords": [
			{
				"x": 3.1325708714,
				"y": 3.1683190489,
				"z": 3.3515739083,
				"element": "C" 
			},
			{
				"x": 2.4065433101,
				"y": 2.1850726845,
				"z": 2.5998320695,
				"element": "O" 
			},
			{
				"x": 2.7730602322,
				"y": 2.0652165661,
				"z": 1.3030243667,
				"element": "C" 
			},
			{
				"x": 3.6545615624,
				"y": 2.7382096041,
				"z": 0.800643219,
				"element": "O" 
			},
			{
				"x": 1.9854580772,
				"y": 1.0309449858,
				"z": 0.5779216865,
				"element": "C" 
			},
			{
				"x": 2.295047178,
				"y": 0.8357291876,
				"z": -0.7704841148,
				"element": "C" 
			},
			{
				"x": 1.5651655267,
				"y": -0.1283423116,
				"z": -1.4574667016,
				"element": "C" 
			},
			{
				"x": 0.5435022144,
				"y": -0.8969632625,
				"z": -0.8425428685,
				"element": "C" 
			},
			{
				"x": 0.247986851,
				"y": -0.6850452656,
				"z": 0.5138898233,
				"element": "C" 
			},
			{
				"x": 0.9696216428,
				"y": 0.2742581996,
				"z": 1.2097917456,
				"element": "C" 
			},
			{
				"x": 0.0185885992,
				"y": -1.7818669864,
				"z": -1.8567368475,
				"element": "C" 
			},
			{
				"x": -1.0420213419,
				"y": -2.7669816364,
				"z": -1.7265263777,
				"element": "C" 
			},
			{
				"x": -1.6612383363,
				"y": -2.9914768748,
				"z": -0.6973479805,
				"element": "O" 
			},
			{
				"x": 0.7274352699,
				"y": -1.5190195906,
				"z": -3.0175411585,
				"element": "C" 
			},
			{
				"x": 1.6468307616,
				"y": -0.5378935136,
				"z": -2.7851416369,
				"element": "N" 
			},
			{
				"x": 2.717312895,
				"y": 3.1341254115,
				"z": 4.3588063678,
				"element": "H" 
			},
			{
				"x": 4.1994396522,
				"y": 2.9312423599,
				"z": 3.3678295961,
				"element": "H" 
			},
			{
				"x": 3.0010412767,
				"y": 4.1619198277,
				"z": 2.9155302085,
				"element": "H" 
			},
			{
				"x": 3.0782398579,
				"y": 1.4294183151,
				"z": -1.229792655,
				"element": "H" 
			},
			{
				"x": -0.5312071301,
				"y": -1.2686324295,
				"z": 0.9897891119,
				"element": "H" 
			},
			{
				"x": 0.7610318576,
				"y": 0.4569351058,
				"z": 2.2570987147,
				"element": "H" 
			},
			{
				"x": -1.268563609,
				"y": -3.3316796387,
				"z": -2.6593553404,
				"element": "H" 
			},
			{
				"x": 0.6316284926,
				"y": -1.9723489772,
				"z": -3.9948667737,
				"element": "H" 
			},
			{
				"x": 2.2871642883,
				"y": -0.1660408098,
				"z": -3.4691283627,
				"element": "H" 
			}
		],
		 "valence_orbital": [ 
			{
				"type": "occ",
				"energy": -0.28835,
				"method": "rhf"
			},
			{
				"type": "occ",
				"energy": -0.27201,
				"method": "rhf"
			},
			{
				"type": "occ",
				"energy": -0.2464,
				"method": "rhf"
			},
			{
				"type": "occ",
				"energy": -0.24351,
				"method": "rhf"
			},
			{
				"type": "occ",
				"energy": -0.22695,
				"method": "rhf"
			},
			{
				"type": "unocc",
				"energy": -0.05047,
				"method": "rhf"
			},
			{
				"type": "unocc",
				"energy": -0.04008,
				"method": "rhf"
			},
			{
				"type": "unocc",
				"energy": 0.00559,
				"method": "rhf"
			},
			{
				"type": "unocc",
				"energy": 0.05511,
				"method": "rhf"
			},
			{
				"type": "unocc",
				"energy": 0.06053,
				"method": "rhf"
			}
		],
		"cosmo_sigma_profile": { 
			"-0.025": 0.0,
			"-0.024": 0.0,
			"-0.023": 0.0,
			"-0.022": 0.0,
			"-0.021": 0.0,
			"-0.02": 0.0,
			"-0.019": 0.0,
			"-0.018": 0.00630567864006,
			"-0.017": 1.42739941143,
			"-0.016": 1.82905800719,
			"-0.015": 1.44896849681,
			"-0.014": 1.45075476632,
			"-0.013": 1.23969066908,
			"-0.012": 1.45395850785,
			"-0.011": 1.89235790075,
			"-0.01": 3.47941738135,
			"-0.009": 3.84925522099,
			"-0.008": 3.8418054834,
			"-0.007": 4.40241179704,
			"-0.006": 10.0301064808,
			"-0.005": 13.3876611034,
			"-0.004": 15.1121959208,
			"-0.003": 16.0744216452,
			"-0.002": 14.7908753702,
			"-0.001": 11.6928133996,
			"0.0": 13.9097781784,
			"0.001": 18.2553945286,
			"0.002": 18.5885872903,
			"0.003": 21.8847622773,
			"0.004": 12.5289623622,
			"0.005": 7.2364444208,
			"0.006": 4.54800112185,
			"0.007": 3.43136829547,
			"0.008": 3.54964913152,
			"0.009": 2.68388239096,
			"0.01": 4.63028526647,
			"0.011": 4.62100060385,
			"0.012": 8.31602228849,
			"0.013": 2.83731569163,
			"0.014": 1.0133477574,
			"0.015": 0.0,
			"0.016": 0.0,
			"0.017": 0.0,
			"0.018": 0.0,
			"0.019": 0.0,
			"0.02": 0.0,
			"0.021": 0.0,
			"0.022": 0.0,
			"0.023": 0.0,
			"0.024": 0.0,
			"0.025": 0.0
		}
	}
}
