{
	 "smiles": "OC1=CC=CC=C1C=NC1=CC=CC=C1", 
	 "Tm": 322.35, 
	 "num_atms": 26, 
	 "gaussian": { 
		 "optdone": 1, 
		 "sigma_profile": "yes", 
		 "theory": "DFT", 
		 "functional": "B3LYP", 
		 "basiset": "6-31G**", 
		 "properties": { 
			 "R2extent": 4608.83, 
			 "electric_dipole_moment_norm": 2.21814414545, 
			 "electric_quadrupole_moment_norm": 10.6604475689, 
			 "total_energy": -631.992345869, 
			 "HOMO_LUMO_gap": 0.1507, 
			 "cosmo_polarized_energy": -7.88, 
			 "cosmo_cavitation_energy": 30.22, 
			 "cosmo_dispersion_energy": -22.36, 
			 "cosmo_repulsion_energy": 1.72, 
			 "cosmo_total_nonelectrostatic_energy": 9.58, 
			 "SMD_solvation_energy": 4.98 
		},
		"coords": [
			{
				"x": 0.9502724642,
				"y": 0.9265989715,
				"z": 2.0953049684,
				"element": "O" 
			},
			{
				"x": 0.0385001791,
				"y": 0.3404373975,
				"z": 2.8816616379,
				"element": "C" 
			},
			{
				"x": 0.172431232,
				"y": 0.4542865972,
				"z": 4.2748307473,
				"element": "C" 
			},
			{
				"x": -0.7583440868,
				"y": -0.1394523029,
				"z": 5.1174531732,
				"element": "C" 
			},
			{
				"x": -1.8473388139,
				"y": -0.8606756001,
				"z": 4.6015907119,
				"element": "C" 
			},
			{
				"x": -1.9875703623,
				"y": -0.9776941565,
				"z": 3.2276869168,
				"element": "C" 
			},
			{
				"x": -1.0598375888,
				"y": -0.3900120425,
				"z": 2.3439680195,
				"element": "C" 
			},
			{
				"x": -1.2332429776,
				"y": -0.5320833772,
				"z": 0.9127213436,
				"element": "C" 
			},
			{
				"x": -0.4137740531,
				"y": -0.003105918,
				"z": 0.0630321695,
				"element": "N" 
			},
			{
				"x": -0.5693867901,
				"y": -0.1986767761,
				"z": -1.3229780131,
				"element": "C" 
			},
			{
				"x": -1.0466989332,
				"y": -1.3971200566,
				"z": -1.8815443083,
				"element": "C" 
			},
			{
				"x": -1.164885853,
				"y": -1.5271907902,
				"z": -3.2644872985,
				"element": "C" 
			},
			{
				"x": -0.8074629026,
				"y": -0.4729465402,
				"z": -4.1076481742,
				"element": "C" 
			},
			{
				"x": -0.3148233802,
				"y": 0.713470526,
				"z": -3.5573812877,
				"element": "C" 
			},
			{
				"x": -0.1848679245,
				"y": 0.8472319234,
				"z": -2.177484463,
				"element": "C" 
			},
			{
				"x": 0.6836276268,
				"y": 0.7423444055,
				"z": 1.1509136814,
				"element": "H" 
			},
			{
				"x": 1.0160563041,
				"y": 1.0143546818,
				"z": 4.6642190147,
				"element": "H" 
			},
			{
				"x": -0.6389257812,
				"y": -0.0413831688,
				"z": 6.1929571644,
				"element": "H" 
			},
			{
				"x": -2.5684593309,
				"y": -1.3194309982,
				"z": 5.2699868871,
				"element": "H" 
			},
			{
				"x": -2.823999595,
				"y": -1.5320525979,
				"z": 2.807971995,
				"element": "H" 
			},
			{
				"x": -2.1091417869,
				"y": -1.1026357003,
				"z": 0.5774958812,
				"element": "H" 
			},
			{
				"x": -1.2897880884,
				"y": -2.2350512376,
				"z": -1.2351195617,
				"element": "H" 
			},
			{
				"x": -1.5262734773,
				"y": -2.4614348233,
				"z": -3.6849936209,
				"element": "H" 
			},
			{
				"x": -0.8977118565,
				"y": -0.5802899874,
				"z": -5.184398416,
				"element": "H" 
			},
			{
				"x": -0.0244527364,
				"y": 1.5350174132,
				"z": -4.2059090242,
				"element": "H" 
			},
			{
				"x": 0.2001985124,
				"y": 1.7623941579,
				"z": -1.7384501443,
				"element": "H" 
			}
		],
		 "valence_orbital": [ 
			{
				"type": "occ",
				"energy": -0.28505,
				"method": "rhf"
			},
			{
				"type": "occ",
				"energy": -0.26129,
				"method": "rhf"
			},
			{
				"type": "occ",
				"energy": -0.25549,
				"method": "rhf"
			},
			{
				"type": "occ",
				"energy": -0.2337,
				"method": "rhf"
			},
			{
				"type": "occ",
				"energy": -0.21386,
				"method": "rhf"
			},
			{
				"type": "unocc",
				"energy": -0.06316,
				"method": "rhf"
			},
			{
				"type": "unocc",
				"energy": -0.00617,
				"method": "rhf"
			},
			{
				"type": "unocc",
				"energy": 0.00508,
				"method": "rhf"
			},
			{
				"type": "unocc",
				"energy": 0.01078,
				"method": "rhf"
			},
			{
				"type": "unocc",
				"energy": 0.04848,
				"method": "rhf"
			}
		],
		"cosmo_sigma_profile": { 
			"-0.025": 0.0,
			"-0.024": 0.0,
			"-0.023": 0.0,
			"-0.022": 0.0,
			"-0.021": 0.0,
			"-0.02": 0.0,
			"-0.019": 0.0,
			"-0.018": 0.0,
			"-0.017": 0.0,
			"-0.016": 0.0,
			"-0.015": 0.0,
			"-0.014": 0.0,
			"-0.013": 0.0,
			"-0.012": 0.0,
			"-0.011": 0.0,
			"-0.01": 0.0,
			"-0.009": 0.0,
			"-0.008": 1.60937390665,
			"-0.007": 5.70190119048,
			"-0.006": 16.1390671306,
			"-0.005": 17.4400238496,
			"-0.004": 22.3888229773,
			"-0.003": 18.5606962982,
			"-0.002": 14.0484452387,
			"-0.001": 14.5693223999,
			"0.0": 17.4402060188,
			"0.001": 18.5963623548,
			"0.002": 19.2220612114,
			"0.003": 21.9585202618,
			"0.004": 22.7684191841,
			"0.005": 18.0436391824,
			"0.006": 5.20318563993,
			"0.007": 1.78241858114,
			"0.008": 1.56044404823,
			"0.009": 1.30677489745,
			"0.01": 1.01754606855,
			"0.011": 2.04610400472,
			"0.012": 1.46538420015,
			"0.013": 0.0318283541584,
			"0.014": 0.0,
			"0.015": 0.0,
			"0.016": 0.0,
			"0.017": 0.0,
			"0.018": 0.0,
			"0.019": 0.0,
			"0.02": 0.0,
			"0.021": 0.0,
			"0.022": 0.0,
			"0.023": 0.0,
			"0.024": 0.0,
			"0.025": 0.0
		}
	}
}
