{
	 "smiles": "BrC1=C(C=CC=C1)C1=NC=NO1", 
	 "Tm": 309.15, 
	 "num_atms": 17, 
	 "gaussian": { 
		 "optdone": 1, 
		 "sigma_profile": "yes", 
		 "theory": "DFT", 
		 "functional": "B3LYP", 
		 "basiset": "6-31G**", 
		 "properties": { 
			 "R2extent": 3929.7975, 
			 "electric_dipole_moment_norm": 3.2992117013, 
			 "electric_quadrupole_moment_norm": 9.58659265589, 
			 "total_energy": -3063.94504423, 
			 "HOMO_LUMO_gap": 0.18342, 
			 "cosmo_polarized_energy": -8.14, 
			 "cosmo_cavitation_energy": 24.18, 
			 "cosmo_dispersion_energy": -18.52, 
			 "cosmo_repulsion_energy": 1.44, 
			 "cosmo_total_nonelectrostatic_energy": 7.1, 
			 "SMD_solvation_energy": 1.71 
		},
		"coords": [
			{
				"x": -2.1895289779,
				"y": -2.4234179355,
				"z": 0.8788977658,
				"element": "Br" 
			},
			{
				"x": -0.3170367096,
				"y": -2.0612842575,
				"z": 0.8676458494,
				"element": "C" 
			},
			{
				"x": 0.3739882532,
				"y": -1.5418244826,
				"z": -0.2452998388,
				"element": "C" 
			},
			{
				"x": 1.7615707304,
				"y": -1.3208921789,
				"z": -0.1148066745,
				"element": "C" 
			},
			{
				"x": 2.4364358794,
				"y": -1.6014888234,
				"z": 1.0642930351,
				"element": "C" 
			},
			{
				"x": 1.7336595104,
				"y": -2.1159994704,
				"z": 2.1558780774,
				"element": "C" 
			},
			{
				"x": 0.3641813747,
				"y": -2.3433227494,
				"z": 2.0543829126,
				"element": "C" 
			},
			{
				"x": -0.1972550825,
				"y": -1.1971251301,
				"z": -1.5520920199,
				"element": "C" 
			},
			{
				"x": 0.4755953734,
				"y": -0.7091382408,
				"z": -2.5684032602,
				"element": "N" 
			},
			{
				"x": -0.4962941215,
				"y": -0.5694813687,
				"z": -3.5173949233,
				"element": "C" 
			},
			{
				"x": -1.6987884878,
				"y": -0.9342113033,
				"z": -3.1530787393,
				"element": "N" 
			},
			{
				"x": -1.5028615237,
				"y": -1.3583995856,
				"z": -1.8284077939,
				"element": "O" 
			},
			{
				"x": 2.2876135078,
				"y": -0.921143281,
				"z": -0.9740498862,
				"element": "H" 
			},
			{
				"x": 3.5042325991,
				"y": -1.4201097363,
				"z": 1.1318060347,
				"element": "H" 
			},
			{
				"x": 2.2456326689,
				"y": -2.3415084484,
				"z": 3.0864399252,
				"element": "H" 
			},
			{
				"x": -0.1913576027,
				"y": -2.7420659468,
				"z": 2.894962097,
				"element": "H" 
			},
			{
				"x": -0.3083873916,
				"y": -0.1850870614,
				"z": -4.5111725611,
				"element": "H" 
			}
		],
		 "valence_orbital": [ 
			{
				"type": "occ",
				"energy": -0.3197,
				"method": "rhf"
			},
			{
				"type": "occ",
				"energy": -0.30284,
				"method": "rhf"
			},
			{
				"type": "occ",
				"energy": -0.2876,
				"method": "rhf"
			},
			{
				"type": "occ",
				"energy": -0.26347,
				"method": "rhf"
			},
			{
				"type": "occ",
				"energy": -0.25283,
				"method": "rhf"
			},
			{
				"type": "unocc",
				"energy": -0.06941,
				"method": "rhf"
			},
			{
				"type": "unocc",
				"energy": -0.02741,
				"method": "rhf"
			},
			{
				"type": "unocc",
				"energy": -0.00226,
				"method": "rhf"
			},
			{
				"type": "unocc",
				"energy": 0.00699,
				"method": "rhf"
			},
			{
				"type": "unocc",
				"energy": 0.05189,
				"method": "rhf"
			}
		],
		"cosmo_sigma_profile": { 
			"-0.025": 0.0,
			"-0.024": 0.0,
			"-0.023": 0.0,
			"-0.022": 0.0,
			"-0.021": 0.0,
			"-0.02": 0.0,
			"-0.019": 0.0,
			"-0.018": 0.0,
			"-0.017": 0.0,
			"-0.016": 0.0,
			"-0.015": 0.0,
			"-0.014": 0.0,
			"-0.013": 0.0,
			"-0.012": 0.00141601288906,
			"-0.011": 1.35678906139,
			"-0.01": 1.53304918225,
			"-0.009": 1.95474352223,
			"-0.008": 3.13907874906,
			"-0.007": 7.73306733489,
			"-0.006": 10.4108080757,
			"-0.005": 10.4381431035,
			"-0.004": 11.2319586299,
			"-0.003": 12.5770167317,
			"-0.002": 13.3330177749,
			"-0.001": 14.1459078842,
			"0.0": 17.3994023538,
			"0.001": 21.4889479567,
			"0.002": 19.7588344321,
			"0.003": 12.0528599913,
			"0.004": 11.8404520847,
			"0.005": 5.01881388922,
			"0.006": 6.66788899526,
			"0.007": 5.23353174401,
			"0.008": 2.03864199628,
			"0.009": 2.74379230621,
			"0.01": 2.52788781178,
			"0.011": 2.26867240318,
			"0.012": 1.93430582082,
			"0.013": 0.380734726933,
			"0.014": 0.0,
			"0.015": 0.0,
			"0.016": 0.0,
			"0.017": 0.0,
			"0.018": 0.0,
			"0.019": 0.0,
			"0.02": 0.0,
			"0.021": 0.0,
			"0.022": 0.0,
			"0.023": 0.0,
			"0.024": 0.0,
			"0.025": 0.0
		}
	}
}
