{
	 "smiles": "FC1=C(S)C=CC(=C1)C#N", 
	 "Tm": 333.15, 
	 "num_atms": 14, 
	 "gaussian": { 
		 "optdone": 1, 
		 "sigma_profile": "yes", 
		 "theory": "DFT", 
		 "functional": "B3LYP", 
		 "basiset": "6-31G**", 
		 "properties": { 
			 "R2extent": 1881.0207, 
			 "electric_dipole_moment_norm": 3.51250456085, 
			 "electric_quadrupole_moment_norm": 13.9862187549, 
			 "total_energy": -821.906652966, 
			 "HOMO_LUMO_gap": 0.18164, 
			 "cosmo_polarized_energy": -9.25, 
			 "cosmo_cavitation_energy": 21.82, 
			 "cosmo_dispersion_energy": -16.01, 
			 "cosmo_repulsion_energy": 1.22, 
			 "cosmo_total_nonelectrostatic_energy": 7.03, 
			 "SMD_solvation_energy": 5.1 
		},
		"coords": [
			{
				"x": -2.2312181047,
				"y": -0.5874578811,
				"z": -0.7568771019,
				"element": "F" 
			},
			{
				"x": -0.966744836,
				"y": -0.1983195575,
				"z": -0.4845960019,
				"element": "C" 
			},
			{
				"x": -0.4587370601,
				"y": -0.4030713285,
				"z": 0.8046183909,
				"element": "C" 
			},
			{
				"x": -1.4117475353,
				"y": -1.1545925186,
				"z": 2.0966326693,
				"element": "S" 
			},
			{
				"x": 0.8575076335,
				"y": 0.0108671992,
				"z": 1.059138689,
				"element": "C" 
			},
			{
				"x": 1.6269867798,
				"y": 0.6026892344,
				"z": 0.0649252375,
				"element": "C" 
			},
			{
				"x": 1.091733631,
				"y": 0.7960237971,
				"z": -1.2201514555,
				"element": "C" 
			},
			{
				"x": -0.2237985517,
				"y": 0.3881985746,
				"z": -1.4938000403,
				"element": "C" 
			},
			{
				"x": 1.8799799367,
				"y": 1.4055438661,
				"z": -2.2490706127,
				"element": "C" 
			},
			{
				"x": 2.5226999562,
				"y": 1.9009223349,
				"z": -3.0827417385,
				"element": "N" 
			},
			{
				"x": -2.5221702247,
				"y": -1.3441961975,
				"z": 1.3612406738,
				"element": "H" 
			},
			{
				"x": 1.2779029219,
				"y": -0.1350838184,
				"z": 2.04919448,
				"element": "H" 
			},
			{
				"x": 2.6426659509,
				"y": 0.9174434275,
				"z": 0.2764911666,
				"element": "H" 
			},
			{
				"x": -0.6661604976,
				"y": 0.5229328678,
				"z": -2.473904356,
				"element": "H" 
			}
		],
		 "valence_orbital": [ 
			{
				"type": "occ",
				"energy": -0.36245,
				"method": "rhf"
			},
			{
				"type": "occ",
				"energy": -0.33785,
				"method": "rhf"
			},
			{
				"type": "occ",
				"energy": -0.31278,
				"method": "rhf"
			},
			{
				"type": "occ",
				"energy": -0.28227,
				"method": "rhf"
			},
			{
				"type": "occ",
				"energy": -0.24404,
				"method": "rhf"
			},
			{
				"type": "unocc",
				"energy": -0.0624,
				"method": "rhf"
			},
			{
				"type": "unocc",
				"energy": -0.03206,
				"method": "rhf"
			},
			{
				"type": "unocc",
				"energy": 0.00079,
				"method": "rhf"
			},
			{
				"type": "unocc",
				"energy": 0.02771,
				"method": "rhf"
			},
			{
				"type": "unocc",
				"energy": 0.04482,
				"method": "rhf"
			}
		],
		"cosmo_sigma_profile": { 
			"-0.025": 0.0,
			"-0.024": 0.0,
			"-0.023": 0.0,
			"-0.022": 0.0,
			"-0.021": 0.0,
			"-0.02": 0.0,
			"-0.019": 0.0,
			"-0.018": 0.0,
			"-0.017": 0.0,
			"-0.016": 0.0,
			"-0.015": 0.0,
			"-0.014": 0.0,
			"-0.013": 0.0,
			"-0.012": 0.261987647083,
			"-0.011": 0.951667742817,
			"-0.01": 1.54468577687,
			"-0.009": 4.3917587117,
			"-0.008": 7.54074811305,
			"-0.007": 7.98787378777,
			"-0.006": 7.12543271707,
			"-0.005": 6.97751857277,
			"-0.004": 8.18532451367,
			"-0.003": 8.5032631844,
			"-0.002": 13.1305644756,
			"-0.001": 17.0696986325,
			"0.0": 18.0316603985,
			"0.001": 16.3351712289,
			"0.002": 11.8289288762,
			"0.003": 11.5753780507,
			"0.004": 6.4525315176,
			"0.005": 5.63213938321,
			"0.006": 4.51587026787,
			"0.007": 5.48801161132,
			"0.008": 3.26757699249,
			"0.009": 3.70203729981,
			"0.01": 2.98010893101,
			"0.011": 2.79939935446,
			"0.012": 2.28510860898,
			"0.013": 1.35817774732,
			"0.014": 0.0170493383943,
			"0.015": 0.0,
			"0.016": 0.0,
			"0.017": 0.0,
			"0.018": 0.0,
			"0.019": 0.0,
			"0.02": 0.0,
			"0.021": 0.0,
			"0.022": 0.0,
			"0.023": 0.0,
			"0.024": 0.0,
			"0.025": 0.0
		}
	}
}
