{
	 "smiles": "OC(=O)C1=C2NC3=C(CCCC3)C2=CC=C1", 
	 "Tm": 464.15, 
	 "num_atms": 29, 
	 "gaussian": { 
		 "optdone": 1, 
		 "sigma_profile": "yes", 
		 "theory": "DFT", 
		 "functional": "B3LYP", 
		 "basiset": "6-31G**", 
		 "properties": { 
			 "R2extent": 4128.3321, 
			 "electric_dipole_moment_norm": 5.57976148325, 
			 "electric_quadrupole_moment_norm": 14.8614901144, 
			 "total_energy": -708.453467665, 
			 "HOMO_LUMO_gap": 0.16666, 
			 "cosmo_polarized_energy": -14.98, 
			 "cosmo_cavitation_energy": 31.21, 
			 "cosmo_dispersion_energy": -23.26, 
			 "cosmo_repulsion_energy": 1.8, 
			 "cosmo_total_nonelectrostatic_energy": 9.75, 
			 "SMD_solvation_energy": 5.11 
		},
		"coords": [
			{
				"x": -2.5488491843,
				"y": 0.843123961,
				"z": -1.1652672529,
				"element": "O" 
			},
			{
				"x": -2.69862228,
				"y": 0.3974267501,
				"z": 0.1260086647,
				"element": "C" 
			},
			{
				"x": -3.7662497861,
				"y": -0.0298857261,
				"z": 0.4921985791,
				"element": "O" 
			},
			{
				"x": -1.4795030172,
				"y": 0.4863381414,
				"z": 0.9768857929,
				"element": "C" 
			},
			{
				"x": -0.1705090132,
				"y": 0.4617099015,
				"z": 0.4627003421,
				"element": "C" 
			},
			{
				"x": 0.2851888216,
				"y": 0.3293585643,
				"z": -0.8424726312,
				"element": "N" 
			},
			{
				"x": 1.67984678,
				"y": 0.3137572611,
				"z": -0.8289322285,
				"element": "C" 
			},
			{
				"x": 2.1323836939,
				"y": 0.4924745402,
				"z": 0.4510039313,
				"element": "C" 
			},
			{
				"x": 3.5935343594,
				"y": 0.560165954,
				"z": 0.7957258909,
				"element": "C" 
			},
			{
				"x": 4.4458627742,
				"y": 0.0147670576,
				"z": -0.3679936588,
				"element": "C" 
			},
			{
				"x": 3.9783331509,
				"y": 0.5611779856,
				"z": -1.7280444445,
				"element": "C" 
			},
			{
				"x": 2.5293208781,
				"y": 0.1388262438,
				"z": -2.0487377161,
				"element": "C" 
			},
			{
				"x": 0.9714182479,
				"y": 0.5854256795,
				"z": 1.3024178417,
				"element": "C" 
			},
			{
				"x": 0.786033811,
				"y": 0.7361097192,
				"z": 2.6842181422,
				"element": "C" 
			},
			{
				"x": -0.5072215641,
				"y": 0.7291589212,
				"z": 3.2040340082,
				"element": "C" 
			},
			{
				"x": -1.6214675658,
				"y": 0.5958293936,
				"z": 2.3647324247,
				"element": "C" 
			},
			{
				"x": -1.7550124018,
				"y": 1.3970889378,
				"z": -1.2214136265,
				"element": "H" 
			},
			{
				"x": -0.273159534,
				"y": -0.0572581795,
				"z": -1.5901306377,
				"element": "H" 
			},
			{
				"x": 3.8860725537,
				"y": 1.5977627505,
				"z": 1.0155521145,
				"element": "H" 
			},
			{
				"x": 3.8007475121,
				"y": -0.0102171965,
				"z": 1.7100348776,
				"element": "H" 
			},
			{
				"x": 4.3792823524,
				"y": -1.0812046579,
				"z": -0.3803610529,
				"element": "H" 
			},
			{
				"x": 5.5003195452,
				"y": 0.2646331129,
				"z": -0.2071126073,
				"element": "H" 
			},
			{
				"x": 4.0364237053,
				"y": 1.6572063942,
				"z": -1.7151637252,
				"element": "H" 
			},
			{
				"x": 4.6456170746,
				"y": 0.2181930782,
				"z": -2.5259606371,
				"element": "H" 
			},
			{
				"x": 2.1358569903,
				"y": 0.7290206371,
				"z": -2.8866143823,
				"element": "H" 
			},
			{
				"x": 2.5092871855,
				"y": -0.9114267556,
				"z": -2.3773004216,
				"element": "H" 
			},
			{
				"x": 1.6420221638,
				"y": 0.8447576337,
				"z": 3.3443922483,
				"element": "H" 
			},
			{
				"x": -0.6578141932,
				"y": 0.8323534134,
				"z": 4.2742120995,
				"element": "H" 
			},
			{
				"x": -2.6265430601,
				"y": 0.590726484,
				"z": 2.7728880649,
				"element": "H" 
			}
		],
		 "valence_orbital": [ 
			{
				"type": "occ",
				"energy": -0.31475,
				"method": "rhf"
			},
			{
				"type": "occ",
				"energy": -0.2817,
				"method": "rhf"
			},
			{
				"type": "occ",
				"energy": -0.26703,
				"method": "rhf"
			},
			{
				"type": "occ",
				"energy": -0.23315,
				"method": "rhf"
			},
			{
				"type": "occ",
				"energy": -0.21037,
				"method": "rhf"
			},
			{
				"type": "unocc",
				"energy": -0.04371,
				"method": "rhf"
			},
			{
				"type": "unocc",
				"energy": 0.00679,
				"method": "rhf"
			},
			{
				"type": "unocc",
				"energy": 0.03178,
				"method": "rhf"
			},
			{
				"type": "unocc",
				"energy": 0.0617,
				"method": "rhf"
			},
			{
				"type": "unocc",
				"energy": 0.07393,
				"method": "rhf"
			}
		],
		"cosmo_sigma_profile": { 
			"-0.025": 0.0,
			"-0.024": 0.0,
			"-0.023": 0.0,
			"-0.022": 0.0,
			"-0.021": 0.0,
			"-0.02": 0.0,
			"-0.019": 0.0,
			"-0.018": 0.0,
			"-0.017": 0.04534838067,
			"-0.016": 0.770622891113,
			"-0.015": 0.977204175355,
			"-0.014": 2.48184719794,
			"-0.013": 2.18441817437,
			"-0.012": 1.97638918662,
			"-0.011": 2.43151209281,
			"-0.01": 1.7319286053,
			"-0.009": 2.04830711006,
			"-0.008": 1.92199418272,
			"-0.007": 2.05277239065,
			"-0.006": 4.61321868582,
			"-0.005": 8.47027417754,
			"-0.004": 14.4406904911,
			"-0.003": 23.2227268117,
			"-0.002": 27.1941802781,
			"-0.001": 30.9815153453,
			"0.0": 23.8650672291,
			"0.001": 15.3061914138,
			"0.002": 8.97730025354,
			"0.003": 12.5401118889,
			"0.004": 14.6781680782,
			"0.005": 14.1474189417,
			"0.006": 4.58587208719,
			"0.007": 1.72801650006,
			"0.008": 2.49476920057,
			"0.009": 3.84805509224,
			"0.01": 3.73366809853,
			"0.011": 5.98609194485,
			"0.012": 5.52869067435,
			"0.013": 1.70573364251,
			"0.014": 0.0761549032229,
			"0.015": 0.0,
			"0.016": 0.0,
			"0.017": 0.0,
			"0.018": 0.0,
			"0.019": 0.0,
			"0.02": 0.0,
			"0.021": 0.0,
			"0.022": 0.0,
			"0.023": 0.0,
			"0.024": 0.0,
			"0.025": 0.0
		}
	}
}
