{
	 "smiles": "COC(=O)C1=C(F)C=C(Br)C(=C1)[N+]([O-])=O", 
	 "Tm": 346.15, 
	 "num_atms": 20, 
	 "gaussian": { 
		 "optdone": 1, 
		 "sigma_profile": "yes", 
		 "theory": "DFT", 
		 "functional": "B3LYP", 
		 "basiset": "6-31G**", 
		 "properties": { 
			 "R2extent": 6359.8824, 
			 "electric_dipole_moment_norm": 4.84537916886, 
			 "electric_quadrupole_moment_norm": 15.1098446064, 
			 "total_energy": -3334.63842253, 
			 "HOMO_LUMO_gap": 0.1814, 
			 "cosmo_polarized_energy": -11.13, 
			 "cosmo_cavitation_energy": 28.99, 
			 "cosmo_dispersion_energy": -21.29, 
			 "cosmo_repulsion_energy": 1.65, 
			 "cosmo_total_nonelectrostatic_energy": 9.34, 
			 "SMD_solvation_energy": 8.26 
		},
		"coords": [
			{
				"x": -2.4852685537,
				"y": -2.0314569695,
				"z": -1.9757714023,
				"element": "C" 
			},
			{
				"x": -1.6669159516,
				"y": -1.1919527888,
				"z": -1.1396456673,
				"element": "O" 
			},
			{
				"x": -0.5839904328,
				"y": -0.6737438151,
				"z": -1.7388478027,
				"element": "C" 
			},
			{
				"x": -0.2866452343,
				"y": -0.8771762682,
				"z": -2.8989049432,
				"element": "O" 
			},
			{
				"x": 0.2378744493,
				"y": 0.1903587238,
				"z": -0.8337780248,
				"element": "C" 
			},
			{
				"x": -0.0396477629,
				"y": 0.491814369,
				"z": 0.5076219356,
				"element": "C" 
			},
			{
				"x": -1.1195498052,
				"y": 0.0010230945,
				"z": 1.1195305952,
				"element": "F" 
			},
			{
				"x": 0.7962009242,
				"y": 1.3061396781,
				"z": 1.2653339997,
				"element": "C" 
			},
			{
				"x": 1.9368267621,
				"y": 1.8698923917,
				"z": 0.6979630797,
				"element": "C" 
			},
			{
				"x": 3.0288420481,
				"y": 2.9143518727,
				"z": 1.8378670759,
				"element": "Br" 
			},
			{
				"x": 2.2290221125,
				"y": 1.5834897349,
				"z": -0.6469324952,
				"element": "C" 
			},
			{
				"x": 1.3950425794,
				"y": 0.7480895574,
				"z": -1.3819738203,
				"element": "C" 
			},
			{
				"x": 3.3926320176,
				"y": 2.1348734958,
				"z": -1.3640279868,
				"element": "N" 
			},
			{
				"x": 3.8027717774,
				"y": 3.2417012591,
				"z": -1.030851083,
				"element": "O" 
			},
			{
				"x": 3.8560990889,
				"y": 1.4487793983,
				"z": -2.2734599999,
				"element": "O" 
			},
			{
				"x": -2.8607738981,
				"y": -1.4671617572,
				"z": -2.8325070555,
				"element": "H" 
			},
			{
				"x": -3.3061944969,
				"y": -2.3602931374,
				"z": -1.3398165718,
				"element": "H" 
			},
			{
				"x": -1.9096623821,
				"y": -2.8861765106,
				"z": -2.338476884,
				"element": "H" 
			},
			{
				"x": 0.547758486,
				"y": 1.4906407564,
				"z": 2.3028612152,
				"element": "H" 
			},
			{
				"x": 1.6419782721,
				"y": 0.5211069151,
				"z": -2.4119841645,
				"element": "H" 
			}
		],
		 "valence_orbital": [ 
			{
				"type": "occ",
				"energy": -0.31359,
				"method": "rhf"
			},
			{
				"type": "occ",
				"energy": -0.29952,
				"method": "rhf"
			},
			{
				"type": "occ",
				"energy": -0.2951,
				"method": "rhf"
			},
			{
				"type": "occ",
				"energy": -0.28372,
				"method": "rhf"
			},
			{
				"type": "occ",
				"energy": -0.2786,
				"method": "rhf"
			},
			{
				"type": "unocc",
				"energy": -0.0972,
				"method": "rhf"
			},
			{
				"type": "unocc",
				"energy": -0.07674,
				"method": "rhf"
			},
			{
				"type": "unocc",
				"energy": -0.0274,
				"method": "rhf"
			},
			{
				"type": "unocc",
				"energy": -0.023,
				"method": "rhf"
			},
			{
				"type": "unocc",
				"energy": 0.02726,
				"method": "rhf"
			}
		],
		"cosmo_sigma_profile": { 
			"-0.025": 0.0,
			"-0.024": 0.0,
			"-0.023": 0.0,
			"-0.022": 0.0,
			"-0.021": 0.0,
			"-0.02": 0.0,
			"-0.019": 0.0,
			"-0.018": 0.0,
			"-0.017": 0.0,
			"-0.016": 0.0,
			"-0.015": 0.0,
			"-0.014": 0.0,
			"-0.013": 0.0,
			"-0.012": 0.0,
			"-0.011": 0.0308113916472,
			"-0.01": 1.00002254592,
			"-0.009": 1.68166077326,
			"-0.008": 2.79216505427,
			"-0.007": 6.71838346648,
			"-0.006": 12.14435715,
			"-0.005": 15.2229319564,
			"-0.004": 23.8476051325,
			"-0.003": 27.5214617959,
			"-0.002": 21.5339550268,
			"-0.001": 15.1211489222,
			"0.0": 10.6958773012,
			"0.001": 11.954813481,
			"0.002": 15.9395912976,
			"0.003": 13.3678086391,
			"0.004": 7.78114848143,
			"0.005": 7.56883616159,
			"0.006": 7.34769852101,
			"0.007": 14.9867950403,
			"0.008": 7.32069386354,
			"0.009": 4.75573780283,
			"0.01": 2.9727301943,
			"0.011": 3.91629516942,
			"0.012": 0.442192978347,
			"0.013": 0.0,
			"0.014": 0.0,
			"0.015": 0.0,
			"0.016": 0.0,
			"0.017": 0.0,
			"0.018": 0.0,
			"0.019": 0.0,
			"0.02": 0.0,
			"0.021": 0.0,
			"0.022": 0.0,
			"0.023": 0.0,
			"0.024": 0.0,
			"0.025": 0.0
		}
	}
}
