{
	 "smiles": "OC(=O)C=CC1=CC=C(C=C1)N1CCCS1(=O)=O", 
	 "Tm": 526.15, 
	 "num_atms": 31, 
	 "gaussian": { 
		 "optdone": 1, 
		 "sigma_profile": "yes", 
		 "theory": "DFT", 
		 "functional": "B3LYP", 
		 "basiset": "6-31G**", 
		 "properties": { 
			 "R2extent": 6802.3829, 
			 "electric_dipole_moment_norm": 7.01011418238, 
			 "electric_quadrupole_moment_norm": 42.3731985333, 
			 "total_energy": -1218.86309183, 
			 "HOMO_LUMO_gap": 0.16256, 
			 "cosmo_polarized_energy": -25.4, 
			 "cosmo_cavitation_energy": 35.75, 
			 "cosmo_dispersion_energy": -26.21, 
			 "cosmo_repulsion_energy": 1.97, 
			 "cosmo_total_nonelectrostatic_energy": 11.5, 
			 "SMD_solvation_energy": 5.53 
		},
		"coords": [
			{
				"x": -2.0041010585,
				"y": -0.6747252969,
				"z": -3.5108175471,
				"element": "O" 
			},
			{
				"x": -1.410963619,
				"y": -1.3793998097,
				"z": -4.5098486681,
				"element": "C" 
			},
			{
				"x": -1.7784789257,
				"y": -1.2280999696,
				"z": -5.6531095513,
				"element": "O" 
			},
			{
				"x": -0.3506265601,
				"y": -2.3664661563,
				"z": -4.1568477092,
				"element": "C" 
			},
			{
				"x": 0.4655008017,
				"y": -2.4369501471,
				"z": -3.0857185567,
				"element": "C" 
			},
			{
				"x": 0.6409859752,
				"y": -1.5209586504,
				"z": -1.9453126849,
				"element": "C" 
			},
			{
				"x": 0.5666949358,
				"y": -0.121103373,
				"z": -2.051009247,
				"element": "C" 
			},
			{
				"x": 0.7599743919,
				"y": 0.7000975976,
				"z": -0.9424775305,
				"element": "C" 
			},
			{
				"x": 1.0578776232,
				"y": 0.1451262448,
				"z": 0.3117136291,
				"element": "C" 
			},
			{
				"x": 1.1824977546,
				"y": -1.2533608475,
				"z": 0.4225866747,
				"element": "C" 
			},
			{
				"x": 0.9756948472,
				"y": -2.0589559368,
				"z": -0.6856764914,
				"element": "C" 
			},
			{
				"x": 1.2864187309,
				"y": 0.9634964577,
				"z": 1.4356816264,
				"element": "N" 
			},
			{
				"x": 1.3376230658,
				"y": 2.4233284372,
				"z": 1.3402549718,
				"element": "C" 
			},
			{
				"x": 1.7001349551,
				"y": 2.9128283177,
				"z": 2.7491990042,
				"element": "C" 
			},
			{
				"x": 0.8207037232,
				"y": 2.1140792072,
				"z": 3.7104840394,
				"element": "C" 
			},
			{
				"x": 0.7252362399,
				"y": 0.4401708783,
				"z": 2.9926038017,
				"element": "S" 
			},
			{
				"x": -0.6668697013,
				"y": -0.0119494474,
				"z": 2.9132949089,
				"element": "O" 
			},
			{
				"x": 1.7337660203,
				"y": -0.4434552168,
				"z": 3.5841057536,
				"element": "O" 
			},
			{
				"x": -1.6354590489,
				"y": -0.9293643565,
				"z": -2.6510938648,
				"element": "H" 
			},
			{
				"x": -0.2509440396,
				"y": -3.1275445658,
				"z": -4.9247107454,
				"element": "H" 
			},
			{
				"x": 1.1082776944,
				"y": -3.3163230188,
				"z": -3.0440297458,
				"element": "H" 
			},
			{
				"x": 0.3694535751,
				"y": 0.3402110829,
				"z": -3.0124718251,
				"element": "H" 
			},
			{
				"x": 0.6845884023,
				"y": 1.7739747105,
				"z": -1.0676515697,
				"element": "H" 
			},
			{
				"x": 1.4615687703,
				"y": -1.6976356622,
				"z": 1.3713266511,
				"element": "H" 
			},
			{
				"x": 1.079630725,
				"y": -3.1354335196,
				"z": -0.5796329635,
				"element": "H" 
			},
			{
				"x": 0.3760236013,
				"y": 2.8497534029,
				"z": 1.0145147895,
				"element": "H" 
			},
			{
				"x": 2.1018617554,
				"y": 2.7048305211,
				"z": 0.6101999877,
				"element": "H" 
			},
			{
				"x": 1.5249772362,
				"y": 3.9865253636,
				"z": 2.8537760058,
				"element": "H" 
			},
			{
				"x": 2.7564975343,
				"y": 2.7133959197,
				"z": 2.9490208419,
				"element": "H" 
			},
			{
				"x": -0.2072219852,
				"y": 2.4825726574,
				"z": 3.7469824164,
				"element": "H" 
			},
			{
				"x": 1.219176579,
				"y": 2.0078351758,
				"z": 4.7203635981,
				"element": "H" 
			}
		],
		 "valence_orbital": [ 
			{
				"type": "occ",
				"energy": -0.30356,
				"method": "rhf"
			},
			{
				"type": "occ",
				"energy": -0.28234,
				"method": "rhf"
			},
			{
				"type": "occ",
				"energy": -0.27359,
				"method": "rhf"
			},
			{
				"type": "occ",
				"energy": -0.26346,
				"method": "rhf"
			},
			{
				"type": "occ",
				"energy": -0.22781,
				"method": "rhf"
			},
			{
				"type": "unocc",
				"energy": -0.06525,
				"method": "rhf"
			},
			{
				"type": "unocc",
				"energy": -0.02485,
				"method": "rhf"
			},
			{
				"type": "unocc",
				"energy": -0.00131,
				"method": "rhf"
			},
			{
				"type": "unocc",
				"energy": 0.03749,
				"method": "rhf"
			},
			{
				"type": "unocc",
				"energy": 0.04141,
				"method": "rhf"
			}
		],
		"cosmo_sigma_profile": { 
			"-0.025": 0.0,
			"-0.024": 0.0,
			"-0.023": 0.0,
			"-0.022": 0.0,
			"-0.021": 0.0,
			"-0.02": 0.0,
			"-0.019": 0.0,
			"-0.018": 0.0,
			"-0.017": 0.0,
			"-0.016": 0.0,
			"-0.015": 0.163647925294,
			"-0.014": 0.714390764298,
			"-0.013": 0.297716589089,
			"-0.012": 0.882086384843,
			"-0.011": 0.824953395617,
			"-0.01": 1.24525370796,
			"-0.009": 4.04062305342,
			"-0.008": 8.13145965445,
			"-0.007": 21.3248643455,
			"-0.006": 31.5165030494,
			"-0.005": 26.0318404151,
			"-0.004": 19.4501482292,
			"-0.003": 14.2966068652,
			"-0.002": 10.9243701068,
			"-0.001": 11.5858212049,
			"0.0": 13.0351593461,
			"0.001": 13.0773398653,
			"0.002": 14.067775431,
			"0.003": 14.4963827149,
			"0.004": 9.71861427802,
			"0.005": 4.79763030362,
			"0.006": 5.37369959365,
			"0.007": 5.26494997656,
			"0.008": 6.57098841393,
			"0.009": 6.6564902541,
			"0.01": 14.7616148667,
			"0.011": 14.534305408,
			"0.012": 7.04602706002,
			"0.013": 3.27906015425,
			"0.014": 0.312296945742,
			"0.015": 0.0,
			"0.016": 0.0,
			"0.017": 0.0,
			"0.018": 0.0,
			"0.019": 0.0,
			"0.02": 0.0,
			"0.021": 0.0,
			"0.022": 0.0,
			"0.023": 0.0,
			"0.024": 0.0,
			"0.025": 0.0
		}
	}
}
