{
	 "smiles": "C1=CC2=C(C=C1)C1=C3C(C=CC4=CC5=C(C=CC=C5)C(C=C1)=C34)=C2", 
	 "Tm": 555.15, 
	 "num_atms": 38, 
	 "gaussian": { 
		 "optdone": 1, 
		 "sigma_profile": "yes", 
		 "theory": "DFT", 
		 "functional": "B3LYP", 
		 "basiset": "6-31G**", 
		 "properties": { 
			 "R2extent": 9391.6238, 
			 "electric_dipole_moment_norm": 0.0972958889162, 
			 "electric_quadrupole_moment_norm": 17.9818030951, 
			 "total_energy": -923.058642503, 
			 "HOMO_LUMO_gap": 0.11863, 
			 "cosmo_polarized_energy": -8.79, 
			 "cosmo_cavitation_energy": 39.83, 
			 "cosmo_dispersion_energy": -30.08, 
			 "cosmo_repulsion_energy": 2.11, 
			 "cosmo_total_nonelectrostatic_energy": 11.87, 
			 "SMD_solvation_energy": 5.09 
		},
		"coords": [
			{
				"x": -6.3437062876,
				"y": -0.7622477925,
				"z": -2.4680921243,
				"element": "C" 
			},
			{
				"x": -5.7057433021,
				"y": 0.2672688709,
				"z": -1.8129943228,
				"element": "C" 
			},
			{
				"x": -4.3162758886,
				"y": 0.2039841794,
				"z": -1.5256783427,
				"element": "C" 
			},
			{
				"x": -3.5662117818,
				"y": -0.9485644037,
				"z": -1.9232313873,
				"element": "C" 
			},
			{
				"x": -4.2565875926,
				"y": -1.9884699148,
				"z": -2.5954844793,
				"element": "C" 
			},
			{
				"x": -5.608516229,
				"y": -1.9011787746,
				"z": -2.8623759642,
				"element": "C" 
			},
			{
				"x": -2.1496923213,
				"y": -1.0001294243,
				"z": -1.6239889763,
				"element": "C" 
			},
			{
				"x": -1.5293938054,
				"y": 0.0822796627,
				"z": -0.9471405727,
				"element": "C" 
			},
			{
				"x": -2.3145321519,
				"y": 1.2320510058,
				"z": -0.5589560821,
				"element": "C" 
			},
			{
				"x": -1.6643553497,
				"y": 2.3233217533,
				"z": 0.129200468,
				"element": "C" 
			},
			{
				"x": -0.341988155,
				"y": 2.289093452,
				"z": 0.4151171933,
				"element": "C" 
			},
			{
				"x": 0.4794736973,
				"y": 1.1597079232,
				"z": 0.0451933107,
				"element": "C" 
			},
			{
				"x": 1.8278405073,
				"y": 1.1248261095,
				"z": 0.3366497416,
				"element": "C" 
			},
			{
				"x": 2.6482237472,
				"y": 0.0235881718,
				"z": -0.019619368,
				"element": "C" 
			},
			{
				"x": 2.0732250632,
				"y": -1.0946660478,
				"z": -0.7036490717,
				"element": "C" 
			},
			{
				"x": 2.9271771588,
				"y": -2.1746541173,
				"z": -1.0417931618,
				"element": "C" 
			},
			{
				"x": 4.2711658396,
				"y": -2.1572215739,
				"z": -0.7256399658,
				"element": "C" 
			},
			{
				"x": 4.8333161629,
				"y": -1.0518652424,
				"z": -0.050879488,
				"element": "C" 
			},
			{
				"x": 4.0335973808,
				"y": 0.0149640068,
				"z": 0.2931812596,
				"element": "C" 
			},
			{
				"x": 0.6589001189,
				"y": -1.0728805189,
				"z": -1.0166129487,
				"element": "C" 
			},
			{
				"x": 0.0080927003,
				"y": -2.1414361774,
				"z": -1.6934070866,
				"element": "C" 
			},
			{
				"x": -1.3312258617,
				"y": -2.1067502394,
				"z": -1.9830388852,
				"element": "C" 
			},
			{
				"x": -0.1311492481,
				"y": 0.0460717303,
				"z": -0.6447836566,
				"element": "C" 
			},
			{
				"x": -3.6628520642,
				"y": 1.2670064791,
				"z": -0.8506187156,
				"element": "C" 
			},
			{
				"x": -7.4068051896,
				"y": -0.701206125,
				"z": -2.6817351141,
				"element": "H" 
			},
			{
				"x": -6.2587117541,
				"y": 1.1504511634,
				"z": -1.5033280227,
				"element": "H" 
			},
			{
				"x": -3.7216448552,
				"y": -2.8767433756,
				"z": -2.9118799567,
				"element": "H" 
			},
			{
				"x": -6.1090092188,
				"y": -2.7147657022,
				"z": -3.3792997561,
				"element": "H" 
			},
			{
				"x": -2.2705494457,
				"y": 3.1794851152,
				"z": 0.4134442985,
				"element": "H" 
			},
			{
				"x": 0.1342765793,
				"y": 3.1172331515,
				"z": 0.9334198891,
				"element": "H" 
			},
			{
				"x": 2.2825096439,
				"y": 1.9653736817,
				"z": 0.8560512805,
				"element": "H" 
			},
			{
				"x": 2.5273686356,
				"y": -3.0387581136,
				"z": -1.5602326759,
				"element": "H" 
			},
			{
				"x": 4.8995035583,
				"y": -3.000110791,
				"z": -0.9983226966,
				"element": "H" 
			},
			{
				"x": 5.8913466455,
				"y": -1.0458093558,
				"z": 0.194239878,
				"element": "H" 
			},
			{
				"x": 4.4523065122,
				"y": 0.87298804,
				"z": 0.8129462308,
				"element": "H" 
			},
			{
				"x": 0.5766811126,
				"y": -3.0137737073,
				"z": -1.9940161411,
				"element": "H" 
			},
			{
				"x": -1.7673138308,
				"y": -2.9530752982,
				"z": -2.5009152178,
				"element": "H" 
			},
			{
				"x": -4.2492407303,
				"y": 2.1345121994,
				"z": -0.5563293694,
				"element": "H" 
			}
		],
		 "valence_orbital": [ 
			{
				"type": "occ",
				"energy": -0.25379,
				"method": "rhf"
			},
			{
				"type": "occ",
				"energy": -0.25254,
				"method": "rhf"
			},
			{
				"type": "occ",
				"energy": -0.24204,
				"method": "rhf"
			},
			{
				"type": "occ",
				"energy": -0.21345,
				"method": "rhf"
			},
			{
				"type": "occ",
				"energy": -0.18527,
				"method": "rhf"
			},
			{
				"type": "unocc",
				"energy": -0.06664,
				"method": "rhf"
			},
			{
				"type": "unocc",
				"energy": -0.04376,
				"method": "rhf"
			},
			{
				"type": "unocc",
				"energy": -0.00852,
				"method": "rhf"
			},
			{
				"type": "unocc",
				"energy": -0.00811,
				"method": "rhf"
			},
			{
				"type": "unocc",
				"energy": 0.00245,
				"method": "rhf"
			}
		],
		"cosmo_sigma_profile": { 
			"-0.025": 0.0,
			"-0.024": 0.0,
			"-0.023": 0.0,
			"-0.022": 0.0,
			"-0.021": 0.0,
			"-0.02": 0.0,
			"-0.019": 0.0,
			"-0.018": 0.0,
			"-0.017": 0.0,
			"-0.016": 0.0,
			"-0.015": 0.0,
			"-0.014": 0.0,
			"-0.013": 0.0,
			"-0.012": 0.0,
			"-0.011": 0.0,
			"-0.01": 0.0,
			"-0.009": 0.338098095712,
			"-0.008": 2.73920865473,
			"-0.007": 4.63638051933,
			"-0.006": 23.7944094194,
			"-0.005": 26.2998011251,
			"-0.004": 26.6587574354,
			"-0.003": 19.0653987693,
			"-0.002": 17.6788510674,
			"-0.001": 16.7220829691,
			"0.0": 14.0496945973,
			"0.001": 16.7115410085,
			"0.002": 28.0170307523,
			"0.003": 56.1371120292,
			"0.004": 45.9215287527,
			"0.005": 21.3562511867,
			"0.006": 2.05462661674,
			"0.007": 0.0,
			"0.008": 0.0,
			"0.009": 0.0,
			"0.01": 0.0,
			"0.011": 0.0,
			"0.012": 0.0,
			"0.013": 0.0,
			"0.014": 0.0,
			"0.015": 0.0,
			"0.016": 0.0,
			"0.017": 0.0,
			"0.018": 0.0,
			"0.019": 0.0,
			"0.02": 0.0,
			"0.021": 0.0,
			"0.022": 0.0,
			"0.023": 0.0,
			"0.024": 0.0,
			"0.025": 0.0
		}
	}
}
