{
	 "smiles": "CCOC(=O)C(C#N)C(N)=O", 
	 "Tm": 426.15, 
	 "num_atms": 19, 
	 "gaussian": { 
		 "optdone": 1, 
		 "sigma_profile": "yes", 
		 "theory": "DFT", 
		 "functional": "B3LYP", 
		 "basiset": "6-31G**", 
		 "properties": { 
			 "R2extent": 2078.3994, 
			 "electric_dipole_moment_norm": 2.37629531414, 
			 "electric_quadrupole_moment_norm": 16.9848123172, 
			 "total_energy": -568.635280499, 
			 "HOMO_LUMO_gap": 0.25276, 
			 "cosmo_polarized_energy": -16.82, 
			 "cosmo_cavitation_energy": 25.02, 
			 "cosmo_dispersion_energy": -16.94, 
			 "cosmo_repulsion_energy": 1.43, 
			 "cosmo_total_nonelectrostatic_energy": 9.52, 
			 "SMD_solvation_energy": 7.63 
		},
		"coords": [
			{
				"x": 1.8723422281,
				"y": 2.059216776,
				"z": 0.0109593681,
				"element": "C" 
			},
			{
				"x": 0.9089825237,
				"y": 1.3451141863,
				"z": 0.9446039753,
				"element": "C" 
			},
			{
				"x": 0.1236367923,
				"y": 0.3508920199,
				"z": 0.2277358819,
				"element": "O" 
			},
			{
				"x": -0.9856336457,
				"y": 0.7884017712,
				"z": -0.3810008437,
				"element": "C" 
			},
			{
				"x": -1.3893585563,
				"y": 1.9244615259,
				"z": -0.4036068136,
				"element": "O" 
			},
			{
				"x": -1.7080779494,
				"y": -0.3866813589,
				"z": -1.072832809,
				"element": "C" 
			},
			{
				"x": -0.8771089347,
				"y": -0.9870794519,
				"z": -2.1150860341,
				"element": "C" 
			},
			{
				"x": -0.2317226809,
				"y": -1.5163383373,
				"z": -2.9229079398,
				"element": "N" 
			},
			{
				"x": -2.1953014821,
				"y": -1.391600985,
				"z": 0.0181275246,
				"element": "C" 
			},
			{
				"x": -1.9486004347,
				"y": -2.7011554278,
				"z": -0.2233344427,
				"element": "N" 
			},
			{
				"x": -2.7884642326,
				"y": -0.9625020043,
				"z": 0.9903765288,
				"element": "O" 
			},
			{
				"x": 2.5041585969,
				"y": 2.7418796722,
				"z": 0.5885527988,
				"element": "H" 
			},
			{
				"x": 2.5197008083,
				"y": 1.3438007424,
				"z": -0.5039733232,
				"element": "H" 
			},
			{
				"x": 1.3277628936,
				"y": 2.6455179676,
				"z": -0.733137923,
				"element": "H" 
			},
			{
				"x": 1.4349601126,
				"y": 0.7659988708,
				"z": 1.7060149712,
				"element": "H" 
			},
			{
				"x": 0.2223185925,
				"y": 2.043998819,
				"z": 1.4270103182,
				"element": "H" 
			},
			{
				"x": -2.6070076647,
				"y": 0.0366874971,
				"z": -1.5312056904,
				"element": "H" 
			},
			{
				"x": -2.2375043834,
				"y": -3.3672039649,
				"z": 0.4774151634,
				"element": "H" 
			},
			{
				"x": -1.3862825836,
				"y": -3.0129083181,
				"z": -1.0003107108,
				"element": "H" 
			}
		],
		 "valence_orbital": [ 
			{
				"type": "occ",
				"energy": -0.35025,
				"method": "rhf"
			},
			{
				"type": "occ",
				"energy": -0.31746,
				"method": "rhf"
			},
			{
				"type": "occ",
				"energy": -0.29551,
				"method": "rhf"
			},
			{
				"type": "occ",
				"energy": -0.29231,
				"method": "rhf"
			},
			{
				"type": "occ",
				"energy": -0.27504,
				"method": "rhf"
			},
			{
				"type": "unocc",
				"energy": -0.02228,
				"method": "rhf"
			},
			{
				"type": "unocc",
				"energy": -0.00025,
				"method": "rhf"
			},
			{
				"type": "unocc",
				"energy": 0.01593,
				"method": "rhf"
			},
			{
				"type": "unocc",
				"energy": 0.03048,
				"method": "rhf"
			},
			{
				"type": "unocc",
				"energy": 0.06656,
				"method": "rhf"
			}
		],
		"cosmo_sigma_profile": { 
			"-0.025": 0.0,
			"-0.024": 0.0,
			"-0.023": 0.0,
			"-0.022": 0.0,
			"-0.021": 0.0,
			"-0.02": 0.0,
			"-0.019": 0.0,
			"-0.018": 0.0,
			"-0.017": 0.0,
			"-0.016": 0.220326025607,
			"-0.015": 1.32154746756,
			"-0.014": 2.12031301694,
			"-0.013": 1.81906862252,
			"-0.012": 3.80598160924,
			"-0.011": 4.43385064353,
			"-0.01": 2.87655004317,
			"-0.009": 3.15025437791,
			"-0.008": 4.03005672688,
			"-0.007": 4.32584957614,
			"-0.006": 9.05785251914,
			"-0.005": 11.7640178185,
			"-0.004": 16.3557005176,
			"-0.003": 14.2343419251,
			"-0.002": 12.0614146819,
			"-0.001": 12.9111299897,
			"0.0": 11.0586209562,
			"0.001": 8.28491980116,
			"0.002": 7.30241279533,
			"0.003": 6.58275510107,
			"0.004": 7.55708313675,
			"0.005": 5.63415983451,
			"0.006": 6.60553614458,
			"0.007": 5.32099311448,
			"0.008": 5.69250437249,
			"0.009": 6.55410758941,
			"0.01": 7.89836815425,
			"0.011": 7.0470853569,
			"0.012": 6.80461527606,
			"0.013": 1.86757703707,
			"0.014": 0.0148123752591,
			"0.015": 0.0,
			"0.016": 0.0,
			"0.017": 0.0,
			"0.018": 0.0,
			"0.019": 0.0,
			"0.02": 0.0,
			"0.021": 0.0,
			"0.022": 0.0,
			"0.023": 0.0,
			"0.024": 0.0,
			"0.025": 0.0
		}
	}
}
