{
	 "smiles": "CCCCCCCCCCCCC#C", 
	 "Tm": 273.15, 
	 "num_atms": 40, 
	 "gaussian": { 
		 "optdone": 1, 
		 "sigma_profile": "yes", 
		 "theory": "DFT", 
		 "functional": "B3LYP", 
		 "basiset": "6-31G**", 
		 "properties": { 
			 "R2extent": 4345.9366, 
			 "electric_dipole_moment_norm": 0.737903604816, 
			 "electric_quadrupole_moment_norm": 4.16236449629, 
			 "total_energy": -549.118026524, 
			 "HOMO_LUMO_gap": 0.31167, 
			 "cosmo_polarized_energy": -3.78, 
			 "cosmo_cavitation_energy": 40.13, 
			 "cosmo_dispersion_energy": -25.33, 
			 "cosmo_repulsion_energy": 2.02, 
			 "cosmo_total_nonelectrostatic_energy": 16.82, 
			 "SMD_solvation_energy": 6.44 
		},
		"coords": [
			{
				"x": -2.4367406701,
				"y": 0.858221347,
				"z": -0.5348422666,
				"element": "C" 
			},
			{
				"x": -2.4631887959,
				"y": 0.0571131829,
				"z": -1.8440508272,
				"element": "C" 
			},
			{
				"x": -1.1233496099,
				"y": -0.5922850204,
				"z": -2.255491607,
				"element": "C" 
			},
			{
				"x": -0.1817328986,
				"y": 0.2698492218,
				"z": -3.1194205422,
				"element": "C" 
			},
			{
				"x": 0.4070960142,
				"y": 1.5426216063,
				"z": -2.4829096973,
				"element": "C" 
			},
			{
				"x": 1.280282628,
				"y": 1.3327980836,
				"z": -1.233136024,
				"element": "C" 
			},
			{
				"x": 2.5666486555,
				"y": 0.5292001145,
				"z": -1.4892534444,
				"element": "C" 
			},
			{
				"x": 3.5380948419,
				"y": 0.4399079181,
				"z": -0.2910099293,
				"element": "C" 
			},
			{
				"x": 3.3343374196,
				"y": -0.7454026434,
				"z": 0.6703711746,
				"element": "C" 
			},
			{
				"x": 2.0131752789,
				"y": -0.7642935806,
				"z": 1.4506311352,
				"element": "C" 
			},
			{
				"x": 1.9497936502,
				"y": -1.8948967112,
				"z": 2.4837785368,
				"element": "C" 
			},
			{
				"x": 0.6110654035,
				"y": -1.9576683313,
				"z": 3.2531791426,
				"element": "C" 
			},
			{
				"x": -0.5432139775,
				"y": -2.256551905,
				"z": 2.4032096163,
				"element": "C" 
			},
			{
				"x": -1.4872121331,
				"y": -2.514114347,
				"z": 1.6934335189,
				"element": "C" 
			},
			{
				"x": -1.7619043526,
				"y": 1.7174841764,
				"z": -0.5855241168,
				"element": "H" 
			},
			{
				"x": -2.1081380876,
				"y": 0.2284487847,
				"z": 0.2998408467,
				"element": "H" 
			},
			{
				"x": -3.4344503162,
				"y": 1.2394518103,
				"z": -0.290159765,
				"element": "H" 
			},
			{
				"x": -2.8239855142,
				"y": 0.6945302692,
				"z": -2.6634146059,
				"element": "H" 
			},
			{
				"x": -3.2137361491,
				"y": -0.7368835702,
				"z": -1.7367738524,
				"element": "H" 
			},
			{
				"x": -1.3445687704,
				"y": -1.4958493805,
				"z": -2.8382690486,
				"element": "H" 
			},
			{
				"x": -0.6019994837,
				"y": -0.9461201729,
				"z": -1.3557677016,
				"element": "H" 
			},
			{
				"x": -0.726047406,
				"y": 0.5649437822,
				"z": -4.0273566718,
				"element": "H" 
			},
			{
				"x": 0.6416491228,
				"y": -0.3681746105,
				"z": -3.4661953103,
				"element": "H" 
			},
			{
				"x": 1.0087543127,
				"y": 2.0554383827,
				"z": -3.2467815592,
				"element": "H" 
			},
			{
				"x": -0.4060916569,
				"y": 2.2358321331,
				"z": -2.2353020403,
				"element": "H" 
			},
			{
				"x": 1.5637727811,
				"y": 2.3204407536,
				"z": -0.8437207776,
				"element": "H" 
			},
			{
				"x": 0.6870672767,
				"y": 0.8614282874,
				"z": -0.4424046184,
				"element": "H" 
			},
			{
				"x": 2.3205065086,
				"y": -0.4863689339,
				"z": -1.8273577116,
				"element": "H" 
			},
			{
				"x": 3.0922417725,
				"y": 1.0022757209,
				"z": -2.3301806719,
				"element": "H" 
			},
			{
				"x": 3.5023774308,
				"y": 1.3807499643,
				"z": 0.2767813196,
				"element": "H" 
			},
			{
				"x": 4.5617125653,
				"y": 0.367353023,
				"z": -0.6797440282,
				"element": "H" 
			},
			{
				"x": 3.4267394192,
				"y": -1.6827715862,
				"z": 0.1030281502,
				"element": "H" 
			},
			{
				"x": 4.1662114696,
				"y": -0.7476004097,
				"z": 1.3890186841,
				"element": "H" 
			},
			{
				"x": 1.1692479819,
				"y": -0.8743463207,
				"z": 0.7610083877,
				"element": "H" 
			},
			{
				"x": 1.8732840662,
				"y": 0.2000247391,
				"z": 1.9603694437,
				"element": "H" 
			},
			{
				"x": 2.1193833978,
				"y": -2.8592496448,
				"z": 1.9888106807,
				"element": "H" 
			},
			{
				"x": 2.7569900308,
				"y": -1.7724504108,
				"z": 3.217507777,
				"element": "H" 
			},
			{
				"x": 0.6787155747,
				"y": -2.7198817072,
				"z": 4.0402446986,
				"element": "H" 
			},
			{
				"x": 0.4412682682,
				"y": -1.0020792355,
				"z": 3.7680832822,
				"element": "H" 
			},
			{
				"x": -2.323156049,
				"y": -2.7488247792,
				"z": 1.0764704224,
				"element": "H" 
			}
		],
		 "valence_orbital": [ 
			{
				"type": "occ",
				"energy": -0.29976,
				"method": "rhf"
			},
			{
				"type": "occ",
				"energy": -0.29769,
				"method": "rhf"
			},
			{
				"type": "occ",
				"energy": -0.29441,
				"method": "rhf"
			},
			{
				"type": "occ",
				"energy": -0.26049,
				"method": "rhf"
			},
			{
				"type": "occ",
				"energy": -0.25916,
				"method": "rhf"
			},
			{
				"type": "unocc",
				"energy": 0.05251,
				"method": "rhf"
			},
			{
				"type": "unocc",
				"energy": 0.05494,
				"method": "rhf"
			},
			{
				"type": "unocc",
				"energy": 0.07773,
				"method": "rhf"
			},
			{
				"type": "unocc",
				"energy": 0.0948,
				"method": "rhf"
			},
			{
				"type": "unocc",
				"energy": 0.10228,
				"method": "rhf"
			}
		],
		"cosmo_sigma_profile": { 
			"-0.025": 0.0,
			"-0.024": 0.0,
			"-0.023": 0.0,
			"-0.022": 0.0,
			"-0.021": 0.0,
			"-0.02": 0.0,
			"-0.019": 0.0,
			"-0.018": 0.0,
			"-0.017": 0.0,
			"-0.016": 0.0,
			"-0.015": 0.0,
			"-0.014": 0.0,
			"-0.013": 0.0,
			"-0.012": 0.0,
			"-0.011": 0.529645197136,
			"-0.01": 1.02338563284,
			"-0.009": 1.37288404838,
			"-0.008": 0.260482887327,
			"-0.007": 1.35291046322,
			"-0.006": 1.56698569542,
			"-0.005": 4.46639539844,
			"-0.004": 5.80945766575,
			"-0.003": 11.2887367371,
			"-0.002": 37.6383566999,
			"-0.001": 60.7833257418,
			"0.0": 67.1615246878,
			"0.001": 59.1112477379,
			"0.002": 28.2620301371,
			"0.003": 6.59900424599,
			"0.004": 5.66350253178,
			"0.005": 4.49906466353,
			"0.006": 4.24658657628,
			"0.007": 5.98510241147,
			"0.008": 2.04776221974,
			"0.009": 0.0,
			"0.01": 0.0,
			"0.011": 0.0,
			"0.012": 0.0,
			"0.013": 0.0,
			"0.014": 0.0,
			"0.015": 0.0,
			"0.016": 0.0,
			"0.017": 0.0,
			"0.018": 0.0,
			"0.019": 0.0,
			"0.02": 0.0,
			"0.021": 0.0,
			"0.022": 0.0,
			"0.023": 0.0,
			"0.024": 0.0,
			"0.025": 0.0
		}
	}
}
