{
	 "smiles": "[O-][N+](=O)C1=CC=C(C=NN2C(S)=NN=C2C(F)(F)F)C=C1", 
	 "Tm": 466.15, 
	 "num_atms": 27, 
	 "gaussian": { 
		 "optdone": 1, 
		 "sigma_profile": "yes", 
		 "theory": "DFT", 
		 "functional": "B3LYP", 
		 "basiset": "6-31G**", 
		 "properties": { 
			 "R2extent": 9577.2569, 
			 "electric_dipole_moment_norm": 3.8726828401, 
			 "electric_quadrupole_moment_norm": 42.0184899557, 
			 "total_energy": -1506.40962948, 
			 "HOMO_LUMO_gap": 0.14438, 
			 "cosmo_polarized_energy": -18.77, 
			 "cosmo_cavitation_energy": 37.57, 
			 "cosmo_dispersion_energy": -26.5, 
			 "cosmo_repulsion_energy": 1.9, 
			 "cosmo_total_nonelectrostatic_energy": 12.97, 
			 "SMD_solvation_energy": 7.53 
		},
		"coords": [
			{
				"x": -0.8107507702,
				"y": 5.8995691039,
				"z": 2.7439561253,
				"element": "O" 
			},
			{
				"x": -1.1314802907,
				"y": 5.3567804482,
				"z": 1.6880344465,
				"element": "N" 
			},
			{
				"x": -1.9439518944,
				"y": 5.8053181917,
				"z": 0.8817225725,
				"element": "O" 
			},
			{
				"x": -0.4921808397,
				"y": 4.0682530094,
				"z": 1.363873997,
				"element": "C" 
			},
			{
				"x": -0.8353950115,
				"y": 3.425532443,
				"z": 0.1724903044,
				"element": "C" 
			},
			{
				"x": -0.2309975897,
				"y": 2.2142097758,
				"z": -0.1318896302,
				"element": "C" 
			},
			{
				"x": 0.7080750002,
				"y": 1.6498054654,
				"z": 0.7524877208,
				"element": "C" 
			},
			{
				"x": 1.3589865427,
				"y": 0.3689024498,
				"z": 0.4619100392,
				"element": "C" 
			},
			{
				"x": 1.0633875584,
				"y": -0.2674746236,
				"z": -0.6132204876,
				"element": "N" 
			},
			{
				"x": 1.6768699681,
				"y": -1.4610139003,
				"z": -0.8989842646,
				"element": "N" 
			},
			{
				"x": 2.8528436493,
				"y": -2.089053386,
				"z": -0.5110251769,
				"element": "C" 
			},
			{
				"x": 4.0445803279,
				"y": -1.4453618642,
				"z": 0.6158369092,
				"element": "S" 
			},
			{
				"x": 2.9952205642,
				"y": -3.2184075319,
				"z": -1.1657902459,
				"element": "N" 
			},
			{
				"x": 1.910495105,
				"y": -3.3641021864,
				"z": -2.0076867693,
				"element": "N" 
			},
			{
				"x": 1.1508404374,
				"y": -2.3178202208,
				"z": -1.8493639704,
				"element": "C" 
			},
			{
				"x": -0.1467204442,
				"y": -2.05985434,
				"z": -2.5618727114,
				"element": "C" 
			},
			{
				"x": -0.4220916614,
				"y": -3.0668331282,
				"z": -3.3952729409,
				"element": "F" 
			},
			{
				"x": -0.0941896947,
				"y": -0.9175648388,
				"z": -3.2772127718,
				"element": "F" 
			},
			{
				"x": -1.1654370878,
				"y": -1.9392337427,
				"z": -1.6852946312,
				"element": "F" 
			},
			{
				"x": 1.0326750541,
				"y": 2.3200362002,
				"z": 1.9433795371,
				"element": "C" 
			},
			{
				"x": 0.4333540651,
				"y": 3.5358591024,
				"z": 2.2572111557,
				"element": "C" 
			},
			{
				"x": -1.5616799762,
				"y": 3.8825931819,
				"z": -0.4876604762,
				"element": "H" 
			},
			{
				"x": -0.4743499933,
				"y": 1.6887235167,
				"z": -1.0485704616,
				"element": "H" 
			},
			{
				"x": 2.0694411289,
				"y": 0.0014875318,
				"z": 1.204991659,
				"element": "H" 
			},
			{
				"x": 4.9294262002,
				"y": -2.415807451,
				"z": 0.312357249,
				"element": "H" 
			},
			{
				"x": 1.7575336067,
				"y": 1.8871441077,
				"z": 2.626909037,
				"element": "H" 
			},
			{
				"x": 0.6661960456,
				"y": 4.0721126859,
				"z": 3.1682837852,
				"element": "H" 
			}
		],
		 "valence_orbital": [ 
			{
				"type": "occ",
				"energy": -0.30525,
				"method": "rhf"
			},
			{
				"type": "occ",
				"energy": -0.29901,
				"method": "rhf"
			},
			{
				"type": "occ",
				"energy": -0.28467,
				"method": "rhf"
			},
			{
				"type": "occ",
				"energy": -0.27965,
				"method": "rhf"
			},
			{
				"type": "occ",
				"energy": -0.26548,
				"method": "rhf"
			},
			{
				"type": "unocc",
				"energy": -0.1211,
				"method": "rhf"
			},
			{
				"type": "unocc",
				"energy": -0.07282,
				"method": "rhf"
			},
			{
				"type": "unocc",
				"energy": -0.04704,
				"method": "rhf"
			},
			{
				"type": "unocc",
				"energy": -0.02216,
				"method": "rhf"
			},
			{
				"type": "unocc",
				"energy": -0.01665,
				"method": "rhf"
			}
		],
		"cosmo_sigma_profile": { 
			"-0.025": 0.0,
			"-0.024": 0.0,
			"-0.023": 0.0,
			"-0.022": 0.0,
			"-0.021": 0.0,
			"-0.02": 0.0,
			"-0.019": 0.0,
			"-0.018": 0.0,
			"-0.017": 0.0,
			"-0.016": 0.0,
			"-0.015": 0.0,
			"-0.014": 0.118740598666,
			"-0.013": 1.37468608715,
			"-0.012": 1.75966598242,
			"-0.011": 3.00681424989,
			"-0.01": 2.92969720722,
			"-0.009": 5.39351934345,
			"-0.008": 7.30514156654,
			"-0.007": 11.7368804771,
			"-0.006": 12.1943113345,
			"-0.005": 14.1049543319,
			"-0.004": 17.7167632495,
			"-0.003": 15.7182682105,
			"-0.002": 21.2850247848,
			"-0.001": 26.0700658736,
			"0.0": 27.7020351975,
			"0.001": 26.2777025132,
			"0.002": 33.7670415664,
			"0.003": 14.5082218471,
			"0.004": 9.20325512682,
			"0.005": 7.13020760788,
			"0.006": 7.159373225,
			"0.007": 11.3372728245,
			"0.008": 8.12922799393,
			"0.009": 6.04160782061,
			"0.01": 4.66565837499,
			"0.011": 3.3671212017,
			"0.012": 2.80287384851,
			"0.013": 1.81072935246,
			"0.014": 1.85808907813,
			"0.015": 0.0997888051369,
			"0.016": 0.0,
			"0.017": 0.0,
			"0.018": 0.0,
			"0.019": 0.0,
			"0.02": 0.0,
			"0.021": 0.0,
			"0.022": 0.0,
			"0.023": 0.0,
			"0.024": 0.0,
			"0.025": 0.0
		}
	}
}
