{
	 "smiles": "N#CCC1=CC=NC=C1", 
	 "Tm": 541.15, 
	 "num_atms": 15, 
	 "gaussian": { 
		 "optdone": 1, 
		 "sigma_profile": "yes", 
		 "theory": "DFT", 
		 "functional": "B3LYP", 
		 "basiset": "6-31G**", 
		 "properties": { 
			 "R2extent": 1622.862, 
			 "electric_dipole_moment_norm": 3.39290183913, 
			 "electric_quadrupole_moment_norm": 19.0085157169, 
			 "total_energy": -379.836781104, 
			 "HOMO_LUMO_gap": 0.22348, 
			 "cosmo_polarized_energy": -13.19, 
			 "cosmo_cavitation_energy": 20.44, 
			 "cosmo_dispersion_energy": -14.34, 
			 "cosmo_repulsion_energy": 1.19, 
			 "cosmo_total_nonelectrostatic_energy": 7.28, 
			 "SMD_solvation_energy": 3.7 
		},
		"coords": [
			{
				"x": -2.5250422383,
				"y": 2.3618262546,
				"z": 0.2355881203,
				"element": "N" 
			},
			{
				"x": -1.4286973753,
				"y": 2.4662992596,
				"z": 0.6012290232,
				"element": "C" 
			},
			{
				"x": -0.0398493284,
				"y": 2.5917645461,
				"z": 1.0627578713,
				"element": "C" 
			},
			{
				"x": 0.7180858856,
				"y": 1.2730922134,
				"z": 0.9977293149,
				"element": "C" 
			},
			{
				"x": 0.7287076111,
				"y": 0.3928169389,
				"z": 2.0820116548,
				"element": "C" 
			},
			{
				"x": 1.4362882458,
				"y": -0.8048275551,
				"z": 1.9698459237,
				"element": "C" 
			},
			{
				"x": 2.1146317525,
				"y": -1.1689250659,
				"z": 0.8750432886,
				"element": "N" 
			},
			{
				"x": 2.0963894913,
				"y": -0.3203338178,
				"z": -0.1597864631,
				"element": "C" 
			},
			{
				"x": 1.420719178,
				"y": 0.9007194852,
				"z": -0.1504572481,
				"element": "C" 
			},
			{
				"x": -0.0540897296,
				"y": 2.9737083905,
				"z": 2.0896934427,
				"element": "H" 
			},
			{
				"x": 0.4579135685,
				"y": 3.3489986833,
				"z": 0.4466912307,
				"element": "H" 
			},
			{
				"x": 0.1981845436,
				"y": 0.629857398,
				"z": 2.9998308292,
				"element": "H" 
			},
			{
				"x": 1.4595255482,
				"y": -1.5037107085,
				"z": 2.8039662584,
				"element": "H" 
			},
			{
				"x": 2.6520882822,
				"y": -0.6284050169,
				"z": -1.0435423485,
				"element": "H" 
			},
			{
				"x": 1.4456445649,
				"y": 1.5454189946,
				"z": -1.024400898,
				"element": "H" 
			}
		],
		 "valence_orbital": [ 
			{
				"type": "occ",
				"energy": -0.33445,
				"method": "rhf"
			},
			{
				"type": "occ",
				"energy": -0.33184,
				"method": "rhf"
			},
			{
				"type": "occ",
				"energy": -0.29673,
				"method": "rhf"
			},
			{
				"type": "occ",
				"energy": -0.27622,
				"method": "rhf"
			},
			{
				"type": "occ",
				"energy": -0.26583,
				"method": "rhf"
			},
			{
				"type": "unocc",
				"energy": -0.04235,
				"method": "rhf"
			},
			{
				"type": "unocc",
				"energy": -0.02756,
				"method": "rhf"
			},
			{
				"type": "unocc",
				"energy": 0.02937,
				"method": "rhf"
			},
			{
				"type": "unocc",
				"energy": 0.03316,
				"method": "rhf"
			},
			{
				"type": "unocc",
				"energy": 0.08833,
				"method": "rhf"
			}
		],
		"cosmo_sigma_profile": { 
			"-0.025": 0.0,
			"-0.024": 0.0,
			"-0.023": 0.0,
			"-0.022": 0.0,
			"-0.021": 0.0,
			"-0.02": 0.0,
			"-0.019": 0.0,
			"-0.018": 0.0,
			"-0.017": 0.0,
			"-0.016": 0.0,
			"-0.015": 0.0,
			"-0.014": 0.0,
			"-0.013": 0.0,
			"-0.012": 0.0,
			"-0.011": 0.0,
			"-0.01": 0.694938152154,
			"-0.009": 7.99524121227,
			"-0.008": 8.28841523298,
			"-0.007": 10.5864515931,
			"-0.006": 13.7959922846,
			"-0.005": 10.5639746525,
			"-0.004": 8.11011677622,
			"-0.003": 7.40237369508,
			"-0.002": 6.01602392634,
			"-0.001": 8.39278235086,
			"0.0": 8.41548587251,
			"0.001": 12.6468371864,
			"0.002": 14.8383080147,
			"0.003": 4.51453747682,
			"0.004": 4.54665928855,
			"0.005": 3.98977195586,
			"0.006": 4.07323466374,
			"0.007": 3.95370140213,
			"0.008": 4.39404414477,
			"0.009": 5.24143750796,
			"0.01": 4.30863647432,
			"0.011": 3.22277514438,
			"0.012": 3.45321841259,
			"0.013": 2.70597597657,
			"0.014": 1.07284637293,
			"0.015": 0.535324390958,
			"0.016": 1.11414688051,
			"0.017": 0.170314402217,
			"0.018": 0.0,
			"0.019": 0.0,
			"0.02": 0.0,
			"0.021": 0.0,
			"0.022": 0.0,
			"0.023": 0.0,
			"0.024": 0.0,
			"0.025": 0.0
		}
	}
}
