{
	 "smiles": "CC(O)(CC(O)=O)C(F)(F)F", 
	 "Tm": 313.15, 
	 "num_atms": 18, 
	 "gaussian": { 
		 "optdone": 1, 
		 "sigma_profile": "yes", 
		 "theory": "DFT", 
		 "functional": "B3LYP", 
		 "basiset": "6-31G**", 
		 "properties": { 
			 "R2extent": 2265.6512, 
			 "electric_dipole_moment_norm": 3.67935443386, 
			 "electric_quadrupole_moment_norm": 5.91649107411, 
			 "total_energy": -719.969704297, 
			 "HOMO_LUMO_gap": 0.26113, 
			 "cosmo_polarized_energy": -10.66, 
			 "cosmo_cavitation_energy": 22.63, 
			 "cosmo_dispersion_energy": -16.17, 
			 "cosmo_repulsion_energy": 1.25, 
			 "cosmo_total_nonelectrostatic_energy": 7.71, 
			 "SMD_solvation_energy": 6.17 
		},
		"coords": [
			{
				"x": 2.2061484507,
				"y": 0.6508688329,
				"z": -0.2678007883,
				"element": "C" 
			},
			{
				"x": 1.507820725,
				"y": -0.6360384032,
				"z": 0.1984360619,
				"element": "C" 
			},
			{
				"x": 2.0509660517,
				"y": -1.1073815612,
				"z": 1.4141182576,
				"element": "O" 
			},
			{
				"x": -0.0263505032,
				"y": -0.4610323842,
				"z": 0.3093179812,
				"element": "C" 
			},
			{
				"x": -0.4246779554,
				"y": 0.4897944681,
				"z": 1.4130906259,
				"element": "C" 
			},
			{
				"x": -1.6497892658,
				"y": 1.0091399656,
				"z": 1.2209387143,
				"element": "O" 
			},
			{
				"x": 0.2473443302,
				"y": 0.7591243721,
				"z": 2.3943579711,
				"element": "O" 
			},
			{
				"x": 1.7811592119,
				"y": -1.7596249196,
				"z": -0.8170963385,
				"element": "C" 
			},
			{
				"x": 3.0962193526,
				"y": -1.9880182553,
				"z": -0.963177835,
				"element": "F" 
			},
			{
				"x": 1.198056123,
				"y": -2.9179830658,
				"z": -0.4529155864,
				"element": "F" 
			},
			{
				"x": 1.2845224988,
				"y": -1.4249145268,
				"z": -2.0350377824,
				"element": "F" 
			},
			{
				"x": 1.841868501,
				"y": 0.977260161,
				"z": -1.245812166,
				"element": "H" 
			},
			{
				"x": 2.030224385,
				"y": 1.4479040365,
				"z": 0.4588121925,
				"element": "H" 
			},
			{
				"x": 3.2816252515,
				"y": 0.4749311596,
				"z": -0.3309465779,
				"element": "H" 
			},
			{
				"x": 1.7467189383,
				"y": -0.4871371632,
				"z": 2.0986742466,
				"element": "H" 
			},
			{
				"x": -0.4732819005,
				"y": -1.4331169644,
				"z": 0.5494397542,
				"element": "H" 
			},
			{
				"x": -0.465565758,
				"y": -0.129824586,
				"z": -0.6344593877,
				"element": "H" 
			},
			{
				"x": -1.8412084367,
				"y": 1.5690488338,
				"z": 1.9934606568,
				"element": "H" 
			}
		],
		 "valence_orbital": [ 
			{
				"type": "occ",
				"energy": -0.37234,
				"method": "rhf"
			},
			{
				"type": "occ",
				"energy": -0.34575,
				"method": "rhf"
			},
			{
				"type": "occ",
				"energy": -0.34187,
				"method": "rhf"
			},
			{
				"type": "occ",
				"energy": -0.30196,
				"method": "rhf"
			},
			{
				"type": "occ",
				"energy": -0.27967,
				"method": "rhf"
			},
			{
				"type": "unocc",
				"energy": -0.01854,
				"method": "rhf"
			},
			{
				"type": "unocc",
				"energy": 0.05897,
				"method": "rhf"
			},
			{
				"type": "unocc",
				"energy": 0.08614,
				"method": "rhf"
			},
			{
				"type": "unocc",
				"energy": 0.11136,
				"method": "rhf"
			},
			{
				"type": "unocc",
				"energy": 0.12763,
				"method": "rhf"
			}
		],
		"cosmo_sigma_profile": { 
			"-0.025": 0.0,
			"-0.024": 0.0,
			"-0.023": 0.0,
			"-0.022": 0.0,
			"-0.021": 0.0,
			"-0.02": 0.0,
			"-0.019": 0.61298230063,
			"-0.018": 1.11980788243,
			"-0.017": 0.680871862098,
			"-0.016": 0.991151497182,
			"-0.015": 0.892390680934,
			"-0.014": 0.426763878333,
			"-0.013": 0.560682035138,
			"-0.012": 0.885782438797,
			"-0.011": 0.683136449536,
			"-0.01": 0.241353068751,
			"-0.009": 1.25996445756,
			"-0.008": 3.38225021774,
			"-0.007": 5.6151024552,
			"-0.006": 5.80433201665,
			"-0.005": 8.23477829574,
			"-0.004": 12.4853681417,
			"-0.003": 11.3684595461,
			"-0.002": 11.0351752464,
			"-0.001": 13.726822715,
			"0.0": 11.7462559216,
			"0.001": 7.32072006404,
			"0.002": 21.5161874309,
			"0.003": 23.3080090497,
			"0.004": 4.81760758815,
			"0.005": 4.2549273419,
			"0.006": 4.36967708147,
			"0.007": 3.84133078512,
			"0.008": 4.56890891806,
			"0.009": 3.85579257717,
			"0.01": 3.58060368413,
			"0.011": 2.77229547849,
			"0.012": 2.02132553036,
			"0.013": 0.165468951049,
			"0.014": 0.0,
			"0.015": 0.0,
			"0.016": 0.0,
			"0.017": 0.0,
			"0.018": 0.0,
			"0.019": 0.0,
			"0.02": 0.0,
			"0.021": 0.0,
			"0.022": 0.0,
			"0.023": 0.0,
			"0.024": 0.0,
			"0.025": 0.0
		}
	}
}
