{
	 "smiles": "CC(C)(C)C1=CC(N)=C(S1)C#N", 
	 "Tm": 373.15, 
	 "num_atms": 24, 
	 "gaussian": { 
		 "optdone": 1, 
		 "sigma_profile": "yes", 
		 "theory": "DFT", 
		 "functional": "B3LYP", 
		 "basiset": "6-31G**", 
		 "properties": { 
			 "R2extent": 2926.6921, 
			 "electric_dipole_moment_norm": 5.8933437877, 
			 "electric_quadrupole_moment_norm": 19.6128999536, 
			 "total_energy": -857.868908682, 
			 "HOMO_LUMO_gap": 0.17255, 
			 "cosmo_polarized_energy": -13.37, 
			 "cosmo_cavitation_energy": 28.86, 
			 "cosmo_dispersion_energy": -20.45, 
			 "cosmo_repulsion_energy": 1.59, 
			 "cosmo_total_nonelectrostatic_energy": 9.99, 
			 "SMD_solvation_energy": 6.08 
		},
		"coords": [
			{
				"x": 1.7769519189,
				"y": 2.4846591334,
				"z": 0.8302973507,
				"element": "C" 
			},
			{
				"x": 1.0120627286,
				"y": 1.6755251965,
				"z": -0.2445321438,
				"element": "C" 
			},
			{
				"x": -0.3199225751,
				"y": 2.3909206298,
				"z": -0.5740764733,
				"element": "C" 
			},
			{
				"x": 1.8709280272,
				"y": 1.6069555037,
				"z": -1.5222110258,
				"element": "C" 
			},
			{
				"x": 0.7294794975,
				"y": 0.2707163029,
				"z": 0.2721816446,
				"element": "C" 
			},
			{
				"x": 1.1487228076,
				"y": -0.9289710721,
				"z": -0.240747286,
				"element": "C" 
			},
			{
				"x": 0.7079369289,
				"y": -2.0722972538,
				"z": 0.4994279637,
				"element": "C" 
			},
			{
				"x": 1.0697671565,
				"y": -3.366103039,
				"z": 0.1839786944,
				"element": "N" 
			},
			{
				"x": -0.0680754583,
				"y": -1.7118705629,
				"z": 1.5936995026,
				"element": "C" 
			},
			{
				"x": -0.2355428881,
				"y": 0.0340198536,
				"z": 1.7125570472,
				"element": "S" 
			},
			{
				"x": -0.6726541911,
				"y": -2.6023838032,
				"z": 2.5001176201,
				"element": "C" 
			},
			{
				"x": -1.1617507631,
				"y": -3.3786873472,
				"z": 3.2229802128,
				"element": "N" 
			},
			{
				"x": 2.7225054207,
				"y": 1.998249097,
				"z": 1.0890194573,
				"element": "H" 
			},
			{
				"x": 1.1907069971,
				"y": 2.5890015994,
				"z": 1.7483138465,
				"element": "H" 
			},
			{
				"x": 1.9987398245,
				"y": 3.4901190801,
				"z": 0.4566151969,
				"element": "H" 
			},
			{
				"x": -0.1211129852,
				"y": 3.3959634354,
				"z": -0.9614537179,
				"element": "H" 
			},
			{
				"x": -0.9527460495,
				"y": 2.4920589714,
				"z": 0.312894946,
				"element": "H" 
			},
			{
				"x": -0.8866546508,
				"y": 1.838098177,
				"z": -1.3297204757,
				"element": "H" 
			},
			{
				"x": 2.8372592784,
				"y": 1.1290203935,
				"z": -1.3326654434,
				"element": "H" 
			},
			{
				"x": 1.3625148244,
				"y": 1.0559686851,
				"z": -2.3198688236,
				"element": "H" 
			},
			{
				"x": 2.0660392835,
				"y": 2.6196402622,
				"z": -1.8883246559,
				"element": "H" 
			},
			{
				"x": 1.77163034,
				"y": -1.0156938297,
				"z": -1.1226944729,
				"element": "H" 
			},
			{
				"x": 1.2513432639,
				"y": -3.55402283,
				"z": -0.7911359777,
				"element": "H" 
			},
			{
				"x": 0.5442712633,
				"y": -4.0972865831,
				"z": 0.6442470133,
				"element": "H" 
			}
		],
		 "valence_orbital": [ 
			{
				"type": "occ",
				"energy": -0.33328,
				"method": "rhf"
			},
			{
				"type": "occ",
				"energy": -0.31957,
				"method": "rhf"
			},
			{
				"type": "occ",
				"energy": -0.31661,
				"method": "rhf"
			},
			{
				"type": "occ",
				"energy": -0.24763,
				"method": "rhf"
			},
			{
				"type": "occ",
				"energy": -0.21104,
				"method": "rhf"
			},
			{
				"type": "unocc",
				"energy": -0.03849,
				"method": "rhf"
			},
			{
				"type": "unocc",
				"energy": 0.0029,
				"method": "rhf"
			},
			{
				"type": "unocc",
				"energy": 0.02789,
				"method": "rhf"
			},
			{
				"type": "unocc",
				"energy": 0.04398,
				"method": "rhf"
			},
			{
				"type": "unocc",
				"energy": 0.07468,
				"method": "rhf"
			}
		],
		"cosmo_sigma_profile": { 
			"-0.025": 0.0,
			"-0.024": 0.0,
			"-0.023": 0.0,
			"-0.022": 0.0,
			"-0.021": 0.0,
			"-0.02": 0.0,
			"-0.019": 0.0,
			"-0.018": 0.0,
			"-0.017": 0.0,
			"-0.016": 0.0,
			"-0.015": 0.0375649680226,
			"-0.014": 1.08251192455,
			"-0.013": 2.15157213669,
			"-0.012": 2.63171208822,
			"-0.011": 2.42092377488,
			"-0.01": 2.74670691115,
			"-0.009": 2.8571618317,
			"-0.008": 2.80179265205,
			"-0.007": 3.15728544617,
			"-0.006": 2.88000855213,
			"-0.005": 3.73706843012,
			"-0.004": 12.3642421862,
			"-0.003": 26.8519946344,
			"-0.002": 22.1221262841,
			"-0.001": 20.611243901,
			"0.0": 27.100079725,
			"0.001": 22.3591028543,
			"0.002": 16.2708401086,
			"0.003": 15.1229443253,
			"0.004": 8.13041627539,
			"0.005": 4.10683064724,
			"0.006": 3.29766085405,
			"0.007": 2.81522293263,
			"0.008": 2.69395841655,
			"0.009": 4.16562067064,
			"0.01": 4.05981768258,
			"0.011": 4.18938016326,
			"0.012": 2.91958033105,
			"0.013": 2.6107339245,
			"0.014": 1.31752435058,
			"0.015": 0.0,
			"0.016": 0.0,
			"0.017": 0.0,
			"0.018": 0.0,
			"0.019": 0.0,
			"0.02": 0.0,
			"0.021": 0.0,
			"0.022": 0.0,
			"0.023": 0.0,
			"0.024": 0.0,
			"0.025": 0.0
		}
	}
}
