{
	 "smiles": "CC1=CC(F)=CC=C1S(N)(=O)=O", 
	 "Tm": 454.15, 
	 "num_atms": 20, 
	 "gaussian": { 
		 "optdone": 1, 
		 "sigma_profile": "yes", 
		 "theory": "DFT", 
		 "functional": "B3LYP", 
		 "basiset": "6-31G**", 
		 "properties": { 
			 "R2extent": 2445.5756, 
			 "electric_dipole_moment_norm": 2.46782105713, 
			 "electric_quadrupole_moment_norm": 18.1708654747, 
			 "total_energy": -974.722582886, 
			 "HOMO_LUMO_gap": 0.22539, 
			 "cosmo_polarized_energy": -13.79, 
			 "cosmo_cavitation_energy": 25.38, 
			 "cosmo_dispersion_energy": -19.21, 
			 "cosmo_repulsion_energy": 1.45, 
			 "cosmo_total_nonelectrostatic_energy": 7.62, 
			 "SMD_solvation_energy": 4.7 
		},
		"coords": [
			{
				"x": 0.579589104,
				"y": 1.9369693233,
				"z": -0.3372255258,
				"element": "C" 
			},
			{
				"x": -0.5294594799,
				"y": 0.9259859155,
				"z": -0.1720384918,
				"element": "C" 
			},
			{
				"x": -1.8600307666,
				"y": 1.3233013579,
				"z": -0.3279545295,
				"element": "C" 
			},
			{
				"x": -2.8933562352,
				"y": 0.4040407562,
				"z": -0.1789562726,
				"element": "C" 
			},
			{
				"x": -4.1607559306,
				"y": 0.8282768439,
				"z": -0.3375590554,
				"element": "F" 
			},
			{
				"x": -2.660250639,
				"y": -0.9291387096,
				"z": 0.1260962503,
				"element": "C" 
			},
			{
				"x": -1.3389554851,
				"y": -1.3437562575,
				"z": 0.2853290323,
				"element": "C" 
			},
			{
				"x": -0.2916854002,
				"y": -0.4319642735,
				"z": 0.1388561441,
				"element": "C" 
			},
			{
				"x": 1.4110049701,
				"y": -0.9676193308,
				"z": 0.3443766335,
				"element": "S" 
			},
			{
				"x": 1.2639136178,
				"y": -2.6166959209,
				"z": 0.7002244678,
				"element": "N" 
			},
			{
				"x": 2.0911206473,
				"y": -0.8621822503,
				"z": -0.9522896791,
				"element": "O" 
			},
			{
				"x": 1.9631336067,
				"y": -0.3134261553,
				"z": 1.5369351238,
				"element": "O" 
			},
			{
				"x": 0.1705111477,
				"y": 2.9207583006,
				"z": -0.5765355796,
				"element": "H" 
			},
			{
				"x": 1.1733126661,
				"y": 2.0166110841,
				"z": 0.5782713908,
				"element": "H" 
			},
			{
				"x": 1.26393307,
				"y": 1.6371098889,
				"z": -1.1364132158,
				"element": "H" 
			},
			{
				"x": -2.1026785064,
				"y": 2.353296126,
				"z": -0.5670268515,
				"element": "H" 
			},
			{
				"x": -3.4907610093,
				"y": -1.6172336672,
				"z": 0.2345844405,
				"element": "H" 
			},
			{
				"x": -1.1135190595,
				"y": -2.3755785036,
				"z": 0.5238468951,
				"element": "H" 
			},
			{
				"x": 1.7441014598,
				"y": -3.1510124871,
				"z": -0.0190713487,
				"element": "H" 
			},
			{
				"x": 1.6593322223,
				"y": -2.7896420405,
				"z": 1.6206501717,
				"element": "H" 
			}
		],
		 "valence_orbital": [ 
			{
				"type": "occ",
				"energy": -0.32144,
				"method": "rhf"
			},
			{
				"type": "occ",
				"energy": -0.30795,
				"method": "rhf"
			},
			{
				"type": "occ",
				"energy": -0.29491,
				"method": "rhf"
			},
			{
				"type": "occ",
				"energy": -0.26976,
				"method": "rhf"
			},
			{
				"type": "occ",
				"energy": -0.2559,
				"method": "rhf"
			},
			{
				"type": "unocc",
				"energy": -0.03051,
				"method": "rhf"
			},
			{
				"type": "unocc",
				"energy": -0.02283,
				"method": "rhf"
			},
			{
				"type": "unocc",
				"energy": 0.04663,
				"method": "rhf"
			},
			{
				"type": "unocc",
				"energy": 0.06373,
				"method": "rhf"
			},
			{
				"type": "unocc",
				"energy": 0.09169,
				"method": "rhf"
			}
		],
		"cosmo_sigma_profile": { 
			"-0.025": 0.0,
			"-0.024": 0.0,
			"-0.023": 0.0,
			"-0.022": 0.0,
			"-0.021": 0.0,
			"-0.02": 0.0,
			"-0.019": 0.0,
			"-0.018": 0.0,
			"-0.017": 0.0,
			"-0.016": 0.0,
			"-0.015": 1.49942959942,
			"-0.014": 2.6736594345,
			"-0.013": 2.26977135799,
			"-0.012": 2.82418713102,
			"-0.011": 1.95845142205,
			"-0.01": 1.51076552726,
			"-0.009": 1.3964946254,
			"-0.008": 4.65325080336,
			"-0.007": 7.00913307988,
			"-0.006": 7.11631960499,
			"-0.005": 8.32611932719,
			"-0.004": 8.36066444687,
			"-0.003": 10.8633536097,
			"-0.002": 12.964628649,
			"-0.001": 19.19025995,
			"0.0": 17.0517888881,
			"0.001": 16.1370755183,
			"0.002": 17.4666394813,
			"0.003": 12.1767007783,
			"0.004": 11.8938488788,
			"0.005": 3.16804623924,
			"0.006": 2.79994361819,
			"0.007": 2.66808550824,
			"0.008": 2.97516327466,
			"0.009": 4.15884091426,
			"0.01": 6.9444976614,
			"0.011": 9.55183596436,
			"0.012": 2.64897783019,
			"0.013": 0.0,
			"0.014": 0.0,
			"0.015": 0.0,
			"0.016": 0.0,
			"0.017": 0.0,
			"0.018": 0.0,
			"0.019": 0.0,
			"0.02": 0.0,
			"0.021": 0.0,
			"0.022": 0.0,
			"0.023": 0.0,
			"0.024": 0.0,
			"0.025": 0.0
		}
	}
}
