{
	 "smiles": "CC1=CC=C(Cl)C=C1C(O)=O", 
	 "Tm": 442.15, 
	 "num_atms": 18, 
	 "gaussian": { 
		 "optdone": 1, 
		 "sigma_profile": "yes", 
		 "theory": "DFT", 
		 "functional": "B3LYP", 
		 "basiset": "6-31G**", 
		 "properties": { 
			 "R2extent": 2670.613, 
			 "electric_dipole_moment_norm": 3.20066869888, 
			 "electric_quadrupole_moment_norm": 12.3843739676, 
			 "total_energy": -919.723586964, 
			 "HOMO_LUMO_gap": 0.19769, 
			 "cosmo_polarized_energy": -12.34, 
			 "cosmo_cavitation_energy": 24.02, 
			 "cosmo_dispersion_energy": -17.84, 
			 "cosmo_repulsion_energy": 1.43, 
			 "cosmo_total_nonelectrostatic_energy": 7.62, 
			 "SMD_solvation_energy": 4.92 
		},
		"coords": [
			{
				"x": -1.1468930413,
				"y": -1.8898775989,
				"z": -1.5914082454,
				"element": "C" 
			},
			{
				"x": -0.1404777908,
				"y": -1.6606403216,
				"z": -0.4900538479,
				"element": "C" 
			},
			{
				"x": 0.9085174174,
				"y": -2.571452492,
				"z": -0.3107010044,
				"element": "C" 
			},
			{
				"x": 1.8579424725,
				"y": -2.430206574,
				"z": 0.7004489764,
				"element": "C" 
			},
			{
				"x": 1.7662728628,
				"y": -1.3417729351,
				"z": 1.5637001942,
				"element": "C" 
			},
			{
				"x": 2.9350364465,
				"y": -1.1488318581,
				"z": 2.8593227651,
				"element": "Cl" 
			},
			{
				"x": 0.7517109214,
				"y": -0.4029169471,
				"z": 1.4082914865,
				"element": "C" 
			},
			{
				"x": -0.1970799211,
				"y": -0.5514913321,
				"z": 0.3846089921,
				"element": "C" 
			},
			{
				"x": -1.2980021734,
				"y": 0.4640633132,
				"z": 0.2649705567,
				"element": "C" 
			},
			{
				"x": -0.9734619859,
				"y": 1.7395059373,
				"z": 0.6133041827,
				"element": "O" 
			},
			{
				"x": -2.4211921061,
				"y": 0.2103977283,
				"z": -0.1006101037,
				"element": "O" 
			},
			{
				"x": -0.8246123105,
				"y": -2.713080809,
				"z": -2.2342311466,
				"element": "H" 
			},
			{
				"x": -1.2857600887,
				"y": -0.9986873407,
				"z": -2.2098264998,
				"element": "H" 
			},
			{
				"x": -2.1303996313,
				"y": -2.1273115568,
				"z": -1.1776992788,
				"element": "H" 
			},
			{
				"x": 0.9829610008,
				"y": -3.4221505287,
				"z": -0.9822398173,
				"element": "H" 
			},
			{
				"x": 2.6544749335,
				"y": -3.1563737535,
				"z": 0.8195917813,
				"element": "H" 
			},
			{
				"x": 0.6803246756,
				"y": 0.4184348467,
				"z": 2.1141951371,
				"element": "H" 
			},
			{
				"x": -0.0153616814,
				"y": 1.8209922224,
				"z": 0.7207358717,
				"element": "H" 
			}
		],
		 "valence_orbital": [ 
			{
				"type": "occ",
				"energy": -0.32691,
				"method": "rhf"
			},
			{
				"type": "occ",
				"energy": -0.32217,
				"method": "rhf"
			},
			{
				"type": "occ",
				"energy": -0.28603,
				"method": "rhf"
			},
			{
				"type": "occ",
				"energy": -0.27499,
				"method": "rhf"
			},
			{
				"type": "occ",
				"energy": -0.25592,
				"method": "rhf"
			},
			{
				"type": "unocc",
				"energy": -0.05823,
				"method": "rhf"
			},
			{
				"type": "unocc",
				"energy": -0.03024,
				"method": "rhf"
			},
			{
				"type": "unocc",
				"energy": 0.01549,
				"method": "rhf"
			},
			{
				"type": "unocc",
				"energy": 0.03367,
				"method": "rhf"
			},
			{
				"type": "unocc",
				"energy": 0.07071,
				"method": "rhf"
			}
		],
		"cosmo_sigma_profile": { 
			"-0.025": 0.0,
			"-0.024": 0.0,
			"-0.023": 0.0,
			"-0.022": 0.0,
			"-0.021": 0.0,
			"-0.02": 0.0,
			"-0.019": 0.15163360177,
			"-0.018": 0.720549775959,
			"-0.017": 1.24611586739,
			"-0.016": 1.01553514918,
			"-0.015": 0.93819627755,
			"-0.014": 0.6364240432,
			"-0.013": 1.31076773681,
			"-0.012": 1.11616227271,
			"-0.011": 1.40694745,
			"-0.01": 1.00357029332,
			"-0.009": 1.10628599088,
			"-0.008": 2.98924422426,
			"-0.007": 6.13162922297,
			"-0.006": 7.60462462785,
			"-0.005": 9.43593482513,
			"-0.004": 10.0891597278,
			"-0.003": 10.0839216133,
			"-0.002": 12.735991434,
			"-0.001": 14.8005351582,
			"0.0": 18.6592481886,
			"0.001": 17.8623043982,
			"0.002": 18.2058593759,
			"0.003": 11.833280673,
			"0.004": 11.7883151116,
			"0.005": 5.37258640835,
			"0.006": 2.78534909342,
			"0.007": 3.02699775221,
			"0.008": 2.47989638019,
			"0.009": 3.20096869654,
			"0.01": 5.12774039683,
			"0.011": 4.83267830147,
			"0.012": 3.38616306997,
			"0.013": 1.02819978352,
			"0.014": 0.0,
			"0.015": 0.0,
			"0.016": 0.0,
			"0.017": 0.0,
			"0.018": 0.0,
			"0.019": 0.0,
			"0.02": 0.0,
			"0.021": 0.0,
			"0.022": 0.0,
			"0.023": 0.0,
			"0.024": 0.0,
			"0.025": 0.0
		}
	}
}
