{
	 "smiles": "N#CC1=CC=CC=C1CN1CCOCC1", 
	 "Tm": 322.65, 
	 "num_atms": 29, 
	 "gaussian": { 
		 "optdone": 1, 
		 "sigma_profile": "yes", 
		 "theory": "DFT", 
		 "functional": "B3LYP", 
		 "basiset": "6-31G**", 
		 "properties": { 
			 "R2extent": 3261.8684, 
			 "electric_dipole_moment_norm": 4.37470300935, 
			 "electric_quadrupole_moment_norm": 14.0960754588, 
			 "total_energy": -650.389538585, 
			 "HOMO_LUMO_gap": 0.1529, 
			 "cosmo_polarized_energy": -11.7, 
			 "cosmo_cavitation_energy": 31.28, 
			 "cosmo_dispersion_energy": -21.86, 
			 "cosmo_repulsion_energy": 1.7, 
			 "cosmo_total_nonelectrostatic_energy": 11.13, 
			 "SMD_solvation_energy": 3.91 
		},
		"coords": [
			{
				"x": -1.5379039095,
				"y": 2.844008851,
				"z": 1.8833002099,
				"element": "N" 
			},
			{
				"x": -1.3819613281,
				"y": 1.6906171163,
				"z": 1.907349265,
				"element": "C" 
			},
			{
				"x": -1.1864177741,
				"y": 0.2688379617,
				"z": 1.9573137574,
				"element": "C" 
			},
			{
				"x": -0.8021495832,
				"y": -0.3013118489,
				"z": 3.1845557703,
				"element": "C" 
			},
			{
				"x": -0.6358018426,
				"y": -1.6777217767,
				"z": 3.2932712753,
				"element": "C" 
			},
			{
				"x": -0.8696536466,
				"y": -2.4892374591,
				"z": 2.1814569656,
				"element": "C" 
			},
			{
				"x": -1.2545533612,
				"y": -1.9210304269,
				"z": 0.9667536176,
				"element": "C" 
			},
			{
				"x": -1.406226639,
				"y": -0.5366654053,
				"z": 0.815076465,
				"element": "C" 
			},
			{
				"x": -1.7844228695,
				"y": 0.0514880345,
				"z": -0.5450511086,
				"element": "C" 
			},
			{
				"x": -0.6988720229,
				"y": 0.2729510945,
				"z": -1.4955759137,
				"element": "N" 
			},
			{
				"x": -0.0227910762,
				"y": -0.9250584216,
				"z": -1.9852688573,
				"element": "C" 
			},
			{
				"x": 1.1466058593,
				"y": -0.5160073109,
				"z": -2.8752834454,
				"element": "C" 
			},
			{
				"x": 2.1486683903,
				"y": 0.2012147482,
				"z": -2.1573572442,
				"element": "O" 
			},
			{
				"x": 1.6543743289,
				"y": 0.9462182212,
				"z": -1.0439844863,
				"element": "C" 
			},
			{
				"x": 0.2119117853,
				"y": 1.4054785068,
				"z": -1.2509420087,
				"element": "C" 
			},
			{
				"x": -0.646852576,
				"y": 0.3445057495,
				"z": 4.0425547081,
				"element": "H" 
			},
			{
				"x": -0.3393766019,
				"y": -2.1146355055,
				"z": 4.241582101,
				"element": "H" 
			},
			{
				"x": -0.7608144686,
				"y": -3.5668488581,
				"z": 2.2620154138,
				"element": "H" 
			},
			{
				"x": -1.4584508233,
				"y": -2.5660612401,
				"z": 0.1168532849,
				"element": "H" 
			},
			{
				"x": -2.4995543614,
				"y": -0.632982106,
				"z": -1.0200588036,
				"element": "H" 
			},
			{
				"x": -2.3046844983,
				"y": 1.0034635806,
				"z": -0.4009426944,
				"element": "H" 
			},
			{
				"x": 0.3705960656,
				"y": -1.5698419444,
				"z": -1.1789683938,
				"element": "H" 
			},
			{
				"x": -0.7334770915,
				"y": -1.5331906551,
				"z": -2.563577642,
				"element": "H" 
			},
			{
				"x": 0.7692826973,
				"y": 0.0897672608,
				"z": -3.7137661577,
				"element": "H" 
			},
			{
				"x": 1.6311895377,
				"y": -1.4045627443,
				"z": -3.2935677463,
				"element": "H" 
			},
			{
				"x": 2.3156844362,
				"y": 1.8113238937,
				"z": -0.9239094705,
				"element": "H" 
			},
			{
				"x": 1.724503068,
				"y": 0.3425091822,
				"z": -0.1254988482,
				"element": "H" 
			},
			{
				"x": -0.1149922661,
				"y": 1.9783564911,
				"z": -0.3797199818,
				"element": "H" 
			},
			{
				"x": 0.1821405715,
				"y": 2.0931150108,
				"z": -2.1089100313,
				"element": "H" 
			}
		],
		 "valence_orbital": [ 
			{
				"type": "occ",
				"energy": -0.29929,
				"method": "rhf"
			},
			{
				"type": "occ",
				"energy": -0.27283,
				"method": "rhf"
			},
			{
				"type": "occ",
				"energy": -0.26725,
				"method": "rhf"
			},
			{
				"type": "occ",
				"energy": -0.24477,
				"method": "rhf"
			},
			{
				"type": "occ",
				"energy": -0.20771,
				"method": "rhf"
			},
			{
				"type": "unocc",
				"energy": -0.05481,
				"method": "rhf"
			},
			{
				"type": "unocc",
				"energy": -0.02812,
				"method": "rhf"
			},
			{
				"type": "unocc",
				"energy": 0.0313,
				"method": "rhf"
			},
			{
				"type": "unocc",
				"energy": 0.07194,
				"method": "rhf"
			},
			{
				"type": "unocc",
				"energy": 0.07304,
				"method": "rhf"
			}
		],
		"cosmo_sigma_profile": { 
			"-0.025": 0.0,
			"-0.024": 0.0,
			"-0.023": 0.0,
			"-0.022": 0.0,
			"-0.021": 0.0,
			"-0.02": 0.0,
			"-0.019": 0.0,
			"-0.018": 0.0,
			"-0.017": 0.0,
			"-0.016": 0.0,
			"-0.015": 0.0,
			"-0.014": 0.0,
			"-0.013": 0.0,
			"-0.012": 0.0,
			"-0.011": 0.0,
			"-0.01": 0.0,
			"-0.009": 0.0,
			"-0.008": 1.01390968807,
			"-0.007": 5.73594189174,
			"-0.006": 10.8251668268,
			"-0.005": 16.9960215348,
			"-0.004": 24.1074696293,
			"-0.003": 30.4009128286,
			"-0.002": 33.0339726695,
			"-0.001": 24.056854577,
			"0.0": 15.1255957668,
			"0.001": 14.1053059819,
			"0.002": 13.865721619,
			"0.003": 12.1367664412,
			"0.004": 6.60479065981,
			"0.005": 3.42640431249,
			"0.006": 4.21362013084,
			"0.007": 4.17424455471,
			"0.008": 4.44431883541,
			"0.009": 4.73805032474,
			"0.01": 4.65432662778,
			"0.011": 4.3167930118,
			"0.012": 4.47442546551,
			"0.013": 3.56782152905,
			"0.014": 1.7200047359,
			"0.015": 0.00176424511461,
			"0.016": 0.0,
			"0.017": 0.0,
			"0.018": 0.0,
			"0.019": 0.0,
			"0.02": 0.0,
			"0.021": 0.0,
			"0.022": 0.0,
			"0.023": 0.0,
			"0.024": 0.0,
			"0.025": 0.0
		}
	}
}
