{
	 "smiles": "OC(=O)C1=C(C=CS1)C1=CC=CC=C1", 
	 "Tm": 480.15, 
	 "num_atms": 22, 
	 "gaussian": { 
		 "optdone": 1, 
		 "sigma_profile": "yes", 
		 "theory": "DFT", 
		 "functional": "B3LYP", 
		 "basiset": "6-31G**", 
		 "properties": { 
			 "R2extent": 3328.9449, 
			 "electric_dipole_moment_norm": 1.5622469107, 
			 "electric_quadrupole_moment_norm": 8.99292700126, 
			 "total_energy": -972.631619891, 
			 "HOMO_LUMO_gap": 0.1681, 
			 "cosmo_polarized_energy": -11.01, 
			 "cosmo_cavitation_energy": 28.03, 
			 "cosmo_dispersion_energy": -21.07, 
			 "cosmo_repulsion_energy": 1.6, 
			 "cosmo_total_nonelectrostatic_energy": 8.56, 
			 "SMD_solvation_energy": 5.76 
		},
		"coords": [
			{
				"x": 2.8249390617,
				"y": -1.5251268341,
				"z": -0.5014462952,
				"element": "O" 
			},
			{
				"x": 1.4846555074,
				"y": -1.2837168357,
				"z": -0.4643163542,
				"element": "C" 
			},
			{
				"x": 0.7292356051,
				"y": -1.7506169908,
				"z": -1.2941890487,
				"element": "O" 
			},
			{
				"x": 1.1233377557,
				"y": -0.4265056618,
				"z": 0.6723131715,
				"element": "C" 
			},
			{
				"x": -0.1364677152,
				"y": -0.0277489877,
				"z": 1.1121517124,
				"element": "C" 
			},
			{
				"x": -0.0433495167,
				"y": 0.7266684015,
				"z": 2.3258945871,
				"element": "C" 
			},
			{
				"x": 1.2376835553,
				"y": 0.8925021964,
				"z": 2.7758742747,
				"element": "C" 
			},
			{
				"x": 2.3878368976,
				"y": 0.1299375571,
				"z": 1.7484795298,
				"element": "S" 
			},
			{
				"x": -1.4557058403,
				"y": -0.2943421183,
				"z": 0.4892813937,
				"element": "C" 
			},
			{
				"x": -2.5320035495,
				"y": -0.6762781105,
				"z": 1.3090477364,
				"element": "C" 
			},
			{
				"x": -3.8020019678,
				"y": -0.8818213617,
				"z": 0.7719799351,
				"element": "C" 
			},
			{
				"x": -4.0215613693,
				"y": -0.6956185246,
				"z": -0.5935635987,
				"element": "C" 
			},
			{
				"x": -2.9614252666,
				"y": -0.3082517883,
				"z": -1.4160303073,
				"element": "C" 
			},
			{
				"x": -1.6894457902,
				"y": -0.1115176341,
				"z": -0.8827982366,
				"element": "C" 
			},
			{
				"x": 2.9695680535,
				"y": -2.0936082251,
				"z": -1.2750564902,
				"element": "H" 
			},
			{
				"x": -0.9104526985,
				"y": 1.1505540468,
				"z": 2.8181781814,
				"element": "H" 
			},
			{
				"x": 1.566131204,
				"y": 1.4368412051,
				"z": 3.6511309208,
				"element": "H" 
			},
			{
				"x": -2.364786447,
				"y": -0.8329526074,
				"z": 2.37085871,
				"element": "H" 
			},
			{
				"x": -4.6177952044,
				"y": -1.1882583921,
				"z": 1.4204976029,
				"element": "H" 
			},
			{
				"x": -5.0107255746,
				"y": -0.8519131829,
				"z": -1.0143478821,
				"element": "H" 
			},
			{
				"x": -3.1244096782,
				"y": -0.1583135291,
				"z": -2.4793782677,
				"element": "H" 
			},
			{
				"x": -0.8723570219,
				"y": 0.1826873773,
				"z": -1.529461275,
				"element": "H" 
			}
		],
		 "valence_orbital": [ 
			{
				"type": "occ",
				"energy": -0.28102,
				"method": "rhf"
			},
			{
				"type": "occ",
				"energy": -0.27268,
				"method": "rhf"
			},
			{
				"type": "occ",
				"energy": -0.25223,
				"method": "rhf"
			},
			{
				"type": "occ",
				"energy": -0.24697,
				"method": "rhf"
			},
			{
				"type": "occ",
				"energy": -0.22907,
				"method": "rhf"
			},
			{
				"type": "unocc",
				"energy": -0.06097,
				"method": "rhf"
			},
			{
				"type": "unocc",
				"energy": -0.00201,
				"method": "rhf"
			},
			{
				"type": "unocc",
				"energy": 0.00186,
				"method": "rhf"
			},
			{
				"type": "unocc",
				"energy": 0.02627,
				"method": "rhf"
			},
			{
				"type": "unocc",
				"energy": 0.03604,
				"method": "rhf"
			}
		],
		"cosmo_sigma_profile": { 
			"-0.025": 0.0,
			"-0.024": 0.0,
			"-0.023": 0.0,
			"-0.022": 0.0,
			"-0.021": 0.0,
			"-0.02": 0.0,
			"-0.019": 0.0847624940479,
			"-0.018": 0.879677755148,
			"-0.017": 1.03580444416,
			"-0.016": 0.691302579793,
			"-0.015": 0.466210595799,
			"-0.014": 0.674805285483,
			"-0.013": 0.841552903367,
			"-0.012": 0.641228510799,
			"-0.011": 0.761145527939,
			"-0.01": 1.3102123213,
			"-0.009": 2.37366521584,
			"-0.008": 2.7128546094,
			"-0.007": 4.45693240698,
			"-0.006": 9.71857090157,
			"-0.005": 15.1204155375,
			"-0.004": 15.3503008321,
			"-0.003": 14.6688392137,
			"-0.002": 13.8282636956,
			"-0.001": 14.6146196169,
			"0.0": 13.5903292944,
			"0.001": 17.9685014294,
			"0.002": 24.3203149779,
			"0.003": 20.3948510612,
			"0.004": 13.809000205,
			"0.005": 11.2518781036,
			"0.006": 7.52976003095,
			"0.007": 4.26965319431,
			"0.008": 2.83181066153,
			"0.009": 1.50391560908,
			"0.01": 1.95414395356,
			"0.011": 3.88671104044,
			"0.012": 3.66647272352,
			"0.013": 0.0809769556855,
			"0.014": 0.0,
			"0.015": 0.0,
			"0.016": 0.0,
			"0.017": 0.0,
			"0.018": 0.0,
			"0.019": 0.0,
			"0.02": 0.0,
			"0.021": 0.0,
			"0.022": 0.0,
			"0.023": 0.0,
			"0.024": 0.0,
			"0.025": 0.0
		}
	}
}
