{
	 "smiles": "CN1N(C(=O)C(NN=C(C(=O)C2=C3C=CC=CC3=CC=C2)S(=O)(=O)C2=CC=CC=C2)=C1C)C1=CC=CC=C1", 
	 "Tm": 383.15, 
	 "num_atms": 62, 
	 "gaussian": { 
		 "optdone": 1, 
		 "sigma_profile": "yes", 
		 "theory": "DFT", 
		 "functional": "B3LYP", 
		 "basiset": "6-31G**", 
		 "properties": { 
			 "R2extent": 23151.2445, 
			 "electric_dipole_moment_norm": 6.7647179143, 
			 "electric_quadrupole_moment_norm": 32.6806462783, 
			 "total_energy": -2037.5135006, 
			 "HOMO_LUMO_gap": 0.13745, 
			 "cosmo_polarized_energy": -28.59, 
			 "cosmo_cavitation_energy": 67.14, 
			 "cosmo_dispersion_energy": -44.98, 
			 "cosmo_repulsion_energy": 3.3, 
			 "cosmo_total_nonelectrostatic_energy": 25.47, 
			 "SMD_solvation_energy": 10.72 
		},
		"coords": [
			{
				"x": -4.0234164303,
				"y": 2.5204675266,
				"z": -4.6067647804,
				"element": "C" 
			},
			{
				"x": -3.4446553325,
				"y": 1.6891043902,
				"z": -3.5395327951,
				"element": "N" 
			},
			{
				"x": -2.263540823,
				"y": 1.0136966835,
				"z": -3.9204414085,
				"element": "N" 
			},
			{
				"x": -1.2993101915,
				"y": 1.0867563501,
				"z": -2.8898022584,
				"element": "C" 
			},
			{
				"x": -0.2061077085,
				"y": 0.5368898708,
				"z": -2.9073171562,
				"element": "O" 
			},
			{
				"x": -1.9417417812,
				"y": 1.9191117654,
				"z": -1.871019645,
				"element": "C" 
			},
			{
				"x": -1.3400566607,
				"y": 2.296740414,
				"z": -0.6642375061,
				"element": "N" 
			},
			{
				"x": -0.6844046068,
				"y": 1.3781140204,
				"z": 0.0143207835,
				"element": "N" 
			},
			{
				"x": 0.0693878984,
				"y": 1.5974656132,
				"z": 1.0452254318,
				"element": "C" 
			},
			{
				"x": 0.7095849282,
				"y": 0.4659993309,
				"z": 1.7749471581,
				"element": "C" 
			},
			{
				"x": 1.2406653893,
				"y": 0.7156622788,
				"z": 2.8567419036,
				"element": "O" 
			},
			{
				"x": 0.7009783075,
				"y": -0.9120271896,
				"z": 1.1928019295,
				"element": "C" 
			},
			{
				"x": 0.6089248385,
				"y": -2.0665864655,
				"z": 2.0536322765,
				"element": "C" 
			},
			{
				"x": 0.4158694325,
				"y": -1.997602577,
				"z": 3.4623061438,
				"element": "C" 
			},
			{
				"x": 0.3025960773,
				"y": -3.1423830885,
				"z": 4.2214821382,
				"element": "C" 
			},
			{
				"x": 0.3802318102,
				"y": -4.4217580703,
				"z": 3.6250189297,
				"element": "C" 
			},
			{
				"x": 0.5624736746,
				"y": -4.5272101233,
				"z": 2.2661868241,
				"element": "C" 
			},
			{
				"x": 0.6758031012,
				"y": -3.3687710986,
				"z": 1.4508903868,
				"element": "C" 
			},
			{
				"x": 0.8513540237,
				"y": -3.4871568446,
				"z": 0.0463308526,
				"element": "C" 
			},
			{
				"x": 0.941265385,
				"y": -2.3704293495,
				"z": -0.7489882119,
				"element": "C" 
			},
			{
				"x": 0.8586988065,
				"y": -1.0838973549,
				"z": -0.175230349,
				"element": "C" 
			},
			{
				"x": 0.2832839933,
				"y": 3.2549320512,
				"z": 1.8121096759,
				"element": "S" 
			},
			{
				"x": -0.1676871754,
				"y": 4.2012075715,
				"z": 0.7478935211,
				"element": "O" 
			},
			{
				"x": -0.3687411647,
				"y": 3.3081316691,
				"z": 3.1258926487,
				"element": "O" 
			},
			{
				"x": 2.0461712372,
				"y": 3.5449180242,
				"z": 2.0096006809,
				"element": "C" 
			},
			{
				"x": 2.6453543127,
				"y": 3.311352799,
				"z": 3.2482305153,
				"element": "C" 
			},
			{
				"x": 4.0034291462,
				"y": 3.5895153913,
				"z": 3.3963746072,
				"element": "C" 
			},
			{
				"x": 4.7417676353,
				"y": 4.0851921847,
				"z": 2.3183758709,
				"element": "C" 
			},
			{
				"x": 4.1261689066,
				"y": 4.3158422597,
				"z": 1.0859463487,
				"element": "C" 
			},
			{
				"x": 2.7662106476,
				"y": 4.0503341914,
				"z": 0.9248944026,
				"element": "C" 
			},
			{
				"x": -3.1822830324,
				"y": 2.2767645467,
				"z": -2.3056048135,
				"element": "C" 
			},
			{
				"x": -4.1813090486,
				"y": 3.1683998504,
				"z": -1.6451941786,
				"element": "C" 
			},
			{
				"x": -2.3374788424,
				"y": -0.0301558813,
				"z": -4.8811567713,
				"element": "C" 
			},
			{
				"x": -1.1790124779,
				"y": -0.3883441298,
				"z": -5.5838936585,
				"element": "C" 
			},
			{
				"x": -1.2400415486,
				"y": -1.4155055237,
				"z": -6.5239829862,
				"element": "C" 
			},
			{
				"x": -2.4436560395,
				"y": -2.0733520274,
				"z": -6.7868243305,
				"element": "C" 
			},
			{
				"x": -3.593448802,
				"y": -1.7080908628,
				"z": -6.0854320815,
				"element": "C" 
			},
			{
				"x": -3.5455084042,
				"y": -0.6970694714,
				"z": -5.1258083086,
				"element": "C" 
			},
			{
				"x": -4.2422037269,
				"y": 1.8900257883,
				"z": -5.4688751037,
				"element": "H" 
			},
			{
				"x": -4.9593899138,
				"y": 2.9464944784,
				"z": -4.2429371299,
				"element": "H" 
			},
			{
				"x": -3.3411795922,
				"y": 3.3252013057,
				"z": -4.9088916887,
				"element": "H" 
			},
			{
				"x": -1.1789606792,
				"y": 3.2792747855,
				"z": -0.4169222991,
				"element": "H" 
			},
			{
				"x": 0.3718995195,
				"y": -1.0289171212,
				"z": 3.9407361782,
				"element": "H" 
			},
			{
				"x": 0.1539916049,
				"y": -3.0587315209,
				"z": 5.2944371843,
				"element": "H" 
			},
			{
				"x": 0.2932520247,
				"y": -5.3137488012,
				"z": 4.2388148696,
				"element": "H" 
			},
			{
				"x": 0.6181066073,
				"y": -5.5025980622,
				"z": 1.7892103312,
				"element": "H" 
			},
			{
				"x": 0.9091569685,
				"y": -4.4824320718,
				"z": -0.3878568035,
				"element": "H" 
			},
			{
				"x": 1.0670474009,
				"y": -2.4595740235,
				"z": -1.8233613814,
				"element": "H" 
			},
			{
				"x": 0.9145938487,
				"y": -0.2282432096,
				"z": -0.8350011672,
				"element": "H" 
			},
			{
				"x": 2.0531246611,
				"y": 2.9157793952,
				"z": 4.063654968,
				"element": "H" 
			},
			{
				"x": 4.4857356237,
				"y": 3.4158549775,
				"z": 4.3534114965,
				"element": "H" 
			},
			{
				"x": 5.8004418526,
				"y": 4.2954686672,
				"z": 2.4403868043,
				"element": "H" 
			},
			{
				"x": 4.700890802,
				"y": 4.7087700827,
				"z": 0.2527598467,
				"element": "H" 
			},
			{
				"x": 2.2638282343,
				"y": 4.2470512669,
				"z": -0.0155975067,
				"element": "H" 
			},
			{
				"x": -3.9223622764,
				"y": 3.2856935898,
				"z": -0.5905654918,
				"element": "H" 
			},
			{
				"x": -5.1880268772,
				"y": 2.7446471996,
				"z": -1.7096858467,
				"element": "H" 
			},
			{
				"x": -4.2057094994,
				"y": 4.167196779,
				"z": -2.0972017972,
				"element": "H" 
			},
			{
				"x": -0.2488937615,
				"y": 0.1233268944,
				"z": -5.3738833822,
				"element": "H" 
			},
			{
				"x": -0.3386974904,
				"y": -1.6951185518,
				"z": -7.0615137026,
				"element": "H" 
			},
			{
				"x": -2.4840656498,
				"y": -2.8650366956,
				"z": -7.5287014958,
				"element": "H" 
			},
			{
				"x": -4.5330352873,
				"y": -2.2200601173,
				"z": -6.2720542239,
				"element": "H" 
			},
			{
				"x": -4.4281638756,
				"y": -0.43578376,
				"z": -4.5524344486,
				"element": "H" 
			}
		],
		 "valence_orbital": [ 
			{
				"type": "occ",
				"energy": -0.23731,
				"method": "rhf"
			},
			{
				"type": "occ",
				"energy": -0.23533,
				"method": "rhf"
			},
			{
				"type": "occ",
				"energy": -0.2332,
				"method": "rhf"
			},
			{
				"type": "occ",
				"energy": -0.2178,
				"method": "rhf"
			},
			{
				"type": "occ",
				"energy": -0.2072,
				"method": "rhf"
			},
			{
				"type": "unocc",
				"energy": -0.06975,
				"method": "rhf"
			},
			{
				"type": "unocc",
				"energy": -0.04125,
				"method": "rhf"
			},
			{
				"type": "unocc",
				"energy": -0.03261,
				"method": "rhf"
			},
			{
				"type": "unocc",
				"energy": -0.02541,
				"method": "rhf"
			},
			{
				"type": "unocc",
				"energy": -0.01058,
				"method": "rhf"
			}
		],
		"cosmo_sigma_profile": { 
			"-0.025": 0.0,
			"-0.024": 0.0,
			"-0.023": 0.0,
			"-0.022": 0.0,
			"-0.021": 0.0,
			"-0.02": 0.0,
			"-0.019": 0.0,
			"-0.018": 0.0,
			"-0.017": 0.0,
			"-0.016": 0.0,
			"-0.015": 0.0,
			"-0.014": 0.0,
			"-0.013": 0.0,
			"-0.012": 0.0,
			"-0.011": 0.620502048935,
			"-0.01": 0.749690707646,
			"-0.009": 0.714581028305,
			"-0.008": 1.45850441535,
			"-0.007": 14.2458426357,
			"-0.006": 42.6682899093,
			"-0.005": 47.4784445372,
			"-0.004": 47.2487104635,
			"-0.003": 46.2725712902,
			"-0.002": 37.4110460776,
			"-0.001": 31.4883956389,
			"0.0": 31.2747616694,
			"0.001": 33.8064026706,
			"0.002": 35.6042830923,
			"0.003": 45.6836930297,
			"0.004": 33.6045639685,
			"0.005": 26.7229594112,
			"0.006": 9.9990215822,
			"0.007": 10.1786600312,
			"0.008": 8.44857915321,
			"0.009": 8.16973291461,
			"0.01": 9.09221306421,
			"0.011": 11.4641622936,
			"0.012": 4.12421845154,
			"0.013": 1.03005943412,
			"0.014": 0.0,
			"0.015": 0.0,
			"0.016": 0.0,
			"0.017": 0.0,
			"0.018": 0.0,
			"0.019": 0.0,
			"0.02": 0.0,
			"0.021": 0.0,
			"0.022": 0.0,
			"0.023": 0.0,
			"0.024": 0.0,
			"0.025": 0.0
		}
	}
}
