{
	 "smiles": "NC1=CC=C(O)C2=C1C(=O)C1=C(O)C=CC(N)=C1C2=O", 
	 "Tm": 573.15, 
	 "num_atms": 30, 
	 "gaussian": { 
		 "optdone": 1, 
		 "sigma_profile": "yes", 
		 "theory": "DFT", 
		 "functional": "B3LYP", 
		 "basiset": "6-31G**", 
		 "properties": { 
			 "R2extent": 5645.3232, 
			 "electric_dipole_moment_norm": 0.0003, 
			 "electric_quadrupole_moment_norm": 30.3311760334, 
			 "total_energy": -949.972688085, 
			 "HOMO_LUMO_gap": 0.0882, 
			 "cosmo_polarized_energy": -14.53, 
			 "cosmo_cavitation_energy": 32.46, 
			 "cosmo_dispersion_energy": -25.71, 
			 "cosmo_repulsion_energy": 1.87, 
			 "cosmo_total_nonelectrostatic_energy": 8.62, 
			 "SMD_solvation_energy": 5.83 
		},
		"coords": [
			{
				"x": 2.4915104129,
				"y": 0.4915757861,
				"z": 1.419924043,
				"element": "N" 
			},
			{
				"x": 1.3170855382,
				"y": 1.1498174765,
				"z": 1.2323603495,
				"element": "C" 
			},
			{
				"x": 1.2507065476,
				"y": 2.5402983804,
				"z": 1.530992033,
				"element": "C" 
			},
			{
				"x": 0.0996642688,
				"y": 3.2634525773,
				"z": 1.3487078106,
				"element": "C" 
			},
			{
				"x": -1.0745052632,
				"y": 2.6487555971,
				"z": 0.8521301323,
				"element": "C" 
			},
			{
				"x": -2.1562161166,
				"y": 3.4230066112,
				"z": 0.6992730276,
				"element": "O" 
			},
			{
				"x": -1.0531960466,
				"y": 1.2733673794,
				"z": 0.5475712919,
				"element": "C" 
			},
			{
				"x": 0.1469300933,
				"y": 0.5113285808,
				"z": 0.7377351159,
				"element": "C" 
			},
			{
				"x": 0.1470052449,
				"y": -0.9083794269,
				"z": 0.4259466028,
				"element": "C" 
			},
			{
				"x": 1.189047687,
				"y": -1.6172818937,
				"z": 0.5848004444,
				"element": "O" 
			},
			{
				"x": -1.0763549776,
				"y": -1.5348744307,
				"z": -0.0805681029,
				"element": "C" 
			},
			{
				"x": -1.055101809,
				"y": -2.9102902308,
				"z": -0.3850470692,
				"element": "C" 
			},
			{
				"x": 0.0265490673,
				"y": -3.6846068818,
				"z": -0.2321204695,
				"element": "O" 
			},
			{
				"x": -2.2292937499,
				"y": -3.5249711317,
				"z": -0.8815926952,
				"element": "C" 
			},
			{
				"x": -3.3803147154,
				"y": -2.8017941808,
				"z": -1.0639049673,
				"element": "C" 
			},
			{
				"x": -3.4466524182,
				"y": -1.4113007541,
				"z": -0.7653309244,
				"element": "C" 
			},
			{
				"x": -4.6210606742,
				"y": -0.7530371506,
				"z": -0.9529153831,
				"element": "N" 
			},
			{
				"x": -2.2764739978,
				"y": -0.7728195496,
				"z": -0.2707505986,
				"element": "C" 
			},
			{
				"x": -2.2765181344,
				"y": 0.6469073331,
				"z": 0.0409562584,
				"element": "C" 
			},
			{
				"x": -3.3185539867,
				"y": 1.3558337635,
				"z": -0.1178300488,
				"element": "O" 
			},
			{
				"x": 3.2729309568,
				"y": 0.9678911426,
				"z": 1.837358563,
				"element": "H" 
			},
			{
				"x": 2.5067524063,
				"y": -0.5054127076,
				"z": 1.2422350816,
				"element": "H" 
			},
			{
				"x": 2.1434817183,
				"y": 3.0310912356,
				"z": 1.9105620943,
				"element": "H" 
			},
			{
				"x": 0.0581508823,
				"y": 4.3231605556,
				"z": 1.5782271407,
				"element": "H" 
			},
			{
				"x": -2.8650840322,
				"y": 2.8129066326,
				"z": 0.3462542027,
				"element": "H" 
			},
			{
				"x": 0.7354165758,
				"y": -3.0745549964,
				"z": 0.1209870823,
				"element": "H" 
			},
			{
				"x": -2.1878196045,
				"y": -4.5846946455,
				"z": -1.1110473211,
				"element": "H" 
			},
			{
				"x": -4.2731081843,
				"y": -3.2925802624,
				"z": -1.4434407185,
				"element": "H" 
			},
			{
				"x": -4.6362756511,
				"y": 0.2439580797,
				"z": -0.7752624175,
				"element": "H" 
			},
			{
				"x": -5.4025020377,
				"y": -1.2293528891,
				"z": -1.370310558,
				"element": "H" 
			}
		],
		 "valence_orbital": [ 
			{
				"type": "occ",
				"energy": -0.27006,
				"method": "rhf"
			},
			{
				"type": "occ",
				"energy": -0.26138,
				"method": "rhf"
			},
			{
				"type": "occ",
				"energy": -0.2563,
				"method": "rhf"
			},
			{
				"type": "occ",
				"energy": -0.20737,
				"method": "rhf"
			},
			{
				"type": "occ",
				"energy": -0.18552,
				"method": "rhf"
			},
			{
				"type": "unocc",
				"energy": -0.09732,
				"method": "rhf"
			},
			{
				"type": "unocc",
				"energy": -0.0324,
				"method": "rhf"
			},
			{
				"type": "unocc",
				"energy": -0.01911,
				"method": "rhf"
			},
			{
				"type": "unocc",
				"energy": 0.02702,
				"method": "rhf"
			},
			{
				"type": "unocc",
				"energy": 0.06157,
				"method": "rhf"
			}
		],
		"cosmo_sigma_profile": { 
			"-0.025": 0.0,
			"-0.024": 0.0,
			"-0.023": 0.0,
			"-0.022": 0.0,
			"-0.021": 0.0,
			"-0.02": 0.0,
			"-0.019": 0.0,
			"-0.018": 0.0,
			"-0.017": 0.0,
			"-0.016": 0.0,
			"-0.015": 0.0565036986177,
			"-0.014": 2.62851326262,
			"-0.013": 2.71185255685,
			"-0.012": 3.36228859481,
			"-0.011": 2.3095210745,
			"-0.01": 3.23915179916,
			"-0.009": 3.92539045209,
			"-0.008": 6.49112635013,
			"-0.007": 9.01485817903,
			"-0.006": 9.63209423875,
			"-0.005": 10.3630354426,
			"-0.004": 7.52181565479,
			"-0.003": 8.55351029022,
			"-0.002": 9.46416828488,
			"-0.001": 15.3855373477,
			"0.0": 22.2536684908,
			"0.001": 31.0678706318,
			"0.002": 41.3286307709,
			"0.003": 20.4612118848,
			"0.004": 11.6726828294,
			"0.005": 8.40324934903,
			"0.006": 9.48926435188,
			"0.007": 6.04030021825,
			"0.008": 4.66302844259,
			"0.009": 2.42286005886,
			"0.01": 3.08014866474,
			"0.011": 4.06687919208,
			"0.012": 1.51147248817,
			"0.013": 0.0,
			"0.014": 0.0,
			"0.015": 0.0,
			"0.016": 0.0,
			"0.017": 0.0,
			"0.018": 0.0,
			"0.019": 0.0,
			"0.02": 0.0,
			"0.021": 0.0,
			"0.022": 0.0,
			"0.023": 0.0,
			"0.024": 0.0,
			"0.025": 0.0
		}
	}
}
