{
	 "smiles": "CC1=CNC(=O)N1C1=CC=CC=C1", 
	 "Tm": 484.15, 
	 "num_atms": 23, 
	 "gaussian": { 
		 "optdone": 1, 
		 "sigma_profile": "yes", 
		 "theory": "DFT", 
		 "functional": "B3LYP", 
		 "basiset": "6-31G**", 
		 "properties": { 
			 "R2extent": 2528.0172, 
			 "electric_dipole_moment_norm": 3.72798825374, 
			 "electric_quadrupole_moment_norm": 11.0769361608, 
			 "total_energy": -571.832045002, 
			 "HOMO_LUMO_gap": 0.18182, 
			 "cosmo_polarized_energy": -14.18, 
			 "cosmo_cavitation_energy": 26.64, 
			 "cosmo_dispersion_energy": -19.48, 
			 "cosmo_repulsion_energy": 1.54, 
			 "cosmo_total_nonelectrostatic_energy": 8.71, 
			 "SMD_solvation_energy": 5.68 
		},
		"coords": [
			{
				"x": 0.3400574056,
				"y": 3.4303339137,
				"z": -0.6383246824,
				"element": "C" 
			},
			{
				"x": -0.6188573954,
				"y": 2.4668179153,
				"z": -0.0220759719,
				"element": "C" 
			},
			{
				"x": -1.8099777864,
				"y": 2.7178707219,
				"z": 0.5677475951,
				"element": "C" 
			},
			{
				"x": -2.3041042995,
				"y": 1.5162599484,
				"z": 1.0744746999,
				"element": "N" 
			},
			{
				"x": -1.4249423539,
				"y": 0.4745020204,
				"z": 0.8381251639,
				"element": "C" 
			},
			{
				"x": -1.5378361941,
				"y": -0.6977058797,
				"z": 1.1668295543,
				"element": "O" 
			},
			{
				"x": -0.3703485828,
				"y": 1.082668843,
				"z": 0.126639128,
				"element": "N" 
			},
			{
				"x": 0.7476059797,
				"y": 0.3487793889,
				"z": -0.3567685972,
				"element": "C" 
			},
			{
				"x": 1.1686506519,
				"y": 0.4862769866,
				"z": -1.6850428117,
				"element": "C" 
			},
			{
				"x": 2.2767870265,
				"y": -0.2270646674,
				"z": -2.1426199328,
				"element": "C" 
			},
			{
				"x": 2.9525546883,
				"y": -1.1008539657,
				"z": -1.2900472803,
				"element": "C" 
			},
			{
				"x": 2.511996201,
				"y": -1.2581894554,
				"z": 0.0260324549,
				"element": "C" 
			},
			{
				"x": 1.4184373675,
				"y": -0.5349366165,
				"z": 0.4983126874,
				"element": "C" 
			},
			{
				"x": 1.3435574425,
				"y": 3.3252036179,
				"z": -0.2112338692,
				"element": "H" 
			},
			{
				"x": 0.4366618603,
				"y": 3.3098426432,
				"z": -1.7227013041,
				"element": "H" 
			},
			{
				"x": -0.0047809114,
				"y": 4.4498264641,
				"z": -0.4469168246,
				"element": "H" 
			},
			{
				"x": -2.3310334126,
				"y": 3.6541497425,
				"z": 0.6880281762,
				"element": "H" 
			},
			{
				"x": -3.1605777837,
				"y": 1.3756166369,
				"z": 1.5834748872,
				"element": "H" 
			},
			{
				"x": 0.6176525887,
				"y": 1.130938761,
				"z": -2.3610095328,
				"element": "H" 
			},
			{
				"x": 2.5995953484,
				"y": -0.1099711126,
				"z": -3.1730967582,
				"element": "H" 
			},
			{
				"x": 3.809648554,
				"y": -1.6619001708,
				"z": -1.6504453434,
				"element": "H" 
			},
			{
				"x": 3.0251780236,
				"y": -1.9443382889,
				"z": 0.6934872863,
				"element": "H" 
			},
			{
				"x": 1.0666755819,
				"y": -0.6596274467,
				"z": 1.5151312752,
				"element": "H" 
			}
		],
		 "valence_orbital": [ 
			{
				"type": "occ",
				"energy": -0.30426,
				"method": "rhf"
			},
			{
				"type": "occ",
				"energy": -0.2572,
				"method": "rhf"
			},
			{
				"type": "occ",
				"energy": -0.24675,
				"method": "rhf"
			},
			{
				"type": "occ",
				"energy": -0.24283,
				"method": "rhf"
			},
			{
				"type": "occ",
				"energy": -0.18906,
				"method": "rhf"
			},
			{
				"type": "unocc",
				"energy": -0.00724,
				"method": "rhf"
			},
			{
				"type": "unocc",
				"energy": -0.00124,
				"method": "rhf"
			},
			{
				"type": "unocc",
				"energy": 0.04452,
				"method": "rhf"
			},
			{
				"type": "unocc",
				"energy": 0.07618,
				"method": "rhf"
			},
			{
				"type": "unocc",
				"energy": 0.08104,
				"method": "rhf"
			}
		],
		"cosmo_sigma_profile": { 
			"-0.025": 0.0,
			"-0.024": 0.0,
			"-0.023": 0.0,
			"-0.022": 0.0,
			"-0.021": 0.0,
			"-0.02": 0.0,
			"-0.019": 0.0,
			"-0.018": 0.0,
			"-0.017": 0.0,
			"-0.016": 0.503658447797,
			"-0.015": 1.39943219214,
			"-0.014": 1.66177572628,
			"-0.013": 0.368569372167,
			"-0.012": 1.43395656483,
			"-0.011": 0.898549976267,
			"-0.01": 0.497665946372,
			"-0.009": 1.60033455001,
			"-0.008": 3.54470126541,
			"-0.007": 4.06985197661,
			"-0.006": 10.6754765844,
			"-0.005": 16.6580291518,
			"-0.004": 16.7438813057,
			"-0.003": 17.0950482312,
			"-0.002": 12.9812801604,
			"-0.001": 16.0806738063,
			"0.0": 14.8817962166,
			"0.001": 15.0214245467,
			"0.002": 13.3764410066,
			"0.003": 13.4450092194,
			"0.004": 13.0443696293,
			"0.005": 12.0550615479,
			"0.006": 4.05328500018,
			"0.007": 1.95923116966,
			"0.008": 1.13565171227,
			"0.009": 1.43286226596,
			"0.01": 1.5727139705,
			"0.011": 1.56699312511,
			"0.012": 1.54910381722,
			"0.013": 1.91818075955,
			"0.014": 5.20735294357,
			"0.015": 4.11650440428,
			"0.016": 0.0878957516086,
			"0.017": 0.0,
			"0.018": 0.0,
			"0.019": 0.0,
			"0.02": 0.0,
			"0.021": 0.0,
			"0.022": 0.0,
			"0.023": 0.0,
			"0.024": 0.0,
			"0.025": 0.0
		}
	}
}
