{
	 "smiles": "OC1=C(I)C=C(I)C2=CC=CN=C12", 
	 "Tm": 483.15, 
	 "num_atms": 18, 
	 "gaussian": { 
		 "optdone": 1, 
		 "sigma_profile": "no", 
		 "theory": "DFT", 
		 "functional": "B3LYP", 
		 "basiset": "6-31G**", 
		 "properties": { 
			 "R2extent": 2383.9796, 
			 "electric_dipole_moment_norm": 3.45410372311, 
			 "electric_quadrupole_moment_norm": 6.59032202324, 
			 "total_energy": -498.723129876, 
			 "HOMO_LUMO_gap": 0.14775, 
			 "cosmo_polarized_energy": -208576.43, 
			 "cosmo_cavitation_energy": 28.34, 
			 "cosmo_dispersion_energy": -24.08, 
			 "cosmo_repulsion_energy": 1.82, 
			 "cosmo_total_nonelectrostatic_energy": 6.08, 
			 "SMD_solvation_energy": 2.48 
		},
		"coords": [
			{
				"x": -1.9569879562,
				"y": 0.0706448073,
				"z": -1.9457333006,
				"element": "O" 
			},
			{
				"x": -1.3028868778,
				"y": -0.4202324497,
				"z": -0.8840263981,
				"element": "C" 
			},
			{
				"x": -1.616907383,
				"y": -1.6316030933,
				"z": -0.2976393082,
				"element": "C" 
			},
			{
				"x": -3.1889954777,
				"y": -2.8026436615,
				"z": -1.0683851353,
				"element": "I" 
			},
			{
				"x": -0.8881836447,
				"y": -2.097569812,
				"z": 0.8238353476,
				"element": "C" 
			},
			{
				"x": 0.1476198977,
				"y": -1.3610105152,
				"z": 1.3583478222,
				"element": "C" 
			},
			{
				"x": 1.1740699327,
				"y": -2.1539892911,
				"z": 3.041309476,
				"element": "I" 
			},
			{
				"x": 0.5157069127,
				"y": -0.105357712,
				"z": 0.7955925997,
				"element": "C" 
			},
			{
				"x": 1.5542722743,
				"y": 0.7499165578,
				"z": 1.2432910423,
				"element": "C" 
			},
			{
				"x": 1.7922882914,
				"y": 1.9403930288,
				"z": 0.5928470679,
				"element": "C" 
			},
			{
				"x": 0.9924676578,
				"y": 2.2934622703,
				"z": -0.5181571718,
				"element": "C" 
			},
			{
				"x": 0.0164487111,
				"y": 1.5288227186,
				"z": -0.9686043262,
				"element": "N" 
			},
			{
				"x": -0.2271090667,
				"y": 0.3525487108,
				"z": -0.3346750802,
				"element": "C" 
			},
			{
				"x": -1.5227620993,
				"y": 0.9283626684,
				"z": -2.1373599345,
				"element": "H" 
			},
			{
				"x": -1.1598472597,
				"y": -3.0510332151,
				"z": 1.259475833,
				"element": "H" 
			},
			{
				"x": 2.1537162806,
				"y": 0.4557759036,
				"z": 2.0982900392,
				"element": "H" 
			},
			{
				"x": 2.5826483887,
				"y": 2.606749004,
				"z": 0.9218873064,
				"element": "H" 
			},
			{
				"x": 1.1651414182,
				"y": 3.2296640804,
				"z": -1.0449958793,
				"element": "H" 
			}
		],
		 "valence_orbital": [ 
			{
				"type": "occ",
				"energy": -0.28278,
				"method": "rhf"
			},
			{
				"type": "occ",
				"energy": -0.27791,
				"method": "rhf"
			},
			{
				"type": "occ",
				"energy": -0.26743,
				"method": "rhf"
			},
			{
				"type": "occ",
				"energy": -0.25461,
				"method": "rhf"
			},
			{
				"type": "occ",
				"energy": -0.2214,
				"method": "rhf"
			},
			{
				"type": "unocc",
				"energy": -0.07365,
				"method": "rhf"
			},
			{
				"type": "unocc",
				"energy": -0.05652,
				"method": "rhf"
			},
			{
				"type": "unocc",
				"energy": -0.04168,
				"method": "rhf"
			},
			{
				"type": "unocc",
				"energy": -0.02683,
				"method": "rhf"
			},
			{
				"type": "unocc",
				"energy": 0.00507,
				"method": "rhf"
			}
		],
		"cosmo_sigma_profile": { 
			"0.0": 0.0,
			"0.0": 0.0,
			"0.0": 0.0,
			"0.0": 0.0,
			"0.0": 0.0,
			"0.0": 0.0,
			"0.0": 0.0,
			"0.0": 0.0,
			"0.0": 0.0,
			"0.0": 0.0,
			"0.0": 0.0,
			"0.0": 0.0,
			"0.0": 0.0,
			"0.0": 0.0,
			"0.0": 0.0,
			"0.0": 0.0,
			"0.0": 0.0,
			"0.0": 0.0,
			"0.0": 0.0,
			"0.0": 0.0,
			"0.0": 0.0,
			"0.0": 0.0,
			"0.0": 0.0,
			"0.0": 0.0,
			"0.0": 0.0,
			"0.0": 0.0,
			"0.0": 0.0,
			"0.0": 0.0,
			"0.0": 0.0,
			"0.0": 0.0,
			"0.0": 0.0,
			"0.0": 0.0,
			"0.0": 0.0,
			"0.0": 0.0,
			"0.0": 0.0,
			"0.0": 0.0,
			"0.0": 0.0,
			"0.0": 0.0,
			"0.0": 0.0,
			"0.0": 0.0,
			"0.0": 0.0,
			"0.0": 0.0,
			"0.0": 0.0,
			"0.0": 0.0,
			"0.0": 0.0,
			"0.0": 0.0,
			"0.0": 0.0,
			"0.0": 0.0,
			"0.0": 0.0,
			"0.0": 0.0,
			"0.0": 0.0
		}
	}
}
