{
	 "smiles": "O=C(CCN1CCOCC1)C1=CC2=C(C=CC=C2)C=C1", 
	 "Tm": 341.15, 
	 "num_atms": 39, 
	 "gaussian": { 
		 "optdone": 1, 
		 "sigma_profile": "yes", 
		 "theory": "DFT", 
		 "functional": "B3LYP", 
		 "basiset": "6-31G**", 
		 "properties": { 
			 "R2extent": 9809.3358, 
			 "electric_dipole_moment_norm": 3.2573434145, 
			 "electric_quadrupole_moment_norm": 8.23984049664, 
			 "total_energy": -864.448106808, 
			 "HOMO_LUMO_gap": 0.13198, 
			 "cosmo_polarized_energy": -13.09, 
			 "cosmo_cavitation_energy": 40.76, 
			 "cosmo_dispersion_energy": -29.72, 
			 "cosmo_repulsion_energy": 2.25, 
			 "cosmo_total_nonelectrostatic_energy": 13.29, 
			 "SMD_solvation_energy": 4.18 
		},
		"coords": [
			{
				"x": -0.0863499851,
				"y": -0.9129303726,
				"z": 1.9585527208,
				"element": "O" 
			},
			{
				"x": 0.140672797,
				"y": -0.9133429232,
				"z": 0.7556173592,
				"element": "C" 
			},
			{
				"x": 0.4111397599,
				"y": 0.3911309985,
				"z": 0.0161518757,
				"element": "C" 
			},
			{
				"x": 0.3344884914,
				"y": 1.6173619695,
				"z": 0.9319564939,
				"element": "C" 
			},
			{
				"x": 0.7312060278,
				"y": 2.8366187242,
				"z": 0.2183400872,
				"element": "N" 
			},
			{
				"x": 1.2965254415,
				"y": 3.8919119456,
				"z": 1.0685795598,
				"element": "C" 
			},
			{
				"x": 0.231460551,
				"y": 4.698050336,
				"z": 1.8197986441,
				"element": "C" 
			},
			{
				"x": -0.7136575886,
				"y": 5.2498366368,
				"z": 0.9071739866,
				"element": "O" 
			},
			{
				"x": -1.3480341312,
				"y": 4.2302257826,
				"z": 0.1419784669,
				"element": "C" 
			},
			{
				"x": -0.3139586326,
				"y": 3.4113370057,
				"z": -0.640757407,
				"element": "C" 
			},
			{
				"x": 0.1615959093,
				"y": -2.2022574904,
				"z": -0.0090156516,
				"element": "C" 
			},
			{
				"x": 0.4379009161,
				"y": -2.2674781338,
				"z": -1.3635307078,
				"element": "C" 
			},
			{
				"x": 0.4521657921,
				"y": -3.5070351182,
				"z": -2.0540516545,
				"element": "C" 
			},
			{
				"x": 0.1722043617,
				"y": -4.7096524061,
				"z": -1.3263263452,
				"element": "C" 
			},
			{
				"x": 0.1862298747,
				"y": -5.9480662852,
				"z": -2.0199173078,
				"element": "C" 
			},
			{
				"x": 0.4640382518,
				"y": -5.9974814252,
				"z": -3.368434352,
				"element": "C" 
			},
			{
				"x": 0.7413938032,
				"y": -4.8091335066,
				"z": -4.0881475483,
				"element": "C" 
			},
			{
				"x": 0.7353274833,
				"y": -3.5922423011,
				"z": -3.4445647531,
				"element": "C" 
			},
			{
				"x": -0.1088597691,
				"y": -4.6162892528,
				"z": 0.0660465572,
				"element": "C" 
			},
			{
				"x": -0.1136002507,
				"y": -3.4031273506,
				"z": 0.706186663,
				"element": "C" 
			},
			{
				"x": -0.2993956493,
				"y": 0.4738880794,
				"z": -0.8165260258,
				"element": "H" 
			},
			{
				"x": 1.4052794805,
				"y": 0.3498769605,
				"z": -0.4468103139,
				"element": "H" 
			},
			{
				"x": -0.6672367264,
				"y": 1.6673023515,
				"z": 1.3867955172,
				"element": "H" 
			},
			{
				"x": 1.0279404648,
				"y": 1.4661919278,
				"z": 1.7639567697,
				"element": "H" 
			},
			{
				"x": 2.0105091296,
				"y": 3.4468707244,
				"z": 1.7705247018,
				"element": "H" 
			},
			{
				"x": 1.8537789817,
				"y": 4.5824606754,
				"z": 0.420865562,
				"element": "H" 
			},
			{
				"x": -0.2835563084,
				"y": 4.0632907746,
				"z": 2.5610783715,
				"element": "H" 
			},
			{
				"x": 0.6797735939,
				"y": 5.5442236755,
				"z": 2.3507471081,
				"element": "H" 
			},
			{
				"x": -1.9408701465,
				"y": 3.5763983869,
				"z": 0.8040333476,
				"element": "H" 
			},
			{
				"x": -2.0404109016,
				"y": 4.7370421752,
				"z": -0.5382124387,
				"element": "H" 
			},
			{
				"x": 0.1717302587,
				"y": 4.0734490363,
				"z": -1.3698564422,
				"element": "H" 
			},
			{
				"x": -0.8095043083,
				"y": 2.6138127025,
				"z": -1.2053464903,
				"element": "H" 
			},
			{
				"x": 0.653988517,
				"y": -1.3662019104,
				"z": -1.9295506744,
				"element": "H" 
			},
			{
				"x": -0.0262118752,
				"y": -6.8597271795,
				"z": -1.467628799,
				"element": "H" 
			},
			{
				"x": 0.4717088936,
				"y": -6.9518698107,
				"z": -3.8869337219,
				"element": "H" 
			},
			{
				"x": 0.9590754961,
				"y": -4.8631163007,
				"z": -5.1507197513,
				"element": "H" 
			},
			{
				"x": 0.9478309704,
				"y": -2.6777884155,
				"z": -3.9926003877,
				"element": "H" 
			},
			{
				"x": -0.3206292866,
				"y": -5.5285952138,
				"z": 0.6178865123,
				"element": "H" 
			},
			{
				"x": -0.3249896874,
				"y": -3.3215454726,
				"z": 1.7666604676,
				"element": "H" 
			}
		],
		 "valence_orbital": [ 
			{
				"type": "occ",
				"energy": -0.26711,
				"method": "rhf"
			},
			{
				"type": "occ",
				"energy": -0.25111,
				"method": "rhf"
			},
			{
				"type": "occ",
				"energy": -0.24985,
				"method": "rhf"
			},
			{
				"type": "occ",
				"energy": -0.22584,
				"method": "rhf"
			},
			{
				"type": "occ",
				"energy": -0.19693,
				"method": "rhf"
			},
			{
				"type": "unocc",
				"energy": -0.06495,
				"method": "rhf"
			},
			{
				"type": "unocc",
				"energy": -0.03335,
				"method": "rhf"
			},
			{
				"type": "unocc",
				"energy": 0.0113,
				"method": "rhf"
			},
			{
				"type": "unocc",
				"energy": 0.03251,
				"method": "rhf"
			},
			{
				"type": "unocc",
				"energy": 0.07834,
				"method": "rhf"
			}
		],
		"cosmo_sigma_profile": { 
			"-0.025": 0.0,
			"-0.024": 0.0,
			"-0.023": 0.0,
			"-0.022": 0.0,
			"-0.021": 0.0,
			"-0.02": 0.0,
			"-0.019": 0.0,
			"-0.018": 0.0,
			"-0.017": 0.0,
			"-0.016": 0.0,
			"-0.015": 0.0,
			"-0.014": 0.0,
			"-0.013": 0.0,
			"-0.012": 0.0,
			"-0.011": 0.0,
			"-0.01": 0.0,
			"-0.009": 0.0,
			"-0.008": 0.00168196138445,
			"-0.007": 3.78399977956,
			"-0.006": 18.2770138651,
			"-0.005": 24.7945808415,
			"-0.004": 34.2559410962,
			"-0.003": 40.9118022914,
			"-0.002": 31.9140741498,
			"-0.001": 21.8558519528,
			"0.0": 17.5161788379,
			"0.001": 16.3530334907,
			"0.002": 19.5772853952,
			"0.003": 28.5373396721,
			"0.004": 20.4410105528,
			"0.005": 9.34640258084,
			"0.006": 4.23163918673,
			"0.007": 3.48339860086,
			"0.008": 3.0060313754,
			"0.009": 4.74713959108,
			"0.01": 4.2319137732,
			"0.011": 3.27372810069,
			"0.012": 6.0302475636,
			"0.013": 2.86076830175,
			"0.014": 1.65579924656,
			"0.015": 0.466160931258,
			"0.016": 0.0223901354776,
			"0.017": 0.0,
			"0.018": 0.0,
			"0.019": 0.0,
			"0.02": 0.0,
			"0.021": 0.0,
			"0.022": 0.0,
			"0.023": 0.0,
			"0.024": 0.0,
			"0.025": 0.0
		}
	}
}
