{
	 "smiles": "CC1=CC(C)=C(C)C(=C1C)S(=O)(=O)N1CCC(CC1)C(O)=O", 
	 "Tm": 381.15, 
	 "num_atms": 45, 
	 "gaussian": { 
		 "optdone": 1, 
		 "sigma_profile": "yes", 
		 "theory": "DFT", 
		 "functional": "B3LYP", 
		 "basiset": "6-31G**", 
		 "properties": { 
			 "R2extent": 8157.3571, 
			 "electric_dipole_moment_norm": 8.05846129233, 
			 "electric_quadrupole_moment_norm": 31.402971493, 
			 "total_energy": -1377.3561498, 
			 "HOMO_LUMO_gap": 0.20247, 
			 "cosmo_polarized_energy": -18.3, 
			 "cosmo_cavitation_energy": 43.82, 
			 "cosmo_dispersion_energy": -30.91, 
			 "cosmo_repulsion_energy": 2.27, 
			 "cosmo_total_nonelectrostatic_energy": 15.18, 
			 "SMD_solvation_energy": 7.29 
		},
		"coords": [
			{
				"x": -1.1079152813,
				"y": -3.0052942522,
				"z": -2.74973936,
				"element": "C" 
			},
			{
				"x": -1.3264821966,
				"y": -1.7479983627,
				"z": -1.9389830254,
				"element": "C" 
			},
			{
				"x": -2.5880235267,
				"y": -1.4927640586,
				"z": -1.405245633,
				"element": "C" 
			},
			{
				"x": -2.8884919654,
				"y": -0.3419256057,
				"z": -0.6782620556,
				"element": "C" 
			},
			{
				"x": -4.3065804343,
				"y": -0.1523449802,
				"z": -0.1821781157,
				"element": "C" 
			},
			{
				"x": -1.8704577579,
				"y": 0.6036631981,
				"z": -0.4230485613,
				"element": "C" 
			},
			{
				"x": -2.2463052409,
				"y": 1.8747125373,
				"z": 0.3144522241,
				"element": "C" 
			},
			{
				"x": -0.5703794382,
				"y": 0.3033838585,
				"z": -0.9039889166,
				"element": "C" 
			},
			{
				"x": -0.2842423179,
				"y": -0.828494871,
				"z": -1.7087692395,
				"element": "C" 
			},
			{
				"x": 1.0602381697,
				"y": -1.1161780754,
				"z": -2.3449477343,
				"element": "C" 
			},
			{
				"x": 0.8286215418,
				"y": 1.3925904664,
				"z": -0.4935361641,
				"element": "S" 
			},
			{
				"x": 0.417303227,
				"y": 2.3861151246,
				"z": 0.5262145044,
				"element": "O" 
			},
			{
				"x": 1.4689874354,
				"y": 1.9109527459,
				"z": -1.7095669491,
				"element": "O" 
			},
			{
				"x": 1.9226757996,
				"y": 0.2783334896,
				"z": 0.1901586514,
				"element": "N" 
			},
			{
				"x": 1.5393633465,
				"y": -0.2867183854,
				"z": 1.5008834494,
				"element": "C" 
			},
			{
				"x": 1.682532707,
				"y": 0.6939139441,
				"z": 2.6732925758,
				"element": "C" 
			},
			{
				"x": 3.0052239416,
				"y": 1.5147213985,
				"z": 2.656434059,
				"element": "C" 
			},
			{
				"x": 3.5356126805,
				"y": 1.8767712423,
				"z": 1.2398266597,
				"element": "C" 
			},
			{
				"x": 3.3205437787,
				"y": 0.7636714247,
				"z": 0.2098201192,
				"element": "C" 
			},
			{
				"x": 2.8181553151,
				"y": 2.79727021,
				"z": 3.4725204127,
				"element": "C" 
			},
			{
				"x": 1.879395428,
				"y": 3.657511116,
				"z": 3.0014522448,
				"element": "O" 
			},
			{
				"x": 3.4452133419,
				"y": 3.0618522293,
				"z": 4.4696366215,
				"element": "O" 
			},
			{
				"x": -0.9022989563,
				"y": -2.7813285421,
				"z": -3.8034428266,
				"element": "H" 
			},
			{
				"x": -0.2605737862,
				"y": -3.5915823926,
				"z": -2.3783777055,
				"element": "H" 
			},
			{
				"x": -1.9955264469,
				"y": -3.6421239509,
				"z": -2.716862926,
				"element": "H" 
			},
			{
				"x": -3.3806798502,
				"y": -2.2164270196,
				"z": -1.5804435089,
				"element": "H" 
			},
			{
				"x": -4.801646257,
				"y": 0.6987993432,
				"z": -0.6641471734,
				"element": "H" 
			},
			{
				"x": -4.9047127449,
				"y": -1.0413299168,
				"z": -0.3977787357,
				"element": "H" 
			},
			{
				"x": -4.3477174261,
				"y": 0.0206054366,
				"z": 0.8982712141,
				"element": "H" 
			},
			{
				"x": -1.7831913197,
				"y": 2.7577153932,
				"z": -0.1225122762,
				"element": "H" 
			},
			{
				"x": -3.3267614105,
				"y": 2.0131433777,
				"z": 0.293607287,
				"element": "H" 
			},
			{
				"x": -1.9329008082,
				"y": 1.8494011452,
				"z": 1.3627488677,
				"element": "H" 
			},
			{
				"x": 0.9100604429,
				"y": -1.5453691172,
				"z": -3.3390641198,
				"element": "H" 
			},
			{
				"x": 1.6273643125,
				"y": -1.8463814272,
				"z": -1.7563471852,
				"element": "H" 
			},
			{
				"x": 1.673121516,
				"y": -0.2266122095,
				"z": -2.4591338905,
				"element": "H" 
			},
			{
				"x": 2.1895763102,
				"y": -1.1590442394,
				"z": 1.6388941954,
				"element": "H" 
			},
			{
				"x": 0.5147412651,
				"y": -0.6644101538,
				"z": 1.4381353137,
				"element": "H" 
			},
			{
				"x": 1.6286295932,
				"y": 0.1360651012,
				"z": 3.6147372848,
				"element": "H" 
			},
			{
				"x": 0.8234589783,
				"y": 1.3656646341,
				"z": 2.6617750431,
				"element": "H" 
			},
			{
				"x": 3.7786752241,
				"y": 0.9416177939,
				"z": 3.1749645515,
				"element": "H" 
			},
			{
				"x": 4.6033511302,
				"y": 2.1106138893,
				"z": 1.3141522454,
				"element": "H" 
			},
			{
				"x": 3.0510164527,
				"y": 2.7834051947,
				"z": 0.8664822774,
				"element": "H" 
			},
			{
				"x": 3.9345906495,
				"y": -0.1155925577,
				"z": 0.4391545077,
				"element": "H" 
			},
			{
				"x": 3.5870595612,
				"y": 1.1036997222,
				"z": -0.7922474172,
				"element": "H" 
			},
			{
				"x": 1.4473750168,
				"y": 3.3204261012,
				"z": 2.1950092096,
				"element": "H" 
			}
		],
		 "valence_orbital": [ 
			{
				"type": "occ",
				"energy": -0.29802,
				"method": "rhf"
			},
			{
				"type": "occ",
				"energy": -0.27042,
				"method": "rhf"
			},
			{
				"type": "occ",
				"energy": -0.26186,
				"method": "rhf"
			},
			{
				"type": "occ",
				"energy": -0.24636,
				"method": "rhf"
			},
			{
				"type": "occ",
				"energy": -0.24455,
				"method": "rhf"
			},
			{
				"type": "unocc",
				"energy": -0.04208,
				"method": "rhf"
			},
			{
				"type": "unocc",
				"energy": -0.01875,
				"method": "rhf"
			},
			{
				"type": "unocc",
				"energy": 0.02011,
				"method": "rhf"
			},
			{
				"type": "unocc",
				"energy": 0.05159,
				"method": "rhf"
			},
			{
				"type": "unocc",
				"energy": 0.05391,
				"method": "rhf"
			}
		],
		"cosmo_sigma_profile": { 
			"-0.025": 0.0,
			"-0.024": 0.0,
			"-0.023": 0.0,
			"-0.022": 0.0,
			"-0.021": 0.0,
			"-0.02": 0.0,
			"-0.019": 0.0,
			"-0.018": 0.0,
			"-0.017": 0.0,
			"-0.016": 0.0,
			"-0.015": 0.0,
			"-0.014": 0.0,
			"-0.013": 0.0,
			"-0.012": 0.0,
			"-0.011": 0.0,
			"-0.01": 0.0,
			"-0.009": 0.0,
			"-0.008": 0.108977558722,
			"-0.007": 2.04268518036,
			"-0.006": 9.48120511891,
			"-0.005": 30.9958012534,
			"-0.004": 44.9810757749,
			"-0.003": 40.1362917662,
			"-0.002": 37.3416987348,
			"-0.001": 31.2497984883,
			"0.0": 34.1340047945,
			"0.001": 19.5839643876,
			"0.002": 15.4200589176,
			"0.003": 13.9303658195,
			"0.004": 10.9596941084,
			"0.005": 4.44114040856,
			"0.006": 4.87779248198,
			"0.007": 4.31673994042,
			"0.008": 4.62056157004,
			"0.009": 6.07202591296,
			"0.01": 7.74080324617,
			"0.011": 9.47581244078,
			"0.012": 7.82191387905,
			"0.013": 3.23205837225,
			"0.014": 0.269146066584,
			"0.015": 0.0,
			"0.016": 0.0,
			"0.017": 0.0,
			"0.018": 0.0,
			"0.019": 0.0,
			"0.02": 0.0,
			"0.021": 0.0,
			"0.022": 0.0,
			"0.023": 0.0,
			"0.024": 0.0,
			"0.025": 0.0
		}
	}
}
