{
	 "smiles": "CCCC1=NOC2=C1C(=CC(=N2)C1=CC=CO1)C(O)=O", 
	 "Tm": 478.15, 
	 "num_atms": 32, 
	 "gaussian": { 
		 "optdone": 1, 
		 "sigma_profile": "yes", 
		 "theory": "DFT", 
		 "functional": "B3LYP", 
		 "basiset": "6-31G**", 
		 "properties": { 
			 "R2extent": 6784.1219, 
			 "electric_dipole_moment_norm": 5.04546110281, 
			 "electric_quadrupole_moment_norm": 23.4299837108, 
			 "total_energy": -951.073377538, 
			 "HOMO_LUMO_gap": 0.13973, 
			 "cosmo_polarized_energy": -17.61, 
			 "cosmo_cavitation_energy": 37.13, 
			 "cosmo_dispersion_energy": -26.74, 
			 "cosmo_repulsion_energy": 2.03, 
			 "cosmo_total_nonelectrostatic_energy": 12.42, 
			 "SMD_solvation_energy": 6.39 
		},
		"coords": [
			{
				"x": -1.304102118,
				"y": 0.0694187674,
				"z": 5.4363966937,
				"element": "C" 
			},
			{
				"x": -1.4950782665,
				"y": -0.3774945334,
				"z": 3.9849981382,
				"element": "C" 
			},
			{
				"x": -0.1836490677,
				"y": -0.9024867022,
				"z": 3.3650200609,
				"element": "C" 
			},
			{
				"x": -0.3491401192,
				"y": -1.328010498,
				"z": 1.9337369441,
				"element": "C" 
			},
			{
				"x": -0.6399522537,
				"y": -2.5828323518,
				"z": 1.685374674,
				"element": "N" 
			},
			{
				"x": -0.7891382331,
				"y": -2.7374265802,
				"z": 0.2898426322,
				"element": "O" 
			},
			{
				"x": -0.5741043943,
				"y": -1.5391406164,
				"z": -0.2854233564,
				"element": "C" 
			},
			{
				"x": -0.2849664637,
				"y": -0.576858565,
				"z": 0.7019180613,
				"element": "C" 
			},
			{
				"x": 0.0140624371,
				"y": 0.7194825008,
				"z": 0.2368369832,
				"element": "C" 
			},
			{
				"x": -0.0448250671,
				"y": 0.9274090615,
				"z": -1.140283224,
				"element": "C" 
			},
			{
				"x": -0.3809190455,
				"y": -0.1321249983,
				"z": -2.0206589736,
				"element": "C" 
			},
			{
				"x": -0.6365284969,
				"y": -1.3814482477,
				"z": -1.5952572143,
				"element": "N" 
			},
			{
				"x": -0.460514637,
				"y": 0.0859034365,
				"z": -3.4538639869,
				"element": "C" 
			},
			{
				"x": -0.7641872308,
				"y": -0.74638103,
				"z": -4.5004591879,
				"element": "C" 
			},
			{
				"x": -0.679767233,
				"y": 0.0451395204,
				"z": -5.683893038,
				"element": "C" 
			},
			{
				"x": -0.3315726693,
				"y": 1.3010022155,
				"z": -5.2786865345,
				"element": "C" 
			},
			{
				"x": -0.1930025971,
				"y": 1.3461633688,
				"z": -3.9265752971,
				"element": "O" 
			},
			{
				"x": 0.3428019829,
				"y": 1.8571673386,
				"z": 1.1631808988,
				"element": "C" 
			},
			{
				"x": 1.2128906142,
				"y": 2.7771967992,
				"z": 0.6810921587,
				"element": "O" 
			},
			{
				"x": -0.1318344669,
				"y": 1.9855505498,
				"z": 2.2661914089,
				"element": "O" 
			},
			{
				"x": -0.5828358659,
				"y": 0.8912547946,
				"z": 5.5013949404,
				"element": "H" 
			},
			{
				"x": -0.9370598757,
				"y": -0.7511472748,
				"z": 6.063799517,
				"element": "H" 
			},
			{
				"x": -2.2476852213,
				"y": 0.4203705485,
				"z": 5.8661614354,
				"element": "H" 
			},
			{
				"x": -1.8570972283,
				"y": 0.4631113515,
				"z": 3.3857204511,
				"element": "H" 
			},
			{
				"x": -2.2507307261,
				"y": -1.1702703012,
				"z": 3.9288473656,
				"element": "H" 
			},
			{
				"x": 0.1661727727,
				"y": -1.7723709449,
				"z": 3.9310581296,
				"element": "H" 
			},
			{
				"x": 0.5842756893,
				"y": -0.1272713297,
				"z": 3.4301471428,
				"element": "H" 
			},
			{
				"x": 0.1211240225,
				"y": 1.9115026129,
				"z": -1.5639259823,
				"element": "H" 
			},
			{
				"x": -1.0152195153,
				"y": -1.7925480159,
				"z": -4.4135729249,
				"element": "H" 
			},
			{
				"x": -0.855144692,
				"y": -0.2751953318,
				"z": -6.7005627522,
				"element": "H" 
			},
			{
				"x": -0.1527537996,
				"y": 2.2281653752,
				"z": -5.8008569979,
				"element": "H" 
			},
			{
				"x": 1.5961817654,
				"y": 2.4696690802,
				"z": -0.1531981658,
				"element": "H" 
			}
		],
		 "valence_orbital": [ 
			{
				"type": "occ",
				"energy": -0.30004,
				"method": "rhf"
			},
			{
				"type": "occ",
				"energy": -0.2917,
				"method": "rhf"
			},
			{
				"type": "occ",
				"energy": -0.28652,
				"method": "rhf"
			},
			{
				"type": "occ",
				"energy": -0.27502,
				"method": "rhf"
			},
			{
				"type": "occ",
				"energy": -0.23164,
				"method": "rhf"
			},
			{
				"type": "unocc",
				"energy": -0.09191,
				"method": "rhf"
			},
			{
				"type": "unocc",
				"energy": -0.05072,
				"method": "rhf"
			},
			{
				"type": "unocc",
				"energy": 0.00298,
				"method": "rhf"
			},
			{
				"type": "unocc",
				"energy": 0.0178,
				"method": "rhf"
			},
			{
				"type": "unocc",
				"energy": 0.03093,
				"method": "rhf"
			}
		],
		"cosmo_sigma_profile": { 
			"-0.025": 0.0,
			"-0.024": 0.0,
			"-0.023": 0.0,
			"-0.022": 0.0,
			"-0.021": 0.0,
			"-0.02": 0.0,
			"-0.019": 0.709808422655,
			"-0.018": 1.0509655381,
			"-0.017": 1.37116912583,
			"-0.016": 0.915320904191,
			"-0.015": 0.767929250023,
			"-0.014": 1.02682484561,
			"-0.013": 1.36457912033,
			"-0.012": 1.25566467623,
			"-0.011": 0.802886253311,
			"-0.01": 2.26804030889,
			"-0.009": 3.16949411453,
			"-0.008": 5.12367802182,
			"-0.007": 7.45821136147,
			"-0.006": 7.175966096,
			"-0.005": 10.0323059134,
			"-0.004": 11.9104524083,
			"-0.003": 25.3422696123,
			"-0.002": 30.4717557471,
			"-0.001": 30.9226762763,
			"0.0": 28.7415239954,
			"0.001": 25.2150772169,
			"0.002": 18.7434056433,
			"0.003": 15.4938430168,
			"0.004": 12.74653601,
			"0.005": 6.98968504945,
			"0.006": 6.73917974977,
			"0.007": 10.1361702718,
			"0.008": 9.21608578242,
			"0.009": 7.2173046645,
			"0.01": 4.78180270596,
			"0.011": 4.24638848574,
			"0.012": 2.56901280065,
			"0.013": 0.985039908253,
			"0.014": 0.360320516577,
			"0.015": 0.0,
			"0.016": 0.0,
			"0.017": 0.0,
			"0.018": 0.0,
			"0.019": 0.0,
			"0.02": 0.0,
			"0.021": 0.0,
			"0.022": 0.0,
			"0.023": 0.0,
			"0.024": 0.0,
			"0.025": 0.0
		}
	}
}
