{
	 "smiles": "OC(=O)C1=CC=C(O)C=C1", 
	 "Tm": 489.15, 
	 "num_atms": 16, 
	 "gaussian": { 
		 "optdone": 1, 
		 "sigma_profile": "yes", 
		 "theory": "DFT", 
		 "functional": "B3LYP", 
		 "basiset": "6-31G**", 
		 "properties": { 
			 "R2extent": 2771.2109, 
			 "electric_dipole_moment_norm": 4.71907326919, 
			 "electric_quadrupole_moment_norm": 30.1100812988, 
			 "total_energy": -496.037076012, 
			 "HOMO_LUMO_gap": 0.20084, 
			 "cosmo_polarized_energy": -18.03, 
			 "cosmo_cavitation_energy": 20.75, 
			 "cosmo_dispersion_energy": -15.61, 
			 "cosmo_repulsion_energy": 1.26, 
			 "cosmo_total_nonelectrostatic_energy": 6.4, 
			 "SMD_solvation_energy": 5.17 
		},
		"coords": [
			{
				"x": -4.8003413784,
				"y": 0.6166061528,
				"z": -0.380751871,
				"element": "O" 
			},
			{
				"x": -4.1816695391,
				"y": 0.0944355941,
				"z": 0.7151382202,
				"element": "C" 
			},
			{
				"x": -4.8371203382,
				"y": -0.2015823941,
				"z": 1.6879042538,
				"element": "O" 
			},
			{
				"x": -2.7004346274,
				"y": -0.0824718315,
				"z": 0.6354527865,
				"element": "C" 
			},
			{
				"x": -2.095822957,
				"y": -0.9334850534,
				"z": 1.5712992118,
				"element": "C" 
			},
			{
				"x": -0.7230070771,
				"y": -1.1440837068,
				"z": 1.5606217563,
				"element": "C" 
			},
			{
				"x": 0.0767815144,
				"y": -0.4865886453,
				"z": 0.6152002881,
				"element": "C" 
			},
			{
				"x": 1.4252847022,
				"y": -0.6480514198,
				"z": 0.5526660861,
				"element": "O" 
			},
			{
				"x": -0.5092444065,
				"y": 0.3849569804,
				"z": -0.3119490875,
				"element": "C" 
			},
			{
				"x": -1.8847216404,
				"y": 0.5804575734,
				"z": -0.2962722498,
				"element": "C" 
			},
			{
				"x": -4.1896852514,
				"y": 0.6388447499,
				"z": -1.1299372225,
				"element": "H" 
			},
			{
				"x": -2.7276759556,
				"y": -1.4248015946,
				"z": 2.3032550356,
				"element": "H" 
			},
			{
				"x": -0.2671149427,
				"y": -1.8148551825,
				"z": 2.2856591501,
				"element": "H" 
			},
			{
				"x": 1.7097030465,
				"y": -1.2590802227,
				"z": 1.2452941963,
				"element": "H" 
			},
			{
				"x": 0.1275820282,
				"y": 0.9014800651,
				"z": -1.021785008,
				"element": "H" 
			},
			{
				"x": -2.3092131773,
				"y": 1.2921189351,
				"z": -1.000695546,
				"element": "H" 
			}
		],
		 "valence_orbital": [ 
			{
				"type": "occ",
				"energy": -0.35299,
				"method": "rhf"
			},
			{
				"type": "occ",
				"energy": -0.31023,
				"method": "rhf"
			},
			{
				"type": "occ",
				"energy": -0.27468,
				"method": "rhf"
			},
			{
				"type": "occ",
				"energy": -0.2693,
				"method": "rhf"
			},
			{
				"type": "occ",
				"energy": -0.2423,
				"method": "rhf"
			},
			{
				"type": "unocc",
				"energy": -0.04146,
				"method": "rhf"
			},
			{
				"type": "unocc",
				"energy": -0.02378,
				"method": "rhf"
			},
			{
				"type": "unocc",
				"energy": 0.05311,
				"method": "rhf"
			},
			{
				"type": "unocc",
				"energy": 0.05542,
				"method": "rhf"
			},
			{
				"type": "unocc",
				"energy": 0.06488,
				"method": "rhf"
			}
		],
		"cosmo_sigma_profile": { 
			"-0.025": 0.0,
			"-0.024": 0.0,
			"-0.023": 0.0,
			"-0.022": 0.0,
			"-0.021": 0.0,
			"-0.02": 0.0,
			"-0.019": 0.267647715385,
			"-0.018": 1.76394117509,
			"-0.017": 2.48259046622,
			"-0.016": 1.9982927262,
			"-0.015": 1.58966851778,
			"-0.014": 1.78537192703,
			"-0.013": 1.92143146533,
			"-0.012": 2.3942378502,
			"-0.011": 2.26727615132,
			"-0.01": 2.13610680197,
			"-0.009": 2.47096371305,
			"-0.008": 3.24165449002,
			"-0.007": 5.15615684347,
			"-0.006": 7.47862605207,
			"-0.005": 7.73928514865,
			"-0.004": 6.52292243611,
			"-0.003": 5.78471474594,
			"-0.002": 6.57555657626,
			"-0.001": 7.64200264389,
			"0.0": 8.64516718975,
			"0.001": 8.05203221833,
			"0.002": 13.1982415214,
			"0.003": 16.5834953321,
			"0.004": 8.39277713828,
			"0.005": 3.78754096081,
			"0.006": 3.46377511328,
			"0.007": 3.41342290447,
			"0.008": 3.89429923987,
			"0.009": 4.99013297774,
			"0.01": 5.76729382995,
			"0.011": 5.78438885987,
			"0.012": 5.79409046313,
			"0.013": 2.47922065414,
			"0.014": 0.475981972865,
			"0.015": 0.0,
			"0.016": 0.0,
			"0.017": 0.0,
			"0.018": 0.0,
			"0.019": 0.0,
			"0.02": 0.0,
			"0.021": 0.0,
			"0.022": 0.0,
			"0.023": 0.0,
			"0.024": 0.0,
			"0.025": 0.0
		}
	}
}
