{
	 "smiles": "NC(=O)CN1C=C(C=N1)[N+]([O-])=O", 
	 "Tm": 441.15, 
	 "num_atms": 18, 
	 "gaussian": { 
		 "optdone": 1, 
		 "sigma_profile": "yes", 
		 "theory": "DFT", 
		 "functional": "B3LYP", 
		 "basiset": "6-31G**", 
		 "properties": { 
			 "R2extent": 2932.8688, 
			 "electric_dipole_moment_norm": 3.02757491897, 
			 "electric_quadrupole_moment_norm": 24.3305360377, 
			 "total_energy": -638.711287222, 
			 "HOMO_LUMO_gap": 0.17718, 
			 "cosmo_polarized_energy": -18.22, 
			 "cosmo_cavitation_energy": 24.05, 
			 "cosmo_dispersion_energy": -17.49, 
			 "cosmo_repulsion_energy": 1.42, 
			 "cosmo_total_nonelectrostatic_energy": 7.98, 
			 "SMD_solvation_energy": 7.21 
		},
		"coords": [
			{
				"x": 0.2146859332,
				"y": -1.8262652555,
				"z": -0.7913327191,
				"element": "N" 
			},
			{
				"x": -1.0994000782,
				"y": -1.7257370158,
				"z": -0.4777521976,
				"element": "C" 
			},
			{
				"x": -2.0099162156,
				"y": -2.2571707681,
				"z": -1.0929465976,
				"element": "O" 
			},
			{
				"x": -1.4244044369,
				"y": -0.9118696792,
				"z": 0.7933932537,
				"element": "C" 
			},
			{
				"x": -0.553674038,
				"y": 0.2263257922,
				"z": 1.0626365373,
				"element": "N" 
			},
			{
				"x": -0.865171315,
				"y": 1.5357491782,
				"z": 0.9961993248,
				"element": "C" 
			},
			{
				"x": 0.29819826,
				"y": 2.2124048861,
				"z": 1.3285997416,
				"element": "C" 
			},
			{
				"x": 1.2707092528,
				"y": 1.2237366253,
				"z": 1.5768746724,
				"element": "C" 
			},
			{
				"x": 0.747197918,
				"y": 0.0140558483,
				"z": 1.416084344,
				"element": "N" 
			},
			{
				"x": 0.4573797519,
				"y": 3.6324571786,
				"z": 1.4036382607,
				"element": "N" 
			},
			{
				"x": -0.5297421981,
				"y": 4.3270051972,
				"z": 1.1491089913,
				"element": "O" 
			},
			{
				"x": 1.571066226,
				"y": 4.0571430797,
				"z": 1.7170667913,
				"element": "O" 
			},
			{
				"x": 0.9270082553,
				"y": -1.4368201635,
				"z": -0.1873885433,
				"element": "H" 
			},
			{
				"x": 0.4694053399,
				"y": -2.4058259132,
				"z": -1.5768180138,
				"element": "H" 
			},
			{
				"x": -2.4457815364,
				"y": -0.5485273182,
				"z": 0.6857151068,
				"element": "H" 
			},
			{
				"x": -1.3836147855,
				"y": -1.585397401,
				"z": 1.6553757383,
				"element": "H" 
			},
			{
				"x": -1.8455263162,
				"y": 1.9035567906,
				"z": 0.7366891849,
				"element": "H" 
			},
			{
				"x": 2.3033799829,
				"y": 1.3583789382,
				"z": 1.8623561243,
				"element": "H" 
			}
		],
		 "valence_orbital": [ 
			{
				"type": "occ",
				"energy": -0.30719,
				"method": "rhf"
			},
			{
				"type": "occ",
				"energy": -0.29661,
				"method": "rhf"
			},
			{
				"type": "occ",
				"energy": -0.29508,
				"method": "rhf"
			},
			{
				"type": "occ",
				"energy": -0.2845,
				"method": "rhf"
			},
			{
				"type": "occ",
				"energy": -0.26395,
				"method": "rhf"
			},
			{
				"type": "unocc",
				"energy": -0.08677,
				"method": "rhf"
			},
			{
				"type": "unocc",
				"energy": -0.02803,
				"method": "rhf"
			},
			{
				"type": "unocc",
				"energy": 0.00731,
				"method": "rhf"
			},
			{
				"type": "unocc",
				"energy": 0.0571,
				"method": "rhf"
			},
			{
				"type": "unocc",
				"energy": 0.06568,
				"method": "rhf"
			}
		],
		"cosmo_sigma_profile": { 
			"-0.025": 0.0,
			"-0.024": 0.0,
			"-0.023": 0.0,
			"-0.022": 0.0,
			"-0.021": 0.0,
			"-0.02": 0.0,
			"-0.019": 0.0,
			"-0.018": 0.0,
			"-0.017": 0.0,
			"-0.016": 0.0,
			"-0.015": 0.277835042757,
			"-0.014": 1.18652059265,
			"-0.013": 1.19296636797,
			"-0.012": 3.96410494202,
			"-0.011": 3.3187785243,
			"-0.01": 5.09182237531,
			"-0.009": 7.90272029536,
			"-0.008": 7.2963736373,
			"-0.007": 7.75330066643,
			"-0.006": 8.13615080359,
			"-0.005": 10.2203003037,
			"-0.004": 8.40968952848,
			"-0.003": 11.1631720749,
			"-0.002": 13.9841060018,
			"-0.001": 12.2071520261,
			"0.0": 9.10113148964,
			"0.001": 7.10223781953,
			"0.002": 6.2534098901,
			"0.003": 5.88703300122,
			"0.004": 4.72949059072,
			"0.005": 5.8357066899,
			"0.006": 4.68068365917,
			"0.007": 8.5049292913,
			"0.008": 12.4772983668,
			"0.009": 6.66320419342,
			"0.01": 5.09168226667,
			"0.011": 2.34985048419,
			"0.012": 2.63817514843,
			"0.013": 6.15000646882,
			"0.014": 2.70439372813,
			"0.015": 0.0584331694428,
			"0.016": 0.0,
			"0.017": 0.0,
			"0.018": 0.0,
			"0.019": 0.0,
			"0.02": 0.0,
			"0.021": 0.0,
			"0.022": 0.0,
			"0.023": 0.0,
			"0.024": 0.0,
			"0.025": 0.0
		}
	}
}
