{
	 "smiles": "CC(=O)NC1=NC(O)=C2N=CNC2=N1", 
	 "Tm": 533.15, 
	 "num_atms": 21, 
	 "gaussian": { 
		 "optdone": 1, 
		 "sigma_profile": "yes", 
		 "theory": "DFT", 
		 "functional": "B3LYP", 
		 "basiset": "6-31G**", 
		 "properties": { 
			 "R2extent": 3144.0915, 
			 "electric_dipole_moment_norm": 6.44376592452, 
			 "electric_quadrupole_moment_norm": 15.4639649065, 
			 "total_energy": -695.206816499, 
			 "HOMO_LUMO_gap": 0.19132, 
			 "cosmo_polarized_energy": -20.46, 
			 "cosmo_cavitation_energy": 26.37, 
			 "cosmo_dispersion_energy": -19.91, 
			 "cosmo_repulsion_energy": 1.57, 
			 "cosmo_total_nonelectrostatic_energy": 8.03, 
			 "SMD_solvation_energy": 2.18 
		},
		"coords": [
			{
				"x": -1.7774797659,
				"y": -2.5319841886,
				"z": 1.6620016741,
				"element": "C" 
			},
			{
				"x": -0.9988200061,
				"y": -2.8102209781,
				"z": 0.3982868117,
				"element": "C" 
			},
			{
				"x": -0.8775728128,
				"y": -3.9316591286,
				"z": -0.0674338533,
				"element": "O" 
			},
			{
				"x": -0.385492462,
				"y": -1.7526009773,
				"z": -0.2790394815,
				"element": "N" 
			},
			{
				"x": -0.3081576811,
				"y": -0.3849909773,
				"z": -0.0569545753,
				"element": "C" 
			},
			{
				"x": 0.4160252372,
				"y": 0.2535141659,
				"z": -1.0088521473,
				"element": "N" 
			},
			{
				"x": 0.56374587,
				"y": 1.5645621372,
				"z": -0.9088219451,
				"element": "C" 
			},
			{
				"x": 1.2825467355,
				"y": 2.1815856513,
				"z": -1.8578412215,
				"element": "O" 
			},
			{
				"x": -0.0220088537,
				"y": 2.2597041906,
				"z": 0.1630078058,
				"element": "C" 
			},
			{
				"x": -0.0386286596,
				"y": 3.5961217168,
				"z": 0.521464049,
				"element": "N" 
			},
			{
				"x": -0.7511333305,
				"y": 3.617434022,
				"z": 1.6199274747,
				"element": "C" 
			},
			{
				"x": -1.2047131315,
				"y": 2.3660289109,
				"z": 2.0040407732,
				"element": "N" 
			},
			{
				"x": -0.7399479557,
				"y": 1.4708641658,
				"z": 1.0679584325,
				"element": "C" 
			},
			{
				"x": -0.9165684096,
				"y": 0.1486631754,
				"z": 1.0094576917,
				"element": "N" 
			},
			{
				"x": -2.594812644,
				"y": -1.8317243895,
				"z": 1.4738110696,
				"element": "H" 
			},
			{
				"x": -1.1428143951,
				"y": -2.0674148887,
				"z": 2.4204082984,
				"element": "H" 
			},
			{
				"x": -2.1653656218,
				"y": -3.4858875358,
				"z": 2.019447345,
				"element": "H" 
			},
			{
				"x": 0.1080320274,
				"y": -2.0533234029,
				"z": -1.1111290939,
				"element": "H" 
			},
			{
				"x": 1.2991908732,
				"y": 3.1288381144,
				"z": -1.6473686451,
				"element": "H" 
			},
			{
				"x": -0.9840762733,
				"y": 4.5017635416,
				"z": 2.1976272731,
				"element": "H" 
			},
			{
				"x": -1.7672487407,
				"y": 2.1423266752,
				"z": 2.8114022642,
				"element": "H" 
			}
		],
		 "valence_orbital": [ 
			{
				"type": "occ",
				"energy": -0.30008,
				"method": "rhf"
			},
			{
				"type": "occ",
				"energy": -0.27788,
				"method": "rhf"
			},
			{
				"type": "occ",
				"energy": -0.2689,
				"method": "rhf"
			},
			{
				"type": "occ",
				"energy": -0.25478,
				"method": "rhf"
			},
			{
				"type": "occ",
				"energy": -0.22924,
				"method": "rhf"
			},
			{
				"type": "unocc",
				"energy": -0.03792,
				"method": "rhf"
			},
			{
				"type": "unocc",
				"energy": -0.01353,
				"method": "rhf"
			},
			{
				"type": "unocc",
				"energy": 0.01849,
				"method": "rhf"
			},
			{
				"type": "unocc",
				"energy": 0.04671,
				"method": "rhf"
			},
			{
				"type": "unocc",
				"energy": 0.0606,
				"method": "rhf"
			}
		],
		"cosmo_sigma_profile": { 
			"-0.025": 0.0,
			"-0.024": 0.0,
			"-0.023": 0.0,
			"-0.022": 0.0,
			"-0.021": 0.0,
			"-0.02": 0.0,
			"-0.019": 0.0,
			"-0.018": 0.359570638958,
			"-0.017": 2.4537349264,
			"-0.016": 2.16496840161,
			"-0.015": 2.02991414589,
			"-0.014": 1.16319181738,
			"-0.013": 2.86244335873,
			"-0.012": 2.89186690934,
			"-0.011": 3.33238807087,
			"-0.01": 4.54041195949,
			"-0.009": 3.70468793002,
			"-0.008": 4.29065784859,
			"-0.007": 3.22498963902,
			"-0.006": 4.12486496287,
			"-0.005": 7.76397093258,
			"-0.004": 9.40314296664,
			"-0.003": 13.1979338486,
			"-0.002": 15.9200701974,
			"-0.001": 24.2060496157,
			"0.0": 17.9878972018,
			"0.001": 10.0840822255,
			"0.002": 8.23860578138,
			"0.003": 6.61011110047,
			"0.004": 7.00568545319,
			"0.005": 6.12835193733,
			"0.006": 6.48555240313,
			"0.007": 5.75284922029,
			"0.008": 4.62174394409,
			"0.009": 3.92971752164,
			"0.01": 6.97596528693,
			"0.011": 5.10400460339,
			"0.012": 6.21958840229,
			"0.013": 6.10489387754,
			"0.014": 2.11210407288,
			"0.015": 0.192061239113,
			"0.016": 0.0,
			"0.017": 0.0,
			"0.018": 0.0,
			"0.019": 0.0,
			"0.02": 0.0,
			"0.021": 0.0,
			"0.022": 0.0,
			"0.023": 0.0,
			"0.024": 0.0,
			"0.025": 0.0
		}
	}
}
