{
	 "smiles": "C(C1CCN(CC1)C1=C2C=CSC2=NC=N1)C1=CC=CC=C1", 
	 "Tm": 398.15, 
	 "num_atms": 41, 
	 "gaussian": { 
		 "optdone": 1, 
		 "sigma_profile": "yes", 
		 "theory": "DFT", 
		 "functional": "B3LYP", 
		 "basiset": "6-31G**", 
		 "properties": { 
			 "R2extent": 9877.7899, 
			 "electric_dipole_moment_norm": 4.71284519054, 
			 "electric_quadrupole_moment_norm": 15.0108065216, 
			 "total_energy": -1259.8134392, 
			 "HOMO_LUMO_gap": 0.17654, 
			 "cosmo_polarized_energy": -12.18, 
			 "cosmo_cavitation_energy": 43.42, 
			 "cosmo_dispersion_energy": -31.08, 
			 "cosmo_repulsion_energy": 2.28, 
			 "cosmo_total_nonelectrostatic_energy": 14.62, 
			 "SMD_solvation_energy": 3.65 
		},
		"coords": [
			{
				"x": 0.3205672888,
				"y": -1.5886949186,
				"z": -1.760145723,
				"element": "C" 
			},
			{
				"x": 1.106290976,
				"y": -1.4250015231,
				"z": -0.4321415554,
				"element": "C" 
			},
			{
				"x": 1.8788932147,
				"y": -0.0715164495,
				"z": -0.3945726723,
				"element": "C" 
			},
			{
				"x": 1.1925934142,
				"y": 0.9434959604,
				"z": 0.5341782435,
				"element": "C" 
			},
			{
				"x": -0.260906944,
				"y": 0.8530307913,
				"z": 0.4108615337,
				"element": "N" 
			},
			{
				"x": -0.8249848732,
				"y": -0.4059106689,
				"z": 0.9251004617,
				"element": "C" 
			},
			{
				"x": 0.2111351738,
				"y": -1.541262936,
				"z": 0.8177221202,
				"element": "C" 
			},
			{
				"x": -1.0942468745,
				"y": 1.9246088006,
				"z": 0.2254339352,
				"element": "C" 
			},
			{
				"x": -0.7309887595,
				"y": 3.1304383248,
				"z": -0.4594821421,
				"element": "C" 
			},
			{
				"x": 0.4299957638,
				"y": 3.55071015,
				"z": -1.2045386017,
				"element": "C" 
			},
			{
				"x": 0.3102725674,
				"y": 4.8098204483,
				"z": -1.7053930352,
				"element": "C" 
			},
			{
				"x": -1.2176809066,
				"y": 5.5635497483,
				"z": -1.3242183345,
				"element": "S" 
			},
			{
				"x": -1.7379566155,
				"y": 4.1198192209,
				"z": -0.4687034048,
				"element": "C" 
			},
			{
				"x": -2.9680057121,
				"y": 4.0063966317,
				"z": 0.0461247118,
				"element": "N" 
			},
			{
				"x": -3.2003652483,
				"y": 2.8077374768,
				"z": 0.5742853797,
				"element": "C" 
			},
			{
				"x": -2.3487678171,
				"y": 1.7828548935,
				"z": 0.6922512267,
				"element": "N" 
			},
			{
				"x": -0.3673255939,
				"y": -2.9291978224,
				"z": -1.9162228241,
				"element": "C" 
			},
			{
				"x": 0.3823984223,
				"y": -4.0916391794,
				"z": -2.1537079563,
				"element": "C" 
			},
			{
				"x": -0.2383368979,
				"y": -5.3335315204,
				"z": -2.2847857881,
				"element": "C" 
			},
			{
				"x": -1.6277909962,
				"y": -5.4374082356,
				"z": -2.1828530919,
				"element": "C" 
			},
			{
				"x": -2.3872811368,
				"y": -4.2901285377,
				"z": -1.952482409,
				"element": "C" 
			},
			{
				"x": -1.7602734169,
				"y": -3.0488434824,
				"z": -1.8214691485,
				"element": "C" 
			},
			{
				"x": 1.0327223051,
				"y": -1.4515520249,
				"z": -2.5845201005,
				"element": "H" 
			},
			{
				"x": -0.4131280063,
				"y": -0.7803870502,
				"z": -1.8525387972,
				"element": "H" 
			},
			{
				"x": 1.8356648781,
				"y": -2.2429688203,
				"z": -0.3910907678,
				"element": "H" 
			},
			{
				"x": 2.9073675608,
				"y": -0.2229766712,
				"z": -0.0464560639,
				"element": "H" 
			},
			{
				"x": 1.9470339671,
				"y": 0.3429518613,
				"z": -1.4076775434,
				"element": "H" 
			},
			{
				"x": 1.5230409707,
				"y": 1.9611891978,
				"z": 0.3406778741,
				"element": "H" 
			},
			{
				"x": 1.4629564064,
				"y": 0.7335141942,
				"z": 1.5797743263,
				"element": "H" 
			},
			{
				"x": -1.7196368671,
				"y": -0.6335494314,
				"z": 0.3414556,
				"element": "H" 
			},
			{
				"x": -1.1614727838,
				"y": -0.286327797,
				"z": 1.9639552849,
				"element": "H" 
			},
			{
				"x": 0.8530572656,
				"y": -1.5478748601,
				"z": 1.7067238421,
				"element": "H" 
			},
			{
				"x": -0.320829083,
				"y": -2.4974185536,
				"z": 0.818793804,
				"element": "H" 
			},
			{
				"x": 1.3005860998,
				"y": 2.9386184299,
				"z": -1.3989689665,
				"element": "H" 
			},
			{
				"x": 1.0350217795,
				"y": 5.3467682788,
				"z": -2.3018892509,
				"element": "H" 
			},
			{
				"x": -4.1999796963,
				"y": 2.6407583016,
				"z": 0.9719317136,
				"element": "H" 
			},
			{
				"x": 1.4641192421,
				"y": -4.0204687983,
				"z": -2.244809563,
				"element": "H" 
			},
			{
				"x": 0.3613812608,
				"y": -6.2199796353,
				"z": -2.4724276577,
				"element": "H" 
			},
			{
				"x": -2.1130780436,
				"y": -6.4035168589,
				"z": -2.2875493146,
				"element": "H" 
			},
			{
				"x": -3.4690822897,
				"y": -4.3580056439,
				"z": -1.8781267161,
				"element": "H" 
			},
			{
				"x": -2.3615799948,
				"y": -2.1586012912,
				"z": -1.6528986291,
				"element": "H" 
			}
		],
		 "valence_orbital": [ 
			{
				"type": "occ",
				"energy": -0.25028,
				"method": "rhf"
			},
			{
				"type": "occ",
				"energy": -0.24997,
				"method": "rhf"
			},
			{
				"type": "occ",
				"energy": -0.24679,
				"method": "rhf"
			},
			{
				"type": "occ",
				"energy": -0.24203,
				"method": "rhf"
			},
			{
				"type": "occ",
				"energy": -0.2062,
				"method": "rhf"
			},
			{
				"type": "unocc",
				"energy": -0.02966,
				"method": "rhf"
			},
			{
				"type": "unocc",
				"energy": -0.00972,
				"method": "rhf"
			},
			{
				"type": "unocc",
				"energy": -0.0041,
				"method": "rhf"
			},
			{
				"type": "unocc",
				"energy": -0.00105,
				"method": "rhf"
			},
			{
				"type": "unocc",
				"energy": 0.02629,
				"method": "rhf"
			}
		],
		"cosmo_sigma_profile": { 
			"-0.025": 0.0,
			"-0.024": 0.0,
			"-0.023": 0.0,
			"-0.022": 0.0,
			"-0.021": 0.0,
			"-0.02": 0.0,
			"-0.019": 0.0,
			"-0.018": 0.0,
			"-0.017": 0.0,
			"-0.016": 0.0,
			"-0.015": 0.0,
			"-0.014": 0.0,
			"-0.013": 0.0,
			"-0.012": 0.0,
			"-0.011": 0.0,
			"-0.01": 0.0,
			"-0.009": 1.14487732105,
			"-0.008": 2.47311121092,
			"-0.007": 5.21339946594,
			"-0.006": 7.95511158218,
			"-0.005": 17.8160286352,
			"-0.004": 28.8742609498,
			"-0.003": 42.9079535325,
			"-0.002": 39.4753471802,
			"-0.001": 30.0030015991,
			"0.0": 29.3735109018,
			"0.001": 28.5318899825,
			"0.002": 26.5937699146,
			"0.003": 23.2091670992,
			"0.004": 18.7838924313,
			"0.005": 12.8347455369,
			"0.006": 10.9954635882,
			"0.007": 5.94606615288,
			"0.008": 3.10319994726,
			"0.009": 2.08882152827,
			"0.01": 1.80488452443,
			"0.011": 1.94856902886,
			"0.012": 1.89809170714,
			"0.013": 1.58877308395,
			"0.014": 0.964052653137,
			"0.015": 0.779584323883,
			"0.016": 0.240885383844,
			"0.017": 0.0,
			"0.018": 0.0,
			"0.019": 0.0,
			"0.02": 0.0,
			"0.021": 0.0,
			"0.022": 0.0,
			"0.023": 0.0,
			"0.024": 0.0,
			"0.025": 0.0
		}
	}
}
