{
	 "smiles": "O=N(=O)OCC(ON(=O)=O)C(ON(=O)=O)C(ON(=O)=O)C(CON(=O)=O)ON(=O)=O", 
	 "Tm": 380.15, 
	 "num_atms": 38, 
	 "gaussian": { 
		 "optdone": 1, 
		 "sigma_profile": "yes", 
		 "theory": "DFT", 
		 "functional": "B3LYP", 
		 "basiset": "6-31G**", 
		 "properties": { 
			 "R2extent": 12829.2826, 
			 "electric_dipole_moment_norm": 2.11640318465, 
			 "electric_quadrupole_moment_norm": 25.0404418675, 
			 "total_energy": -1915.10268309, 
			 "HOMO_LUMO_gap": 0.22458, 
			 "cosmo_polarized_energy": -25.78, 
			 "cosmo_cavitation_energy": 50.51, 
			 "cosmo_dispersion_energy": -29.9, 
			 "cosmo_repulsion_energy": 2.33, 
			 "cosmo_total_nonelectrostatic_energy": 22.93, 
			 "SMD_solvation_energy": 25.03 
		},
		"coords": [
			{
				"x": 2.6010026653,
				"y": 2.0789982172,
				"z": -4.4593961029,
				"element": "O" 
			},
			{
				"x": 1.8532876638,
				"y": 1.1270641469,
				"z": -4.4100599256,
				"element": "N" 
			},
			{
				"x": 1.4442039701,
				"y": 0.4025234945,
				"z": -5.2768241389,
				"element": "O" 
			},
			{
				"x": 1.3482868083,
				"y": 0.7680723217,
				"z": -3.1169887841,
				"element": "O" 
			},
			{
				"x": 1.8274914187,
				"y": 1.6161089437,
				"z": -2.0584209089,
				"element": "C" 
			},
			{
				"x": 1.102451863,
				"y": 1.187375069,
				"z": -0.78793686,
				"element": "C" 
			},
			{
				"x": -0.3058996573,
				"y": 1.488990442,
				"z": -0.8474095999,
				"element": "O" 
			},
			{
				"x": -0.6521038791,
				"y": 2.8396766576,
				"z": -0.4627100369,
				"element": "N" 
			},
			{
				"x": 0.2579846655,
				"y": 3.581743905,
				"z": -0.1655527941,
				"element": "O" 
			},
			{
				"x": -1.8357610314,
				"y": 3.0248046646,
				"z": -0.5045336227,
				"element": "O" 
			},
			{
				"x": 1.1339291242,
				"y": -0.33448898,
				"z": -0.526009014,
				"element": "C" 
			},
			{
				"x": 2.5180454607,
				"y": -0.7292211388,
				"z": -0.5970668452,
				"element": "O" 
			},
			{
				"x": 2.8385284659,
				"y": -1.7294189249,
				"z": -1.6161694555,
				"element": "N" 
			},
			{
				"x": 1.9204916471,
				"y": -2.3315103783,
				"z": -2.1186700855,
				"element": "O" 
			},
			{
				"x": 4.0229543561,
				"y": -1.8184318831,
				"z": -1.7754780465,
				"element": "O" 
			},
			{
				"x": 0.5430708933,
				"y": -0.7211013093,
				"z": 0.8385544221,
				"element": "C" 
			},
			{
				"x": 1.250330822,
				"y": 0.0541335811,
				"z": 1.8169240927,
				"element": "O" 
			},
			{
				"x": 0.4621904973,
				"y": 0.4345560256,
				"z": 2.9878234948,
				"element": "N" 
			},
			{
				"x": -0.7106497715,
				"y": 0.1537591088,
				"z": 2.9769616613,
				"element": "O" 
			},
			{
				"x": 1.1365581589,
				"y": 1.0034188254,
				"z": 3.7973032714,
				"element": "O" 
			},
			{
				"x": 0.6397704599,
				"y": -2.2496895069,
				"z": 1.0978809534,
				"element": "C" 
			},
			{
				"x": 1.7905659053,
				"y": -2.694680795,
				"z": 1.9972478494,
				"element": "C" 
			},
			{
				"x": 1.5081714579,
				"y": -2.2332061461,
				"z": 3.3284505008,
				"element": "O" 
			},
			{
				"x": 2.5659478337,
				"y": -2.5047104598,
				"z": 4.2517412775,
				"element": "N" 
			},
			{
				"x": 3.5361253911,
				"y": -3.0876379538,
				"z": 3.8166302147,
				"element": "O" 
			},
			{
				"x": 2.3218575104,
				"y": -2.1029148337,
				"z": 5.35722324,
				"element": "O" 
			},
			{
				"x": -0.5526649322,
				"y": -2.7721795367,
				"z": 1.7199457138,
				"element": "O" 
			},
			{
				"x": -1.6598776232,
				"y": -2.9133333344,
				"z": 0.8238261099,
				"element": "N" 
			},
			{
				"x": -1.5038737954,
				"y": -2.5204837876,
				"z": -0.316852264,
				"element": "O" 
			},
			{
				"x": -2.6145846569,
				"y": -3.4127577461,
				"z": 1.3501498511,
				"element": "O" 
			},
			{
				"x": 1.612749604,
				"y": 2.6644399385,
				"z": -2.2742834272,
				"element": "H" 
			},
			{
				"x": 2.9068261748,
				"y": 1.4957754562,
				"z": -1.9320797641,
				"element": "H" 
			},
			{
				"x": 1.5553659512,
				"y": 1.7173034944,
				"z": 0.0524230762,
				"element": "H" 
			},
			{
				"x": 0.5685264109,
				"y": -0.8575685412,
				"z": -1.2998116658,
				"element": "H" 
			},
			{
				"x": -0.5069551441,
				"y": -0.4250871621,
				"z": 0.8363527875,
				"element": "H" 
			},
			{
				"x": 0.7722703444,
				"y": -2.7542890069,
				"z": 0.1363315184,
				"element": "H" 
			},
			{
				"x": 1.8632594383,
				"y": -3.7851886703,
				"z": 1.9920092005,
				"element": "H" 
			},
			{
				"x": 2.726525529,
				"y": -2.2653441973,
				"z": 1.6317741061,
				"element": "H" 
			}
		],
		 "valence_orbital": [ 
			{
				"type": "occ",
				"energy": -0.34938,
				"method": "rhf"
			},
			{
				"type": "occ",
				"energy": -0.34781,
				"method": "rhf"
			},
			{
				"type": "occ",
				"energy": -0.34094,
				"method": "rhf"
			},
			{
				"type": "occ",
				"energy": -0.338,
				"method": "rhf"
			},
			{
				"type": "occ",
				"energy": -0.33685,
				"method": "rhf"
			},
			{
				"type": "unocc",
				"energy": -0.11227,
				"method": "rhf"
			},
			{
				"type": "unocc",
				"energy": -0.10109,
				"method": "rhf"
			},
			{
				"type": "unocc",
				"energy": -0.09637,
				"method": "rhf"
			},
			{
				"type": "unocc",
				"energy": -0.09422,
				"method": "rhf"
			},
			{
				"type": "unocc",
				"energy": -0.08983,
				"method": "rhf"
			}
		],
		"cosmo_sigma_profile": { 
			"-0.025": 0.0,
			"-0.024": 0.0,
			"-0.023": 0.0,
			"-0.022": 0.0,
			"-0.021": 0.0,
			"-0.02": 0.0,
			"-0.019": 0.0,
			"-0.018": 0.0,
			"-0.017": 0.0,
			"-0.016": 0.0,
			"-0.015": 0.170855621787,
			"-0.014": 0.659955696024,
			"-0.013": 0.897694761521,
			"-0.012": 3.12060809418,
			"-0.011": 6.39833411958,
			"-0.01": 9.5092684053,
			"-0.009": 15.1750780996,
			"-0.008": 15.4932105255,
			"-0.007": 16.0016922256,
			"-0.006": 15.9960490849,
			"-0.005": 16.17665765,
			"-0.004": 15.792105888,
			"-0.003": 14.4535335768,
			"-0.002": 14.5582842922,
			"-0.001": 14.9738483362,
			"0.0": 18.4533238505,
			"0.001": 20.7688373032,
			"0.002": 23.3304136141,
			"0.003": 30.5721973882,
			"0.004": 42.2414362187,
			"0.005": 63.8711271642,
			"0.006": 36.7709198831,
			"0.007": 7.59800430043,
			"0.008": 0.0460597726955,
			"0.009": 0.0,
			"0.01": 0.0,
			"0.011": 0.0,
			"0.012": 0.0,
			"0.013": 0.0,
			"0.014": 0.0,
			"0.015": 0.0,
			"0.016": 0.0,
			"0.017": 0.0,
			"0.018": 0.0,
			"0.019": 0.0,
			"0.02": 0.0,
			"0.021": 0.0,
			"0.022": 0.0,
			"0.023": 0.0,
			"0.024": 0.0,
			"0.025": 0.0
		}
	}
}
