{
	 "smiles": "ClS(=O)(=O)C1=CC(Br)=CC=C1", 
	 "Tm": 305.15, 
	 "num_atms": 15, 
	 "gaussian": { 
		 "optdone": 1, 
		 "sigma_profile": "yes", 
		 "theory": "DFT", 
		 "functional": "B3LYP", 
		 "basiset": "6-31G**", 
		 "properties": { 
			 "R2extent": 4373.047, 
			 "electric_dipole_moment_norm": 4.66274900997, 
			 "electric_quadrupole_moment_norm": 11.031115638, 
			 "total_energy": -3811.20780619, 
			 "HOMO_LUMO_gap": 0.17761, 
			 "cosmo_polarized_energy": -8.57, 
			 "cosmo_cavitation_energy": 25.55, 
			 "cosmo_dispersion_energy": -19.64, 
			 "cosmo_repulsion_energy": 1.54, 
			 "cosmo_total_nonelectrostatic_energy": 7.46, 
			 "SMD_solvation_energy": 1.96 
		},
		"coords": [
			{
				"x": -0.0411657279,
				"y": -3.1187668108,
				"z": -2.9155550861,
				"element": "Cl" 
			},
			{
				"x": -1.7081745781,
				"y": -2.2292042347,
				"z": -1.9301321593,
				"element": "S" 
			},
			{
				"x": -2.3790894328,
				"y": -3.3046063153,
				"z": -1.2115323111,
				"element": "O" 
			},
			{
				"x": -2.3852937451,
				"y": -1.4123661701,
				"z": -2.9285179109,
				"element": "O" 
			},
			{
				"x": -0.8836473772,
				"y": -1.1611666486,
				"z": -0.7521056272,
				"element": "C" 
			},
			{
				"x": -0.5980227741,
				"y": 0.1488600856,
				"z": -1.1364365906,
				"element": "C" 
			},
			{
				"x": 0.0297368153,
				"y": 0.9712386978,
				"z": -0.2036494093,
				"element": "C" 
			},
			{
				"x": 0.4382192497,
				"y": 2.7707500177,
				"z": -0.6734816464,
				"element": "Br" 
			},
			{
				"x": 0.3596024224,
				"y": 0.499508453,
				"z": 1.0686905382,
				"element": "C" 
			},
			{
				"x": 0.0548498923,
				"y": -0.816844003,
				"z": 1.4198618521,
				"element": "C" 
			},
			{
				"x": -0.572879921,
				"y": -1.6667100624,
				"z": 0.5096727933,
				"element": "C" 
			},
			{
				"x": -0.8655740143,
				"y": 0.5106799398,
				"z": -2.1215100551,
				"element": "H" 
			},
			{
				"x": 0.8477964199,
				"y": 1.1586258109,
				"z": 1.7774038492,
				"element": "H" 
			},
			{
				"x": 0.3065443723,
				"y": -1.1787623892,
				"z": 2.4115366294,
				"element": "H" 
			},
			{
				"x": -0.8251016015,
				"y": -2.6885363706,
				"z": 0.7680551338,
				"element": "H" 
			}
		],
		 "valence_orbital": [ 
			{
				"type": "occ",
				"energy": -0.33389,
				"method": "rhf"
			},
			{
				"type": "occ",
				"energy": -0.319,
				"method": "rhf"
			},
			{
				"type": "occ",
				"energy": -0.31015,
				"method": "rhf"
			},
			{
				"type": "occ",
				"energy": -0.30118,
				"method": "rhf"
			},
			{
				"type": "occ",
				"energy": -0.27457,
				"method": "rhf"
			},
			{
				"type": "unocc",
				"energy": -0.09696,
				"method": "rhf"
			},
			{
				"type": "unocc",
				"energy": -0.05454,
				"method": "rhf"
			},
			{
				"type": "unocc",
				"energy": -0.0498,
				"method": "rhf"
			},
			{
				"type": "unocc",
				"energy": -0.0177,
				"method": "rhf"
			},
			{
				"type": "unocc",
				"energy": 0.05038,
				"method": "rhf"
			}
		],
		"cosmo_sigma_profile": { 
			"-0.025": 0.0,
			"-0.024": 0.0,
			"-0.023": 0.0,
			"-0.022": 0.0,
			"-0.021": 0.0,
			"-0.02": 0.0,
			"-0.019": 0.0,
			"-0.018": 0.0,
			"-0.017": 0.0,
			"-0.016": 0.0,
			"-0.015": 0.0,
			"-0.014": 0.0,
			"-0.013": 0.0,
			"-0.012": 0.0,
			"-0.011": 0.0,
			"-0.01": 0.0,
			"-0.009": 2.87640917576,
			"-0.008": 7.71509951472,
			"-0.007": 9.22854601306,
			"-0.006": 8.27086179022,
			"-0.005": 8.07619023861,
			"-0.004": 9.27965909912,
			"-0.003": 11.1067886564,
			"-0.002": 12.8969277035,
			"-0.001": 22.1483659776,
			"0.0": 25.8145254245,
			"0.001": 16.9775899417,
			"0.002": 14.4804578783,
			"0.003": 24.3293900193,
			"0.004": 12.5521123016,
			"0.005": 3.29773199003,
			"0.006": 4.06181043677,
			"0.007": 6.88647673087,
			"0.008": 9.02322565545,
			"0.009": 3.07895165944,
			"0.01": 0.0,
			"0.011": 0.0,
			"0.012": 0.0,
			"0.013": 0.0,
			"0.014": 0.0,
			"0.015": 0.0,
			"0.016": 0.0,
			"0.017": 0.0,
			"0.018": 0.0,
			"0.019": 0.0,
			"0.02": 0.0,
			"0.021": 0.0,
			"0.022": 0.0,
			"0.023": 0.0,
			"0.024": 0.0,
			"0.025": 0.0
		}
	}
}
