{
	 "smiles": "FC(F)(F)C1=CC=C(C=C1)S(Cl)(=O)=O", 
	 "Tm": 304.15, 
	 "num_atms": 18, 
	 "gaussian": { 
		 "optdone": 1, 
		 "sigma_profile": "yes", 
		 "theory": "DFT", 
		 "functional": "B3LYP", 
		 "basiset": "6-31G**", 
		 "properties": { 
			 "R2extent": 5062.4194, 
			 "electric_dipole_moment_norm": 2.86586114981, 
			 "electric_quadrupole_moment_norm": 17.1434966002, 
			 "total_energy": -1577.43839727, 
			 "HOMO_LUMO_gap": 0.20201, 
			 "cosmo_polarized_energy": -8.67, 
			 "cosmo_cavitation_energy": 27.86, 
			 "cosmo_dispersion_energy": -20.34, 
			 "cosmo_repulsion_energy": 1.49, 
			 "cosmo_total_nonelectrostatic_energy": 9.02, 
			 "SMD_solvation_energy": 4.66 
		},
		"coords": [
			{
				"x": -1.7693817406,
				"y": 2.2530195788,
				"z": 1.3015065089,
				"element": "F" 
			},
			{
				"x": -2.0248942368,
				"y": 1.0623388434,
				"z": 0.7179761293,
				"element": "C" 
			},
			{
				"x": -3.1111069269,
				"y": 1.2251617087,
				"z": -0.064849729,
				"element": "F" 
			},
			{
				"x": -2.3497431126,
				"y": 0.1968164621,
				"z": 1.700080968,
				"element": "F" 
			},
			{
				"x": -0.8339887384,
				"y": 0.5812374891,
				"z": -0.0760544822,
				"element": "C" 
			},
			{
				"x": -0.7022307205,
				"y": 0.9541328765,
				"z": -1.4168910309,
				"element": "C" 
			},
			{
				"x": 0.4196810606,
				"y": 0.5579675771,
				"z": -2.1411682325,
				"element": "C" 
			},
			{
				"x": 1.3890633776,
				"y": -0.2090228317,
				"z": -1.4953157775,
				"element": "C" 
			},
			{
				"x": 1.2735504081,
				"y": -0.5969255988,
				"z": -0.1606675664,
				"element": "C" 
			},
			{
				"x": 0.1462556785,
				"y": -0.1934216239,
				"z": 0.551072731,
				"element": "C" 
			},
			{
				"x": 2.8237835513,
				"y": -0.744116866,
				"z": -2.4258529163,
				"element": "S" 
			},
			{
				"x": 4.1675198542,
				"y": 0.8678894281,
				"z": -2.063745777,
				"element": "Cl" 
			},
			{
				"x": 3.4033511941,
				"y": -1.9145402272,
				"z": -1.780159402,
				"element": "O" 
			},
			{
				"x": 2.5121851896,
				"y": -0.7070675496,
				"z": -3.8486144488,
				"element": "O" 
			},
			{
				"x": -1.478690014,
				"y": 1.5412520869,
				"z": -1.8941358418,
				"element": "H" 
			},
			{
				"x": 0.5377497892,
				"y": 0.8247672453,
				"z": -3.1851387188,
				"element": "H" 
			},
			{
				"x": 2.0406779547,
				"y": -1.2080439344,
				"z": 0.3009042526,
				"element": "H" 
			},
			{
				"x": 0.0221174319,
				"y": -0.4885446645,
				"z": 1.5868533332,
				"element": "H" 
			}
		],
		 "valence_orbital": [ 
			{
				"type": "occ",
				"energy": -0.34744,
				"method": "rhf"
			},
			{
				"type": "occ",
				"energy": -0.342,
				"method": "rhf"
			},
			{
				"type": "occ",
				"energy": -0.32214,
				"method": "rhf"
			},
			{
				"type": "occ",
				"energy": -0.30619,
				"method": "rhf"
			},
			{
				"type": "occ",
				"energy": -0.30383,
				"method": "rhf"
			},
			{
				"type": "unocc",
				"energy": -0.10182,
				"method": "rhf"
			},
			{
				"type": "unocc",
				"energy": -0.06255,
				"method": "rhf"
			},
			{
				"type": "unocc",
				"energy": -0.05335,
				"method": "rhf"
			},
			{
				"type": "unocc",
				"energy": 0.03793,
				"method": "rhf"
			},
			{
				"type": "unocc",
				"energy": 0.06002,
				"method": "rhf"
			}
		],
		"cosmo_sigma_profile": { 
			"-0.025": 0.0,
			"-0.024": 0.0,
			"-0.023": 0.0,
			"-0.022": 0.0,
			"-0.021": 0.0,
			"-0.02": 0.0,
			"-0.019": 0.0,
			"-0.018": 0.0,
			"-0.017": 0.0,
			"-0.016": 0.0,
			"-0.015": 0.0,
			"-0.014": 0.0,
			"-0.013": 0.0,
			"-0.012": 0.0,
			"-0.011": 0.0,
			"-0.01": 0.0840337173075,
			"-0.009": 4.45489728118,
			"-0.008": 8.38999995187,
			"-0.007": 7.47692450355,
			"-0.006": 8.58441953586,
			"-0.005": 7.70438194624,
			"-0.004": 9.07308824162,
			"-0.003": 11.0143707959,
			"-0.002": 15.1164898495,
			"-0.001": 24.9655538792,
			"0.0": 22.0886886253,
			"0.001": 15.818120666,
			"0.002": 33.8280101058,
			"0.003": 27.2821429251,
			"0.004": 6.05087651621,
			"0.005": 3.09113068248,
			"0.006": 3.2734163227,
			"0.007": 7.46496588152,
			"0.008": 9.22226278156,
			"0.009": 2.44929771907,
			"0.01": 0.0,
			"0.011": 0.0,
			"0.012": 0.0,
			"0.013": 0.0,
			"0.014": 0.0,
			"0.015": 0.0,
			"0.016": 0.0,
			"0.017": 0.0,
			"0.018": 0.0,
			"0.019": 0.0,
			"0.02": 0.0,
			"0.021": 0.0,
			"0.022": 0.0,
			"0.023": 0.0,
			"0.024": 0.0,
			"0.025": 0.0
		}
	}
}
