{
	 "smiles": "CC1=NC2(CCCCC2)[N+]([O-])=C1", 
	 "Tm": 387.15, 
	 "num_atms": 26, 
	 "gaussian": { 
		 "optdone": 1, 
		 "sigma_profile": "yes", 
		 "theory": "DFT", 
		 "functional": "B3LYP", 
		 "basiset": "6-31G**", 
		 "properties": { 
			 "R2extent": 2071.1333, 
			 "electric_dipole_moment_norm": 2.08246862161, 
			 "electric_quadrupole_moment_norm": 12.9445662986, 
			 "total_energy": -536.074059149, 
			 "HOMO_LUMO_gap": 0.17012, 
			 "cosmo_polarized_energy": -9.75, 
			 "cosmo_cavitation_energy": 27.26, 
			 "cosmo_dispersion_energy": -19.82, 
			 "cosmo_repulsion_energy": 1.6, 
			 "cosmo_total_nonelectrostatic_energy": 9.04, 
			 "SMD_solvation_energy": 3.16 
		},
		"coords": [
			{
				"x": 0.8165608986,
				"y": 3.2497237376,
				"z": 0.5642141436,
				"element": "C" 
			},
			{
				"x": 0.2639080887,
				"y": 1.8880535456,
				"z": 0.2764087576,
				"element": "C" 
			},
			{
				"x": 0.9216332844,
				"y": 0.7947278231,
				"z": 0.5141284426,
				"element": "N" 
			},
			{
				"x": 0.0827356799,
				"y": -0.3097614597,
				"z": 0.1142910074,
				"element": "C" 
			},
			{
				"x": -0.2969889921,
				"y": -1.2114164996,
				"z": 1.3035460981,
				"element": "C" 
			},
			{
				"x": 0.8911666401,
				"y": -2.065086249,
				"z": 1.7664543694,
				"element": "C" 
			},
			{
				"x": 1.4831865395,
				"y": -2.8837293274,
				"z": 0.6100690445,
				"element": "C" 
			},
			{
				"x": 1.8817022489,
				"y": -1.9744269113,
				"z": -0.5613979777,
				"element": "C" 
			},
			{
				"x": 0.7003675978,
				"y": -1.1201812339,
				"z": -1.0403627667,
				"element": "C" 
			},
			{
				"x": -1.1969377728,
				"y": 0.340227111,
				"z": -0.4051482331,
				"element": "N" 
			},
			{
				"x": -2.1597607577,
				"y": -0.3360669093,
				"z": -0.8411080087,
				"element": "O" 
			},
			{
				"x": -1.0504016411,
				"y": 1.6498363392,
				"z": -0.2922364641,
				"element": "C" 
			},
			{
				"x": 0.8672572225,
				"y": 3.8519579497,
				"z": -0.3500338755,
				"element": "H" 
			},
			{
				"x": 0.176907661,
				"y": 3.7893936309,
				"z": 1.2718206445,
				"element": "H" 
			},
			{
				"x": 1.8181944617,
				"y": 3.1577822085,
				"z": 0.9870103832,
				"element": "H" 
			},
			{
				"x": -1.1282225314,
				"y": -1.8426505143,
				"z": 0.96781145,
				"element": "H" 
			},
			{
				"x": -0.6674827214,
				"y": -0.5807188646,
				"z": 2.1188528329,
				"element": "H" 
			},
			{
				"x": 0.5642605921,
				"y": -2.7266122038,
				"z": 2.5770901869,
				"element": "H" 
			},
			{
				"x": 1.663410702,
				"y": -1.4064725212,
				"z": 2.1814033496,
				"element": "H" 
			},
			{
				"x": 2.3526178675,
				"y": -3.4535205655,
				"z": 0.9578315547,
				"element": "H" 
			},
			{
				"x": 0.7419668964,
				"y": -3.618939061,
				"z": 0.2660466248,
				"element": "H" 
			},
			{
				"x": 2.256875417,
				"y": -2.5717658052,
				"z": -1.4004761318,
				"element": "H" 
			},
			{
				"x": 2.6976470384,
				"y": -1.3118332755,
				"z": -0.2491058249,
				"element": "H" 
			},
			{
				"x": -0.1002582461,
				"y": -1.7486445338,
				"z": -1.4479876773,
				"element": "H" 
			},
			{
				"x": 1.0124159811,
				"y": -0.4270903542,
				"z": -1.8290407438,
				"element": "H" 
			},
			{
				"x": -1.8266621552,
				"y": 2.3367139435,
				"z": -0.5961811861,
				"element": "H" 
			}
		],
		 "valence_orbital": [ 
			{
				"type": "occ",
				"energy": -0.31903,
				"method": "rhf"
			},
			{
				"type": "occ",
				"energy": -0.30014,
				"method": "rhf"
			},
			{
				"type": "occ",
				"energy": -0.28979,
				"method": "rhf"
			},
			{
				"type": "occ",
				"energy": -0.24112,
				"method": "rhf"
			},
			{
				"type": "occ",
				"energy": -0.22242,
				"method": "rhf"
			},
			{
				"type": "unocc",
				"energy": -0.0523,
				"method": "rhf"
			},
			{
				"type": "unocc",
				"energy": 0.04436,
				"method": "rhf"
			},
			{
				"type": "unocc",
				"energy": 0.08594,
				"method": "rhf"
			},
			{
				"type": "unocc",
				"energy": 0.10957,
				"method": "rhf"
			},
			{
				"type": "unocc",
				"energy": 0.11744,
				"method": "rhf"
			}
		],
		"cosmo_sigma_profile": { 
			"-0.025": 0.0,
			"-0.024": 0.0,
			"-0.023": 0.0,
			"-0.022": 0.0,
			"-0.021": 0.0,
			"-0.02": 0.0,
			"-0.019": 0.0,
			"-0.018": 0.0,
			"-0.017": 0.0,
			"-0.016": 0.0,
			"-0.015": 0.0,
			"-0.014": 0.0,
			"-0.013": 0.0,
			"-0.012": 0.0,
			"-0.011": 0.0,
			"-0.01": 0.754016185932,
			"-0.009": 2.17040398284,
			"-0.008": 1.02889253498,
			"-0.007": 2.14887327368,
			"-0.006": 3.71586207529,
			"-0.005": 9.92197103812,
			"-0.004": 14.1662275832,
			"-0.003": 25.4188591963,
			"-0.002": 32.2296067036,
			"-0.001": 39.3610449908,
			"0.0": 24.378784314,
			"0.001": 11.6677339773,
			"0.002": 4.4323237044,
			"0.003": 4.36099671218,
			"0.004": 3.86433415168,
			"0.005": 3.64319637283,
			"0.006": 3.62809610311,
			"0.007": 3.24136799499,
			"0.008": 2.18711173182,
			"0.009": 2.59437403514,
			"0.01": 2.46606089919,
			"0.011": 3.73857528452,
			"0.012": 6.47872692713,
			"0.013": 3.52959913828,
			"0.014": 0.901302384181,
			"0.015": 0.392905984509,
			"0.016": 0.0,
			"0.017": 0.0,
			"0.018": 0.0,
			"0.019": 0.0,
			"0.02": 0.0,
			"0.021": 0.0,
			"0.022": 0.0,
			"0.023": 0.0,
			"0.024": 0.0,
			"0.025": 0.0
		}
	}
}
