{
	 "smiles": "COC1CC2C3(C)CCCC2(COC3=O)C2C(CC3C(C)C(=O)C12C3O)OC(C)=O", 
	 "Tm": 378.15, 
	 "num_atms": 62, 
	 "gaussian": { 
		 "optdone": 1, 
		 "sigma_profile": "yes", 
		 "theory": "DFT", 
		 "functional": "B3LYP", 
		 "basiset": "6-31G**", 
		 "properties": { 
			 "R2extent": 10193.2741, 
			 "electric_dipole_moment_norm": 7.67362763887, 
			 "electric_quadrupole_moment_norm": 20.8223856174, 
			 "total_energy": -1422.28920734, 
			 "HOMO_LUMO_gap": 0.21277, 
			 "cosmo_polarized_energy": -27.67, 
			 "cosmo_cavitation_energy": 53.39, 
			 "cosmo_dispersion_energy": -35.18, 
			 "cosmo_repulsion_energy": 2.57, 
			 "cosmo_total_nonelectrostatic_energy": 20.78, 
			 "SMD_solvation_energy": 10.83 
		},
		"coords": [
			{
				"x": 2.3626371249,
				"y": 2.9175046364,
				"z": 0.9841867588,
				"element": "C" 
			},
			{
				"x": 1.2724807703,
				"y": 2.0111263357,
				"z": 1.0273785661,
				"element": "O" 
			},
			{
				"x": 0.5238878056,
				"y": 1.8927709807,
				"z": -0.1776527291,
				"element": "C" 
			},
			{
				"x": -0.957288274,
				"y": 2.0638715546,
				"z": 0.1678175328,
				"element": "C" 
			},
			{
				"x": -1.6344141332,
				"y": 0.8799896407,
				"z": 0.9156522125,
				"element": "C" 
			},
			{
				"x": -2.1198855683,
				"y": 1.162298761,
				"z": 2.3673818236,
				"element": "C" 
			},
			{
				"x": -2.921440852,
				"y": 2.4680872338,
				"z": 2.4824617288,
				"element": "C" 
			},
			{
				"x": -3.0595251774,
				"y": -0.0131751283,
				"z": 2.7891897528,
				"element": "C" 
			},
			{
				"x": -2.4403400718,
				"y": -1.4084182527,
				"z": 2.6377937075,
				"element": "C" 
			},
			{
				"x": -1.8011860918,
				"y": -1.5947465786,
				"z": 1.2531417373,
				"element": "C" 
			},
			{
				"x": -0.8168124235,
				"y": -0.4417334721,
				"z": 0.9192877846,
				"element": "C" 
			},
			{
				"x": 0.2923583062,
				"y": -0.4408421334,
				"z": 2.0093863407,
				"element": "C" 
			},
			{
				"x": 0.0175364669,
				"y": 0.2729192582,
				"z": 3.2299659433,
				"element": "O" 
			},
			{
				"x": -0.9620723775,
				"y": 1.194874643,
				"z": 3.3688470629,
				"element": "C" 
			},
			{
				"x": -0.9425098081,
				"y": 1.9243194753,
				"z": 4.3349605718,
				"element": "O" 
			},
			{
				"x": -0.0741640112,
				"y": -0.6932557883,
				"z": -0.4359800458,
				"element": "C" 
			},
			{
				"x": -0.9108612292,
				"y": -1.3639006919,
				"z": -1.5416418938,
				"element": "C" 
			},
			{
				"x": -0.0862978872,
				"y": -1.6276364654,
				"z": -2.8177331953,
				"element": "C" 
			},
			{
				"x": 0.9695560373,
				"y": -0.5341061912,
				"z": -3.099455706,
				"element": "C" 
			},
			{
				"x": 2.3255948803,
				"y": -0.7711731478,
				"z": -2.3812230731,
				"element": "C" 
			},
			{
				"x": 3.5781350156,
				"y": -0.3789297657,
				"z": -3.1762376386,
				"element": "C" 
			},
			{
				"x": 2.2110118778,
				"y": 0.0527338448,
				"z": -1.079255192,
				"element": "C" 
			},
			{
				"x": 3.1172846943,
				"y": 0.1986730438,
				"z": -0.2899292261,
				"element": "O" 
			},
			{
				"x": 0.7575580817,
				"y": 0.5735978754,
				"z": -0.9706189439,
				"element": "C" 
			},
			{
				"x": 0.4775736914,
				"y": 0.792045654,
				"z": -2.4827469342,
				"element": "C" 
			},
			{
				"x": 1.2886320092,
				"y": 1.8968222951,
				"z": -2.8914563331,
				"element": "O" 
			},
			{
				"x": -2.0598047135,
				"y": -0.5148929383,
				"z": -1.8477137475,
				"element": "O" 
			},
			{
				"x": -3.1636764823,
				"y": -1.1360002837,
				"z": -2.3416343794,
				"element": "C" 
			},
			{
				"x": -4.2719978383,
				"y": -0.1423867357,
				"z": -2.5956065896,
				"element": "C" 
			},
			{
				"x": -3.2322726602,
				"y": -2.329500202,
				"z": -2.5357136925,
				"element": "O" 
			},
			{
				"x": 2.784877378,
				"y": 2.9410400303,
				"z": 1.9913097172,
				"element": "H" 
			},
			{
				"x": 3.1364305678,
				"y": 2.5907973051,
				"z": 0.2817333726,
				"element": "H" 
			},
			{
				"x": 2.0285900301,
				"y": 3.9315336037,
				"z": 0.7172326346,
				"element": "H" 
			},
			{
				"x": 0.8121301139,
				"y": 2.7076862741,
				"z": -0.8490563353,
				"element": "H" 
			},
			{
				"x": -1.0427620972,
				"y": 2.9913565086,
				"z": 0.7379049609,
				"element": "H" 
			},
			{
				"x": -1.5001681663,
				"y": 2.2282861224,
				"z": -0.7695802663,
				"element": "H" 
			},
			{
				"x": -2.5484706761,
				"y": 0.6620625039,
				"z": 0.3524237409,
				"element": "H" 
			},
			{
				"x": -3.7204411876,
				"y": 2.4879846075,
				"z": 1.7325520865,
				"element": "H" 
			},
			{
				"x": -2.2960237213,
				"y": 3.3527915916,
				"z": 2.3489793749,
				"element": "H" 
			},
			{
				"x": -3.3709005703,
				"y": 2.5469464083,
				"z": 3.4744470232,
				"element": "H" 
			},
			{
				"x": -3.9565993761,
				"y": 0.0582520329,
				"z": 2.1583219455,
				"element": "H" 
			},
			{
				"x": -3.3882870376,
				"y": 0.1458078829,
				"z": 3.8222268902,
				"element": "H" 
			},
			{
				"x": -1.692032453,
				"y": -1.5685057401,
				"z": 3.4210938947,
				"element": "H" 
			},
			{
				"x": -3.2125489168,
				"y": -2.171180144,
				"z": 2.7914072414,
				"element": "H" 
			},
			{
				"x": -1.2776470663,
				"y": -2.5592716697,
				"z": 1.2124751465,
				"element": "H" 
			},
			{
				"x": -2.5971022844,
				"y": -1.6338880911,
				"z": 0.5011347324,
				"element": "H" 
			},
			{
				"x": 1.2212898891,
				"y": -0.0184394683,
				"z": 1.6339272183,
				"element": "H" 
			},
			{
				"x": 0.4820498033,
				"y": -1.4760786787,
				"z": 2.3160895237,
				"element": "H" 
			},
			{
				"x": 0.6614048043,
				"y": -1.4780786733,
				"z": -0.2014648116,
				"element": "H" 
			},
			{
				"x": -1.3108160368,
				"y": -2.3126794229,
				"z": -1.1847768674,
				"element": "H" 
			},
			{
				"x": -0.7845005746,
				"y": -1.7246162809,
				"z": -3.6534854397,
				"element": "H" 
			},
			{
				"x": 0.4036279917,
				"y": -2.6033144465,
				"z": -2.7197154746,
				"element": "H" 
			},
			{
				"x": 1.1140941514,
				"y": -0.4377309366,
				"z": -4.1820614687,
				"element": "H" 
			},
			{
				"x": 2.4292172746,
				"y": -1.8246278677,
				"z": -2.0879347124,
				"element": "H" 
			},
			{
				"x": 3.7057023304,
				"y": -1.0289920221,
				"z": -4.0478680992,
				"element": "H" 
			},
			{
				"x": 3.507932774,
				"y": 0.6567027853,
				"z": -3.5179736666,
				"element": "H" 
			},
			{
				"x": 4.4638562896,
				"y": -0.4694271375,
				"z": -2.5417693175,
				"element": "H" 
			},
			{
				"x": -0.5751934228,
				"y": 0.9932860041,
				"z": -2.6978263111,
				"element": "H" 
			},
			{
				"x": 1.1861155672,
				"y": 2.003725161,
				"z": -3.8458942749,
				"element": "H" 
			},
			{
				"x": -5.1125927381,
				"y": -0.6514760574,
				"z": -3.065943149,
				"element": "H" 
			},
			{
				"x": -4.5957556033,
				"y": 0.3047803911,
				"z": -1.6504806262,
				"element": "H" 
			},
			{
				"x": -3.9176741993,
				"y": 0.6702299669,
				"z": -3.2359808864,
				"element": "H" 
			}
		],
		 "valence_orbital": [ 
			{
				"type": "occ",
				"energy": -0.28038,
				"method": "rhf"
			},
			{
				"type": "occ",
				"energy": -0.26702,
				"method": "rhf"
			},
			{
				"type": "occ",
				"energy": -0.24846,
				"method": "rhf"
			},
			{
				"type": "occ",
				"energy": -0.2417,
				"method": "rhf"
			},
			{
				"type": "occ",
				"energy": -0.23461,
				"method": "rhf"
			},
			{
				"type": "unocc",
				"energy": -0.02184,
				"method": "rhf"
			},
			{
				"type": "unocc",
				"energy": -0.00471,
				"method": "rhf"
			},
			{
				"type": "unocc",
				"energy": 0.02721,
				"method": "rhf"
			},
			{
				"type": "unocc",
				"energy": 0.0494,
				"method": "rhf"
			},
			{
				"type": "unocc",
				"energy": 0.0549,
				"method": "rhf"
			}
		],
		"cosmo_sigma_profile": { 
			"-0.025": 0.0,
			"-0.024": 0.0,
			"-0.023": 0.0,
			"-0.022": 0.0,
			"-0.021": 0.0,
			"-0.02": 0.0,
			"-0.019": 0.0,
			"-0.018": 0.0,
			"-0.017": 0.0332859918916,
			"-0.016": 0.70092650646,
			"-0.015": 0.716453847401,
			"-0.014": 1.31913670193,
			"-0.013": 0.803834585492,
			"-0.012": 0.845838396597,
			"-0.011": 1.01016410537,
			"-0.01": 0.993756249763,
			"-0.009": 0.827788003985,
			"-0.008": 1.82527815631,
			"-0.007": 5.64596735906,
			"-0.006": 14.0889609291,
			"-0.005": 22.9309080267,
			"-0.004": 38.5893404919,
			"-0.003": 54.7533040769,
			"-0.002": 58.6360411128,
			"-0.001": 45.1716081051,
			"0.0": 35.1240363173,
			"0.001": 22.4268160815,
			"0.002": 12.0261524297,
			"0.003": 8.45561933928,
			"0.004": 6.95999921534,
			"0.005": 8.63189552967,
			"0.006": 8.22739424202,
			"0.007": 6.55091045865,
			"0.008": 8.54914372528,
			"0.009": 8.21108218093,
			"0.01": 7.13610934944,
			"0.011": 10.7930304823,
			"0.012": 12.0203289064,
			"0.013": 6.49138865918,
			"0.014": 1.88239387288,
			"0.015": 0.138333373262,
			"0.016": 0.0,
			"0.017": 0.0,
			"0.018": 0.0,
			"0.019": 0.0,
			"0.02": 0.0,
			"0.021": 0.0,
			"0.022": 0.0,
			"0.023": 0.0,
			"0.024": 0.0,
			"0.025": 0.0
		}
	}
}
