{
	 "smiles": "[O-][N+](=O)C1=CC=CC(=C1COC(=O)CC1=CC=CC=C1)[N+]([O-])=O", 
	 "Tm": 363.15, 
	 "num_atms": 35, 
	 "gaussian": { 
		 "optdone": 1, 
		 "sigma_profile": "yes", 
		 "theory": "DFT", 
		 "functional": "B3LYP", 
		 "basiset": "6-31G**", 
		 "properties": { 
			 "R2extent": 7811.4335, 
			 "electric_dipole_moment_norm": 4.94450644756, 
			 "electric_quadrupole_moment_norm": 24.5518846861, 
			 "total_energy": -1139.46840862, 
			 "HOMO_LUMO_gap": 0.13303, 
			 "cosmo_polarized_energy": -17.02, 
			 "cosmo_cavitation_energy": 41.58, 
			 "cosmo_dispersion_energy": -27.74, 
			 "cosmo_repulsion_energy": 2.11, 
			 "cosmo_total_nonelectrostatic_energy": 15.94, 
			 "SMD_solvation_energy": 11.67 
		},
		"coords": [
			{
				"x": -1.6723158885,
				"y": 2.7969233367,
				"z": -0.0786755192,
				"element": "O" 
			},
			{
				"x": -0.7117317141,
				"y": 2.7330162432,
				"z": -0.8428087222,
				"element": "N" 
			},
			{
				"x": 0.3106861307,
				"y": 3.4057937148,
				"z": -0.7562222876,
				"element": "O" 
			},
			{
				"x": -0.8298114365,
				"y": 1.8204990984,
				"z": -1.9987053323,
				"element": "C" 
			},
			{
				"x": -2.052650009,
				"y": 1.8527757978,
				"z": -2.6627904891,
				"element": "C" 
			},
			{
				"x": -2.2295634027,
				"y": 1.0861921657,
				"z": -3.8114319607,
				"element": "C" 
			},
			{
				"x": -1.1835502085,
				"y": 0.2942447958,
				"z": -4.267394781,
				"element": "C" 
			},
			{
				"x": 0.0262545496,
				"y": 0.2768165648,
				"z": -3.570687176,
				"element": "C" 
			},
			{
				"x": 0.2528593066,
				"y": 1.0157687875,
				"z": -2.3960431137,
				"element": "C" 
			},
			{
				"x": 1.5033923902,
				"y": 0.8936621741,
				"z": -1.5477584286,
				"element": "C" 
			},
			{
				"x": 1.0694309872,
				"y": 0.821141864,
				"z": -0.1784878316,
				"element": "O" 
			},
			{
				"x": 2.0020862299,
				"y": 1.1512655524,
				"z": 0.7554808334,
				"element": "C" 
			},
			{
				"x": 3.1544531626,
				"y": 1.3921679005,
				"z": 0.4833579595,
				"element": "O" 
			},
			{
				"x": 1.3848834524,
				"y": 1.2159713436,
				"z": 2.1442788424,
				"element": "C" 
			},
			{
				"x": 0.5744466302,
				"y": -0.004808172,
				"z": 2.5356021903,
				"element": "C" 
			},
			{
				"x": 1.1995661854,
				"y": -1.0981876006,
				"z": 3.148301255,
				"element": "C" 
			},
			{
				"x": 0.464841167,
				"y": -2.229827105,
				"z": 3.5052027841,
				"element": "C" 
			},
			{
				"x": -0.9073770248,
				"y": -2.2806718604,
				"z": 3.2545371916,
				"element": "C" 
			},
			{
				"x": -1.5386522349,
				"y": -1.1944540828,
				"z": 2.6449189765,
				"element": "C" 
			},
			{
				"x": -0.8026875136,
				"y": -0.0644386752,
				"z": 2.2871815627,
				"element": "C" 
			},
			{
				"x": 1.0894595651,
				"y": -0.5601638663,
				"z": -4.1611415238,
				"element": "N" 
			},
			{
				"x": 2.2564105707,
				"y": -0.2129821343,
				"z": -3.9788732121,
				"element": "O" 
			},
			{
				"x": 0.7390724819,
				"y": -1.53092211,
				"z": -4.8271522569,
				"element": "O" 
			},
			{
				"x": -2.843761158,
				"y": 2.4818335055,
				"z": -2.2722352086,
				"element": "H" 
			},
			{
				"x": -3.1723729748,
				"y": 1.1104586592,
				"z": -4.3465565271,
				"element": "H" 
			},
			{
				"x": -1.2783982097,
				"y": -0.3207015014,
				"z": -5.1535453697,
				"element": "H" 
			},
			{
				"x": 2.1664775745,
				"y": 1.7511979099,
				"z": -1.6849478417,
				"element": "H" 
			},
			{
				"x": 2.0671217794,
				"y": -0.0028602612,
				"z": -1.7954539743,
				"element": "H" 
			},
			{
				"x": 0.7484028742,
				"y": 2.1093337123,
				"z": 2.1560542639,
				"element": "H" 
			},
			{
				"x": 2.2098257467,
				"y": 1.3862617956,
				"z": 2.8391173672,
				"element": "H" 
			},
			{
				"x": 2.2673453968,
				"y": -1.0611130443,
				"z": 3.3502755619,
				"element": "H" 
			},
			{
				"x": 0.9638826598,
				"y": -3.0685409816,
				"z": 3.9823409605,
				"element": "H" 
			},
			{
				"x": -1.4815937527,
				"y": -3.1587066438,
				"z": 3.5360487551,
				"element": "H" 
			},
			{
				"x": -2.6072041141,
				"y": -1.224491361,
				"z": 2.4508262545,
				"element": "H" 
			},
			{
				"x": -1.297529199,
				"y": 0.7767444779,
				"z": 1.8089867975,
				"element": "H" 
			}
		],
		 "valence_orbital": [ 
			{
				"type": "occ",
				"energy": -0.29772,
				"method": "rhf"
			},
			{
				"type": "occ",
				"energy": -0.29606,
				"method": "rhf"
			},
			{
				"type": "occ",
				"energy": -0.28211,
				"method": "rhf"
			},
			{
				"type": "occ",
				"energy": -0.25088,
				"method": "rhf"
			},
			{
				"type": "occ",
				"energy": -0.24273,
				"method": "rhf"
			},
			{
				"type": "unocc",
				"energy": -0.1097,
				"method": "rhf"
			},
			{
				"type": "unocc",
				"energy": -0.10574,
				"method": "rhf"
			},
			{
				"type": "unocc",
				"energy": -0.04778,
				"method": "rhf"
			},
			{
				"type": "unocc",
				"energy": -0.03067,
				"method": "rhf"
			},
			{
				"type": "unocc",
				"energy": -0.01009,
				"method": "rhf"
			}
		],
		"cosmo_sigma_profile": { 
			"-0.025": 0.0,
			"-0.024": 0.0,
			"-0.023": 0.0,
			"-0.022": 0.0,
			"-0.021": 0.0,
			"-0.02": 0.0,
			"-0.019": 0.0,
			"-0.018": 0.0,
			"-0.017": 0.0,
			"-0.016": 0.0,
			"-0.015": 0.0,
			"-0.014": 0.0,
			"-0.013": 0.0,
			"-0.012": 0.212650655364,
			"-0.011": 0.763877810748,
			"-0.01": 1.09938247412,
			"-0.009": 7.09098445008,
			"-0.008": 10.4721079312,
			"-0.007": 9.42966564373,
			"-0.006": 16.8942573519,
			"-0.005": 20.9436386602,
			"-0.004": 23.9267880408,
			"-0.003": 31.6524404634,
			"-0.002": 25.4293610252,
			"-0.001": 25.7254453968,
			"0.0": 20.2237510425,
			"0.001": 15.3795808308,
			"0.002": 15.6896984011,
			"0.003": 13.8818826027,
			"0.004": 15.0883351238,
			"0.005": 17.3029592399,
			"0.006": 21.5231462835,
			"0.007": 16.3300581631,
			"0.008": 8.61891643706,
			"0.009": 6.65090809976,
			"0.01": 2.67906066014,
			"0.011": 4.48663760959,
			"0.012": 1.73865714561,
			"0.013": 0.112110887993,
			"0.014": 0.0,
			"0.015": 0.0,
			"0.016": 0.0,
			"0.017": 0.0,
			"0.018": 0.0,
			"0.019": 0.0,
			"0.02": 0.0,
			"0.021": 0.0,
			"0.022": 0.0,
			"0.023": 0.0,
			"0.024": 0.0,
			"0.025": 0.0
		}
	}
}
