{
	 "smiles": "CC12CCC3C(CCC4=C(O)C(=O)CCC34)C1CCC2O", 
	 "Tm": 462.15, 
	 "num_atms": 47, 
	 "gaussian": { 
		 "optdone": 1, 
		 "sigma_profile": "yes", 
		 "theory": "DFT", 
		 "functional": "B3LYP", 
		 "basiset": "6-31G**", 
		 "properties": { 
			 "R2extent": 7120.5089, 
			 "electric_dipole_moment_norm": 3.97847463483, 
			 "electric_quadrupole_moment_norm": 31.8404312948, 
			 "total_energy": -927.239530685, 
			 "HOMO_LUMO_gap": 0.18366, 
			 "cosmo_polarized_energy": -20.35, 
			 "cosmo_cavitation_energy": 41.19, 
			 "cosmo_dispersion_energy": -29.91, 
			 "cosmo_repulsion_energy": 2.22, 
			 "cosmo_total_nonelectrostatic_energy": 13.5, 
			 "SMD_solvation_energy": 6.12 
		},
		"coords": [
			{
				"x": 2.8099160552,
				"y": -1.4029366792,
				"z": -2.8473428901,
				"element": "C" 
			},
			{
				"x": 1.9672944133,
				"y": -2.0299175862,
				"z": -1.726814282,
				"element": "C" 
			},
			{
				"x": 2.4444100636,
				"y": -1.5158472605,
				"z": -0.3271705389,
				"element": "C" 
			},
			{
				"x": 1.5296773071,
				"y": -0.4663069348,
				"z": 0.344126447,
				"element": "C" 
			},
			{
				"x": 0.8992413224,
				"y": 0.4876539164,
				"z": -0.6845842619,
				"element": "C" 
			},
			{
				"x": 0.0258111306,
				"y": -0.2888085587,
				"z": -1.7294299885,
				"element": "C" 
			},
			{
				"x": -1.497864785,
				"y": -0.1060705425,
				"z": -1.4877743754,
				"element": "C" 
			},
			{
				"x": -1.8855558002,
				"y": 0.0494862564,
				"z": -0.0074654846,
				"element": "C" 
			},
			{
				"x": -1.1538767013,
				"y": 1.2127813359,
				"z": 0.6302665964,
				"element": "C" 
			},
			{
				"x": -1.6348705125,
				"y": 1.8277194727,
				"z": 1.7373772233,
				"element": "C" 
			},
			{
				"x": -2.7407886018,
				"y": 1.4226324823,
				"z": 2.4287963332,
				"element": "O" 
			},
			{
				"x": -1.042688641,
				"y": 3.0799676948,
				"z": 2.2856972407,
				"element": "C" 
			},
			{
				"x": -1.4872905152,
				"y": 3.6184150892,
				"z": 3.2849203811,
				"element": "O" 
			},
			{
				"x": 0.1047963137,
				"y": 3.6711469515,
				"z": 1.4796840173,
				"element": "C" 
			},
			{
				"x": 0.9612023918,
				"y": 2.5808160476,
				"z": 0.8312127085,
				"element": "C" 
			},
			{
				"x": 0.1089446191,
				"y": 1.6777761696,
				"z": -0.0714295948,
				"element": "C" 
			},
			{
				"x": 0.444516532,
				"y": -1.7772291617,
				"z": -1.8946370434,
				"element": "C" 
			},
			{
				"x": -0.2116454868,
				"y": -2.8562133713,
				"z": -0.9870959603,
				"element": "C" 
			},
			{
				"x": 0.7860169695,
				"y": -4.0488488727,
				"z": -0.973734912,
				"element": "C" 
			},
			{
				"x": 2.0427373184,
				"y": -3.5848047661,
				"z": -1.7533834746,
				"element": "C" 
			},
			{
				"x": 2.0826615081,
				"y": -4.1284270724,
				"z": -3.0727561472,
				"element": "O" 
			},
			{
				"x": 2.7437186968,
				"y": -0.3102402686,
				"z": -2.8390221816,
				"element": "H" 
			},
			{
				"x": 3.8659980992,
				"y": -1.6696603391,
				"z": -2.7293041384,
				"element": "H" 
			},
			{
				"x": 2.4943594447,
				"y": -1.7596515306,
				"z": -3.8309014899,
				"element": "H" 
			},
			{
				"x": 2.5720826402,
				"y": -2.3578279081,
				"z": 0.3638058133,
				"element": "H" 
			},
			{
				"x": 3.4449289143,
				"y": -1.0845993498,
				"z": -0.4489580763,
				"element": "H" 
			},
			{
				"x": 2.1277227924,
				"y": 0.0955297769,
				"z": 1.0682840486,
				"element": "H" 
			},
			{
				"x": 0.7447739271,
				"y": -0.9565627351,
				"z": 0.9302470945,
				"element": "H" 
			},
			{
				"x": 1.7350572735,
				"y": 0.9439251117,
				"z": -1.2322986082,
				"element": "H" 
			},
			{
				"x": 0.2309547796,
				"y": 0.1781905401,
				"z": -2.7003901585,
				"element": "H" 
			},
			{
				"x": -1.8394339287,
				"y": 0.7922301722,
				"z": -2.0152172752,
				"element": "H" 
			},
			{
				"x": -2.0515407102,
				"y": -0.9407263587,
				"z": -1.9305053875,
				"element": "H" 
			},
			{
				"x": -2.9725314219,
				"y": 0.2035775059,
				"z": 0.0603725575,
				"element": "H" 
			},
			{
				"x": -1.6781630085,
				"y": -0.8842319731,
				"z": 0.5349013764,
				"element": "H" 
			},
			{
				"x": -3.0320222637,
				"y": 0.5675361407,
				"z": 2.0882733027,
				"element": "H" 
			},
			{
				"x": -0.3341622381,
				"y": 4.3160707066,
				"z": 0.7034710071,
				"element": "H" 
			},
			{
				"x": 0.6831195765,
				"y": 4.3189894481,
				"z": 2.1440129012,
				"element": "H" 
			},
			{
				"x": 1.4235261537,
				"y": 1.9837573424,
				"z": 1.6253037192,
				"element": "H" 
			},
			{
				"x": 1.7779455988,
				"y": 3.0256937918,
				"z": 0.2504602139,
				"element": "H" 
			},
			{
				"x": -0.2031873726,
				"y": 2.2967649007,
				"z": -0.9319497104,
				"element": "H" 
			},
			{
				"x": 0.1818707585,
				"y": -2.0474143294,
				"z": -2.929911815,
				"element": "H" 
			},
			{
				"x": -1.19931404,
				"y": -3.1491599901,
				"z": -1.3561818715,
				"element": "H" 
			},
			{
				"x": -0.3599978307,
				"y": -2.4881537703,
				"z": 0.0299765021,
				"element": "H" 
			},
			{
				"x": 0.3842867117,
				"y": -4.9476196243,
				"z": -1.4514322638,
				"element": "H" 
			},
			{
				"x": 1.0402625799,
				"y": -4.332333968,
				"z": 0.0522224742,
				"element": "H" 
			},
			{
				"x": 2.970969453,
				"y": -3.938390814,
				"z": -1.2926126658,
				"element": "H" 
			},
			{
				"x": 1.2413305135,
				"y": -3.9320770884,
				"z": -3.5057073625,
				"element": "H" 
			}
		],
		 "valence_orbital": [ 
			{
				"type": "occ",
				"energy": -0.29635,
				"method": "rhf"
			},
			{
				"type": "occ",
				"energy": -0.28788,
				"method": "rhf"
			},
			{
				"type": "occ",
				"energy": -0.2582,
				"method": "rhf"
			},
			{
				"type": "occ",
				"energy": -0.23489,
				"method": "rhf"
			},
			{
				"type": "occ",
				"energy": -0.22306,
				"method": "rhf"
			},
			{
				"type": "unocc",
				"energy": -0.0394,
				"method": "rhf"
			},
			{
				"type": "unocc",
				"energy": 0.04638,
				"method": "rhf"
			},
			{
				"type": "unocc",
				"energy": 0.05753,
				"method": "rhf"
			},
			{
				"type": "unocc",
				"energy": 0.06419,
				"method": "rhf"
			},
			{
				"type": "unocc",
				"energy": 0.07352,
				"method": "rhf"
			}
		],
		"cosmo_sigma_profile": { 
			"-0.025": 0.0,
			"-0.024": 0.0,
			"-0.023": 0.0,
			"-0.022": 0.0,
			"-0.021": 0.0,
			"-0.02": 0.0,
			"-0.019": 0.0,
			"-0.018": 0.0,
			"-0.017": 0.0,
			"-0.016": 0.454956841806,
			"-0.015": 0.866142692482,
			"-0.014": 1.06783013103,
			"-0.013": 1.908385203,
			"-0.012": 1.90254104028,
			"-0.011": 1.70189069047,
			"-0.01": 1.97693207002,
			"-0.009": 2.8214594182,
			"-0.008": 1.85450247591,
			"-0.007": 2.19976867189,
			"-0.006": 3.52403989294,
			"-0.005": 8.45098202392,
			"-0.004": 15.9774380651,
			"-0.003": 38.8081375155,
			"-0.002": 57.0851353626,
			"-0.001": 50.9942439113,
			"0.0": 32.246305495,
			"0.001": 23.0694584868,
			"0.002": 13.1829012528,
			"0.003": 4.70725009049,
			"0.004": 4.6795257222,
			"0.005": 3.77754172363,
			"0.006": 2.67133138607,
			"0.007": 3.27897202183,
			"0.008": 3.0050174622,
			"0.009": 3.35184427448,
			"0.01": 4.44273657538,
			"0.011": 4.17008411719,
			"0.012": 6.46094561906,
			"0.013": 5.67840086662,
			"0.014": 5.59217968117,
			"0.015": 3.35348788236,
			"0.016": 1.23576929353,
			"0.017": 0.152577897731,
			"0.018": 0.0,
			"0.019": 0.0,
			"0.02": 0.0,
			"0.021": 0.0,
			"0.022": 0.0,
			"0.023": 0.0,
			"0.024": 0.0,
			"0.025": 0.0
		}
	}
}
