{
	 "smiles": "CCCCCC(=O)C1=CC=CC=C1", 
	 "Tm": 300.15, 
	 "num_atms": 29, 
	 "gaussian": { 
		 "optdone": 1, 
		 "sigma_profile": "yes", 
		 "theory": "DFT", 
		 "functional": "B3LYP", 
		 "basiset": "6-31G**", 
		 "properties": { 
			 "R2extent": 3287.5886, 
			 "electric_dipole_moment_norm": 2.81635910175, 
			 "electric_quadrupole_moment_norm": 9.87558976517, 
			 "total_energy": -542.160070837, 
			 "HOMO_LUMO_gap": 0.18728, 
			 "cosmo_polarized_energy": -7.82, 
			 "cosmo_cavitation_energy": 31.39, 
			 "cosmo_dispersion_energy": -21.93, 
			 "cosmo_repulsion_energy": 1.77, 
			 "cosmo_total_nonelectrostatic_energy": 11.23, 
			 "SMD_solvation_energy": 5.41 
		},
		"coords": [
			{
				"x": 0.5833430364,
				"y": 3.2286704086,
				"z": 1.8867431009,
				"element": "C" 
			},
			{
				"x": 0.6699623298,
				"y": 3.7859718851,
				"z": 0.4604618643,
				"element": "C" 
			},
			{
				"x": 0.2311344522,
				"y": 2.8026763161,
				"z": -0.637250885,
				"element": "C" 
			},
			{
				"x": 1.1533906095,
				"y": 1.584994245,
				"z": -0.7932499626,
				"element": "C" 
			},
			{
				"x": 0.7466372024,
				"y": 0.6446070055,
				"z": -1.9533802633,
				"element": "C" 
			},
			{
				"x": -0.6104863461,
				"y": -0.0117778902,
				"z": -1.7320613561,
				"element": "C" 
			},
			{
				"x": -1.6113925665,
				"y": 0.4556882442,
				"z": -2.2588337606,
				"element": "O" 
			},
			{
				"x": -0.7212796119,
				"y": -1.2122637329,
				"z": -0.8348889732,
				"element": "C" 
			},
			{
				"x": -2.0040735201,
				"y": -1.7307241156,
				"z": -0.5916886534,
				"element": "C" 
			},
			{
				"x": -2.1756657353,
				"y": -2.8421202475,
				"z": 0.2270944828,
				"element": "C" 
			},
			{
				"x": -1.0650266226,
				"y": -3.4538604356,
				"z": 0.8172371132,
				"element": "C" 
			},
			{
				"x": 0.2148554362,
				"y": -2.9485493658,
				"z": 0.5831664175,
				"element": "C" 
			},
			{
				"x": 0.386940648,
				"y": -1.8341335154,
				"z": -0.2386230737,
				"element": "C" 
			},
			{
				"x": 0.8529694145,
				"y": 3.9917777063,
				"z": 2.6243137011,
				"element": "H" 
			},
			{
				"x": 1.2560984291,
				"y": 2.3779286723,
				"z": 2.0375515444,
				"element": "H" 
			},
			{
				"x": -0.433811597,
				"y": 2.8900864104,
				"z": 2.115670377,
				"element": "H" 
			},
			{
				"x": 0.0427308497,
				"y": 4.6837019463,
				"z": 0.3921178967,
				"element": "H" 
			},
			{
				"x": 1.6976032018,
				"y": 4.1197315589,
				"z": 0.2594256745,
				"element": "H" 
			},
			{
				"x": 0.1896461345,
				"y": 3.3341076016,
				"z": -1.5970416454,
				"element": "H" 
			},
			{
				"x": -0.7948603561,
				"y": 2.4682968562,
				"z": -0.437495604,
				"element": "H" 
			},
			{
				"x": 2.1782930999,
				"y": 1.9311556387,
				"z": -0.9814599557,
				"element": "H" 
			},
			{
				"x": 1.1884851494,
				"y": 1.0140469787,
				"z": 0.1420171711,
				"element": "H" 
			},
			{
				"x": 1.5219163416,
				"y": -0.1156845363,
				"z": -2.0985198915,
				"element": "H" 
			},
			{
				"x": 0.6650845037,
				"y": 1.2194974783,
				"z": -2.8805828022,
				"element": "H" 
			},
			{
				"x": -2.8488313959,
				"y": -1.2390068708,
				"z": -1.0622919982,
				"element": "H" 
			},
			{
				"x": -3.1723062404,
				"y": -3.2345109044,
				"z": 0.4077350487,
				"element": "H" 
			},
			{
				"x": -1.1974871786,
				"y": -4.3221438101,
				"z": 1.4565912532,
				"element": "H" 
			},
			{
				"x": 1.0794474214,
				"y": -3.4224552128,
				"z": 1.0387239792,
				"element": "H" 
			},
			{
				"x": 1.3887829104,
				"y": -1.455708315,
				"z": -0.4118807994,
				"element": "H" 
			}
		],
		 "valence_orbital": [ 
			{
				"type": "occ",
				"energy": -0.31978,
				"method": "rhf"
			},
			{
				"type": "occ",
				"energy": -0.31435,
				"method": "rhf"
			},
			{
				"type": "occ",
				"energy": -0.26025,
				"method": "rhf"
			},
			{
				"type": "occ",
				"energy": -0.25672,
				"method": "rhf"
			},
			{
				"type": "occ",
				"energy": -0.24172,
				"method": "rhf"
			},
			{
				"type": "unocc",
				"energy": -0.05444,
				"method": "rhf"
			},
			{
				"type": "unocc",
				"energy": -0.00928,
				"method": "rhf"
			},
			{
				"type": "unocc",
				"energy": 0.03945,
				"method": "rhf"
			},
			{
				"type": "unocc",
				"energy": 0.08504,
				"method": "rhf"
			},
			{
				"type": "unocc",
				"energy": 0.09569,
				"method": "rhf"
			}
		],
		"cosmo_sigma_profile": { 
			"-0.025": 0.0,
			"-0.024": 0.0,
			"-0.023": 0.0,
			"-0.022": 0.0,
			"-0.021": 0.0,
			"-0.02": 0.0,
			"-0.019": 0.0,
			"-0.018": 0.0,
			"-0.017": 0.0,
			"-0.016": 0.0,
			"-0.015": 0.0,
			"-0.014": 0.0,
			"-0.013": 0.0,
			"-0.012": 0.0,
			"-0.011": 0.0,
			"-0.01": 0.0,
			"-0.009": 0.0,
			"-0.008": 0.0845737449639,
			"-0.007": 2.35719208651,
			"-0.006": 9.0636508183,
			"-0.005": 12.2658637659,
			"-0.004": 14.5680567882,
			"-0.003": 19.5951069933,
			"-0.002": 33.8440761959,
			"-0.001": 33.8695838666,
			"0.0": 29.6974751204,
			"0.001": 25.4662855697,
			"0.002": 17.1546634734,
			"0.003": 11.4100813791,
			"0.004": 14.1297439056,
			"0.005": 5.45787211044,
			"0.006": 2.44101808373,
			"0.007": 1.30012388279,
			"0.008": 1.34129624232,
			"0.009": 2.25015551098,
			"0.01": 1.64603910276,
			"0.011": 2.4159340135,
			"0.012": 3.78062313143,
			"0.013": 1.97057174784,
			"0.014": 0.345034354439,
			"0.015": 0.0,
			"0.016": 0.0,
			"0.017": 0.0,
			"0.018": 0.0,
			"0.019": 0.0,
			"0.02": 0.0,
			"0.021": 0.0,
			"0.022": 0.0,
			"0.023": 0.0,
			"0.024": 0.0,
			"0.025": 0.0
		}
	}
}
