{
	 "smiles": "CC1=CC=C(SC2=CC=C(C=CC(O)=O)C=C2[N+]([O-])=O)C=C1", 
	 "Tm": 491.15, 
	 "num_atms": 35, 
	 "gaussian": { 
		 "optdone": 1, 
		 "sigma_profile": "yes", 
		 "theory": "DFT", 
		 "functional": "B3LYP", 
		 "basiset": "6-31G**", 
		 "properties": { 
			 "R2extent": 9509.2831, 
			 "electric_dipole_moment_norm": 3.39788721708, 
			 "electric_quadrupole_moment_norm": 32.7793520883, 
			 "total_energy": -1371.2582995, 
			 "HOMO_LUMO_gap": 0.13371, 
			 "cosmo_polarized_energy": -17.55, 
			 "cosmo_cavitation_energy": 42.47, 
			 "cosmo_dispersion_energy": -29.15, 
			 "cosmo_repulsion_energy": 2.2, 
			 "cosmo_total_nonelectrostatic_energy": 15.52, 
			 "SMD_solvation_energy": 10.19 
		},
		"coords": [
			{
				"x": 4.7808982503,
				"y": -0.4798772341,
				"z": 1.2507917403,
				"element": "C" 
			},
			{
				"x": 3.2903585343,
				"y": -0.2787489929,
				"z": 1.384214574,
				"element": "C" 
			},
			{
				"x": 2.3913024515,
				"y": -1.0539953837,
				"z": 0.6366768449,
				"element": "C" 
			},
			{
				"x": 1.0143730022,
				"y": -0.9022085308,
				"z": 0.7795994462,
				"element": "C" 
			},
			{
				"x": 0.5060720972,
				"y": 0.0600914233,
				"z": 1.6617643949,
				"element": "C" 
			},
			{
				"x": -1.2576091605,
				"y": 0.2236888961,
				"z": 1.9442522645,
				"element": "S" 
			},
			{
				"x": -1.9489087304,
				"y": 0.5062238524,
				"z": 0.3246286522,
				"element": "C" 
			},
			{
				"x": -3.1164716885,
				"y": -0.215828754,
				"z": 0.0265820994,
				"element": "C" 
			},
			{
				"x": -3.7728252509,
				"y": -0.0730144231,
				"z": -1.1886286306,
				"element": "C" 
			},
			{
				"x": -3.25529063,
				"y": 0.7446652402,
				"z": -2.2110627972,
				"element": "C" 
			},
			{
				"x": -4.0103038032,
				"y": 0.8329119597,
				"z": -3.4692978329,
				"element": "C" 
			},
			{
				"x": -3.6686831522,
				"y": 1.1039837865,
				"z": -4.7468857156,
				"element": "C" 
			},
			{
				"x": -2.361903448,
				"y": 1.3317394155,
				"z": -5.4006087989,
				"element": "C" 
			},
			{
				"x": -1.2740387954,
				"y": 1.040199501,
				"z": -4.6469188513,
				"element": "O" 
			},
			{
				"x": -2.2659635666,
				"y": 1.7167627565,
				"z": -6.5498390481,
				"element": "O" 
			},
			{
				"x": -2.09356514,
				"y": 1.474288849,
				"z": -1.9241363913,
				"element": "C" 
			},
			{
				"x": -1.4809938032,
				"y": 1.3795389056,
				"z": -0.6781416612,
				"element": "C" 
			},
			{
				"x": -0.3494518326,
				"y": 2.3044621222,
				"z": -0.4676534999,
				"element": "N" 
			},
			{
				"x": -0.2133203408,
				"y": 2.8026215856,
				"z": 0.6456688143,
				"element": "O" 
			},
			{
				"x": 0.359310923,
				"y": 2.5545733484,
				"z": -1.44222653,
				"element": "O" 
			},
			{
				"x": 1.3882422192,
				"y": 0.8505552946,
				"z": 2.4048163803,
				"element": "C" 
			},
			{
				"x": 2.7647398929,
				"y": 0.6695430409,
				"z": 2.2700748078,
				"element": "C" 
			},
			{
				"x": 5.3344284489,
				"y": 0.405871483,
				"z": 1.5747902848,
				"element": "H" 
			},
			{
				"x": 5.1221789365,
				"y": -1.3228021867,
				"z": 1.8648222813,
				"element": "H" 
			},
			{
				"x": 5.0643190598,
				"y": -0.6977491529,
				"z": 0.2164233566,
				"element": "H" 
			},
			{
				"x": 2.7745673291,
				"y": -1.7960152788,
				"z": -0.0594777936,
				"element": "H" 
			},
			{
				"x": 0.3357396652,
				"y": -1.5270829838,
				"z": 0.2072697297,
				"element": "H" 
			},
			{
				"x": -3.4991763853,
				"y": -0.9087235145,
				"z": 0.7689356806,
				"element": "H" 
			},
			{
				"x": -4.684886091,
				"y": -0.6362739269,
				"z": -1.3666156497,
				"element": "H" 
			},
			{
				"x": -5.0725744606,
				"y": 0.6324189354,
				"z": -3.3279911399,
				"element": "H" 
			},
			{
				"x": -4.4719492721,
				"y": 1.1519492381,
				"z": -5.475386691,
				"element": "H" 
			},
			{
				"x": -0.5018127252,
				"y": 1.2288505999,
				"z": -5.2061989142,
				"element": "H" 
			},
			{
				"x": -1.6614837171,
				"y": 2.1438923762,
				"z": -2.6521591503,
				"element": "H" 
			},
			{
				"x": 0.9983373324,
				"y": 1.6132808855,
				"z": 3.0700473133,
				"element": "H" 
			},
			{
				"x": 3.4407438513,
				"y": 1.2919068666,
				"z": 2.8506704307,
				"element": "H" 
			}
		],
		 "valence_orbital": [ 
			{
				"type": "occ",
				"energy": -0.27973,
				"method": "rhf"
			},
			{
				"type": "occ",
				"energy": -0.27128,
				"method": "rhf"
			},
			{
				"type": "occ",
				"energy": -0.2587,
				"method": "rhf"
			},
			{
				"type": "occ",
				"energy": -0.25405,
				"method": "rhf"
			},
			{
				"type": "occ",
				"energy": -0.2226,
				"method": "rhf"
			},
			{
				"type": "unocc",
				"energy": -0.08889,
				"method": "rhf"
			},
			{
				"type": "unocc",
				"energy": -0.07752,
				"method": "rhf"
			},
			{
				"type": "unocc",
				"energy": -0.02218,
				"method": "rhf"
			},
			{
				"type": "unocc",
				"energy": -0.01925,
				"method": "rhf"
			},
			{
				"type": "unocc",
				"energy": -0.01065,
				"method": "rhf"
			}
		],
		"cosmo_sigma_profile": { 
			"-0.025": 0.0,
			"-0.024": 0.0,
			"-0.023": 0.0,
			"-0.022": 0.0,
			"-0.021": 0.0,
			"-0.02": 0.0,
			"-0.019": 0.00957196183529,
			"-0.018": 0.620693601956,
			"-0.017": 0.918449728647,
			"-0.016": 1.04473496267,
			"-0.015": 0.472419571692,
			"-0.014": 1.12523165294,
			"-0.013": 0.776837911898,
			"-0.012": 0.192271393366,
			"-0.011": 0.638739228206,
			"-0.01": 1.22522913029,
			"-0.009": 1.29839402597,
			"-0.008": 6.32706496257,
			"-0.007": 11.3509968172,
			"-0.006": 16.8406483955,
			"-0.005": 20.3509268636,
			"-0.004": 24.1690270324,
			"-0.003": 21.6468170382,
			"-0.002": 26.4799722774,
			"-0.001": 28.8173730863,
			"0.0": 31.6019350725,
			"0.001": 26.3948711037,
			"0.002": 19.2787456132,
			"0.003": 17.9513709332,
			"0.004": 16.6917543023,
			"0.005": 14.5829483194,
			"0.006": 9.61505584873,
			"0.007": 11.6519582943,
			"0.008": 9.4194186294,
			"0.009": 6.43656159089,
			"0.01": 3.91507875852,
			"0.011": 4.095469997,
			"0.012": 4.63748497992,
			"0.013": 0.961886045208,
			"0.014": 0.0,
			"0.015": 0.0,
			"0.016": 0.0,
			"0.017": 0.0,
			"0.018": 0.0,
			"0.019": 0.0,
			"0.02": 0.0,
			"0.021": 0.0,
			"0.022": 0.0,
			"0.023": 0.0,
			"0.024": 0.0,
			"0.025": 0.0
		}
	}
}
