{
	 "smiles": "C=CC1=CC(C=C)=CC=C1", 
	 "Tm": 220.85, 
	 "num_atms": 20, 
	 "gaussian": { 
		 "optdone": 1, 
		 "sigma_profile": "yes", 
		 "theory": "DFT", 
		 "functional": "B3LYP", 
		 "basiset": "6-31G**", 
		 "properties": { 
			 "R2extent": 1865.3423, 
			 "electric_dipole_moment_norm": 0.163503210978, 
			 "electric_quadrupole_moment_norm": 9.10032633481, 
			 "total_energy": -387.054909528, 
			 "HOMO_LUMO_gap": 0.18044, 
			 "cosmo_polarized_energy": -4.85, 
			 "cosmo_cavitation_energy": 23.97, 
			 "cosmo_dispersion_energy": -17.17, 
			 "cosmo_repulsion_energy": 1.36, 
			 "cosmo_total_nonelectrostatic_energy": 8.16, 
			 "SMD_solvation_energy": 5.39 
		},
		"coords": [
			{
				"x": -1.8643686598,
				"y": -2.6061010574,
				"z": 0.3233525468,
				"element": "C" 
			},
			{
				"x": -0.6087892212,
				"y": -2.1434143363,
				"z": 0.2862141343,
				"element": "C" 
			},
			{
				"x": -0.165984218,
				"y": -0.739024406,
				"z": 0.3127065297,
				"element": "C" 
			},
			{
				"x": -1.0569987447,
				"y": 0.3452272549,
				"z": 0.3872422509,
				"element": "C" 
			},
			{
				"x": -0.6145750391,
				"y": 1.6737963406,
				"z": 0.411087882,
				"element": "C" 
			},
			{
				"x": -1.6156840239,
				"y": 2.7515066237,
				"z": 0.4903029899,
				"element": "C" 
			},
			{
				"x": -1.3932687863,
				"y": 4.071035415,
				"z": 0.5228016688,
				"element": "C" 
			},
			{
				"x": 0.7724271784,
				"y": 1.9175883808,
				"z": 0.3581401969,
				"element": "C" 
			},
			{
				"x": 1.6694434037,
				"y": 0.858628948,
				"z": 0.2843334696,
				"element": "C" 
			},
			{
				"x": 1.2082961532,
				"y": -0.4591423476,
				"z": 0.261652401,
				"element": "C" 
			},
			{
				"x": -2.065205204,
				"y": -3.6720706887,
				"z": 0.2976523746,
				"element": "H" 
			},
			{
				"x": -2.731871752,
				"y": -1.9551709776,
				"z": 0.3798465478,
				"element": "H" 
			},
			{
				"x": 0.2019601829,
				"y": -2.8693177936,
				"z": 0.22933633,
				"element": "H" 
			},
			{
				"x": -2.1262495948,
				"y": 0.1566824534,
				"z": 0.4283337681,
				"element": "H" 
			},
			{
				"x": -2.6485225681,
				"y": 2.4057778255,
				"z": 0.5251342951,
				"element": "H" 
			},
			{
				"x": -0.3970904111,
				"y": 4.5024576442,
				"z": 0.4922627959,
				"element": "H" 
			},
			{
				"x": -2.218564438,
				"y": 4.7729369053,
				"z": 0.5821014329,
				"element": "H" 
			},
			{
				"x": 1.1462674834,
				"y": 2.9363721925,
				"z": 0.3750427184,
				"element": "H" 
			},
			{
				"x": 2.7367768533,
				"y": 1.0570391526,
				"z": 0.2440508189,
				"element": "H" 
			},
			{
				"x": 1.9178014062,
				"y": -1.2806075293,
				"z": 0.2038048481,
				"element": "H" 
			}
		],
		 "valence_orbital": [ 
			{
				"type": "occ",
				"energy": -0.33531,
				"method": "rhf"
			},
			{
				"type": "occ",
				"energy": -0.31441,
				"method": "rhf"
			},
			{
				"type": "occ",
				"energy": -0.28332,
				"method": "rhf"
			},
			{
				"type": "occ",
				"energy": -0.23197,
				"method": "rhf"
			},
			{
				"type": "occ",
				"energy": -0.21869,
				"method": "rhf"
			},
			{
				"type": "unocc",
				"energy": -0.03825,
				"method": "rhf"
			},
			{
				"type": "unocc",
				"energy": -0.02385,
				"method": "rhf"
			},
			{
				"type": "unocc",
				"energy": 0.03853,
				"method": "rhf"
			},
			{
				"type": "unocc",
				"energy": 0.08413,
				"method": "rhf"
			},
			{
				"type": "unocc",
				"energy": 0.09523,
				"method": "rhf"
			}
		],
		"cosmo_sigma_profile": { 
			"-0.025": 0.0,
			"-0.024": 0.0,
			"-0.023": 0.0,
			"-0.022": 0.0,
			"-0.021": 0.0,
			"-0.02": 0.0,
			"-0.019": 0.0,
			"-0.018": 0.0,
			"-0.017": 0.0,
			"-0.016": 0.0,
			"-0.015": 0.0,
			"-0.014": 0.0,
			"-0.013": 0.0,
			"-0.012": 0.0,
			"-0.011": 0.0,
			"-0.01": 0.0,
			"-0.009": 0.0,
			"-0.008": 0.000310233696212,
			"-0.007": 1.93987004744,
			"-0.006": 10.7231437608,
			"-0.005": 17.778902945,
			"-0.004": 17.530159102,
			"-0.003": 15.4396318218,
			"-0.002": 12.9061334278,
			"-0.001": 15.3595254094,
			"0.0": 11.6604100903,
			"0.001": 11.3441136737,
			"0.002": 12.9817336927,
			"0.003": 14.9417887573,
			"0.004": 20.393735882,
			"0.005": 19.1754499163,
			"0.006": 7.65052165434,
			"0.007": 2.08498765036,
			"0.008": 0.0,
			"0.009": 0.0,
			"0.01": 0.0,
			"0.011": 0.0,
			"0.012": 0.0,
			"0.013": 0.0,
			"0.014": 0.0,
			"0.015": 0.0,
			"0.016": 0.0,
			"0.017": 0.0,
			"0.018": 0.0,
			"0.019": 0.0,
			"0.02": 0.0,
			"0.021": 0.0,
			"0.022": 0.0,
			"0.023": 0.0,
			"0.024": 0.0,
			"0.025": 0.0
		}
	}
}
