{
	 "smiles": "CC(C)(C)OC(=O)NC1=CC=C(CC(=O)N2CCNCC2)C=C1", 
	 "Tm": 443.15, 
	 "num_atms": 48, 
	 "gaussian": { 
		 "optdone": 1, 
		 "sigma_profile": "yes", 
		 "theory": "DFT", 
		 "functional": "B3LYP", 
		 "basiset": "6-31G**", 
		 "properties": { 
			 "R2extent": 12719.5047, 
			 "electric_dipole_moment_norm": 4.27294327016, 
			 "electric_quadrupole_moment_norm": 21.642725339, 
			 "total_energy": -1052.84307215, 
			 "HOMO_LUMO_gap": 0.20532, 
			 "cosmo_polarized_energy": -19.55, 
			 "cosmo_cavitation_energy": 48.73, 
			 "cosmo_dispersion_energy": -33.6, 
			 "cosmo_repulsion_energy": 2.57, 
			 "cosmo_total_nonelectrostatic_energy": 17.7, 
			 "SMD_solvation_energy": 6.02 
		},
		"coords": [
			{
				"x": 2.1588769175,
				"y": 2.7973575721,
				"z": -3.0424071411,
				"element": "C" 
			},
			{
				"x": 3.0657975881,
				"y": 1.8938911996,
				"z": -2.2012051926,
				"element": "C" 
			},
			{
				"x": 3.3394922483,
				"y": 2.5219713612,
				"z": -0.832342186,
				"element": "C" 
			},
			{
				"x": 4.3774733557,
				"y": 1.5528966407,
				"z": -2.9149901866,
				"element": "C" 
			},
			{
				"x": 2.3486586315,
				"y": 0.6517249382,
				"z": -1.845146715,
				"element": "O" 
			},
			{
				"x": 1.9295062636,
				"y": -0.1946499328,
				"z": -2.803501982,
				"element": "C" 
			},
			{
				"x": 2.0757523791,
				"y": -0.054687981,
				"z": -4.0073504778,
				"element": "O" 
			},
			{
				"x": 1.2804938993,
				"y": -1.3027453916,
				"z": -2.2963033177,
				"element": "N" 
			},
			{
				"x": 0.9589087987,
				"y": -1.7522946026,
				"z": -0.9999685662,
				"element": "C" 
			},
			{
				"x": 0.2704570987,
				"y": -2.9767906486,
				"z": -0.9150033647,
				"element": "C" 
			},
			{
				"x": -0.0933125932,
				"y": -3.5112115679,
				"z": 0.313729364,
				"element": "C" 
			},
			{
				"x": 0.2159592013,
				"y": -2.8439499779,
				"z": 1.5082820455,
				"element": "C" 
			},
			{
				"x": -0.1710529634,
				"y": -3.4453837581,
				"z": 2.8496836187,
				"element": "C" 
			},
			{
				"x": -1.6630892141,
				"y": -3.7888051171,
				"z": 2.9092000525,
				"element": "C" 
			},
			{
				"x": -2.0437570206,
				"y": -4.9173567401,
				"z": 2.5991569849,
				"element": "O" 
			},
			{
				"x": -2.5427752291,
				"y": -2.8010567175,
				"z": 3.272841706,
				"element": "N" 
			},
			{
				"x": -3.9826898176,
				"y": -3.086634875,
				"z": 3.1838287258,
				"element": "C" 
			},
			{
				"x": -4.7126569785,
				"y": -1.8704842424,
				"z": 2.6087725582,
				"element": "C" 
			},
			{
				"x": -4.4956420961,
				"y": -0.6348768388,
				"z": 3.3855353788,
				"element": "N" 
			},
			{
				"x": -3.3133203703,
				"y": -0.6842636903,
				"z": 4.2509661304,
				"element": "C" 
			},
			{
				"x": -2.1654391423,
				"y": -1.4068919728,
				"z": 3.5480212308,
				"element": "C" 
			},
			{
				"x": 0.8970069621,
				"y": -1.627414998,
				"z": 1.415302064,
				"element": "C" 
			},
			{
				"x": 1.2712341581,
				"y": -1.0773144642,
				"z": 0.1877303837,
				"element": "C" 
			},
			{
				"x": 2.6513139742,
				"y": 3.7623672967,
				"z": -3.2003006515,
				"element": "H" 
			},
			{
				"x": 1.9472542832,
				"y": 2.3462706022,
				"z": -4.0117873571,
				"element": "H" 
			},
			{
				"x": 1.2142664012,
				"y": 2.9798574192,
				"z": -2.5203768049,
				"element": "H" 
			},
			{
				"x": 2.4029548742,
				"y": 2.7247589939,
				"z": -0.3044353118,
				"element": "H" 
			},
			{
				"x": 3.9505126209,
				"y": 1.8564400488,
				"z": -0.2154087812,
				"element": "H" 
			},
			{
				"x": 3.8767333221,
				"y": 3.4668500593,
				"z": -0.9559813943,
				"element": "H" 
			},
			{
				"x": 4.976695932,
				"y": 0.870560385,
				"z": -2.3038948923,
				"element": "H" 
			},
			{
				"x": 4.1874545891,
				"y": 1.0887728076,
				"z": -3.8826911564,
				"element": "H" 
			},
			{
				"x": 4.9572873736,
				"y": 2.4687622838,
				"z": -3.0687971255,
				"element": "H" 
			},
			{
				"x": 0.985907808,
				"y": -1.9061701114,
				"z": -3.0513275538,
				"element": "H" 
			},
			{
				"x": 0.0203267809,
				"y": -3.5135012014,
				"z": -1.8275441667,
				"element": "H" 
			},
			{
				"x": -0.6295987779,
				"y": -4.4547425335,
				"z": 0.3561505857,
				"element": "H" 
			},
			{
				"x": 0.1365830803,
				"y": -2.7771448986,
				"z": 3.6585940178,
				"element": "H" 
			},
			{
				"x": 0.3434939866,
				"y": -4.3993303975,
				"z": 2.9980231448,
				"element": "H" 
			},
			{
				"x": -4.3823892731,
				"y": -3.344154525,
				"z": 4.1748430581,
				"element": "H" 
			},
			{
				"x": -4.1013667099,
				"y": -3.9642493341,
				"z": 2.5464572793,
				"element": "H" 
			},
			{
				"x": -5.7856934624,
				"y": -2.081012762,
				"z": 2.5519913339,
				"element": "H" 
			},
			{
				"x": -4.3676671207,
				"y": -1.7174969502,
				"z": 1.5769168482,
				"element": "H" 
			},
			{
				"x": -5.3144637856,
				"y": -0.423653327,
				"z": 3.9448843809,
				"element": "H" 
			},
			{
				"x": -2.9915851533,
				"y": 0.3382447605,
				"z": 4.4828387584,
				"element": "H" 
			},
			{
				"x": -3.4936448351,
				"y": -1.189999175,
				"z": 5.2158600821,
				"element": "H" 
			},
			{
				"x": -1.9106551755,
				"y": -0.8768806544,
				"z": 2.6202272601,
				"element": "H" 
			},
			{
				"x": -1.2869145949,
				"y": -1.3772249052,
				"z": 4.1981021508,
				"element": "H" 
			},
			{
				"x": 1.1555573089,
				"y": -1.08830941,
				"z": 2.3238958513,
				"element": "H" 
			},
			{
				"x": 1.7988544762,
				"y": -0.1361426668,
				"z": 0.1537293309,
				"element": "H" 
			}
		],
		 "valence_orbital": [ 
			{
				"type": "occ",
				"energy": -0.25129,
				"method": "rhf"
			},
			{
				"type": "occ",
				"energy": -0.2422,
				"method": "rhf"
			},
			{
				"type": "occ",
				"energy": -0.2352,
				"method": "rhf"
			},
			{
				"type": "occ",
				"energy": -0.22057,
				"method": "rhf"
			},
			{
				"type": "occ",
				"energy": -0.21085,
				"method": "rhf"
			},
			{
				"type": "unocc",
				"energy": -0.00553,
				"method": "rhf"
			},
			{
				"type": "unocc",
				"energy": -0.00325,
				"method": "rhf"
			},
			{
				"type": "unocc",
				"energy": 0.03302,
				"method": "rhf"
			},
			{
				"type": "unocc",
				"energy": 0.06325,
				"method": "rhf"
			},
			{
				"type": "unocc",
				"energy": 0.0659,
				"method": "rhf"
			}
		],
		"cosmo_sigma_profile": { 
			"-0.025": 0.0,
			"-0.024": 0.0,
			"-0.023": 0.0,
			"-0.022": 0.0,
			"-0.021": 0.0,
			"-0.02": 0.0,
			"-0.019": 0.0,
			"-0.018": 0.0,
			"-0.017": 0.0,
			"-0.016": 0.0,
			"-0.015": 0.172394464196,
			"-0.014": 1.07269709955,
			"-0.013": 1.2270401231,
			"-0.012": 1.21866783762,
			"-0.011": 0.865565833494,
			"-0.01": 2.64511197009,
			"-0.009": 2.52859136875,
			"-0.008": 3.53863095951,
			"-0.007": 4.74253905156,
			"-0.006": 8.79194848194,
			"-0.005": 15.0372460872,
			"-0.004": 34.4541618286,
			"-0.003": 48.5465552411,
			"-0.002": 42.7154062088,
			"-0.001": 40.0543054962,
			"0.0": 38.4897726106,
			"0.001": 28.5230887224,
			"0.002": 17.5861593051,
			"0.003": 17.038818112,
			"0.004": 14.0196574453,
			"0.005": 14.2867487486,
			"0.006": 6.91812746874,
			"0.007": 3.12012961592,
			"0.008": 3.62904684907,
			"0.009": 3.62620522152,
			"0.01": 2.7860086277,
			"0.011": 3.53398889608,
			"0.012": 4.8852231425,
			"0.013": 6.15389822841,
			"0.014": 5.57991387397,
			"0.015": 1.7806293951,
			"0.016": 0.419359500571,
			"0.017": 0.706267684654,
			"0.018": 0.394318983778,
			"0.019": 0.00773676835149,
			"0.02": 0.0,
			"0.021": 0.0,
			"0.022": 0.0,
			"0.023": 0.0,
			"0.024": 0.0,
			"0.025": 0.0
		}
	}
}
