{
	 "smiles": "NC1=CC=CC=C1Br", 
	 "Tm": 303.65, 
	 "num_atms": 14, 
	 "gaussian": { 
		 "optdone": 1, 
		 "sigma_profile": "yes", 
		 "theory": "DFT", 
		 "functional": "B3LYP", 
		 "basiset": "6-31G**", 
		 "properties": { 
			 "R2extent": 4005.1763, 
			 "electric_dipole_moment_norm": 1.9320119306, 
			 "electric_quadrupole_moment_norm": 9.52813022161, 
			 "total_energy": -2858.41426867, 
			 "HOMO_LUMO_gap": 0.20134, 
			 "cosmo_polarized_energy": -6.95, 
			 "cosmo_cavitation_energy": 19.72, 
			 "cosmo_dispersion_energy": -15.46, 
			 "cosmo_repulsion_energy": 1.28, 
			 "cosmo_total_nonelectrostatic_energy": 5.54, 
			 "SMD_solvation_energy": 2.27 
		},
		"coords": [
			{
				"x": -0.738013054,
				"y": 1.4389721017,
				"z": -1.7430026727,
				"element": "N" 
			},
			{
				"x": -0.2300667493,
				"y": 0.1500950969,
				"z": -1.7572876521,
				"element": "C" 
			},
			{
				"x": 0.3666968202,
				"y": -0.4026080415,
				"z": -0.6062770275,
				"element": "C" 
			},
			{
				"x": 0.8313370166,
				"y": -1.712647983,
				"z": -0.5888120312,
				"element": "C" 
			},
			{
				"x": 0.7191608906,
				"y": -2.5224531451,
				"z": -1.721678529,
				"element": "C" 
			},
			{
				"x": 0.1355853971,
				"y": -1.9988504071,
				"z": -2.8744810496,
				"element": "C" 
			},
			{
				"x": -0.3257680487,
				"y": -0.6858575276,
				"z": -2.8860858078,
				"element": "C" 
			},
			{
				"x": -1.108883233,
				"y": 0.0037412762,
				"z": -4.4991058615,
				"element": "Br" 
			},
			{
				"x": -0.8852071986,
				"y": 1.861655128,
				"z": -2.64915331,
				"element": "H" 
			},
			{
				"x": -0.3276163745,
				"y": 2.0634273135,
				"z": -1.0643508256,
				"element": "H" 
			},
			{
				"x": 0.4513822409,
				"y": 0.2182669876,
				"z": 0.2822342169,
				"element": "H" 
			},
			{
				"x": 1.2851476831,
				"y": -2.102842551,
				"z": 0.3175555534,
				"element": "H" 
			},
			{
				"x": 1.0795306745,
				"y": -3.5458092228,
				"z": -1.7127429687,
				"element": "H" 
			},
			{
				"x": 0.0392139351,
				"y": -2.6017890258,
				"z": -3.7706120346,
				"element": "H" 
			}
		],
		 "valence_orbital": [ 
			{
				"type": "occ",
				"energy": -0.31633,
				"method": "rhf"
			},
			{
				"type": "occ",
				"energy": -0.30861,
				"method": "rhf"
			},
			{
				"type": "occ",
				"energy": -0.28915,
				"method": "rhf"
			},
			{
				"type": "occ",
				"energy": -0.24224,
				"method": "rhf"
			},
			{
				"type": "occ",
				"energy": -0.20721,
				"method": "rhf"
			},
			{
				"type": "unocc",
				"energy": -0.00587,
				"method": "rhf"
			},
			{
				"type": "unocc",
				"energy": 0.00946,
				"method": "rhf"
			},
			{
				"type": "unocc",
				"energy": 0.01117,
				"method": "rhf"
			},
			{
				"type": "unocc",
				"energy": 0.08562,
				"method": "rhf"
			},
			{
				"type": "unocc",
				"energy": 0.11014,
				"method": "rhf"
			}
		],
		"cosmo_sigma_profile": { 
			"-0.025": 0.0,
			"-0.024": 0.0,
			"-0.023": 0.0,
			"-0.022": 0.0,
			"-0.021": 0.0,
			"-0.02": 0.0,
			"-0.019": 0.0,
			"-0.018": 0.0,
			"-0.017": 0.0,
			"-0.016": 0.0,
			"-0.015": 0.0,
			"-0.014": 0.0307109176584,
			"-0.013": 1.02517062303,
			"-0.012": 1.65426378953,
			"-0.011": 1.5992673971,
			"-0.01": 2.36553496747,
			"-0.009": 3.23634735787,
			"-0.008": 2.10637440054,
			"-0.007": 2.75645192474,
			"-0.006": 7.12917050787,
			"-0.005": 9.62551506163,
			"-0.004": 9.95060543424,
			"-0.003": 10.0659398851,
			"-0.002": 8.98671666118,
			"-0.001": 8.83016458396,
			"0.0": 7.37340190555,
			"0.001": 10.3498974739,
			"0.002": 12.155027081,
			"0.003": 14.3943241886,
			"0.004": 18.4688615834,
			"0.005": 16.8181868552,
			"0.006": 6.85056919857,
			"0.007": 0.777883459955,
			"0.008": 1.00756153357,
			"0.009": 0.475332855881,
			"0.01": 0.966974071049,
			"0.011": 0.354629142119,
			"0.012": 0.77838126245,
			"0.013": 0.501441304713,
			"0.014": 0.0518618982182,
			"0.015": 0.0,
			"0.016": 0.0,
			"0.017": 0.0,
			"0.018": 0.0,
			"0.019": 0.0,
			"0.02": 0.0,
			"0.021": 0.0,
			"0.022": 0.0,
			"0.023": 0.0,
			"0.024": 0.0,
			"0.025": 0.0
		}
	}
}
