{
	 "smiles": "OC(C(O)=O)C(O)=O", 
	 "Tm": 430.15, 
	 "num_atms": 12, 
	 "gaussian": { 
		 "optdone": 1, 
		 "sigma_profile": "yes", 
		 "theory": "DFT", 
		 "functional": "B3LYP", 
		 "basiset": "6-31G**", 
		 "properties": { 
			 "R2extent": 1110.7078, 
			 "electric_dipole_moment_norm": 3.14582307989, 
			 "electric_quadrupole_moment_norm": 7.19848253662, 
			 "total_energy": -492.860112162, 
			 "HOMO_LUMO_gap": 0.25468, 
			 "cosmo_polarized_energy": -15.1, 
			 "cosmo_cavitation_energy": 16.78, 
			 "cosmo_dispersion_energy": -12.92, 
			 "cosmo_repulsion_energy": 1.1, 
			 "cosmo_total_nonelectrostatic_energy": 4.96, 
			 "SMD_solvation_energy": 5.71 
		},
		"coords": [
			{
				"x": -1.8179825442,
				"y": -1.2140333634,
				"z": 0.7527941797,
				"element": "O" 
			},
			{
				"x": -0.719493827,
				"y": -1.1390009994,
				"z": -0.0913110545,
				"element": "C" 
			},
			{
				"x": 0.3148457639,
				"y": -2.2412087093,
				"z": 0.2673664126,
				"element": "C" 
			},
			{
				"x": 1.4928344289,
				"y": -2.1900460385,
				"z": -0.3431498394,
				"element": "O" 
			},
			{
				"x": -0.0083368372,
				"y": -3.1154479959,
				"z": 1.040217783,
				"element": "O" 
			},
			{
				"x": -0.048076865,
				"y": 0.2298466302,
				"z": -0.1267698329,
				"element": "C" 
			},
			{
				"x": -0.6833193445,
				"y": 1.1848348165,
				"z": 0.5419071521,
				"element": "O" 
			},
			{
				"x": 0.9844175536,
				"y": 0.4152300558,
				"z": -0.7581023104,
				"element": "O" 
			},
			{
				"x": -1.6716896643,
				"y": -2.0191059929,
				"z": 1.2841178364,
				"element": "H" 
			},
			{
				"x": -1.0009186747,
				"y": -1.3303984081,
				"z": -1.1438758964,
				"element": "H" 
			},
			{
				"x": 1.5794115721,
				"y": -1.314820526,
				"z": -0.7875441818,
				"element": "H" 
			},
			{
				"x": -0.1683915616,
				"y": 2.0028505309,
				"z": 0.4252497516,
				"element": "H" 
			}
		],
		 "valence_orbital": [ 
			{
				"type": "occ",
				"energy": -0.35887,
				"method": "rhf"
			},
			{
				"type": "occ",
				"energy": -0.335,
				"method": "rhf"
			},
			{
				"type": "occ",
				"energy": -0.32855,
				"method": "rhf"
			},
			{
				"type": "occ",
				"energy": -0.30375,
				"method": "rhf"
			},
			{
				"type": "occ",
				"energy": -0.29023,
				"method": "rhf"
			},
			{
				"type": "unocc",
				"energy": -0.03555,
				"method": "rhf"
			},
			{
				"type": "unocc",
				"energy": -0.00483,
				"method": "rhf"
			},
			{
				"type": "unocc",
				"energy": 0.0476,
				"method": "rhf"
			},
			{
				"type": "unocc",
				"energy": 0.10151,
				"method": "rhf"
			},
			{
				"type": "unocc",
				"energy": 0.10561,
				"method": "rhf"
			}
		],
		"cosmo_sigma_profile": { 
			"-0.025": 0.0,
			"-0.024": 0.0,
			"-0.023": 0.0,
			"-0.022": 0.0,
			"-0.021": 0.0,
			"-0.02": 0.543208695641,
			"-0.019": 1.03022833781,
			"-0.018": 0.943183344354,
			"-0.017": 0.9002419438,
			"-0.016": 1.02678413063,
			"-0.015": 0.366504687121,
			"-0.014": 0.87489797041,
			"-0.013": 1.3607389982,
			"-0.012": 1.45056242403,
			"-0.011": 3.21901292392,
			"-0.01": 5.92433301795,
			"-0.009": 5.57047230711,
			"-0.008": 4.99736822043,
			"-0.007": 6.19704051936,
			"-0.006": 4.7451378221,
			"-0.005": 5.15121650346,
			"-0.004": 5.56163914458,
			"-0.003": 5.4455432109,
			"-0.002": 4.20428064814,
			"-0.001": 3.61473806112,
			"0.0": 3.92586726222,
			"0.001": 3.74997262674,
			"0.002": 5.1399548629,
			"0.003": 3.9523452503,
			"0.004": 4.56732501758,
			"0.005": 4.50697944769,
			"0.006": 5.14161256869,
			"0.007": 7.54745294505,
			"0.008": 6.18074829309,
			"0.009": 8.53325100544,
			"0.01": 7.93745782656,
			"0.011": 3.9157459802,
			"0.012": 3.44667351932,
			"0.013": 1.44730851639,
			"0.014": 0.0423200867708,
			"0.015": 0.0,
			"0.016": 0.0,
			"0.017": 0.0,
			"0.018": 0.0,
			"0.019": 0.0,
			"0.02": 0.0,
			"0.021": 0.0,
			"0.022": 0.0,
			"0.023": 0.0,
			"0.024": 0.0,
			"0.025": 0.0
		}
	}
}
