{
	 "smiles": "OC1(C2CCCC2=O)C(=O)NC2=CC=CC=C12", 
	 "Tm": 460.15, 
	 "num_atms": 30, 
	 "gaussian": { 
		 "optdone": 1, 
		 "sigma_profile": "yes", 
		 "theory": "DFT", 
		 "functional": "B3LYP", 
		 "basiset": "6-31G**", 
		 "properties": { 
			 "R2extent": 3583.8274, 
			 "electric_dipole_moment_norm": 5.04999386633, 
			 "electric_quadrupole_moment_norm": 13.9056640028, 
			 "total_energy": -783.643572891, 
			 "HOMO_LUMO_gap": 0.19016, 
			 "cosmo_polarized_energy": -20.91, 
			 "cosmo_cavitation_energy": 32.24, 
			 "cosmo_dispersion_energy": -22.59, 
			 "cosmo_repulsion_energy": 1.75, 
			 "cosmo_total_nonelectrostatic_energy": 11.41, 
			 "SMD_solvation_energy": 6.03 
		},
		"coords": [
			{
				"x": -0.4440355722,
				"y": -2.3681527352,
				"z": -0.6769545878,
				"element": "O" 
			},
			{
				"x": 0.2426674873,
				"y": -1.1482278211,
				"z": -0.4563095686,
				"element": "C" 
			},
			{
				"x": -0.815947912,
				"y": -0.0272740021,
				"z": -0.6226727116,
				"element": "C" 
			},
			{
				"x": -0.2654984498,
				"y": 1.4202966003,
				"z": -0.6623482008,
				"element": "C" 
			},
			{
				"x": -0.5780057661,
				"y": 2.0391453067,
				"z": 0.7207354832,
				"element": "C" 
			},
			{
				"x": -1.9108928865,
				"y": 1.3971291184,
				"z": 1.121549589,
				"element": "C" 
			},
			{
				"x": -1.859514646,
				"y": -0.0102768917,
				"z": 0.5218744568,
				"element": "C" 
			},
			{
				"x": -2.5258720352,
				"y": -0.9505075962,
				"z": 0.8934913411,
				"element": "O" 
			},
			{
				"x": 1.3502335491,
				"y": -0.9429647047,
				"z": -1.5505326087,
				"element": "C" 
			},
			{
				"x": 1.1928099789,
				"y": -0.928348286,
				"z": -2.7527492635,
				"element": "O" 
			},
			{
				"x": 2.5523660396,
				"y": -0.7766517994,
				"z": -0.8828053838,
				"element": "N" 
			},
			{
				"x": 2.4114319159,
				"y": -0.9069690107,
				"z": 0.5071683183,
				"element": "C" 
			},
			{
				"x": 3.3977490132,
				"y": -0.8608259717,
				"z": 1.4856164107,
				"element": "C" 
			},
			{
				"x": 3.0035238473,
				"y": -1.059939874,
				"z": 2.8153771485,
				"element": "C" 
			},
			{
				"x": 1.6694858979,
				"y": -1.3057076313,
				"z": 3.1466512008,
				"element": "C" 
			},
			{
				"x": 0.6869810916,
				"y": -1.3466626202,
				"z": 2.1463497772,
				"element": "C" 
			},
			{
				"x": 1.0601273542,
				"y": -1.1283571024,
				"z": 0.8253879879,
				"element": "C" 
			},
			{
				"x": 0.1134548744,
				"y": -3.091639002,
				"z": -0.3605716956,
				"element": "H" 
			},
			{
				"x": -1.3282601929,
				"y": -0.2891408656,
				"z": -1.5552418444,
				"element": "H" 
			},
			{
				"x": -0.7916376517,
				"y": 1.9788538906,
				"z": -1.4438141292,
				"element": "H" 
			},
			{
				"x": 0.7986788606,
				"y": 1.4746102014,
				"z": -0.9053590405,
				"element": "H" 
			},
			{
				"x": 0.1986372072,
				"y": 1.7614574513,
				"z": 1.4414769166,
				"element": "H" 
			},
			{
				"x": -0.6175046436,
				"y": 3.1313834439,
				"z": 0.6860376401,
				"element": "H" 
			},
			{
				"x": -2.7556243276,
				"y": 1.9199363006,
				"z": 0.6497364666,
				"element": "H" 
			},
			{
				"x": -2.1151899662,
				"y": 1.3543505588,
				"z": 2.1942903852,
				"element": "H" 
			},
			{
				"x": 3.4296606988,
				"y": -0.675633175,
				"z": -1.3729686009,
				"element": "H" 
			},
			{
				"x": 4.4387729622,
				"y": -0.6856102096,
				"z": 1.2313982861,
				"element": "H" 
			},
			{
				"x": 3.7554341809,
				"y": -1.0298810111,
				"z": 3.5986005118,
				"element": "H" 
			},
			{
				"x": 1.3913553025,
				"y": -1.4708646961,
				"z": 4.1827650835,
				"element": "H" 
			},
			{
				"x": -0.3496862118,
				"y": -1.5525278658,
				"z": 2.3936206322,
				"element": "H" 
			}
		],
		 "valence_orbital": [ 
			{
				"type": "occ",
				"energy": -0.30342,
				"method": "rhf"
			},
			{
				"type": "occ",
				"energy": -0.26636,
				"method": "rhf"
			},
			{
				"type": "occ",
				"energy": -0.25377,
				"method": "rhf"
			},
			{
				"type": "occ",
				"energy": -0.23129,
				"method": "rhf"
			},
			{
				"type": "occ",
				"energy": -0.22749,
				"method": "rhf"
			},
			{
				"type": "unocc",
				"energy": -0.03733,
				"method": "rhf"
			},
			{
				"type": "unocc",
				"energy": -0.0187,
				"method": "rhf"
			},
			{
				"type": "unocc",
				"energy": -0.01186,
				"method": "rhf"
			},
			{
				"type": "unocc",
				"energy": 0.03086,
				"method": "rhf"
			},
			{
				"type": "unocc",
				"energy": 0.08014,
				"method": "rhf"
			}
		],
		"cosmo_sigma_profile": { 
			"-0.025": 0.0,
			"-0.024": 0.0,
			"-0.023": 0.0,
			"-0.022": 0.0,
			"-0.021": 0.0,
			"-0.02": 0.0,
			"-0.019": 0.0,
			"-0.018": 0.0,
			"-0.017": 0.0675171408233,
			"-0.016": 1.56003534258,
			"-0.015": 2.5814058939,
			"-0.014": 2.23034196445,
			"-0.013": 1.64790642049,
			"-0.012": 2.05876379186,
			"-0.011": 2.27621082619,
			"-0.01": 2.26692402281,
			"-0.009": 2.20593272331,
			"-0.008": 1.83796215507,
			"-0.007": 4.44026556604,
			"-0.006": 11.9947658169,
			"-0.005": 15.9683107863,
			"-0.004": 20.3677549826,
			"-0.003": 21.4708219861,
			"-0.002": 25.1710161687,
			"-0.001": 23.5181274126,
			"0.0": 17.9299353136,
			"0.001": 11.1536680627,
			"0.002": 9.25212618394,
			"0.003": 10.2244932384,
			"0.004": 10.2535980174,
			"0.005": 8.19346967336,
			"0.006": 3.98199007078,
			"0.007": 2.60569561154,
			"0.008": 2.91991229765,
			"0.009": 4.64047775742,
			"0.01": 4.60304067523,
			"0.011": 6.32946996939,
			"0.012": 10.8065516601,
			"0.013": 6.6075388628,
			"0.014": 1.40286169109,
			"0.015": 0.99609880242,
			"0.016": 0.719714974719,
			"0.017": 0.0770870428031,
			"0.018": 0.0,
			"0.019": 0.0,
			"0.02": 0.0,
			"0.021": 0.0,
			"0.022": 0.0,
			"0.023": 0.0,
			"0.024": 0.0,
			"0.025": 0.0
		}
	}
}
