{
	 "smiles": "COC1=CC=C(SC2=NSC(N)=N2)C=C1", 
	 "Tm": 412.15, 
	 "num_atms": 24, 
	 "gaussian": { 
		 "optdone": 1, 
		 "sigma_profile": "yes", 
		 "theory": "DFT", 
		 "functional": "B3LYP", 
		 "basiset": "6-31G**", 
		 "properties": { 
			 "R2extent": 6770.1789, 
			 "electric_dipole_moment_norm": 5.84292877674, 
			 "electric_quadrupole_moment_norm": 28.4825383641, 
			 "total_energy": -1384.20952827, 
			 "HOMO_LUMO_gap": 0.19622, 
			 "cosmo_polarized_energy": -18.29, 
			 "cosmo_cavitation_energy": 32.47, 
			 "cosmo_dispersion_energy": -24.46, 
			 "cosmo_repulsion_energy": 1.86, 
			 "cosmo_total_nonelectrostatic_energy": 9.88, 
			 "SMD_solvation_energy": 3.1 
		},
		"coords": [
			{
				"x": -1.4690764726,
				"y": 0.3881944919,
				"z": 3.4149625451,
				"element": "C" 
			},
			{
				"x": -1.4787606783,
				"y": 1.3574215579,
				"z": 2.3780889265,
				"element": "O" 
			},
			{
				"x": -1.1059712281,
				"y": 0.9697613825,
				"z": 1.1260434764,
				"element": "C" 
			},
			{
				"x": -0.7002973113,
				"y": -0.3253970583,
				"z": 0.781927928,
				"element": "C" 
			},
			{
				"x": -0.3388414989,
				"y": -0.6062146249,
				"z": -0.5381154261,
				"element": "C" 
			},
			{
				"x": -0.3784740926,
				"y": 0.3863732903,
				"z": -1.5192871347,
				"element": "C" 
			},
			{
				"x": -0.0071655712,
				"y": -0.0244184756,
				"z": -3.2220273949,
				"element": "S" 
			},
			{
				"x": 1.6896012868,
				"y": 0.4997581725,
				"z": -3.4007285168,
				"element": "C" 
			},
			{
				"x": 2.2624459496,
				"y": 0.273554642,
				"z": -4.5584715018,
				"element": "N" 
			},
			{
				"x": 3.8392556303,
				"y": 0.8883236718,
				"z": -4.4548501854,
				"element": "S" 
			},
			{
				"x": 3.5718719277,
				"y": 1.3979241419,
				"z": -2.7911436483,
				"element": "C" 
			},
			{
				"x": 4.4921488173,
				"y": 2.0602547228,
				"z": -2.0364364503,
				"element": "N" 
			},
			{
				"x": 2.3611534976,
				"y": 1.1151611927,
				"z": -2.3756087007,
				"element": "N" 
			},
			{
				"x": -0.796426164,
				"y": 1.6794412762,
				"z": -1.1666389014,
				"element": "C" 
			},
			{
				"x": -1.1511928288,
				"y": 1.9711655974,
				"z": 0.1422990927,
				"element": "C" 
			},
			{
				"x": -2.1565628619,
				"y": -0.440105513,
				"z": 3.2011484176,
				"element": "H" 
			},
			{
				"x": -1.8016031723,
				"y": 0.907108907,
				"z": 4.3151848694,
				"element": "H" 
			},
			{
				"x": -0.4623575185,
				"y": -0.0156792085,
				"z": 3.5824959478,
				"element": "H" 
			},
			{
				"x": -0.6613586101,
				"y": -1.1155306409,
				"z": 1.5221940619,
				"element": "H" 
			},
			{
				"x": -0.0234754853,
				"y": -1.6098811298,
				"z": -0.8045897779,
				"element": "H" 
			},
			{
				"x": 5.4695678466,
				"y": 1.9710154326,
				"z": -2.2657538061,
				"element": "H" 
			},
			{
				"x": 4.2711707419,
				"y": 2.1314555901,
				"z": -1.0531363978,
				"element": "H" 
			},
			{
				"x": -0.8396286697,
				"y": 2.4541756046,
				"z": -1.9249779771,
				"element": "H" 
			},
			{
				"x": -1.4742235341,
				"y": 2.9660369767,
				"z": 0.430820554,
				"element": "H" 
			}
		],
		 "valence_orbital": [ 
			{
				"type": "occ",
				"energy": -0.27489,
				"method": "rhf"
			},
			{
				"type": "occ",
				"energy": -0.25672,
				"method": "rhf"
			},
			{
				"type": "occ",
				"energy": -0.25319,
				"method": "rhf"
			},
			{
				"type": "occ",
				"energy": -0.22403,
				"method": "rhf"
			},
			{
				"type": "occ",
				"energy": -0.21261,
				"method": "rhf"
			},
			{
				"type": "unocc",
				"energy": -0.01639,
				"method": "rhf"
			},
			{
				"type": "unocc",
				"energy": -0.01318,
				"method": "rhf"
			},
			{
				"type": "unocc",
				"energy": -0.00274,
				"method": "rhf"
			},
			{
				"type": "unocc",
				"energy": -0.00056,
				"method": "rhf"
			},
			{
				"type": "unocc",
				"energy": 0.05366,
				"method": "rhf"
			}
		],
		"cosmo_sigma_profile": { 
			"-0.025": 0.0,
			"-0.024": 0.0,
			"-0.023": 0.0,
			"-0.022": 0.0,
			"-0.021": 0.0,
			"-0.02": 0.0,
			"-0.019": 0.0,
			"-0.018": 0.0,
			"-0.017": 0.00356672143557,
			"-0.016": 1.01216321091,
			"-0.015": 2.99993280055,
			"-0.014": 2.32311594319,
			"-0.013": 2.21500166018,
			"-0.012": 3.06086507293,
			"-0.011": 2.49389745543,
			"-0.01": 1.5575198027,
			"-0.009": 2.54165275349,
			"-0.008": 1.86608918211,
			"-0.007": 4.64497868318,
			"-0.006": 14.3428816056,
			"-0.005": 16.9121627733,
			"-0.004": 16.7806657334,
			"-0.003": 14.8217337862,
			"-0.002": 13.0296143385,
			"-0.001": 14.0877626474,
			"0.0": 18.841836752,
			"0.001": 17.5340833836,
			"0.002": 19.0296273078,
			"0.003": 23.2116038748,
			"0.004": 20.3042260837,
			"0.005": 11.9616601207,
			"0.006": 9.84547162365,
			"0.007": 7.51503703341,
			"0.008": 5.85288673596,
			"0.009": 3.85666591294,
			"0.01": 3.86472028338,
			"0.011": 2.5702141663,
			"0.012": 2.5425016267,
			"0.013": 0.913166328175,
			"0.014": 1.35280127855,
			"0.015": 0.290256713782,
			"0.016": 0.0,
			"0.017": 0.0,
			"0.018": 0.0,
			"0.019": 0.0,
			"0.02": 0.0,
			"0.021": 0.0,
			"0.022": 0.0,
			"0.023": 0.0,
			"0.024": 0.0,
			"0.025": 0.0
		}
	}
}
