{
	 "smiles": "NC(=O)C(F)(Br)C(F)(F)F", 
	 "Tm": 356.65, 
	 "num_atms": 12, 
	 "gaussian": { 
		 "optdone": 1, 
		 "sigma_profile": "yes", 
		 "theory": "DFT", 
		 "functional": "B3LYP", 
		 "basiset": "6-31G**", 
		 "properties": { 
			 "R2extent": 2284.1849, 
			 "electric_dipole_moment_norm": 3.59865570179, 
			 "electric_quadrupole_moment_norm": 7.05706986787, 
			 "total_energy": -3216.26316744, 
			 "HOMO_LUMO_gap": 0.22551, 
			 "cosmo_polarized_energy": -10.76, 
			 "cosmo_cavitation_energy": 20.65, 
			 "cosmo_dispersion_energy": -14.86, 
			 "cosmo_repulsion_energy": 1.16, 
			 "cosmo_total_nonelectrostatic_energy": 6.96, 
			 "SMD_solvation_energy": 4.73 
		},
		"coords": [
			{
				"x": -0.8443457752,
				"y": 0.7104896733,
				"z": -0.918267328,
				"element": "N" 
			},
			{
				"x": 0.3235886069,
				"y": 0.767909586,
				"z": -0.2363781063,
				"element": "C" 
			},
			{
				"x": 0.9516162304,
				"y": 1.776387149,
				"z": 0.0191696637,
				"element": "O" 
			},
			{
				"x": 0.8298419197,
				"y": -0.6215684973,
				"z": 0.2248482082,
				"element": "C" 
			},
			{
				"x": 0.1102080949,
				"y": -1.6266491059,
				"z": -0.3721969457,
				"element": "F" 
			},
			{
				"x": 0.6124691918,
				"y": -0.7668997749,
				"z": 2.1671510114,
				"element": "Br" 
			},
			{
				"x": 2.3068057871,
				"y": -0.858934723,
				"z": -0.1622207518,
				"element": "C" 
			},
			{
				"x": 3.1352982886,
				"y": -0.0337163283,
				"z": 0.4722144152,
				"element": "F" 
			},
			{
				"x": 2.4296632099,
				"y": -0.6667122325,
				"z": -1.4907200538,
				"element": "F" 
			},
			{
				"x": 2.6580080038,
				"y": -2.1231824159,
				"z": 0.1100856623,
				"element": "F" 
			},
			{
				"x": -1.2878260531,
				"y": -0.1671520904,
				"z": -1.1348765079,
				"element": "H" 
			},
			{
				"x": -1.2388275048,
				"y": 1.5750287601,
				"z": -1.2562092673,
				"element": "H" 
			}
		],
		 "valence_orbital": [ 
			{
				"type": "occ",
				"energy": -0.37514,
				"method": "rhf"
			},
			{
				"type": "occ",
				"energy": -0.31332,
				"method": "rhf"
			},
			{
				"type": "occ",
				"energy": -0.3095,
				"method": "rhf"
			},
			{
				"type": "occ",
				"energy": -0.29564,
				"method": "rhf"
			},
			{
				"type": "occ",
				"energy": -0.27952,
				"method": "rhf"
			},
			{
				"type": "unocc",
				"energy": -0.05401,
				"method": "rhf"
			},
			{
				"type": "unocc",
				"energy": 0.02395,
				"method": "rhf"
			},
			{
				"type": "unocc",
				"energy": 0.05013,
				"method": "rhf"
			},
			{
				"type": "unocc",
				"energy": 0.08141,
				"method": "rhf"
			},
			{
				"type": "unocc",
				"energy": 0.11073,
				"method": "rhf"
			}
		],
		"cosmo_sigma_profile": { 
			"-0.025": 0.0,
			"-0.024": 0.0,
			"-0.023": 0.0,
			"-0.022": 0.0,
			"-0.021": 0.0,
			"-0.02": 0.0,
			"-0.019": 0.0,
			"-0.018": 0.0,
			"-0.017": 0.0,
			"-0.016": 0.708735082405,
			"-0.015": 2.39967854314,
			"-0.014": 1.84091495551,
			"-0.013": 2.47578313486,
			"-0.012": 2.37941225431,
			"-0.011": 1.8376585438,
			"-0.01": 1.8064369737,
			"-0.009": 2.0210801459,
			"-0.008": 1.694694124,
			"-0.007": 2.04746962565,
			"-0.006": 3.75443154762,
			"-0.005": 3.69646627663,
			"-0.004": 3.93630669542,
			"-0.003": 5.27600604096,
			"-0.002": 6.61157023142,
			"-0.001": 11.0787725259,
			"0.0": 17.2241496038,
			"0.001": 36.8152064765,
			"0.002": 30.8397558434,
			"0.003": 7.32507843876,
			"0.004": 2.53330930027,
			"0.005": 2.51419631187,
			"0.006": 2.00546692196,
			"0.007": 1.15264712993,
			"0.008": 1.95548584487,
			"0.009": 2.04269047285,
			"0.01": 1.91095429726,
			"0.011": 3.82016449298,
			"0.012": 3.99513595051,
			"0.013": 0.542642639922,
			"0.014": 0.0,
			"0.015": 0.0,
			"0.016": 0.0,
			"0.017": 0.0,
			"0.018": 0.0,
			"0.019": 0.0,
			"0.02": 0.0,
			"0.021": 0.0,
			"0.022": 0.0,
			"0.023": 0.0,
			"0.024": 0.0,
			"0.025": 0.0
		}
	}
}
